1000 SPC/Fw water molecules t= 437.00000 step= 437000
 3000
    1SOL     OW    1   3.045   0.097   1.416 -0.8017 -0.2666  0.2317
    1SOL    HW1    2   3.111   0.142   1.357 -2.9624  0.4349  2.5029
    1SOL    HW2    3   3.079   0.017   1.468 -1.7282 -1.0994 -2.9896
    2SOL     OW    4   2.856   3.044   0.053 -0.3021  0.6326  0.4488
    2SOL    HW1    5   2.957   3.027   0.075  2.6952 -0.1906  0.3134
    2SOL    HW2    6   2.803   2.966   0.089  2.6041 -1.6807  2.0146
    3SOL     OW    7   1.345   2.752   3.112  0.5378 -0.7548 -0.3259
    3SOL    HW1    8   1.288   2.667   3.090 -1.4612 -3.7840  0.1936
    3SOL    HW2    9   1.413   2.735   0.066  0.7391  3.9874 -1.0735
    4SOL     OW   10   1.249   2.840   2.395 -0.2300  0.1939 -0.2203
    4SOL    HW1   11   1.324   2.776   2.419  1.2053  1.9276  0.9300
    4SOL    HW2   12   1.165   2.801   2.440 -0.3382  2.0079 -1.9111
    5SOL     OW   13   2.254   0.446   1.724  0.3396  0.3504 -0.8949
    5SOL    HW1   14   2.203   0.497   1.791 -1.6900  1.2027 -0.4879
    5SOL    HW2   15   2.213   0.459   1.631  2.0175  0.4750  0.1666
    6SOL     OW   16   2.875   2.260   0.794  0.4192  0.1414  0.4528
    6SOL    HW1   17   2.876   2.349   0.845  1.2249 -1.3989  0.3844
    6SOL    HW2   18   2.879   2.180   0.857 -0.9741  1.1557 -0.1161
    7SOL     OW   19   1.537   1.945   0.593 -0.0174  0.0648 -0.3964
    7SOL    HW1   20   1.481   1.887   0.529  1.4029  1.9995 -2.5047
    7SOL    HW2   21   1.500   1.932   0.691 -0.8562  0.9541  1.8053
    8SOL     OW   22   0.324   1.466   1.066  0.0011 -0.8621 -1.0681
    8SOL    HW1   23   0.274   1.546   1.023 -1.5715 -2.2075  0.7140
    8SOL    HW2   24   0.405   1.437   1.006  0.4425 -2.0734 -1.6298
    9SOL     OW   25   3.100   2.965   1.514  0.5135  0.5461  0.3749
    9SOL    HW1   26   3.047   2.892   1.468 -3.9000 -1.4090 -1.0997
    9SOL    HW2   27   0.020   2.931   1.601  2.4257 -2.1016  0.0368
   10SOL     OW   28   1.115   2.470   0.574  0.0111  0.0977 -0.5184
   10SOL    HW1   29   1.186   2.475   0.648 -0.3540  0.0762  1.3991
   10SOL    HW2   30   1.033   2.522   0.606  0.1093 -1.2958  1.8955
   11SOL     OW   31   1.892   1.700   1.038  0.0575  0.6435  0.1890
   11SOL    HW1   32   1.803   1.728   0.999  0.9585  0.8577  2.6972
   11SOL    HW2   33   1.885   1.605   1.072 -0.7652  3.1321  0.0286
   12SOL     OW   34   0.253   1.023   1.920 -0.4355 -0.1106  0.1303
   12SOL    HW1   35   0.239   1.000   1.825  0.2319  1.8238  1.4819
   12SOL    HW2   36   0.209   0.962   1.988  0.4676 -1.9219  0.1091
   13SOL     OW   37   2.380   2.984   3.106  0.6528 -0.0908 -0.0913
   13SOL    HW1   38   2.353   2.886   3.114  0.6695  1.2818  1.0400
   13SOL    HW2   39   2.306   3.042   3.068  0.6929 -2.5459 -1.1763
   14SOL     OW   40   1.357   1.977   0.209 -0.5929 -0.5749  0.2956
   14SOL    HW1   41   1.303   1.932   0.279  1.0275  0.7559  0.5333
   14SOL    HW2   42   1.402   2.062   0.243  2.0655  0.2128 -2.2361
   15SOL     OW   43   3.057   2.717   1.979  0.0320  0.1721 -0.4313
   15SOL    HW1   44   0.004   2.688   1.905 -3.4494  1.6483 -1.9752
   15SOL    HW2   45   2.982   2.767   1.938  0.8618 -1.7724 -0.2722
   16SOL     OW   46   2.930   0.559   0.821  0.5804 -0.3547 -0.4368
   16SOL    HW1   47   2.926   0.573   0.720  2.2436 -1.6072  1.3965
   16SOL    HW2   48   2.847   0.516   0.861  0.5284 -2.5585  3.4096
   17SOL     OW   49   0.775   0.509   0.775 -1.0511 -0.4907  0.2865
   17SOL    HW1   50   0.846   0.577   0.754  1.4678 -1.0715  1.8887
   17SOL    HW2   51   0.724   0.492   0.692 -1.6311 -0.9309  0.4101
   18SOL     OW   52   0.849   0.158   0.859  0.0410 -0.4010 -0.0218
   18SOL    HW1   53   0.832   0.110   0.775 -0.8368  1.6015  1.2599
   18SOL    HW2   54   0.811   0.099   0.933  0.3040 -0.0339 -3.0952
   19SOL     OW   55   1.973   1.016   0.727 -0.3773  0.2753 -0.0928
   19SOL    HW1   56   1.929   1.101   0.758 -2.2034 -1.0126  0.4531
   19SOL    HW2   57   1.968   1.017   0.624  0.2895  0.4854 -1.6477
   20SOL     OW   58   2.150   1.608   2.726  0.4892  0.6916 -0.5116
   20SOL    HW1   59   2.115   1.553   2.646 -0.4380 -1.2673  1.0978
   20SOL    HW2   60   2.123   1.705   2.715 -1.2236 -2.2835 -4.5230
   21SOL     OW   61   1.361   3.001   0.340 -0.1519  0.2716  0.0386
   21SOL    HW1   62   1.323   3.028   0.250  2.0067  2.1859  1.8708
   21SOL    HW2   63   1.430   3.066   0.364 -2.1641 -1.2895  1.2823
   22SOL     OW   64   2.932   1.026   0.578  0.3967 -0.2342  0.1668
   22SOL    HW1   65   2.878   1.099   0.628 -0.9825  0.2021 -0.5746
   22SOL    HW2   66   2.880   0.939   0.567 -0.1265 -2.2282 -0.6973
   23SOL     OW   67   0.809   0.122   1.940 -0.3525  0.5934  0.3496
   23SOL    HW1   68   0.907   0.154   1.939  0.2813  1.1143  0.5706
   23SOL    HW2   69   0.744   0.189   1.892 -0.3378  2.2254 -3.0678
   24SOL     OW   70   1.715   2.464   0.600  0.0946 -0.3976  0.0742
   24SOL    HW1   71   1.811   2.461   0.640  0.1200 -1.6089  1.3883
   24SOL    HW2   72   1.655   2.383   0.619  0.0645  0.5465 -0.9878
   25SOL     OW   73   1.831   0.196   2.317  0.2088  0.5286 -0.1946
   25SOL    HW1   74   1.890   0.185   2.402  1.0357 -3.0607  1.7459
   25SOL    HW2   75   1.845   0.126   2.246 -1.1190 -0.5473  0.3037
   26SOL     OW   76   1.673   2.732   2.749  0.0331  0.5874 -0.2744
   26SOL    HW1   77   1.723   2.766   2.830 -1.2292 -0.8550  0.8739
   26SOL    HW2   78   1.600   2.660   2.777 -3.9658 -1.2551  1.1758
   27SOL     OW   79   1.483   0.488   1.014  0.1639  0.5093 -0.3513
   27SOL    HW1   80   1.579   0.468   1.031 -3.2447  0.4331  0.6480
   27SOL    HW2   81   1.427   0.404   1.038 -0.7989 -2.1616  1.5247
   28SOL     OW   82   0.642   1.671   0.890  0.6460  0.0485 -0.2523
   28SOL    HW1   83   0.745   1.686   0.893  2.3405  1.6183  0.8725
   28SOL    HW2   84   0.614   1.652   0.986  0.4287 -0.0557  0.2705
   29SOL     OW   85   2.459   0.642   1.391 -0.5651 -0.2548  0.4359
   29SOL    HW1   86   2.435   0.641   1.294  0.8760  0.6688 -0.7914
   29SOL    HW2   87   2.457   0.550   1.426  0.2497 -0.8113  1.4294
   30SOL     OW   88   1.630   2.426   1.391  0.5691  0.3361 -0.1461
   30SOL    HW1   89   1.711   2.378   1.352 -1.2301  0.2705 -0.1622
   30SOL    HW2   90   1.556   2.450   1.322 -0.7128  0.9964  3.2888
   31SOL     OW   91   2.017   2.772   1.554  0.3284 -0.8285 -0.4222
   31SOL    HW1   92   1.960   2.702   1.508  2.6396 -1.1760  1.9694
   31SOL    HW2   93   2.096   2.783   1.488  1.5370  0.3576 -1.6875
   32SOL     OW   94   1.922   1.610   2.030 -0.6333 -0.2490  0.0669
   32SOL    HW1   95   1.930   1.535   1.963  0.4586  0.6725 -2.5901
   32SOL    HW2   96   1.997   1.677   2.015  0.1695 -0.3004  1.1023
   33SOL     OW   97   2.465   0.030   2.419 -0.6887  0.1667  0.1279
   33SOL    HW1   98   2.397   0.040   2.498 -0.5136 -0.3940  3.5939
   33SOL    HW2   99   2.437   3.075   2.354  1.5493  1.6232  1.9305
   34SOL     OW  100   1.996   0.511   0.551  0.0524  0.0152 -0.0804
   34SOL    HW1  101   2.028   0.462   0.471  0.5317 -1.0954  3.7123
   34SOL    HW2  102   1.903   0.473   0.590 -0.0797  1.5174  2.5977
   35SOL     OW  103   0.139   2.050   2.120  0.8755 -0.7377  0.1872
   35SOL    HW1  104   0.072   2.082   2.195 -1.8437 -0.3051  0.6785
   35SOL    HW2  105   0.087   1.998   2.049  1.6732  0.6464  0.6076
   36SOL     OW  106   2.344   1.939   2.904  0.2743 -0.4498 -0.1266
   36SOL    HW1  107   2.322   1.930   3.005 -0.0317  1.9799  3.3544
   36SOL    HW2  108   2.441   1.935   2.881 -3.0478  3.0118  0.9431
   37SOL     OW  109   1.504   3.099   1.821 -0.1748 -0.5006 -0.3465
   37SOL    HW1  110   1.522   0.045   1.896 -0.6671  3.6300 -0.4494
   37SOL    HW2  111   1.557   3.013   1.828 -3.3184  0.8060  0.3413
   38SOL     OW  112   0.820   0.674   2.469  0.1586 -0.3329  0.8890
   38SOL    HW1  113   0.886   0.754   2.458 -0.0374  0.0514 -2.4552
   38SOL    HW2  114   0.877   0.591   2.475  0.3115  3.2482 -1.9194
   39SOL     OW  115   1.916   0.850   1.544  0.4891  0.1684  0.6090
   39SOL    HW1  116   1.830   0.889   1.567  4.3747  0.0472 -0.5912
   39SOL    HW2  117   1.965   0.885   1.460  0.2917  0.3162  0.0007
   40SOL     OW  118   1.023   2.471   0.918  0.0419 -0.4703 -0.3296
   40SOL    HW1  119   0.984   2.554   0.880 -2.8682  0.1815 -0.9626
   40SOL    HW2  120   1.082   2.427   0.848  0.9873  0.3170 -0.2684
   41SOL     OW  121   2.392   2.053   1.306 -0.0164 -0.4413  0.0537
   41SOL    HW1  122   2.446   2.137   1.326  0.5636  0.3576  1.7196
   41SOL    HW2  123   2.325   2.067   1.230  2.0673 -0.6940  2.5084
   42SOL     OW  124   2.636   0.418   0.342  0.0615  0.0690  0.6847
   42SOL    HW1  125   2.537   0.459   0.343 -1.2259  2.5133 -1.9274
   42SOL    HW2  126   2.637   0.333   0.285  2.6009 -1.3658 -1.3095
   43SOL     OW  127   0.820   1.076   2.529 -0.3633 -0.0140  0.0566
   43SOL    HW1  128   0.788   1.052   2.623  2.3075 -3.0318 -1.3856
   43SOL    HW2  129   0.807   1.172   2.505  0.2002 -2.2704 -1.9516
   44SOL     OW  130   1.840   2.556   1.560  0.8839 -0.3782  0.0271
   44SOL    HW1  131   1.755   2.510   1.520 -1.0155 -1.0496 -1.2024
   44SOL    HW2  132   1.923   2.510   1.521 -1.0000 -0.0117  1.3145
   45SOL     OW  133   0.917   2.573   2.912 -0.3934 -0.0732  0.2183
   45SOL    HW1  134   0.874   2.647   2.965 -0.1150  0.5624  0.1643
   45SOL    HW2  135   0.984   2.623   2.847  1.0555  0.7800  1.6472
   46SOL     OW  136   0.633   2.728   1.903 -0.4895  0.3325 -0.1006
   46SOL    HW1  137   0.699   2.789   1.948 -0.8780 -0.4744  0.7048
   46SOL    HW2  138   0.618   2.758   1.806 -1.8544 -0.9361  1.2795
   47SOL     OW  139   0.612   1.963   0.658  0.3131  0.0696 -0.4859
   47SOL    HW1  140   0.647   1.868   0.680  0.4399 -1.7202 -0.8317
   47SOL    HW2  141   0.509   1.969   0.656 -0.7366 -0.9833 -2.1145
   48SOL     OW  142   0.686   2.847   1.110 -0.0214  0.1429 -0.2806
   48SOL    HW1  143   0.638   2.899   1.185 -3.1036  1.1488  2.2849
   48SOL    HW2  144   0.659   2.747   1.129  0.4607  0.8907  2.1003
   49SOL     OW  145   0.003   2.955   2.705  0.1920 -0.0433 -0.3215
   49SOL    HW1  146   3.059   2.922   2.633 -0.2106  2.5260 -0.5298
   49SOL    HW2  147   3.072   3.016   2.767 -0.6973  0.7933 -1.9034
   50SOL     OW  148   1.426   1.245   0.567 -0.2104  0.5201 -0.5193
   50SOL    HW1  149   1.327   1.218   0.552 -1.3007  2.4501  0.5302
   50SOL    HW2  150   1.493   1.198   0.501  1.3935 -1.4510 -0.4514
   51SOL     OW  151   2.123   2.878   0.517  0.0997  0.4170  0.0915
   51SOL    HW1  152   2.141   2.862   0.418 -0.1188  0.8097 -0.3443
   51SOL    HW2  153   2.099   2.976   0.537 -1.2300  0.2466 -3.6956
   52SOL     OW  154   0.707   1.660   0.592 -0.2875 -0.3108  0.9902
   52SOL    HW1  155   0.666   1.601   0.668 -0.4232  0.2984 -0.5084
   52SOL    HW2  156   0.811   1.656   0.587  0.1421 -0.6788 -0.3723
   53SOL     OW  157   0.210   1.218   2.842  0.1065 -0.0211  0.0266
   53SOL    HW1  158   0.146   1.139   2.842 -0.1578  0.7819  0.3397
   53SOL    HW2  159   0.244   1.248   2.931  1.4945  1.9320 -3.2783
   54SOL     OW  160   2.564   2.039   0.169 -0.2661 -0.2642  0.0028
   54SOL    HW1  161   2.603   2.085   0.251 -1.1158  3.5031 -1.3269
   54SOL    HW2  162   2.476   1.992   0.187  2.3431 -0.5296 -1.1907
   55SOL     OW  163   2.453   2.325   1.355 -0.1072 -0.4506  0.9080
   55SOL    HW1  164   2.477   2.391   1.437  0.2482  1.1840  2.7121
   55SOL    HW2  165   2.403   2.376   1.279 -0.1048  1.1585  1.1819
   56SOL     OW  166   1.584   0.005   1.559  0.6350  0.1655  0.4833
   56SOL    HW1  167   1.564   0.003   1.656  2.4810  0.0594 -3.9397
   56SOL    HW2  168   1.678   3.093   1.554 -0.8074  0.5690  0.8127
   57SOL     OW  169   1.643   1.777   0.955 -0.0004 -0.0116 -0.6397
   57SOL    HW1  170   1.629   1.867   1.005 -0.1452  2.5384 -0.4864
   57SOL    HW2  171   1.572   1.780   0.878 -0.7379  0.0652 -1.6234
   58SOL     OW  172   2.517   0.449   1.757  0.2109  0.1511 -0.2653
   58SOL    HW1  173   2.527   0.475   1.855 -2.2970 -0.6349 -0.5896
   58SOL    HW2  174   2.417   0.424   1.734 -0.9054 -0.8199 -0.7203
   59SOL     OW  175   1.135   2.615   2.209  0.5534  0.0755  0.0943
   59SOL    HW1  176   1.147   2.714   2.175 -0.6925  1.1332 -0.6191
   59SOL    HW2  177   1.044   2.578   2.173 -0.6582  2.0191  2.0634
   60SOL     OW  178   0.920   0.146   2.648  0.4623  0.1371 -0.3273
   60SOL    HW1  179   0.876   0.187   2.568  0.2006 -1.3743 -0.4104
   60SOL    HW2  180   0.864   0.155   2.732 -0.0161 -0.7094 -1.9116
   61SOL     OW  181   0.757   2.195   0.692  0.3418  0.1197 -0.3273
   61SOL    HW1  182   0.833   2.193   0.626 -2.7246  0.5428  1.5039
   61SOL    HW2  183   0.693   2.121   0.689  3.0409  2.2023  0.5751
   62SOL     OW  184   1.088   1.668   2.065  0.1451  0.5104  0.3022
   62SOL    HW1  185   0.994   1.707   2.040  0.3773  2.2244 -1.1556
   62SOL    HW2  186   1.091   1.657   2.165 -1.1846 -1.0113 -1.6348
   63SOL     OW  187   0.901   1.721   0.848  0.2963  0.3848 -0.0631
   63SOL    HW1  188   0.980   1.694   0.904 -0.7916 -1.7119  1.5083
   63SOL    HW2  189   0.925   1.707   0.752 -0.6269 -0.2243  2.1607
   64SOL     OW  190   1.394   1.471   2.967  0.7434 -0.3701 -0.6191
   64SOL    HW1  191   1.325   1.548   2.973  3.7092 -3.1474  1.0339
   64SOL    HW2  192   1.340   1.383   2.957  0.0031  1.6323  2.3721
   65SOL     OW  193   1.509   2.212   2.410  0.3564 -0.1928  0.8636
   65SOL    HW1  194   1.484   2.153   2.328 -2.3216 -2.4358 -0.1490
   65SOL    HW2  195   1.605   2.194   2.439  0.9056  1.7062  1.5151
   66SOL     OW  196   0.143   0.848   1.095  0.3449 -0.8027  0.0122
   66SOL    HW1  197   0.243   0.836   1.078  0.4484  0.2321 -0.7518
   66SOL    HW2  198   0.083   0.791   1.033  1.5613  0.2259  0.5154
   67SOL     OW  199   2.318   2.561   0.428  0.0933  0.0813  0.6691
   67SOL    HW1  200   2.255   2.488   0.462 -0.4225 -0.4004 -1.1547
   67SOL    HW2  201   2.367   2.538   0.348 -0.6576 -1.7285  1.5079
   68SOL     OW  202   2.556   2.539   1.496  0.2115  0.7563 -0.0290
   68SOL    HW1  203   2.521   2.628   1.460 -0.1414  1.6476  0.6997
   68SOL    HW2  204   2.543   2.541   1.599 -0.7430  3.7870  1.8794
   69SOL     OW  205   2.689   2.604   2.749 -0.5583  0.2940 -0.0868
   69SOL    HW1  206   2.740   2.550   2.682 -0.7649  2.8507  2.2341
   69SOL    HW2  207   2.638   2.677   2.698 -0.6883 -1.3232 -0.9853
   70SOL     OW  208   0.459   1.232   2.736 -0.1232 -0.1464  0.3112
   70SOL    HW1  209   0.469   1.151   2.675 -2.0131 -0.9864  0.0732
   70SOL    HW2  210   0.373   1.215   2.790 -3.7461  2.1092 -2.1257
   71SOL     OW  211   0.986   1.330   1.980  0.1327 -0.0441  0.1282
   71SOL    HW1  212   0.942   1.244   1.964  0.2125  2.2655 -0.4906
   71SOL    HW2  213   0.972   1.397   1.906 -2.0264 -0.0251  0.3099
   72SOL     OW  214   2.486   1.439   1.890  0.0026  0.3154  0.4458
   72SOL    HW1  215   2.435   1.430   1.980  3.9087  1.9322  0.2834
   72SOL    HW2  216   2.584   1.456   1.906  0.2789  0.4958 -2.0732
   73SOL     OW  217   0.493   1.983   3.025 -0.0655  0.2138  0.0887
   73SOL    HW1  218   0.451   1.992   2.934 -1.9950  0.2978  1.2695
   73SOL    HW2  219   0.530   1.888   3.037  0.9031 -1.2281 -0.1157
   74SOL     OW  220   1.584   2.842   1.831  0.1487 -0.3397  0.5115
   74SOL    HW1  221   1.511   2.816   1.900 -1.1668  1.4589  1.3010
   74SOL    HW2  222   1.664   2.781   1.833 -0.3471  0.7468  3.4264
   75SOL     OW  223   0.921   2.866   0.698  0.1999 -0.8554 -0.0080
   75SOL    HW1  224   0.994   2.871   0.768  0.9701  1.7554  0.1667
   75SOL    HW2  225   0.954   2.934   0.627  0.1355  0.8892 -1.1138
   76SOL     OW  226   0.244   1.645   2.772 -0.1158 -0.3981  0.4501
   76SOL    HW1  227   0.323   1.589   2.804  3.7924 -0.8017 -0.9037
   76SOL    HW2  228   0.162   1.612   2.816  3.0025  2.2038  1.1543
   77SOL     OW  229   0.351   2.336   1.418 -0.3757  0.8550  0.3782
   77SOL    HW1  230   0.366   2.422   1.363 -1.9509 -2.3793 -2.2641
   77SOL    HW2  231   0.363   2.345   1.517 -0.5475  0.0557 -1.2785
   78SOL     OW  232   2.555   1.102   0.230 -0.2836 -0.1273 -0.1660
   78SOL    HW1  233   2.598   1.150   0.157  2.0096 -1.8801 -1.2901
   78SOL    HW2  234   2.549   1.162   0.311  2.3281 -1.5555 -4.6150
   79SOL     OW  235   0.570   1.732   3.081  0.1415 -0.1108  0.3116
   79SOL    HW1  236   0.499   1.657   3.078  0.2737 -2.5001 -0.3557
   79SOL    HW2  237   0.653   1.716   3.016  0.4690  1.4628  0.1703
   80SOL     OW  238   1.626   1.752   1.359 -0.1107 -0.8304 -0.2045
   80SOL    HW1  239   1.656   1.740   1.459  0.4524 -1.5385  0.6309
   80SOL    HW2  240   1.566   1.673   1.343  0.4305  2.6355 -1.7935
   81SOL     OW  241   2.276   0.961   2.204 -0.3582  0.1198 -0.1219
   81SOL    HW1  242   2.251   0.872   2.161  1.3011  1.6210  0.6923
   81SOL    HW2  243   2.192   1.017   2.219  1.0240  2.0233 -0.3321
   82SOL     OW  244   1.471   1.388   1.477 -0.3950  0.9848 -0.2490
   82SOL    HW1  245   1.467   1.463   1.410  0.6385 -3.0431 -1.5228
   82SOL    HW2  246   1.422   1.417   1.563 -0.9867 -0.4432 -2.1804
   83SOL     OW  247   0.138   0.296   0.021  0.4548  0.0109  0.1673
   83SOL    HW1  248   0.097   0.248   3.058  1.1887 -2.2129 -1.4009
   83SOL    HW2  249   0.233   0.260   0.032  0.4686 -3.1840  0.8887
   84SOL     OW  250   0.596   1.256   0.288 -0.1573 -0.0154  0.2970
   84SOL    HW1  251   0.604   1.208   0.197  2.0250  0.2547  0.8231
   84SOL    HW2  252   0.550   1.345   0.278 -2.1847 -1.3751 -1.7656
   85SOL     OW  253   2.248   1.691   1.690  0.3918  0.5025 -0.0887
   85SOL    HW1  254   2.275   1.594   1.667  0.7328  1.4737 -0.5984
   85SOL    HW2  255   2.274   1.748   1.612 -0.4829  0.5297  3.0470
   86SOL     OW  256   0.607   0.700   1.156  0.1866 -0.6650  0.1919
   86SOL    HW1  257   0.684   0.701   1.089  0.2672  0.3671 -0.9505
   86SOL    HW2  258   0.622   0.691   1.254 -0.9926 -0.2865 -2.5835
   87SOL     OW  259   2.685   2.182   2.786 -0.1852 -0.2694  0.0408
   87SOL    HW1  260   2.765   2.158   2.727  2.3041  1.0032  0.5313
   87SOL    HW2  261   2.604   2.210   2.729  3.7634 -1.4550 -2.0782
   88SOL     OW  262   0.207   2.865   3.096 -0.1537  0.9302 -0.0193
   88SOL    HW1  263   0.275   2.848   0.054  0.9917  0.7733 -0.2684
   88SOL    HW2  264   0.245   2.917   3.020 -2.0080 -1.2165 -0.3115
   89SOL     OW  265   1.376   0.275   0.166  0.0592 -0.3143 -0.0186
   89SOL    HW1  266   1.458   0.284   0.110  1.8592 -0.3839  0.6386
   89SOL    HW2  267   1.334   0.367   0.183 -0.4193  1.7538 -0.7298
   90SOL     OW  268   2.954   1.574   2.390  0.4507  0.0613 -0.2118
   90SOL    HW1  269   2.932   1.553   2.489  0.2810  0.0230 -0.8730
   90SOL    HW2  270   2.954   1.490   2.333  0.3955 -2.0428  2.5292
   91SOL     OW  271   2.140   2.905   1.276  0.1075 -0.3451  0.5317
   91SOL    HW1  272   2.202   2.984   1.265 -2.0616 -0.6708  0.3973
   91SOL    HW2  273   2.052   2.930   1.236  0.6017 -0.9713  0.2991
   92SOL     OW  274   1.965   1.319   0.779  0.3314  0.6177 -0.4927
   92SOL    HW1  275   2.033   1.309   0.703 -1.6155  0.7480 -0.2596
   92SOL    HW2  276   2.011   1.345   0.867  0.2023 -0.8051 -0.8438
   93SOL     OW  277   0.185   1.338   0.317 -0.2031 -0.0378  0.2763
   93SOL    HW1  278   0.272   1.380   0.294 -0.7620 -0.6823 -1.4057
   93SOL    HW2  279   0.133   1.311   0.236  1.5454 -0.2653 -0.4064
   94SOL     OW  280   1.158   2.563   1.549 -0.0358 -0.1530  0.2024
   94SOL    HW1  281   1.240   2.507   1.526 -0.4658 -2.4023 -1.0955
   94SOL    HW2  282   1.102   2.518   1.622  2.0509  0.3743  1.9584
   95SOL     OW  283   0.136   0.742   0.523 -0.0910  0.3339  0.0103
   95SOL    HW1  284   0.227   0.781   0.502 -4.0648  0.7639  0.3940
   95SOL    HW2  285   0.134   0.705   0.618  2.4149  0.2558  2.2798
   96SOL     OW  286   0.316   3.109   1.686 -0.6658  0.0222  0.2126
   96SOL    HW1  287   0.254   3.029   1.697  0.6718 -0.4186  0.1168
   96SOL    HW2  288   0.380   3.091   1.608  0.9202 -0.6987 -1.4567
   97SOL     OW  289   2.233   0.508   0.716  0.0279  0.5348 -0.6151
   97SOL    HW1  290   2.144   0.504   0.662  0.3677  0.4539 -1.6874
   97SOL    HW2  291   2.305   0.442   0.686 -1.3710 -1.5802 -1.2254
   98SOL     OW  292   2.784   2.294   1.716 -0.0777  0.4377 -0.2551
   98SOL    HW1  293   2.787   2.386   1.754  2.9525  0.7608  0.3998
   98SOL    HW2  294   2.785   2.302   1.614 -0.9475 -2.7703 -0.3439
   99SOL     OW  295   2.931   0.355   1.468  0.2915 -0.0815 -0.2602
   99SOL    HW1  296   3.010   0.292   1.454  0.7950  0.4694  0.0741
   99SOL    HW2  297   2.930   0.385   1.565  0.0137 -0.4543 -2.5643
  100SOL     OW  298   2.037   0.394   2.696 -0.1093  0.4589  0.6012
  100SOL    HW1  299   2.103   0.466   2.656  0.8757 -1.2601  0.0663
  100SOL    HW2  300   1.948   0.398   2.650  0.3554  0.9260 -0.7681
  101SOL     OW  301   0.844   3.008   2.360 -0.1771  0.4340  0.3753
  101SOL    HW1  302   0.837   2.934   2.288 -0.2550 -1.7184 -3.1616
  101SOL    HW2  303   0.826   2.971   2.454 -1.5656 -0.6496  0.9522
  102SOL     OW  304   0.845   0.457   1.604 -0.2080  0.7037 -0.5228
  102SOL    HW1  305   0.803   0.387   1.538 -0.2859  0.5582 -0.4789
  102SOL    HW2  306   0.893   0.535   1.559  2.2106  1.7541  0.5797
  103SOL     OW  307   1.068   0.819   2.482 -0.0282 -0.4996 -0.0175
  103SOL    HW1  308   1.144   0.760   2.505  0.1056 -1.6414 -0.7380
  103SOL    HW2  309   1.091   0.881   2.400 -4.1765  0.1714  0.0917
  104SOL     OW  310   0.341   0.402   1.860  0.0471 -0.1417 -0.4547
  104SOL    HW1  311   0.378   0.496   1.871  1.4953 -0.5492  2.5982
  104SOL    HW2  312   0.394   0.335   1.918  1.2010 -0.5377  0.2588
  105SOL     OW  313   2.486   1.941   1.698  0.2559 -0.5083 -0.4454
  105SOL    HW1  314   2.573   1.986   1.669  1.5921  0.0473  1.3505
  105SOL    HW2  315   2.449   1.979   1.786  0.9343 -0.6833 -1.0600
  106SOL     OW  316   1.056   3.071   0.553  0.3023  0.5819  0.0667
  106SOL    HW1  317   1.049   3.059   0.454  0.2345 -0.1977  2.4202
  106SOL    HW2  318   1.148   3.101   0.578 -2.8083  0.0890 -1.0387
  107SOL     OW  319   2.634   1.949   1.216 -0.1781  0.3579  0.2933
  107SOL    HW1  320   2.538   1.970   1.199  0.7426 -0.1145 -1.3791
  107SOL    HW2  321   2.669   1.902   1.130 -0.9498 -2.0824 -2.4275
  108SOL     OW  322   0.089   2.163   0.569 -0.3671 -0.0449 -0.3280
  108SOL    HW1  323   0.179   2.117   0.564  1.3670 -1.9960 -1.4951
  108SOL    HW2  324   0.065   2.160   0.668  0.5502 -0.0432 -0.4741
  109SOL     OW  325   1.519   3.030   0.669 -0.6223  0.3661  0.4863
  109SOL    HW1  326   1.488   2.941   0.639  1.6230  0.8525  3.0274
  109SOL    HW2  327   1.613   3.045   0.637  1.5708 -0.6637  2.8906
  110SOL     OW  328   1.706   1.269   0.862 -0.0254 -0.4104 -0.5129
  110SOL    HW1  329   1.783   1.292   0.800 -1.0156 -1.4382  1.3898
  110SOL    HW2  330   1.652   1.352   0.886  0.8167 -0.6260  0.2462
  111SOL     OW  331   1.652   2.440   1.919 -0.6049 -0.0419  0.4761
  111SOL    HW1  332   1.549   2.423   1.898 -3.1021 -1.4611  0.0283
  111SOL    HW2  333   1.701   2.364   1.869 -2.3802 -1.7487  0.9988
  112SOL     OW  334   1.909   2.172   2.843 -0.0104  0.5553  0.0962
  112SOL    HW1  335   1.995   2.171   2.789  0.4499  1.3976  1.1697
  112SOL    HW2  336   1.930   2.168   2.944 -0.1549 -1.8911 -1.0970
  113SOL     OW  337   1.890   1.829   1.714  0.2407  0.3779 -0.0113
  113SOL    HW1  338   1.951   1.797   1.790 -0.2438  1.4578  1.0339
  113SOL    HW2  339   1.943   1.865   1.636  2.3145 -1.9975  0.2488
  114SOL     OW  340   0.250   1.050   1.392  0.1406  0.4917  0.5067
  114SOL    HW1  341   0.150   1.061   1.381 -3.8853  0.7109 -0.1450
  114SOL    HW2  342   0.295   1.141   1.389  0.0340 -0.2041 -0.5688
  115SOL     OW  343   3.023   0.729   2.787 -0.2380 -0.7968  0.0543
  115SOL    HW1  344   3.081   0.753   2.705  1.2936 -2.6133  0.0831
  115SOL    HW2  345   2.927   0.710   2.760 -1.4554 -0.7075  3.3082
  116SOL     OW  346   2.771   0.340   2.674 -0.0070 -0.1462  0.4541
  116SOL    HW1  347   2.808   0.406   2.744  2.3387 -0.3411 -1.3827
  116SOL    HW2  348   2.701   0.391   2.620  1.3768 -0.5531  0.8143
  117SOL     OW  349   2.759   2.820   0.216 -0.4157  0.4217  0.4362
  117SOL    HW1  350   2.834   2.751   0.223 -0.6556 -0.8619  2.5947
  117SOL    HW2  351   2.676   2.771   0.190  1.0285  1.6626 -3.9109
  118SOL     OW  352   0.379   2.091   2.407 -0.4671 -0.3236 -0.6454
  118SOL    HW1  353   0.358   2.167   2.471 -0.9432 -0.1168  0.2826
  118SOL    HW2  354   0.309   2.073   2.336  1.8241 -0.0510  0.9629
  119SOL     OW  355   0.755   2.811   0.465  0.2898  0.6568 -0.0402
  119SOL    HW1  356   0.706   2.720   0.452 -1.5639 -0.4764  2.1106
  119SOL    HW2  357   0.767   2.823   0.564  0.1224 -1.5485 -0.7715
  120SOL     OW  358   1.416   0.936   0.431 -0.5406 -0.5398  0.5154
  120SOL    HW1  359   1.381   0.874   0.503  0.6734 -0.5036 -0.7394
  120SOL    HW2  360   1.515   0.970   0.451 -0.0055  0.5760 -1.0174
  121SOL     OW  361   1.740   0.339   0.572  0.1856  0.4515  0.4767
  121SOL    HW1  362   1.780   0.312   0.659  0.4499 -0.3570 -1.7472
  121SOL    HW2  363   1.640   0.342   0.589  1.3788 -0.0621 -0.5833
  122SOL     OW  364   2.043   1.371   2.238 -0.0150 -0.6688 -0.0109
  122SOL    HW1  365   2.000   1.458   2.226  2.4761 -1.5853 -0.2957
  122SOL    HW2  366   2.075   1.334   2.154 -3.7881  1.6329  2.4604
  123SOL     OW  367   1.150   0.948   1.043  1.0254 -0.3100  0.4795
  123SOL    HW1  368   1.170   0.850   1.054  1.8296  0.6098  0.1990
  123SOL    HW2  369   1.134   0.983   1.139 -0.4468 -4.0242 -0.8932
  124SOL     OW  370   0.670   0.569   2.869  0.6509 -0.0081 -0.1704
  124SOL    HW1  371   0.645   0.573   2.772 -0.1732  1.0184  1.3362
  124SOL    HW2  372   0.750   0.625   2.884 -2.3557 -2.2751 -1.3187
  125SOL     OW  373   0.882   0.357   0.146  0.6799  0.2905 -0.2788
  125SOL    HW1  374   0.951   0.299   0.185 -0.5359  0.0258 -1.5089
  125SOL    HW2  375   0.794   0.337   0.196 -2.1227  1.1021 -0.1868
  126SOL     OW  376   0.488   1.676   0.430 -0.1884 -0.0151 -0.0158
  126SOL    HW1  377   0.414   1.643   0.490  2.4314 -1.4904 -0.5217
  126SOL    HW2  378   0.576   1.675   0.483  4.4567 -1.4647 -1.0949
  127SOL     OW  379   0.936   2.705   1.792 -0.3382 -0.0045  0.0065
  127SOL    HW1  380   0.865   2.762   1.748  0.4175 -0.6975 -0.7389
  127SOL    HW2  381   1.023   2.759   1.794  2.3145 -2.4126  1.1662
  128SOL     OW  382   1.102   1.766   0.370 -0.6854  0.0554 -0.1079
  128SOL    HW1  383   1.103   1.704   0.289  1.2935 -1.2654  0.3931
  128SOL    HW2  384   1.040   1.848   0.347 -4.1309 -1.7061 -1.7762
  129SOL     OW  385   1.690   1.468   1.784  0.7266 -0.3324 -0.5253
  129SOL    HW1  386   1.640   1.536   1.727 -1.8600 -0.5230 -3.2791
  129SOL    HW2  387   1.784   1.480   1.807 -1.6864 -0.2531  0.1743
  130SOL     OW  388   2.032   1.939   1.483  0.0777  0.0890  0.2515
  130SOL    HW1  389   2.122   1.898   1.495 -1.1143 -0.3502  0.8794
  130SOL    HW2  390   1.990   1.920   1.393 -2.1279 -3.2427  1.5264
  131SOL     OW  391   0.233   2.577   2.026 -0.2830  0.3483 -0.5763
  131SOL    HW1  392   0.271   2.584   2.121 -1.1076  0.6252 -0.5797
  131SOL    HW2  393   0.162   2.507   2.019  1.4561 -1.8710 -1.4264
  132SOL     OW  394   2.666   1.756   0.702  0.2704 -0.2881  0.1278
  132SOL    HW1  395   2.593   1.692   0.721  1.2955  0.4664  1.7457
  132SOL    HW2  396   2.724   1.750   0.781  0.8364 -2.1635  0.6313
  133SOL     OW  397   0.724   0.874   1.708  0.2261  0.2127 -0.4532
  133SOL    HW1  398   0.712   0.978   1.700  0.7807  2.1822  0.4769
  133SOL    HW2  399   0.770   0.846   1.798  1.6853 -0.9293  0.6152
  134SOL     OW  400   2.555   1.288   0.443 -0.0547  0.1472 -0.2670
  134SOL    HW1  401   2.657   1.284   0.461  0.8415  3.5058 -3.2689
  134SOL    HW2  402   2.519   1.355   0.512 -2.3963 -1.7445 -2.8928
  135SOL     OW  403   1.801   0.957   2.778 -0.3951 -0.1741 -0.1666
  135SOL    HW1  404   1.830   1.028   2.847  1.0777 -0.4342 -1.0263
  135SOL    HW2  405   1.871   0.879   2.774  0.3843 -0.2534  0.1251
  136SOL     OW  406   2.842   1.602   1.267 -0.0430  0.4941 -0.4434
  136SOL    HW1  407   2.841   1.645   1.359  0.7162 -0.5864  1.2199
  136SOL    HW2  408   2.747   1.593   1.234  3.3018 -0.9251  0.5112
  137SOL     OW  409   2.344   1.871   0.484  0.1415 -0.4434 -0.1936
  137SOL    HW1  410   2.313   1.791   0.537 -2.3183  0.6993 -2.1015
  137SOL    HW2  411   2.433   1.909   0.522  0.7835  1.7953  0.6816
  138SOL     OW  412   2.768   0.801   0.515 -0.4131  0.3637 -0.1086
  138SOL    HW1  413   2.807   0.708   0.497  2.0271  0.3999  3.4483
  138SOL    HW2  414   2.681   0.808   0.461  1.6021  0.3397 -0.6726
  139SOL     OW  415   2.961   3.101   2.884  0.5310 -0.3830 -0.0080
  139SOL    HW1  416   2.934   3.068   2.973 -1.4661 -0.3299 -3.0640
  139SOL    HW2  417   2.878   3.108   2.819 -0.8668  0.5554  0.1693
  140SOL     OW  418   0.708   1.146   1.670  0.0585  0.0717  0.2929
  140SOL    HW1  419   0.757   1.163   1.755  0.7456  0.2037  1.9293
  140SOL    HW2  420   0.693   1.236   1.627 -0.7850  0.4652  0.2087
  141SOL     OW  421   1.319   1.536   1.014  0.0075  0.1699  0.5193
  141SOL    HW1  422   1.249   1.471   1.054 -1.7404 -0.2904  1.3922
  141SOL    HW2  423   1.284   1.629   1.023 -0.0389 -0.1805 -1.2500
  142SOL     OW  424   1.536   0.921   1.086  0.7497 -0.0522 -0.1350
  142SOL    HW1  425   1.558   0.892   0.988  0.2679 -0.4011 -0.7134
  142SOL    HW2  426   1.598   0.871   1.154  1.6957  3.5936  1.8659
  143SOL     OW  427   0.745   1.008   2.791  0.0774  0.1517  0.4094
  143SOL    HW1  428   0.713   1.094   2.833  0.6356 -0.6240  2.2011
  143SOL    HW2  429   0.672   0.959   2.740  1.2970 -1.8911 -1.0151
  144SOL     OW  430   2.471   3.053   0.229  0.2983 -0.1487 -0.4880
  144SOL    HW1  431   2.521   2.976   0.262 -1.1428  0.5500 -0.6967
  144SOL    HW2  432   2.412   3.029   0.151 -0.9426  0.5571 -1.8751
  145SOL     OW  433   2.378   0.255   2.774  0.0635  0.0733  0.1741
  145SOL    HW1  434   2.306   0.269   2.847  2.4611 -0.9216  1.6963
  145SOL    HW2  435   2.399   0.346   2.740 -0.7303 -4.3393  0.2632
  146SOL     OW  436   3.097   3.012   0.370 -0.3055 -0.9845  0.2733
  146SOL    HW1  437   3.105   2.992   0.269 -0.6593 -1.0958 -0.9268
  146SOL    HW2  438   3.033   3.092   0.391  0.4207  0.9248  0.9360
  147SOL     OW  439   1.298   1.226   2.925  0.7970 -0.2898  0.0479
  147SOL    HW1  440   1.392   1.197   2.899  3.5864 -0.2541  0.0275
  147SOL    HW2  441   1.226   1.201   2.856 -0.5951 -0.9174 -1.0854
  148SOL     OW  442   1.298   0.020   0.094  0.1429 -0.7478  0.1772
  148SOL    HW1  443   1.333   0.113   0.106 -2.8253  0.0584  0.4169
  148SOL    HW2  444   1.310   3.111   3.116 -0.7137  2.0178  0.4890
  149SOL     OW  445   1.611   0.668   2.172 -0.1018 -0.1234  0.3353
  149SOL    HW1  446   1.684   0.739   2.186 -0.6212  0.4889 -1.0803
  149SOL    HW2  447   1.539   0.707   2.120 -0.0625 -0.5170  0.2772
  150SOL     OW  448   1.940   2.984   2.809 -0.4585 -0.5185 -0.7418
  150SOL    HW1  449   1.924   3.027   2.899 -1.6409 -3.1646  2.4814
  150SOL    HW2  450   2.044   2.984   2.791  2.6734  0.6331 -0.0649
  151SOL     OW  451   0.453   1.483   0.252 -0.0649  0.4667 -0.0341
  151SOL    HW1  452   0.406   1.516   0.163 -0.6590 -0.4657 -1.1725
  151SOL    HW2  453   0.467   1.562   0.311 -0.2414 -1.3054 -1.7035
  152SOL     OW  454   0.657   0.554   1.392  0.6791  0.0157  0.1873
  152SOL    HW1  455   0.570   0.537   1.445  2.7439  2.9312  1.3375
  152SOL    HW2  456   0.688   0.467   1.347  1.5510 -2.0115 -0.4512
  153SOL     OW  457   2.464   3.052   2.038  0.1487 -0.3632 -0.3474
  153SOL    HW1  458   2.411   0.019   2.013 -2.0021 -0.1714  2.2244
  153SOL    HW2  459   2.428   3.009   2.123  0.5682 -0.3567 -1.1963
  154SOL     OW  460   2.095   3.031   2.226 -0.0698 -0.4881  0.3218
  154SOL    HW1  461   2.087   0.009   2.190  1.5196  1.3769 -2.9425
  154SOL    HW2  462   2.108   2.970   2.147 -0.2711  1.1821  3.3728
  155SOL     OW  463   0.426   1.059   0.682  0.4967 -0.0682  0.5518
  155SOL    HW1  464   0.390   1.151   0.647 -3.1043  2.0940  0.2155
  155SOL    HW2  465   0.504   1.055   0.745  1.0135  2.7638  1.9306
  156SOL     OW  466   2.221   1.646   0.584  0.5017  0.3932 -0.0722
  156SOL    HW1  467   2.270   1.559   0.585  0.5451  0.4470 -1.7046
  156SOL    HW2  468   2.161   1.635   0.500  0.1274  0.3629 -2.6034
  157SOL     OW  469   1.070   0.328   3.063  0.2010  0.4330  0.3001
  157SOL    HW1  470   1.076   0.227   3.068 -1.5189 -2.7095  0.9973
  157SOL    HW2  471   1.008   0.357   0.022 -3.3859  0.7306 -1.7617
  158SOL     OW  472   1.718   1.053   1.399  0.1787  0.3972 -0.1711
  158SOL    HW1  473   1.722   1.113   1.479 -0.7547 -2.6334  0.3665
  158SOL    HW2  474   1.727   1.109   1.312 -0.4247  1.9937 -1.2450
  159SOL     OW  475   3.103   0.285   0.234  0.0917  0.1163  0.1836
  159SOL    HW1  476   0.017   0.343   0.311 -0.3374  2.8735  2.5404
  159SOL    HW2  477   0.046   0.292   0.149  1.9733 -3.5750  1.3590
  160SOL     OW  478   2.367   2.014   1.942  0.2702 -0.5857  0.2267
  160SOL    HW1  479   2.362   2.017   2.045  0.5667  2.6542 -2.9018
  160SOL    HW2  480   2.293   2.074   1.905 -0.1491 -3.1777 -0.8954
  161SOL     OW  481   0.480   0.753   2.961  0.3162 -0.6604  0.0053
  161SOL    HW1  482   0.538   0.689   2.907 -0.4365  1.7493 -2.1752
  161SOL    HW2  483   0.389   0.707   2.962 -1.1239 -1.3645 -2.0486
  162SOL     OW  484   0.680   0.332   1.811 -0.3631 -0.4453 -0.1372
  162SOL    HW1  485   0.773   0.364   1.782  2.0753  0.6883 -1.3588
  162SOL    HW2  486   0.612   0.338   1.738 -3.1352 -0.9397 -1.1630
  163SOL     OW  487   2.612   0.252   2.372 -0.0341 -0.5559  0.3994
  163SOL    HW1  488   2.547   0.173   2.392 -1.5446 -3.5147  0.0431
  163SOL    HW2  489   2.695   0.213   2.335 -3.9703  1.5198  0.3871
  164SOL     OW  490   2.288   1.954   0.225 -0.1451  0.4516 -0.2721
  164SOL    HW1  491   2.188   1.925   0.217 -0.7183  2.4439  0.2013
  164SOL    HW2  492   2.321   1.937   0.321  3.8197 -1.4951 -2.2461
  165SOL     OW  493   0.240   0.137   1.044  0.1600 -0.1082  0.0659
  165SOL    HW1  494   0.266   0.175   0.952  1.8087  1.4105 -0.5075
  165SOL    HW2  495   0.319   0.143   1.106 -0.6459  1.7297 -0.7197
  166SOL     OW  496   2.757   0.176   3.092  0.3278  0.7694  0.3531
  166SOL    HW1  497   2.723   0.171   2.996  1.5481  0.9958  0.9088
  166SOL    HW2  498   2.798   0.089   0.009 -0.6393  0.8528 -0.0589
  167SOL     OW  499   2.354   0.727   0.208 -0.1103 -0.1754  0.2724
  167SOL    HW1  500   2.269   0.788   0.192 -0.0869  3.0765 -1.2209
  167SOL    HW2  501   2.417   0.729   0.129  1.7896  1.2616 -1.0731
  168SOL     OW  502   1.445   2.869   2.217  0.2320 -0.5099  0.5204
  168SOL    HW1  503   1.368   2.847   2.285 -2.7904  3.4607 -0.9671
  168SOL    HW2  504   1.438   2.967   2.191  2.0353  1.3717  0.2543
  169SOL     OW  505   0.352   1.818   0.719  0.7893  0.4193  0.1124
  169SOL    HW1  506   0.301   1.734   0.691  1.7817 -0.5853  3.3438
  169SOL    HW2  507   0.328   1.845   0.815 -0.0148  0.1218  0.8889
  170SOL     OW  508   0.282   0.324   1.377  0.3863  0.2513 -0.1811
  170SOL    HW1  509   0.305   0.289   1.471 -1.5104 -0.4672 -0.3647
  170SOL    HW2  510   0.186   0.309   1.365  2.2142  1.8121 -1.3633
  171SOL     OW  511   2.632   1.434   2.436 -0.0285  0.0315 -0.2011
  171SOL    HW1  512   2.637   1.393   2.342  0.9740 -1.7883 -2.8648
  171SOL    HW2  513   2.537   1.477   2.446 -0.4254  1.8740  3.6760
  172SOL     OW  514   0.659   1.571   1.158 -0.6034 -0.3027  0.4028
  172SOL    HW1  515   0.705   1.500   1.102 -1.1457  0.3799 -0.3603
  172SOL    HW2  516   0.730   1.640   1.179  2.8105 -1.8701 -1.1508
  173SOL     OW  517   2.044   2.115   3.069 -0.4967 -0.3336  0.2425
  173SOL    HW1  518   2.050   2.013   3.065  1.1516 -0.7020  0.8838
  173SOL    HW2  519   1.977   2.146   0.021 -0.6864  0.3411 -1.6496
  174SOL     OW  520   1.772   0.632   2.907 -0.1276  0.1667  0.4882
  174SOL    HW1  521   1.713   0.625   2.826  0.4484  2.3578 -0.7539
  174SOL    HW2  522   1.733   0.705   2.965  0.9340 -0.9710  3.3140
  175SOL     OW  523   0.629   1.793   1.906 -0.3780  0.2224 -0.2090
  175SOL    HW1  524   0.700   1.863   1.884 -1.4830 -0.9415  1.1706
  175SOL    HW2  525   0.572   1.831   1.985  0.7770  0.2351  1.8017
  176SOL     OW  526   0.662   0.254   0.274  0.2910  0.0502 -0.4266
  176SOL    HW1  527   0.688   0.263   0.372 -0.4853  2.3309 -1.6024
  176SOL    HW2  528   0.591   0.183   0.256 -0.9699  0.3452 -0.3907
  177SOL     OW  529   3.091   1.604   0.314 -0.2170  0.7405  0.3053
  177SOL    HW1  530   3.113   1.504   0.301  0.9705 -0.5876  0.0936
  177SOL    HW2  531   2.993   1.630   0.332  1.2152 -1.1809 -3.8089
  178SOL     OW  532   2.829   2.154   2.531 -0.4014  0.0054  0.0872
  178SOL    HW1  533   2.910   2.136   2.588  0.1729 -1.7446 -0.7119
  178SOL    HW2  534   2.858   2.140   2.438 -0.5488 -4.1209  0.6262
  179SOL     OW  535   2.575   3.001   2.880  0.2170 -0.1381 -0.0209
  179SOL    HW1  536   2.602   3.100   2.862 -0.8987  1.4302  0.2254
  179SOL    HW2  537   2.529   2.999   2.972  1.0658 -0.9955 -0.8854
  180SOL     OW  538   2.596   0.853   0.745 -0.1737 -0.1570  0.3546
  180SOL    HW1  539   2.507   0.847   0.692 -0.4884  2.4297  0.6015
  180SOL    HW2  540   2.680   0.833   0.693  0.0716  2.9007  1.0449
  181SOL     OW  541   0.189   0.155   2.432  0.3976  0.9389 -0.1818
  181SOL    HW1  542   0.120   0.197   2.371 -0.7476 -1.2112 -1.1576
  181SOL    HW2  543   0.197   0.055   2.402 -1.5254 -3.7975 -0.6028
  182SOL     OW  544   2.459   2.274   2.665 -0.5480  0.0530 -0.2623
  182SOL    HW1  545   2.385   2.260   2.738 -1.8362 -0.9701  3.8325
  182SOL    HW2  546   2.453   2.364   2.610  0.6171  4.0858 -2.1349
  183SOL     OW  547   2.736   1.111   1.791 -0.1500 -1.0378 -0.5643
  183SOL    HW1  548   2.650   1.061   1.806 -0.8025 -0.2372 -0.2787
  183SOL    HW2  549   2.802   1.048   1.753 -2.8362  0.8208 -0.6548
  184SOL     OW  550   2.731   1.503   0.809 -0.1421 -0.3857 -0.1076
  184SOL    HW1  551   2.767   1.513   0.901  0.7158  2.6253 -0.1983
  184SOL    HW2  552   2.802   1.526   0.738 -0.4137  0.4480  0.0056
  185SOL     OW  553   3.029   0.426   0.598  0.0595  0.1687 -0.5564
  185SOL    HW1  554   3.101   0.376   0.549  0.8577 -0.3845 -1.7289
  185SOL    HW2  555   3.032   0.405   0.698  1.8572  1.3869 -2.3743
  186SOL     OW  556   2.289   2.488   2.537 -0.4982 -0.3397  0.1471
  186SOL    HW1  557   2.222   2.508   2.614  0.5264  2.0535  0.5366
  186SOL    HW2  558   2.240   2.438   2.465  0.2203  1.6251  0.6746
  187SOL     OW  559   0.506   1.432   0.868 -0.1710 -0.0935 -0.0043
  187SOL    HW1  560   0.562   1.374   0.809  0.0802 -0.7916 -2.8776
  187SOL    HW2  561   0.510   1.528   0.849  0.3948 -0.7341  1.9316
  188SOL     OW  562   1.809   1.894   0.551  0.2491  0.1875  0.6990
  188SOL    HW1  563   1.824   1.804   0.600 -0.6984  0.6150  3.0819
  188SOL    HW2  564   1.709   1.922   0.549 -0.7766  1.6695  0.6385
  189SOL     OW  565   3.077   1.508   2.880  0.0201 -0.0909  0.0343
  189SOL    HW1  566   3.083   1.446   2.802 -2.3768  1.1020 -0.1601
  189SOL    HW2  567   3.024   1.472   2.962  0.7994  2.5305  0.8645
  190SOL     OW  568   2.504   0.463   2.242  0.1409  0.1330 -0.1404
  190SOL    HW1  569   2.410   0.477   2.269  0.8991 -0.2465  2.4491
  190SOL    HW2  570   2.540   0.369   2.261 -0.2199  2.2204 -0.9058
  191SOL     OW  571   1.035   0.812   2.187 -0.1402  0.0055  0.4945
  191SOL    HW1  572   1.031   0.905   2.234  1.7731  1.1551  0.4693
  191SOL    HW2  573   1.063   0.832   2.089 -1.7799  0.1898 -1.2903
  192SOL     OW  574   1.531   1.608   2.066  0.1524  0.0033 -0.0748
  192SOL    HW1  575   1.599   1.575   2.002 -0.6945 -1.5789 -1.9305
  192SOL    HW2  576   1.448   1.548   2.061 -0.8796  0.6559 -1.5899
  193SOL     OW  577   1.408   2.823   1.100  1.0235  0.1476 -0.0867
  193SOL    HW1  578   1.419   2.836   1.200  1.3727 -2.3998 -1.0912
  193SOL    HW2  579   1.441   2.905   1.050 -0.8874 -3.1667  1.3438
  194SOL     OW  580   1.294   1.786   1.957  0.0551 -0.2634  0.1625
  194SOL    HW1  581   1.380   1.747   1.982 -1.2480 -0.1782 -1.0435
  194SOL    HW2  582   1.215   1.741   2.001  1.3193  0.4097 -1.2493
  195SOL     OW  583   2.053   0.024   0.612 -0.0724 -0.0905  0.0833
  195SOL    HW1  584   2.112   0.009   0.695  2.3341 -1.4828 -2.2426
  195SOL    HW2  585   1.985   0.097   0.627  1.9317  1.1825 -0.7415
  196SOL     OW  586   1.354   1.497   2.474 -0.1584  0.1816 -0.1148
  196SOL    HW1  587   1.347   1.540   2.568 -2.0557 -1.7573  1.9054
  196SOL    HW2  588   1.383   1.401   2.487  1.5859  2.5049  1.0827
  197SOL     OW  589   0.452   0.250   2.062 -0.2771 -0.0354 -0.3198
  197SOL    HW1  590   0.534   0.224   2.123  0.4423  1.0426  1.0658
  197SOL    HW2  591   0.411   0.163   2.027  0.5497 -0.3720 -1.5822
  198SOL     OW  592   0.146   1.145   1.040 -0.1622 -0.2177  0.2424
  198SOL    HW1  593   0.165   1.054   1.076 -2.0973 -1.1436  1.3548
  198SOL    HW2  594   0.138   1.158   0.940  0.6556 -0.4383  2.3262
  199SOL     OW  595   0.329   2.155   0.993 -0.7393 -1.1632 -0.1326
  199SOL    HW1  596   0.408   2.209   0.965  0.0524  1.2678  0.0961
  199SOL    HW2  597   0.320   2.157   1.093  3.3124 -0.6935 -1.2609
  200SOL     OW  598   2.253   1.676   3.046 -0.1243  0.7114  0.8199
  200SOL    HW1  599   2.211   1.670   0.020  1.4791  0.2799 -2.2782
  200SOL    HW2  600   2.331   1.623   3.040 -1.0404  4.4229 -1.9688
  201SOL     OW  601   0.647   2.204   1.421 -0.3521 -0.0251 -0.7759
  201SOL    HW1  602   0.666   2.107   1.455 -2.8779  1.2395 -0.2113
  201SOL    HW2  603   0.557   2.219   1.378  1.4738 -0.5152 -0.8866
  202SOL     OW  604   1.080   2.298   0.107  0.6700 -0.0684 -0.4495
  202SOL    HW1  605   0.999   2.351   0.142  0.5084  0.5596  0.3269
  202SOL    HW2  606   1.138   2.362   0.049  0.0859  0.1308 -2.1759
  203SOL     OW  607   1.808   0.469   2.303  0.0745  0.2887 -0.0618
  203SOL    HW1  608   1.800   0.369   2.308  1.0144  2.8686  3.0514
  203SOL    HW2  609   1.728   0.504   2.251  1.5474  2.4974 -2.0563
  204SOL     OW  610   0.379   1.297   1.425  1.1016  0.3614 -0.2727
  204SOL    HW1  611   0.314   1.357   1.375 -0.1335  0.9957 -1.2644
  204SOL    HW2  612   0.470   1.302   1.383 -2.1437 -1.1318 -0.6660
  205SOL     OW  613   2.525   1.276   2.669  0.0525 -0.1125  0.4159
  205SOL    HW1  614   2.556   1.327   2.590  0.7876 -1.4305 -3.1315
  205SOL    HW2  615   2.453   1.329   2.713  2.7768 -0.2852 -1.4205
  206SOL     OW  616   3.105   1.895   2.503 -0.8337  0.1151  0.2330
  206SOL    HW1  617   3.019   1.865   2.549  2.3737 -2.3008  0.7232
  206SOL    HW2  618   0.010   1.822   2.434  0.2750 -0.7352 -1.1395
  207SOL     OW  619   0.763   3.065   1.694 -0.0715  0.2650  0.0207
  207SOL    HW1  620   0.861   3.037   1.685  1.2315 -1.3313  0.5905
  207SOL    HW2  621   0.750   0.003   1.776 -1.1371  0.9115 -2.9996
  208SOL     OW  622   0.734   2.402   1.584 -0.1794  0.1601  0.0140
  208SOL    HW1  623   0.674   2.387   1.666  1.5070  1.5527  0.4982
  208SOL    HW2  624   0.718   2.329   1.514 -0.2151  0.3071 -1.9308
  209SOL     OW  625   1.101   2.701   2.762 -0.5309  0.2596  0.4360
  209SOL    HW1  626   1.083   2.688   2.662 -0.5884 -1.4971  0.1740
  209SOL    HW2  627   1.131   2.792   2.787 -0.1585 -0.8562  2.2725
  210SOL     OW  628   2.748   1.460   1.994  0.1097  0.7153 -0.0348
  210SOL    HW1  629   2.810   1.397   1.941 -1.1766  2.2834  1.4734
  210SOL    HW2  630   2.778   1.557   1.993 -1.9565  0.9012  0.9642
  211SOL     OW  631   1.167   0.028   2.114 -0.1005 -0.0159  0.0078
  211SOL    HW1  632   1.128   0.068   2.201 -1.9365 -2.1942 -0.0650
  211SOL    HW2  633   1.109   0.056   2.035 -0.2179 -0.8072 -0.4935
  212SOL     OW  634   1.384   2.382   1.840  0.3217  0.1900  0.8322
  212SOL    HW1  635   1.354   2.411   1.932  0.9949 -0.8036  0.0557
  212SOL    HW2  636   1.339   2.294   1.823 -0.9825  1.6681 -0.4942
  213SOL     OW  637   2.510   0.952   1.764  0.0294  0.3093  0.3654
  213SOL    HW1  638   2.461   1.042   1.788 -3.3153  2.7784  0.5755
  213SOL    HW2  639   2.498   0.930   1.661 -2.2147 -0.2815 -1.5457
  214SOL     OW  640   0.916   1.791   1.629 -0.4227  0.1923 -0.5429
  214SOL    HW1  641   1.008   1.823   1.594  1.1749 -0.3260 -3.0177
  214SOL    HW2  642   0.896   1.844   1.715  1.5082 -2.0134 -3.7560
  215SOL     OW  643   2.614   2.300   1.112 -0.2105 -0.2893 -0.2756
  215SOL    HW1  644   2.538   2.280   1.045  0.5821 -0.4376  1.6481
  215SOL    HW2  645   2.572   2.323   1.199 -0.4643 -0.9401 -3.0508
  216SOL     OW  646   0.063   0.711   1.311  0.5482 -0.1904  0.2320
  216SOL    HW1  647   0.152   0.663   1.317  1.7698  0.4725 -1.3315
  216SOL    HW2  648   0.078   0.800   1.257  2.5553  3.0160  2.8567
  217SOL     OW  649   2.104   0.199   1.456  0.3543 -0.0488 -0.1938
  217SOL    HW1  650   2.162   0.187   1.375 -0.1417  0.5210  1.9685
  217SOL    HW2  651   2.005   0.179   1.440 -0.4240  0.4107 -0.7241
  218SOL     OW  652   1.712   2.557   1.109 -0.4560 -0.5953  0.6494
  218SOL    HW1  653   1.760   2.616   1.042  0.2268  1.2456 -0.9091
  218SOL    HW2  654   1.727   2.595   1.202  2.8719 -0.2536 -0.9288
  219SOL     OW  655   1.463   2.236   0.273 -0.1026 -0.1229 -0.0164
  219SOL    HW1  656   1.455   2.271   0.177 -1.7349 -2.9629 -0.6986
  219SOL    HW2  657   1.400   2.290   0.335 -0.6304 -0.9900 -0.3864
  220SOL     OW  658   1.685   2.333   2.893 -0.4522 -0.2742 -0.2893
  220SOL    HW1  659   1.607   2.320   2.830  2.2679  1.8509  0.3965
  220SOL    HW2  660   1.763   2.273   2.865 -1.3148  1.2544 -0.2605
  221SOL     OW  661   0.080   2.326   1.312 -0.0784  0.8229  0.0666
  221SOL    HW1  662   0.168   2.324   1.354 -3.1934 -1.5215 -1.4490
  221SOL    HW2  663   0.029   2.245   1.335  0.7033  0.8737 -0.7724
  222SOL     OW  664   2.004   2.681   0.888 -0.1808 -0.1005 -0.4974
  222SOL    HW1  665   1.907   2.724   0.889 -2.1453  1.4790  0.2235
  222SOL    HW2  666   2.077   2.743   0.852 -0.6856  2.7808 -1.6775
  223SOL     OW  667   0.641   2.552   2.167  0.2105 -0.2160 -0.0142
  223SOL    HW1  668   0.673   2.467   2.117 -0.5723 -3.3224  0.1910
  223SOL    HW2  669   0.624   2.627   2.102 -2.9921  0.5432 -0.2530
  224SOL     OW  670   2.766   2.357   1.435 -0.0654 -0.0949  0.3204
  224SOL    HW1  671   2.684   2.418   1.421  1.5870  2.1661 -0.4801
  224SOL    HW2  672   2.753   2.262   1.405  1.0782 -1.8096 -1.9337
  225SOL     OW  673   2.163   2.343   0.599  0.2103 -0.3499 -0.0940
  225SOL    HW1  674   2.207   2.379   0.685  0.1060 -0.3485  0.2889
  225SOL    HW2  675   2.183   2.245   0.583 -0.1922 -0.9952  2.1934
  226SOL     OW  676   1.228   2.670   0.362  0.7422  0.3185 -0.6489
  226SOL    HW1  677   1.228   2.573   0.340  0.4921  1.5694 -0.4522
  226SOL    HW2  678   1.280   2.689   0.444 -2.8308 -3.6853 -3.7878
  227SOL     OW  679   1.867   0.771   0.795 -0.0884  0.0917 -0.1476
  227SOL    HW1  680   1.890   0.872   0.778  0.9278  3.6915 -1.6428
  227SOL    HW2  681   1.948   0.707   0.807 -1.8095  0.7730  2.0006
  228SOL     OW  682   1.150   0.573   2.259  0.1786  0.1557 -0.1660
  228SOL    HW1  683   1.107   0.665   2.248  1.3178 -4.6196  0.4275
  228SOL    HW2  684   1.081   0.498   2.254  3.1068 -0.3477  1.2770
  229SOL     OW  685   0.053   0.991   2.837 -0.1915  0.3221  0.1658
  229SOL    HW1  686   3.109   1.022   2.763 -0.6909  0.9780 -1.2776
  229SOL    HW2  687   3.115   0.944   2.908 -1.8540  1.2640 -1.9951
  230SOL     OW  688   0.803   1.172   1.328  0.2406  0.0597 -0.0987
  230SOL    HW1  689   0.828   1.081   1.287  2.6315 -0.7916 -1.4075
  230SOL    HW2  690   0.880   1.239   1.301  1.1916 -0.2060 -0.5638
  231SOL     OW  691   2.657   2.991   2.533 -0.2076  0.7442  0.3822
  231SOL    HW1  692   2.738   3.045   2.562 -2.2813 -0.1742 -0.2097
  231SOL    HW2  693   2.588   3.051   2.494  1.3942 -1.1028 -1.1149
  232SOL     OW  694   0.380   2.378   0.206  0.9499 -0.1664  0.2811
  232SOL    HW1  695   0.424   2.401   0.288 -4.1055 -0.7005 -0.1107
  232SOL    HW2  696   0.392   2.281   0.180  1.4763  0.2217 -1.1934
  233SOL     OW  697   0.970   2.294   2.321 -0.7852 -0.6100 -0.0696
  233SOL    HW1  698   0.906   2.371   2.335 -0.2947  1.0599  0.2359
  233SOL    HW2  699   1.064   2.311   2.364  4.3066 -0.6344 -1.5541
  234SOL     OW  700   1.288   1.477   2.067 -0.0068  0.2769  0.5823
  234SOL    HW1  701   1.280   1.424   1.981 -0.3746 -1.4420  2.4446
  234SOL    HW2  702   1.212   1.547   2.071 -2.0512  1.5006 -0.6848
  235SOL     OW  703   0.833   1.971   1.834 -0.4190  0.1512 -0.0711
  235SOL    HW1  704   0.875   2.043   1.774  3.7037 -0.4648 -1.8963
  235SOL    HW2  705   0.866   1.974   1.930  1.7830  0.4199  0.9724
  236SOL     OW  706   1.464   2.914   2.728  0.4356  0.5516 -0.2104
  236SOL    HW1  707   1.499   2.923   2.825  1.7385  1.1945  2.2444
  236SOL    HW2  708   1.521   2.853   2.668  6.3270 -2.6346 -0.7179
  237SOL     OW  709   1.435   0.232   1.090 -0.0150 -0.1913  0.2795
  237SOL    HW1  710   1.397   0.142   1.116  1.6771  3.4200  0.7557
  237SOL    HW2  711   1.515   0.251   1.154 -1.1122  1.1400  2.7840
  238SOL     OW  712   1.303   0.707   2.822  0.4414  0.4454  0.7143
  238SOL    HW1  713   1.315   0.693   2.720  2.5001 -1.4011 -1.6735
  238SOL    HW2  714   1.255   0.629   2.864 -1.1374  0.6829 -0.9438
  239SOL     OW  715   2.952   0.831   2.432  0.5937 -0.3619 -0.5581
  239SOL    HW1  716   2.918   0.927   2.446 -0.5057  1.7351  0.7127
  239SOL    HW2  717   2.878   0.774   2.396 -1.0882 -0.5078  2.9713
  240SOL     OW  718   2.201   2.797   0.756  0.2442  0.0768  0.2168
  240SOL    HW1  719   2.180   2.809   0.658  1.6168 -0.5977  0.4010
  240SOL    HW2  720   2.292   2.750   0.762  1.6976  2.4240  3.6542
  241SOL     OW  721   1.398   1.149   1.096  0.0711 -0.1420 -0.2707
  241SOL    HW1  722   1.430   1.201   1.011  1.5108  0.2306 -2.2025
  241SOL    HW2  723   1.429   1.055   1.099  0.5366 -0.3213 -0.9039
  242SOL     OW  724   0.638   0.775   0.844  0.2227  0.5081  0.2944
  242SOL    HW1  725   0.616   0.874   0.850  0.1929 -1.2874 -0.1796
  242SOL    HW2  726   0.604   0.735   0.758  1.5234 -0.8015  1.4772
  243SOL     OW  727   0.237   0.500   1.016 -0.4344 -0.6340  0.1155
  243SOL    HW1  728   0.267   0.549   1.099 -0.4479  1.3304  0.7513
  243SOL    HW2  729   0.325   0.480   0.967  0.0644  1.4289 -1.5967
  244SOL     OW  730   1.055   0.153   0.186 -0.0878 -0.2599  0.0533
  244SOL    HW1  731   1.119   0.087   0.149 -1.0108  0.1988  0.5287
  244SOL    HW2  732   1.094   0.184   0.275 -1.3756  0.1226 -1.1689
  245SOL     OW  733   2.127   0.872   0.186  0.1775  0.1169  0.5153
  245SOL    HW1  734   2.026   0.860   0.166  1.5134  1.2670 -1.1614
  245SOL    HW2  735   2.156   0.951   0.132  1.7178  1.4032 -0.4060
  246SOL     OW  736   0.006   0.781   1.584 -0.3757  0.4108  0.1968
  246SOL    HW1  737   0.091   0.831   1.588 -2.6740 -0.7716 -2.5324
  246SOL    HW2  738   0.015   0.718   1.502  1.0447  0.2758 -1.7504
  247SOL     OW  739   0.626   2.977   2.103  0.1727 -0.5216  0.2457
  247SOL    HW1  740   0.633   3.071   2.131  0.9477 -0.0256 -0.6941
  247SOL    HW2  741   0.714   2.927   2.096  2.5397 -2.5285  1.2168
  248SOL     OW  742   0.526   1.291   2.387  0.1732  0.1894 -0.4371
  248SOL    HW1  743   0.614   1.310   2.433 -1.8172 -1.9694 -0.0363
  248SOL    HW2  744   0.507   1.190   2.378 -1.1665  0.8419 -1.1381
  249SOL     OW  745   0.791   2.984   2.852  0.0167 -0.1844  0.9745
  249SOL    HW1  746   0.692   3.001   2.858  1.2642  1.0075  0.2069
  249SOL    HW2  747   0.812   2.916   2.930 -0.8637 -0.2621 -0.3539
  250SOL     OW  748   0.448   0.146   2.488 -0.2925 -0.3249  0.3014
  250SOL    HW1  749   0.459   0.057   2.538  0.6600 -0.4973 -0.0393
  250SOL    HW2  750   0.346   0.170   2.479  0.8347 -0.4409  2.6321
  251SOL     OW  751   3.057   1.665   1.122 -0.0758 -0.5819  0.3167
  251SOL    HW1  752   2.970   1.644   1.174  0.2547 -1.4391  1.4512
  251SOL    HW2  753   0.011   1.700   1.183 -0.4138 -0.2412 -0.1151
  252SOL     OW  754   1.882   2.858   2.028 -0.9424  0.2533 -0.2151
  252SOL    HW1  755   1.846   2.792   1.958 -0.1285 -0.9125 -0.5756
  252SOL    HW2  756   1.982   2.853   2.033  1.2938  1.1677 -1.5274
  253SOL     OW  757   1.965   1.484   2.935 -0.0133 -0.3793  0.1582
  253SOL    HW1  758   1.895   1.552   2.953  1.0200 -0.9748 -1.0853
  253SOL    HW2  759   2.051   1.526   2.899  1.3430  0.4267  1.0331
  254SOL     OW  760   0.636   1.506   1.833  0.0030 -0.6163 -0.4559
  254SOL    HW1  761   0.621   1.603   1.864 -0.9086  0.4996 -1.5094
  254SOL    HW2  762   0.657   1.442   1.913  0.3286  0.2020 -0.9659
  255SOL     OW  763   0.811   0.002   1.437 -0.5488 -0.0953  0.0666
  255SOL    HW1  764   0.890   3.066   1.399 -2.4638  1.5703 -1.7638
  255SOL    HW2  765   0.792   3.108   1.537  1.9635  2.6850 -1.9838
  256SOL     OW  766   0.115   2.197   0.838  0.3668 -0.4170 -0.0821
  256SOL    HW1  767   0.206   2.169   0.879  2.2700  1.6454 -1.6562
  256SOL    HW2  768   0.045   2.195   0.914 -1.6077 -1.3402 -0.9475
  257SOL     OW  769   0.228   2.521   2.504  0.5549 -0.3270  0.3099
  257SOL    HW1  770   0.159   2.484   2.569  1.8865  2.0819  1.0859
  257SOL    HW2  771   0.313   2.464   2.511 -0.2315  0.6232 -0.4230
  258SOL     OW  772   1.209   2.006   2.078 -0.0942 -0.3278  0.1863
  258SOL    HW1  773   1.253   1.944   2.012 -1.4266  4.6782  3.0131
  258SOL    HW2  774   1.183   2.090   2.030  3.4287 -0.9835 -0.4644
  259SOL     OW  775   1.122   1.600   2.329 -0.2117 -0.2540 -0.0210
  259SOL    HW1  776   1.188   1.545   2.382  0.7536  0.1328  1.3323
  259SOL    HW2  777   1.053   1.652   2.391 -2.9953  0.7173 -0.0671
  260SOL     OW  778   2.444   1.149   2.108  0.1461  0.2515  0.4098
  260SOL    HW1  779   2.382   1.092   2.165  0.9483  2.0469 -1.4234
  260SOL    HW2  780   2.416   1.140   2.007 -0.6793  0.4513 -4.2649
  261SOL     OW  781   1.246   0.971   0.790  0.2723 -0.2026 -0.9127
  261SOL    HW1  782   1.322   1.040   0.792  1.2795 -2.2719 -1.0081
  261SOL    HW2  783   1.197   0.962   0.875  0.4016  1.3265 -1.1918
  262SOL     OW  784   2.168   2.067   2.493 -0.5124 -0.4105  0.0676
  262SOL    HW1  785   2.168   2.158   2.445  2.0423  2.9398 -0.0082
  262SOL    HW2  786   2.177   2.090   2.593 -1.1837 -2.0156  0.9574
  263SOL     OW  787   1.016   2.041   1.092 -0.0981  0.0225  0.2427
  263SOL    HW1  788   0.980   2.109   1.156 -0.7198 -1.2401 -1.4638
  263SOL    HW2  789   0.956   2.038   1.011 -1.2497  1.7829 -0.1611
  264SOL     OW  790   0.408   2.346   0.520  0.0193 -0.2430  0.2893
  264SOL    HW1  791   0.330   2.386   0.571  2.7729 -0.2761  0.0125
  264SOL    HW2  792   0.411   2.245   0.539 -3.6398  0.3015  0.3488
  265SOL     OW  793   1.291   1.419   0.217 -0.3713  0.5913 -0.2949
  265SOL    HW1  794   1.342   1.351   0.160 -1.5252 -1.6893  0.0762
  265SOL    HW2  795   1.231   1.362   0.282  2.6528  0.0541  0.6336
  266SOL     OW  796   0.565   1.960   2.560 -0.3222  0.2917  0.7918
  266SOL    HW1  797   0.662   1.987   2.537 -1.8603  3.4542 -0.7980
  266SOL    HW2  798   0.500   1.982   2.486  2.2681 -0.9866 -0.8136
  267SOL     OW  799   2.054   1.086   2.264  0.4741  0.1371 -0.6214
  267SOL    HW1  800   1.989   1.040   2.329 -2.9026  1.9583  0.9364
  267SOL    HW2  801   2.049   1.187   2.268  2.4188  1.7872 -0.6730
  268SOL     OW  802   0.828   1.397   0.303  0.5829 -0.3363 -0.5583
  268SOL    HW1  803   0.731   1.359   0.306 -0.7755  0.0009 -1.6874
  268SOL    HW2  804   0.830   1.480   0.243 -1.4648 -1.2139 -1.1884
  269SOL     OW  805   2.430   1.709   2.603  0.6244 -0.0167  0.3738
  269SOL    HW1  806   2.417   1.690   2.703  0.3058 -2.5642  1.6389
  269SOL    HW2  807   2.521   1.747   2.588 -3.7235 -2.0922 -1.3630
  270SOL     OW  808   0.709   2.126   2.958 -0.1009  0.3623 -0.2788
  270SOL    HW1  809   0.619   2.089   2.991 -1.8144  0.1230 -0.4883
  270SOL    HW2  810   0.732   2.212   3.004  1.8855 -0.0116 -1.0382
  271SOL     OW  811   0.386   0.220   3.108 -0.1269  0.4742  0.5554
  271SOL    HW1  812   0.448   0.294   3.071  0.0887 -1.2109  3.0891
  271SOL    HW2  813   0.433   0.124   3.110  2.2258 -3.6633 -0.3785
  272SOL     OW  814   2.941   0.091   0.418  0.3107 -0.0555  0.0474
  272SOL    HW1  815   2.891   0.102   0.509  0.2766 -0.1903  1.9268
  272SOL    HW2  816   2.984   0.172   0.384 -2.8709 -1.9728  0.1609
  273SOL     OW  817   0.355   0.025   1.958  0.3746  0.0675  0.2598
  273SOL    HW1  818   0.367   3.105   1.863 -1.1148 -1.8663 -3.3308
  273SOL    HW2  819   0.275   3.095   2.004 -2.4351  1.2230  0.3297
  274SOL     OW  820   2.944   0.582   1.302 -0.1664 -0.2960 -0.3545
  274SOL    HW1  821   2.973   0.502   1.355  0.7055  2.0852 -1.2435
  274SOL    HW2  822   3.017   0.646   1.313 -4.5319  0.0987 -0.2830
  275SOL     OW  823   0.780   1.387   1.027 -0.1949 -0.0035  0.2991
  275SOL    HW1  824   0.863   1.378   0.970 -0.3891  1.2842 -1.3636
  275SOL    HW2  825   0.710   1.319   1.001 -0.9626  1.2390 -1.4736
  276SOL     OW  826   0.756   1.170   1.940  0.6056 -0.1400  0.1565
  276SOL    HW1  827   0.740   1.250   2.001  2.1726 -0.4466 -0.6375
  276SOL    HW2  828   0.684   1.099   1.961  0.6885  0.3833  3.6586
  277SOL     OW  829   1.087   2.184   1.923  0.5206 -0.5517 -0.0367
  277SOL    HW1  830   1.055   2.268   1.960 -0.2940  0.4657  0.6796
  277SOL    HW2  831   1.044   2.171   1.831  0.6682 -0.9279  0.6467
  278SOL     OW  832   2.384   2.658   2.359 -0.5246  0.4803 -0.3558
  278SOL    HW1  833   2.356   2.626   2.452  0.3174  1.4735 -4.1478
  278SOL    HW2  834   2.333   2.611   2.285  3.0903  2.4065 -2.9195
  279SOL     OW  835   1.176   1.877   0.005  0.0369  0.3747 -0.0950
  279SOL    HW1  836   1.236   1.919   0.075 -0.2386 -1.4255 -0.0892
  279SOL    HW2  837   1.097   1.945   3.115 -1.1671 -0.4853  1.0868
  280SOL     OW  838   1.181   0.231   0.408  0.2007  0.1344  0.0976
  280SOL    HW1  839   1.221   0.182   0.486  0.1979 -1.4714 -2.3002
  280SOL    HW2  840   1.248   0.296   0.364  1.3242  5.3372  1.5635
  281SOL     OW  841   0.482   0.502   1.593 -0.3782 -0.2662 -0.2503
  281SOL    HW1  842   0.491   0.538   1.684 -0.9226 -3.0305 -1.5946
  281SOL    HW2  843   0.412   0.426   1.595  1.9371  0.7034 -1.1911
  282SOL     OW  844   0.229   2.440   0.706 -0.4723 -0.4285 -0.9183
  282SOL    HW1  845   0.179   2.357   0.729 -0.7749  0.9666 -0.1699
  282SOL    HW2  846   0.165   2.515   0.670 -0.5383 -0.4928 -1.3123
  283SOL     OW  847   1.481   1.864   1.766  0.5101  0.7259 -0.4225
  283SOL    HW1  848   1.410   1.829   1.829  2.7191 -0.3951 -2.6175
  283SOL    HW2  849   1.550   1.921   1.813  0.5576 -0.7174 -0.4345
  284SOL     OW  850   2.686   2.905   1.587  0.1297  0.4421  0.3180
  284SOL    HW1  851   2.657   3.001   1.601 -3.3267  1.5301 -0.1386
  284SOL    HW2  852   2.711   2.877   1.491 -1.1261 -1.6849 -1.3103
  285SOL     OW  853   0.389   2.642   0.433 -0.0276 -0.1757 -0.5712
  285SOL    HW1  854   0.286   2.633   0.452  2.1348 -1.1398 -1.3950
  285SOL    HW2  855   0.439   2.562   0.461 -1.7188  2.0941 -1.8693
  286SOL     OW  856   0.393   2.567   1.264 -0.1710  0.6331  0.1374
  286SOL    HW1  857   0.401   2.640   1.339  0.6759  2.2625  1.5156
  286SOL    HW2  858   0.334   2.604   1.184  0.8476  0.3729 -0.7432
  287SOL     OW  859   0.714   1.346   0.668 -0.3714 -0.1378  0.0691
  287SOL    HW1  860   0.695   1.264   0.610 -2.5556 -1.8183 -2.4028
  287SOL    HW2  861   0.812   1.368   0.683  1.8998  1.3293 -0.5630
  288SOL     OW  862   1.681   2.001   2.808 -0.1285 -0.0106  0.6548
  288SOL    HW1  863   1.718   1.914   2.767  1.7539  1.2015  0.0983
  288SOL    HW2  864   1.761   2.061   2.837  2.2932  1.1246  0.1916
  289SOL     OW  865   2.567   1.702   0.357 -0.4046 -0.0941 -0.5478
  289SOL    HW1  866   2.541   1.801   0.371  0.1650  3.6343 -1.1427
  289SOL    HW2  867   2.491   1.660   0.305  0.7096 -0.4623 -1.2134
  290SOL     OW  868   1.423   1.575   1.278 -0.2761  0.0039  0.5652
  290SOL    HW1  869   1.333   1.622   1.292  0.4163  2.2343  0.0842
  290SOL    HW2  870   1.421   1.537   1.181  1.4576 -2.0755 -2.9789
  291SOL     OW  871   1.385   1.196   0.063  0.0965  0.1968 -0.8390
  291SOL    HW1  872   1.373   1.104   0.103  0.6089 -0.7751  0.7351
  291SOL    HW2  873   1.343   1.201   3.091  0.3678  3.8442 -1.6946
  292SOL     OW  874   1.470   1.565   0.334  0.2781  0.3790  0.0851
  292SOL    HW1  875   1.399   1.521   0.278  0.5932 -4.3666  1.3708
  292SOL    HW2  876   1.530   1.603   0.267 -0.9096 -0.8497  0.9546
  293SOL     OW  877   1.181   3.110   0.921 -0.5918 -0.3179 -0.2202
  293SOL    HW1  878   1.160   3.012   0.901 -0.5626  1.4856  1.8598
  293SOL    HW2  879   1.096   0.040   0.936  1.0208 -0.3572  0.0087
  294SOL     OW  880   2.156   0.942   2.603  0.0258  0.5470  0.4521
  294SOL    HW1  881   2.203   0.967   2.514  0.6768  0.2616  0.6342
  294SOL    HW2  882   2.060   0.916   2.584  0.6038 -0.5350  1.1493
  295SOL     OW  883   1.808   1.689   3.023 -0.6035 -0.1188  0.3734
  295SOL    HW1  884   1.747   1.719   3.105  0.3037  0.7385  0.5416
  295SOL    HW2  885   1.771   1.714   2.933  0.2144 -0.4738 -0.5634
  296SOL     OW  886   1.305   0.857   1.543  0.2681  0.6501 -0.0490
  296SOL    HW1  887   1.219   0.820   1.580  2.0873  1.0129  0.7695
  296SOL    HW2  888   1.340   0.809   1.459  2.9067 -1.7603 -0.6632
  297SOL     OW  889   3.094   0.525   2.137 -0.8426  0.3204  0.1541
  297SOL    HW1  890   0.025   0.466   2.070 -0.6975 -1.9326 -0.6856
  297SOL    HW2  891   0.003   0.508   2.232  0.8339  0.1374  0.6013
  298SOL     OW  892   1.401   1.887   1.272  0.3304  0.0420 -0.0853
  298SOL    HW1  893   1.395   1.940   1.361  2.1097 -0.1906 -0.1472
  298SOL    HW2  894   1.489   1.843   1.265  0.4486  1.6691  0.7988
  299SOL     OW  895   1.193   0.181   2.586 -0.4080  0.1352 -0.0348
  299SOL    HW1  896   1.232   0.085   2.593 -1.2410  1.2436  0.1957
  299SOL    HW2  897   1.098   0.189   2.629 -1.0584  3.2052  0.8885
  300SOL     OW  898   2.711   2.175   0.361  0.0346 -0.0294  0.0973
  300SOL    HW1  899   2.816   2.155   0.358  0.4027 -1.3050 -1.6736
  300SOL    HW2  900   2.694   2.279   0.360 -0.1992 -0.8060 -3.2543
  301SOL     OW  901   2.178   0.622   2.600 -0.0326 -0.5836  0.2544
  301SOL    HW1  902   2.215   0.696   2.537  2.3946  3.8616 -0.4564
  301SOL    HW2  903   2.102   0.661   2.646  2.8769 -1.1042  0.2932
  302SOL     OW  904   2.488   2.272   0.016  0.0943 -0.0399 -0.6388
  302SOL    HW1  905   2.538   2.193   0.056  0.1004  2.7886  0.7523
  302SOL    HW2  906   2.531   2.307   3.050 -1.4758 -0.7289  2.0905
  303SOL     OW  907   3.086   2.374   3.043 -0.2149 -0.1203 -0.1436
  303SOL    HW1  908   3.073   2.417   2.949  0.1499  0.5349 -1.4827
  303SOL    HW2  909   3.009   2.311   3.057 -1.1678  2.5751 -0.6530
  304SOL     OW  910   0.140   1.629   0.954  0.1238 -0.1616  0.7174
  304SOL    HW1  911   0.059   1.624   1.016  0.5420 -0.7197 -1.0674
  304SOL    HW2  912   0.176   1.721   0.964 -1.3848 -1.6130  2.0047
  305SOL     OW  913   2.804   0.674   1.712 -0.4745 -0.1447  0.1468
  305SOL    HW1  914   2.839   0.766   1.728 -0.7631 -1.7373  0.2088
  305SOL    HW2  915   2.765   0.660   1.615 -0.0570 -0.3848 -1.6206
  306SOL     OW  916   1.573   1.499   0.958  0.1064 -0.1124  0.5872
  306SOL    HW1  917   1.468   1.498   0.955 -0.4752  0.3583 -0.4526
  306SOL    HW2  918   1.608   1.592   0.966  0.6861 -4.0131 -1.5269
  307SOL     OW  919   0.167   0.176   0.721 -0.0554 -0.2034 -0.2749
  307SOL    HW1  920   0.158   0.136   0.629  0.1419 -0.8954  1.8557
  307SOL    HW2  921   0.236   0.242   0.721 -2.6701 -4.1834 -1.9803
  308SOL     OW  922   0.056   1.215   2.118  0.7295 -0.0376 -0.0189
  308SOL    HW1  923   0.094   1.220   2.215  1.4829 -0.8214  2.8596
  308SOL    HW2  924   0.127   1.225   2.049  0.5876 -3.0732 -0.8274
  309SOL     OW  925   2.642   1.851   2.503  1.0224 -0.3465  0.2068
  309SOL    HW1  926   2.604   1.946   2.492 -0.0442  0.8352  0.5862
  309SOL    HW2  927   2.717   1.862   2.567 -3.3710  1.2808 -2.5090
  310SOL     OW  928   2.521   0.757   3.103 -0.6441 -0.2569  0.1278
  310SOL    HW1  929   2.599   0.698   0.020 -1.5086 -1.6505  0.6420
  310SOL    HW2  930   2.465   0.717   3.023 -1.6750  1.0330 -0.0909
  311SOL     OW  931   1.975   0.743   2.765  0.1264  0.0185 -0.2380
  311SOL    HW1  932   2.033   0.782   2.833 -4.3213  0.0037 -4.9518
  311SOL    HW2  933   1.898   0.698   2.813  0.4057  0.7284 -0.7535
  312SOL     OW  934   1.469   2.230   2.700  0.0878 -0.1493 -0.2098
  312SOL    HW1  935   1.480   2.198   2.606  1.6419 -2.1398  0.0646
  312SOL    HW2  936   1.388   2.178   2.741 -0.6558 -1.8162  0.1748
  313SOL     OW  937   0.379   0.448   0.250  0.3132 -0.2703  0.0410
  313SOL    HW1  938   0.440   0.425   0.172 -1.3529  0.1779 -2.9047
  313SOL    HW2  939   0.310   0.522   0.223 -3.1838  0.6676 -0.3036
  314SOL     OW  940   0.748   1.949   1.434  0.1855 -0.1236 -0.0217
  314SOL    HW1  941   0.792   1.937   1.346 -2.5515  0.4809  1.5579
  314SOL    HW2  942   0.775   1.887   1.508  2.6809 -0.8365  1.5322
  315SOL     OW  943   0.613   1.778   2.199  0.0325  0.1076  0.4838
  315SOL    HW1  944   0.524   1.816   2.174  3.4073  0.5615 -2.4693
  315SOL    HW2  945   0.594   1.710   2.272 -0.5357 -3.1702  0.9403
  316SOL     OW  946   0.515   2.509   0.765 -0.3403 -0.2284 -0.3374
  316SOL    HW1  947   0.431   2.458   0.732 -0.5171  1.8301  0.3554
  316SOL    HW2  948   0.491   2.591   0.825  1.3610  1.6582  3.5868
  317SOL     OW  949   2.336   0.244   1.263 -0.2834 -0.0523 -0.6193
  317SOL    HW1  950   2.382   0.286   1.344 -0.2784 -0.3484  1.9908
  317SOL    HW2  951   2.346   0.300   1.181  2.5644 -0.9391  1.3312
  318SOL     OW  952   1.864   3.043   0.283 -0.1333 -0.2368 -0.5751
  318SOL    HW1  953   1.870   0.023   0.319  2.1053  3.7514 -1.4473
  318SOL    HW2  954   1.942   3.038   0.217 -1.1813  1.7038  1.4232
  319SOL     OW  955   1.619   0.664   2.687  0.7772  0.2508  0.1043
  319SOL    HW1  956   1.562   0.748   2.675 -0.1902  0.7214  0.7006
  319SOL    HW2  957   1.563   0.580   2.677 -1.8322  0.6218  0.8587
  320SOL     OW  958   2.891   2.183   1.958 -0.2267 -0.2451  0.0702
  320SOL    HW1  959   2.872   2.211   1.864  2.9259 -2.3107 -0.3059
  320SOL    HW2  960   2.810   2.168   2.014 -0.7402 -0.5457 -1.2128
  321SOL     OW  961   0.559   2.415   2.965 -0.1412  0.4486 -0.1852
  321SOL    HW1  962   0.641   2.390   3.017 -0.1170  2.1388 -0.5984
  321SOL    HW2  963   0.497   2.478   3.020  0.5132  0.4443 -2.1117
  322SOL     OW  964   2.344   0.784   2.423 -0.1432  0.2926  0.0130
  322SOL    HW1  965   2.340   0.854   2.347  1.6115  0.7050 -0.7053
  322SOL    HW2  966   2.338   0.687   2.386  1.1783 -0.4637 -0.1395
  323SOL     OW  967   2.357   1.129   0.636  0.0384  0.1083  0.0043
  323SOL    HW1  968   2.423   1.124   0.714 -1.3824 -1.4906 -0.4904
  323SOL    HW2  969   2.368   1.045   0.578 -0.8153  1.5350 -1.7149
  324SOL     OW  970   3.067   0.407   1.029  0.5134  0.3103 -0.1419
  324SOL    HW1  971   0.022   0.465   0.999 -0.4584 -0.3751  0.9094
  324SOL    HW2  972   2.981   0.452   1.009  0.0116 -0.8500  2.8103
  325SOL     OW  973   2.605   0.066   1.549  0.3500  0.3860 -0.1261
  325SOL    HW1  974   2.612   0.113   1.639  0.8210  1.6577 -0.0570
  325SOL    HW2  975   2.655   0.121   1.478 -1.2086 -1.3076  0.2519
  326SOL     OW  976   1.665   2.895   0.102 -0.5231  0.4124 -0.4268
  326SOL    HW1  977   1.595   2.832   0.146  0.8248 -0.1077 -1.2777
  326SOL    HW2  978   1.725   2.928   0.175  1.5304 -2.9458 -0.8037
  327SOL     OW  979   1.767   1.967   0.281 -0.4073 -0.0846 -0.8961
  327SOL    HW1  980   1.749   2.063   0.306  0.1029 -1.3919 -0.5314
  327SOL    HW2  981   1.808   1.926   0.368  0.9629 -1.4099  0.5959
  328SOL     OW  982   2.881   2.183   2.253  0.0171 -0.6205 -0.1827
  328SOL    HW1  983   2.886   2.284   2.234  3.6105 -2.3270 -3.1429
  328SOL    HW2  984   2.808   2.146   2.200  2.3852 -1.1701  2.6455
  329SOL     OW  985   3.050   2.077   1.339 -0.0481 -0.1556  0.3032
  329SOL    HW1  986   2.951   2.088   1.343  1.8772  0.1620  0.8921
  329SOL    HW2  987   3.079   2.094   1.433 -3.3116 -1.3742 -5.3578
  330SOL     OW  988   2.595   0.860   2.516 -0.3558  0.5821  0.1138
  330SOL    HW1  989   2.504   0.822   2.494  2.5180 -1.7085  0.2938
  330SOL    HW2  990   2.643   0.897   2.429  0.8049 -0.2303  0.3002
  331SOL     OW  991   2.432   2.199   0.940 -0.4725  0.4450 -0.7394
  331SOL    HW1  992   2.354   2.148   0.980 -0.4264 -0.3485  1.6925
  331SOL    HW2  993   2.398   2.280   0.886 -1.6023  2.6027 -0.0438
  332SOL     OW  994   0.405   2.968   0.980  0.0111  0.0500  0.2532
  332SOL    HW1  995   0.437   3.046   0.920 -0.6009 -2.4952 -0.5825
  332SOL    HW2  996   0.309   2.988   1.016 -2.0879 -0.3993  0.2198
  333SOL     OW  997   2.207   1.787   2.449  0.2338  0.2602  0.5766
  333SOL    HW1  998   2.186   1.883   2.470 -4.3893 -1.2000  2.1782
  333SOL    HW2  999   2.300   1.758   2.478 -2.6003 -0.3308  1.5441
  334SOL     OW 1000   0.671   1.034   0.885 -0.0955 -0.5078 -0.1137
  334SOL    HW1 1001   0.764   1.076   0.889 -0.2192  0.6922  1.6830
  334SOL    HW2 1002   0.619   1.058   0.970  2.6127  1.0803 -1.0798
  335SOL     OW 1003   0.067   1.690   2.326  0.0763  0.0322 -0.5553
  335SOL    HW1 1004   3.097   1.641   2.355 -0.3856  0.4589  0.3500
  335SOL    HW2 1005   0.084   1.701   2.222 -1.9171  0.0686 -0.7222
  336SOL     OW 1006   2.369   2.944   2.280 -0.1861  0.0952  0.1910
  336SOL    HW1 1007   2.386   2.846   2.310 -1.2998 -1.3411 -0.1440
  336SOL    HW2 1008   2.275   2.965   2.279  3.8750 -0.9756 -0.1515
  337SOL     OW 1009   0.928   0.729   0.676 -0.0615  0.0867  0.1414
  337SOL    HW1 1010   0.893   0.818   0.642 -2.0130 -3.6946  0.6331
  337SOL    HW2 1011   0.997   0.731   0.752 -1.4708 -0.9312  1.7835
  338SOL     OW 1012   1.616   2.018   1.076 -0.2896 -0.1817 -0.0859
  338SOL    HW1 1013   1.614   2.018   1.177 -0.8073  0.5090  2.9145
  338SOL    HW2 1014   1.619   2.119   1.045  0.4665  0.0919 -1.7221
  339SOL     OW 1015   0.495   1.698   1.405 -0.2135 -0.0775 -0.2771
  339SOL    HW1 1016   0.536   1.617   1.367  1.3412  1.9218 -0.3719
  339SOL    HW2 1017   0.525   1.782   1.352  0.8488  2.0408 -0.4414
  340SOL     OW 1018   1.029   2.991   1.674  0.0238  0.7393 -0.4548
  340SOL    HW1 1019   1.068   2.908   1.716  1.8561  0.1440 -0.7745
  340SOL    HW2 1020   1.101   3.042   1.627  0.1019 -4.1373 -1.5340
  341SOL     OW 1021   2.322   1.611   0.856  0.1901 -0.6899 -0.2712
  341SOL    HW1 1022   2.337   1.508   0.853 -0.4242 -0.3299  3.8639
  341SOL    HW2 1023   2.305   1.659   0.766  0.2998  0.3077  0.3624
  342SOL     OW 1024   2.307   1.246   0.301  0.1435 -0.1789  0.5144
  342SOL    HW1 1025   2.398   1.253   0.353  0.2337  0.8032  1.8809
  342SOL    HW2 1026   2.313   1.186   0.216  2.8420 -0.0864 -2.8733
  343SOL     OW 1027   2.119   0.208   0.893  0.0592 -0.1149  0.7895
  343SOL    HW1 1028   2.174   0.296   0.884  1.4407 -0.3470 -0.2847
  343SOL    HW2 1029   2.178   0.124   0.895 -1.0429  0.4300 -1.8358
  344SOL     OW 1030   2.564   0.183   0.170  0.5147  0.3800 -0.1460
  344SOL    HW1 1031   2.639   0.179   0.100  0.6668  0.8495  2.3095
  344SOL    HW2 1032   2.536   0.085   0.186  1.8004 -1.7600  1.4106
  345SOL     OW 1033   0.926   2.562   2.030  0.3822  0.2533  0.5035
  345SOL    HW1 1034   0.941   2.613   1.944 -0.7717 -0.1311  1.8971
  345SOL    HW2 1035   0.870   2.472   2.028 -2.2975 -0.5549  1.2953
  346SOL     OW 1036   2.304   2.416   0.825  0.5488 -0.0080 -0.2370
  346SOL    HW1 1037   2.211   2.414   0.873 -1.6537  0.0493  0.6528
  346SOL    HW2 1038   2.345   2.512   0.820 -3.0524  0.5147  1.1691
  347SOL     OW 1039   2.349   3.101   1.250 -0.0417 -0.1379 -0.1037
  347SOL    HW1 1040   2.415   3.066   1.180  2.4130  0.1492 -1.1831
  347SOL    HW2 1041   2.347   0.085   1.251  1.2947 -0.0679 -0.3552
  348SOL     OW 1042   0.985   0.656   1.438  0.2805 -0.1503  0.0296
  348SOL    HW1 1043   0.900   0.684   1.390  2.5986  1.1983 -0.1365
  348SOL    HW2 1044   1.068   0.663   1.378  0.1456  0.9283 -1.4258
  349SOL     OW 1045   2.415   0.506   2.677 -0.6563  0.0297 -0.8385
  349SOL    HW1 1046   2.329   0.558   2.662 -0.1261 -0.7555  0.7239
  349SOL    HW2 1047   2.480   0.526   2.602 -1.5037 -1.4519  0.4775
  350SOL     OW 1048   2.203   2.328   3.103  0.0010 -0.3403 -0.3264
  350SOL    HW1 1049   2.147   2.242   3.082 -0.4743 -2.9595  0.3352
  350SOL    HW2 1050   2.293   2.302   0.033  0.0139 -1.9821 -0.4591
  351SOL     OW 1051   0.981   0.383   0.539  0.2021 -0.0375 -0.2627
  351SOL    HW1 1052   1.001   0.469   0.491 -1.4353 -1.5169 -0.4043
  351SOL    HW2 1053   1.038   0.309   0.506  2.1032 -1.6273  2.4222
  352SOL     OW 1054   1.407   1.945   2.837  0.5273  0.1756  0.3803
  352SOL    HW1 1055   1.395   1.844   2.813  2.1423 -5.1483 -0.9010
  352SOL    HW2 1056   1.505   1.972   2.835 -0.6865 -0.9612 -0.9703
  353SOL     OW 1057   0.694   1.242   2.896 -0.0292 -0.4353  0.5799
  353SOL    HW1 1058   0.619   1.251   2.827  3.9463 -0.2903  2.0430
  353SOL    HW2 1059   0.729   1.332   2.924 -1.6502 -1.6649 -0.1437
  354SOL     OW 1060   0.673   2.567   2.764 -0.0512  0.1636 -0.2905
  354SOL    HW1 1061   0.625   2.509   2.835  1.0613  2.1954 -0.0576
  354SOL    HW2 1062   0.763   2.602   2.802  0.1597 -2.9691  0.5445
  355SOL     OW 1063   2.431   2.790   1.612  0.0129  0.1661 -0.0890
  355SOL    HW1 1064   2.382   2.874   1.584  0.4435 -1.4644  2.8365
  355SOL    HW2 1065   2.535   2.805   1.604  2.5302  2.1396  1.9694
  356SOL     OW 1066   2.773   1.155   1.045 -0.4302 -0.2587 -0.3723
  356SOL    HW1 1067   2.700   1.113   1.104  1.1215 -2.2363 -2.4884
  356SOL    HW2 1068   2.852   1.094   1.051 -0.6677  1.4319 -3.3639
  357SOL     OW 1069   2.698   0.248   1.369  0.1835 -0.0636 -0.5693
  357SOL    HW1 1070   2.784   0.301   1.374  2.2667  1.8961  1.5407
  357SOL    HW2 1071   2.692   0.186   1.289  1.4124  0.6589  0.6682
  358SOL     OW 1072   0.186   1.582   1.763 -0.5805 -0.1377  0.8553
  358SOL    HW1 1073   0.273   1.635   1.736  2.4976  1.0954 -1.3877
  358SOL    HW2 1074   0.174   1.593   1.862  0.8475  1.8525  0.4565
  359SOL     OW 1075   2.919   2.916   2.527 -0.2380 -0.1212 -1.1282
  359SOL    HW1 1076   2.817   2.923   2.535 -1.1507 -1.5818 -0.7884
  359SOL    HW2 1077   2.953   2.937   2.435  0.4762 -0.4927  0.3406
  360SOL     OW 1078   1.293   0.473   1.436 -0.3567  0.5796  0.6667
  360SOL    HW1 1079   1.226   0.427   1.377 -0.6453 -0.2535  1.2994
  360SOL    HW2 1080   1.292   0.435   1.530 -0.5356  0.9338 -1.2149
  361SOL     OW 1081   2.378   2.678   1.014 -0.2173 -0.3252 -0.2824
  361SOL    HW1 1082   2.320   2.749   0.978  2.2924 -1.6530 -1.5834
  361SOL    HW2 1083   2.469   2.681   0.966 -0.5961 -0.4987 -0.0668
  362SOL     OW 1084   0.814   0.043   0.611  0.0266 -0.6293 -0.3072
  362SOL    HW1 1085   0.735   0.007   0.560 -0.5021  0.6764  3.9077
  362SOL    HW2 1086   0.905   0.009   0.591 -2.6398  1.3826  0.8066
  363SOL     OW 1087   1.192   1.430   0.613 -0.5747  0.5124  0.1707
  363SOL    HW1 1088   1.159   1.411   0.516 -3.1760  2.7788  0.0168
  363SOL    HW2 1089   1.287   1.388   0.620  1.2080 -1.6775  0.8330
  364SOL     OW 1090   0.461   0.824   1.660  0.1340  0.2825 -0.1038
  364SOL    HW1 1091   0.555   0.836   1.693 -1.1049  0.3521 -1.9815
  364SOL    HW2 1092   0.450   0.812   1.560  0.7932 -2.2151  0.3134
  365SOL     OW 1093   2.996   0.981   1.074  0.1107  0.4805  0.0760
  365SOL    HW1 1094   3.059   0.989   1.157  0.6671 -0.8408 -0.6050
  365SOL    HW2 1095   3.045   0.993   0.989 -1.5632  0.3011  4.8834
  366SOL     OW 1096   2.523   1.512   0.597 -0.0386  0.7818 -0.6732
  366SOL    HW1 1097   2.571   1.475   0.679  1.5995 -3.0740  1.0316
  366SOL    HW2 1098   2.575   1.580   0.552 -2.4270 -2.3371 -0.6739
  367SOL     OW 1099   2.032   2.042   2.126  0.4620 -0.5518 -0.2626
  367SOL    HW1 1100   2.078   1.951   2.141 -0.4149 -1.1113 -4.4661
  367SOL    HW2 1101   1.964   2.058   2.200  1.2160 -0.1395  1.3010
  368SOL     OW 1102   2.560   1.955   0.885 -0.8424 -0.3197  0.3998
  368SOL    HW1 1103   2.605   1.959   0.795 -0.0134 -0.3274 -0.3213
  368SOL    HW2 1104   2.515   2.047   0.906 -0.4445  1.4685  0.0614
  369SOL     OW 1105   2.108   2.588   2.749  0.4049 -0.0586 -0.7776
  369SOL    HW1 1106   2.015   2.633   2.738 -2.1007  0.0931  3.6167
  369SOL    HW2 1107   2.181   2.654   2.762  0.4369 -1.7100  0.5860
  370SOL     OW 1108   0.068   0.230   1.211 -0.3433  0.1917 -0.4842
  370SOL    HW1 1109   0.018   0.308   1.166 -2.1115  3.3253  1.3128
  370SOL    HW2 1110   0.142   0.194   1.151  2.0258  3.7216  0.5943
  371SOL     OW 1111   0.666   2.010   0.405 -0.1342 -0.0673 -0.4468
  371SOL    HW1 1112   0.611   1.952   0.341  0.1758 -2.2949  0.8676
  371SOL    HW2 1113   0.636   1.992   0.499  0.7978  2.6543  0.3006
  372SOL     OW 1114   0.935   1.200   0.008  0.2329  0.1554  0.1446
  372SOL    HW1 1115   0.966   1.162   0.098  0.5677  1.7187 -1.4653
  372SOL    HW2 1116   0.953   1.132   3.053 -1.8367  0.6091  0.0831
  373SOL     OW 1117   1.398   2.637   2.467 -0.0718  0.4083 -0.4384
  373SOL    HW1 1118   1.433   2.614   2.561  1.6960 -2.5361  2.3233
  373SOL    HW2 1119   1.440   2.580   2.392 -0.4010 -1.0659 -2.4467
  374SOL     OW 1120   0.371   2.135   0.105  0.2552 -0.0200 -0.0837
  374SOL    HW1 1121   0.425   2.093   0.030  0.2921  2.4938 -0.4911
  374SOL    HW2 1122   0.336   2.068   0.176  0.8113  0.0357  2.5729
  375SOL     OW 1123   0.850   0.834   1.950  0.5052  0.1911  0.3239
  375SOL    HW1 1124   0.800   0.838   2.036 -2.1059  3.4033  2.0921
  375SOL    HW2 1125   0.902   0.746   1.951  0.1389  2.4730 -0.3571
  376SOL     OW 1126   0.425   2.327   1.717  0.2579  0.0188  0.1876
  376SOL    HW1 1127   0.373   2.280   1.786 -3.0719  1.3837 -1.3824
  376SOL    HW2 1128   0.423   2.424   1.742 -1.2859 -0.4266 -3.5182
  377SOL     OW 1129   2.822   1.495   2.638  0.0128 -0.1547 -0.2246
  377SOL    HW1 1130   2.752   1.481   2.565 -4.5864  1.7918  0.3736
  377SOL    HW2 1131   2.891   1.425   2.633 -1.8082  0.5976  0.2846
  378SOL     OW 1132   1.567   3.039   2.987  0.3561 -0.0651 -0.0515
  378SOL    HW1 1133   1.587   2.977   3.066 -1.2882  2.3045  0.1055
  378SOL    HW2 1134   1.465   3.040   2.970 -0.7820  0.0256  1.3883
  379SOL     OW 1135   1.696   0.842   0.531  0.3562 -0.1132  0.3223
  379SOL    HW1 1136   1.721   0.859   0.624  0.6189 -1.6716 -1.1997
  379SOL    HW2 1137   1.777   0.831   0.473 -1.0166  0.6135 -2.6849
  380SOL     OW 1138   0.346   2.019   1.527  1.0822  0.1337  0.1485
  380SOL    HW1 1139   0.286   1.970   1.592 -0.6345 -0.4517  1.3771
  380SOL    HW2 1140   0.424   2.064   1.574  1.4451 -0.6951 -1.7018
  381SOL     OW 1141   2.375   1.509   2.414  0.2844  0.1384  0.6762
  381SOL    HW1 1142   2.391   1.595   2.465 -0.5701  1.4023  0.3664
  381SOL    HW2 1143   2.310   1.444   2.459 -0.7759  1.1524 -0.8336
  382SOL     OW 1144   0.150   0.312   2.663 -0.3285 -0.4400 -0.0266
  382SOL    HW1 1145   0.155   0.239   2.595 -0.5694  1.5610 -1.9371
  382SOL    HW2 1146   0.243   0.353   2.677  1.3939 -0.1032  0.3495
  383SOL     OW 1147   1.819   1.160   2.953 -0.1917  0.1312  0.4733
  383SOL    HW1 1148   1.910   1.197   2.956 -1.4806  0.6155 -0.8433
  383SOL    HW2 1149   1.755   1.209   3.013  0.0930  0.3679 -1.1312
  384SOL     OW 1150   1.108   2.166   1.430  0.4030 -0.1960  0.2815
  384SOL    HW1 1151   1.028   2.219   1.392 -3.1578  1.6636  0.3446
  384SOL    HW2 1152   1.198   2.218   1.425 -1.9019  2.3457  0.5293
  385SOL     OW 1153   1.765   2.793   0.910 -0.0658  0.2729 -0.9285
  385SOL    HW1 1154   1.739   2.880   0.959  0.0280  1.2330  0.4401
  385SOL    HW2 1155   1.694   2.769   0.844 -3.9046 -1.4224 -2.2199
  386SOL     OW 1156   1.665   2.303   0.989  0.1428  0.5118  0.1509
  386SOL    HW1 1157   1.744   2.265   0.931 -1.7413 -2.0873  1.0145
  386SOL    HW2 1158   1.691   2.379   1.049  1.5829 -2.9870 -0.1547
  387SOL     OW 1159   2.783   2.089   1.393  0.2606 -0.1414  0.0565
  387SOL    HW1 1160   2.718   2.037   1.329  0.4123 -0.2804  0.1706
  387SOL    HW2 1161   2.763   2.066   1.494 -0.0267  0.7726  1.4994
  388SOL     OW 1162   2.886   0.942   1.452 -0.2306 -0.5545  0.0956
  388SOL    HW1 1163   2.816   0.871   1.431  0.0031 -1.7133  1.4143
  388SOL    HW2 1164   2.932   0.925   1.543  2.1105  0.2722 -3.1065
  389SOL     OW 1165   1.940   0.526   0.173  0.6012  0.2169 -0.5865
  389SOL    HW1 1166   1.976   0.558   0.089  0.1107  0.3914  1.4299
  389SOL    HW2 1167   1.835   0.522   0.166 -1.7009 -1.6020 -1.0937
  390SOL     OW 1168   1.358   1.703   2.692  0.5593 -0.0489 -0.2462
  390SOL    HW1 1169   1.363   1.748   2.601 -0.9802 -0.6741 -0.0805
  390SOL    HW2 1170   1.441   1.654   2.721 -1.1849  0.0502 -2.4669
  391SOL     OW 1171   0.961   2.041   0.008 -0.3981  0.5839  0.7431
  391SOL    HW1 1172   0.997   2.132   0.039 -0.7007  0.7758  4.0275
  391SOL    HW2 1173   0.896   2.046   3.046  0.1441 -0.1092 -1.9469
  392SOL     OW 1174   0.128   2.909   1.757  0.2560 -0.3106  0.0232
  392SOL    HW1 1175   0.171   2.821   1.745  0.6194  2.4364 -1.7044
  392SOL    HW2 1176   0.136   2.941   1.851  0.8489 -0.9896 -0.4831
  393SOL     OW 1177   1.491   2.719   0.217 -0.4204  0.3315  0.4030
  393SOL    HW1 1178   1.561   2.665   0.276 -0.7682  1.6857 -2.2272
  393SOL    HW2 1179   1.400   2.734   0.260  2.9915  0.0805  2.6995
  394SOL     OW 1180   0.338   0.647   2.311 -0.6137  0.5727 -0.5112
  394SOL    HW1 1181   0.337   0.674   2.409  1.6668 -1.5826  1.4288
  394SOL    HW2 1182   0.307   0.552   2.286 -1.7732 -0.6930 -1.1381
  395SOL     OW 1183   0.453   1.135   1.051 -0.4058  0.4243 -0.0090
  395SOL    HW1 1184   0.480   1.190   1.134  1.9316  1.4932 -1.3076
  395SOL    HW2 1185   0.373   1.179   1.004 -2.9259  0.0740 -1.7996
  396SOL     OW 1186   1.587   1.093   2.255 -0.2546 -0.5389 -0.6565
  396SOL    HW1 1187   1.621   1.187   2.251  0.3373  0.4555 -1.5291
  396SOL    HW2 1188   1.516   1.083   2.180  0.6822  0.6857  1.9021
  397SOL     OW 1189   0.795   0.016   0.173 -0.0601 -0.2453  0.1039
  397SOL    HW1 1190   0.863   0.033   0.099  0.5376 -1.2338 -1.4806
  397SOL    HW2 1191   0.762   0.108   0.195  1.1351 -1.7774  0.2118
  398SOL     OW 1192   0.842   2.208   2.721 -0.0239  0.2613  0.2111
  398SOL    HW1 1193   0.790   2.177   2.804 -1.8575 -0.0046  2.4674
  398SOL    HW2 1194   0.837   2.131   2.655  1.1399  1.9473 -1.0727
  399SOL     OW 1195   2.170   1.351   2.493  0.2837 -0.4734 -0.0917
  399SOL    HW1 1196   2.115   1.325   2.576  1.4500 -1.6392  0.6797
  399SOL    HW2 1197   2.118   1.359   2.403  1.5788  1.9811 -1.9896
  400SOL     OW 1198   2.054   1.402   1.345 -0.1396  0.4611  0.1605
  400SOL    HW1 1199   2.032   1.317   1.289 -0.2483 -0.8751 -1.7343
  400SOL    HW2 1200   2.094   1.478   1.285  2.3420  1.4529  0.0427
  401SOL     OW 1201   1.180   1.340   1.121  0.8146 -0.2187  0.3956
  401SOL    HW1 1202   1.243   1.262   1.129 -1.6589  1.1022 -0.2504
  401SOL    HW2 1203   1.093   1.330   1.180 -2.8990 -2.8387 -1.9927
  402SOL     OW 1204   3.108   2.565   1.736 -0.7445 -0.2566  0.1491
  402SOL    HW1 1205   3.070   2.534   1.646 -1.1203  0.9921  0.1752
  402SOL    HW2 1206   0.092   2.590   1.727 -1.0726  1.3821 -0.4420
  403SOL     OW 1207   0.188   1.223   2.345 -0.3410 -0.2032 -0.1862
  403SOL    HW1 1208   0.207   1.259   2.442  0.8005 -0.1789  0.5115
  403SOL    HW2 1209   0.257   1.149   2.319  1.3004 -0.1212 -0.1779
  404SOL     OW 1210   2.308   1.734   1.272 -0.2177 -0.4776 -0.7698
  404SOL    HW1 1211   2.304   1.817   1.333 -2.3315  1.0637 -1.4514
  404SOL    HW2 1212   2.370   1.748   1.198 -3.0167  1.2960 -0.1723
  405SOL     OW 1213   2.647   0.518   2.491  0.2048 -0.5802  0.5481
  405SOL    HW1 1214   2.705   0.572   2.425  1.7885  1.1926  1.2731
  405SOL    HW2 1215   2.625   0.427   2.448  0.9841  0.9813  1.4823
  406SOL     OW 1216   0.820   1.445   3.102 -0.2922  0.3811  0.1799
  406SOL    HW1 1217   0.800   1.508   0.059  0.2200 -1.3126  0.8720
  406SOL    HW2 1218   0.857   1.354   0.021  0.5984 -3.5271  0.2628
  407SOL     OW 1219   1.678   2.555   3.052 -0.5346  0.1340  0.2521
  407SOL    HW1 1220   1.696   2.486   2.980 -0.3316 -1.7847  0.8792
  407SOL    HW2 1221   1.701   2.648   3.022 -2.4940  2.1400 -0.7028
  408SOL     OW 1222   0.493   3.083   0.029 -0.2283 -0.0800 -0.3535
  408SOL    HW1 1223   0.541   3.006   0.074  0.0504  1.0906  1.3399
  408SOL    HW2 1224   0.515   3.081   3.048  0.1816 -0.6620 -0.8713
  409SOL     OW 1225   2.462   1.748   1.060 -0.3897  0.4606  0.5956
  409SOL    HW1 1226   2.415   1.682   0.999  1.7232 -0.6344  0.6594
  409SOL    HW2 1227   2.503   1.818   0.994 -1.4206 -1.0799  0.6115
  410SOL     OW 1228   2.176   2.121   2.762 -0.5033 -0.8901  0.5664
  410SOL    HW1 1229   2.214   2.056   2.834  0.0446  0.4497 -1.0172
  410SOL    HW2 1230   2.192   2.215   2.792  0.2269 -1.1905 -3.6361
  411SOL     OW 1231   0.163   1.147   0.776  0.1591 -0.0667 -0.0433
  411SOL    HW1 1232   0.088   1.083   0.757  0.6917  0.8804 -0.4239
  411SOL    HW2 1233   0.246   1.118   0.729 -0.7936  0.7035  1.8927
  412SOL     OW 1234   1.483   2.819   0.523  0.5597 -0.4146  0.7802
  412SOL    HW1 1235   1.573   2.838   0.479  0.2279  2.8135 -1.2349
  412SOL    HW2 1236   1.414   2.868   0.468 -0.0077  0.3621  0.6164
  413SOL     OW 1237   1.801   0.414   2.557 -0.3106  0.5045  0.1057
  413SOL    HW1 1238   1.708   0.412   2.593  1.2485  0.7302 -0.9553
  413SOL    HW2 1239   1.801   0.445   2.460  0.1963 -1.4177  0.9355
  414SOL     OW 1240   2.849   0.529   0.441 -0.1706  0.0195  0.1435
  414SOL    HW1 1241   2.763   0.477   0.418  0.7378  0.8849  1.1455
  414SOL    HW2 1242   2.918   0.476   0.496  0.8022 -0.5540 -0.3798
  415SOL     OW 1243   0.806   1.550   1.428 -0.3769 -0.3808  0.0412
  415SOL    HW1 1244   0.807   1.621   1.504  0.6987 -0.4838 -0.1306
  415SOL    HW2 1245   0.746   1.470   1.444  1.7468 -3.2205  1.5627
  416SOL     OW 1246   0.501   3.066   2.887  0.0934 -0.0601 -0.1299
  416SOL    HW1 1247   0.524   0.014   2.816  0.8997 -0.0901  2.0463
  416SOL    HW2 1248   0.401   3.041   2.893 -1.9984 -3.2400 -1.2081
  417SOL     OW 1249   2.621   2.920   1.080 -0.6668  0.0459  0.2202
  417SOL    HW1 1250   2.628   2.843   1.010  0.9303  0.5711 -0.5423
  417SOL    HW2 1251   2.676   2.906   1.166  2.6599 -2.8694  1.3819
  418SOL     OW 1252   0.618   0.579   2.596 -0.6166  0.4061 -0.2647
  418SOL    HW1 1253   0.568   0.502   2.541 -3.2795 -1.1210  1.0463
  418SOL    HW2 1254   0.684   0.635   2.532 -0.8493  2.6950 -2.3595
  419SOL     OW 1255   0.185   1.451   1.297 -0.0755 -0.2226  1.0631
  419SOL    HW1 1256   0.224   1.441   1.202  0.7902 -0.7474 -0.9336
  419SOL    HW2 1257   0.102   1.396   1.316 -0.9649  1.0432 -0.6250
  420SOL     OW 1258   0.831   1.836   1.175 -0.2167 -0.0351 -0.1797
  420SOL    HW1 1259   0.893   1.917   1.152  0.8017  0.7843 -2.3110
  420SOL    HW2 1260   0.738   1.852   1.144  3.2209  0.8593 -0.7859
  421SOL     OW 1261   1.992   2.202   1.924  0.6906 -0.3178 -0.2460
  421SOL    HW1 1262   1.903   2.198   1.870 -0.6077  0.0415 -2.1405
  421SOL    HW2 1263   2.004   2.126   1.993  0.1823 -0.3197  1.2247
  422SOL     OW 1264   3.038   0.409   2.535  0.3619  0.0936  0.0850
  422SOL    HW1 1265   0.004   0.372   2.583  1.9144 -0.4525 -2.4737
  422SOL    HW2 1266   2.951   0.383   2.581 -0.8440 -1.4124 -2.2207
  423SOL     OW 1267   1.274   2.133   1.111 -0.0153  0.0413 -0.0271
  423SOL    HW1 1268   1.184   2.097   1.092  4.5643  1.7753  2.6435
  423SOL    HW2 1269   1.327   2.051   1.147 -0.7725 -2.1113 -2.0670
  424SOL     OW 1270   0.628   1.390   1.589 -0.5571  0.4952  0.2222
  424SOL    HW1 1271   0.533   1.378   1.555  0.1080  2.3882  1.0249
  424SOL    HW2 1272   0.616   1.432   1.681  0.8421  0.2580  1.7491
  425SOL     OW 1273   0.014   2.653   2.266 -0.3352  0.3706 -0.0492
  425SOL    HW1 1274   0.006   2.560   2.310 -1.3521 -0.1703 -1.6275
  425SOL    HW2 1275   3.096   2.650   2.170  0.9343 -2.1344  1.3482
  426SOL     OW 1276   1.775   3.038   0.603 -0.6367 -0.0103  0.2541
  426SOL    HW1 1277   1.774   2.968   0.532  0.0692  0.2690  0.9859
  426SOL    HW2 1278   1.867   3.075   0.630  1.4529  1.4941  2.4371
  427SOL     OW 1279   0.902   0.714   2.934 -0.1008 -0.6319 -0.0532
  427SOL    HW1 1280   0.949   0.656   3.006 -0.4800 -2.4299 -1.1384
  427SOL    HW2 1281   0.942   0.808   2.935  1.2316 -1.0203 -0.2679
  428SOL     OW 1282   1.836   1.197   0.163 -0.1376 -0.2738  0.6263
  428SOL    HW1 1283   1.760   1.240   0.111  1.0641  2.9865  1.0256
  428SOL    HW2 1284   1.853   1.098   0.144  2.0335  1.5305  0.4367
  429SOL     OW 1285   0.033   2.852   0.585  0.2896 -0.0929  0.3274
  429SOL    HW1 1286   0.095   2.903   0.643 -0.7814 -1.2959  0.3393
  429SOL    HW2 1287   0.009   2.898   0.494 -1.8342 -0.1122  0.0339
  430SOL     OW 1288   0.381   2.868   2.163 -0.9200  0.1076  0.0168
  430SOL    HW1 1289   0.372   2.768   2.187 -0.7497  0.5558  2.1302
  430SOL    HW2 1290   0.477   2.884   2.127 -0.5395 -1.9436 -1.6946
  431SOL     OW 1291   2.590   1.070   1.223  0.5822 -0.2130  0.1571
  431SOL    HW1 1292   2.532   1.148   1.194 -2.1937  0.5753  0.9194
  431SOL    HW2 1293   2.600   1.065   1.323  3.0696 -0.2663  0.9656
  432SOL     OW 1294   1.988   2.409   2.127  0.3727  0.0385 -0.1076
  432SOL    HW1 1295   1.887   2.421   2.140 -0.7391 -0.2623 -0.4795
  432SOL    HW2 1296   2.012   2.339   2.059  0.0495 -0.2562 -1.1900
  433SOL     OW 1297   1.271   2.459   0.793  0.2527  0.1956  0.3811
  433SOL    HW1 1298   1.322   2.384   0.841  0.7143  0.3614  0.1570
  433SOL    HW2 1299   1.303   2.548   0.823  2.0972 -2.1090 -0.6796
  434SOL     OW 1300   0.001   2.130   2.333 -0.3571  0.0405 -0.0052
  434SOL    HW1 1301   0.016   2.036   2.371  1.3067 -2.5166  1.3359
  434SOL    HW2 1302   3.022   2.144   2.323 -0.9343 -2.3722  1.8828
  435SOL     OW 1303   0.377   0.878   0.262 -0.0906  0.1067 -0.7385
  435SOL    HW1 1304   0.338   0.792   0.224 -0.2170 -1.2949  0.5411
  435SOL    HW2 1305   0.458   0.910   0.209  1.0016  0.4500 -0.1525
  436SOL     OW 1306   0.246   2.650   1.685  0.6115 -0.1703 -0.6028
  436SOL    HW1 1307   0.304   2.634   1.768 -0.3017 -1.7168 -0.3661
  436SOL    HW2 1308   0.294   2.692   1.604  1.6192  1.4753 -1.1900
  437SOL     OW 1309   1.590   2.114   1.441  0.1239 -0.1808  0.0059
  437SOL    HW1 1310   1.691   2.107   1.462  0.6047  2.6171  2.4718
  437SOL    HW2 1311   1.560   2.210   1.438 -0.1326 -1.7462  2.3247
  438SOL     OW 1312   0.259   1.605   0.591 -0.8378  0.4948  0.1018
  438SOL    HW1 1313   0.219   1.524   0.641 -0.0475 -1.6570  2.0364
  438SOL    HW2 1314   0.185   1.654   0.542  0.6290 -2.0832 -0.2746
  439SOL     OW 1315   0.043   0.714   0.877 -0.1809  0.0011 -0.2053
  439SOL    HW1 1316   0.131   0.664   0.883 -1.4983 -0.5807 -0.4313
  439SOL    HW2 1317   3.079   0.659   0.850  0.6594  3.3474  1.4897
  440SOL     OW 1318   0.218   2.776   2.569 -0.1560  0.0175 -0.4454
  440SOL    HW1 1319   0.147   2.775   2.640  1.8124 -0.5260  2.8556
  440SOL    HW2 1320   0.213   2.685   2.517 -0.3958  0.0637 -3.6704
  441SOL     OW 1321   2.821   0.152   0.653 -0.3996 -0.4641 -0.1139
  441SOL    HW1 1322   2.869   0.207   0.726  0.5031 -1.9872  2.0462
  441SOL    HW2 1323   2.726   0.164   0.649  5.0505  1.6667  0.0335
  442SOL     OW 1324   1.169   2.358   2.507 -0.1948  0.2892  0.3144
  442SOL    HW1 1325   1.153   2.296   2.587 -2.6872  2.0715 -1.8830
  442SOL    HW2 1326   1.249   2.419   2.515 -3.9297  0.0861  1.7839
  443SOL     OW 1327   0.648   1.146   0.028 -0.5737  0.5667  0.7518
  443SOL    HW1 1328   0.615   1.189   3.059  0.2977 -0.6163 -3.1099
  443SOL    HW2 1329   0.748   1.135   0.022 -0.1765 -1.4216  0.2158
  444SOL     OW 1330   1.580   1.464   2.304  0.6193 -0.3923 -0.2870
  444SOL    HW1 1331   1.546   1.531   2.238  1.2237  0.2191  1.2147
  444SOL    HW2 1332   1.510   1.455   2.376 -1.2248  0.7745 -1.3366
  445SOL     OW 1333   0.143   3.001   1.110  0.6031  0.2313 -0.3316
  445SOL    HW1 1334   0.169   3.092   1.075  0.3998  1.8781 -0.1427
  445SOL    HW2 1335   0.045   2.977   1.107  1.2747  1.5398 -0.9687
  446SOL     OW 1336   2.385   0.526   1.161 -0.3951 -0.2231 -0.6050
  446SOL    HW1 1337   2.450   0.579   1.105  1.2576  0.1803 -1.6144
  446SOL    HW2 1338   2.290   0.552   1.154  0.1129  1.6403  1.2976
  447SOL     OW 1339   0.215   0.616   2.902  0.1067  0.3023  0.1366
  447SOL    HW1 1340   0.143   0.605   2.975 -0.9042 -0.7665  2.0382
  447SOL    HW2 1341   0.169   0.659   2.822  0.4704 -3.1388  1.0195
  448SOL     OW 1342   1.389   1.979   1.536 -0.0722 -0.5937 -0.3918
  448SOL    HW1 1343   1.465   2.033   1.501 -1.2581 -1.2567  2.5150
  448SOL    HW2 1344   1.418   1.925   1.616 -1.1832  0.6004  0.5433
  449SOL     OW 1345   1.031   1.364   0.864 -0.0015 -0.0148  0.6638
  449SOL    HW1 1346   1.071   1.400   0.950  0.8715 -0.5313  0.8680
  449SOL    HW2 1347   1.094   1.385   0.786 -0.3332  0.3137 -1.9811
  450SOL     OW 1348   2.655   2.160   2.112  0.0997 -0.2987  0.7339
  450SOL    HW1 1349   2.586   2.232   2.127  0.9076 -0.1332  0.0202
  450SOL    HW2 1350   2.620   2.068   2.083  0.0653 -0.2149 -0.0375
  451SOL     OW 1351   2.368   1.489   2.824  0.2386 -0.4438 -0.1114
  451SOL    HW1 1352   2.351   1.479   2.924 -0.1017 -0.9439  0.5707
  451SOL    HW2 1353   2.288   1.538   2.784  1.3190 -1.1897  2.0378
  452SOL     OW 1354   1.665   0.781   1.273  0.0605 -0.0441 -0.2757
  452SOL    HW1 1355   1.575   0.752   1.309  1.4233 -0.8474 -1.3010
  452SOL    HW2 1356   1.695   0.855   1.337 -2.1708  2.0501  2.6350
  453SOL     OW 1357   2.180   1.082   1.582 -0.1742 -0.0995 -0.1185
  453SOL    HW1 1358   2.166   1.181   1.609  1.3020 -0.1601 -2.0113
  453SOL    HW2 1359   2.190   1.067   1.482  1.7898  1.0606  3.5771
  454SOL     OW 1360   2.914   0.961   0.126  0.0810  0.2824 -0.2289
  454SOL    HW1 1361   2.965   0.904   0.056  0.5550 -0.8263 -2.1156
  454SOL    HW2 1362   2.963   0.949   0.211 -2.0552  0.8907 -2.9793
  455SOL     OW 1363   2.574   1.561   1.200 -0.6945 -0.3116  0.2173
  455SOL    HW1 1364   2.540   1.640   1.143  3.8356 -0.6059  0.9570
  455SOL    HW2 1365   2.540   1.558   1.293 -1.8865 -0.9162 -2.0583
  456SOL     OW 1366   0.771   0.264   1.423  0.0406 -0.1074 -0.4631
  456SOL    HW1 1367   0.780   0.163   1.441 -1.1066  2.9909 -1.1757
  456SOL    HW2 1368   0.740   0.273   1.325 -2.8478 -0.4258  0.8363
  457SOL     OW 1369   1.664   3.003   1.071  0.4465  0.3619 -0.1216
  457SOL    HW1 1370   1.629   3.001   1.165  0.2391  2.7912 -1.6543
  457SOL    HW2 1371   1.583   3.034   1.013  0.9765  0.8017 -0.1251
  458SOL     OW 1372   2.405   0.303   0.595 -0.7016 -0.0152  0.0521
  458SOL    HW1 1373   2.414   0.379   0.527  1.8433 -0.3573 -0.4286
  458SOL    HW2 1374   2.410   0.212   0.550  0.3989 -1.0620  0.4995
  459SOL     OW 1375   1.659   0.762   0.013  0.3285  0.3045  0.4002
  459SOL    HW1 1376   1.665   0.669   0.055 -0.2702  0.4820  0.5297
  459SOL    HW2 1377   1.562   0.792   0.005 -0.1564  2.8100  0.5918
  460SOL     OW 1378   3.116   2.522   2.786 -0.4005 -0.3830  0.0421
  460SOL    HW1 1379   3.059   2.533   2.703  0.1247 -0.8885  1.5759
  460SOL    HW2 1380   0.028   2.615   2.815 -3.4187 -0.6014 -0.4494
  461SOL     OW 1381   0.580   1.831   0.224 -0.4565  0.1630 -0.3327
  461SOL    HW1 1382   0.558   1.757   0.294  0.9189  0.6442 -1.0312
  461SOL    HW2 1383   0.579   1.795   0.131  2.3813  1.3878  2.6662
  462SOL     OW 1384   1.954   2.472   0.704 -0.0391 -0.0935  0.3716
  462SOL    HW1 1385   2.023   2.422   0.648  0.2133 -0.5917  0.2074
  462SOL    HW2 1386   1.990   2.563   0.743  1.3972 -0.0083  0.9887
  463SOL     OW 1387   0.006   0.573   0.326 -0.0490  0.2071  0.3118
  463SOL    HW1 1388   0.053   0.630   0.397 -0.8063  1.3771  3.1347
  463SOL    HW2 1389   3.025   0.561   0.354 -3.2402 -1.2706  0.7626
  464SOL     OW 1390   0.683   2.519   0.523  0.7590 -0.1453  0.1919
  464SOL    HW1 1391   0.635   2.500   0.613  1.2848  0.5864  3.2474
  464SOL    HW2 1392   0.677   2.436   0.462 -0.7663  1.6700 -1.7699
  465SOL     OW 1393   2.376   0.477   0.346  0.1666 -1.4219 -0.5539
  465SOL    HW1 1394   2.302   0.408   0.332  0.0458  0.2752  0.9205
  465SOL    HW2 1395   2.361   0.558   0.282 -1.0583  0.3401 -0.2784
  466SOL     OW 1396   2.095   0.139   0.149 -0.5138 -0.5015 -0.0302
  466SOL    HW1 1397   2.172   0.159   0.086  1.9395 -0.1887  1.9727
  466SOL    HW2 1398   2.092   0.033   0.165  0.4779 -2.0771  2.1251
  467SOL     OW 1399   1.167   0.409   1.968 -0.9205 -0.4730 -0.0518
  467SOL    HW1 1400   1.168   0.439   2.064 -0.3849 -3.7520 -0.6811
  467SOL    HW2 1401   1.263   0.410   1.932 -3.9531  0.3925  1.5027
  468SOL     OW 1402   2.952   0.747   2.105 -0.2780  0.1841  0.0364
  468SOL    HW1 1403   3.038   0.692   2.118  1.7101 -1.0002  0.8510
  468SOL    HW2 1404   2.948   0.809   2.025  0.2378 -1.1638 -1.6228
  469SOL     OW 1405   0.866   2.535   2.364  0.4314 -0.0145 -0.1128
  469SOL    HW1 1406   0.816   2.483   2.436  1.4334  0.7150  1.2293
  469SOL    HW2 1407   0.806   2.586   2.302  0.8930 -1.4045  0.6844
  470SOL     OW 1408   1.960   1.380   1.851  0.4763  0.3027 -0.1101
  470SOL    HW1 1409   2.011   1.366   1.761  0.3981 -1.2772 -0.7986
  470SOL    HW2 1410   1.949   1.287   1.898 -1.8600 -3.0097  3.2694
  471SOL     OW 1411   2.685   0.978   3.070 -0.0623 -0.4279 -0.2779
  471SOL    HW1 1412   2.606   0.910   3.060 -0.5316  0.3135  0.2152
  471SOL    HW2 1413   2.753   0.950   0.020 -2.9766 -2.2336 -1.5511
  472SOL     OW 1414   0.454   2.870   0.597  0.2720 -0.0298  0.9995
  472SOL    HW1 1415   0.530   2.847   0.655 -4.0737  2.2873 -3.6099
  472SOL    HW2 1416   0.437   2.804   0.520  1.1153 -1.3945 -0.6730
  473SOL     OW 1417   1.036   2.726   2.508  0.6800 -0.3333  0.1255
  473SOL    HW1 1418   1.012   2.656   2.441  0.7554  0.0091  1.9505
  473SOL    HW2 1419   0.951   2.774   2.533  0.6259 -1.1458  0.4174
  474SOL     OW 1420   1.439   0.017   2.156  0.1557  0.9155  0.5705
  474SOL    HW1 1421   1.491   0.048   2.237 -1.2035  0.7657  0.7248
  474SOL    HW2 1422   1.336   0.037   2.159  0.8523 -0.7750 -0.3458
  475SOL     OW 1423   0.880   2.451   0.205  0.5583  0.1074  0.1502
  475SOL    HW1 1424   0.909   2.541   0.246  2.4494 -1.6716  0.1460
  475SOL    HW2 1425   0.838   2.396   0.280 -2.0650 -0.2448  0.9957
  476SOL     OW 1426   0.559   0.496   0.949 -0.0151  0.4313  0.5948
  476SOL    HW1 1427   0.540   0.581   0.999  2.0277 -1.5862  0.1560
  476SOL    HW2 1428   0.645   0.506   0.896  1.1652  1.0341  0.4957
  477SOL     OW 1429   1.870   1.887   1.245 -0.3562 -0.0717 -0.2693
  477SOL    HW1 1430   1.792   1.860   1.304  1.8316 -0.3924  1.6893
  477SOL    HW2 1431   1.881   1.815   1.173 -1.6029  1.4454 -0.4182
  478SOL     OW 1432   0.281   0.896   2.777 -0.0910  0.4314 -0.0120
  478SOL    HW1 1433   0.347   0.891   2.857  1.4803 -1.2335 -1.6205
  478SOL    HW2 1434   0.195   0.942   2.801 -1.1522 -0.9029  0.8045
  479SOL     OW 1435   0.470   0.046   0.812  0.1375  0.1280 -0.4637
  479SOL    HW1 1436   0.500   0.007   0.722  0.7779  0.4327  0.0791
  479SOL    HW2 1437   0.465   0.145   0.802  0.2893  0.4698 -0.3329
  480SOL     OW 1438   2.552   2.644   0.110  0.0989  0.4223 -0.1506
  480SOL    HW1 1439   2.637   2.614   0.062  0.9852 -1.9590 -0.7297
  480SOL    HW2 1440   2.510   2.570   0.168 -1.2136  1.7551  1.2769
  481SOL     OW 1441   2.850   0.730   1.077 -0.0787  0.1659  0.1650
  481SOL    HW1 1442   2.907   0.812   1.068 -0.5465 -1.1373 -0.5088
  481SOL    HW2 1443   2.858   0.686   1.167 -1.6023 -1.2931 -1.4292
  482SOL     OW 1444   1.446   2.479   1.574  0.2742 -0.0233  0.0235
  482SOL    HW1 1445   1.531   2.466   1.519 -1.4392 -1.1978 -0.4767
  482SOL    HW2 1446   1.455   2.447   1.673 -0.8075  1.0324  2.0020
  483SOL     OW 1447   0.356   1.586   3.102  0.2813 -0.2168  0.2770
  483SOL    HW1 1448   0.265   1.624   3.102  0.8509 -0.8175 -0.0535
  483SOL    HW2 1449   0.366   1.519   3.026  0.9058 -1.4988 -3.5793
  484SOL     OW 1450   1.303   1.860   2.464 -0.1320 -0.6966  0.0039
  484SOL    HW1 1451   1.264   1.790   2.397 -3.1873 -1.2650  3.9176
  484SOL    HW2 1452   1.393   1.899   2.428  2.0125  0.6682  0.2258
  485SOL     OW 1453   0.301   0.386   2.247  0.3572  0.8585  0.4013
  485SOL    HW1 1454   0.200   0.363   2.268 -3.0799  0.3250  1.2307
  485SOL    HW2 1455   0.336   0.329   2.167 -0.2838 -1.3047 -2.5829
  486SOL     OW 1456   1.293   0.079   0.617 -0.3071 -0.2276 -0.3289
  486SOL    HW1 1457   1.302   0.135   0.705  1.2170  2.7774  1.3195
  486SOL    HW2 1458   1.369   0.012   0.609  0.2791  1.6582 -3.5692
  487SOL     OW 1459   1.453   3.040   0.933  0.2828 -0.1651 -0.1281
  487SOL    HW1 1460   1.379   3.109   0.925 -0.3501  0.5098  1.5300
  487SOL    HW2 1461   1.489   3.011   0.838 -0.1096 -0.6380  2.2300
  488SOL     OW 1462   2.126   0.697   0.867 -0.2713 -0.1572 -0.3065
  488SOL    HW1 1463   2.153   0.793   0.857 -5.6566 -0.9572 -1.2522
  488SOL    HW2 1464   2.180   0.628   0.810  3.4284 -3.4924 -1.5342
  489SOL     OW 1465   1.288   2.887   1.350 -0.1403  0.4208  0.4422
  489SOL    HW1 1466   1.332   2.858   1.435 -0.0198  1.6446 -4.1036
  489SOL    HW2 1467   1.191   2.862   1.348  0.6177  0.6432 -0.9398
  490SOL     OW 1468   0.991   0.872   0.390 -0.3141  0.0288 -0.1790
  490SOL    HW1 1469   0.951   0.911   0.474 -0.5358  0.1949 -1.0408
  490SOL    HW2 1470   1.028   0.774   0.397  2.0621 -0.6595 -1.5451
  491SOL     OW 1471   1.015   2.796   0.093  0.2350  0.0436 -0.2941
  491SOL    HW1 1472   0.984   2.749   0.179 -0.5496  1.9527 -0.4394
  491SOL    HW2 1473   1.118   2.792   0.092  1.7988  1.4069 -1.5053
  492SOL     OW 1474   1.187   1.209   2.173 -0.2220  0.3156 -0.6277
  492SOL    HW1 1475   1.260   1.276   2.162  1.9908 -0.8126  0.4453
  492SOL    HW2 1476   1.118   1.225   2.099  0.4959  0.1281 -0.4328
  493SOL     OW 1477   3.056   2.058   0.162  0.3325 -0.2097 -0.0654
  493SOL    HW1 1478   3.114   2.101   0.093 -3.0715 -1.2739 -0.2985
  493SOL    HW2 1479   3.003   1.978   0.128 -2.6149 -1.1181  0.2002
  494SOL     OW 1480   2.033   1.546   0.416  0.3394  0.0708  0.3778
  494SOL    HW1 1481   1.956   1.558   0.480 -1.5751 -0.5355  1.1491
  494SOL    HW2 1482   2.031   1.450   0.384 -1.2759  1.2313 -0.8724
  495SOL     OW 1483   0.395   1.040   2.339  0.6872  0.1901 -0.4013
  495SOL    HW1 1484   0.353   1.005   2.253 -1.6812 -4.0722  0.7184
  495SOL    HW2 1485   0.489   1.003   2.341  1.2738  2.3326  2.1778
  496SOL     OW 1486   2.927   2.994   2.079 -0.1826  0.0904 -0.2058
  496SOL    HW1 1487   2.895   2.928   2.008 -0.4342 -0.0962  1.9905
  496SOL    HW2 1488   3.001   2.953   2.143  1.8775  0.6889 -0.5099
  497SOL     OW 1489   2.376   0.860   0.564  1.0056 -0.3655  0.0690
  497SOL    HW1 1490   2.437   0.830   0.482 -0.0935 -0.6174 -1.5898
  497SOL    HW2 1491   2.287   0.811   0.566  2.1686  0.4589  0.0017
  498SOL     OW 1492   2.969   2.735   3.068  0.0831 -0.3083  0.4256
  498SOL    HW1 1493   2.886   2.773   3.018 -3.3809  2.9102  0.7116
  498SOL    HW2 1494   3.049   2.727   3.009  0.5682 -2.1111  4.0538
  499SOL     OW 1495   1.597   2.691   0.719 -0.3408 -0.3483  0.1823
  499SOL    HW1 1496   1.553   2.743   0.641 -3.1751  0.7437  1.1023
  499SOL    HW2 1497   1.634   2.601   0.684 -1.9477 -2.3649 -1.6171
  500SOL     OW 1498   1.349   0.765   2.559 -0.8638  0.1751  0.0904
  500SOL    HW1 1499   1.379   0.701   2.485 -0.6180 -0.0247  0.2208
  500SOL    HW2 1500   1.371   0.862   2.541  2.2325  0.9409  0.4414
  501SOL     OW 1501   1.029   0.311   1.361 -0.7389 -0.1111 -0.1363
  501SOL    HW1 1502   1.054   0.212   1.364  0.7862 -2.2409 -0.2890
  501SOL    HW2 1503   0.936   0.322   1.400 -0.1765 -0.7754 -0.0266
  502SOL     OW 1504   3.094   0.080   1.989  0.4723 -0.1146  0.2826
  502SOL    HW1 1505   3.042   0.005   2.035 -0.5300  0.6252  1.5185
  502SOL    HW2 1506   3.050   0.110   1.904 -2.2255  1.0793  0.3367
  503SOL     OW 1507   1.493   2.439   2.283  0.4230 -0.5372 -0.4505
  503SOL    HW1 1508   1.580   2.457   2.235 -2.2051  0.5168 -2.0793
  503SOL    HW2 1509   1.498   2.342   2.324  1.7098 -1.8886  2.3583
  504SOL     OW 1510   2.015   0.240   1.862  0.2465  0.3788  0.0264
  504SOL    HW1 1511   2.100   0.226   1.798  2.0430 -1.5089 -0.1010
  504SOL    HW2 1512   1.951   0.156   1.860 -1.8546 -1.3750  0.0201
  505SOL     OW 1513   2.756   1.203   1.488 -0.5004  0.2908 -0.7553
  505SOL    HW1 1514   2.825   1.130   1.473 -0.3244 -2.5025 -0.1945
  505SOL    HW2 1515   2.744   1.216   1.588 -1.0797  1.3815 -1.1011
  506SOL     OW 1516   0.395   1.441   2.143 -0.3885 -0.2469 -0.3711
  506SOL    HW1 1517   0.374   1.393   2.233  0.0431 -2.2484  0.5992
  506SOL    HW2 1518   0.365   1.382   2.066  0.4969  1.1266 -0.6014
  507SOL     OW 1519   0.242   2.975   1.389 -0.2837  0.0913 -0.2113
  507SOL    HW1 1520   0.225   2.975   1.289 -1.5035 -3.6091  0.3808
  507SOL    HW2 1521   0.152   2.977   1.439  0.4674 -0.6847  2.3480
  508SOL     OW 1522   1.395   0.709   1.343 -0.6389 -1.1074  0.1228
  508SOL    HW1 1523   1.367   0.730   1.246  1.7405  1.8862 -0.5489
  508SOL    HW2 1524   1.371   0.612   1.376 -0.5686 -4.1118  2.0242
  509SOL     OW 1525   1.338   2.314   1.401 -0.4082  0.1220  0.6169
  509SOL    HW1 1526   1.378   2.375   1.473  2.9080  1.6671  2.8833
  509SOL    HW2 1527   1.353   2.352   1.307  0.6243 -1.9984 -2.2488
  510SOL     OW 1528   2.894   1.431   3.063 -0.3097  0.1621 -0.0764
  510SOL    HW1 1529   2.815   1.416   2.998 -0.1756 -1.3990  1.0819
  510SOL    HW2 1530   2.883   1.374   0.025 -1.8224 -0.3300 -1.3857
  511SOL     OW 1531   0.575   1.316   1.266  0.3656  0.5421  0.1402
  511SOL    HW1 1532   0.658   1.253   1.287  0.4876 -1.2384  0.1791
  511SOL    HW2 1533   0.600   1.401   1.216  0.3745  0.0946  1.0054
  512SOL     OW 1534   3.117   2.396   0.435  0.2704 -0.0549 -0.9256
  512SOL    HW1 1535   0.027   2.311   0.483 -1.7823 -0.8215  0.1349
  512SOL    HW2 1536   0.015   2.382   0.338 -2.3330 -2.9100  0.5793
  513SOL     OW 1537   0.734   1.667   2.845  0.5543 -0.3778  0.8518
  513SOL    HW1 1538   0.826   1.633   2.873  0.4529 -1.7637  0.3140
  513SOL    HW2 1539   0.727   1.664   2.741 -0.0071  0.3202 -1.3475
  514SOL     OW 1540   0.115   2.285   2.743 -0.0170 -0.1562 -0.3846
  514SOL    HW1 1541   0.217   2.276   2.762  1.2930 -2.3899  0.8579
  514SOL    HW2 1542   0.086   2.376   2.774  0.6666 -1.0402 -1.0320
  515SOL     OW 1543   1.531   1.248   1.860  0.1681 -0.2113 -0.0113
  515SOL    HW1 1544   1.585   1.337   1.847  0.0188  2.5906  3.3995
  515SOL    HW2 1545   1.545   1.173   1.795  0.4417 -0.3362 -1.4482
  516SOL     OW 1546   1.845   2.510   0.161  0.3308 -0.0038 -0.0400
  516SOL    HW1 1547   1.788   2.525   0.078 -0.0137 -1.7883  0.9960
  516SOL    HW2 1548   1.880   2.415   0.169 -2.0134  3.7969 -0.5826
  517SOL     OW 1549   1.008   1.661   0.585  0.6289 -0.0524 -0.5817
  517SOL    HW1 1550   1.050   1.716   0.509 -2.1571  0.9188  0.9497
  517SOL    HW2 1551   1.057   1.573   0.599 -1.9439 -0.4015  0.1805
  518SOL     OW 1552   2.229   2.208   1.833 -0.2590  0.2693  0.4351
  518SOL    HW1 1553   2.255   2.306   1.837 -3.2582 -1.5867  1.3774
  518SOL    HW2 1554   2.129   2.200   1.854  1.5288 -1.6521 -0.3856
  519SOL     OW 1555   2.088   2.431   0.963  0.6011 -0.6889  0.1022
  519SOL    HW1 1556   2.138   2.430   1.052 -0.7949 -0.4787  1.1139
  519SOL    HW2 1557   2.047   2.524   0.946  0.0291 -0.5814  2.5852
  520SOL     OW 1558   2.769   2.452   2.545  0.2888 -0.1294 -0.0264
  520SOL    HW1 1559   2.696   2.468   2.472  0.9436  1.8790 -0.9200
  520SOL    HW2 1560   2.808   2.359   2.537 -1.9602  1.3121  0.8825
  521SOL     OW 1561   2.865   1.117   2.422 -0.8949 -0.1750 -0.1337
  521SOL    HW1 1562   2.920   1.192   2.380  0.5314 -0.5442  2.4690
  521SOL    HW2 1563   2.778   1.106   2.373  1.4346 -1.6188  0.2934
  522SOL     OW 1564   0.718   0.392   2.097  0.5394  0.3483  0.0864
  522SOL    HW1 1565   0.692   0.350   2.007  2.3845  0.4938  0.3492
  522SOL    HW2 1566   0.641   0.445   2.142  0.3541  0.5197  1.8054
  523SOL     OW 1567   0.538   1.902   1.169  0.0170  0.0903  0.7131
  523SOL    HW1 1568   0.498   1.991   1.196  2.5049  1.4889 -1.0832
  523SOL    HW2 1569   0.493   1.861   1.088  1.3079 -2.2491 -0.8943
  524SOL     OW 1570   1.733   2.855   0.415  0.4223  0.0469 -0.1878
  524SOL    HW1 1571   1.787   2.931   0.376  0.6397  1.9597 -0.0608
  524SOL    HW2 1572   1.788   2.770   0.426  2.0070 -2.2635  0.6948
  525SOL     OW 1573   2.100   0.976   1.348 -0.4721  0.2915 -0.3177
  525SOL    HW1 1574   2.142   0.903   1.286  3.0426 -1.3579 -0.0301
  525SOL    HW2 1575   2.079   1.060   1.292 -1.4083  1.7319 -2.6630
  526SOL     OW 1576   0.892   2.606   0.674 -0.6289  0.7390 -0.1129
  526SOL    HW1 1577   0.887   2.704   0.691 -0.9643 -0.6885 -0.4420
  526SOL    HW2 1578   0.815   2.587   0.608  2.5241  1.8751 -2.0038
  527SOL     OW 1579   2.415   2.630   0.692 -0.0595 -0.0286 -0.5591
  527SOL    HW1 1580   2.512   2.663   0.687  2.5872  2.7298  0.9666
  527SOL    HW2 1581   2.374   2.595   0.603 -2.2648 -4.7085 -2.1998
  528SOL     OW 1582   1.676   0.526   0.178 -0.5176 -0.3698 -0.9625
  528SOL    HW1 1583   1.629   0.550   0.268 -0.4905 -1.8425  1.7409
  528SOL    HW2 1584   1.643   0.444   0.135 -2.0888  2.2745  0.1633
  529SOL     OW 1585   1.569   1.579   2.779 -0.2875  0.1542 -0.1637
  529SOL    HW1 1586   1.500   1.560   2.852  0.5318  1.5991  1.7757
  529SOL    HW2 1587   1.604   1.497   2.730 -0.1166 -2.2569 -1.5763
  530SOL     OW 1588   2.420   0.373   0.049  0.5761  0.6330 -0.9133
  530SOL    HW1 1589   2.491   0.444   0.045  0.5222  0.6021  2.2862
  530SOL    HW2 1590   2.455   0.293   0.102  1.5659  0.0658  2.1092
  531SOL     OW 1591   1.519   1.044   2.848 -0.4699  0.3921  0.4611
  531SOL    HW1 1592   1.614   1.010   2.834  0.9412  0.8457 -1.6489
  531SOL    HW2 1593   1.479   0.994   2.928 -1.5767  2.9424 -1.7721
  532SOL     OW 1594   1.540   0.622   0.420  0.3476  0.4315  0.0488
  532SOL    HW1 1595   1.550   0.566   0.505 -0.8373 -0.8094  2.3504
  532SOL    HW2 1596   1.564   0.714   0.445  1.2945 -0.7318  0.8262
  533SOL     OW 1597   0.649   1.008   2.326 -0.0647 -0.4920 -0.2702
  533SOL    HW1 1598   0.727   1.002   2.260  1.3951  0.2134 -1.5485
  533SOL    HW2 1599   0.688   0.998   2.419 -0.5430 -1.0247 -1.4925
  534SOL     OW 1600   1.593   0.043   2.367 -0.3662 -0.1104  0.6015
  534SOL    HW1 1601   1.607   3.105   2.449  1.5849  0.2979 -0.7022
  534SOL    HW2 1602   1.660   0.122   2.368  1.9225 -0.9184 -1.1535
  535SOL     OW 1603   0.236   3.014   2.860  0.1929 -0.3024  0.1645
  535SOL    HW1 1604   0.209   2.998   2.762 -3.2737  1.3451 -2.8433
  535SOL    HW2 1605   0.220   3.115   2.873 -0.6829  0.7190 -2.8619
  536SOL     OW 1606   0.416   0.310   0.760 -0.2903  0.1289 -0.1254
  536SOL    HW1 1607   0.439   0.343   0.668 -1.7995 -0.2091 -1.9204
  536SOL    HW2 1608   0.448   0.374   0.834 -0.9830  0.8869 -0.8574
  537SOL     OW 1609   1.291   0.495   0.328  0.3946 -0.0897 -0.2219
  537SOL    HW1 1610   1.369   0.555   0.310  0.1636 -1.5467  3.0977
  537SOL    HW2 1611   1.230   0.529   0.406 -1.1158  0.0939 -0.9094
  538SOL     OW 1612   2.877   2.195   3.048  0.5042 -0.1495 -0.0094
  538SOL    HW1 1613   2.798   2.255   3.014 -0.9151  0.8976 -2.3692
  538SOL    HW2 1614   2.843   2.108   3.087 -1.4873  1.6540 -2.3798
  539SOL     OW 1615   2.018   1.886   0.175 -0.4281  0.2046  0.5491
  539SOL    HW1 1616   1.937   1.931   0.211 -0.4955  1.8197  0.1300
  539SOL    HW2 1617   2.015   1.853   0.077  1.7990  3.6299  1.9434
  540SOL     OW 1618   0.709   2.652   1.407 -0.4326 -0.1004 -0.1407
  540SOL    HW1 1619   0.691   2.572   1.470 -2.8515 -2.1995  0.0163
  540SOL    HW2 1620   0.689   2.634   1.311  0.5528  1.7994 -0.2890
  541SOL     OW 1621   2.087   0.157   2.116  0.1985 -0.0478 -0.7383
  541SOL    HW1 1622   2.188   0.156   2.109  2.2965  0.3818  1.0906
  541SOL    HW2 1623   2.045   0.185   2.026  0.3332  1.5602  1.3735
  542SOL     OW 1624   0.271   0.689   2.590  0.0253 -0.1690  0.1635
  542SOL    HW1 1625   0.179   0.683   2.544 -1.2302  0.5329 -2.6270
  542SOL    HW2 1626   0.274   0.772   2.645 -2.0448 -0.3619 -3.5187
  543SOL     OW 1627   0.436   0.836   1.379  0.0267  0.1079  0.6683
  543SOL    HW1 1628   0.528   0.872   1.367 -0.2471 -1.1011 -2.6648
  543SOL    HW2 1629   0.367   0.910   1.370  1.8622  2.0792 -1.2105
  544SOL     OW 1630   2.588   0.754   1.005  0.1430  0.0660  0.2506
  544SOL    HW1 1631   2.683   0.732   1.025 -1.1586  1.2509 -0.6396
  544SOL    HW2 1632   2.575   0.790   0.910  1.2370 -0.1565 -0.1158
  545SOL     OW 1633   1.534   2.230   0.643  0.1718 -0.0900  0.0969
  545SOL    HW1 1634   1.533   2.130   0.611  1.8091  0.1308 -0.4198
  545SOL    HW2 1635   1.469   2.242   0.722 -2.0907 -0.0726 -0.1484
  546SOL     OW 1636   2.211   2.693   1.757 -0.1581  0.2859  0.3449
  546SOL    HW1 1637   2.293   2.714   1.703 -2.4196 -0.1205  3.3008
  546SOL    HW2 1638   2.129   2.736   1.709  0.7929 -0.9976 -1.1375
  547SOL     OW 1639   0.509   3.010   2.594 -0.4811 -0.2502 -0.1925
  547SOL    HW1 1640   0.458   2.981   2.673 -0.4056  1.3342 -2.0869
  547SOL    HW2 1641   0.559   2.931   2.560 -2.5588 -0.2078  1.4707
  548SOL     OW 1642   1.883   0.927   0.101 -0.6340  0.2739 -0.1578
  548SOL    HW1 1643   1.940   0.933   0.016  2.4638 -3.3993 -2.5287
  548SOL    HW2 1644   1.798   0.876   0.080  0.4977  1.7979  0.5122
  549SOL     OW 1645   3.075   0.947   0.365 -0.2387  0.4742 -0.3473
  549SOL    HW1 1646   0.031   0.894   0.411  1.9355  0.0951  1.7286
  549SOL    HW2 1647   3.030   1.003   0.437 -0.8760 -1.7019  1.4242
  550SOL     OW 1648   1.993   2.034   0.687  0.4846 -0.4106  0.2095
  550SOL    HW1 1649   1.916   1.992   0.634 -2.0810  1.5220  3.3712
  550SOL    HW2 1650   2.026   1.979   0.763 -1.7995 -0.2045 -3.2386
  551SOL     OW 1651   1.341   0.234   0.829  0.1035 -0.3780 -0.0008
  551SOL    HW1 1652   1.397   0.233   0.918  2.9540  0.2075 -1.9115
  551SOL    HW2 1653   1.272   0.310   0.821 -2.2461  1.4494  1.1767
  552SOL     OW 1654   3.082   2.911   2.296  0.2518  0.4246  0.1425
  552SOL    HW1 1655   0.050   2.960   2.310  0.2059  2.4438 -0.0437
  552SOL    HW2 1656   3.101   2.810   2.294 -0.0286  1.2111 -2.2503
  553SOL     OW 1657   0.230   3.001   2.363 -0.3040  0.0284  0.1152
  553SOL    HW1 1658   0.249   2.938   2.435 -2.4633  1.8965  0.9264
  553SOL    HW2 1659   0.306   2.999   2.299 -0.3551  1.1964  0.5937
  554SOL     OW 1660   0.601   2.986   1.322 -0.7014  0.4323  0.2100
  554SOL    HW1 1661   0.530   3.047   1.295  2.5779 -4.0108 -1.1767
  554SOL    HW2 1662   0.683   3.028   1.362  1.9098  0.6887  2.4656
  555SOL     OW 1663   2.609   2.508   2.327 -0.1388 -0.0021 -0.2192
  555SOL    HW1 1664   2.536   2.569   2.357  0.5594 -0.6795 -0.9332
  555SOL    HW2 1665   2.578   2.422   2.288 -0.4364  1.4209  0.1413
  556SOL     OW 1666   1.323   0.344   2.745  0.6610 -0.0949 -0.1598
  556SOL    HW1 1667   1.246   0.391   2.794 -0.1289  0.4280  1.3160
  556SOL    HW2 1668   1.284   0.272   2.681 -1.1459 -0.4543 -2.1794
  557SOL     OW 1669   0.538   1.577   2.409 -0.3649  0.5763 -0.1097
  557SOL    HW1 1670   0.457   1.602   2.466  0.6817 -1.5039  1.3489
  557SOL    HW2 1671   0.518   1.487   2.367 -0.9522 -0.3585  1.3143
  558SOL     OW 1672   2.291   0.901   2.850  0.1364 -0.0811 -0.2359
  558SOL    HW1 1673   2.372   0.962   2.843  0.4420 -0.8156 -0.4424
  558SOL    HW2 1674   2.234   0.913   2.764  2.2705 -0.3139  2.2850
  559SOL     OW 1675   2.368   2.046   2.233  0.5334  0.2712 -0.1875
  559SOL    HW1 1676   2.442   2.043   2.303 -2.9129  2.1232 -0.5009
  559SOL    HW2 1677   2.283   2.020   2.279  2.3356  1.6707 -1.0598
  560SOL     OW 1678   2.554   0.737   2.177  0.1291  0.2283  0.2581
  560SOL    HW1 1679   2.510   0.654   2.206  0.8954  2.6179 -0.9898
  560SOL    HW2 1680   2.547   0.743   2.077  1.2743 -0.6698 -2.1732
  561SOL     OW 1681   0.054   0.168   2.918  0.4008 -0.2149 -0.0925
  561SOL    HW1 1682   0.062   0.239   2.845 -0.4417 -1.9362 -2.2012
  561SOL    HW2 1683   3.093   0.105   2.913  1.0504  1.5238 -1.0711
  562SOL     OW 1684   0.965   1.005   1.562 -0.0988  0.3747  0.0614
  562SOL    HW1 1685   0.985   0.911   1.600  2.3529 -0.2164 -0.7656
  562SOL    HW2 1686   0.882   1.049   1.603 -0.7086  0.2779 -0.9305
  563SOL     OW 1687   1.670   0.103   2.808 -0.6185 -0.3450  0.3200
  563SOL    HW1 1688   1.630   0.025   2.863 -2.5110  1.0869 -1.4170
  563SOL    HW2 1689   1.734   0.078   2.729 -2.5500 -1.4451 -1.0664
  564SOL     OW 1690   3.048   2.190   1.081  0.1822 -0.1988 -0.2751
  564SOL    HW1 1691   3.072   2.136   1.162  0.0734 -1.1566  0.6300
  564SOL    HW2 1692   2.964   2.152   1.039 -0.4587  1.4791  1.5563
  565SOL     OW 1693   0.642   2.196   1.839 -0.3808  0.0646 -0.0335
  565SOL    HW1 1694   0.549   2.215   1.800 -3.2321 -0.0519  0.5468
  565SOL    HW2 1695   0.659   2.098   1.849 -1.7792  1.2375  3.2023
  566SOL     OW 1696   1.307   2.480   2.084  0.1398  0.0827  0.3624
  566SOL    HW1 1697   1.231   2.527   2.139  1.0431 -1.7001 -0.6327
  566SOL    HW2 1698   1.374   2.447   2.155 -1.0071  1.0458  0.9892
  567SOL     OW 1699   2.308   2.464   1.169  0.0895  0.5256 -0.8433
  567SOL    HW1 1700   2.271   2.517   1.250 -2.6612  1.7429  4.0142
  567SOL    HW2 1701   2.350   2.524   1.098  1.2375 -0.7462 -2.6157
  568SOL     OW 1702   2.008   0.782   0.456 -0.3328  0.1536 -0.6179
  568SOL    HW1 1703   2.015   0.704   0.522 -1.0879  1.7675 -0.4642
  568SOL    HW2 1704   2.079   0.763   0.380 -0.8192  1.4802 -1.9326
  569SOL     OW 1705   2.842   1.794   2.674 -0.2717  0.3026 -0.1803
  569SOL    HW1 1706   2.878   1.834   2.758 -0.2863 -0.0836 -5.1561
  569SOL    HW2 1707   2.848   1.692   2.679  0.0527 -1.8794 -2.4537
  570SOL     OW 1708   2.853   3.083   1.289  0.0620  0.1597 -0.2046
  570SOL    HW1 1709   2.925   0.009   1.347  0.9635 -0.4357 -0.9776
  570SOL    HW2 1710   2.819   0.031   1.215 -0.8472  1.9729 -2.1863
  571SOL     OW 1711   2.942   0.438   1.726  0.0830 -0.0391  0.3972
  571SOL    HW1 1712   2.995   0.443   1.811 -0.3193 -0.6116 -0.7788
  571SOL    HW2 1713   2.871   0.510   1.718 -2.5975  1.7797 -3.2753
  572SOL     OW 1714   3.093   2.507   1.120 -0.1503  0.0101 -0.0266
  572SOL    HW1 1715   3.052   2.434   1.068  0.5945 -0.5258  1.7315
  572SOL    HW2 1716   0.028   2.454   1.194  3.3175 -3.3617  1.1541
  573SOL     OW 1717   1.002   0.636   0.089  0.7080  0.2399  0.7844
  573SOL    HW1 1718   0.930   0.706   0.114 -3.2754  0.3156 -2.2388
  573SOL    HW2 1719   0.968   0.543   0.126 -0.2534 -2.1839  1.0329
  574SOL     OW 1720   2.736   2.788   2.940  0.4479  0.0640  0.4365
  574SOL    HW1 1721   2.714   2.720   2.867 -1.0190  2.0134 -0.9112
  574SOL    HW2 1722   2.682   2.870   2.925 -0.6311 -0.2538  0.5522
  575SOL     OW 1723   1.453   2.457   1.178  0.3256  0.1776 -0.4480
  575SOL    HW1 1724   1.366   2.496   1.141 -4.0938 -1.2489 -0.0349
  575SOL    HW2 1725   1.532   2.495   1.123 -0.7526  2.1291  0.7336
  576SOL     OW 1726   0.983   2.801   1.119  0.3236 -0.3929  0.2473
  576SOL    HW1 1727   0.981   2.783   1.219 -0.0415 -0.3445  1.8707
  576SOL    HW2 1728   0.894   2.842   1.085 -0.5742  1.1987  1.1489
  577SOL     OW 1729   2.390   1.323   0.827  0.0961  0.4908  0.1220
  577SOL    HW1 1730   2.348   1.286   0.738 -2.2126 -2.2185 -3.4542
  577SOL    HW2 1731   2.476   1.270   0.846 -1.6064 -0.0055  3.1395
  578SOL     OW 1732   1.480   0.317   0.612 -0.1248 -0.1327 -0.7252
  578SOL    HW1 1733   1.474   0.249   0.540  0.1316  0.2124  2.8391
  578SOL    HW2 1734   1.434   0.272   0.691 -1.5852  0.8156 -0.4005
  579SOL     OW 1735   2.377   0.643   2.894 -0.0925  0.5981  0.3361
  579SOL    HW1 1736   2.409   0.588   2.815  1.1049  1.0718  1.3792
  579SOL    HW2 1737   2.333   0.727   2.860  1.5781 -0.6343  0.8621
  580SOL     OW 1738   1.836   0.815   1.906  0.1098  0.6994 -0.0567
  580SOL    HW1 1739   1.916   0.867   1.876 -1.2469 -0.4548  2.3359
  580SOL    HW2 1740   1.832   0.814   2.008  0.6616  1.7085  0.5585
  581SOL     OW 1741   0.421   0.866   1.037  1.1501  0.1704  0.1524
  581SOL    HW1 1742   0.438   0.966   1.050  1.5101  0.8228  3.2130
  581SOL    HW2 1743   0.490   0.811   1.083 -0.6694 -0.6320 -0.0368
  582SOL     OW 1744   2.659   0.183   1.788  0.3055  0.0495  0.2404
  582SOL    HW1 1745   2.674   0.147   1.884 -0.0521 -1.2983  2.1816
  582SOL    HW2 1746   2.637   0.283   1.792 -1.7872  1.7157 -0.6478
  583SOL     OW 1747   0.087   0.378   1.941 -0.5542  0.4904  0.0992
  583SOL    HW1 1748   0.067   0.278   1.959 -0.4876  0.7283  2.5380
  583SOL    HW2 1749   0.178   0.394   1.896  0.6243  0.1795 -3.3116
  584SOL     OW 1750   1.228   2.152   2.978  0.1318  0.4847  0.2508
  584SOL    HW1 1751   1.218   2.160   3.078  0.6590  0.5811  0.8536
  584SOL    HW2 1752   1.282   2.064   2.963  2.8115 -2.2123 -1.9817
  585SOL     OW 1753   0.060   2.769   2.885 -0.7244  0.6252 -0.3970
  585SOL    HW1 1754   0.132   2.782   2.961 -0.4345  0.4316  1.9745
  585SOL    HW2 1755   0.042   2.856   2.837  1.3710 -1.7051  0.7427
  586SOL     OW 1756   1.916   1.771   2.469  0.6915  0.5741  0.2354
  586SOL    HW1 1757   1.871   1.706   2.402  0.5476 -1.3937  0.2600
  586SOL    HW2 1758   2.017   1.768   2.451  1.5908 -2.3164 -0.6177
  587SOL     OW 1759   2.428   2.428   0.212 -0.2095 -0.3596 -0.0647
  587SOL    HW1 1760   2.460   2.376   0.130  2.2466  2.0755 -1.3565
  587SOL    HW2 1761   2.375   2.374   0.277  0.1585 -1.0795 -1.7385
  588SOL     OW 1762   2.711   0.415   0.984  0.2140 -0.3568  0.4219
  588SOL    HW1 1763   2.683   0.487   1.046  0.8510 -0.5591 -2.0838
  588SOL    HW2 1764   2.634   0.368   0.939 -0.7722 -0.4178  0.1711
  589SOL     OW 1765   0.506   0.603   0.652 -0.1012  0.8419 -0.7164
  589SOL    HW1 1766   0.457   0.688   0.621  3.8274  0.2675 -0.7210
  589SOL    HW2 1767   0.502   0.528   0.584  1.7089 -3.0153  2.2672
  590SOL     OW 1768   2.249   2.232   0.271 -0.0049 -0.5635 -0.6666
  590SOL    HW1 1769   2.221   2.208   0.364  1.7111  2.3150  0.0461
  590SOL    HW2 1770   2.280   2.147   0.223  1.8739  0.9497 -2.0556
  591SOL     OW 1771   0.375   2.115   1.273 -0.4321  0.0823 -0.7142
  591SOL    HW1 1772   0.375   2.064   1.361 -0.9984 -0.2400  1.1502
  591SOL    HW2 1773   0.348   2.210   1.300 -1.6186 -3.7820 -0.0932
  592SOL     OW 1774   1.022   0.523   1.185 -0.6873 -0.0821 -0.0930
  592SOL    HW1 1775   1.017   0.446   1.250  1.1171 -0.4243 -3.9535
  592SOL    HW2 1776   0.975   0.490   1.103  3.6803  0.5123  2.1112
  593SOL     OW 1777   0.968   1.371   1.287 -0.4254  0.0578  0.4209
  593SOL    HW1 1778   1.034   1.332   1.358  0.2626 -1.8587  0.7653
  593SOL    HW2 1779   0.916   1.445   1.329 -0.3089  1.7217  1.0542
  594SOL     OW 1780   0.965   2.200   0.531  0.2732 -0.3144 -0.1023
  594SOL    HW1 1781   1.027   2.121   0.507  0.6726  0.0404 -1.0703
  594SOL    HW2 1782   1.023   2.278   0.559  2.2745 -0.0834  0.3134
  595SOL     OW 1783   1.557   0.386   1.461  0.0131  0.4024 -0.2015
  595SOL    HW1 1784   1.609   0.450   1.518 -1.7248 -1.3499  1.0359
  595SOL    HW2 1785   1.471   0.425   1.424  1.7112  1.5218 -1.1391
  596SOL     OW 1786   3.094   1.056   1.318  0.8146 -0.5917  0.3339
  596SOL    HW1 1787   3.073   1.153   1.280  0.5165  2.1611  1.3443
  596SOL    HW2 1788   3.013   1.022   1.368  2.3440 -0.6985  1.0173
  597SOL     OW 1789   0.368   2.592   2.253 -0.1618 -0.8536 -0.0369
  597SOL    HW1 1790   0.309   2.595   2.335  3.0648  0.2033 -0.9028
  597SOL    HW2 1791   0.450   2.537   2.265 -0.2592  0.6102 -0.1532
  598SOL     OW 1792   2.593   1.914   2.028  0.2854  0.0038  0.1276
  598SOL    HW1 1793   2.517   1.938   1.968 -4.0441  0.0139 -2.5014
  598SOL    HW2 1794   2.561   1.832   2.082 -1.5089 -0.7442 -1.6351
  599SOL     OW 1795   0.941   0.066   2.994 -0.2565 -0.1277 -0.4904
  599SOL    HW1 1796   0.888   0.147   2.976 -0.1113 -1.2482  0.4750
  599SOL    HW2 1797   0.889   3.100   2.965 -0.1056 -0.5430  1.5800
  600SOL     OW 1798   3.016   2.125   2.733 -0.0460  0.0800  0.3508
  600SOL    HW1 1799   3.091   2.194   2.735  1.5013 -0.0799  1.5114
  600SOL    HW2 1800   3.031   2.055   2.803 -0.4434  0.9452 -0.7822
  601SOL     OW 1801   0.738   0.805   1.439  0.5840 -0.6828  0.0707
  601SOL    HW1 1802   0.710   0.708   1.442  0.5417  0.6320 -0.1358
  601SOL    HW2 1803   0.750   0.850   1.529  0.5612  0.7138  0.3735
  602SOL     OW 1804   0.660   2.844   0.749  0.5585 -0.2742 -0.2253
  602SOL    HW1 1805   0.751   2.895   0.737  3.0866  0.0519  0.3016
  602SOL    HW2 1806   0.666   2.781   0.831 -0.8391  3.4711  1.8635
  603SOL     OW 1807   0.368   0.458   2.725  0.0374 -0.3941  0.0933
  603SOL    HW1 1808   0.395   0.526   2.652 -1.0045 -0.3201 -3.0957
  603SOL    HW2 1809   0.310   0.507   2.797 -0.1602  1.2175 -1.0373
  604SOL     OW 1810   0.693   2.822   1.635 -0.2805  0.5757 -0.1615
  604SOL    HW1 1811   0.707   2.923   1.633  0.6617  0.5177 -0.4901
  604SOL    HW2 1812   0.747   2.777   1.562  0.5215  1.2408 -0.2088
  605SOL     OW 1813   1.398   0.822   2.075 -0.1733  0.3529 -0.0534
  605SOL    HW1 1814   1.336   0.748   2.036 -0.3296 -0.7683  0.1962
  605SOL    HW2 1815   1.360   0.915   2.056 -0.2165 -0.4835  3.0680
  606SOL     OW 1816   2.312   2.753   2.798  0.0498  0.3923 -0.0631
  606SOL    HW1 1817   2.314   2.759   2.899 -0.3955 -1.2030  2.7149
  606SOL    HW2 1818   2.408   2.745   2.761  2.4351 -1.9113 -0.7569
  607SOL     OW 1819   0.688   0.322   1.152 -0.3958  0.0008  0.7301
  607SOL    HW1 1820   0.617   0.379   1.105 -0.6994 -2.0721  0.4747
  607SOL    HW2 1821   0.779   0.345   1.113  0.9242  0.0381  1.6857
  608SOL     OW 1822   0.336   1.668   2.522 -0.4882 -0.3237  0.4773
  608SOL    HW1 1823   0.314   1.652   2.618  2.7360  1.2460 -1.7927
  608SOL    HW2 1824   0.253   1.703   2.472 -0.5648 -2.2523  0.3762
  609SOL     OW 1825   1.565   1.502   0.581  0.1738 -0.2530 -0.0996
  609SOL    HW1 1826   1.545   1.524   0.479  3.1273  0.8401 -1.4323
  609SOL    HW2 1827   1.541   1.406   0.607 -2.2092  0.7600  0.5117
  610SOL     OW 1828   3.031   0.235   0.822  0.1585 -0.0736 -0.0360
  610SOL    HW1 1829   3.116   0.202   0.782 -0.7439 -0.5015 -1.4308
  610SOL    HW2 1830   3.059   0.288   0.907  3.0345 -1.9941  0.7385
  611SOL     OW 1831   1.469   1.113   0.796 -0.3064 -0.1056  0.1452
  611SOL    HW1 1832   1.568   1.110   0.814 -3.8992  3.0792 -1.4628
  611SOL    HW2 1833   1.465   1.168   0.708  0.4804  2.2124 -3.2287
  612SOL     OW 1834   2.090   1.627   0.170 -0.1313  0.2672  0.6568
  612SOL    HW1 1835   2.054   1.584   0.256  0.4810  1.1538  1.1647
  612SOL    HW2 1836   2.067   1.727   0.171 -0.0350  0.7079  1.0736
  613SOL     OW 1837   1.663   1.121   0.437 -0.0794 -0.1335 -0.1021
  613SOL    HW1 1838   1.740   1.104   0.502 -0.8327 -1.8192  0.4314
  613SOL    HW2 1839   1.704   1.141   0.346  0.0786 -0.3156 -1.3825
  614SOL     OW 1840   2.839   0.141   2.274  0.0101 -0.5109 -0.5705
  614SOL    HW1 1841   2.813   0.059   2.218 -3.4715 -2.2360 -0.9535
  614SOL    HW2 1842   2.846   0.221   2.212 -3.0241 -1.4625 -0.8542
  615SOL     OW 1843   0.815   1.994   0.903 -0.3609  0.3497  0.3854
  615SOL    HW1 1844   0.838   1.894   0.889 -1.1402 -3.4442 -2.1117
  615SOL    HW2 1845   0.807   2.048   0.819  0.6287 -0.8774  3.9531
  616SOL     OW 1846   1.649   1.322   2.728 -0.2908 -0.0480  0.0827
  616SOL    HW1 1847   1.551   1.301   2.702 -1.9561  2.0291 -3.1759
  616SOL    HW2 1848   1.694   1.260   2.798  2.9604 -1.2257  2.9019
  617SOL     OW 1849   1.313   0.474   3.074 -0.4289  0.9430  0.7622
  617SOL    HW1 1850   1.223   0.434   3.065  0.0493  2.3021  1.3477
  617SOL    HW2 1851   1.386   0.425   3.021 -1.6239  0.9981 -0.0469
  618SOL     OW 1852   2.103   2.339   2.381  0.1743  0.3531 -0.2438
  618SOL    HW1 1853   2.095   2.383   2.290  2.7864  2.1060  0.2479
  618SOL    HW2 1854   2.021   2.367   2.432  2.2267 -2.0161  1.8980
  619SOL     OW 1855   2.236   2.065   1.069  0.1768 -0.5430 -0.1692
  619SOL    HW1 1856   2.143   2.107   1.061  4.2771 -0.0783 -3.2835
  619SOL    HW2 1857   2.242   1.972   1.026  0.6669  1.3258  2.4240
  620SOL     OW 1858   2.155   2.830   2.023 -0.1546  0.4887  0.4634
  620SOL    HW1 1859   2.196   2.834   1.935 -1.5678  2.9902  2.8897
  620SOL    HW2 1860   2.161   2.736   2.059  0.9692  0.4446 -2.3662
  621SOL     OW 1861   2.975   1.510   0.654  0.0860 -0.0120 -0.0902
  621SOL    HW1 1862   3.058   1.484   0.707 -2.2615 -1.7990 -1.0298
  621SOL    HW2 1863   2.979   1.607   0.628 -1.8349 -1.7287 -2.0639
  622SOL     OW 1864   1.237   1.689   2.923 -0.5569 -0.0868 -0.1416
  622SOL    HW1 1865   1.267   1.694   2.825  0.3370 -2.6539  1.2903
  622SOL    HW2 1866   1.236   1.782   2.965 -0.4657 -0.6487  0.4405
  623SOL     OW 1867   2.857   2.483   2.184 -0.3570  0.5554  0.2716
  623SOL    HW1 1868   2.769   2.508   2.229 -0.2397  2.2847 -1.7368
  623SOL    HW2 1869   2.938   2.478   2.246  2.4985 -2.1549  1.2707
  624SOL     OW 1870   0.758   2.273   0.377  0.1933 -0.0050 -0.1760
  624SOL    HW1 1871   0.838   2.254   0.440  2.0445 -0.7375 -2.4913
  624SOL    HW2 1872   0.692   2.196   0.387 -0.1363  0.6122  1.5431
  625SOL     OW 1873   0.384   1.889   2.063 -0.5183 -0.0843 -0.0450
  625SOL    HW1 1874   0.332   1.973   2.078  4.0274  1.0428  2.3284
  625SOL    HW2 1875   0.331   1.805   2.061 -0.2193  1.0511  1.3200
  626SOL     OW 1876   0.806   2.788   3.032 -0.5566 -0.0245  0.4647
  626SOL    HW1 1877   0.883   2.812   3.101  1.9806 -0.0846  1.7515
  626SOL    HW2 1878   0.727   2.748   3.080 -0.1876  1.6170  1.6619
  627SOL     OW 1879   1.592   1.537   0.031  0.1443 -0.6988  0.2689
  627SOL    HW1 1880   1.531   1.513   3.069  0.2096 -1.5797 -0.1291
  627SOL    HW2 1881   1.610   1.643   0.036 -0.6593  3.1723 -0.0301
  628SOL     OW 1882   1.405   2.244   0.915  0.1711  0.3356 -0.2120
  628SOL    HW1 1883   1.341   2.201   0.984 -2.7331  3.0357 -1.1579
  628SOL    HW2 1884   1.494   2.270   0.952  0.5285  2.0817 -0.6334
  629SOL     OW 1885   0.299   0.259   1.633  0.0359 -0.0467  0.5122
  629SOL    HW1 1886   0.293   0.165   1.664  0.2427 -0.7478  1.2874
  629SOL    HW2 1887   0.285   0.316   1.715  2.2727 -0.4414 -0.5441
  630SOL     OW 1888   2.429   0.873   1.526  0.5167  0.0930 -0.7482
  630SOL    HW1 1889   2.333   0.841   1.514 -0.4330  1.1534 -0.4170
  630SOL    HW2 1890   2.487   0.813   1.469  0.3480  0.0489 -0.5483
  631SOL     OW 1891   1.327   0.710   1.052  0.1621 -0.2277  0.3242
  631SOL    HW1 1892   1.388   0.791   1.050 -1.5603 -0.6584 -0.3005
  631SOL    HW2 1893   1.376   0.625   1.030 -0.5779 -2.1908  1.8388
  632SOL     OW 1894   2.973   1.036   2.111 -0.1216 -0.2856  0.4461
  632SOL    HW1 1895   3.036   1.113   2.123 -0.9644  0.7873 -1.8202
  632SOL    HW2 1896   2.982   0.966   2.182  1.3852 -0.6358 -0.3722
  633SOL     OW 1897   1.395   0.875   3.022  0.2465 -0.4169 -0.0784
  633SOL    HW1 1898   1.327   0.862   3.100 -0.8334 -0.7693  1.5565
  633SOL    HW2 1899   1.369   0.816   2.945 -2.7991  1.0773  0.1070
  634SOL     OW 1900   0.607   2.672   0.072  0.4166 -0.4068  0.3022
  634SOL    HW1 1901   0.597   2.722   0.161 -0.8164 -0.9585  0.5747
  634SOL    HW2 1902   0.516   2.651   0.027 -3.2101  0.9523 -0.8424
  635SOL     OW 1903   3.046   1.355   1.469 -0.4583  0.1506  0.0862
  635SOL    HW1 1904   3.042   1.452   1.495 -0.2808 -1.2966 -0.5755
  635SOL    HW2 1905   3.040   1.341   1.372 -1.5492  0.9495  1.1660
  636SOL     OW 1906   0.161   1.711   0.166  0.5121  0.2241  0.1322
  636SOL    HW1 1907   0.110   1.651   0.226 -3.4228 -1.1122 -2.1433
  636SOL    HW2 1908   0.132   1.716   0.069  0.4544 -1.2881 -0.6991
  637SOL     OW 1909   0.128   2.612   0.509  0.0157 -0.4910 -0.0659
  637SOL    HW1 1910   0.075   2.695   0.537 -2.6544  1.1332 -0.7308
  637SOL    HW2 1911   0.070   2.536   0.479  2.6932  0.5048  1.4254
  638SOL     OW 1912   3.102   2.945   0.105  0.2574 -0.0842  0.9214
  638SOL    HW1 1913   3.073   2.852   0.107  0.7483  1.2071 -0.0893
  638SOL    HW2 1914   0.062   2.948   0.043  0.7835 -0.1219  2.1021
  639SOL     OW 1915   1.522   0.299   2.919  0.1621  0.6106  0.2997
  639SOL    HW1 1916   1.456   0.333   2.849 -2.7164  1.0277  1.4495
  639SOL    HW2 1917   1.585   0.233   2.873  0.3926  1.4264 -0.0963
  640SOL     OW 1918   2.311   1.889   1.501  0.0015 -0.0948 -0.4271
  640SOL    HW1 1919   2.343   1.958   1.432 -1.1491 -0.0608  0.6112
  640SOL    HW2 1920   2.376   1.902   1.583  2.3344  2.1992  0.3957
  641SOL     OW 1921   2.989   2.945   1.080  0.5455  0.3213 -0.1048
  641SOL    HW1 1922   2.992   3.025   1.141  0.5542 -0.6692  0.9258
  641SOL    HW2 1923   2.939   2.954   0.991 -3.1526  3.2502 -0.3868
  642SOL     OW 1924   1.193   1.076   1.725 -0.1619  0.2137  0.0362
  642SOL    HW1 1925   1.127   1.054   1.655  1.5605  2.1226 -1.3809
  642SOL    HW2 1926   1.287   1.050   1.686 -1.6567  1.1659 -1.1179
  643SOL     OW 1927   0.709   1.721   2.570 -0.3815 -0.3734  0.4853
  643SOL    HW1 1928   0.652   1.666   2.505  1.0647 -0.2032  1.8973
  643SOL    HW2 1929   0.667   1.808   2.594  2.8836 -3.1774  1.6490
  644SOL     OW 1930   1.920   2.885   2.402  0.2785 -0.5577 -0.1344
  644SOL    HW1 1931   1.976   2.955   2.347  0.0129  0.1089 -1.9151
  644SOL    HW2 1932   1.842   2.843   2.351 -1.4194 -2.4332 -2.1227
  645SOL     OW 1933   1.435   0.712   1.818 -0.3026 -0.1120  0.1612
  645SOL    HW1 1934   1.479   0.793   1.859 -1.2592 -0.9070 -0.3671
  645SOL    HW2 1935   1.391   0.733   1.725  1.1525 -0.5651  0.3692
  646SOL     OW 1936   1.263   2.475   3.091 -0.4321 -0.3249 -0.0855
  646SOL    HW1 1937   1.245   2.474   2.989  1.2975 -1.5105  0.3728
  646SOL    HW2 1938   1.349   2.423   3.113 -1.0482  1.0080  0.7172
  647SOL     OW 1939   1.128   2.828   0.874 -0.1055 -0.2105  0.0734
  647SOL    HW1 1940   1.089   2.809   0.966  1.1742  0.3397  0.7905
  647SOL    HW2 1941   1.219   2.784   0.865 -1.5176  0.2756 -0.1108
  648SOL     OW 1942   2.483   2.765   1.297 -0.0778  0.0876  0.3393
  648SOL    HW1 1943   2.580   2.773   1.324 -0.7074 -0.0389  0.6648
  648SOL    HW2 1944   2.483   2.794   1.202 -0.8458 -0.3234 -0.2566
  649SOL     OW 1945   0.704   2.373   2.552 -0.3286  0.0153  0.1537
  649SOL    HW1 1946   0.768   2.323   2.608  1.2685  1.1359 -0.3643
  649SOL    HW2 1947   0.668   2.457   2.599 -3.6507 -4.1377 -2.1448
  650SOL     OW 1948   2.593   1.901   2.857 -0.0473 -0.1073  0.1178
  650SOL    HW1 1949   2.652   1.823   2.867 -0.3591  0.6307 -1.5004
  650SOL    HW2 1950   2.651   1.985   2.853 -1.5597 -0.4677 -0.5268
  651SOL     OW 1951   2.417   2.310   2.132  0.1000  0.4256  0.5201
  651SOL    HW1 1952   2.354   2.229   2.139 -1.0045 -1.2996  2.6579
  651SOL    HW2 1953   2.382   2.393   2.092  0.0857 -2.9660  1.1372
  652SOL     OW 1954   2.810   2.448   1.007  0.5980 -0.0531 -0.2030
  652SOL    HW1 1955   2.837   2.529   1.062  2.0633 -1.2684 -0.2259
  652SOL    HW2 1956   2.748   2.381   1.047  2.8786  0.4182 -1.5261
  653SOL     OW 1957   2.854   1.423   1.045 -0.2077 -0.1428 -0.1662
  653SOL    HW1 1958   2.870   1.488   1.122 -2.0353 -1.2716 -1.9912
  653SOL    HW2 1959   2.800   1.343   1.066 -0.3395  3.2358 -1.8120
  654SOL     OW 1960   1.072   0.470   2.827  0.4988 -0.1473 -0.2395
  654SOL    HW1 1961   1.000   0.537   2.830  0.2269 -1.4263  0.6173
  654SOL    HW2 1962   1.072   0.403   2.905  0.4504 -1.0127  2.0688
  655SOL     OW 1963   0.893   0.385   0.981 -0.1227 -0.0926 -0.6846
  655SOL    HW1 1964   0.854   0.450   0.916 -0.1824 -1.9226  1.7937
  655SOL    HW2 1965   0.889   0.292   0.934 -1.2084 -1.2128  0.3749
  656SOL     OW 1966   0.427   2.585   1.846  0.1908  0.6151 -0.1419
  656SOL    HW1 1967   0.364   2.581   1.925  0.2169  0.4586  0.7079
  656SOL    HW2 1968   0.513   2.626   1.871  2.1439 -2.0473  0.0655
  657SOL     OW 1969   2.550   0.832   0.352 -0.4361  0.4057  0.1902
  657SOL    HW1 1970   2.472   0.790   0.299  0.7610 -0.4779  2.2359
  657SOL    HW2 1971   2.573   0.920   0.302 -0.0002  1.2866  1.8696
  658SOL     OW 1972   1.955   2.120   1.114 -0.1108  0.3929  0.0534
  658SOL    HW1 1973   1.927   2.118   1.014  1.6592 -1.0589  0.2559
  658SOL    HW2 1974   1.911   2.042   1.166 -0.8172 -0.9902 -0.7962
  659SOL     OW 1975   2.938   1.723   0.094  0.1056  0.2781 -0.2540
  659SOL    HW1 1976   2.898   1.641   0.051  0.7241  2.1134 -0.0614
  659SOL    HW2 1977   3.034   1.736   0.069  1.4439 -0.7668  0.1614
  660SOL     OW 1978   0.740   0.287   0.520  0.0800  0.3115 -0.2136
  660SOL    HW1 1979   0.744   0.192   0.565 -1.0919 -1.0807  1.6228
  660SOL    HW2 1980   0.833   0.326   0.524 -2.3609  0.7766  0.3752
  661SOL     OW 1981   1.793   0.183   0.371 -0.3105  0.3412  0.2879
  661SOL    HW1 1982   1.778   0.256   0.443 -2.0016 -0.1172 -0.3874
  661SOL    HW2 1983   1.845   0.221   0.292  0.3543  2.5251  1.8883
  662SOL     OW 1984   0.540   3.114   0.544  0.0227 -0.1696  0.0064
  662SOL    HW1 1985   0.504   0.020   0.452 -0.2560  0.5996  2.3179
  662SOL    HW2 1986   0.525   3.014   0.563  0.1128 -2.0310  3.3234
  663SOL     OW 1987   1.096   2.898   2.185  0.3882  0.1492 -0.7684
  663SOL    HW1 1988   1.124   2.965   2.117 -1.5117 -2.5967 -0.6176
  663SOL    HW2 1989   1.146   2.895   2.271 -1.0451 -1.2109 -1.2795
  664SOL     OW 1990   0.970   2.445   1.693 -0.0986 -0.0194 -0.2319
  664SOL    HW1 1991   0.885   2.414   1.647 -2.8858 -3.2823  2.0872
  664SOL    HW2 1992   0.959   2.533   1.738 -2.4372 -3.3954 -0.6713
  665SOL     OW 1993   0.965   2.165   1.675  0.2313 -0.1398 -0.6852
  665SOL    HW1 1994   1.024   2.138   1.595 -0.3455 -0.1059  0.3321
  665SOL    HW2 1995   0.951   2.265   1.675 -0.3259  4.2965  0.5045
  666SOL     OW 1996   0.815   2.839   2.588  0.2064  0.0848 -0.1389
  666SOL    HW1 1997   0.817   2.862   2.685  0.6366  2.9567 -1.5432
  666SOL    HW2 1998   0.727   2.797   2.560 -1.3680 -0.8566  1.1311
  667SOL     OW 1999   2.113   1.345   1.618  0.1044 -0.2347  0.2247
  667SOL    HW1 2000   2.073   1.376   1.531 -1.1788  0.5008 -0.0835
  667SOL    HW2 2001   2.209   1.381   1.623 -0.4700  1.6886  0.7678
  668SOL     OW 2002   1.866   0.016   1.866  0.1667 -0.0962 -0.0414
  668SOL    HW1 2003   1.861   3.036   1.894 -0.3973 -0.8916  0.9850
  668SOL    HW2 2004   1.784   0.073   1.902 -2.4079 -0.1144 -1.7983
  669SOL     OW 2005   2.643   2.691   0.928 -0.8755  0.4486 -0.2217
  669SOL    HW1 2006   2.652   2.592   0.951 -1.3357 -1.3635  1.2878
  669SOL    HW2 2007   2.674   2.709   0.835 -0.5827  0.1581  1.5683
  670SOL     OW 2008   1.480   2.517   2.703  0.0355 -0.1486  0.1102
  670SOL    HW1 2009   1.391   2.521   2.751 -0.9513 -1.5102  1.5459
  670SOL    HW2 2010   1.511   2.426   2.691 -3.1202  4.8696  1.9315
  671SOL     OW 2011   0.660   1.106   0.518  0.6855 -0.1179 -0.1998
  671SOL    HW1 2012   0.625   1.134   0.426  1.4207 -0.2390 -1.6431
  671SOL    HW2 2013   0.584   1.087   0.580 -0.8462  0.1067 -1.5506
  672SOL     OW 2014   2.768   1.059   2.838 -0.0249  0.7412 -0.1921
  672SOL    HW1 2015   2.755   1.029   2.937  0.9018 -0.6864  0.4635
  672SOL    HW2 2016   2.681   1.044   2.787  0.0516 -0.5058  0.2658
  673SOL     OW 2017   0.034   2.108   1.606  0.0555  0.3293  0.3608
  673SOL    HW1 2018   0.095   2.158   1.672 -1.1679  0.4746 -1.5177
  673SOL    HW2 2019   3.117   2.024   1.655 -2.1455  0.3244  0.1079
  674SOL     OW 2020   0.653   2.186   2.306  0.4921 -0.1991 -0.2895
  674SOL    HW1 2021   0.669   2.239   2.389 -2.8946  1.7680  0.7116
  674SOL    HW2 2022   0.562   2.143   2.308 -0.3303  1.1813  0.0433
  675SOL     OW 2023   1.057   0.757   1.675  0.0396  0.5041  0.0441
  675SOL    HW1 2024   1.006   0.705   1.748 -4.1906 -2.1451  1.7421
  675SOL    HW2 2025   1.044   0.708   1.586  0.2681  0.6704 -2.8876
  676SOL     OW 2026   1.865   0.079   1.352 -0.4090  0.1762  0.8220
  676SOL    HW1 2027   1.871   0.013   1.275  1.0089 -0.4073  0.6340
  676SOL    HW2 2028   1.843   0.026   1.433 -2.0423  2.7373 -2.8104
  677SOL     OW 2029   2.564   1.221   3.077  0.6991 -0.2792  0.6893
  677SOL    HW1 2030   2.620   1.272   3.006  1.1875 -0.4839  0.1579
  677SOL    HW2 2031   2.596   1.125   3.081  0.3604  1.1348 -0.6189
  678SOL     OW 2032   2.449   1.292   1.176 -0.9905  0.1910  0.4827
  678SOL    HW1 2033   2.504   1.379   1.179 -1.8803  1.9872  0.1570
  678SOL    HW2 2034   2.407   1.286   1.084  2.8337 -0.2719 -0.9609
  679SOL     OW 2035   2.827   0.489   2.878  0.2750 -0.5216 -0.0941
  679SOL    HW1 2036   2.782   0.581   2.870  1.3287 -0.5064  1.8231
  679SOL    HW2 2037   2.846   0.473   2.977 -0.0429 -1.8548 -0.0332
  680SOL     OW 2038   0.675   1.388   2.073  0.0854 -0.1701  0.1020
  680SOL    HW1 2039   0.759   1.418   2.125 -1.4606 -1.6111 -1.1706
  680SOL    HW2 2040   0.592   1.416   2.126  1.9182  1.0321  0.1996
  681SOL     OW 2041   2.727   2.045   1.644 -0.6429 -0.2017 -0.0298
  681SOL    HW1 2042   2.722   2.141   1.678  0.7513  1.2624  0.9063
  681SOL    HW2 2043   2.800   1.990   1.694  0.8429 -4.0807 -0.6469
  682SOL     OW 2044   0.125   2.166   3.114 -0.0467 -0.6294 -0.1227
  682SOL    HW1 2045   0.220   2.164   0.039  0.5668 -2.3850  0.6886
  682SOL    HW2 2046   0.104   2.257   3.070  2.9054 -2.2573 -0.7495
  683SOL     OW 2047   2.830   2.034   0.975  0.0070  0.7337 -0.3780
  683SOL    HW1 2048   2.838   1.937   0.942  2.4918 -0.5048  0.0739
  683SOL    HW2 2049   2.749   2.043   1.031  2.0580 -2.5063  1.5005
  684SOL     OW 2050   2.955   1.346   2.249  0.1601 -0.0466 -0.5207
  684SOL    HW1 2051   3.032   1.295   2.200  1.3705 -1.4405  1.2093
  684SOL    HW2 2052   2.859   1.337   2.217  1.8298  2.5994  0.9357
  685SOL     OW 2053   1.468   0.590   0.764 -0.2232 -0.2251  0.3961
  685SOL    HW1 2054   1.460   0.568   0.864 -0.4825  1.7112  0.9884
  685SOL    HW2 2055   1.432   0.509   0.705 -1.2856 -2.1042 -1.3078
  686SOL     OW 2056   0.464   0.389   0.496 -0.2043 -0.5354  0.3348
  686SOL    HW1 2057   0.556   0.348   0.517 -0.2723  1.1973  0.8497
  686SOL    HW2 2058   0.443   0.402   0.399 -2.2258  0.0161  3.0681
  687SOL     OW 2059   0.393   2.008   2.779  0.2282 -0.2261 -0.4563
  687SOL    HW1 2060   0.459   2.005   2.696  0.0847 -1.6961 -2.4278
  687SOL    HW2 2061   0.298   1.980   2.754 -1.0659  0.3188 -2.0058
  688SOL     OW 2062   2.093   0.480   1.454  0.3625  0.1198 -0.0492
  688SOL    HW1 2063   2.100   0.380   1.442  0.7098  1.7501  0.6520
  688SOL    HW2 2064   2.091   0.528   1.364  1.8517  1.7948  3.1238
  689SOL     OW 2065   1.598   0.805   0.854 -0.4687  0.3216 -0.0321
  689SOL    HW1 2066   1.696   0.782   0.831 -0.1012 -0.3651 -0.1354
  689SOL    HW2 2067   1.533   0.738   0.807  1.0375 -1.2037  1.1001
  690SOL     OW 2068   3.066   1.305   1.175 -0.2961 -0.2856  0.1182
  690SOL    HW1 2069   2.992   1.332   1.110  0.6933 -0.7764 -0.1387
  690SOL    HW2 2070   0.033   1.282   1.124  3.6654 -1.3784  0.5759
  691SOL     OW 2071   0.105   1.881   1.233  0.1795  0.0873  0.4016
  691SOL    HW1 2072   0.154   1.844   1.315 -1.2477  1.1948  2.4613
  691SOL    HW2 2073   0.035   1.949   1.269  2.2417  2.0522  0.5554
  692SOL     OW 2074   1.224   0.056   1.660 -0.0876  0.2937 -0.1760
  692SOL    HW1 2075   1.300   0.013   1.714 -2.1910  1.3100  1.3461
  692SOL    HW2 2076   1.240   0.154   1.652 -0.4126  3.4452  0.9695
  693SOL     OW 2077   0.926   1.461   2.219 -0.2648  0.0702 -0.0549
  693SOL    HW1 2078   0.996   1.517   2.261  1.8956 -2.3980 -0.3191
  693SOL    HW2 2079   0.961   1.425   2.128 -0.4645 -1.4711 -0.8405
  694SOL     OW 2080   1.804   1.632   0.663  0.5168 -0.4922  0.3566
  694SOL    HW1 2081   1.818   1.579   0.748  1.8307 -2.0093 -1.5287
  694SOL    HW2 2082   1.711   1.609   0.616 -1.3351 -2.5463 -3.5697
  695SOL     OW 2083   0.868   0.912   1.232  0.7363  0.1243  0.1236
  695SOL    HW1 2084   0.860   0.864   1.141  2.0887  0.8965  2.7440
  695SOL    HW2 2085   0.811   0.871   1.304  3.6882  3.4099  1.4543
  696SOL     OW 2086   0.202   0.017   0.423  0.5122  0.3190 -0.0545
  696SOL    HW1 2087   0.121   3.074   0.392 -1.9525 -0.1045 -2.7274
  696SOL    HW2 2088   0.249   3.091   0.507 -2.1130 -2.0619  1.8839
  697SOL     OW 2089   2.043   0.524   1.184 -0.2318  0.4044  0.1549
  697SOL    HW1 2090   1.993   0.613   1.176  0.5381  0.6395  1.3049
  697SOL    HW2 2091   2.020   0.471   1.099  0.8264 -1.1539  0.5218
  698SOL     OW 2092   1.271   1.309   1.853 -0.1969  0.2773  0.0598
  698SOL    HW1 2093   1.366   1.299   1.827 -0.0478 -0.6123  0.4925
  698SOL    HW2 2094   1.219   1.228   1.813 -1.4679 -0.8694  1.1766
  699SOL     OW 2095   0.033   0.274   2.243 -0.1653  0.1796  0.2052
  699SOL    HW1 2096   0.000   0.211   2.171 -2.5678  1.0985  1.5621
  699SOL    HW2 2097   3.078   0.317   2.297  3.1783  0.6808 -1.6062
  700SOL     OW 2098   1.380   2.700   0.865 -0.4004  0.1542 -0.1234
  700SOL    HW1 2099   1.471   2.704   0.818  1.5264 -1.7380 -1.4978
  700SOL    HW2 2100   1.386   2.724   0.964 -0.2133  0.9578 -0.2583
  701SOL     OW 2101   0.195   1.356   2.579  0.2818 -0.8287 -0.1673
  701SOL    HW1 2102   0.278   1.417   2.568  1.1201 -0.2635 -0.4190
  701SOL    HW2 2103   0.181   1.311   2.670  1.3491 -1.0520 -0.4776
  702SOL     OW 2104   0.446   0.059   0.292  0.6580 -0.1494 -0.4246
  702SOL    HW1 2105   0.350   0.061   0.336 -3.4907  1.5635  2.7566
  702SOL    HW2 2106   0.433   0.043   0.193 -1.2507 -1.3460 -0.2851
  703SOL     OW 2107   1.819   3.079   2.588  0.0840  0.1079 -0.1786
  703SOL    HW1 2108   1.834   3.033   2.676 -1.5620  1.8125 -0.0449
  703SOL    HW2 2109   1.842   3.012   2.514  1.2381  1.7787  0.5572
  704SOL     OW 2110   2.584   1.999   0.511 -0.2409 -0.5675  0.0528
  704SOL    HW1 2111   2.635   2.063   0.459 -0.5894 -1.7822  0.4199
  704SOL    HW2 2112   2.651   1.968   0.583  1.0638 -1.1788  0.8918
  705SOL     OW 2113   2.559   2.103   2.451  0.2260 -0.3285  0.0489
  705SOL    HW1 2114   2.487   2.144   2.512  2.2395 -2.0551  0.8897
  705SOL    HW2 2115   2.653   2.131   2.477 -1.6965 -1.9612 -1.8746
  706SOL     OW 2116   2.901   2.862   0.665  0.5460 -0.3446 -0.6224
  706SOL    HW1 2117   2.858   2.919   0.592 -0.1670  2.2607 -0.4208
  706SOL    HW2 2118   2.999   2.846   0.643 -1.9802 -0.0828  1.6077
  707SOL     OW 2119   0.997   3.023   0.309 -0.8128 -0.4185 -0.1475
  707SOL    HW1 2120   1.009   2.937   0.252 -1.2058  1.2289 -0.7468
  707SOL    HW2 2121   0.926   3.077   0.264  1.7416  1.0750  2.3559
  708SOL     OW 2122   0.229   2.206   1.869 -0.3701 -0.0697 -0.2913
  708SOL    HW1 2123   0.157   2.278   1.850  0.2530  0.1565  1.3220
  708SOL    HW2 2124   0.206   2.161   1.955 -0.1531 -0.6194 -0.2206
  709SOL     OW 2125   1.382   2.737   1.995 -0.3905  0.6189  0.1736
  709SOL    HW1 2126   1.362   2.640   2.017  0.9273 -1.9180  2.6367
  709SOL    HW2 2127   1.405   2.794   2.080  0.9563  1.5600  1.2645
  710SOL     OW 2128   1.872   2.463   2.467 -0.2681 -0.0804 -0.3908
  710SOL    HW1 2129   1.878   2.544   2.524  0.3790 -0.0088 -1.9240
  710SOL    HW2 2130   1.807   2.489   2.393  2.5152 -0.6124 -0.9362
  711SOL     OW 2131   1.232   2.479   2.831  0.4827 -0.4482  0.4862
  711SOL    HW1 2132   1.183   2.562   2.789 -2.9830  0.8526  0.9379
  711SOL    HW2 2133   1.197   2.392   2.795 -1.6620 -2.3683  1.9617
  712SOL     OW 2134   1.118   2.200   2.743 -0.0377  0.4915  0.3574
  712SOL    HW1 2135   1.146   2.182   2.842 -0.2674 -0.9175  2.1984
  712SOL    HW2 2136   1.019   2.217   2.739  0.4409  0.5659 -0.5648
  713SOL     OW 2137   1.501   1.071   1.647 -0.2141 -0.4132 -0.3694
  713SOL    HW1 2138   1.575   0.999   1.658 -1.7685  1.1971  0.9528
  713SOL    HW2 2139   1.445   1.071   1.562  0.1620  1.6551 -2.3893
  714SOL     OW 2140   1.213   1.467   1.581 -0.0817 -0.1066 -0.0601
  714SOL    HW1 2141   1.179   1.512   1.667  1.9338  0.6882 -0.2407
  714SOL    HW2 2142   1.143   1.402   1.543 -3.2219 -0.9496  0.2539
  715SOL     OW 2143   2.773   2.974   0.427 -0.3303  0.0376 -0.3737
  715SOL    HW1 2144   2.810   3.063   0.393  4.0793 -1.0319 -2.0920
  715SOL    HW2 2145   2.784   2.908   0.352  0.9507 -0.2211  1.5556
  716SOL     OW 2146   0.634   2.588   1.165 -0.4485  0.1049  0.2841
  716SOL    HW1 2147   0.676   2.513   1.109 -0.4261  0.9262 -0.9546
  716SOL    HW2 2148   0.533   2.572   1.178  1.7938 -0.5853  1.6899
  717SOL     OW 2149   2.893   0.404   0.056  0.1333 -0.6113  0.2767
  717SOL    HW1 2150   2.835   0.335   0.012  0.3958  1.3794 -2.8453
  717SOL    HW2 2151   2.951   0.357   0.126  0.2293 -1.2500 -1.8949
  718SOL     OW 2152   1.807   1.466   1.135  0.1605  0.2012  0.6811
  718SOL    HW1 2153   1.706   1.474   1.147 -0.1220 -0.2836  0.1947
  718SOL    HW2 2154   1.846   1.406   1.209  1.2156 -2.9029 -1.0522
  719SOL     OW 2155   2.933   2.605   0.179  0.3615 -0.3815 -0.2387
  719SOL    HW1 2156   2.935   2.630   0.081 -2.0273  0.2489 -2.1797
  719SOL    HW2 2157   3.028   2.583   0.209  0.2272  1.2995 -1.3203
  720SOL     OW 2158   1.143   0.678   0.853 -0.1704  0.1909  0.1429
  720SOL    HW1 2159   1.176   0.585   0.827  0.9948  1.5204 -0.6808
  720SOL    HW2 2160   1.206   0.708   0.928 -0.5271  0.4461  0.3251
  721SOL     OW 2161   1.867   0.263   0.805 -0.4968 -0.0725  0.1303
  721SOL    HW1 2162   1.959   0.226   0.829 -1.2792 -0.3844 -3.6290
  721SOL    HW2 2163   1.828   0.331   0.866  1.9686 -0.4821  2.3169
  722SOL     OW 2164   0.875   1.846   2.088  0.0570  0.8874  0.3253
  722SOL    HW1 2165   0.774   1.826   2.105 -4.0686 -0.3380  2.7748
  722SOL    HW2 2166   0.913   1.921   2.149  1.9540  0.3054 -0.4906
  723SOL     OW 2167   1.115   0.050   1.404 -0.3497  0.8749  0.7573
  723SOL    HW1 2168   1.187   0.028   1.328  0.1548  0.1503 -0.6397
  723SOL    HW2 2169   1.152   0.050   1.498  0.7952  1.1403 -1.9920
  724SOL     OW 2170   1.710   1.961   1.890 -0.4036  0.7314 -0.7012
  724SOL    HW1 2171   1.721   1.915   1.982 -0.2200 -0.4284  1.2760
  724SOL    HW2 2172   1.776   1.919   1.824 -0.8840 -0.8370 -0.2784
  725SOL     OW 2173   1.407   2.782   1.577 -0.4846 -0.1177  0.0104
  725SOL    HW1 2174   1.469   2.843   1.628  1.3590 -1.1572  0.8374
  725SOL    HW2 2175   1.414   2.687   1.610 -2.2267  0.2408  2.6888
  726SOL     OW 2176   1.529   0.120   0.342 -0.2526 -0.5170  0.2605
  726SOL    HW1 2177   1.632   0.136   0.336  0.7891 -1.0974  0.1591
  726SOL    HW2 2178   1.473   0.160   0.267  0.4166  0.6746 -0.0895
  727SOL     OW 2179   1.431   1.921   0.855  0.4745  0.3732  0.1548
  727SOL    HW1 2180   1.345   1.890   0.906 -2.9369  0.0757  0.6897
  727SOL    HW2 2181   1.491   1.972   0.917 -0.9862  1.4037 -0.1872
  728SOL     OW 2182   1.905   2.697   2.605 -0.0273  0.4417  0.7220
  728SOL    HW1 2183   1.913   2.771   2.536  0.1926  0.6868 -1.1718
  728SOL    HW2 2184   1.816   2.704   2.654 -1.7516 -3.0685 -1.9145
  729SOL     OW 2185   2.237   2.255   1.546  0.3329  0.3452 -0.2789
  729SOL    HW1 2186   2.219   2.231   1.644 -1.3889 -0.4748  0.9934
  729SOL    HW2 2187   2.310   2.198   1.504  1.2694 -1.6330 -0.3520
  730SOL     OW 2188   1.774   0.693   2.447 -0.3230  0.2517 -0.5550
  730SOL    HW1 2189   1.728   0.667   2.537 -0.9703 -1.2843  1.1377
  730SOL    HW2 2190   1.788   0.613   2.386 -1.5804  0.1051  1.3556
  731SOL     OW 2191   0.479   0.140   1.194 -0.1999 -0.1900  0.4943
  731SOL    HW1 2192   0.576   0.147   1.170 -1.1490 -0.8995  0.0208
  731SOL    HW2 2193   0.449   0.202   1.265 -1.5813 -0.2663 -1.1205
  732SOL     OW 2194   1.928   3.058   1.126  0.7703 -0.5509  0.4965
  732SOL    HW1 2195   1.830   3.046   1.108  1.1220 -0.5210  1.3000
  732SOL    HW2 2196   1.961   3.116   1.044 -2.2602  1.0810 -3.2143
  733SOL     OW 2197   1.130   0.993   1.297  0.2764 -0.0911  0.4502
  733SOL    HW1 2198   1.030   0.971   1.304  2.4517 -1.1823  0.6002
  733SOL    HW2 2199   1.178   1.015   1.384 -0.5018  0.0835 -0.8457
  734SOL     OW 2200   2.711   2.486   0.384  0.5018 -0.3921  0.1578
  734SOL    HW1 2201   2.762   2.525   0.305 -1.4645 -0.9469  1.8437
  734SOL    HW2 2202   2.770   2.460   0.459 -1.9783  2.6011  0.4090
  735SOL     OW 2203   0.596   0.406   0.007 -0.2788  0.1516  0.6786
  735SOL    HW1 2204   0.618   0.450   3.036  0.7148  0.4656  0.3507
  735SOL    HW2 2205   0.683   0.377   0.055  0.0660  1.1172  0.0280
  736SOL     OW 2206   1.774   2.196   2.516  0.1806  0.6168 -0.1756
  736SOL    HW1 2207   1.791   2.289   2.547  1.0066  1.7453 -0.6241
  736SOL    HW2 2208   1.743   2.136   2.591  1.7749  0.0354 -1.0207
  737SOL     OW 2209   1.217   2.560   1.092  0.2833  0.2778  0.5583
  737SOL    HW1 2210   1.183   2.638   1.143 -0.4210  0.7128  2.9364
  737SOL    HW2 2211   1.149   2.530   1.026  1.9590  1.6019 -0.5822
  738SOL     OW 2212   1.724   2.785   2.236  0.1351  0.1003  0.1319
  738SOL    HW1 2213   1.634   2.833   2.238  0.1291 -0.7329  0.7917
  738SOL    HW2 2214   1.783   2.823   2.160  0.0354  1.3495  1.6986
  739SOL     OW 2215   0.986   2.047   2.237  0.0566  0.2235 -0.6563
  739SOL    HW1 2216   1.079   2.039   2.190 -0.3760  1.0294 -0.5201
  739SOL    HW2 2217   0.966   2.142   2.257  0.8664 -1.5113 -1.4310
  740SOL     OW 2218   1.898   2.168   1.555  0.0737  0.1509  0.0495
  740SOL    HW1 2219   1.963   2.093   1.528  0.6010  0.7984 -2.0224
  740SOL    HW2 2220   1.889   2.228   1.475  1.0071  0.8467  3.0560
  741SOL     OW 2221   2.032   1.844   3.043 -0.4033  0.5599  0.4311
  741SOL    HW1 2222   1.956   1.773   3.038 -2.5795  1.1578  0.6796
  741SOL    HW2 2223   2.121   1.800   3.008  3.2636 -1.2088  1.4393
  742SOL     OW 2224   0.969   0.993   2.934  0.3431 -0.5658 -0.4688
  742SOL    HW1 2225   0.875   0.997   2.889 -4.2204 -2.6902 -1.8943
  742SOL    HW2 2226   1.043   1.002   2.861 -0.0876  1.5036  1.1050
  743SOL     OW 2227   2.522   1.021   2.725  0.1803  0.3609  0.7216
  743SOL    HW1 2228   2.553   0.962   2.650 -0.7927  2.8990  1.8364
  743SOL    HW2 2229   2.519   1.120   2.691  1.0964  2.4901 -2.4001
  744SOL     OW 2230   2.337   2.477   1.877  0.4248  0.1304  0.3954
  744SOL    HW1 2231   2.280   2.553   1.830  0.7511  3.5788 -0.0814
  744SOL    HW2 2232   2.435   2.495   1.844  2.0039 -0.8072  0.5438
  745SOL     OW 2233   2.703   1.783   1.432 -0.1108  0.0907 -0.3972
  745SOL    HW1 2234   2.688   1.842   1.350 -2.4570 -0.2258  0.8696
  745SOL    HW2 2235   2.624   1.728   1.463 -0.2888 -2.4295  2.6674
  746SOL     OW 2236   2.888   1.756   0.890  0.3450 -0.6068 -0.4477
  746SOL    HW1 2237   2.920   1.702   0.974 -0.7550  2.0127 -1.0918
  746SOL    HW2 2238   2.964   1.770   0.822  3.0415  0.3984  1.7504
  747SOL     OW 2239   1.665   2.575   0.357 -0.7295 -0.2940 -0.4778
  747SOL    HW1 2240   1.743   2.552   0.291  0.9743 -0.5886 -0.6360
  747SOL    HW2 2241   1.673   2.524   0.441  0.9416 -0.4906 -1.8654
  748SOL     OW 2242   0.934   1.989   0.296  0.6708 -0.2418  0.9603
  748SOL    HW1 2243   0.923   1.995   0.196 -0.8919 -0.0137 -1.7332
  748SOL    HW2 2244   0.844   1.994   0.341  1.2549 -0.0363 -1.6609
  749SOL     OW 2245   2.878   0.372   2.116 -0.0512 -0.2148 -0.2266
  749SOL    HW1 2246   2.950   0.446   2.123  0.3041  1.4287  1.7331
  749SOL    HW2 2247   2.807   0.400   2.055  1.7909 -1.3112  1.5439
  750SOL     OW 2248   1.345   0.310   1.662  0.3465 -0.0023 -0.1122
  750SOL    HW1 2249   1.384   0.345   1.752  0.3792 -1.2927  0.5481
  750SOL    HW2 2250   1.422   0.296   1.600 -1.0112 -1.9158  2.1702
  751SOL     OW 2251   2.216   2.562   2.099 -0.3907 -0.0739 -0.5559
  751SOL    HW1 2252   2.135   2.500   2.108 -1.5048  1.2787 -2.9252
  751SOL    HW2 2253   2.281   2.541   2.021  1.3658  1.2881  0.5120
  752SOL     OW 2254   2.141   1.815   0.964 -0.8043  0.1609  0.2283
  752SOL    HW1 2255   2.047   1.788   0.977  1.6816 -0.1916 -2.7085
  752SOL    HW2 2256   2.194   1.739   0.918 -3.6839 -0.5271 -0.0378
  753SOL     OW 2257   1.412   0.996   2.442  0.0598 -0.2668 -0.3408
  753SOL    HW1 2258   1.491   1.047   2.396  0.8646 -0.9305  0.8913
  753SOL    HW2 2259   1.328   1.016   2.390  2.1397  0.6219 -0.0083
  754SOL     OW 2260   0.217   2.682   1.074  0.1970 -0.5518  0.1138
  754SOL    HW1 2261   0.208   2.782   1.047  0.0645  1.9280 -2.7047
  754SOL    HW2 2262   0.129   2.638   1.089  4.1033 -0.8058 -1.4246
  755SOL     OW 2263   2.218   0.115   1.695  0.6985 -0.3429 -0.0754
  755SOL    HW1 2264   2.256   0.021   1.677  1.2027 -0.9037  0.9200
  755SOL    HW2 2265   2.189   0.150   1.603 -0.9656 -2.4529 -0.3906
  756SOL     OW 2266   1.405   1.257   2.586  0.0919 -0.0993  0.1256
  756SOL    HW1 2267   1.305   1.267   2.613 -0.2554  0.9409 -1.3970
  756SOL    HW2 2268   1.427   1.161   2.559 -1.6631  0.6736  0.3624
  757SOL     OW 2269   2.832   2.901   1.834 -0.0979 -0.1834 -0.4907
  757SOL    HW1 2270   2.874   2.986   1.793 -0.8709  2.0252 -1.4501
  757SOL    HW2 2271   2.764   2.860   1.776  2.2600  1.7887  0.2024
  758SOL     OW 2272   0.421   2.765   1.464 -0.0171 -0.6865  0.7527
  758SOL    HW1 2273   0.386   2.861   1.447 -0.1150  2.5254  1.5413
  758SOL    HW2 2274   0.526   2.758   1.460  0.4751 -1.0210  0.1498
  759SOL     OW 2275   2.139   1.280   0.577 -0.0455  0.4079  0.4422
  759SOL    HW1 2276   2.212   1.213   0.590 -1.2721 -0.4270  0.5102
  759SOL    HW2 2277   2.109   1.280   0.478 -0.2155  1.8673  1.0848
  760SOL     OW 2278   1.653   0.132   2.010 -0.2334  0.5026 -0.4476
  760SOL    HW1 2279   1.659   0.228   2.039  0.5736 -0.1588 -0.8461
  760SOL    HW2 2280   1.580   0.087   2.069 -3.2450  0.6936  0.5572
  761SOL     OW 2281   2.124   0.379   0.288 -0.0321  0.0954 -0.0811
  761SOL    HW1 2282   2.123   0.284   0.254 -0.1356 -0.5873 -1.3792
  761SOL    HW2 2283   2.049   0.440   0.239 -1.1447  0.2496 -0.6027
  762SOL     OW 2284   2.302   2.737   3.086 -0.1168  0.9716 -0.4337
  762SOL    HW1 2285   2.392   2.692   3.111  1.1712 -0.1106  0.8394
  762SOL    HW2 2286   2.223   2.680   3.116  0.2951 -1.7223  2.3069
  763SOL     OW 2287   0.857   0.781   0.995 -0.0589 -0.2559  0.4229
  763SOL    HW1 2288   0.950   0.766   0.958  1.3648 -1.4183 -1.2324
  763SOL    HW2 2289   0.784   0.778   0.923 -0.8435 -1.1643  1.1842
  764SOL     OW 2290   2.229   2.361   2.852  0.2432  0.5285 -0.4643
  764SOL    HW1 2291   2.217   2.350   2.956  0.1197 -1.1102  2.6888
  764SOL    HW2 2292   2.205   2.456   2.830  0.4110 -2.7291  3.4309
  765SOL     OW 2293   0.168   0.813   2.076  0.1473 -0.1061 -0.0377
  765SOL    HW1 2294   0.167   0.741   2.002 -0.8961 -0.8707  1.0476
  765SOL    HW2 2295   0.195   0.764   2.160 -1.6496  0.1228  0.7554
  766SOL     OW 2296   2.704   1.359   2.884  0.1237  0.0480 -0.4006
  766SOL    HW1 2297   2.713   1.442   2.823  0.2414  0.8473 -1.9100
  766SOL    HW2 2298   2.674   1.287   2.820  0.0587  0.0049  1.7198
  767SOL     OW 2299   3.071   1.590   2.025 -0.4341  0.1773 -0.0546
  767SOL    HW1 2300   3.002   1.661   1.990 -1.8213  1.3037  0.1909
  767SOL    HW2 2301   3.025   1.521   2.091 -0.3377 -1.7711  2.9089
  768SOL     OW 2302   1.050   1.085   0.230  0.6546 -0.5214 -0.1812
  768SOL    HW1 2303   1.018   1.020   0.308  3.0200 -1.1349  1.6623
  768SOL    HW2 2304   1.150   1.076   0.218 -0.9865  0.2929  0.1765
  769SOL     OW 2305   1.789   2.805   2.985 -0.6044 -0.2066  0.2423
  769SOL    HW1 2306   1.878   2.850   2.964  0.4328  0.9842 -1.5555
  769SOL    HW2 2307   1.740   2.834   3.068 -1.7378  1.5818 -0.8739
  770SOL     OW 2308   0.738   0.250   2.472 -0.1680  0.6811  0.7332
  770SOL    HW1 2309   0.742   0.199   2.386  2.2113  0.8098  4.8463
  770SOL    HW2 2310   0.670   0.323   2.464 -0.0943  1.9036 -0.5097
  771SOL     OW 2311   0.781   2.391   1.044 -0.0574 -0.5610 -0.2495
  771SOL    HW1 2312   0.717   2.344   0.978  0.1104  0.5350 -1.1796
  771SOL    HW2 2313   0.859   2.428   0.991 -1.0796  2.1455 -0.3537
  772SOL     OW 2314   0.230   0.662   0.175 -0.4980 -0.4358 -0.0957
  772SOL    HW1 2315   0.222   0.646   0.077  0.6209  1.3662  0.9159
  772SOL    HW2 2316   0.144   0.626   0.218 -2.8655  3.4185 -1.5041
  773SOL     OW 2317   2.097   0.957   1.799 -0.0482 -0.6066 -0.9917
  773SOL    HW1 2318   2.185   0.909   1.818 -1.5250  2.3365  1.2028
  773SOL    HW2 2319   2.106   1.001   1.708 -0.6235  0.9528 -0.7888
  774SOL     OW 2320   0.899   1.008   0.622  0.2661 -0.0518 -0.1736
  774SOL    HW1 2321   0.824   1.055   0.576 -1.5551 -0.5194  1.3163
  774SOL    HW2 2322   0.916   1.048   0.714 -1.4507  0.8215 -0.7672
  775SOL     OW 2323   1.830   3.090   3.065 -0.2203 -0.2253  0.0360
  775SOL    HW1 2324   1.740   3.080   3.022 -0.6156  1.4922 -0.6931
  775SOL    HW2 2325   1.836   0.059   3.115  1.2342 -0.8269 -0.7630
  776SOL     OW 2326   2.130   0.302   2.365 -0.3577 -0.4237 -0.1765
  776SOL    HW1 2327   2.111   0.234   2.437 -1.1689  1.5013 -1.6935
  776SOL    HW2 2328   2.116   0.254   2.277  0.0645  2.4202  1.4995
  777SOL     OW 2329   0.835   1.631   0.178  0.3806 -0.1766 -0.5625
  777SOL    HW1 2330   0.933   1.643   0.144  1.9225 -1.4818 -1.3654
  777SOL    HW2 2331   0.789   1.720   0.175  0.3942  0.4812  1.2413
  778SOL     OW 2332   0.365   2.785   0.187  0.0964 -0.2637  0.1955
  778SOL    HW1 2333   0.357   2.709   0.253  0.2218 -0.6121  1.3512
  778SOL    HW2 2334   0.434   2.855   0.221  0.2640  2.6582 -0.0877
  779SOL     OW 2335   0.292   1.241   3.101 -0.4742  0.3186  0.5702
  779SOL    HW1 2336   0.190   1.246   0.005 -0.0595 -1.6272 -0.4973
  779SOL    HW2 2337   0.344   1.195   0.057 -1.8884 -1.3481  0.9773
  780SOL     OW 2338   2.262   0.547   2.307 -0.0519 -0.0189 -0.3255
  780SOL    HW1 2339   2.231   0.578   2.213  0.3132  1.1707 -1.2782
  780SOL    HW2 2340   2.199   0.473   2.336  2.1824  1.1108 -2.7502
  781SOL     OW 2341   1.663   0.857   1.685  0.5451  1.0376 -0.0076
  781SOL    HW1 2342   1.718   0.832   1.768 -0.5329  0.1807  1.2139
  781SOL    HW2 2343   1.646   0.781   1.618  1.3845 -0.9168  1.4579
  782SOL     OW 2344   1.690   1.877   2.158  0.0899  0.3151  0.3794
  782SOL    HW1 2345   1.742   1.947   2.204  0.4915 -1.6327  1.2819
  782SOL    HW2 2346   1.701   1.786   2.202 -3.6528 -0.6105 -1.7703
  783SOL     OW 2347   1.278   3.107   1.174  0.4142 -0.0157 -0.4959
  783SOL    HW1 2348   1.274   3.007   1.205  1.2554 -1.6022 -0.9576
  783SOL    HW2 2349   1.246   3.112   1.079  0.5020  1.2302  1.7794
  784SOL     OW 2350   1.886   0.931   2.499  0.2052 -0.0269  0.0588
  784SOL    HW1 2351   1.844   0.842   2.488  3.2462  1.6086 -1.9467
  784SOL    HW2 2352   1.833   0.978   2.571  1.1878 -2.7599  0.3039
  785SOL     OW 2353   1.872   0.238   0.054 -0.2178  0.3771  0.0899
  785SOL    HW1 2354   1.958   0.200   0.096  0.4406 -1.9955 -0.6716
  785SOL    HW2 2355   1.900   0.307   3.102  2.6424 -2.3043  1.1796
  786SOL     OW 2356   3.028   1.811   0.665 -0.0042  0.4533 -0.1904
  786SOL    HW1 2357   3.106   1.817   0.599 -3.0528  0.1997 -1.3136
  786SOL    HW2 2358   2.957   1.888   0.658  0.7078 -1.4536  1.3585
  787SOL     OW 2359   1.729   2.246   0.332  0.0257 -0.1657 -0.0577
  787SOL    HW1 2360   1.730   2.284   0.425  0.1555 -0.6397  2.4805
  787SOL    HW2 2361   1.632   2.247   0.305  4.0406  0.2883  1.4289
  788SOL     OW 2362   2.142   1.579   1.145  0.0362  0.1732 -0.9917
  788SOL    HW1 2363   2.204   1.626   1.212  1.2387  1.0521  1.0358
  788SOL    HW2 2364   2.058   1.629   1.122  0.1935  2.3311 -0.6484
  789SOL     OW 2365   3.050   1.347   2.647  0.7620  0.0573 -0.5075
  789SOL    HW1 2366   0.015   1.353   2.583  3.2299 -1.4189  1.4542
  789SOL    HW2 2367   3.033   1.250   2.675 -0.4104  2.1745  0.1354
  790SOL     OW 2368   0.542   0.231   2.747  0.0999 -0.2122 -0.2420
  790SOL    HW1 2369   0.474   0.304   2.766 -1.0363 -0.6526 -1.9400
  790SOL    HW2 2370   0.529   0.193   2.655 -0.3757 -0.3027  0.6685
  791SOL     OW 2371   1.028   0.504   2.533 -0.2321 -0.0191  0.0739
  791SOL    HW1 2372   1.072   0.488   2.624  0.1748  1.7373  0.1667
  791SOL    HW2 2373   1.088   0.469   2.463  1.4805  0.9640  0.2708
  792SOL     OW 2374   1.763   0.907   2.184 -0.3277  0.0026  0.4677
  792SOL    HW1 2375   1.807   0.886   2.272 -1.1312 -2.2708 -2.2512
  792SOL    HW2 2376   1.676   0.963   2.184 -1.1367  2.1524  0.1413
  793SOL     OW 2377   2.726   0.683   1.447  0.4577  0.2649 -0.3922
  793SOL    HW1 2378   2.784   0.613   1.399 -0.1422 -0.2663 -1.3836
  793SOL    HW2 2379   2.629   0.674   1.418  0.9313 -3.6170  1.0640
  794SOL     OW 2380   0.445   0.647   1.871  0.2256  0.1548  0.0569
  794SOL    HW1 2381   0.454   0.662   1.974  0.5755 -0.2195  0.9602
  794SOL    HW2 2382   0.489   0.718   1.813 -1.2093 -0.6170  1.2108
  795SOL     OW 2383   2.847   1.347   0.430  0.3134  0.0074  0.0671
  795SOL    HW1 2384   2.821   1.433   0.385  0.5705  0.2124  0.1610
  795SOL    HW2 2385   2.902   1.372   0.515 -1.4318  0.5591  0.8649
  796SOL     OW 2386   0.362   2.563   3.106 -0.5189  0.2613  0.4942
  796SOL    HW1 2387   0.298   2.639   0.016 -1.0383  0.7688  0.6287
  796SOL    HW2 2388   0.375   2.493   0.061 -0.1767  0.2383 -3.4000
  797SOL     OW 2389   2.110   2.568   0.064  0.1191 -0.2096  0.6582
  797SOL    HW1 2390   2.155   2.489   0.012  1.2206 -2.5131 -0.2889
  797SOL    HW2 2391   2.015   2.552   0.091  1.2721  2.4656 -0.9896
  798SOL     OW 2392   0.229   0.973   1.649  0.0862  0.0512  0.0516
  798SOL    HW1 2393   0.313   0.918   1.679  0.8225 -1.8146 -0.4537
  798SOL    HW2 2394   0.244   1.016   1.560  2.7556  1.3010  2.0105
  799SOL     OW 2395   2.795   0.671   2.302 -0.0248  0.3404  0.0613
  799SOL    HW1 2396   2.870   0.680   2.232 -0.4559  0.2592  1.2909
  799SOL    HW2 2397   2.710   0.711   2.260 -3.2777 -0.4714 -0.2748
  800SOL     OW 2398   2.862   2.004   0.606 -0.0965 -0.2518 -0.1141
  800SOL    HW1 2399   2.903   2.035   0.518 -0.9420 -1.9766 -1.1558
  800SOL    HW2 2400   2.864   2.080   0.676  2.1651  0.3959  2.1829
  801SOL     OW 2401   1.706   1.195   1.114 -0.4069 -0.0835  0.5105
  801SOL    HW1 2402   1.609   1.186   1.141 -1.5521 -1.7123 -0.2810
  801SOL    HW2 2403   1.720   1.223   1.020  0.5215  2.0167  1.0767
  802SOL     OW 2404   1.128   1.905   1.482 -0.3953 -0.4144  0.3948
  802SOL    HW1 2405   1.219   1.928   1.527  1.5381  1.0733  0.6434
  802SOL    HW2 2406   1.092   1.984   1.432  0.8211  0.7494  1.7102
  803SOL     OW 2407   0.102   1.797   0.470  0.2879  0.2016  0.9419
  803SOL    HW1 2408   0.049   1.754   0.393 -2.7298 -0.5536 -1.9136
  803SOL    HW2 2409   0.156   1.873   0.439 -0.0346  1.0643 -0.7602
  804SOL     OW 2410   1.008   2.717   1.391  0.0193  0.2784 -0.5692
  804SOL    HW1 2411   1.072   2.661   1.448 -2.1907 -0.8575  0.1478
  804SOL    HW2 2412   0.911   2.682   1.399  0.3885  0.5454  2.6662
  805SOL     OW 2413   1.644   1.281   0.012 -0.0732  0.6771 -0.1290
  805SOL    HW1 2414   1.644   1.380   0.019 -1.4964  0.1090 -0.8273
  805SOL    HW2 2415   1.551   1.244   0.036 -2.0961 -0.8406 -1.3960
  806SOL     OW 2416   1.538   3.041   1.299  0.3447 -0.2289  0.0076
  806SOL    HW1 2417   1.437   3.044   1.281  0.5050  1.3229  0.0904
  806SOL    HW2 2418   1.564   3.078   1.391  0.5844  0.1255  0.6158
  807SOL     OW 2419   2.202   2.991   2.761 -0.3234 -0.2140 -0.5244
  807SOL    HW1 2420   2.239   3.062   2.693 -0.3288 -1.8478  1.5950
  807SOL    HW2 2421   2.264   2.909   2.771  0.8644 -0.6394 -0.7987
  808SOL     OW 2422   0.044   1.238   0.087 -0.0137 -0.2830 -0.4874
  808SOL    HW1 2423   3.062   1.259   0.102 -1.3939 -2.1585  1.1335
  808SOL    HW2 2424   0.068   1.142   0.110  2.3809  1.1591  1.0742
  809SOL     OW 2425   2.715   0.952   2.269  0.0156  0.1240  0.3593
  809SOL    HW1 2426   2.804   0.982   2.224  1.1466  0.1228 -0.0153
  809SOL    HW2 2427   2.657   0.894   2.208  2.6069 -1.0620  2.7698
  810SOL     OW 2428   2.323   0.162   1.957  0.2232 -0.3420 -0.0482
  810SOL    HW1 2429   2.375   0.243   1.922 -2.5094 -0.6380  1.3500
  810SOL    HW2 2430   2.272   0.141   1.873  1.6822  0.6332  0.5307
  811SOL     OW 2431   2.568   2.564   1.810 -0.6726  0.6649  0.1748
  811SOL    HW1 2432   2.545   2.650   1.861 -0.5740  0.2301 -0.6277
  811SOL    HW2 2433   2.668   2.542   1.821 -0.3549 -1.3609 -1.1004
  812SOL     OW 2434   1.605   0.290   0.057  0.2237  0.2892 -0.4957
  812SOL    HW1 2435   1.576   0.287   3.075  0.3556  0.5542 -2.1444
  812SOL    HW2 2436   1.697   0.254   0.061 -1.3287  1.4084  0.3279
  813SOL     OW 2437   1.865   0.466   1.844  0.4663  0.0701  0.3361
  813SOL    HW1 2438   1.910   0.372   1.843  0.0955 -2.2192 -0.4143
  813SOL    HW2 2439   1.862   0.498   1.747 -2.3155 -3.0877  1.6461
  814SOL     OW 2440   1.764   1.256   1.599  0.3610  0.3055 -0.2376
  814SOL    HW1 2441   1.767   1.291   1.696 -3.2235 -0.6483  0.2335
  814SOL    HW2 2442   1.693   1.310   1.554 -0.0583  0.1012 -0.1222
  815SOL     OW 2443   0.402   0.825   0.527 -0.3400 -0.3529  0.1237
  815SOL    HW1 2444   0.404   0.839   0.424  1.6983  1.1575  0.2809
  815SOL    HW2 2445   0.407   0.915   0.573 -0.6597 -2.0851 -0.0307
  816SOL     OW 2446   1.777   1.765   2.722  0.4181 -0.1803  0.7068
  816SOL    HW1 2447   1.809   1.764   2.626  1.9066 -0.0779  0.0328
  816SOL    HW2 2448   1.716   1.679   2.739  0.5255 -4.2746 -1.8167
  817SOL     OW 2449   0.234   2.993   0.687 -0.0763  0.0528  0.0076
  817SOL    HW1 2450   0.240   3.048   0.772 -0.0844 -0.3225 -0.9484
  817SOL    HW2 2451   0.309   2.924   0.673 -0.7696  2.7022  2.4549
  818SOL     OW 2452   2.031   0.134   2.561 -0.4703 -0.6451  0.0172
  818SOL    HW1 2453   1.966   0.063   2.573 -0.5122  3.9802  0.1679
  818SOL    HW2 2454   2.020   0.216   2.630 -1.0828  1.1487  3.4975
  819SOL     OW 2455   1.188   1.082   0.524  0.1082  0.0798  0.0270
  819SOL    HW1 2456   1.258   1.017   0.484  1.4121 -0.9507  1.3915
  819SOL    HW2 2457   1.136   1.034   0.596 -0.8687  0.2693  1.6264
  820SOL     OW 2458   2.206   0.960   0.853 -0.4841 -0.1556  0.2929
  820SOL    HW1 2459   2.259   1.021   0.918  1.7573  1.6898 -0.5846
  820SOL    HW2 2460   2.126   0.999   0.807 -1.1761  0.0587  2.5050
  821SOL     OW 2461   2.353   0.073   0.465  0.0156 -0.3508  0.1865
  821SOL    HW1 2462   2.385   0.042   0.374  0.3085  2.5763  4.0380
  821SOL    HW2 2463   2.254   0.091   0.455 -0.2201 -0.5378  0.1226
  822SOL     OW 2464   0.556   2.725   2.578  0.0506 -0.0067  0.9479
  822SOL    HW1 2465   0.600   2.666   2.650 -1.8561 -2.3255  1.7265
  822SOL    HW2 2466   0.456   2.708   2.582 -0.7363  0.5980 -1.8624
  823SOL     OW 2467   0.015   2.359   1.916  0.2444 -0.0104 -0.1738
  823SOL    HW1 2468   3.051   2.302   1.941  0.1565  0.7688 -2.5859
  823SOL    HW2 2469   3.105   2.425   1.841  0.7479  1.9540  0.0028
  824SOL     OW 2470   0.845   2.815   2.156  0.4311  0.0974 -0.2902
  824SOL    HW1 2471   0.942   2.845   2.167  1.1235  1.0701 -2.6227
  824SOL    HW2 2472   0.845   2.719   2.121  0.0503 -0.6047 -0.0077
  825SOL     OW 2473   1.372   1.790   0.442  0.8015 -0.0611 -0.2417
  825SOL    HW1 2474   1.425   1.705   0.432 -2.9910  0.8305 -1.2235
  825SOL    HW2 2475   1.272   1.760   0.445 -1.5801 -0.2112 -0.5022
  826SOL     OW 2476   1.304   2.981   2.963 -0.1449  0.3194  0.1987
  826SOL    HW1 2477   1.208   3.001   2.926  0.8508 -1.3051 -1.3246
  826SOL    HW2 2478   1.304   2.897   3.018  0.4994 -1.3545  0.0857
  827SOL     OW 2479   0.208   1.685   1.415  0.1500 -0.1735 -0.6970
  827SOL    HW1 2480   0.309   1.702   1.431 -2.2272  1.1441 -0.9728
  827SOL    HW2 2481   0.194   1.592   1.372  0.4013  0.9572 -2.5427
  828SOL     OW 2482   2.493   1.308   1.459  0.1599  0.1874  0.2392
  828SOL    HW1 2483   2.449   1.291   1.370 -0.0757  0.7818  0.6107
  828SOL    HW2 2484   2.590   1.274   1.451  0.3549 -1.2585  0.0509
  829SOL     OW 2485   3.005   2.103   0.415 -0.3218 -0.2452 -0.2080
  829SOL    HW1 2486   3.079   2.119   0.481 -3.5262  0.7297 -1.7623
  829SOL    HW2 2487   3.045   2.073   0.325 -0.5862 -1.0853 -0.6018
  830SOL     OW 2488   1.097   0.620   0.488  0.5056 -0.0157  0.5430
  830SOL    HW1 2489   1.171   0.683   0.518  0.4967 -0.2956 -3.2522
  830SOL    HW2 2490   1.017   0.645   0.544  1.7551  1.9530  1.4816
  831SOL     OW 2491   2.796   1.944   0.080  0.4863 -0.2629  0.0385
  831SOL    HW1 2492   2.830   1.857   0.110 -1.3691  0.0686 -1.0240
  831SOL    HW2 2493   2.713   1.977   0.130 -0.2084 -0.0667  1.4319
  832SOL     OW 2494   0.959   2.687   0.322  0.6885  0.1766  0.3533
  832SOL    HW1 2495   0.895   2.737   0.384  4.2637  1.3381 -0.5979
  832SOL    HW2 2496   1.047   2.666   0.369 -0.2681 -2.6058 -0.5243
  833SOL     OW 2497   1.401   0.579   2.356 -0.5157  0.5275  0.1317
  833SOL    HW1 2498   1.316   0.562   2.307  0.6048 -1.3696 -0.1499
  833SOL    HW2 2499   1.467   0.632   2.300 -0.1797  1.2036  0.2289
  834SOL     OW 2500   3.083   0.963   0.825 -0.2152  0.0157  0.3823
  834SOL    HW1 2501   3.015   0.994   0.754 -1.2060 -0.4156 -3.8562
  834SOL    HW2 2502   3.097   0.863   0.821  1.0616 -0.0427 -1.3947
  835SOL     OW 2503   2.633   0.477   2.001 -0.1495  0.2291 -0.0467
  835SOL    HW1 2504   2.635   0.572   1.956 -0.4899  2.4589 -1.3210
  835SOL    HW2 2505   2.580   0.489   2.088 -1.4727  1.5116  2.1738
  836SOL     OW 2506   0.581   2.280   0.893 -0.3153  0.1419 -0.0346
  836SOL    HW1 2507   0.552   2.360   0.836  2.0091  0.7405  2.6874
  836SOL    HW2 2508   0.651   2.228   0.843 -5.4851 -2.3028 -1.8575
  837SOL     OW 2509   2.223   1.790   2.145  0.6392  0.6683  0.0469
  837SOL    HW1 2510   2.321   1.779   2.122 -1.4119 -0.1197  3.1852
  837SOL    HW2 2511   2.208   1.773   2.246 -0.6911  0.6135  1.3029
  838SOL     OW 2512   0.254   1.331   1.685  0.3058  0.0296  0.1448
  838SOL    HW1 2513   0.304   1.337   1.598 -1.2405  0.4532  1.4229
  838SOL    HW2 2514   0.209   1.415   1.713  2.0014 -0.0964 -0.2664
  839SOL     OW 2515   0.140   0.300   0.459 -0.3090  0.2321 -0.2948
  839SOL    HW1 2516   0.219   0.357   0.426 -1.7154 -0.5953  1.0477
  839SOL    HW2 2517   0.156   0.201   0.438  0.1956 -0.8043  1.3518
  840SOL     OW 2518   0.042   0.662   2.471  0.1554 -0.1291 -0.3360
  840SOL    HW1 2519   3.082   0.733   2.464 -1.9623  1.2111  0.4253
  840SOL    HW2 2520   0.003   0.569   2.484 -0.3976  0.2104  2.4501
  841SOL     OW 2521   0.407   2.278   2.776  0.0328 -0.4283  0.0324
  841SOL    HW1 2522   0.412   2.182   2.778 -0.8948  1.8240 -0.0785
  841SOL    HW2 2523   0.465   2.321   2.843 -1.7531 -3.0447 -0.9151
  842SOL     OW 2524   0.674   3.106   0.995 -0.2227 -0.4830 -0.4681
  842SOL    HW1 2525   0.678   3.006   1.008 -0.9554 -0.1628  0.0600
  842SOL    HW2 2526   0.601   0.010   0.931  0.0285 -1.3064  0.1460
  843SOL     OW 2527   0.469   1.497   2.801  0.4947 -0.5013 -0.0815
  843SOL    HW1 2528   0.559   1.527   2.837 -0.1231 -0.6730  0.7416
  843SOL    HW2 2529   0.482   1.396   2.774  1.3659 -0.6630 -0.8157
  844SOL     OW 2530   0.824   2.016   2.505  0.0930 -0.1383  0.1364
  844SOL    HW1 2531   0.797   2.052   2.415 -0.2666  0.1092  0.4384
  844SOL    HW2 2532   0.917   1.969   2.500  2.1359 -0.0719  1.1226
  845SOL     OW 2533   2.533   2.762   2.609 -0.6497  0.3291  0.1127
  845SOL    HW1 2534   2.587   2.847   2.605  0.3601 -2.2577 -0.5775
  845SOL    HW2 2535   2.470   2.752   2.529  0.9843 -3.1561 -0.9825
  846SOL     OW 2536   2.078   1.259   3.028  0.1147 -0.0173 -0.0536
  846SOL    HW1 2537   2.025   1.345   3.022 -0.6159 -1.3481 -0.0116
  846SOL    HW2 2538   2.177   1.272   3.045 -1.9739  2.0025  3.2154
  847SOL     OW 2539   2.645   0.164   2.833 -0.5682 -0.2037  0.0472
  847SOL    HW1 2540   2.713   0.234   2.795  1.0387  2.2088 -0.8419
  847SOL    HW2 2541   2.551   0.201   2.813  0.7313 -1.4217 -1.9209
  848SOL     OW 2542   3.026   0.797   3.067  0.5774 -0.0795  0.1005
  848SOL    HW1 2543   2.981   0.793   2.977 -0.7161 -0.3014  0.2798
  848SOL    HW2 2544   3.090   0.717   3.075  0.9600 -3.0687 -0.3712
  849SOL     OW 2545   1.517   0.433   2.583 -0.0187 -0.4203 -0.2335
  849SOL    HW1 2546   1.447   0.392   2.643  2.0808  1.3909 -1.0463
  849SOL    HW2 2547   1.490   0.450   2.485  2.2363  1.3384 -1.6886
  850SOL     OW 2548   0.154   1.000   0.176 -0.4789 -0.0189  0.6046
  850SOL    HW1 2549   0.250   0.969   0.199  2.1315 -0.3632 -1.2353
  850SOL    HW2 2550   0.083   0.978   0.251 -0.6330  0.6105  1.2895
  851SOL     OW 2551   0.362   1.281   0.552  0.6367 -0.8686  0.5136
  851SOL    HW1 2552   0.396   1.376   0.556  0.8737  1.2011 -1.8881
  851SOL    HW2 2553   0.280   1.279   0.490  0.9020  0.9806  1.1963
  852SOL     OW 2554   1.090   1.238   1.477  0.6755 -0.0893  0.1009
  852SOL    HW1 2555   1.046   1.148   1.496 -0.9646 -0.6342 -1.0015
  852SOL    HW2 2556   1.193   1.235   1.477  0.7039  1.0527  0.8501
  853SOL     OW 2557   2.329   1.525   0.260 -0.2573  0.4436 -0.2431
  853SOL    HW1 2558   2.313   1.434   0.300  0.2915 -0.3913  0.2034
  853SOL    HW2 2559   2.240   1.563   0.225  0.1610 -0.2470 -0.6456
  854SOL     OW 2560   1.394   1.086   2.032  0.3438 -0.5593 -0.4278
  854SOL    HW1 2561   1.420   1.134   1.947 -0.1425 -0.9540  1.2780
  854SOL    HW2 2562   1.299   1.118   2.063 -0.8386  2.3657 -1.6293
  855SOL     OW 2563   0.436   2.357   2.522  0.3302 -0.1113 -0.0730
  855SOL    HW1 2564   0.418   2.312   2.615  0.0434 -1.6443  0.1326
  855SOL    HW2 2565   0.536   2.372   2.511  1.7519 -1.8726 -0.6164
  856SOL     OW 2566   1.088   0.945   1.946  0.1134 -0.5194 -0.1269
  856SOL    HW1 2567   1.144   0.983   1.869  2.0032 -2.8788 -0.2903
  856SOL    HW2 2568   0.991   0.924   1.930  2.3143 -1.5918  3.1451
  857SOL     OW 2569   1.019   1.045   2.321  0.1127  0.1421 -0.0757
  857SOL    HW1 2570   0.946   1.085   2.375  3.1080 -0.2758 -0.3517
  857SOL    HW2 2571   1.089   1.117   2.286 -0.3834  1.8298 -0.1938
  858SOL     OW 2572   2.971   0.962   1.711  0.4306 -0.1490 -0.1155
  858SOL    HW1 2573   3.024   1.051   1.724  0.6985  1.0971  1.7065
  858SOL    HW2 2574   3.035   0.892   1.676 -1.0395  1.3430  1.5263
  859SOL     OW 2575   2.507   0.006   0.888 -0.1755 -0.4800  0.5196
  859SOL    HW1 2576   2.538   3.102   0.792  0.6756 -2.4354  0.3946
  859SOL    HW2 2577   2.564   3.084   0.956 -0.6911 -0.5355 -0.5526
  860SOL     OW 2578   1.757   0.432   1.018  0.1352  0.1256  0.0080
  860SOL    HW1 2579   1.798   0.520   1.040 -2.1979 -1.7995 -2.3941
  860SOL    HW2 2580   1.756   0.371   1.099 -2.0440 -2.7962 -2.3371
  861SOL     OW 2581   1.836   0.669   1.089  0.4620  0.1436  0.4556
  861SOL    HW1 2582   1.777   0.707   1.163  1.3561 -0.8802  1.1312
  861SOL    HW2 2583   1.837   0.731   1.009 -0.8279  1.4300  1.4118
  862SOL     OW 2584   1.278   3.050   2.586 -0.2988  0.4839 -0.7461
  862SOL    HW1 2585   1.255   2.986   2.510  2.3778  1.5160 -0.9694
  862SOL    HW2 2586   1.352   3.014   2.646 -0.9412  0.0052  2.3217
  863SOL     OW 2587   2.747   2.843   1.326  0.3213 -0.0301  0.2485
  863SOL    HW1 2588   2.778   2.941   1.325 -0.0788  0.9565  3.4962
  863SOL    HW2 2589   2.816   2.784   1.281 -1.7740  2.6537  0.8215
  864SOL     OW 2590   2.703   0.053   2.016  0.1928 -0.4847 -0.0287
  864SOL    HW1 2591   2.770   3.094   2.042  0.8504  0.6841  3.3016
  864SOL    HW2 2592   2.609   0.029   2.039  3.4081 -1.4506  1.3113
  865SOL     OW 2593   1.133   1.244   2.675  0.0790  0.4141  0.1675
  865SOL    HW1 2594   1.124   1.143   2.662  1.0582  1.7756 -0.0370
  865SOL    HW2 2595   1.050   1.294   2.644 -2.4326  2.9891 -0.6980
  866SOL     OW 2596   2.230   3.076   0.815  0.1364 -0.1581  0.0903
  866SOL    HW1 2597   2.225   2.978   0.783 -1.4293  0.3059 -0.6851
  866SOL    HW2 2598   2.323   3.092   0.853 -0.0045  0.9552 -0.9521
  867SOL     OW 2599   2.922   2.702   1.163  0.6289  0.4154 -0.4712
  867SOL    HW1 2600   2.943   2.777   1.101 -2.1166  0.6222  0.5485
  867SOL    HW2 2601   2.984   2.620   1.158 -0.9788 -0.7648 -0.5535
  868SOL     OW 2602   3.110   1.635   1.591  0.0581  0.3034 -0.3277
  868SOL    HW1 2603   0.062   1.668   1.522  1.0902  1.5057 -0.5271
  868SOL    HW2 2604   0.034   1.618   1.680  1.1053  2.1650  1.0058
  869SOL     OW 2605   1.861   2.018   2.342  0.2618 -0.1420 -0.4983
  869SOL    HW1 2606   1.826   2.088   2.408  2.1381  0.1044 -1.9455
  869SOL    HW2 2607   1.883   1.937   2.399  2.9081  2.7627  1.7055
  870SOL     OW 2608   1.314   0.777   0.621 -0.1151  0.7411  0.4560
  870SOL    HW1 2609   1.289   0.854   0.687  0.1712 -0.5609 -0.5016
  870SOL    HW2 2610   1.360   0.699   0.669  0.2081  0.6458 -0.9339
  871SOL     OW 2611   2.821   1.733   2.031 -0.6309 -0.4062 -0.3436
  871SOL    HW1 2612   2.751   1.786   1.985 -0.6867 -0.1460  1.3404
  871SOL    HW2 2613   2.811   1.734   2.133 -1.4109  0.5740  1.3982
  872SOL     OW 2614   0.989   1.565   2.904 -0.5326  0.5042 -0.3732
  872SOL    HW1 2615   1.082   1.596   2.921 -1.1722  0.9274  0.6291
  872SOL    HW2 2616   0.957   1.507   2.982  1.2002  0.2469 -3.0283
  873SOL     OW 2617   0.902   1.514   1.753 -0.3505  0.2435 -0.1029
  873SOL    HW1 2618   0.810   1.512   1.797  1.5527 -0.8331  0.4015
  873SOL    HW2 2619   0.927   1.604   1.711 -0.3115  1.8236 -0.5746
  874SOL     OW 2620   1.342   1.155   1.414 -0.5553 -0.3186  0.1012
  874SOL    HW1 2621   1.403   1.234   1.427  0.6838  1.4080 -0.7904
  874SOL    HW2 2622   1.353   1.114   1.322 -0.6858 -0.0703 -1.0617
  875SOL     OW 2623   2.838   0.081   2.543 -0.2932 -0.0960 -0.6315
  875SOL    HW1 2624   2.823   0.164   2.599 -0.1085 -1.3487 -1.3429
  875SOL    HW2 2625   2.856   0.104   2.449 -0.7014  0.6717  1.5024
  876SOL     OW 2626   1.081   1.327   0.374 -0.1163 -0.2075  0.3908
  876SOL    HW1 2627   0.992   1.367   0.350  4.3222  0.2386  2.8846
  876SOL    HW2 2628   1.082   1.225   0.370 -0.9873  0.9116 -0.3141
  877SOL     OW 2629   2.186   2.763   0.257  0.1558  0.8856  0.0052
  877SOL    HW1 2630   2.257   2.711   0.312 -1.1616 -1.3411 -0.3985
  877SOL    HW2 2631   2.148   2.697   0.195 -0.0645  1.7357  1.3105
  878SOL     OW 2632   1.943   2.241   0.181  0.2419 -0.1606 -0.3557
  878SOL    HW1 2633   2.027   2.245   0.236  3.5583  0.8122 -1.4372
  878SOL    HW2 2634   1.863   2.235   0.244  1.1231  2.7507  2.7786
  879SOL     OW 2635   3.048   1.962   1.955 -0.0929  0.0624  0.0980
  879SOL    HW1 2636   2.983   1.885   1.954 -1.1769  2.3264  0.1936
  879SOL    HW2 2637   3.001   2.053   1.952  2.7172 -0.2106 -0.7587
  880SOL     OW 2638   0.283   1.892   0.994  0.3090 -0.4998 -0.4704
  880SOL    HW1 2639   0.217   1.896   1.074  1.2158 -1.6119  1.2260
  880SOL    HW2 2640   0.311   1.986   0.969 -3.2819 -0.4871  2.0870
  881SOL     OW 2641   1.052   0.115   2.334  0.3405  0.2337 -0.2320
  881SOL    HW1 2642   1.068   0.146   2.431  0.6588  1.4574  0.0100
  881SOL    HW2 2643   0.999   0.029   2.330  4.1119  0.3718 -1.3973
  882SOL     OW 2644   2.571   1.112   0.844  0.0785  0.0034 -0.3225
  882SOL    HW1 2645   2.572   1.013   0.817  0.6521 -0.3254  0.0452
  882SOL    HW2 2646   2.620   1.119   0.932 -2.1286  2.1723  0.3214
  883SOL     OW 2647   1.671   0.405   2.027 -0.1104  0.0113 -0.1277
  883SOL    HW1 2648   1.653   0.492   2.075 -2.2920  0.5512 -1.8532
  883SOL    HW2 2649   1.732   0.422   1.952 -0.9527  4.3629  1.4358
  884SOL     OW 2650   2.913   0.040   1.710  0.2041  0.4591 -0.1954
  884SOL    HW1 2651   2.844   0.112   1.704  1.9858 -0.6287  0.8551
  884SOL    HW2 2652   2.959   0.015   1.623 -0.1499  1.4599  1.4149
  885SOL     OW 2653   1.900   1.365   2.646  0.1440  0.2642 -0.3570
  885SOL    HW1 2654   1.932   1.416   2.728  1.8212  2.4457  2.7520
  885SOL    HW2 2655   1.804   1.330   2.660  1.5745 -1.2588 -0.6946
  886SOL     OW 2656   2.231   0.272   3.010  0.1221  0.1769  0.2034
  886SOL    HW1 2657   2.309   0.306   3.065  0.3349  0.2433  0.0865
  886SOL    HW2 2658   2.160   0.341   3.010  2.3603 -0.2406  0.7489
  887SOL     OW 2659   1.199   2.796   1.784  0.1973  0.2439  0.1245
  887SOL    HW1 2660   1.273   2.783   1.857 -1.4024 -2.4352  2.1276
  887SOL    HW2 2661   1.231   2.774   1.690  1.5074 -1.4046 -2.1530
  888SOL     OW 2662   2.094   1.772   1.897  0.0140  0.4439 -0.1441
  888SOL    HW1 2663   2.154   1.798   1.975  1.2676 -2.2616  2.7395
  888SOL    HW2 2664   2.153   1.736   1.821 -1.2658  0.4468  0.2564
  889SOL     OW 2665   1.864   2.316   1.308 -0.6035 -0.1172  0.3103
  889SOL    HW1 2666   1.947   2.374   1.325 -2.2086  1.6507 -0.5622
  889SOL    HW2 2667   1.880   2.245   1.236 -3.3291 -0.7961  0.0286
  890SOL     OW 2668   1.265   1.825   1.055  0.1318  0.1206  0.3447
  890SOL    HW1 2669   1.302   1.834   1.147 -0.4590 -1.7438  1.1468
  890SOL    HW2 2670   1.166   1.824   1.070  0.8757  1.9561  2.6520
  891SOL     OW 2671   2.899   1.239   0.156  0.1515  0.1727 -0.0598
  891SOL    HW1 2672   2.891   1.144   0.117 -0.3584 -0.8800  0.3942
  891SOL    HW2 2673   2.859   1.247   0.251 -1.7967 -0.4046  1.3650
  892SOL     OW 2674   2.386   1.424   3.115 -0.1983 -0.2844 -0.4984
  892SOL    HW1 2675   2.455   1.355   3.099 -1.3558  1.3553  3.0042
  892SOL    HW2 2676   2.389   1.446   0.099  1.2857 -0.7054  3.0262
  893SOL     OW 2677   2.070   2.454   1.434 -0.2617 -0.2533 -0.2499
  893SOL    HW1 2678   2.137   2.526   1.396 -1.0011  1.0597 -1.8698
  893SOL    HW2 2679   2.133   2.379   1.477 -0.0367 -0.8109  1.3573
  894SOL     OW 2680   2.501   0.291   0.845  0.2118 -0.4860 -0.7943
  894SOL    HW1 2681   2.482   0.293   0.744 -1.4311  0.0512 -3.2060
  894SOL    HW2 2682   2.494   0.196   0.882  0.0920  2.5381  0.0279
  895SOL     OW 2683   2.971   2.647   2.578  0.1348  0.1013  0.1974
  895SOL    HW1 2684   2.940   2.746   2.565 -2.4446  1.9172 -2.0978
  895SOL    HW2 2685   2.901   2.583   2.543 -1.1091 -1.1500  1.7100
  896SOL     OW 2686   2.283   0.058   2.606  0.1374 -0.3306  0.2316
  896SOL    HW1 2687   2.189   0.072   2.572  0.4209 -1.2488  0.4643
  896SOL    HW2 2688   2.314   0.135   2.665 -0.1462 -1.0319 -0.7439
  897SOL     OW 2689   0.217   1.672   2.059  0.0973 -0.0816  0.3013
  897SOL    HW1 2690   0.129   1.622   2.056 -1.4678  0.3365  2.7236
  897SOL    HW2 2691   0.289   1.612   2.098  0.0258  0.2837 -0.9903
  898SOL     OW 2692   2.926   1.854   1.591  0.6815 -0.3178  0.4693
  898SOL    HW1 2693   2.986   1.777   1.606  0.1054  3.3561 -0.1866
  898SOL    HW2 2694   2.842   1.835   1.531 -3.5070 -0.5611 -1.4266
  899SOL     OW 2695   1.861   3.032   1.564 -0.1348 -0.4429  0.1718
  899SOL    HW1 2696   1.860   3.088   1.648  1.0495  0.3884  2.5175
  899SOL    HW2 2697   1.920   2.953   1.577 -0.3734 -1.1851 -0.3080
  900SOL     OW 2698   1.322   0.960   0.186 -0.6972 -0.2553 -0.1672
  900SOL    HW1 2699   1.274   0.876   0.151  0.2254  2.6836 -0.4171
  900SOL    HW2 2700   1.356   0.934   0.276  2.6244 -0.9477  2.4579
  901SOL     OW 2701   1.198   0.992   2.746 -0.2211 -0.0099 -0.4826
  901SOL    HW1 2702   1.292   1.009   2.768 -0.1384  0.5840  1.8862
  901SOL    HW2 2703   1.173   0.891   2.751 -2.3101  0.7977  0.8906
  902SOL     OW 2704   2.898   2.437   0.582 -0.1007  0.0905 -0.2033
  902SOL    HW1 2705   2.978   2.428   0.518  1.3559  1.0467 -1.4766
  902SOL    HW2 2706   2.900   2.366   0.651 -1.2932  1.6368 -3.1981
  903SOL     OW 2707   2.909   1.294   1.877  0.2432  0.0453  0.0361
  903SOL    HW1 2708   2.843   1.216   1.884 -2.2858 -0.5263  0.4795
  903SOL    HW2 2709   3.002   1.276   1.845 -0.0095  0.1829  0.0774
  904SOL     OW 2710   1.945   1.054   0.448  0.0944 -0.4637  0.2107
  904SOL    HW1 2711   1.972   0.958   0.411 -0.9855 -1.8867  1.5124
  904SOL    HW2 2712   1.986   1.129   0.387  2.3886 -0.3875  0.2080
  905SOL     OW 2713   2.239   2.656   1.340 -0.3657 -0.4834  0.1504
  905SOL    HW1 2714   2.208   2.751   1.308  0.7754  2.1503 -0.5990
  905SOL    HW2 2715   2.342   2.669   1.342 -0.0638  1.2537  3.3565
  906SOL     OW 2716   1.497   2.352   0.014  0.1748  0.1984 -0.3414
  906SOL    HW1 2717   1.541   2.429   0.062 -0.8533 -1.6459 -0.3064
  906SOL    HW2 2718   1.560   2.312   3.064  0.6717  2.2291  0.2487
  907SOL     OW 2719   0.439   2.708   0.922 -0.4026 -0.5284 -0.1892
  907SOL    HW1 2720   0.353   2.682   0.967 -0.4457  0.6773 -3.1945
  907SOL    HW2 2721   0.458   2.809   0.936 -0.7558  2.4117  1.4058
  908SOL     OW 2722   0.706   0.098   2.223 -0.3001 -0.1479  0.4699
  908SOL    HW1 2723   0.743   0.019   2.275  0.7658  1.6482 -0.5466
  908SOL    HW2 2724   0.749   0.112   2.133 -1.6309 -1.8450 -0.0205
  909SOL     OW 2725   2.176   0.750   1.570 -0.4435 -0.4369 -0.7050
  909SOL    HW1 2726   2.163   0.666   1.518  0.8909  1.4224  0.7948
  909SOL    HW2 2727   2.103   0.818   1.565  0.6998  3.0244  0.5699
  910SOL     OW 2728   1.254   0.722   0.075 -0.4208 -0.3583 -0.1210
  910SOL    HW1 2729   1.155   0.695   0.096  0.7796  0.3956 -1.1344
  910SOL    HW2 2730   1.302   0.638   0.041 -0.5086  1.4420 -1.6840
  911SOL     OW 2731   0.026   0.553   0.008 -0.3110  0.8623  0.1532
  911SOL    HW1 2732   3.053   0.524   0.039 -1.6321  0.8348  1.1134
  911SOL    HW2 2733   0.090   0.477   0.003  2.3239  0.9062  1.9309
  912SOL     OW 2734   0.056   2.467   0.182 -0.8643  0.2469 -0.3868
  912SOL    HW1 2735   0.148   2.453   0.216 -1.1150  2.7117  0.3421
  912SOL    HW2 2736   0.041   2.409   0.096 -1.0385  0.6950 -0.9634
  913SOL     OW 2737   2.615   2.406   2.924 -0.1232 -0.2008  0.6130
  913SOL    HW1 2738   2.644   2.328   2.866  0.3793  0.5338 -1.0734
  913SOL    HW2 2739   2.631   2.491   2.872 -0.5072 -3.0085  2.1424
  914SOL     OW 2740   1.649   1.713   1.622  0.0994 -0.1278 -0.2631
  914SOL    HW1 2741   1.564   1.753   1.659 -2.4362 -3.8124  0.7976
  914SOL    HW2 2742   1.735   1.753   1.658  0.6404 -1.4840  1.0856
  915SOL     OW 2743   0.013   2.393   2.357  0.3224 -0.4199  0.1171
  915SOL    HW1 2744   0.103   2.419   2.396 -2.0026  0.8401 -1.7390
  915SOL    HW2 2745   0.011   2.300   2.321 -0.4525  2.6395 -0.4449
  916SOL     OW 2746   3.105   1.200   1.702  0.0443  0.3277  0.1306
  916SOL    HW1 2747   0.091   1.196   1.704  1.2582 -0.9271 -0.7031
  916SOL    HW2 2748   3.070   1.239   1.618 -0.7955 -2.5881  2.8339
  917SOL     OW 2749   2.171   0.012   3.012  0.1599  0.0881  0.4519
  917SOL    HW1 2750   2.152   3.076   2.925 -0.2407 -3.3338 -4.5145
  917SOL    HW2 2751   2.182   0.114   2.994 -0.1648 -1.3599  0.2703
  918SOL     OW 2752   1.739   2.510   2.160  1.1317 -0.0768  1.1385
  918SOL    HW1 2753   1.705   2.487   2.063 -0.4480 -1.3381 -2.2352
  918SOL    HW2 2754   1.740   2.611   2.176 -1.4750  0.7824  0.4744
  919SOL     OW 2755   1.752   2.224   1.786  0.6345  0.1083  0.9015
  919SOL    HW1 2756   1.800   2.211   1.697  1.2843  0.5951  0.0252
  919SOL    HW2 2757   1.717   2.129   1.818  0.4544 -1.7092  0.4964
  920SOL     OW 2758   0.561   0.896   0.066  0.0814  0.0874  0.1169
  920SOL    HW1 2759   0.604   0.989   0.060  2.6428  1.5488  0.3206
  920SOL    HW2 2760   0.552   0.844   3.096  2.2221 -4.7131 -0.2843
  921SOL     OW 2761   2.974   1.068   2.658 -0.4794  0.3521  0.1219
  921SOL    HW1 2762   2.899   1.072   2.723  0.9526  0.8526  0.0522
  921SOL    HW2 2763   2.936   1.091   2.568 -1.7287  1.0924  2.4230
  922SOL     OW 2764   0.299   1.912   0.283  0.4814  0.9248  0.0236
  922SOL    HW1 2765   0.247   1.835   0.236  0.4303 -2.0645 -0.1816
  922SOL    HW2 2766   0.396   1.891   0.269 -3.4970 -0.8520 -0.7214
  923SOL     OW 2767   0.547   0.951   1.966 -0.5422 -0.0771 -0.0794
  923SOL    HW1 2768   0.460   0.960   1.910 -4.0750 -2.7866 -1.6690
  923SOL    HW2 2769   0.533   0.881   2.037  0.9356  1.4507  1.8719
  924SOL     OW 2770   1.094   2.993   2.797 -0.4137 -0.0720  1.0542
  924SOL    HW1 2771   1.160   3.013   2.721  0.9927 -0.5504 -0.1153
  924SOL    HW2 2772   0.997   3.007   2.774 -1.1543 -0.6366  0.0536
  925SOL     OW 2773   2.154   1.354   0.994  0.2080  0.1315 -0.6401
  925SOL    HW1 2774   2.155   1.439   1.050  0.7208 -1.8619 -2.8932
  925SOL    HW2 2775   2.234   1.355   0.933  1.4951 -0.0922  0.0727
  926SOL     OW 2776   1.963   0.579   2.080  0.3506  0.3670 -0.0204
  926SOL    HW1 2777   1.944   0.538   1.987 -1.4571  2.1766 -1.9723
  926SOL    HW2 2778   1.918   0.528   2.156 -4.2076 -1.2649 -0.1424
  927SOL     OW 2779   2.857   2.544   1.850 -0.3069 -0.8058 -0.3138
  927SOL    HW1 2780   2.933   2.614   1.839  1.7822 -1.0001 -0.6781
  927SOL    HW2 2781   2.867   2.491   1.939 -0.9853 -1.8971 -0.4076
  928SOL     OW 2782   0.486   0.993   2.624 -0.2127 -0.5275  0.6787
  928SOL    HW1 2783   0.418   0.962   2.693  0.3182 -2.4914  0.6698
  928SOL    HW2 2784   0.452   0.975   2.527 -0.3505  1.7537 -1.2254
  929SOL     OW 2785   2.825   3.077   0.871  0.4654  0.5952 -0.1870
  929SOL    HW1 2786   2.833   0.040   0.805  1.2625 -0.7355  0.6686
  929SOL    HW2 2787   2.826   2.992   0.811  1.4181  0.3022 -1.5582
  930SOL     OW 2788   2.473   0.367   1.481 -0.7150 -0.1993 -0.0681
  930SOL    HW1 2789   2.484   0.383   1.580 -0.4129 -0.6026 -2.1226
  930SOL    HW2 2790   2.558   0.329   1.440 -1.7631  0.0699 -1.1075
  931SOL     OW 2791   2.321   1.082   0.077  0.0766  0.2641  0.3749
  931SOL    HW1 2792   2.342   1.091   3.095 -1.9141  2.3399 -2.7788
  931SOL    HW2 2793   2.398   1.033   0.126  1.6477 -1.8103  0.1561
  932SOL     OW 2794   2.494   1.636   1.468 -0.3743 -0.1281  0.2946
  932SOL    HW1 2795   2.457   1.588   1.549  1.4960  4.8825 -1.5228
  932SOL    HW2 2796   2.418   1.683   1.425  1.2139 -1.2056  1.4589
  933SOL     OW 2797   3.007   2.473   1.505  0.3846 -0.2835 -0.4756
  933SOL    HW1 2798   3.069   2.439   1.435 -3.6010 -1.5819  1.0222
  933SOL    HW2 2799   2.909   2.436   1.488  0.8150  0.7859  0.3344
  934SOL     OW 2800   0.859   2.226   1.235 -0.3948 -0.4449  0.2718
  934SOL    HW1 2801   0.831   2.278   1.152  2.7590  0.6199 -2.3770
  934SOL    HW2 2802   0.801   2.247   1.315  1.1681  1.4809  0.7701
  935SOL     OW 2803   2.493   1.689   2.140 -0.3543 -0.5750 -0.1477
  935SOL    HW1 2804   2.443   1.600   2.127 -1.6866 -2.0458  1.6920
  935SOL    HW2 2805   2.582   1.671   2.187  0.0995 -0.6944 -2.3573
  936SOL     OW 2806   2.365   1.459   1.640 -0.5217  0.0401 -0.6079
  936SOL    HW1 2807   2.410   1.382   1.579  3.5305 -1.4447 -0.3479
  936SOL    HW2 2808   2.417   1.461   1.726  0.5379  1.4210  1.4842
  937SOL     OW 2809   1.938   1.139   1.959 -0.1652 -0.4027 -0.1145
  937SOL    HW1 2810   1.989   1.064   1.916 -1.8247  1.7498 -0.0156
  937SOL    HW2 2811   1.880   1.104   2.036  1.2372  0.5460  1.7592
  938SOL     OW 2812   0.808   2.378   3.077  0.1738 -0.3506 -0.1964
  938SOL    HW1 2813   0.829   2.399   0.060  0.8116 -0.3033 -0.5212
  938SOL    HW2 2814   0.868   2.425   3.007 -0.6222 -1.3843 -1.4555
  939SOL     OW 2815   2.772   0.691   2.691 -0.2397 -0.0284 -0.5563
  939SOL    HW1 2816   2.729   0.778   2.663  2.0978  1.2892 -0.2984
  939SOL    HW2 2817   2.741   0.616   2.631  1.4069  0.6228 -0.7771
  940SOL     OW 2818   1.036   1.687   1.114 -1.1691  0.1901 -0.3588
  940SOL    HW1 2819   1.081   1.649   1.196 -1.0938  0.5058 -2.2039
  940SOL    HW2 2820   0.941   1.720   1.129  2.2727 -0.6099 -0.7656
  941SOL     OW 2821   0.776   2.319   2.021 -0.1012 -0.7680 -0.1042
  941SOL    HW1 2822   0.783   2.248   2.093 -0.1713  0.0201 -0.3526
  941SOL    HW2 2823   0.728   2.283   1.939 -1.9122  2.8018 -2.6246
  942SOL     OW 2824   0.049   1.959   2.951 -0.2791  0.4180 -0.5927
  942SOL    HW1 2825   0.081   2.038   3.007 -1.3957 -0.8791  2.7038
  942SOL    HW2 2826   0.097   1.950   2.861 -1.3080 -0.2579 -1.6836
  943SOL     OW 2827   1.822   2.651   1.818  0.1410  0.3201 -0.1167
  943SOL    HW1 2828   1.774   2.562   1.839  0.6783 -0.2535  1.5804
  943SOL    HW2 2829   1.859   2.647   1.721 -0.4083  1.3717 -0.3711
  944SOL     OW 2830   1.113   1.622   0.128 -0.8574 -0.1773 -0.1119
  944SOL    HW1 2831   1.150   1.689   0.061  0.4073 -1.0209 -0.4155
  944SOL    HW2 2832   1.178   1.543   0.135  1.7793  2.1266  0.9363
  945SOL     OW 2833   2.727   2.640   0.665 -0.4480  0.1601 -0.6102
  945SOL    HW1 2834   2.772   2.552   0.638  0.4649  0.1540  0.8958
  945SOL    HW2 2835   2.800   2.711   0.659  1.5394  0.3014 -1.0459
  946SOL     OW 2836   0.948   1.490   2.657 -0.4122  0.2180  0.3058
  946SOL    HW1 2837   0.958   1.512   2.753  0.2999 -3.1050 -1.8879
  946SOL    HW2 2838   0.983   1.568   2.601 -1.1552  1.3519 -3.6440
  947SOL     OW 2839   2.612   0.728   1.881 -0.2281  0.2733 -0.1002
  947SOL    HW1 2840   2.571   0.818   1.852  0.4720 -0.7413  0.1957
  947SOL    HW2 2841   2.680   0.695   1.812  1.6109 -0.2245 -2.6043
  948SOL     OW 2842   0.099   1.452   0.761  0.4365  0.0861 -0.2721
  948SOL    HW1 2843   0.127   1.358   0.786  2.2647  0.2595 -2.9114
  948SOL    HW2 2844   0.120   1.513   0.845  1.6070  2.0721  1.9416
  949SOL     OW 2845   0.784   0.744   2.217 -0.0172  0.0844 -0.5395
  949SOL    HW1 2846   0.884   0.770   2.216  2.0996 -0.6559  0.8943
  949SOL    HW2 2847   0.765   0.718   2.313 -0.3756 -0.3089 -0.2195
  950SOL     OW 2848   0.308   0.577   1.283 -0.0477 -0.3337 -0.5502
  950SOL    HW1 2849   0.364   0.649   1.330  1.2055  2.4984 -4.2622
  950SOL    HW2 2850   0.306   0.486   1.328  2.6077 -1.6971  1.0775
  951SOL     OW 2851   0.784   1.373   2.446 -1.0499  0.2786 -0.0612
  951SOL    HW1 2852   0.841   1.417   2.518 -0.5120  2.4659 -0.1665
  951SOL    HW2 2853   0.810   1.407   2.352 -0.7556 -1.4118 -1.1048
  952SOL     OW 2854   1.889   2.226   0.842  0.3378 -0.0979 -0.0406
  952SOL    HW1 2855   1.945   2.175   0.773  0.7133  0.1735 -0.4867
  952SOL    HW2 2856   1.928   2.320   0.848 -0.4350  0.1522  0.0116
  953SOL     OW 2857   0.793   0.790   0.180 -0.2373  0.0211 -0.2041
  953SOL    HW1 2858   0.813   0.844   0.264  1.4897 -0.1327  1.0900
  953SOL    HW2 2859   0.696   0.803   0.140 -2.0856  1.9465 -2.3122
  954SOL     OW 2860   2.149   0.823   1.125  0.4523 -0.5293 -0.5032
  954SOL    HW1 2861   2.237   0.859   1.086  3.3104  2.1270  0.0646
  954SOL    HW2 2862   2.107   0.754   1.065 -0.6018  1.0897  4.1122
  955SOL     OW 2863   2.037   1.296   0.312  0.0985 -0.3742  0.0656
  955SOL    HW1 2864   2.130   1.281   0.270  0.6254 -0.9341 -2.0235
  955SOL    HW2 2865   1.962   1.257   0.251  0.5064 -0.5323  1.1882
  956SOL     OW 2866   0.965   0.600   1.901 -0.1405  0.1581  0.0558
  956SOL    HW1 2867   0.883   0.551   1.859 -1.6313  0.8246 -3.0407
  956SOL    HW2 2868   1.024   0.519   1.935  0.7054 -0.7241  1.6244
  957SOL     OW 2869   1.665   0.259   1.252  0.0006 -0.7294  0.0501
  957SOL    HW1 2870   1.613   0.296   1.330 -0.1994  3.2709  0.6156
  957SOL    HW2 2871   1.743   0.201   1.283  3.0216 -0.3757  1.9589
  958SOL     OW 2872   0.339   2.029   0.559  0.2474 -0.2368 -0.0611
  958SOL    HW1 2873   0.349   1.994   0.466  2.1904 -1.2545  1.1447
  958SOL    HW2 2874   0.332   1.956   0.628  2.1749  1.5321  0.5778
  959SOL     OW 2875   2.381   1.170   1.853 -0.3166 -0.5731  0.4373
  959SOL    HW1 2876   2.284   1.145   1.845 -0.5519 -3.4886  1.3642
  959SOL    HW2 2877   2.404   1.266   1.855  0.9181 -0.5264 -0.0960
  960SOL     OW 2878   2.910   1.856   2.933 -0.2269 -0.7006 -0.5656
  960SOL    HW1 2879   2.999   1.900   2.938 -2.2606 -3.2409  1.6782
  960SOL    HW2 2880   2.859   1.888   3.015  1.1150 -1.8848 -0.8627
  961SOL     OW 2881   0.419   1.707   1.663 -0.1879 -0.2058 -0.4703
  961SOL    HW1 2882   0.464   1.704   1.573 -3.4238  1.4677  0.6381
  961SOL    HW2 2883   0.491   1.726   1.732  2.3079  0.7727  2.2174
  962SOL     OW 2884   0.949   1.110   0.881  0.0942 -0.1810 -0.0333
  962SOL    HW1 2885   1.005   1.045   0.931 -0.9197 -0.6839 -1.0539
  962SOL    HW2 2886   0.998   1.197   0.863 -0.6320 -0.7787  0.0343
  963SOL     OW 2887   1.082   1.940   2.600 -0.1938  0.5322  0.2824
  963SOL    HW1 2888   1.168   1.917   2.551 -3.5887 -0.2813  1.1939
  963SOL    HW2 2889   1.093   2.038   2.636  0.2706  1.8783 -0.4435
  964SOL     OW 2890   0.143   2.919   2.025  0.3993 -0.2462  0.8130
  964SOL    HW1 2891   0.082   2.837   2.029 -1.2209 -0.7041  1.9716
  964SOL    HW2 2892   0.233   2.900   2.074 -1.3162  0.1578  0.4124
  965SOL     OW 2893   0.165   1.896   2.723 -0.4027 -0.1900  0.0241
  965SOL    HW1 2894   0.202   1.805   2.736 -0.4953  1.1421  0.5456
  965SOL    HW2 2895   0.086   1.898   2.654 -2.0984  2.2796 -0.1140
  966SOL     OW 2896   0.056   1.701   3.051  0.2660 -0.2855 -0.6745
  966SOL    HW1 2897   0.025   1.623   2.989  0.2742  0.1603  1.6446
  966SOL    HW2 2898   0.053   1.790   3.002  0.8587 -0.2944  1.0146
  967SOL     OW 2899   2.088   2.995   0.137  0.2243  0.3274 -0.3373
  967SOL    HW1 2900   2.131   2.910   0.173 -3.6997 -0.2455 -1.5317
  967SOL    HW2 2901   2.115   3.015   0.044 -1.4055  0.8667 -1.6810
  968SOL     OW 2902   2.566   3.076   0.607  0.2255 -0.2997 -0.1263
  968SOL    HW1 2903   2.620   3.028   0.537  1.3113  0.3434 -0.8728
  968SOL    HW2 2904   2.487   0.001   0.565  5.5821 -0.7785  1.9856
  969SOL     OW 2905   0.288   1.274   1.945  0.1257 -0.2279 -0.0294
  969SOL    HW1 2906   0.298   1.312   1.848 -1.7477  0.6095 -1.7746
  969SOL    HW2 2907   0.289   1.168   1.943  2.7460  2.3232  1.2718
  970SOL     OW 2908   1.662   1.783   0.121 -0.2658  0.2304  0.3903
  970SOL    HW1 2909   1.729   1.830   0.181  0.5600  2.5061  1.4344
  970SOL    HW2 2910   1.569   1.822   0.132 -2.8146  1.6584 -0.7634
  971SOL     OW 2911   2.364   3.049   1.530 -0.2397 -0.2998  0.6558
  971SOL    HW1 2912   2.440   0.001   1.542 -1.5614  4.2251 -0.0156
  971SOL    HW2 2913   2.325   3.047   1.433 -1.2819 -1.9106 -1.6220
  972SOL     OW 2914   2.759   0.129   1.091  0.1408 -0.5463  0.0610
  972SOL    HW1 2915   2.763   0.055   1.019 -0.5708 -0.2635 -1.5684
  972SOL    HW2 2916   2.768   0.222   1.051  2.2383  0.9151 -1.1673
  973SOL     OW 2917   0.491   0.392   2.426 -0.1264  0.0587 -0.5731
  973SOL    HW1 2918   0.492   0.290   2.426 -1.4073  1.7710 -0.8650
  973SOL    HW2 2919   0.418   0.418   2.363 -1.3092 -1.5874 -1.2553
  974SOL     OW 2920   2.686   1.296   2.212  0.2665 -0.0064 -0.1248
  974SOL    HW1 2921   2.610   1.227   2.212  0.3679 -0.1404 -0.0354
  974SOL    HW2 2922   2.687   1.361   2.131  3.4960  2.4903 -2.1949
  975SOL     OW 2923   1.064   0.161   1.878 -0.5297  0.3031 -0.1585
  975SOL    HW1 2924   1.110   0.248   1.902  0.4006  0.1965  0.6303
  975SOL    HW2 2925   1.084   0.125   1.785 -1.8677 -1.5794  0.0663
  976SOL     OW 2926   1.173   1.673   1.358  0.2604  0.1446  0.2402
  976SOL    HW1 2927   1.156   1.771   1.397 -0.4546 -1.0323  1.9381
  976SOL    HW2 2928   1.173   1.614   1.442  0.2379 -1.5136 -1.1671
  977SOL     OW 2929   0.640   2.921   0.246 -1.1902  0.0696 -0.1867
  977SOL    HW1 2930   0.685   2.889   0.332  0.8680  1.5778 -1.4346
  977SOL    HW2 2931   0.696   2.999   0.211 -1.1145  1.5050 -0.4848
  978SOL     OW 2932   2.373   1.430   2.136 -0.2001  0.3204  0.3021
  978SOL    HW1 2933   2.391   1.327   2.124  0.8731 -1.5145 -0.0133
  978SOL    HW2 2934   2.350   1.452   2.236  0.8702  0.8331 -0.3986
  979SOL     OW 2935   1.438   0.434   1.875 -0.1378  0.3228 -0.0027
  979SOL    HW1 2936   1.416   0.537   1.876  0.1538  2.6642 -2.3763
  979SOL    HW2 2937   1.533   0.417   1.908 -2.1326 -1.4573 -0.0401
  980SOL     OW 2938   1.802   1.633   2.259  0.3272 -0.0685  0.8244
  980SOL    HW1 2939   1.858   1.623   2.171  1.0422 -0.7860 -3.0179
  980SOL    HW2 2940   1.730   1.558   2.257 -2.3331  0.9053  0.3378
  981SOL     OW 2941   1.848   0.544   1.590  0.6015 -0.0146 -0.7772
  981SOL    HW1 2942   1.851   0.644   1.615  2.0699 -0.7217  1.8465
  981SOL    HW2 2943   1.922   0.521   1.528 -0.1680  1.8389  0.3934
  982SOL     OW 2944   0.776   0.274   2.862 -0.4605 -0.0049  0.2813
  982SOL    HW1 2945   0.825   0.359   2.836  2.7047 -0.6603 -1.4622
  982SOL    HW2 2946   0.693   0.260   2.805  1.1786 -0.9269  0.7560
  983SOL     OW 2947   2.663   0.566   0.109  0.0621 -0.2536  0.1275
  983SOL    HW1 2948   2.651   0.561   0.210  0.5086  0.9662  2.2933
  983SOL    HW2 2949   2.755   0.526   0.084 -1.0805  1.2205  2.0831
  984SOL     OW 2950   0.952   0.397   2.239 -0.3280  0.4660  0.7527
  984SOL    HW1 2951   0.977   0.313   2.290 -0.0570  3.3243 -0.0561
  984SOL    HW2 2952   0.859   0.392   2.196 -1.5170  1.9294 -0.6682
  985SOL     OW 2953   1.454   1.993   2.244 -0.0614 -0.4768  0.3704
  985SOL    HW1 2954   1.376   2.012   2.184 -0.2833 -1.9200 -0.8072
  985SOL    HW2 2955   1.525   1.949   2.183  2.7682 -1.6868  1.4666
  986SOL     OW 2956   2.492   2.824   1.869  0.1389  0.1028 -0.3944
  986SOL    HW1 2957   2.480   2.832   1.769  1.2098  0.5367 -2.9229
  986SOL    HW2 2958   2.480   2.913   1.915  1.9393  0.2005  0.5600
  987SOL     OW 2959   1.971   1.209   1.174  0.0445  0.0536  0.3981
  987SOL    HW1 2960   2.011   1.248   1.092 -1.0248  0.1945  1.8506
  987SOL    HW2 2961   1.870   1.205   1.156  0.5647 -1.2615  1.2677
  988SOL     OW 2962   2.722   1.688   2.286  0.1209  0.1493 -0.3986
  988SOL    HW1 2963   2.668   1.763   2.337 -0.8753  0.6174  1.2487
  988SOL    HW2 2964   2.787   1.647   2.347 -0.7573  0.8100  0.3203
  989SOL     OW 2965   1.221   2.395   0.343 -0.1802 -0.2545 -0.7191
  989SOL    HW1 2966   1.157   2.349   0.276  0.8406  1.4564  0.9542
  989SOL    HW2 2967   1.173   2.394   0.433 -1.9693 -1.2806 -4.1399
  990SOL     OW 2968   1.927   0.427   2.995 -0.4319  0.4262 -0.5842
  990SOL    HW1 2969   1.857   0.499   2.968  0.8157  1.6598  0.4115
  990SOL    HW2 2970   1.954   0.377   2.911 -0.9934  1.3840  0.6127
  991SOL     OW 2971   1.135   0.412   0.794 -0.0179  0.1660 -0.0940
  991SOL    HW1 2972   1.124   0.401   0.688  0.8399  2.1134 -4.0620
  991SOL    HW2 2973   1.047   0.407   0.840  0.7460  0.7863 -2.7004
  992SOL     OW 2974   2.401   0.937   1.061  0.0470 -0.1449  0.1297
  992SOL    HW1 2975   2.442   0.989   1.135 -2.4638 -1.4440 -1.2793
  992SOL    HW2 2976   2.462   0.861   1.037 -0.2709 -0.5569  1.7398
  993SOL     OW 2977   2.280   0.744   1.815 -0.4453 -0.1096 -0.1595
  993SOL    HW1 2978   2.380   0.747   1.810 -1.4388 -0.3456  1.7445
  993SOL    HW2 2979   2.238   0.742   1.723 -0.6948  1.0403  1.6131
  994SOL     OW 2980   0.968   1.723   2.495  0.3523 -0.4581 -0.2067
  994SOL    HW1 2981   1.019   1.807   2.523 -0.3987  1.3582  3.7478
  994SOL    HW2 2982   0.874   1.723   2.527  1.8013  1.3911  0.9358
  995SOL     OW 2983   2.064   0.984   3.009 -0.3252  0.0409  0.5861
  995SOL    HW1 2984   2.057   1.085   3.012 -1.0103  1.5209 -2.0616
  995SOL    HW2 2985   2.154   0.952   2.968 -0.1981 -0.6492 -0.0876
  996SOL     OW 2986   2.203   2.091   0.511  0.8769 -0.4841 -0.2475
  996SOL    HW1 2987   2.116   2.078   0.570 -2.5260 -2.9242 -1.4247
  996SOL    HW2 2988   2.259   2.008   0.510 -0.6057  0.6979  2.0404
  997SOL     OW 2989   2.207   0.691   2.067  0.0033  0.1545 -0.1112
  997SOL    HW1 2990   2.107   0.672   2.065 -1.3551  1.7867 -1.0779
  997SOL    HW2 2991   2.228   0.732   1.977 -1.5828  0.6403 -2.3041
  998SOL     OW 2992   2.846   1.231   0.764 -0.4042  0.0888 -0.4865
  998SOL    HW1 2993   2.799   1.321   0.743 -1.0743  3.4713 -1.8425
  998SOL    HW2 2994   2.842   1.219   0.863 -1.1153  0.7756 -1.8796
  999SOL     OW 2995   2.831   1.653   0.377 -0.3783 -0.0663 -0.4977
  999SOL    HW1 2996   2.737   1.669   0.340  0.0329 -0.0877  1.0120
  999SOL    HW2 2997   2.835   1.701   0.468  0.0832  0.5656  0.0732
 1000SOL     OW 2998   0.513   0.736   2.131  0.0258 -0.2287 -0.5745
 1000SOL    HW1 2999   0.607   0.744   2.167 -0.8487  2.0012  1.7140
 1000SOL    HW2 3000   0.443   0.722   2.211 -0.5753 -2.2397  2.7284
   3.11784   3.11784   3.11784
