1000 SPC/Fw water molecules t= 296.00000 step= 296000
 3000
    1SOL     OW    1   2.420   0.052   0.876 -0.2482  0.4349 -0.5399
    1SOL    HW1    2   2.444   0.004   0.789  1.3736 -1.9953  0.5120
    1SOL    HW2    3   2.491   0.114   0.905 -0.8724 -2.5930 -1.9637
    2SOL     OW    4   2.961   2.063   0.961  0.3727  0.1495 -0.1454
    2SOL    HW1    5   2.875   2.008   0.940 -1.5824  0.8124 -2.0559
    2SOL    HW2    6   3.042   2.037   0.909  0.3501  1.9087 -2.1193
    3SOL     OW    7   0.650   2.645   2.809 -0.3506 -0.0622 -0.5433
    3SOL    HW1    8   0.672   2.608   2.902  1.3941 -0.1506 -0.6485
    3SOL    HW2    9   0.702   2.593   2.736  2.8337 -1.6077  0.3567
    4SOL     OW   10   2.051   2.285   1.704  0.0411 -0.6544  0.0473
    4SOL    HW1   11   2.076   2.321   1.616 -4.5252  3.3245  2.6605
    4SOL    HW2   12   2.059   2.184   1.705  1.3129  1.4728 -0.7103
    5SOL     OW   13   1.655   0.939   1.207 -0.0843  0.9136 -1.0013
    5SOL    HW1   14   1.595   0.861   1.189  0.2150  0.0918 -1.0716
    5SOL    HW2   15   1.665   0.954   1.307 -1.4687  1.0677  1.7717
    6SOL     OW   16   2.055   2.815   0.170 -0.4466  0.2878  0.6972
    6SOL    HW1   17   2.121   2.883   0.216 -0.6688  1.6104  1.4164
    6SOL    HW2   18   1.962   2.846   0.188  1.9514  1.6922  0.0606
    7SOL     OW   19   2.766   1.231   1.248 -0.1161 -0.5327 -0.1039
    7SOL    HW1   20   2.797   1.207   1.343 -2.8771 -0.1081  0.1403
    7SOL    HW2   21   2.787   1.327   1.227  0.4372 -0.2606 -0.5663
    8SOL     OW   22   1.528   2.398   0.995 -0.0103 -0.2764 -0.3258
    8SOL    HW1   23   1.593   2.463   1.040  0.5542 -1.8756  1.2804
    8SOL    HW2   24   1.539   2.309   1.042  3.2040  0.6117 -2.1151
    9SOL     OW   25   1.415   2.923   2.177  0.0646 -0.7387 -1.0099
    9SOL    HW1   26   1.365   2.864   2.245  0.3363  2.6939 -0.6519
    9SOL    HW2   27   1.354   2.947   2.103 -0.1005 -1.3673 -0.8347
   10SOL     OW   28   0.712   2.083   1.163 -0.1033 -0.3799  0.0662
   10SOL    HW1   29   0.717   1.987   1.194  1.1270  0.1158  0.3852
   10SOL    HW2   30   0.794   2.111   1.107  2.0961 -0.4948 -0.3465
   11SOL     OW   31   1.799   1.597   1.126  0.1526  0.0190 -0.0192
   11SOL    HW1   32   1.896   1.610   1.159 -2.1388  1.0097 -1.2662
   11SOL    HW2   33   1.743   1.558   1.200  1.6222  2.0289 -1.9404
   12SOL     OW   34   2.541   2.760   1.709  0.5834  0.3468 -0.5903
   12SOL    HW1   35   2.630   2.758   1.663 -2.4981  0.5315  1.2747
   12SOL    HW2   36   2.545   2.837   1.780  1.9022 -0.9858 -0.0722
   13SOL     OW   37   2.232   2.967   0.293 -0.2255 -0.4651 -0.2593
   13SOL    HW1   38   2.211   3.064   0.324 -2.2886  1.7097 -1.4628
   13SOL    HW2   39   2.331   2.956   0.268 -0.4895  1.2076 -1.0332
   14SOL     OW   40   1.895   2.338   0.788 -0.2635  0.2558  0.1412
   14SOL    HW1   41   1.925   2.332   0.691  1.5901  1.0604  1.6604
   14SOL    HW2   42   1.947   2.268   0.842 -3.3062 -0.9069  1.2730
   15SOL     OW   43   0.040   1.929   2.044 -0.4175 -0.5637  0.3222
   15SOL    HW1   44   0.111   1.997   2.069  1.2717 -0.6884  1.8292
   15SOL    HW2   45   3.071   1.905   2.129 -1.1812 -1.3796 -0.9015
   16SOL     OW   46   2.057   2.800   0.624  0.3190  0.0052 -0.1424
   16SOL    HW1   47   2.085   2.901   0.617  2.7832  4.2814 -2.1197
   16SOL    HW2   48   2.100   2.760   0.708  1.3692 -1.0355 -2.4017
   17SOL     OW   49   0.761   3.025   1.117  0.2130  0.0737  0.3140
   17SOL    HW1   50   0.714   2.931   1.117 -1.5383 -0.9121 -0.1323
   17SOL    HW2   51   0.740   3.073   1.205 -0.4248 -1.0648  1.0747
   18SOL     OW   52   1.537   0.972   0.119 -0.8027  0.3964 -0.1315
   18SOL    HW1   53   1.456   0.942   0.164  0.3857  1.8360 -1.5027
   18SOL    HW2   54   1.546   0.942   0.024 -1.6678  0.6148  1.2795
   19SOL     OW   55   1.792   1.831   0.341 -1.0271  0.4086  0.3026
   19SOL    HW1   56   1.815   1.769   0.262 -0.0343  0.7960 -2.7052
   19SOL    HW2   57   1.854   1.797   0.416 -1.0832 -2.1470  0.9039
   20SOL     OW   58   2.395   1.634   2.121 -0.2542  0.4046 -0.0259
   20SOL    HW1   59   2.311   1.684   2.154 -0.2114 -1.9318  1.9257
   20SOL    HW2   60   2.441   1.600   2.205  1.5583 -0.3334  0.7035
   21SOL     OW   61   1.136   1.237   0.595  0.3309 -0.5361 -0.0301
   21SOL    HW1   62   1.157   1.216   0.500  2.5407 -2.0949 -0.8277
   21SOL    HW2   63   1.040   1.262   0.603  2.1319 -0.0902  1.2698
   22SOL     OW   64   2.174   0.085   1.420 -0.1487 -0.1694  0.3828
   22SOL    HW1   65   2.159   3.068   1.445  1.1084 -1.4482 -1.9484
   22SOL    HW2   66   2.182   0.099   1.319 -0.1148  2.0497 -1.1406
   23SOL     OW   67   2.942   0.615   1.843 -0.3418 -0.3402 -0.4641
   23SOL    HW1   68   2.888   0.674   1.907  0.1559  0.3029 -1.4969
   23SOL    HW2   69   2.977   0.663   1.759  0.5488 -0.3666 -1.9386
   24SOL     OW   70   2.498   2.625   0.333  0.0695  0.5099 -0.6130
   24SOL    HW1   71   2.440   2.692   0.384 -0.5906 -1.2134  0.1989
   24SOL    HW2   72   2.510   2.645   0.233  1.0679 -0.7840 -1.1475
   25SOL     OW   73   1.196   0.257   2.163 -0.5177  0.2849 -0.0022
   25SOL    HW1   74   1.275   0.197   2.179  0.7295 -0.3773 -1.2579
   25SOL    HW2   75   1.166   0.305   2.248 -0.9290 -3.3196  0.3425
   26SOL     OW   76   1.951   2.307   0.525  0.9603 -0.2172  0.1647
   26SOL    HW1   77   2.039   2.259   0.509  0.5735 -0.3854 -1.2136
   26SOL    HW2   78   1.875   2.263   0.474 -1.3128  0.3967 -1.1288
   27SOL     OW   79   2.309   1.592   0.064  0.0308 -0.2178 -0.6884
   27SOL    HW1   80   2.247   1.526   0.018 -1.1507 -0.6345 -1.6467
   27SOL    HW2   81   2.386   1.536   0.110  1.6617 -0.3416  2.5999
   28SOL     OW   82   0.513   1.473   1.704  0.3992  0.5240 -0.0430
   28SOL    HW1   83   0.586   1.448   1.771  1.2732 -1.4085  1.5176
   28SOL    HW2   84   0.556   1.511   1.623 -0.4387  0.0659  0.0312
   29SOL     OW   85   2.302   2.161   1.392  0.5930 -0.3869  0.1677
   29SOL    HW1   86   2.230   2.099   1.351  1.5870 -0.0711 -0.1552
   29SOL    HW2   87   2.265   2.257   1.401 -1.5346 -2.4561 -1.0341
   30SOL     OW   88   1.400   0.401   0.326  0.2338  0.0117  0.5695
   30SOL    HW1   89   1.432   0.417   0.420 -2.5348  0.0770  0.3504
   30SOL    HW2   90   1.315   0.448   0.301  1.4678 -1.9471 -1.8716
   31SOL     OW   91   1.991   2.650   1.663 -0.0776  0.4146  0.0560
   31SOL    HW1   92   1.913   2.677   1.730 -2.0633  1.2559  2.9525
   31SOL    HW2   93   2.056   2.589   1.713  2.8695 -0.0712 -0.0973
   32SOL     OW   94   0.728   1.738   0.977  0.4754 -0.2908 -0.1196
   32SOL    HW1   95   0.640   1.787   0.969  1.3869  0.5194 -0.6087
   32SOL    HW2   96   0.804   1.787   0.924  2.1412  0.6241  0.6237
   33SOL     OW   97   0.107   0.359   2.508  0.1302  0.3765  0.0164
   33SOL    HW1   98   0.184   0.316   2.556 -0.0654 -0.6089 -3.0551
   33SOL    HW2   99   0.126   0.352   2.410  0.4761  1.4490 -0.1756
   34SOL     OW  100   1.932   0.002   0.421 -0.3574 -0.0234 -0.0870
   34SOL    HW1  101   1.869   0.083   0.422 -2.6625  0.1346  1.6985
   34SOL    HW2  102   1.888   3.013   0.364 -0.1573  0.3300  0.7773
   35SOL     OW  103   2.250   2.626   1.334  0.1713 -0.5863 -0.2660
   35SOL    HW1  104   2.325   2.700   1.331  0.2409  2.0658 -0.8679
   35SOL    HW2  105   2.160   2.669   1.347  2.8467 -0.2598  0.4836
   36SOL     OW  106   1.696   2.324   2.378  0.0360 -0.0444  0.1446
   36SOL    HW1  107   1.750   2.236   2.377 -1.4002 -1.6670 -2.6255
   36SOL    HW2  108   1.749   2.409   2.404 -0.5434  3.1980  0.6588
   37SOL     OW  109   0.839   0.120   1.860  0.7330  0.1321  0.3269
   37SOL    HW1  110   0.765   0.050   1.853  2.3218 -0.1926  1.5802
   37SOL    HW2  111   0.915   0.096   1.914 -4.0581 -0.2429 -2.2104
   38SOL     OW  112   2.909   0.330   2.526 -0.3126  0.1435  0.4126
   38SOL    HW1  113   2.896   0.304   2.621  0.6393  0.1192  0.1349
   38SOL    HW2  114   3.011   0.336   2.510  0.8610  0.6447 -0.8540
   39SOL     OW  115   2.275   0.884   1.542  0.0776  0.0886  0.2766
   39SOL    HW1  116   2.226   0.901   1.628  0.6540  0.9261  0.6578
   39SOL    HW2  117   2.346   0.956   1.517  1.8064  1.2894 -0.1379
   40SOL     OW  118   1.207   2.672   0.057  0.4430 -0.3567  0.1860
   40SOL    HW1  119   1.128   2.737   0.036  1.2648 -1.2268 -2.0496
   40SOL    HW2  120   1.295   2.720   0.037  0.7991 -0.4202  1.6874
   41SOL     OW  121   2.474   1.256   1.034  0.8195 -0.2217  0.6158
   41SOL    HW1  122   2.471   1.293   1.132 -0.2045  2.9336  0.2853
   41SOL    HW2  123   2.568   1.252   0.993  1.5857  0.1623 -1.1263
   42SOL     OW  124   0.262   0.281   1.154 -0.7040  0.0846  0.3558
   42SOL    HW1  125   0.349   0.325   1.193 -0.7916 -2.3721  1.2039
   42SOL    HW2  126   0.265   0.300   1.053  1.4106 -0.3148 -0.1809
   43SOL     OW  127   2.820   1.558   2.605  0.5510 -0.0705  0.2223
   43SOL    HW1  128   2.740   1.583   2.667 -1.3726 -2.5578  1.7785
   43SOL    HW2  129   2.794   1.485   2.539 -0.7613  0.5667 -0.8058
   44SOL     OW  130   2.546   0.073   1.677 -0.1860  0.0633  0.1647
   44SOL    HW1  131   2.639   0.060   1.638  1.4226  0.8589  2.0593
   44SOL    HW2  132   2.542   0.028   1.770  0.5652  1.4990  0.6797
   45SOL     OW  133   0.736   2.982   1.571 -0.3486  0.3563  0.5326
   45SOL    HW1  134   0.834   2.956   1.578  3.2251 -1.0808 -2.3027
   45SOL    HW2  135   0.700   3.009   1.663  0.9931 -2.4930  0.8072
   46SOL     OW  136   1.225   2.831   2.605 -0.2413  0.1015 -0.3628
   46SOL    HW1  137   1.185   2.755   2.656 -0.5003  1.7400  1.1680
   46SOL    HW2  138   1.268   2.898   2.670 -0.1710 -0.5516 -1.5597
   47SOL     OW  139   1.769   1.964   0.677  0.1464  0.2736  0.7490
   47SOL    HW1  140   1.734   1.910   0.754 -1.2973 -0.0216  0.8013
   47SOL    HW2  141   1.871   1.942   0.665  1.3785 -2.1440  1.9532
   48SOL     OW  142   0.935   2.226   0.477 -0.0378  0.3488  0.0332
   48SOL    HW1  143   0.921   2.317   0.431 -2.2751 -0.9458 -0.6810
   48SOL    HW2  144   0.858   2.201   0.540 -1.5190  1.4889 -0.8407
   49SOL     OW  145   2.167   2.963   2.423 -0.2827 -0.0856 -0.3876
   49SOL    HW1  146   2.253   3.012   2.404 -0.7532 -0.3919 -1.2583
   49SOL    HW2  147   2.182   2.883   2.483  0.2338  1.0962  0.9336
   50SOL     OW  148   1.868   0.287   0.134  0.1042  0.3377 -0.3795
   50SOL    HW1  149   1.895   0.379   0.165 -0.0271 -0.9551 -0.6801
   50SOL    HW2  150   1.769   0.283   0.139  0.4833 -0.4307 -0.5339
   51SOL     OW  151   2.180   0.865   0.704 -0.0620  0.4054 -0.2714
   51SOL    HW1  152   2.087   0.902   0.729 -0.1628 -1.0300  2.0593
   51SOL    HW2  153   2.173   0.799   0.625 -0.1964 -2.1282  0.0467
   52SOL     OW  154   1.115   1.557   1.260  0.1945  0.6190 -0.1304
   52SOL    HW1  155   1.216   1.561   1.275  1.5698  3.4407 -0.8933
   52SOL    HW2  156   1.094   1.503   1.176  0.1362  1.9794  0.6404
   53SOL     OW  157   1.048   1.597   2.474 -0.0033 -0.4265  0.9248
   53SOL    HW1  158   1.027   1.612   2.377  1.0555 -1.6838  0.7422
   53SOL    HW2  159   1.025   1.677   2.533 -0.6982 -3.4728  1.4410
   54SOL     OW  160   2.378   0.276   1.609 -1.0685  0.3605  0.0710
   54SOL    HW1  161   2.406   0.182   1.630 -0.9708 -1.9640 -2.1360
   54SOL    HW2  162   2.397   0.291   1.509  0.4662 -0.5285 -1.6032
   55SOL     OW  163   2.890   1.924   0.590  0.0472 -0.0178  0.2305
   55SOL    HW1  164   2.897   1.869   0.673  0.0970 -0.4500 -2.2602
   55SOL    HW2  165   2.794   1.934   0.562 -1.4442  2.1989 -0.3209
   56SOL     OW  166   0.989   0.664   2.170 -0.7413 -0.0819 -0.1905
   56SOL    HW1  167   1.022   0.575   2.203 -0.5023  0.2622  2.9520
   56SOL    HW2  168   1.066   0.733   2.165  2.0015 -2.5106 -0.7666
   57SOL     OW  169   1.369   1.253   3.068 -0.2827  0.3194 -0.6852
   57SOL    HW1  170   1.423   1.285   0.062  0.6142  1.5945  1.0654
   57SOL    HW2  171   1.424   1.213   2.996  0.6704 -1.2559  4.9195
   58SOL     OW  172   0.211   0.989   1.451  0.2799 -0.1226  0.1813
   58SOL    HW1  173   0.182   1.025   1.542 -1.1711 -0.5278 -0.2257
   58SOL    HW2  174   0.167   0.899   1.429 -2.8613 -0.4584  2.6926
   59SOL     OW  175   1.435   2.832   0.023 -0.3117 -0.0118 -0.2307
   59SOL    HW1  176   1.512   2.856   3.045 -0.3910  2.9603  0.0045
   59SOL    HW2  177   1.383   2.919   0.042  2.1074  3.3139 -2.4222
   60SOL     OW  178   2.799   1.917   0.186  0.2281 -0.2143 -0.2104
   60SOL    HW1  179   2.840   1.866   0.259 -3.6999  2.0792 -0.0416
   60SOL    HW2  180   2.732   1.987   0.213 -1.1109  1.4114  2.2854
   61SOL     OW  181   1.356   2.819   0.685  0.1912 -0.5021 -0.0375
   61SOL    HW1  182   1.423   2.813   0.762  0.9985 -1.2489 -0.6070
   61SOL    HW2  183   1.401   2.854   0.600 -0.7560  0.3326  1.3680
   62SOL     OW  184   2.079   1.997   2.560 -0.0998  0.0006  0.4686
   62SOL    HW1  185   2.055   1.941   2.476  2.1079  0.3331 -1.3361
   62SOL    HW2  186   2.100   2.098   2.533 -1.2146  2.7712 -0.2358
   63SOL     OW  187   2.448   2.543   0.702 -0.4374  0.7268 -0.1754
   63SOL    HW1  188   2.406   2.593   0.626 -0.1419 -4.1479  0.8224
   63SOL    HW2  189   2.376   2.483   0.747 -1.2445 -2.6448  0.1280
   64SOL     OW  190   1.689   1.134   2.594  0.0151  0.5667 -0.6404
   64SOL    HW1  191   1.622   1.212   2.602 -0.7391  0.4577  0.8618
   64SOL    HW2  192   1.647   1.043   2.611  1.8754  1.3292  0.8126
   65SOL     OW  193   1.752   1.743   2.823  0.1786  0.0049 -0.2390
   65SOL    HW1  194   1.717   1.668   2.886  0.6360 -4.5412  2.6061
   65SOL    HW2  195   1.677   1.807   2.799  2.3016  0.3060 -0.1054
   66SOL     OW  196   0.366   0.843   1.878  0.1039 -0.2052 -0.0469
   66SOL    HW1  197   0.444   0.878   1.927 -4.0272 -3.1931  0.3603
   66SOL    HW2  198   0.391   0.758   1.824 -0.8852  0.3693 -0.0056
   67SOL     OW  199   2.300   2.869   2.769  0.1372 -0.6928  0.5093
   67SOL    HW1  200   2.248   2.839   2.856 -1.5920  1.7298  2.5872
   67SOL    HW2  201   2.397   2.908   2.792  0.5078  1.3407  1.0080
   68SOL     OW  202   1.110   2.582   1.332  0.0604 -0.1735 -0.0984
   68SOL    HW1  203   1.070   2.511   1.269  1.0407 -2.2912 -1.0854
   68SOL    HW2  204   1.207   2.564   1.362  1.5048  1.8885  1.5114
   69SOL     OW  205   0.684   2.571   0.288 -0.2957 -1.2113  0.2249
   69SOL    HW1  206   0.698   2.482   0.246 -2.5452  2.4391 -0.0382
   69SOL    HW2  207   0.587   2.592   0.289  0.5789 -2.0544  1.4008
   70SOL     OW  208   2.412   0.082   2.591  0.0880  0.0062  0.6572
   70SOL    HW1  209   2.343   0.152   2.623  1.6400 -1.3284  1.3803
   70SOL    HW2  210   2.422   0.081   2.491  0.3975 -0.1279  1.9401
   71SOL     OW  211   0.654   1.277   2.359  0.6962 -0.1106  0.5462
   71SOL    HW1  212   0.694   1.368   2.374 -0.0997 -0.7394 -1.9533
   71SOL    HW2  213   0.607   1.281   2.266 -0.8560  1.3271 -0.3313
   72SOL     OW  214   2.948   2.009   3.061 -0.3774 -0.7055  0.0388
   72SOL    HW1  215   2.885   1.976   0.048  2.2364  1.3503 -1.6873
   72SOL    HW2  216   2.910   2.085   3.002 -0.5138  3.5937 -1.1276
   73SOL     OW  217   1.246   1.250   0.337 -0.8278  0.0470  0.0016
   73SOL    HW1  218   1.307   1.226   0.414  1.5969  2.7609 -1.2495
   73SOL    HW2  219   1.247   1.352   0.333 -1.9264  1.3486  2.0812
   74SOL     OW  220   2.240   2.719   2.568 -0.0526  0.3995  0.3395
   74SOL    HW1  221   2.200   2.637   2.615 -2.3009 -2.1878 -0.3769
   74SOL    HW2  222   2.287   2.776   2.637 -1.0582 -0.3059 -0.0734
   75SOL     OW  223   2.209   2.020   1.029  0.2827 -0.0322 -0.4299
   75SOL    HW1  224   2.204   1.941   1.092 -1.4489 -0.6151  0.4590
   75SOL    HW2  225   2.304   2.041   0.998  1.0724  0.8786 -0.7177
   76SOL     OW  226   1.855   2.520   1.446 -0.0280  0.1095  0.5597
   76SOL    HW1  227   1.898   2.582   1.379 -1.8436 -1.6164 -0.8605
   76SOL    HW2  228   1.887   2.542   1.543  3.3686  1.1037  1.6724
   77SOL     OW  229   2.303   3.071   2.038 -0.0748  0.0425 -0.7019
   77SOL    HW1  230   2.246   0.050   2.095 -1.4239 -1.6874  1.2988
   77SOL    HW2  231   2.314   0.038   1.947  0.4257 -0.0702  1.0552
   78SOL     OW  232   1.579   0.858   2.964 -0.1027  0.1899 -0.9068
   78SOL    HW1  233   1.539   0.774   3.003  0.0993  2.1712  1.4134
   78SOL    HW2  234   1.636   0.832   2.886 -1.7140  1.7392  0.7823
   79SOL     OW  235   2.515   1.525   2.357  0.2949 -0.1766  0.0484
   79SOL    HW1  236   2.528   1.624   2.378  0.4134  0.4609  0.2477
   79SOL    HW2  237   2.579   1.469   2.408  3.0982 -1.5240  0.5844
   80SOL     OW  238   1.834   1.384   1.653  0.0685  0.3258  0.6704
   80SOL    HW1  239   1.922   1.361   1.704  1.7346 -0.3847 -0.2175
   80SOL    HW2  240   1.843   1.340   1.565  1.9717 -0.5192  0.1631
   81SOL     OW  241   1.330   0.469   1.222 -0.0687 -0.2673 -0.0959
   81SOL    HW1  242   1.341   0.379   1.274  0.0240 -3.0085  1.1039
   81SOL    HW2  243   1.319   0.448   1.122  1.0041 -2.2336  0.1844
   82SOL     OW  244   1.530   2.658   1.822 -0.0817 -0.4250 -0.1525
   82SOL    HW1  245   1.508   2.710   1.907 -0.5577  0.0469  0.8619
   82SOL    HW2  246   1.454   2.671   1.753 -2.9525 -0.8208  3.7348
   83SOL     OW  247   0.282   0.167   0.658 -0.2894 -0.1059  0.1911
   83SOL    HW1  248   0.258   0.068   0.676 -0.4414  0.0633  1.3472
   83SOL    HW2  249   0.210   0.212   0.603  0.5640 -1.4892  2.4902
   84SOL     OW  250   0.760   1.129   0.036 -0.4412  0.4452 -0.1955
   84SOL    HW1  251   0.803   1.163   0.123  0.0273  1.4630 -2.0055
   84SOL    HW2  252   0.684   1.188   0.011  3.3972 -0.4506 -1.4423
   85SOL     OW  253   2.746   1.880   1.730 -0.4362  0.0474  1.0033
   85SOL    HW1  254   2.835   1.883   1.782 -0.8600 -0.1182  2.3320
   85SOL    HW2  255   2.681   1.811   1.764  1.3332  0.9890 -1.3441
   86SOL     OW  256   0.035   2.781   1.540  0.1193  0.6134 -0.2310
   86SOL    HW1  257   0.131   2.737   1.534  2.4856 -0.2392  1.5786
   86SOL    HW2  258   3.053   2.740   1.474 -1.7973  3.2759  0.2452
   87SOL     OW  259   0.653   0.161   2.430 -0.0915 -0.0717  0.5451
   87SOL    HW1  260   0.718   0.187   2.350  0.5271 -1.3790  0.5252
   87SOL    HW2  261   0.562   0.128   2.395  1.9822 -1.7797  2.2724
   88SOL     OW  262   0.445   2.196   1.130 -0.1527  0.4436  0.3747
   88SOL    HW1  263   0.541   2.189   1.163  0.5613  1.3230  0.2548
   88SOL    HW2  264   0.375   2.188   1.205  0.7863 -0.9507 -0.5322
   89SOL     OW  265   0.952   0.546   1.520  0.5253 -0.1575 -0.3703
   89SOL    HW1  266   1.050   0.554   1.543  1.3754  0.3730  1.3132
   89SOL    HW2  267   0.923   0.450   1.529  1.8269  0.6946  1.8975
   90SOL     OW  268   2.831   1.374   1.702  0.1192 -0.2098 -0.1265
   90SOL    HW1  269   2.855   1.450   1.766 -0.3766  0.0451 -1.2389
   90SOL    HW2  270   2.829   1.292   1.761  0.6954 -0.5117 -0.0315
   91SOL     OW  271   1.252   0.964   1.054  0.0272 -1.1937  0.1333
   91SOL    HW1  272   1.220   0.880   1.100 -1.3761  0.4897  0.2436
   91SOL    HW2  273   1.216   0.971   0.961 -0.1447 -1.1958  2.2593
   92SOL     OW  274   2.640   0.922   0.960  0.3986  0.3617  0.5549
   92SOL    HW1  275   2.651   1.022   0.981 -1.7637  0.3116 -0.6648
   92SOL    HW2  276   2.549   0.910   0.908 -1.8569  1.1872 -0.2960
   93SOL     OW  277   2.168   0.785   2.492  0.6033 -0.8261 -0.3106
   93SOL    HW1  278   2.205   0.768   2.400 -0.7496 -1.1446  1.7446
   93SOL    HW2  279   2.089   0.849   2.483 -2.4122 -2.6002 -1.6722
   94SOL     OW  280   2.547   1.780   2.395  0.3701 -0.2532 -0.1287
   94SOL    HW1  281   2.504   1.852   2.333  0.2403  1.6266 -3.0446
   94SOL    HW2  282   2.524   1.794   2.491  0.8338 -1.9807 -1.7106
   95SOL     OW  283   2.128   0.566   0.895 -0.2420  0.1539 -0.0842
   95SOL    HW1  284   2.062   0.529   0.967 -0.8274  0.8697  0.7482
   95SOL    HW2  285   2.215   0.609   0.922 -1.4121  1.1398 -0.5196
   96SOL     OW  286   2.527   2.948   1.917  0.2459 -0.0095  0.2751
   96SOL    HW1  287   2.445   2.921   1.975 -1.7723 -1.5196  2.5402
   96SOL    HW2  288   2.561   3.041   1.945 -1.4913 -0.7937 -2.1375
   97SOL     OW  289   2.459   0.750   1.220  0.0478 -0.3704  0.0535
   97SOL    HW1  290   2.464   0.851   1.222  0.2009  1.0579  0.0922
   97SOL    HW2  291   2.402   0.712   1.300  1.1507 -1.9500  0.3037
   98SOL     OW  292   1.484   2.242   1.640 -0.2218  0.7006 -0.6965
   98SOL    HW1  293   1.517   2.185   1.562 -0.6726 -2.6758 -1.6082
   98SOL    HW2  294   1.505   2.340   1.624  1.6350 -0.0296  0.4582
   99SOL     OW  295   2.540   2.308   1.553  0.3991 -0.1933 -0.1390
   99SOL    HW1  296   2.599   2.232   1.592 -1.0582 -0.4065  2.5404
   99SOL    HW2  297   2.477   2.262   1.489 -1.2267  0.7097 -0.7386
  100SOL     OW  298   0.861   0.789   2.909 -0.0452 -0.0617 -0.3835
  100SOL    HW1  299   0.780   0.779   2.845 -3.9831  0.5797 -3.9189
  100SOL    HW2  300   0.835   0.802   3.007  1.6512  0.6988 -0.4955
  101SOL     OW  301   2.142   0.200   2.963 -0.5029  0.1992  0.2627
  101SOL    HW1  302   2.111   0.160   3.050  1.7117  2.2467 -0.6785
  101SOL    HW2  303   2.111   0.299   2.960  1.0227 -1.0955  0.7937
  102SOL     OW  304   0.388   0.597   1.761 -0.2491 -0.1979  0.2434
  102SOL    HW1  305   0.476   0.553   1.733  0.4476  2.0498 -1.5280
  102SOL    HW2  306   0.338   0.531   1.825 -0.3760 -0.1132  1.5786
  103SOL     OW  307   0.197   0.647   2.931  0.0803 -0.0176  0.0684
  103SOL    HW1  308   0.293   0.618   2.952  1.0373 -1.8628 -0.9856
  103SOL    HW2  309   0.159   0.607   2.844 -0.2580  1.0210 -0.4256
  104SOL     OW  310   0.748   0.415   2.538  0.0123 -0.0681 -0.2476
  104SOL    HW1  311   0.845   0.403   2.566 -0.5150  2.7080  1.0737
  104SOL    HW2  312   0.707   0.326   2.507 -0.8394  1.7281  1.1877
  105SOL     OW  313   2.226   1.852   1.826 -0.0947 -0.0023 -0.4553
  105SOL    HW1  314   2.161   1.901   1.890 -0.8644  2.3456  0.0186
  105SOL    HW2  315   2.319   1.893   1.825 -0.0458 -1.2959 -0.1317
  106SOL     OW  316   1.799   0.509   0.298  0.4939 -1.0691  0.4231
  106SOL    HW1  317   1.801   0.519   0.400  0.2428  0.7452  1.6569
  106SOL    HW2  318   1.745   0.586   0.249 -0.6527  1.6218 -1.0706
  107SOL     OW  319   0.058   1.814   0.921 -0.3564  0.1873 -0.1294
  107SOL    HW1  320   0.069   1.852   1.014  0.5191  0.3480 -1.1044
  107SOL    HW2  321   0.102   1.873   0.858 -2.3335  0.5077  2.9754
  108SOL     OW  322   2.814   2.735   1.607 -0.0918  0.3053  0.0748
  108SOL    HW1  323   2.872   2.760   1.686  1.5124 -0.3646  0.7597
  108SOL    HW2  324   2.829   2.795   1.525  0.0625 -0.4495 -2.1017
  109SOL     OW  325   1.955   2.857   1.000  0.0327 -0.4045 -0.1832
  109SOL    HW1  326   1.944   2.945   0.958  0.0453 -1.6333  0.0622
  109SOL    HW2  327   2.014   2.797   0.941  0.6939 -1.5089 -0.3962
  110SOL     OW  328   0.579   2.047   2.515 -0.4850 -0.2804 -0.3160
  110SOL    HW1  329   0.490   2.005   2.480 -2.1381 -0.0128  2.2298
  110SOL    HW2  330   0.651   2.043   2.446  2.2979  0.2767 -0.8998
  111SOL     OW  331   1.495   2.339   2.163  0.0375 -0.0608  0.4901
  111SOL    HW1  332   1.461   2.427   2.116  1.0958 -0.8410  1.5705
  111SOL    HW2  333   1.585   2.349   2.208  4.5093 -0.1018 -1.1384
  112SOL     OW  334   2.182   1.997   3.040 -0.0200 -0.0350  0.0325
  112SOL    HW1  335   2.241   2.054   0.009 -3.5856 -3.6327  4.0099
  112SOL    HW2  336   2.089   2.045   3.025 -2.7241 -1.3238  0.9878
  113SOL     OW  337   1.446   1.945   1.252 -0.1054 -0.4267 -0.1488
  113SOL    HW1  338   1.350   1.939   1.234  3.0827 -0.3980 -0.6959
  113SOL    HW2  339   1.486   1.851   1.255  0.6721 -4.9787 -1.9344
  114SOL     OW  340   2.956   0.897   0.789 -0.1979  0.1395 -0.0205
  114SOL    HW1  341   2.893   0.897   0.704 -2.1391 -2.0394  1.4596
  114SOL    HW2  342   2.952   0.979   0.848  0.6396 -1.1854  0.7119
  115SOL     OW  343   0.767   0.833   0.095  0.1753  0.5067 -0.4058
  115SOL    HW1  344   0.756   0.936   0.091  1.5888 -0.8252 -0.4367
  115SOL    HW2  345   0.687   0.786   0.140 -1.1760  0.9831 -1.8139
  116SOL     OW  346   2.743   1.354   2.444 -0.0602 -0.0085 -0.8427
  116SOL    HW1  347   2.703   1.289   2.515 -1.5580 -0.0836 -2.9190
  116SOL    HW2  348   2.766   1.301   2.360  1.0235 -1.6146  1.0979
  117SOL     OW  349   0.133   3.020   0.759  0.6604 -0.0197 -0.3041
  117SOL    HW1  350   0.167   2.925   0.768 -2.4655  2.7456  0.5661
  117SOL    HW2  351   0.044   3.027   0.708  0.1087 -1.0578  1.0552
  118SOL     OW  352   0.986   1.877   2.566  0.0073 -0.6628  0.2520
  118SOL    HW1  353   1.014   1.970   2.595  1.8791 -1.9832  1.1782
  118SOL    HW2  354   0.897   1.843   2.603  0.0016  2.4311  0.0096
  119SOL     OW  355   0.401   2.503   0.207  0.5907  0.0287  0.2946
  119SOL    HW1  356   0.359   2.413   0.243 -0.3012 -2.4789 -0.5638
  119SOL    HW2  357   0.328   2.548   0.148  1.7740 -1.3580  0.7245
  120SOL     OW  358   1.191   0.723   3.035  0.0987  0.2920 -0.3826
  120SOL    HW1  359   1.246   0.677   2.965  0.2820 -1.6481  3.0399
  120SOL    HW2  360   1.147   0.804   3.002  2.8277 -1.6977 -0.3686
  121SOL     OW  361   1.475   2.857   0.992  0.4747 -0.0620  0.6664
  121SOL    HW1  362   1.503   2.952   0.979 -0.4680  0.9690 -1.7530
  121SOL    HW2  363   1.558   2.804   0.968  0.4928  2.1527  0.7745
  122SOL     OW  364   2.235   2.419   1.525  0.6284  0.1495 -0.6794
  122SOL    HW1  365   2.278   2.440   1.616  1.8602 -0.8593 -1.3515
  122SOL    HW2  366   2.262   2.485   1.449 -2.2831 -1.4144 -0.5422
  123SOL     OW  367   0.503   2.239   0.767  0.1285 -0.7155 -0.0325
  123SOL    HW1  368   0.420   2.221   0.825 -0.0637  2.3941  0.5216
  123SOL    HW2  369   0.571   2.296   0.821 -1.1337  0.5398 -0.4206
  124SOL     OW  370   2.485   0.641   0.184 -0.1467 -0.0514 -0.4234
  124SOL    HW1  371   2.477   0.540   0.176  1.9188  1.9369 -1.2965
  124SOL    HW2  372   2.573   0.676   0.152  3.2133 -0.1133 -1.8794
  125SOL     OW  373   0.599   1.188   0.314  0.2239 -0.2247 -0.3701
  125SOL    HW1  374   0.573   1.117   0.383 -1.4103  1.8734 -0.9083
  125SOL    HW2  375   0.702   1.205   0.311  1.4106  1.4915 -0.5633
  126SOL     OW  376   0.222   1.593   0.952 -0.3583 -0.2470  0.0500
  126SOL    HW1  377   0.201   1.509   1.003 -0.0454  2.3643  0.3371
  126SOL    HW2  378   0.150   1.658   0.977  1.5065  0.9379  2.0692
  127SOL     OW  379   1.002   2.083   2.368  0.3053 -0.3258 -0.4188
  127SOL    HW1  380   1.068   2.039   2.307 -0.9496  2.3517 -1.8864
  127SOL    HW2  381   0.946   2.017   2.418  1.0908  1.4467  0.5566
  128SOL     OW  382   0.891   1.111   2.888  0.0444  0.0257 -0.7164
  128SOL    HW1  383   0.949   1.027   2.906  1.5232 -1.3858 -0.7251
  128SOL    HW2  384   0.829   1.119   2.969  0.2711 -0.7575 -0.9599
  129SOL     OW  385   2.544   1.556   0.720  0.3393 -0.0517  0.0045
  129SOL    HW1  386   2.487   1.490   0.766 -0.3736 -0.5902 -1.1464
  129SOL    HW2  387   2.491   1.643   0.692  3.4593 -0.0990 -0.7289
  130SOL     OW  388   2.462   1.393   1.274  0.0921  0.0174 -0.0777
  130SOL    HW1  389   2.463   1.470   1.209  1.4816  0.1985  0.3631
  130SOL    HW2  390   2.536   1.391   1.343  1.3853  1.0745  2.1308
  131SOL     OW  391   3.069   2.872   3.069 -0.0072  0.0228  0.6285
  131SOL    HW1  392   0.025   2.963   3.048  2.7913  0.0134 -0.5214
  131SOL    HW2  393   0.011   2.853   0.085  1.1418  0.5146  2.2474
  132SOL     OW  394   0.574   1.723   0.690 -0.1064  0.4791  0.2990
  132SOL    HW1  395   0.647   1.772   0.638 -0.0201 -0.8472  0.4800
  132SOL    HW2  396   0.595   1.624   0.695  0.5471  1.0461  2.4006
  133SOL     OW  397   0.759   0.403   1.260  0.3053  0.3803 -0.1633
  133SOL    HW1  398   0.764   0.344   1.348  3.5463 -1.0788  2.0969
  133SOL    HW2  399   0.827   0.371   1.192 -3.5632  0.7524 -1.1049
  134SOL     OW  400   3.023   1.746   2.968  0.1637 -0.5060 -0.1690
  134SOL    HW1  401   3.030   1.723   2.868  1.3259  0.6750 -1.1541
  134SOL    HW2  402   2.974   1.835   2.986 -0.9421  0.6148 -0.6310
  135SOL     OW  403   1.640   0.604   1.740  0.0978  0.2606 -0.1611
  135SOL    HW1  404   1.606   0.694   1.767  0.4708  0.9101 -1.8486
  135SOL    HW2  405   1.587   0.563   1.660  0.0529 -0.5401 -0.9748
  136SOL     OW  406   0.073   1.467   0.289 -0.3286  0.0783  0.3166
  136SOL    HW1  407   0.101   1.526   0.368 -1.6995 -0.8325 -1.0918
  136SOL    HW2  408   0.040   1.375   0.327 -1.2445 -1.2690  1.7775
  137SOL     OW  409   0.157   1.327   1.009 -0.0931  0.0685 -0.3550
  137SOL    HW1  410   0.167   1.228   0.972  1.1955  0.7257 -2.0954
  137SOL    HW2  411   0.061   1.368   1.011 -2.0665 -1.0499  1.6874
  138SOL     OW  412   1.938   0.728   0.830 -0.1128  0.3790  0.1973
  138SOL    HW1  413   2.019   0.665   0.857  0.4293 -0.8954  0.3684
  138SOL    HW2  414   1.915   0.785   0.909 -2.3741 -0.1503 -1.1937
  139SOL     OW  415   1.730   2.646   0.266  0.0048  0.3199 -0.1251
  139SOL    HW1  416   1.674   2.575   0.218  1.1007  1.5678  1.7191
  139SOL    HW2  417   1.762   2.602   0.354  1.3979 -1.0636  0.6467
  140SOL     OW  418   1.204   1.693   1.617  0.1993  0.3405  0.1373
  140SOL    HW1  419   1.190   1.754   1.698  0.1743 -0.9017 -0.7821
  140SOL    HW2  420   1.174   1.597   1.640 -1.6860  1.2829 -0.7059
  141SOL     OW  421   1.707   2.098   0.423 -0.5481 -0.8527  0.2223
  141SOL    HW1  422   1.726   2.021   0.361 -0.0958  2.4236 -1.8824
  141SOL    HW2  423   1.744   2.077   0.515  1.4307 -2.0841  0.3753
  142SOL     OW  424   1.104   0.446   0.044 -0.5918  0.2671  0.4563
  142SOL    HW1  425   1.107   0.465   0.140  0.6602 -0.1585 -1.4779
  142SOL    HW2  426   1.121   0.535   3.074 -1.6596  3.5934 -1.1921
  143SOL     OW  427   0.308   2.276   3.008 -0.1008 -0.5229  0.0932
  143SOL    HW1  428   0.297   2.268   2.903 -1.7148 -3.7724 -1.9737
  143SOL    HW2  429   0.253   2.350   3.054 -0.2031 -0.4751  3.3471
  144SOL     OW  430   1.612   2.806   1.321 -0.3096  0.0239  0.1777
  144SOL    HW1  431   1.525   2.825   1.373 -3.1495 -1.0207  0.3278
  144SOL    HW2  432   1.635   2.894   1.272  1.3598  1.0043  1.0916
  145SOL     OW  433   1.934   0.974   0.009  0.1569  0.3789 -0.4468
  145SOL    HW1  434   1.993   0.953   0.090  0.8073  1.4864 -0.0315
  145SOL    HW2  435   1.862   1.045   0.035 -2.4422  1.9431  0.3837
  146SOL     OW  436   0.096   2.442   1.020  0.0717 -0.7358  0.2260
  146SOL    HW1  437   0.027   2.506   0.977 -1.6687  1.3295  0.6895
  146SOL    HW2  438   0.076   2.445   1.121  0.5415  0.0189 -1.4156
  147SOL     OW  439   2.227   0.136   1.803  0.2074 -0.2702  0.2903
  147SOL    HW1  440   2.174   0.055   1.763  0.6582 -2.1724  0.7087
  147SOL    HW2  441   2.240   0.210   1.736  1.9660  1.7016 -0.5695
  148SOL     OW  442   1.237   2.976   1.947 -0.0349  0.1129 -0.4806
  148SOL    HW1  443   1.267   2.972   1.850 -1.6882 -1.6375  0.0545
  148SOL    HW2  444   1.160   3.043   1.956  0.5261 -1.7094  1.6961
  149SOL     OW  445   1.780   0.073   2.361  0.1505  0.1204 -0.6855
  149SOL    HW1  446   1.697   0.021   2.383 -0.7891  0.9632  0.8215
  149SOL    HW2  447   1.755   0.150   2.304 -1.8606 -1.9454  3.4476
  150SOL     OW  448   0.085   3.047   0.418  0.0409 -0.6583 -0.5595
  150SOL    HW1  449   0.116   0.026   0.341 -1.3980 -2.0035 -1.1779
  150SOL    HW2  450   0.024   0.015   0.486 -3.0494 -0.7202  2.5056
  151SOL     OW  451   0.225   2.301   0.344 -0.6922 -0.3692 -0.2895
  151SOL    HW1  452   0.280   2.265   0.422  0.3465 -0.3747  1.3092
  151SOL    HW2  453   0.156   2.228   0.321  0.2679 -1.7162 -0.5171
  152SOL     OW  454   2.840   0.262   0.602  0.5176 -0.4053 -0.1665
  152SOL    HW1  455   2.856   0.255   0.703  1.7427 -0.9526  2.7635
  152SOL    HW2  456   2.833   0.365   0.588 -0.8117  1.8747 -0.6685
  153SOL     OW  457   2.599   0.476   0.869 -0.0252  0.3579  0.4692
  153SOL    HW1  458   2.599   0.373   0.888  0.6962 -1.1314  0.2797
  153SOL    HW2  459   2.630   0.529   0.950 -0.5259  0.4341 -0.3565
  154SOL     OW  460   0.895   0.272   2.263 -0.0321 -0.0887 -0.2714
  154SOL    HW1  461   0.954   0.353   2.280 -2.5128  1.1924  2.5338
  154SOL    HW2  462   0.844   0.302   2.172  2.6830 -0.7701 -2.7671
  155SOL     OW  463   0.221   1.498   1.297 -0.1343  0.1258 -0.4920
  155SOL    HW1  464   0.171   1.582   1.333 -1.4847 -1.5868 -1.3488
  155SOL    HW2  465   0.326   1.497   1.297  1.5806 -1.5580 -1.6156
  156SOL     OW  466   2.556   2.061   3.042  0.3327  0.0950  0.1060
  156SOL    HW1  467   2.583   2.073   2.943  0.9670  1.9722 -1.6456
  156SOL    HW2  468   2.500   1.974   3.061 -1.3995 -1.8883 -0.3921
  157SOL     OW  469   0.894   0.698   0.303 -0.0768  0.0891 -0.4652
  157SOL    HW1  470   0.816   0.644   0.347  1.9431  0.1309 -1.8399
  157SOL    HW2  471   0.886   0.708   0.204  0.1316 -0.9260 -0.2722
  158SOL     OW  472   2.530   3.022   2.814  0.2656  0.2077  0.3418
  158SOL    HW1  473   2.471   3.071   2.741 -0.7586  1.3787 -0.1847
  158SOL    HW2  474   2.504   3.054   2.914  1.0015  1.7569  1.8677
  159SOL     OW  475   0.533   0.235   0.624  0.3058 -0.0029  0.1110
  159SOL    HW1  476   0.433   0.220   0.634 -1.3617  1.5397 -0.9618
  159SOL    HW2  477   0.582   0.201   0.703 -3.8527  0.1602  0.7576
  160SOL     OW  478   1.355   1.741   2.629 -0.2673 -0.5684 -0.2532
  160SOL    HW1  479   1.278   1.707   2.575 -0.0312  2.9905 -3.7570
  160SOL    HW2  480   1.378   1.675   2.701  1.3603 -2.5640  0.2285
  161SOL     OW  481   3.013   1.267   2.726 -0.2287 -0.5380  0.1604
  161SOL    HW1  482   3.080   1.346   2.714 -1.5317 -0.9241  0.7706
  161SOL    HW2  483   2.947   1.299   2.796  0.0683  2.3866  1.3388
  162SOL     OW  484   0.620   2.269   1.368 -0.2834  0.2675  0.1504
  162SOL    HW1  485   0.672   2.186   1.334 -1.8656 -1.4947 -0.2127
  162SOL    HW2  486   0.551   2.254   1.442 -0.4067 -3.1145  1.2665
  163SOL     OW  487   2.178   0.179   2.197  0.1007 -0.4761 -0.7430
  163SOL    HW1  488   2.155   0.215   2.290 -2.4280  1.2970  0.6907
  163SOL    HW2  489   2.132   0.230   2.120  0.0714 -0.3836 -1.2360
  164SOL     OW  490   2.139   1.479   0.563 -0.6084  0.2154 -0.1814
  164SOL    HW1  491   2.048   1.505   0.532  0.4265 -0.3868 -0.7269
  164SOL    HW2  492   2.209   1.523   0.500  1.6870  2.9411  1.4938
  165SOL     OW  493   3.034   0.355   1.631 -0.1420 -0.0080  0.5131
  165SOL    HW1  494   3.065   0.358   1.732  0.8151 -1.0749  1.5815
  165SOL    HW2  495   0.026   0.318   1.572  0.3041  2.7272  0.8993
  166SOL     OW  496   2.091   0.880   0.206  0.5116 -0.6300 -0.5051
  166SOL    HW1  497   2.026   0.894   0.284 -4.2173 -1.8434 -0.0379
  166SOL    HW2  498   2.187   0.886   0.233 -1.7964  1.9561  0.2044
  167SOL     OW  499   2.955   0.587   0.298 -0.2173 -0.4323  0.1201
  167SOL    HW1  500   2.905   0.518   0.238 -1.9064 -1.7584 -0.8125
  167SOL    HW2  501   2.946   0.684   0.260 -0.1404  3.7277 -1.1169
  168SOL     OW  502   1.541   2.661   2.514  0.2896 -0.6620 -0.4037
  168SOL    HW1  503   1.548   2.712   2.604 -1.8556  4.6519  0.5980
  168SOL    HW2  504   1.475   2.584   2.522 -1.2101 -1.1476  0.0071
  169SOL     OW  505   0.597   1.684   0.338  0.1379  0.1420 -0.2426
  169SOL    HW1  506   0.651   1.716   0.257  0.9991  2.0328  3.0029
  169SOL    HW2  507   0.626   1.590   0.366 -1.1698  1.7071 -1.3176
  170SOL     OW  508   3.049   0.357   1.192 -0.2292  0.0295 -0.2291
  170SOL    HW1  509   0.068   0.334   1.170  1.1926 -0.1184  1.0094
  170SOL    HW2  510   3.013   0.412   1.118 -0.7485 -1.2378  1.7160
  171SOL     OW  511   1.382   1.978   2.951  0.2714  0.4966  0.4069
  171SOL    HW1  512   1.287   1.957   2.920  1.8987 -1.2119 -1.0146
  171SOL    HW2  513   1.384   1.972   3.052  0.5421  1.0767  0.9599
  172SOL     OW  514   2.781   2.916   1.371 -0.4292  0.4608 -0.2234
  172SOL    HW1  515   2.703   2.982   1.401 -4.3840  2.0187 -0.1569
  172SOL    HW2  516   2.862   2.974   1.344 -0.8569 -0.5634  0.6487
  173SOL     OW  517   1.542   0.728   2.703  0.3097 -0.4191 -0.1094
  173SOL    HW1  518   1.641   0.729   2.734  3.1207 -1.2747 -2.0471
  173SOL    HW2  519   1.552   0.690   2.608  0.9317  0.0595  1.4788
  174SOL     OW  520   1.567   3.074   2.691 -0.1644 -0.1817  0.1465
  174SOL    HW1  521   1.629   0.071   2.690 -0.4212 -1.0778 -0.5777
  174SOL    HW2  522   1.579   3.010   2.612  0.1147  0.5871  1.2014
  175SOL     OW  523   2.270   2.375   0.844 -0.5613  0.6574 -0.0448
  175SOL    HW1  524   2.334   2.367   0.919  0.5614 -0.1470 -3.3178
  175SOL    HW2  525   2.175   2.356   0.870  1.7199  0.9669  1.5856
  176SOL     OW  526   1.536   0.302   2.678  0.4537 -0.1129  0.0079
  176SOL    HW1  527   1.467   0.336   2.743  1.8908  1.1310 -0.5523
  176SOL    HW2  528   1.628   0.284   2.718 -1.4640  1.5503 -0.2253
  177SOL     OW  529   1.022   1.674   0.327  0.2294  0.4317  0.4283
  177SOL    HW1  530   1.056   1.769   0.306 -1.9720 -0.3285 -2.4978
  177SOL    HW2  531   0.954   1.644   0.251 -1.5105 -3.3386 -1.7031
  178SOL     OW  532   2.570   2.171   0.226 -0.0105 -0.8811 -0.1030
  178SOL    HW1  533   2.557   2.135   0.132 -1.2473 -0.5348  1.4620
  178SOL    HW2  534   2.520   2.261   0.237  0.1721  2.3755  1.7407
  179SOL     OW  535   0.044   2.788   2.826 -0.3416 -0.7067 -0.2920
  179SOL    HW1  536   0.011   2.815   2.916 -2.9616  0.3039 -0.0418
  179SOL    HW2  537   0.007   2.859   2.758 -3.7725  2.5715  1.0514
  180SOL     OW  538   1.656   1.437   0.918 -0.6028  0.0906  0.1458
  180SOL    HW1  539   1.680   1.512   0.984  0.3831 -0.5906 -2.8264
  180SOL    HW2  540   1.566   1.390   0.939 -0.6631 -3.5666  1.6507
  181SOL     OW  541   1.769   0.732   2.043 -0.4772  0.0145  0.1443
  181SOL    HW1  542   1.755   0.824   2.089  0.3739 -0.7586  3.2923
  181SOL    HW2  543   1.711   0.715   1.959  1.1567  0.2320 -2.4342
  182SOL     OW  544   2.573   2.878   2.326 -0.0585 -0.5085  0.1946
  182SOL    HW1  545   2.494   2.828   2.274 -1.4077 -1.4733  0.3283
  182SOL    HW2  546   2.661   2.837   2.294  1.6717 -1.5227 -0.7536
  183SOL     OW  547   1.384   0.735   2.055 -0.4766  0.4652 -0.4366
  183SOL    HW1  548   1.448   0.771   1.983  0.5934  2.1844 -2.2629
  183SOL    HW2  549   1.368   0.631   2.055  0.2757 -1.6354  3.2227
  184SOL     OW  550   0.190   1.067   1.210 -0.2866 -0.0659 -0.3151
  184SOL    HW1  551   0.129   1.148   1.200  1.2833  0.7357  2.6838
  184SOL    HW2  552   0.197   1.039   1.308 -1.6613 -0.9149 -0.6231
  185SOL     OW  553   1.792   0.595   0.642 -0.0320 -0.4872 -0.2073
  185SOL    HW1  554   1.827   0.500   0.631  0.4960  5.0987 -1.0967
  185SOL    HW2  555   1.839   0.648   0.716 -2.9882 -0.4930 -0.3632
  186SOL     OW  556   0.752   2.607   0.009  0.4604  0.1047 -0.1469
  186SOL    HW1  557   0.695   2.590   0.094 -0.6017 -0.7820  0.6268
  186SOL    HW2  558   0.834   2.547   0.008  0.4300 -1.8193  2.4709
  187SOL     OW  559   2.472   0.910   2.896  0.5166  0.4712 -0.0183
  187SOL    HW1  560   2.451   0.883   2.797 -0.1713  1.5651 -0.9341
  187SOL    HW2  561   2.420   0.858   2.972  0.2556 -1.8862  2.3428
  188SOL     OW  562   2.909   1.499   1.464  0.1018 -0.6894 -0.2166
  188SOL    HW1  563   3.010   1.489   1.467 -3.3972 -2.0901 -0.0466
  188SOL    HW2  564   2.869   1.463   1.551 -2.3995 -0.0626  0.1299
  189SOL     OW  565   2.657   0.214   3.051  0.1337 -0.3294  0.3777
  189SOL    HW1  566   2.734   0.204   0.031 -5.0305  0.5295 -1.9077
  189SOL    HW2  567   2.652   0.309   3.014 -2.1139 -0.9568 -0.1064
  190SOL     OW  568   1.230   1.121   2.045 -0.2043  0.1624 -0.0759
  190SOL    HW1  569   1.314   1.186   2.050  2.8326  1.3096  1.0002
  190SOL    HW2  570   1.169   1.148   2.123 -0.1082  0.1018  0.3730
  191SOL     OW  571   2.730   0.405   1.841  0.1152  0.4494 -0.0540
  191SOL    HW1  572   2.635   0.434   1.836 -0.0656 -0.5348  1.7399
  191SOL    HW2  573   2.802   0.467   1.799  1.2193  1.0849  0.9985
  192SOL     OW  574   2.234   1.407   1.426 -0.2242  0.3684  0.2682
  192SOL    HW1  575   2.247   1.385   1.526  0.6216 -1.3967 -0.2368
  192SOL    HW2  576   2.329   1.402   1.387 -2.6924 -3.9534  0.0968
  193SOL     OW  577   1.149   0.714   1.186 -0.0478  0.1723  0.2575
  193SOL    HW1  578   1.119   0.765   1.270 -3.9450  1.9615  1.3090
  193SOL    HW2  579   1.184   0.622   1.208 -2.8977 -0.4497 -1.6546
  194SOL     OW  580   1.175   2.590   1.802  1.0008 -0.2375 -0.3421
  194SOL    HW1  581   1.230   2.643   1.736 -1.8808 -0.3900  0.9509
  194SOL    HW2  582   1.084   2.638   1.816 -0.4105  2.1994 -0.4404
  195SOL     OW  583   1.745   0.214   2.823  0.1087 -0.0048 -0.2486
  195SOL    HW1  584   1.819   0.193   2.753 -1.7529  1.3252 -2.0481
  195SOL    HW2  585   1.745   0.144   2.896  1.4152  3.0975  1.1087
  196SOL     OW  586   1.135   2.335   1.880 -0.0774 -0.2742  0.1563
  196SOL    HW1  587   1.066   2.286   1.822 -3.4089  1.0123  0.0760
  196SOL    HW2  588   1.156   2.422   1.834 -1.6576 -0.8941 -1.8680
  197SOL     OW  589   1.217   2.796   1.013  0.2498 -0.6290 -0.4649
  197SOL    HW1  590   1.179   2.749   0.936  4.1516  0.3882  1.4159
  197SOL    HW2  591   1.320   2.798   1.008 -0.2664 -2.8691  1.2611
  198SOL     OW  592   0.949   0.969   0.788 -0.9616  0.2754  0.4063
  198SOL    HW1  593   0.878   0.935   0.854 -0.5743  0.9141 -1.6573
  198SOL    HW2  594   0.905   0.983   0.695 -0.5859  1.3001  1.5955
  199SOL     OW  595   3.012   2.781   1.812  0.2904  0.0906  0.3320
  199SOL    HW1  596   3.063   2.802   1.728 -0.7961  0.4821 -0.2473
  199SOL    HW2  597   3.061   2.825   1.887  0.7280  1.0836 -1.4824
  200SOL     OW  598   2.083   2.189   2.100 -0.4983  0.3703 -0.0539
  200SOL    HW1  599   2.181   2.186   2.060  1.0969 -1.2027  0.4429
  200SOL    HW2  600   2.081   2.261   2.169  1.1712  0.4611  0.3155
  201SOL     OW  601   0.275   1.655   2.043 -0.2785  0.3218  0.3861
  201SOL    HW1  602   0.259   1.661   1.942  0.0397  3.3169 -3.0175
  201SOL    HW2  603   0.358   1.603   2.069  0.6126 -0.6239  0.7970
  202SOL     OW  604   2.488   0.374   0.160 -0.3617  0.6080  0.5015
  202SOL    HW1  605   2.540   0.341   0.081  3.2029  1.3863 -0.1933
  202SOL    HW2  606   2.478   0.299   0.223  2.0773  0.2953  0.3465
  203SOL     OW  607   1.018   2.392   2.118 -0.4503 -0.2967  0.0133
  203SOL    HW1  608   0.989   2.492   2.116  0.0430  0.5904 -1.9387
  203SOL    HW2  609   1.083   2.371   2.044 -1.0133 -2.3570  0.6967
  204SOL     OW  610   1.307   2.128   1.877  0.4203  0.2753  0.1715
  204SOL    HW1  611   1.387   2.161   1.818  2.4020  1.1378  1.3679
  204SOL    HW2  612   1.240   2.206   1.880 -0.2168 -0.1439 -0.5961
  205SOL     OW  613   1.484   1.592   1.967 -0.2290 -0.0201 -0.1020
  205SOL    HW1  614   1.551   1.524   1.930 -1.2147  1.5338 -0.3624
  205SOL    HW2  615   1.488   1.681   1.921 -2.2696 -0.5031  0.5402
  206SOL     OW  616   0.380   0.777   2.495 -0.7168  0.1458  0.1106
  206SOL    HW1  617   0.417   0.682   2.518  0.7312 -1.0664  1.2440
  206SOL    HW2  618   0.457   0.842   2.478  0.5705 -1.3745 -0.8667
  207SOL     OW  619   1.243   3.076   1.637  0.3004  0.0241 -0.2690
  207SOL    HW1  620   1.240   0.079   1.691  1.8810  0.0864  0.9234
  207SOL    HW2  621   1.154   3.028   1.633 -0.0223  0.3441  0.2638
  208SOL     OW  622   0.681   2.779   1.917 -0.1984  0.1487  0.0736
  208SOL    HW1  623   0.705   2.821   2.007  3.5277  0.3968 -1.7690
  208SOL    HW2  624   0.650   2.684   1.924 -0.1139  2.6118  1.3714
  209SOL     OW  625   1.320   0.745   0.200  0.4062  0.2512 -0.0699
  209SOL    HW1  626   1.404   0.688   0.188  1.4845 -1.4083 -0.1522
  209SOL    HW2  627   1.265   0.734   0.118 -1.5084 -2.5107  0.6024
  210SOL     OW  628   2.863   0.540   0.548  0.0210  0.3307 -0.1085
  210SOL    HW1  629   2.915   0.582   0.623 -0.0549  0.7317  0.2719
  210SOL    HW2  630   2.904   0.558   0.457 -0.0565  1.9881  2.1156
  211SOL     OW  631   0.480   0.406   1.237 -0.0246 -0.5851 -0.0793
  211SOL    HW1  632   0.448   0.499   1.254  0.4834 -1.2995 -0.9739
  211SOL    HW2  633   0.572   0.411   1.194  0.4287  0.7997 -1.7163
  212SOL     OW  634   1.163   1.895   1.200  0.0239 -0.2596 -0.7732
  212SOL    HW1  635   1.136   1.804   1.177  2.5197  4.1705 -0.6480
  212SOL    HW2  636   1.151   1.914   1.302  2.6061 -0.9991 -0.0606
  213SOL     OW  637   2.039   0.454   1.790  0.3925  0.1869  0.1460
  213SOL    HW1  638   2.054   0.510   1.708 -0.2130 -2.1872 -0.3817
  213SOL    HW2  639   2.102   0.468   1.866  0.2250 -1.1269 -3.1783
  214SOL     OW  640   0.883   2.339   2.429  0.4850  0.8840  0.9442
  214SOL    HW1  641   0.942   2.260   2.398 -0.2791 -1.1012  0.5600
  214SOL    HW2  642   0.786   2.327   2.398  0.4376  0.0445 -3.4652
  215SOL     OW  643   2.529   1.623   1.513 -0.2903 -0.5140  0.6160
  215SOL    HW1  644   2.489   1.635   1.607  0.8858  1.9482  1.5062
  215SOL    HW2  645   2.561   1.529   1.489  0.3157  1.6921 -0.8037
  216SOL     OW  646   0.470   1.053   1.506 -0.1984  0.4541  0.1116
  216SOL    HW1  647   0.506   1.030   1.602 -1.0195  0.4908 -0.3155
  216SOL    HW2  648   0.384   1.006   1.487  1.6241 -0.5510 -1.7709
  217SOL     OW  649   0.043   0.262   0.523 -0.3043 -0.0499 -0.2071
  217SOL    HW1  650   0.044   0.300   0.427 -1.3671  2.0980 -3.1164
  217SOL    HW2  651   3.035   0.291   0.564  1.4710  0.2522  1.7412
  218SOL     OW  652   1.859   1.751   0.895 -0.0183 -0.1397 -0.6124
  218SOL    HW1  653   1.956   1.769   0.869 -0.3951 -0.6717  0.2747
  218SOL    HW2  654   1.856   1.704   0.983  0.5287  0.9102  0.5643
  219SOL     OW  655   1.584   0.298   0.150  0.3477 -0.6630  0.2191
  219SOL    HW1  656   1.505   0.271   0.090 -2.7743  0.8300  1.6894
  219SOL    HW2  657   1.539   0.336   0.234 -0.8963 -1.4887  3.1340
  220SOL     OW  658   1.617   1.840   0.938 -0.6255  0.3801 -0.6768
  220SOL    HW1  659   1.698   1.788   0.914 -0.7045 -1.2788  2.1939
  220SOL    HW2  660   1.534   1.781   0.945  2.2713  2.1253  0.0697
  221SOL     OW  661   2.860   0.851   0.535  0.0333  0.3966 -0.2580
  221SOL    HW1  662   2.854   0.845   0.433 -1.2881  1.4148 -0.0104
  221SOL    HW2  663   2.767   0.849   0.571 -0.7213 -0.0475 -0.3172
  222SOL     OW  664   0.964   2.670   1.558 -0.1526 -0.5554 -0.2722
  222SOL    HW1  665   1.018   2.650   1.474  0.5244 -1.3831 -0.3927
  222SOL    HW2  666   0.878   2.618   1.554  0.3968  1.1735  1.3633
  223SOL     OW  667   1.345   0.259   0.019  0.3796  0.2935 -0.5603
  223SOL    HW1  668   1.337   0.281   3.002  1.4726 -0.6597 -0.8942
  223SOL    HW2  669   1.252   0.275   0.065 -1.1613  1.9536  2.1474
  224SOL     OW  670   2.653   0.582   1.144 -0.4447  0.0207  0.4691
  224SOL    HW1  671   2.707   0.650   1.094 -1.4305  0.5997 -0.1860
  224SOL    HW2  672   2.578   0.635   1.184 -0.4404  0.0365  0.7088
  225SOL     OW  673   0.658   1.620   1.485  0.2041 -0.3017 -0.1631
  225SOL    HW1  674   0.756   1.615   1.450  0.4783  0.8416  2.1454
  225SOL    HW2  675   0.594   1.627   1.409  1.0715 -0.2535  1.1482
  226SOL     OW  676   1.102   2.756   0.733  0.1211 -0.0424 -0.4264
  226SOL    HW1  677   1.032   2.828   0.706 -1.5686  0.9098 -0.7385
  226SOL    HW2  678   1.202   2.781   0.708  2.3314  2.3998 -0.3782
  227SOL     OW  679   1.175   1.885   1.834 -0.1483 -0.0170 -0.3758
  227SOL    HW1  680   1.073   1.890   1.855 -2.9964 -0.6909 -1.0873
  227SOL    HW2  681   1.219   1.976   1.827  1.4738  0.5113 -2.3885
  228SOL     OW  682   0.616   0.434   1.770  0.1450  0.2363 -0.1255
  228SOL    HW1  683   0.704   0.393   1.742  0.6981  0.5529 -1.1438
  228SOL    HW2  684   0.561   0.366   1.830  1.1521 -0.3117  2.6445
  229SOL     OW  685   2.730   0.691   0.080 -0.1561 -0.4195  0.0272
  229SOL    HW1  686   2.761   0.759   0.153 -1.8155  1.0130  1.3136
  229SOL    HW2  687   2.775   0.601   0.098  0.4560  0.9664  0.4183
  230SOL     OW  688   0.163   0.986   1.753  0.7442  0.0614 -0.1396
  230SOL    HW1  689   0.241   0.926   1.779 -1.2446 -1.4895 -2.0044
  230SOL    HW2  690   0.132   1.045   1.830 -0.3955 -2.2836 -1.4132
  231SOL     OW  691   1.092   2.821   1.245 -0.2874 -0.7053  0.0927
  231SOL    HW1  692   1.122   2.737   1.290 -3.6053 -0.0467 -0.4760
  231SOL    HW2  693   1.129   2.813   1.146  1.2190 -0.7368 -2.7357
  232SOL     OW  694   2.895   2.547   0.131  0.2998  0.4118  0.3468
  232SOL    HW1  695   2.955   2.493   0.062  0.0873 -0.8726 -1.7901
  232SOL    HW2  696   2.838   2.479   0.184  1.5459 -0.1903  1.3812
  233SOL     OW  697   1.286   2.425   3.077 -0.2273  0.5456 -0.3002
  233SOL    HW1  698   1.292   2.414   2.978 -2.4409  0.2083 -0.5838
  233SOL    HW2  699   1.242   2.515   0.024 -0.1468  0.7743 -0.1052
  234SOL     OW  700   0.818   1.223   1.828 -0.3275 -0.1821 -0.4012
  234SOL    HW1  701   0.773   1.293   1.885 -1.0800 -0.9956  1.5180
  234SOL    HW2  702   0.891   1.182   1.888 -1.0113 -0.2044  1.1253
  235SOL     OW  703   0.046   2.298   2.747 -0.4448 -0.3761  0.6153
  235SOL    HW1  704   0.147   2.299   2.729  0.4083  0.8974  1.2589
  235SOL    HW2  705   0.011   2.393   2.744 -1.8669  1.6407 -0.7965
  236SOL     OW  706   1.938   2.225   2.769 -0.8298 -0.1161  0.3636
  236SOL    HW1  707   2.020   2.218   2.713  0.0093  0.4934  1.9762
  236SOL    HW2  708   1.863   2.175   2.724  4.5093  0.5892  1.4433
  237SOL     OW  709   2.069   1.180   0.963 -0.0522  0.0483  0.2710
  237SOL    HW1  710   1.983   1.168   0.908 -0.8875 -1.9698  1.2094
  237SOL    HW2  711   2.110   1.267   0.922  1.0991  1.5571 -3.0796
  238SOL     OW  712   1.294   2.696   2.307 -0.0264 -0.6913  0.3242
  238SOL    HW1  713   1.311   2.658   2.397  3.1037 -0.5118 -2.6953
  238SOL    HW2  714   1.194   2.695   2.287 -0.5476 -0.1371 -2.0603
  239SOL     OW  715   0.727   2.243   1.935  0.3725  0.1170  0.1938
  239SOL    HW1  716   0.805   2.205   1.991 -0.7858  0.1449  2.0404
  239SOL    HW2  717   0.728   2.229   1.831  2.7312 -1.1627 -1.4545
  240SOL     OW  718   2.958   3.041   0.649 -0.1206  0.5278 -0.0475
  240SOL    HW1  719   2.882   2.977   0.614 -0.9405 -1.5664 -2.0312
  240SOL    HW2  720   2.937   0.055   0.624  1.1207 -0.3789  0.6959
  241SOL     OW  721   1.058   1.720   2.919 -0.1546 -0.2192  0.4053
  241SOL    HW1  722   1.120   1.673   2.986 -0.2181 -1.6862 -0.2480
  241SOL    HW2  723   1.119   1.771   2.858  0.2716  0.3939  0.0151
  242SOL     OW  724   2.313   0.761   0.001  0.3241  0.1189  0.5416
  242SOL    HW1  725   2.381   0.702   0.046  1.0264  0.1964  1.5889
  242SOL    HW2  726   2.233   0.788   0.055 -1.3196 -0.0371  0.4968
  243SOL     OW  727   0.777   0.329   2.043  0.6809 -0.0237  0.4195
  243SOL    HW1  728   0.822   0.409   1.998  1.5681 -3.0751 -3.3297
  243SOL    HW2  729   0.772   0.249   1.979 -0.5079 -0.8719  1.8139
  244SOL     OW  730   1.773   2.436   2.717 -0.2303  0.2439 -0.1005
  244SOL    HW1  731   1.721   2.495   2.783 -3.5011  1.5135  0.6842
  244SOL    HW2  732   1.838   2.372   2.765  1.0517  0.1056  1.8144
  245SOL     OW  733   1.943   2.351   0.124  0.6392  0.3290  0.0824
  245SOL    HW1  734   1.855   2.347   0.177 -3.1436 -3.6735  0.8049
  245SOL    HW2  735   2.001   2.429   0.151  0.1348 -1.2357 -1.0690
  246SOL     OW  736   1.029   0.930   2.418 -0.5635  0.2682  0.2165
  246SOL    HW1  737   1.083   0.935   2.332  3.2776  2.4494 -1.4763
  246SOL    HW2  738   0.965   1.008   2.424  0.8128  1.8262 -4.5936
  247SOL     OW  739   2.893   0.896   2.751 -0.2836 -0.0196  0.1961
  247SOL    HW1  740   2.840   0.940   2.827  0.0912  1.0085  0.3656
  247SOL    HW2  741   2.907   0.946   2.664  2.5939 -2.8849 -1.0547
  248SOL     OW  742   0.078   1.076   1.999 -0.7256  0.1691 -0.3308
  248SOL    HW1  743   3.061   1.064   1.991 -0.2979 -1.5166 -0.9544
  248SOL    HW2  744   0.110   1.017   2.080  1.2369  0.9634  0.5125
  249SOL     OW  745   0.125   0.388   0.282 -0.2530  0.1702  0.6801
  249SOL    HW1  746   0.102   0.439   0.196  0.3496  0.0983  2.0601
  249SOL    HW2  747   0.219   0.414   0.313  1.5873 -0.5757 -1.5067
  250SOL     OW  748   2.874   0.165   0.123  0.4620  0.0920  0.5869
  250SOL    HW1  749   2.943   0.105   0.080  1.3271 -0.2755 -0.2073
  250SOL    HW2  750   2.853   0.123   0.216  1.1233  2.2404  1.8476
  251SOL     OW  751   0.967   1.500   1.909  0.5781  0.5238  0.2689
  251SOL    HW1  752   1.049   1.532   1.956 -1.4921 -3.2009 -5.3947
  251SOL    HW2  753   0.996   1.463   1.816  1.0801  0.2871 -3.7028
  252SOL     OW  754   1.836   1.896   1.322  0.3880  0.3654  0.1661
  252SOL    HW1  755   1.931   1.879   1.354 -2.6207 -0.6972  0.4678
  252SOL    HW2  756   1.833   1.953   1.236  1.0209 -0.2045 -1.5505
  253SOL     OW  757   1.794   2.230   2.060 -0.4146  0.0515 -0.2484
  253SOL    HW1  758   1.896   2.237   2.074  1.6597 -0.1844 -1.0010
  253SOL    HW2  759   1.759   2.326   2.059  0.5623  2.8971 -1.1507
  254SOL     OW  760   0.736   2.070   2.287 -0.3851 -0.1882 -0.2759
  254SOL    HW1  761   0.674   2.151   2.281 -0.5513 -0.6364 -1.4165
  254SOL    HW2  762   0.825   2.084   2.238  1.8113 -1.7546  0.2342
  255SOL     OW  763   1.575   0.180   0.529  0.3052  0.0436 -0.3353
  255SOL    HW1  764   1.663   0.194   0.479  1.0810  1.7213  0.3216
  255SOL    HW2  765   1.535   0.267   0.556  0.5330 -0.4492 -1.1556
  256SOL     OW  766   1.839   2.229   1.403  0.4054  0.1858  0.3993
  256SOL    HW1  767   1.828   2.325   1.423 -1.4510 -0.9404  1.0493
  256SOL    HW2  768   1.931   2.190   1.431  0.6951  1.8290  0.2361
  257SOL     OW  769   0.412   2.569   2.667  0.2963 -0.3845 -0.1638
  257SOL    HW1  770   0.503   2.603   2.699  0.6077 -1.9557  0.0341
  257SOL    HW2  771   0.351   2.565   2.748  1.6436 -0.0593 -0.1475
  258SOL     OW  772   0.592   0.928   1.980  0.2649  0.2965 -0.2248
  258SOL    HW1  773   0.632   0.840   1.943 -1.8212 -0.4720 -0.0657
  258SOL    HW2  774   0.639   0.965   2.064  3.5491  3.1648  2.7298
  259SOL     OW  775   1.254   0.848   2.568  0.1801  0.2938  0.3812
  259SOL    HW1  776   1.283   0.908   2.645  0.3999  0.1100  0.2675
  259SOL    HW2  777   1.174   0.887   2.517  0.9071 -2.2223 -2.6970
  260SOL     OW  778   2.124   0.651   0.415  0.1772 -0.2653 -0.6153
  260SOL    HW1  779   2.155   0.591   0.496  1.5059  2.8933  1.3697
  260SOL    HW2  780   2.043   0.715   0.431 -1.0534  0.2710  1.2119
  261SOL     OW  781   0.982   0.322   0.518 -0.3528  0.0443  0.5030
  261SOL    HW1  782   0.895   0.275   0.489  1.3758  0.3280 -0.2452
  261SOL    HW2  783   1.022   0.279   0.603 -0.6315 -1.6515  1.4923
  262SOL     OW  784   1.832   2.533   2.481  0.8132  0.6856 -0.2917
  262SOL    HW1  785   1.828   2.478   2.566  0.5148 -2.3983 -0.1206
  262SOL    HW2  786   1.753   2.599   2.473 -1.3020 -2.5184  0.7392
  263SOL     OW  787   0.413   1.785   2.871 -0.5303 -0.2025 -0.2549
  263SOL    HW1  788   0.353   1.746   2.941  3.3321  0.2568 -2.7878
  263SOL    HW2  789   0.371   1.863   2.826 -2.3352 -3.0272  0.3681
  264SOL     OW  790   0.310   1.640   1.782 -0.1136 -0.1163  0.5722
  264SOL    HW1  791   0.402   1.595   1.759  1.9733  0.6608 -0.1876
  264SOL    HW2  792   0.233   1.594   1.726 -1.6148  1.5415  0.9396
  265SOL     OW  793   0.869   1.213   0.289 -0.0318  0.6131 -0.0057
  265SOL    HW1  794   0.935   1.268   0.235 -0.6275 -4.6185 -1.4271
  265SOL    HW2  795   0.905   1.119   0.312  0.2973 -1.6607 -1.0967
  266SOL     OW  796   1.486   1.608   0.113  0.1386  0.0124  0.1970
  266SOL    HW1  797   1.434   1.559   0.188 -0.0772 -0.0265 -1.4119
  266SOL    HW2  798   1.510   1.702   0.140 -1.1215  1.8517 -1.1724
  267SOL     OW  799   0.167   0.268   2.926 -0.0388 -0.0764  0.0188
  267SOL    HW1  800   0.080   0.319   2.914 -0.3538  1.6773  0.2894
  267SOL    HW2  801   0.218   0.308   3.007 -2.1450  2.5071  1.4719
  268SOL     OW  802   1.077   0.211   2.802  0.5725  0.2834  0.1584
  268SOL    HW1  803   1.015   0.272   2.850  1.8476 -2.8341  0.9422
  268SOL    HW2  804   1.087   0.131   2.856 -1.4209  2.1986 -3.1289
  269SOL     OW  805   1.541   0.421   2.359  1.1764  0.1426 -0.8354
  269SOL    HW1  806   1.600   0.379   2.286 -1.4884 -1.1406  0.5559
  269SOL    HW2  807   1.488   0.346   2.404  0.9467 -0.3477 -1.9116
  270SOL     OW  808   0.645   0.766   2.695  0.3139 -0.0293  0.1870
  270SOL    HW1  809   0.714   0.768   2.625 -0.6310  0.8145  1.6109
  270SOL    HW2  810   0.582   0.685   2.678 -0.8111  0.3260 -1.4871
  271SOL     OW  811   0.148   1.024   0.256  0.0771 -0.4913 -0.5878
  271SOL    HW1  812   0.142   1.092   0.182  2.3138 -1.8117 -0.5722
  271SOL    HW2  813   0.159   1.076   0.340 -3.4802  1.0175 -3.3711
  272SOL     OW  814   2.194   1.229   2.806 -0.5926  0.1528 -0.0647
  272SOL    HW1  815   2.231   1.296   2.742 -2.8316 -1.1898 -0.5819
  272SOL    HW2  816   2.119   1.178   2.764  4.1709  1.5420  0.5604
  273SOL     OW  817   2.767   0.341   2.304  0.4181 -0.0160 -0.0424
  273SOL    HW1  818   2.764   0.440   2.289 -1.5567 -3.2776 -1.1525
  273SOL    HW2  819   2.817   0.317   2.391 -0.1121  0.6806 -0.7922
  274SOL     OW  820   2.800   0.031   1.601  0.5864 -0.1484  0.0559
  274SOL    HW1  821   2.812   0.124   1.566  1.4096 -1.0278 -0.0714
  274SOL    HW2  822   2.885   3.067   1.592 -2.6696  1.8405  1.2933
  275SOL     OW  823   1.912   1.283   0.436  0.2144  0.4282 -0.1824
  275SOL    HW1  824   1.959   1.310   0.349 -0.8846 -2.5136  1.1227
  275SOL    HW2  825   1.814   1.294   0.431  0.9784  1.4350  0.8435
  276SOL     OW  826   0.170   1.120   2.651  0.2144  0.3317 -0.1223
  276SOL    HW1  827   0.078   1.168   2.656  2.1102  1.0530 -1.5205
  276SOL    HW2  828   0.164   1.020   2.623  0.2207  2.1651 -0.3666
  277SOL     OW  829   1.794   2.508   2.059  0.3407  0.1528  0.3267
  277SOL    HW1  830   1.737   2.527   2.139 -0.3829  2.3719 -0.4458
  277SOL    HW2  831   1.774   2.584   1.991  2.2516  1.0371 -2.4866
  278SOL     OW  832   1.964   0.244   1.327  0.3555 -0.0650 -0.0483
  278SOL    HW1  833   2.015   0.200   1.399 -2.0620 -0.9608  0.3165
  278SOL    HW2  834   1.959   0.188   1.245  1.4712  0.8328  1.2961
  279SOL     OW  835   1.124   1.321   2.973 -0.0763 -0.4214 -0.3268
  279SOL    HW1  836   1.066   1.263   2.913  1.0791  2.9703  0.4238
  279SOL    HW2  837   1.212   1.274   2.991 -2.0207  1.0120  0.1560
  280SOL     OW  838   0.439   1.928   0.348 -0.5936  0.6846 -0.1378
  280SOL    HW1  839   0.466   1.832   0.357  0.3038 -0.1240  0.0588
  280SOL    HW2  840   0.514   1.984   0.309 -1.6730 -1.4261 -0.3005
  281SOL     OW  841   0.329   0.074   2.080  0.8571  0.3544 -0.5280
  281SOL    HW1  842   0.352   3.066   2.041  2.1953  0.7095  0.6237
  281SOL    HW2  843   0.234   0.096   2.056 -1.4866  0.6167  0.1304
  282SOL     OW  844   0.068   1.730   1.365 -0.2972  0.2392  0.1966
  282SOL    HW1  845   0.096   1.794   1.289  0.9740 -1.1766 -0.8529
  282SOL    HW2  846   3.070   1.766   1.416 -0.2169  0.9620  1.4117
  283SOL     OW  847   1.779   2.012   2.665 -0.4985 -0.2410  0.2624
  283SOL    HW1  848   1.848   1.961   2.718  1.5582  1.2904  0.7311
  283SOL    HW2  849   1.685   1.989   2.695  0.4081 -1.6006 -3.4282
  284SOL     OW  850   1.822   0.703   0.026  0.1701 -0.1790 -0.0219
  284SOL    HW1  851   1.849   0.796   3.076  0.6206 -3.4964  0.8982
  284SOL    HW2  852   1.779   0.647   3.037  0.1473 -0.5854  0.4631
  285SOL     OW  853   2.882   2.742   2.596 -0.3827  0.2663 -0.1642
  285SOL    HW1  854   2.833   2.753   2.682  1.2140 -0.2288 -4.5112
  285SOL    HW2  855   2.816   2.717   2.520 -0.0842  1.0865  1.3919
  286SOL     OW  856   1.983   2.695   1.276 -0.2061 -0.1423  0.2964
  286SOL    HW1  857   1.989   2.785   1.317  1.0398 -1.5379 -1.9856
  286SOL    HW2  858   1.947   2.698   1.182 -1.2294  0.4815 -1.8110
  287SOL     OW  859   0.602   1.051   1.099 -0.1257 -0.0116 -0.6008
  287SOL    HW1  860   0.685   1.045   1.158 -1.2422 -1.6536 -3.7563
  287SOL    HW2  861   0.564   1.147   1.097  1.9670  0.3793 -0.0916
  288SOL     OW  862   1.420   2.274   0.162  0.7089  0.0775  0.4271
  288SOL    HW1  863   1.409   2.328   0.249 -2.8479 -4.9633 -1.6307
  288SOL    HW2  864   1.390   2.326   0.078  0.4579 -0.2186 -1.2115
  289SOL     OW  865   2.950   1.940   2.659 -0.3283  0.4074  0.0250
  289SOL    HW1  866   2.979   1.843   2.642 -0.4973  0.5719  0.8256
  289SOL    HW2  867   3.023   1.981   2.720  1.7519 -0.7133  1.5327
  290SOL     OW  868   1.117   2.318   0.798 -0.5796  0.5136 -0.0321
  290SOL    HW1  869   1.030   2.371   0.781 -2.9097  0.4526  1.2844
  290SOL    HW2  870   1.127   2.219   0.761  0.8491 -3.3198 -0.8717
  291SOL     OW  871   1.967   1.417   0.151 -0.4208  0.0444 -0.4158
  291SOL    HW1  872   2.007   1.431   0.053 -0.0621  2.6500 -2.7689
  291SOL    HW2  873   1.903   1.492   0.174  0.3575  1.0314 -0.1462
  292SOL     OW  874   1.111   1.437   1.685  0.2046  0.0951  0.2913
  292SOL    HW1  875   1.035   1.383   1.642 -0.9294 -0.2919 -0.6870
  292SOL    HW2  876   1.188   1.385   1.723  1.8643  1.2930  0.5767
  293SOL     OW  877   2.141   2.670   0.879 -0.3440 -0.0735  0.3895
  293SOL    HW1  878   2.237   2.677   0.914  0.2299  0.4562 -1.3670
  293SOL    HW2  879   2.087   2.591   0.912  0.2969  0.8433 -2.3002
  294SOL     OW  880   2.930   1.080   2.508  0.5595 -0.4808 -0.5990
  294SOL    HW1  881   2.945   1.153   2.581  1.4433  1.4337  2.3860
  294SOL    HW2  882   2.930   1.115   2.414 -1.0525 -0.2604 -0.1279
  295SOL     OW  883   0.858   1.867   3.033  0.0138 -0.2171 -0.3856
  295SOL    HW1  884   0.899   1.959   3.033  0.4437 -0.2018  3.3035
  295SOL    HW2  885   0.928   1.798   3.002 -1.6913 -0.2719 -2.0781
  296SOL     OW  886   1.962   1.843   2.345 -0.0333  0.1780  0.5889
  296SOL    HW1  887   2.043   1.789   2.317 -0.6564 -1.9982  0.3606
  296SOL    HW2  888   1.881   1.798   2.315  2.6818  0.2786  0.6798
  297SOL     OW  889   2.633   0.459   2.685 -0.3902 -0.1388 -0.2001
  297SOL    HW1  890   2.625   0.356   2.657 -0.4565  1.0810  1.6967
  297SOL    HW2  891   2.536   0.492   2.683  0.8225  0.2722  0.6567
  298SOL     OW  892   0.628   2.170   2.744  0.3147  0.0481  0.0949
  298SOL    HW1  893   0.655   2.082   2.782 -0.9106 -0.5767  0.6761
  298SOL    HW2  894   0.573   2.146   2.661 -0.6714  1.9697  1.2714
  299SOL     OW  895   1.046   2.674   2.753 -0.2632 -0.1328  0.1373
  299SOL    HW1  896   1.046   2.618   2.667 -2.3004 -1.0058 -0.8545
  299SOL    HW2  897   1.021   2.614   2.831  0.5024  0.2917 -1.2746
  300SOL     OW  898   2.791   0.425   0.203  0.3151 -0.5714 -0.2295
  300SOL    HW1  899   2.718   0.417   0.273  1.6383  1.2791  0.4043
  300SOL    HW2  900   2.840   0.335   0.198 -0.8791  3.6570  1.0326
  301SOL     OW  901   1.019   0.879   1.380  0.1234 -0.4258 -0.1455
  301SOL    HW1  902   0.998   0.883   1.481 -1.2958  0.5146  2.9336
  301SOL    HW2  903   0.942   0.928   1.328 -0.9234 -0.0943 -1.8715
  302SOL     OW  904   2.964   2.205   2.512 -0.1871 -0.1770 -0.0265
  302SOL    HW1  905   2.936   2.112   2.540 -1.8113 -1.3934 -1.1423
  302SOL    HW2  906   3.028   2.244   2.582 -0.0660 -0.0477  1.0715
  303SOL     OW  907   0.047   0.101   2.291 -0.9284 -0.1836  0.8517
  303SOL    HW1  908   0.072   0.199   2.268  0.8602  0.1568 -0.3519
  303SOL    HW2  909   0.108   0.067   2.363  0.0755 -1.9420  0.0953
  304SOL     OW  910   2.452   0.432   1.822 -0.5157  0.6669  0.6695
  304SOL    HW1  911   2.409   0.369   1.757  3.1057  0.5228  1.8221
  304SOL    HW2  912   2.418   0.414   1.914  1.2724  0.2564 -1.1496
  305SOL     OW  913   0.384   0.089   2.344 -0.1526 -0.0702 -0.3225
  305SOL    HW1  914   0.330   0.031   2.401  2.2951  0.9310 -1.6223
  305SOL    HW2  915   0.361   0.066   2.248  0.3625  1.1569 -0.1551
  306SOL     OW  916   2.526   1.093   1.516  0.0380 -0.4165  0.4144
  306SOL    HW1  917   2.555   0.999   1.549 -0.9611  0.7776  2.4227
  306SOL    HW2  918   2.513   1.095   1.413  0.4027 -1.4939  0.3565
  307SOL     OW  919   1.768   0.637   1.249 -0.6186 -0.1678 -0.7417
  307SOL    HW1  920   1.751   0.557   1.311  1.7952  0.5759 -3.3449
  307SOL    HW2  921   1.686   0.665   1.197  2.5105 -1.4433  2.4116
  308SOL     OW  922   0.058   2.079   1.469  0.1228 -0.3416  0.5580
  308SOL    HW1  923   3.082   2.086   1.554  0.9244 -0.0478 -0.3525
  308SOL    HW2  924   0.011   2.118   1.389 -0.4043  2.6833 -0.4757
  309SOL     OW  925   2.491   1.837   1.335  0.0689 -0.4406  0.6726
  309SOL    HW1  926   2.563   1.895   1.295 -1.7262  0.6814  1.5603
  309SOL    HW2  927   2.526   1.761   1.397 -0.2105 -0.6486 -2.1801
  310SOL     OW  928   2.688   1.717   3.065 -0.1862  0.2234  0.6107
  310SOL    HW1  929   2.754   1.785   0.016  0.5117 -1.1897 -0.8046
  310SOL    HW2  930   2.706   1.631   0.039 -1.4974  0.5381 -0.0728
  311SOL     OW  931   2.131   1.684   2.777 -0.7384 -0.1783 -0.7127
  311SOL    HW1  932   2.188   1.768   2.784 -0.1045 -1.4728 -0.1916
  311SOL    HW2  933   2.047   1.689   2.714 -1.1611 -0.6389 -1.8046
  312SOL     OW  934   2.593   2.097   0.719 -0.4353 -0.4067 -0.3035
  312SOL    HW1  935   2.649   2.088   0.802  0.2063  1.4080 -1.0815
  312SOL    HW2  936   2.644   2.083   0.635 -1.8665 -2.3337  2.5118
  313SOL     OW  937   2.616   2.428   1.296 -0.7342 -0.0093  0.0095
  313SOL    HW1  938   2.610   2.394   1.392  0.1531  1.9039  0.7495
  313SOL    HW2  939   2.635   2.529   1.292  1.6536  1.5506 -0.0951
  314SOL     OW  940   0.872   2.028   1.483 -0.3955  0.1134  0.0129
  314SOL    HW1  941   0.899   2.122   1.450  0.5285  0.8794  0.3874
  314SOL    HW2  942   0.948   1.962   1.468 -3.5088  1.2290  1.8782
  315SOL     OW  943   0.491   2.862   2.264  0.3960 -0.4908  0.3452
  315SOL    HW1  944   0.420   2.809   2.315 -1.7414 -0.9341  1.6433
  315SOL    HW2  945   0.582   2.837   2.303  0.5050  0.3099  1.0033
  316SOL     OW  946   0.287   1.511   0.687 -0.1226 -0.0032  0.0822
  316SOL    HW1  947   0.284   1.567   0.771  0.4674  2.2741  2.2542
  316SOL    HW2  948   0.251   1.563   0.605  0.3279  0.5337 -1.2249
  317SOL     OW  949   1.813   0.252   0.426  0.4607 -0.0474  0.1513
  317SOL    HW1  950   1.832   0.321   0.350  1.8521  0.4290 -2.0180
  317SOL    HW2  951   1.875   0.269   0.505  1.6683 -0.0367 -1.7319
  318SOL     OW  952   2.900   2.691   0.394  0.3357 -0.0869  0.1008
  318SOL    HW1  953   2.821   2.631   0.380  2.7955  2.9206  1.3166
  318SOL    HW2  954   2.982   2.650   0.348  0.0175  0.2814  2.0554
  319SOL     OW  955   0.803   1.463   3.062 -0.2696 -0.6377 -0.3753
  319SOL    HW1  956   0.833   1.481   2.967  1.7909 -0.2901 -0.7594
  319SOL    HW2  957   0.714   1.414   3.070 -1.7702 -2.2775  1.2752
  320SOL     OW  958   0.768   2.793   2.392  0.5567  0.5185  0.4547
  320SOL    HW1  959   0.864   2.785   2.413 -2.8869  0.1251 -1.9457
  320SOL    HW2  960   0.723   2.870   2.444  1.6076 -1.4312  0.1998
  321SOL     OW  961   1.100   3.051   2.926  0.6594  0.3646  0.7511
  321SOL    HW1  962   1.125   2.983   2.999  0.6438  0.6384  0.7216
  321SOL    HW2  963   1.031   3.011   2.859 -0.0266  2.0974 -0.0728
  322SOL     OW  964   2.155   1.152   1.972 -0.4608 -0.6212  0.2547
  322SOL    HW1  965   2.127   1.070   2.027  0.0636 -0.4608 -0.0293
  322SOL    HW2  966   2.236   1.193   2.013  0.7279 -0.7846  2.1405
  323SOL     OW  967   2.334   0.797   0.325  0.6555 -0.1925  0.1246
  323SOL    HW1  968   2.257   0.755   0.380 -0.5359  0.5292  0.4536
  323SOL    HW2  969   2.392   0.724   0.280  0.5226  0.7822 -1.5008
  324SOL     OW  970   0.085   0.586   2.675  0.3221  0.0400  0.4915
  324SOL    HW1  971   3.065   0.598   2.692 -2.3995 -0.9748 -0.8957
  324SOL    HW2  972   0.091   0.506   2.611  0.7897 -1.6511 -0.4526
  325SOL     OW  973   1.529   0.105   1.794  0.2403 -0.3871 -0.5118
  325SOL    HW1  974   1.524   0.163   1.711  0.5456 -1.1346 -0.6414
  325SOL    HW2  975   1.600   0.035   1.781  1.4449  3.1571 -1.0026
  326SOL     OW  976   2.574   0.054   1.369  0.0285 -0.6402 -0.0020
  326SOL    HW1  977   2.496   0.095   1.408  3.8945 -2.9104 -2.5984
  326SOL    HW2  978   2.618   0.116   1.304 -0.5497  0.6649  0.5953
  327SOL     OW  979   1.785   0.743   2.799  0.4392  0.3559  0.1845
  327SOL    HW1  980   1.774   0.640   2.818 -0.3534 -2.1902 -1.8306
  327SOL    HW2  981   1.881   0.766   2.801 -2.7572 -2.8499 -1.0738
  328SOL     OW  982   2.984   1.347   2.248  0.1171 -0.4138  0.1153
  328SOL    HW1  983   2.975   1.244   2.236  0.6347  0.3575  2.4860
  328SOL    HW2  984   2.894   1.397   2.224  0.1972  0.5581 -0.5021
  329SOL     OW  985   1.799   2.687   1.840 -0.0914 -0.2325 -0.4378
  329SOL    HW1  986   1.706   2.678   1.806  0.3969 -0.1966 -0.7055
  329SOL    HW2  987   1.817   2.779   1.877 -1.8709 -1.7901 -0.8054
  330SOL     OW  988   2.444   1.606   1.801  0.2977 -0.2002 -0.0304
  330SOL    HW1  989   2.358   1.658   1.807  1.0530  0.1830 -0.2107
  330SOL    HW2  990   2.518   1.642   1.856  1.8017 -0.0647  0.7430
  331SOL     OW  991   0.370   1.947   1.109  0.3577 -0.2742  0.5605
  331SOL    HW1  992   0.416   2.038   1.122 -0.6302  0.9332 -0.0873
  331SOL    HW2  993   0.403   1.894   1.032 -3.3632 -1.1721  2.4687
  332SOL     OW  994   0.687   0.658   1.193  0.3544 -0.1769 -0.2301
  332SOL    HW1  995   0.668   0.714   1.276 -0.7350  1.6915  0.8970
  332SOL    HW2  996   0.716   0.566   1.226 -0.8607 -1.9253  0.3355
  333SOL     OW  997   2.036   2.636   2.303 -0.3550  0.2204  0.1816
  333SOL    HW1  998   1.945   2.605   2.327  1.7719 -0.4625  1.3439
  333SOL    HW2  999   2.090   2.698   2.364 -2.2980 -2.0197  0.0940
  334SOL     OW 1000   1.086   1.181   1.154  0.0109  0.5456 -0.3673
  334SOL    HW1 1001   1.145   1.111   1.112  1.6399  1.0186  0.2624
  334SOL    HW2 1002   1.114   1.193   1.256 -0.7007 -0.8042  3.4091
  335SOL     OW 1003   0.295   2.750   2.429  0.5443  0.2320 -0.2101
  335SOL    HW1 1004   0.249   2.825   2.484  0.9555 -1.2769  2.1076
  335SOL    HW2 1005   0.361   2.698   2.488  1.2651 -1.3208 -2.7210
  336SOL     OW 1006   2.431   2.521   1.703 -0.4199  0.7455 -0.2300
  336SOL    HW1 1007   2.476   2.616   1.704  1.2519  0.3108  2.0588
  336SOL    HW2 1008   2.491   2.445   1.664  0.4899  2.9657  1.2074
  337SOL     OW 1009   2.392   1.570   0.457  0.1109 -0.2792 -0.5794
  337SOL    HW1 1010   2.409   1.473   0.444 -0.3826  1.4430  1.1410
  337SOL    HW2 1011   2.417   1.630   0.383 -1.7130 -0.6536  2.0353
  338SOL     OW 1012   1.132   1.915   1.470  0.2334 -0.4463  0.5667
  338SOL    HW1 1013   1.163   1.836   1.519 -2.0637  2.6274 -0.7912
  338SOL    HW2 1014   1.183   2.002   1.487  0.6525  0.3559 -2.0564
  339SOL     OW 1015   0.007   0.768   1.667 -0.0502 -0.2062  0.5403
  339SOL    HW1 1016   0.062   0.849   1.679 -0.2192 -2.2595  1.0696
  339SOL    HW2 1017   0.077   0.698   1.636  0.3341 -2.9800  0.4977
  340SOL     OW 1018   1.743   2.806   1.566  0.1197  0.3717 -0.3435
  340SOL    HW1 1019   1.683   2.785   1.487  0.0405 -1.5397 -3.4189
  340SOL    HW2 1020   1.829   2.755   1.571 -1.8849 -0.2098 -0.0279
  341SOL     OW 1021   2.244   1.444   1.023  0.4962 -0.5016  0.1929
  341SOL    HW1 1022   2.320   1.379   1.025  0.5335  0.8798 -0.7589
  341SOL    HW2 1023   2.239   1.495   0.931 -3.2722  0.7671 -1.6917
  342SOL     OW 1024   0.449   1.768   0.925 -0.1486 -0.8929 -0.3154
  342SOL    HW1 1025   0.356   1.723   0.933 -1.5029  0.3433 -0.1488
  342SOL    HW2 1026   0.487   1.749   0.833 -3.7506 -3.2380 -0.9939
  343SOL     OW 1027   2.321   0.649   1.424  0.0447  0.3459 -0.1661
  343SOL    HW1 1028   2.243   0.585   1.435  1.4855  1.6978 -1.2646
  343SOL    HW2 1029   2.306   0.742   1.463 -1.2199 -0.8797  1.5137
  344SOL     OW 1030   2.248   0.165   0.674  0.4931 -0.4070 -0.3856
  344SOL    HW1 1031   2.307   0.238   0.637  0.5995 -0.8441 -0.2102
  344SOL    HW2 1032   2.290   0.130   0.760  2.3593  1.6402 -1.3153
  345SOL     OW 1033   3.047   2.923   2.470  0.0619  0.3831 -0.0014
  345SOL    HW1 1034   2.987   2.858   2.522 -0.8129  1.7191 -1.6052
  345SOL    HW2 1035   2.990   2.997   2.439  1.8332 -0.7283  0.0756
  346SOL     OW 1036   0.078   0.894   0.529 -0.1338 -0.5287  0.2269
  346SOL    HW1 1037   0.143   0.915   0.599 -0.4337  0.6890 -0.7948
  346SOL    HW2 1038   3.063   0.919   0.553 -1.8063 -1.2099  0.6449
  347SOL     OW 1039   1.708   2.599   1.085  0.4930 -0.0236 -0.3313
  347SOL    HW1 1040   1.696   2.659   1.003  1.9407 -2.9168 -0.2405
  347SOL    HW2 1041   1.672   2.646   1.170 -1.7081 -0.2956  1.0103
  348SOL     OW 1042   1.211   1.105   1.784 -0.1145 -0.5393 -0.2135
  348SOL    HW1 1043   1.271   1.191   1.777  2.6819  1.2957  0.7262
  348SOL    HW2 1044   1.206   1.091   1.885 -1.0717  0.8878 -1.2348
  349SOL     OW 1045   2.302   1.369   2.319  0.6601 -0.5142  0.1023
  349SOL    HW1 1046   2.302   1.274   2.359  1.3010  0.4529  2.9396
  349SOL    HW2 1047   2.387   1.419   2.336  2.2672 -1.0080  0.3527
  350SOL     OW 1048   0.111   2.056   0.794  0.0446 -0.0185 -0.1240
  350SOL    HW1 1049   0.165   2.121   0.848 -0.8775 -1.8385 -2.2158
  350SOL    HW2 1050   0.069   2.113   0.727 -0.0649 -3.9621  3.4149
  351SOL     OW 1051   0.586   0.541   2.059  0.0580  0.1899  0.2147
  351SOL    HW1 1052   0.628   0.452   2.030  1.3845 -0.9043  1.2305
  351SOL    HW2 1053   0.590   0.609   1.987  0.8142 -1.1111  3.7711
  352SOL     OW 1054   1.019   2.943   1.593  0.2068 -0.5114  0.1803
  352SOL    HW1 1055   1.041   2.976   1.499  3.1506 -1.4406 -2.3123
  352SOL    HW2 1056   1.008   2.844   1.584 -0.2280  2.4086 -0.0847
  353SOL     OW 1057   0.789   1.528   2.439  0.2961  1.1704  0.3911
  353SOL    HW1 1058   0.720   1.597   2.452  2.6920 -0.3676 -0.4606
  353SOL    HW2 1059   0.878   1.546   2.480 -0.9373 -2.9449 -1.4630
  354SOL     OW 1060   1.656   1.450   0.359 -0.3103  0.3702 -0.1851
  354SOL    HW1 1061   1.644   1.357   0.322  1.5020  0.2240  0.2249
  354SOL    HW2 1062   1.596   1.466   0.445  2.5772  0.5947  1.0673
  355SOL     OW 1063   1.954   0.341   0.631  0.3812 -0.0912 -0.2451
  355SOL    HW1 1064   1.949   0.300   0.725 -0.0215 -0.7774  2.0316
  355SOL    HW2 1065   2.043   0.392   0.617 -0.8404 -1.7524 -2.1364
  356SOL     OW 1066   0.086   1.216   0.064  0.1974  0.1225  1.1899
  356SOL    HW1 1067   0.120   1.220   3.051  1.0476  1.6982  3.7834
  356SOL    HW2 1068   0.076   1.314   0.095  2.0528  1.2696  4.0344
  357SOL     OW 1069   2.900   0.030   2.178  0.6308  0.4106  1.0289
  357SOL    HW1 1070   2.874   0.099   2.108 -1.8644 -2.8021  0.2703
  357SOL    HW2 1071   2.997   0.046   2.206 -0.7357  0.1009 -1.7321
  358SOL     OW 1072   0.406   1.258   2.577  0.0492 -0.1492  0.3561
  358SOL    HW1 1073   0.392   1.346   2.533 -1.6874 -3.1646  3.4890
  358SOL    HW2 1074   0.317   1.216   2.607 -0.5620  1.7896  0.2786
  359SOL     OW 1075   2.433   2.585   2.413 -0.0184  0.0452 -0.3170
  359SOL    HW1 1076   2.370   2.659   2.450 -3.0744  0.9453  0.4627
  359SOL    HW2 1077   2.417   2.566   2.312 -0.7418 -1.0603 -1.5201
  360SOL     OW 1078   1.424   1.318   0.950 -0.2647  0.6427 -0.0164
  360SOL    HW1 1079   1.341   1.332   0.896  2.5905 -0.4538  1.8987
  360SOL    HW2 1080   1.439   1.219   0.977  0.0372 -1.1316  1.7633
  361SOL     OW 1081   2.143   2.404   1.181 -0.4583 -0.1265 -0.5937
  361SOL    HW1 1082   2.082   2.445   1.111  0.7851  2.1112  0.3314
  361SOL    HW2 1083   2.166   2.473   1.251 -2.0165 -1.0531  0.3788
  362SOL     OW 1084   1.845   1.204   0.819  0.1687  0.2686  0.0871
  362SOL    HW1 1085   1.847   1.156   0.728  0.0871 -0.4411  0.1064
  362SOL    HW2 1086   1.779   1.282   0.824  1.3276  2.0233 -0.1893
  363SOL     OW 1087   2.666   1.997   0.478 -0.0028 -0.4128 -0.1215
  363SOL    HW1 1088   2.601   1.928   0.444  0.7256 -0.5064 -0.0143
  363SOL    HW2 1089   2.666   2.084   0.423 -0.8211 -1.8873  0.7706
  364SOL     OW 1090   2.216   0.069   1.145  0.6116  0.5636 -0.9379
  364SOL    HW1 1091   2.243   3.078   1.083  0.3415  1.3967 -2.1571
  364SOL    HW2 1092   2.134   0.119   1.111  3.1890 -2.5485  1.4061
  365SOL     OW 1093   0.213   2.761   1.275 -0.3153  0.2091 -0.3115
  365SOL    HW1 1094   0.245   2.739   1.183 -0.5938 -0.9531  2.2621
  365SOL    HW2 1095   0.109   2.758   1.277  0.4963  3.1755 -2.0706
  366SOL     OW 1096   0.139   1.215   0.458 -0.3098  0.1777  0.2883
  366SOL    HW1 1097   0.047   1.186   0.431  0.0872  1.1654  0.8401
  366SOL    HW2 1098   0.162   1.202   0.557  0.8473  0.5377 -0.1871
  367SOL     OW 1099   2.376   2.338   2.871 -0.1148 -0.1295 -0.5195
  367SOL    HW1 1100   2.438   2.276   2.926  0.8505  0.7961  0.5539
  367SOL    HW2 1101   2.400   2.330   2.770  1.0560 -0.1621 -0.2853
  368SOL     OW 1102   2.710   1.935   0.948 -0.1977 -0.1254 -0.3226
  368SOL    HW1 1103   2.689   1.951   1.047  0.1657 -0.8692  3.4019
  368SOL    HW2 1104   2.680   1.838   0.919 -2.6916 -0.1024  0.8867
  369SOL     OW 1105   0.812   1.036   0.561 -0.2317 -0.4049  0.4592
  369SOL    HW1 1106   0.714   1.023   0.540  0.3857  0.1571 -1.2186
  369SOL    HW2 1107   0.873   1.008   0.483  0.9602  0.5940 -1.6222
  370SOL     OW 1108   0.612   0.034   0.838  0.5757 -0.2867 -0.0652
  370SOL    HW1 1109   0.553   3.066   0.911 -4.1565 -0.4948  2.4299
  370SOL    HW2 1110   0.712   0.033   0.865  3.3970  0.4498 -2.2602
  371SOL     OW 1111   2.411   1.230   2.965  0.1770 -0.2314  0.1334
  371SOL    HW1 1112   2.456   1.145   2.933  0.5002 -1.7085 -0.8888
  371SOL    HW2 1113   2.324   1.235   2.907 -2.0367 -0.9979 -2.1143
  372SOL     OW 1114   0.487   0.533   2.552 -0.2191 -0.0381 -0.6624
  372SOL    HW1 1115   0.581   0.505   2.537  0.5689  0.2718 -0.1592
  372SOL    HW2 1116   0.422   0.457   2.581 -2.5368 -1.5329 -2.8206
  373SOL     OW 1117   0.456   0.587   3.006 -0.4590  0.3424 -0.3402
  373SOL    HW1 1118   0.543   0.567   2.950  1.1506 -2.2937  0.0574
  373SOL    HW2 1119   0.447   0.689   3.023  2.5327 -1.9912 -1.0516
  374SOL     OW 1120   0.955   2.444   0.036 -0.1938  0.3173 -0.2053
  374SOL    HW1 1121   1.002   2.435   3.026 -0.7868  0.4104 -2.3954
  374SOL    HW2 1122   1.021   2.471   0.106  1.6816  2.8033 -1.5438
  375SOL     OW 1123   1.034   2.987   0.620 -0.2118 -0.0367 -0.2279
  375SOL    HW1 1124   1.069   3.058   0.686  2.4492  0.0771 -1.1511
  375SOL    HW2 1125   1.110   2.958   0.559 -1.6851 -1.6083  0.3462
  376SOL     OW 1126   0.172   2.404   1.987 -0.1016 -0.0552  0.1896
  376SOL    HW1 1127   0.113   2.473   2.024  0.9216  0.0186 -2.1310
  376SOL    HW2 1128   0.266   2.432   1.967  1.1390 -1.0147  0.1861
  377SOL     OW 1129   2.831   2.222   2.934 -0.1777 -0.6361 -0.1005
  377SOL    HW1 1130   2.757   2.241   3.005 -0.3623 -1.0085  0.7824
  377SOL    HW2 1131   2.807   2.261   2.842 -3.0484 -0.7005  0.6219
  378SOL     OW 1132   1.599   0.724   0.514 -0.2892 -0.3206  0.0306
  378SOL    HW1 1133   1.686   0.670   0.525  2.0199 -0.4899 -0.8329
  378SOL    HW2 1134   1.514   0.672   0.527  1.5119  1.5663  0.4878
  379SOL     OW 1135   1.219   1.426   0.792 -0.5314  0.3504 -0.1720
  379SOL    HW1 1136   1.192   1.360   0.720  0.0655  1.7680  0.7485
  379SOL    HW2 1137   1.232   1.517   0.749 -1.5957 -1.4445  1.4003
  380SOL     OW 1138   2.475   1.999   1.851  0.5765 -0.1423 -0.0884
  380SOL    HW1 1139   2.572   1.982   1.880  1.9814 -1.2992  0.7630
  380SOL    HW2 1140   2.469   2.002   1.747 -1.8594  0.9234 -0.0273
  381SOL     OW 1141   2.959   1.067   2.237  0.0561 -0.0260  0.3992
  381SOL    HW1 1142   3.038   1.010   2.261 -3.3857  1.6173 -2.1554
  381SOL    HW2 1143   2.927   1.062   2.140 -2.4819  0.5984 -0.6602
  382SOL     OW 1144   2.842   2.258   0.221 -0.2575  0.3838  0.3864
  382SOL    HW1 1145   2.890   2.326   0.279  2.6716 -0.1386  0.6099
  382SOL    HW2 1146   2.749   2.234   0.254 -0.6334 -2.2925  0.3317
  383SOL     OW 1147   1.428   1.077   2.309  0.1424  0.6010 -0.1986
  383SOL    HW1 1148   1.402   1.116   2.221  1.9495  0.9198  2.5182
  383SOL    HW2 1149   1.490   0.997   2.308  1.2591 -1.9977  0.8744
  384SOL     OW 1150   1.084   2.109   2.654  0.1584 -0.6228 -0.7495
  384SOL    HW1 1151   1.177   2.100   2.610 -2.9192 -1.1680  0.9194
  384SOL    HW2 1152   1.032   2.186   2.622  0.6241 -3.5899  3.0467
  385SOL     OW 1153   2.218   2.199   0.148 -0.1533  0.0710 -0.7913
  385SOL    HW1 1154   2.135   2.245   0.120  0.4449 -1.5858 -3.4994
  385SOL    HW2 1155   2.294   2.262   0.181  0.6733 -0.2945 -2.2870
  386SOL     OW 1156   1.452   1.223   0.525 -0.4144  0.2406 -0.1034
  386SOL    HW1 1157   1.446   1.321   0.561 -4.6793  1.8051  2.6528
  386SOL    HW2 1158   1.467   1.164   0.606 -0.7076  0.8664 -0.6117
  387SOL     OW 1159   2.727   0.967   1.233  0.2569 -0.3447  0.1035
  387SOL    HW1 1160   2.733   1.066   1.232  0.4428 -2.9812 -2.7056
  387SOL    HW2 1161   2.639   0.932   1.191  0.2622 -0.4297 -1.0113
  388SOL     OW 1162   0.066   0.777   1.357  0.6608  0.7920 -0.3169
  388SOL    HW1 1163   3.072   0.841   1.337  2.0585 -1.3078  0.2561
  388SOL    HW2 1164   0.038   0.703   1.426 -1.7453  0.5628  0.4460
  389SOL     OW 1165   1.804   1.167   2.344 -0.1137  0.3998 -0.1921
  389SOL    HW1 1166   1.747   1.179   2.428 -1.8968  1.0997  1.4317
  389SOL    HW2 1167   1.801   1.257   2.295 -0.1850 -3.3759 -1.1370
  390SOL     OW 1168   1.458   2.119   0.517 -0.2931 -0.8429 -0.2172
  390SOL    HW1 1169   1.426   2.213   0.546 -1.8879  1.2680 -1.6533
  390SOL    HW2 1170   1.547   2.128   0.467 -2.3733 -1.0501 -0.1861
  391SOL     OW 1171   1.192   2.053   0.977 -0.0384  0.2576  0.6086
  391SOL    HW1 1172   1.191   1.993   1.062  0.3822 -0.5487  0.8724
  391SOL    HW2 1173   1.275   2.045   0.921  3.1424  0.4710  2.8935
  392SOL     OW 1174   2.288   2.398   1.914 -0.0865  0.0797 -0.1335
  392SOL    HW1 1175   2.187   2.423   1.903 -2.2514 -0.2527 -3.4401
  392SOL    HW2 1176   2.338   2.434   1.830  0.0468  1.5095  0.6675
  393SOL     OW 1177   1.577   1.860   0.194 -0.9279  0.3837 -0.1897
  393SOL    HW1 1178   1.630   1.885   0.110 -0.1963 -2.3201  0.4103
  393SOL    HW2 1179   1.640   1.831   0.270  0.5128  2.8798 -0.3785
  394SOL     OW 1180   0.150   0.364   2.246  0.5778  0.5123  0.0229
  394SOL    HW1 1181   0.088   0.416   2.178  2.2653 -0.0082 -0.9280
  394SOL    HW2 1182   0.238   0.406   2.248 -1.7094 -0.2368  1.4471
  395SOL     OW 1183   0.583   1.112   0.783 -0.0689  0.1343  0.0610
  395SOL    HW1 1184   0.616   1.213   0.790 -0.7207  1.4847  0.2213
  395SOL    HW2 1185   0.659   1.047   0.797 -0.5489  1.0740  0.8553
  396SOL     OW 1186   2.401   0.847   2.630  0.5875  0.1830 -0.2045
  396SOL    HW1 1187   2.316   0.803   2.590 -0.7750  0.6319 -0.5975
  396SOL    HW2 1188   2.476   0.859   2.565  1.6129  0.4207  2.6674
  397SOL     OW 1189   0.052   0.861   2.978  0.6166 -0.0134 -0.0911
  397SOL    HW1 1190   0.122   0.789   2.967  0.3272  0.9540  1.9732
  397SOL    HW2 1191   0.022   0.901   2.890  2.8137 -0.0227  0.7153
  398SOL     OW 1192   1.401   2.693   0.280 -0.6919  0.4538  1.0496
  398SOL    HW1 1193   1.433   2.763   0.340  1.5362 -1.8704 -2.3012
  398SOL    HW2 1194   1.421   2.723   0.183  0.3892 -0.9374  0.5806
  399SOL     OW 1195   2.015   2.469   1.889  0.7610 -0.4139 -0.4443
  399SOL    HW1 1196   1.926   2.473   1.940  0.4516 -1.5705 -0.6172
  399SOL    HW2 1197   2.011   2.400   1.813 -2.1356  2.3085 -0.1092
  400SOL     OW 1198   0.058   1.519   2.012  0.0743 -0.1243 -0.8538
  400SOL    HW1 1199   0.080   1.418   2.008  1.6508  0.2125  2.3792
  400SOL    HW2 1200   0.147   1.566   2.024  0.9120 -1.0861 -2.2143
  401SOL     OW 1201   0.560   1.032   0.529  0.6290 -0.1198  0.5015
  401SOL    HW1 1202   0.541   0.933   0.523 -1.0874  1.0261 -1.6797
  401SOL    HW2 1203   0.557   1.074   0.623 -1.2764 -1.7904  0.3163
  402SOL     OW 1204   0.684   2.989   2.091  0.4723 -0.5149 -0.0656
  402SOL    HW1 1205   0.769   3.027   2.133  0.7817  0.8031  0.7978
  402SOL    HW2 1206   0.607   3.005   2.156  1.4787 -2.2105  2.1550
  403SOL     OW 1207   2.715   1.938   2.112 -0.1645  0.3109 -0.6781
  403SOL    HW1 1208   2.808   1.945   2.157  3.9554 -2.5127  1.7204
  403SOL    HW2 1209   2.698   2.025   2.069  0.4414 -2.2152  4.8542
  404SOL     OW 1210   2.714   2.184   1.989 -1.0262  0.3804  0.3923
  404SOL    HW1 1211   2.692   2.283   1.998  0.2789  1.2310  0.6618
  404SOL    HW2 1212   2.813   2.173   1.957  2.0586 -0.4599 -1.5618
  405SOL     OW 1213   1.915   0.112   2.627  0.4280 -0.3479  0.2436
  405SOL    HW1 1214   1.950   0.025   2.664  2.9502 -2.9294  1.0058
  405SOL    HW2 1215   1.867   0.090   2.539 -0.7275  1.7215 -1.1885
  406SOL     OW 1216   1.117   1.927   0.282 -0.7574  0.2346  0.6287
  406SOL    HW1 1217   1.198   1.965   0.229  1.0019  1.1977  1.1193
  406SOL    HW2 1218   1.028   1.978   0.263 -1.4319  0.8814  1.9206
  407SOL     OW 1219   1.604   1.190   0.290  0.1388  0.4360 -0.3146
  407SOL    HW1 1220   1.579   1.114   0.236 -0.8704  1.8496  3.8255
  407SOL    HW2 1221   1.552   1.190   0.376 -0.3884  0.4769 -0.5935
  408SOL     OW 1222   0.217   0.627   1.554 -0.0104 -0.1775  0.2087
  408SOL    HW1 1223   0.286   0.614   1.628 -2.1911  0.6843 -0.2669
  408SOL    HW2 1224   0.262   0.653   1.464  3.3279  1.0319  1.3778
  409SOL     OW 1225   2.876   1.384   2.951  0.0447  0.0408 -0.4058
  409SOL    HW1 1226   2.788   1.425   2.919  2.0579  1.1593  2.9599
  409SOL    HW2 1227   2.931   1.448   3.011  1.2735  1.0203 -0.2866
  410SOL     OW 1228   2.637   2.755   0.716 -0.3874 -0.7405 -0.3830
  410SOL    HW1 1229   2.678   2.754   0.809 -0.5829  0.0206  1.4983
  410SOL    HW2 1230   2.582   2.672   0.708 -0.8232  2.1036 -1.5675
  411SOL     OW 1231   0.104   0.650   0.414  0.0745  0.5098  0.5267
  411SOL    HW1 1232   0.103   0.749   0.446 -0.5344 -0.7778 -0.2070
  411SOL    HW2 1233   0.011   0.632   0.375  0.9178 -0.1057 -0.6221
  412SOL     OW 1234   1.564   3.074   0.254 -1.0950 -0.7874  0.0724
  412SOL    HW1 1235   1.610   0.077   0.239  1.5448 -2.0777 -0.2278
  412SOL    HW2 1236   1.488   3.063   0.189  1.6047 -2.4158  0.7255
  413SOL     OW 1237   1.127   0.310   1.525  0.2551 -0.1030  0.6056
  413SOL    HW1 1238   1.165   0.253   1.598 -0.4176  1.2308 -1.3863
  413SOL    HW2 1239   1.066   0.262   1.462  0.5814 -0.8681 -0.9873
  414SOL     OW 1240   0.356   1.301   0.290  0.2255 -0.2408  0.5818
  414SOL    HW1 1241   0.309   1.264   0.370 -1.9908  1.8252 -0.8264
  414SOL    HW2 1242   0.448   1.256   0.277  2.5784 -0.9211 -0.3591
  415SOL     OW 1243   2.754   1.526   0.136 -0.7973  0.0767  0.3141
  415SOL    HW1 1244   2.852   1.515   0.120 -3.6810 -0.4417  3.1489
  415SOL    HW2 1245   2.744   1.556   0.230  0.0574 -0.1591 -1.8490
  416SOL     OW 1246   2.616   0.469   2.966  0.0998  0.0119 -0.1526
  416SOL    HW1 1247   2.638   0.502   2.873 -0.5987  0.8007  0.2998
  416SOL    HW2 1248   2.663   0.529   3.036  0.4981 -0.5551  1.3678
  417SOL     OW 1249   2.566   3.024   0.417  0.1204  0.5327  0.0033
  417SOL    HW1 1250   2.633   2.965   0.464 -2.8111  2.3071 -1.0191
  417SOL    HW2 1251   2.535   2.977   0.330 -2.0346 -0.3370 -1.5316
  418SOL     OW 1252   0.347   0.368   0.037 -0.2244 -0.2518 -0.9538
  418SOL    HW1 1253   0.379   0.341   0.131  0.0062  0.4781 -0.4527
  418SOL    HW2 1254   0.387   0.462   0.005  0.7779 -2.1064 -2.0602
  419SOL     OW 1255   0.700   0.908   0.899 -0.5539 -0.2344  0.2680
  419SOL    HW1 1256   0.664   0.971   0.969  1.8246  0.8387  0.2805
  419SOL    HW2 1257   0.684   0.810   0.928 -0.6341  0.0316 -1.3916
  420SOL     OW 1258   0.276   0.700   0.988 -0.0871 -0.1529  0.0304
  420SOL    HW1 1259   0.321   0.768   1.047 -1.5758 -2.5901 -0.0065
  420SOL    HW2 1260   0.190   0.669   1.036  2.8676  0.2522  1.8119
  421SOL     OW 1261   0.598   2.097   0.209  0.4661  0.3322 -0.3698
  421SOL    HW1 1262   0.532   2.071   0.135  1.1753 -2.2443  1.8636
  421SOL    HW2 1263   0.629   2.192   0.197  0.3270 -0.5790  0.5443
  422SOL     OW 1264   2.397   0.405   2.093 -0.2659 -0.1734  0.0691
  422SOL    HW1 1265   2.434   0.361   2.179  0.5389  0.2397  1.9542
  422SOL    HW2 1266   2.296   0.430   2.099  0.0245  0.5466 -1.1099
  423SOL     OW 1267   2.121   1.779   0.119  0.1909 -0.0016  0.1786
  423SOL    HW1 1268   2.201   1.713   0.107 -0.9264 -1.4489 -1.6927
  423SOL    HW2 1269   2.143   1.863   0.064 -0.7885  1.5015  1.4360
  424SOL     OW 1270   1.709   1.482   2.486 -0.3593  0.1725  0.3349
  424SOL    HW1 1271   1.706   1.454   2.388  0.7656 -1.3461  1.8554
  424SOL    HW2 1272   1.659   1.417   2.546  1.7052  0.4261 -0.1545
  425SOL     OW 1273   3.074   2.704   2.244  0.1654  0.0211 -0.1292
  425SOL    HW1 1274   2.984   2.745   2.224  3.7331 -0.6468  0.6278
  425SOL    HW2 1275   0.044   2.744   2.321  1.3633  0.6761 -2.0105
  426SOL     OW 1276   2.336   2.722   0.520  0.2808  0.1996  0.0202
  426SOL    HW1 1277   2.263   2.660   0.487 -1.4898 -1.7232  1.0825
  426SOL    HW2 1278   2.295   2.811   0.544  1.6886  1.9254  0.3575
  427SOL     OW 1279   0.535   1.020   2.505 -0.2545  0.0190  0.1344
  427SOL    HW1 1280   0.514   1.118   2.534  0.3714  2.0137  1.7497
  427SOL    HW2 1281   0.590   0.974   2.580  1.6815 -0.7491 -0.7276
  428SOL     OW 1282   2.651   1.167   2.634  0.0834 -0.0919  0.0609
  428SOL    HW1 1283   2.641   1.093   2.562 -0.8213  0.9782 -2.1586
  428SOL    HW2 1284   2.680   1.119   2.726 -1.8606 -2.8235  1.2808
  429SOL     OW 1285   2.446   0.207   0.382 -0.0467  0.1141 -0.5524
  429SOL    HW1 1286   2.482   0.111   0.382 -0.9948 -0.1984 -2.4976
  429SOL    HW2 1287   2.347   0.210   0.367 -0.7111 -0.9143 -0.0980
  430SOL     OW 1288   1.466   1.764   2.383  0.0005  0.6711  0.2820
  430SOL    HW1 1289   1.424   1.850   2.352  0.5511  0.1370 -0.3917
  430SOL    HW2 1290   1.467   1.750   2.488  0.4007  0.2962  1.2110
  431SOL     OW 1291   3.000   1.849   1.841  0.2959  0.2439  0.4322
  431SOL    HW1 1292   3.043   1.878   1.929 -0.7217  2.2736 -1.8801
  431SOL    HW2 1293   3.067   1.843   1.761  2.6390 -0.9494 -1.1891
  432SOL     OW 1294   1.323   2.116   2.487 -0.0196 -0.2591  0.2534
  432SOL    HW1 1295   1.390   2.053   2.437  0.9965  0.4605 -4.4987
  432SOL    HW2 1296   1.281   2.182   2.420  1.4533  0.7859  0.9165
  433SOL     OW 1297   0.932   2.533   0.690 -0.4693 -0.8273 -0.3684
  433SOL    HW1 1298   0.934   2.487   0.600  1.8165  0.5936  1.8218
  433SOL    HW2 1299   1.008   2.604   0.705 -0.9793  1.4231 -0.5533
  434SOL     OW 1300   0.319   2.133   2.376 -0.0238  0.1796 -0.0372
  434SOL    HW1 1301   0.349   2.223   2.411 -1.2280 -2.2361  0.8658
  434SOL    HW2 1302   0.252   2.145   2.303  2.4138 -0.0400  1.1648
  435SOL     OW 1303   0.525   1.412   0.651 -0.5755 -0.4647 -0.3339
  435SOL    HW1 1304   0.427   1.437   0.660  0.0595  0.5159 -1.3938
  435SOL    HW2 1305   0.552   1.442   0.553 -1.1580  0.9827 -0.3852
  436SOL     OW 1306   0.442   2.246   1.703 -0.0527  0.2388  0.4209
  436SOL    HW1 1307   0.380   2.307   1.649  1.1174  2.9999  1.8251
  436SOL    HW2 1308   0.404   2.153   1.728  1.3909  0.2962 -0.6992
  437SOL     OW 1309   1.056   0.573   0.590 -0.0615 -0.0797 -0.1870
  437SOL    HW1 1310   1.049   0.472   0.565  0.5759 -0.8616 -1.2975
  437SOL    HW2 1311   1.024   0.632   0.512 -1.7293  1.2275 -2.1890
  438SOL     OW 1312   0.275   2.221   0.930 -0.0177 -0.7409  0.2895
  438SOL    HW1 1313   0.208   2.301   0.939 -2.7039  0.5119 -1.4006
  438SOL    HW2 1314   0.339   2.208   1.011  0.2967 -1.0315 -0.5980
  439SOL     OW 1315   0.948   2.726   1.816 -0.2807  0.1575 -0.5317
  439SOL    HW1 1316   0.856   2.772   1.825 -2.4075  1.0209  1.2924
  439SOL    HW2 1317   0.971   2.710   1.720  2.4530  1.3416  1.2797
  440SOL     OW 1318   1.621   0.096   1.487 -0.0225 -0.4740  0.0776
  440SOL    HW1 1319   1.706   0.092   1.544  1.7159  0.3301 -0.3089
  440SOL    HW2 1320   1.634   0.043   1.402 -1.5193  0.4162 -0.7648
  441SOL     OW 1321   0.390   0.116   1.521 -0.0758  0.0378  0.7367
  441SOL    HW1 1322   0.386   0.032   1.458  0.2034  1.5270  0.4332
  441SOL    HW2 1323   0.392   0.089   1.618  1.3321  0.4940  0.0617
  442SOL     OW 1324   2.050   1.949   0.592 -0.9830 -0.1780 -1.1125
  442SOL    HW1 1325   2.046   1.870   0.525 -3.3565 -1.7156  2.1798
  442SOL    HW2 1326   2.100   2.027   0.548 -0.3674  0.5952  0.5673
  443SOL     OW 1327   2.503   0.277   2.321  0.0102 -0.0097  0.7826
  443SOL    HW1 1328   2.604   0.290   2.339 -0.2312  1.3416 -0.0770
  443SOL    HW2 1329   2.482   0.176   2.309  1.2432 -0.5576 -1.2774
  444SOL     OW 1330   2.127   0.970   1.771  0.2173 -0.4664 -0.1026
  444SOL    HW1 1331   2.160   1.041   1.834  0.7186 -0.1282 -0.7448
  444SOL    HW2 1332   2.085   0.891   1.819 -0.4974  1.9888 -3.7549
  445SOL     OW 1333   2.758   2.152   1.665 -0.3561  0.1945 -0.2660
  445SOL    HW1 1334   2.742   2.051   1.680  0.4298 -0.9954  1.4143
  445SOL    HW2 1335   2.842   2.188   1.721  1.0494  1.6681  0.8345
  446SOL     OW 1336   2.972   1.411   0.706 -0.1446  0.1473  0.3441
  446SOL    HW1 1337   3.060   1.406   0.650  2.0349  0.0476 -0.4963
  446SOL    HW2 1338   2.890   1.414   0.648  0.8543  2.1315  1.8014
  447SOL     OW 1339   1.004   1.543   0.555 -0.7612  0.1701  0.0106
  447SOL    HW1 1340   0.952   1.459   0.579 -2.2845 -1.2345  2.5289
  447SOL    HW2 1341   0.987   1.589   0.465  2.4261 -0.6761 -2.3403
  448SOL     OW 1342   1.439   1.284   1.449  0.1470  0.1082 -0.0909
  448SOL    HW1 1343   1.498   1.336   1.506 -0.8678  1.9379 -2.0249
  448SOL    HW2 1344   1.440   1.321   1.354  2.7007 -1.1483 -0.0773
  449SOL     OW 1345   0.585   1.310   3.021  0.3509  0.4206  0.5125
  449SOL    HW1 1346   0.490   1.349   3.049 -0.4913  0.5931 -0.6428
  449SOL    HW2 1347   0.606   1.338   2.924  0.2661 -0.2739 -0.4933
  450SOL     OW 1348   2.337   2.162   2.014 -0.2646  0.1993 -0.0189
  450SOL    HW1 1349   2.395   2.096   1.959 -0.0329 -2.0860 -1.6277
  450SOL    HW2 1350   2.342   2.254   1.966  0.7376  1.9510 -0.2396
  451SOL     OW 1351   1.927   2.956   2.264 -0.6275 -0.0578 -0.1394
  451SOL    HW1 1352   2.017   2.943   2.312  0.1751 -0.6136  0.9849
  451SOL    HW2 1353   1.867   3.033   2.297  0.4484  2.1323 -1.2883
  452SOL     OW 1354   0.979   3.064   1.333  0.1500  0.4765 -0.1981
  452SOL    HW1 1355   1.013   2.974   1.293  0.8655 -0.6464  1.2771
  452SOL    HW2 1356   0.882   3.076   1.315 -0.3675 -0.7778 -0.4837
  453SOL     OW 1357   1.191   1.074   0.807 -0.7390 -0.3425  0.8832
  453SOL    HW1 1358   1.091   1.060   0.784  1.8636 -0.9578 -2.4942
  453SOL    HW2 1359   1.236   1.133   0.735 -1.1898  0.9992 -0.9584
  454SOL     OW 1360   0.726   1.356   0.836 -0.3374 -0.3664  0.1700
  454SOL    HW1 1361   0.661   1.398   0.772  0.1243  2.0290 -1.1811
  454SOL    HW2 1362   0.756   1.427   0.907  0.0460 -0.4564 -2.3376
  455SOL     OW 1363   2.976   3.071   2.752  0.1954  0.1627 -0.1745
  455SOL    HW1 1364   2.896   3.008   2.753 -2.2436 -3.6979 -0.4630
  455SOL    HW2 1365   2.951   0.084   2.778  0.9924 -1.6409  2.4106
  456SOL     OW 1366   2.741   2.262   1.097  0.3848 -0.3940  0.0570
  456SOL    HW1 1367   2.731   2.319   1.185  0.7437 -0.4090 -1.1418
  456SOL    HW2 1368   2.781   2.316   1.022 -2.1433 -0.2992 -1.6782
  457SOL     OW 1369   1.350   3.075   0.069 -0.4624 -0.2392  0.2024
  457SOL    HW1 1370   1.356   0.089   0.037  1.9783 -2.2639 -3.4366
  457SOL    HW2 1371   1.276   3.051   0.135 -0.4444  1.3662  2.0654
  458SOL     OW 1372   2.772   0.130   0.366  0.3577  0.8861  0.1823
  458SOL    HW1 1373   2.816   0.183   0.439 -0.3081  0.3484  0.0793
  458SOL    HW2 1374   2.690   0.085   0.401  1.4511  1.0355 -1.4095
  459SOL     OW 1375   2.106   0.262   2.480 -0.1405  0.2641 -0.0040
  459SOL    HW1 1376   2.175   0.250   2.555 -0.8227 -0.7023  1.3702
  459SOL    HW2 1377   2.007   0.238   2.510  0.0651 -1.2718  0.3690
  460SOL     OW 1378   2.882   0.224   2.798 -0.2176  0.1259  0.2589
  460SOL    HW1 1379   2.918   0.300   2.860 -0.9596 -2.5179  0.3521
  460SOL    HW2 1380   2.782   0.212   2.808  1.5169  2.3091  1.0635
  461SOL     OW 1381   0.748   1.813   1.251  0.0983 -0.0325 -0.1008
  461SOL    HW1 1382   0.814   1.768   1.313 -0.0645 -0.0239 -0.2545
  461SOL    HW2 1383   0.740   1.777   1.152 -2.8505 -0.9659 -2.0764
  462SOL     OW 1384   2.400   2.937   1.573  0.1531  0.1949  0.7876
  462SOL    HW1 1385   2.441   2.856   1.618  1.7316 -1.7737  0.2505
  462SOL    HW2 1386   2.461   3.018   1.593  2.9432  3.3648  1.4705
  463SOL     OW 1387   2.915   1.244   0.371 -0.3265  0.7146  0.5065
  463SOL    HW1 1388   2.846   1.195   0.311 -0.6417  0.0694 -0.9537
  463SOL    HW2 1389   2.876   1.317   0.427 -0.1960 -0.7362 -2.0992
  464SOL     OW 1390   3.025   2.699   1.299 -0.1564  0.5614 -0.3729
  464SOL    HW1 1391   2.965   2.732   1.222 -0.4101 -0.1418 -0.3719
  464SOL    HW2 1392   3.034   2.598   1.298 -2.0902 -0.1589  1.9740
  465SOL     OW 1393   0.363   1.559   0.347  0.0018  0.2650  0.2010
  465SOL    HW1 1394   0.455   1.608   0.345  0.1441 -0.3658  1.5428
  465SOL    HW2 1395   0.362   1.466   0.309 -0.8074 -0.4789 -1.1293
  466SOL     OW 1396   1.018   0.382   2.602  0.2230 -0.2150 -0.3022
  466SOL    HW1 1397   1.057   0.303   2.656 -0.4778 -2.7782 -1.8168
  466SOL    HW2 1398   1.033   0.474   2.648  2.5297 -0.3778 -0.6556
  467SOL     OW 1399   0.736   0.661   2.258  0.0727  0.1908  0.4298
  467SOL    HW1 1400   0.831   0.644   2.222  0.9516 -2.1958  2.1625
  467SOL    HW2 1401   0.669   0.608   2.205 -0.7368  1.8875  3.0780
  468SOL     OW 1402   0.701   0.961   2.252 -0.0119  0.5443 -0.3303
  468SOL    HW1 1403   0.729   0.868   2.284  0.0288  3.0802  2.5823
  468SOL    HW2 1404   0.673   1.022   2.330  1.8152  0.3986  0.1002
  469SOL     OW 1405   0.061   2.120   0.255  0.3614  0.2130 -0.5609
  469SOL    HW1 1406   0.108   2.035   0.236 -1.3914  1.1606  0.8800
  469SOL    HW2 1407   0.016   2.151   0.170  0.5224 -0.1309 -0.8978
  470SOL     OW 1408   2.575   2.098   2.771 -0.0707  0.6537  0.1033
  470SOL    HW1 1409   2.548   2.012   2.727  2.1828 -0.0567  2.6084
  470SOL    HW2 1410   2.636   2.154   2.714 -2.9871 -1.6006  0.5226
  471SOL     OW 1411   1.849   0.519   2.244  0.2571  0.7104  0.3040
  471SOL    HW1 1412   1.816   0.597   2.191 -0.2945 -1.7338  1.3894
  471SOL    HW2 1413   1.810   0.430   2.213  0.3687  2.1553 -1.7825
  472SOL     OW 1414   0.655   2.549   1.338  0.2017  0.0837  0.5006
  472SOL    HW1 1415   0.628   2.452   1.340  0.0472  0.3797 -1.4880
  472SOL    HW2 1416   0.728   2.565   1.265 -0.8966  0.4575 -0.8588
  473SOL     OW 1417   0.648   2.977   2.527 -0.1400 -0.3850  0.4745
  473SOL    HW1 1418   0.634   2.972   2.627 -3.1699 -0.6447 -2.2777
  473SOL    HW2 1419   0.662   3.074   2.495 -3.0428  0.0392 -0.3369
  474SOL     OW 1420   2.047   3.012   1.745 -0.1685  0.1719  0.0533
  474SOL    HW1 1421   2.061   2.952   1.667 -0.4398  2.0903  1.0517
  474SOL    HW2 1422   2.013   2.964   1.833 -2.4412 -1.7127  2.6812
  475SOL     OW 1423   1.627   0.204   1.141  0.2172 -0.0494 -0.0519
  475SOL    HW1 1424   1.615   0.163   1.049  1.8585 -2.6903  0.2233
  475SOL    HW2 1425   1.653   0.302   1.140 -1.8562 -0.8284  1.6410
  476SOL     OW 1426   0.548   0.642   0.957 -0.2715  0.0877  0.0414
  476SOL    HW1 1427   0.446   0.661   0.962 -0.5335 -2.4186 -1.2953
  476SOL    HW2 1428   0.591   0.635   1.048  0.0566 -1.8541  1.3361
  477SOL     OW 1429   1.352   2.356   0.641  0.4303  1.0121  0.0471
  477SOL    HW1 1430   1.433   2.341   0.701  0.9544 -1.3254 -2.0296
  477SOL    HW2 1431   1.259   2.353   0.697  0.3435  0.3319  1.4071
  478SOL     OW 1432   0.388   2.386   2.454  0.3634 -0.2069 -0.0524
  478SOL    HW1 1433   0.422   2.441   2.533 -0.5702 -0.9426  0.4084
  478SOL    HW2 1434   0.317   2.431   2.401 -1.1181 -0.7122 -0.3425
  479SOL     OW 1435   2.669   0.326   1.193  0.1288  0.5145  0.0789
  479SOL    HW1 1436   2.657   0.431   1.194 -0.0425 -0.2179  2.2555
  479SOL    HW2 1437   2.758   0.301   1.237 -1.7004  0.1488  0.4168
  480SOL     OW 1438   0.105   2.834   0.236  0.0349  0.2196  0.2127
  480SOL    HW1 1439   0.074   2.891   0.314  1.2639 -1.3972  0.7989
  480SOL    HW2 1440   0.092   2.740   0.276 -0.0919  1.1780 -0.3982
  481SOL     OW 1441   2.450   2.007   1.570  0.3883 -0.0199 -0.0942
  481SOL    HW1 1442   2.461   1.949   1.488  1.3074  1.4244  2.2117
  481SOL    HW2 1443   2.375   2.073   1.542  2.4819  0.6368 -0.7840
  482SOL     OW 1444   1.066   2.407   2.875 -0.2573 -0.0774 -0.1591
  482SOL    HW1 1445   1.146   2.350   2.842  0.4511 -0.4757  0.1137
  482SOL    HW2 1446   0.986   2.380   2.820  2.9002 -1.6777 -0.7340
  483SOL     OW 1447   0.645   2.341   2.294 -0.0220  0.5705 -0.4566
  483SOL    HW1 1448   0.563   2.369   2.346  1.2047 -0.7910  0.7852
  483SOL    HW2 1449   0.658   2.402   2.214  1.4919 -0.1390 -1.4569
  484SOL     OW 1450   1.235   0.579   1.520  0.4566 -0.0531 -0.3265
  484SOL    HW1 1451   1.236   0.580   1.623  1.3242  0.3287 -1.5672
  484SOL    HW2 1452   1.210   0.487   1.487  1.2043  0.6960  1.3988
  485SOL     OW 1453   2.064   1.045   2.388 -0.2676  0.3017  0.0251
  485SOL    HW1 1454   2.161   1.078   2.373 -1.3370 -1.5288 -0.1803
  485SOL    HW2 1455   1.993   1.114   2.360 -1.1357  3.4470  0.7737
  486SOL     OW 1456   2.348   2.912   1.035 -0.3548 -0.3187  0.1559
  486SOL    HW1 1457   2.381   2.992   0.974 -0.6290  3.4201 -1.7218
  486SOL    HW2 1458   2.408   2.826   1.012  1.1355 -1.8204 -2.1183
  487SOL     OW 1459   0.746   2.245   1.650 -0.4321 -0.0871 -0.1808
  487SOL    HW1 1460   0.688   2.173   1.615  1.7910  1.9045  0.5894
  487SOL    HW2 1461   0.844   2.225   1.625 -1.3833  2.4196  1.4048
  488SOL     OW 1462   2.623   1.376   2.805 -0.3582  0.1103  0.6672
  488SOL    HW1 1463   2.658   1.312   2.736 -1.3786 -0.5757 -0.1008
  488SOL    HW2 1464   2.555   1.339   2.867  2.3764 -0.0150  0.3493
  489SOL     OW 1465   1.881   3.072   0.872 -0.2535 -0.0153 -0.1770
  489SOL    HW1 1466   1.791   3.063   0.829  1.1004 -1.1569 -1.4760
  489SOL    HW2 1467   1.958   3.082   0.801  0.1422 -0.8682 -2.9945
  490SOL     OW 1468   1.014   1.382   0.120  0.5959 -0.1771  0.2543
  490SOL    HW1 1469   1.063   1.341   0.035  1.2694 -2.2213 -0.2306
  490SOL    HW2 1470   0.918   1.408   0.091 -0.2169 -0.0174  1.2074
  491SOL     OW 1471   0.292   2.176   1.338  0.3726  0.1709  0.4681
  491SOL    HW1 1472   0.302   2.264   1.394  1.3221  2.3021  2.8468
  491SOL    HW2 1473   0.208   2.122   1.367 -0.1635 -0.2125 -1.8624
  492SOL     OW 1474   1.224   1.633   1.973  0.6686 -1.0280  0.1967
  492SOL    HW1 1475   1.321   1.612   1.992 -1.2807  1.6610 -2.1066
  492SOL    HW2 1476   1.215   1.721   1.924  1.5939 -2.3222  1.2887
  493SOL     OW 1477   2.875   2.296   0.823 -0.0780  0.1761  0.0333
  493SOL    HW1 1478   2.943   2.323   0.758 -1.3515 -0.2045 -0.0408
  493SOL    HW2 1479   2.897   2.210   0.873 -0.2130  2.1559  0.5797
  494SOL     OW 1480   0.007   2.103   0.534 -0.9108 -0.6993 -0.4187
  494SOL    HW1 1481   3.029   2.027   0.557  0.6998  0.7537 -0.6555
  494SOL    HW2 1482   0.003   2.112   0.434  0.6503  1.8584  3.6429
  495SOL     OW 1483   2.832   2.733   3.030  0.0835 -0.1348  0.2473
  495SOL    HW1 1484   2.841   2.644   3.076  0.9586 -0.6011 -0.6716
  495SOL    HW2 1485   2.917   2.787   3.025 -2.0611 -1.8792 -2.8649
  496SOL     OW 1486   2.450   0.328   1.365  0.2123  0.1224 -0.3215
  496SOL    HW1 1487   2.432   0.424   1.376 -1.0594 -1.7525  1.4647
  496SOL    HW2 1488   2.487   0.311   1.273 -3.1412  0.4503  0.4027
  497SOL     OW 1489   2.856   1.164   0.021 -0.1787  0.1002 -0.2590
  497SOL    HW1 1490   2.956   1.144   0.029  2.6460  0.4560  1.7725
  497SOL    HW2 1491   2.838   1.252   3.055 -2.1305  0.3233 -1.1874
  498SOL     OW 1492   2.901   1.573   1.874 -0.5621 -0.2547 -0.8621
  498SOL    HW1 1493   2.987   1.546   1.923 -1.6463 -0.7505 -0.8402
  498SOL    HW2 1494   2.905   1.673   1.858 -1.0225 -1.3321 -0.7053
  499SOL     OW 1495   0.828   2.370   2.749 -0.3348 -0.8895 -0.1866
  499SOL    HW1 1496   0.808   2.428   2.670 -2.3532 -1.9418  0.3704
  499SOL    HW2 1497   0.766   2.294   2.750  1.6758 -2.8570  0.8352
  500SOL     OW 1498   1.781   0.495   2.916 -0.1456  0.6226 -0.2449
  500SOL    HW1 1499   1.875   0.476   2.951  0.1271 -1.3275  1.9320
  500SOL    HW2 1500   1.740   0.406   2.891  0.3673 -0.2381  0.6132
  501SOL     OW 1501   1.216   0.218   1.776  0.8847  0.3748 -0.2744
  501SOL    HW1 1502   1.140   0.246   1.836 -1.2849 -1.2201 -1.8392
  501SOL    HW2 1503   1.309   0.226   1.817  0.0152  0.6673 -2.8000
  502SOL     OW 1504   2.428   0.654   1.700 -0.0972  0.3101  0.0231
  502SOL    HW1 1505   2.453   0.562   1.734  1.1797 -0.9279 -0.2238
  502SOL    HW2 1506   2.365   0.646   1.624  1.7742 -1.0463  0.7790
  503SOL     OW 1507   2.199   1.812   2.199  0.4747 -0.1720  0.0231
  503SOL    HW1 1508   2.264   1.880   2.239  2.2635 -3.0235 -1.6031
  503SOL    HW2 1509   2.130   1.862   2.139 -1.4883 -2.2991  0.0218
  504SOL     OW 1510   1.519   0.994   1.477 -0.0437 -0.1975  0.5159
  504SOL    HW1 1511   1.482   1.088   1.475 -0.5320  2.3057  2.0299
  504SOL    HW2 1512   1.443   0.927   1.478 -0.7177 -3.1599  3.8252
  505SOL     OW 1513   0.820   0.769   1.602  0.3218 -0.2316 -0.1845
  505SOL    HW1 1514   0.903   0.825   1.627  1.9249 -2.5369  2.8439
  505SOL    HW2 1515   0.853   0.681   1.558  0.3336 -0.6056 -1.1202
  506SOL     OW 1516   0.375   0.282   2.599 -1.1160  0.2094  0.6034
  506SOL    HW1 1517   0.393   0.276   2.699 -2.1032 -0.3851 -0.6497
  506SOL    HW2 1518   0.361   0.186   2.562  0.1246  1.2082  0.4164
  507SOL     OW 1519   0.192   0.123   0.244  0.2692  0.1295  0.6697
  507SOL    HW1 1520   0.162   0.217   0.251  0.7880  0.8671  1.5510
  507SOL    HW2 1521   0.293   0.114   0.260 -1.6459 -1.7470 -2.7857
  508SOL     OW 1522   1.017   0.921   1.695 -0.5701 -0.3650  0.3505
  508SOL    HW1 1523   1.063   1.012   1.718 -1.4191  2.4177  0.6214
  508SOL    HW2 1524   0.989   0.876   1.785  0.7351 -1.7470  3.7492
  509SOL     OW 1525   1.574   2.135   1.106 -0.3359  0.6155 -0.5858
  509SOL    HW1 1526   1.526   2.064   1.162  1.4632  1.1426 -3.1302
  509SOL    HW2 1527   1.564   2.109   1.010 -0.1517 -2.0914  1.9630
  510SOL     OW 1528   2.366   1.358   2.043 -0.3369  0.3361 -0.0595
  510SOL    HW1 1529   2.401   1.440   1.996 -2.8812 -0.6804 -1.6481
  510SOL    HW2 1530   2.341   1.376   2.140 -0.5665  0.3457  1.3184
  511SOL     OW 1531   1.004   2.163   1.700 -0.1864  0.1704  0.3260
  511SOL    HW1 1532   1.073   2.120   1.642 -2.0045  1.2055  1.7496
  511SOL    HW2 1533   0.960   2.094   1.761 -0.0905 -0.3578  0.2221
  512SOL     OW 1534   2.940   1.682   0.791  0.3201 -0.2413 -0.1135
  512SOL    HW1 1535   2.958   1.581   0.782 -0.3502  0.2006 -0.8481
  512SOL    HW2 1536   3.025   1.724   0.836  0.8997  0.8638 -1.2529
  513SOL     OW 1537   0.141   1.465   2.694  0.0699 -0.0583 -0.2034
  513SOL    HW1 1538   0.209   1.492   2.625 -3.2527  1.6702 -0.9271
  513SOL    HW2 1539   0.183   1.432   2.781 -0.8839  0.1154 -0.0968
  514SOL     OW 1540   2.769   2.390   2.263  0.3402  0.2347  0.3048
  514SOL    HW1 1541   2.859   2.349   2.251  0.7967 -0.4980 -1.9690
  514SOL    HW2 1542   2.723   2.399   2.172 -0.0794 -1.0674 -2.0260
  515SOL     OW 1543   2.427   1.201   0.787 -0.2425  0.1074  0.1489
  515SOL    HW1 1544   2.426   1.102   0.774  0.1369  0.5106  1.2103
  515SOL    HW2 1545   2.450   1.229   0.881  0.8927  1.5320 -0.3404
  516SOL     OW 1546   2.456   1.833   0.035  0.0882  0.8588 -0.0459
  516SOL    HW1 1547   2.390   1.751   0.041 -2.2132  0.7021 -1.3430
  516SOL    HW2 1548   2.550   1.788   0.016  2.0674 -0.8220  1.1497
  517SOL     OW 1549   0.617   1.046   2.788  0.0484 -0.1412  0.1949
  517SOL    HW1 1550   0.595   0.947   2.805 -0.5752 -1.0256 -1.0023
  517SOL    HW2 1551   0.715   1.071   2.783 -0.0029 -0.9711 -1.1292
  518SOL     OW 1552   2.759   3.077   2.414  0.9921 -0.5452 -0.5240
  518SOL    HW1 1553   2.800   0.026   2.328  3.3853 -0.6518 -0.5512
  518SOL    HW2 1554   2.691   3.004   2.404 -1.8094  0.3347 -1.0454
  519SOL     OW 1555   1.427   1.531   2.801  0.0906 -0.3908  0.0259
  519SOL    HW1 1556   1.359   1.550   2.878 -0.4628 -1.0491  1.2692
  519SOL    HW2 1557   1.515   1.504   2.838 -0.4750 -0.1256 -0.3213
  520SOL     OW 1558   2.820   2.841   2.218 -0.5619  0.0753  0.5364
  520SOL    HW1 1559   2.860   2.935   2.198 -0.8766  1.3634  0.2036
  520SOL    HW2 1560   2.804   2.794   2.127 -1.8953 -0.9848 -2.9796
  521SOL     OW 1561   0.498   1.548   2.131  0.7495 -0.8590 -0.1090
  521SOL    HW1 1562   0.503   1.603   2.217  1.0208  1.9873  0.9147
  521SOL    HW2 1563   0.474   1.449   2.142 -3.9315 -0.4589 -1.7952
  522SOL     OW 1564   1.113   2.728   2.056 -0.0542 -0.1412 -0.1068
  522SOL    HW1 1565   1.057   2.695   1.978  1.2232  1.9297  0.1454
  522SOL    HW2 1566   1.152   2.822   2.037  1.2009  1.4624  1.6684
  523SOL     OW 1567   2.825   2.453   1.619 -0.9080  0.0563  0.1476
  523SOL    HW1 1568   2.752   2.383   1.619 -0.8863  0.9081  1.5542
  523SOL    HW2 1569   2.790   2.538   1.666 -0.6649 -0.7534  0.4977
  524SOL     OW 1570   1.637   2.545   0.546 -0.4028  0.0196 -0.0830
  524SOL    HW1 1571   1.586   2.508   0.464 -0.8305 -0.3380 -1.5853
  524SOL    HW2 1572   1.608   2.477   0.618 -3.4991 -2.0475 -0.2727
  525SOL     OW 1573   2.836   0.755   1.002  0.4095 -0.3855 -0.1159
  525SOL    HW1 1574   2.885   0.782   0.916 -0.9166 -0.3569  1.1313
  525SOL    HW2 1575   2.754   0.814   1.001 -1.7314 -0.0818  1.5362
  526SOL     OW 1576   1.258   2.442   1.001  0.3615  0.3231  0.0569
  526SOL    HW1 1577   1.358   2.447   0.985  0.4159 -0.1331  1.7122
  526SOL    HW2 1578   1.218   2.386   0.925 -1.8587  1.4894  2.0926
  527SOL     OW 1579   2.431   2.129   0.951 -0.0966  0.1614 -0.0452
  527SOL    HW1 1580   2.478   2.211   0.984 -2.1431 -1.5401  1.7796
  527SOL    HW2 1581   2.470   2.104   0.860  0.3825 -0.5207  0.9658
  528SOL     OW 1582   2.041   2.978   2.781 -0.9558 -0.1043 -0.1467
  528SOL    HW1 1583   2.006   2.883   2.779  0.2571  1.4151 -0.9115
  528SOL    HW2 1584   2.144   2.982   2.768  0.8054  1.3350 -0.9284
  529SOL     OW 1585   1.438   1.519   2.230 -0.3170  0.4483  0.2306
  529SOL    HW1 1586   1.440   1.597   2.296 -0.1534  1.8039 -0.2354
  529SOL    HW2 1587   1.438   1.558   2.136  1.2650 -0.0635 -1.3377
  530SOL     OW 1588   2.332   1.088   2.394  0.5352 -0.0132  0.2553
  530SOL    HW1 1589   2.366   1.058   2.483 -2.5300  1.0308 -1.3752
  530SOL    HW2 1590   2.388   1.045   2.321  0.0586  0.2378  1.1352
  531SOL     OW 1591   0.432   0.840   3.027 -0.2886  0.9087 -0.0906
  531SOL    HW1 1592   0.402   0.915   2.962 -0.4228  3.3695 -0.6469
  531SOL    HW2 1593   0.434   0.876   0.039  1.2627 -0.9088  1.0231
  532SOL     OW 1594   1.500   1.489   0.585  0.6751  0.0785  0.5944
  532SOL    HW1 1595   1.588   1.517   0.629  0.9046 -2.5625  0.4805
  532SOL    HW2 1596   1.427   1.560   0.602  1.4812  1.8112 -1.6990
  533SOL     OW 1597   0.216   0.687   2.025  0.0571  1.0508  0.2360
  533SOL    HW1 1598   0.261   0.751   1.962 -1.0171 -0.0147 -0.3649
  533SOL    HW2 1599   0.222   0.710   2.120 -0.0550  0.4164 -0.4836
  534SOL     OW 1600   1.314   0.622   2.421  0.6140 -0.2063 -0.1701
  534SOL    HW1 1601   1.402   0.581   2.423 -1.6773  0.4490 -0.0732
  534SOL    HW2 1602   1.299   0.706   2.478  0.6948 -0.1724 -1.9132
  535SOL     OW 1603   0.607   0.446   0.137 -0.0474 -0.0726  0.2955
  535SOL    HW1 1604   0.542   0.411   0.209 -0.7584 -0.2509  0.9793
  535SOL    HW2 1605   0.611   0.549   0.140  0.5243  3.0915 -0.7359
  536SOL     OW 1606   0.907   0.338   2.965  0.2998 -0.3924 -0.1184
  536SOL    HW1 1607   0.972   0.379   3.029 -2.1155  1.1372 -0.0222
  536SOL    HW2 1608   0.851   0.280   3.024  0.3739  0.9169 -0.1907
  537SOL     OW 1609   1.451   2.954   1.527 -0.4769  0.0973  0.0419
  537SOL    HW1 1610   1.374   3.003   1.574  1.4615  0.4244 -0.2625
  537SOL    HW2 1611   1.525   3.017   1.511 -1.8514  1.1343 -0.1952
  538SOL     OW 1612   0.379   2.821   3.019  0.5178 -0.2073 -0.1393
  538SOL    HW1 1613   0.396   2.912   2.978  0.2297 -0.9112  0.6044
  538SOL    HW2 1614   0.402   2.831   0.038  0.7452  1.7644  1.8076
  539SOL     OW 1615   2.530   1.122   1.998 -0.4642  0.3813 -0.2020
  539SOL    HW1 1616   2.582   1.104   1.913 -0.0039 -0.1724 -0.9826
  539SOL    HW2 1617   2.479   1.211   1.993 -2.0120  2.3709  1.3264
  540SOL     OW 1618   2.056   2.014   1.664  0.5140 -0.0156  0.2634
  540SOL    HW1 1619   2.110   1.939   1.715  0.5378 -1.9123  3.3568
  540SOL    HW2 1620   1.956   1.995   1.686 -2.3450  0.9510  0.6155
  541SOL     OW 1621   0.705   2.514   1.593  0.8009  0.0313  0.5702
  541SOL    HW1 1622   0.686   2.490   1.495 -0.4771 -1.4925  1.2156
  541SOL    HW2 1623   0.701   2.431   1.646  2.4556  1.8538 -1.1323
  542SOL     OW 1624   2.415   0.683   2.019 -0.2491 -0.0429 -0.2695
  542SOL    HW1 1625   2.374   0.661   1.929 -2.8785 -0.3110 -2.4565
  542SOL    HW2 1626   2.448   0.593   2.053 -1.1775 -1.4529 -2.9907
  543SOL     OW 1627   1.026   0.478   0.834  0.2403  0.3860 -0.0459
  543SOL    HW1 1628   1.028   0.531   0.745 -0.3918 -0.2177  1.3833
  543SOL    HW2 1629   0.993   0.527   0.915  0.3128 -1.7069  0.8553
  544SOL     OW 1630   2.086   2.004   1.379 -0.0681  0.5470  0.4690
  544SOL    HW1 1631   2.104   2.002   1.482 -0.2743 -0.1100  0.5749
  544SOL    HW2 1632   2.153   1.940   1.325  1.4492  1.0940  0.0037
  545SOL     OW 1633   1.422   1.535   1.169  0.3809  0.4664 -0.3040
  545SOL    HW1 1634   1.432   1.451   1.112  0.9307  0.8964 -0.4619
  545SOL    HW2 1635   1.513   1.545   1.213 -0.3792  1.9316 -1.4191
  546SOL     OW 1636   0.172   0.061   2.751 -0.3479 -0.2656 -0.8543
  546SOL    HW1 1637   0.079   0.024   2.769 -0.9859 -0.0333 -0.4673
  546SOL    HW2 1638   0.185   0.142   2.812  2.2152  2.7615  3.6665
  547SOL     OW 1639   2.258   0.256   2.712 -0.7041  0.2567  0.4693
  547SOL    HW1 1640   2.209   0.220   2.795 -0.7291  1.2567  0.2408
  547SOL    HW2 1641   2.272   0.359   2.713 -0.0203  0.3061  1.0149
  548SOL     OW 1642   2.623   2.146   2.390 -0.1850 -0.3937 -0.3676
  548SOL    HW1 1643   2.675   2.057   2.401  1.2381 -0.7484 -0.0918
  548SOL    HW2 1644   2.677   2.215   2.351 -2.2059 -1.1942  2.6808
  549SOL     OW 1645   2.406   0.384   0.586  0.3531  0.3794 -0.5109
  549SOL    HW1 1646   2.484   0.450   0.607 -0.3035 -1.3998  1.7645
  549SOL    HW2 1647   2.433   0.311   0.519  2.2713 -0.4142 -1.3818
  550SOL     OW 1648   2.713   1.105   0.225 -0.4551  0.4326 -0.1163
  550SOL    HW1 1649   2.759   1.133   0.137  2.0986 -1.4836  2.2876
  550SOL    HW2 1650   2.611   1.115   0.226  2.4340  0.5589 -0.2579
  551SOL     OW 1651   1.368   2.530   1.430  0.1249  0.2593  0.5967
  551SOL    HW1 1652   1.359   2.448   1.371 -1.0585 -0.9000 -1.1549
  551SOL    HW2 1653   1.455   2.515   1.487  2.1333  1.3043 -3.0289
  552SOL     OW 1654   2.690   2.504   2.720  0.0857 -0.0436 -0.2052
  552SOL    HW1 1655   2.709   2.526   2.624  0.6660 -1.0226  0.2106
  552SOL    HW2 1656   2.716   2.571   2.790 -0.8758 -0.5683 -1.1974
  553SOL     OW 1657   0.547   3.015   0.577 -0.4085 -0.1957  0.4474
  553SOL    HW1 1658   0.570   3.037   0.672 -1.1069  1.1393 -1.1856
  553SOL    HW2 1659   0.630   2.985   0.525 -1.1300  1.0116 -1.7022
  554SOL     OW 1660   1.703   2.034   1.909  0.0188  0.0097  0.5621
  554SOL    HW1 1661   1.710   2.123   1.956  0.3347 -0.4242 -2.3816
  554SOL    HW2 1662   1.746   1.962   1.964 -0.0261  3.1523 -2.0412
  555SOL     OW 1663   1.362   2.558   2.068 -0.3875  0.0205 -0.0945
  555SOL    HW1 1664   1.302   2.588   1.995  1.9445  0.5385  1.2251
  555SOL    HW2 1665   1.330   2.594   2.157 -1.6648 -0.5974  2.1229
  556SOL     OW 1666   1.787   1.557   0.713 -0.1560  0.3409 -0.1301
  556SOL    HW1 1667   1.820   1.643   0.760 -1.8980  2.1061  1.2978
  556SOL    HW2 1668   1.742   1.496   0.782  2.6483 -1.7694 -0.2922
  557SOL     OW 1669   1.350   1.960   2.068 -0.0331  0.1476 -0.4644
  557SOL    HW1 1670   1.322   2.034   2.007  2.6612 -1.5422  0.9941
  557SOL    HW2 1671   1.413   1.990   2.148  0.2341  1.0539  2.3805
  558SOL     OW 1672   2.968   0.815   2.456  0.6857 -0.4194  0.6845
  558SOL    HW1 1673   3.037   0.800   2.528 -1.3235 -1.6338 -0.1123
  558SOL    HW2 1674   2.949   0.913   2.456  2.0639 -1.2181  2.5227
  559SOL     OW 1675   2.118   2.661   2.051  0.1474 -0.6256  0.0292
  559SOL    HW1 1676   2.058   2.599   2.000 -1.4434 -0.8402  1.4348
  559SOL    HW2 1677   2.088   2.660   2.147  0.4671  3.0399  0.4495
  560SOL     OW 1678   0.428   3.070   2.872 -0.2452  0.1190 -0.0899
  560SOL    HW1 1679   0.451   0.091   2.886  0.3883  0.5485  0.1758
  560SOL    HW2 1680   0.343   3.066   2.819  1.4209  0.0732  2.0254
  561SOL     OW 1681   1.717   0.872   0.316 -0.0148 -0.0156  0.1824
  561SOL    HW1 1682   1.689   0.895   0.222  0.8138  0.7329 -0.2761
  561SOL    HW2 1683   1.644   0.831   0.375 -2.8636  0.4418  0.6826
  562SOL     OW 1684   0.887   1.032   2.064  0.2849 -0.7570 -0.4817
  562SOL    HW1 1685   0.808   1.029   2.126 -3.6561 -0.9941 -0.0043
  562SOL    HW2 1686   0.964   1.081   2.110  0.6067  0.3395 -0.3930
  563SOL     OW 1687   1.670   2.330   0.264  0.7568 -0.3519 -0.4601
  563SOL    HW1 1688   1.681   2.236   0.300  0.3457  1.5085 -1.0429
  563SOL    HW2 1689   1.579   2.337   0.217 -1.8108 -0.6650 -0.6187
  564SOL     OW 1690   0.230   1.919   0.543 -0.2516 -0.1846 -0.3134
  564SOL    HW1 1691   0.294   1.973   0.486 -0.9340 -0.9068 -1.6549
  564SOL    HW2 1692   0.184   1.972   0.617  1.5163 -0.9252  0.2546
  565SOL     OW 1693   0.964   2.790   0.006 -0.2148  0.8497  0.2029
  565SOL    HW1 1694   0.905   2.709   0.013  0.7147  3.5073 -1.1201
  565SOL    HW2 1695   0.902   2.872   0.003  1.7316 -2.8840 -0.2624
  566SOL     OW 1696   2.120   2.506   2.678  0.3775  0.1804  0.2533
  566SOL    HW1 1697   2.101   2.465   2.775  1.1940 -2.1885  2.5781
  566SOL    HW2 1698   2.108   2.428   2.614 -1.4570 -0.8267 -0.4290
  567SOL     OW 1699   2.694   1.670   0.909  0.0603 -0.2972  0.4082
  567SOL    HW1 1700   2.789   1.662   0.864  0.2851 -1.1342 -0.4568
  567SOL    HW2 1701   2.625   1.636   0.850  0.0460  2.2554 -0.0999
  568SOL     OW 1702   1.968   1.111   2.635  0.0254 -0.4521  0.0096
  568SOL    HW1 1703   2.006   1.081   2.541  0.4106 -0.0232 -0.9901
  568SOL    HW2 1704   1.871   1.085   2.641  0.4781 -0.3688 -1.5629
  569SOL     OW 1705   2.074   1.453   2.174  0.5579  0.0078 -0.0994
  569SOL    HW1 1706   2.109   1.524   2.109  2.8685  1.9766 -1.7025
  569SOL    HW2 1707   2.155   1.418   2.226  3.1707  0.8088 -1.7872
  570SOL     OW 1708   2.928   2.489   2.025 -0.1273  0.4656  0.6472
  570SOL    HW1 1709   2.966   2.558   2.088 -1.5850 -1.0305 -1.3238
  570SOL    HW2 1710   2.836   2.519   1.997  2.0279  1.1752 -0.3952
  571SOL     OW 1711   0.376   0.071   1.771  0.0605  0.3853 -0.6950
  571SOL    HW1 1712   0.412   0.142   1.831 -4.1802 -2.3390  0.5043
  571SOL    HW2 1713   0.278   0.053   1.796  0.1143 -1.1662  0.6228
  572SOL     OW 1714   0.912   1.901   0.859 -0.1046 -0.0784 -0.2944
  572SOL    HW1 1715   0.948   1.928   0.768 -3.2620 -1.9824  0.8942
  572SOL    HW2 1716   0.900   1.989   0.907  0.5633  1.1784  0.1245
  573SOL     OW 1717   1.128   0.542   0.316 -0.3009 -0.2410 -0.1514
  573SOL    HW1 1718   1.030   0.577   0.318 -1.4381  1.8190  0.5094
  573SOL    HW2 1719   1.198   0.620   0.308 -1.0642 -1.0011 -1.1261
  574SOL     OW 1720   0.441   0.076   0.344  0.0305  0.2456 -0.1538
  574SOL    HW1 1721   0.499   0.063   0.261 -0.4987 -0.8761 -1.4762
  574SOL    HW2 1722   0.490   0.052   0.427  2.3466  2.6032  0.5196
  575SOL     OW 1723   0.475   1.610   1.265  0.3253 -0.0115 -0.0477
  575SOL    HW1 1724   0.475   1.703   1.225  0.8217  0.2640 -0.7430
  575SOL    HW2 1725   0.550   1.549   1.233  2.2062  1.6738 -0.8693
  576SOL     OW 1726   2.596   0.134   1.974  0.6394  0.0739  0.2021
  576SOL    HW1 1727   2.556   0.205   2.035 -0.4487  0.3087 -3.3140
  576SOL    HW2 1728   2.655   0.173   1.900  0.7185  0.1455 -1.3199
  577SOL     OW 1729   2.642   1.706   2.009 -0.8273  0.2719  0.7150
  577SOL    HW1 1730   2.549   1.680   2.040  2.9385  0.7401 -0.9289
  577SOL    HW2 1731   2.676   1.789   2.054  3.4557 -3.0528  1.8996
  578SOL     OW 1732   1.040   0.079   2.029  0.5843 -0.2769 -0.4248
  578SOL    HW1 1733   1.102   0.154   2.058 -0.1218  0.7334  0.4697
  578SOL    HW2 1734   0.995   0.041   2.114 -0.5184  0.2270  0.7648
  579SOL     OW 1735   2.042   1.935   2.018 -0.0471 -0.1258 -0.1999
  579SOL    HW1 1736   1.945   1.903   2.015  0.1562  0.3218  1.1735
  579SOL    HW2 1737   2.034   2.035   2.044 -0.0383  0.4329 -0.6649
  580SOL     OW 1738   1.674   1.151   1.946  0.1951  0.3965  0.7645
  580SOL    HW1 1739   1.664   1.102   1.857 -0.4110  0.2884  0.2125
  580SOL    HW2 1740   1.693   1.087   2.019  1.2555 -0.2433 -4.3275
  581SOL     OW 1741   1.296   1.219   2.482 -0.5944  0.0100 -0.4484
  581SOL    HW1 1742   1.258   1.288   2.426  2.6200 -3.5513  2.5115
  581SOL    HW2 1743   1.335   1.152   2.426 -0.4303  3.2512 -0.6319
  582SOL     OW 1744   0.132   2.270   1.754  0.1803  0.0416 -0.8139
  582SOL    HW1 1745   0.172   2.173   1.753  1.3776 -0.9637  1.8058
  582SOL    HW2 1746   0.163   2.326   1.832 -2.0104  2.1394  0.5928
  583SOL     OW 1747   1.664   0.823   0.762  0.2584  0.1097  0.0231
  583SOL    HW1 1748   1.762   0.828   0.782 -0.8059  0.8091 -0.0838
  583SOL    HW2 1749   1.645   0.779   0.674 -1.6063 -1.5217  3.0177
  584SOL     OW 1750   0.907   2.501   0.407  0.1309  0.4498  0.1842
  584SOL    HW1 1751   0.826   2.547   0.364  2.6815  0.1366 -0.8673
  584SOL    HW2 1752   0.998   2.524   0.360  2.4423 -1.8518 -3.1951
  585SOL     OW 1753   0.141   2.492   0.048  0.0830  0.4594  0.1442
  585SOL    HW1 1754   0.051   2.450   0.029  2.5747  1.3318 -3.7611
  585SOL    HW2 1755   0.164   2.549   3.047 -2.7761 -0.4056  0.2295
  586SOL     OW 1756   2.232   1.216   0.607 -0.0828  0.1822  0.3078
  586SOL    HW1 1757   2.296   1.220   0.684  0.0914  2.2938  0.1458
  586SOL    HW2 1758   2.188   1.310   0.598  2.5323  2.6781  0.7411
  587SOL     OW 1759   2.965   1.795   0.367 -0.5856 -0.4475 -0.1030
  587SOL    HW1 1760   3.068   1.796   0.368  0.1333  1.3109  0.1298
  587SOL    HW2 1761   2.933   1.863   0.437  0.5743  0.5950  0.0118
  588SOL     OW 1762   3.051   0.585   0.732 -0.2870  0.1851  0.0955
  588SOL    HW1 1763   3.061   0.685   0.754 -1.4814  1.7252  2.1728
  588SOL    HW2 1764   0.058   0.544   0.700  1.8638 -4.0496  0.4308
  589SOL     OW 1765   1.560   0.025   0.924 -0.0991  0.7258  0.2360
  589SOL    HW1 1766   1.471   0.074   0.919 -1.6202  0.8350  1.0825
  589SOL    HW2 1767   1.593   0.004   0.830  0.7048  0.1217 -0.7318
  590SOL     OW 1768   2.364   2.370   0.326 -0.0242 -0.1442 -0.0830
  590SOL    HW1 1769   2.359   2.320   0.416 -1.1849  1.0244  0.1956
  590SOL    HW2 1770   2.394   2.466   0.339  1.6264 -1.8517 -1.9895
  591SOL     OW 1771   0.438   2.414   1.915 -0.1815  0.3438  0.4190
  591SOL    HW1 1772   0.516   2.438   1.979 -1.3793  1.0298 -2.7348
  591SOL    HW2 1773   0.461   2.344   1.844 -2.7675  5.2869  0.5721
  592SOL     OW 1774   0.501   1.257   2.126  0.0620  0.1847 -0.0588
  592SOL    HW1 1775   0.438   1.186   2.157  1.5948 -0.2950 -0.2264
  592SOL    HW2 1776   0.494   1.266   2.024  0.3605  2.5423 -0.7894
  593SOL     OW 1777   1.469   1.768   1.589 -0.2574 -0.3763 -0.0825
  593SOL    HW1 1778   1.372   1.737   1.581  0.9645 -1.0891  1.3170
  593SOL    HW2 1779   1.478   1.813   1.680  2.2007  2.2239  1.8725
  594SOL     OW 1780   0.359   1.064   2.846  0.0868  0.5652 -0.1706
  594SOL    HW1 1781   0.458   1.085   2.827  0.2478  0.6697 -0.1229
  594SOL    HW2 1782   0.299   1.083   2.763 -1.1319  2.0218 -1.7142
  595SOL     OW 1783   1.842   0.361   0.939  0.2865 -0.5246  0.5817
  595SOL    HW1 1784   1.887   0.438   0.990 -2.0644 -0.0261 -0.6614
  595SOL    HW2 1785   1.741   0.385   0.932  2.6370  1.4944  2.1480
  596SOL     OW 1786   0.378   0.905   1.133  0.4762  0.3761  0.1775
  596SOL    HW1 1787   0.467   0.955   1.131 -2.5481 -0.4237  2.3833
  596SOL    HW2 1788   0.300   0.971   1.139  0.4353 -0.9544 -0.8789
  597SOL     OW 1789   3.023   2.558   2.746 -0.2835  0.3555  0.0988
  597SOL    HW1 1790   2.964   2.580   2.663  0.3827  0.4787 -2.1782
  597SOL    HW2 1791   0.004   2.633   2.755 -0.1926  0.5783  0.4707
  598SOL     OW 1792   2.117   2.270   2.547  0.4972  0.5160  0.0867
  598SOL    HW1 1793   2.100   2.294   2.449 -0.2107 -0.4853  1.9444
  598SOL    HW2 1794   2.218   2.273   2.563  1.1702  1.4184  1.8967
  599SOL     OW 1795   1.347   0.890   0.643 -0.2413  0.5892 -0.4679
  599SOL    HW1 1796   1.263   0.882   0.699  1.2894 -3.2294 -1.6325
  599SOL    HW2 1797   1.412   0.960   0.684  2.9865  2.3391 -0.9416
  600SOL     OW 1798   1.318   0.078   0.566 -0.3256 -0.0379 -0.0817
  600SOL    HW1 1799   1.246   0.133   0.530  0.3266 -0.8076 -0.2886
  600SOL    HW2 1800   1.410   0.096   0.524  1.0748 -2.2102 -1.3061
  601SOL     OW 1801   0.578   0.281   1.443  0.1460  0.1606  0.0142
  601SOL    HW1 1802   0.498   0.232   1.484  0.2097 -1.5981 -0.5479
  601SOL    HW2 1803   0.532   0.337   1.372 -0.4434  0.0958  0.0736
  602SOL     OW 1804   0.210   2.747   0.715 -0.9417 -0.1212  0.1594
  602SOL    HW1 1805   0.255   2.793   0.632 -1.2866  0.5363  1.4837
  602SOL    HW2 1806   0.122   2.699   0.688 -1.7255 -2.9113  0.6424
  603SOL     OW 1807   1.034   2.773   2.414 -0.1240 -0.3705  0.2510
  603SOL    HW1 1808   1.105   2.841   2.440 -0.8627 -0.0600  1.3807
  603SOL    HW2 1809   1.053   2.683   2.457 -1.0113  1.9562  0.5675
  604SOL     OW 1810   1.132   2.521   0.265 -0.2322 -0.1477  0.0796
  604SOL    HW1 1811   1.202   2.449   0.280  0.7730  1.8732 -0.9619
  604SOL    HW2 1812   1.170   2.584   0.196  1.6559  1.2081  2.9528
  605SOL     OW 1813   1.714   1.038   1.698  0.0549  0.7132  0.9154
  605SOL    HW1 1814   1.647   1.037   1.618  0.3536  3.3693  1.9085
  605SOL    HW2 1815   1.814   1.047   1.665 -1.4801 -0.9824  0.0654
  606SOL     OW 1816   0.841   0.744   2.506 -0.2835  0.2228 -0.3385
  606SOL    HW1 1817   0.791   0.692   2.433 -0.9428  0.8201 -2.4016
  606SOL    HW2 1818   0.922   0.793   2.464 -1.1038  0.4905 -1.6478
  607SOL     OW 1819   0.411   1.278   1.153 -0.2085  0.1130 -0.2829
  607SOL    HW1 1820   0.376   1.217   1.225 -0.0344  0.3169 -1.1714
  607SOL    HW2 1821   0.335   1.302   1.078 -1.5821  1.1048 -2.8382
  608SOL     OW 1822   2.427   1.996   2.265  0.4632  0.1688  0.0206
  608SOL    HW1 1823   2.441   2.020   2.167  1.0160  0.7791  0.0478
  608SOL    HW2 1824   2.478   2.059   2.326  1.2317  2.8746  0.6021
  609SOL     OW 1825   1.836   3.073   2.956  0.0471  0.3539  0.3482
  609SOL    HW1 1826   1.891   0.013   3.038  0.6764  1.0568 -1.4891
  609SOL    HW2 1827   1.904   3.053   2.882 -1.1787 -0.0196 -1.9539
  610SOL     OW 1828   0.553   2.739   1.609  0.2235  0.0476  0.3359
  610SOL    HW1 1829   0.619   2.665   1.576  3.7622  1.1761  0.6423
  610SOL    HW2 1830   0.602   2.823   1.638  2.6459  0.6341 -3.0614
  611SOL     OW 1831   1.122   1.720   0.925  0.3344 -0.1418  0.1898
  611SOL    HW1 1832   1.055   1.793   0.896  0.1258 -0.2438 -2.1516
  611SOL    HW2 1833   1.072   1.644   0.970  1.7136 -0.3388  2.9878
  612SOL     OW 1834   0.895   0.007   2.249  0.1048  0.2401 -0.7113
  612SOL    HW1 1835   0.925   0.106   2.259  1.4890  1.7883 -0.1376
  612SOL    HW2 1836   0.887   3.050   2.341 -0.9786 -2.1649 -2.5749
  613SOL     OW 1837   2.764   1.627   0.371  0.4124 -0.4321  0.1140
  613SOL    HW1 1838   2.752   1.586   0.461  0.0351  2.4520  2.6001
  613SOL    HW2 1839   2.842   1.692   0.370  0.3413 -4.2891 -4.0137
  614SOL     OW 1840   1.826   0.102   1.662 -0.2426  0.2319  0.4761
  614SOL    HW1 1841   1.916   0.068   1.682 -2.4248  0.0253 -0.6127
  614SOL    HW2 1842   1.806   0.191   1.695 -3.1346 -2.0324 -1.2981
  615SOL     OW 1843   0.939   1.673   1.413 -0.1290  0.3468  0.5455
  615SOL    HW1 1844   0.990   1.615   1.341  1.8370  0.4871  1.4843
  615SOL    HW2 1845   1.010   1.710   1.472 -1.1656 -0.3050 -0.5353
  616SOL     OW 1846   1.655   1.578   3.008  0.0713 -0.0343  0.6819
  616SOL    HW1 1847   1.674   1.479   2.994 -1.7965  0.1888 -1.9752
  616SOL    HW2 1848   1.591   1.589   0.005 -0.5532 -0.4485 -0.3664
  617SOL     OW 1849   1.811   2.913   0.240  0.0190  0.2365 -0.0555
  617SOL    HW1 1850   1.724   2.966   0.217 -0.4010  0.0129 -1.1307
  617SOL    HW2 1851   1.787   2.822   0.278 -0.8720  3.7265 -0.8642
  618SOL     OW 1852   0.995   0.623   2.726  0.0776 -0.7690 -0.0932
  618SOL    HW1 1853   0.990   0.678   2.810 -0.4007  1.7924  0.0162
  618SOL    HW2 1854   0.944   0.677   2.652  2.8948  2.2646 -2.2890
  619SOL     OW 1855   2.727   1.423   0.553  0.3463  0.5267 -0.4782
  619SOL    HW1 1856   2.699   1.323   0.564 -2.0786  0.7166  1.1310
  619SOL    HW2 1857   2.669   1.487   0.610 -0.0737  2.3130 -0.4638
  620SOL     OW 1858   2.436   2.621   2.944 -0.0371 -0.0089 -0.1643
  620SOL    HW1 1859   2.372   2.680   2.897 -1.8326 -0.5024  2.6078
  620SOL    HW2 1860   2.431   2.525   2.902  1.2906 -3.8185 -1.1867
  621SOL     OW 1861   2.430   1.190   0.185 -0.2011 -0.1821  0.4718
  621SOL    HW1 1862   2.385   1.135   0.256  1.2503  1.8957 -1.2769
  621SOL    HW2 1863   2.389   1.192   0.092 -0.7522  0.2960 -0.7462
  622SOL     OW 1864   1.334   2.453   2.492  0.0685  0.4834 -0.0380
  622SOL    HW1 1865   1.305   2.407   2.404 -3.7881  0.0312  0.0361
  622SOL    HW2 1866   1.391   2.384   2.546  3.6148 -0.7740 -0.7370
  623SOL     OW 1867   0.803   1.681   0.161 -0.3361 -0.0597  0.1241
  623SOL    HW1 1868   0.808   1.584   0.131  2.1136 -2.3469  2.3701
  623SOL    HW2 1869   0.828   1.749   0.082  1.8931  2.4958  1.6615
  624SOL     OW 1870   0.471   0.260   2.862  0.5358 -0.6782  0.6032
  624SOL    HW1 1871   0.422   0.295   2.939  0.8664  0.1163 -2.3562
  624SOL    HW2 1872   0.549   0.319   2.838 -3.2935 -1.4670 -1.0395
  625SOL     OW 1873   1.073   2.071   0.671 -0.0012 -0.2202 -0.1206
  625SOL    HW1 1874   1.146   2.025   0.624 -4.3429 -0.2672  0.5154
  625SOL    HW2 1875   1.014   2.122   0.598 -0.6861 -0.3122 -2.6431
  626SOL     OW 1876   2.746   2.849   2.800 -0.0933  0.0181 -0.3474
  626SOL    HW1 1877   2.657   2.893   2.805  3.8292  0.9557  2.6966
  626SOL    HW2 1878   2.772   2.791   2.879  0.1582  3.4727 -0.1020
  627SOL     OW 1879   1.506   1.351   2.612 -0.2768  0.5074 -0.0471
  627SOL    HW1 1880   1.466   1.405   2.691 -0.2186  0.9900  1.0642
  627SOL    HW2 1881   1.433   1.307   2.553 -1.9991  0.0599  1.9139
  628SOL     OW 1882   0.215   0.682   2.303 -0.3614 -0.2217  0.1217
  628SOL    HW1 1883   0.258   0.741   2.376  0.9598 -2.4254  0.4130
  628SOL    HW2 1884   0.287   0.611   2.280  3.6900 -2.2624  0.7524
  629SOL     OW 1885   0.090   2.879   2.009  0.2255 -0.4903 -0.3973
  629SOL    HW1 1886   0.049   2.830   2.088  1.3829  2.9334  0.8561
  629SOL    HW2 1887   0.189   2.886   2.021 -0.4306 -0.0423  0.4573
  630SOL     OW 1888   1.550   0.857   1.852 -0.7647 -0.3632  0.1699
  630SOL    HW1 1889   1.456   0.863   1.819  0.5701  0.2779 -1.1134
  630SOL    HW2 1890   1.620   0.917   1.810 -2.6330 -2.6299  0.7040
  631SOL     OW 1891   2.384   1.063   0.429 -0.9449  0.0686 -0.5369
  631SOL    HW1 1892   2.349   0.969   0.395 -2.1395 -2.1393 -2.0839
  631SOL    HW2 1893   2.315   1.119   0.478  0.5465  1.4752 -1.8866
  632SOL     OW 1894   2.011   0.252   1.996 -0.5213 -0.4374 -0.1225
  632SOL    HW1 1895   2.058   0.178   1.944  1.6810 -0.6634  0.1673
  632SOL    HW2 1896   1.978   0.325   1.932 -0.2202  2.0968  0.4710
  633SOL     OW 1897   0.872   2.798   0.267 -0.3477  0.2044  0.1896
  633SOL    HW1 1898   0.911   2.810   0.170  0.2300 -0.7763 -0.9592
  633SOL    HW2 1899   0.794   2.729   0.263 -1.3406 -1.1208  0.9092
  634SOL     OW 1900   1.293   2.268   2.818  0.5348  0.1172  0.1119
  634SOL    HW1 1901   1.368   2.274   2.756 -0.1025 -1.0353  2.2872
  634SOL    HW2 1902   1.294   2.176   2.862 -1.8688 -0.3510  1.3126
  635SOL     OW 1903   2.446   0.025   3.041 -0.1758 -0.3766 -0.0030
  635SOL    HW1 1904   2.531   0.079   3.055 -0.1385 -1.2172  2.8049
  635SOL    HW2 1905   2.366   0.086   3.026  0.6233  1.0736 -1.3896
  636SOL     OW 1906   0.856   1.312   0.605  0.1555 -0.0424 -0.2385
  636SOL    HW1 1907   0.820   1.320   0.702  1.9509 -1.0886  0.5621
  636SOL    HW2 1908   0.823   1.224   0.569 -0.7703  2.5264  0.1600
  637SOL     OW 1909   0.309   2.448   0.577 -0.1588  0.5333 -0.6657
  637SOL    HW1 1910   0.396   2.405   0.547 -1.8837 -0.5317  0.4679
  637SOL    HW2 1911   0.320   2.528   0.641 -0.0641 -0.6858  1.2593
  638SOL     OW 1912   0.593   3.073   0.124 -0.4362 -0.2090 -0.1786
  638SOL    HW1 1913   0.677   3.037   0.080 -0.1281  1.0361 -2.6981
  638SOL    HW2 1914   0.528   2.997   0.142 -0.6704 -4.0329  1.9340
  639SOL     OW 1915   1.268   1.530   0.311 -0.1578  0.6165 -0.5061
  639SOL    HW1 1916   1.274   1.596   0.390 -0.1590  0.8354 -0.1917
  639SOL    HW2 1917   1.187   1.542   0.257  0.9451 -0.9533  0.7549
  640SOL     OW 1918   1.726   2.790   0.900 -0.0377  0.1663  0.2579
  640SOL    HW1 1919   1.748   2.799   0.800  1.1880 -1.3707 -0.3018
  640SOL    HW2 1920   1.812   2.818   0.952 -1.4436 -0.2653 -0.0386
  641SOL     OW 1921   3.039   2.667   0.648 -0.2562 -0.1776  0.1893
  641SOL    HW1 1922   3.054   2.565   0.660  1.1068 -1.7366 -0.0510
  641SOL    HW2 1923   2.980   2.688   0.565  3.7945  0.6984 -2.6423
  642SOL     OW 1924   0.807   0.306   1.639  0.0411 -0.1786 -0.0390
  642SOL    HW1 1925   0.835   0.234   1.702 -2.3585  0.8602 -1.6085
  642SOL    HW2 1926   0.718   0.285   1.595 -0.8855  2.5503 -0.7094
  643SOL     OW 1927   0.750   1.815   2.206  0.0385  0.1853 -0.3654
  643SOL    HW1 1928   0.710   1.818   2.112 -3.2912  0.7041 -2.3537
  643SOL    HW2 1929   0.733   1.901   2.251  0.4886  0.0402  0.2177
  644SOL     OW 1930   0.778   2.970   0.448 -0.0984 -0.3605  0.1926
  644SOL    HW1 1931   0.799   2.899   0.372  1.2041 -3.7247 -0.7218
  644SOL    HW2 1932   0.862   2.985   0.506  0.5562  2.1622  0.2456
  645SOL     OW 1933   0.889   1.549   2.796 -0.3022 -0.1814  0.2208
  645SOL    HW1 1934   0.844   1.610   2.729 -1.6211 -1.3807 -1.2769
  645SOL    HW2 1935   0.966   1.599   2.844 -0.7176 -0.7415  0.1582
  646SOL     OW 1936   0.347   1.471   0.032 -0.0370  0.3514 -0.1623
  646SOL    HW1 1937   0.283   1.549   0.011  0.3721  0.3014  0.7655
  646SOL    HW2 1938   0.341   1.433   0.126  0.8578 -0.3488 -1.4706
  647SOL     OW 1939   1.175   3.059   0.963 -0.1074 -0.5130  0.0689
  647SOL    HW1 1940   1.198   0.024   1.046 -1.6285  0.0330  0.9512
  647SOL    HW2 1941   1.188   2.957   0.980 -0.4735  0.3483 -2.5293
  648SOL     OW 1942   2.794   2.732   1.972  0.1919  0.2021 -0.1515
  648SOL    HW1 1943   2.703   2.748   1.925 -0.7863 -0.0127 -1.1050
  648SOL    HW2 1944   2.868   2.722   1.907 -0.2235 -1.6240  2.9857
  649SOL     OW 1945   0.575   2.281   2.976 -0.5429 -0.1475  0.2482
  649SOL    HW1 1946   0.594   2.239   2.884 -0.0081  0.9042 -1.7153
  649SOL    HW2 1947   0.476   2.269   3.000 -3.4589 -2.2918  1.3388
  650SOL     OW 1948   0.110   1.824   1.657 -0.4299  0.1484 -0.1139
  650SOL    HW1 1949   0.097   1.722   1.654  0.9377  0.4583 -1.6858
  650SOL    HW2 1950   0.155   1.858   1.572 -0.9286  1.4332 -1.5546
  651SOL     OW 1951   0.758   0.209   0.095  0.0319 -0.2045  0.6007
  651SOL    HW1 1952   0.722   0.299   0.125 -0.7872 -1.8608 -0.0662
  651SOL    HW2 1953   0.680   0.139   0.104 -3.4815 -0.2016  1.1889
  652SOL     OW 1954   2.515   1.797   0.310  0.3109  0.1687 -0.5360
  652SOL    HW1 1955   2.591   1.730   0.318  0.3022 -1.6703 -4.9698
  652SOL    HW2 1956   2.483   1.808   0.216 -1.9038 -0.7461 -0.2003
  653SOL     OW 1957   2.911   0.233   0.854  0.1978  0.5236 -0.2367
  653SOL    HW1 1958   2.941   0.325   0.886  1.7294 -1.9146 -1.8117
  653SOL    HW2 1959   2.951   0.154   0.907 -2.6125 -1.9307  0.7445
  654SOL     OW 1960   1.484   0.165   2.455  0.0226 -0.1389  0.0383
  654SOL    HW1 1961   1.518   0.214   2.539  1.1619  3.1646  3.5943
  654SOL    HW2 1962   1.428   0.085   2.482  2.7795 -0.7266  1.7064
  655SOL     OW 1963   0.974   2.276   1.379  0.4886  0.1252 -0.1537
  655SOL    HW1 1964   0.975   2.306   1.283  5.0577  3.5576 -0.5246
  655SOL    HW2 1965   1.032   2.331   1.436 -1.0738 -1.9445 -0.8163
  656SOL     OW 1966   0.489   0.277   1.948  0.1786 -0.6626 -0.1795
  656SOL    HW1 1967   0.408   0.342   1.957  2.1857 -1.5547  3.5331
  656SOL    HW2 1968   0.473   0.188   1.992 -1.6548 -1.0740 -0.6390
  657SOL     OW 1969   2.025   0.705   1.938  0.0359  0.4718 -0.5609
  657SOL    HW1 1970   1.933   0.720   1.986 -2.0714 -1.7020 -0.4246
  657SOL    HW2 1971   2.008   0.690   1.841 -1.9045 -0.0790  1.0729
  658SOL     OW 1972   2.237   1.830   1.231  0.1364 -0.0911 -0.4670
  658SOL    HW1 1973   2.316   1.842   1.290  1.1201 -2.3809 -1.1995
  658SOL    HW2 1974   2.202   1.737   1.217  0.1850  0.7862  0.1252
  659SOL     OW 1975   2.576   2.702   0.076  0.3540  0.0863 -0.2895
  659SOL    HW1 1976   2.663   2.726   0.032  1.2357  2.6736 -0.0233
  659SOL    HW2 1977   2.511   2.670   0.005  1.8639 -0.7847 -0.5198
  660SOL     OW 1978   0.870   1.292   2.690 -0.0957  0.3590 -0.0024
  660SOL    HW1 1979   0.891   1.385   2.724 -0.1735  1.3347  0.0650
  660SOL    HW2 1980   0.896   1.216   2.753 -3.1177  0.1067  0.4506
  661SOL     OW 1981   2.392   2.404   1.098 -0.1049 -0.0841  0.0839
  661SOL    HW1 1982   2.457   2.397   1.176  1.2003 -1.7788 -0.2238
  661SOL    HW2 1983   2.293   2.394   1.126  0.4457  1.0996 -0.1141
  662SOL     OW 1984   0.591   0.698   0.260  0.5602 -0.2146 -0.1701
  662SOL    HW1 1985   0.605   0.646   0.347 -0.5699  0.3194  0.0727
  662SOL    HW2 1986   0.498   0.743   0.275 -1.4516  1.7678 -0.2983
  663SOL     OW 1987   0.982   2.145   0.002  0.1346  0.6837  0.0104
  663SOL    HW1 1988   0.942   2.107   0.090 -2.3544 -1.7133  1.0145
  663SOL    HW2 1989   0.990   2.246   0.013  0.9095 -0.0695  1.1989
  664SOL     OW 1990   0.644   2.840   1.335  0.5855 -0.3579 -0.0876
  664SOL    HW1 1991   0.659   2.743   1.329  0.8443  3.2750  1.9516
  664SOL    HW2 1992   0.685   2.881   1.418  2.0085 -0.4076  0.0351
  665SOL     OW 1993   1.803   1.644   1.781 -0.4819 -0.6848 -0.0217
  665SOL    HW1 1994   1.800   1.734   1.736  0.3958  0.1543 -0.8711
  665SOL    HW2 1995   1.853   1.574   1.728 -2.0785 -1.3928  1.0962
  666SOL     OW 1996   0.384   2.884   0.219 -0.4280  0.6281 -0.0437
  666SOL    HW1 1997   0.289   2.872   0.190  0.7102 -2.5832  0.5783
  666SOL    HW2 1998   0.388   2.880   0.319 -0.1303  0.0347  0.5183
  667SOL     OW 1999   1.619   1.732   1.378 -0.3028  0.5839  0.5988
  667SOL    HW1 2000   1.689   1.800   1.351 -0.2684  0.1697  0.6190
  667SOL    HW2 2001   1.557   1.758   1.455  0.2314 -0.3673  2.7615
  668SOL     OW 2002   0.415   0.491   2.264  0.0182 -0.0076  0.3955
  668SOL    HW1 2003   0.451   0.472   2.357 -1.7306 -1.4615 -1.9051
  668SOL    HW2 2004   0.481   0.515   2.193  0.5448  0.3679  1.2110
  669SOL     OW 2005   1.802   2.064   2.406  0.4718  0.3157 -0.1369
  669SOL    HW1 2006   1.875   2.007   2.360  0.3334 -1.3555 -0.1395
  669SOL    HW2 2007   1.794   2.044   2.511  0.8821  1.4492  1.9803
  670SOL     OW 2008   2.386   2.247   0.612 -0.3209  0.8233 -0.4897
  670SOL    HW1 2009   2.476   2.200   0.647  1.9013 -2.8580 -2.9297
  670SOL    HW2 2010   2.337   2.290   0.685  3.9926 -1.4972 -2.6785
  671SOL     OW 2011   0.648   1.400   1.248  0.0587  0.6202  0.3941
  671SOL    HW1 2012   0.718   1.427   1.178  0.6487 -1.6142 -0.8684
  671SOL    HW2 2013   0.565   1.351   1.209 -0.8010  1.0256 -0.7269
  672SOL     OW 2014   2.693   1.200   2.223 -0.7120 -1.2881 -0.0140
  672SOL    HW1 2015   2.628   1.181   2.148 -1.6943  0.4536 -1.1450
  672SOL    HW2 2016   2.775   1.139   2.230  1.3657 -0.4200 -0.4715
  673SOL     OW 2017   3.014   1.582   2.379 -0.6028 -0.4232  0.1141
  673SOL    HW1 2018   2.995   1.579   2.478 -1.0106  1.2608 -0.7724
  673SOL    HW2 2019   3.007   1.491   2.333  0.5948 -0.0890  1.8074
  674SOL     OW 2020   0.878   2.648   2.172  0.1480  0.0505 -0.4616
  674SOL    HW1 2021   0.822   2.712   2.227  0.6499 -0.5985 -0.4285
  674SOL    HW2 2022   0.961   2.691   2.143  0.1086 -2.6736  4.0472
  675SOL     OW 2023   0.619   0.805   1.405 -0.1337 -0.0957  0.1040
  675SOL    HW1 2024   0.676   0.792   1.491  2.1332  0.0281  2.7285
  675SOL    HW2 2025   0.609   0.904   1.378 -2.5452  0.1542 -2.0950
  676SOL     OW 2026   1.940   0.847   0.441  0.5080  0.3169 -0.1794
  676SOL    HW1 2027   1.853   0.857   0.388 -1.0091 -1.5865 -1.4190
  676SOL    HW2 2028   1.950   0.919   0.509 -1.8648 -2.4720  1.0264
  677SOL     OW 2029   3.038   1.684   2.705  0.3470 -0.0204  0.4012
  677SOL    HW1 2030   2.944   1.650   2.680  0.7000 -1.4442 -0.5001
  677SOL    HW2 2031   0.027   1.606   2.700  1.0381 -2.8778  1.3932
  678SOL     OW 2032   3.056   2.424   1.295  0.5260  0.0068 -0.6245
  678SOL    HW1 2033   3.020   2.333   1.267 -0.5706  2.2565  2.3197
  678SOL    HW2 2034   0.004   2.417   1.391  0.8838  1.4191  0.2518
  679SOL     OW 2035   2.036   3.072   0.667  0.3979  0.3918 -0.5833
  679SOL    HW1 2036   1.995   3.067   0.574  0.7618  4.9713 -1.7705
  679SOL    HW2 2037   2.121   0.038   0.668 -4.7982 -1.0860  1.7347
  680SOL     OW 2038   0.153   2.443   2.270 -0.2266  0.3903  0.6148
  680SOL    HW1 2039   0.089   2.365   2.256  0.5096  0.0144 -0.0648
  680SOL    HW2 2040   0.111   2.533   2.276  0.4098 -1.1446 -1.0130
  681SOL     OW 2041   0.089   1.356   1.486  0.1465  0.2137  0.1186
  681SOL    HW1 2042   0.118   1.396   1.394 -0.9181  0.8282 -0.2707
  681SOL    HW2 2043   0.166   1.303   1.522  0.9037 -1.6699 -0.6746
  682SOL     OW 2044   0.528   1.897   1.388 -0.3940  0.3973 -0.3569
  682SOL    HW1 2045   0.604   1.846   1.346 -3.5568  1.8556 -0.9747
  682SOL    HW2 2046   0.444   1.898   1.336  4.4482 -1.7083 -1.0994
  683SOL     OW 2047   2.866   1.783   1.476  0.6041 -0.0197  0.6195
  683SOL    HW1 2048   2.818   1.798   1.566  0.8385 -1.0218  3.4050
  683SOL    HW2 2049   2.867   1.685   1.456  0.1595  1.9018  0.7848
  684SOL     OW 2050   3.035   1.525   0.048 -0.3029  0.5715  0.3663
  684SOL    HW1 2051   0.003   1.534   0.138  2.1113 -2.8748 -2.2700
  684SOL    HW2 2052   3.032   1.614   3.079 -0.1170 -0.5470  1.0892
  685SOL     OW 2053   0.993   0.958   0.377 -0.1831 -0.4122  0.5731
  685SOL    HW1 2054   0.976   0.867   0.337  2.5908 -0.7421  1.8436
  685SOL    HW2 2055   1.091   0.967   0.411  1.7411  1.0569  1.0648
  686SOL     OW 2056   0.002   0.071   0.978 -0.3741 -0.5598 -0.0488
  686SOL    HW1 2057   0.091   0.074   1.031 -0.5789  0.4033  1.0298
  686SOL    HW2 2058   0.028   0.036   0.885 -2.6218 -0.4925  0.8834
  687SOL     OW 2059   1.047   1.205   2.248  0.8669  0.2019  0.0765
  687SOL    HW1 2060   0.983   1.179   2.322  3.1662  2.4253 -1.3394
  687SOL    HW2 2061   1.100   1.287   2.277  0.7390  2.3799  1.6666
  688SOL     OW 2062   0.910   1.938   1.854  0.1370 -0.7756 -0.0974
  688SOL    HW1 2063   0.829   1.885   1.821 -0.8334  2.7193  0.7247
  688SOL    HW2 2064   0.893   1.996   1.934 -0.4028  2.0995 -0.7987
  689SOL     OW 2065   1.978   0.531   1.108  0.2777 -0.1523 -0.6226
  689SOL    HW1 2066   2.043   0.517   1.187  2.4935  0.5579 -1.6928
  689SOL    HW2 2067   1.907   0.592   1.151  1.7745  2.5052  2.4183
  690SOL     OW 2068   2.969   1.088   0.971  0.1619 -0.0589  0.7928
  690SOL    HW1 2069   2.989   1.187   0.991  1.3229  1.2374  0.9223
  690SOL    HW2 2070   3.014   1.028   1.037 -1.4372 -1.0122  1.4139
  691SOL     OW 2071   0.284   2.384   1.502 -0.0354 -0.6070  0.9683
  691SOL    HW1 2072   0.187   2.385   1.534 -1.1945  2.1741 -0.6670
  691SOL    HW2 2073   0.306   2.482   1.491 -5.5541  2.0525  0.8759
  692SOL     OW 2074   1.983   3.002   1.226  0.2881 -0.3413  0.4006
  692SOL    HW1 2075   1.963   2.946   1.144 -1.5023 -1.0890 -0.6890
  692SOL    HW2 2076   2.085   3.032   1.219  3.2701 -0.4490 -1.3974
  693SOL     OW 2077   0.307   1.537   2.439  0.5890 -0.3254  0.1691
  693SOL    HW1 2078   0.369   1.583   2.497 -0.5730 -1.2331  0.3900
  693SOL    HW2 2079   0.257   1.604   2.378 -0.5186  2.4916 -1.2432
  694SOL     OW 2080   1.883   0.883   1.040  0.2663 -0.0422 -0.3552
  694SOL    HW1 2081   1.950   0.868   1.118 -0.7082 -0.6602  2.1440
  694SOL    HW2 2082   1.799   0.924   1.074 -0.1972 -0.2955  1.0182
  695SOL     OW 2083   0.835   1.045   1.258 -0.0773 -0.0725 -0.6516
  695SOL    HW1 2084   0.795   1.107   1.326  2.9296 -0.3812  1.1115
  695SOL    HW2 2085   0.921   1.092   1.225  0.6661  0.6287  1.8025
  696SOL     OW 2086   1.673   3.044   0.689 -0.0819  0.4871  0.2870
  696SOL    HW1 2087   1.701   2.959   0.639  0.3168  1.5507 -1.4753
  696SOL    HW2 2088   1.596   0.007   0.638 -0.1137  2.3459 -0.2130
  697SOL     OW 2089   0.910   0.055   0.934 -0.1434  0.2171  0.3085
  697SOL    HW1 2090   1.007   0.020   0.941 -1.5707 -0.1161 -0.8842
  697SOL    HW2 2091   0.844   0.023   1.005 -1.6894  3.4185 -1.1661
  698SOL     OW 2092   1.455   1.296   2.076  0.2164  0.0133  0.2926
  698SOL    HW1 2093   1.547   1.250   2.073 -0.6079  0.6057  2.2494
  698SOL    HW2 2094   1.454   1.365   2.152  1.7576  0.7322 -1.5520
  699SOL     OW 2095   1.457   0.720   0.907 -0.1777 -0.7421 -0.2164
  699SOL    HW1 2096   1.536   0.762   0.859  1.8350  1.3507 -2.7255
  699SOL    HW2 2097   1.370   0.774   0.879 -1.1348  1.0407  1.9118
  700SOL     OW 2098   1.369   2.446   0.388  0.0821 -0.0799 -0.0477
  700SOL    HW1 2099   1.372   2.547   0.362  1.7075  2.8182 -1.0508
  700SOL    HW2 2100   1.356   2.439   0.490  0.2095 -1.4529  0.1618
  701SOL     OW 2101   2.138   2.448   2.932  0.1675 -0.0018  0.0620
  701SOL    HW1 2102   2.105   2.442   3.031 -1.4107 -0.0787 -1.4773
  701SOL    HW2 2103   2.230   2.412   2.914  1.0547  0.0905 -3.1951
  702SOL     OW 2104   1.042   0.217   0.755 -0.4241 -0.1201  0.3486
  702SOL    HW1 2105   0.964   0.159   0.786  0.0095  0.9723 -0.5624
  702SOL    HW2 2106   1.037   0.308   0.800  0.9637  0.4756 -0.8871
  703SOL     OW 2107   2.110   0.464   2.319 -0.8456 -0.2358  0.0026
  703SOL    HW1 2108   2.130   0.398   2.394 -0.5160 -2.8088 -2.7844
  703SOL    HW2 2109   2.008   0.476   2.310 -1.9920 -1.5440  3.8398
  704SOL     OW 2110   0.036   2.364   0.624  0.5662  0.4088 -0.0749
  704SOL    HW1 2111   0.020   2.269   0.583  1.1703  0.5525 -1.8791
  704SOL    HW2 2112   0.134   2.391   0.611  0.2065 -1.4675  1.6830
  705SOL     OW 2113   2.608   2.432   1.988 -0.0114 -0.5771  0.0984
  705SOL    HW1 2114   2.585   2.462   1.895 -1.4428  2.4722  1.7602
  705SOL    HW2 2115   2.521   2.423   2.044  1.2595 -1.0729 -1.1446
  706SOL     OW 2116   2.438   2.660   0.992 -0.0372  0.6097  0.0598
  706SOL    HW1 2117   2.422   2.579   1.045  0.5548  2.6894 -0.5529
  706SOL    HW2 2118   2.538   2.661   0.968 -2.0531 -0.2429 -1.2455
  707SOL     OW 2119   0.681   2.492   2.045  0.0350  0.4709  0.0420
  707SOL    HW1 2120   0.690   2.399   2.010  1.5548  0.4173  3.6711
  707SOL    HW2 2121   0.766   2.522   2.097  1.5767 -1.7407 -1.4669
  708SOL     OW 2122   3.020   2.240   2.247  0.0425  0.0268  0.3517
  708SOL    HW1 2123   2.994   2.227   2.342  1.2717 -1.6278 -2.2826
  708SOL    HW2 2124   3.074   2.159   2.212  0.4191 -0.8563 -0.5459
  709SOL     OW 2125   1.954   2.880   2.001  0.2508  0.5312 -0.1854
  709SOL    HW1 2126   1.997   2.788   2.002 -0.6745 -0.1545  0.5809
  709SOL    HW2 2127   1.928   2.907   2.096 -1.5658  1.3155  0.0370
  710SOL     OW 2128   1.548   0.820   2.242 -0.2207 -0.3123 -0.2591
  710SOL    HW1 2129   1.584   0.770   2.325  1.8012 -1.6726 -2.4413
  710SOL    HW2 2130   1.477   0.767   2.192  0.2725  0.1840  0.6864
  711SOL     OW 2131   0.653   1.919   2.838  0.0458  0.0516  0.0875
  711SOL    HW1 2132   0.741   1.887   2.880  3.3563  0.6650  0.3318
  711SOL    HW2 2133   0.570   1.863   2.863 -1.0411 -0.7760 -2.0371
  712SOL     OW 2134   0.731   2.569   2.546  0.4695  0.2561  0.5580
  712SOL    HW1 2135   0.709   2.654   2.496  0.1811 -0.3310  1.7081
  712SOL    HW2 2136   0.758   2.496   2.479 -0.9600 -1.5897  0.3446
  713SOL     OW 2137   1.688   1.309   2.932 -0.7136  0.3103  0.5893
  713SOL    HW1 2138   1.771   1.312   2.874  1.3033  1.4871  2.7691
  713SOL    HW2 2139   1.706   1.263   3.019  0.1702  2.2850  0.0481
  714SOL     OW 2140   1.351   1.336   1.778  0.1182  0.0859  0.1958
  714SOL    HW1 2141   1.417   1.384   1.715 -0.5726  2.0911  0.2906
  714SOL    HW2 2142   1.386   1.327   1.875  0.7683 -0.7800 -0.0615
  715SOL     OW 2143   1.887   0.675   2.469 -0.0010  0.4469 -0.0155
  715SOL    HW1 2144   1.983   0.702   2.483  1.3123 -1.4913 -0.0812
  715SOL    HW2 2145   1.877   0.618   2.387 -1.4832  0.3098  1.0502
  716SOL     OW 2146   2.964   2.244   1.838  0.3001  0.0958  0.9747
  716SOL    HW1 2147   2.950   2.326   1.900  0.4724  0.0113 -0.8974
  716SOL    HW2 2148   3.060   2.251   1.802  0.6025  3.3699 -0.2588
  717SOL     OW 2149   2.712   1.199   0.903  0.3317  0.3755  0.5150
  717SOL    HW1 2150   2.792   1.135   0.926  1.3447  0.5577  1.9559
  717SOL    HW2 2151   2.712   1.229   0.808  0.7194 -0.6252  3.2401
  718SOL     OW 2152   1.045   1.659   2.212 -0.4898 -0.2886  0.5979
  718SOL    HW1 2153   0.960   1.632   2.168  1.4276  0.6682  2.2871
  718SOL    HW2 2154   1.123   1.626   2.154 -1.4901  1.6132 -0.5137
  719SOL     OW 2155   2.014   0.895   2.817 -0.2416  0.2774 -0.0599
  719SOL    HW1 2156   2.025   0.977   2.754 -0.1410  2.8181  0.6914
  719SOL    HW2 2157   2.024   0.931   2.914  0.5629 -2.1911 -1.6987
  720SOL     OW 2158   0.596   0.528   0.691  0.0656  0.6742  0.2951
  720SOL    HW1 2159   0.562   0.529   0.784  0.4587  0.7651 -3.7761
  720SOL    HW2 2160   0.553   0.450   0.637 -2.0185  0.3065  1.6678
  721SOL     OW 2161   2.557   0.830   0.551 -0.1340 -0.2672  0.5460
  721SOL    HW1 2162   2.525   0.856   0.463  1.5112  3.9366  2.0650
  721SOL    HW2 2163   2.556   0.728   0.572  0.7694 -0.0884 -0.3056
  722SOL     OW 2164   2.681   0.654   2.485 -0.2253  0.1435 -0.0198
  722SOL    HW1 2165   2.772   0.645   2.438  0.5967 -0.8566 -1.1226
  722SOL    HW2 2166   2.671   0.596   2.568 -0.4149  3.1177 -3.1898
  723SOL     OW 2167   2.219   0.367   0.219 -0.1606  0.5692 -0.2841
  723SOL    HW1 2168   2.319   0.377   0.201  0.3577  1.0537 -0.2956
  723SOL    HW2 2169   2.157   0.438   0.175 -1.5108 -0.2867  1.6098
  724SOL     OW 2170   0.577   1.784   1.985  0.0789 -0.5294 -0.1134
  724SOL    HW1 2171   0.540   1.713   2.044  0.9652  2.7019 -1.2059
  724SOL    HW2 2172   0.603   1.746   1.897 -2.6299  1.7361  2.0058
  725SOL     OW 2173   1.715   3.060   1.252  0.1228 -0.5840  0.9894
  725SOL    HW1 2174   1.677   0.071   1.217 -0.6140  2.3231 -1.4911
  725SOL    HW2 2175   1.813   3.041   1.218  0.7771 -2.2045 -0.0253
  726SOL     OW 2176   2.093   2.548   0.209 -0.6634  0.1078  0.0624
  726SOL    HW1 2177   2.103   2.647   0.186  2.3792 -0.6336  0.1448
  726SOL    HW2 2178   2.092   2.542   0.310 -1.5913 -0.1684 -0.0346
  727SOL     OW 2179   1.660   1.482   1.312 -0.0947 -0.0648 -0.3215
  727SOL    HW1 2180   1.723   1.425   1.369  4.8755  0.8332  0.6627
  727SOL    HW2 2181   1.645   1.576   1.342  0.4869  2.1887  1.7254
  728SOL     OW 2182   2.145   2.891   1.531  0.4949  0.2071 -0.5873
  728SOL    HW1 2183   2.245   2.913   1.533  0.1525 -0.4661 -1.7644
  728SOL    HW2 2184   2.124   2.802   1.577 -2.7624 -0.5443  1.0617
  729SOL     OW 2185   2.130   1.848   0.834  0.3377 -0.1329 -0.5794
  729SOL    HW1 2186   2.117   1.893   0.744  1.0725 -1.1076  1.9499
  729SOL    HW2 2187   2.139   1.914   0.909  0.5011 -2.2433 -2.4712
  730SOL     OW 2188   1.278   0.620   2.780  0.4906 -0.5425  0.0683
  730SOL    HW1 2189   1.208   0.645   2.711  0.3627  0.2020 -0.3243
  730SOL    HW2 2190   1.367   0.656   2.749  0.4462 -1.9744  1.0703
  731SOL     OW 2191   0.488   2.985   1.056  0.0606 -0.4123  0.1281
  731SOL    HW1 2192   0.472   3.001   1.154 -0.1381 -1.9792 -2.5924
  731SOL    HW2 2193   0.439   2.905   1.018 -0.9840  0.0677  1.4558
  732SOL     OW 2194   1.334   0.642   0.540 -1.2633 -0.1954  0.3212
  732SOL    HW1 2195   1.238   0.619   0.573  3.5897  1.1206  0.5897
  732SOL    HW2 2196   1.360   0.742   0.560  3.1410  0.2262 -1.5345
  733SOL     OW 2197   0.627   1.991   1.616  0.1206 -0.2867  0.8187
  733SOL    HW1 2198   0.719   2.003   1.580 -1.0069 -1.4995  1.7682
  733SOL    HW2 2199   0.567   1.963   1.540 -1.2564 -1.6913 -0.7472
  734SOL     OW 2200   0.077   2.582   0.316  0.4049 -0.0719  0.3194
  734SOL    HW1 2201   0.105   2.492   0.354 -0.5181 -2.1696 -1.2990
  734SOL    HW2 2202   0.081   2.564   0.213 -1.6404 -0.7176 -1.5680
  735SOL     OW 2203   1.154   0.136   1.204  0.1553 -0.0712 -0.0815
  735SOL    HW1 2204   1.098   0.067   1.256 -1.6294 -1.1015  0.4040
  735SOL    HW2 2205   1.243   0.160   1.248 -1.2452  0.4513 -0.1904
  736SOL     OW 2206   2.178   2.144   0.478 -0.7831 -0.6831 -0.3613
  736SOL    HW1 2207   2.259   2.171   0.534  1.6013  0.6891 -0.7702
  736SOL    HW2 2208   2.199   2.151   0.382 -2.4727 -0.0542  2.1999
  737SOL     OW 2209   2.976   1.361   0.977 -0.2864  0.4720  0.1748
  737SOL    HW1 2210   2.969   1.372   0.875 -0.0208  0.3802 -0.3773
  737SOL    HW2 2211   2.920   1.424   1.029 -3.0265 -1.0805 -0.1926
  738SOL     OW 2212   2.135   2.363   2.295  0.2898  0.0291  0.6674
  738SOL    HW1 2213   2.086   2.453   2.293  1.3309  2.1897  3.5122
  738SOL    HW2 2214   2.231   2.363   2.322 -0.4779 -0.7870 -1.8566
  739SOL     OW 2215   1.120   2.002   2.898  0.4756 -0.3340  0.1983
  739SOL    HW1 2216   1.093   2.060   2.980 -2.4451 -0.1469  2.4799
  739SOL    HW2 2217   1.097   2.047   2.809  1.7322 -1.0909  3.5197
  740SOL     OW 2218   1.415   0.235   1.320 -0.1208 -0.5944 -0.2172
  740SOL    HW1 2219   1.496   0.204   1.262 -0.1978 -3.8336  0.1914
  740SOL    HW2 2220   1.428   0.202   1.413  1.6095 -0.7689 -0.9308
  741SOL     OW 2221   0.318   1.092   0.916 -0.3799 -0.0969  0.0293
  741SOL    HW1 2222   0.418   1.110   0.897 -0.6639 -0.2536 -0.9165
  741SOL    HW2 2223   0.313   0.996   0.952 -0.4921 -3.1761 -0.9126
  742SOL     OW 2224   0.868   1.163   2.457  0.4766  0.4674 -0.4254
  742SOL    HW1 2225   0.878   1.211   2.553  2.0457 -1.3784  2.7651
  742SOL    HW2 2226   0.783   1.199   2.411 -2.4109 -2.1393 -0.8530
  743SOL     OW 2227   0.933   0.792   1.926  0.2078 -0.1669  0.2566
  743SOL    HW1 2228   0.898   0.882   1.959  0.6398 -0.2412 -1.0618
  743SOL    HW2 2229   0.948   0.737   2.012  0.3144 -1.6454  0.0948
  744SOL     OW 2230   1.753   0.396   1.403  0.6299 -0.4159  0.2356
  744SOL    HW1 2231   1.821   0.326   1.366  1.4653  2.1858  1.1532
  744SOL    HW2 2232   1.704   0.360   1.487 -1.8792  0.6526 -1.7396
  745SOL     OW 2233   2.207   1.165   1.290 -0.1437  0.2356 -0.0611
  745SOL    HW1 2234   2.154   1.184   1.206  0.0980  0.7925 -2.5390
  745SOL    HW2 2235   2.241   1.249   1.335  0.6482  1.0068  0.1530
  746SOL     OW 2236   2.000   1.081   0.591 -0.4270  0.5793 -0.3873
  746SOL    HW1 2237   1.955   1.144   0.529  1.2395 -2.7940 -0.1092
  746SOL    HW2 2238   2.088   1.125   0.612  0.6170  0.5564 -0.9930
  747SOL     OW 2239   2.498   1.618   1.116 -0.0131 -0.6407  0.1725
  747SOL    HW1 2240   2.575   1.624   1.052  0.4756  1.4133  1.4013
  747SOL    HW2 2241   2.454   1.707   1.137  0.3706  0.0578 -0.3801
  748SOL     OW 2242   0.409   2.193   0.514 -0.3451  0.2886  0.3180
  748SOL    HW1 2243   0.463   2.216   0.597  0.4515  2.1155  2.1217
  748SOL    HW2 2244   0.457   2.120   0.464 -2.5250  1.2695  2.1819
  749SOL     OW 2245   2.705   2.567   2.450 -0.0081  0.0279  0.1341
  749SOL    HW1 2246   2.752   2.497   2.396 -0.8152 -0.1736  0.4561
  749SOL    HW2 2247   2.603   2.575   2.430  1.2608 -2.9613 -1.1658
  750SOL     OW 2248   2.427   0.943   0.762  0.0434  0.9011  0.6081
  750SOL    HW1 2249   2.480   0.889   0.694  2.1188  0.9725 -1.0753
  750SOL    HW2 2250   2.330   0.922   0.738 -2.0202 -0.2958 -3.1453
  751SOL     OW 2251   2.497   2.946   0.174  0.0502 -0.1021 -0.1343
  751SOL    HW1 2252   2.475   2.988   0.086  0.3807  0.0382  0.9392
  751SOL    HW2 2253   2.554   2.862   0.154 -0.2663 -2.3653  2.2810
  752SOL     OW 2254   3.045   2.673   0.936 -0.5050  0.9071 -0.4946
  752SOL    HW1 2255   3.038   2.750   0.997 -0.0892 -1.1995  0.1595
  752SOL    HW2 2256   3.027   2.689   0.837 -1.8698  1.3230 -0.0980
  753SOL     OW 2257   1.733   0.992   2.153  0.4676 -0.2693 -0.0258
  753SOL    HW1 2258   1.767   1.056   2.225 -0.6576  3.3377 -0.0672
  753SOL    HW2 2259   1.663   0.928   2.190  2.0473  0.4341 -0.0810
  754SOL     OW 2260   1.594   2.107   1.450 -0.1724  0.1204 -0.2976
  754SOL    HW1 2261   1.693   2.120   1.425  0.6942 -0.4084  0.0861
  754SOL    HW2 2262   1.559   2.045   1.380 -0.1435 -0.7114  1.4103
  755SOL     OW 2263   2.638   1.182   0.587  0.1742  0.1216 -0.3933
  755SOL    HW1 2264   2.606   1.159   0.492 -1.6111 -0.3614  2.3177
  755SOL    HW2 2265   2.570   1.150   0.653  0.1132  0.4292  0.8197
  756SOL     OW 2266   0.606   1.357   2.733  0.6451 -0.0206  0.5144
  756SOL    HW1 2267   0.541   1.294   2.690  2.1801  0.0036  1.2008
  756SOL    HW2 2268   0.699   1.345   2.692  0.4016  0.1446 -0.6052
  757SOL     OW 2269   1.612   2.317   0.746  0.2178 -0.3493 -0.4280
  757SOL    HW1 2270   1.712   2.294   0.740  0.5504  3.6471  0.1890
  757SOL    HW2 2271   1.588   2.344   0.844  0.8123 -2.7500  3.8769
  758SOL     OW 2272   1.348   2.714   1.620  0.5124  0.6781 -0.4405
  758SOL    HW1 2273   1.374   2.801   1.584 -0.3643 -3.4168  1.3349
  758SOL    HW2 2274   1.344   2.643   1.547  2.8089 -0.0288 -0.1273
  759SOL     OW 2275   0.034   0.714   1.092  0.2855  0.1887 -0.0961
  759SOL    HW1 2276   3.018   0.738   1.076 -0.0517  1.6599 -1.7262
  759SOL    HW2 2277   0.061   0.727   1.190  0.3273 -1.0317  2.0150
  760SOL     OW 2278   2.448   1.011   1.192  0.4972 -0.0373 -0.5062
  760SOL    HW1 2279   2.463   1.060   1.100 -1.5682  0.0111 -2.1851
  760SOL    HW2 2280   2.365   1.047   1.233 -0.6365  1.9874 -1.5120
  761SOL     OW 2281   1.999   0.065   0.086 -0.3852 -0.1442  0.0832
  761SOL    HW1 2282   1.996   0.007   0.169 -0.0304  0.7729  0.6140
  761SOL    HW2 2283   1.954   0.155   0.105 -1.8443 -1.4873 -1.9881
  762SOL     OW 2284   2.134   1.463   2.971 -0.2671 -0.0721 -0.2645
  762SOL    HW1 2285   2.155   1.388   2.907  1.1914  0.3507  0.8324
  762SOL    HW2 2286   2.119   1.548   2.921  0.7777 -0.7724  0.7859
  763SOL     OW 2287   0.277   2.018   1.787  0.2726 -0.2285 -0.0751
  763SOL    HW1 2288   0.348   1.994   1.855  0.1155  1.1061 -0.5105
  763SOL    HW2 2289   0.214   1.939   1.763 -1.2967  0.3615  0.1840
  764SOL     OW 2290   2.998   2.418   3.003  0.6240  0.1929 -0.2931
  764SOL    HW1 2291   2.953   2.325   2.996 -1.5748 -0.2854 -1.9929
  764SOL    HW2 2292   3.002   2.470   2.916 -1.5692 -3.4878  3.0534
  765SOL     OW 2293   0.380   2.967   1.327 -0.2284 -0.1696 -0.2240
  765SOL    HW1 2294   0.473   2.927   1.344  1.0600 -1.4074  1.1380
  765SOL    HW2 2295   0.309   2.894   1.313  1.1979  0.0483  0.5709
  766SOL     OW 2296   2.958   1.858   2.263 -0.0225 -0.0468  0.4943
  766SOL    HW1 2297   2.943   1.762   2.289  1.5058  0.9985  0.3628
  766SOL    HW2 2298   2.896   1.915   2.320 -3.3406  0.3282 -2.4655
  767SOL     OW 2299   2.264   0.732   2.256 -0.2065  0.3836  0.1020
  767SOL    HW1 2300   2.296   0.710   2.166 -0.0119 -0.5045 -3.7528
  767SOL    HW2 2301   2.303   0.663   2.318 -1.6844  0.4906 -0.1864
  768SOL     OW 2302   1.292   3.064   2.715 -0.3527 -0.0826  0.2544
  768SOL    HW1 2303   1.223   0.005   2.787 -0.1933  2.2454 -0.3606
  768SOL    HW2 2304   1.388   3.048   2.753  0.8237 -1.5466 -0.9326
  769SOL     OW 2305   2.724   2.739   0.979 -0.0936 -0.2529  0.2232
  769SOL    HW1 2306   2.822   2.735   0.952  0.5442  1.0937 -2.3234
  769SOL    HW2 2307   2.715   2.729   1.080 -0.7749 -0.4960  3.0070
  770SOL     OW 2308   0.652   2.929   2.805  0.4246  0.0338 -0.4868
  770SOL    HW1 2309   0.632   2.829   2.800  1.3130 -0.8577 -1.9751
  770SOL    HW2 2310   0.573   2.986   2.840 -0.3892  3.8972  3.1381
  771SOL     OW 2311   1.100   1.936   2.140  0.1474 -0.0338  0.0945
  771SOL    HW1 2312   1.198   1.930   2.120 -1.3201  0.9514  1.0372
  771SOL    HW2 2313   1.074   1.861   2.200  2.9303  0.7248  0.0459
  772SOL     OW 2314   1.682   2.688   2.863 -0.1618  0.0354 -0.1274
  772SOL    HW1 2315   1.744   2.659   2.941  0.9080 -0.2315  0.0129
  772SOL    HW2 2316   1.659   2.786   2.869 -0.4735 -3.8441 -0.5788
  773SOL     OW 2317   1.928   0.758   1.422  0.5589 -0.4008  0.0417
  773SOL    HW1 2318   2.001   0.818   1.379 -2.0404  1.1704  1.1128
  773SOL    HW2 2319   1.853   0.744   1.356  4.6917  1.0294 -0.2582
  774SOL     OW 2320   0.922   0.652   1.026  0.5109  0.2731  0.2005
  774SOL    HW1 2321   0.999   0.664   1.091 -1.9489  0.6243 -0.5987
  774SOL    HW2 2322   0.836   0.673   1.079 -0.4435 -0.4093 -2.1847
  775SOL     OW 2323   1.923   2.703   2.741 -0.2937  0.0620  0.1886
  775SOL    HW1 2324   1.835   2.670   2.775 -1.2968 -1.3480  1.3596
  775SOL    HW2 2325   1.989   2.628   2.724 -1.3816 -0.6435 -0.3155
  776SOL     OW 2326   2.113   0.911   1.269 -0.0050  0.5445  0.0669
  776SOL    HW1 2327   2.153   0.993   1.316  0.5085 -0.2916 -0.5657
  776SOL    HW2 2328   2.141   0.919   1.169 -1.4455  0.6193  1.7775
  777SOL     OW 2329   0.133   0.939   2.219 -0.1657  0.2661 -0.2528
  777SOL    HW1 2330   0.145   0.843   2.245 -1.0907  0.5133  0.6807
  777SOL    HW2 2331   0.195   1.005   2.268 -0.6979  0.9913 -0.0354
  778SOL     OW 2332   0.018   0.808   0.145 -0.1552 -0.1164 -0.8090
  778SOL    HW1 2333   0.022   0.827   0.045  1.3840 -0.2719 -0.4109
  778SOL    HW2 2334   0.080   0.871   0.201  1.7764  1.0094  1.5712
  779SOL     OW 2335   0.670   0.454   2.829  0.1715  0.2567 -0.3518
  779SOL    HW1 2336   0.753   0.430   2.883 -1.0080 -1.5531  0.3594
  779SOL    HW2 2337   0.693   0.470   2.735 -2.1154 -2.3598  1.1559
  780SOL     OW 2338   2.222   1.430   2.652  0.2090 -0.4688  0.0240
  780SOL    HW1 2339   2.223   1.441   2.546 -0.7436  1.9509 -3.3150
  780SOL    HW2 2340   2.190   1.519   2.695 -0.1842  1.2071 -1.5249
  781SOL     OW 2341   2.898   1.020   1.981  0.4131  0.3261 -0.7624
  781SOL    HW1 2342   2.840   1.073   1.916  3.5583  0.5213  2.5865
  781SOL    HW2 2343   2.849   0.935   2.015 -1.4955  3.8434  0.5579
  782SOL     OW 2344   0.743   1.750   2.654 -0.4796 -0.4006  0.0235
  782SOL    HW1 2345   0.661   1.699   2.617 -1.6535  1.4863  0.0317
  782SOL    HW2 2346   0.699   1.826   2.704 -2.0713 -0.6309 -0.5950
  783SOL     OW 2347   1.327   2.271   1.264  0.1476  0.4203 -0.2515
  783SOL    HW1 2348   1.411   2.217   1.254  0.6709 -0.3752 -1.9019
  783SOL    HW2 2349   1.303   2.314   1.177  0.5250 -2.1710 -1.4489
  784SOL     OW 2350   1.611   0.660   2.460  0.0952  0.1556  0.2556
  784SOL    HW1 2351   1.711   0.670   2.473  2.8233  1.8949 -1.4980
  784SOL    HW2 2352   1.593   0.563   2.427 -0.6876 -0.2117  1.4322
  785SOL     OW 2353   0.047   0.316   1.891  0.5116 -0.2108  0.0971
  785SOL    HW1 2354   3.051   0.339   1.950  0.0868 -0.2566  0.5959
  785SOL    HW2 2355   0.072   0.214   1.898  2.6940 -2.0940  0.2737
  786SOL     OW 2356   0.878   2.070   0.252 -0.0300 -0.6334 -0.2085
  786SOL    HW1 2357   0.779   2.063   0.234  2.8041  1.0322  2.4155
  786SOL    HW2 2358   0.896   2.133   0.327 -0.5252  0.4755 -2.3961
  787SOL     OW 2359   1.329   0.169   0.855  0.0173 -0.2790  0.1398
  787SOL    HW1 2360   1.323   0.171   0.755  1.4438  0.6140 -0.5260
  787SOL    HW2 2361   1.246   0.117   0.886 -0.8731 -2.4419 -0.3985
  788SOL     OW 2362   2.837   1.499   1.192 -0.1061  0.5465 -0.2858
  788SOL    HW1 2363   2.827   1.597   1.157  3.3860  1.2945  0.0493
  788SOL    HW2 2364   2.867   1.493   1.291 -1.6763 -0.2476  1.8106
  789SOL     OW 2365   2.493   0.933   2.202 -0.4226  0.0488  0.1646
  789SOL    HW1 2366   2.423   0.857   2.184 -1.2544 -0.2671 -0.2375
  789SOL    HW2 2367   2.516   0.972   2.115 -2.3777 -1.6621  0.7387
  790SOL     OW 2368   1.176   0.237   0.352  0.3991 -0.2229 -0.1505
  790SOL    HW1 2369   1.246   0.298   0.329 -0.3775  0.9508  1.2096
  790SOL    HW2 2370   1.097   0.287   0.390 -0.3774  0.5786 -2.6373
  791SOL     OW 2371   0.091   0.055   0.006  0.5648 -0.4253 -0.1102
  791SOL    HW1 2372   0.150   0.116   3.027  0.3300 -1.5955 -1.4283
  791SOL    HW2 2373   0.116   0.071   0.105 -3.7857 -0.2077  0.8302
  792SOL     OW 2374   1.332   0.473   2.051 -0.3990  0.4569  0.4995
  792SOL    HW1 2375   1.406   0.417   2.007  1.2261 -2.5381 -2.3697
  792SOL    HW2 2376   1.271   0.413   2.109 -1.3434 -0.3343  0.5237
  793SOL     OW 2377   2.871   0.182   1.324 -0.1321 -0.0746  0.2799
  793SOL    HW1 2378   2.947   0.243   1.285  0.6464  1.2400 -0.1671
  793SOL    HW2 2379   2.825   0.220   1.408  1.8847 -0.6022  1.7064
  794SOL     OW 2380   3.080   0.543   2.063  0.4151 -0.3390  0.2552
  794SOL    HW1 2381   0.076   0.609   2.042  1.7290 -1.2119  1.1948
  794SOL    HW2 2382   3.011   0.550   1.986  1.2102 -0.1626  3.6413
  795SOL     OW 2383   0.674   1.430   0.405  0.1952 -0.2526  0.1022
  795SOL    HW1 2384   0.754   1.412   0.462 -2.6124  1.1357 -0.3525
  795SOL    HW2 2385   0.634   1.348   0.360  3.1520  0.0039  1.4240
  796SOL     OW 2386   2.862   0.882   0.248  0.1664 -0.0628 -0.1037
  796SOL    HW1 2387   2.813   0.973   0.261  1.3140 -2.2529  0.1402
  796SOL    HW2 2388   2.954   0.897   0.204 -0.3439 -2.4382 -0.7172
  797SOL     OW 2389   1.600   2.958   2.450 -0.1914 -0.2739 -0.1044
  797SOL    HW1 2390   1.680   2.894   2.462  0.3880 -0.5982  2.5085
  797SOL    HW2 2391   1.535   2.927   2.380  0.8725  1.3272  0.5871
  798SOL     OW 2392   3.043   3.060   1.303 -0.1976  0.1705  0.5702
  798SOL    HW1 2393   2.980   0.056   1.285 -1.7945 -2.0958 -2.5700
  798SOL    HW2 2394   0.045   3.069   1.252 -1.9913  1.3655 -0.7407
  799SOL     OW 2395   2.725   1.136   1.805 -0.3102  0.4300  0.3998
  799SOL    HW1 2396   2.649   1.184   1.758  2.2740  0.0390 -0.1934
  799SOL    HW2 2397   2.772   1.066   1.738 -0.7159 -1.7288 -0.8904
  800SOL     OW 2398   0.175   1.668   0.488 -0.0175  0.4372 -0.2608
  800SOL    HW1 2399   0.197   1.762   0.517 -2.3708  0.6072  0.2974
  800SOL    HW2 2400   0.243   1.644   0.417 -1.3771  0.7016  0.6131
  801SOL     OW 2401   1.895   1.578   0.480 -0.8771 -0.3758 -0.0314
  801SOL    HW1 2402   1.815   1.536   0.429 -4.5669 -0.1115 -0.3154
  801SOL    HW2 2403   1.869   1.576   0.578 -1.7408  0.1836 -1.2654
  802SOL     OW 2404   1.272   1.089   2.730 -0.0608  0.5901 -0.5118
  802SOL    HW1 2405   1.235   1.132   2.644 -1.3631  0.3177  0.1157
  802SOL    HW2 2406   1.374   1.100   2.739 -0.6603 -0.2965  2.2013
  803SOL     OW 2407   0.447   2.036   2.007 -0.1531  0.3511  0.1112
  803SOL    HW1 2408   0.515   2.102   1.973 -1.8867 -2.2803  1.0049
  803SOL    HW2 2409   0.484   1.940   1.998  0.5827 -1.8467 -2.0431
  804SOL     OW 2410   1.462   2.044   0.857 -0.4377  0.2456  0.0516
  804SOL    HW1 2411   1.514   1.959   0.887  3.2564 -1.3422  0.3063
  804SOL    HW2 2412   1.489   2.080   0.769 -1.0138  2.3781 -0.2304
  805SOL     OW 2413   2.405   2.322   2.521 -0.2863 -0.6982  0.1680
  805SOL    HW1 2414   2.490   2.269   2.503 -0.7707  0.6842  0.2288
  805SOL    HW2 2415   2.404   2.407   2.470 -1.3519  2.0820 -0.7955
  806SOL     OW 2416   0.241   0.535   0.769 -0.2422 -0.2797 -0.1775
  806SOL    HW1 2417   0.274   0.457   0.824 -0.6426 -1.5506 -1.8032
  806SOL    HW2 2418   0.243   0.614   0.832  1.7567 -2.1617  0.0383
  807SOL     OW 2419   2.906   0.595   2.736  0.3522  0.4699 -0.0381
  807SOL    HW1 2420   2.818   0.545   2.710 -1.3548 -2.0051 -2.0252
  807SOL    HW2 2421   2.891   0.697   2.735 -2.0992  2.3062  0.2279
  808SOL     OW 2422   0.744   2.109   0.616 -0.8316 -0.3298 -0.6268
  808SOL    HW1 2423   0.747   2.020   0.568 -0.5051 -1.1623 -2.1961
  808SOL    HW2 2424   0.660   2.127   0.672 -0.4445 -1.0451 -0.4306
  809SOL     OW 2425   2.656   0.204   2.584 -0.0018 -0.4267  0.1006
  809SOL    HW1 2426   2.734   0.142   2.558  1.3547  2.1873  0.4136
  809SOL    HW2 2427   2.570   0.161   2.603  4.4909  0.6700  3.0615
  810SOL     OW 2428   1.492   1.082   0.767 -0.4387  0.1334  0.2036
  810SOL    HW1 2429   1.482   1.089   0.867  0.8968 -3.2185  0.2140
  810SOL    HW2 2430   1.576   1.031   0.745  1.7621  2.9381 -1.4369
  811SOL     OW 2431   1.636   2.860   2.022  0.3971 -0.2426 -0.3831
  811SOL    HW1 2432   1.702   2.913   1.973  0.0414  0.7417  0.1862
  811SOL    HW2 2433   1.559   2.914   2.051 -1.4677 -0.0255 -1.9756
  812SOL     OW 2434   2.087   2.571   0.475  0.1428  0.4819  0.8608
  812SOL    HW1 2435   2.033   2.499   0.512 -0.1597  2.2199 -3.0503
  812SOL    HW2 2436   2.060   2.654   0.529 -0.0822  1.1866 -0.0858
  813SOL     OW 2437   0.919   0.515   1.887 -0.1891  0.3812 -0.2516
  813SOL    HW1 2438   0.990   0.489   1.821 -0.2742 -0.4113 -0.6319
  813SOL    HW2 2439   0.897   0.615   1.878  0.4139 -1.5985  1.8896
  814SOL     OW 2440   0.189   0.032   1.161 -0.2469  0.1236 -0.2954
  814SOL    HW1 2441   0.202   0.134   1.172 -0.3952 -1.6650 -0.7953
  814SOL    HW2 2442   0.269   3.065   1.198 -1.0983  2.3957 -1.0696
  815SOL     OW 2443   0.388   0.263   0.893 -0.6591  0.3671 -0.2199
  815SOL    HW1 2444   0.456   0.187   0.915  3.6806 -1.7961  0.1743
  815SOL    HW2 2445   0.327   0.224   0.820 -2.1867  1.6579  0.0643
  816SOL     OW 2446   2.776   1.530   2.174  0.6214 -0.2077  0.2615
  816SOL    HW1 2447   2.693   1.495   2.218  0.6302 -0.0781  0.8794
  816SOL    HW2 2448   2.749   1.572   2.083 -0.3051  1.2793 -3.6987
  817SOL     OW 2449   1.142   3.067   0.231  0.3005  0.2198 -0.1673
  817SOL    HW1 2450   1.125   0.073   0.280 -2.7038  2.4455  2.1804
  817SOL    HW2 2451   1.111   2.988   0.280 -0.5177  0.1851 -2.8349
  818SOL     OW 2452   1.578   0.655   0.115 -0.2006 -0.6236 -0.4602
  818SOL    HW1 2453   1.662   0.699   0.079 -1.8165 -1.9580 -0.4954
  818SOL    HW2 2454   1.572   0.554   0.095  0.1710 -1.4887 -0.8495
  819SOL     OW 2455   2.188   2.747   2.981  0.3497  0.2385 -0.4934
  819SOL    HW1 2456   2.161   2.650   2.952 -2.5003  0.9395  0.8160
  819SOL    HW2 2457   2.180   2.755   0.001 -1.8416  0.2540  0.2297
  820SOL     OW 2458   1.506   1.103   2.866 -0.0720 -0.1393 -0.4047
  820SOL    HW1 2459   1.525   1.015   2.911 -0.0559 -1.5282 -0.6478
  820SOL    HW2 2460   1.583   1.177   2.872  2.1393  1.2445 -0.7890
  821SOL     OW 2461   3.020   0.543   1.431  0.5266  0.0379  0.1481
  821SOL    HW1 2462   3.021   0.491   1.517  0.0286  0.1971 -0.0470
  821SOL    HW2 2463   3.025   0.478   1.353  0.1586  2.9269 -0.9243
  822SOL     OW 2464   1.058   2.530   2.519 -0.9544 -0.0329  0.3593
  822SOL    HW1 2465   1.151   2.488   2.518  0.8904 -1.0934  2.3100
  822SOL    HW2 2466   0.995   2.461   2.471  0.1965 -0.2804  1.5605
  823SOL     OW 2467   0.312   1.299   1.644  0.2148 -0.2445 -0.2925
  823SOL    HW1 2468   0.373   1.376   1.673 -1.5939 -0.5768 -3.5553
  823SOL    HW2 2469   0.357   1.212   1.633 -1.7272  1.9167 -0.3086
  824SOL     OW 2470   1.643   2.648   2.235  0.0241  0.0693 -0.5150
  824SOL    HW1 2471   1.596   2.662   2.325 -2.3135 -1.3139 -0.2113
  824SOL    HW2 2472   1.597   2.691   2.158  1.0919 -0.8355  1.3204
  825SOL     OW 2473   1.113   1.090   0.161 -0.3498  0.1805 -0.1145
  825SOL    HW1 2474   1.177   1.153   0.210  0.2830 -2.4224 -1.1444
  825SOL    HW2 2475   1.083   1.025   0.236 -0.4267  0.1757  0.2382
  826SOL     OW 2476   2.190   0.707   2.845  0.5462 -0.1620  0.1175
  826SOL    HW1 2477   2.123   0.778   2.818  1.0763 -1.9828 -2.9888
  826SOL    HW2 2478   2.236   0.728   2.935 -0.1720  0.0602 -0.2664
  827SOL     OW 2479   0.313   2.236   2.727  0.4176  0.4086  0.1120
  827SOL    HW1 2480   0.370   2.276   2.652  0.5920  0.8332 -0.7232
  827SOL    HW2 2481   0.304   2.136   2.720  0.5927  1.5717 -0.2502
  828SOL     OW 2482   2.785   0.303   1.549 -0.0582  0.6524 -0.5153
  828SOL    HW1 2483   2.871   0.339   1.589  2.9451 -1.4302  0.5373
  828SOL    HW2 2484   2.714   0.310   1.621 -1.0935  0.8936 -0.7068
  829SOL     OW 2485   0.825   1.500   1.069 -0.2253 -0.2207 -0.1257
  829SOL    HW1 2486   0.802   1.591   1.032 -2.5515  1.5250  1.2771
  829SOL    HW2 2487   0.925   1.479   1.070  0.6833 -2.1715  0.0498
  830SOL     OW 2488   0.700   1.182   1.426  0.3730 -0.2042  0.3045
  830SOL    HW1 2489   0.684   1.278   1.398  0.7330 -1.6100 -5.0792
  830SOL    HW2 2490   0.615   1.146   1.464  1.5567  1.6044 -3.3314
  831SOL     OW 2491   0.396   2.041   0.015 -0.0535 -0.3406  0.3340
  831SOL    HW1 2492   0.451   2.004   3.018 -2.4179 -3.5758 -1.9529
  831SOL    HW2 2493   0.341   2.127   3.064  0.0821  3.3923  3.6811
  832SOL     OW 2494   0.811   3.007   3.059  0.2746 -0.0242 -0.3376
  832SOL    HW1 2495   0.788   3.013   2.957  0.2283  0.0538 -0.3715
  832SOL    HW2 2496   0.860   0.006   0.009 -0.5184  2.3156 -0.5146
  833SOL     OW 2497   0.269   0.446   1.954 -0.0419  0.2733  0.1618
  833SOL    HW1 2498   0.181   0.397   1.941  4.3131  0.2324  0.9306
  833SOL    HW2 2499   0.258   0.542   1.991 -1.1990 -1.1188 -1.9498
  834SOL     OW 2500   2.929   0.490   0.959  0.1707  0.3128 -0.2068
  834SOL    HW1 2501   2.873   0.573   0.984  0.6059  1.4204 -0.4208
  834SOL    HW2 2502   2.993   0.517   0.884  0.0093  0.0281 -0.8195
  835SOL     OW 2503   2.649   0.215   0.947  0.0106 -0.3724  0.0114
  835SOL    HW1 2504   2.734   0.177   0.911  0.7556  0.1685 -1.3593
  835SOL    HW2 2505   2.669   0.256   1.039 -0.3376  0.7132 -0.3151
  836SOL     OW 2506   0.040   2.037   2.846 -0.9782 -0.2687 -0.2546
  836SOL    HW1 2507   0.045   2.137   2.830 -0.3323  0.0577  1.2532
  836SOL    HW2 2508   3.077   2.013   2.934  1.2638 -0.5677 -2.5836
  837SOL     OW 2509   1.727   1.931   3.055  0.2507 -0.6922 -0.0180
  837SOL    HW1 2510   1.816   1.983   3.049  1.9887  1.5734 -1.6493
  837SOL    HW2 2511   1.722   1.852   2.989  1.5589 -0.3041 -1.3713
  838SOL     OW 2512   2.595   0.850   1.594 -0.3144  0.1175  0.3662
  838SOL    HW1 2513   2.658   0.805   1.526 -1.6731  0.0034 -3.1879
  838SOL    HW2 2514   2.519   0.788   1.626 -0.3739 -1.3325 -2.4848
  839SOL     OW 2515   1.137   0.780   0.828  0.5184 -0.3333  0.2593
  839SOL    HW1 2516   1.072   0.859   0.828 -1.1435 -1.0338  2.3563
  839SOL    HW2 2517   1.090   0.702   0.876 -1.4142 -0.9078 -0.8630
  840SOL     OW 2518   1.570   0.448   0.908  0.5691 -0.0080  0.4282
  840SOL    HW1 2519   1.493   0.380   0.921 -2.2900 -2.9561 -2.2069
  840SOL    HW2 2520   1.529   0.543   0.912 -0.3230 -1.5832 -0.6411
  841SOL     OW 2521   0.310   2.857   0.489 -0.3010 -0.1963 -0.2176
  841SOL    HW1 2522   0.247   2.932   0.465  0.5950 -0.7042  0.6524
  841SOL    HW2 2523   0.403   2.884   0.513 -0.2928 -1.7067 -2.1422
  842SOL     OW 2524   0.521   0.753   0.533  0.2163  0.1067 -0.0151
  842SOL    HW1 2525   0.584   0.679   0.566  0.7896 -3.1976  0.7054
  842SOL    HW2 2526   0.427   0.718   0.542  0.3030  1.4395 -2.8534
  843SOL     OW 2527   0.920   1.261   1.598 -0.1527  0.1829 -0.1669
  843SOL    HW1 2528   0.868   1.252   1.688 -1.1188 -0.3769 -2.0675
  843SOL    HW2 2529   0.862   1.232   1.521  0.7586 -2.4074  0.1517
  844SOL     OW 2530   1.348   1.988   0.149  0.2028  0.1360 -0.4384
  844SOL    HW1 2531   1.432   1.934   0.176  0.9272 -0.3620  0.2871
  844SOL    HW2 2532   1.374   2.087   0.159  0.4346  0.2257  2.0316
  845SOL     OW 2533   2.393   2.518   2.156  0.0849 -0.5768  0.1851
  845SOL    HW1 2534   2.397   2.619   2.140  3.9427  0.9216 -1.4027
  845SOL    HW2 2535   2.316   2.474   2.103 -0.9004 -2.0722  0.0389
  846SOL     OW 2536   1.944   2.128   3.021 -0.2270 -0.3327 -0.2681
  846SOL    HW1 2537   1.935   2.166   2.926 -0.3791 -2.2553  4.1403
  846SOL    HW2 2538   1.951   2.202   0.004  1.1964 -0.6649 -3.2821
  847SOL     OW 2539   1.816   2.824   2.508  0.3669  0.4620  0.5022
  847SOL    HW1 2540   1.858   2.850   2.420 -2.7956 -2.0331  0.0037
  847SOL    HW2 2541   1.868   2.770   2.572 -2.1141  1.8159 -1.9024
  848SOL     OW 2542   0.730   0.521   0.454 -0.0660 -0.0929  0.3601
  848SOL    HW1 2543   0.757   0.426   0.437  1.2242  2.5605 -0.2038
  848SOL    HW2 2544   0.701   0.537   0.550 -1.2148  0.6766 -0.3430
  849SOL     OW 2545   0.857   2.710   1.156 -0.4127  0.2813  0.7806
  849SOL    HW1 2546   0.898   2.634   1.098  2.0554 -2.6440 -1.9059
  849SOL    HW2 2547   0.934   2.766   1.190 -0.1385 -1.2066  0.0559
  850SOL     OW 2548   0.196   1.715   3.056  0.2061  0.4858 -0.5876
  850SOL    HW1 2549   0.210   1.785   0.050  2.1227  1.8088  0.9156
  850SOL    HW2 2550   0.105   1.731   3.015 -1.1201  0.0110  1.7868
  851SOL     OW 2551   0.355   0.850   0.218  0.6919  0.0754 -0.0980
  851SOL    HW1 2552   0.304   0.933   0.257  0.9336  1.2143  0.3203
  851SOL    HW2 2553   0.302   0.762   0.224 -0.0718 -0.5611  0.3493
  852SOL     OW 2554   1.807   1.901   1.688 -0.1378  0.6515 -0.1499
  852SOL    HW1 2555   1.750   1.948   1.756 -1.7786 -0.5918  0.5047
  852SOL    HW2 2556   1.760   1.889   1.597  0.2558  2.0735 -3.9958
  853SOL     OW 2557   0.230   1.928   0.169  0.1972  0.2997 -0.1656
  853SOL    HW1 2558   0.286   1.904   0.253  0.7054  0.1435 -0.0291
  853SOL    HW2 2559   0.292   1.968   0.096 -1.0190  2.4232  0.5261
  854SOL     OW 2560   1.825   1.234   1.415  0.2754 -0.7704 -0.4923
  854SOL    HW1 2561   1.827   1.248   1.311 -0.9069 -0.7181 -2.8563
  854SOL    HW2 2562   1.896   1.175   1.449 -1.7417 -0.9560 -0.5522
  855SOL     OW 2563   0.686   2.337   0.138 -0.3973 -0.0052  0.0720
  855SOL    HW1 2564   0.775   2.312   0.101 -0.6290 -3.1334 -2.2477
  855SOL    HW2 2565   0.622   2.342   0.060  0.4574 -0.2791 -1.2076
  856SOL     OW 2566   2.890   0.290   2.065  0.1792 -0.2665  0.7860
  856SOL    HW1 2567   2.846   0.349   1.993  1.3905  1.6570 -0.8790
  856SOL    HW2 2568   2.841   0.307   2.156  2.1416  1.2376  0.3177
  857SOL     OW 2569   0.668   0.686   1.829 -0.1707 -0.2897 -0.1088
  857SOL    HW1 2570   0.662   0.584   1.825 -0.1075  0.5397  1.1322
  857SOL    HW2 2571   0.717   0.721   1.747 -0.6317 -0.2796 -0.2754
  858SOL     OW 2572   0.342   1.102   2.314 -0.3373 -0.9238 -0.2767
  858SOL    HW1 2573   0.316   1.197   2.327 -0.9478  0.3599 -0.0960
  858SOL    HW2 2574   0.415   1.080   2.377 -0.2475  0.1940 -0.1679
  859SOL     OW 2575   2.174   0.142   0.338 -0.2418 -0.1181  0.5177
  859SOL    HW1 2576   2.168   0.236   0.287  1.1082  1.8082 -0.4938
  859SOL    HW2 2577   2.119   0.137   0.423  1.5539 -1.3083 -0.0550
  860SOL     OW 2578   1.620   2.938   2.925 -0.2568  0.4199 -0.8195
  860SOL    HW1 2579   1.578   2.983   2.849  3.0556 -0.6076  2.6579
  860SOL    HW2 2580   1.707   2.993   2.947  0.1189 -2.6209  0.2792
  861SOL     OW 2581   0.315   0.515   0.528  0.1125  0.4360  0.0570
  861SOL    HW1 2582   0.235   0.564   0.488 -1.3468  0.9918  0.6889
  861SOL    HW2 2583   0.291   0.496   0.628 -0.8663 -2.5320 -0.0241
  862SOL     OW 2584   1.755   0.279   2.166  0.5852 -0.3716 -0.4891
  862SOL    HW1 2585   1.839   0.257   2.108  0.5492  0.5706  2.9717
  862SOL    HW2 2586   1.669   0.273   2.114 -1.0185  0.7164 -0.0242
  863SOL     OW 2587   0.099   1.910   1.167  0.0125 -0.1696  0.2300
  863SOL    HW1 2588   0.194   1.933   1.138  1.0822 -2.1682  0.0893
  863SOL    HW2 2589   0.051   1.992   1.202  2.3332 -1.4129  0.6911
  864SOL     OW 2590   2.344   2.814   2.128  0.4574  0.1922 -0.4242
  864SOL    HW1 2591   2.344   2.916   2.118  0.9630  1.2970  0.8877
  864SOL    HW2 2592   2.265   2.770   2.083  1.9008  2.1906  3.2030
  865SOL     OW 2593   0.925   0.260   1.115 -0.1971 -0.7029 -0.5550
  865SOL    HW1 2594   1.027   0.242   1.128 -1.6058  0.0269 -1.7171
  865SOL    HW2 2595   0.905   0.212   1.028  3.3407  1.0055  1.7591
  866SOL     OW 2596   2.454   2.967   0.658 -0.1220  0.1620  0.0041
  866SOL    HW1 2597   2.461   2.995   0.560 -1.7279  2.0602  0.2051
  866SOL    HW2 2598   2.512   2.885   0.671 -1.1029  0.5001 -0.4477
  867SOL     OW 2599   2.773   2.903   0.536 -0.1423 -0.2608 -0.2280
  867SOL    HW1 2600   2.812   2.848   0.455  3.2354 -2.1070 -4.1238
  867SOL    HW2 2601   2.729   2.844   0.609 -3.2092 -1.3648  4.3953
  868SOL     OW 2602   1.254   2.270   2.280  0.1573 -0.1700  0.7850
  868SOL    HW1 2603   1.334   2.289   2.221 -0.2752  1.9203 -1.8201
  868SOL    HW2 2604   1.171   2.286   2.223 -0.2771 -0.2484 -1.0035
  869SOL     OW 2605   2.072   1.759   0.408 -0.0873 -0.3816 -0.0024
  869SOL    HW1 2606   2.076   1.779   0.305  0.1844 -0.3497 -1.4085
  869SOL    HW2 2607   2.025   1.677   0.428  1.1904  3.5236  0.9064
  870SOL     OW 2608   2.689   2.420   0.640  0.8248 -0.4416  0.2244
  870SOL    HW1 2609   2.601   2.448   0.683 -1.4595  1.6373 -0.9784
  870SOL    HW2 2610   2.762   2.389   0.704 -0.5962 -1.4911  0.0081
  871SOL     OW 2611   2.963   1.144   1.461 -0.4145  0.2827  0.0041
  871SOL    HW1 2612   3.018   1.220   1.500  1.4536 -1.7038  1.2579
  871SOL    HW2 2613   2.915   1.090   1.537  1.0764 -0.3018 -1.6283
  872SOL     OW 2614   0.599   1.722   2.404 -0.2229 -0.5190 -0.7491
  872SOL    HW1 2615   0.673   1.752   2.339  0.1953  0.1943 -2.1109
  872SOL    HW2 2616   0.511   1.778   2.388 -1.7415 -1.0190  1.3957
  873SOL     OW 2617   0.395   2.693   1.845 -0.1334 -0.5301  0.1735
  873SOL    HW1 2618   0.396   2.595   1.852  1.2061  2.8090 -1.0134
  873SOL    HW2 2619   0.424   2.723   1.751  1.0308 -0.5239  2.4626
  874SOL     OW 2620   1.181   0.871   2.190 -0.6847  0.0931  0.3820
  874SOL    HW1 2621   1.272   0.827   2.167  1.1855  0.7647 -0.8842
  874SOL    HW2 2622   1.174   0.959   2.141 -0.9862 -0.7892  1.4885
  875SOL     OW 2623   2.665   2.681   1.266 -0.5964  0.1980  0.3373
  875SOL    HW1 2624   2.719   2.753   1.312 -1.5511 -0.3612  0.5483
  875SOL    HW2 2625   2.569   2.710   1.275  0.6310 -3.0171  0.1370
  876SOL     OW 2626   1.078   1.430   1.014 -0.3028  0.1830  1.0514
  876SOL    HW1 2627   1.074   1.334   1.050 -0.3830  0.0690  2.3276
  876SOL    HW2 2628   1.118   1.432   0.919 -0.7383  0.9165 -0.2414
  877SOL     OW 2629   0.164   0.290   1.475 -0.8046  0.1607  0.4968
  877SOL    HW1 2630   0.188   0.373   1.419 -0.6660 -0.5892 -0.7175
  877SOL    HW2 2631   0.243   0.227   1.485  0.0470 -2.2757 -1.2030
  878SOL     OW 2632   2.590   1.655   2.805  0.6084  0.1282 -0.0701
  878SOL    HW1 2633   2.615   1.687   2.898  2.4296  0.2785 -1.0991
  878SOL    HW2 2634   2.581   1.552   2.802  0.4207 -2.8297  0.8340
  879SOL     OW 2635   2.677   2.015   1.213  0.1592 -0.3371  0.2820
  879SOL    HW1 2636   2.692   2.096   1.157 -0.3446 -3.3726  0.5667
  879SOL    HW2 2637   2.747   2.016   1.291 -1.0560 -0.5408 -0.6390
  880SOL     OW 2638   0.930   2.145   0.989  0.5363 -0.4070 -0.2393
  880SOL    HW1 2639   0.913   2.224   0.925 -0.1804 -2.8809 -3.7735
  880SOL    HW2 2640   1.024   2.131   1.016 -0.2618  1.8954  0.9245
  881SOL     OW 2641   1.393   1.714   0.962  0.0305  0.7356 -0.0294
  881SOL    HW1 2642   1.301   1.733   0.923 -2.0333  0.3497 -1.0877
  881SOL    HW2 2643   1.383   1.649   1.041 -0.3675 -1.1540 -0.5689
  882SOL     OW 2644   2.615   0.917   2.459  0.3037  0.1324  0.0601
  882SOL    HW1 2645   2.577   0.931   2.366  1.1166 -1.0564 -1.0810
  882SOL    HW2 2646   2.658   0.823   2.464 -2.9030  1.9953 -0.0727
  883SOL     OW 2647   1.295   0.395   0.966  0.2883  0.1554  0.0420
  883SOL    HW1 2648   1.214   0.430   0.919  2.0598 -1.1941  0.6888
  883SOL    HW2 2649   1.320   0.305   0.922 -1.3148  1.1725 -0.6301
  884SOL     OW 2650   2.982   2.889   1.099 -0.1927 -0.2174  0.4161
  884SOL    HW1 2651   2.963   2.953   1.020 -0.9186  1.3300  0.8379
  884SOL    HW2 2652   3.005   2.938   1.186 -0.0766  0.0473  0.3093
  885SOL     OW 2653   1.157   1.217   1.424 -0.2901  0.1333 -0.0563
  885SOL    HW1 2654   1.097   1.213   1.505  1.7421  0.8676  0.3679
  885SOL    HW2 2655   1.248   1.251   1.456 -1.3499  0.3829 -1.5219
  886SOL     OW 2656   1.163   1.000   2.979  0.0657 -0.0520 -0.4384
  886SOL    HW1 2657   1.162   1.056   3.066  1.9299  2.0776 -1.0143
  886SOL    HW2 2658   1.229   1.031   2.910 -0.8846 -0.6233  3.5423
  887SOL     OW 2659   1.499   0.430   0.606  0.0192 -0.4056  0.2304
  887SOL    HW1 2660   1.411   0.483   0.613 -0.8651  0.0478 -2.3153
  887SOL    HW2 2661   1.560   0.446   0.686  2.1497  1.3246  0.6681
  888SOL     OW 2662   2.045   1.364   1.817 -0.4201 -0.1441 -0.4251
  888SOL    HW1 2663   2.063   1.442   1.877  1.9426 -0.5678  0.1777
  888SOL    HW2 2664   2.046   1.278   1.877 -1.4221 -1.7720  0.3157
  889SOL     OW 2665   3.000   2.143   1.217 -0.0948 -0.9069 -0.1246
  889SOL    HW1 2666   3.003   2.132   1.115  1.7965  0.4276  1.3301
  889SOL    HW2 2667   2.911   2.120   1.259  2.1030  1.8882  1.0786
  890SOL     OW 2668   1.255   1.926   0.515 -0.1526 -0.4878  0.0075
  890SOL    HW1 2669   1.338   1.984   0.502  0.1033  2.7917 -0.6874
  890SOL    HW2 2670   1.202   1.928   0.425 -0.7058  2.8763 -0.8956
  891SOL     OW 2671   2.433   0.587   2.387 -0.1848  0.2419  0.1684
  891SOL    HW1 2672   2.533   0.597   2.414 -0.2490  2.3628  0.6347
  891SOL    HW2 2673   2.421   0.491   2.365 -0.6080 -0.2001 -0.7719
  892SOL     OW 2674   0.307   2.651   1.507  0.0965 -0.0788 -0.1413
  892SOL    HW1 2675   0.288   2.690   1.413 -1.7240  1.8283  0.7485
  892SOL    HW2 2676   0.397   2.692   1.534  0.6938  1.8633  1.2756
  893SOL     OW 2677   1.103   0.476   2.340 -0.2731  0.4757  0.1269
  893SOL    HW1 2678   1.060   0.447   2.427 -0.9067  2.1702  0.2612
  893SOL    HW2 2679   1.189   0.529   2.363  3.1355  1.1292 -0.2756
  894SOL     OW 2680   2.615   0.564   0.624  0.1776 -0.1193  0.5898
  894SOL    HW1 2681   2.611   0.526   0.722 -0.3601  1.6413 -0.2647
  894SOL    HW2 2682   2.712   0.562   0.588  0.2415 -0.0333  0.0640
  895SOL     OW 2683   1.716   1.713   2.287  0.2068  0.2691 -0.2074
  895SOL    HW1 2684   1.765   1.642   2.338 -2.1585 -0.9593 -0.7427
  895SOL    HW2 2685   1.619   1.729   2.317 -1.1140 -0.5599 -0.5218
  896SOL     OW 2686   1.499   0.471   1.537 -0.3783 -0.2653 -0.1208
  896SOL    HW1 2687   1.521   0.443   1.441  0.9921 -1.5248 -0.7540
  896SOL    HW2 2688   1.403   0.506   1.552  0.6400  0.5889  1.2452
  897SOL     OW 2689   0.731   1.760   1.731 -0.5096 -0.0493  0.2032
  897SOL    HW1 2690   0.723   1.690   1.658 -0.0181 -5.1030  0.4289
  897SOL    HW2 2691   0.698   1.854   1.699 -2.4147  3.7537 -0.8318
  898SOL     OW 2692   1.816   1.791   2.014  0.1997 -0.0043 -0.1622
  898SOL    HW1 2693   1.788   1.725   1.938 -0.4257  0.5963 -0.3524
  898SOL    HW2 2694   1.771   1.776   2.106 -1.0389  1.8765  3.6142
  899SOL     OW 2695   2.053   2.215   0.965  0.2940  0.2348 -0.5676
  899SOL    HW1 2696   2.119   2.142   0.994 -1.4559 -0.3366  0.3292
  899SOL    HW2 2697   1.980   2.214   1.038 -1.8219  2.6833 -1.8152
  900SOL     OW 2698   0.999   0.014   2.534  0.3061 -0.4398  0.0212
  900SOL    HW1 2699   1.004   3.009   2.591  0.5853 -1.6404  1.3251
  900SOL    HW2 2700   1.048   0.096   2.581 -1.3462  3.7155 -1.2040
  901SOL     OW 2701   1.195   1.421   2.313  0.2835 -0.2887 -0.0446
  901SOL    HW1 2702   1.152   1.477   2.384  1.2506 -2.4401 -0.6957
  901SOL    HW2 2703   1.266   1.476   2.264  0.2367 -0.0901 -3.0449
  902SOL     OW 2704   2.076   0.473   2.964 -0.0132 -0.4472 -0.2342
  902SOL    HW1 2705   2.154   0.521   2.921  0.1345 -0.0721  1.8558
  902SOL    HW2 2706   2.070   0.498   3.062  0.0975 -1.1731 -1.1071
  903SOL     OW 2707   2.101   0.941   2.128 -0.4986 -0.1622  0.1173
  903SOL    HW1 2708   2.096   0.846   2.087  3.9600 -1.2028 -2.4223
  903SOL    HW2 2709   2.078   0.948   2.226 -0.5081  0.0245 -0.7196
  904SOL     OW 2710   1.939   1.012   1.541 -0.2425 -0.1836 -0.2577
  904SOL    HW1 2711   1.904   0.929   1.492  0.3166 -2.9095 -3.4455
  904SOL    HW2 2712   1.997   0.982   1.620  2.5933 -1.5701 -3.2595
  905SOL     OW 2713   2.180   0.489   0.635 -0.1502 -0.1240 -0.1352
  905SOL    HW1 2714   2.271   0.448   0.612 -1.1332 -0.3856 -1.6725
  905SOL    HW2 2715   2.166   0.512   0.737  3.2508  3.6499  0.1001
  906SOL     OW 2716   2.466   1.799   0.671 -0.1264 -0.3601 -0.2921
  906SOL    HW1 2717   2.412   1.880   0.698 -0.2958 -0.2494 -2.1781
  906SOL    HW2 2718   2.491   1.806   0.576  1.7634  3.2633  0.6943
  907SOL     OW 2719   1.500   2.879   0.455  0.2548 -0.0719 -0.0417
  907SOL    HW1 2720   1.580   2.831   0.493  0.5205 -0.7903 -0.6953
  907SOL    HW2 2721   1.530   2.970   0.414  0.9019  1.5317 -0.5011
  908SOL     OW 2722   1.541   2.059   2.238 -0.5890  0.4471 -0.1241
  908SOL    HW1 2723   1.546   2.147   2.190  1.2925 -0.7988 -1.3375
  908SOL    HW2 2724   1.622   2.042   2.301  1.4936  0.3510  3.5200
  909SOL     OW 2725   2.152   0.505   2.057 -0.0563 -0.3436  0.1073
  909SOL    HW1 2726   2.143   0.510   2.161  0.9446 -1.4096 -0.5185
  909SOL    HW2 2727   2.107   0.588   2.014 -1.3395 -0.1205 -3.1119
  910SOL     OW 2728   1.233   3.047   2.399  0.0341 -0.3841  0.6988
  910SOL    HW1 2729   1.131   3.065   2.417 -2.4282  1.4105 -2.3589
  910SOL    HW2 2730   1.265   2.999   2.484 -1.5840  0.9065 -0.3573
  911SOL     OW 2731   2.707   1.033   2.874 -0.2255  0.1308 -0.6424
  911SOL    HW1 2732   2.622   0.979   2.866 -2.5464  1.6251  1.2843
  911SOL    HW2 2733   2.721   1.049   2.974 -0.1297 -0.0943  1.5027
  912SOL     OW 2734   0.015   2.413   1.561 -0.6025  1.1499  0.3346
  912SOL    HW1 2735   3.017   2.470   1.579  1.2562 -2.9284  3.2065
  912SOL    HW2 2736   0.051   2.374   1.647  2.4629 -0.9599  0.8532
  913SOL     OW 2737   2.766   1.919   2.468 -0.2976 -0.2727 -0.2943
  913SOL    HW1 2738   2.693   1.855   2.443 -0.9699  0.4869  1.3399
  913SOL    HW2 2739   2.794   1.902   2.564 -0.5622  2.3075  1.8894
  914SOL     OW 2740   2.245   1.571   0.792 -0.3693  0.5627  0.1512
  914SOL    HW1 2741   2.204   1.553   0.702 -1.0162 -0.3775  1.7810
  914SOL    HW2 2742   2.255   1.671   0.798  1.4371 -2.4412 -1.8040
  915SOL     OW 2743   0.345   2.878   2.031 -0.7029  0.0345  0.3030
  915SOL    HW1 2744   0.416   2.870   2.107  1.9015  1.0616  0.3882
  915SOL    HW2 2745   0.376   2.811   1.962  0.4978  0.2397  1.9405
  916SOL     OW 2746   0.573   2.417   0.992 -0.0624  0.1576  0.1289
  916SOL    HW1 2747   0.523   2.340   1.033  1.3851 -2.4344  0.2894
  916SOL    HW2 2748   0.561   2.491   1.053  2.2413 -2.7853 -0.8431
  917SOL     OW 2749   2.380   0.559   2.700  0.7522 -0.0049  0.0556
  917SOL    HW1 2750   2.316   0.618   2.751  0.5798 -1.8686  1.0291
  917SOL    HW2 2751   2.370   0.575   2.597 -0.8192 -0.2665 -3.6301
  918SOL     OW 2752   1.519   2.310   2.607  0.2468  0.1005 -0.2592
  918SOL    HW1 2753   1.592   2.376   2.635 -2.5968  1.2596 -0.2075
  918SOL    HW2 2754   1.536   2.251   2.529 -2.3716 -2.0626  1.0956
  919SOL     OW 2755   1.853   2.154   1.158 -0.5442  0.6785 -0.1232
  919SOL    HW1 2756   1.855   2.204   1.250 -0.6672 -1.9448  0.8838
  919SOL    HW2 2757   1.758   2.127   1.136 -1.0759 -1.5672 -2.0539
  920SOL     OW 2758   1.429   0.106   2.192 -0.4389  0.0819  0.1241
  920SOL    HW1 2759   1.466   0.130   2.286 -0.4820 -0.6312 -0.7717
  920SOL    HW2 2760   1.430   0.002   2.175 -1.5316 -3.2774 -0.8374
  921SOL     OW 2761   0.131   0.850   2.618 -0.2271  0.3457  0.3295
  921SOL    HW1 2762   0.219   0.821   2.569 -1.6036 -0.7651 -1.5248
  921SOL    HW2 2763   0.100   0.778   2.682  2.9162  0.2509  0.1003
  922SOL     OW 2764   2.825   2.039   1.425  0.5876 -0.3105 -0.0851
  922SOL    HW1 2765   2.838   1.941   1.444 -2.8303  2.3313  0.4112
  922SOL    HW2 2766   2.798   2.089   1.514  1.4297  0.5581  1.8980
  923SOL     OW 2767   0.179   1.336   2.322 -0.7911 -0.6930  0.1862
  923SOL    HW1 2768   0.088   1.360   2.291 -1.5804 -2.3912  0.7353
  923SOL    HW2 2769   0.226   1.407   2.379  1.6020 -0.3366  0.4050
  924SOL     OW 2770   1.513   0.278   1.996 -0.1646 -0.0940  0.3391
  924SOL    HW1 2771   1.536   0.230   1.906 -0.4221  2.0142 -0.5789
  924SOL    HW2 2772   1.476   0.215   2.071  1.9186  0.0167 -1.6729
  925SOL     OW 2773   0.209   1.260   0.711  0.1293 -0.0981  0.4028
  925SOL    HW1 2774   0.239   1.356   0.702  0.5581 -0.3836 -0.1396
  925SOL    HW2 2775   0.259   1.210   0.784 -0.4956  2.1012  0.5862
  926SOL     OW 2776   2.381   0.647   0.980  0.2805 -0.5614  0.1888
  926SOL    HW1 2777   2.458   0.625   0.923  2.1990 -0.8698  0.8474
  926SOL    HW2 2778   2.404   0.683   1.070  0.9442  1.2507 -2.2961
  927SOL     OW 2779   1.514   0.711   1.170  0.0423 -0.1629  0.1720
  927SOL    HW1 2780   1.509   0.720   1.066 -3.7872 -1.0833 -3.8823
  927SOL    HW2 2781   1.431   0.655   1.187 -0.3619  0.1919 -2.9342
  928SOL     OW 2782   2.885   0.594   2.306 -0.0882 -0.1298  0.2405
  928SOL    HW1 2783   2.918   0.686   2.333 -3.5793 -0.9141 -0.9080
  928SOL    HW2 2784   2.960   0.537   2.261  0.3826 -1.2155 -1.3267
  929SOL     OW 2785   2.187   0.941   1.014 -0.0998  0.3304 -0.1130
  929SOL    HW1 2786   2.241   0.912   0.932  0.8757 -0.9592 -2.0101
  929SOL    HW2 2787   2.126   1.025   0.997 -1.6234  0.8479 -0.9692
  930SOL     OW 2788   1.952   2.516   1.008 -0.2003 -0.5386 -0.1977
  930SOL    HW1 2789   1.941   2.435   0.943  0.5526 -2.7649 -0.4733
  930SOL    HW2 2790   1.864   2.546   1.055  0.3848 -0.0320  0.8182
  931SOL     OW 2791   1.855   1.243   1.134  0.0020 -0.0168  0.3608
  931SOL    HW1 2792   1.778   1.296   1.084 -0.0226  2.8683  0.4156
  931SOL    HW2 2793   1.932   1.215   1.080 -1.4223 -0.4675  1.1797
  932SOL     OW 2794   2.881   0.956   1.633  0.1009  0.6360 -0.2188
  932SOL    HW1 2795   2.829   0.909   1.558  0.9283 -1.9181 -2.1088
  932SOL    HW2 2796   2.958   0.896   1.660  0.8090  0.3837  1.6209
  933SOL     OW 2797   2.083   1.621   1.945 -0.3235  0.4170 -0.1366
  933SOL    HW1 2798   2.002   1.670   1.980 -2.0548 -0.4620 -0.6678
  933SOL    HW2 2799   2.141   1.678   1.879  0.8689 -0.3122  1.2840
  934SOL     OW 2800   1.719   2.981   1.778  0.5389  0.0778 -0.4180
  934SOL    HW1 2801   1.723   2.909   1.704 -0.5328 -1.5141  0.9670
  934SOL    HW2 2802   1.775   3.061   1.753 -0.6971 -1.2587 -0.8983
  935SOL     OW 2803   2.989   0.973   1.234 -0.4723  0.6877 -0.2001
  935SOL    HW1 2804   3.011   1.049   1.294  1.1142 -0.5960 -0.5955
  935SOL    HW2 2805   2.889   0.956   1.221 -1.0995 -1.4160  1.9752
  936SOL     OW 2806   2.804   0.697   1.410 -0.0745 -0.3216 -0.2568
  936SOL    HW1 2807   2.881   0.634   1.427  2.5306  1.4798 -0.0016
  936SOL    HW2 2808   2.792   0.722   1.314 -0.7878 -0.1161 -1.6357
  937SOL     OW 2809   0.716   0.052   1.365  0.0662  0.0405  0.5886
  937SOL    HW1 2810   0.670   0.143   1.382 -0.7883  3.1152 -1.0934
  937SOL    HW2 2811   0.716   3.074   1.450  1.3980  0.8367  0.3178
  938SOL     OW 2812   0.290   2.706   0.989  0.0143  0.2773 -0.5751
  938SOL    HW1 2813   0.259   2.608   0.974 -2.4269  1.0145 -2.0428
  938SOL    HW2 2814   0.263   2.766   0.906  0.2341  1.9623 -0.7319
  939SOL     OW 2815   2.741   2.251   2.656  0.4155 -0.7408 -0.0216
  939SOL    HW1 2816   2.813   2.240   2.582 -1.0421 -2.5683  1.7676
  939SOL    HW2 2817   2.707   2.348   2.662 -1.9697 -3.2738  1.2949
  940SOL     OW 2818   1.856   1.663   0.144 -0.5609  0.0492  0.4372
  940SOL    HW1 2819   1.954   1.692   0.125  2.7336  0.6018 -1.5542
  940SOL    HW2 2820   1.800   1.653   0.060  0.3531 -0.6962  0.9702
  941SOL     OW 2821   1.759   2.796   0.590  0.1394  0.0051  0.3875
  941SOL    HW1 2822   1.716   2.703   0.592 -0.1984  0.5528 -0.2076
  941SOL    HW2 2823   1.860   2.795   0.607 -1.0624 -2.3717 -0.7997
  942SOL     OW 2824   2.140   1.565   1.217  0.3821  0.4861 -0.1136
  942SOL    HW1 2825   2.193   1.524   1.133 -1.4522  0.6417 -0.3089
  942SOL    HW2 2826   2.143   1.507   1.299  0.0559  0.6297 -0.6802
  943SOL     OW 2827   1.949   0.690   1.668 -0.0180  0.4124  0.1904
  943SOL    HW1 2828   1.863   0.648   1.694 -1.4590  0.6927 -2.6562
  943SOL    HW2 2829   1.943   0.731   1.573 -0.5690 -0.0901 -0.5154
  944SOL     OW 2830   1.308   0.831   1.735 -0.1259 -0.0908 -0.0564
  944SOL    HW1 2831   1.239   0.910   1.754  0.1409  0.5139  3.3075
  944SOL    HW2 2832   1.301   0.804   1.639  0.8922  1.0900  2.6203
  945SOL     OW 2833   2.437   2.819   1.291 -0.2840 -0.0232 -0.1804
  945SOL    HW1 2834   2.403   2.849   1.198  3.2008 -0.8376 -0.2194
  945SOL    HW2 2835   2.419   2.895   1.355  0.6586 -0.3636 -2.1000
  946SOL     OW 2836   0.769   1.837   0.521 -0.1332 -0.5902 -0.1212
  946SOL    HW1 2837   0.723   1.779   0.450 -2.4359 -0.4115 -0.9852
  946SOL    HW2 2838   0.869   1.852   0.501  0.5006 -2.1855  0.0884
  947SOL     OW 2839   1.006   2.447   1.118  0.2365  0.0559 -0.0409
  947SOL    HW1 2840   1.089   2.464   1.060  1.1411 -0.0778 -0.2828
  947SOL    HW2 2841   0.930   2.436   1.051 -0.9841  0.6134 -0.4033
  948SOL     OW 2842   0.082   1.539   1.679 -0.0218 -0.1017 -0.1073
  948SOL    HW1 2843   0.034   1.498   1.755  3.5894  2.3582 -0.8129
  948SOL    HW2 2844   0.079   1.483   1.594  1.3526 -0.2748 -3.9884
  949SOL     OW 2845   0.545   1.071   1.752 -0.0546 -0.2293  0.7481
  949SOL    HW1 2846   0.565   1.017   1.837  1.8060  2.3852  1.7608
  949SOL    HW2 2847   0.624   1.130   1.740 -1.8430 -1.0681 -1.6181
  950SOL     OW 2848   0.392   0.681   1.332  0.7439  0.5487  0.0400
  950SOL    HW1 2849   0.479   0.713   1.377  0.5197 -1.3264  1.4805
  950SOL    HW2 2850   0.372   0.751   1.261 -0.3589  0.5130  0.8155
  951SOL     OW 2851   0.924   2.134   2.057  0.0957  0.0354 -0.2090
  951SOL    HW1 2852   0.999   2.061   2.079  2.2484  0.3317 -1.1150
  951SOL    HW2 2853   0.955   2.223   2.098 -2.2387 -1.7065 -0.2530
  952SOL     OW 2854   1.242   1.566   3.022  0.4831  0.6109 -0.0128
  952SOL    HW1 2855   1.308   1.595   0.015  0.6762  2.5678  1.7356
  952SOL    HW2 2856   1.202   1.472   3.026 -2.8068 -0.7503  0.3903
  953SOL     OW 2857   0.922   2.924   2.773 -0.6115  0.2711 -0.4040
  953SOL    HW1 2858   0.819   2.936   2.782 -3.1062  1.4002 -1.6521
  953SOL    HW2 2859   0.937   2.826   2.748  1.6583 -0.4063  0.1350
  954SOL     OW 2860   1.795   1.213   0.088  0.7660  0.6178 -0.2056
  954SOL    HW1 2861   1.728   1.203   0.163  0.0699  2.2712  1.9426
  954SOL    HW2 2862   1.852   1.289   0.105  2.4380 -1.2593 -4.0063
  955SOL     OW 2863   0.256   2.611   2.888 -0.0067 -0.1484  0.9521
  955SOL    HW1 2864   0.328   2.671   2.930  1.5850  3.7564 -0.0036
  955SOL    HW2 2865   0.176   2.672   2.866  1.0646 -1.2079  3.5111
  956SOL     OW 2866   1.288   0.853   1.450 -0.3368 -0.3134 -0.3649
  956SOL    HW1 2867   1.285   0.756   1.424  1.4110  2.1797 -1.3327
  956SOL    HW2 2868   1.205   0.908   1.430  0.5033  1.8995  0.2720
  957SOL     OW 2869   1.503   1.850   1.852 -0.2031 -0.0582 -0.6710
  957SOL    HW1 2870   1.571   1.928   1.861  1.0792  3.5256  0.1954
  957SOL    HW2 2871   1.430   1.866   1.920  2.7356  0.4279 -0.3447
  958SOL     OW 2872   1.256   2.142   1.515 -0.0852 -0.0873  0.0530
  958SOL    HW1 2873   1.326   2.200   1.563 -3.6917  0.1857  0.1206
  958SOL    HW2 2874   1.221   2.188   1.434 -0.6333 -1.5364 -1.5855
  959SOL     OW 2875   1.505   1.091   1.043  0.3848 -0.3123 -1.1313
  959SOL    HW1 2876   1.577   1.058   1.103  0.6816 -0.0444  0.9095
  959SOL    HW2 2877   1.427   1.030   1.064 -1.8343 -0.6738  1.6552
  960SOL     OW 2878   0.228   1.322   2.921 -0.2504 -0.1687  0.1876
  960SOL    HW1 2879   0.270   1.365   3.005  2.2277  0.5230 -0.8900
  960SOL    HW2 2880   0.265   1.229   2.904 -0.3447 -0.5223 -2.4202
  961SOL     OW 2881   0.686   1.458   1.945  0.1252 -0.7534 -0.2810
  961SOL    HW1 2882   0.633   1.519   2.005 -2.1065 -2.1492  1.3921
  961SOL    HW2 2883   0.781   1.500   1.940  2.6326  1.4625  2.7369
  962SOL     OW 2884   1.247   1.633   0.587 -0.4320 -0.0393 -0.2812
  962SOL    HW1 2885   1.248   1.732   0.592  2.1135 -0.6861 -3.0403
  962SOL    HW2 2886   1.150   1.597   0.577  0.0109 -1.9832 -0.1737
  963SOL     OW 2887   1.554   1.908   2.769  0.1726  0.3818  0.3229
  963SOL    HW1 2888   1.513   1.945   2.856  3.9936  1.6918  2.9113
  963SOL    HW2 2889   1.484   1.852   2.718  0.7284 -2.2003  1.3684
  964SOL     OW 2890   0.744   0.200   0.454  0.4262 -0.1372 -0.1366
  964SOL    HW1 2891   0.656   0.214   0.509 -0.2483 -0.2099  0.3246
  964SOL    HW2 2892   0.743   0.098   0.425 -1.6097 -1.6171 -1.7585
  965SOL     OW 2893   0.822   2.410   0.919  0.2382 -0.2132 -0.0595
  965SOL    HW1 2894   0.725   2.423   0.947  1.1302 -1.3269 -2.3320
  965SOL    HW2 2895   0.849   2.469   0.841 -0.9227  0.8590  2.5055
  966SOL     OW 2896   0.284   1.950   2.722  0.4957  0.4355  0.1209
  966SOL    HW1 2897   0.308   1.895   2.644 -1.9862  0.7511  2.5488
  966SOL    HW2 2898   0.184   1.957   2.736  1.2679 -0.1127  0.7488
  967SOL     OW 2899   0.206   3.024   2.495  0.5189  0.8445 -0.6556
  967SOL    HW1 2900   0.199   3.078   2.582  1.8844 -0.2986 -2.9994
  967SOL    HW2 2901   0.111   2.991   2.470  2.7503  0.6277  0.0104
  968SOL     OW 2902   2.035   0.551   0.154  0.7236  0.2386 -0.0905
  968SOL    HW1 2903   2.077   0.591   0.235  1.5251 -1.8930 -1.1484
  968SOL    HW2 2904   1.960   0.612   0.117  0.8107  2.3919 -0.0612
  969SOL     OW 2905   0.208   1.305   1.906  0.0725  0.4149 -0.2807
  969SOL    HW1 2906   0.172   1.222   1.957  0.8035 -0.5394  0.4608
  969SOL    HW2 2907   0.264   1.277   1.828  1.6199 -0.1443  1.6180
  970SOL     OW 2908   2.613   1.369   1.513  0.1616 -0.1750  0.4290
  970SOL    HW1 2909   2.696   1.375   1.572 -0.6749 -1.5354  0.2524
  970SOL    HW2 2910   2.573   1.279   1.535  2.6805  1.6588 -0.4612
  971SOL     OW 2911   1.984   0.158   1.047  0.0649 -0.1948  0.0445
  971SOL    HW1 2912   1.942   0.244   1.019  0.3083 -3.7902  2.6663
  971SOL    HW2 2913   1.964   0.086   0.979  2.2695  0.4102  1.9183
  972SOL     OW 2914   0.112   0.036   1.853 -1.2478  0.4377  0.3669
  972SOL    HW1 2915   0.072   3.043   1.907 -0.5264  2.6069  0.2327
  972SOL    HW2 2916   0.065   0.047   1.764  1.0445 -1.5588 -2.8194
  973SOL     OW 2917   0.064   0.544   0.061 -0.0027  0.3351 -0.9251
  973SOL    HW1 2918   0.042   0.614   0.134  0.4349 -0.6164  2.5882
  973SOL    HW2 2919   0.113   0.580   3.062 -2.5428 -0.3986  1.8061
  974SOL     OW 2920   1.803   1.404   2.210 -0.3326  0.0285 -0.1492
  974SOL    HW1 2921   1.903   1.422   2.208  0.8259 -0.1527 -0.3758
  974SOL    HW2 2922   1.768   1.401   2.115 -0.0545  0.0864  0.2615
  975SOL     OW 2923   3.052   3.025   1.573 -0.0556  0.4126 -0.0701
  975SOL    HW1 2924   3.065   3.069   1.482 -3.6681  1.5786  1.5768
  975SOL    HW2 2925   3.074   2.928   1.574 -0.9498  1.2246  0.4355
  976SOL     OW 2926   0.201   2.141   2.114  0.3561 -0.3633 -0.2958
  976SOL    HW1 2927   0.195   2.241   2.089 -0.1127  3.4378 -3.2349
  976SOL    HW2 2928   0.289   2.096   2.090 -0.4905  3.4675  1.3101
  977SOL     OW 2929   1.133   2.826   0.371  0.3865 -0.3922  0.5798
  977SOL    HW1 2930   1.042   2.777   0.362 -0.5142 -2.8606 -0.7258
  977SOL    HW2 2931   1.206   2.760   0.380 -3.1559  2.2497 -0.6555
  978SOL     OW 2932   0.371   1.856   2.374 -0.0955  0.0621  0.2755
  978SOL    HW1 2933   0.359   1.954   2.351  2.5669 -1.0535  0.3563
  978SOL    HW2 2934   0.292   1.805   2.333 -0.2668  0.4008  0.3646
  979SOL     OW 2935   1.596   2.492   1.573  0.3152 -0.4765 -0.0935
  979SOL    HW1 2936   1.592   2.542   1.661 -0.8919 -0.5230 -0.1609
  979SOL    HW2 2937   1.685   2.512   1.526  0.9767 -2.2514 -2.5194
  980SOL     OW 2938   0.478   1.584   2.678  0.1606  0.1995  0.7621
  980SOL    HW1 2939   0.508   1.488   2.704 -2.0754  0.7418  0.2551
  980SOL    HW2 2940   0.462   1.642   2.761  0.8579  2.5707  0.8279
  981SOL     OW 2941   2.413   0.016   2.333  0.5745 -0.6929  0.3284
  981SOL    HW1 2942   2.355   0.020   2.247 -1.1080  1.1735 -1.3455
  981SOL    HW2 2943   2.480   3.021   2.339  2.0319 -2.2591 -2.0754
  982SOL     OW 2944   2.984   0.435   2.940  0.2883 -0.2155  0.4826
  982SOL    HW1 2945   3.029   0.482   3.017  1.2303 -2.3785 -1.1033
  982SOL    HW2 2946   2.995   0.489   2.852 -2.0725 -0.5826 -0.3523
  983SOL     OW 2947   1.700   1.411   1.914  0.2129 -0.4039  0.1390
  983SOL    HW1 2948   1.750   1.443   1.833  0.3535 -3.7158  0.2027
  983SOL    HW2 2949   1.715   1.311   1.927  3.3808  0.0601 -0.2879
  984SOL     OW 2950   1.225   0.570   1.780  0.1423  0.3143 -0.1635
  984SOL    HW1 2951   1.232   0.529   1.872 -1.6657  1.1853  0.0843
  984SOL    HW2 2952   1.245   0.667   1.786  0.6517 -3.2174 -0.7944
  985SOL     OW 2953   1.573   1.451   1.627 -0.2276  0.0129 -0.1503
  985SOL    HW1 2954   1.559   1.545   1.660  1.9594  0.9889 -1.0647
  985SOL    HW2 2955   1.665   1.417   1.652 -2.4926 -1.4957  2.0609
  986SOL     OW 2956   1.776   0.359   1.736  0.7111  1.0216 -0.1144
  986SOL    HW1 2957   1.857   0.387   1.782  0.1664  0.2297 -2.3728
  986SOL    HW2 2958   1.709   0.430   1.757 -0.4763  0.1684  2.9017
  987SOL     OW 2959   2.065   0.517   1.426  0.1072  0.2147  0.1379
  987SOL    HW1 2960   2.028   0.424   1.416  2.4181  1.4494 -1.4051
  987SOL    HW2 2961   1.992   0.585   1.424  5.1837 -1.9581  2.0833
  988SOL     OW 2962   2.799   0.739   2.075 -0.1375 -0.0568 -0.1429
  988SOL    HW1 2963   2.699   0.746   2.075  1.9273  1.0478 -0.8027
  988SOL    HW2 2964   2.837   0.688   2.159  0.4847  0.0678  2.5835
  989SOL     OW 2965   2.248   1.929   2.761 -0.4282 -0.2069 -0.3532
  989SOL    HW1 2966   2.194   1.957   2.681 -2.5676  1.1203 -0.8203
  989SOL    HW2 2967   2.218   1.970   2.848  1.6756  1.1774 -0.0389
  990SOL     OW 2968   1.303   0.354   2.842 -0.2769  0.1573 -0.0806
  990SOL    HW1 2969   1.221   0.296   2.821 -0.7579  0.0052 -1.1532
  990SOL    HW2 2970   1.284   0.452   2.829  0.4407 -1.8450  2.0856
  991SOL     OW 2971   1.264   0.958   0.371  0.1242  0.6136 -0.2157
  991SOL    HW1 2972   1.282   0.967   0.468 -0.9993  0.0063  2.6056
  991SOL    HW2 2973   1.305   0.878   0.317  0.9485 -3.2270 -0.6124
  992SOL     OW 2974   2.487   1.846   2.643 -0.3702 -0.2435  0.2015
  992SOL    HW1 2975   2.522   1.776   2.713  1.5958  0.2306  3.1906
  992SOL    HW2 2976   2.400   1.881   2.677 -0.7827  0.5885 -1.5879
  993SOL     OW 2977   0.432   0.354   0.323  0.0914 -0.2945  0.0884
  993SOL    HW1 2978   0.440   0.252   0.344  1.7783 -2.0499 -0.0240
  993SOL    HW2 2979   0.423   0.406   0.415  0.5797  2.1043  1.1452
  994SOL     OW 2980   0.169   1.702   2.280  0.4465 -0.2235  0.1873
  994SOL    HW1 2981   0.068   1.694   2.295  0.2374 -2.0038  0.2792
  994SOL    HW2 2982   0.190   1.676   2.183  1.9673 -3.1449 -0.7872
  995SOL     OW 2983   1.910   1.347   2.771  0.4629 -0.5453  0.0199
  995SOL    HW1 2984   1.919   1.447   2.741 -1.3761  0.2927  0.5506
  995SOL    HW2 2985   1.927   1.274   2.700 -1.4224 -1.0389  0.3271
  996SOL     OW 2986   1.925   1.594   2.635 -0.2631 -0.5035 -0.4606
  996SOL    HW1 2987   1.869   1.562   2.559  0.4836  1.2409  0.8845
  996SOL    HW2 2988   1.870   1.654   2.692  0.3857  0.4513  0.9819
  997SOL     OW 2989   2.303   1.415   1.690 -0.2921  0.0027 -0.1057
  997SOL    HW1 2990   2.365   1.464   1.748 -2.4437 -0.1078 -2.3245
  997SOL    HW2 2991   2.227   1.371   1.745 -2.6057  2.8131 -1.9148
  998SOL     OW 2992   2.498   1.446   0.143 -0.1573 -0.4276 -0.1234
  998SOL    HW1 2993   2.466   1.347   0.154 -0.8819 -3.5331 -1.5786
  998SOL    HW2 2994   2.594   1.458   0.115  0.0209 -2.1257 -1.5070
  999SOL     OW 2995   2.725   2.476   0.394 -0.2098  0.2752  0.2786
  999SOL    HW1 2996   2.707   2.450   0.490  3.1062 -2.3314 -2.7901
  999SOL    HW2 2997   2.648   2.527   0.360  0.7378 -1.4663  0.4660
 1000SOL     OW 2998   0.616   3.038   1.794 -0.0841 -0.1034  0.5687
 1000SOL    HW1 2999   0.516   3.052   1.771 -2.5316 -0.4587  1.7854
 1000SOL    HW2 3000   0.622   2.989   1.883  1.0308 -0.6567  2.6723
   3.08233   3.08233   3.08233
