1000 SPC/Fw water molecules t= 368.00000 step= 368000
 3000
    1SOL     OW    1   2.552   2.752   1.627  0.1043  0.4383  0.1388
    1SOL    HW1    2   2.500   2.817   1.676  0.9667 -0.9171 -2.1393
    1SOL    HW2    3   2.578   2.793   1.533  0.1287  1.8479 -1.9152
    2SOL     OW    4   2.424   2.489   0.652 -0.1300  0.2187 -0.2561
    2SOL    HW1    5   2.512   2.517   0.609  1.1289 -0.5646 -0.9155
    2SOL    HW2    6   2.352   2.475   0.579 -2.0844  3.6485 -5.0714
    3SOL     OW    7   1.297   0.177   0.103  0.1192  0.3821 -0.0377
    3SOL    HW1    8   1.290   0.250   0.029  0.9172  1.3665 -0.7612
    3SOL    HW2    9   1.288   0.088   0.057 -2.0516  2.4359  0.5977
    4SOL     OW   10   1.282   2.747   2.184  0.1209 -0.6886 -0.1146
    4SOL    HW1   11   1.376   2.727   2.220  0.7525  0.8189  1.4984
    4SOL    HW2   12   1.247   2.657   2.148  1.5205 -1.0228  0.2685
    5SOL     OW   13   2.253   0.422   1.719 -0.1752  0.2009 -0.0312
    5SOL    HW1   14   2.304   0.421   1.806 -1.2158  2.3121 -0.4251
    5SOL    HW2   15   2.153   0.442   1.735  1.1589  0.6145  0.2500
    6SOL     OW   16   2.168   2.257   0.328 -0.0233 -0.2867 -0.2260
    6SOL    HW1   17   2.191   2.356   0.338 -0.7320  0.8179  2.2952
    6SOL    HW2   18   2.084   2.238   0.377 -0.1889 -0.8136  0.7421
    7SOL     OW   19   1.839   1.061   1.090  0.2408 -0.1212  0.2664
    7SOL    HW1   20   1.756   1.004   1.089  1.0051 -0.9227  1.2011
    7SOL    HW2   21   1.827   1.130   1.168  0.9791  1.9333  1.4851
    8SOL     OW   22   1.028   1.370   1.187 -0.1762 -0.2696 -0.5118
    8SOL    HW1   23   0.970   1.440   1.236 -0.5157  1.4355  2.7738
    8SOL    HW2   24   0.974   1.334   1.112 -0.5494 -1.4459 -2.5492
    9SOL     OW   25   0.918   2.442   1.873  0.6431 -0.2470 -0.4259
    9SOL    HW1   26   0.825   2.485   1.859  0.2811  0.5331 -1.6920
    9SOL    HW2   27   0.926   2.348   1.841 -2.5450  1.8437  2.1000
   10SOL     OW   28   1.029   2.246   0.786  0.1266 -0.3592  0.7738
   10SOL    HW1   29   1.128   2.251   0.768 -0.3444 -0.5408 -0.5473
   10SOL    HW2   30   0.985   2.257   0.695  0.3896 -1.7345 -1.1250
   11SOL     OW   31   1.597   1.836   1.374 -0.2715  0.0752  0.7579
   11SOL    HW1   32   1.537   1.904   1.421 -0.2656  1.1150  0.2151
   11SOL    HW2   33   1.654   1.885   1.305  2.4078 -0.6064 -0.0960
   12SOL     OW   34   2.596   0.418   2.260 -0.6678  0.1480  0.6742
   12SOL    HW1   35   2.540   0.344   2.217  1.0693  0.0443  0.8264
   12SOL    HW2   36   2.681   0.443   2.201  0.2042  0.7373  0.1484
   13SOL     OW   37   2.695   3.039   0.626 -0.7035 -0.5104  0.1281
   13SOL    HW1   38   2.709   3.049   0.726  3.2874 -0.8097  0.5868
   13SOL    HW2   39   2.770   2.980   0.594 -0.4790  1.7257  2.3071
   14SOL     OW   40   1.605   1.676   3.007  0.2119 -0.6322 -0.2840
   14SOL    HW1   41   1.686   1.708   3.057  0.7507 -3.7279 -1.5935
   14SOL    HW2   42   1.527   1.735   3.032  0.1037  0.0829 -2.3118
   15SOL     OW   43   2.359   2.591   1.511 -0.2212 -0.5439  0.1259
   15SOL    HW1   44   2.405   2.513   1.470  1.1150  2.3623  2.6679
   15SOL    HW2   45   2.420   2.641   1.580 -3.6496 -1.4774  0.4004
   16SOL     OW   46   2.330   2.860   0.755  0.4170 -0.0179  0.1113
   16SOL    HW1   47   2.382   2.935   0.797  1.3163  0.2529  1.1190
   16SOL    HW2   48   2.380   2.823   0.672 -0.2492  0.7020 -0.6358
   17SOL     OW   49   0.775   0.225   1.364 -0.6392  0.1006 -0.1720
   17SOL    HW1   50   0.687   0.176   1.379  1.2261  0.6331  0.0772
   17SOL    HW2   51   0.791   0.261   1.270 -0.7500 -0.7910  0.6623
   18SOL     OW   52   2.051   0.378   0.435 -0.4774  0.1399  0.2034
   18SOL    HW1   53   2.044   0.292   0.491  3.4887 -0.5427 -1.2730
   18SOL    HW2   54   2.095   0.361   0.346 -2.6067 -1.1927  0.9240
   19SOL     OW   55   2.096   1.657   0.300  0.1883  0.1162 -0.0161
   19SOL    HW1   56   2.125   1.630   0.209 -0.4951  2.5824 -1.6547
   19SOL    HW2   57   1.991   1.660   0.305  0.0688  0.5446  1.6238
   20SOL     OW   58   2.336   1.708   2.374  0.7956  0.0925 -0.2653
   20SOL    HW1   59   2.351   1.757   2.289  1.0943 -3.3295  3.6673
   20SOL    HW2   60   2.350   1.606   2.365 -2.1628 -0.8333 -0.9123
   21SOL     OW   61   1.423   0.352   0.530 -0.1533 -0.1808  0.3870
   21SOL    HW1   62   1.408   0.361   0.630  0.3146 -1.8365 -0.2440
   21SOL    HW2   63   1.363   0.414   0.474 -1.3274  0.6309 -0.2465
   22SOL     OW   64   2.740   0.539   1.596 -0.3158 -0.8797 -0.5066
   22SOL    HW1   65   2.770   0.633   1.566  0.3104  2.4128  0.0684
   22SOL    HW2   66   2.667   0.549   1.672  1.9579 -3.6164  2.3219
   23SOL     OW   67   0.323   0.367   1.962 -0.3432  0.0245 -0.4043
   23SOL    HW1   68   0.300   0.299   1.888 -1.6442 -1.1159  0.5096
   23SOL    HW2   69   0.254   0.445   1.978 -1.0226  0.5853 -0.9465
   24SOL     OW   70   2.433   2.683   0.319 -0.1518 -0.0174  0.0124
   24SOL    HW1   71   2.513   2.662   0.255  3.7861 -1.6552 -2.2883
   24SOL    HW2   72   2.448   2.736   0.408 -0.4692  2.8523  1.1270
   25SOL     OW   73   0.910   2.815   2.647  0.1083 -0.6124  0.2314
   25SOL    HW1   74   0.976   2.782   2.578 -1.1914  0.1978 -0.9291
   25SOL    HW2   75   0.960   2.859   2.724 -1.0160 -1.1152 -0.0596
   26SOL     OW   76   1.369   2.660   0.193 -0.1303  0.3165 -0.4705
   26SOL    HW1   77   1.280   2.608   0.201  0.9919 -2.4200  2.2336
   26SOL    HW2   78   1.400   2.685   0.289  0.5834 -0.5565  1.4399
   27SOL     OW   79   2.108   0.697   0.856 -0.1215  0.0698  0.6166
   27SOL    HW1   80   2.080   0.780   0.909 -0.0238 -0.7717  3.6028
   27SOL    HW2   81   2.202   0.668   0.882 -0.4114  0.7863  0.7545
   28SOL     OW   82   1.132   1.393   0.839 -0.0824  0.5875  0.3995
   28SOL    HW1   83   1.054   1.385   0.771 -0.8495  1.0954 -0.4274
   28SOL    HW2   84   1.196   1.314   0.835  1.3040 -0.2002  2.7772
   29SOL     OW   85   3.072   0.015   1.965 -0.6403 -0.7154  0.2859
   29SOL    HW1   86   3.086   0.115   1.954 -1.3813  1.5855  0.9117
   29SOL    HW2   87   3.003   3.080   1.894  1.3161 -0.9888 -0.9020
   30SOL     OW   88   1.211   0.098   1.289 -0.3982  0.8502 -0.2853
   30SOL    HW1   89   1.171   0.006   1.265 -0.0990  0.8625  2.8484
   30SOL    HW2   90   1.187   0.124   1.382  0.9531 -0.9706 -1.4265
   31SOL     OW   91   1.780   2.727   2.062 -0.2900 -0.6578  0.3844
   31SOL    HW1   92   1.737   2.819   2.080 -3.1253  2.6272  2.1947
   31SOL    HW2   93   1.878   2.732   2.075  1.6027 -0.9319 -3.3962
   32SOL     OW   94   0.901   1.455   0.009 -0.3877 -0.4322  0.1048
   32SOL    HW1   95   1.001   1.463   0.000 -2.7665 -0.9887  1.0258
   32SOL    HW2   96   0.873   1.463   0.108  1.2490 -0.5283  2.0129
   33SOL     OW   97   0.070   1.105   2.347 -0.5902  0.2192 -0.2494
   33SOL    HW1   98   3.090   1.063   2.402  1.9950 -1.5209  0.4577
   33SOL    HW2   99   0.131   1.028   2.306 -0.2121 -1.5713 -1.6377
   34SOL     OW  100   2.303   0.005   0.523  0.7654 -0.3892  0.0447
   34SOL    HW1  101   2.284   0.058   0.607  1.5511  0.5225  0.4056
   34SOL    HW2  102   2.297   3.007   0.549 -0.7087  0.4018 -0.9649
   35SOL     OW  103   2.625   2.326   1.758 -0.1512  0.2494  0.2885
   35SOL    HW1  104   2.674   2.271   1.830  2.5771 -0.6673  3.2545
   35SOL    HW2  105   2.647   2.424   1.775  0.5220  0.4413 -0.6495
   36SOL     OW  106   2.419   2.215   3.039 -0.1391  0.7683  0.4459
   36SOL    HW1  107   2.389   2.293   2.981 -1.1462  1.6441  1.2586
   36SOL    HW2  108   2.500   2.167   2.998 -1.1670 -1.8921  2.1716
   37SOL     OW  109   1.982   0.384   1.811  1.1796  0.0787  0.4366
   37SOL    HW1  110   1.917   0.339   1.743 -4.9695 -0.2362  2.2878
   37SOL    HW2  111   1.938   0.461   1.855 -2.1123 -1.9439 -2.1727
   38SOL     OW  112   2.996   0.381   2.743  0.1103 -0.1192  0.6088
   38SOL    HW1  113   2.920   0.445   2.725 -3.0562  0.8645 -2.0540
   38SOL    HW2  114   2.967   0.289   2.777  0.6197 -1.0328 -0.9309
   39SOL     OW  115   1.879   1.193   1.839  0.3746  0.6312 -0.0779
   39SOL    HW1  116   1.900   1.159   1.934 -0.7592  1.9299  0.7259
   39SOL    HW2  117   1.880   1.294   1.841  0.0824 -0.8861  0.3232
   40SOL     OW  118   1.237   2.119   0.627 -0.3036  0.0438 -0.1788
   40SOL    HW1  119   1.239   2.053   0.705  0.9222 -1.6728 -0.0743
   40SOL    HW2  120   1.142   2.120   0.594  1.9263 -0.3641  0.2949
   41SOL     OW  121   1.860   1.802   0.999 -0.6332 -0.4087  0.1810
   41SOL    HW1  122   1.931   1.858   0.951 -1.5582  1.0746  1.5440
   41SOL    HW2  123   1.828   1.727   0.941 -1.4638  0.3869  1.5062
   42SOL     OW  124   0.320   0.402   1.222  0.2593 -0.0361 -0.1892
   42SOL    HW1  125   0.243   0.446   1.275  1.5515  0.2247 -0.4012
   42SOL    HW2  126   0.408   0.400   1.273  1.1271 -0.2532  1.3428
   43SOL     OW  127   0.059   1.644   2.539 -0.0702 -0.5510  0.2675
   43SOL    HW1  128   3.079   1.666   2.602  0.4266 -2.2535 -0.5639
   43SOL    HW2  129   0.149   1.644   2.586  0.6177  0.2853 -0.4786
   44SOL     OW  130   2.026   2.892   1.441  0.7210 -0.3672 -0.3428
   44SOL    HW1  131   2.075   2.819   1.385  0.5498 -1.7254  2.1440
   44SOL    HW2  132   1.967   2.845   1.511  0.2500 -1.4530 -1.1714
   45SOL     OW  133   1.118   0.012   2.587  0.3293 -0.8966 -0.1651
   45SOL    HW1  134   1.164   3.057   2.662 -2.1293 -1.4958 -1.5420
   45SOL    HW2  135   1.098   3.056   2.504  0.4579  0.6243  0.6923
   46SOL     OW  136   0.743   2.569   2.416  0.1816  0.3420  0.3904
   46SOL    HW1  137   0.665   2.535   2.352 -0.1084  0.8903 -3.8728
   46SOL    HW2  138   0.714   2.579   2.511  1.1950  1.9787 -0.3430
   47SOL     OW  139   0.786   2.306   0.898  0.6888 -0.1714  0.3598
   47SOL    HW1  140   0.883   2.283   0.880 -0.4613 -0.1919  2.0652
   47SOL    HW2  141   0.782   2.403   0.931  4.2305  0.8848  0.4910
   48SOL     OW  142   1.199   2.569   1.114 -0.1743 -0.0833 -0.2178
   48SOL    HW1  143   1.230   2.471   1.125  2.1445 -1.9815 -2.0241
   48SOL    HW2  144   1.200   2.622   1.199  2.3367 -1.0272 -2.6075
   49SOL     OW  145   2.203   0.227   3.081  0.9446 -0.0821  0.0958
   49SOL    HW1  146   2.213   0.132   0.026  2.1321  0.3445  2.2665
   49SOL    HW2  147   2.293   0.263   3.051 -1.6621  3.2992 -0.2337
   50SOL     OW  148   1.716   0.280   0.261  0.0400 -0.2463 -0.1878
   50SOL    HW1  149   1.811   0.254   0.236 -3.0834  2.0011  1.5656
   50SOL    HW2  150   1.655   0.271   0.181 -0.3465 -1.9609 -1.4949
   51SOL     OW  151   2.300   0.743   1.195  0.4571  0.1339 -0.6603
   51SOL    HW1  152   2.237   0.823   1.195  0.9583  0.5948 -3.2331
   51SOL    HW2  153   2.279   0.682   1.279 -1.0238 -1.5313  3.8150
   52SOL     OW  154   0.475   1.543   0.221 -0.3051 -0.0959 -0.1446
   52SOL    HW1  155   0.504   1.618   0.154  0.6176 -0.8580 -2.1648
   52SOL    HW2  156   0.395   1.579   0.267  0.2906  0.6340 -1.8290
   53SOL     OW  157   0.292   1.538   2.668  0.4022  0.2905 -0.3706
   53SOL    HW1  158   0.217   1.472   2.649 -0.2365  0.8620 -0.4334
   53SOL    HW2  159   0.368   1.495   2.719  0.8548  4.2836 -0.9077
   54SOL     OW  160   2.757   1.212   1.827  0.2010  0.4472 -0.0882
   54SOL    HW1  161   2.727   1.136   1.886  0.9397  0.4872  2.0315
   54SOL    HW2  162   2.836   1.264   1.866 -2.1504  1.2843  0.9346
   55SOL     OW  163   2.464   1.900   0.326 -0.9497  0.1294  0.9253
   55SOL    HW1  164   2.557   1.925   0.287  0.9419  1.5384  0.4063
   55SOL    HW2  165   2.471   1.826   0.392 -2.0686  0.9012  1.3319
   56SOL     OW  166   1.736   0.084   1.422  0.4890  0.1457 -0.0717
   56SOL    HW1  167   1.639   0.091   1.407 -1.1477  0.6226 -0.0297
   56SOL    HW2  168   1.766   3.086   1.421  0.6118  0.8903 -0.0488
   57SOL     OW  169   1.610   1.219   2.892  1.1107  0.0630  0.0837
   57SOL    HW1  170   1.681   1.144   2.897 -0.9626 -2.1838 -0.5518
   57SOL    HW2  171   1.561   1.224   2.804  0.8744 -0.0423 -0.2148
   58SOL     OW  172   0.119   0.511   1.365  0.1365 -0.0949 -0.1003
   58SOL    HW1  173   0.099   0.489   1.463 -0.2942  1.9195  0.0606
   58SOL    HW2  174   0.069   0.451   1.299  1.2598  0.0949  1.3691
   59SOL     OW  175   1.145   2.855   0.070 -0.2851  0.2295 -0.1658
   59SOL    HW1  176   1.202   2.779   0.033 -1.4100 -3.3168 -1.2583
   59SOL    HW2  177   1.064   2.872   0.007 -1.4482  0.6397 -0.2347
   60SOL     OW  178   3.087   2.180   2.928 -0.3062 -0.0385  0.1037
   60SOL    HW1  179   0.071   2.146   2.977  1.5573 -0.6689 -3.1292
   60SOL    HW2  180   0.021   2.209   2.830 -0.3776 -0.4007  0.9675
   61SOL     OW  181   0.578   2.575   1.033 -0.0663 -0.1903 -0.2162
   61SOL    HW1  182   0.678   2.560   1.041 -1.5886  2.8400  0.1934
   61SOL    HW2  183   0.562   2.666   0.996  0.5651 -1.2539  2.0989
   62SOL     OW  184   1.628   1.834   2.779 -0.3328  0.2877 -0.2827
   62SOL    HW1  185   1.610   1.768   2.857 -0.7873 -2.1802  1.7546
   62SOL    HW2  186   1.686   1.914   2.809 -0.5047  3.5489 -2.2915
   63SOL     OW  187   1.849   1.974   0.249 -0.2928  0.2365 -0.6789
   63SOL    HW1  188   1.765   2.033   0.236 -1.4765  0.2773  1.2322
   63SOL    HW2  189   1.883   1.940   0.163  1.0036  0.4945 -0.0580
   64SOL     OW  190   2.108   1.022   0.245 -0.1680 -0.8390 -0.2852
   64SOL    HW1  191   2.124   1.030   0.142 -2.4015 -0.1183 -5.5878
   64SOL    HW2  192   2.198   1.017   0.293 -2.5456  0.0567  2.4728
   65SOL     OW  193   1.996   1.799   2.143 -0.2245 -0.1225 -0.1704
   65SOL    HW1  194   1.972   1.828   2.235  1.4311  4.3637  1.7325
   65SOL    HW2  195   2.098   1.808   2.125 -1.9072  0.8013  0.7470
   66SOL     OW  196   0.394   1.060   1.373  0.4854 -0.1861 -0.7196
   66SOL    HW1  197   0.379   1.139   1.437  0.2759 -1.7652  0.2468
   66SOL    HW2  198   0.450   1.084   1.290 -0.5910 -2.5672 -1.0226
   67SOL     OW  199   2.106   0.023   2.851 -0.1034  0.2828 -0.0699
   67SOL    HW1  200   2.079   0.107   2.795 -1.1940 -0.5055 -0.9052
   67SOL    HW2  201   2.201   0.016   2.863 -4.1911 -1.1666  0.3324
   68SOL     OW  202   1.412   1.991   1.481 -0.0538  0.7727 -0.7606
   68SOL    HW1  203   1.342   2.005   1.409 -1.6323  0.4980  0.0603
   68SOL    HW2  204   1.429   2.081   1.534  0.7593  3.7027  0.7439
   69SOL     OW  205   0.176   3.009   0.400  0.4629  0.2138 -0.0181
   69SOL    HW1  206   0.186   2.969   0.307 -0.8506 -0.0423  0.2566
   69SOL    HW2  207   0.103   2.969   0.456 -2.0323 -0.2742  1.2607
   70SOL     OW  208   0.306   0.713   2.149  0.4729  0.2913  0.3262
   70SOL    HW1  209   0.226   0.666   2.102  0.5600 -1.0355 -4.0684
   70SOL    HW2  210   0.358   0.762   2.075 -2.1562  0.0823  0.1342
   71SOL     OW  211   0.958   1.081   2.555 -0.0072  0.3229  0.4232
   71SOL    HW1  212   1.038   1.062   2.614  1.1297 -0.0365 -0.1172
   71SOL    HW2  213   0.952   1.021   2.472 -0.2059 -1.0536 -0.9909
   72SOL     OW  214   2.946   1.736   1.958  0.0338  0.2702 -0.0090
   72SOL    HW1  215   2.875   1.780   1.899 -0.7459 -2.0606  1.0261
   72SOL    HW2  216   3.037   1.763   1.924  2.1806  1.7256  0.8405
   73SOL     OW  217   1.442   1.721   0.237 -0.0132  0.0373  0.5219
   73SOL    HW1  218   1.432   1.801   0.175  2.8214  0.4138  0.5526
   73SOL    HW2  219   1.358   1.692   0.283  2.0805 -0.9299  0.7394
   74SOL     OW  220   2.378   3.063   2.784  0.1790  0.3625  0.1660
   74SOL    HW1  221   2.453   0.032   2.799  0.9441  2.0930 -0.5227
   74SOL    HW2  222   2.362   3.039   2.686 -1.6658 -0.5938  1.3953
   75SOL     OW  223   1.778   2.001   1.208 -0.8121  0.7400  0.0503
   75SOL    HW1  224   1.754   2.078   1.146  1.5746 -0.7617  2.3528
   75SOL    HW2  225   1.789   1.912   1.153 -1.6266 -2.1001 -1.2328
   76SOL     OW  226   2.920   2.020   1.605  0.2623 -0.2168  0.3634
   76SOL    HW1  227   2.850   1.993   1.537  1.2459  0.3774  2.5213
   76SOL    HW2  228   3.005   1.977   1.581 -1.3568 -1.6242  0.1213
   77SOL     OW  229   0.412   2.845   1.814  0.1203  0.4522 -0.5836
   77SOL    HW1  230   0.488   2.886   1.751  0.9509  0.8585  1.2284
   77SOL    HW2  231   0.341   2.915   1.841  2.7645 -0.5881  3.5555
   78SOL     OW  232   2.404   1.057   0.321  0.1834  0.1492 -0.3005
   78SOL    HW1  233   2.388   1.106   0.232 -0.2181 -2.9907  1.2750
   78SOL    HW2  234   2.494   1.076   0.365  2.9443 -2.3377 -0.1115
   79SOL     OW  235   2.919   1.534   2.432  0.0502  0.3626  0.1919
   79SOL    HW1  236   2.917   1.436   2.454  1.4562  0.6780 -0.9043
   79SOL    HW2  237   3.010   1.570   2.446 -1.7072  0.4932  1.2901
   80SOL     OW  238   1.806   1.416   1.614 -0.3546  0.3929 -0.5856
   80SOL    HW1  239   1.737   1.413   1.688 -1.6905  0.0528  0.6171
   80SOL    HW2  240   1.820   1.508   1.573  0.0852  0.0605  0.0921
   81SOL     OW  241   2.210   1.163   2.128 -0.1715  0.1080  1.1567
   81SOL    HW1  242   2.113   1.127   2.120  0.6021  1.6060  2.0661
   81SOL    HW2  243   2.233   1.229   2.055 -3.1710 -0.6573 -0.3667
   82SOL     OW  244   1.619   1.493   1.856  0.4403 -0.0675  0.4825
   82SOL    HW1  245   1.580   1.579   1.896  1.4958 -0.9713  0.0412
   82SOL    HW2  246   1.541   1.423   1.844  0.7468 -2.4517  1.8556
   83SOL     OW  247   0.347   0.645   0.221  0.3610 -0.0257 -0.6233
   83SOL    HW1  248   0.382   0.701   0.303  2.2895 -0.1085  2.4644
   83SOL    HW2  249   0.314   0.555   0.253  1.0652 -0.1774 -1.8482
   84SOL     OW  250   0.062   0.643   0.084 -0.6213 -0.3341  0.4965
   84SOL    HW1  251   3.059   0.624   0.109 -0.5167 -2.4396 -1.1021
   84SOL    HW2  252   0.096   0.738   0.095  0.5954 -1.8955  0.5747
   85SOL     OW  253   2.376   2.395   1.143  0.0993  0.0098  0.3736
   85SOL    HW1  254   2.363   2.316   1.080 -0.8530  0.7717  0.5675
   85SOL    HW2  255   2.472   2.402   1.166 -0.8305 -1.5898 -1.1121
   86SOL     OW  256   0.554   2.948   1.439 -0.3827 -0.0458  0.1588
   86SOL    HW1  257   0.613   2.926   1.363 -0.9029 -0.3600 -0.9875
   86SOL    HW2  258   0.510   3.034   1.417  1.7661 -1.5821  0.7005
   87SOL     OW  259   0.451   2.441   1.907 -0.0641  0.4247 -0.8099
   87SOL    HW1  260   0.529   2.499   1.894 -0.8462 -0.6538  2.0070
   87SOL    HW2  261   0.473   2.342   1.892 -0.6235  1.7930 -0.5684
   88SOL     OW  262   0.232   2.068   3.012  0.5805  0.2736  0.5907
   88SOL    HW1  263   0.252   1.996   3.084 -0.2975  1.1330  1.2350
   88SOL    HW2  264   0.284   2.053   2.924 -1.3543 -2.0550 -0.0874
   89SOL     OW  265   0.944   0.955   0.603 -0.3863  0.4900 -0.3648
   89SOL    HW1  266   0.874   1.025   0.599  3.3402 -0.1966  2.0518
   89SOL    HW2  267   0.952   0.916   0.510  0.9517  1.4653  2.0616
   90SOL     OW  268   0.238   1.558   2.156  0.3824 -0.3767  0.0146
   90SOL    HW1  269   0.201   1.526   2.066  1.3355 -1.9972 -2.8130
   90SOL    HW2  270   0.182   1.623   2.213 -2.2594  5.0148  2.6350
   91SOL     OW  271   1.665   0.883   0.766  0.6684 -0.5761 -1.0853
   91SOL    HW1  272   1.615   0.917   0.686 -0.5814 -0.8116  1.0721
   91SOL    HW2  273   1.602   0.867   0.843  0.2950 -2.0614  0.7562
   92SOL     OW  274   2.246   1.179   0.947 -0.1737  0.0358 -0.2777
   92SOL    HW1  275   2.191   1.261   0.949  2.8392 -0.7939 -0.1340
   92SOL    HW2  276   2.251   1.136   0.855  1.4817  0.2832 -2.5348
   93SOL     OW  277   2.896   1.287   2.632 -0.4219  0.0135  0.6989
   93SOL    HW1  278   2.888   1.384   2.663  0.9579  2.4748  2.9209
   93SOL    HW2  279   2.830   1.225   2.680  0.2440 -2.6955 -1.3151
   94SOL     OW  280   2.077   2.118   2.797  0.2913 -0.4588  0.2496
   94SOL    HW1  281   2.093   2.217   2.805 -0.6224 -0.6080 -0.2265
   94SOL    HW2  282   2.151   2.060   2.837  1.2337 -1.1920 -2.7307
   95SOL     OW  283   0.101   0.128   1.209  0.6690  0.5847  0.1874
   95SOL    HW1  284   0.140   0.075   1.133 -1.2828  2.2301  0.8843
   95SOL    HW2  285   0.061   0.219   1.181  0.3793 -1.2101  2.9955
   96SOL     OW  286   3.037   2.536   1.357  0.3296  0.3907 -0.1396
   96SOL    HW1  287   2.946   2.580   1.367  0.6654  0.5111 -1.2915
   96SOL    HW2  288   3.089   2.543   1.440 -2.5256 -1.7925 -0.9908
   97SOL     OW  289   2.665   0.911   1.707  0.2153 -0.3768 -0.8138
   97SOL    HW1  290   2.712   0.893   1.797 -0.8047 -1.7648  1.4126
   97SOL    HW2  291   2.574   0.945   1.730  0.3975 -1.5823 -0.6788
   98SOL     OW  292   1.760   2.391   1.816 -0.3681  0.0230 -0.2061
   98SOL    HW1  293   1.683   2.346   1.865  3.3892 -2.5237  2.2535
   98SOL    HW2  294   1.721   2.456   1.745 -2.1408  0.2943  0.7383
   99SOL     OW  295   0.318   2.774   1.497 -0.1155  0.0739 -0.0634
   99SOL    HW1  296   0.342   2.681   1.536  1.5402 -3.1413 -0.3691
   99SOL    HW2  297   0.405   2.821   1.470  2.0947  0.6645  1.2016
  100SOL     OW  298   1.708   0.473   2.628  0.4197 -0.0691 -0.4403
  100SOL    HW1  299   1.758   0.565   2.645 -0.4827 -0.4339 -0.1519
  100SOL    HW2  300   1.780   0.400   2.623 -0.4981 -1.3063 -2.2111
  101SOL     OW  301   2.682   0.324   2.668  0.4753 -0.0973  0.1920
  101SOL    HW1  302   2.664   0.269   2.585 -0.7424  1.4005  1.3131
  101SOL    HW2  303   2.686   0.421   2.636  2.2032  0.0598  0.7489
  102SOL     OW  304   0.364   0.792   1.474 -0.3301  0.2257 -0.2414
  102SOL    HW1  305   0.281   0.748   1.433 -2.4959 -0.1324  0.0847
  102SOL    HW2  306   0.367   0.878   1.426  0.2015 -0.8645  0.8457
  103SOL     OW  307   0.979   0.673   2.572 -0.0188 -0.0336 -0.4799
  103SOL    HW1  308   0.949   0.580   2.593  0.0514  1.2829 -3.1189
  103SOL    HW2  309   1.027   0.715   2.653  0.9490  0.9218 -0.2086
  104SOL     OW  310   0.262   0.921   2.327  0.1746 -0.4774 -0.4293
  104SOL    HW1  311   0.233   0.891   2.416  0.0701  1.5541  1.5451
  104SOL    HW2  312   0.287   0.838   2.272 -2.6337 -2.1652  0.7227
  105SOL     OW  313   2.289   1.851   1.496  0.4726  0.6459 -0.3355
  105SOL    HW1  314   2.305   1.926   1.434  1.0088 -0.7959  2.5020
  105SOL    HW2  315   2.220   1.783   1.459 -1.3949  0.5268 -0.1047
  106SOL     OW  316   1.661   3.065   0.612 -0.3078  0.4146  0.4796
  106SOL    HW1  317   1.667   0.061   0.568 -0.6159 -0.7687  0.4993
  106SOL    HW2  318   1.578   3.026   0.566  0.4406  0.5158 -0.1625
  107SOL     OW  319   1.903   2.432   1.075  0.4526  0.1067 -0.5230
  107SOL    HW1  320   1.838   2.479   1.136  0.5190 -1.9220  1.3689
  107SOL    HW2  321   1.993   2.415   1.114  0.9715  0.7331 -0.3010
  108SOL     OW  322   2.917   2.352   1.146  0.0625 -0.0484 -0.1077
  108SOL    HW1  323   2.937   2.419   1.075 -1.7896 -2.4816  1.7324
  108SOL    HW2  324   2.958   2.380   1.231 -0.1730 -0.8405 -2.3838
  109SOL     OW  325   2.101   2.273   0.871  0.2676 -0.3424  0.2352
  109SOL    HW1  326   2.201   2.274   0.862 -1.2626  0.8689 -1.4724
  109SOL    HW2  327   2.057   2.364   0.865 -0.2738 -0.6747  0.1584
  110SOL     OW  328   1.288   1.821   1.980 -0.3959  0.1595  0.2519
  110SOL    HW1  329   1.291   1.724   2.001 -1.9519  2.8634  1.8380
  110SOL    HW2  330   1.319   1.835   1.882  2.2599 -0.4953  0.0730
  111SOL     OW  331   1.664   2.244   2.113 -0.5881 -0.0222  0.7887
  111SOL    HW1  332   1.585   2.244   2.051  3.4013  0.0924  2.6656
  111SOL    HW2  333   1.745   2.295   2.078 -1.0348 -0.6465  3.5666
  112SOL     OW  334   1.420   1.911   2.642 -0.1033 -0.3541  0.1590
  112SOL    HW1  335   1.333   1.854   2.643  0.2644  0.3189  1.5724
  112SOL    HW2  336   1.489   1.873   2.707  1.5643 -3.4283 -0.6657
  113SOL     OW  337   1.777   1.958   1.743  0.2583  0.1365 -0.0675
  113SOL    HW1  338   1.859   1.993   1.692  0.5491 -1.5100  0.5379
  113SOL    HW2  339   1.799   1.917   1.830  0.9573  2.5071 -1.5234
  114SOL     OW  340   2.981   1.154   1.555 -0.2979  0.4991 -0.2548
  114SOL    HW1  341   3.016   1.108   1.468  2.2652  0.3872 -0.3301
  114SOL    HW2  342   2.881   1.141   1.561 -1.7395  0.0877 -0.9294
  115SOL     OW  343   0.640   0.613   0.171 -0.1171  0.5933 -0.3973
  115SOL    HW1  344   0.715   0.591   0.106 -1.7256 -2.0353 -0.7082
  115SOL    HW2  345   0.549   0.585   0.134 -2.2283  2.2041 -1.0050
  116SOL     OW  346   2.698   2.128   2.245  0.2613  0.0053  0.0937
  116SOL    HW1  347   2.679   2.152   2.148 -0.5421  0.4691 -0.1421
  116SOL    HW2  348   2.613   2.099   2.287 -0.5114 -1.2057 -0.2740
  117SOL     OW  349   3.060   2.498   0.509 -0.0705 -0.2226  0.2044
  117SOL    HW1  350   0.035   2.541   0.448  0.3335  1.4841 -1.5158
  117SOL    HW2  351   3.095   2.469   0.599 -1.8002 -1.6243  0.1621
  118SOL     OW  352   0.747   1.956   2.740  0.3825  0.5403  0.6236
  118SOL    HW1  353   0.707   1.965   2.837 -0.6468  2.5256 -0.8579
  118SOL    HW2  354   0.670   1.962   2.672 -0.2445  2.4271 -1.1311
  119SOL     OW  355   0.550   1.973   0.594 -0.3055  0.2547  0.6288
  119SOL    HW1  356   0.547   2.013   0.688  1.3979 -0.2238  1.5964
  119SOL    HW2  357   0.544   2.043   0.518 -2.2112 -0.7181 -2.3970
  120SOL     OW  358   1.294   0.821   0.220 -0.5504  0.2194 -0.1252
  120SOL    HW1  359   1.309   0.791   0.317 -0.3300  0.6835  1.6408
  120SOL    HW2  360   1.253   0.743   0.171 -0.9821  1.2174  2.0205
  121SOL     OW  361   1.373   2.366   0.761  0.2444 -0.0045  0.2641
  121SOL    HW1  362   1.366   2.359   0.863  1.8028 -1.6379  1.2434
  121SOL    HW2  363   1.404   2.279   0.720 -0.0130  3.1429  1.2931
  122SOL     OW  364   3.044   2.301   1.762  0.5774  0.0475 -0.1515
  122SOL    HW1  365   3.012   2.216   1.811 -3.3979  0.7074 -0.9554
  122SOL    HW2  366   3.008   2.300   1.670  1.9110  2.2185  1.1061
  123SOL     OW  367   0.832   1.655   0.783 -0.1125  0.2252 -0.4780
  123SOL    HW1  368   0.867   1.717   0.856 -0.8736  3.1866  1.3645
  123SOL    HW2  369   0.736   1.629   0.807  0.9241 -1.4057 -0.1867
  124SOL     OW  370   2.987   0.830   0.368  0.2028  0.1204 -0.5488
  124SOL    HW1  371   2.982   0.750   0.305  1.3352 -0.4356 -2.4816
  124SOL    HW2  372   3.030   0.911   0.327 -1.1532  0.4481  0.0004
  125SOL     OW  373   0.016   0.615   2.918  0.2246 -0.7684  0.2422
  125SOL    HW1  374   0.033   0.613   3.019  3.3090 -2.2818 -1.4078
  125SOL    HW2  375   3.069   0.531   2.884 -0.8187 -2.5739 -2.3697
  126SOL     OW  376   0.201   1.683   0.685 -0.3379  0.0835  0.0198
  126SOL    HW1  377   0.127   1.743   0.655  1.1465  1.7898  0.1970
  126SOL    HW2  378   0.184   1.676   0.787 -2.6748 -2.2608  1.7916
  127SOL     OW  379   1.122   2.525   1.681  0.2335  0.3490  0.4239
  127SOL    HW1  380   1.035   2.522   1.732 -1.3703 -1.3447 -2.3386
  127SOL    HW2  381   1.199   2.535   1.748  0.1706 -2.5523 -2.8998
  128SOL     OW  382   1.175   1.442   0.094  0.3270  0.4630 -0.6648
  128SOL    HW1  383   1.213   1.458   0.186 -1.2555 -1.0085 -0.8329
  128SOL    HW2  384   1.182   1.343   0.078 -0.9971 -0.1003 -0.0018
  129SOL     OW  385   2.005   2.036   1.616  0.1950 -0.0141 -0.2740
  129SOL    HW1  386   1.969   2.084   1.530 -0.6587 -2.1879 -0.1051
  129SOL    HW2  387   2.054   2.109   1.666  2.0214  0.7259 -0.7288
  130SOL     OW  388   2.026   1.780   1.660  0.5752  0.1234  0.6819
  130SOL    HW1  389   1.969   1.770   1.747 -3.5228 -0.8362  1.5783
  130SOL    HW2  390   2.039   1.875   1.635  0.3631 -2.4851  1.2639
  131SOL     OW  391   2.705   2.743   2.758 -0.4075 -0.3295  0.1015
  131SOL    HW1  392   2.759   2.786   2.677  4.0482  0.9393  0.8409
  131SOL    HW2  393   2.763   2.692   2.825 -2.1588 -0.2675 -2.0518
  132SOL     OW  394   2.817   1.836   0.648 -0.6184  0.1985  0.8812
  132SOL    HW1  395   2.766   1.778   0.720 -0.5360 -0.5198 -1.3161
  132SOL    HW2  396   2.890   1.889   0.693  0.7912  1.0802 -0.3671
  133SOL     OW  397   0.700   0.024   2.404  0.2413  0.2908  0.1426
  133SOL    HW1  398   0.627   0.058   2.472  1.8942 -0.0611 -2.4079
  133SOL    HW2  399   0.645   3.090   2.321 -0.7198  0.2214 -0.3370
  134SOL     OW  400   2.800   2.171   0.227  0.0553 -0.2863 -0.2155
  134SOL    HW1  401   2.868   2.246   0.210  4.5315 -1.6941 -1.1299
  134SOL    HW2  402   2.802   2.144   0.328  0.0528  0.7160  2.0518
  135SOL     OW  403   1.613   0.843   2.282  0.6991 -0.8586  0.0350
  135SOL    HW1  404   1.528   0.881   2.320 -2.2029  1.0618  3.0648
  135SOL    HW2  405   1.659   0.912   2.227 -3.3889 -1.4255 -0.6815
  136SOL     OW  406   2.495   1.738   0.768 -0.5546 -0.0229 -0.1016
  136SOL    HW1  407   2.578   1.697   0.810 -0.4766 -2.5125  1.5035
  136SOL    HW2  408   2.418   1.675   0.794 -0.0358  2.5980 -0.1410
  137SOL     OW  409   2.722   1.629   0.841 -0.5022  0.2242 -0.5389
  137SOL    HW1  410   2.686   1.536   0.858 -1.1816 -0.8710  0.7689
  137SOL    HW2  411   2.806   1.642   0.899  2.8066  0.4410 -1.3370
  138SOL     OW  412   2.846   0.521   1.144 -0.1083 -0.2935  0.4273
  138SOL    HW1  413   2.835   0.616   1.177  1.9754  0.4604 -4.0005
  138SOL    HW2  414   2.820   0.509   1.043  0.0681 -0.5281 -2.0216
  139SOL     OW  415   0.024   2.715   3.010 -0.4007  0.2295 -0.1404
  139SOL    HW1  416   0.011   2.613   3.041 -5.0389 -0.0942  0.5772
  139SOL    HW2  417   0.012   2.727   2.906  0.4203 -0.4045 -4.0448
  140SOL     OW  418   0.749   1.760   1.537  0.0338  0.4754  0.8704
  140SOL    HW1  419   0.805   1.845   1.543  1.7229 -2.2347  1.7563
  140SOL    HW2  420   0.769   1.703   1.621 -0.5431 -0.5578 -3.2909
  141SOL     OW  421   1.242   1.915   0.846 -0.3375 -1.0676  0.3848
  141SOL    HW1  422   1.228   1.818   0.863  1.4384 -1.3210 -1.0328
  141SOL    HW2  423   1.176   1.976   0.898 -1.6200  2.0954 -1.6559
  142SOL     OW  424   1.106   0.675   1.011 -0.2248  0.0327  0.2103
  142SOL    HW1  425   1.098   0.758   0.950 -1.4684  3.6635  0.2316
  142SOL    HW2  426   1.143   0.699   1.102 -0.0329 -0.6429 -0.3455
  143SOL     OW  427   0.801   1.025   2.765 -0.5045 -0.0574  0.1686
  143SOL    HW1  428   0.837   1.086   2.834  0.6758 -0.5673 -0.8847
  143SOL    HW2  429   0.854   1.049   2.681  0.8634  2.1379  1.8952
  144SOL     OW  430   2.009   2.533   0.844  0.6256  0.2899  0.5433
  144SOL    HW1  431   1.943   2.532   0.765 -3.3126 -0.3624 -1.0359
  144SOL    HW2  432   1.958   2.511   0.930  0.1265  2.0924  0.7546
  145SOL     OW  433   2.078   0.765   2.714 -0.0950 -0.3916 -0.8004
  145SOL    HW1  434   2.159   0.727   2.666 -1.2008  2.1975 -0.2959
  145SOL    HW2  435   2.065   0.729   2.810  1.3546  0.1564 -1.5993
  146SOL     OW  436   2.801   2.784   0.764  0.4295 -0.3486  0.4557
  146SOL    HW1  437   2.744   2.761   0.843 -2.2644  0.3954  2.8256
  146SOL    HW2  438   2.896   2.808   0.795 -1.3589 -0.1983 -1.5436
  147SOL     OW  439   1.273   1.045   2.166  0.4281 -0.5303 -0.1905
  147SOL    HW1  440   1.243   1.109   2.237  1.2490 -0.0287 -0.1898
  147SOL    HW2  441   1.362   1.078   2.128 -1.3836  0.0302 -2.1176
  148SOL     OW  442   1.370   0.663   2.021 -0.1135 -0.0668  0.3502
  148SOL    HW1  443   1.418   0.585   2.072  2.6391  0.2372  1.5170
  148SOL    HW2  444   1.314   0.717   2.083  1.5565 -0.4680 -0.3911
  149SOL     OW  445   1.703   2.989   2.121 -0.3040 -0.3874 -0.1847
  149SOL    HW1  446   1.743   3.032   2.040 -1.3953 -1.9129  4.5980
  149SOL    HW2  447   1.621   3.042   2.140 -0.9673  1.7881 -0.9786
  150SOL     OW  448   2.488   3.034   0.003  0.6952 -0.2944 -0.0091
  150SOL    HW1  449   2.534   3.006   3.011 -0.2457 -1.2954 -0.0967
  150SOL    HW2  450   2.541   0.001   0.060 -0.1048 -1.3702 -1.9435
  151SOL     OW  451   0.477   1.381   2.829  0.0119  0.0269 -0.1381
  151SOL    HW1  452   0.437   1.330   2.910 -0.8683  0.1070 -1.3846
  151SOL    HW2  453   0.565   1.422   2.864 -0.9520 -0.7195  0.5482
  152SOL     OW  454   0.064   0.235   0.675 -0.0592  0.5737 -0.5550
  152SOL    HW1  455   0.105   0.143   0.696  2.9187 -1.5850  1.7838
  152SOL    HW2  456   0.138   0.306   0.666 -2.5658  2.8053  0.5803
  153SOL     OW  457   2.338   0.310   1.471  0.0631 -0.2236 -0.5543
  153SOL    HW1  458   2.301   0.287   1.382 -0.5512  3.3882  1.3407
  153SOL    HW2  459   2.269   0.315   1.546  0.4488 -2.2946 -2.3196
  154SOL     OW  460   1.782   0.287   2.169  0.1466 -0.5292 -0.3956
  154SOL    HW1  461   1.803   0.353   2.247  2.0636  2.6372  5.1478
  154SOL    HW2  462   1.721   0.334   2.097 -1.2832  2.0201 -2.4918
  155SOL     OW  463   0.065   1.720   0.116 -0.0890 -0.2498 -0.4710
  155SOL    HW1  464   0.087   1.641   0.055  2.4283 -1.8707  0.1864
  155SOL    HW2  465   0.103   1.706   0.212 -1.2933  2.7994 -0.5806
  156SOL     OW  466   2.828   1.820   2.935 -0.2985 -0.2811 -0.2694
  156SOL    HW1  467   2.841   1.917   2.969  1.5385 -2.7260  0.4729
  156SOL    HW2  468   2.770   1.765   2.996  2.2261  0.0920  0.9671
  157SOL     OW  469   0.748   0.512   0.756 -0.7350  1.0289  0.5060
  157SOL    HW1  470   0.675   0.453   0.719  1.5888 -0.3439 -1.0695
  157SOL    HW2  471   0.748   0.597   0.704 -0.9544 -1.2833 -2.8414
  158SOL     OW  472   2.359   0.720   1.674 -0.1781 -0.5895  0.6273
  158SOL    HW1  473   2.422   0.657   1.724 -0.3791  0.3409  0.5574
  158SOL    HW2  474   2.390   0.731   1.577  2.5424 -2.2724 -0.3736
  159SOL     OW  475   0.089   0.469   0.470  0.0503  0.1503 -0.4585
  159SOL    HW1  476   0.007   0.405   0.484 -0.5236 -3.5886  1.3105
  159SOL    HW2  477   0.155   0.427   0.405  2.6321  0.9934  0.8815
  160SOL     OW  478   1.977   2.220   1.878  0.2051 -0.2053  0.1562
  160SOL    HW1  479   1.967   2.257   1.972  1.5047 -2.1565 -0.5668
  160SOL    HW2  480   1.892   2.250   1.828  0.1320 -3.4351 -0.7842
  161SOL     OW  481   0.018   0.709   2.513 -0.2905  0.2971 -0.3262
  161SOL    HW1  482   0.109   0.724   2.559  2.8649  1.3376  1.7368
  161SOL    HW2  483   0.020   0.623   2.456  0.3483  2.8936 -0.8205
  162SOL     OW  484   0.907   2.429   1.327 -0.1959  0.0640  0.6189
  162SOL    HW1  485   0.969   2.348   1.334  1.4531 -0.9800 -2.2556
  162SOL    HW2  486   0.949   2.504   1.375 -0.9234 -0.3059 -0.1845
  163SOL     OW  487   2.661   0.171   2.433  0.6156 -0.0605 -0.3440
  163SOL    HW1  488   2.660   0.085   2.373 -0.7751 -0.8410 -2.2147
  163SOL    HW2  489   2.632   0.248   2.376 -0.9964 -0.1696  0.0136
  164SOL     OW  490   2.281   1.854   0.117 -0.5211 -0.3218 -0.3165
  164SOL    HW1  491   2.334   1.869   0.206 -0.2662 -0.4075  1.9365
  164SOL    HW2  492   2.246   1.761   0.101 -0.8848  4.0192  1.1324
  165SOL     OW  493   3.093   0.366   1.176 -0.5118 -0.2415  0.0905
  165SOL    HW1  494   0.052   0.420   1.108 -3.5057 -0.5154  1.2607
  165SOL    HW2  495   3.000   0.404   1.187  1.5953 -1.7306 -0.0354
  166SOL     OW  496   2.105   0.838   0.621  0.4086  0.7610  0.0620
  166SOL    HW1  497   2.115   0.778   0.706 -0.3146  2.1698  0.6548
  166SOL    HW2  498   2.015   0.818   0.571 -0.2298 -0.3538 -0.3484
  167SOL     OW  499   2.614   1.008   3.066  0.1591 -0.4940  0.0681
  167SOL    HW1  500   2.522   0.974   3.085  0.9724  1.4132 -1.8462
  167SOL    HW2  501   2.646   1.069   0.049  1.6565 -0.3130  1.6083
  168SOL     OW  502   1.307   0.222   2.783  0.7106 -0.1112 -0.3123
  168SOL    HW1  503   1.393   0.190   2.832 -1.6426 -1.0921 -0.9681
  168SOL    HW2  504   1.325   0.216   2.682 -1.1827 -0.5243 -0.8882
  169SOL     OW  505   0.320   1.503   0.904 -0.8641 -0.0422 -0.3540
  169SOL    HW1  506   0.252   1.548   0.961  0.0197  1.3819  1.9442
  169SOL    HW2  507   0.279   1.440   0.839  0.1634 -0.4022 -1.0155
  170SOL     OW  508   3.035   0.988   1.333 -0.4236  0.8708  0.2463
  170SOL    HW1  509   0.011   0.916   1.329  1.3483 -1.2165  1.8488
  170SOL    HW2  510   2.950   0.942   1.299 -0.2059  1.1123  2.1472
  171SOL     OW  511   2.386   2.156   1.972  0.1085  0.0859 -0.3726
  171SOL    HW1  512   2.484   2.179   1.975  2.9591 -1.3834  0.2264
  171SOL    HW2  513   2.359   2.131   1.878 -2.3370 -0.0126  3.0517
  172SOL     OW  514   0.412   2.238   1.289  0.4126 -0.3534 -0.0690
  172SOL    HW1  515   0.344   2.178   1.239 -1.4643  1.6083 -0.6747
  172SOL    HW2  516   0.408   2.337   1.255  1.3943  1.4557 -1.4500
  173SOL     OW  517   1.733   1.408   3.042 -0.4810  0.2100 -0.0479
  173SOL    HW1  518   1.665   1.350   2.985 -4.3966 -1.3046 -1.3223
  173SOL    HW2  519   1.715   1.507   3.031  2.7669 -3.1665  1.2601
  174SOL     OW  520   1.346   0.615   2.816 -0.3390 -0.0745 -0.1251
  174SOL    HW1  521   1.375   0.641   2.719 -1.3846  1.8797 -3.3323
  174SOL    HW2  522   1.410   0.657   2.882 -2.2852  2.3124 -0.9683
  175SOL     OW  523   1.334   1.443   1.145  0.2916 -0.0095 -0.0420
  175SOL    HW1  524   1.359   1.501   1.226 -0.7656  0.5431  1.3812
  175SOL    HW2  525   1.233   1.432   1.139  1.0114 -1.3102 -1.4577
  176SOL     OW  526   1.436   0.166   0.336  0.0962 -0.2028 -0.2299
  176SOL    HW1  527   1.395   0.201   0.252 -1.4156 -1.4786  0.4752
  176SOL    HW2  528   1.430   0.231   0.416  0.5104  1.2916 -4.1931
  177SOL     OW  529   0.266   1.035   3.048  0.6995  0.5926  0.0237
  177SOL    HW1  530   0.211   0.982   0.026 -0.5331 -1.5723  1.9661
  177SOL    HW2  531   0.364   1.009   3.058 -0.3874  1.2281 -1.6099
  178SOL     OW  532   2.259   2.478   2.265  0.4361  0.1370  0.0108
  178SOL    HW1  533   2.230   2.532   2.349 -1.1251  1.9800  1.5492
  178SOL    HW2  534   2.312   2.545   2.209  0.1901 -0.9318 -0.2324
  179SOL     OW  535   0.019   0.021   2.580 -0.4594  0.7458  0.0620
  179SOL    HW1  536   3.016   0.024   2.588  1.8046  0.3898 -0.7891
  179SOL    HW2  537   0.046   0.039   2.486  1.0833 -0.5944 -0.2378
  180SOL     OW  538   1.978   0.457   0.816 -0.0035  0.1714 -1.0878
  180SOL    HW1  539   2.062   0.404   0.843  4.1228 -0.6474  0.8454
  180SOL    HW2  540   1.996   0.555   0.825  0.3134 -0.6330 -0.8466
  181SOL     OW  541   2.192   0.958   2.478  0.3152  0.3039 -0.1896
  181SOL    HW1  542   2.232   0.872   2.514 -0.0581 -0.9384 -2.7946
  181SOL    HW2  543   2.122   0.995   2.540 -2.4005 -0.3886 -2.4030
  182SOL     OW  544   2.550   2.643   2.039  0.2178  0.5250  0.0525
  182SOL    HW1  545   2.625   2.607   2.097  1.6904  0.7355 -0.6503
  182SOL    HW2  546   2.569   2.624   1.941 -1.0485 -0.6222  1.4257
  183SOL     OW  547   2.103   0.760   1.795  0.6225 -0.2133 -0.0157
  183SOL    HW1  548   2.190   0.750   1.746 -1.1804  2.1274 -1.5207
  183SOL    HW2  549   2.126   0.746   1.895 -0.1446  2.5261  1.1498
  184SOL     OW  550   0.148   1.570   1.098  0.6463 -0.0834 -0.6059
  184SOL    HW1  551   0.075   1.496   1.114 -1.4296 -3.8796  0.6282
  184SOL    HW2  552   0.214   1.567   1.177 -2.0207  0.5509  0.0093
  185SOL     OW  553   2.434   3.094   0.867 -0.3337  0.7940  0.3711
  185SOL    HW1  554   2.370   0.063   0.817 -1.1123  3.2559 -0.8325
  185SOL    HW2  555   2.533   0.025   0.866  0.1658  0.2945 -0.3688
  186SOL     OW  556   2.877   2.503   2.753 -0.2451  0.3229 -0.0517
  186SOL    HW1  557   2.899   2.443   2.673 -0.4204  0.0583 -2.5438
  186SOL    HW2  558   2.791   2.470   2.802  1.1289  2.6503 -0.1926
  187SOL     OW  559   0.192   1.661   0.360  0.9614  0.1756  0.2166
  187SOL    HW1  560   0.159   1.735   0.425 -0.2732  2.4947  0.5186
  187SOL    HW2  561   0.167   1.568   0.399  0.7816  0.7624  1.3592
  188SOL     OW  562   2.323   1.132   1.305  0.1858  0.1149  0.3409
  188SOL    HW1  563   2.330   1.210   1.244 -0.0999 -2.5149  3.2478
  188SOL    HW2  564   2.361   1.160   1.395  0.5345 -2.1185 -0.0963
  189SOL     OW  565   0.057   0.448   2.417 -0.2974 -0.9158  0.3414
  189SOL    HW1  566   0.071   0.404   2.506  1.8473 -1.2759  0.2502
  189SOL    HW2  567   0.147   0.462   2.379 -0.4060  2.6115 -1.0625
  190SOL     OW  568   1.831   0.789   1.851  0.0618  0.6214 -0.1664
  190SOL    HW1  569   1.775   0.816   1.773  2.0097 -0.2341  1.0765
  190SOL    HW2  570   1.926   0.772   1.823 -0.0071 -0.2880  1.8314
  191SOL     OW  571   0.983   0.217   2.133 -0.0001  0.1296  0.0222
  191SOL    HW1  572   1.074   0.170   2.133  2.2121 -1.6715  1.0915
  191SOL    HW2  573   0.979   0.263   2.225 -0.5788  1.6515  3.0104
  192SOL     OW  574   1.205   2.053   1.787 -0.2131  0.2331  0.8367
  192SOL    HW1  575   1.168   2.039   1.877 -1.4370 -2.7634 -1.1963
  192SOL    HW2  576   1.279   1.980   1.773  0.3001  1.2191  0.1366
  193SOL     OW  577   1.386   0.365   0.785  0.0768  0.4123  0.4128
  193SOL    HW1  578   1.297   0.384   0.837 -2.2383 -0.0778  0.8036
  193SOL    HW2  579   1.428   0.278   0.816 -1.0995 -0.4055 -2.6540
  194SOL     OW  580   0.850   2.025   1.487 -0.0036 -0.0896  0.6782
  194SOL    HW1  581   0.890   2.089   1.422 -1.1129  1.1958  0.9010
  194SOL    HW2  582   0.921   1.986   1.547  0.6297 -0.0781 -1.8750
  195SOL     OW  583   1.457   0.537   0.232  0.1482 -0.5339 -0.0223
  195SOL    HW1  584   1.525   0.611   0.250  1.0178  0.4190  0.8159
  195SOL    HW2  585   1.491   0.468   0.163 -0.1693  0.6520 -2.3635
  196SOL     OW  586   1.023   1.461   1.915  0.6602 -0.6024 -0.0906
  196SOL    HW1  587   1.056   1.378   1.963 -1.6038 -0.9448 -0.5921
  196SOL    HW2  588   0.966   1.438   1.834  3.8329  0.4248  2.3782
  197SOL     OW  589   0.910   0.413   1.529 -0.0819 -0.3617 -0.0624
  197SOL    HW1  590   0.870   0.344   1.464  1.0893 -1.5583 -0.3400
  197SOL    HW2  591   1.007   0.435   1.503  1.4959  2.3192  0.3179
  198SOL     OW  592   0.799   0.951   0.970 -0.3837  0.2146  0.3730
  198SOL    HW1  593   0.881   0.903   0.940 -1.2305  1.6565 -0.3450
  198SOL    HW2  594   0.794   0.955   1.073 -0.0911  1.3246  2.6371
  199SOL     OW  595   0.139   2.283   1.410  0.1185  0.0215  0.1070
  199SOL    HW1  596   0.189   2.251   1.327 -2.0981  1.9285 -2.1145
  199SOL    HW2  597   0.184   2.364   1.450  2.2265  0.7531 -1.3962
  200SOL     OW  598   1.525   1.148   2.013  0.6809  0.1788 -0.1374
  200SOL    HW1  599   1.478   1.216   1.958 -0.6713 -2.0413 -4.3038
  200SOL    HW2  600   1.537   1.061   1.966 -1.2469 -0.4972  0.1888
  201SOL     OW  601   0.626   1.952   1.917  0.0035  0.2929  0.5365
  201SOL    HW1  602   0.727   1.961   1.906 -1.2675  1.1891 -2.6514
  201SOL    HW2  603   0.596   1.850   1.915 -4.2632 -1.3994 -0.0349
  202SOL     OW  604   1.162   0.070   0.321 -0.1728  0.0488  0.0945
  202SOL    HW1  605   1.222   0.127   0.256  0.7797 -1.8887 -0.7977
  202SOL    HW2  606   1.188   3.067   0.318  5.0613  0.3585 -0.3704
  203SOL     OW  607   1.514   0.017   2.439  0.6996  0.1127  0.2386
  203SOL    HW1  608   1.497   3.052   2.517 -0.3489 -1.9536 -3.5571
  203SOL    HW2  609   1.615   0.024   2.409  1.7115 -1.6602 -1.6839
  204SOL     OW  610   0.736   1.582   1.845 -0.6652  0.4873  0.1898
  204SOL    HW1  611   0.818   1.637   1.821  1.1759  3.0051  0.6494
  204SOL    HW2  612   0.763   1.484   1.841  0.7495  0.5090  1.8177
  205SOL     OW  613   1.838   1.438   2.511  0.0899  0.1723 -0.3942
  205SOL    HW1  614   1.933   1.432   2.486 -2.0475 -1.2980 -0.4027
  205SOL    HW2  615   1.816   1.533   2.543 -3.5914  0.3609 -1.2837
  206SOL     OW  616   0.191   1.786   2.341 -0.2090  0.2956 -0.6688
  206SOL    HW1  617   0.276   1.778   2.396 -2.4113 -3.7031  0.2638
  206SOL    HW2  618   0.119   1.735   2.385  1.0499  1.6384  1.5072
  207SOL     OW  619   1.241   2.910   1.575  0.0275  0.2774 -0.2060
  207SOL    HW1  620   1.273   2.891   1.670 -0.8415 -2.2948  0.4237
  207SOL    HW2  621   1.193   3.001   1.573 -0.1077  0.5271  0.2623
  208SOL     OW  622   0.357   2.488   1.518  0.9676  0.0701 -0.2118
  208SOL    HW1  623   0.437   2.475   1.582  1.7105 -0.0283  1.9889
  208SOL    HW2  624   0.391   2.493   1.424  1.5748 -0.6821  1.2633
  209SOL     OW  625   1.423   2.750   0.448  0.1947 -0.3094  0.7193
  209SOL    HW1  626   1.404   2.690   0.524  0.3424  1.0173 -0.4775
  209SOL    HW2  627   1.393   2.842   0.465  1.0038 -1.2122 -2.5030
  210SOL     OW  628   2.812   1.210   0.892 -0.0464  0.0326  0.9039
  210SOL    HW1  629   2.796   1.138   0.822 -0.2080  2.9605  0.9962
  210SOL    HW2  630   2.891   1.269   0.866 -2.5548  2.2748  0.3655
  211SOL     OW  631   0.572   0.239   2.040  0.7591  0.4616 -0.3128
  211SOL    HW1  632   0.572   0.175   1.957  0.7641 -0.2212 -1.2299
  211SOL    HW2  633   0.481   0.290   2.048  0.5399 -2.2534 -2.6696
  212SOL     OW  634   1.202   2.247   1.577 -0.3699 -0.6320 -0.7711
  212SOL    HW1  635   1.171   2.345   1.592 -1.0702  1.7930 -0.2142
  212SOL    HW2  636   1.219   2.200   1.667  2.0115 -0.1452 -0.4074
  213SOL     OW  637   2.926   0.356   1.698  0.3189 -0.6113 -0.0949
  213SOL    HW1  638   2.943   0.272   1.638  1.4910 -0.1679 -0.4850
  213SOL    HW2  639   2.865   0.424   1.650  1.2641  0.1607 -0.7174
  214SOL     OW  640   0.698   2.576   1.859 -0.1086 -0.6882 -0.7507
  214SOL    HW1  641   0.662   2.639   1.932 -3.0205 -1.4497  0.5823
  214SOL    HW2  642   0.722   2.627   1.773  0.3852  1.5861  2.2890
  215SOL     OW  643   2.536   1.710   1.460  0.0196 -0.6214 -0.3283
  215SOL    HW1  644   2.457   1.758   1.505 -1.1418 -1.0502  2.6959
  215SOL    HW2  645   2.496   1.617   1.443 -0.7705  0.8551  0.4846
  216SOL     OW  646   0.503   0.844   1.976 -0.0987 -0.3678  0.2531
  216SOL    HW1  647   0.497   0.945   1.993  1.9297  0.6702  0.7843
  216SOL    HW2  648   0.509   0.826   1.876 -4.8866  1.6143 -2.9583
  217SOL     OW  649   2.669   3.055   1.264  0.4384  0.1968 -0.3422
  217SOL    HW1  650   2.590   0.006   1.218 -3.5293 -2.6681  0.4550
  217SOL    HW2  651   2.758   0.003   1.253 -1.3396  0.1198  1.8811
  218SOL     OW  652   1.482   2.164   1.000 -0.3479 -0.3128 -0.5043
  218SOL    HW1  653   1.468   2.063   1.007  1.9210 -0.7240  2.6886
  218SOL    HW2  654   1.582   2.182   0.977  3.9579 -0.1563 -1.8806
  219SOL     OW  655   1.661   2.827   0.354 -0.4144 -0.1557  0.1323
  219SOL    HW1  656   1.585   2.789   0.410  0.2432 -2.9868  2.0875
  219SOL    HW2  657   1.641   2.921   0.317 -0.2146  0.7835 -2.4491
  220SOL     OW  658   1.603   2.571   0.082  0.1830  0.0939 -0.1406
  220SOL    HW1  659   1.522   2.598   0.144 -3.4134  1.3006 -0.5922
  220SOL    HW2  660   1.636   2.648   0.027  1.3167  0.3060  1.1746
  221SOL     OW  661   2.510   2.086   0.628  0.6633 -0.1481  0.1782
  221SOL    HW1  662   2.498   2.131   0.533 -2.5096  1.6887 -0.2284
  221SOL    HW2  663   2.479   1.991   0.631  3.0548  1.7020 -2.0560
  222SOL     OW  664   1.079   2.068   0.982 -0.2291 -0.2963  0.1741
  222SOL    HW1  665   1.045   2.145   0.922 -1.3974  0.9040 -2.4577
  222SOL    HW2  666   1.007   2.030   1.035  2.3902  0.3311 -1.1099
  223SOL     OW  667   0.740   2.901   2.896  0.0819 -0.6899 -0.0696
  223SOL    HW1  668   0.686   2.838   2.839 -0.9471  0.6105 -1.4500
  223SOL    HW2  669   0.748   2.867   2.990 -0.6972  0.5551 -3.6415
  224SOL     OW  670   2.980   1.002   1.011 -0.3973  0.3117  0.3483
  224SOL    HW1  671   2.922   1.082   0.991  1.0005 -1.4171  0.7172
  224SOL    HW2  672   2.931   0.913   1.027 -3.1307 -0.3666  0.5069
  225SOL     OW  673   2.975   1.615   0.932  0.2931  0.2101  0.2454
  225SOL    HW1  674   3.055   1.680   0.917  2.2253  0.1931  0.7610
  225SOL    HW2  675   2.989   1.519   0.901 -2.0641 -0.2922  1.3571
  226SOL     OW  676   1.026   2.681   0.946 -0.2403  0.0169 -0.3682
  226SOL    HW1  677   1.042   2.670   0.847 -1.0487  2.3893 -0.5406
  226SOL    HW2  678   1.096   2.636   1.002  1.1736 -0.5183 -2.0958
  227SOL     OW  679   1.164   1.261   1.415 -0.2421  0.5309 -0.0690
  227SOL    HW1  680   1.097   1.214   1.472  2.0106  2.8771  0.8084
  227SOL    HW2  681   1.126   1.300   1.331  0.4946 -0.2263  1.3580
  228SOL     OW  682   1.473   0.086   2.064 -0.7157  0.3808 -0.1470
  228SOL    HW1  683   1.410   0.026   2.120 -2.5229  0.1061  1.8237
  228SOL    HW2  684   1.451   0.182   2.076 -1.9299 -2.3146 -1.2855
  229SOL     OW  685   2.992   0.954   2.507 -0.0296  0.2051 -0.0667
  229SOL    HW1  686   3.046   0.865   2.509 -0.2237 -0.3495 -1.5627
  229SOL    HW2  687   2.978   0.985   2.605 -0.7811 -0.4762  1.5109
  230SOL     OW  688   0.087   1.001   0.842 -0.3875 -0.1283  0.1907
  230SOL    HW1  689   0.047   1.027   0.752  0.5803  0.0806 -1.2629
  230SOL    HW2  690   0.012   1.007   0.914  1.2648  0.3344  1.3067
  231SOL     OW  691   1.783   0.080   2.391 -0.3698 -0.7704 -0.3220
  231SOL    HW1  692   1.785   0.155   2.326 -2.2931 -0.2014 -0.5305
  231SOL    HW2  693   1.866   0.024   2.375  1.9006 -2.3012 -1.7365
  232SOL     OW  694   0.528   1.733   0.024  0.5001  0.0904 -0.1959
  232SOL    HW1  695   0.590   1.806   3.093 -1.3413 -2.0702  3.3910
  232SOL    HW2  696   0.463   1.703   3.053 -1.2933  1.1577  1.3878
  233SOL     OW  697   1.239   2.624   3.032  0.2676 -0.1486 -0.2774
  233SOL    HW1  698   1.295   2.544   3.054  0.4852 -0.4985 -0.1310
  233SOL    HW2  699   1.271   2.657   2.940  0.9498 -0.7938  1.0602
  234SOL     OW  700   1.284   1.531   1.979  0.2460 -0.2637 -0.2217
  234SOL    HW1  701   1.324   1.470   2.049 -3.5842  2.3349 -0.0373
  234SOL    HW2  702   1.183   1.516   1.975  2.8923 -0.0115  4.4117
  235SOL     OW  703   0.078   1.921   1.914 -0.2860 -0.6826  0.3635
  235SOL    HW1  704   0.091   1.903   1.814  0.3136 -2.8686 -2.1662
  235SOL    HW2  705   0.140   1.995   1.946  1.2398  3.0346  0.3133
  236SOL     OW  706   1.709   2.285   2.806 -0.1093  0.3529  0.1008
  236SOL    HW1  707   1.613   2.308   2.829 -1.0839 -0.5748  0.5372
  236SOL    HW2  708   1.776   2.352   2.839 -0.4518  1.4856  0.7394
  237SOL     OW  709   1.561   0.524   0.896 -0.4922 -0.0729 -0.3501
  237SOL    HW1  710   1.648   0.527   0.846 -1.8052  0.5275  1.1510
  237SOL    HW2  711   1.496   0.456   0.850 -0.9972 -1.6697 -0.2409
  238SOL     OW  712   0.842   0.147   2.633 -0.4952  0.3356  0.0509
  238SOL    HW1  713   0.814   0.076   2.570 -0.4326 -1.2184 -0.4858
  238SOL    HW2  714   0.936   0.121   2.668  2.5596  2.8770 -1.4774
  239SOL     OW  715   0.926   3.000   1.736 -0.3436 -0.5275 -0.0967
  239SOL    HW1  716   0.922   3.045   1.642 -0.5505  0.7824 -2.4389
  239SOL    HW2  717   0.897   3.065   1.812  1.5302  3.1368  0.6394
  240SOL     OW  718   2.354   2.560   0.918 -0.1296 -0.4763  0.2983
  240SOL    HW1  719   2.355   2.534   0.821  1.4581  0.9533  1.9768
  240SOL    HW2  720   2.310   2.493   0.981  1.3050 -1.7276  0.8700
  241SOL     OW  721   1.439   1.296   1.759 -0.6290  0.1863 -0.1846
  241SOL    HW1  722   1.504   1.225   1.717  2.1428  0.5522 -0.8640
  241SOL    HW2  723   1.349   1.260   1.794 -2.5104 -0.9383  2.9307
  242SOL     OW  724   2.701   0.810   0.397  0.2754 -0.6068  0.2130
  242SOL    HW1  725   2.795   0.771   0.380  1.8966  0.3313  1.8344
  242SOL    HW2  726   2.622   0.748   0.378 -0.8785  0.8100 -0.5235
  243SOL     OW  727   0.724   0.578   1.271 -0.1317  0.2146  0.0838
  243SOL    HW1  728   0.792   0.640   1.318 -0.6711 -0.3107  0.9189
  243SOL    HW2  729   0.761   0.527   1.194  3.1374 -1.0683  0.6683
  244SOL     OW  730   1.282   0.409   3.045  0.7781  0.6103  0.3229
  244SOL    HW1  731   1.226   0.474   0.006 -0.8980  1.2098 -0.3570
  244SOL    HW2  732   1.292   0.441   2.950 -0.8228  0.4101 -1.0945
  245SOL     OW  733   2.100   0.421   2.927  0.5395  0.4135  0.0873
  245SOL    HW1  734   2.011   0.451   2.968  0.6890  0.6160 -0.9590
  245SOL    HW2  735   2.151   0.360   2.991  0.8448 -1.2278 -0.2638
  246SOL     OW  736   0.922   0.725   1.381  0.3337 -0.0280 -0.0377
  246SOL    HW1  737   0.903   0.735   1.483  1.1889  1.3786  0.6490
  246SOL    HW2  738   1.020   0.718   1.366 -2.0681  3.1804  1.0017
  247SOL     OW  739   0.504   3.049   2.207 -0.2969 -0.1989  0.2768
  247SOL    HW1  740   0.472   2.956   2.233  1.5479  2.4224 -0.3525
  247SOL    HW2  741   0.425   0.014   2.211  1.4381  2.9002  2.2741
  248SOL     OW  742   0.266   1.471   1.845  0.0045 -0.0136 -0.0923
  248SOL    HW1  743   0.162   1.475   1.841 -3.6947  0.2504 -0.4483
  248SOL    HW2  744   0.297   1.559   1.802  1.3389  1.6214 -0.2486
  249SOL     OW  745   3.094   3.070   2.957  0.8551 -0.3915  0.1915
  249SOL    HW1  746   0.044   3.027   2.881 -3.2551 -1.4124 -1.4272
  249SOL    HW2  747   0.061   0.022   3.012  0.9270 -1.6651 -5.1270
  250SOL     OW  748   2.863   0.010   0.343  0.4883  0.4672  0.3988
  250SOL    HW1  749   2.928   3.064   0.283 -2.3749  0.2410  0.3181
  250SOL    HW2  750   2.803   3.038   0.390 -1.1686  0.5143  0.6073
  251SOL     OW  751   0.740   1.310   1.069 -0.4515 -0.5028 -0.6485
  251SOL    HW1  752   0.748   1.291   0.969 -1.5897  1.8688 -0.3108
  251SOL    HW2  753   0.654   1.362   1.084 -0.1467 -0.3453 -2.9051
  252SOL     OW  754   1.554   2.836   1.608 -0.1950  0.5906  0.1803
  252SOL    HW1  755   1.637   2.889   1.645 -0.5846  0.6790  1.0139
  252SOL    HW2  756   1.465   2.888   1.612 -0.0751  0.3561  3.3338
  253SOL     OW  757   2.271   1.866   2.896 -0.1791 -0.0144  0.2617
  253SOL    HW1  758   2.271   1.890   2.997 -0.4471 -0.0449  0.4389
  253SOL    HW2  759   2.364   1.855   2.852 -0.4655  0.4545 -2.7019
  254SOL     OW  760   0.451   1.684   1.817 -0.3080  0.0708 -0.5109
  254SOL    HW1  761   0.542   1.647   1.799  0.4480  1.8551 -0.3852
  254SOL    HW2  762   0.435   1.704   1.918 -1.9037  0.7541  3.2555
  255SOL     OW  763   0.919   0.025   1.478  0.1772  0.1025  0.0062
  255SOL    HW1  764   0.882   0.115   1.448 -0.1991 -1.2923  1.3092
  255SOL    HW2  765   0.906   3.047   1.412  0.9438 -0.9705  1.2903
  256SOL     OW  766   2.368   2.131   1.042  0.0809  0.4028 -0.0383
  256SOL    HW1  767   2.370   2.027   1.053  1.4351 -0.6532 -1.3826
  256SOL    HW2  768   2.360   2.160   0.947  0.0183 -1.2623 -0.6659
  257SOL     OW  769   0.509   2.399   2.911  0.6380  0.8016 -0.0663
  257SOL    HW1  770   0.487   2.318   2.973  1.9376 -0.3046  0.4088
  257SOL    HW2  771   0.528   2.485   2.955  0.8265 -0.3505 -0.6418
  258SOL     OW  772   0.888   1.759   2.603  0.8157 -0.4526  0.1981
  258SOL    HW1  773   0.838   1.831   2.654  2.5992 -2.1654 -0.9087
  258SOL    HW2  774   0.827   1.697   2.548 -0.8932 -2.3844 -0.8436
  259SOL     OW  775   0.678   1.633   2.432  0.3401 -0.4139  0.3073
  259SOL    HW1  776   0.741   1.628   2.352 -0.6909  0.3355  1.9281
  259SOL    HW2  777   0.632   1.542   2.445 -1.8315 -0.6604  1.5582
  260SOL     OW  778   2.369   1.299   1.903 -0.3028  0.4006 -0.2368
  260SOL    HW1  779   2.355   1.217   1.851 -1.3768  1.9220  0.0070
  260SOL    HW2  780   2.292   1.365   1.894  1.8100 -2.8268 -2.0254
  261SOL     OW  781   1.434   0.760   0.907  0.0932  0.5527  0.1834
  261SOL    HW1  782   1.484   0.671   0.901  3.6993  0.6186  0.7841
  261SOL    HW2  783   1.389   0.776   0.997 -0.3392  2.0479  0.4158
  262SOL     OW  784   1.704   2.197   2.546  0.4612 -0.3306 -0.0436
  262SOL    HW1  785   1.789   2.220   2.496 -0.9066  1.2632  0.9828
  262SOL    HW2  786   1.706   2.225   2.645  0.8359  0.8877 -0.1757
  263SOL     OW  787   0.301   1.700   2.904 -0.4546 -0.4866  0.3822
  263SOL    HW1  788   0.219   1.660   2.943  0.1855  1.3836  1.9705
  263SOL    HW2  789   0.329   1.643   2.826 -1.8682  1.3525  0.8306
  264SOL     OW  790   0.425   1.849   1.216 -0.4686 -0.5180  0.4605
  264SOL    HW1  791   0.499   1.915   1.245 -0.6975  1.2889  1.8082
  264SOL    HW2  792   0.393   1.789   1.293  0.5140  0.4767 -0.6243
  265SOL     OW  793   0.730   1.151   0.054 -0.3110  0.0993  0.1339
  265SOL    HW1  794   0.770   1.102   0.129  2.2637  0.9123  0.8355
  265SOL    HW2  795   0.794   1.173   3.077 -1.4034  0.1947  2.1346
  266SOL     OW  796   1.323   1.744   2.959  0.2161 -0.5646 -0.0891
  266SOL    HW1  797   1.357   1.657   2.916  1.6427 -0.9114  1.8969
  266SOL    HW2  798   1.222   1.748   2.954  0.3477 -0.8398  1.6212
  267SOL     OW  799   0.932   0.727   2.099  0.6790  0.0016  0.5031
  267SOL    HW1  800   0.935   0.637   2.052  0.9552 -1.9314  2.5232
  267SOL    HW2  801   0.837   0.744   2.134  0.9590 -1.3523  1.0269
  268SOL     OW  802   0.271   0.789   2.582  0.4349 -0.2403 -0.6767
  268SOL    HW1  803   0.351   0.746   2.534 -0.0744  0.8575  1.6302
  268SOL    HW2  804   0.277   0.781   2.684 -0.2329  1.2324 -1.8530
  269SOL     OW  805   1.748   2.904   2.698 -0.1487 -0.2844 -0.0395
  269SOL    HW1  806   1.707   2.903   2.604  0.0754  1.8245 -1.0417
  269SOL    HW2  807   1.756   2.809   2.735  0.9584  0.9009 -0.8820
  270SOL     OW  808   1.043   1.474   2.383  0.9145  0.1410  0.3887
  270SOL    HW1  809   0.973   1.428   2.441  0.7171  1.1165 -1.1096
  270SOL    HW2  810   1.013   1.550   2.327  0.6940 -0.5518  2.8848
  271SOL     OW  811   0.148   0.131   0.014  0.5137 -0.1869  0.2566
  271SOL    HW1  812   0.163   0.222   3.068  0.3374 -0.4432  0.8534
  271SOL    HW2  813   0.120   0.144   0.114  0.0113 -0.2292  0.3966
  272SOL     OW  814   2.333   0.808   0.451  0.0485  0.3373 -0.4341
  272SOL    HW1  815   2.255   0.821   0.514 -2.1128  0.8733 -0.1292
  272SOL    HW2  816   2.357   0.885   0.394  2.5338 -4.6295  1.5752
  273SOL     OW  817   0.229   3.011   1.955  0.2454 -0.1368  0.5194
  273SOL    HW1  818   0.133   3.033   1.930  0.6782  1.4576 -0.9246
  273SOL    HW2  819   0.269   3.077   2.025  3.1817 -0.9371  1.2539
  274SOL     OW  820   0.007   0.279   1.908  0.4142  0.4092 -0.7002
  274SOL    HW1  821   0.054   0.334   1.978 -0.8682  1.7877  0.1061
  274SOL    HW2  822   3.035   0.331   1.853 -1.3314  0.9337  0.9205
  275SOL     OW  823   1.422   1.708   0.643 -0.1154  0.4724 -0.6311
  275SOL    HW1  824   1.396   1.761   0.724 -0.2800  2.4305  0.1887
  275SOL    HW2  825   1.440   1.612   0.661 -0.8728  1.9286 -1.5138
  276SOL     OW  826   0.682   0.775   2.158  0.4505  0.5581  0.1668
  276SOL    HW1  827   0.677   0.850   2.230 -2.0393 -0.7534  0.6222
  276SOL    HW2  828   0.618   0.786   2.078  1.1584  0.8444 -1.5310
  277SOL     OW  829   1.808   2.478   2.297  0.5331 -0.1894 -0.4192
  277SOL    HW1  830   1.714   2.450   2.328 -0.6154 -0.2521  0.7027
  277SOL    HW2  831   1.821   2.578   2.313  2.6077 -1.0319  3.3103
  278SOL     OW  832   1.727   2.871   2.380 -0.1908  0.3313  0.5499
  278SOL    HW1  833   1.823   2.836   2.368  0.2900 -1.4238  0.0408
  278SOL    HW2  834   1.704   2.934   2.303  0.6757 -2.5021  0.6040
  279SOL     OW  835   1.881   1.192   0.046  0.2582 -0.4006 -0.2428
  279SOL    HW1  836   1.829   1.270   0.005  0.1956 -1.6360  2.0830
  279SOL    HW2  837   1.981   1.215   0.062  0.4582 -0.1278 -1.6067
  280SOL     OW  838   0.893   1.230   2.899 -0.3115 -0.0199 -0.2329
  280SOL    HW1  839   0.854   1.314   2.940  0.9805  0.4538  0.9862
  280SOL    HW2  840   0.996   1.236   2.903 -0.2160  0.1543 -1.3921
  281SOL     OW  841   2.930   0.134   1.562 -0.2733  0.1625 -0.3157
  281SOL    HW1  842   3.031   0.122   1.584 -0.7486 -0.2802 -1.3743
  281SOL    HW2  843   2.905   0.072   1.481  1.4181 -0.0327  0.2887
  282SOL     OW  844   2.913   2.223   0.695 -0.1816  0.7111  0.0724
  282SOL    HW1  845   2.980   2.298   0.714 -1.3099  1.5185  2.2475
  282SOL    HW2  846   2.825   2.223   0.753 -2.1967 -0.5622  2.4496
  283SOL     OW  847   1.534   1.840   2.323 -0.0850  0.0387 -0.1905
  283SOL    HW1  848   1.576   1.927   2.360  2.8490  0.4160  0.6944
  283SOL    HW2  849   1.436   1.835   2.340  2.0432  0.0602 -1.7311
  284SOL     OW  850   1.676   0.260   0.524  0.0599 -0.2193  0.2214
  284SOL    HW1  851   1.679   0.269   0.425  0.8966  2.8292  1.4651
  284SOL    HW2  852   1.580   0.276   0.558 -2.9130  0.6203  1.1795
  285SOL     OW  853   3.055   2.695   2.706 -0.0742  0.1003 -0.2138
  285SOL    HW1  854   3.000   2.770   2.665 -0.8709 -0.9305  0.1316
  285SOL    HW2  855   3.001   2.617   2.732  1.2395  2.1927  0.7997
  286SOL     OW  856   2.795   2.643   1.393 -0.2015  0.3356 -0.3916
  286SOL    HW1  857   2.727   2.705   1.354  1.5166 -2.8114  1.2062
  286SOL    HW2  858   2.746   2.560   1.420  1.3905  0.4700 -1.0822
  287SOL     OW  859   0.517   1.244   0.691  0.4226  0.4450  0.0147
  287SOL    HW1  860   0.437   1.217   0.748 -0.2075 -0.5079  0.5486
  287SOL    HW2  861   0.502   1.334   0.644 -1.5478 -0.9490 -1.8107
  288SOL     OW  862   2.069   1.804   2.722  0.1996  0.2168 -0.5228
  288SOL    HW1  863   1.984   1.851   2.746  0.5859 -2.3953  2.1976
  288SOL    HW2  864   2.152   1.825   2.782  3.1054  1.0847  0.5469
  289SOL     OW  865   0.155   1.872   2.725 -0.3325  0.8454 -0.0878
  289SOL    HW1  866   0.057   1.874   2.702  1.6090  0.8373 -0.4636
  289SOL    HW2  867   0.172   1.848   2.824  2.3472  0.1635  2.5918
  290SOL     OW  868   1.066   1.752   1.117  0.3273 -0.0278 -0.0690
  290SOL    HW1  869   1.121   1.703   1.048 -0.9354 -0.3108  1.1645
  290SOL    HW2  870   0.974   1.780   1.083  0.1304 -0.1879  1.1066
  291SOL     OW  871   1.789   1.009   2.877 -0.9215 -0.4237  0.0277
  291SOL    HW1  872   1.717   0.941   2.859  0.3994  1.3436  0.1942
  291SOL    HW2  873   1.835   0.991   2.962 -0.2851 -0.4640  0.2761
  292SOL     OW  874   1.104   1.431   0.487 -0.1374 -0.1686  0.0120
  292SOL    HW1  875   1.037   1.431   0.562  1.2430 -0.8954 -0.9470
  292SOL    HW2  876   1.177   1.364   0.506  0.7343  1.5005 -1.7209
  293SOL     OW  877   1.681   2.628   1.118  0.0714  0.0440  0.7053
  293SOL    HW1  878   1.756   2.698   1.113 -0.8215  1.4268  2.8392
  293SOL    HW2  879   1.630   2.628   1.030 -1.3846 -0.2299 -1.8148
  294SOL     OW  880   2.557   1.291   2.995  0.0018 -0.4894 -0.1392
  294SOL    HW1  881   2.477   1.242   2.959  0.7855 -0.9430 -0.5437
  294SOL    HW2  882   2.640   1.230   2.982  2.2923  0.3751 -2.6223
  295SOL     OW  883   1.647   2.083   2.312  0.0815 -0.0519  0.5515
  295SOL    HW1  884   1.666   2.135   2.395 -1.3125 -0.6816 -2.1419
  295SOL    HW2  885   1.648   2.149   2.231 -1.8257 -0.1786 -0.2584
  296SOL     OW  886   1.728   0.544   1.969 -0.6888 -0.4136 -0.6764
  296SOL    HW1  887   1.762   0.627   1.919  1.4379  2.1859 -1.7351
  296SOL    HW2  888   1.684   0.566   2.060 -0.1306 -0.9076  0.6321
  297SOL     OW  889   3.066   0.741   2.116  0.1738  0.4956 -0.2337
  297SOL    HW1  890   2.985   0.736   2.178 -3.2230  0.4983 -0.3718
  297SOL    HW2  891   3.060   0.830   2.074 -1.4023 -0.5229  3.3246
  298SOL     OW  892   1.041   2.593   2.044 -0.4389 -0.2769  0.3897
  298SOL    HW1  893   1.003   2.526   1.979  1.3714 -1.9708 -0.8964
  298SOL    HW2  894   0.964   2.652   2.086 -2.8896  2.5420  0.3755
  299SOL     OW  895   1.287   2.699   2.780  0.2158  0.0792 -0.0193
  299SOL    HW1  896   1.267   2.799   2.794 -2.0710  2.0337  0.4592
  299SOL    HW2  897   1.220   2.655   2.717  0.1401  1.9062 -1.7610
  300SOL     OW  898   2.828   1.169   2.943 -0.2922  0.3467  0.4013
  300SOL    HW1  899   2.784   1.105   3.009 -0.1006  2.8404  0.5471
  300SOL    HW2  900   2.772   1.175   2.856  1.7063 -1.1700 -0.9912
  301SOL     OW  901   2.050   1.042   1.658 -0.1246  0.0676 -0.0408
  301SOL    HW1  902   2.080   0.961   1.710 -1.0600  1.0576 -2.8830
  301SOL    HW2  903   1.998   1.115   1.710  1.1123 -0.6234  1.8065
  302SOL     OW  904   2.470   2.069   2.375  0.7489 -0.5694  0.0967
  302SOL    HW1  905   2.426   1.979   2.373 -0.3981  3.6870  0.1551
  302SOL    HW2  906   2.402   2.140   2.405 -0.5735 -2.8369  0.8422
  303SOL     OW  907   0.325   2.545   2.111 -0.2593  0.1764 -0.1020
  303SOL    HW1  908   0.285   2.634   2.088  3.3838 -2.3504 -0.0787
  303SOL    HW2  909   0.383   2.513   2.029  1.7162  0.5111 -0.0880
  304SOL     OW  910   0.143   0.780   1.303 -0.0557 -0.2279 -0.1893
  304SOL    HW1  911   0.159   0.802   1.204 -1.6964  2.9395 -1.9247
  304SOL    HW2  912   0.129   0.681   1.318 -0.9419 -0.9286  0.4584
  305SOL     OW  913   2.793   0.471   2.079 -0.2132 -0.0785  0.3304
  305SOL    HW1  914   2.877   0.452   2.134  1.3942 -0.5537 -1.3980
  305SOL    HW2  915   2.783   0.395   2.016 -0.1155  1.2142  0.7243
  306SOL     OW  916   2.418   1.180   1.551 -0.1031  0.0087 -0.0602
  306SOL    HW1  917   2.355   1.162   1.629 -2.2295 -1.1067 -0.3725
  306SOL    HW2  918   2.496   1.239   1.586  0.7172  2.8090  1.1888
  307SOL     OW  919   2.728   0.055   0.884 -0.7473  0.0491 -0.0186
  307SOL    HW1  920   2.808   0.102   0.844 -1.3487  2.2362  0.5900
  307SOL    HW2  921   2.732   0.066   0.987 -0.0477  1.0328  3.6209
  308SOL     OW  922   2.962   1.712   1.356 -0.2902  0.3060  0.1876
  308SOL    HW1  923   2.923   1.668   1.274  0.8986 -0.6126 -4.9244
  308SOL    HW2  924   2.887   1.725   1.420  0.5801  0.9879 -2.4783
  309SOL     OW  925   2.162   2.266   1.684 -0.1750 -0.2759 -0.5195
  309SOL    HW1  926   2.145   2.353   1.639  1.9566 -0.1262  1.2059
  309SOL    HW2  927   2.135   2.265   1.784 -0.2566  1.7680  2.5754
  310SOL     OW  928   2.019   1.366   2.752 -0.4722  0.2644  0.8090
  310SOL    HW1  929   2.041   1.434   2.679 -1.7450 -0.4540  1.6680
  310SOL    HW2  930   1.991   1.278   2.702  2.7916 -0.2627  0.7765
  311SOL     OW  931   2.155   1.212   0.024 -0.1367  0.5790 -0.6219
  311SOL    HW1  932   2.179   1.159   3.033 -1.2524  1.9843 -2.3901
  311SOL    HW2  933   2.234   1.224   0.088 -2.1749 -1.5835  2.2834
  312SOL     OW  934   1.318   2.454   2.244 -0.7986  0.2555 -0.2940
  312SOL    HW1  935   1.408   2.442   2.298  2.7217 -2.1428 -0.4732
  312SOL    HW2  936   1.235   2.437   2.302  2.7835  0.2200  0.8196
  313SOL     OW  937   0.477   0.376   0.733 -0.5200  0.1736  0.0311
  313SOL    HW1  938   0.520   0.331   0.813  0.1152  0.4600 -0.8150
  313SOL    HW2  939   0.435   0.299   0.671 -0.1541 -3.1285 -2.9918
  314SOL     OW  940   0.643   1.667   1.068 -0.0035 -0.4385 -0.2336
  314SOL    HW1  941   0.554   1.656   1.112  2.1432 -0.0166 -1.9308
  314SOL    HW2  942   0.641   1.641   0.973  3.9062  1.1159  1.6396
  315SOL     OW  943   0.723   2.320   2.082  1.1171 -0.1495  0.2010
  315SOL    HW1  944   0.671   2.258   2.020 -0.2075 -2.4501 -0.5734
  315SOL    HW2  945   0.740   2.410   2.041 -1.5389 -0.5942  0.4237
  316SOL     OW  946   0.053   2.114   0.990 -0.3347 -0.0411 -0.8850
  316SOL    HW1  947   3.078   2.162   1.040 -2.6548  1.8222 -3.6727
  316SOL    HW2  948   0.124   2.081   1.055  0.4754 -1.2698 -0.8700
  317SOL     OW  949   1.818   0.596   0.421 -0.3966  0.3311  0.2040
  317SOL    HW1  950   1.814   0.554   0.513  1.5039  2.5728 -2.1085
  317SOL    HW2  951   1.819   0.527   0.345 -0.6729  0.6895 -2.0157
  318SOL     OW  952   2.266   2.726   0.072 -0.2771 -0.7784 -0.9456
  318SOL    HW1  953   2.312   2.759   3.083  0.8002  0.1013  0.5866
  318SOL    HW2  954   2.319   2.749   0.154  2.1060  1.1746 -2.0525
  319SOL     OW  955   1.427   1.996   2.970  0.1490  0.6512  0.1369
  319SOL    HW1  956   1.444   2.044   2.883  0.8675  1.2940  0.7369
  319SOL    HW2  957   1.406   1.894   2.952 -1.7437  0.3479 -1.4473
  320SOL     OW  958   0.667   2.504   2.709  0.1013 -0.3107 -0.0451
  320SOL    HW1  959   0.611   2.451   2.772 -1.7223  1.0276  2.2663
  320SOL    HW2  960   0.765   2.471   2.712 -2.6672 -0.5026  3.3767
  321SOL     OW  961   0.802   2.747   0.037 -0.5342  0.4974 -0.4988
  321SOL    HW1  962   0.881   2.683   0.045 -2.3126  0.3078  2.7008
  321SOL    HW2  963   0.794   2.800   0.129 -1.5316 -0.3801  1.3107
  322SOL     OW  964   2.149   0.420   2.211  0.7822  0.0097 -0.4650
  322SOL    HW1  965   2.144   0.350   2.134 -0.7121 -1.5869 -1.8293
  322SOL    HW2  966   2.055   0.454   2.239 -0.5324  1.1698 -1.3099
  323SOL     OW  967   2.934   0.815   0.688  0.2364  0.3645  0.2262
  323SOL    HW1  968   2.962   0.737   0.749 -0.3874  1.1061  1.1591
  323SOL    HW2  969   2.980   0.803   0.595  2.5823  0.2582 -0.4494
  324SOL     OW  970   0.330   0.515   2.336 -0.0502 -0.2291 -0.1475
  324SOL    HW1  971   0.310   0.581   2.260  0.3279  0.1213 -0.1390
  324SOL    HW2  972   0.424   0.532   2.368 -0.7412 -2.2345 -0.6247
  325SOL     OW  973   0.279   0.109   2.155  0.5694 -0.5414 -0.3960
  325SOL    HW1  974   0.297   0.180   2.228  1.3181 -0.2875  1.7494
  325SOL    HW2  975   0.183   0.072   2.172  0.5352 -0.5027  0.6286
  326SOL     OW  976   2.681   2.496   0.212 -0.1142  0.3756  0.5250
  326SOL    HW1  977   2.610   2.430   0.198  0.9961 -1.2907 -0.5202
  326SOL    HW2  978   2.730   2.485   0.302 -0.5414  2.8242 -0.5227
  327SOL     OW  979   2.419   1.390   0.675  0.0031  0.6195 -0.4787
  327SOL    HW1  980   2.342   1.329   0.648 -0.8540  2.3002  1.6996
  327SOL    HW2  981   2.378   1.466   0.725  2.8497 -3.0211  0.1161
  328SOL     OW  982   3.094   1.881   2.178  0.0809 -0.3953 -0.1998
  328SOL    HW1  983   0.075   1.845   2.234  1.7004  1.6742 -0.6804
  328SOL    HW2  984   0.014   1.887   2.076 -2.9856  1.9696 -1.0490
  329SOL     OW  985   2.990   2.252   1.498  0.3903  0.1909  0.2969
  329SOL    HW1  986   3.084   2.244   1.457 -2.1801  2.9341  0.1125
  329SOL    HW2  987   2.969   2.157   1.540  0.4080 -3.2033 -0.9066
  330SOL     OW  988   2.420   1.435   2.344 -0.2894  0.4137  0.2188
  330SOL    HW1  989   2.362   1.350   2.344  0.8350 -1.7016  0.2081
  330SOL    HW2  990   2.488   1.434   2.266  1.7808  0.0499 -1.6500
  331SOL     OW  991   2.696   2.248   0.842 -0.1438 -0.6028 -0.1143
  331SOL    HW1  992   2.697   2.175   0.914  2.0200 -0.3199  2.2426
  331SOL    HW2  993   2.622   2.238   0.774 -0.3991 -1.8243 -0.1231
  332SOL     OW  994   0.509   2.829   0.947 -0.0376  0.4011  0.9105
  332SOL    HW1  995   0.528   2.831   0.848 -0.4210 -0.1906  1.0272
  332SOL    HW2  996   0.545   2.907   0.998 -0.6620 -0.1754  1.1672
  333SOL     OW  997   2.031   3.037   2.372 -0.3160 -0.6345  0.3177
  333SOL    HW1  998   2.015   2.943   2.338  1.5984 -1.4710 -0.3555
  333SOL    HW2  999   2.039   3.031   2.472  3.2694 -1.1720 -1.9980
  334SOL     OW 1000   0.859   1.014   0.273 -0.7317 -0.2126 -0.6524
  334SOL    HW1 1001   0.897   1.099   0.310  1.9516  0.7801  1.9563
  334SOL    HW2 1002   0.916   0.935   0.302 -1.9258 -1.3807 -0.1533
  335SOL     OW 1003   0.253   2.108   2.018 -0.1981 -0.4364  0.4436
  335SOL    HW1 1004   0.333   2.061   2.057  0.8650 -0.1328 -0.6293
  335SOL    HW2 1005   0.219   2.173   2.090  0.2776 -1.1200 -0.1552
  336SOL     OW 1006   2.829   2.875   2.554  0.2357  0.4224  0.1334
  336SOL    HW1 1007   2.819   2.971   2.581 -0.6519 -1.8583  0.0704
  336SOL    HW2 1008   2.765   2.850   2.475 -2.8331 -1.3287 -3.4924
  337SOL     OW 1009   1.118   1.090   1.055 -0.1380  0.0258 -0.2721
  337SOL    HW1 1010   1.181   1.140   0.990 -0.7241  2.1574 -3.9375
  337SOL    HW2 1011   1.079   1.147   1.128  1.9060 -1.2092 -0.6547
  338SOL     OW 1012   0.844   1.843   1.005 -1.0039  0.0687  0.0688
  338SOL    HW1 1013   0.831   1.942   1.013  2.4760 -0.2423  1.3644
  338SOL    HW2 1014   0.762   1.803   1.042 -0.9489  1.6055 -1.7202
  339SOL     OW 1015   0.055   1.192   1.738 -0.3951 -0.1282 -0.2381
  339SOL    HW1 1016   3.086   1.168   1.662 -0.7960  1.1025  2.1218
  339SOL    HW2 1017   0.044   1.292   1.766 -3.5428  1.8887 -0.1076
  340SOL     OW 1018   1.367   2.988   2.217  0.1289  0.0950  0.1239
  340SOL    HW1 1019   1.399   2.977   2.310 -0.6710 -0.2263 -1.6183
  340SOL    HW2 1020   1.298   2.915   2.196 -0.4171 -0.1335 -2.9186
  341SOL     OW 1021   1.670   1.429   1.121 -0.0242  0.0576  0.0954
  341SOL    HW1 1022   1.684   1.342   1.170 -2.5807 -0.0276 -0.3219
  341SOL    HW2 1023   1.732   1.502   1.156 -2.0217 -0.5520  0.4698
  342SOL     OW 1024   3.047   1.341   0.868  0.1590 -0.1202  0.4049
  342SOL    HW1 1025   0.029   1.336   0.806 -1.8723  0.9973  0.0765
  342SOL    HW2 1026   3.073   1.343   0.971  0.4900 -1.3309 -1.9583
  343SOL     OW 1027   0.016   0.811   1.577 -0.7496 -0.4980 -0.4586
  343SOL    HW1 1028   0.087   0.802   1.648 -0.2235 -0.5452 -1.6407
  343SOL    HW2 1029   0.051   0.781   1.489  1.8260  0.5853  1.5757
  344SOL     OW 1030   1.729   0.283   1.089  0.3061 -0.0951 -0.3102
  344SOL    HW1 1031   1.817   0.325   1.108 -1.4779  1.7692  0.2536
  344SOL    HW2 1032   1.653   0.343   1.114  1.8065  2.7499 -2.5613
  345SOL     OW 1033   0.478   2.790   2.315 -0.0708  0.4692  0.6132
  345SOL    HW1 1034   0.476   2.689   2.309  0.3698  3.2763  1.7935
  345SOL    HW2 1035   0.546   2.810   2.390 -1.1510 -0.7077  2.9859
  346SOL     OW 1036   2.666   1.643   0.332 -0.0548 -0.0502 -0.1085
  346SOL    HW1 1037   2.713   1.726   0.311  0.6740  1.9353 -1.8923
  346SOL    HW2 1038   2.600   1.658   0.402  2.2550 -1.2392 -2.7271
  347SOL     OW 1039   2.441   0.119   1.908  0.3740  0.2647  0.0064
  347SOL    HW1 1040   2.518   0.080   1.855 -3.0915 -1.9724 -0.2062
  347SOL    HW2 1041   2.358   0.125   1.851  0.2094  3.5011  0.1354
  348SOL     OW 1042   1.388   1.131   1.507 -1.1100 -0.5653 -1.0226
  348SOL    HW1 1043   1.307   1.191   1.486 -2.0520  1.1348 -3.6791
  348SOL    HW2 1044   1.473   1.190   1.527  2.0012  2.4838  3.7022
  349SOL     OW 1045   2.754   0.740   1.940 -0.1584  0.9140  0.3632
  349SOL    HW1 1046   2.769   0.658   1.997  0.3549 -0.4430  1.6133
  349SOL    HW2 1047   2.837   0.765   1.882 -2.6816  1.7886 -0.7617
  350SOL     OW 1048   2.176   2.102   3.085  0.1765 -0.0793 -0.5448
  350SOL    HW1 1049   2.268   2.148   3.077 -0.0517  0.9212 -1.2508
  350SOL    HW2 1050   2.182   2.050   0.071  0.5694 -0.5714 -1.1367
  351SOL     OW 1051   0.850   0.093   1.930  0.2610  0.2161  0.1271
  351SOL    HW1 1052   0.898   0.166   1.985  1.4027  0.2596  0.7569
  351SOL    HW2 1053   0.753   0.114   1.897 -0.9649  0.7153 -1.3791
  352SOL     OW 1054   1.981   2.561   1.842 -0.2429  0.2381 -0.0322
  352SOL    HW1 1055   1.988   2.592   1.939 -0.2518 -4.1477  2.3200
  352SOL    HW2 1056   1.908   2.491   1.828 -0.8226 -0.4031 -1.6451
  353SOL     OW 1057   0.685   0.953   2.385 -0.1477 -0.2165  0.0600
  353SOL    HW1 1058   0.787   0.953   2.371 -0.1002 -0.8442 -1.1110
  353SOL    HW2 1059   0.666   0.889   2.462 -1.0036 -0.7689 -0.0352
  354SOL     OW 1060   1.036   2.024   2.738 -0.0275 -0.3445  0.3361
  354SOL    HW1 1061   1.075   1.938   2.706 -1.6862  0.6373  0.6968
  354SOL    HW2 1062   0.935   2.033   2.715 -3.1028 -0.6961  0.5970
  355SOL     OW 1063   1.873   2.837   1.047  0.1033 -0.0275 -0.3404
  355SOL    HW1 1064   1.955   2.841   0.993 -4.5588  2.2746 -1.5766
  355SOL    HW2 1065   1.866   2.916   1.113  1.8907  3.1050 -0.7315
  356SOL     OW 1066   2.379   1.261   0.144 -0.6596  0.0340  0.6349
  356SOL    HW1 1067   2.465   1.271   0.082 -0.3623 -1.0453 -0.4076
  356SOL    HW2 1068   2.382   1.334   0.219  0.6417  0.9090 -1.6891
  357SOL     OW 1069   0.034   0.002   2.236  0.1130 -0.7494 -0.1141
  357SOL    HW1 1070   0.032   3.017   2.288 -0.4400  2.8796 -2.8023
  357SOL    HW2 1071   0.007   3.086   2.137 -2.6764 -0.4402 -1.0797
  358SOL     OW 1072   0.147   1.408   0.699  0.3322 -0.4112  0.4568
  358SOL    HW1 1073   0.124   1.376   0.606  0.8917  1.8104 -1.0086
  358SOL    HW2 1074   0.160   1.507   0.682 -0.6505 -0.8454 -2.9735
  359SOL     OW 1075   2.572   0.154   2.849 -0.0894  0.3408 -0.1159
  359SOL    HW1 1076   2.611   0.225   2.784 -3.2591  1.8882 -0.4302
  359SOL    HW2 1077   2.638   0.076   2.865  0.3000  1.2236  2.3073
  360SOL     OW 1078   1.350   0.881   1.376 -0.3149 -0.6111  1.0777
  360SOL    HW1 1079   1.446   0.848   1.394 -0.4725  1.0507 -0.3841
  360SOL    HW2 1080   1.333   0.972   1.414 -0.1680 -0.2968  0.0222
  361SOL     OW 1081   2.641   2.333   1.194 -0.3985  0.0994  0.3681
  361SOL    HW1 1082   2.659   2.301   1.287 -1.2746 -2.3830 -0.5761
  361SOL    HW2 1083   2.729   2.348   1.147  0.5271 -1.2683 -0.7258
  362SOL     OW 1084   1.167   0.415   0.928  0.7926 -0.8540 -0.4840
  362SOL    HW1 1085   1.080   0.384   0.886  2.3289  0.0984  2.2852
  362SOL    HW2 1086   1.153   0.507   0.968 -0.3197  2.4771  0.3174
  363SOL     OW 1087   1.768   1.729   0.577  0.4258 -0.1550 -0.2780
  363SOL    HW1 1088   1.793   1.677   0.490  0.3679  0.7830  1.7260
  363SOL    HW2 1089   1.713   1.819   0.567 -0.8797  0.5007 -0.8248
  364SOL     OW 1090   0.506   0.517   1.437 -0.2257 -0.6015 -0.9288
  364SOL    HW1 1091   0.457   0.605   1.460  0.7842  2.3450 -3.4192
  364SOL    HW2 1092   0.588   0.538   1.374  0.6345  1.8420 -0.2000
  365SOL     OW 1093   0.248   3.037   1.013  0.0093  0.4322 -0.4658
  365SOL    HW1 1094   0.256   2.985   1.101  2.7069  0.7623  3.4253
  365SOL    HW2 1095   0.292   0.032   1.024  3.0363  1.0187  1.1519
  366SOL     OW 1096   2.863   1.489   0.086  0.4825 -0.1814  0.4294
  366SOL    HW1 1097   2.933   1.478   0.015 -0.1832  3.5122  1.4596
  366SOL    HW2 1098   2.784   1.550   0.049 -0.3041 -0.0123 -1.7075
  367SOL     OW 1099   2.181   2.620   2.484 -0.0213  0.2940 -0.5491
  367SOL    HW1 1100   2.151   2.659   2.572  0.9038 -1.1995  0.0078
  367SOL    HW2 1101   2.270   2.659   2.457 -1.7944  2.3085  1.3414
  368SOL     OW 1102   2.461   1.697   0.512  0.0922  0.3395 -0.1828
  368SOL    HW1 1103   2.519   1.722   0.593  0.6566  1.0344  0.3272
  368SOL    HW2 1104   2.362   1.683   0.533 -0.9805  1.4679  3.7188
  369SOL     OW 1105   1.839   0.706   2.668 -0.3008  0.4549  0.6023
  369SOL    HW1 1106   1.933   0.748   2.683 -3.5353 -0.8643  3.0395
  369SOL    HW2 1107   1.771   0.752   2.729 -0.1924  0.7214 -0.9349
  370SOL     OW 1108   0.359   0.177   1.044 -0.3524  0.1446 -0.1194
  370SOL    HW1 1109   0.327   0.254   1.104  1.0879 -0.3692  1.1424
  370SOL    HW2 1110   0.456   0.187   1.014 -4.3472 -0.7003  0.0358
  371SOL     OW 1111   2.788   1.525   2.758  0.4795 -0.4113 -0.0251
  371SOL    HW1 1112   2.776   1.489   2.854  2.1418  1.0552 -0.4493
  371SOL    HW2 1113   2.850   1.604   2.750  0.2202 -1.9359 -0.7732
  372SOL     OW 1114   0.613   0.572   2.345 -0.1660 -0.2280  0.3187
  372SOL    HW1 1115   0.641   0.482   2.314 -0.9332  0.5967  0.4180
  372SOL    HW2 1116   0.635   0.640   2.271  1.2894  4.9362  0.0582
  373SOL     OW 1117   0.496   0.163   2.969  0.8240  0.0457 -0.5191
  373SOL    HW1 1118   0.415   0.141   2.913  0.7460  1.2936 -0.7166
  373SOL    HW2 1119   0.580   0.132   2.924 -1.6548  1.0156 -2.0560
  374SOL     OW 1120   0.901   1.502   2.687 -0.1813  0.1950  0.1922
  374SOL    HW1 1121   0.980   1.454   2.735  3.1164  1.1727  3.3812
  374SOL    HW2 1122   0.921   1.601   2.684  0.6526 -1.3298  0.4173
  375SOL     OW 1123   0.879   0.471   2.016  0.2834 -0.5866  0.3719
  375SOL    HW1 1124   0.917   0.441   1.923  2.4318  1.6506 -0.8618
  375SOL    HW2 1125   0.909   0.396   2.077  1.4040  1.7385 -0.2440
  376SOL     OW 1126   0.295   2.606   1.779  0.1103  0.1788  0.1427
  376SOL    HW1 1127   0.348   2.694   1.779  2.7964 -1.0141  0.6405
  376SOL    HW2 1128   0.353   2.542   1.828 -1.1919  0.8978 -0.9200
  377SOL     OW 1129   2.650   2.404   2.851 -0.3464 -0.4894  0.2339
  377SOL    HW1 1130   2.555   2.435   2.869  0.8981 -0.6093 -1.6647
  377SOL    HW2 1131   2.655   2.303   2.850  1.9779  1.6402 -0.8193
  378SOL     OW 1132   1.959   0.273   0.143 -0.0082 -0.0036  0.4748
  378SOL    HW1 1133   1.937   0.187   0.192 -0.9508 -2.0034 -0.2392
  378SOL    HW2 1134   2.046   0.260   0.095 -0.9859 -0.7626 -1.7322
  379SOL     OW 1135   1.613   0.737   0.284 -0.0114 -0.2335  0.1371
  379SOL    HW1 1136   1.695   0.694   0.329  3.7443  3.1717 -3.6173
  379SOL    HW2 1137   1.648   0.816   0.224  4.8424  1.0057 -1.2161
  380SOL     OW 1138   2.568   2.012   1.705 -0.0988 -0.3370  0.0813
  380SOL    HW1 1139   2.572   2.044   1.611 -4.4521 -2.5327  3.6104
  380SOL    HW2 1140   2.483   1.961   1.736 -1.1941 -0.2984 -0.0432
  381SOL     OW 1141   2.562   1.366   2.129 -0.0936  0.1051 -0.3263
  381SOL    HW1 1142   2.603   1.447   2.080  1.3781 -0.2365 -1.4586
  381SOL    HW2 1143   2.485   1.339   2.071  0.4103  1.2420  0.9454
  382SOL     OW 1144   2.914   2.304   2.594  0.1549  0.2414  0.2957
  382SOL    HW1 1145   2.918   2.256   2.679  1.7966  0.3348 -2.5626
  382SOL    HW2 1146   2.953   2.248   2.521  1.0278  0.8474 -0.0458
  383SOL     OW 1147   1.161   1.022   2.743 -0.2035  0.4048  0.7257
  383SOL    HW1 1148   1.136   0.926   2.758 -1.4015 -0.5637  0.8926
  383SOL    HW2 1149   1.181   1.076   2.831 -4.6689  1.7698 -0.8498
  384SOL     OW 1150   1.860   1.906   2.367 -0.5971  0.1115  0.4100
  384SOL    HW1 1151   1.768   1.951   2.352 -2.7899  0.0740 -2.6964
  384SOL    HW2 1152   1.939   1.969   2.353 -0.8627  0.3259  2.1509
  385SOL     OW 1153   2.063   2.724   0.449 -0.1169 -0.3704 -0.0029
  385SOL    HW1 1154   1.977   2.671   0.439 -1.7463  0.8612 -1.2968
  385SOL    HW2 1155   2.038   2.813   0.496  1.5003  3.2876  2.5777
  386SOL     OW 1156   1.931   1.270   0.613  0.1202 -0.2397  0.0164
  386SOL    HW1 1157   1.925   1.206   0.694  2.4743 -0.1893 -2.0695
  386SOL    HW2 1158   1.878   1.224   0.535 -1.4593 -1.0204 -0.8605
  387SOL     OW 1159   2.587   1.659   1.158 -0.5581 -0.0577  0.1205
  387SOL    HW1 1160   2.548   1.664   1.250  0.8341 -3.5940 -0.6938
  387SOL    HW2 1161   2.683   1.625   1.158  0.9108 -0.8350  0.6158
  388SOL     OW 1162   0.265   1.200   1.579 -0.7001  0.1889 -0.2966
  388SOL    HW1 1163   0.336   1.225   1.645 -0.6808  0.7030 -2.1543
  388SOL    HW2 1164   0.179   1.187   1.631 -1.1661 -0.8307 -1.1088
  389SOL     OW 1165   2.196   0.983   2.938  0.4427  0.1714  0.4570
  389SOL    HW1 1166   2.135   0.911   2.895 -0.2031 -0.5467  0.1820
  389SOL    HW2 1167   2.221   1.057   2.877 -0.9902 -2.0889  2.4206
  390SOL     OW 1168   0.724   1.507   2.904  0.8686  0.0395  0.4403
  390SOL    HW1 1169   0.780   1.516   2.822 -0.9601  5.2859 -0.1323
  390SOL    HW2 1170   0.777   1.501   2.991 -2.5909 -1.3538  1.6444
  391SOL     OW 1171   0.826   2.024   0.148 -0.1575  0.2571 -0.5218
  391SOL    HW1 1172   0.888   2.041   0.069 -0.1728  0.0265 -1.1736
  391SOL    HW2 1173   0.729   2.055   0.126 -0.5793 -2.5994 -1.6431
  392SOL     OW 1174   2.740   2.527   2.211  0.4966  0.1317 -0.7061
  392SOL    HW1 1175   2.705   2.476   2.293 -0.6413 -1.4447 -2.1618
  392SOL    HW2 1176   2.833   2.496   2.177  0.5088 -0.6976 -1.1908
  393SOL     OW 1177   1.297   2.292   0.233 -0.4417  0.0761 -0.1963
  393SOL    HW1 1178   1.338   2.261   0.325  0.1996 -0.6861  0.4083
  393SOL    HW2 1179   1.266   2.211   0.184 -0.7016 -2.1109  2.5544
  394SOL     OW 1180   0.498   0.076   2.576 -0.5124  0.0353 -0.5910
  394SOL    HW1 1181   0.437   0.131   2.518  1.1407 -2.3314  2.6415
  394SOL    HW2 1182   0.470   0.081   2.674 -0.2528 -1.0726  2.6588
  395SOL     OW 1183   0.479   1.402   1.096  0.2241 -0.0714 -0.1556
  395SOL    HW1 1184   0.403   1.385   1.034  1.8521 -3.6156  1.0983
  395SOL    HW2 1185   0.440   1.445   1.180 -1.2546  0.7183 -0.1059
  396SOL     OW 1186   1.995   1.474   3.020  0.4771 -0.3654  0.3176
  396SOL    HW1 1187   1.898   1.465   3.044 -0.2444  2.5414 -0.7495
  396SOL    HW2 1188   2.014   1.425   2.930 -0.8868 -1.7171 -0.9968
  397SOL     OW 1189   0.260   0.698   2.872  0.0551  0.1159  0.3239
  397SOL    HW1 1190   0.166   0.656   2.879 -0.0454 -0.8392 -1.2944
  397SOL    HW2 1191   0.309   0.712   2.959  0.0184 -0.7572 -2.0094
  398SOL     OW 1192   1.032   2.614   0.448  0.3031  0.6241  0.5526
  398SOL    HW1 1193   1.098   2.572   0.378 -1.2727 -1.5351 -0.1606
  398SOL    HW2 1194   0.945   2.565   0.446  0.4014  2.1625  1.5575
  399SOL     OW 1195   1.932   2.285   2.424  0.5133 -0.7120 -0.3026
  399SOL    HW1 1196   1.886   2.351   2.364 -1.2218  0.4884  2.2425
  399SOL    HW2 1197   1.961   2.197   2.377  1.6145  0.0203  1.9635
  400SOL     OW 1198   2.458   1.466   1.422 -0.3162 -0.7360  0.2965
  400SOL    HW1 1199   2.358   1.438   1.414 -1.7628 -3.3279  0.2619
  400SOL    HW2 1200   2.511   1.399   1.474 -2.4056  1.8190 -3.4462
  401SOL     OW 1201   1.570   0.996   1.052 -0.8054  0.3053  0.3220
  401SOL    HW1 1202   1.492   0.931   1.040  1.6781 -1.3442 -0.5907
  401SOL    HW2 1203   1.540   1.070   1.111  0.9617 -1.3638  3.6705
  402SOL     OW 1204   0.281   2.848   2.515 -0.0074  0.1764 -0.3666
  402SOL    HW1 1205   0.351   2.847   2.439  1.5999  0.5116  0.7974
  402SOL    HW2 1206   0.298   2.770   2.578  0.4385  1.1904 -0.3366
  403SOL     OW 1207   2.776   1.644   1.575 -0.5810  0.4741  0.5140
  403SOL    HW1 1208   2.808   1.554   1.544 -0.2412 -0.9398  0.0842
  403SOL    HW2 1209   2.683   1.662   1.533  2.2179  1.5346 -1.7797
  404SOL     OW 1210   2.315   1.903   1.774  0.2773 -0.0551  0.3487
  404SOL    HW1 1211   2.230   1.915   1.826  0.0634  2.5763  0.7128
  404SOL    HW2 1212   2.285   1.894   1.676 -1.0095  1.3379  1.3462
  405SOL     OW 1213   2.273   0.498   2.426 -0.0201 -0.0294 -0.5917
  405SOL    HW1 1214   2.247   0.487   2.325  0.0802 -0.4797 -2.1894
  405SOL    HW2 1215   2.307   0.414   2.463  2.2244  1.1188 -2.0857
  406SOL     OW 1216   0.844   1.302   2.445 -0.0135 -0.2137 -0.2119
  406SOL    HW1 1217   0.893   1.220   2.481 -2.8095 -2.4748 -1.4181
  406SOL    HW2 1218   0.756   1.316   2.496 -0.0248  0.6588 -1.2261
  407SOL     OW 1219   1.939   2.146   0.638  0.2699 -0.0285  0.2777
  407SOL    HW1 1220   1.966   2.071   0.575  2.7061  0.0967 -0.2042
  407SOL    HW2 1221   2.024   2.175   0.684 -1.6777  0.7438 -1.5560
  408SOL     OW 1222   0.199   3.095   0.732  0.0534  0.2101  0.4621
  408SOL    HW1 1223   0.221   3.044   0.818  1.3390 -1.1189  2.2920
  408SOL    HW2 1224   0.139   3.040   0.674  0.9852  0.3376  2.9184
  409SOL     OW 1225   2.067   1.480   0.729 -0.3248  0.1715  0.3228
  409SOL    HW1 1226   2.062   1.438   0.821 -0.9846 -1.7328 -0.5954
  409SOL    HW2 1227   2.008   1.428   0.663  1.8570  0.6125  0.0830
  410SOL     OW 1228   2.040   2.340   3.070  0.1125  0.2224  0.3882
  410SOL    HW1 1229   2.089   2.249   3.078 -0.2637 -1.9759 -0.2006
  410SOL    HW2 1230   2.005   2.375   0.061 -0.5917  1.3876 -0.3030
  411SOL     OW 1231   3.087   2.922   0.598 -0.1171 -0.0515  0.6274
  411SOL    HW1 1232   3.079   2.899   0.697 -1.8370 -0.7257 -0.9783
  411SOL    HW2 1233   2.999   2.898   0.554  0.6150  0.2910  2.2773
  412SOL     OW 1234   1.602   2.645   0.830  0.1998  0.6225 -0.2364
  412SOL    HW1 1235   1.516   2.626   0.780  3.8556  2.6328  1.5074
  412SOL    HW2 1236   1.627   2.743   0.821  0.5479 -2.0651 -1.5801
  413SOL     OW 1237   1.830   0.198   2.628  0.5775 -0.0007 -0.0530
  413SOL    HW1 1238   1.797   0.139   2.549  0.4138  0.4949 -0.3300
  413SOL    HW2 1239   1.832   0.133   2.707  0.2503 -3.1472  1.0395
  414SOL     OW 1240   0.392   0.878   0.377 -0.4230 -0.1616 -0.1482
  414SOL    HW1 1241   0.324   0.953   0.353 -2.7439  1.4751  0.0405
  414SOL    HW2 1242   0.468   0.884   0.312 -3.6221 -1.2917  1.3973
  415SOL     OW 1243   0.156   1.154   1.238 -0.4054 -0.0622 -0.1529
  415SOL    HW1 1244   0.243   1.110   1.269  1.5823 -2.0862 -0.8509
  415SOL    HW2 1245   0.090   1.080   1.219  2.8963 -0.4472 -0.3158
  416SOL     OW 1246   0.177   0.405   0.004  0.2817  0.3599 -0.6234
  416SOL    HW1 1247   0.274   0.417   3.075 -2.5312 -0.0546  2.5387
  416SOL    HW2 1248   0.138   0.493   0.044  2.0860  0.2892 -0.8138
  417SOL     OW 1249   2.246   0.155   0.745 -0.2305 -0.2109 -0.0160
  417SOL    HW1 1250   2.238   0.250   0.778 -1.3503  1.3655 -1.7412
  417SOL    HW2 1251   2.161   0.105   0.773  0.7386 -1.2220  1.6629
  418SOL     OW 1252   0.501   0.663   2.563  0.2696 -0.3633 -0.8105
  418SOL    HW1 1253   0.573   0.689   2.633  1.1578  0.0227 -0.0140
  418SOL    HW2 1254   0.546   0.621   2.478 -1.1163 -0.4122 -1.6265
  419SOL     OW 1255   0.515   0.870   0.620  0.0569  0.0090 -0.6333
  419SOL    HW1 1256   0.477   0.852   0.528 -3.9779 -0.6753  0.1942
  419SOL    HW2 1257   0.440   0.885   0.684  2.3253 -0.6103 -4.0279
  420SOL     OW 1258   2.159   1.688   1.330  0.0536  0.0453 -0.5735
  420SOL    HW1 1259   2.126   1.773   1.280 -2.5895 -1.2034 -0.7845
  420SOL    HW2 1260   2.211   1.628   1.263  3.9744  1.0542 -0.6687
  421SOL     OW 1261   1.150   1.783   2.614  0.3323  0.2701  0.0303
  421SOL    HW1 1262   1.195   1.701   2.576 -0.9340 -0.5351  1.1836
  421SOL    HW2 1263   1.047   1.779   2.591 -0.8469  1.5798  0.0687
  422SOL     OW 1264   2.528   0.643   0.031  0.0515  0.1609 -0.2920
  422SOL    HW1 1265   2.507   0.652   0.127 -1.7476 -2.4043 -1.2727
  422SOL    HW2 1266   2.627   0.639   0.007 -0.4300 -1.3622  0.9559
  423SOL     OW 1267   1.818   1.668   0.321 -0.2348  0.2540  0.6267
  423SOL    HW1 1268   1.807   1.738   0.247 -0.1834 -0.6640 -3.3053
  423SOL    HW2 1269   1.751   1.593   0.301 -0.3133  0.6913  0.0870
  424SOL     OW 1270   0.821   1.327   1.771 -0.5039 -0.0639  0.4800
  424SOL    HW1 1271   0.823   1.302   1.672  1.9818 -1.3449 -0.7384
  424SOL    HW2 1272   0.781   1.255   1.826 -1.3904  2.6225 -0.3250
  425SOL     OW 1273   2.672   2.777   2.360 -0.3882  0.0118  0.0949
  425SOL    HW1 1274   2.573   2.771   2.384 -0.9186  0.0111 -0.2423
  425SOL    HW2 1275   2.704   2.689   2.310 -0.4956  0.3572  1.8267
  426SOL     OW 1276   1.818   2.612   0.409 -0.4221  0.0705 -0.6787
  426SOL    HW1 1277   1.765   2.690   0.375  2.3128  0.3214  0.5548
  426SOL    HW2 1278   1.784   2.590   0.502  0.1945 -1.9334  0.8523
  427SOL     OW 1279   0.345   0.496   2.709 -0.2109  0.1197  0.4544
  427SOL    HW1 1280   0.408   0.534   2.637  0.8674  0.9323 -0.4127
  427SOL    HW2 1281   0.313   0.569   2.770  1.1573 -1.1691  1.1741
  428SOL     OW 1282   2.271   1.246   2.861  0.3046  0.1547 -0.1014
  428SOL    HW1 1283   2.347   1.263   2.794  2.7270  0.1212 -0.1583
  428SOL    HW2 1284   2.190   1.309   2.852  2.0594  1.0222 -1.5353
  429SOL     OW 1285   2.967   0.253   0.466  0.2344  1.1006  0.2838
  429SOL    HW1 1286   2.911   0.175   0.435  0.3781  0.0027 -1.5755
  429SOL    HW2 1287   3.008   0.223   0.553 -0.6604  1.3041 -1.0407
  430SOL     OW 1288   1.056   2.880   1.933  0.8536  0.0540 -0.1768
  430SOL    HW1 1289   1.034   2.794   1.982  0.0664 -0.6096 -0.0567
  430SOL    HW2 1290   0.999   2.892   1.851  0.3865  1.5859  1.2144
  431SOL     OW 1291   0.005   1.939   1.322  0.0660 -0.0245 -0.4763
  431SOL    HW1 1292   3.065   1.847   1.319  1.2357  0.2401  1.2149
  431SOL    HW2 1293   3.037   1.995   1.261 -1.0228 -2.5644 -0.2470
  432SOL     OW 1294   2.321   2.744   2.150  0.6139  0.0089 -0.4919
  432SOL    HW1 1295   2.405   2.692   2.118 -2.6313 -0.6012  0.6424
  432SOL    HW2 1296   2.309   2.837   2.114 -1.4795 -2.7425 -0.9304
  433SOL     OW 1297   1.212   2.068   0.067  0.4070 -0.1033 -0.8002
  433SOL    HW1 1298   1.284   2.030   0.007 -2.0976  1.6501  1.5982
  433SOL    HW2 1299   1.195   2.003   0.145  1.2453 -1.1064  1.1709
  434SOL     OW 1300   0.115   2.226   2.698  0.3869 -0.1433 -0.0396
  434SOL    HW1 1301   0.107   2.211   2.600 -0.4621 -0.7358 -0.1622
  434SOL    HW2 1302   0.184   2.301   2.706  0.8494  0.6679  1.0146
  435SOL     OW 1303   3.044   1.097   0.583  0.0301 -0.4052 -0.1356
  435SOL    HW1 1304   2.961   1.039   0.597 -2.2562 -1.2735 -0.5590
  435SOL    HW2 1305   3.007   1.192   0.577 -0.1282  0.6834  0.2705
  436SOL     OW 1306   0.601   2.778   2.005 -0.0413 -0.0717 -0.1061
  436SOL    HW1 1307   0.679   2.843   2.022 -0.8868  1.7991 -0.4164
  436SOL    HW2 1308   0.528   2.822   1.952  0.0657  0.0574 -0.6786
  437SOL     OW 1309   1.262   2.290   1.078  0.6793 -0.1937 -0.2195
  437SOL    HW1 1310   1.352   2.247   1.046  1.0633 -3.0849 -0.8882
  437SOL    HW2 1311   1.191   2.219   1.094  0.8587  1.1344 -2.4226
  438SOL     OW 1312   0.250   2.203   0.838 -0.1260 -0.0918 -0.2015
  438SOL    HW1 1313   0.230   2.209   0.738  0.8240  1.9441  1.6616
  438SOL    HW2 1314   0.172   2.157   0.883 -0.9680  1.6211 -2.6803
  439SOL     OW 1315   0.794   2.653   1.627 -0.4057 -0.3702 -0.0128
  439SOL    HW1 1316   0.889   2.661   1.586  2.8821 -0.6828 -3.7737
  439SOL    HW2 1317   0.742   2.585   1.576  0.1783  0.5482  1.0249
  440SOL     OW 1318   1.971   2.770   2.353 -0.4750  0.3258  0.1803
  440SOL    HW1 1319   2.007   2.767   2.260 -4.4917 -4.5752  1.8529
  440SOL    HW2 1320   2.034   2.714   2.416  1.2799  0.6362  1.0559
  441SOL     OW 1321   0.143   0.555   1.989  0.0042 -0.2450  0.8492
  441SOL    HW1 1322   0.163   0.611   1.903  0.0406  1.4788  2.2496
  441SOL    HW2 1323   0.048   0.572   2.022 -0.1366  0.2582 -0.7023
  442SOL     OW 1324   1.856   2.493   0.164 -0.0394  0.0613  0.0155
  442SOL    HW1 1325   1.860   2.527   0.257  2.4212 -0.6840 -3.5987
  442SOL    HW2 1326   1.761   2.493   0.125 -1.0635 -0.7266  0.8327
  443SOL     OW 1327   3.005   1.016   2.760  0.0179 -0.5592 -0.5586
  443SOL    HW1 1328   0.007   1.008   2.773 -1.5185  0.6552 -0.5160
  443SOL    HW2 1329   2.970   1.078   2.840  1.3866  4.2019  0.1333
  444SOL     OW 1330   1.693   1.213   2.202  0.0329  0.0890  0.3872
  444SOL    HW1 1331   1.620   1.187   2.131  0.1753  1.9278  4.6493
  444SOL    HW2 1332   1.681   1.307   2.236  0.0205 -0.4092  1.3659
  445SOL     OW 1333   0.140   2.572   1.162 -0.3816 -0.3087 -0.3578
  445SOL    HW1 1334   0.069   2.541   1.226  1.0042 -1.1338 -1.3640
  445SOL    HW2 1335   0.105   2.578   1.070 -3.0687 -1.1945 -0.0457
  446SOL     OW 1336   2.838   1.574   1.154  0.0951 -0.6196  0.3026
  446SOL    HW1 1337   2.847   1.471   1.163 -1.1429 -1.3031  0.2518
  446SOL    HW2 1338   2.894   1.602   1.076 -2.2264 -1.7020  1.8189
  447SOL     OW 1339   0.128   0.988   0.420 -0.0031 -0.5078  0.3448
  447SOL    HW1 1340   0.171   1.073   0.386  0.8183  1.8775 -1.2587
  447SOL    HW2 1341   0.048   1.014   0.481 -1.5858 -1.0947  1.6532
  448SOL     OW 1342   1.191   2.243   2.059  0.1722  0.5088  0.3911
  448SOL    HW1 1343   1.195   2.337   2.023 -0.7465  1.4248  1.3564
  448SOL    HW2 1344   1.260   2.222   2.126 -0.1336  0.7698 -2.6441
  449SOL     OW 1345   1.107   1.619   0.311  0.2949  0.1372 -0.4275
  449SOL    HW1 1346   1.111   1.559   0.394 -1.8462  0.2045 -1.4739
  449SOL    HW2 1347   1.027   1.591   0.262  2.1183 -0.8880 -0.1241
  450SOL     OW 1348   2.885   2.730   1.946 -0.4081  0.2204  0.1387
  450SOL    HW1 1349   2.896   2.712   2.046 -2.2823 -0.9128  1.0537
  450SOL    HW2 1350   2.819   2.808   1.941  0.0792 -0.7905  0.7982
  451SOL     OW 1351   2.309   0.716   2.560 -0.0874 -0.8301 -0.0884
  451SOL    HW1 1352   2.405   0.752   2.560  0.8952  1.4719 -0.8059
  451SOL    HW2 1353   2.304   0.637   2.493  2.0449  0.1775  2.8794
  452SOL     OW 1354   1.766   0.475   0.669  0.4246 -0.3136  0.2685
  452SOL    HW1 1355   1.736   0.382   0.645 -0.3253 -0.1290 -1.8029
  452SOL    HW2 1356   1.848   0.474   0.726 -0.0386 -2.8111 -1.0961
  453SOL     OW 1357   1.882   0.904   1.389  0.5703 -0.0906 -0.2847
  453SOL    HW1 1358   1.848   0.986   1.441  1.5025  1.1415  2.0895
  453SOL    HW2 1359   1.965   0.917   1.330  0.3381  0.4972 -2.0186
  454SOL     OW 1360   2.996   1.363   0.280 -0.2545 -0.0188  0.1310
  454SOL    HW1 1361   2.923   1.370   0.351 -0.5978 -1.5389 -1.2374
  454SOL    HW2 1362   2.965   1.394   0.189 -0.4341 -0.8706  0.6713
  455SOL     OW 1363   2.581   2.806   1.346 -0.0416  0.3394  0.4661
  455SOL    HW1 1364   2.621   2.898   1.348  0.4273 -0.3514  0.2940
  455SOL    HW2 1365   2.518   2.798   1.267 -2.4544  2.2518  1.7860
  456SOL     OW 1366   0.146   2.900   1.687 -0.1099 -0.0440  0.2056
  456SOL    HW1 1367   0.197   2.832   1.636 -0.5489  3.9215  3.7726
  456SOL    HW2 1368   0.053   2.870   1.720 -2.1896 -0.6648  1.9171
  457SOL     OW 1369   1.413   3.024   0.512 -0.2395  0.0434  0.2790
  457SOL    HW1 1370   1.402   3.086   0.427 -1.4235  1.0112 -3.3838
  457SOL    HW2 1371   1.375   3.064   0.593  1.0298 -1.2619 -4.9052
  458SOL     OW 1372   2.600   2.709   0.920  0.5993 -0.5408  0.0276
  458SOL    HW1 1373   2.509   2.662   0.906 -0.7174 -0.6024  1.7357
  458SOL    HW2 1374   2.591   2.754   1.015 -1.9055  3.1870  1.7272
  459SOL     OW 1375   2.460   0.356   3.014 -0.2254  0.2079  0.0656
  459SOL    HW1 1376   2.483   0.453   2.990 -1.2692 -0.1849 -1.3124
  459SOL    HW2 1377   2.499   0.287   2.945  2.2045 -2.5474 -2.5407
  460SOL     OW 1378   2.328   2.821   2.922 -0.2580  0.2075  0.3400
  460SOL    HW1 1379   2.332   2.921   2.912  0.0892 -2.1836  0.0722
  460SOL    HW2 1380   2.388   2.780   2.851  0.6340 -1.2727 -1.1790
  461SOL     OW 1381   0.704   1.763   0.317 -0.3676 -0.1780 -0.3180
  461SOL    HW1 1382   0.750   1.780   0.406 -1.6774 -2.0793 -2.4765
  461SOL    HW2 1383   0.751   1.811   0.241  0.2227 -2.7511  1.5435
  462SOL     OW 1384   2.087   1.976   0.937 -0.3387  0.0821  0.5368
  462SOL    HW1 1385   2.123   1.930   0.852 -0.4598 -0.1668 -1.6800
  462SOL    HW2 1386   2.092   2.078   0.932  1.1200 -0.6594  1.3817
  463SOL     OW 1387   2.736   0.991   0.750  0.0619  0.2848 -0.1491
  463SOL    HW1 1388   2.801   0.916   0.737  1.2562 -0.9103  0.5789
  463SOL    HW2 1389   2.660   0.965   0.814 -0.5321  0.4959  0.6690
  464SOL     OW 1390   1.126   2.944   0.936 -0.2252  0.3030 -0.0820
  464SOL    HW1 1391   1.120   2.977   0.840 -1.1864  0.5729 -2.3610
  464SOL    HW2 1392   1.075   2.852   0.944 -2.9554 -1.9856 -0.3643
  465SOL     OW 1393   2.331   1.454   0.328 -0.2161 -0.0855 -0.3227
  465SOL    HW1 1394   2.374   1.535   0.372  2.1413 -1.2850  1.2351
  465SOL    HW2 1395   2.261   1.482   0.258 -0.0837 -3.1877 -0.9924
  466SOL     OW 1396   2.082   0.248   2.719  0.1708 -0.2337 -0.0111
  466SOL    HW1 1397   2.086   0.326   2.790 -1.0230  1.4796  1.8055
  466SOL    HW2 1398   1.995   0.240   2.665 -3.5535 -1.4901  0.2586
  467SOL     OW 1399   0.798   0.952   1.644  0.1713  0.3562  0.6141
  467SOL    HW1 1400   0.864   0.965   1.722 -0.5020 -2.7391  1.4802
  467SOL    HW2 1401   0.796   0.855   1.611 -1.4667  1.3778 -0.2744
  468SOL     OW 1402   0.175   1.031   2.791 -0.1823  0.3514 -0.2978
  468SOL    HW1 1403   0.199   1.033   2.888  2.2168  4.3739 -0.6431
  468SOL    HW2 1404   0.254   1.041   2.735  0.3675 -0.9083  1.2860
  469SOL     OW 1405   0.520   2.222   0.481 -0.2689  0.6067  0.1757
  469SOL    HW1 1406   0.522   2.281   0.401 -0.3161  0.2436  1.7231
  469SOL    HW2 1407   0.561   2.271   0.560 -1.2867 -0.5461  0.5389
  470SOL     OW 1408   2.537   1.534   2.592  0.4336 -0.1575 -0.1336
  470SOL    HW1 1409   2.637   1.545   2.602  1.0489 -3.1588 -1.6326
  470SOL    HW2 1410   2.511   1.510   2.498  0.9321 -0.6084 -1.0855
  471SOL     OW 1411   2.751   1.174   2.202 -0.2151  0.5006 -0.2978
  471SOL    HW1 1412   2.685   1.245   2.174  0.0360 -1.6439  1.2802
  471SOL    HW2 1413   2.752   1.097   2.131  0.2723 -0.3192 -0.5133
  472SOL     OW 1414   0.574   2.796   0.667  0.5685  0.5478 -0.2599
  472SOL    HW1 1415   0.625   2.768   0.583 -0.1478 -0.3140  2.4107
  472SOL    HW2 1416   0.475   2.811   0.644  0.2405  0.3059 -0.4097
  473SOL     OW 1417   0.753   0.079   0.047 -0.1363  0.2155 -0.1040
  473SOL    HW1 1418   0.656   0.074   0.085 -1.5773  1.3205  1.2972
  473SOL    HW2 1419   0.755   0.072   3.045 -1.5684  2.9363  0.4674
  474SOL     OW 1420   1.818   0.111   1.954  0.3530 -0.4222  0.0414
  474SOL    HW1 1421   1.750   0.170   1.903  1.6668  0.8312  0.1238
  474SOL    HW2 1422   1.839   0.165   2.036 -1.9027 -2.5323  3.0133
  475SOL     OW 1423   1.130   2.500   0.231 -0.2969  0.0343  0.7509
  475SOL    HW1 1424   1.082   2.496   0.148  3.8707 -1.3703  0.2805
  475SOL    HW2 1425   1.201   2.422   0.236  0.9606 -0.7337 -1.5833
  476SOL     OW 1426   0.692   1.090   0.567  0.0604 -0.1827  0.3768
  476SOL    HW1 1427   0.672   0.993   0.548 -2.2632  1.6563  3.8327
  476SOL    HW2 1428   0.612   1.130   0.608  1.5760 -1.2397 -0.3606
  477SOL     OW 1429   1.602   2.497   1.340 -0.4468 -0.2776 -0.2729
  477SOL    HW1 1430   1.505   2.480   1.334  0.0710  0.9717 -1.0876
  477SOL    HW2 1431   1.638   2.522   1.252  2.0683 -1.4642  2.8032
  478SOL     OW 1432   0.420   1.750   2.512 -0.2866 -0.3409  0.6599
  478SOL    HW1 1433   0.502   1.689   2.502 -0.3865  1.6703 -2.3516
  478SOL    HW2 1434   0.357   1.717   2.585  3.4675  0.5071  0.9170
  479SOL     OW 1435   2.943   0.005   1.308 -0.4340 -0.4710  0.5427
  479SOL    HW1 1436   3.026   0.062   1.325  0.5422 -0.4859  1.5714
  479SOL    HW2 1437   2.946   3.013   1.355  1.8378 -1.0556 -0.8226
  480SOL     OW 1438   2.858   2.840   0.478  0.1440 -0.0280 -0.2181
  480SOL    HW1 1439   2.807   2.762   0.512  1.7589  0.6781 -0.8121
  480SOL    HW2 1440   2.872   2.839   0.378  2.1578  0.9058  3.4211
  481SOL     OW 1441   2.785   2.515   0.877  0.4925  0.9029  0.5498
  481SOL    HW1 1442   2.716   2.588   0.877 -0.7995 -0.8357 -1.9211
  481SOL    HW2 1443   2.747   2.426   0.844 -0.8916  1.3967  0.7317
  482SOL     OW 1444   1.251   2.336   2.501  0.1593 -0.2921  0.3861
  482SOL    HW1 1445   1.300   2.296   2.424 -1.3848  3.8176  0.3551
  482SOL    HW2 1446   1.246   2.262   2.571  2.3277  0.7258 -1.2645
  483SOL     OW 1447   0.526   1.996   2.578 -0.1429 -0.0025  0.1693
  483SOL    HW1 1448   0.474   1.911   2.551 -1.2998 -2.3595 -1.3410
  483SOL    HW2 1449   0.509   2.069   2.505 -0.2344  2.4029 -1.4606
  484SOL     OW 1450   1.105   1.231   2.036  0.3654  0.8385 -0.2878
  484SOL    HW1 1451   1.125   1.178   1.951  0.1012 -0.4927 -1.3304
  484SOL    HW2 1452   1.176   1.223   2.106  1.1047  2.9916 -2.4118
  485SOL     OW 1453   2.526   0.392   0.550 -0.1054  0.5774  0.2488
  485SOL    HW1 1454   2.535   0.312   0.484  1.6571 -0.8351 -0.6345
  485SOL    HW2 1455   2.431   0.401   0.585 -0.5416 -0.4495 -0.3531
  486SOL     OW 1456   1.677   2.899   0.840  0.3781  0.7238 -0.7861
  486SOL    HW1 1457   1.761   2.909   0.903  1.3131  1.1890 -0.6320
  486SOL    HW2 1458   1.665   2.977   0.778  0.2894 -2.1645 -0.8825
  487SOL     OW 1459   0.511   2.114   0.858 -0.1998 -0.3687 -0.1273
  487SOL    HW1 1460   0.584   2.173   0.884  0.2988 -1.1565 -2.3818
  487SOL    HW2 1461   0.423   2.159   0.863  1.6441 -0.6132 -1.0195
  488SOL     OW 1462   2.692   1.384   0.271  0.3240 -0.2861 -0.6533
  488SOL    HW1 1463   2.764   1.381   0.197 -1.0603 -1.0552  1.3423
  488SOL    HW2 1464   2.682   1.483   0.293  0.1340 -3.1422 -0.2093
  489SOL     OW 1465   1.448   3.028   0.936  0.6600 -0.5265 -0.1028
  489SOL    HW1 1466   1.520   2.961   0.915  0.1016  1.2604  1.1624
  489SOL    HW2 1467   1.364   2.990   0.980  0.8900 -0.2773  1.5818
  490SOL     OW 1468   1.124   0.998   0.103 -0.5251  0.5508 -0.3765
  490SOL    HW1 1469   1.182   0.926   0.144  0.2170 -0.7298 -1.0864
  490SOL    HW2 1470   1.109   1.069   0.172 -1.4430 -1.8490 -0.7867
  491SOL     OW 1471   0.637   2.364   0.669  0.1837 -0.1851 -0.2133
  491SOL    HW1 1472   0.558   2.410   0.717  1.7888  3.0644 -0.2671
  491SOL    HW2 1473   0.700   2.328   0.743  0.4189 -1.2055  1.2562
  492SOL     OW 1474   1.423   1.386   2.188  0.2052 -0.5445 -0.1089
  492SOL    HW1 1475   1.491   1.454   2.217  2.7633  1.1668  0.1299
  492SOL    HW2 1476   1.364   1.357   2.268 -0.3704 -1.5998  3.5774
  493SOL     OW 1477   0.015   2.391   0.744 -0.0457 -0.8405 -0.1381
  493SOL    HW1 1478   0.091   2.341   0.787 -2.3981  0.2751  0.4039
  493SOL    HW2 1479   3.092   2.473   0.803 -2.3064 -0.3627 -0.6912
  494SOL     OW 1480   2.677   2.131   2.902  0.3960 -0.2509  0.1999
  494SOL    HW1 1481   2.681   2.066   2.827  2.8939  1.1115  0.7015
  494SOL    HW2 1482   2.743   2.107   2.974 -2.6146  5.9408 -1.5159
  495SOL     OW 1483   2.496   1.750   2.752 -0.2268 -0.5934  0.9982
  495SOL    HW1 1484   2.531   1.824   2.695  1.2196 -1.6309  0.4185
  495SOL    HW2 1485   2.502   1.659   2.704 -0.4034 -0.1087  0.8234
  496SOL     OW 1486   2.577   0.230   1.568 -0.0711 -0.6608 -0.0445
  496SOL    HW1 1487   2.478   0.260   1.563 -0.8155  0.9491  1.2938
  496SOL    HW2 1488   2.630   0.265   1.491  0.5017  2.2844  1.6922
  497SOL     OW 1489   2.634   1.078   0.478  0.5328  0.5770  0.4143
  497SOL    HW1 1490   2.647   1.110   0.567 -1.3704  2.6366 -2.2466
  497SOL    HW2 1491   2.662   0.984   0.461 -0.3772  0.1721 -0.8204
  498SOL     OW 1492   0.034   2.185   2.408  0.7107 -0.4249 -0.3661
  498SOL    HW1 1493   0.066   2.245   2.333  0.8766 -2.1083  3.7826
  498SOL    HW2 1494   3.065   2.107   2.382  1.6360 -2.6923 -0.5379
  499SOL     OW 1495   0.918   2.008   0.407 -0.5955 -0.2464  0.2257
  499SOL    HW1 1496   0.890   1.922   0.453 -0.5468 -0.4048 -2.5012
  499SOL    HW2 1497   0.876   2.029   0.318  1.1970  0.7096  1.3983
  500SOL     OW 1498   1.011   2.987   2.962  0.0157 -0.0194 -0.1051
  500SOL    HW1 1499   1.028   3.088   2.977 -1.0069 -1.5794 -0.1820
  500SOL    HW2 1500   0.915   2.971   2.940 -0.3207  1.6501  0.9057
  501SOL     OW 1501   1.448   0.093   1.456 -0.8137  0.5453 -0.1208
  501SOL    HW1 1502   1.402   0.079   1.370 -0.1012  0.8959 -0.1918
  501SOL    HW2 1503   1.397   0.053   1.532  2.9961  0.5239 -2.1603
  502SOL     OW 1504   2.976   0.379   2.232  0.2489 -0.1524 -0.4640
  502SOL    HW1 1505   3.037   0.418   2.307  0.2440  0.6538  0.1525
  502SOL    HW2 1506   3.009   0.286   2.207 -0.1594  0.6140  0.5286
  503SOL     OW 1507   2.273   2.191   2.544 -0.2021  0.2654 -0.1201
  503SOL    HW1 1508   2.183   2.232   2.572 -0.8176  1.2312  0.3746
  503SOL    HW2 1509   2.269   2.088   2.553  1.9263  0.7373  0.3722
  504SOL     OW 1510   1.341   0.437   1.654  0.2100 -0.4087  0.1056
  504SOL    HW1 1511   1.413   0.380   1.604  0.6316 -0.2840  2.4291
  504SOL    HW2 1512   1.344   0.413   1.749  0.3927  1.7980 -4.1332
  505SOL     OW 1513   0.207   0.744   1.748  0.2955 -0.5371 -0.6591
  505SOL    HW1 1514   0.221   0.842   1.782  0.0186 -0.1720  0.3222
  505SOL    HW2 1515   0.294   0.706   1.711 -0.7569  0.4205  1.0427
  506SOL     OW 1516   0.478   1.094   2.307 -0.7541 -0.2527 -0.1748
  506SOL    HW1 1517   0.573   1.056   2.328 -1.2602 -0.3925  0.9227
  506SOL    HW2 1518   0.400   1.026   2.321 -0.2198 -1.7904  1.3639
  507SOL     OW 1519   0.236   2.661   2.699  0.5785  0.1385  0.5700
  507SOL    HW1 1520   0.252   2.695   2.791  2.4064 -1.1464 -0.3394
  507SOL    HW2 1521   0.137   2.669   2.669 -0.8983  0.4015  0.2743
  508SOL     OW 1522   1.637   0.779   1.395 -0.0058 -0.2388  0.0011
  508SOL    HW1 1523   1.632   0.683   1.369 -2.5146  0.5467 -2.6384
  508SOL    HW2 1524   1.732   0.814   1.395 -0.3754  2.4471  0.6552
  509SOL     OW 1525   1.070   1.902   1.584  0.3078  0.4918 -0.5053
  509SOL    HW1 1526   1.127   1.956   1.653  0.7411  0.5215 -1.8376
  509SOL    HW2 1527   1.131   1.859   1.519 -0.2188 -1.1448  0.9588
  510SOL     OW 1528   2.269   1.202   2.377 -0.7267  0.0150  0.3416
  510SOL    HW1 1529   2.251   1.108   2.417  0.0146 -1.4732 -0.5016
  510SOL    HW2 1530   2.248   1.191   2.277 -1.9756 -0.8366  1.8737
  511SOL     OW 1531   0.583   1.584   0.826  0.3581  0.1106  0.0948
  511SOL    HW1 1532   0.496   1.548   0.868 -1.6400  1.5667  1.3172
  511SOL    HW2 1533   0.560   1.619   0.729  0.5033  0.9074  0.0359
  512SOL     OW 1534   2.422   2.150   0.393 -0.1788 -0.5155 -0.3206
  512SOL    HW1 1535   2.325   2.177   0.375 -0.9991  2.0949  1.9126
  512SOL    HW2 1536   2.442   2.054   0.363  1.3104 -4.3977 -0.9905
  513SOL     OW 1537   2.813   1.812   2.491  0.2484 -0.8232 -0.0759
  513SOL    HW1 1538   2.819   1.723   2.438 -1.5549 -1.7643 -1.6406
  513SOL    HW2 1539   2.864   1.888   2.444  2.0645 -0.0565 -0.8740
  514SOL     OW 1540   0.352   2.410   2.667  0.1003  0.0969 -0.2661
  514SOL    HW1 1541   0.397   2.380   2.750  0.3296  0.6643 -1.5094
  514SOL    HW2 1542   0.309   2.499   2.677 -1.5845  0.7569  3.0219
  515SOL     OW 1543   2.155   1.467   1.879  0.3871 -0.2177 -0.2707
  515SOL    HW1 1544   2.057   1.471   1.889  0.1029  3.0394 -1.7342
  515SOL    HW2 1545   2.172   1.521   1.793 -3.0596  0.7213  0.2862
  516SOL     OW 1546   2.382   2.460   2.908 -0.0273 -0.4342  0.1546
  516SOL    HW1 1547   2.340   2.508   2.979  0.9080 -2.4590 -3.1534
  516SOL    HW2 1548   2.363   2.510   2.821 -1.1533  0.1083 -1.6313
  517SOL     OW 1549   1.420   1.241   3.082  0.3233  0.1807  0.0687
  517SOL    HW1 1550   1.484   1.236   3.004 -1.0726  0.6267  3.0796
  517SOL    HW2 1551   1.441   1.164   0.047 -0.9068 -0.8423 -1.8189
  518SOL     OW 1552   2.720   3.025   2.242  0.2437  0.4137 -0.0059
  518SOL    HW1 1553   2.703   3.015   2.137 -2.9325 -0.9389  0.0631
  518SOL    HW2 1554   2.694   2.940   2.290  0.3325 -0.3294  0.8404
  519SOL     OW 1555   1.868   1.749   1.914  0.0099 -0.5443  0.2014
  519SOL    HW1 1556   1.767   1.755   1.916 -0.1309 -1.7067 -2.1805
  519SOL    HW2 1557   1.906   1.744   2.007 -2.7801  0.3890  0.3203
  520SOL     OW 1558   2.817   0.031   2.633 -0.3764  0.3497  0.4018
  520SOL    HW1 1559   2.814   0.096   2.712  1.5759  0.7466 -1.6102
  520SOL    HW2 1560   2.778   0.075   2.551 -0.9086  2.4313 -2.8919
  521SOL     OW 1561   0.719   1.528   2.112  0.3079  0.5854 -0.6452
  521SOL    HW1 1562   0.737   1.559   2.018 -1.0677  1.0068  0.3546
  521SOL    HW2 1563   0.774   1.443   2.128  1.3794 -1.5691 -1.2525
  522SOL     OW 1564   1.160   0.081   1.566 -0.0329 -0.0969 -0.4472
  522SOL    HW1 1565   1.160   0.128   1.659  1.7391 -2.1905  0.4103
  522SOL    HW2 1566   1.067   0.063   1.528  3.0824 -1.0420  0.0044
  523SOL     OW 1567   0.233   2.801   0.834 -0.1830 -0.2518 -0.2640
  523SOL    HW1 1568   0.291   2.833   0.910  0.7901  0.1956 -1.8342
  523SOL    HW2 1569   0.283   2.806   0.747 -1.1190  0.0596  1.2018
  524SOL     OW 1570   1.774   2.507   0.667  0.0951  0.6051 -0.4754
  524SOL    HW1 1571   1.719   2.430   0.623  3.6795  1.0027 -0.4711
  524SOL    HW2 1572   1.723   2.542   0.743  2.3522 -0.8300 -2.3242
  525SOL     OW 1573   2.565   0.830   1.147 -0.7302 -0.0982 -0.4158
  525SOL    HW1 1574   2.469   0.820   1.189 -1.3664  0.2845  1.1277
  525SOL    HW2 1575   2.559   0.856   1.047 -0.3731 -0.1275 -0.7856
  526SOL     OW 1576   1.100   2.681   0.694 -0.0438  0.3085  0.1653
  526SOL    HW1 1577   1.054   2.639   0.611  1.6443 -1.9099 -1.0085
  526SOL    HW2 1578   1.081   2.782   0.704 -0.0017  1.0710  1.0529
  527SOL     OW 1579   2.145   1.844   0.702  0.0092  0.3642 -0.4042
  527SOL    HW1 1580   2.139   1.911   0.623  1.3725  0.7949 -2.9661
  527SOL    HW2 1581   2.181   1.754   0.662  0.8647  0.2783 -1.0787
  528SOL     OW 1582   2.242   0.518   0.549  0.2483  0.3995  0.2752
  528SOL    HW1 1583   2.242   0.615   0.525  0.5598  1.0975 -1.0587
  528SOL    HW2 1584   2.162   0.469   0.509  0.1457  0.1198  0.5469
  529SOL     OW 1585   1.215   1.250   2.324 -0.1633 -0.0378  0.2319
  529SOL    HW1 1586   1.154   1.334   2.337  1.4905  0.5394 -2.4076
  529SOL    HW2 1587   1.240   1.211   2.416 -0.5867  0.1601 -0.4691
  530SOL     OW 1588   2.391   0.881   0.018  0.3246  0.4929 -0.1429
  530SOL    HW1 1589   2.415   0.784   3.091 -0.8170 -0.7436 -0.5470
  530SOL    HW2 1590   2.302   0.898   3.070 -0.9938 -0.3315  0.4035
  531SOL     OW 1591   1.468   1.006   0.119  0.1859  0.1006 -0.0986
  531SOL    HW1 1592   1.400   0.940   0.153 -0.4354  0.7781 -0.4919
  531SOL    HW2 1593   1.518   1.042   0.198  0.7364 -2.1946  0.6738
  532SOL     OW 1594   2.021   3.086   0.830 -0.6393 -0.2099  0.2413
  532SOL    HW1 1595   1.962   0.005   0.915 -1.3859 -0.3145  1.5316
  532SOL    HW2 1596   2.061   2.991   0.838  0.9735 -0.0763  1.7511
  533SOL     OW 1597   1.058   0.831   1.712 -0.3410  0.0219  0.7448
  533SOL    HW1 1598   1.155   0.850   1.688 -0.2488  0.3442 -1.1589
  533SOL    HW2 1599   1.055   0.742   1.762  1.4608 -3.1654  0.6202
  534SOL     OW 1600   1.798   0.031   2.834 -0.1730  0.4061 -0.3031
  534SOL    HW1 1601   1.801   3.041   2.784  1.9020 -0.8008 -0.1421
  534SOL    HW2 1602   1.854   0.034   2.918  1.5309  2.9022 -3.3383
  535SOL     OW 1603   0.507   0.100   0.143  0.8419  0.3534  0.3543
  535SOL    HW1 1604   0.490   0.169   0.069  1.0921  1.2953  0.2602
  535SOL    HW2 1605   0.457   0.016   0.106  0.7639 -0.2282  4.0731
  536SOL     OW 1606   0.852   2.514   1.078 -0.0180  0.2260 -0.2730
  536SOL    HW1 1607   0.873   2.466   1.165  1.0226  0.3290 -0.8602
  536SOL    HW2 1608   0.929   2.573   1.049 -0.1547  0.7423 -0.3165
  537SOL     OW 1609   1.886   0.259   1.569  0.9555  0.0791 -0.4360
  537SOL    HW1 1610   1.910   0.339   1.511  0.1924  2.1473  0.0728
  537SOL    HW2 1611   1.845   0.188   1.507 -0.7969  2.1328  0.6350
  538SOL     OW 1612   2.760   2.767   0.236 -0.1858 -0.1368  0.1331
  538SOL    HW1 1613   2.805   2.790   0.146  0.5814 -2.0382  0.4290
  538SOL    HW2 1614   2.720   2.670   0.230 -2.3777 -3.5539  0.1606
  539SOL     OW 1615   2.692   2.128   1.946  0.1000  0.3572 -0.2997
  539SOL    HW1 1616   2.653   2.056   1.884 -0.6708 -1.8169 -0.3369
  539SOL    HW2 1617   2.793   2.108   1.960  0.0578 -1.1372  0.6950
  540SOL     OW 1618   3.006   2.773   1.710  0.5134 -0.9632  0.3963
  540SOL    HW1 1619   3.051   2.702   1.657 -1.9768 -0.6601  1.5897
  540SOL    HW2 1620   2.972   2.731   1.799  0.4538 -0.3303  0.7227
  541SOL     OW 1621   2.659   0.060   1.760 -0.6130  0.5449 -0.3321
  541SOL    HW1 1622   2.623   0.109   1.678 -0.1593 -1.4714  1.4390
  541SOL    HW2 1623   2.747   0.010   1.744 -4.6360  0.3469  0.7829
  542SOL     OW 1624   2.815   0.763   2.249  0.2134  0.3903 -0.0839
  542SOL    HW1 1625   2.775   0.831   2.315  1.1700 -0.8674 -0.0171
  542SOL    HW2 1626   2.802   0.665   2.276 -0.1880  0.1886 -0.5415
  543SOL     OW 1627   0.742   0.732   0.589 -0.7655  0.0892 -0.1617
  543SOL    HW1 1628   0.830   0.785   0.593 -0.5922 -2.4134 -0.9748
  543SOL    HW2 1629   0.662   0.792   0.607  3.5268 -0.6761 -1.7165
  544SOL     OW 1630   2.475   1.871   1.014 -0.1513  0.2143  0.1253
  544SOL    HW1 1631   2.456   1.830   0.927  2.0877 -0.5627  0.9119
  544SOL    HW2 1632   2.530   1.810   1.076  1.4583  1.4064  0.1491
  545SOL     OW 1633   1.146   1.907   0.289  0.0072 -0.5065 -0.6428
  545SOL    HW1 1634   1.073   1.957   0.344 -0.3133 -0.4988 -0.9269
  545SOL    HW2 1635   1.154   1.805   0.314 -1.6645 -0.4466 -0.8403
  546SOL     OW 1636   2.373   0.434   1.961 -0.1335 -0.3417  0.0143
  546SOL    HW1 1637   2.330   0.500   2.028 -1.7136  0.2427  1.3791
  546SOL    HW2 1638   2.405   0.346   2.005  0.0603 -1.0756 -3.2142
  547SOL     OW 1639   0.274   0.247   2.420 -0.0728 -0.3520  0.3930
  547SOL    HW1 1640   0.206   0.263   2.493  2.0412  1.0365 -1.6446
  547SOL    HW2 1641   0.317   0.337   2.398 -0.8930  0.1512 -0.4747
  548SOL     OW 1642   2.070   2.048   2.329 -0.0677  0.0460 -0.1136
  548SOL    HW1 1643   2.106   2.124   2.271  2.0307  2.6136  1.5048
  548SOL    HW2 1644   2.145   2.000   2.379 -1.7570  0.6240 -2.7146
  549SOL     OW 1645   2.632   0.544   0.886  0.1826 -0.2999  0.4700
  549SOL    HW1 1646   2.604   0.594   0.803  0.3364  0.1638 -0.5787
  549SOL    HW2 1647   2.721   0.499   0.869  2.0540 -0.7492  0.0381
  550SOL     OW 1648   1.510   1.343   0.454 -0.2612 -0.5617  0.3168
  550SOL    HW1 1649   1.524   1.425   0.394 -1.5694  2.4182 -0.2043
  550SOL    HW2 1650   1.535   1.368   0.547 -0.6282  0.1436 -1.1374
  551SOL     OW 1651   1.260   0.341   1.164  0.2812 -0.3613 -0.3647
  551SOL    HW1 1652   1.213   0.364   1.074 -0.2754  0.2133 -2.7479
  551SOL    HW2 1653   1.236   0.247   1.187 -3.6294  2.6887 -1.0201
  552SOL     OW 1654   1.933   2.321   2.126  0.4340 -0.5584  0.0319
  552SOL    HW1 1655   1.892   2.397   2.193 -0.7486  4.9392  2.9858
  552SOL    HW2 1656   2.023   2.286   2.146 -2.1019 -1.0844 -1.3148
  553SOL     OW 1657   0.091   0.163   0.299  0.1206 -0.1464  0.0412
  553SOL    HW1 1658   0.007   0.202   0.343 -1.2874  1.1447  0.7170
  553SOL    HW2 1659   0.129   0.079   0.352  2.5345 -0.7301 -1.3417
  554SOL     OW 1660   1.528   2.626   1.904  0.1866 -0.4070 -0.0480
  554SOL    HW1 1661   1.566   2.599   1.816  0.9331 -1.0688 -0.1585
  554SOL    HW2 1662   1.601   2.644   1.972 -1.7984  0.5558 -0.3361
  555SOL     OW 1663   2.392   2.923   1.819 -0.3301  0.7128  0.4636
  555SOL    HW1 1664   2.306   2.939   1.764 -0.8254  1.1467 -0.4606
  555SOL    HW2 1665   2.364   2.954   1.914  0.4174 -0.3142 -0.1871
  556SOL     OW 1666   0.823   2.913   0.266  0.7176  0.8166 -0.0245
  556SOL    HW1 1667   0.882   2.885   0.338 -0.0664  2.1433  0.4695
  556SOL    HW2 1668   0.853   3.001   0.235  0.2399 -1.2485 -0.3068
  557SOL     OW 1669   0.707   2.190   2.321 -0.1071 -0.2078  0.4095
  557SOL    HW1 1670   0.711   2.250   2.242  0.2147 -0.3927  2.7310
  557SOL    HW2 1671   0.619   2.207   2.372  0.3794  1.3049 -1.4688
  558SOL     OW 1672   2.671   1.147   2.734  0.2059  0.6238 -0.4100
  558SOL    HW1 1673   2.651   1.048   2.763  0.8437 -1.1699 -0.9504
  558SOL    HW2 1674   2.599   1.178   2.668 -0.6592  0.8552 -2.5334
  559SOL     OW 1675   2.194   2.231   2.185 -0.4600 -0.0457  0.1030
  559SOL    HW1 1676   2.220   2.319   2.225 -1.4476 -2.4736  0.6074
  559SOL    HW2 1677   2.269   2.201   2.115 -1.6114 -1.8983 -2.1107
  560SOL     OW 1678   0.667   0.318   2.273 -0.0076 -0.3195  0.1058
  560SOL    HW1 1679   0.679   0.231   2.323  0.4690  0.8996 -1.4558
  560SOL    HW2 1680   0.648   0.310   2.175  0.1411  0.1426  1.2782
  561SOL     OW 1681   0.985   0.538   0.330 -0.3016 -0.5586 -0.3073
  561SOL    HW1 1682   0.890   0.527   0.369  0.2001 -1.1469 -2.1626
  561SOL    HW2 1683   0.999   0.487   0.243  1.3268  0.5347  1.0294
  562SOL     OW 1684   0.719   1.255   1.417 -0.8197 -0.0706 -0.3282
  562SOL    HW1 1685   0.632   1.293   1.459 -0.8803  1.5391  1.3089
  562SOL    HW2 1686   0.727   1.263   1.316  0.0737  1.0338 -0.6397
  563SOL     OW 1687   1.579   2.899   0.007 -0.5993  0.6344  0.3564
  563SOL    HW1 1688   1.665   2.860   3.066  0.8959  0.2364  2.1526
  563SOL    HW2 1689   1.598   2.934   0.102 -0.4920  0.2314  1.1163
  564SOL     OW 1690   0.022   1.830   0.540 -0.1893 -0.3746 -0.0685
  564SOL    HW1 1691   3.051   1.816   0.463 -0.4324 -0.1366  1.2051
  564SOL    HW2 1692   3.076   1.890   0.610 -0.9498  3.0016  0.0630
  565SOL     OW 1693   0.482   2.522   2.328 -0.2603  0.1241 -0.7599
  565SOL    HW1 1694   0.405   2.527   2.255  0.2077  1.8009  0.0498
  565SOL    HW2 1695   0.470   2.438   2.386 -0.6259  0.2353  0.3539
  566SOL     OW 1696   1.537   2.422   2.457 -0.0482 -0.4863 -0.0303
  566SOL    HW1 1697   1.575   2.331   2.488  0.4366  2.1911  1.7489
  566SOL    HW2 1698   1.496   2.476   2.533  4.2671  1.1116  3.5298
  567SOL     OW 1699   1.919   2.144   1.387  0.5660  0.0673  0.3400
  567SOL    HW1 1700   1.882   2.237   1.413  2.0759 -0.9833 -1.1086
  567SOL    HW2 1701   1.866   2.095   1.314  0.7393  0.9653 -1.8356
  568SOL     OW 1702   2.075   0.691   2.975 -0.1938 -0.0189 -0.0384
  568SOL    HW1 1703   2.035   0.701   3.067  2.3890  2.1265  0.2992
  568SOL    HW2 1704   2.132   0.605   2.974  3.4536 -0.3082 -0.1534
  569SOL     OW 1705   2.835   1.610   2.173 -0.2199  0.3044  0.1926
  569SOL    HW1 1706   2.891   1.687   2.138 -2.9134 -0.1665 -0.1383
  569SOL    HW2 1707   2.870   1.571   2.264 -0.4576  2.1599 -0.4827
  570SOL     OW 1708   2.686   2.601   1.801 -0.5740 -0.5314 -0.1291
  570SOL    HW1 1709   2.653   2.667   1.733 -0.5444  0.3995  0.3555
  570SOL    HW2 1710   2.773   2.635   1.840  1.5635 -0.2222 -1.3138
  571SOL     OW 1711   0.243   0.275   1.719 -0.6306  0.8950  0.2014
  571SOL    HW1 1712   0.338   0.270   1.685  1.7368  0.0902 -0.5657
  571SOL    HW2 1713   0.185   0.335   1.666 -0.8068 -2.2561  1.6440
  572SOL     OW 1714   3.035   1.984   0.753 -0.2068 -0.0019 -0.0221
  572SOL    HW1 1715   2.991   2.076   0.750  0.8990  4.2768  0.9293
  572SOL    HW2 1716   3.085   1.971   0.839  0.3242  1.9214 -2.4082
  573SOL     OW 1717   0.964   0.811   3.039  0.2052  0.4569 -0.1702
  573SOL    HW1 1718   0.992   0.891   3.093  2.5278  1.1255  0.1458
  573SOL    HW2 1719   0.866   0.813   3.022  1.5689 -1.5165  1.5508
  574SOL     OW 1720   3.028   2.972   0.179 -0.2558 -0.7341  0.1108
  574SOL    HW1 1721   0.029   2.942   0.168  1.9340  1.0887 -0.7734
  574SOL    HW2 1722   2.976   2.966   0.091  0.5520  0.5501  0.7560
  575SOL     OW 1723   1.217   1.940   1.262 -0.3652 -0.3187 -0.0770
  575SOL    HW1 1724   1.162   1.868   1.215  1.1700  0.9071 -2.1640
  575SOL    HW2 1725   1.294   1.968   1.203  2.7166 -0.8281  0.1382
  576SOL     OW 1726   2.953   2.887   1.464  0.6378  0.2086  0.3493
  576SOL    HW1 1727   3.000   2.855   1.549 -0.6441  0.7585 -1.8772
  576SOL    HW2 1728   2.890   2.823   1.416  0.3228 -0.4477 -1.1511
  577SOL     OW 1729   2.214   1.579   1.644 -0.1387 -0.1432 -0.2755
  577SOL    HW1 1730   2.147   1.658   1.634  1.9107  0.2617  1.7472
  577SOL    HW2 1731   2.211   1.512   1.565 -3.0240  2.3684 -0.5224
  578SOL     OW 1732   1.074   0.160   2.943 -0.4316  0.4869 -0.3947
  578SOL    HW1 1733   1.091   0.179   3.039  0.1950 -1.5402  1.7786
  578SOL    HW2 1734   1.158   0.185   2.890  0.9341  0.4060  1.6375
  579SOL     OW 1735   2.341   1.867   2.149  0.5580  0.0060 -0.3227
  579SOL    HW1 1736   2.429   1.820   2.125 -0.1372 -1.3205 -1.6625
  579SOL    HW2 1737   2.293   1.906   2.067 -1.8951  2.8475  0.1614
  580SOL     OW 1738   1.658   0.315   1.844 -0.2010 -0.2172 -0.0777
  580SOL    HW1 1739   1.634   0.313   1.746 -0.3194 -0.4082 -1.2904
  580SOL    HW2 1740   1.694   0.407   1.879 -0.7994  2.3197  1.1404
  581SOL     OW 1741   1.058   1.497   1.599 -0.5355 -0.1833  0.5044
  581SOL    HW1 1742   1.036   1.397   1.599 -0.8061  2.2358  0.8336
  581SOL    HW2 1743   1.020   1.542   1.516 -1.5232  0.8872 -1.2160
  582SOL     OW 1744   3.072   2.693   2.181 -0.1827 -0.3220  0.2748
  582SOL    HW1 1745   0.035   2.717   2.106  1.7714 -0.3370  1.0091
  582SOL    HW2 1746   0.021   2.729   2.264  0.2094 -1.0028  0.9212
  583SOL     OW 1747   2.001   1.257   1.479 -0.3058  0.2491  0.1738
  583SOL    HW1 1748   1.931   1.315   1.524  0.8686 -0.7987  0.5507
  583SOL    HW2 1749   2.006   1.169   1.528  1.6018 -0.2545 -2.1418
  584SOL     OW 1750   1.286   2.140   2.714  0.2266  0.4759  0.6627
  584SOL    HW1 1751   1.334   2.058   2.680  0.2694  2.4430  3.0565
  584SOL    HW2 1752   1.190   2.119   2.752 -2.0302  0.3806  0.2690
  585SOL     OW 1753   0.293   2.547   0.609  0.3852 -0.5114  0.8700
  585SOL    HW1 1754   0.353   2.510   0.679 -0.0299  0.7881 -2.0155
  585SOL    HW2 1755   0.244   2.470   0.566  2.9825 -1.2355 -0.9501
  586SOL     OW 1756   1.940   2.467   2.834 -0.4019  0.3302 -0.4008
  586SOL    HW1 1757   1.979   2.427   2.922  1.4484  1.4647  1.4714
  586SOL    HW2 1758   2.015   2.459   2.761  0.9679 -0.7664  0.1695
  587SOL     OW 1759   2.736   1.905   0.245  0.1443 -0.7915 -0.1161
  587SOL    HW1 1760   2.755   2.003   0.224  0.3488  2.9511 -1.4305
  587SOL    HW2 1761   2.823   1.852   0.236  3.0436 -3.1921 -0.2681
  588SOL     OW 1762   2.275   0.424   1.189  0.7740 -0.4529 -0.3750
  588SOL    HW1 1763   2.367   0.397   1.157  1.6465  0.3937  0.9315
  588SOL    HW2 1764   2.284   0.478   1.274 -0.4108 -0.3470  0.0137
  589SOL     OW 1765   1.009   0.797   0.370 -0.6197  0.0878 -0.5110
  589SOL    HW1 1766   0.983   0.699   0.362  0.1014 -0.0566  1.4541
  589SOL    HW2 1767   1.099   0.802   0.423  1.9792  2.9671  1.9850
  590SOL     OW 1768   2.455   2.353   0.185  0.2072  0.2039 -0.4345
  590SOL    HW1 1769   2.441   2.277   0.249 -1.2286 -0.4571 -1.7218
  590SOL    HW2 1770   2.422   2.330   0.094  0.6758  1.0517  2.3357
  591SOL     OW 1771   0.047   2.535   1.639  0.0499 -0.0101 -0.6511
  591SOL    HW1 1772   0.152   2.549   1.645  2.9450 -0.8036  0.8514
  591SOL    HW2 1773   0.013   2.461   1.699 -0.2320 -3.6154 -1.5994
  592SOL     OW 1774   0.780   0.909   1.243 -0.7339 -0.5014 -0.1750
  592SOL    HW1 1775   0.711   0.967   1.286  1.2520 -2.5017 -1.0345
  592SOL    HW2 1776   0.843   0.860   1.309  1.8999 -0.0680  1.6511
  593SOL     OW 1777   0.943   1.606   1.349  0.4535 -0.3455  0.3009
  593SOL    HW1 1778   1.002   1.657   1.284 -0.4453 -1.2475  2.0553
  593SOL    HW2 1779   0.845   1.639   1.340 -1.8011 -2.0562 -0.9568
  594SOL     OW 1780   0.382   2.025   2.800 -0.2480  0.5070  0.3149
  594SOL    HW1 1781   0.298   1.977   2.768  0.7346  1.4712 -3.7214
  594SOL    HW2 1782   0.446   2.019   2.721  0.6805 -0.7130  1.3422
  595SOL     OW 1783   1.518   0.454   1.144 -0.2489 -0.4504 -0.1532
  595SOL    HW1 1784   1.546   0.473   1.050  0.4502  0.9354 -0.4604
  595SOL    HW2 1785   1.427   0.405   1.148  1.1583  1.7393 -0.0596
  596SOL     OW 1786   0.126   1.381   0.424  0.9983  0.3160 -0.0014
  596SOL    HW1 1787   0.038   1.366   0.370 -0.1236 -0.1494 -0.1858
  596SOL    HW2 1788   0.202   1.319   0.399 -2.1442  1.5860  1.2740
  597SOL     OW 1789   0.015   2.447   3.094  0.2060  0.2153  0.3702
  597SOL    HW1 1790   3.076   2.388   3.015 -1.5518  2.2597 -2.2557
  597SOL    HW2 1791   3.090   2.399   0.084 -0.2842  2.6770 -0.9549
  598SOL     OW 1792   2.233   1.917   2.526  0.2469  0.1398 -0.1548
  598SOL    HW1 1793   2.164   1.898   2.599 -2.0019 -2.3837  1.2286
  598SOL    HW2 1794   2.271   1.828   2.489 -3.2282 -2.0480  0.7424
  599SOL     OW 1795   1.240   0.499   0.394 -0.1972 -0.0641 -0.4934
  599SOL    HW1 1796   1.148   0.528   0.364  0.8758 -3.3699  0.7313
  599SOL    HW2 1797   1.313   0.504   0.324  0.4073 -3.5127  0.9813
  600SOL     OW 1798   0.655   2.700   0.406  0.6256  0.0273 -0.0898
  600SOL    HW1 1799   0.688   2.776   0.350  1.1788 -1.2642  2.3199
  600SOL    HW2 1800   0.579   2.653   0.368 -0.3173  0.9200  1.7309
  601SOL     OW 1801   0.524   0.732   1.148 -0.6671  0.3061  0.4617
  601SOL    HW1 1802   0.583   0.812   1.151 -1.5764 -0.0359  0.0454
  601SOL    HW2 1803   0.582   0.650   1.170 -1.4990 -0.8047 -0.4761
  602SOL     OW 1804   0.293   2.952   1.283 -0.0467  0.0083  0.0506
  602SOL    HW1 1805   0.289   3.033   1.344 -1.4603  0.7618  1.5678
  602SOL    HW2 1806   0.293   2.872   1.342  1.2887  4.6967 -1.8730
  603SOL     OW 1807   1.110   2.766   2.443 -0.0448 -0.4308  0.4142
  603SOL    HW1 1808   1.190   2.748   2.382 -1.6890  1.0283 -1.9289
  603SOL    HW2 1809   1.067   2.857   2.414  1.6134  1.4584  1.9332
  604SOL     OW 1810   0.585   2.777   2.739  0.1216  0.2222  0.6225
  604SOL    HW1 1811   0.595   2.678   2.715 -1.3386  1.5013 -2.6828
  604SOL    HW2 1812   0.620   2.828   2.660 -1.2747 -1.0584  0.0058
  605SOL     OW 1813   1.126   0.635   1.886  0.3198 -0.3651 -0.2271
  605SOL    HW1 1814   1.087   0.545   1.863  0.0563  1.3875  1.4657
  605SOL    HW2 1815   1.219   0.618   1.922 -1.5407 -0.3114 -0.9738
  606SOL     OW 1816   2.295   0.248   2.563 -0.3190 -0.2827 -0.0163
  606SOL    HW1 1817   2.396   0.241   2.588  2.9557  1.8995  2.5193
  606SOL    HW2 1818   2.233   0.258   2.644  1.2420  0.3087 -0.2994
  607SOL     OW 1819   0.542   0.940   0.907 -0.1051  0.1632 -0.1864
  607SOL    HW1 1820   0.641   0.931   0.924 -1.7969 -0.8663 -1.1201
  607SOL    HW2 1821   0.503   0.845   0.903 -1.6532 -1.2113 -0.2023
  608SOL     OW 1822   0.143   2.314   2.177  0.2084 -0.2512 -0.0894
  608SOL    HW1 1823   0.201   2.396   2.154  1.8245  0.8687 -2.2391
  608SOL    HW2 1824   0.044   2.324   2.146 -4.9788  3.3035 -0.0811
  609SOL     OW 1825   1.541   0.692   3.024  0.2197 -0.1666  0.1572
  609SOL    HW1 1826   1.600   0.611   3.012 -1.4034 -0.2546 -0.0276
  609SOL    HW2 1827   1.531   0.725   0.022  0.1754 -0.8646  0.2729
  610SOL     OW 1828   0.760   2.932   1.254 -0.2421  0.5377  0.2701
  610SOL    HW1 1829   0.717   2.982   1.177  0.9832 -1.8912 -0.0558
  610SOL    HW2 1830   0.857   2.927   1.249 -1.0049  2.3844 -1.1504
  611SOL     OW 1831   1.505   0.928   0.497  0.0789  0.2245  0.0239
  611SOL    HW1 1832   1.508   1.003   0.424 -0.6743  1.9044 -1.4142
  611SOL    HW2 1833   1.516   0.839   0.452 -0.8957  1.1268  2.4301
  612SOL     OW 1834   1.633   0.798   2.792 -1.2660 -0.0791 -0.1566
  612SOL    HW1 1835   1.560   0.800   2.721 -0.5390 -3.1202 -1.2819
  612SOL    HW2 1836   1.607   0.741   2.871  0.5207 -1.4949  3.1937
  613SOL     OW 1837   2.499   0.893   0.887 -0.3320 -0.4075 -0.5079
  613SOL    HW1 1838   2.439   0.944   0.820 -0.7231  1.0108 -2.1141
  613SOL    HW2 1839   2.472   0.796   0.886 -0.1132 -2.7789 -0.8596
  614SOL     OW 1840   2.462   0.221   2.146  0.0507 -0.0758 -0.0192
  614SOL    HW1 1841   2.391   0.203   2.216  1.1879 -1.0183 -0.3879
  614SOL    HW2 1842   2.448   0.167   2.061 -0.6412  1.0208 -0.9487
  615SOL     OW 1843   0.790   2.104   1.076 -0.1028  0.4546 -0.0706
  615SOL    HW1 1844   0.733   2.080   1.158 -0.1897  1.2825 -0.6933
  615SOL    HW2 1845   0.756   2.186   1.028  2.8201 -0.3408  1.7948
  616SOL     OW 1846   1.727   1.197   2.476  0.6172  0.4962  1.0206
  616SOL    HW1 1847   1.700   1.185   2.378  0.3349 -0.1468  1.3351
  616SOL    HW2 1848   1.760   1.290   2.505  0.4770 -0.2669  1.5112
  617SOL     OW 1849   1.339   3.020   0.005 -0.1220 -0.0994  0.0771
  617SOL    HW1 1850   1.430   2.972   3.095  0.7841  0.4133  0.7072
  617SOL    HW2 1851   1.271   2.957   0.047  0.6894  1.8521  3.9478
  618SOL     OW 1852   1.610   1.590   2.242  0.0134  0.0595 -0.0408
  618SOL    HW1 1853   1.589   1.683   2.282  0.9898 -2.8910 -0.8368
  618SOL    HW2 1854   1.709   1.594   2.208  0.8600  0.2856 -0.5668
  619SOL     OW 1855   2.580   1.389   0.895 -0.2306 -0.3289 -0.3271
  619SOL    HW1 1856   2.526   1.388   0.812  0.2768 -1.0051  1.2051
  619SOL    HW2 1857   2.667   1.336   0.885  1.7377 -0.8689 -2.3844
  620SOL     OW 1858   2.123   2.734   2.757  0.0428 -0.6324  0.3445
  620SOL    HW1 1859   2.179   2.777   2.830  0.5563  0.3496  1.9262
  620SOL    HW2 1860   2.039   2.697   2.803 -1.1244 -0.8355  2.5123
  621SOL     OW 1861   2.656   1.404   0.562 -0.1652  0.4411  0.9300
  621SOL    HW1 1862   2.661   1.364   0.468 -0.3393  3.4943 -0.9561
  621SOL    HW2 1863   2.558   1.406   0.597 -1.6566 -2.0886 -0.8505
  622SOL     OW 1864   1.130   2.543   2.607  0.6097  0.4344 -0.5686
  622SOL    HW1 1865   1.165   2.458   2.564 -1.3632  0.2578  0.6630
  622SOL    HW2 1866   1.108   2.615   2.536  0.2430  2.7092  0.5322
  623SOL     OW 1867   0.282   2.273   0.070 -0.2779  0.2947  0.2015
  623SOL    HW1 1868   0.267   2.187   0.012 -1.2986 -0.5743  0.9540
  623SOL    HW2 1869   0.211   2.339   0.044 -0.8585 -0.5311  1.8626
  624SOL     OW 1870   0.342   3.041   0.007  0.2864 -0.1479 -0.7409
  624SOL    HW1 1871   0.261   0.007   3.083 -2.7073  1.5321  0.7554
  624SOL    HW2 1872   0.351   2.966   3.037  1.7157 -1.3852 -0.9841
  625SOL     OW 1873   0.815   2.334   2.987  0.0584 -0.9062 -0.4186
  625SOL    HW1 1874   0.828   2.353   2.887 -0.2350 -0.1029 -0.9464
  625SOL    HW2 1875   0.876   2.260   3.014  1.5995  1.5512  1.0614
  626SOL     OW 1876   2.882   0.603   0.219 -0.2977 -0.3246 -0.1345
  626SOL    HW1 1877   2.836   0.614   0.126 -2.1968  0.2586  2.6039
  626SOL    HW2 1878   2.860   0.511   0.254 -1.3074  1.5629 -0.6767
  627SOL     OW 1879   1.843   1.721   0.001  0.5941 -0.1874 -0.4850
  627SOL    HW1 1880   1.894   1.650   3.042 -1.5530  0.3048 -2.6635
  627SOL    HW2 1881   1.893   1.811   3.085  1.4334 -0.7754  0.7648
  628SOL     OW 1882   1.284   1.138   2.550  0.2719  0.0753  0.3739
  628SOL    HW1 1883   1.227   1.106   2.630  0.2135 -0.5338 -1.0486
  628SOL    HW2 1884   1.366   1.191   2.581  2.3929 -0.6441 -0.7946
  629SOL     OW 1885   0.635   2.958   1.697  0.4062  0.2575 -0.0144
  629SOL    HW1 1886   0.729   2.919   1.697 -2.1447  0.0924 -0.0687
  629SOL    HW2 1887   0.598   2.954   1.598  0.1626 -1.1117 -1.6252
  630SOL     OW 1888   2.394   0.964   2.033  0.6059  0.2244 -0.4654
  630SOL    HW1 1889   2.326   1.039   2.060 -1.2717  2.2927  1.2212
  630SOL    HW2 1890   2.351   0.869   2.050 -1.2842  1.4564 -0.7496
  631SOL     OW 1891   1.928   0.164   0.583 -0.0127  0.1162 -0.1892
  631SOL    HW1 1892   1.945   0.159   0.684  0.1955 -2.9669  0.1663
  631SOL    HW2 1893   1.835   0.201   0.566 -2.5362  1.8805 -0.9209
  632SOL     OW 1894   0.055   0.463   1.613 -0.2017 -0.4515 -0.0763
  632SOL    HW1 1895   3.064   0.419   1.640 -0.1691 -1.5606 -1.5256
  632SOL    HW2 1896   0.071   0.557   1.654 -0.1527  2.3861 -1.3802
  633SOL     OW 1897   0.991   0.447   0.083 -0.4919  0.3638  0.0172
  633SOL    HW1 1898   0.930   0.471   0.003  0.8098 -4.3683  0.4260
  633SOL    HW2 1899   0.987   0.344   0.096 -0.6742 -0.9666 -0.6802
  634SOL     OW 1900   0.537   2.671   3.074  0.2207  0.3177  0.4164
  634SOL    HW1 1901   0.636   2.665   3.087 -1.4607 -1.2333  1.8237
  634SOL    HW2 1902   0.478   2.669   0.058 -0.3670 -0.5694 -1.4320
  635SOL     OW 1903   0.139   0.735   0.570 -0.2397 -0.1374  0.1421
  635SOL    HW1 1904   0.120   0.651   0.512 -1.3480  0.9553 -2.2190
  635SOL    HW2 1905   0.149   0.820   0.511  1.6699  3.5723 -0.0393
  636SOL     OW 1906   0.525   1.276   0.148 -0.0267 -0.3940 -0.3422
  636SOL    HW1 1907   0.616   1.237   0.120  0.7836 -0.4706  1.4986
  636SOL    HW2 1908   0.529   1.373   0.174 -0.8438  0.3062  0.7918
  637SOL     OW 1909   0.314   2.826   0.573  0.4147 -0.0619 -0.2994
  637SOL    HW1 1910   0.262   2.736   0.568 -1.0439 -1.1424  0.0754
  637SOL    HW2 1911   0.275   2.895   0.512  0.2338  1.4964  1.2264
  638SOL     OW 1912   2.805   2.398   0.457 -0.1729 -0.3994 -0.3671
  638SOL    HW1 1913   2.797   2.312   0.513 -1.7776 -0.5250 -0.6087
  638SOL    HW2 1914   2.899   2.437   0.474 -2.3367 -0.6596 -0.8105
  639SOL     OW 1915   1.755   0.928   0.092  0.0497 -0.0825  0.7060
  639SOL    HW1 1916   1.656   0.945   0.067 -3.0168  1.1680  0.7295
  639SOL    HW2 1917   1.813   1.013   0.100  0.1570  2.0934  3.8249
  640SOL     OW 1918   1.599   2.142   1.659 -0.4627 -0.8635  0.1722
  640SOL    HW1 1919   1.638   2.206   1.590 -0.5341 -1.3645 -1.9519
  640SOL    HW2 1920   1.668   2.074   1.687  1.1392  0.7921 -0.4012
  641SOL     OW 1921   3.056   2.812   0.861 -0.5127  0.1907 -0.0466
  641SOL    HW1 1922   3.029   2.876   0.941  0.9764  1.4359  2.3008
  641SOL    HW2 1923   0.059   2.816   0.846  0.1066 -0.8707 -0.1977
  642SOL     OW 1924   1.019   0.402   1.793  0.2786 -0.1094  0.1154
  642SOL    HW1 1925   0.983   0.398   1.701  0.0913 -0.6856 -0.6059
  642SOL    HW2 1926   1.066   0.310   1.809  0.3727  0.3472 -0.0702
  643SOL     OW 1927   0.935   2.390   2.723 -0.8528 -0.5269  0.0167
  643SOL    HW1 1928   0.930   2.319   2.653  0.1210  2.5035  1.2922
  643SOL    HW2 1929   1.020   2.443   2.704  1.5584  0.7875  0.0178
  644SOL     OW 1930   1.369   2.616   0.688 -0.2557 -0.0982 -0.6411
  644SOL    HW1 1931   1.365   2.516   0.713  0.8177  1.3426 -1.1764
  644SOL    HW2 1932   1.281   2.655   0.719 -1.4323 -0.2924 -1.1231
  645SOL     OW 1933   1.640   1.133   1.707 -0.1162  0.3147 -0.7342
  645SOL    HW1 1934   1.720   1.158   1.768  2.1817 -0.1680  1.0908
  645SOL    HW2 1935   1.626   1.032   1.703 -0.3361  0.1370 -1.4272
  646SOL     OW 1936   0.417   0.772   3.081  0.4763  0.0302 -0.1645
  646SOL    HW1 1937   0.385   0.729   0.069 -0.3135  0.9918  0.1678
  646SOL    HW2 1938   0.457   0.863   0.003  0.9424 -3.6297  0.4618
  647SOL     OW 1939   1.122   0.307   0.552  0.2070 -0.2920  0.1677
  647SOL    HW1 1940   1.150   0.388   0.497 -1.3935  2.4337 -0.3219
  647SOL    HW2 1941   1.157   0.218   0.524  3.0603 -1.7902  1.2544
  648SOL     OW 1942   2.416   2.719   1.143 -0.2345  0.2504  0.6484
  648SOL    HW1 1943   2.390   2.658   1.063  1.7376  0.1747 -0.8525
  648SOL    HW2 1944   2.338   2.768   1.177  3.3683 -0.1939 -2.7794
  649SOL     OW 1945   0.574   2.003   2.990 -0.3693  0.2914 -0.5520
  649SOL    HW1 1946   0.508   2.028   2.920 -1.0800 -2.5486  3.4612
  649SOL    HW2 1947   0.550   2.034   3.082  3.7315  0.2212  1.4942
  650SOL     OW 1948   2.076   1.940   1.904 -0.3525  0.0948  0.0374
  650SOL    HW1 1949   2.040   2.037   1.894 -0.8915  0.7561 -0.4381
  650SOL    HW2 1950   2.006   1.885   1.953 -2.1226 -1.3413  0.5486
  651SOL     OW 1951   0.172   2.978   2.743 -0.6622  0.6789  0.2216
  651SOL    HW1 1952   0.233   2.927   2.675  3.0197 -1.2602  0.3802
  651SOL    HW2 1953   0.114   3.038   2.689  1.0756  1.2359  3.9150
  652SOL     OW 1954   2.894   1.596   0.579  0.2482 -0.3146 -0.5625
  652SOL    HW1 1955   2.795   1.573   0.567  0.8420 -0.4905  3.3044
  652SOL    HW2 1956   2.900   1.690   0.613 -0.8380  0.0851 -0.7261
  653SOL     OW 1957   0.161   0.490   1.001  0.1292 -0.1660  0.3970
  653SOL    HW1 1958   0.181   0.459   0.906  0.5434 -3.0659  0.3719
  653SOL    HW2 1959   0.243   0.527   1.044 -0.2041  1.7600  1.0711
  654SOL     OW 1960   1.005   0.182   0.109  0.0084  0.0098  0.3481
  654SOL    HW1 1961   1.048   0.134   0.185  1.0185 -3.1506  0.3789
  654SOL    HW2 1962   0.911   0.149   0.095 -1.4062  3.3960  2.5549
  655SOL     OW 1963   0.549   3.039   1.125 -0.6900  0.4122 -0.5379
  655SOL    HW1 1964   0.496   0.015   1.088  0.6007  0.5067  0.4667
  655SOL    HW2 1965   0.487   2.978   1.171  0.7432  2.1110 -0.2071
  656SOL     OW 1966   0.159   2.734   1.974 -0.0521 -0.3243  0.4206
  656SOL    HW1 1967   0.197   2.827   1.963  1.0704 -2.6868 -0.9927
  656SOL    HW2 1968   0.178   2.674   1.896 -0.8802 -1.4333  1.2583
  657SOL     OW 1969   2.016   0.506   2.518 -0.1770  0.7440  0.3702
  657SOL    HW1 1970   2.110   0.486   2.488  0.4625  1.8488  3.1049
  657SOL    HW2 1971   2.024   0.566   2.598 -1.7131  0.2058  0.1969
  658SOL     OW 1972   1.928   1.597   1.153  0.0504  0.0906 -0.1515
  658SOL    HW1 1973   1.896   1.669   1.092  1.5979 -2.7159  1.3108
  658SOL    HW2 1974   1.955   1.624   1.245 -2.6354  0.5489 -1.2541
  659SOL     OW 1975   2.430   2.672   2.725 -0.1419  0.0456  0.0508
  659SOL    HW1 1976   2.530   2.706   2.715  1.8841  2.3493 -0.4677
  659SOL    HW2 1977   2.398   2.631   2.638  0.0319 -1.0216  0.4741
  660SOL     OW 1978   1.220   0.768   0.518  0.3223 -0.4190  0.5886
  660SOL    HW1 1979   1.220   0.835   0.588  0.5516 -2.1723 -2.5939
  660SOL    HW2 1980   1.239   0.670   0.555 -1.2007 -4.2534  2.8357
  661SOL     OW 1981   2.501   2.821   0.551  0.1501 -0.2484 -0.2044
  661SOL    HW1 1982   2.544   2.731   0.570  2.2752  1.3695 -0.2370
  661SOL    HW2 1983   2.565   2.901   0.565  0.3405  1.0369  1.3597
  662SOL     OW 1984   0.833   0.209   1.026  0.4165 -0.2669 -0.0271
  662SOL    HW1 1985   0.882   0.293   0.993  0.2672  1.9725  0.7409
  662SOL    HW2 1986   0.882   0.121   1.002 -0.0018 -0.9665 -0.8941
  663SOL     OW 1987   1.527   2.710   2.310 -0.1438  0.5902 -0.2142
  663SOL    HW1 1988   1.601   2.777   2.332 -0.1736  0.2085 -0.5733
  663SOL    HW2 1989   1.511   2.649   2.390  0.7681 -0.7367  2.0623
  664SOL     OW 1990   0.675   2.199   1.613 -0.3423  0.2740  0.1267
  664SOL    HW1 1991   0.748   2.131   1.611 -0.8502 -0.2071 -1.0686
  664SOL    HW2 1992   0.583   2.161   1.582 -1.7652  0.2592 -0.5760
  665SOL     OW 1993   0.951   2.178   1.746  0.1599 -0.1917  0.7932
  665SOL    HW1 1994   0.901   2.104   1.791  1.7352 -2.3552  1.2511
  665SOL    HW2 1995   1.046   2.149   1.727  0.4669 -0.6640 -1.3806
  666SOL     OW 1996   0.169   2.870   0.126 -0.0893 -0.1837 -0.5221
  666SOL    HW1 1997   0.250   2.918   0.084 -1.6636 -0.5677 -0.7283
  666SOL    HW2 1998   0.117   2.823   0.056 -2.7436 -0.0464  1.1873
  667SOL     OW 1999   1.430   1.592   1.387  0.0134 -0.2349 -0.5379
  667SOL    HW1 2000   1.398   1.574   1.484 -1.1435  0.3095 -0.9788
  667SOL    HW2 2001   1.477   1.680   1.379 -0.5950  0.8565 -2.4063
  668SOL     OW 2002   1.368   0.364   2.175  0.1580  0.3672 -0.0885
  668SOL    HW1 2003   1.433   0.370   2.256 -1.7303 -0.4720  0.8912
  668SOL    HW2 2004   1.279   0.417   2.196 -1.5050  0.8189  2.7928
  669SOL     OW 2005   2.423   2.284   1.572  0.2059 -0.3592  0.0906
  669SOL    HW1 2006   2.330   2.267   1.617  1.1756 -0.5647 -0.5636
  669SOL    HW2 2007   2.485   2.300   1.648 -1.0205  1.4390  1.0761
  670SOL     OW 2008   1.633   2.154   0.272  0.2687  0.6934 -0.0163
  670SOL    HW1 2009   1.558   2.143   0.338  3.0705 -0.5984 -2.8854
  670SOL    HW2 2010   1.706   2.216   0.307  0.1450  0.3650  1.0574
  671SOL     OW 2011   1.322   0.910   1.111  0.0073  0.3566  0.4603
  671SOL    HW1 2012   1.326   0.897   1.215  1.4016  2.0046  1.0538
  671SOL    HW2 2013   1.245   0.971   1.082  1.4646  0.8765 -0.4650
  672SOL     OW 2014   2.457   1.275   2.615 -0.0758 -0.5607 -0.1871
  672SOL    HW1 2015   2.422   1.264   2.521 -1.2026 -0.2976  0.3436
  672SOL    HW2 2016   2.493   1.367   2.628  0.8066  0.2658 -2.4891
  673SOL     OW 2017   3.035   1.680   1.682  0.2041 -0.9443 -0.2482
  673SOL    HW1 2018   2.948   1.677   1.633  1.9538  1.4804  1.5960
  673SOL    HW2 2019   0.001   1.736   1.627  1.5353 -1.1967  1.0104
  674SOL     OW 2020   0.986   2.459   2.325  0.2259 -0.1166  0.2580
  674SOL    HW1 2021   0.991   2.499   2.229  0.8192  0.8803 -1.2485
  674SOL    HW2 2022   0.894   2.486   2.371 -2.8597 -1.2474  0.0191
  675SOL     OW 2023   0.939   1.176   1.553  0.0487 -0.3598  0.1302
  675SOL    HW1 2024   0.919   1.095   1.608  2.5224  1.5310 -1.1154
  675SOL    HW2 2025   0.864   1.195   1.484  0.5740  0.4963 -1.9619
  676SOL     OW 2026   2.245   0.416   0.798  0.5771  0.2607  1.2984
  676SOL    HW1 2027   2.237   0.454   0.706 -0.6847 -1.0039  0.0943
  676SOL    HW2 2028   2.307   0.474   0.854  0.1330 -2.1426 -1.6248
  677SOL     OW 2029   2.423   1.567   2.975 -0.0542  0.4147  0.0774
  677SOL    HW1 2030   2.412   1.467   2.971  1.2772 -0.4125 -0.0086
  677SOL    HW2 2031   2.453   1.606   2.886  0.3044 -0.7055  0.1310
  678SOL     OW 2032   0.256   0.110   1.435  0.0971 -0.1732  0.0898
  678SOL    HW1 2033   0.206   0.140   1.349  0.4798  1.3158  2.8836
  678SOL    HW2 2034   0.197   0.096   1.518 -1.3700 -0.6261  2.1903
  679SOL     OW 2035   2.459   0.375   0.194  0.3381  0.1882 -0.0172
  679SOL    HW1 2036   2.449   0.388   0.092 -0.8470 -0.3867 -1.3485
  679SOL    HW2 2037   2.377   0.345   0.245  2.3211  1.7364 -1.6075
  680SOL     OW 2038   0.240   2.191   1.753  0.1123 -0.0411  0.1481
  680SOL    HW1 2039   0.177   2.255   1.710  2.1560  1.7149  0.9739
  680SOL    HW2 2040   0.226   2.182   1.852  1.4119  2.2123 -2.8873
  681SOL     OW 2041   2.115   1.930   1.203  0.7609  0.0402 -0.2782
  681SOL    HW1 2042   2.030   1.971   1.237  1.4848 -2.3767 -0.2523
  681SOL    HW2 2043   2.120   1.944   1.100 -0.7149  1.1363 -1.0145
  682SOL     OW 2044   2.953   2.073   1.875 -0.5328  0.1398 -0.2408
  682SOL    HW1 2045   2.927   2.041   1.785 -0.5122  0.1556  0.7973
  682SOL    HW2 2046   3.028   2.013   1.917  1.5821 -4.5217  1.8138
  683SOL     OW 2047   2.929   2.082   1.185 -0.5500  0.5080  0.2060
  683SOL    HW1 2048   2.910   2.179   1.205  0.3913 -4.1639  0.3794
  683SOL    HW2 2049   2.856   2.033   1.128 -0.5588 -0.5386  1.1982
  684SOL     OW 2050   2.587   0.814   2.557  0.5499 -0.1782  0.5740
  684SOL    HW1 2051   2.629   0.887   2.499  0.2432 -1.3447  0.4456
  684SOL    HW2 2052   2.598   0.829   2.660 -2.1367 -1.0299  0.0959
  685SOL     OW 2053   1.270   1.235   0.527 -0.9015 -0.2250  0.6953
  685SOL    HW1 2054   1.296   1.164   0.592 -0.1564  0.7476  0.5035
  685SOL    HW2 2055   1.354   1.266   0.477  2.1830 -0.7054 -1.3999
  686SOL     OW 2056   0.296   0.390   0.300 -0.4880  0.0986 -1.0322
  686SOL    HW1 2057   0.245   0.369   0.218  0.6447  3.5654  2.6432
  686SOL    HW2 2058   0.387   0.343   0.300 -0.7646  1.3338 -0.4822
  687SOL     OW 2059   1.518   1.256   2.644 -0.2335  0.1146  0.5719
  687SOL    HW1 2060   1.515   1.355   2.644  1.7816 -2.0081  1.3099
  687SOL    HW2 2061   1.596   1.218   2.587  0.4018 -0.4533 -0.8469
  688SOL     OW 2062   1.580   1.338   1.457 -0.5715  0.5339  0.3990
  688SOL    HW1 2063   1.664   1.351   1.512 -4.0943  1.3144  1.7573
  688SOL    HW2 2064   1.537   1.427   1.434  1.3817 -3.0792  1.8708
  689SOL     OW 2065   2.228   0.166   1.235 -0.5025 -0.4035 -0.3808
  689SOL    HW1 2066   2.228   0.259   1.191  0.6960  1.2324 -0.3892
  689SOL    HW2 2067   2.319   0.123   1.232  1.8599  2.7365  1.1299
  690SOL     OW 2068   0.014   1.349   1.137 -0.1490  0.1554 -0.4258
  690SOL    HW1 2069   3.015   1.331   1.161 -0.1178  3.2201  0.3612
  690SOL    HW2 2070   0.082   1.276   1.160 -0.0183  1.3371  1.3081
  691SOL     OW 2071   0.371   2.498   1.239 -0.4464  0.1035  0.2948
  691SOL    HW1 2072   0.442   2.531   1.173  0.9894 -0.0615 -0.0234
  691SOL    HW2 2073   0.278   2.524   1.210  0.5227 -0.7085  1.3303
  692SOL     OW 2074   2.566   0.596   1.803 -0.1308  0.3856  1.0005
  692SOL    HW1 2075   2.623   0.666   1.853  0.1296 -0.9290  0.3325
  692SOL    HW2 2076   2.529   0.525   1.865 -1.6415  1.7428  0.3325
  693SOL     OW 2077   0.475   1.666   2.089 -0.0163  0.2354 -0.0927
  693SOL    HW1 2078   0.565   1.620   2.099  0.3377 -1.1193 -1.1693
  693SOL    HW2 2079   0.406   1.608   2.135  3.1833  0.0906 -1.3398
  694SOL     OW 2080   1.774   1.213   1.302 -0.2468 -0.6423 -0.4629
  694SOL    HW1 2081   1.851   1.249   1.351 -2.9496  1.4826  0.6335
  694SOL    HW2 2082   1.685   1.244   1.347 -4.3855 -0.4986 -1.8106
  695SOL     OW 2083   0.767   1.201   0.819  0.1259 -0.8343 -0.0281
  695SOL    HW1 2084   0.798   1.113   0.860 -0.0517 -1.8920  0.4615
  695SOL    HW2 2085   0.677   1.187   0.769 -1.0626  0.6457 -2.0824
  696SOL     OW 2086   1.121   2.865   0.343  0.2298 -0.1017  0.4158
  696SOL    HW1 2087   1.096   2.781   0.393  0.0602  0.1709 -1.5932
  696SOL    HW2 2088   1.161   2.844   0.251  0.5076 -0.3835  0.2983
  697SOL     OW 2089   1.392   0.342   1.901  0.1927  0.3338  0.0817
  697SOL    HW1 2090   1.489   0.335   1.877 -1.3424 -0.9653  1.7013
  697SOL    HW2 2091   1.381   0.346   2.003 -0.9640 -0.6070  0.0700
  698SOL     OW 2092   1.875   1.442   1.928  0.1836  0.4643  0.0625
  698SOL    HW1 2093   1.886   1.463   2.031  0.3993 -0.6392  2.5444
  698SOL    HW2 2094   1.785   1.467   1.897  1.1361 -1.3939  1.2150
  699SOL     OW 2095   2.745   0.302   1.873  0.2898  0.0231  0.3786
  699SOL    HW1 2096   2.693   0.233   1.817  0.7224  1.7284 -1.9782
  699SOL    HW2 2097   2.812   0.345   1.809 -1.9700  0.7337 -1.7355
  700SOL     OW 2098   1.000   2.247   0.521  0.1377 -0.4528 -0.2284
  700SOL    HW1 2099   0.977   2.338   0.477  0.9170  2.4731 -1.2586
  700SOL    HW2 2100   0.954   2.172   0.468  1.2883  0.8743  0.5950
  701SOL     OW 2101   2.069   2.975   2.628 -0.0869  0.4023  0.1456
  701SOL    HW1 2102   2.052   2.878   2.651 -0.6408  1.0279  1.2192
  701SOL    HW2 2103   2.063   3.028   2.713 -1.9798 -0.7560 -1.7262
  702SOL     OW 2104   0.908   0.053   0.729 -0.0295 -0.5051  0.0861
  702SOL    HW1 2105   0.805   0.041   0.718 -1.9176  0.6171 -0.2230
  702SOL    HW2 2106   0.935   0.152   0.739  1.0704  1.3073 -1.3856
  703SOL     OW 2107   2.266   2.983   2.072  0.0275  0.5194 -0.1073
  703SOL    HW1 2108   2.167   3.009   2.074 -1.4420  1.7480 -0.5466
  703SOL    HW2 2109   2.322   3.068   2.076  0.1525  0.8766  1.0626
  704SOL     OW 2110   2.772   2.080   0.495  0.1070 -0.2339  0.0141
  704SOL    HW1 2111   2.841   2.123   0.556  2.3296  0.1799 -0.0991
  704SOL    HW2 2112   2.751   1.985   0.527  0.5971 -1.7601  1.5471
  705SOL     OW 2113   2.387   2.784   2.419  0.0235  0.0205  1.0354
  705SOL    HW1 2114   2.410   2.872   2.453 -1.1835  0.4183 -2.1889
  705SOL    HW2 2115   2.374   2.793   2.317  1.3011  2.0031 -1.3713
  706SOL     OW 2116   2.474   0.113   1.123  0.2301  0.2077  0.2426
  706SOL    HW1 2117   2.489   0.214   1.119 -0.9273  0.1081  2.2045
  706SOL    HW2 2118   2.448   0.073   1.033 -1.0536 -0.7459  2.1226
  707SOL     OW 2119   1.022   3.004   2.358 -0.8090  0.2680 -0.1285
  707SOL    HW1 2120   1.023   3.023   2.259  0.7796 -0.1140 -0.0019
  707SOL    HW2 2121   0.943   3.056   2.397 -0.0725  3.1989 -0.0532
  708SOL     OW 2122   0.090   1.875   1.567  0.2925 -0.2510 -0.2569
  708SOL    HW1 2123   0.082   1.901   1.473 -2.5641  0.4686  3.3348
  708SOL    HW2 2124   0.186   1.869   1.590 -1.9761 -1.8398 -1.1333
  709SOL     OW 2125   1.569   0.323   1.576 -0.1950 -0.3704 -0.5636
  709SOL    HW1 2126   1.592   0.380   1.494 -0.1670 -1.5726 -0.3777
  709SOL    HW2 2127   1.528   0.233   1.556 -1.3610  1.1582  0.0479
  710SOL     OW 2128   0.679   2.865   2.508 -0.6094  0.1784  0.2677
  710SOL    HW1 2129   0.771   2.855   2.554  0.8096  1.1125  0.6600
  710SOL    HW2 2130   0.682   2.960   2.466 -0.6773  4.2114 -0.0954
  711SOL     OW 2131   1.086   2.003   2.415 -0.2618  0.3239 -0.1805
  711SOL    HW1 2132   1.084   2.105   2.437 -1.6228  1.2978  0.1095
  711SOL    HW2 2133   0.992   1.957   2.420 -0.1839  0.3379  0.9461
  712SOL     OW 2134   0.977   2.137   3.038  0.2726 -0.1298  0.4882
  712SOL    HW1 2135   1.001   2.094   2.951  0.7892  0.8045 -0.3084
  712SOL    HW2 2136   1.061   2.148   3.097  1.6569  0.8483 -1.4870
  713SOL     OW 2137   1.933   1.119   2.103 -0.3627  0.3128  0.1518
  713SOL    HW1 2138   1.852   1.171   2.138  0.6221 -0.7992 -0.9785
  713SOL    HW2 2139   1.955   1.036   2.157  0.0908  3.3643 -2.4043
  714SOL     OW 2140   0.971   1.694   1.795  0.5314  0.3184  0.3745
  714SOL    HW1 2141   1.023   1.703   1.708 -0.2263 -0.5739  2.7881
  714SOL    HW2 2142   1.005   1.623   1.855 -0.5838 -0.5829 -0.9866
  715SOL     OW 2143   2.494   0.646   0.332 -0.1340  0.3271 -0.7677
  715SOL    HW1 2144   2.497   0.543   0.317 -1.0358 -0.1411  0.8781
  715SOL    HW2 2145   2.419   0.685   0.389 -0.9505 -1.1650  1.6839
  716SOL     OW 2146   2.738   2.339   1.442 -0.2160  0.4542 -0.2824
  716SOL    HW1 2147   2.834   2.328   1.466 -0.2539  1.7959 -3.1226
  716SOL    HW2 2148   2.665   2.288   1.503 -0.8787 -1.2254 -1.6339
  717SOL     OW 2149   2.629   1.101   1.186  0.2739 -0.0763  0.2115
  717SOL    HW1 2150   2.574   1.155   1.115 -0.9945  1.4270 -2.4148
  717SOL    HW2 2151   2.623   1.005   1.163  0.3722 -0.8558 -0.9690
  718SOL     OW 2152   1.330   1.517   1.634 -0.3157  0.1814 -0.2508
  718SOL    HW1 2153   1.366   1.438   1.682 -0.6977  0.4347 -0.7392
  718SOL    HW2 2154   1.231   1.508   1.618  0.6424 -2.6477  0.6599
  719SOL     OW 2155   2.799   0.612   3.066 -0.6239 -0.0163  0.4038
  719SOL    HW1 2156   2.850   0.672   3.001  0.8844 -0.8779 -1.1975
  719SOL    HW2 2157   2.820   0.509   3.057  2.2082 -2.0343  0.5877
  720SOL     OW 2158   0.972   0.330   0.769 -0.5034 -0.0492  0.3613
  720SOL    HW1 2159   1.041   0.335   0.692  0.5250 -0.7863 -1.0784
  720SOL    HW2 2160   0.902   0.396   0.733  1.9995 -0.1174  1.1570
  721SOL     OW 2161   2.568   0.674   0.661 -0.0516 -0.0692  0.1307
  721SOL    HW1 2162   2.573   0.582   0.613 -0.3108  0.7308 -2.2898
  721SOL    HW2 2163   2.627   0.748   0.617 -1.5881  1.2993  2.2024
  722SOL     OW 2164   0.443   2.283   2.440  0.5810 -0.7674  0.4032
  722SOL    HW1 2165   0.414   2.333   2.522  0.7874 -0.2586 -0.6021
  722SOL    HW2 2166   0.371   2.221   2.403 -0.3671  0.4477 -1.0386
  723SOL     OW 2167   1.873   0.047   1.053 -0.0283 -0.1425 -0.3391
  723SOL    HW1 2168   1.828   0.138   1.063  0.1032 -0.8360 -0.5440
  723SOL    HW2 2169   1.918   0.020   1.142  0.5370 -0.5503 -1.9823
  724SOL     OW 2170   1.256   1.830   2.289 -0.0035  0.1935 -0.1492
  724SOL    HW1 2171   1.269   1.872   2.198 -2.0053 -1.6895  0.4864
  724SOL    HW2 2172   1.194   1.882   2.344  0.6593 -0.4290 -0.0135
  725SOL     OW 2173   1.233   2.779   1.355  0.0529 -0.4457  0.2349
  725SOL    HW1 2174   1.237   2.829   1.447  0.0432  2.2787  2.0271
  725SOL    HW2 2175   1.332   2.765   1.322 -1.1903 -1.7614  0.9314
  726SOL     OW 2176   2.032   2.890   0.213 -0.5447  0.3699 -0.3510
  726SOL    HW1 2177   2.003   2.826   0.146  1.7760 -0.0070  4.0316
  726SOL    HW2 2178   2.057   2.831   0.291 -0.6843  3.4535 -0.1112
  727SOL     OW 2179   1.498   1.633   0.974  0.0490 -0.3931 -0.0460
  727SOL    HW1 2180   1.487   1.540   1.005  1.5432 -1.2598  0.9142
  727SOL    HW2 2181   1.596   1.656   0.975 -1.2332  0.0396 -0.0059
  728SOL     OW 2182   2.047   2.764   2.097  0.5557  0.2541  0.3412
  728SOL    HW1 2183   2.031   2.846   2.042 -0.0293  0.6104 -0.6720
  728SOL    HW2 2184   2.142   2.745   2.117 -1.1196 -0.8130  0.5544
  729SOL     OW 2185   1.778   2.367   1.493 -0.0014  1.4416  0.1972
  729SOL    HW1 2186   1.738   2.429   1.428 -1.4812 -0.6378  0.3780
  729SOL    HW2 2187   1.853   2.404   1.546 -1.9568 -1.0253  0.3125
  730SOL     OW 2188   1.855   0.791   2.383  0.1562 -0.7133 -0.2946
  730SOL    HW1 2189   1.761   0.827   2.359 -2.5516  2.6699 -0.6794
  730SOL    HW2 2190   1.858   0.774   2.484 -0.1920 -0.6860 -3.5298
  731SOL     OW 2191   1.051   2.976   1.211 -0.2470  0.1818 -0.1512
  731SOL    HW1 2192   1.095   2.898   1.262 -1.4562 -0.0770 -1.3539
  731SOL    HW2 2193   1.084   2.980   1.114  1.9739  1.3644  1.8193
  732SOL     OW 2194   1.318   0.059   0.733 -0.0902 -0.5977  0.1075
  732SOL    HW1 2195   1.251   0.128   0.773 -0.3019  0.3612  0.4665
  732SOL    HW2 2196   1.368   0.026   0.811 -0.0140  1.5420 -1.2893
  733SOL     OW 2197   1.303   1.177   0.883  0.2989 -0.4944 -0.3679
  733SOL    HW1 2198   1.391   1.218   0.916  1.1728 -0.0977 -0.2056
  733SOL    HW2 2199   1.322   1.097   0.813 -0.0486 -0.3228 -3.3375
  734SOL     OW 2200   2.411   2.440   2.557 -0.5118  0.0159  0.1404
  734SOL    HW1 2201   2.505   2.414   2.524  1.9371 -0.3355 -3.4571
  734SOL    HW2 2202   2.345   2.364   2.545  0.0415 -1.3818  1.8682
  735SOL     OW 2203   0.600   0.184   0.904  0.1427  0.3942  0.3676
  735SOL    HW1 2204   0.616   0.123   0.821  0.5612  0.0972  0.0204
  735SOL    HW2 2205   0.681   0.207   0.966  1.5804  1.3469  2.2396
  736SOL     OW 2206   1.425   2.331   2.833  0.5355 -0.3209  0.1518
  736SOL    HW1 2207   1.406   2.334   2.932 -1.7342  0.1714 -1.6056
  736SOL    HW2 2208   1.361   2.272   2.781 -0.9133  1.2480 -0.5642
  737SOL     OW 2209   0.637   2.035   1.300 -0.4215 -0.0297  0.7226
  737SOL    HW1 2210   0.569   2.110   1.305 -0.7042 -0.8966 -0.0519
  737SOL    HW2 2211   0.709   2.039   1.376 -0.0666  0.2694  0.5970
  738SOL     OW 2212   1.248   2.984   2.839 -0.3924  0.0086  0.4889
  738SOL    HW1 2213   1.153   2.985   2.872 -0.8674  1.7649 -0.6563
  738SOL    HW2 2214   1.310   2.995   2.915  0.3287 -0.5743  0.9768
  739SOL     OW 2215   0.960   2.099   2.079 -0.2945  0.0293  0.3805
  739SOL    HW1 2216   1.037   2.163   2.070 -5.1155 -2.0254 -1.0857
  739SOL    HW2 2217   0.872   2.144   2.103  0.4032 -1.3807  2.5828
  740SOL     OW 2218   1.361   2.357   1.361 -0.1673 -0.5171 -0.1835
  740SOL    HW1 2219   1.326   2.330   1.267  0.3312  0.6883  1.8649
  740SOL    HW2 2220   1.305   2.328   1.440  1.5530 -3.2161  0.3866
  741SOL     OW 2221   2.712   1.137   0.172  0.8399 -0.5705 -0.2026
  741SOL    HW1 2222   2.701   1.054   0.227  0.4726  2.0753 -1.2764
  741SOL    HW2 2223   2.692   1.218   0.237  0.7984  1.5369  2.4441
  742SOL     OW 2224   0.931   1.675   2.258  0.1896  0.2487  0.0205
  742SOL    HW1 2225   0.917   1.774   2.252 -0.6843 -3.4781  0.6558
  742SOL    HW2 2226   0.872   1.623   2.192  0.9732 -0.6541 -0.4014
  743SOL     OW 2227   0.527   1.097   2.794 -0.4928 -0.1853  0.0933
  743SOL    HW1 2228   0.492   1.191   2.771  2.0383 -0.7842  0.3262
  743SOL    HW2 2229   0.607   1.069   2.741 -1.8532  0.6243  1.1140
  744SOL     OW 2230   2.128   2.433   1.231 -0.1286 -0.0566  0.0519
  744SOL    HW1 2231   2.216   2.449   1.180  2.2197 -0.2685 -1.9315
  744SOL    HW2 2232   2.138   2.343   1.282  0.7825 -4.1173  0.6769
  745SOL     OW 2233   2.197   1.423   1.422 -0.0518 -0.5533  0.1658
  745SOL    HW1 2234   2.152   1.338   1.456 -0.6071 -1.3596  0.8073
  745SOL    HW2 2235   2.135   1.500   1.399  2.1825  0.5364 -0.2213
  746SOL     OW 2236   2.064   0.964   1.014  0.3102 -0.3011  0.4794
  746SOL    HW1 2237   2.133   1.031   0.988 -1.8573 -0.7101 -0.6627
  746SOL    HW2 2238   1.980   1.013   1.045 -1.1488  0.8500  2.2446
  747SOL     OW 2239   1.830   1.617   0.804  0.4502 -0.1759  0.0493
  747SOL    HW1 2240   1.806   1.664   0.718  0.5892  1.0872  1.3591
  747SOL    HW2 2241   1.919   1.565   0.797  4.5470 -2.0730  1.6512
  748SOL     OW 2242   0.499   1.462   0.504 -0.2848  0.2112  0.7762
  748SOL    HW1 2243   0.473   1.553   0.546  0.6353  0.8224  2.2313
  748SOL    HW2 2244   0.525   1.472   0.407 -0.1082  1.8403  0.2577
  749SOL     OW 2245   0.039   2.885   2.380 -0.0231 -0.1762 -0.1637
  749SOL    HW1 2246   3.047   2.891   2.428 -0.4441  0.7260 -1.4918
  749SOL    HW2 2247   0.115   2.859   2.443 -0.6962 -1.9044  1.1824
  750SOL     OW 2248   1.975   0.435   1.115  0.0835  0.5907 -0.2343
  750SOL    HW1 2249   1.980   0.483   1.026 -0.3421 -0.8336  0.7110
  750SOL    HW2 2250   2.069   0.407   1.142 -1.0407 -1.4514  1.2797
  751SOL     OW 2251   2.223   0.202   0.320 -0.2724 -0.4936  0.3412
  751SOL    HW1 2252   2.183   0.146   0.244  0.9742  0.8352  0.5097
  751SOL    HW2 2253   2.286   0.143   0.380  4.4081 -1.6004  1.5630
  752SOL     OW 2254   2.004   1.933   0.478  0.6148 -0.0040 -0.4457
  752SOL    HW1 2255   1.933   1.971   0.418  0.0056 -0.7910  2.7538
  752SOL    HW2 2256   2.011   1.837   0.457 -0.4908  3.7974 -1.5955
  753SOL     OW 2257   1.758   1.693   2.573 -0.0042 -0.0299 -0.0613
  753SOL    HW1 2258   1.783   1.762   2.499  0.1139  0.1223  0.1458
  753SOL    HW2 2259   1.720   1.738   2.659  2.3198  0.5499  1.1706
  754SOL     OW 2260   2.499   2.147   1.359 -0.0332  0.4895 -0.0867
  754SOL    HW1 2261   2.447   2.205   1.425 -0.9126  0.9624  2.1406
  754SOL    HW2 2262   2.473   2.156   1.261  0.3267 -1.5239 -1.0859
  755SOL     OW 2263   2.358   0.625   0.952 -0.0168 -0.4190  0.0051
  755SOL    HW1 2264   2.335   0.670   1.039  3.1444 -1.0975 -1.6832
  755SOL    HW2 2265   2.456   0.588   0.953  3.3291  0.0321 -0.6727
  756SOL     OW 2266   1.149   1.428   2.850  0.3989  0.3602  0.5331
  756SOL    HW1 2267   1.181   1.347   2.899 -2.8211  1.3002 -0.2797
  756SOL    HW2 2268   1.227   1.488   2.826  0.5522  2.4905  0.1809
  757SOL     OW 2269   2.182   2.706   1.328 -0.1306 -0.4560  0.0796
  757SOL    HW1 2270   2.121   2.638   1.280 -0.3602 -1.3418 -1.0756
  757SOL    HW2 2271   2.237   2.657   1.395 -0.4711  2.8017 -1.8211
  758SOL     OW 2272   1.058   2.197   1.348  0.5082  0.0192  0.8638
  758SOL    HW1 2273   1.096   2.106   1.315 -0.4834  0.7105  1.0093
  758SOL    HW2 2274   1.092   2.218   1.439 -0.3833 -0.3212 -1.3262
  759SOL     OW 2275   2.404   1.328   1.102  0.7394 -0.1343 -0.4171
  759SOL    HW1 2276   2.367   1.267   1.028 -0.6597  1.3569 -0.7760
  759SOL    HW2 2277   2.485   1.390   1.076  1.2303  5.5603 -1.2300
  760SOL     OW 2278   2.112   0.948   1.264  0.2126 -0.4206  0.2592
  760SOL    HW1 2279   2.183   1.017   1.288 -1.3498 -1.1482  0.8796
  760SOL    HW2 2280   2.093   0.954   1.162 -0.5457 -1.0648 -0.5283
  761SOL     OW 2281   1.934   0.048   0.300  0.1060 -0.2182 -0.5892
  761SOL    HW1 2282   1.946   0.074   0.394  0.2728  1.2135 -0.8701
  761SOL    HW2 2283   1.953   3.048   0.283 -0.1205 -2.5498 -0.2173
  762SOL     OW 2284   1.930   1.972   3.069 -0.3244  0.5597 -0.0112
  762SOL    HW1 2285   1.867   2.021   3.005 -0.0600 -1.7060 -1.1216
  762SOL    HW2 2286   2.026   2.006   3.068  2.4388 -2.1446 -1.7691
  763SOL     OW 2287   0.481   1.134   1.136  0.2943 -0.4111  0.3443
  763SOL    HW1 2288   0.472   1.234   1.120 -1.5485  2.2305 -1.3710
  763SOL    HW2 2289   0.513   1.085   1.048 -0.9748 -1.4107 -2.2278
  764SOL     OW 2290   2.739   2.564   3.057 -0.0979  0.5173  0.3356
  764SOL    HW1 2291   2.710   2.523   0.049  0.0585 -1.9385 -0.9182
  764SOL    HW2 2292   2.699   2.507   2.980 -0.0211  0.9695  0.1577
  765SOL     OW 2293   0.784   2.975   2.114 -0.2716  0.0903 -0.0635
  765SOL    HW1 2294   0.810   3.054   2.058 -2.7304  0.2069  2.0316
  765SOL    HW2 2295   0.683   2.982   2.143 -0.6474 -1.2031  5.4409
  766SOL     OW 2296   2.923   2.019   2.340  0.3976  0.0516  0.1139
  766SOL    HW1 2297   2.839   2.071   2.313 -1.1314  4.2575 -1.0225
  766SOL    HW2 2298   2.976   1.965   2.272  0.8074  2.3550  1.9276
  767SOL     OW 2299   3.095   1.491   1.844  0.0560 -0.1508 -0.0461
  767SOL    HW1 2300   3.013   1.442   1.882 -0.8414  0.9598 -3.8855
  767SOL    HW2 2301   3.061   1.577   1.800  3.6586  0.8189 -3.7964
  768SOL     OW 2302   1.103   0.765   2.807 -0.4613 -0.3560 -0.2641
  768SOL    HW1 2303   1.036   0.781   2.886 -0.7225  0.6357  2.0021
  768SOL    HW2 2304   1.172   0.697   2.843  0.0500  0.4144 -0.4110
  769SOL     OW 2305   1.859   2.304   0.353  0.4067 -0.0980  0.6799
  769SOL    HW1 2306   1.862   2.339   0.448  2.4572  3.7082  2.8900
  769SOL    HW2 2307   1.845   2.370   0.276  0.4310  1.7956  1.5222
  770SOL     OW 2308   2.841   0.138   0.041  0.6656  0.3687 -0.3904
  770SOL    HW1 2309   2.750   0.116   0.082  0.0162 -2.7107  0.4799
  770SOL    HW2 2310   2.916   0.110   0.103 -1.9563 -0.7858 -0.0895
  771SOL     OW 2311   1.516   2.277   1.880 -0.6937 -0.0331 -0.5275
  771SOL    HW1 2312   1.535   2.227   1.794 -0.2627 -0.0009 -1.6388
  771SOL    HW2 2313   1.436   2.336   1.870  2.9622  0.4772  1.1280
  772SOL     OW 2314   0.844   0.495   2.967  0.5345  0.5610  0.5122
  772SOL    HW1 2315   0.776   0.570   2.968 -1.5160 -0.3146 -0.9150
  772SOL    HW2 2316   0.826   0.436   2.884 -0.5649 -0.5623 -0.3087
  773SOL     OW 2317   2.983   0.869   1.843  0.6925 -0.4126 -0.6300
  773SOL    HW1 2318   3.039   0.898   1.764 -0.8107  1.4440 -2.2322
  773SOL    HW2 2319   2.997   0.932   1.921  1.2664  0.3971 -0.1588
  774SOL     OW 2320   1.590   1.123   0.321  0.2075  0.1861 -0.1326
  774SOL    HW1 2321   1.563   1.220   0.339 -3.1069  1.2298  0.4177
  774SOL    HW2 2322   1.693   1.117   0.331 -1.3019 -0.3697  0.8643
  775SOL     OW 2323   2.231   3.073   0.087  0.0599  0.3094  0.0094
  775SOL    HW1 2324   2.324   3.052   0.042  1.0159 -1.8073 -1.9470
  775SOL    HW2 2325   2.179   2.993   0.115 -2.7359 -1.6957  0.4680
  776SOL     OW 2326   2.727   0.988   2.411 -0.1281  0.3027 -0.5261
  776SOL    HW1 2327   2.802   1.013   2.472 -1.5990 -1.2765 -2.2467
  776SOL    HW2 2328   2.714   1.064   2.345  2.8666  1.0167 -0.4733
  777SOL     OW 2329   0.095   1.317   2.753 -0.2150 -0.2201  0.3533
  777SOL    HW1 2330   0.086   1.220   2.785 -1.3771  2.0319  0.7026
  777SOL    HW2 2331   0.108   1.313   2.653 -0.2406 -1.4547  1.6362
  778SOL     OW 2332   0.603   0.066   0.405 -0.4794 -0.1126 -0.0360
  778SOL    HW1 2333   0.707   0.050   0.397  3.2881 -1.9997 -1.0507
  778SOL    HW2 2334   0.570   0.074   0.309  0.2739 -0.0634 -1.8253
  779SOL     OW 2335   0.749   0.772   2.694 -0.0811  0.0182 -0.3255
  779SOL    HW1 2336   0.779   0.863   2.737  2.5894  3.7418  0.2071
  779SOL    HW2 2337   0.828   0.741   2.635  0.4556  2.8642 -1.9408
  780SOL     OW 2338   2.072   0.901   2.239 -0.1456 -0.0084  0.0713
  780SOL    HW1 2339   2.135   0.942   2.305 -0.7644 -2.7711 -2.1724
  780SOL    HW2 2340   2.001   0.842   2.282  0.2434 -0.1680 -0.4330
  781SOL     OW 2341   0.027   1.011   2.034 -0.2231 -0.1202  0.0673
  781SOL    HW1 2342   0.109   0.985   1.979  0.1403 -0.1901  1.9931
  781SOL    HW2 2343   0.036   1.092   2.091  1.1130 -1.8877 -1.9876
  782SOL     OW 2344   0.845   1.946   2.279  0.1053  0.3121 -0.2612
  782SOL    HW1 2345   0.901   2.016   2.239 -0.5114 -2.6229 -0.2816
  782SOL    HW2 2346   0.767   1.987   2.329  0.5999 -0.1357 -1.5589
  783SOL     OW 2347   0.679   2.437   1.492  0.1769 -0.1267 -0.2710
  783SOL    HW1 2348   0.674   2.346   1.544 -0.1122  0.9543  2.1676
  783SOL    HW2 2349   0.756   2.451   1.427 -1.3716 -0.7864 -2.2848
  784SOL     OW 2350   1.138   0.435   2.786  0.1439 -0.0192  0.6281
  784SOL    HW1 2351   1.195   0.352   2.784 -0.5858 -0.0794  0.3021
  784SOL    HW2 2352   1.196   0.516   2.771 -2.3055 -3.5322 -0.1771
  785SOL     OW 2353   0.930   0.404   2.608  0.5742  0.6010  0.1033
  785SOL    HW1 2354   1.001   0.415   2.680 -0.3747  1.3709  1.3768
  785SOL    HW2 2355   0.882   0.311   2.617  1.6794 -0.7073  0.8391
  786SOL     OW 2356   0.453   1.919   0.325 -0.3215  0.1309 -0.0899
  786SOL    HW1 2357   0.399   1.913   0.414  1.3973  1.6033  2.5237
  786SOL    HW2 2358   0.545   1.874   0.324 -1.2505 -5.7166 -0.8920
  787SOL     OW 2359   1.863   1.085   0.405  0.2763  0.1680  0.1826
  787SOL    HW1 2360   1.952   1.061   0.353  0.9707  0.9574 -1.1872
  787SOL    HW2 2361   1.841   1.005   0.469 -1.0169 -3.4675  2.2065
  788SOL     OW 2362   1.818   1.663   1.493  0.2780 -0.8745  0.4660
  788SOL    HW1 2363   1.756   1.732   1.460  0.5160 -0.6851  0.5945
  788SOL    HW2 2364   1.883   1.707   1.555 -1.9769 -0.8610  0.1224
  789SOL     OW 2365   0.425   1.245   1.811 -0.2419 -0.3322  0.2743
  789SOL    HW1 2366   0.371   1.330   1.832 -0.0547  2.7098 -3.3093
  789SOL    HW2 2367   0.454   1.196   1.899 -2.6913 -1.1875 -0.1692
  790SOL     OW 2368   0.403   2.607   0.346  0.2166 -0.0124 -0.4589
  790SOL    HW1 2369   0.350   2.614   0.432 -1.7493 -1.0807  1.3105
  790SOL    HW2 2370   0.412   2.506   0.320  0.0727 -1.8450 -1.3049
  791SOL     OW 2371   0.463   0.430   3.037 -0.1977  0.1628  0.2990
  791SOL    HW1 2372   0.511   0.503   2.988  2.5437  0.7670  2.7069
  791SOL    HW2 2373   0.472   0.343   2.992 -1.0710  1.2710  0.8048
  792SOL     OW 2374   1.883   0.500   2.293  0.5755  0.4979 -0.3571
  792SOL    HW1 2375   1.841   0.592   2.283  1.0427  3.4276  3.2383
  792SOL    HW2 2376   1.931   0.498   2.383 -2.3191 -1.2482 -0.0965
  793SOL     OW 2377   0.451   0.678   0.888 -0.3844 -0.1251 -0.3260
  793SOL    HW1 2378   0.454   0.599   0.824  0.3031  1.4704  0.1190
  793SOL    HW2 2379   0.479   0.654   0.987  3.0996 -1.9221  2.5422
  794SOL     OW 2380   0.591   0.112   1.794 -0.2055 -0.2897  0.5681
  794SOL    HW1 2381   0.554   0.179   1.725  0.3771  0.7843 -2.3300
  794SOL    HW2 2382   0.583   0.015   1.768 -1.9462  0.0976 -1.8316
  795SOL     OW 2383   0.148   1.507   3.081  0.0181  0.1060  0.3006
  795SOL    HW1 2384   0.227   1.442   3.065 -0.5022 -0.1252 -0.1669
  795SOL    HW2 2385   0.065   1.458   3.054 -0.6325 -0.0753 -1.1858
  796SOL     OW 2386   2.977   0.395   0.032 -0.5866 -0.0923  0.0344
  796SOL    HW1 2387   3.072   0.369   0.022 -0.3504 -2.6611 -2.0886
  796SOL    HW2 2388   2.925   0.307   0.028 -3.1600 -1.6153 -0.2317
  797SOL     OW 2389   1.503   2.564   2.720  0.1232 -0.2131 -0.4944
  797SOL    HW1 2390   1.430   2.633   2.735  1.2842  0.3832  0.0607
  797SOL    HW2 2391   1.489   2.483   2.780  1.3045  2.0312  3.0057
  798SOL     OW 2392   2.883   0.468   0.813  0.5077  0.0660  0.1072
  798SOL    HW1 2393   2.851   0.462   0.715 -3.4394 -0.8932 -1.6641
  798SOL    HW2 2394   2.950   0.546   0.827  0.0110  3.9108 -0.2288
  799SOL     OW 2395   2.458   0.662   2.208  0.0059  0.1934  0.3739
  799SOL    HW1 2396   2.515   0.733   2.258  1.1731 -0.5910  0.6392
  799SOL    HW2 2397   2.511   0.574   2.211 -1.4820 -1.8474  0.6140
  800SOL     OW 2398   0.099   2.089   0.330  0.0067  0.4652 -0.0262
  800SOL    HW1 2399   0.076   2.031   0.405  0.3771  1.8236 -2.5571
  800SOL    HW2 2400   0.126   2.031   0.252 -1.6637  0.4406 -0.7402
  801SOL     OW 2401   1.218   1.638   0.922  0.7156  0.0555 -0.2848
  801SOL    HW1 2402   1.313   1.631   0.954 -0.2183  1.5496 -1.5894
  801SOL    HW2 2403   1.184   1.556   0.877 -0.0761  0.0684  0.0137
  802SOL     OW 2404   1.261   1.590   2.435  0.2839  0.4091 -0.0506
  802SOL    HW1 2405   1.257   1.661   2.362  2.0956 -2.1052 -1.0468
  802SOL    HW2 2406   1.176   1.537   2.418 -0.6861 -0.8105 -2.1459
  803SOL     OW 2407   0.242   2.034   1.204  0.1213  0.3837  0.3693
  803SOL    HW1 2408   0.169   2.013   1.273  1.6038  2.3497  2.0675
  803SOL    HW2 2409   0.308   1.957   1.182 -1.0688  0.4353 -0.9079
  804SOL     OW 2410   1.026   2.636   1.461 -0.0382  0.3183  0.2812
  804SOL    HW1 2411   1.100   2.686   1.419 -0.8363 -3.2538  0.7125
  804SOL    HW2 2412   1.064   2.595   1.548 -2.4141 -1.7369 -0.4991
  805SOL     OW 2413   2.212   1.575   0.061 -0.9900 -0.2206  0.1262
  805SOL    HW1 2414   2.301   1.581   0.002  2.3526  1.6945 -2.2593
  805SOL    HW2 2415   2.147   1.518   0.009  0.3640  3.3653 -0.8035
  806SOL     OW 2416   2.062   2.817   0.862  0.0797 -0.5616  0.3693
  806SOL    HW1 2417   2.154   2.826   0.821 -0.9401 -2.0374  2.1498
  806SOL    HW2 2418   2.033   2.721   0.852  2.3171 -2.6072  1.2200
  807SOL     OW 2419   2.875   0.601   2.634 -0.6376 -0.0574  0.4741
  807SOL    HW1 2420   2.810   0.591   2.557 -0.0309  0.0041  4.0900
  807SOL    HW2 2421   2.959   0.636   2.601 -1.3337  1.6562  0.0036
  808SOL     OW 2422   0.337   1.214   0.358 -0.1706  0.1297  0.2830
  808SOL    HW1 2423   0.396   1.192   0.276 -0.0098  0.6903 -3.6054
  808SOL    HW2 2424   0.386   1.261   0.434 -3.0464  1.9661  0.6264
  809SOL     OW 2425   2.685   0.994   2.001 -0.0954 -0.5683  0.5099
  809SOL    HW1 2426   2.580   0.991   2.020 -1.8831 -3.9890  1.8441
  809SOL    HW2 2427   2.721   0.903   1.990 -0.7396  3.8017 -0.4285
  810SOL     OW 2428   1.184   0.440   1.436 -0.3836 -0.8015  0.6944
  810SOL    HW1 2429   1.226   0.416   1.348  0.7479 -1.3574 -1.3068
  810SOL    HW2 2430   1.242   0.424   1.521 -0.9318  1.8490 -0.3976
  811SOL     OW 2431   2.154   2.954   1.708  0.8388 -0.0256 -0.1077
  811SOL    HW1 2432   2.159   3.045   1.663 -0.9423 -2.7790 -1.5941
  811SOL    HW2 2433   2.103   2.896   1.639  0.2637  0.3159 -3.2263
  812SOL     OW 2434   1.384   2.408   3.092 -0.3185 -0.6319  0.0389
  812SOL    HW1 2435   1.359   2.372   0.085  0.3711  0.7848 -0.0120
  812SOL    HW2 2436   1.473   2.459   3.093  0.9609 -0.9454  0.5498
  813SOL     OW 2437   1.624   0.854   1.670 -0.0154 -0.2943 -0.5258
  813SOL    HW1 2438   1.563   0.799   1.733 -0.0910 -1.9267 -0.9679
  813SOL    HW2 2439   1.630   0.819   1.573 -0.7667  3.4115  2.5247
  814SOL     OW 2440   0.514   0.320   1.646 -0.4373 -0.5468  0.5279
  814SOL    HW1 2441   0.497   0.376   1.566  0.1805 -2.6100 -0.2807
  814SOL    HW2 2442   0.577   0.367   1.715  1.0182  1.3251  1.3731
  815SOL     OW 2443   0.626   0.882   0.228  0.1725 -0.3939 -0.5181
  815SOL    HW1 2444   0.658   0.787   0.217  0.2879 -0.4753  0.4200
  815SOL    HW2 2445   0.704   0.946   0.246 -1.3004  2.5611  0.8700
  816SOL     OW 2446   2.156   1.571   2.565  0.4400  0.0165  0.2459
  816SOL    HW1 2447   2.113   1.657   2.603  0.7768  0.3416  0.9657
  816SOL    HW2 2448   2.247   1.594   2.537  0.4353  0.0945 -1.3829
  817SOL     OW 2449   0.804   2.482   0.467 -0.1367 -0.2062  0.6578
  817SOL    HW1 2450   0.750   2.433   0.534  0.7342  1.2684 -3.6917
  817SOL    HW2 2451   0.751   2.565   0.443 -2.1543 -0.6253  3.4517
  818SOL     OW 2452   1.675   0.464   2.924  0.4691 -0.4028 -0.0300
  818SOL    HW1 2453   1.769   0.470   2.972  0.9533  1.2402 -1.9734
  818SOL    HW2 2454   1.683   0.472   2.825 -1.4596  1.3549  2.3683
  819SOL     OW 2455   1.529   0.333   0.014  0.4723 -0.2872 -0.3708
  819SOL    HW1 2456   1.575   0.372   3.027  2.8836 -1.6531  2.8848
  819SOL    HW2 2457   1.429   0.342   3.093 -0.1799 -2.1304  0.2760
  820SOL     OW 2458   1.882   0.494   0.003 -0.8752 -0.3226 -0.1777
  820SOL    HW1 2459   1.887   0.418   0.069 -1.9584 -3.4022  0.5575
  820SOL    HW2 2460   1.922   0.578   0.049 -0.3279  0.0957  4.7452
  821SOL     OW 2461   2.553   0.114   0.455  0.1665  0.1412 -0.0193
  821SOL    HW1 2462   2.472   0.056   0.443 -0.9524  2.1745  1.3494
  821SOL    HW2 2463   2.602   0.081   0.539  4.0695  2.1752  1.2493
  822SOL     OW 2464   0.571   2.206   1.877  0.3336 -0.4453 -0.5624
  822SOL    HW1 2465   0.621   2.227   1.792  0.1364  1.5906  0.3043
  822SOL    HW2 2466   0.551   2.106   1.880  0.3924  0.7403 -1.5163
  823SOL     OW 2467   0.155   1.403   1.444 -0.2748 -0.7529 -0.1080
  823SOL    HW1 2468   0.063   1.378   1.411  1.9733  0.8254  2.2165
  823SOL    HW2 2469   0.207   1.325   1.479  1.3489  1.4324 -1.9313
  824SOL     OW 2470   1.478   2.966   2.663 -0.4876 -0.3128 -0.2159
  824SOL    HW1 2471   1.552   2.921   2.714 -1.3440  2.0529 -0.3930
  824SOL    HW2 2472   1.404   2.986   2.720  1.9933 -1.7800  0.8229
  825SOL     OW 2473   1.895   1.038   0.788  0.1657 -0.1848  0.5669
  825SOL    HW1 2474   1.955   1.016   0.865  3.6268 -1.4524 -2.1432
  825SOL    HW2 2475   1.811   0.979   0.780  0.3928 -0.5276  0.9624
  826SOL     OW 2476   1.965   0.730   0.129 -0.0781  0.0749 -0.4587
  826SOL    HW1 2477   2.019   0.772   0.205 -1.2204 -2.0680 -2.5193
  826SOL    HW2 2478   1.890   0.793   0.104 -2.0828  2.1916 -0.4760
  827SOL     OW 2479   0.510   1.367   1.543 -0.0081 -0.7044 -0.0666
  827SOL    HW1 2480   0.479   1.466   1.549 -3.1453 -0.3276  1.8036
  827SOL    HW2 2481   0.510   1.317   1.632 -0.6443 -0.2131  1.6017
  828SOL     OW 2482   2.443   1.649   1.772 -0.0002  0.1177 -0.2867
  828SOL    HW1 2483   2.430   1.742   1.809 -0.6480 -0.9734  1.7018
  828SOL    HW2 2484   2.368   1.619   1.716  1.8180 -0.6114 -1.8837
  829SOL     OW 2485   0.274   1.895   0.119 -0.6451  0.4738 -0.2218
  829SOL    HW1 2486   0.341   1.867   0.192 -0.9646 -3.2829 -0.6638
  829SOL    HW2 2487   0.200   1.828   0.106 -0.3521  1.4457 -0.3142
  830SOL     OW 2488   1.839   0.835   0.542  0.1984 -0.4627 -0.5006
  830SOL    HW1 2489   1.785   0.840   0.630  1.7187  2.2925  0.9833
  830SOL    HW2 2490   1.828   0.744   0.495 -1.5726  2.4305  1.4009
  831SOL     OW 2491   2.887   2.061   3.055  0.2750 -0.3826  0.4334
  831SOL    HW1 2492   2.957   2.121   3.006 -0.3534 -3.4426 -0.9107
  831SOL    HW2 2493   2.879   2.081   0.058  0.9606  1.0865  0.6589
  832SOL     OW 2494   0.892   0.071   0.382  0.4035 -0.2882 -0.3850
  832SOL    HW1 2495   0.993   0.061   0.392  2.5119 -0.5357  0.1682
  832SOL    HW2 2496   0.862   0.158   0.424  2.3658  0.3924 -1.0232
  833SOL     OW 2497   0.648   0.493   1.850  0.1359  0.6329  0.0043
  833SOL    HW1 2498   0.555   0.499   1.886  2.6824  2.5653  1.6218
  833SOL    HW2 2499   0.714   0.483   1.925  0.9861  1.2847  0.1527
  834SOL     OW 2500   0.252   0.500   0.721 -0.7842 -0.0676 -0.0207
  834SOL    HW1 2501   0.347   0.469   0.724 -0.3563 -0.2196  0.6066
  834SOL    HW2 2502   0.229   0.542   0.630 -2.1727 -3.3394  0.9836
  835SOL     OW 2503   3.034   2.551   0.933  0.0804 -0.6713  0.4103
  835SOL    HW1 2504   2.937   2.522   0.929 -0.5859  0.4047 -1.7302
  835SOL    HW2 2505   3.041   2.652   0.914  2.3810  2.3526 -0.5457
  836SOL     OW 2506   0.564   2.104   0.135  0.1409  0.0329 -0.2145
  836SOL    HW1 2507   0.511   2.191   0.145  3.1346  1.0351 -2.8535
  836SOL    HW2 2508   0.527   2.042   0.208  0.4996 -2.2419  0.0284
  837SOL     OW 2509   1.408   1.522   2.840 -0.1369  0.3659  0.3177
  837SOL    HW1 2510   1.483   1.529   2.908  2.4949  0.2068  0.8255
  837SOL    HW2 2511   1.446   1.539   2.748 -0.9473  0.9248 -0.2587
  838SOL     OW 2512   0.492   1.120   2.035 -0.3970 -0.3441  0.1095
  838SOL    HW1 2513   0.591   1.133   2.006 -0.6184 -0.8277  2.7463
  838SOL    HW2 2514   0.495   1.118   2.138 -1.5665 -2.4331 -0.8080
  839SOL     OW 2515   0.345   1.131   0.862  0.2562  0.4783  0.1976
  839SOL    HW1 2516   0.404   1.053   0.883 -1.6293  1.4494 -1.6585
  839SOL    HW2 2517   0.249   1.098   0.839  2.5295  1.4935 -1.2413
  840SOL     OW 2518   2.235   0.125   2.337  0.1762 -0.5183  0.4343
  840SOL    HW1 2519   2.138   0.111   2.319 -2.3790 -0.4806  1.1869
  840SOL    HW2 2520   2.234   0.180   2.422  0.6615  1.8630 -2.1039
  841SOL     OW 2521   0.700   2.438   0.134  0.6679 -0.1098  0.0468
  841SOL    HW1 2522   0.768   2.439   0.210  1.4492 -1.2097 -1.3733
  841SOL    HW2 2523   0.748   2.420   0.046 -1.2289  1.3761  4.7986
  842SOL     OW 2524   0.386   0.183   0.577 -0.5567  0.3413  0.2284
  842SOL    HW1 2525   0.478   0.158   0.543 -1.2539 -2.7967 -2.1299
  842SOL    HW2 2526   0.320   0.112   0.587  0.0978  2.8636  1.9675
  843SOL     OW 2527   0.103   0.917   0.133 -0.3720  0.5329 -0.2010
  843SOL    HW1 2528   0.112   0.890   0.232 -1.3224  0.5470  2.1392
  843SOL    HW2 2529   0.026   0.979   0.122 -1.1865  0.8365 -1.4147
  844SOL     OW 2530   1.001   2.539   3.087  0.1612 -0.1678 -0.3520
  844SOL    HW1 2531   0.933   2.491   3.028 -1.3113  3.8478 -3.6474
  844SOL    HW2 2532   1.086   2.580   3.040  0.8628  2.9261 -1.7273
  845SOL     OW 2533   2.312   3.014   2.521 -0.5404 -0.1427  0.1793
  845SOL    HW1 2534   2.285   3.074   2.445  1.3670  1.7635 -3.3268
  845SOL    HW2 2535   2.227   2.966   2.558 -2.2284 -2.4606  0.2236
  846SOL     OW 2536   1.810   2.041   2.845  0.2685 -0.0033  0.2606
  846SOL    HW1 2537   1.767   2.132   2.821 -2.4670  0.3153  1.6191
  846SOL    HW2 2538   1.910   2.057   2.840 -3.9698 -2.7928 -0.6689
  847SOL     OW 2539   2.599   0.147   0.176 -0.1203  0.2145  0.3539
  847SOL    HW1 2540   2.554   0.239   0.148 -0.1437  0.1955  1.5341
  847SOL    HW2 2541   2.589   0.127   0.279  1.0312 -1.7176  2.5003
  848SOL     OW 2542   0.732   0.510   0.446  0.4069 -0.2324  0.0538
  848SOL    HW1 2543   0.729   0.596   0.498 -0.7475  0.1386 -1.0610
  848SOL    HW2 2544   0.673   0.519   0.363  0.8087 -0.6947 -1.3852
  849SOL     OW 2545   1.323   2.857   1.830  0.5988 -0.0233  0.5715
  849SOL    HW1 2546   1.382   2.789   1.875 -0.7462  2.7089 -3.2195
  849SOL    HW2 2547   1.239   2.879   1.881 -2.6650  2.5271  0.0916
  850SOL     OW 2548   0.827   1.283   0.457 -0.8911  0.1605 -0.1855
  850SOL    HW1 2549   0.871   1.336   0.531 -1.0474  0.0191  0.3179
  850SOL    HW2 2550   0.773   1.212   0.504  2.9957 -1.6462  1.9642
  851SOL     OW 2551   0.333   1.294   3.041  0.4895  0.0191  0.0648
  851SOL    HW1 2552   0.302   1.199   3.021 -2.0255  0.4516 -0.3690
  851SOL    HW2 2553   0.403   1.290   0.018  0.1678  0.4705  1.4887
  852SOL     OW 2554   1.191   0.167   1.851 -0.3733  0.3716 -0.8911
  852SOL    HW1 2555   1.183   0.109   1.935 -0.6143  0.1018  1.1845
  852SOL    HW2 2556   1.272   0.233   1.855  2.5113  2.8515  1.9095
  853SOL     OW 2557   2.658   1.639   3.091  0.3124  0.1499 -0.2009
  853SOL    HW1 2558   2.575   1.598   3.046  0.4580  0.1250 -0.5944
  853SOL    HW2 2559   2.629   1.701   0.069 -0.4099 -0.2556  0.2570
  854SOL     OW 2560   1.215   1.135   1.775  0.2776 -0.5265  0.1145
  854SOL    HW1 2561   1.134   1.139   1.714  1.2660  2.4714  2.9991
  854SOL    HW2 2562   1.268   1.051   1.746 -1.2306  1.9301 -1.5146
  855SOL     OW 2563   0.124   2.572   0.266 -0.2590 -0.2577  0.0894
  855SOL    HW1 2564   0.121   2.520   0.178  1.7143 -0.1870 -0.9185
  855SOL    HW2 2565   0.142   2.669   0.241  2.4660 -0.9585 -1.5615
  856SOL     OW 2566   0.930   0.957   1.893  0.1221 -0.2173  0.0796
  856SOL    HW1 2567   0.984   0.911   1.818 -1.6682 -1.3279  1.7033
  856SOL    HW2 2568   0.937   0.901   1.975  1.4574  0.3493 -2.2510
  857SOL     OW 2569   1.355   0.884   2.419 -0.3635  0.1690 -0.3809
  857SOL    HW1 2570   1.295   0.816   2.376 -0.4414  2.5495  1.4505
  857SOL    HW2 2571   1.301   0.959   2.462  1.0621  1.4665  0.2394
  858SOL     OW 2572   0.383   1.373   2.326  0.1928 -0.1715 -0.2588
  858SOL    HW1 2573   0.328   1.399   2.247 -0.3279 -1.5732  3.0535
  858SOL    HW2 2574   0.419   1.281   2.324  0.3929  0.9441 -0.8872
  859SOL     OW 2575   2.547   0.385   1.122 -0.1665 -0.2725  0.4767
  859SOL    HW1 2576   2.573   0.434   1.038  0.6843 -0.9072 -1.0772
  859SOL    HW2 2577   2.627   0.380   1.189 -3.1804 -0.1833 -0.0083
  860SOL     OW 2578   1.636   3.084   0.291  0.0063  0.7561  0.1970
  860SOL    HW1 2579   1.578   0.072   0.298 -0.8770 -1.8298 -0.7769
  860SOL    HW2 2580   1.734   0.005   0.318  3.8883  1.0422  1.1592
  861SOL     OW 2581   0.842   0.511   1.011 -0.1726  0.0606 -0.8393
  861SOL    HW1 2582   0.800   0.507   0.922  1.0950 -0.2853  1.6336
  861SOL    HW2 2583   0.920   0.571   1.025 -2.4578 -2.0614  1.4029
  862SOL     OW 2584   1.319   0.192   2.510  0.2106  0.2087 -0.3952
  862SOL    HW1 2585   1.243   0.124   2.519 -1.6262  0.5758  0.7804
  862SOL    HW2 2586   1.406   0.149   2.483 -2.4528 -2.2222  1.4257
  863SOL     OW 2587   2.366   2.255   0.779  0.0093  0.3643  0.4050
  863SOL    HW1 2588   2.387   2.351   0.742 -1.5183 -0.9246  0.0218
  863SOL    HW2 2589   2.401   2.191   0.714 -1.8636  1.3442 -0.9718
  864SOL     OW 2590   2.687   2.969   1.970 -0.1830  0.1730 -0.3935
  864SOL    HW1 2591   2.698   3.063   1.940  0.6119  2.1709  0.4372
  864SOL    HW2 2592   2.603   2.926   1.931 -0.6227 -2.1333 -3.7978
  865SOL     OW 2593   1.437   0.681   1.756 -0.3403  0.4574  0.0925
  865SOL    HW1 2594   1.404   0.607   1.692 -0.1473 -0.8507 -2.2268
  865SOL    HW2 2595   1.403   0.666   1.850  0.6817 -0.4285  0.5462
  866SOL     OW 2596   1.476   2.774   1.289 -0.8329 -0.3546  0.2599
  866SOL    HW1 2597   1.507   2.775   1.388 -1.1024 -1.0356  0.1282
  866SOL    HW2 2598   1.531   2.713   1.231  1.2289 -1.8130 -0.0114
  867SOL     OW 2599   2.243   2.509   0.458 -0.4017  0.4472 -0.4214
  867SOL    HW1 2600   2.191   2.590   0.488  1.4684 -1.5617  0.1999
  867SOL    HW2 2601   2.295   2.536   0.375 -2.2428 -0.4139  0.2100
  868SOL     OW 2602   0.420   2.116   1.559  0.5907 -0.4194  0.3636
  868SOL    HW1 2603   0.414   2.188   1.489 -4.2524 -0.4585 -0.5664
  868SOL    HW2 2604   0.349   2.130   1.632  2.3911  0.0132 -0.6606
  869SOL     OW 2605   2.087   2.412   2.620  0.1284 -0.0038  0.3872
  869SOL    HW1 2606   2.017   2.369   2.566  0.7331 -0.4920 -1.3808
  869SOL    HW2 2607   2.141   2.481   2.560  0.9769  1.4979  0.2149
  870SOL     OW 2608   1.526   1.456   0.692 -0.2232  0.0229  0.2787
  870SOL    HW1 2609   1.609   1.506   0.720 -0.2743  0.7632 -2.0266
  870SOL    HW2 2610   1.498   1.397   0.773  1.2317  2.2924  0.2984
  871SOL     OW 2611   0.336   1.522   1.293  0.2875 -0.4305 -0.4319
  871SOL    HW1 2612   0.404   1.570   1.351  0.5789 -0.3734 -1.5212
  871SOL    HW2 2613   0.268   1.485   1.360 -0.4178  0.7717 -0.2454
  872SOL     OW 2614   0.561   1.380   2.543  1.0801 -0.2133 -0.0265
  872SOL    HW1 2615   0.482   1.367   2.480 -0.0935  1.7364 -1.3780
  872SOL    HW2 2616   0.531   1.387   2.641 -1.8817 -1.8627  1.4032
  873SOL     OW 2617   0.893   1.928   1.883 -0.1756 -0.4202 -0.0039
  873SOL    HW1 2618   0.940   1.963   1.964  2.2188  0.4018 -2.9304
  873SOL    HW2 2619   0.939   1.840   1.848  1.1485 -0.3390  1.5379
  874SOL     OW 2620   0.767   0.639   1.591  0.4471 -0.7717 -0.1247
  874SOL    HW1 2621   0.817   0.561   1.561 -1.2369  2.0175 -1.5936
  874SOL    HW2 2622   0.699   0.614   1.661  0.3496 -2.0879 -3.2822
  875SOL     OW 2623   2.659   2.595   0.594 -0.0921 -0.3301  0.0617
  875SOL    HW1 2624   2.713   2.520   0.553 -0.3425  2.5127 -0.7277
  875SOL    HW2 2625   2.712   2.647   0.666 -0.3550  0.3127  0.8033
  876SOL     OW 2626   0.823   1.470   0.250  0.0608  0.3974 -0.0108
  876SOL    HW1 2627   0.809   1.410   0.335 -1.1257 -0.5191  0.8424
  876SOL    HW2 2628   0.744   1.536   0.249 -0.0292 -1.4215  0.9483
  877SOL     OW 2629   2.949   0.208   0.849  0.1927  0.0650  0.4437
  877SOL    HW1 2630   3.036   0.215   0.791 -3.3608  1.3608 -1.9287
  877SOL    HW2 2631   2.910   0.300   0.865  0.2657 -1.0339 -0.7270
  878SOL     OW 2632   2.201   1.632   0.559  0.2825 -0.7809  0.3371
  878SOL    HW1 2633   2.159   1.636   0.469  1.3933 -1.3432  1.5414
  878SOL    HW2 2634   2.147   1.570   0.620 -2.3505  1.8752 -2.3532
  879SOL     OW 2635   2.301   1.596   1.125 -0.0317 -0.2523 -0.1038
  879SOL    HW1 2636   2.300   1.500   1.154 -0.7015  4.0078  0.5121
  879SOL    HW2 2637   2.392   1.642   1.132  0.4130 -0.2594 -2.5595
  880SOL     OW 2638   0.443   2.448   0.818  0.6737 -0.0478 -0.0308
  880SOL    HW1 2639   0.382   2.371   0.852 -1.5103 -1.5931  0.5291
  880SOL    HW2 2640   0.478   2.505   0.897 -0.3102  5.2426 -0.3874
  881SOL     OW 2641   1.041   0.889   0.859 -0.2871  0.1052  0.2950
  881SOL    HW1 2642   1.019   0.914   0.763 -0.6138  0.8640  2.4133
  881SOL    HW2 2643   1.066   0.972   0.920 -2.1767  1.3068  4.3276
  882SOL     OW 2644   2.274   1.058   0.696 -0.7966 -0.1452  0.4819
  882SOL    HW1 2645   2.280   1.125   0.618  0.0940  1.6222 -0.0885
  882SOL    HW2 2646   2.212   0.980   0.674 -0.5883 -2.5887  0.6326
  883SOL     OW 2647   1.485   3.064   1.815 -0.6513 -0.0337 -0.6339
  883SOL    HW1 2648   1.483   0.030   1.899 -0.9289  0.1000  1.0985
  883SOL    HW2 2649   1.426   2.987   1.830  0.6271  1.9926 -0.2145
  884SOL     OW 2650   2.927   3.036   1.755 -0.6098  0.5807 -0.1479
  884SOL    HW1 2651   2.945   3.097   1.676 -0.1393  0.6547 -0.1629
  884SOL    HW2 2652   2.958   2.938   1.736 -3.6336 -2.3693 -1.2879
  885SOL     OW 2653   1.188   0.787   2.203 -0.2580 -0.7143  0.0465
  885SOL    HW1 2654   1.218   0.881   2.183  1.5483 -3.1083 -1.2650
  885SOL    HW2 2655   1.099   0.768   2.154  0.0071  0.6828 -0.1824
  886SOL     OW 2656   1.589   0.580   2.200  0.6502  0.1192  0.1402
  886SOL    HW1 2657   1.607   0.677   2.232 -0.8768  1.8745  1.4998
  886SOL    HW2 2658   1.560   0.522   2.280  2.3988 -1.3527 -0.9452
  887SOL     OW 2659   1.628   0.521   1.394  0.1299  0.3113  0.3401
  887SOL    HW1 2660   1.594   0.499   1.295 -2.5784 -0.0540 -0.7396
  887SOL    HW2 2661   1.730   0.523   1.392  2.0898 -2.0671 -1.5875
  888SOL     OW 2662   2.553   1.682   2.090  0.1533  0.3327  0.0144
  888SOL    HW1 2663   2.548   1.657   1.988  0.1312 -3.0679 -2.1543
  888SOL    HW2 2664   2.650   1.685   2.119 -0.9206 -0.2337 -0.4762
  889SOL     OW 2665   1.685   2.262   0.602  0.4875 -0.4019 -0.1073
  889SOL    HW1 2666   1.611   2.206   0.560 -2.6874  1.1834 -1.4419
  889SOL    HW2 2667   1.777   2.217   0.595 -1.7581  0.2146  1.8717
  890SOL     OW 2668   0.783   1.820   0.561  0.0388  0.4349 -0.2714
  890SOL    HW1 2669   0.823   1.770   0.637 -1.1861 -1.1010 -0.2142
  890SOL    HW2 2670   0.704   1.881   0.592 -1.8683  0.5162 -0.3976
  891SOL     OW 2671   2.619   0.875   2.827 -0.4353  0.1690  0.0472
  891SOL    HW1 2672   2.716   0.840   2.820 -0.7758 -0.1579 -0.9804
  891SOL    HW2 2673   2.612   0.923   2.916 -2.3292  0.1225 -2.4201
  892SOL     OW 2674   0.923   0.379   2.347 -0.2447  0.2300 -0.2026
  892SOL    HW1 2675   0.822   0.389   2.327  3.0635 -0.7632 -2.2697
  892SOL    HW2 2676   0.946   0.386   2.445  2.0264  1.1073 -0.6651
  893SOL     OW 2677   1.537   0.179   0.916 -0.1496 -0.6821 -0.7358
  893SOL    HW1 2678   1.610   0.203   0.981 -2.6731 -1.3234 -3.2836
  893SOL    HW2 2679   1.531   0.076   0.905  1.6846 -0.4471 -1.1340
  894SOL     OW 2680   2.995   3.034   1.017 -0.3842 -0.2596 -0.5824
  894SOL    HW1 2681   3.007   0.022   0.958 -1.0092 -0.5779 -1.2053
  894SOL    HW2 2682   2.997   3.066   1.110  0.6879 -1.4926  0.1491
  895SOL     OW 2683   1.764   2.747   2.994  0.0572  0.4283 -0.7316
  895SOL    HW1 2684   1.752   2.704   2.899  0.8383  1.2433 -0.0786
  895SOL    HW2 2685   1.860   2.734   3.021 -0.7492  1.2861 -1.3347
  896SOL     OW 2686   2.024   2.983   1.947 -0.1322  0.2711  0.4845
  896SOL    HW1 2687   2.074   2.954   1.859  1.2466  1.5469 -1.4300
  896SOL    HW2 2688   1.950   3.051   1.933  0.4734 -1.2249  0.2156
  897SOL     OW 2689   0.364   1.840   1.606 -0.1777 -0.2490 -0.1950
  897SOL    HW1 2690   0.397   1.787   1.689 -0.5298 -1.6288  2.9186
  897SOL    HW2 2691   0.395   1.939   1.607  1.6864  1.3773  0.0942
  898SOL     OW 2692   2.740   1.812   1.785  0.2033  0.4214 -0.6763
  898SOL    HW1 2693   2.679   1.879   1.743 -1.3095 -0.2525  1.1404
  898SOL    HW2 2694   2.766   1.748   1.713  0.0324  1.8675 -0.2895
  899SOL     OW 2695   1.428   1.894   1.027  0.0911 -0.1704 -0.2041
  899SOL    HW1 2696   1.357   1.901   0.954 -2.3978 -1.3029 -0.2641
  899SOL    HW2 2697   1.463   1.795   1.025 -0.4113 -0.4221  0.4698
  900SOL     OW 2698   0.732   0.066   2.868 -0.3638  0.5873 -0.7778
  900SOL    HW1 2699   0.716   3.061   2.863  1.1769 -0.4599 -1.4853
  900SOL    HW2 2700   0.764   0.111   2.786 -0.9780  0.1985  1.9018
  901SOL     OW 2701   1.527   1.543   2.587  0.7366  0.1681 -0.6781
  901SOL    HW1 2702   1.481   1.591   2.511 -0.5488 -0.2832  0.9041
  901SOL    HW2 2703   1.627   1.553   2.571  1.8619  0.4513 -0.4989
  902SOL     OW 2704   2.895   0.142   2.874 -0.3845  0.1960  0.2970
  902SOL    HW1 2705   2.861   0.147   2.968 -2.4528  0.7659 -1.3837
  902SOL    HW2 2706   2.963   0.067   2.866 -0.7858 -2.0444 -1.6896
  903SOL     OW 2707   2.227   0.756   2.082 -0.3443  0.1508 -0.4956
  903SOL    HW1 2708   2.162   0.798   2.150 -0.5409  0.0078  2.3689
  903SOL    HW2 2709   2.288   0.693   2.129 -1.8536  0.3923 -0.1663
  904SOL     OW 2710   1.498   0.415   2.440  0.2872 -0.1741  0.6273
  904SOL    HW1 2711   1.576   0.426   2.507 -0.2239  1.0131 -0.3466
  904SOL    HW2 2712   1.434   0.344   2.471  1.8945  0.1846  0.3499
  905SOL     OW 2713   2.097   2.509   1.578  0.2408 -0.3199 -0.0320
  905SOL    HW1 2714   2.191   2.543   1.553  3.3602  1.3147 -1.1178
  905SOL    HW2 2715   2.057   2.566   1.652 -0.0407 -0.6806 -0.8499
  906SOL     OW 2716   1.532   1.872   0.462  0.3043 -0.0259 -0.4451
  906SOL    HW1 2717   1.554   1.832   0.377  0.7452  2.8604  3.1992
  906SOL    HW2 2718   1.483   1.800   0.521  0.6574 -1.8571 -0.3284
  907SOL     OW 2719   1.091   2.953   0.678 -0.3159 -0.1333  0.1586
  907SOL    HW1 2720   1.109   2.955   0.578 -0.7709  0.9171 -3.0413
  907SOL    HW2 2721   1.049   3.040   0.704 -1.5834 -1.4959  1.4401
  908SOL     OW 2722   1.296   2.494   1.916 -0.0307  0.0013 -0.5169
  908SOL    HW1 2723   1.396   2.524   1.937  0.1494 -0.5025  1.9161
  908SOL    HW2 2724   1.225   2.552   1.961  0.1986  1.0505 -0.4329
  909SOL     OW 2725   2.122   0.239   2.000 -0.1090  0.2142  0.1413
  909SOL    HW1 2726   2.068   0.158   1.970 -1.2720  1.0159  0.5108
  909SOL    HW2 2727   2.120   0.306   1.926  0.7863  0.3285 -1.3054
  910SOL     OW 2728   1.179   1.154   2.974  0.6061  0.0497 -0.0305
  910SOL    HW1 2729   1.122   1.104   3.042 -2.3524  0.3325  0.3142
  910SOL    HW2 2730   1.273   1.182   3.009  0.5120  1.5826  0.2839
  911SOL     OW 2731   2.981   1.093   0.204  0.2038  0.1756 -0.5084
  911SOL    HW1 2732   3.016   1.188   0.230 -0.8028  0.7725  1.7763
  911SOL    HW2 2733   2.881   1.101   0.189  0.6205  1.4821 -3.5609
  912SOL     OW 2734   0.241   2.243   0.527 -0.2690 -0.0452 -0.1473
  912SOL    HW1 2735   0.164   2.219   0.463 -0.8007 -1.1311  0.0732
  912SOL    HW2 2736   0.333   2.213   0.495 -2.4121 -0.4257  0.1409
  913SOL     OW 2737   2.697   2.361   2.424 -0.0415 -0.0063  0.3194
  913SOL    HW1 2738   2.715   2.283   2.358  0.5610 -1.4621 -2.5716
  913SOL    HW2 2739   2.761   2.351   2.505  3.4804  0.5860  0.7500
  914SOL     OW 2740   1.359   1.828   1.720 -0.1880  0.4829 -0.1976
  914SOL    HW1 2741   1.408   1.861   1.637  0.7828  0.2649 -3.3865
  914SOL    HW2 2742   1.355   1.725   1.713  0.7711 -1.2964 -0.2478
  915SOL     OW 2743   0.831   2.712   2.197  0.0542 -0.0040  0.1776
  915SOL    HW1 2744   0.807   2.810   2.194  1.4478 -0.4268  1.2925
  915SOL    HW2 2745   0.800   2.665   2.280 -1.4609 -1.3213 -0.4233
  916SOL     OW 2746   0.536   0.781   1.717  0.1390  0.0739  0.9100
  916SOL    HW1 2747   0.629   0.810   1.691 -0.6103 -1.2163 -2.2432
  916SOL    HW2 2748   0.466   0.801   1.648 -0.4084  0.7194  2.4704
  917SOL     OW 2749   2.833   0.453   0.546 -0.0482  0.4134 -0.2193
  917SOL    HW1 2750   2.910   0.390   0.515  1.3959 -0.2294 -0.8301
  917SOL    HW2 2751   2.745   0.408   0.535  0.8035 -0.1179  0.0126
  918SOL     OW 2752   1.757   2.653   2.759 -0.1805  0.0072  0.2709
  918SOL    HW1 2753   1.825   2.582   2.789  1.1149 -0.7233 -0.2649
  918SOL    HW2 2754   1.667   2.606   2.738  0.7318  0.2559 -0.2247
  919SOL     OW 2755   1.633   2.573   1.645 -0.3620 -0.0031  0.4221
  919SOL    HW1 2756   1.621   2.523   1.554 -2.1375  0.4708  0.1370
  919SOL    HW2 2757   1.629   2.672   1.633 -1.4833 -3.2028  1.8424
  920SOL     OW 2758   0.638   0.681   2.949 -0.4782  0.1575 -0.2340
  920SOL    HW1 2759   0.663   0.721   2.857  1.0284 -2.9217  1.2805
  920SOL    HW2 2760   0.549   0.717   2.984  0.9888  1.8969 -0.5508
  921SOL     OW 2761   2.870   0.791   2.829  0.6731 -0.2976 -0.1054
  921SOL    HW1 2762   2.933   0.857   2.780 -0.2337  1.6288  1.2750
  921SOL    HW2 2763   2.876   0.699   2.785 -1.2963 -1.4971 -1.6272
  922SOL     OW 2764   0.344   1.903   0.951 -0.2115 -0.2181  0.1242
  922SOL    HW1 2765   0.405   1.844   1.009  0.9752 -0.0254 -1.3287
  922SOL    HW2 2766   0.395   1.984   0.916  0.4607 -1.0469  1.3627
  923SOL     OW 2767   0.742   1.133   1.957 -0.5864 -0.3232  0.2207
  923SOL    HW1 2768   0.798   1.055   1.914  1.6320 -0.5593 -0.6578
  923SOL    HW2 2769   0.799   1.181   2.029  0.4031 -0.5623 -0.3307
  924SOL     OW 2770   1.533   0.127   2.887  0.2087  0.3077 -0.5848
  924SOL    HW1 2771   1.562   0.165   2.977 -2.1207  0.9524  1.3333
  924SOL    HW2 2772   1.600   0.069   2.840 -2.3696 -1.2170 -0.8497
  925SOL     OW 2773   2.843   1.312   1.237  0.4757 -0.1115  0.4818
  925SOL    HW1 2774   2.795   1.231   1.199 -2.7959  0.3503  0.8622
  925SOL    HW2 2775   2.831   1.329   1.334  0.3224  1.4856  0.4920
  926SOL     OW 2776   2.256   0.580   1.421 -0.0788  0.8884 -0.0504
  926SOL    HW1 2777   2.308   0.528   1.495 -0.5896  1.1163  0.1699
  926SOL    HW2 2778   2.173   0.622   1.464  1.4952 -3.6640  1.9247
  927SOL     OW 2779   2.038   3.091   1.259 -0.3614 -0.1735 -0.2058
  927SOL    HW1 2780   2.036   3.023   1.338  0.1240 -1.6018  0.6817
  927SOL    HW2 2781   2.114   0.066   1.261  2.0923  1.9497 -0.1293
  928SOL     OW 2782   0.172   1.307   2.491  0.3361 -0.2986  0.3184
  928SOL    HW1 2783   0.223   1.364   2.427  0.4141  1.2671  1.2999
  928SOL    HW2 2784   0.136   1.224   2.445  3.9381  0.8443 -1.8377
  929SOL     OW 2785   2.811   0.766   1.256 -0.4069 -0.0289 -0.5379
  929SOL    HW1 2786   2.722   0.799   1.226 -0.1470  0.1413  1.1401
  929SOL    HW2 2787   2.811   0.760   1.359  0.9553  0.8300 -1.3974
  930SOL     OW 2788   3.000   2.454   2.080  0.7553 -0.0907  0.0976
  930SOL    HW1 2789   3.037   2.540   2.118  2.3467 -1.1373  0.1403
  930SOL    HW2 2790   3.016   2.456   1.977 -1.7126  2.5792 -2.0057
  931SOL     OW 2791   1.917   0.487   1.409 -0.0473  0.2083  0.0294
  931SOL    HW1 2792   1.930   0.477   1.307  2.3531  0.8834  1.2906
  931SOL    HW2 2793   1.962   0.566   1.445  0.8213  0.4304 -4.3506
  932SOL     OW 2794   0.233   1.004   1.827 -0.0056  0.3767 -0.0048
  932SOL    HW1 2795   0.318   1.060   1.819  0.7898  1.8187  1.6165
  932SOL    HW2 2796   0.156   1.060   1.790  0.0239 -1.3008  0.4489
  933SOL     OW 2797   2.717   1.916   1.441 -0.3864 -0.8578 -0.6145
  933SOL    HW1 2798   2.669   1.985   1.391  1.1702  0.6630  0.2639
  933SOL    HW2 2799   2.658   1.829   1.450 -2.6791  0.3510 -1.1494
  934SOL     OW 2800   0.507   1.646   1.469  0.1403 -0.2387 -0.3670
  934SOL    HW1 2801   0.598   1.684   1.497  0.4311  0.1792 -0.2541
  934SOL    HW2 2802   0.435   1.701   1.523 -1.3105  1.5937  1.0544
  935SOL     OW 2803   2.837   1.381   1.514  0.0376 -0.1001  0.1535
  935SOL    HW1 2804   2.914   1.316   1.538  0.8879  0.3690 -2.1433
  935SOL    HW2 2805   2.755   1.376   1.573  2.5521  0.0725 -1.2316
  936SOL     OW 2806   2.589   1.363   1.666 -0.4799 -0.4077  0.4247
  936SOL    HW1 2807   2.641   1.300   1.729 -1.7323 -2.0041  1.9062
  936SOL    HW2 2808   2.532   1.434   1.716 -1.0488 -1.6327  0.6481
  937SOL     OW 2809   2.038   0.708   1.518  0.7282  0.3372  0.1946
  937SOL    HW1 2810   2.041   0.727   1.619  0.2161  1.0164 -2.4412
  937SOL    HW2 2811   2.012   0.789   1.468  1.4317  1.2589  2.2152
  938SOL     OW 2812   0.351   2.816   2.944 -0.0644 -0.0681  0.1362
  938SOL    HW1 2813   0.425   2.767   2.992 -0.8808 -1.4937 -1.8826
  938SOL    HW2 2814   0.369   2.836   2.845 -1.2980 -2.6553 -0.6825
  939SOL     OW 2815   2.623   1.976   2.618  0.0973 -0.0246 -0.4886
  939SOL    HW1 2816   2.703   1.920   2.583  0.4201  0.4716 -0.0231
  939SOL    HW2 2817   2.570   2.012   2.543  1.9723 -0.5004  1.4675
  940SOL     OW 2818   1.460   2.139   0.476 -0.3947  0.0680  0.2909
  940SOL    HW1 2819   1.382   2.157   0.542 -3.0938 -0.2275  2.6818
  940SOL    HW2 2820   1.485   2.037   0.471 -0.3021 -4.4314  1.1069
  941SOL     OW 2821   2.004   2.683   0.020  0.2362 -0.8225  0.0219
  941SOL    HW1 2822   2.101   2.693   0.038 -1.2633 -1.9342  2.0135
  941SOL    HW2 2823   1.959   2.619   0.083 -0.7735 -0.7607 -1.1131
  942SOL     OW 2824   1.757   2.204   0.994  0.1973  0.4320  0.5041
  942SOL    HW1 2825   1.790   2.287   1.052 -0.9017  2.4196  2.9658
  942SOL    HW2 2826   1.804   2.194   0.907  0.0357  1.5103  0.3013
  943SOL     OW 2827   2.397   0.996   1.768  0.2107  0.0571 -0.1180
  943SOL    HW1 2828   2.395   0.986   1.868 -3.2241 -1.1086 -0.7490
  943SOL    HW2 2829   2.348   0.915   1.726  2.7598 -1.8667 -0.0957
  944SOL     OW 2830   1.455   0.675   2.561 -0.0983 -0.6225 -0.2693
  944SOL    HW1 2831   1.475   0.586   2.518 -1.1189  3.1418  2.1654
  944SOL    HW2 2832   1.403   0.733   2.496 -0.0378 -1.8041 -2.0214
  945SOL     OW 2833   2.675   2.082   1.064  0.4217 -0.3878  0.1732
  945SOL    HW1 2834   2.592   2.025   1.067  0.5792  0.9890 -2.1975
  945SOL    HW2 2835   2.665   2.164   1.115 -2.1999 -1.4097  0.6577
  946SOL     OW 2836   0.532   1.013   3.058 -0.1266 -0.3676 -1.0965
  946SOL    HW1 2837   0.600   1.073   0.011 -1.0194  0.8209  4.2171
  946SOL    HW2 2838   0.542   1.022   2.957  1.7966 -1.3500  0.4855
  947SOL     OW 2839   1.879   2.802   1.653 -0.2293  0.3304  0.2612
  947SOL    HW1 2840   1.825   2.866   1.707  2.8206 -0.8254 -1.7072
  947SOL    HW2 2841   1.909   2.725   1.713  1.6705 -0.3478 -0.8706
  948SOL     OW 2842   0.104   1.776   0.937 -0.1359  0.4217  0.4547
  948SOL    HW1 2843   0.188   1.836   0.929  0.6559 -0.6701  2.3185
  948SOL    HW2 2844   0.118   1.699   1.007  0.0206  0.2243  1.1787
  949SOL     OW 2845   1.307   0.912   1.670  0.0740  0.1309 -0.2550
  949SOL    HW1 2846   1.356   0.970   1.606 -1.4158 -2.1641  2.5209
  949SOL    HW2 2847   1.365   0.832   1.697 -1.9981  1.4737 -1.0642
  950SOL     OW 2848   0.201   0.819   1.030 -0.7147  0.1107  0.5668
  950SOL    HW1 2849   0.166   0.891   0.963 -2.1848 -0.2556 -0.9813
  950SOL    HW2 2850   0.300   0.802   1.014  1.6797  0.6449 -0.1381
  951SOL     OW 2851   0.462   1.957   2.122  0.2449 -0.0522 -0.0219
  951SOL    HW1 2852   0.464   1.852   2.127 -1.3812  1.9194  0.5183
  951SOL    HW2 2853   0.548   1.985   2.077  1.1124 -1.9614 -0.7045
  952SOL     OW 2854   1.625   1.500   0.237  0.1207  0.3807  0.1182
  952SOL    HW1 2855   1.551   1.561   0.213  0.7963 -1.2780  1.2427
  952SOL    HW2 2856   1.674   1.464   0.157 -0.3572 -1.4330 -1.3909
  953SOL     OW 2857   1.158   0.652   0.049  0.3759  0.1507  0.0388
  953SOL    HW1 2858   1.089   0.580   0.077 -2.7627  0.8565 -2.8830
  953SOL    HW2 2859   1.111   0.733   0.003  0.0193 -3.0741 -0.6114
  954SOL     OW 2860   2.219   1.271   0.542  0.0929 -0.4419  0.3819
  954SOL    HW1 2861   2.247   1.302   0.446  2.5889  2.3180 -2.9714
  954SOL    HW2 2862   2.115   1.254   0.548 -1.7437  1.3705 -2.6902
  955SOL     OW 2863   2.686   2.988   2.898  0.0385 -0.1566  0.4056
  955SOL    HW1 2864   2.650   2.917   2.838 -2.3400  1.9881  0.6044
  955SOL    HW2 2865   2.754   2.941   2.952 -3.9001  0.3419 -1.7595
  956SOL     OW 2866   1.185   0.674   1.303 -0.2169  0.3565 -0.4245
  956SOL    HW1 2867   1.261   0.741   1.325  1.9627 -0.6257 -1.3632
  956SOL    HW2 2868   1.186   0.591   1.365 -0.0153  0.7985 -2.5735
  957SOL     OW 2869   1.466   1.206   1.201  0.1148  0.1417  0.1860
  957SOL    HW1 2870   1.459   1.208   1.302  2.1511  1.6093 -1.0582
  957SOL    HW2 2871   1.417   1.287   1.160 -0.7862  3.8461 -1.6062
  958SOL     OW 2872   0.468   1.708   0.609 -0.1788  0.0494  0.1896
  958SOL    HW1 2873   0.369   1.721   0.635 -0.9231 -3.2334  1.1074
  958SOL    HW2 2874   0.510   1.799   0.610 -1.8131 -2.6466 -0.2166
  959SOL     OW 2875   2.006   1.342   0.957  0.1501  0.3353  0.0625
  959SOL    HW1 2876   1.964   1.414   1.014  0.4732  0.3371  0.0554
  959SOL    HW2 2877   1.952   1.258   0.948  2.9884  0.4977 -0.1863
  960SOL     OW 2878   3.002   1.386   2.948 -0.1944  0.8392  0.2655
  960SOL    HW1 2879   3.061   1.372   2.867 -2.3616  0.5363  1.2059
  960SOL    HW2 2880   2.939   1.307   2.964  0.5799  0.3184  1.0624
  961SOL     OW 2881   0.910   1.400   0.682 -0.6054  0.4257  0.1094
  961SOL    HW1 2882   0.851   1.336   0.740 -0.4740 -1.4240  1.2906
  961SOL    HW2 2883   0.894   1.497   0.714 -0.8910  1.4504 -1.0293
  962SOL     OW 2884   1.092   1.181   0.301 -0.3610  0.0186 -0.0402
  962SOL    HW1 2885   1.170   1.143   0.354 -1.2227  2.2259 -0.5102
  962SOL    HW2 2886   1.048   1.264   0.342 -0.6890 -0.4908 -0.8419
  963SOL     OW 2887   1.332   2.144   2.289  0.1925  0.8763 -0.4113
  963SOL    HW1 2888   1.418   2.092   2.288  0.9812  3.4481 -0.7729
  963SOL    HW2 2889   1.255   2.080   2.307  1.5202  1.4006  1.3361
  964SOL     OW 2890   2.855   2.798   3.075 -0.0363  0.1123  0.0866
  964SOL    HW1 2891   2.809   2.703   3.070 -1.4836 -1.7844  1.0226
  964SOL    HW2 2892   2.944   2.803   3.025  1.1539 -1.6859 -1.5558
  965SOL     OW 2893   0.482   2.369   0.239  0.1468 -0.0783  0.5902
  965SOL    HW1 2894   0.560   2.399   0.180 -0.1153  1.4113  0.0685
  965SOL    HW2 2895   0.404   2.357   0.171  0.4735  2.2003  0.2586
  966SOL     OW 2896   2.957   1.771   2.707 -0.6035  0.5465 -0.5566
  966SOL    HW1 2897   2.924   1.809   2.797 -0.2272  0.8689  3.5190
  966SOL    HW2 2898   2.897   1.805   2.628 -2.4237  1.8251 -1.0111
  967SOL     OW 2899   1.939   3.095   3.074  0.0367 -0.4162  0.0821
  967SOL    HW1 2900   1.948   3.074   0.075 -0.5921  1.6613 -0.8165
  967SOL    HW2 2901   2.030   0.028   3.029  1.1831 -0.6886 -3.5810
  968SOL     OW 2902   1.910   2.941   0.542  0.3707  0.5975  0.2546
  968SOL    HW1 2903   1.817   2.914   0.517  3.8855 -0.7380  1.3656
  968SOL    HW2 2904   1.902   3.017   0.607  0.5599 -0.6279  0.2496
  969SOL     OW 2905   0.870   1.282   2.182 -0.1643  0.0591 -0.7044
  969SOL    HW1 2906   0.966   1.252   2.158 -1.3300 -2.2873  0.4922
  969SOL    HW2 2907   0.863   1.300   2.283  2.6402 -1.2307 -0.6784
  970SOL     OW 2908   1.569   1.267   0.897 -0.2136  0.5097 -0.4256
  970SOL    HW1 2909   1.598   1.174   0.913  0.1219  2.3192  1.2623
  970SOL    HW2 2910   1.603   1.329   0.972  0.8908 -0.8056 -3.1745
  971SOL     OW 2911   2.153   0.101   1.567 -0.2393 -0.1414 -0.0875
  971SOL    HW1 2912   2.054   0.130   1.563 -0.6735  1.3257 -0.5447
  971SOL    HW2 2913   2.194   0.093   1.475 -1.9580 -0.9348  0.5497
  972SOL     OW 2914   0.067   0.071   1.628 -0.2889 -0.3016 -0.0072
  972SOL    HW1 2915   0.137   0.134   1.672 -1.8641 -0.3170  0.4857
  972SOL    HW2 2916   0.085   3.072   1.657  1.8868  0.6228  2.5013
  973SOL     OW 2917   0.148   0.310   2.652 -0.0815 -0.1895 -0.2359
  973SOL    HW1 2918   0.068   0.315   2.715  1.8762  0.7416 -1.8706
  973SOL    HW2 2919   0.224   0.373   2.679  1.0456 -1.3806  1.7603
  974SOL     OW 2920   2.067   1.405   2.403  0.3340  0.1529 -0.6817
  974SOL    HW1 2921   2.112   1.481   2.463  0.5226  1.3699 -0.7073
  974SOL    HW2 2922   2.132   1.320   2.406  2.0514 -1.3065  0.2825
  975SOL     OW 2923   0.520   0.139   1.422 -0.6384 -0.3039  0.1339
  975SOL    HW1 2924   0.420   0.123   1.436  0.6897  1.3394  1.1589
  975SOL    HW2 2925   0.560   0.190   1.494 -1.0206 -2.4796 -1.1928
  976SOL     OW 2926   0.932   2.247   2.483  0.3575 -0.6659  0.1114
  976SOL    HW1 2927   0.986   2.314   2.428  0.0568 -1.0370  1.3509
  976SOL    HW2 2928   0.848   2.222   2.425 -0.9744  0.3872  2.4738
  977SOL     OW 2929   0.638   0.002   0.699  0.5682  0.7078 -0.1497
  977SOL    HW1 2930   0.620   0.002   0.597 -0.0910 -0.0059  0.7794
  977SOL    HW2 2931   0.600   3.009   0.727 -0.6498 -0.4810 -1.1931
  978SOL     OW 2932   2.893   1.383   2.000 -0.2946  0.4723 -0.3788
  978SOL    HW1 2933   2.934   1.316   2.065  0.8729 -1.2845  1.6672
  978SOL    HW2 2934   2.860   1.461   2.054  1.0443  1.5612  0.4902
  979SOL     OW 2935   1.747   3.008   1.756  0.5878 -0.5354 -0.0867
  979SOL    HW1 2936   1.811   3.088   1.774  1.9990  0.1059  2.0867
  979SOL    HW2 2937   1.650   3.030   1.787 -0.2201 -1.5796  0.7580
  980SOL     OW 2938   1.588   1.754   1.955 -0.3021  0.5538  0.2577
  980SOL    HW1 2939   1.537   1.826   1.907  3.1661 -0.4288 -1.1130
  980SOL    HW2 2940   1.548   1.727   2.044 -0.8428  0.9968  1.0346
  981SOL     OW 2941   2.836   0.780   1.528  0.2192 -0.1342  0.0186
  981SOL    HW1 2942   2.787   0.853   1.584  2.4080 -1.2246  0.2082
  981SOL    HW2 2943   2.935   0.803   1.536  0.3736  1.1487 -0.4655
  982SOL     OW 2944   0.302   0.134   2.798  0.0653  0.6413 -0.3785
  982SOL    HW1 2945   0.259   0.049   2.828  1.0519  0.5896  0.3492
  982SOL    HW2 2946   0.248   0.178   2.720 -0.7613 -1.6524 -1.7737
  983SOL     OW 2947   2.659   0.565   2.477 -0.1430  0.4332  0.0462
  983SOL    HW1 2948   2.618   0.657   2.492 -1.8886 -2.1396 -1.7556
  983SOL    HW2 2949   2.629   0.519   2.390  1.5724 -2.2915 -1.9495
  984SOL     OW 2950   1.155   0.005   2.094  0.4842  0.1353 -0.1088
  984SOL    HW1 2951   1.234   3.060   2.139 -2.0223 -0.7562  2.3731
  984SOL    HW2 2952   1.101   3.031   2.036  0.0725 -2.0744 -3.1858
  985SOL     OW 2953   1.888   1.520   2.179  0.2488 -0.0811 -1.0211
  985SOL    HW1 2954   1.922   1.618   2.186  0.2935  2.0960 -0.8625
  985SOL    HW2 2955   1.907   1.469   2.262 -0.6805  0.5235 -0.0736
  986SOL     OW 2956   2.691   0.425   1.349  0.8405  0.2137 -0.6162
  986SOL    HW1 2957   2.754   0.469   1.276 -0.8086  0.4573 -0.8522
  986SOL    HW2 2958   2.682   0.482   1.429 -1.1658 -1.5181 -3.5858
  987SOL     OW 2959   2.695   1.086   1.472 -0.0274 -0.3193  0.3209
  987SOL    HW1 2960   2.627   1.037   1.524  0.1523  1.4980 -0.4002
  987SOL    HW2 2961   2.672   1.093   1.370  0.7558 -1.5355 -1.7520
  988SOL     OW 2962   2.999   1.228   2.195 -0.2162  0.1394  0.0369
  988SOL    HW1 2963   3.052   1.172   2.258 -3.4449  0.4227  2.1467
  988SOL    HW2 2964   2.901   1.210   2.200  0.5052  0.6849 -0.7478
  989SOL     OW 2965   1.542   1.929   0.102 -0.0816 -0.0201  0.2310
  989SOL    HW1 2966   1.585   1.994   0.165 -2.6087  2.6516  1.2975
  989SOL    HW2 2967   1.495   1.971   0.017 -1.9994  0.1771 -0.1704
  990SOL     OW 2968   1.143   0.518   2.255  0.3770 -0.3212 -0.0343
  990SOL    HW1 2969   1.152   0.618   2.240  1.0017 -0.9336  0.3539
  990SOL    HW2 2970   1.046   0.491   2.282  0.4999 -0.5335 -0.7995
  991SOL     OW 2971   1.349   0.950   0.715 -0.4017 -0.3607  0.9281
  991SOL    HW1 2972   1.383   0.880   0.785  3.9978 -0.6111 -3.0960
  991SOL    HW2 2973   1.408   0.953   0.630  1.9806  1.6720 -2.1346
  992SOL     OW 2974   2.306   1.577   0.856  0.4099  0.6307 -0.0054
  992SOL    HW1 2975   2.213   1.536   0.851  0.1062  1.3587  1.0668
  992SOL    HW2 2976   2.315   1.613   0.953 -2.1036  1.1963  1.0498
  993SOL     OW 2977   3.074   0.643   0.844 -0.0684 -0.1490  0.0109
  993SOL    HW1 2978   0.037   0.603   0.915 -1.8059  2.6447  0.9555
  993SOL    HW2 2979   0.037   0.696   0.780 -1.1505  0.6040 -0.7468
  994SOL     OW 2980   0.344   2.048   2.348  0.1829 -0.1019 -0.0179
  994SOL    HW1 2981   0.392   2.020   2.260  0.6091 -0.0732  1.2642
  994SOL    HW2 2982   0.267   1.984   2.369 -0.1958  0.3881 -0.8868
  995SOL     OW 2983   1.937   1.114   2.641  0.6447  0.6709  0.3348
  995SOL    HW1 2984   1.901   1.072   2.726  0.1021  0.0736  0.7502
  995SOL    HW2 2985   1.858   1.132   2.576 -0.4435  1.5190  0.7160
  996SOL     OW 2986   2.909   1.324   0.562 -0.4007 -0.8632  0.0603
  996SOL    HW1 2987   2.810   1.336   0.570  0.5867  0.8085  2.6341
  996SOL    HW2 2988   2.953   1.415   0.576 -1.4528 -0.6337 -1.1541
  997SOL     OW 2989   1.586   0.884   1.986  0.4448  0.4264  0.0418
  997SOL    HW1 2990   1.537   0.798   1.983  0.9365 -2.2595  1.0487
  997SOL    HW2 2991   1.684   0.869   1.972 -0.8283 -0.2772  0.3594
  998SOL     OW 2992   2.981   1.746   0.318  0.2211 -0.2623  0.6162
  998SOL    HW1 2993   3.047   1.752   0.238 -1.9200 -0.8705  0.0325
  998SOL    HW2 2994   2.979   1.647   0.350  0.4066 -3.7550  0.0420
  999SOL     OW 2995   3.062   2.311   0.236  0.1795  0.0800 -0.2211
  999SOL    HW1 2996   3.095   2.226   0.284  1.2644 -4.4622 -0.6717
  999SOL    HW2 2997   3.055   2.388   0.303 -2.8687 -2.2032 -0.4106
 1000SOL     OW 2998   0.951   0.857   2.373 -0.2650 -0.1446 -0.7560
 1000SOL    HW1 2999   0.970   0.784   2.443  1.1516  1.4444  2.3101
 1000SOL    HW2 3000   0.975   0.826   2.282  2.2567 -0.6205 -0.7018
   3.09747   3.09747   3.09747
