1000 SPC/Fw water molecules t= 277.00000 step= 277000
 3000
    1SOL     OW    1   2.763   2.641   1.100 -0.1435 -0.1325 -0.0656
    1SOL    HW1    2   2.861   2.625   1.079 -0.6914  0.1349 -3.4807
    1SOL    HW2    3   2.747   2.741   1.088 -0.1632  0.6501 -3.7063
    2SOL     OW    4   2.012   1.999   1.007 -0.0195 -0.0712  0.0027
    2SOL    HW1    5   2.096   2.057   1.015 -2.5446 -0.3103  1.0997
    2SOL    HW2    6   1.970   1.985   1.098  1.0504 -0.8022 -0.9839
    3SOL     OW    7   1.071   2.641   3.030 -0.1310 -0.0052  0.1734
    3SOL    HW1    8   1.113   2.707   2.963 -1.2149 -0.1983  1.1822
    3SOL    HW2    9   1.051   2.549   2.982 -1.2008 -0.7803 -0.7357
    4SOL     OW   10   1.823   1.957   1.233  0.2947 -0.1908  0.9168
    4SOL    HW1   11   1.876   1.880   1.263  0.4675  1.0963 -3.7079
    4SOL    HW2   12   1.852   2.040   1.282 -2.6089 -1.3392 -0.6920
    5SOL     OW   13   1.465   1.129   1.431  0.5702  0.2005 -0.2577
    5SOL    HW1   14   1.373   1.171   1.405 -0.3414 -1.9723 -0.5882
    5SOL    HW2   15   1.544   1.195   1.422  3.7614  0.0470 -1.5345
    6SOL     OW   16   2.611   2.963   0.187  0.2508 -0.1657 -0.5486
    6SOL    HW1   17   2.508   2.973   0.194 -1.8378  1.2748 -0.8904
    6SOL    HW2   18   2.642   2.940   0.281  2.3000 -2.3732  1.7295
    7SOL     OW   19   2.823   1.145   1.257  0.4610  0.1160 -0.1206
    7SOL    HW1   20   2.812   1.243   1.241  0.8170 -2.0215  1.7390
    7SOL    HW2   21   2.797   1.099   1.174 -1.9708  2.9474  1.1287
    8SOL     OW   22   1.119   2.665   1.049 -0.3877  0.5496  0.2241
    8SOL    HW1   23   1.078   2.697   0.962  1.5486 -0.8705  0.1623
    8SOL    HW2   24   1.098   2.726   1.125  1.4121 -1.8407 -1.3489
    9SOL     OW   25   1.762   0.114   2.054  0.1745  0.2231  0.1637
    9SOL    HW1   26   1.664   0.129   2.083  0.9760 -0.5336  1.7274
    9SOL    HW2   27   1.786   0.172   1.975 -1.2875 -2.5840 -0.4497
   10SOL     OW   28   0.840   2.389   0.882 -0.2818 -0.1104  0.5809
   10SOL    HW1   29   0.804   2.472   0.836 -0.7177 -1.3340  0.7300
   10SOL    HW2   30   0.915   2.413   0.945  0.7645 -0.5316 -0.4971
   11SOL     OW   31   1.542   1.472   0.792 -0.0574 -0.0070 -0.4248
   11SOL    HW1   32   1.645   1.483   0.775  0.5235 -2.1007  0.4734
   11SOL    HW2   33   1.534   1.389   0.849  0.5766 -1.5770  0.5610
   12SOL     OW   34   2.887   2.719   2.024  0.0218 -0.1132 -0.3585
   12SOL    HW1   35   2.894   2.814   2.055 -1.7878 -1.6252 -1.5178
   12SOL    HW2   36   2.979   2.671   2.033  0.2850 -1.1224 -1.2545
   13SOL     OW   37   2.231   0.065   0.391  0.1864 -0.3912 -0.3690
   13SOL    HW1   38   2.127   0.063   0.396 -0.7479  0.1710 -0.5407
   13SOL    HW2   39   2.270   3.108   0.457  1.9769  2.4647 -1.8543
   14SOL     OW   40   1.391   2.618   1.096 -0.2627 -0.2357 -0.5778
   14SOL    HW1   41   1.456   2.583   1.027 -0.1807 -3.4991  2.4259
   14SOL    HW2   42   1.305   2.653   1.062 -1.6147 -0.4511  0.9160
   15SOL     OW   43   3.049   1.939   1.307 -0.5303  0.6966 -0.2370
   15SOL    HW1   44   3.072   2.037   1.333  2.0783  0.8049  0.9836
   15SOL    HW2   45   0.017   1.883   1.286 -1.2411  1.9905  0.5926
   16SOL     OW   46   2.139   2.289   0.509 -0.1217  0.2298 -0.1909
   16SOL    HW1   47   2.068   2.296   0.581  0.5681  0.7283  3.6502
   16SOL    HW2   48   2.139   2.192   0.479 -1.8615  1.6399 -0.9130
   17SOL     OW   49   0.826   3.041   1.580  0.2050  0.1679 -0.1853
   17SOL    HW1   50   0.819   3.079   1.677 -0.3638  0.6231  0.7550
   17SOL    HW2   51   0.836   0.005   1.515  2.5573 -0.2442  1.7318
   18SOL     OW   52   1.333   0.802   0.073 -0.3769  0.0891  0.4717
   18SOL    HW1   53   1.328   0.774   3.090 -2.2791 -1.3551  1.7000
   18SOL    HW2   54   1.382   0.892   0.085 -3.1449  0.9291 -0.6431
   19SOL     OW   55   1.734   1.942   0.228  0.0597  0.6300  0.3484
   19SOL    HW1   56   1.786   1.855   0.207 -1.5094 -0.0045 -1.8884
   19SOL    HW2   57   1.662   1.964   0.157 -0.0908 -1.0466  3.0236
   20SOL     OW   58   2.446   1.957   1.799  0.4166  0.7062 -0.3066
   20SOL    HW1   59   2.359   1.987   1.839  2.1069  1.3624 -2.6458
   20SOL    HW2   60   2.451   1.854   1.806 -1.9671  1.6832  1.0686
   21SOL     OW   61   0.660   1.397   0.540 -0.6946  0.0189 -0.3833
   21SOL    HW1   62   0.618   1.316   0.496 -1.0374 -0.2744 -0.1355
   21SOL    HW2   63   0.632   1.477   0.485  0.1870 -4.0079  3.1318
   22SOL     OW   64   2.405   3.055   1.484 -0.7724 -0.1599  0.2644
   22SOL    HW1   65   2.407   0.030   1.535 -1.1809  0.2514  0.4569
   22SOL    HW2   66   2.458   2.990   1.537 -0.8497 -0.4424 -2.7360
   23SOL     OW   67   2.978   0.712   2.041  0.4433 -0.5687  0.2747
   23SOL    HW1   68   2.916   0.729   1.960 -1.6620  1.7444  1.4877
   23SOL    HW2   69   3.000   0.797   2.093  0.9372 -0.8944 -2.0361
   24SOL     OW   70   2.270   2.509   0.359  0.1227  0.9914  0.0714
   24SOL    HW1   71   2.305   2.495   0.264 -0.7430  3.5207 -1.3483
   24SOL    HW2   72   2.235   2.425   0.407  1.4061 -0.3917  0.4885
   25SOL     OW   73   1.549   3.113   2.443  0.2223  0.1701 -0.4709
   25SOL    HW1   74   1.540   0.082   2.508 -1.6617 -0.2118 -1.3755
   25SOL    HW2   75   1.631   0.012   2.383 -0.4622 -0.4545 -1.7905
   26SOL     OW   76   1.660   2.420   0.177 -0.1700  0.1199 -0.5271
   26SOL    HW1   77   1.742   2.357   0.170  1.1458  1.2888  0.3301
   26SOL    HW2   78   1.617   2.441   0.088  0.0557  1.3995 -0.0100
   27SOL     OW   79   2.647   1.999   0.066  0.5583 -0.3825 -0.1803
   27SOL    HW1   80   2.656   1.972   3.078  2.5136  0.1174 -2.2179
   27SOL    HW2   81   2.592   2.083   0.071  1.5942  1.3067  0.6390
   28SOL     OW   82   0.119   1.175   1.820  0.5743 -0.3176 -0.3929
   28SOL    HW1   83   0.020   1.208   1.815 -2.5057 -0.0332 -1.1959
   28SOL    HW2   84   0.125   1.082   1.768  0.0430 -0.6121 -1.9815
   29SOL     OW   85   2.310   2.336   1.542  0.3578  0.1835 -0.2202
   29SOL    HW1   86   2.226   2.395   1.556 -1.9342 -0.4061  0.6344
   29SOL    HW2   87   2.393   2.376   1.582 -0.6599  0.8043 -1.5261
   30SOL     OW   88   1.464   0.373   0.645 -0.8298 -1.1488  0.1013
   30SOL    HW1   89   1.512   0.354   0.557 -0.0089 -0.7314  1.3879
   30SOL    HW2   90   1.412   0.462   0.645 -2.2095  1.3071 -0.8972
   31SOL     OW   91   2.358   2.563   1.786 -0.4199 -0.4432  0.1323
   31SOL    HW1   92   2.311   2.486   1.827 -0.2431  1.1238 -0.4395
   31SOL    HW2   93   2.361   2.636   1.859 -0.1071 -0.6262 -0.5709
   32SOL     OW   94   0.827   2.022   1.217  0.1291 -0.1918  0.0385
   32SOL    HW1   95   0.847   1.998   1.116 -1.7634 -2.5955 -3.0533
   32SOL    HW2   96   0.778   2.111   1.218 -0.6799  0.1115 -2.6785
   33SOL     OW   97   0.658   0.083   2.559 -0.5966 -0.1643  0.2651
   33SOL    HW1   98   0.654   0.070   2.461 -2.1905 -0.1591  0.8124
   33SOL    HW2   99   0.572   0.074   2.609  0.5166  1.0392 -0.3775
   34SOL     OW  100   1.335   2.935   0.553  0.3879  0.4960 -0.8493
   34SOL    HW1  101   1.285   2.958   0.639 -0.9483  0.4177 -1.8873
   34SOL    HW2  102   1.425   2.984   0.559  0.9026 -1.5707  0.3098
   35SOL     OW  103   2.233   2.915   1.308 -0.4229  0.4255  0.0881
   35SOL    HW1  104   2.306   2.849   1.289 -2.1218  2.4990  0.3183
   35SOL    HW2  105   2.262   2.984   1.383  0.1111  1.6719  2.1172
   36SOL     OW  106   1.856   2.384   2.398  0.1243  0.0270  0.1534
   36SOL    HW1  107   1.825   2.332   2.481  3.5080 -0.2043  1.5918
   36SOL    HW2  108   1.803   2.473   2.386  0.9076  4.4316 -0.9695
   37SOL     OW  109   1.057   0.177   2.094  0.0463  0.0545 -0.3791
   37SOL    HW1  110   1.082   0.158   1.993  0.1126 -3.1152 -3.7807
   37SOL    HW2  111   1.013   0.269   2.105  0.4817 -0.4162  0.6122
   38SOL     OW  112   0.131   2.654   2.662  0.9168  0.3440 -0.1528
   38SOL    HW1  113   0.122   2.745   2.715 -2.2173 -0.9577  1.6514
   38SOL    HW2  114   0.205   2.660   2.597 -0.2822 -0.8262 -0.7794
   39SOL     OW  115   2.418   0.866   1.783 -0.2244  0.0479  0.3504
   39SOL    HW1  116   2.415   0.925   1.700  1.6660 -0.8251  0.4758
   39SOL    HW2  117   2.370   0.906   1.861  0.9845  1.2988 -3.2159
   40SOL     OW  118   1.133   2.986   0.156 -0.1691 -0.2521  0.1484
   40SOL    HW1  119   1.045   2.949   0.120 -0.0862 -0.6031  0.7778
   40SOL    HW2  120   1.179   3.047   0.091 -2.2718  1.1494  0.3467
   41SOL     OW  121   2.117   1.222   1.240 -0.2930 -0.1515  0.2755
   41SOL    HW1  122   2.212   1.209   1.223 -2.1506  0.2636  0.5816
   41SOL    HW2  123   2.075   1.301   1.180 -0.2975  1.0234 -1.9683
   42SOL     OW  124   0.454   0.501   1.017  0.1321 -0.1113  0.1615
   42SOL    HW1  125   0.471   0.599   0.999 -2.2541  0.6892 -3.7357
   42SOL    HW2  126   0.466   0.468   1.111  1.5095  0.1846 -1.2332
   43SOL     OW  127   2.285   1.676   2.739  0.1280 -0.2722 -0.0246
   43SOL    HW1  128   2.372   1.628   2.731 -2.7575  1.0206 -1.9848
   43SOL    HW2  129   2.226   1.624   2.673  1.4646 -0.3390  0.2481
   44SOL     OW  130   2.843   2.966   1.525  0.0809 -0.6385 -0.3745
   44SOL    HW1  131   2.868   2.934   1.618  1.7404  1.7081 -3.4198
   44SOL    HW2  132   2.786   3.050   1.534 -1.0891  1.9973  0.3606
   45SOL     OW  133   0.449   2.913   1.611 -0.4523 -0.3301  0.2098
   45SOL    HW1  134   0.370   2.874   1.562  1.6985  0.2275 -1.5940
   45SOL    HW2  135   0.531   2.918   1.550  0.8044  0.9616 -2.1150
   46SOL     OW  136   2.038   0.021   2.429  0.2468 -0.0705 -0.0923
   46SOL    HW1  137   2.102   3.090   2.361 -1.6742  0.0626 -0.9364
   46SOL    HW2  138   2.008   3.072   2.505 -0.1401 -0.2918  0.8280
   47SOL     OW  139   1.695   1.800   0.782 -0.2533  0.4402 -0.0181
   47SOL    HW1  140   1.626   1.777   0.854  0.8533  1.0823  1.1587
   47SOL    HW2  141   1.658   1.790   0.689  0.0777 -0.9875 -1.8250
   48SOL     OW  142   0.758   2.100   0.529  1.1669  0.1126 -0.0393
   48SOL    HW1  143   0.707   2.179   0.485 -0.5991 -3.8989  1.9537
   48SOL    HW2  144   0.841   2.074   0.479  0.5141 -0.8225  2.5716
   49SOL     OW  145   2.499   0.321   2.547 -0.0978 -0.3245  0.3742
   49SOL    HW1  146   2.483   0.332   2.648 -1.7561  1.4440  1.7391
   49SOL    HW2  147   2.431   0.254   2.507  0.5476  1.5981  0.0301
   50SOL     OW  148   1.978   0.394   0.349  0.0157 -0.3667 -0.2595
   50SOL    HW1  149   1.893   0.413   0.402 -1.9215  1.9070  0.0715
   50SOL    HW2  150   1.959   0.371   0.252 -1.8174  0.8049  0.4444
   51SOL     OW  151   1.900   0.831   1.027  0.0095 -0.6531 -0.0834
   51SOL    HW1  152   1.877   0.918   0.979 -0.1448 -2.0213 -0.9486
   51SOL    HW2  153   1.863   0.752   0.973 -1.0294  1.1130  0.5098
   52SOL     OW  154   1.224   1.379   1.726  0.1738 -0.5291  0.1520
   52SOL    HW1  155   1.264   1.292   1.759 -0.2152 -3.6425  0.0674
   52SOL    HW2  156   1.148   1.362   1.660  1.8069  0.3473  0.0610
   53SOL     OW  157   0.807   1.698   2.219 -0.4135 -0.2843  0.2249
   53SOL    HW1  158   0.800   1.631   2.135  0.5257 -0.6762 -1.5747
   53SOL    HW2  159   0.870   1.773   2.195  0.4149 -0.1161  1.4411
   54SOL     OW  160   2.455   0.183   1.576  0.9745 -0.7092 -0.5432
   54SOL    HW1  161   2.447   0.244   1.659  1.1121  0.8183 -1.6553
   54SOL    HW2  162   2.418   0.237   1.497 -1.6904  0.9664  0.9142
   55SOL     OW  163   2.403   2.008   0.928 -0.2865 -0.2163 -0.0808
   55SOL    HW1  164   2.435   2.064   0.852  2.8659  2.9707  1.2599
   55SOL    HW2  165   2.384   1.912   0.897 -1.5536 -0.9309 -1.2933
   56SOL     OW  166   1.128   0.042   1.864 -0.2725  0.4444  0.1310
   56SOL    HW1  167   1.119   3.064   1.909 -2.4143 -0.4217  0.5847
   56SOL    HW2  168   1.223   0.055   1.830 -0.0608 -0.7496  4.9007
   57SOL     OW  169   1.352   1.382   0.184  0.2364 -0.2153  0.0633
   57SOL    HW1  170   1.376   1.362   0.280 -1.6454 -0.8583 -0.1976
   57SOL    HW2  171   1.327   1.296   0.135 -0.4822 -1.1394 -0.3384
   58SOL     OW  172   0.294   0.981   2.101 -0.2388  0.0740 -0.0425
   58SOL    HW1  173   0.232   1.054   2.067 -0.4494  2.7376  0.8505
   58SOL    HW2  174   0.381   1.022   2.134  1.5541 -1.6167 -2.7353
   59SOL     OW  175   1.204   0.118   2.531  0.3364 -0.0549  0.2823
   59SOL    HW1  176   1.211   0.185   2.606 -0.9286 -1.3257 -1.6465
   59SOL    HW2  177   1.173   0.026   2.567  1.6699  1.6993  0.8094
   60SOL     OW  178   2.911   2.173   0.361 -0.1178  0.2931  0.6118
   60SOL    HW1  179   2.809   2.159   0.366 -0.9321 -2.1786 -1.4894
   60SOL    HW2  180   2.937   2.265   0.321 -0.4590 -1.7421  1.1356
   61SOL     OW  181   0.969   2.175   0.292  0.2247 -0.0041 -0.0035
   61SOL    HW1  182   1.056   2.222   0.308  1.7733  1.1046 -2.8059
   61SOL    HW2  183   0.954   2.165   0.194  0.2864 -3.1401  0.8226
   62SOL     OW  184   2.089   2.101   2.740 -0.3581  0.4647  0.2512
   62SOL    HW1  185   2.088   2.002   2.761 -1.9849 -0.8485 -1.1268
   62SOL    HW2  186   2.009   2.122   2.679 -1.6572 -1.2264 -1.1734
   63SOL     OW  187   2.279   1.881   0.550  0.8741  0.4236 -0.3044
   63SOL    HW1  188   2.200   1.920   0.501 -0.0251 -1.2684  3.9972
   63SOL    HW2  189   2.371   1.905   0.518 -3.3053 -0.9782  0.4632
   64SOL     OW  190   1.955   1.155   2.715  0.4386  0.0627 -0.1192
   64SOL    HW1  191   1.902   1.141   2.800 -0.6818 -1.2313  0.4504
   64SOL    HW2  192   2.042   1.103   2.698  0.6986  0.2382 -0.9073
   65SOL     OW  193   1.411   1.954   2.954  0.0615  0.8060 -0.1473
   65SOL    HW1  194   1.426   1.906   3.040 -2.3544 -1.6655  0.1522
   65SOL    HW2  195   1.309   1.940   2.927 -2.6105 -0.4929 -1.4290
   66SOL     OW  196   0.270   1.452   2.474  0.1170  0.1462 -0.4353
   66SOL    HW1  197   0.196   1.521   2.464 -2.4553 -0.2913 -1.7930
   66SOL    HW2  198   0.282   1.397   2.389  0.3086 -1.3406  0.4245
   67SOL     OW  199   2.791   2.774   2.863 -0.6850  0.8191  0.0799
   67SOL    HW1  200   2.700   2.795   2.822  0.3712  0.6927  0.1112
   67SOL    HW2  201   2.864   2.790   2.794  0.5445  0.6014  1.7238
   68SOL     OW  202   0.691   2.568   1.550  0.6597 -0.3316 -0.3808
   68SOL    HW1  203   0.610   2.606   1.501  1.2571  0.6656 -0.9960
   68SOL    HW2  204   0.747   2.513   1.486  1.2442  2.9134 -0.8867
   69SOL     OW  205   0.827   2.610   0.468  0.1464 -0.9325 -0.2839
   69SOL    HW1  206   0.751   2.605   0.402  1.5799  2.1573 -0.2080
   69SOL    HW2  207   0.812   2.572   0.562 -1.6372  0.1198  0.5425
   70SOL     OW  208   2.564   0.830   2.647 -0.2852 -0.1335  0.2996
   70SOL    HW1  209   2.614   0.781   2.571 -2.6586  1.2962 -0.2701
   70SOL    HW2  210   2.624   0.893   2.699  1.2894  1.5134  0.2719
   71SOL     OW  211   0.798   1.212   2.452  0.2685  0.3312 -0.0896
   71SOL    HW1  212   0.805   1.288   2.520  1.4088 -0.4019  0.7868
   71SOL    HW2  213   0.775   1.123   2.494  0.1885  1.2888 -1.1922
   72SOL     OW  214   3.097   1.970   0.410 -0.2394  0.0656  0.8275
   72SOL    HW1  215   0.018   1.995   0.505 -1.9620  1.3954  1.8493
   72SOL    HW2  216   3.053   2.051   0.367 -0.4387  1.5650 -1.9516
   73SOL     OW  217   0.869   1.410   0.696  0.0279 -0.0251 -0.2695
   73SOL    HW1  218   0.907   1.501   0.680 -1.5739  0.9890 -0.3058
   73SOL    HW2  219   0.791   1.400   0.633  2.3054  1.4377 -0.0589
   74SOL     OW  220   2.223   2.720   0.055  0.1218  0.5511  0.3492
   74SOL    HW1  221   2.274   2.788   0.110  1.3123  0.3019 -2.0814
   74SOL    HW2  222   2.125   2.741   0.055 -5.1024 -2.1279  0.2909
   75SOL     OW  223   1.966   1.761   1.350  0.1486 -0.2799 -0.2412
   75SOL    HW1  224   1.918   1.737   1.435 -0.7163  1.5439 -0.5440
   75SOL    HW2  225   2.045   1.700   1.327 -1.9987  2.3712  0.8293
   76SOL     OW  226   1.915   2.542   1.740 -0.2256 -0.0916 -0.7132
   76SOL    HW1  227   1.844   2.614   1.764 -0.1353 -0.7050  1.7987
   76SOL    HW2  228   1.939   2.491   1.824  0.0544 -0.3688 -0.6373
   77SOL     OW  229   2.311   0.189   2.029 -1.2085  0.1563  0.4508
   77SOL    HW1  230   2.238   0.214   2.086  1.5497 -0.4498 -0.9404
   77SOL    HW2  231   2.387   0.145   2.078 -3.5421  0.0792 -1.4236
   78SOL     OW  232   1.653   0.910   2.960  0.6951 -0.3865 -0.1681
   78SOL    HW1  233   1.647   0.815   2.996  0.7422  0.4129 -0.2407
   78SOL    HW2  234   1.597   0.916   2.874  2.8113 -0.7388 -0.4558
   79SOL     OW  235   2.907   1.691   1.919 -0.0639  0.6452  0.5771
   79SOL    HW1  236   2.860   1.775   1.892  0.1863 -0.2901 -1.7754
   79SOL    HW2  237   2.864   1.650   2.003 -0.8443 -3.0394 -0.4103
   80SOL     OW  238   2.086   1.570   1.580  0.4171  0.2593  0.1924
   80SOL    HW1  239   2.055   1.492   1.519  0.3558 -3.2862 -1.6315
   80SOL    HW2  240   2.160   1.612   1.523 -2.2179  1.1283 -2.5659
   81SOL     OW  241   1.609   0.576   1.622  0.2158 -0.1099  0.3646
   81SOL    HW1  242   1.612   0.492   1.680  0.2112 -3.6685 -2.9420
   81SOL    HW2  243   1.596   0.667   1.675 -1.7005 -0.3968  2.2834
   82SOL     OW  244   1.289   2.554   1.337  0.4590  0.2065  0.3824
   82SOL    HW1  245   1.315   2.580   1.241  1.4320  1.1890  0.0053
   82SOL    HW2  246   1.262   2.636   1.392 -0.3142 -0.5163 -2.3639
   83SOL     OW  247   0.072   0.354   0.423 -0.2815  0.3360 -0.3293
   83SOL    HW1  248   0.055   0.259   0.455  1.0726  0.3168  0.9516
   83SOL    HW2  249   3.102   0.405   0.409  0.2066  0.4909 -1.6803
   84SOL     OW  250   0.294   1.213   3.016  0.2282 -0.7085  0.5927
   84SOL    HW1  251   0.195   1.224   3.023  1.0062  1.0981  0.5716
   84SOL    HW2  252   0.333   1.291   3.070 -0.4782  0.9517  0.4417
   85SOL     OW  253   2.799   1.892   1.751  0.2224  0.2482 -0.9962
   85SOL    HW1  254   2.807   1.860   1.652  0.2500  0.7039 -0.6921
   85SOL    HW2  255   2.709   1.930   1.774  4.9440  0.2709  2.9657
   86SOL     OW  256   2.855   2.266   1.668  0.2672  0.5390  0.2068
   86SOL    HW1  257   2.787   2.193   1.688 -0.7788 -0.1180 -0.2383
   86SOL    HW2  258   2.929   2.257   1.735 -2.1850 -1.0733 -1.9229
   87SOL     OW  259   0.887   0.471   2.710 -0.5406 -0.1696  0.4154
   87SOL    HW1  260   0.872   0.423   2.624 -1.0606 -2.4534  2.9268
   87SOL    HW2  261   0.829   0.427   2.782 -1.1928 -0.8383 -0.3968
   88SOL     OW  262   0.306   2.369   1.152 -0.0039 -0.4998 -0.2048
   88SOL    HW1  263   0.395   2.334   1.120  0.1053 -2.4868  1.8765
   88SOL    HW2  264   0.291   2.327   1.243  1.1712 -0.6440 -0.9524
   89SOL     OW  265   0.963   0.821   1.655  0.4561 -0.2654 -0.4953
   89SOL    HW1  266   0.958   0.776   1.563 -3.1618 -0.2922  0.5593
   89SOL    HW2  267   0.953   0.758   1.736 -0.1333  0.4003  2.9730
   90SOL     OW  268   2.824   1.587   1.566  0.3391  0.1626  0.1570
   90SOL    HW1  269   2.828   1.676   1.517 -0.4636 -0.2950 -2.5068
   90SOL    HW2  270   2.897   1.581   1.636 -0.7130  2.9484 -1.6916
   91SOL     OW  271   1.357   1.152   0.671 -0.9288  0.2535 -1.0257
   91SOL    HW1  272   1.310   1.159   0.761 -0.0819 -1.8026 -1.1713
   91SOL    HW2  273   1.302   1.179   0.591  0.3989 -1.1750  0.6483
   92SOL     OW  274   2.322   0.615   0.994  0.1699 -0.4679  0.9757
   92SOL    HW1  275   2.265   0.689   1.033 -0.2406 -0.3429 -0.8300
   92SOL    HW2  276   2.312   0.619   0.887 -1.5128  0.5493 -2.0199
   93SOL     OW  277   1.992   0.868   2.910 -0.6797 -0.0399  0.0743
   93SOL    HW1  278   1.900   0.872   2.949  0.6841  1.5135  1.3941
   93SOL    HW2  279   1.987   0.831   2.813 -0.0630 -1.2204 -1.3172
   94SOL     OW  280   2.525   1.675   2.232 -0.5584 -0.2185  0.3971
   94SOL    HW1  281   2.471   1.614   2.171 -0.8284  1.2948  0.4751
   94SOL    HW2  282   2.456   1.710   2.300 -1.6879 -0.6921  0.3870
   95SOL     OW  283   2.060   0.529   1.053 -0.3488 -0.0858  0.6198
   95SOL    HW1  284   2.159   0.546   1.038 -0.7643 -1.5184  0.0465
   95SOL    HW2  285   2.010   0.572   0.971  1.3790  1.7068 -0.5523
   96SOL     OW  286   2.517   0.049   2.179  0.2687 -0.2211 -0.1042
   96SOL    HW1  287   2.564   3.096   2.113 -1.9122  0.1703 -4.8352
   96SOL    HW2  288   2.568   0.140   2.186  1.3927  0.1453  0.7652
   97SOL     OW  289   2.325   0.318   1.344 -0.0176  0.4498 -0.3208
   97SOL    HW1  290   2.335   0.411   1.380  0.1123 -2.5407 -2.2448
   97SOL    HW2  291   2.229   0.285   1.347 -0.3803 -0.3376  1.1501
   98SOL     OW  292   1.504   2.471   1.734  0.0972 -0.0298  0.1753
   98SOL    HW1  293   1.447   2.392   1.725  1.3964  1.1719  1.7521
   98SOL    HW2  294   1.583   2.468   1.662  3.0339  2.5434 -0.7255
   99SOL     OW  295   2.183   2.083   1.513  0.1155  0.3387 -0.2277
   99SOL    HW1  296   2.234   2.157   1.562  1.6790  1.9437  0.2192
   99SOL    HW2  297   2.138   2.014   1.578 -0.3271 -0.4763  1.6118
  100SOL     OW  298   0.606   0.847   2.784 -0.8791 -0.9056  0.3495
  100SOL    HW1  299   0.658   0.783   2.841 -1.4421  0.6597 -0.1612
  100SOL    HW2  300   0.589   0.937   2.831 -0.5558 -0.1676 -0.2041
  101SOL     OW  301   2.035   0.426   2.899 -0.6061  0.5739 -1.3251
  101SOL    HW1  302   2.076   0.342   2.940 -0.2862 -0.4797  2.2120
  101SOL    HW2  303   2.075   0.511   2.944  0.0895  1.1522  2.4056
  102SOL     OW  304   0.148   0.694   1.782  0.2640 -0.0691 -0.0302
  102SOL    HW1  305   0.126   0.624   1.857  0.5084 -3.5103 -0.4968
  102SOL    HW2  306   0.202   0.654   1.705 -1.2673  2.7917  1.9925
  103SOL     OW  307   2.884   0.967   2.738 -0.0508 -0.3832  0.3345
  103SOL    HW1  308   2.845   1.005   2.652  1.6903 -0.9370 -0.0581
  103SOL    HW2  309   2.949   0.895   2.708 -0.2166 -1.3091  0.1998
  104SOL     OW  310   0.631   0.551   2.437  0.2074  0.4327 -0.0332
  104SOL    HW1  311   0.654   0.651   2.451 -2.6730  0.9102  2.5565
  104SOL    HW2  312   0.559   0.536   2.368  1.3199  1.2893  3.1732
  105SOL     OW  313   2.452   1.644   1.796  0.0727  0.3314  0.1185
  105SOL    HW1  314   2.370   1.584   1.818 -0.9786  0.1688  2.7097
  105SOL    HW2  315   2.533   1.606   1.840  0.5817  0.4965  0.3351
  106SOL     OW  316   1.737   0.504   0.461 -0.1208 -0.0705 -0.0430
  106SOL    HW1  317   1.701   0.597   0.464  0.5331 -2.0034 -0.2190
  106SOL    HW2  318   1.666   0.433   0.440  1.4268  2.9759 -2.6951
  107SOL     OW  319   0.238   1.519   0.712  0.2847  0.5232  0.1830
  107SOL    HW1  320   0.165   1.493   0.782  0.6460  0.4259  2.6972
  107SOL    HW2  321   0.257   1.615   0.725 -2.7459 -1.8662  0.0221
  108SOL     OW  322   2.778   2.495   1.544  0.5491 -0.0649  0.2673
  108SOL    HW1  323   2.816   2.427   1.613  1.1704 -1.4122  1.4955
  108SOL    HW2  324   2.769   2.450   1.454 -2.5924 -0.0068 -1.5372
  109SOL     OW  325   2.051   0.175   0.715  0.3777 -0.2488  0.2338
  109SOL    HW1  326   2.098   0.264   0.725 -2.9337 -0.2066 -0.3450
  109SOL    HW2  327   2.117   0.098   0.746  3.2744 -3.1793  2.0446
  110SOL     OW  328   0.352   2.022   2.630  0.5156  0.2507  0.1538
  110SOL    HW1  329   0.345   2.023   2.527 -0.5115 -2.6023 -0.2211
  110SOL    HW2  330   0.384   1.928   2.666  1.8282 -3.2236  1.4902
  111SOL     OW  331   1.502   2.728   1.770  0.0382  0.3427  0.5988
  111SOL    HW1  332   1.507   2.624   1.759 -0.6249 -2.2481  1.2918
  111SOL    HW2  333   1.497   2.767   1.678 -0.5082 -2.1221 -0.7991
  112SOL     OW  334   1.955   2.728   0.016  0.2571  0.0382  0.6685
  112SOL    HW1  335   1.875   2.769   3.082  0.1006  1.5965 -2.1406
  112SOL    HW2  336   1.953   2.756   0.112 -1.2112  0.1205 -3.3108
  113SOL     OW  337   1.723   2.457   1.528  0.3744  0.6115  0.0496
  113SOL    HW1  338   1.809   2.430   1.572  0.3993  1.3344  2.7816
  113SOL    HW2  339   1.722   2.434   1.430 -1.6622 -0.1183 -0.8971
  114SOL     OW  340   2.844   0.778   0.908  0.1084 -0.2466 -0.7383
  114SOL    HW1  341   2.761   0.717   0.921 -2.7107 -1.6049 -1.7803
  114SOL    HW2  342   2.873   0.777   0.812 -1.2217 -0.1344 -3.0285
  115SOL     OW  343   0.762   0.940   3.074  0.6958  0.1998 -0.5606
  115SOL    HW1  344   0.685   0.978   0.021  2.0488  1.8107  1.6930
  115SOL    HW2  345   0.746   0.844   3.045  0.5991 -0.2916  1.5857
  116SOL     OW  346   2.758   1.582   2.117  0.1376 -0.2201 -0.6943
  116SOL    HW1  347   2.811   1.528   2.181 -2.6818 -1.5975 -0.6919
  116SOL    HW2  348   2.680   1.628   2.162 -2.2226 -0.9105  0.6160
  117SOL     OW  349   2.970   2.593   0.522  0.2573 -0.1745  0.1617
  117SOL    HW1  350   3.008   2.564   0.617 -0.3881 -0.9616  2.4336
  117SOL    HW2  351   2.874   2.625   0.536  3.5802  0.4824  0.1216
  118SOL     OW  352   0.972   1.946   2.179 -0.4042 -0.1362  0.6669
  118SOL    HW1  353   0.916   1.979   2.249 -0.3819 -4.6962 -3.3834
  118SOL    HW2  354   0.968   1.999   2.093 -2.5317 -2.2255  0.6573
  119SOL     OW  355   0.175   2.149   3.103 -0.5125  0.0359  0.0266
  119SOL    HW1  356   0.077   2.125   0.001 -1.7446  1.9124  0.4093
  119SOL    HW2  357   0.203   2.133   3.007 -1.9188  0.3702  0.6934
  120SOL     OW  358   1.260   0.727   2.937  0.3131  0.2963  0.4369
  120SOL    HW1  359   1.196   0.799   2.895 -0.7001  1.1633 -1.0917
  120SOL    HW2  360   1.320   0.680   2.863  0.0783 -0.8728 -2.5433
  121SOL     OW  361   1.331   2.874   0.959  0.0703  0.1456  0.0117
  121SOL    HW1  362   1.278   2.940   0.904 -0.0515 -0.4146 -0.9947
  121SOL    HW2  363   1.338   2.898   1.055 -0.5574 -0.4569 -0.5941
  122SOL     OW  364   2.539   2.396   1.651  0.0112  0.0161 -0.0359
  122SOL    HW1  365   2.484   2.456   1.717 -0.5447 -2.2692 -0.5756
  122SOL    HW2  366   2.613   2.451   1.609 -1.6122 -0.9304 -0.7453
  123SOL     OW  367   0.279   2.605   0.710  0.2771 -0.8979 -0.0877
  123SOL    HW1  368   0.317   2.591   0.616 -0.9181  0.8082 -1.4001
  123SOL    HW2  369   0.191   2.553   0.716  0.2195  0.0951 -0.4448
  124SOL     OW  370   2.385   0.988   2.955 -0.2661 -0.0108  0.1012
  124SOL    HW1  371   2.412   1.048   2.874 -1.1251  2.8436 -1.6071
  124SOL    HW2  372   2.429   0.896   2.957  0.3107  0.7835  2.7950
  125SOL     OW  373   0.629   0.920   0.344  0.8615 -0.0645 -0.1428
  125SOL    HW1  374   0.579   0.869   0.413 -0.5595  0.8159 -2.2869
  125SOL    HW2  375   0.702   0.973   0.387  0.4080  0.3168  0.9567
  126SOL     OW  376   0.068   1.236   0.385  0.0236 -0.0075  0.1380
  126SOL    HW1  377   0.032   1.327   0.351  3.0110  2.6970  1.0509
  126SOL    HW2  378   0.123   1.244   0.473  1.7831  0.9222 -1.4530
  127SOL     OW  379   0.376   1.626   2.201 -0.1839 -0.1734  0.0822
  127SOL    HW1  380   0.454   1.643   2.259 -2.8379 -0.2520 -0.0796
  127SOL    HW2  381   0.303   1.692   2.224 -1.9108 -1.6099 -2.3015
  128SOL     OW  382   1.019   1.010   0.035 -0.0601  0.2954  0.2507
  128SOL    HW1  383   1.042   1.022   3.048  0.1570  0.8111 -4.0124
  128SOL    HW2  384   0.917   0.988   0.042 -0.7327 -3.2456 -0.5619
  129SOL     OW  385   2.605   1.172   0.863  0.0077 -0.1811  0.1399
  129SOL    HW1  386   2.508   1.157   0.889  0.7113  0.5265 -1.3133
  129SOL    HW2  387   2.676   1.121   0.911 -0.1108 -2.1348 -1.8614
  130SOL     OW  388   2.419   1.042   1.585 -0.0610  0.3876 -0.1147
  130SOL    HW1  389   2.506   1.058   1.530  3.3248 -1.3263 -0.6364
  130SOL    HW2  390   2.357   1.117   1.597  0.3142 -0.6997  0.4907
  131SOL     OW  391   2.841   3.113   2.784 -0.0433  0.2176  0.5093
  131SOL    HW1  392   2.762   3.090   2.844  0.1061  0.1284 -0.6346
  131SOL    HW2  393   2.908   3.041   2.765  0.1631 -3.5842  1.3428
  132SOL     OW  394   0.179   1.514   1.309 -0.5084  0.1431  0.6182
  132SOL    HW1  395   0.246   1.488   1.234  2.8430 -2.1551  0.5426
  132SOL    HW2  396   0.083   1.516   1.283  1.2686  0.4954 -0.5054
  133SOL     OW  397   0.911   0.581   1.198  0.0090 -0.0290 -0.8396
  133SOL    HW1  398   0.962   0.613   1.280 -1.8591  1.0702 -0.7807
  133SOL    HW2  399   0.822   0.530   1.220 -2.8169 -1.7773 -1.3385
  134SOL     OW  400   0.044   1.777   0.234 -1.0827  0.5259  0.0913
  134SOL    HW1  401   3.095   1.766   0.155  3.9682  0.2417 -0.9049
  134SOL    HW2  402   0.019   1.850   0.299  1.2292 -0.7251  2.1138
  135SOL     OW  403   1.845   0.884   1.508  0.8441  0.1778  0.0018
  135SOL    HW1  404   1.764   0.827   1.490  0.3437 -1.3944 -2.0043
  135SOL    HW2  405   1.878   0.925   1.420 -2.4137 -2.8846  1.4955
  136SOL     OW  406   0.269   0.839   0.392  0.2261  0.3215  0.0140
  136SOL    HW1  407   0.327   0.920   0.423 -1.3303  1.6861 -1.1354
  136SOL    HW2  408   0.210   0.866   0.307 -1.6205  0.8720 -4.3704
  137SOL     OW  409   2.839   1.092   0.977 -0.1289  0.6422 -0.1336
  137SOL    HW1  410   2.840   0.988   0.978  0.8499 -2.8549  2.4832
  137SOL    HW2  411   2.923   1.128   0.935  2.1088 -0.7015  4.2369
  138SOL     OW  412   1.557   1.018   1.030  0.0847  0.3266 -0.4242
  138SOL    HW1  413   1.527   0.955   1.103  1.2135  0.9001 -0.9609
  138SOL    HW2  414   1.614   1.096   1.064 -2.4915  1.7751  1.2225
  139SOL     OW  415   1.686   2.894   3.082 -0.8130  0.2538 -0.0940
  139SOL    HW1  416   1.687   2.922   0.065  2.5461  2.4953  0.6186
  139SOL    HW2  417   1.601   2.854   3.060  1.2924 -0.5798  0.4594
  140SOL     OW  418   1.422   1.534   1.659 -0.6178  0.2771  0.2145
  140SOL    HW1  419   1.508   1.521   1.718  0.1628  0.4481  1.7999
  140SOL    HW2  420   1.349   1.468   1.685 -1.9402  1.4649  0.7342
  141SOL     OW  421   1.627   1.852   0.493  0.0908 -0.0336  1.0149
  141SOL    HW1  422   1.690   1.899   0.434 -1.1251 -0.1905 -0.1194
  141SOL    HW2  423   1.548   1.821   0.438  0.6245 -0.7959 -0.1283
  142SOL     OW  424   0.996   0.626   3.010  0.1118  0.1314 -0.3706
  142SOL    HW1  425   0.999   0.660   3.108  0.3578 -1.0756  0.2438
  142SOL    HW2  426   1.087   0.606   2.973 -0.6469  2.2289  1.5918
  143SOL     OW  427   0.298   2.244   0.205  0.9942 -0.2490 -0.0571
  143SOL    HW1  428   0.264   2.214   0.114 -0.1333  4.3141 -0.9662
  143SOL    HW2  429   0.212   2.277   0.256 -3.9700  0.9367  0.3776
  144SOL     OW  430   1.462   3.055   1.214  0.4527  0.1351  0.3426
  144SOL    HW1  431   1.425   3.072   1.309 -3.4353 -0.9239 -1.3453
  144SOL    HW2  432   1.485   2.954   1.200  1.9689 -1.5135 -0.2996
  145SOL     OW  433   2.101   1.114   0.261  0.4418 -0.2290 -0.4493
  145SOL    HW1  434   2.186   1.098   0.209 -2.0633 -1.6103 -0.1482
  145SOL    HW2  435   2.027   1.108   0.190  0.6554 -0.0937 -1.1035
  146SOL     OW  436   2.943   2.125   0.747  0.0794  0.2765 -0.1465
  146SOL    HW1  437   2.907   2.025   0.737 -0.0644 -2.0584 -0.6300
  146SOL    HW2  438   2.888   2.171   0.814  0.3093 -0.1853 -1.5548
  147SOL     OW  439   2.524   3.021   1.784  0.5206 -0.2981 -0.3865
  147SOL    HW1  440   2.572   2.958   1.719 -2.9127  1.1213 -1.0686
  147SOL    HW2  441   2.576   3.030   1.871 -0.3523  0.7667 -0.1299
  148SOL     OW  442   1.443   2.979   1.867  0.4730  0.0363  0.2012
  148SOL    HW1  443   1.456   2.877   1.853  2.3425  1.3100  0.0612
  148SOL    HW2  444   1.430   3.001   1.967  1.3823  0.2397  1.9019
  149SOL     OW  445   1.806   0.705   2.075  0.4209  0.1209  0.9621
  149SOL    HW1  446   1.862   0.716   2.161  2.0161 -1.2944 -0.3361
  149SOL    HW2  447   1.866   0.702   1.992 -1.3038  3.0719  2.4785
  150SOL     OW  448   0.317   0.046   0.136  0.3363  0.6209 -0.3173
  150SOL    HW1  449   0.403   0.000   0.168  2.3963 -2.1607 -0.2799
  150SOL    HW2  450   0.290   0.109   0.211  0.1698  0.6333  2.4286
  151SOL     OW  451   0.048   2.131   0.608 -0.0380 -0.0380 -0.8284
  151SOL    HW1  452   3.073   2.128   0.666 -1.9203  0.3441  0.9392
  151SOL    HW2  453   0.043   2.185   0.525 -0.1690 -5.5840 -0.2474
  152SOL     OW  454   2.944   0.120   0.720  0.2323 -0.4172  0.2550
  152SOL    HW1  455   3.042   0.087   0.733  4.3905 -0.8973 -1.8323
  152SOL    HW2  456   2.891   0.088   0.802  0.4220 -1.4348  0.5210
  153SOL     OW  457   2.373   0.052   0.955  0.2245 -0.4812  0.4190
  153SOL    HW1  458   2.296   0.048   0.891 -1.5991 -1.2998  0.3364
  153SOL    HW2  459   2.456   0.081   0.904  1.0664 -1.9015 -0.4723
  154SOL     OW  460   1.092   0.499   1.627  0.4826  0.9603  0.0684
  154SOL    HW1  461   1.160   0.426   1.653 -1.7851 -0.8872 -1.3663
  154SOL    HW2  462   1.042   0.525   1.713  0.9827 -0.3224  0.0284
  155SOL     OW  463   0.021   1.165   1.151 -0.6719 -0.5163  0.3600
  155SOL    HW1  464   3.098   1.219   1.068 -0.4252  2.2283 -0.6683
  155SOL    HW2  465   3.058   1.174   1.223 -2.2684 -0.1873 -0.9800
  156SOL     OW  466   2.993   2.083   0.045  0.5003  0.0990  0.3640
  156SOL    HW1  467   2.941   2.079   0.129 -0.2486 -0.1548  0.3656
  156SOL    HW2  468   2.929   2.092   3.083  2.9220  2.2449  3.1748
  157SOL     OW  469   1.004   0.745   0.128 -0.3823  0.0944 -0.5199
  157SOL    HW1  470   1.040   0.709   0.218  1.4495  0.1370  3.0460
  157SOL    HW2  471   1.072   0.817   0.099 -1.0706  2.0558 -0.4643
  158SOL     OW  472   2.499   3.106   2.633  0.4274 -0.2674  0.3490
  158SOL    HW1  473   2.532   0.024   2.724 -2.7216 -0.6095 -0.9032
  158SOL    HW2  474   2.416   0.051   2.597  0.8785  0.4381 -0.6799
  159SOL     OW  475   0.933   0.389   0.401  0.0186 -0.5886 -0.6783
  159SOL    HW1  476   0.989   0.321   0.452  0.9344 -1.1527  0.6047
  159SOL    HW2  477   0.988   0.462   0.355  2.1959  0.9960 -1.6255
  160SOL     OW  478   1.175   1.866   2.882 -0.3979  0.6204  0.3157
  160SOL    HW1  479   1.165   1.780   2.830  0.4343  1.0493  0.2644
  160SOL    HW2  480   1.150   1.857   2.979 -1.5062  0.1359 -3.5633
  161SOL     OW  481   2.930   1.535   2.409 -0.1612  0.0880 -0.1467
  161SOL    HW1  482   2.843   1.586   2.425 -1.3230  2.0558  0.0975
  161SOL    HW2  483   2.979   1.513   2.497 -1.2000 -0.5603 -0.1356
  162SOL     OW  484   0.438   2.645   1.441  0.3052 -0.2087  0.5978
  162SOL    HW1  485   0.350   2.700   1.444 -0.4647 -1.8282 -0.3022
  162SOL    HW2  486   0.459   2.641   1.342 -0.6530  0.1442 -0.9725
  163SOL     OW  487   2.413   0.531   2.388 -0.0494 -0.2280  0.4428
  163SOL    HW1  488   2.473   0.612   2.393 -2.3447 -2.2551 -0.4597
  163SOL    HW2  489   2.450   0.460   2.449  0.8223  0.9212  0.8228
  164SOL     OW  490   2.539   1.244   0.582 -1.1109 -0.1668  0.1380
  164SOL    HW1  491   2.457   1.304   0.581  0.1332 -1.8304  0.3890
  164SOL    HW2  492   2.549   1.199   0.674  0.4623  1.0523 -0.1058
  165SOL     OW  493   0.123   0.332   1.444  0.1625 -0.1113 -0.1608
  165SOL    HW1  494   0.184   0.275   1.504  0.7703 -2.9579 -0.9183
  165SOL    HW2  495   0.152   0.305   1.350  1.6470 -2.1455 -2.6049
  166SOL     OW  496   1.852   1.082   0.900 -0.5029  0.3457 -0.0199
  166SOL    HW1  497   1.770   1.085   0.837  0.9915 -0.1788 -2.1962
  166SOL    HW2  498   1.828   1.114   0.995  1.2223  0.0096  0.2099
  167SOL     OW  499   0.398   0.609   0.370  0.3650 -0.5446  0.3074
  167SOL    HW1  500   0.354   0.556   0.293 -1.8650  0.6524  3.6684
  167SOL    HW2  501   0.352   0.706   0.370 -1.1322  2.1971 -0.8138
  168SOL     OW  502   1.874   2.978   1.997  0.9422 -0.0585 -0.1907
  168SOL    HW1  503   1.842   3.061   2.046 -1.1360 -3.0422  0.0772
  168SOL    HW2  504   1.953   2.989   1.935 -2.0695 -1.7867  2.6131
  169SOL     OW  505   0.759   1.043   0.887  0.1420  0.1714 -0.2624
  169SOL    HW1  506   0.805   0.952   0.904 -1.6449  0.2201  0.5084
  169SOL    HW2  507   0.739   1.092   0.981 -0.0773  2.7400  0.0173
  170SOL     OW  508   2.986   0.352   1.381  0.0259  0.2178 -0.7970
  170SOL    HW1  509   3.085   0.368   1.397 -1.7574  2.5888  0.0788
  170SOL    HW2  510   2.964   0.264   1.334  0.7549  1.0692  0.3212
  171SOL     OW  511   1.263   2.693   2.562 -1.0403  0.1670 -0.3274
  171SOL    HW1  512   1.171   2.703   2.603  0.8515  2.6693  1.4963
  171SOL    HW2  513   1.256   2.658   2.469 -0.8204  0.1385  0.5564
  172SOL     OW  514   0.231   2.805   1.192 -0.0378 -0.3712  0.3464
  172SOL    HW1  515   0.334   2.803   1.176 -0.1672  0.0380  0.3080
  172SOL    HW2  516   0.184   2.888   1.158 -3.0800  0.8190 -0.7940
  173SOL     OW  517   1.437   0.632   2.750 -0.1212 -0.5018 -0.7928
  173SOL    HW1  518   1.375   0.604   2.676  2.6809  0.3719  0.4185
  173SOL    HW2  519   1.536   0.612   2.723 -0.4010 -0.2253  0.8268
  174SOL     OW  520   1.827   3.071   2.912  0.3369 -0.5045  0.1393
  174SOL    HW1  521   1.779   3.010   2.980 -0.2495 -1.9730 -1.6774
  174SOL    HW2  522   1.766   3.113   2.838  1.5453 -0.2493 -1.3102
  175SOL     OW  523   1.888   2.524   0.350 -0.2321 -0.1633 -0.3813
  175SOL    HW1  524   1.811   2.521   0.284  1.0151  1.2906 -1.5857
  175SOL    HW2  525   1.920   2.429   0.362  2.2783 -2.3513  0.0370
  176SOL     OW  526   2.086   0.194   3.041  0.4062  0.0304 -0.5443
  176SOL    HW1  527   2.148   0.164   0.006  2.7884 -1.4531 -0.6815
  176SOL    HW2  528   2.052   0.121   2.976 -0.7384 -2.1499 -2.0343
  177SOL     OW  529   0.854   1.760   0.769  0.5912 -0.4872 -0.5849
  177SOL    HW1  530   0.884   1.767   0.673 -2.2010  1.0139 -0.8644
  177SOL    HW2  531   0.761   1.715   0.774  0.2189 -1.3818  0.2280
  178SOL     OW  532   2.629   2.291   2.901  0.2750 -0.1443  0.5861
  178SOL    HW1  533   2.538   2.315   2.861 -0.1035 -1.2325 -2.8671
  178SOL    HW2  534   2.698   2.367   2.893 -2.2747 -0.0660 -0.6668
  179SOL     OW  535   0.634   3.006   2.793  0.2010 -0.2255 -0.1978
  179SOL    HW1  536   0.619   2.907   2.809  0.9246 -0.7850  0.0970
  179SOL    HW2  537   0.552   3.038   2.737 -3.1018 -2.6668 -0.3094
  180SOL     OW  538   1.456   1.285   0.998  0.4292  0.0726 -0.4104
  180SOL    HW1  539   1.397   1.354   1.053 -0.5150 -0.2538 -1.0714
  180SOL    HW2  540   1.394   1.211   0.965  3.0248 -4.4705  1.4594
  181SOL     OW  541   2.268   0.971   2.332  0.3026  0.1269 -0.5434
  181SOL    HW1  542   2.222   1.056   2.292 -0.9915 -1.3179  3.3711
  181SOL    HW2  543   2.237   0.888   2.284  1.4754  1.6644  0.1728
  182SOL     OW  544   0.173   2.828   2.267 -1.2913  0.1469 -0.0617
  182SOL    HW1  545   0.080   2.852   2.230 -0.5870 -2.9442 -0.4088
  182SOL    HW2  546   0.235   2.801   2.192  1.7001 -1.1145  2.6123
  183SOL     OW  547   1.388   0.798   2.213  0.0969 -0.4834  0.0470
  183SOL    HW1  548   1.468   0.818   2.156 -0.9964 -0.5528  1.8173
  183SOL    HW2  549   1.339   0.720   2.181  1.1552  1.3093  1.4113
  184SOL     OW  550   0.438   1.021   1.747  0.5641 -0.6505  0.1473
  184SOL    HW1  551   0.450   1.115   1.711 -0.7544  0.6321  2.9898
  184SOL    HW2  552   0.344   0.981   1.721 -1.2610 -0.7309  0.6925
  185SOL     OW  553   2.037   0.730   0.182 -0.8594 -0.5922  0.1058
  185SOL    HW1  554   1.955   0.787   0.175  0.6219 -2.5996  1.5250
  185SOL    HW2  555   2.100   0.772   0.255 -0.2751  0.6100  2.4337
  186SOL     OW  556   0.444   2.473   0.115 -0.0655  0.1382  0.4124
  186SOL    HW1  557   0.391   2.386   0.123 -1.4571 -3.0599  0.8684
  186SOL    HW2  558   0.449   2.525   0.205  0.0801  3.5003 -0.0711
  187SOL     OW  559   2.586   1.257   0.185 -0.6923  0.1622 -0.3858
  187SOL    HW1  560   2.494   1.222   0.160  0.4521  0.6253 -0.9734
  187SOL    HW2  561   2.616   1.193   0.259 -1.0728  1.2671 -1.0975
  188SOL     OW  562   0.028   1.502   0.873 -0.0866 -0.1416  0.1744
  188SOL    HW1  563   3.088   1.523   0.786 -2.5680 -0.8274 -0.0933
  188SOL    HW2  564   0.036   1.585   0.936  1.2534 -1.4735 -1.7929
  189SOL     OW  565   2.762   0.124   0.225  0.1660 -0.3483 -0.0212
  189SOL    HW1  566   2.859   0.140   0.204 -0.2161 -0.4440 -1.2666
  189SOL    HW2  567   2.729   0.028   0.205 -1.2439  0.8075 -0.0096
  190SOL     OW  568   1.413   1.520   2.101  0.5718  0.0933 -0.2334
  190SOL    HW1  569   1.317   1.552   2.105  3.6548 -0.5470 -3.2784
  190SOL    HW2  570   1.411   1.420   2.096  2.7873  0.9266  2.2495
  191SOL     OW  571   2.904   0.309   1.833  0.1130  0.3550  0.4730
  191SOL    HW1  572   2.856   0.326   1.744 -0.2169  3.0860 -0.2788
  191SOL    HW2  573   2.836   0.277   1.903 -2.1603  0.1406  0.0876
  192SOL     OW  574   1.853   1.548   1.065  0.2353  0.0208 -0.2956
  192SOL    HW1  575   1.923   1.552   1.141  1.1802 -1.0206 -0.7820
  192SOL    HW2  576   1.881   1.611   0.991  0.3935 -1.2169  1.8499
  193SOL     OW  577   1.078   0.783   0.940 -0.3018  0.4355  0.4329
  193SOL    HW1  578   1.066   0.692   0.901  0.5175  0.0687  2.5371
  193SOL    HW2  579   0.994   0.806   0.991  1.9919 -1.0175 -1.6344
  194SOL     OW  580   1.060   2.494   1.519 -0.0594  0.3439  0.1346
  194SOL    HW1  581   1.157   2.473   1.492 -1.4041  1.2796 -1.1859
  194SOL    HW2  582   1.052   2.587   1.560  1.2877  1.4212  0.8750
  195SOL     OW  583   2.426   0.348   2.805  0.0569  0.4112 -0.2328
  195SOL    HW1  584   2.439   0.337   2.908  4.3194 -0.3073 -0.0127
  195SOL    HW2  585   2.342   0.396   2.780  2.2457 -0.9486 -1.2877
  196SOL     OW  586   1.031   2.727   1.648 -0.1873 -0.5900 -0.1219
  196SOL    HW1  587   1.091   2.743   1.727  1.1353 -1.7459  0.3655
  196SOL    HW2  588   0.947   2.776   1.668  0.4682 -0.2843  1.2334
  197SOL     OW  589   0.728   2.790   0.970 -0.0787 -0.0899 -0.1488
  197SOL    HW1  590   0.688   2.854   0.899  1.7522 -0.7987  2.6338
  197SOL    HW2  591   0.823   2.769   0.942  2.2807  0.0507  1.6625
  198SOL     OW  592   0.879   0.909   0.594 -0.0581  0.1853 -0.7354
  198SOL    HW1  593   0.815   0.863   0.662  2.7687 -1.6727  2.0733
  198SOL    HW2  594   0.836   0.985   0.537  3.6425 -1.1657 -0.8506
  199SOL     OW  595   0.189   3.109   1.882 -0.2447 -0.0389  0.0169
  199SOL    HW1  596   0.110   0.051   1.836 -1.1696  3.0039 -1.4126
  199SOL    HW2  597   0.175   3.007   1.870  1.3170 -1.6052 -0.3476
  200SOL     OW  598   2.110   1.862   2.275 -0.6876 -0.1544  0.1488
  200SOL    HW1  599   2.115   1.792   2.202  0.1701  1.5138 -1.1974
  200SOL    HW2  600   2.096   1.960   2.242  0.1927  3.1760  2.0438
  201SOL     OW  601   3.068   2.181   1.411 -0.0964  0.2249  0.4903
  201SOL    HW1  602   3.064   2.268   1.359  0.0460  0.6385  2.5516
  201SOL    HW2  603   3.020   2.175   1.501  1.8608 -0.2978 -1.6434
  202SOL     OW  604   2.559   0.083   0.482 -0.1272  0.6183 -0.3222
  202SOL    HW1  605   2.520   0.177   0.479  1.5689 -0.3530  0.4970
  202SOL    HW2  606   2.619   0.070   0.401 -1.0610  2.0428  0.9332
  203SOL     OW  607   1.375   2.134   2.226  0.4467  0.7116  0.0696
  203SOL    HW1  608   1.344   2.047   2.272  1.3650 -3.8097  1.9127
  203SOL    HW2  609   1.475   2.141   2.223  2.0871 -1.4512 -2.4718
  204SOL     OW  610   1.413   2.110   1.429  0.1377 -0.0842 -0.0808
  204SOL    HW1  611   1.420   2.204   1.385  1.7799 -1.3495 -1.2225
  204SOL    HW2  612   1.504   2.075   1.456  0.1756 -3.2752  0.3780
  205SOL     OW  613   1.297   1.940   1.967  0.3647 -0.6508 -0.4204
  205SOL    HW1  614   1.362   1.872   1.939 -0.3264  3.3663  0.4696
  205SOL    HW2  615   1.279   1.946   2.067 -1.5231  0.9381  1.2446
  206SOL     OW  616   0.344   0.813   2.670 -0.8993  0.3451 -0.4691
  206SOL    HW1  617   0.445   0.803   2.694 -0.5907  1.4993  0.4587
  206SOL    HW2  618   0.340   0.828   2.570  0.6279  1.8372  1.5863
  207SOL     OW  619   0.832   0.075   1.808  0.0824 -0.2536 -0.3406
  207SOL    HW1  620   0.833   0.178   1.793 -2.3556  0.4993 -0.4925
  207SOL    HW2  621   0.923   0.042   1.836  1.0084  0.7726  0.1673
  208SOL     OW  622   0.683   2.459   1.985 -0.3403  0.1848 -0.8101
  208SOL    HW1  623   0.675   2.558   1.970  2.3872  0.6186 -0.4340
  208SOL    HW2  624   0.672   2.413   1.894  1.4992 -2.1798 -0.1964
  209SOL     OW  625   1.504   0.524   3.074 -0.4120  0.4703  0.0042
  209SOL    HW1  626   1.571   0.599   3.076 -1.4054 -0.9042 -0.8803
  209SOL    HW2  627   1.424   0.538   3.010 -1.1573  0.2361  1.1445
  210SOL     OW  628   2.973   0.422   0.843 -0.3151  0.1756  0.1653
  210SOL    HW1  629   2.925   0.461   0.924 -0.3992  0.3333 -0.0998
  210SOL    HW2  630   2.911   0.378   0.774  1.5777 -1.9799 -0.1100
  211SOL     OW  631   0.568   0.727   1.309  0.4305 -0.4470 -0.2877
  211SOL    HW1  632   0.570   0.624   1.322 -0.6169  0.0203  2.2616
  211SOL    HW2  633   0.498   0.765   1.371 -0.1739  0.5922  0.2450
  212SOL     OW  634   1.121   1.722   1.098  0.4055 -0.0463 -0.1134
  212SOL    HW1  635   1.023   1.713   1.088  2.1411  0.3903  0.4232
  212SOL    HW2  636   1.147   1.705   1.196 -2.1392  1.8630  1.8116
  213SOL     OW  637   2.083   0.060   1.571  0.1322 -0.3933  0.0387
  213SOL    HW1  638   2.159   0.055   1.637  2.5874  1.1510 -0.7719
  213SOL    HW2  639   2.016   3.094   1.579 -0.7507 -1.3452  0.5846
  214SOL     OW  640   1.036   2.417   2.753 -0.0986 -0.0048  0.4008
  214SOL    HW1  641   1.053   2.385   2.849  0.8529 -2.5822 -1.0016
  214SOL    HW2  642   1.107   2.379   2.695 -3.7804  0.1507 -1.7843
  215SOL     OW  643   2.715   1.732   1.171 -0.9208  0.1047  0.5682
  215SOL    HW1  644   2.701   1.835   1.169 -0.4219  0.5213  0.8304
  215SOL    HW2  645   2.750   1.694   1.083  0.6779 -1.8091  1.6860
  216SOL     OW  646   0.300   0.713   2.079  0.4306  0.0718  0.2331
  216SOL    HW1  647   0.212   0.678   2.033 -0.6451 -1.1979 -3.2344
  216SOL    HW2  648   0.294   0.815   2.095  0.2935  2.7539 -1.9762
  217SOL     OW  649   3.022   0.180   0.209 -0.1500  0.4066 -0.5445
  217SOL    HW1  650   3.056   0.274   0.217  0.0415 -1.0898 -2.3334
  217SOL    HW2  651   3.047   0.138   0.297 -0.5649  1.3521 -0.5224
  218SOL     OW  652   1.649   1.973   1.506  0.3755  0.3763  0.3116
  218SOL    HW1  653   1.626   1.878   1.535  1.4433 -1.7581  4.2366
  218SOL    HW2  654   1.706   1.974   1.422 -2.5066  2.0172  0.7655
  219SOL     OW  655   1.658   0.384   0.130  0.2112 -0.1280  0.3982
  219SOL    HW1  656   1.641   0.426   0.220  3.0949 -0.6743  0.1686
  219SOL    HW2  657   1.611   0.426   0.050 -0.5070 -0.0672 -0.8148
  220SOL     OW  658   1.469   2.012   0.895  0.6198 -0.6887  0.3583
  220SOL    HW1  659   1.471   2.112   0.901  0.4292 -1.8994 -0.0736
  220SOL    HW2  660   1.373   1.977   0.905 -0.0979 -1.0798  0.6454
  221SOL     OW  661   0.259   0.517   0.144 -0.4910 -0.0312  0.3874
  221SOL    HW1  662   0.279   0.587   0.072  0.9150 -5.0553  0.1173
  221SOL    HW2  663   0.163   0.485   0.142  0.6196 -3.6991  0.5727
  222SOL     OW  664   0.778   2.787   1.711 -0.1241 -0.3095 -0.3270
  222SOL    HW1  665   0.770   2.881   1.665 -1.1418  0.9053 -0.6953
  222SOL    HW2  666   0.749   2.710   1.652 -1.5436 -0.3160  0.9153
  223SOL     OW  667   1.317   0.311   2.938  1.1237 -0.2302 -0.0302
  223SOL    HW1  668   1.402   0.268   2.909 -1.5090  0.6979 -1.0674
  223SOL    HW2  669   1.242   0.294   2.868 -0.2738 -2.3991 -0.1761
  224SOL     OW  670   2.703   0.366   1.216 -0.1549 -0.1717  0.3895
  224SOL    HW1  671   2.674   0.400   1.311  1.5217  0.0364 -1.1293
  224SOL    HW2  672   2.632   0.297   1.189 -0.1675  0.0956 -2.0578
  225SOL     OW  673   0.770   1.269   1.707 -0.9496 -0.4148 -0.1739
  225SOL    HW1  674   0.784   1.309   1.613  0.2433 -1.5727  1.0044
  225SOL    HW2  675   0.671   1.258   1.733  0.0572 -1.7602  1.9256
  226SOL     OW  676   0.801   0.029   0.529  0.4393  0.6284  0.4759
  226SOL    HW1  677   0.727   0.080   0.486 -0.7389 -1.5205 -1.9337
  226SOL    HW2  678   0.888   0.083   0.537  2.1332  0.4242  1.8828
  227SOL     OW  679   0.918   1.896   1.639  0.1968  0.2402 -0.3700
  227SOL    HW1  680   0.952   1.894   1.541  2.1754 -0.3116 -2.0681
  227SOL    HW2  681   0.981   1.943   1.702 -2.2097 -0.1449 -2.0697
  228SOL     OW  682   0.431   2.997   1.881  0.3366 -0.4258  0.0378
  228SOL    HW1  683   0.333   3.021   1.900  1.5233  0.9886  0.2855
  228SOL    HW2  684   0.432   2.973   1.786 -1.2949  1.7956  2.8719
  229SOL     OW  685   2.569   0.804   0.534 -0.2813 -0.3624 -0.7381
  229SOL    HW1  686   2.609   0.731   0.595 -1.1684  0.6566  0.5443
  229SOL    HW2  687   2.589   0.782   0.442 -1.7340  1.5007  2.8773
  230SOL     OW  688   0.250   1.380   2.203  0.1412 -0.1284  0.4922
  230SOL    HW1  689   0.280   1.479   2.195 -0.6888 -0.3594 -0.0181
  230SOL    HW2  690   0.309   1.327   2.139  1.3042  1.5039 -1.2908
  231SOL     OW  691   1.041   2.831   1.240  0.3543  0.3838  0.1119
  231SOL    HW1  692   0.949   2.782   1.256 -0.9031 -0.6116 -1.7435
  231SOL    HW2  693   1.106   2.812   1.320  2.2171  0.7586  3.9510
  232SOL     OW  694   2.380   2.474   0.117 -0.4994  0.3414 -0.2877
  232SOL    HW1  695   2.352   2.570   0.103  1.0977  3.3890 -0.7636
  232SOL    HW2  696   2.357   2.423   0.034  1.4077 -2.5285  4.2073
  233SOL     OW  697   1.158   2.709   0.167  0.2948  0.3253 -0.1451
  233SOL    HW1  698   1.154   2.812   0.173  1.7736 -1.6423  0.7406
  233SOL    HW2  699   1.109   2.676   0.082 -0.3435  1.7578  0.4459
  234SOL     OW  700   1.047   0.791   2.058  0.0222 -0.3612  0.3121
  234SOL    HW1  701   1.036   0.812   2.158 -1.5072  1.0470  2.0514
  234SOL    HW2  702   1.053   0.874   1.999 -0.5095 -1.5989  1.5352
  235SOL     OW  703   0.071   2.342   0.360  0.0008 -0.1679  0.0044
  235SOL    HW1  704   0.120   2.431   0.387  2.4091 -1.2078  2.7115
  235SOL    HW2  705   3.090   2.364   0.362  1.2270 -1.0802 -1.4775
  236SOL     OW  706   1.981   2.658   2.551  0.0827  0.4125  0.4666
  236SOL    HW1  707   2.069   2.620   2.581  1.2727  0.7568  1.8307
  236SOL    HW2  708   1.919   2.602   2.501  0.0194 -1.1199 -0.2179
  237SOL     OW  709   2.074   1.190   1.668 -0.0740  0.1051  0.3450
  237SOL    HW1  710   2.067   1.088   1.653 -0.5719 -4.5559  0.0487
  237SOL    HW2  711   2.138   1.208   1.741 -2.7762 -0.1898 -2.3680
  238SOL     OW  712   1.797   0.107   2.332 -0.0913  0.0486 -0.1894
  238SOL    HW1  713   1.890   0.076   2.351 -0.3383 -1.2639 -1.0593
  238SOL    HW2  714   1.791   0.129   2.230  0.0109 -0.7249 -2.8312
  239SOL     OW  715   0.864   2.128   1.968 -0.6052 -0.0825  0.1070
  239SOL    HW1  716   0.765   2.105   1.945  0.8625  0.8035 -1.4037
  239SOL    HW2  717   0.926   2.097   1.888  0.2486 -0.1263 -0.9292
  240SOL     OW  718   2.885   2.895   0.676 -0.2536 -0.0992 -0.2275
  240SOL    HW1  719   2.958   2.931   0.623  0.0119 -2.0708 -0.9587
  240SOL    HW2  720   2.868   2.940   0.769 -0.6565  0.4832  0.0617
  241SOL     OW  721   1.357   1.865   0.411 -0.1258 -0.5597  0.0743
  241SOL    HW1  722   1.284   1.815   0.464  0.1915  0.1207 -0.9388
  241SOL    HW2  723   1.313   1.942   0.353 -1.5062  0.3580  0.7265
  242SOL     OW  724   2.344   1.061   0.103 -0.2714 -0.2966 -0.8239
  242SOL    HW1  725   2.359   0.966   0.142 -0.1196  0.5296  0.1240
  242SOL    HW2  726   2.365   1.055   0.005  2.5712  0.5475  1.2755
  243SOL     OW  727   0.683   0.592   1.922  0.1196  0.3763 -0.0453
  243SOL    HW1  728   0.640   0.513   1.876 -0.4236  2.1299  4.0987
  243SOL    HW2  729   0.621   0.673   1.908  2.5233 -1.4319 -1.6759
  244SOL     OW  730   1.591   2.504   2.826  0.6317  1.0821 -0.4607
  244SOL    HW1  731   1.547   2.534   2.743  3.0556 -0.7362  3.3278
  244SOL    HW2  732   1.662   2.570   2.853 -1.8417 -2.1016  0.5691
  245SOL     OW  733   1.570   3.040   2.791  0.6085 -0.2088  0.1679
  245SOL    HW1  734   1.535   0.025   2.790  1.0893  4.3558  1.3487
  245SOL    HW2  735   1.499   2.975   2.839 -0.6235 -1.5282 -0.7579
  246SOL     OW  736   1.337   1.133   2.505  0.9498  0.1711 -0.1693
  246SOL    HW1  737   1.417   1.188   2.464 -1.0865  1.8921  1.4902
  246SOL    HW2  738   1.271   1.201   2.549 -2.9101  2.6505  0.4942
  247SOL     OW  739   2.844   0.403   2.144  0.1765 -0.4823  0.5576
  247SOL    HW1  740   2.913   0.326   2.151  1.4097 -0.7046 -0.4782
  247SOL    HW2  741   2.845   0.438   2.052  0.1224 -0.1531  0.3694
  248SOL     OW  742   0.324   1.325   1.927 -0.2457  0.4775  0.1368
  248SOL    HW1  743   0.256   1.268   1.875 -2.0368 -2.2391 -2.8939
  248SOL    HW2  744   0.400   1.362   1.867  4.4170 -0.0242 -0.5119
  249SOL     OW  745   2.721   0.468   0.050  0.0090 -0.0386 -0.6708
  249SOL    HW1  746   2.639   0.461   0.103  3.0543 -1.8716  0.4430
  249SOL    HW2  747   2.744   0.380   0.004 -0.2851  1.9328  4.4509
  250SOL     OW  748   2.800   0.332   0.651  0.1400  0.3142 -0.1279
  250SOL    HW1  749   2.758   0.334   0.561  0.5645 -0.5312  3.2294
  250SOL    HW2  750   2.854   0.245   0.672 -1.2185 -2.2936  1.5137
  251SOL     OW  751   0.708   1.305   2.179 -0.3749 -0.1947  0.5594
  251SOL    HW1  752   0.765   1.278   2.259  2.0525 -2.7271 -0.1950
  251SOL    HW2  753   0.765   1.280   2.099  0.0348  0.7466  3.8030
  252SOL     OW  754   1.481   1.793   1.858  0.5932 -0.2392  0.2125
  252SOL    HW1  755   1.510   1.709   1.906  1.3176 -0.0820 -2.7458
  252SOL    HW2  756   1.464   1.764   1.760  1.5464  0.6056  1.8832
  253SOL     OW  757   1.660   2.319   1.888  0.4812 -0.1530 -0.4110
  253SOL    HW1  758   1.611   2.231   1.905  0.0524 -3.0854  0.1854
  253SOL    HW2  759   1.597   2.385   1.852  1.8023  1.7605  0.2471
  254SOL     OW  760   0.785   2.075   2.355  0.1520 -0.8783  1.0097
  254SOL    HW1  761   0.695   2.043   2.312 -3.3559  0.4239  0.4844
  254SOL    HW2  762   0.825   2.158   2.313 -0.2506  0.2695 -2.1041
  255SOL     OW  763   1.310   0.597   0.633 -0.2234 -0.5308  0.1366
  255SOL    HW1  764   1.210   0.592   0.658 -1.1677 -2.9689 -0.2240
  255SOL    HW2  765   1.365   0.656   0.697  0.6309  2.0368 -0.4343
  256SOL     OW  766   1.804   2.302   1.049  1.0882  0.1307 -0.4840
  256SOL    HW1  767   1.905   2.295   1.032 -0.9366 -0.9963 -0.5315
  256SOL    HW2  768   1.750   2.259   0.974 -0.6018  0.1082  0.3189
  257SOL     OW  769   0.236   2.136   2.840 -0.0603  0.6396 -0.4208
  257SOL    HW1  770   0.280   2.099   2.754 -0.3893 -0.6042 -0.6963
  257SOL    HW2  771   0.143   2.104   2.837  1.2134  0.6254 -2.5901
  258SOL     OW  772   0.502   1.097   2.496  0.0824  0.4632 -0.2265
  258SOL    HW1  773   0.483   0.999   2.491  0.1664  4.3993 -0.9095
  258SOL    HW2  774   0.478   1.144   2.585 -1.5719 -1.5693 -0.0410
  259SOL     OW  775   1.287   0.872   2.449  0.0479 -0.4129  0.8317
  259SOL    HW1  776   1.306   0.973   2.469 -0.3349  0.4509  0.7068
  259SOL    HW2  777   1.331   0.858   2.354  0.3461 -3.9369 -1.9921
  260SOL     OW  778   1.995   0.673   0.604 -0.2554 -0.4407  0.2185
  260SOL    HW1  779   2.038   0.754   0.561  2.8355 -0.2888  0.2275
  260SOL    HW2  780   1.942   0.619   0.541 -0.2317  0.2067  2.6289
  261SOL     OW  781   0.974   0.374   0.020 -0.2427  0.1375  0.2764
  261SOL    HW1  782   0.899   0.362   0.087 -0.3599 -0.1301 -1.2248
  261SOL    HW2  783   0.984   0.471   3.108 -0.3334 -0.5164 -0.1516
  262SOL     OW  784   2.210   2.896   2.650 -0.3288 -0.3282  0.0721
  262SOL    HW1  785   2.192   2.796   2.660 -0.0444  0.2245 -1.5186
  262SOL    HW2  786   2.245   2.916   2.557 -3.0123  0.4922 -0.0800
  263SOL     OW  787   0.829   1.798   2.900  0.2131  0.0136  0.6797
  263SOL    HW1  788   0.901   1.765   2.841 -2.2816  1.6164 -1.1613
  263SOL    HW2  789   0.820   1.900   2.889  2.0319  2.7585  1.7694
  264SOL     OW  790   0.356   1.809   1.778  0.0854  0.1185  0.1351
  264SOL    HW1  791   0.431   1.742   1.791  0.4408  0.2817 -0.0238
  264SOL    HW2  792   0.329   1.858   1.866 -1.5727 -2.2463  1.5467
  265SOL     OW  793   0.828   1.133   0.434  0.4969 -0.1174 -0.1022
  265SOL    HW1  794   0.825   1.208   0.504 -1.1389  1.5151  1.8898
  265SOL    HW2  795   0.836   1.161   0.332  1.0018  0.6693 -2.2749
  266SOL     OW  796   1.720   1.541   0.163  0.0682 -0.0101  0.3045
  266SOL    HW1  797   1.785   1.622   0.160  1.9793  0.8768 -2.1101
  266SOL    HW2  798   1.627   1.567   0.198 -0.3018 -1.0074 -0.3760
  267SOL     OW  799   2.770   0.224   3.029  0.6826 -0.2530 -0.2447
  267SOL    HW1  800   2.856   0.169   3.043  0.3296  0.0958 -1.9342
  267SOL    HW2  801   2.771   0.261   2.933  0.1909 -1.8744  0.5174
  268SOL     OW  802   0.535   0.448   2.700 -0.0943  0.0718 -0.0975
  268SOL    HW1  803   0.571   0.482   2.609  0.2601 -0.5141  0.6239
  268SOL    HW2  804   0.610   0.414   2.767 -0.0674 -0.8081  3.8067
  269SOL     OW  805   1.720   0.620   2.445  0.0361  0.4598 -1.0295
  269SOL    HW1  806   1.707   0.540   2.381  0.8959 -1.3433  2.1876
  269SOL    HW2  807   1.753   0.698   2.387  0.4362 -1.0394 -0.5662
  270SOL     OW  808   1.037   0.822   2.321 -0.0509 -0.0130  0.3993
  270SOL    HW1  809   1.105   0.850   2.393  0.0587  0.5957  2.6339
  270SOL    HW2  810   1.002   0.723   2.334 -1.5187 -0.5817  0.8389
  271SOL     OW  811   2.821   0.850   0.057  0.0590 -0.1948 -0.0115
  271SOL    HW1  812   2.785   0.897   3.090  0.7520 -1.2942 -1.5973
  271SOL    HW2  813   2.829   0.752   0.029 -1.4103 -0.3907 -0.0436
  272SOL     OW  814   2.479   1.894   2.753 -0.5558 -0.4340  0.4541
  272SOL    HW1  815   2.475   1.938   2.660 -1.0478 -2.3806  0.3396
  272SOL    HW2  816   2.427   1.808   2.754  1.4662 -2.0721 -0.5207
  273SOL     OW  817   2.894   0.551   2.810 -0.1772  0.3425 -0.6425
  273SOL    HW1  818   2.870   0.451   2.791 -1.7068 -1.8780  0.4011
  273SOL    HW2  819   2.943   0.604   2.737 -0.9267 -1.1858 -0.9126
  274SOL     OW  820   0.017   0.015   1.481  0.1383  0.3202 -0.3561
  274SOL    HW1  821   0.024   3.027   1.474 -0.5287 -2.7604  0.3603
  274SOL    HW2  822   3.063   0.058   1.411 -2.1500  0.9484 -0.5107
  275SOL     OW  823   2.086   1.308   0.710 -0.8624 -0.4856  0.7070
  275SOL    HW1  824   2.129   1.214   0.734  0.1708 -1.4736  0.8323
  275SOL    HW2  825   2.009   1.293   0.649  1.3010 -2.0390 -0.8581
  276SOL     OW  826   0.198   1.371   2.743 -0.8625 -0.6000 -0.0720
  276SOL    HW1  827   0.269   1.312   2.780 -2.8740  1.4390 -0.8844
  276SOL    HW2  828   0.206   1.389   2.644  1.4394 -2.4941 -0.6156
  277SOL     OW  829   1.927   2.325   1.947  0.1579  0.2375  0.5248
  277SOL    HW1  830   1.836   2.343   1.902 -0.9132  1.4148 -1.5082
  277SOL    HW2  831   1.908   2.260   2.024 -0.3561 -1.8854 -1.4256
  278SOL     OW  832   2.102   0.174   1.335  0.0835 -0.0129  0.7827
  278SOL    HW1  833   2.097   0.119   1.427 -0.3839 -0.4603  3.8012
  278SOL    HW2  834   2.114   0.117   1.252 -0.6743  0.5996  3.2537
  279SOL     OW  835   1.369   1.118   2.949  0.2074 -0.6923  0.1869
  279SOL    HW1  836   1.412   1.078   2.866 -1.2383  0.7270  1.6457
  279SOL    HW2  837   1.406   1.072   3.034  0.6586  0.6149  0.0867
  280SOL     OW  838   0.555   1.624   1.226  0.9376 -0.5154 -0.3715
  280SOL    HW1  839   0.605   1.611   1.140  2.0671  0.5822 -1.0909
  280SOL    HW2  840   0.538   1.727   1.248  0.6771  4.7254 -0.1706
  281SOL     OW  841   0.319   0.254   2.452 -0.2107  0.1090  0.1750
  281SOL    HW1  842   0.393   0.260   2.378  0.5675  1.6023 -1.2791
  281SOL    HW2  843   0.275   0.166   2.453 -0.0935  1.1467 -2.3504
  282SOL     OW  844   3.077   0.923   1.459 -0.2349  0.6173 -0.3406
  282SOL    HW1  845   3.054   1.018   1.474 -2.7627 -1.8238 -1.3918
  282SOL    HW2  846   3.092   0.904   1.357 -2.3584 -0.9811 -1.4378
  283SOL     OW  847   1.435   2.163   2.568  0.1922  0.2526  0.3837
  283SOL    HW1  848   1.448   2.065   2.544  0.1636  2.2512  3.9240
  283SOL    HW2  849   1.335   2.190   2.580 -1.3174  1.5383  1.9773
  284SOL     OW  850   1.909   1.145   0.081  0.0994 -0.2470 -0.2169
  284SOL    HW1  851   1.868   1.215   0.141  0.2359  0.6018  0.7417
  284SOL    HW2  852   1.873   1.139   3.097  2.0413 -0.6410  0.3350
  285SOL     OW  853   0.063   0.009   2.835 -0.2682 -0.0812 -0.1836
  285SOL    HW1  854   3.111   0.043   2.906 -1.2483  1.9210 -0.2337
  285SOL    HW2  855   0.135   0.079   2.832 -0.8710  1.9562  0.3803
  286SOL     OW  856   2.015   2.722   1.353 -0.5227  0.1033 -0.4712
  286SOL    HW1  857   2.035   2.658   1.433  4.1320 -6.4270  2.2962
  286SOL    HW2  858   2.081   2.802   1.365  1.1911  0.9258  2.7343
  287SOL     OW  859   0.728   0.953   1.284 -0.4776  0.1190 -0.7834
  287SOL    HW1  860   0.662   0.875   1.304  0.3609 -3.3870  1.4849
  287SOL    HW2  861   0.769   0.971   1.373 -0.0624 -3.4262 -2.0410
  288SOL     OW  862   1.430   2.736   3.108  0.1002 -0.1743 -0.4728
  288SOL    HW1  863   1.479   2.645   3.111 -0.8532  0.6688 -0.3831
  288SOL    HW2  864   1.335   2.718   0.023 -0.1974 -2.0903 -0.5087
  289SOL     OW  865   3.067   1.819   3.089 -0.2936  0.6978  0.1721
  289SOL    HW1  866   0.056   1.809   3.082 -2.9306 -2.2440 -3.8636
  289SOL    HW2  867   3.046   1.920   3.084 -2.2925 -1.2396 -1.3788
  290SOL     OW  868   1.154   2.623   0.636 -0.2335  0.0634  0.1863
  290SOL    HW1  869   1.184   2.644   0.542  2.3661 -0.1327  1.4351
  290SOL    HW2  870   1.160   2.524   0.657 -0.1521  1.8020 -2.3465
  291SOL     OW  871   2.199   2.144   0.150 -0.2807  0.2320 -0.4487
  291SOL    HW1  872   2.233   2.223   0.096  1.2970 -1.0074 -1.4257
  291SOL    HW2  873   2.252   2.059   0.134 -2.0651 -0.3307 -3.5737
  292SOL     OW  874   0.848   1.226   1.968  0.0733  0.4558  0.0360
  292SOL    HW1  875   0.920   1.159   1.955 -1.0915  0.2266  2.3222
  292SOL    HW2  876   0.826   1.270   1.878 -3.1399 -2.5890 -1.2995
  293SOL     OW  877   2.175   2.609   0.801  0.2191 -0.0674 -0.5505
  293SOL    HW1  878   2.256   2.549   0.806  2.4652  0.0085 -2.6385
  293SOL    HW2  879   2.139   2.642   0.890  3.4201  0.5638 -2.2128
  294SOL     OW  880   3.063   0.666   2.353 -0.6422 -0.0134 -0.2187
  294SOL    HW1  881   0.002   0.751   2.333  0.7616  1.7980 -0.9193
  294SOL    HW2  882   0.019   0.590   2.365 -0.7004  2.1420 -0.7910
  295SOL     OW  883   0.821   1.864   0.340  0.4787 -0.0843  0.4534
  295SOL    HW1  884   0.721   1.847   0.316 -1.5161 -0.7121 -0.0493
  295SOL    HW2  885   0.880   1.870   0.255 -1.3076 -1.4439 -3.0031
  296SOL     OW  886   2.084   1.839   2.789 -0.0377  0.4082 -0.1352
  296SOL    HW1  887   2.162   1.778   2.791 -3.5729  2.3302  0.0991
  296SOL    HW2  888   2.007   1.804   2.846  0.2973  1.2047 -0.0327
  297SOL     OW  889   2.934   0.604   3.065  0.0453 -0.4248  0.1475
  297SOL    HW1  890   2.923   0.596   2.965 -0.0003 -0.1147  0.3515
  297SOL    HW2  891   2.856   0.553   3.109 -0.3157 -2.9604 -0.0375
  298SOL     OW  892   0.881   2.189   3.089 -1.2284  0.6099  0.6410
  298SOL    HW1  893   0.869   2.139   2.999 -1.7953 -0.5791 -3.4344
  298SOL    HW2  894   0.813   2.265   3.101  3.1854 -0.0579  0.4031
  299SOL     OW  895   1.628   2.897   2.583  0.6634 -0.7027  0.3983
  299SOL    HW1  896   1.600   2.949   2.499 -2.2223  1.8821 -3.3263
  299SOL    HW2  897   1.601   2.949   2.667 -1.7190 -1.2155 -2.7751
  300SOL     OW  898   2.722   0.360   0.382 -0.4205  0.3661 -0.3578
  300SOL    HW1  899   2.652   0.414   0.331 -0.3319  0.0712  0.1028
  300SOL    HW2  900   2.744   0.276   0.329  0.8808  0.0012  0.4644
  301SOL     OW  901   1.140   1.035   1.697  0.1717 -0.1281  0.3125
  301SOL    HW1  902   1.071   0.960   1.691 -4.4418 -0.2235  2.3374
  301SOL    HW2  903   1.115   1.112   1.636  0.3297 -2.7876  1.0940
  302SOL     OW  904   0.130   2.428   3.048  0.3947  0.3505  0.1554
  302SOL    HW1  905   0.134   2.346   3.104 -0.5252 -1.1341  1.5165
  302SOL    HW2  906   0.212   2.438   2.989  2.2047  2.9352 -0.8119
  303SOL     OW  907   0.101   0.082   2.506 -0.0461 -0.3061  0.1662
  303SOL    HW1  908   0.090   0.099   2.605 -0.5410  0.7801 -4.0226
  303SOL    HW2  909   0.021   0.116   2.456  2.4757  3.4439  2.7434
  304SOL     OW  910   2.775   0.355   1.602  0.0746 -0.5467 -0.0470
  304SOL    HW1  911   2.852   0.341   1.540  1.4998 -2.8007 -0.2351
  304SOL    HW2  912   2.694   0.390   1.554  1.3172 -0.0093  0.7237
  305SOL     OW  913   0.526   2.909   2.359  0.1132  0.8777  0.0972
  305SOL    HW1  914   0.594   2.978   2.331  3.5537 -1.0866  1.2717
  305SOL    HW2  915   0.436   2.952   2.381  0.1306  0.6876 -0.3463
  306SOL     OW  916   2.694   1.123   1.511 -0.3020 -0.0651 -0.1792
  306SOL    HW1  917   2.737   1.089   1.429 -1.8962 -1.8014  1.4278
  306SOL    HW2  918   2.627   1.193   1.485 -0.0408 -0.1333 -1.0784
  307SOL     OW  919   1.272   0.681   1.305  0.4540 -0.3946 -0.1274
  307SOL    HW1  920   1.318   0.623   1.375  1.4698 -0.1874  0.0691
  307SOL    HW2  921   1.289   0.647   1.210  0.2704  3.8219 -1.1172
  308SOL     OW  922   2.657   1.995   1.052  0.9770 -0.6112 -0.2985
  308SOL    HW1  923   2.687   2.046   1.134  2.3089 -0.1136 -0.6469
  308SOL    HW2  924   2.556   2.009   1.035  0.6874 -0.5429 -1.3110
  309SOL     OW  925   2.310   1.623   1.431  0.5549 -0.0332 -0.5467
  309SOL    HW1  926   2.330   1.688   1.357  1.4637  2.7608  0.4535
  309SOL    HW2  927   2.394   1.589   1.472 -1.0133  0.6253 -1.0988
  310SOL     OW  928   2.741   1.795   0.229 -0.2325 -0.1149  0.1143
  310SOL    HW1  929   2.787   1.715   0.182  0.5099 -0.4596 -2.3523
  310SOL    HW2  930   2.697   1.865   0.170 -0.1453  1.0685  0.5282
  311SOL     OW  931   2.302   2.073   2.907 -0.2557 -0.0750  0.5991
  311SOL    HW1  932   2.205   2.078   2.868  1.2242 -0.2062 -1.7137
  311SOL    HW2  933   2.357   2.001   2.856  1.0328 -1.3075 -0.1563
  312SOL     OW  934   2.430   1.747   1.212 -0.7776  0.0097 -0.1327
  312SOL    HW1  935   2.420   1.852   1.211  1.2104  1.0627 -0.8076
  312SOL    HW2  936   2.521   1.716   1.190 -2.7204 -0.4290  0.5011
  313SOL     OW  937   2.459   2.249   1.300  0.5443 -0.1232 -0.4318
  313SOL    HW1  938   2.538   2.298   1.256 -0.9054 -0.4504 -0.9392
  313SOL    HW2  939   2.428   2.294   1.386  1.4513  1.2146  2.3596
  314SOL     OW  940   0.881   2.132   0.776  0.3767 -0.2713 -0.2206
  314SOL    HW1  941   0.865   2.217   0.831  0.9996 -3.2621 -0.9831
  314SOL    HW2  942   0.813   2.118   0.694 -1.0731 -1.0309 -2.0533
  315SOL     OW  943   0.628   2.734   2.887  0.3744  0.5105 -0.2680
  315SOL    HW1  944   0.681   2.723   2.975 -0.1809  1.0764 -1.4367
  315SOL    HW2  945   0.601   2.637   2.853  0.0729 -0.7504  0.0673
  316SOL     OW  946   0.112   0.640   0.531  0.1641  0.5257 -0.4146
  316SOL    HW1  947   0.170   0.712   0.484  0.2227  2.1198  0.8657
  316SOL    HW2  948   0.127   0.543   0.495  1.3245 -1.5754  0.0248
  317SOL     OW  949   1.635   0.477   0.839  0.1119 -0.4445 -0.4236
  317SOL    HW1  950   1.580   0.566   0.857  0.0561  3.5459 -1.0489
  317SOL    HW2  951   1.599   0.428   0.754 -1.0100 -1.6174  0.9191
  318SOL     OW  952   0.117   2.601   0.452 -0.2107  0.3422 -0.6132
  318SOL    HW1  953   0.125   2.688   0.405 -2.5845 -0.3214 -1.9948
  318SOL    HW2  954   0.019   2.593   0.483 -0.7671 -2.3105 -1.8107
  319SOL     OW  955   0.588   1.735   3.002  0.1215  0.4681  0.3346
  319SOL    HW1  956   0.684   1.744   2.966  3.3547  0.1154  1.3594
  319SOL    HW2  957   0.545   1.822   3.027  0.8424  0.4315 -0.1490
  320SOL     OW  958   0.711   2.444   2.431 -0.0930 -0.5944 -0.1417
  320SOL    HW1  959   0.748   2.542   2.454  0.5747  3.5521  0.9571
  320SOL    HW2  960   0.761   2.371   2.488 -0.3513 -1.7419 -0.5586
  321SOL     OW  961   1.376   2.902   2.909 -0.3250  0.6624  0.3552
  321SOL    HW1  962   1.405   2.834   2.981  2.8283 -1.4994  1.5405
  321SOL    HW2  963   1.287   2.870   2.861 -0.9908  0.0098  2.1713
  322SOL     OW  964   2.592   1.433   1.949 -0.7478 -0.3482  0.4506
  322SOL    HW1  965   2.681   1.453   1.998  1.2579 -2.3769  0.1236
  322SOL    HW2  966   2.575   1.333   1.953  2.5034  0.1611  0.1882
  323SOL     OW  967   2.509   0.506   0.230 -0.0246 -0.4460 -0.1115
  323SOL    HW1  968   2.418   0.499   0.277 -0.4721  0.1687  1.7515
  323SOL    HW2  969   2.510   0.602   0.190  0.5498  0.6548 -2.1547
  324SOL     OW  970   0.414   0.003   2.670  0.0480 -0.4194 -0.5051
  324SOL    HW1  971   0.352   0.071   2.715 -0.4626 -0.4782 -3.4248
  324SOL    HW2  972   0.380   3.072   2.585  1.0687  3.4358  0.3761
  325SOL     OW  973   1.664   0.367   2.335  0.1339 -0.8098 -0.5098
  325SOL    HW1  974   1.722   0.286   2.358 -3.7064 -0.0234 -1.5755
  325SOL    HW2  975   1.577   0.367   2.390 -0.7582  0.4507  0.1245
  326SOL     OW  976   2.438   2.655   1.425 -0.0930 -0.0139 -0.7180
  326SOL    HW1  977   2.359   2.644   1.488 -1.2620 -1.0923  1.1911
  326SOL    HW2  978   2.410   2.658   1.328 -0.1732  1.2121 -0.5002
  327SOL     OW  979   1.564   0.184   2.930 -0.2471  0.4586  0.5484
  327SOL    HW1  980   1.544   0.164   3.025  1.8055 -2.8680 -2.3141
  327SOL    HW2  981   1.647   0.245   2.921 -0.4482  2.8634 -0.3265
  328SOL     OW  982   2.527   1.279   2.540  0.4698  0.0955 -0.1048
  328SOL    HW1  983   2.484   1.268   2.448 -1.8683  2.5006 -1.6521
  328SOL    HW2  984   2.522   1.378   2.575 -0.9177  0.0890  0.1340
  329SOL     OW  985   1.747   2.832   1.777 -0.5629  0.1921  0.0644
  329SOL    HW1  986   1.771   2.889   1.855 -0.8572  0.4311  1.2693
  329SOL    HW2  987   1.659   2.790   1.794 -1.5484  0.9626  0.1527
  330SOL     OW  988   2.545   1.550   1.555  0.1947 -0.0192  0.1290
  330SOL    HW1  989   2.509   1.606   1.629  1.1406  1.2748 -0.9739
  330SOL    HW2  990   2.648   1.550   1.568 -0.3954  1.1654 -3.3413
  331SOL     OW  991   0.172   1.791   1.399 -0.1282 -0.4338  0.1963
  331SOL    HW1  992   0.193   1.698   1.367 -1.4750  1.3556  1.2912
  331SOL    HW2  993   0.244   1.851   1.367 -0.6238 -2.8821  4.3667
  332SOL     OW  994   0.599   0.171   1.262 -0.1437 -0.4780 -0.1717
  332SOL    HW1  995   0.645   0.142   1.174  1.9553  1.1324  1.5448
  332SOL    HW2  996   0.540   0.098   1.311 -3.9829  0.1542  0.5859
  333SOL     OW  997   2.000   2.544   2.128 -0.0723 -0.3799  0.0461
  333SOL    HW1  998   2.003   2.636   2.081  1.1428 -0.6717 -1.5130
  333SOL    HW2  999   1.911   2.492   2.100 -2.4576  0.9997 -1.7453
  334SOL     OW 1000   1.203   1.175   1.337 -0.0118 -0.3036 -0.7301
  334SOL    HW1 1001   1.259   1.235   1.279 -0.6201  1.1585  1.3395
  334SOL    HW2 1002   1.172   1.091   1.288  2.1839  1.9602 -0.3948
  335SOL     OW 1003   1.094   2.848   2.847  0.4473 -0.1768  0.2869
  335SOL    HW1 1004   1.019   2.909   2.873  2.4742  0.0334  1.0261
  335SOL    HW2 1005   1.077   2.797   2.764 -0.0467  1.0207  1.4551
  336SOL     OW 1006   2.731   2.549   2.182 -0.1912 -0.3886 -0.0130
  336SOL    HW1 1007   2.799   2.583   2.106  1.8583 -0.1442  0.1423
  336SOL    HW2 1008   2.673   2.475   2.143 -0.7254 -0.1975  3.3072
  337SOL     OW 1009   2.503   1.540   0.705  0.4862 -0.3257 -0.0349
  337SOL    HW1 1010   2.415   1.492   0.689 -0.1130  0.2654 -0.7487
  337SOL    HW2 1011   2.547   1.572   0.620 -0.9476 -3.0723  3.1935
  338SOL     OW 1012   0.987   1.877   1.374 -0.2589  0.2086  0.1044
  338SOL    HW1 1013   1.084   1.884   1.349  0.5143  0.6887  0.7852
  338SOL    HW2 1014   0.926   1.921   1.306  2.4080 -0.6846 -1.5929
  339SOL     OW 1015   0.132   0.898   2.411  0.0055 -0.5603 -0.7128
  339SOL    HW1 1016   0.103   0.971   2.350  0.1732 -3.2065  0.0934
  339SOL    HW2 1017   0.133   0.938   2.504  0.9986 -1.3564  2.3457
  340SOL     OW 1018   1.503   2.777   1.271 -0.1768  0.6561 -0.0894
  340SOL    HW1 1019   1.603   2.756   1.261  1.3441 -1.2004 -1.8668
  340SOL    HW2 1020   1.456   2.708   1.207 -2.7577  0.6230  1.5634
  341SOL     OW 1021   1.825   1.479   0.743 -0.1269 -0.0205  0.0701
  341SOL    HW1 1022   1.878   1.404   0.783 -1.1954  0.5420  1.3229
  341SOL    HW2 1023   1.869   1.567   0.763 -1.8130  3.0289  0.2914
  342SOL     OW 1024   0.380   1.254   0.745  0.1559  0.2713 -0.2259
  342SOL    HW1 1025   0.472   1.232   0.707 -0.7657  1.6273 -0.4201
  342SOL    HW2 1026   0.356   1.353   0.740  0.3398 -1.4982  2.3255
  343SOL     OW 1027   2.328   0.601   1.443  0.3517 -0.5694  0.2900
  343SOL    HW1 1028   2.261   0.545   1.494 -1.1647 -1.0998 -1.3308
  343SOL    HW2 1029   2.292   0.677   1.389  0.3806  0.5487  0.0226
  344SOL     OW 1030   1.983   2.646   0.596 -0.0485 -0.3363  0.6178
  344SOL    HW1 1031   1.968   2.593   0.511 -1.1761 -2.5856  1.2047
  344SOL    HW2 1032   2.070   2.619   0.641  0.0861  0.7469 -3.0591
  345SOL     OW 1033   3.075   2.500   2.834  0.1592 -0.9268  0.0473
  345SOL    HW1 1034   0.028   2.544   2.766  1.5204 -0.2508 -1.2045
  345SOL    HW2 1035   0.020   2.447   2.904  0.2991 -1.0292  1.4511
  346SOL     OW 1036   2.944   0.784   0.322 -0.0256 -0.2778  0.0289
  346SOL    HW1 1037   2.992   0.846   0.390  1.8743  0.5024  1.4531
  346SOL    HW2 1038   2.945   0.819   0.224  0.2584  1.4897  0.0633
  347SOL     OW 1039   1.793   2.723   1.223 -0.4245  0.2316  0.3602
  347SOL    HW1 1040   1.885   2.741   1.265  0.2759 -1.3914 -0.2746
  347SOL    HW2 1041   1.807   2.726   1.122  0.7757  1.0878 -0.2881
  348SOL     OW 1042   1.430   1.448   2.561  0.3240  0.1181 -0.2192
  348SOL    HW1 1043   1.469   1.367   2.513 -0.4308 -2.1912 -0.3815
  348SOL    HW2 1044   1.416   1.527   2.500 -1.5875 -0.1171  0.7975
  349SOL     OW 1045   2.408   1.319   2.304 -0.1584 -0.4596  0.4398
  349SOL    HW1 1046   2.382   1.389   2.233 -0.2133  0.6518 -0.4383
  349SOL    HW2 1047   2.450   1.245   2.251  1.2275  1.0521 -0.7456
  350SOL     OW 1048   0.333   1.941   1.031  0.1262  0.3936  0.0340
  350SOL    HW1 1049   0.349   1.951   1.134  0.4462 -0.3109  3.1665
  350SOL    HW2 1050   0.235   1.958   1.007  0.3216 -0.2369  0.1565
  351SOL     OW 1051   0.955   0.403   2.271  0.1520  0.3050  0.1552
  351SOL    HW1 1052   0.915   0.361   2.354  2.9812 -1.6767 -0.4789
  351SOL    HW2 1053   0.893   0.470   2.232  2.7845 -0.5819  0.0612
  352SOL     OW 1054   0.654   2.716   1.940 -0.2072  0.0233 -0.1625
  352SOL    HW1 1055   0.691   2.765   2.024  0.0626  0.8507  0.4960
  352SOL    HW2 1056   0.711   2.737   1.861 -0.1294 -1.9296  1.1690
  353SOL     OW 1057   0.880   1.520   2.408 -0.1987  0.8613  0.2221
  353SOL    HW1 1058   0.960   1.470   2.368 -0.5560 -1.3884  0.8504
  353SOL    HW2 1059   0.850   1.594   2.347  1.8242 -1.4427  2.7002
  354SOL     OW 1060   1.893   1.244   0.524  0.1907 -0.5334 -0.0592
  354SOL    HW1 1061   1.855   1.233   0.433  0.3664  1.1476  2.1092
  354SOL    HW2 1062   1.923   1.153   0.556  0.8627 -0.4752  0.2431
  355SOL     OW 1063   2.293   0.306   0.737  0.3435  0.0743  0.3683
  355SOL    HW1 1064   2.372   0.319   0.795 -1.0766 -0.2430 -1.3378
  355SOL    HW2 1065   2.319   0.285   0.639 -1.7888  1.2402  0.0829
  356SOL     OW 1066   3.110   1.221   2.545 -0.1308 -0.7581 -0.1704
  356SOL    HW1 1067   0.065   1.163   2.589 -3.2744 -1.0072  2.3858
  356SOL    HW2 1068   0.003   1.316   2.587 -1.5126  1.0435 -0.6017
  357SOL     OW 1069   3.096   2.801   1.675  0.1402  0.0040  0.5062
  357SOL    HW1 1070   3.016   2.820   1.739 -0.3118  1.9654 -0.7944
  357SOL    HW2 1071   3.065   2.730   1.615  2.0364  3.3981 -0.1614
  358SOL     OW 1072   3.024   1.493   2.648 -0.0352  0.5924  0.4710
  358SOL    HW1 1073   3.039   1.559   2.720  0.7510  0.7543 -0.8529
  358SOL    HW2 1074   2.932   1.450   2.661  1.1003 -1.2367 -0.7794
  359SOL     OW 1075   2.533   2.621   2.578 -0.1226  0.2350 -0.0040
  359SOL    HW1 1076   2.553   2.679   2.661 -1.5495 -0.0327  0.0054
  359SOL    HW2 1077   2.617   2.610   2.522 -1.3478  1.5008  1.3638
  360SOL     OW 1078   1.216   1.132   0.940 -0.2661 -0.5054 -0.4901
  360SOL    HW1 1079   1.208   1.076   1.025 -0.1316  1.4005  1.3410
  360SOL    HW2 1080   1.124   1.162   0.908 -0.0248 -1.7359  0.7591
  361SOL     OW 1081   2.050   2.347   0.986  0.1341 -0.0944  0.0891
  361SOL    HW1 1082   2.141   2.303   0.992 -1.0579 -0.7803  1.2280
  361SOL    HW2 1083   2.056   2.448   1.005  1.1537  2.5188  0.9034
  362SOL     OW 1084   1.628   1.419   1.164 -0.0295  0.0902 -0.3071
  362SOL    HW1 1085   1.706   1.469   1.120  1.0929 -1.3809 -1.1433
  362SOL    HW2 1086   1.573   1.364   1.092 -1.7150 -3.3240  3.7326
  363SOL     OW 1087   2.525   1.917   0.391  1.0731 -0.3297  0.2073
  363SOL    HW1 1088   2.533   2.018   0.391  0.7606  0.4271 -1.6771
  363SOL    HW2 1089   2.599   1.880   0.338 -1.8833  3.5589 -0.3318
  364SOL     OW 1090   2.288   0.042   1.784 -0.7934 -0.5521 -0.4867
  364SOL    HW1 1091   2.375   3.104   1.784 -0.6456  1.7386 -1.7027
  364SOL    HW2 1092   2.309   0.125   1.835  0.3370 -1.9138  1.7487
  365SOL     OW 1093   3.000   2.606   1.487  0.1366 -0.7189  0.1739
  365SOL    HW1 1094   2.904   2.572   1.514 -0.7103 -1.1560 -1.1909
  365SOL    HW2 1095   3.074   2.562   1.547  0.5150 -0.2841  0.5279
  366SOL     OW 1096   2.950   1.351   0.025 -0.1371  0.5350  0.3109
  366SOL    HW1 1097   3.003   1.357   3.052 -1.1943 -0.0876 -0.4478
  366SOL    HW2 1098   2.974   1.274   0.083 -1.3255  0.3024  0.4050
  367SOL     OW 1099   2.319   2.781   2.907 -0.6681 -0.2260 -0.0796
  367SOL    HW1 1100   2.261   2.749   2.834  2.3117  3.6092  0.8834
  367SOL    HW2 1101   2.285   2.744   2.997  0.8121 -0.0289 -0.4793
  368SOL     OW 1102   3.104   1.719   1.018 -0.6784 -0.0132  0.3931
  368SOL    HW1 1103   0.036   1.805   0.996 -0.2347 -0.4176 -0.2190
  368SOL    HW2 1104   3.006   1.727   0.998  2.4140  1.2920 -1.3297
  369SOL     OW 1105   0.794   0.456   0.650  0.3611  0.2210 -0.2279
  369SOL    HW1 1106   0.699   0.499   0.647 -0.9774 -1.0943  1.0487
  369SOL    HW2 1107   0.845   0.467   0.560  2.6752  2.4228 -1.1379
  370SOL     OW 1108   0.664   0.351   0.864  0.2347 -0.1036 -0.0088
  370SOL    HW1 1109   0.589   0.413   0.881  1.8528  0.7008  2.0294
  370SOL    HW2 1110   0.725   0.379   0.783  1.1443  0.9620 -2.5402
  371SOL     OW 1111   2.307   1.620   0.254 -0.3116  0.2950  0.1923
  371SOL    HW1 1112   2.232   1.550   0.277 -0.7578 -2.8786  1.2306
  371SOL    HW2 1113   2.404   1.584   0.274  0.8990 -2.3000  0.7880
  372SOL     OW 1114   0.157   1.059   2.683  0.0141  0.3220  0.2217
  372SOL    HW1 1115   0.099   1.058   2.769  0.2877 -0.8357  0.8687
  372SOL    HW2 1116   0.240   1.005   2.699  0.5523  0.4490 -2.0021
  373SOL     OW 1117   2.959   1.092   0.155  0.5577 -0.1951  0.3907
  373SOL    HW1 1118   2.879   1.142   0.192 -1.2365 -0.6223 -2.5607
  373SOL    HW2 1119   2.934   1.002   0.108  0.1754 -2.0272 -2.4724
  374SOL     OW 1120   0.705   2.422   0.045 -0.2463 -0.0649 -0.0713
  374SOL    HW1 1121   0.608   2.432   0.061  1.9697  0.7238  0.5906
  374SOL    HW2 1122   0.741   2.495   3.101 -1.1149 -0.0750  0.2989
  375SOL     OW 1123   1.371   0.220   0.295  0.5229 -0.2450 -0.1500
  375SOL    HW1 1124   1.312   0.257   0.219  0.6696  2.6474 -0.9779
  375SOL    HW2 1125   1.318   0.158   0.353  1.7566 -1.4043  2.1515
  376SOL     OW 1126   0.186   2.835   1.847  0.9485 -0.2047 -0.2228
  376SOL    HW1 1127   0.239   2.750   1.859 -3.4332 -0.9585  0.1898
  376SOL    HW2 1128   0.106   2.815   1.786 -3.9333  0.5474 -0.2221
  377SOL     OW 1129   2.836   2.123   2.927 -0.1303  0.1350 -0.1867
  377SOL    HW1 1130   2.762   2.185   2.923  2.1003  1.6795 -1.2334
  377SOL    HW2 1131   2.805   2.027   2.929  0.9761  1.7448  2.6938
  378SOL     OW 1132   1.663   0.808   0.358  0.4044  0.7558  0.2058
  378SOL    HW1 1133   1.570   0.763   0.365 -0.2908 -1.0455  2.3043
  378SOL    HW2 1134   1.700   0.834   0.448  0.6993 -1.3183 -2.0852
  379SOL     OW 1135   1.342   1.482   0.481 -0.6366  0.3530  0.1801
  379SOL    HW1 1136   1.260   1.429   0.459  1.6863  0.7536 -1.2173
  379SOL    HW2 1137   1.328   1.513   0.577 -1.0799  1.5649  0.8463
  380SOL     OW 1138   2.168   2.255   1.814 -0.6852 -0.6249 -0.4147
  380SOL    HW1 1139   2.083   2.300   1.772 -1.4362  3.1976 -0.8789
  380SOL    HW2 1140   2.207   2.317   1.886  3.4421  0.1754  0.9571
  381SOL     OW 1141   2.957   0.980   2.135  0.0860  0.1078  0.0834
  381SOL    HW1 1142   3.028   1.045   2.167  2.8045  1.5121  0.3907
  381SOL    HW2 1143   2.904   1.022   2.061 -0.7655  0.3739  0.2037
  382SOL     OW 1144   2.929   2.569   0.047 -0.3441 -0.2387  0.2683
  382SOL    HW1 1145   2.875   2.529   3.083  0.0920  1.1920  0.3466
  382SOL    HW2 1146   3.023   2.591   0.020  2.3038 -0.6061 -0.4869
  383SOL     OW 1147   1.652   1.160   2.168 -0.5696 -0.1324 -0.6377
  383SOL    HW1 1148   1.711   1.233   2.135 -1.5470 -2.5164  1.0240
  383SOL    HW2 1149   1.563   1.175   2.130  2.5379  2.2407  0.1688
  384SOL     OW 1150   0.910   2.062   2.616 -0.2342  0.2698  0.4068
  384SOL    HW1 1151   0.859   2.031   2.530 -1.6903 -1.1673 -3.4843
  384SOL    HW2 1152   1.003   2.022   2.602 -0.5584 -0.7832 -0.4628
  385SOL     OW 1153   2.393   2.297   0.569 -0.0973 -0.1973  0.5019
  385SOL    HW1 1154   2.449   2.363   0.514  2.7983  2.3550 -0.3766
  385SOL    HW2 1155   2.296   2.311   0.543  0.3760  0.8796  0.4091
  386SOL     OW 1156   1.532   1.141   0.303 -0.0498  0.3252 -0.8526
  386SOL    HW1 1157   1.573   1.207   0.368  0.7088 -1.7291  0.6060
  386SOL    HW2 1158   1.471   1.076   0.348  0.4755  0.9122  0.9887
  387SOL     OW 1159   2.876   0.610   1.378  0.0933 -0.3283  0.1177
  387SOL    HW1 1160   2.937   0.647   1.452 -0.1865 -0.7045  0.2374
  387SOL    HW2 1161   2.908   0.513   1.366  1.3691  0.0971 -1.8181
  388SOL     OW 1162   2.820   0.836   1.246  0.3861 -0.2017  0.4503
  388SOL    HW1 1163   2.910   0.880   1.228 -0.2434 -0.7209  0.2219
  388SOL    HW2 1164   2.822   0.757   1.313 -2.2450 -0.3214 -1.4175
  389SOL     OW 1165   1.789   1.300   2.557  0.4882  0.0193 -0.1725
  389SOL    HW1 1166   1.857   1.267   2.625  1.2130  1.3963 -1.1549
  389SOL    HW2 1167   1.830   1.364   2.488  1.8132  0.5998  2.6273
  390SOL     OW 1168   1.616   2.397   0.485 -0.1892 -0.3686  0.0432
  390SOL    HW1 1169   1.627   2.489   0.524 -0.2955 -1.8902  0.3854
  390SOL    HW2 1170   1.637   2.405   0.386  0.9160 -0.7042  0.8810
  391SOL     OW 1171   1.203   2.217   0.983 -0.7660 -0.7833 -0.1204
  391SOL    HW1 1172   1.183   2.119   0.988 -0.8760  2.3781  1.3616
  391SOL    HW2 1173   1.301   2.238   1.003 -1.0902  0.7215 -0.9245
  392SOL     OW 1174   2.592   2.861   1.585  0.0569  0.2874 -0.8716
  392SOL    HW1 1175   2.536   2.795   1.539  2.2966 -0.3944  1.1841
  392SOL    HW2 1176   2.664   2.891   1.520 -1.6191 -0.2452 -1.0376
  393SOL     OW 1177   1.722   2.599   2.370 -0.0169  0.8761  0.0434
  393SOL    HW1 1178   1.752   2.693   2.360 -1.1082 -1.0045  0.4740
  393SOL    HW2 1179   1.659   2.586   2.452 -0.7999  1.5556  0.5528
  394SOL     OW 1180   0.326   2.691   2.461  0.7666 -0.6502  0.2488
  394SOL    HW1 1181   0.272   2.692   2.372  2.9699  0.4296 -2.0485
  394SOL    HW2 1182   0.368   2.782   2.478  0.4037 -1.2414  0.5676
  395SOL     OW 1183   0.292   1.054   1.259  0.0374 -0.1164 -0.6535
  395SOL    HW1 1184   0.338   1.069   1.166 -0.9734 -2.6200 -3.7540
  395SOL    HW2 1185   0.201   1.094   1.256  0.7431  0.2939 -0.4043
  396SOL     OW 1186   2.195   1.053   2.628 -0.4991  0.1649 -0.0471
  396SOL    HW1 1187   2.277   1.088   2.686  2.7648  1.0287  0.6566
  396SOL    HW2 1188   2.218   0.957   2.604 -0.8007 -0.5004  2.4098
  397SOL     OW 1189   3.016   0.724   2.640  0.3931  0.2330 -0.2649
  397SOL    HW1 1190   3.098   0.702   2.692 -1.9159 -0.9828 -0.9154
  397SOL    HW2 1191   3.032   0.713   2.545  1.3105 -3.4876  1.1853
  398SOL     OW 1192   1.624   3.043   0.202  0.1098  0.4516  0.4126
  398SOL    HW1 1193   1.693   3.102   0.253  0.2670  0.9912  0.4117
  398SOL    HW2 1194   1.612   2.948   0.245  0.8038 -2.0266 -2.7542
  399SOL     OW 1195   2.237   2.414   2.017 -0.3364  0.2040  0.2255
  399SOL    HW1 1196   2.239   2.365   2.105 -2.2529  0.5730 -2.3094
  399SOL    HW2 1197   2.178   2.494   2.033 -0.7793 -2.2869 -0.2128
  400SOL     OW 1198   2.965   2.044   2.288 -0.1944 -0.0866 -0.3950
  400SOL    HW1 1199   3.055   2.014   2.263 -1.5527 -3.8868  1.2666
  400SOL    HW2 1200   2.914   2.073   2.207  0.0585 -0.3455 -1.8135
  401SOL     OW 1201   0.520   0.807   0.574  0.1986 -0.0013  0.6529
  401SOL    HW1 1202   0.530   0.707   0.553 -0.5775 -1.7675 -1.6135
  401SOL    HW2 1203   0.455   0.831   0.648  1.2895  0.9330 -2.9018
  402SOL     OW 1204   0.795   2.841   2.140  0.2237  0.1646 -0.2788
  402SOL    HW1 1205   0.873   2.808   2.193 -0.9030 -0.6164  2.4161
  402SOL    HW2 1206   0.802   2.942   2.137 -1.4022 -1.0398 -0.2171
  403SOL     OW 1207   0.079   1.517   2.011 -0.1568  0.3215 -0.1494
  403SOL    HW1 1208   0.151   1.458   2.049 -1.3831  2.9996  0.2665
  403SOL    HW2 1209   3.099   1.488   2.044 -0.9439  1.7830  1.9483
  404SOL     OW 1210   2.757   1.959   2.463  0.4293  0.1019 -0.2071
  404SOL    HW1 1211   2.836   1.982   2.405 -0.0515 -2.4615  0.8876
  404SOL    HW2 1212   2.743   2.031   2.533 -1.0041 -1.6785  0.0762
  405SOL     OW 1213   2.313   0.141   2.470 -0.6244  0.9594 -0.2265
  405SOL    HW1 1214   2.231   0.171   2.523  0.9931  3.5313  0.7708
  405SOL    HW2 1215   2.292   0.068   2.398 -2.2069 -2.1770  0.1020
  406SOL     OW 1216   1.366   2.295   0.581 -0.3558 -0.6249 -0.1145
  406SOL    HW1 1217   1.445   2.354   0.556 -0.4021  0.3419 -0.5834
  406SOL    HW2 1218   1.397   2.203   0.615 -2.1035 -0.2594 -0.4747
  407SOL     OW 1219   1.810   1.318   0.275  0.0686  0.3014  0.2204
  407SOL    HW1 1220   1.795   1.398   0.216 -1.1700 -0.1137 -2.9002
  407SOL    HW2 1221   1.734   1.316   0.343  0.4691  0.6089  0.9069
  408SOL     OW 1222   0.182   0.939   1.675 -0.4171 -0.0029 -0.2925
  408SOL    HW1 1223   0.123   0.937   1.592 -0.2223  2.0790  1.5104
  408SOL    HW2 1224   0.174   0.852   1.731  0.3752 -0.3818  1.6963
  409SOL     OW 1225   2.824   1.362   2.802  0.8476 -0.2922  0.0646
  409SOL    HW1 1226   2.777   1.324   2.887  0.7488 -0.6039  1.4442
  409SOL    HW2 1227   2.925   1.355   2.812 -1.3246 -2.2553  0.8002
  410SOL     OW 1228   2.827   1.653   0.916  0.6748 -0.3631  0.7250
  410SOL    HW1 1229   2.844   1.728   0.848  1.7786 -0.0925  0.9659
  410SOL    HW2 1230   2.749   1.586   0.881 -0.4899  0.5129 -1.6343
  411SOL     OW 1231   2.950   0.503   0.364 -0.0326  0.1842  0.1672
  411SOL    HW1 1232   2.950   0.609   0.355  0.3631  1.0619 -1.0156
  411SOL    HW2 1233   2.858   0.461   0.386  1.7649 -1.3980 -0.7818
  412SOL     OW 1234   1.802   0.121   0.313 -0.2907 -0.1077 -0.0337
  412SOL    HW1 1235   1.871   0.111   0.390  0.7290 -2.9332 -2.2621
  412SOL    HW2 1236   1.846   0.172   0.238  0.5797  0.2297  0.4759
  413SOL     OW 1237   1.298   0.319   1.689 -0.0252 -0.9816  0.3211
  413SOL    HW1 1238   1.310   0.363   1.784 -0.2155  0.3646  0.2191
  413SOL    HW2 1239   1.345   0.231   1.677  0.1015  1.8274 -0.1686
  414SOL     OW 1240   0.525   1.054   0.116 -0.2669  0.0645 -0.4083
  414SOL    HW1 1241   0.432   1.026   0.091  2.2980  3.4308  2.3882
  414SOL    HW2 1242   0.555   1.012   0.207  0.6889  0.1953 -0.6116
  415SOL     OW 1243   2.932   1.149   0.480 -0.1592 -0.3376 -0.5508
  415SOL    HW1 1244   3.009   1.184   0.427  0.1281 -0.5971 -2.0553
  415SOL    HW2 1245   2.893   1.230   0.533 -0.4794  2.0964  0.2499
  416SOL     OW 1246   2.384   0.795   0.136 -0.0237  0.0940 -0.2049
  416SOL    HW1 1247   2.392   0.719   0.066  1.3079 -1.6085 -2.4407
  416SOL    HW2 1248   2.473   0.828   0.175  2.1433 -0.0244 -0.3550
  417SOL     OW 1249   2.977   2.819   0.173 -0.0991 -0.3384  0.0657
  417SOL    HW1 1250   2.918   2.879   0.116 -0.3819 -1.3790  0.9246
  417SOL    HW2 1251   2.956   2.725   0.146  1.0183  0.7039 -0.0096
  418SOL     OW 1252   3.085   0.478   0.140  0.3741  0.5122  0.5739
  418SOL    HW1 1253   3.019   0.485   0.218 -0.4499  0.3665 -2.7324
  418SOL    HW2 1254   3.038   0.506   0.054  0.1131  1.8569 -2.0952
  419SOL     OW 1255   0.740   0.773   0.794  0.1510  0.1327  0.2618
  419SOL    HW1 1256   0.794   0.686   0.808 -1.5442 -2.7797 -1.3184
  419SOL    HW2 1257   0.644   0.762   0.833 -0.4316 -1.7196  1.7536
  420SOL     OW 1258   0.347   0.905   0.745  0.3975 -0.0949  0.1846
  420SOL    HW1 1259   0.251   0.870   0.757  1.8395  1.1652  1.2562
  420SOL    HW2 1260   0.352   0.995   0.796  1.0042 -1.4911  0.3142
  421SOL     OW 1261   0.286   1.983   0.596  0.1640  0.3944  0.6617
  421SOL    HW1 1262   0.186   1.973   0.576 -2.6396  1.9593 -0.4486
  421SOL    HW2 1263   0.315   2.071   0.638  0.6955 -0.3669 -0.5787
  422SOL     OW 1264   2.667   0.208   1.939 -0.0743  0.2991  0.5085
  422SOL    HW1 1265   2.649   0.214   2.040  1.0289 -3.2437 -1.0320
  422SOL    HW2 1266   2.584   0.218   1.877  2.1734 -0.0328  2.3514
  423SOL     OW 1267   1.901   1.733   0.168  0.0023 -0.4942  0.4506
  423SOL    HW1 1268   1.977   1.746   0.233  0.1904 -1.5455 -3.0161
  423SOL    HW2 1269   1.942   1.715   0.078 -0.0199  1.8895  1.9091
  424SOL     OW 1270   1.702   1.623   2.898  0.2290  0.1728  0.5501
  424SOL    HW1 1271   1.670   1.530   2.868 -1.2995 -0.8798  0.9537
  424SOL    HW2 1272   1.801   1.610   2.922 -1.6640 -2.3566 -1.0505
  425SOL     OW 1273   0.324   0.199   1.998  0.6614 -0.4690  0.4470
  425SOL    HW1 1274   0.270   0.129   1.946 -1.1728 -0.8965 -0.4145
  425SOL    HW2 1275   0.370   0.263   1.934  0.1588  1.5244  0.2846
  426SOL     OW 1276   2.079   2.961   0.288  0.0709  0.0328  0.4315
  426SOL    HW1 1277   2.019   2.878   0.294  1.5523  1.1050  2.0680
  426SOL    HW2 1278   2.030   3.046   0.323  1.0289  1.6710  1.1213
  427SOL     OW 1279   0.512   1.543   2.571  0.6615 -0.2772 -0.7164
  427SOL    HW1 1280   0.543   1.582   2.481  2.0772 -1.6502  2.5315
  427SOL    HW2 1281   0.415   1.504   2.558  0.1805  0.0409  0.0522
  428SOL     OW 1282   2.101   1.515   2.598  0.3220 -0.6949 -0.2772
  428SOL    HW1 1283   2.123   1.434   2.544 -0.9292  1.7716  1.0822
  428SOL    HW2 1284   2.087   1.481   2.695 -0.2766  3.2874  0.8728
  429SOL     OW 1285   2.377   3.011   0.544 -0.2469  0.6026 -0.7536
  429SOL    HW1 1286   2.395   2.916   0.503  0.6005 -2.1229 -0.0089
  429SOL    HW2 1287   2.451   3.071   0.508  0.1414  0.4114 -2.5702
  430SOL     OW 1288   1.794   1.795   2.229 -0.0347 -0.0268 -0.1330
  430SOL    HW1 1289   1.712   1.854   2.248 -1.7586  1.4911  0.1821
  430SOL    HW2 1290   1.860   1.800   2.304  0.0799  0.2932 -1.9974
  431SOL     OW 1291   3.043   2.011   1.791 -1.0904  0.5685  0.3183
  431SOL    HW1 1292   2.950   1.962   1.776 -2.2904 -1.4973  1.4416
  431SOL    HW2 1293   0.003   1.986   1.721  3.1004  1.9785  0.5165
  432SOL     OW 1294   1.196   2.320   2.278 -0.4892  0.0391  0.6310
  432SOL    HW1 1295   1.108   2.306   2.233  2.7689  0.9760  2.1616
  432SOL    HW2 1296   1.266   2.262   2.230  0.0521 -2.1814 -1.0199
  433SOL     OW 1297   0.979   2.727   0.826  0.3596 -0.0461 -0.0937
  433SOL    HW1 1298   1.040   2.689   0.759 -1.6478 -1.0067  3.5579
  433SOL    HW2 1299   0.987   2.832   0.837 -1.1747  0.2740  3.2599
  434SOL     OW 1300   0.323   2.016   2.365  0.1511 -0.4328  0.0558
  434SOL    HW1 1301   0.271   1.928   2.336 -1.2728 -2.4065 -2.4344
  434SOL    HW2 1302   0.409   2.031   2.300  2.9473 -0.0020 -3.1854
  435SOL     OW 1303   0.315   1.535   0.447 -0.2714 -0.4054  0.2304
  435SOL    HW1 1304   0.231   1.541   0.390 -1.6247  2.1408 -0.6917
  435SOL    HW2 1305   0.287   1.528   0.543  0.1253  2.8232 -2.1926
  436SOL     OW 1306   0.571   2.067   1.953  0.2034 -0.9118  0.3002
  436SOL    HW1 1307   0.481   2.019   1.942  0.4753 -0.6829 -2.2488
  436SOL    HW2 1308   0.596   2.129   1.872  0.0640 -1.2235 -0.0200
  437SOL     OW 1309   1.094   0.608   0.345  0.3458  0.3104  0.0827
  437SOL    HW1 1310   1.082   0.626   0.448 -0.3971 -0.7644  2.1820
  437SOL    HW2 1311   1.194   0.598   0.321  2.5515 -1.3528 -1.2991
  438SOL     OW 1312   0.517   2.073   0.898  0.2887 -0.4983 -0.2016
  438SOL    HW1 1313   0.458   2.028   0.967  0.0411 -2.6404  0.7175
  438SOL    HW2 1314   0.582   2.016   0.852 -1.4313 -0.0883  3.2486
  439SOL     OW 1315   1.132   2.452   1.922  0.6159  0.0165 -0.5769
  439SOL    HW1 1316   1.082   2.395   1.854 -2.3887  1.1628  0.8494
  439SOL    HW2 1317   1.065   2.496   1.991 -1.2596  1.2679  0.8434
  440SOL     OW 1318   1.679   0.144   1.449 -0.5087  0.2908 -0.0221
  440SOL    HW1 1319   1.725   0.152   1.541  1.9252  0.1176  2.3245
  440SOL    HW2 1320   1.697   0.228   1.391  2.0813  0.4359 -0.3590
  441SOL     OW 1321   0.438   3.099   1.371  0.1976 -0.3603 -0.0500
  441SOL    HW1 1322   0.370   0.007   1.446 -0.9804  0.4360  0.9429
  441SOL    HW2 1323   0.512   3.034   1.397  2.6192  2.3547  1.0955
  442SOL     OW 1324   2.112   2.032   0.397  0.4043 -0.5425  0.1019
  442SOL    HW1 1325   2.070   1.946   0.372 -0.6040  1.1367  1.0904
  442SOL    HW2 1326   2.137   2.077   0.310  1.8906 -1.2568  1.0210
  443SOL     OW 1327   2.754   0.320   2.504  0.0502  0.8391  0.3281
  443SOL    HW1 1328   2.654   0.314   2.516  2.8779  2.5727 -1.2752
  443SOL    HW2 1329   2.773   0.414   2.471 -1.3149  0.4742 -2.9247
  444SOL     OW 1330   2.087   1.401   2.020 -0.6602  0.5468  0.9660
  444SOL    HW1 1331   2.094   1.315   2.072 -0.2535 -0.8474  0.1036
  444SOL    HW2 1332   2.159   1.404   1.950 -5.3847 -1.7061  2.5000
  445SOL     OW 1333   2.628   1.976   1.403 -0.5782  0.1502 -0.3312
  445SOL    HW1 1334   2.636   2.051   1.473 -1.1896  0.3771  0.3060
  445SOL    HW2 1335   2.533   1.962   1.374  0.9591  1.9129  1.6389
  446SOL     OW 1336   3.084   0.922   0.502  0.0627 -0.4264  0.7511
  446SOL    HW1 1337   0.053   0.960   0.462 -0.7264  2.0556  0.7912
  446SOL    HW2 1338   3.026   1.010   0.520 -0.7992  2.4729  1.9513
  447SOL     OW 1339   0.621   1.494   0.947  0.0946 -0.2244 -0.7480
  447SOL    HW1 1340   0.606   1.399   0.926  0.0396  1.7497 -0.5271
  447SOL    HW2 1341   0.605   1.547   0.864 -0.1986 -2.1319  0.3804
  448SOL     OW 1342   1.388   1.255   2.074  0.4515 -0.3900 -0.2351
  448SOL    HW1 1343   1.387   1.229   1.977  0.3092  4.4126 -1.1786
  448SOL    HW2 1344   1.318   1.202   2.124  0.8771 -1.9321  0.5305
  449SOL     OW 1345   0.333   1.708   0.142  0.4602 -0.0265 -0.3755
  449SOL    HW1 1346   0.248   1.693   0.191  2.7510 -0.7452 -2.0669
  449SOL    HW2 1347   0.310   1.762   0.058 -0.1205  2.7316 -1.6660
  450SOL     OW 1348   2.562   2.379   2.065  0.3271 -0.8323 -0.1729
  450SOL    HW1 1349   2.472   2.388   2.018 -0.5549  0.1791  0.1068
  450SOL    HW2 1350   2.558   2.316   2.147  1.0330 -2.1453 -0.0257
  451SOL     OW 1351   2.127   0.322   2.175 -0.2076 -0.3255  0.3665
  451SOL    HW1 1352   2.113   0.369   2.266 -0.0040 -0.7128 -2.2295
  451SOL    HW2 1353   2.052   0.338   2.110 -0.5475 -0.5544  2.1815
  452SOL     OW 1354   1.054   0.004   1.276 -0.0289 -0.3027 -0.0204
  452SOL    HW1 1355   1.043   3.015   1.259 -2.0396 -2.2378 -2.9066
  452SOL    HW2 1356   0.981   0.042   1.337  2.8646  2.1106 -2.9887
  453SOL     OW 1357   1.045   1.372   1.078 -0.6694  0.7092 -0.0563
  453SOL    HW1 1358   1.039   1.321   0.989 -1.8852 -0.9321 -2.0752
  453SOL    HW2 1359   0.975   1.446   1.077  1.3091  1.4121 -0.1703
  454SOL     OW 1360   0.120   1.132   0.695 -0.3488 -0.1804 -0.1983
  454SOL    HW1 1361   0.102   1.039   0.728  1.2891  2.1129 -1.4270
  454SOL    HW2 1362   0.212   1.166   0.714 -2.6901 -1.9265  0.4043
  455SOL     OW 1363   0.085   2.859   0.313 -0.5303  0.1671  0.0833
  455SOL    HW1 1364   3.112   2.848   0.254 -2.7142 -1.4203 -2.4816
  455SOL    HW2 1365   0.166   2.884   0.256 -1.7745  0.3454 -0.4806
  456SOL     OW 1366   1.977   2.257   0.729 -0.5531 -0.2561 -0.0413
  456SOL    HW1 1367   2.012   2.289   0.821  1.5307 -1.3413  1.6768
  456SOL    HW2 1368   1.919   2.174   0.732 -1.2250  1.2389 -3.3257
  457SOL     OW 1369   1.486   0.104   0.061 -0.6642 -0.2287 -0.4304
  457SOL    HW1 1370   1.544   0.017   0.077 -0.0842 -0.8827  0.6059
  457SOL    HW2 1371   1.479   0.161   0.146 -0.0759  1.1243  0.5173
  458SOL     OW 1372   2.769   2.972   0.442 -0.1741 -0.4044 -0.0426
  458SOL    HW1 1373   2.772   2.929   0.535 -0.3412  0.8454  3.2809
  458SOL    HW2 1374   2.857   2.956   0.393  1.7798 -0.9940 -1.4067
  459SOL     OW 1375   2.106   0.293   2.632  0.1516 -0.1303 -0.4331
  459SOL    HW1 1376   2.028   0.236   2.607  1.3976  0.6019 -0.0259
  459SOL    HW2 1377   2.078   0.333   2.721 -0.5957 -2.4466 -0.8650
  460SOL     OW 1378   2.999   0.061   3.050 -0.2056 -0.0003 -0.0008
  460SOL    HW1 1379   3.033   0.095   0.027 -0.7768 -1.3748  2.4891
  460SOL    HW2 1380   2.928   3.098   3.067 -0.6194 -0.2425 -2.4079
  461SOL     OW 1381   0.626   1.402   1.329 -0.2611  0.2635 -0.1173
  461SOL    HW1 1382   0.561   1.335   1.369 -0.8178  0.9152  0.6408
  461SOL    HW2 1383   0.590   1.494   1.297  0.0643  1.0270 -0.8527
  462SOL     OW 1384   2.846   2.814   1.768 -0.2635  0.3342 -0.1497
  462SOL    HW1 1385   2.854   2.773   1.862  0.0588 -1.3094 -2.4301
  462SOL    HW2 1386   2.788   2.763   1.705  3.0626  2.1651  3.8032
  463SOL     OW 1387   2.684   1.219   3.012 -0.1841 -0.0354 -0.3408
  463SOL    HW1 1388   2.691   1.256   3.104 -0.7864 -1.4062 -1.3664
  463SOL    HW2 1389   2.697   1.115   3.014 -1.9201 -3.8480  2.6193
  464SOL     OW 1390   0.113   2.574   1.133  0.0312 -0.0141 -0.7760
  464SOL    HW1 1391   0.182   2.499   1.123 -0.0055  2.5444 -2.1131
  464SOL    HW2 1392   0.166   2.657   1.166  3.5881 -4.0102  0.8523
  465SOL     OW 1393   0.398   1.074   0.452 -0.2854  0.0271 -0.2209
  465SOL    HW1 1394   0.405   1.166   0.409 -0.9386 -0.1524 -0.5000
  465SOL    HW2 1395   0.455   1.074   0.539 -0.9471  0.7321 -0.7016
  466SOL     OW 1396   1.479   0.161   2.074 -0.5715 -0.1097  0.0602
  466SOL    HW1 1397   1.441   0.064   2.058 -2.9298 -0.1726 -0.9643
  466SOL    HW2 1398   1.410   0.210   2.131 -2.1159 -2.1149  1.8052
  467SOL     OW 1399   0.772   0.583   2.178 -0.1346  0.0508  0.1782
  467SOL    HW1 1400   0.737   0.594   2.084 -1.8549 -0.2822 -0.8720
  467SOL    HW2 1401   0.735   0.649   2.245 -1.3470 -0.8409 -1.0000
  468SOL     OW 1402   0.031   1.173   2.254  0.0204  0.0125 -0.0155
  468SOL    HW1 1403   0.002   1.180   2.351  0.4296 -0.1649  3.2375
  468SOL    HW2 1404   0.106   1.233   2.227  0.7853  1.2149  1.2085
  469SOL     OW 1405   0.306   1.783   0.791 -0.0876 -0.9252  0.2335
  469SOL    HW1 1406   0.342   1.849   0.722  3.0055 -0.4920  0.6593
  469SOL    HW2 1407   0.317   1.819   0.890 -0.0377 -1.9061 -1.2931
  470SOL     OW 1408   2.691   1.679   2.428  1.0031  0.1030  0.1769
  470SOL    HW1 1409   2.687   1.775   2.456 -0.2270 -1.7376  2.5380
  470SOL    HW2 1410   2.620   1.664   2.356  0.5336 -1.6633 -1.5988
  471SOL     OW 1411   1.577   0.888   2.034  0.3633  0.4778  0.1502
  471SOL    HW1 1412   1.662   0.835   2.037  1.6651 -1.6554  2.2837
  471SOL    HW2 1413   1.590   0.975   2.076 -1.2613 -4.5818 -0.2718
  472SOL     OW 1414   0.776   2.707   1.230 -0.5088  0.1182 -0.1137
  472SOL    HW1 1415   0.816   2.611   1.233 -1.7756 -1.0187  0.1141
  472SOL    HW2 1416   0.781   2.741   1.133  0.3804  0.2859 -2.0296
  473SOL     OW 1417   0.779   0.319   2.487  0.3593  0.0215  0.1039
  473SOL    HW1 1418   0.713   0.385   2.447  0.5059 -0.9494  0.4048
  473SOL    HW2 1419   0.744   0.232   2.527  0.1184  0.9659  1.0296
  474SOL     OW 1420   1.847   3.047   1.342 -0.3181 -0.6625  0.4192
  474SOL    HW1 1421   1.767   3.103   1.374  1.0558 -1.0254  2.8899
  474SOL    HW2 1422   1.858   3.052   1.243  1.4510 -0.1563  2.2796
  475SOL     OW 1423   1.911   0.282   0.976  0.1895  0.0160  0.2069
  475SOL    HW1 1424   1.908   0.288   0.874  2.6081  0.2661  0.3042
  475SOL    HW2 1425   1.969   0.358   1.001 -0.1912 -0.2214 -1.5132
  476SOL     OW 1426   0.513   0.771   1.035  0.3854  0.2222  0.2103
  476SOL    HW1 1427   0.472   0.866   1.014  0.4574  2.2715  2.6421
  476SOL    HW2 1428   0.535   0.769   1.134  2.2814 -0.8702 -3.1844
  477SOL     OW 1429   1.288   2.704   0.399 -0.2869  0.5602 -0.4227
  477SOL    HW1 1430   1.232   2.717   0.317 -0.4847 -0.0515 -2.8044
  477SOL    HW2 1431   1.298   2.791   0.449  1.1911 -2.7803  1.5739
  478SOL     OW 1432   0.184   2.253   2.447  0.1820 -0.5144 -0.1178
  478SOL    HW1 1433   0.244   2.325   2.483 -2.0971  1.5172 -0.7658
  478SOL    HW2 1434   0.229   2.164   2.446  1.6476  1.2419  1.4759
  479SOL     OW 1435   2.585   3.028   1.276  0.1133 -0.3425 -0.0956
  479SOL    HW1 1436   2.510   3.011   1.344 -3.0375 -0.6601  0.7145
  479SOL    HW2 1437   2.584   0.012   1.258  0.3380  0.0451  2.9169
  480SOL     OW 1438   0.540   2.391   0.535 -0.1928 -0.1009 -0.0588
  480SOL    HW1 1439   0.604   2.389   0.454 -0.2798  2.2099  0.7420
  480SOL    HW2 1440   0.455   2.446   0.508 -1.4961  2.6992 -1.0092
  481SOL     OW 1441   1.901   2.214   1.323 -0.1162  0.6003 -0.4218
  481SOL    HW1 1442   1.954   2.261   1.400  2.3135 -0.0233  0.9635
  481SOL    HW2 1443   1.853   2.279   1.260 -2.3544  1.8620 -1.3626
  482SOL     OW 1444   1.095   2.339   3.008  0.4618  0.6724 -0.1339
  482SOL    HW1 1445   1.174   2.284   3.030 -2.6326 -0.4869 -3.1389
  482SOL    HW2 1446   1.010   2.306   3.056  0.0089 -0.5490 -1.9267
  483SOL     OW 1447   0.937   2.248   2.184 -0.5679  0.8472 -0.7340
  483SOL    HW1 1448   0.930   2.345   2.170 -1.1223 -3.6543  1.2652
  483SOL    HW2 1449   0.906   2.191   2.106  2.8156 -1.6458 -0.2209
  484SOL     OW 1450   1.036   0.671   1.435 -0.0637 -0.0407  0.3062
  484SOL    HW1 1451   1.072   0.605   1.503  0.1323  0.5572 -2.3124
  484SOL    HW2 1452   1.122   0.696   1.387 -0.1517 -1.1014  3.3542
  485SOL     OW 1453   1.719   0.588   2.709  0.1013 -0.2733 -0.4203
  485SOL    HW1 1454   1.790   0.650   2.747 -1.3214  0.7379  1.6069
  485SOL    HW2 1455   1.733   0.587   2.610  3.1551 -0.7012  3.7301
  486SOL     OW 1456   2.358   2.675   1.158  0.4467  0.2772 -0.6096
  486SOL    HW1 1457   2.279   2.630   1.110  0.9625 -0.4303 -2.4296
  486SOL    HW2 1458   2.402   2.736   1.094 -0.7752  0.0070  3.5165
  487SOL     OW 1459   0.685   2.260   1.277  0.2451  0.4476 -0.1490
  487SOL    HW1 1460   0.753   2.333   1.281  1.6897 -2.2516 -1.0984
  487SOL    HW2 1461   0.627   2.269   1.359  1.3519 -0.6441 -1.7642
  488SOL     OW 1462   2.374   1.908   0.121  0.4662 -0.5390  0.6029
  488SOL    HW1 1463   2.382   1.834   0.189 -0.5848  0.4661  0.0935
  488SOL    HW2 1464   2.459   1.951   0.089 -2.3882  4.0071  4.1232
  489SOL     OW 1465   2.169   3.080   1.108  0.1829 -0.2001 -0.1184
  489SOL    HW1 1466   2.251   3.089   1.053 -0.5481 -0.6142  1.5472
  489SOL    HW2 1467   2.173   3.004   1.169 -0.0415 -0.9908  0.9859
  490SOL     OW 1468   1.001   1.458   0.337 -0.2270 -0.0399  0.2801
  490SOL    HW1 1469   0.962   1.517   0.410 -1.4697  0.5186 -0.5613
  490SOL    HW2 1470   1.046   1.514   0.268 -1.6451 -0.2037  2.4038
  491SOL     OW 1471   0.229   2.236   1.410  0.1536 -0.2556  0.7936
  491SOL    HW1 1472   0.129   2.206   1.410 -0.6126 -0.7408  1.7201
  491SOL    HW2 1473   0.262   2.256   1.501 -0.4026 -0.5593 -2.9299
  492SOL     OW 1474   0.887   1.627   1.715 -0.3065 -0.6110 -0.1070
  492SOL    HW1 1475   0.949   1.565   1.659 -2.2410 -2.8011 -3.4288
  492SOL    HW2 1476   0.914   1.725   1.706  0.0843  2.7137  0.1952
  493SOL     OW 1477   2.733   2.242   0.876 -0.4760 -0.3558  0.2090
  493SOL    HW1 1478   2.670   2.197   0.813  0.7830  1.8772 -0.4510
  493SOL    HW2 1479   2.723   2.215   0.975 -0.7527  1.7231  0.7355
  494SOL     OW 1480   2.528   2.113   0.710  0.0007  0.5379 -0.0956
  494SOL    HW1 1481   2.468   2.185   0.669 -0.1509  0.3215  1.6530
  494SOL    HW2 1482   2.573   2.058   0.636 -2.2138 -1.6586 -0.5734
  495SOL     OW 1483   2.799   2.967   0.003 -0.4022  0.2673  0.1591
  495SOL    HW1 1484   2.788   2.899   3.042  2.1568 -0.8089 -0.2687
  495SOL    HW2 1485   2.718   2.962   0.066  1.2193 -0.3645 -0.6337
  496SOL     OW 1486   2.456   2.844   0.950  0.2884  0.2755 -0.2107
  496SOL    HW1 1487   2.390   2.918   0.927  0.8310 -0.4934  0.0066
  496SOL    HW2 1488   2.538   2.876   1.000 -0.9210 -0.8009  0.2150
  497SOL     OW 1489   2.417   1.146   2.740  0.2392  0.1567  0.7351
  497SOL    HW1 1490   2.457   1.182   2.653  0.5313  2.0361  2.1147
  497SOL    HW2 1491   2.416   1.215   2.814 -0.4625 -3.9445 -1.2080
  498SOL     OW 1492   2.925   1.975   1.049  0.0104 -0.1513  0.6726
  498SOL    HW1 1493   2.952   1.934   1.138 -0.1754 -2.2822  0.0787
  498SOL    HW2 1494   2.823   1.974   1.031 -0.1209  0.4995  0.3334
  499SOL     OW 1495   0.841   2.315   2.604  0.0006  0.0852 -0.6393
  499SOL    HW1 1496   0.859   2.216   2.590 -0.2719 -2.0206 -0.8607
  499SOL    HW2 1497   0.902   2.351   2.677  1.8766 -1.1126 -0.3398
  500SOL     OW 1498   1.799   0.867   0.131  0.1936  0.0525 -0.0376
  500SOL    HW1 1499   1.820   0.963   0.104 -0.2641  1.0787  1.4528
  500SOL    HW2 1500   1.738   0.859   0.216  0.0612 -2.3357  0.4796
  501SOL     OW 1501   1.728   0.148   1.727 -0.3205  0.5469  0.0821
  501SOL    HW1 1502   1.675   0.233   1.756 -0.7358 -0.5236  0.2785
  501SOL    HW2 1503   1.692   0.064   1.775  2.1166  0.3211 -1.9503
  502SOL     OW 1504   2.385   0.580   1.725 -0.1655  0.6471 -0.2060
  502SOL    HW1 1505   2.397   0.675   1.756  0.1903 -1.9662 -1.6659
  502SOL    HW2 1506   2.361   0.576   1.625  2.3188 -0.6692  0.0829
  503SOL     OW 1507   2.342   1.509   2.121 -0.3221  0.0437  0.0241
  503SOL    HW1 1508   2.248   1.552   2.105 -1.1947 -0.8110 -0.4031
  503SOL    HW2 1509   2.384   1.467   2.039  2.6798 -0.2829 -0.6920
  504SOL     OW 1510   1.390   1.168   1.822 -0.3764  0.1501 -0.2709
  504SOL    HW1 1511   1.474   1.211   1.787  1.1899  1.4674 -4.0471
  504SOL    HW2 1512   1.368   1.086   1.772  0.1112  1.0964  2.1809
  505SOL     OW 1513   0.507   0.621   1.671 -0.2111 -0.2192 -0.4801
  505SOL    HW1 1514   0.428   0.616   1.603  0.1025 -0.9007 -1.4721
  505SOL    HW2 1515   0.502   0.692   1.741 -0.4879 -2.7125 -2.8523
  506SOL     OW 1516   0.464   0.503   2.984  0.4236  0.0570  0.8297
  506SOL    HW1 1517   0.395   0.573   3.010 -0.0330 -1.8776 -0.5320
  506SOL    HW2 1518   0.469   0.497   2.882 -0.9424 -0.9729 -2.2681
  507SOL     OW 1519   0.770   0.041   0.118 -0.2133  0.0594  0.7389
  507SOL    HW1 1520   0.725   0.060   0.026  0.3507 -2.0541 -0.4432
  507SOL    HW2 1521   0.772   0.128   0.172 -2.6541  0.8653  1.8249
  508SOL     OW 1522   0.954   0.628   1.860 -0.8449 -0.8083  0.1154
  508SOL    HW1 1523   0.853   0.615   1.864  0.6976  0.3281 -1.5318
  508SOL    HW2 1524   0.985   0.691   1.934  1.9409  1.6808  1.9760
  509SOL     OW 1525   1.452   2.282   1.027 -0.8992  0.5197  0.3335
  509SOL    HW1 1526   1.452   2.292   1.127 -0.8279 -1.0228 -1.6542
  509SOL    HW2 1527   1.517   2.346   0.979  0.4302  2.5864 -0.3109
  510SOL     OW 1528   2.903   1.325   1.501 -0.3542  0.2662 -0.2717
  510SOL    HW1 1529   2.873   1.420   1.532 -0.1174  0.0716 -2.0779
  510SOL    HW2 1530   2.824   1.265   1.513  2.8345  1.1900  3.8287
  511SOL     OW 1531   1.275   1.904   1.310  0.7332 -0.0261 -0.4564
  511SOL    HW1 1532   1.318   1.977   1.367  1.5962  1.9290  0.4806
  511SOL    HW2 1533   1.293   1.917   1.211 -2.6319 -0.2420 -1.0910
  512SOL     OW 1534   2.984   1.560   0.594  0.0187 -0.0476  0.2348
  512SOL    HW1 1535   2.914   1.493   0.628 -1.7073 -1.3472 -1.6978
  512SOL    HW2 1536   2.935   1.646   0.564 -0.2280 -1.4228  1.7678
  513SOL     OW 1537   3.007   1.696   2.844 -0.0351  0.2560  0.1968
  513SOL    HW1 1538   3.086   1.726   2.787 -0.6215 -1.9104  1.4206
  513SOL    HW2 1539   3.020   1.732   2.938  1.8528  0.6011 -0.5834
  514SOL     OW 1540   2.265   2.246   2.585  0.2157 -0.1540 -0.5814
  514SOL    HW1 1541   2.212   2.187   2.648  0.4633  0.2984  1.2862
  514SOL    HW2 1542   2.212   2.322   2.546  1.7586 -2.1341 -0.0162
  515SOL     OW 1543   2.338   0.858   0.644  0.0356 -0.2842 -0.1551
  515SOL    HW1 1544   2.325   0.777   0.700 -1.5234 -0.4971 -0.6897
  515SOL    HW2 1545   2.431   0.847   0.600 -1.4713 -1.0128  0.3093
  516SOL     OW 1546   2.562   2.275   0.102  0.5849  0.1525 -0.5201
  516SOL    HW1 1547   2.501   2.346   0.144  0.5482  0.0255  1.2407
  516SOL    HW2 1548   2.582   2.300   0.006  1.4976 -1.1325  0.0463
  517SOL     OW 1549   0.535   1.491   2.833  0.2674 -0.4540  0.1890
  517SOL    HW1 1550   0.544   1.534   2.740 -1.5248 -2.2815  0.9312
  517SOL    HW2 1551   0.483   1.551   2.895 -2.0665  0.4000 -2.5491
  518SOL     OW 1552   2.949   0.152   2.401  0.0741  0.4281  0.0161
  518SOL    HW1 1553   2.882   0.223   2.424  1.0984 -0.4959 -1.1445
  518SOL    HW2 1554   2.918   0.058   2.416  0.4405  1.1231  1.9395
  519SOL     OW 1555   1.807   1.161   2.937 -0.3266  0.0759  0.3197
  519SOL    HW1 1556   1.771   1.067   2.929  0.5685  0.1274 -3.6242
  519SOL    HW2 1557   1.730   1.224   2.957  2.6783  0.8504 -0.8601
  520SOL     OW 1558   2.862   3.009   2.422  0.3551  0.5004  0.1462
  520SOL    HW1 1559   2.759   3.005   2.417 -0.0817  0.7835 -3.3158
  520SOL    HW2 1560   2.901   3.003   2.517  0.3047 -1.0050  1.1021
  521SOL     OW 1561   0.575   1.712   2.362 -0.1971 -1.0239 -0.8994
  521SOL    HW1 1562   0.658   1.703   2.298  2.0771  1.0199 -2.3820
  521SOL    HW2 1563   0.575   1.801   2.409  1.7640 -1.5304 -1.2618
  522SOL     OW 1564   1.136   2.909   1.995 -0.0291  0.4684 -0.6035
  522SOL    HW1 1565   1.082   2.860   2.069 -1.4212 -1.1371  0.1609
  522SOL    HW2 1566   1.198   2.847   1.949 -2.5055  2.3852  1.6004
  523SOL     OW 1567   2.285   2.226   1.062  0.4128  0.6721  0.0129
  523SOL    HW1 1568   2.320   2.138   1.040 -3.8731 -2.2374  1.1718
  523SOL    HW2 1569   2.327   2.269   1.143  0.0385  0.0489 -2.2797
  524SOL     OW 1570   1.115   2.015   0.675  0.0809 -0.0496  0.3590
  524SOL    HW1 1571   1.202   2.062   0.650  0.5092  4.5103 -0.8158
  524SOL    HW2 1572   1.038   2.069   0.703  0.2913 -1.5815 -1.1628
  525SOL     OW 1573   2.700   0.594   0.669  0.1403  0.5957  0.0219
  525SOL    HW1 1574   2.721   0.488   0.664 -0.1313 -2.9378 -0.3222
  525SOL    HW2 1575   2.681   0.614   0.767 -2.8712 -0.1810 -1.7385
  526SOL     OW 1576   1.687   2.901   0.804 -0.2460  0.1895 -0.8008
  526SOL    HW1 1577   1.636   2.875   0.721  0.9854 -0.9478  2.0515
  526SOL    HW2 1578   1.638   2.968   0.860  1.1662  2.0128  2.2509
  527SOL     OW 1579   1.924   1.706   0.821 -0.5997  0.2129 -0.3739
  527SOL    HW1 1580   1.828   1.747   0.818  0.2045  0.5072 -1.0381
  527SOL    HW2 1581   1.983   1.784   0.851 -1.4598  1.8260 -2.6830
  528SOL     OW 1582   2.979   2.887   2.673  0.0710 -0.4442  0.0961
  528SOL    HW1 1583   2.980   2.818   2.596  2.1090 -1.3525  1.7359
  528SOL    HW2 1584   3.073   2.903   2.711  1.6482 -1.4980 -0.6956
  529SOL     OW 1585   1.161   1.361   2.655 -0.4619  0.1897 -0.1697
  529SOL    HW1 1586   1.206   1.361   2.746 -0.8663 -0.2120 -1.5177
  529SOL    HW2 1587   1.060   1.365   2.661  0.6327  0.0265 -1.6673
  530SOL     OW 1588   2.115   1.194   2.215  0.7826  0.1297 -0.4213
  530SOL    HW1 1589   2.111   1.242   2.302 -0.2166 -0.7218 -3.6598
  530SOL    HW2 1590   2.031   1.147   2.201  1.3363 -0.0250 -2.3009
  531SOL     OW 1591   0.279   0.966   3.111 -0.2017 -0.1247 -0.5285
  531SOL    HW1 1592   0.282   1.039   3.040  0.3236 -0.8859  1.2604
  531SOL    HW2 1593   0.225   0.995   0.082 -1.2899  0.3718  2.1571
  532SOL     OW 1594   1.613   1.335   0.470 -0.0408  0.6196  0.1015
  532SOL    HW1 1595   1.686   1.327   0.547 -0.4464  0.2451 -0.3169
  532SOL    HW2 1596   1.552   1.417   0.479 -0.4677  0.8926 -0.6431
  533SOL     OW 1597   0.179   0.505   2.367  0.4610 -0.1081  0.2002
  533SOL    HW1 1598   0.209   0.527   2.460 -0.5028 -3.1241  0.2186
  533SOL    HW2 1599   0.261   0.524   2.304  0.2092  1.7108  1.3373
  534SOL     OW 1600   1.289   0.598   2.519 -0.3186  0.5262 -0.3118
  534SOL    HW1 1601   1.191   0.584   2.535 -0.1192 -1.4129  0.7695
  534SOL    HW2 1602   1.309   0.685   2.470 -0.4524 -0.3427 -1.1505
  535SOL     OW 1603   0.681   0.486   0.057 -0.0129 -0.1584  0.8532
  535SOL    HW1 1604   0.695   0.574   0.105  2.4035 -1.5041  1.8510
  535SOL    HW2 1605   0.590   0.489   0.009 -2.9840 -1.3077  0.8210
  536SOL     OW 1606   0.745   0.678   2.963  0.2836 -0.3749 -0.5327
  536SOL    HW1 1607   0.845   0.671   2.963 -0.6607  1.0489 -0.3267
  536SOL    HW2 1608   0.702   0.613   3.032 -2.1004 -2.8590  0.6524
  537SOL     OW 1609   1.428   0.041   1.477  0.0511  0.2433  0.2172
  537SOL    HW1 1610   1.364   0.095   1.422  0.4245 -0.2630  1.0401
  537SOL    HW2 1611   1.522   0.075   1.462 -4.7003  0.5404 -3.9894
  538SOL     OW 1612   0.403   2.718   3.047 -0.2179  0.1582  0.1879
  538SOL    HW1 1613   0.484   2.737   2.991 -2.4941  0.3688 -2.4807
  538SOL    HW2 1614   0.392   2.617   3.063 -3.5170 -1.3791 -1.1483
  539SOL     OW 1615   2.976   1.267   1.776  0.2006  0.9451 -0.4007
  539SOL    HW1 1616   2.946   1.263   1.676 -1.7422  0.3429  1.2665
  539SOL    HW2 1617   2.970   1.361   1.811  0.3984 -1.7277  1.3990
  540SOL     OW 1618   1.824   1.751   1.572 -0.4144  0.6788 -0.2188
  540SOL    HW1 1619   1.850   1.684   1.646  1.9395 -0.3583  0.4793
  540SOL    HW2 1620   1.723   1.746   1.561  2.5331  1.8528  0.5446
  541SOL     OW 1621   0.584   2.124   1.678 -0.3483  0.1203 -0.3173
  541SOL    HW1 1622   0.484   2.134   1.669  1.7185  0.7265  3.2431
  541SOL    HW2 1623   0.614   2.038   1.631 -1.0266 -0.3164 -0.4889
  542SOL     OW 1624   2.208   0.952   1.946  0.0014 -0.2419  0.3199
  542SOL    HW1 1625   2.109   0.982   1.946 -2.6791  2.7862  0.5348
  542SOL    HW2 1626   2.225   0.886   2.026 -0.0904 -3.3804 -0.6435
  543SOL     OW 1627   1.046   0.662   0.611 -0.1458  0.6857 -0.3069
  543SOL    HW1 1628   0.999   0.751   0.590  0.8953 -1.8638  0.2014
  543SOL    HW2 1629   1.011   0.634   0.702  0.0993  0.6051 -2.3052
  544SOL     OW 1630   1.984   1.943   1.696  1.2471 -0.0861 -0.0108
  544SOL    HW1 1631   1.915   2.003   1.741  1.0369  2.8632 -1.0459
  544SOL    HW2 1632   1.933   1.889   1.631  0.8683  3.0871  0.3312
  545SOL     OW 1633   1.553   1.671   1.263  0.4356  0.9061  0.5636
  545SOL    HW1 1634   1.581   1.583   1.225 -2.6747 -0.1925  1.2735
  545SOL    HW2 1635   1.571   1.742   1.191  1.2614 -1.4555  1.2888
  546SOL     OW 1636   0.255   0.192   2.796  0.0655  0.3056  0.2893
  546SOL    HW1 1637   0.241   0.281   2.749  1.5794 -3.4850 -0.9875
  546SOL    HW2 1638   0.308   0.207   2.882  0.8027  2.5166  3.6518
  547SOL     OW 1639   2.376   0.597   3.066 -0.8022  0.1159 -0.1680
  547SOL    HW1 1640   2.284   0.635   3.050 -1.9606  0.0025  0.9361
  547SOL    HW2 1641   2.383   0.497   3.095  2.5845 -3.3119 -1.2393
  548SOL     OW 1642   2.294   2.272   2.240 -0.4444 -0.2191 -0.2055
  548SOL    HW1 1643   2.284   2.332   2.325 -1.7791  2.4062  3.3503
  548SOL    HW2 1644   2.375   2.209   2.260  2.3922  0.0407 -0.3538
  549SOL     OW 1645   2.194   3.040   0.769 -0.1769 -0.0755  0.7491
  549SOL    HW1 1646   2.265   3.026   0.695  0.9101 -1.0881 -1.8603
  549SOL    HW2 1647   2.106   2.997   0.740 -1.6561  0.6527  1.5661
  550SOL     OW 1648   2.202   1.345   0.026  0.8482 -0.2005 -0.6073
  550SOL    HW1 1649   2.132   1.277   3.112  1.6320  3.1810 -1.9967
  550SOL    HW2 1650   2.187   1.369   0.123  0.8368 -1.8110  0.1650
  551SOL     OW 1651   1.437   0.082   1.727  0.9078 -0.5935 -0.0301
  551SOL    HW1 1652   1.422   3.109   1.784 -0.2752  0.3727  2.4555
  551SOL    HW2 1653   1.450   0.067   1.626 -0.3278  1.9938  0.8547
  552SOL     OW 1654   2.799   2.498   2.914 -0.1429  0.5943 -0.4729
  552SOL    HW1 1655   2.891   2.477   2.871 -1.1292  0.6747 -1.3321
  552SOL    HW2 1656   2.772   2.597   2.896 -1.5517  0.1765 -0.2859
  553SOL     OW 1657   0.548   0.131   0.435 -0.3281  0.5108 -0.0080
  553SOL    HW1 1658   0.481   0.165   0.503 -0.5518 -1.2159 -0.4654
  553SOL    HW2 1659   0.582   0.203   0.372 -0.7735  3.0646  0.2173
  554SOL     OW 1660   1.990   2.280   1.583 -0.0343  0.0897 -0.0559
  554SOL    HW1 1661   1.910   2.233   1.627 -0.9652  0.0235  2.4593
  554SOL    HW2 1662   2.050   2.212   1.534  2.8467 -1.0357  2.1359
  555SOL     OW 1663   1.377   2.212   1.667  0.2848  0.3693  0.4219
  555SOL    HW1 1664   1.400   2.130   1.726  0.0109 -0.3172  1.4096
  555SOL    HW2 1665   1.359   2.188   1.570  1.3067 -0.6287  0.1749
  556SOL     OW 1666   1.933   1.550   0.482 -0.1896  0.3957  0.2891
  556SOL    HW1 1667   1.949   1.479   0.546 -1.7095  1.8389 -4.8599
  556SOL    HW2 1668   1.837   1.564   0.456 -1.9191  0.1011 -1.7567
  557SOL     OW 1669   1.354   2.238   1.976 -0.0496  0.5999  0.6719
  557SOL    HW1 1670   1.268   2.290   1.956  1.2134  0.6718  2.3714
  557SOL    HW2 1671   1.351   2.179   2.057  0.7582  1.9106 -1.4741
  558SOL     OW 1672   0.133   0.307   2.159 -0.5625  0.1486  0.2945
  558SOL    HW1 1673   0.211   0.260   2.108  0.2241  2.6621 -2.3824
  558SOL    HW2 1674   0.148   0.318   2.258 -0.5349 -0.7340  0.2026
  559SOL     OW 1675   2.401   2.789   1.922 -0.3276 -0.2126 -0.2932
  559SOL    HW1 1676   2.448   2.847   1.851  0.8177  0.6370 -1.4873
  559SOL    HW2 1677   2.466   2.769   2.001  2.5519  2.6266 -1.3193
  560SOL     OW 1678   0.631   0.074   2.997 -0.4966 -0.4120 -0.2366
  560SOL    HW1 1679   0.627   3.108   2.933  1.8137 -1.8451 -1.3682
  560SOL    HW2 1680   0.545   0.131   2.988  0.5225  1.7343  2.0318
  561SOL     OW 1681   1.384   0.962   0.427 -0.5545  0.5293 -0.2033
  561SOL    HW1 1682   1.418   0.865   0.435 -2.0439 -0.8210  3.5810
  561SOL    HW2 1683   1.287   0.966   0.449  1.3157  0.8746 -0.0551
  562SOL     OW 1684   1.012   1.097   2.324  0.2949 -0.2414 -0.4293
  562SOL    HW1 1685   0.920   1.128   2.356  2.1561  2.0609  0.9670
  562SOL    HW2 1686   0.998   1.001   2.292 -1.8811 -0.6637  1.7345
  563SOL     OW 1687   1.624   2.247   2.738  0.0029 -0.4095 -0.3843
  563SOL    HW1 1688   1.539   2.211   2.692 -2.9156 -3.0144 -1.4805
  563SOL    HW2 1689   1.618   2.345   2.762 -0.2419  3.0885  0.2180
  564SOL     OW 1690   2.868   1.792   0.464 -0.3019  0.1239  0.2282
  564SOL    HW1 1691   2.939   1.863   0.463 -1.9477  1.1215 -0.9452
  564SOL    HW2 1692   2.831   1.776   0.371  0.5444 -5.0306  0.7585
  565SOL     OW 1693   1.342   2.960   2.524  0.1912  0.0922 -0.8121
  565SOL    HW1 1694   1.425   3.008   2.496 -2.7465  2.1669 -0.6728
  565SOL    HW2 1695   1.348   2.861   2.534  1.0148 -0.6982 -1.0210
  566SOL     OW 1696   1.910   2.920   2.540  0.2154  0.0402  0.5661
  566SOL    HW1 1697   1.935   2.821   2.551 -1.1960 -1.8869 -3.5444
  566SOL    HW2 1698   1.816   2.942   2.573 -2.4324  1.4647 -1.2779
  567SOL     OW 1699   2.340   1.182   0.955 -0.2297  0.2138  0.1375
  567SOL    HW1 1700   2.358   1.170   1.053 -0.9730  0.0293 -0.5265
  567SOL    HW2 1701   2.279   1.263   0.938  0.9300  1.0623 -0.8295
  568SOL     OW 1702   2.107   1.402   2.851  0.1731  0.0732  0.0208
  568SOL    HW1 1703   2.086   1.302   2.840 -0.9548  0.7776  0.4588
  568SOL    HW2 1704   2.176   1.411   2.923  0.4614 -1.8428 -0.6543
  569SOL     OW 1705   2.351   1.810   2.385  0.0508  0.0673 -0.5617
  569SOL    HW1 1706   2.391   1.897   2.424 -1.8367  0.1785 -3.2690
  569SOL    HW2 1707   2.259   1.828   2.332 -1.9473  0.5473 -2.0846
  570SOL     OW 1708   3.090   2.509   1.925 -0.2935  0.1993 -0.1124
  570SOL    HW1 1709   0.049   2.538   1.991 -0.8422  0.0881 -2.3399
  570SOL    HW2 1710   3.052   2.414   1.945 -1.5925 -0.6800 -0.5779
  571SOL     OW 1711   0.670   0.031   2.274 -0.3780  0.1603 -0.1596
  571SOL    HW1 1712   0.774   0.025   2.287 -3.6880  1.2151 -1.3853
  571SOL    HW2 1713   0.647   0.017   2.175 -1.0020 -0.1639  0.5507
  572SOL     OW 1714   0.862   1.629   1.021  0.0231  0.1602  0.1824
  572SOL    HW1 1715   0.790   1.558   1.017  1.2160  2.2944  1.9298
  572SOL    HW2 1716   0.860   1.686   0.935  1.5868  1.9105  2.1336
  573SOL     OW 1717   1.236   0.317   0.100 -0.2960  0.0264 -0.2167
  573SOL    HW1 1718   1.136   0.301   0.077  3.1240 -1.3760 -0.4046
  573SOL    HW2 1719   1.295   0.306   0.018  1.5097  1.2031  1.1773
  574SOL     OW 1720   0.533   3.067   0.259  0.0924  0.2677  0.2235
  574SOL    HW1 1721   0.629   3.065   0.220  1.4547 -1.1554 -2.1809
  574SOL    HW2 1722   0.535   0.021   0.336  1.7305  1.4794 -3.7502
  575SOL     OW 1723   0.206   1.385   1.551  0.1054 -0.0869  0.3764
  575SOL    HW1 1724   0.202   1.461   1.623 -0.1392 -1.5817  0.7516
  575SOL    HW2 1725   0.197   1.426   1.457  1.1527 -0.2735  1.0298
  576SOL     OW 1726   2.417   0.296   1.805 -0.0646 -0.4462 -0.3343
  576SOL    HW1 1727   2.415   0.396   1.788 -0.9727 -0.8966  1.3270
  576SOL    HW2 1728   2.379   0.274   1.899  1.1751 -0.4644  0.3996
  577SOL     OW 1729   3.038   1.558   1.738  0.5797  0.4351 -0.2904
  577SOL    HW1 1730   3.022   1.628   1.811  2.2762  3.5849 -0.5182
  577SOL    HW2 1731   0.011   1.584   1.692  0.8283  2.1103 -0.6591
  578SOL     OW 1732   1.339   3.042   2.111  1.0971  0.1164 -0.0443
  578SOL    HW1 1733   1.246   2.992   2.094 -1.4391 -0.9568  1.1654
  578SOL    HW2 1734   1.351   3.082   2.201 -0.2105 -2.7879 -0.5233
  579SOL     OW 1735   2.119   2.089   2.120 -0.2770 -0.2165 -0.3546
  579SOL    HW1 1736   2.153   2.044   2.036 -0.4279 -1.6347  2.4106
  579SOL    HW2 1737   2.182   2.160   2.157 -0.4156  3.2027 -0.1641
  580SOL     OW 1738   1.805   1.349   2.058  0.6163  0.1117 -0.1369
  580SOL    HW1 1739   1.846   1.387   1.978 -1.6186  0.4172  0.7149
  580SOL    HW2 1740   1.798   1.422   2.124 -0.6479  0.0306  1.5996
  581SOL     OW 1741   1.564   1.265   2.416  0.0029 -0.3560 -0.5643
  581SOL    HW1 1742   1.578   1.225   2.324 -3.1536 -0.1099  1.0749
  581SOL    HW2 1743   1.658   1.263   2.453 -0.6554  1.0917 -0.7667
  582SOL     OW 1744   3.032   2.246   1.915 -0.1343  0.5294  0.5165
  582SOL    HW1 1745   3.045   2.160   1.861  1.0214 -0.4790 -1.2094
  582SOL    HW2 1746   2.936   2.245   1.956  0.2072 -1.8428 -2.3090
  583SOL     OW 1747   1.684   0.852   0.641 -0.4751 -0.1654 -0.0830
  583SOL    HW1 1748   1.785   0.843   0.645 -0.3376 -0.9780 -0.9182
  583SOL    HW2 1749   1.656   0.933   0.694 -0.3215 -1.0361  0.4696
  584SOL     OW 1750   1.015   2.510   0.278 -0.1174  0.1773 -0.3904
  584SOL    HW1 1751   0.936   2.549   0.339 -3.2514  0.8582  2.0978
  584SOL    HW2 1752   1.074   2.580   0.241 -0.3547 -0.0338  0.3001
  585SOL     OW 1753   0.073   2.709   3.087  0.7468  0.4493  0.8393
  585SOL    HW1 1754   0.117   2.771   0.042  1.7934  1.9078  2.1583
  585SOL    HW2 1755   0.114   2.615   3.094 -0.5190 -3.1018 -0.6350
  586SOL     OW 1756   2.207   1.070   0.756  0.4406 -0.4340 -0.2405
  586SOL    HW1 1757   2.247   0.989   0.707  1.8912 -3.9436 -0.9633
  586SOL    HW2 1758   2.267   1.104   0.830  0.5075  1.3465 -1.0593
  587SOL     OW 1759   0.614   1.334   0.115 -0.1936  0.4304  0.2159
  587SOL    HW1 1760   0.577   1.242   0.091  1.2774 -0.7907 -1.7665
  587SOL    HW2 1761   0.715   1.336   0.126 -0.3604  0.6657 -1.4032
  588SOL     OW 1762   0.326   0.253   0.571 -0.3049 -0.3901  0.0812
  588SOL    HW1 1763   0.300   0.293   0.481  1.0979  2.3956  0.1260
  588SOL    HW2 1764   0.304   0.306   0.657 -1.3026  2.8365  2.7992
  589SOL     OW 1765   1.201   3.075   0.792  0.3634  0.4141 -0.7275
  589SOL    HW1 1766   1.106   3.071   0.831 -0.5382 -0.6368  1.6226
  589SOL    HW2 1767   1.222   0.047   0.740 -2.3550  2.0080 -3.8113
  590SOL     OW 1768   2.566   2.427   0.416 -0.0269 -0.8622  0.1434
  590SOL    HW1 1769   2.643   2.464   0.475  0.1017 -2.2166  1.4293
  590SOL    HW2 1770   2.513   2.503   0.372 -0.1496  2.2108 -0.0335
  591SOL     OW 1771   0.322   2.344   2.178 -0.1121 -0.4142  0.1310
  591SOL    HW1 1772   0.270   2.336   2.264 -1.6282 -0.1969 -0.9003
  591SOL    HW2 1773   0.422   2.328   2.190 -1.4861 -0.9670  1.4075
  592SOL     OW 1774   0.188   1.831   2.272  0.0879 -0.4227  0.0426
  592SOL    HW1 1775   0.114   1.841   2.203  1.2809  0.5119 -0.2408
  592SOL    HW2 1776   0.157   1.781   2.355 -0.1125 -0.6617  1.8652
  593SOL     OW 1777   1.570   1.711   1.525 -0.5523 -0.2286 -0.5230
  593SOL    HW1 1778   1.560   1.704   1.424  1.0470  1.8656  0.8558
  593SOL    HW2 1779   1.509   1.647   1.575  1.0782 -0.3632 -3.3619
  594SOL     OW 1780   0.450   1.234   2.764 -0.5216 -0.1814 -0.5783
  594SOL    HW1 1781   0.437   1.184   2.852 -0.1670  2.3346  1.3877
  594SOL    HW2 1782   0.525   1.304   2.777  0.9818  1.5975 -1.8337
  595SOL     OW 1783   1.481   0.721   0.888  0.0336  0.2128 -0.3050
  595SOL    HW1 1784   1.561   0.775   0.872 -2.5843 -1.3094  1.6900
  595SOL    HW2 1785   1.403   0.784   0.857 -1.2736  1.6460 -0.0677
  596SOL     OW 1786   0.416   1.088   1.014 -0.0146 -0.3307  0.1200
  596SOL    HW1 1787   0.501   1.126   1.055 -0.9711  1.1437 -1.7831
  596SOL    HW2 1788   0.399   1.152   0.940 -1.4268  0.2794  0.2759
  597SOL     OW 1789   0.599   2.338   2.211  0.3077  0.3740  0.0360
  597SOL    HW1 1790   0.633   2.391   2.290 -0.5468 -0.2078  0.8190
  597SOL    HW2 1791   0.638   2.366   2.118 -0.4111  1.0074 -2.7089
  598SOL     OW 1792   2.136   2.432   2.449 -0.5591 -0.3172 -0.4201
  598SOL    HW1 1793   2.037   2.409   2.448  5.9142  0.9840  0.9156
  598SOL    HW2 1794   2.146   2.524   2.407 -2.1614  1.8713  4.5911
  599SOL     OW 1795   1.177   1.256   0.438 -0.0827 -0.6024  0.3209
  599SOL    HW1 1796   1.096   1.316   0.428 -1.7984  2.5486 -2.2568
  599SOL    HW2 1797   1.193   1.199   0.350 -1.2587 -4.5734 -2.5593
  600SOL     OW 1798   1.577   0.309   0.423 -0.1894 -0.0250  0.7082
  600SOL    HW1 1799   1.499   0.274   0.369  1.0093  1.2165 -0.4898
  600SOL    HW2 1800   1.652   0.243   0.410  1.5914  5.1036 -2.6150
  601SOL     OW 1801   0.607   0.388   1.623  0.2650 -0.3638  0.0042
  601SOL    HW1 1802   0.522   0.349   1.661 -0.0968 -0.2230  2.1482
  601SOL    HW2 1803   0.617   0.487   1.641  0.7539 -1.1250 -1.3688
  602SOL     OW 1804   0.381   2.214   0.719  0.1217 -0.0925 -0.5006
  602SOL    HW1 1805   0.436   2.158   0.784 -1.7508 -2.0487 -1.4250
  602SOL    HW2 1806   0.436   2.291   0.680  0.6310  1.0065 -2.2617
  603SOL     OW 1807   0.985   2.685   2.657 -0.0942  0.7012  0.6659
  603SOL    HW1 1808   0.979   2.596   2.698 -1.0455  3.0579 -0.3139
  603SOL    HW2 1809   0.906   2.689   2.596  5.0817  0.0601 -0.5120
  604SOL     OW 1810   0.716   2.277   0.323  0.2032  0.5835 -0.4823
  604SOL    HW1 1811   0.811   2.234   0.317  0.1162 -1.8665  0.2873
  604SOL    HW2 1812   0.704   2.337   0.240  0.7893  0.9571 -2.7630
  605SOL     OW 1813   1.626   1.258   1.700  0.1115  0.0138  0.0789
  605SOL    HW1 1814   1.676   1.177   1.738 -0.0250  0.1548  0.1633
  605SOL    HW2 1815   1.662   1.286   1.608 -1.3578  1.7449  0.2888
  606SOL     OW 1816   0.865   1.067   2.857  0.1599  0.3645 -0.0372
  606SOL    HW1 1817   0.823   1.017   2.937 -1.7715  1.2721  1.7616
  606SOL    HW2 1818   0.834   1.164   2.864 -1.6566 -0.8706 -0.4366
  607SOL     OW 1819   0.845   0.834   1.074  0.0851  0.3765 -0.1282
  607SOL    HW1 1820   0.804   0.892   1.155 -2.0940  3.1197  2.8555
  607SOL    HW2 1821   0.845   0.734   1.101  1.2027 -0.7982 -0.1337
  608SOL     OW 1822   2.762   2.219   1.967 -0.1319 -0.0934  0.2068
  608SOL    HW1 1823   2.721   2.157   1.896  0.4934 -0.0844  0.0430
  608SOL    HW2 1824   2.687   2.281   1.994  2.4179  1.3476  0.3205
  609SOL     OW 1825   2.280   0.099   0.098 -0.0901 -0.0648  0.2796
  609SOL    HW1 1826   2.253   0.063   0.187 -0.5544 -0.5948 -0.8898
  609SOL    HW2 1827   2.332   0.028   0.048  0.8302 -0.0659  3.2955
  610SOL     OW 1828   0.304   2.487   1.639 -0.3048 -0.4965 -0.2404
  610SOL    HW1 1829   0.337   2.568   1.693  0.3461  0.9259  0.7050
  610SOL    HW2 1830   0.313   2.505   1.540  1.0431  0.3460 -0.8910
  611SOL     OW 1831   1.318   1.582   0.740 -0.0760 -0.1042 -0.2137
  611SOL    HW1 1832   1.264   1.595   0.822  1.8512 -0.2017 -3.4905
  611SOL    HW2 1833   1.411   1.542   0.763  0.4926 -1.1699  0.0263
  612SOL     OW 1834   0.431   0.542   2.234 -0.5040  0.2793 -0.6231
  612SOL    HW1 1835   0.414   0.603   2.159  0.4398 -1.1628  1.8310
  612SOL    HW2 1836   0.452   0.449   2.194 -0.2425 -1.3487  1.4237
  613SOL     OW 1837   2.685   1.111   0.386  0.5497  0.1277 -0.0790
  613SOL    HW1 1838   2.613   1.128   0.459 -0.1548  0.5182  4.0955
  613SOL    HW2 1839   2.781   1.106   0.423 -0.4657 -3.8175  0.9226
  614SOL     OW 1840   1.949   0.313   1.704  0.0331  0.2499  0.1588
  614SOL    HW1 1841   2.018   0.238   1.679  1.4823 -2.2206 -2.6546
  614SOL    HW2 1842   1.859   0.261   1.707 -3.2920  0.0909 -1.0093
  615SOL     OW 1843   0.840   1.393   1.472 -0.6007 -0.2077  0.2470
  615SOL    HW1 1844   0.906   1.466   1.442 -0.3443 -0.5156  0.1131
  615SOL    HW2 1845   0.757   1.398   1.415  0.0818  1.5937  2.3094
  616SOL     OW 1846   1.441   1.843   0.096 -0.3330 -0.2270  0.1178
  616SOL    HW1 1847   1.454   1.919   0.165  2.3563  0.7041  2.2709
  616SOL    HW2 1848   1.452   1.761   0.161 -0.6249 -2.1449  0.4621
  617SOL     OW 1849   2.330   2.907   0.198 -0.1220  0.5815  0.0026
  617SOL    HW1 1850   2.234   2.946   0.214 -0.2779 -1.9448 -0.7645
  617SOL    HW2 1851   2.357   2.851   0.276 -0.1258 -2.7297 -0.9926
  618SOL     OW 1852   0.723   0.801   2.366 -0.1401 -0.2615  0.2885
  618SOL    HW1 1853   0.746   0.862   2.445  0.1024  3.4431 -0.5003
  618SOL    HW2 1854   0.709   0.856   2.279  0.7269  1.6566 -1.2010
  619SOL     OW 1855   2.649   1.428   0.899  0.0530  0.2089 -0.0868
  619SOL    HW1 1856   2.635   1.327   0.884 -0.0607 -3.8010  0.1693
  619SOL    HW2 1857   2.598   1.479   0.828 -1.9518  0.0670 -0.3170
  620SOL     OW 1858   2.341   3.050   2.994  0.1596  0.6858  0.2129
  620SOL    HW1 1859   2.350   2.946   2.981  0.2488 -2.6459 -0.7768
  620SOL    HW2 1860   2.252   3.083   2.954 -0.1792  0.1906 -1.8757
  621SOL     OW 1861   2.430   1.345   2.968 -0.4019  0.8367 -0.0375
  621SOL    HW1 1862   2.363   1.365   3.040  0.7640  1.5573  1.2297
  621SOL    HW2 1863   2.513   1.307   3.006  2.0506 -0.7194 -2.0280
  622SOL     OW 1864   1.445   2.557   2.137  0.1161  0.1415 -0.0578
  622SOL    HW1 1865   1.522   2.624   2.129  0.7261  2.5667  0.3800
  622SOL    HW2 1866   1.468   2.471   2.085 -2.3056 -1.5404 -1.6862
  623SOL     OW 1867   0.934   1.654   0.517 -0.2596 -0.0650  0.2243
  623SOL    HW1 1868   1.015   1.716   0.523  1.3302  1.4795  1.1929
  623SOL    HW2 1869   0.858   1.694   0.457  0.8928  0.0573  0.3023
  624SOL     OW 1870   0.378   0.209   3.024 -0.7764  0.2358  1.0789
  624SOL    HW1 1871   0.354   0.151   3.107  0.2687 -1.0131  1.4246
  624SOL    HW2 1872   0.362   0.308   3.042 -0.1046 -0.2328 -0.1939
  625SOL     OW 1873   0.615   1.642   0.721 -0.6493 -0.7352 -0.4676
  625SOL    HW1 1874   0.606   1.738   0.687  1.4598 -0.8187  2.1447
  625SOL    HW2 1875   0.593   1.578   0.647  0.4152 -2.2851 -1.5787
  626SOL     OW 1876   0.139   2.870   2.824  0.2923 -0.0981 -0.2236
  626SOL    HW1 1877   0.124   2.832   2.917 -0.8026 -1.9368  2.4581
  626SOL    HW2 1878   0.147   2.971   2.824  0.0565 -3.1828  0.7633
  627SOL     OW 1879   1.233   1.639   2.747 -0.0271 -0.2138 -0.8542
  627SOL    HW1 1880   1.252   1.579   2.668 -0.8096 -1.2114 -1.4544
  627SOL    HW2 1881   1.307   1.628   2.815 -0.0105  1.1446  1.1846
  628SOL     OW 1882   0.274   0.440   2.629 -0.0641  0.1499 -0.4524
  628SOL    HW1 1883   0.370   0.454   2.665  0.8536  1.9080  0.3625
  628SOL    HW2 1884   0.279   0.363   2.563 -3.1787 -0.8723 -2.1640
  629SOL     OW 1885   0.420   2.742   2.124  0.4795 -0.3850  0.2900
  629SOL    HW1 1886   0.455   2.778   2.032  1.2143 -0.9517 -4.2222
  629SOL    HW2 1887   0.484   2.766   2.198  0.8333 -3.5142  2.3345
  630SOL     OW 1888   1.755   1.020   1.735 -0.0868 -0.1136  0.5757
  630SOL    HW1 1889   1.773   1.018   1.634  2.3989  0.9090  1.0231
  630SOL    HW2 1890   1.725   0.929   1.769 -2.4972 -2.3202  0.2771
  631SOL     OW 1891   2.144   0.870   0.442 -0.0112 -0.6356  0.8768
  631SOL    HW1 1892   2.138   0.961   0.388 -1.0787  0.5556 -2.5663
  631SOL    HW2 1893   2.231   0.859   0.494 -1.7342 -0.3984  0.7665
  632SOL     OW 1894   2.360   0.453   2.138  0.4920  0.2896  0.0510
  632SOL    HW1 1895   2.393   0.478   2.232 -1.1551  1.6898 -0.4428
  632SOL    HW2 1896   2.267   0.409   2.154 -0.9690  0.0697  2.0446
  633SOL     OW 1897   0.659   2.618   0.264 -0.2370  0.1372 -0.4328
  633SOL    HW1 1898   0.732   2.655   0.206 -1.0598  2.8943  0.3311
  633SOL    HW2 1899   0.589   2.695   0.277 -0.6209  0.4780 -0.3804
  634SOL     OW 1900   1.556   2.633   2.605  0.3035 -0.0682 -0.0576
  634SOL    HW1 1901   1.466   2.649   2.558  0.5265 -0.5013 -0.4878
  634SOL    HW2 1902   1.609   2.721   2.616  2.0968  2.3027 -0.4463
  635SOL     OW 1903   2.442   0.304   3.072 -0.4824 -0.1231  1.2114
  635SOL    HW1 1904   2.533   0.305   0.000 -1.4517 -0.1941  0.3482
  635SOL    HW2 1905   2.383   0.238   0.013  1.2456  0.4010  0.8676
  636SOL     OW 1906   0.603   1.077   0.677  0.1886  0.3570 -0.5700
  636SOL    HW1 1907   0.585   0.989   0.637  0.5831 -3.3139  2.7654
  636SOL    HW2 1908   0.656   1.068   0.770  0.3121  1.6702 -0.9375
  637SOL     OW 1909   0.060   1.849   0.722  0.0755  0.4059 -0.0813
  637SOL    HW1 1910   0.083   1.945   0.707 -0.5001 -1.2065  0.6435
  637SOL    HW2 1911   0.148   1.796   0.751  2.6553  0.6464  1.4741
  638SOL     OW 1912   0.902   3.026   2.882 -0.2501  0.4205 -0.1564
  638SOL    HW1 1913   0.801   3.016   2.883 -0.6071  0.2129  0.2094
  638SOL    HW2 1914   0.931   0.006   2.919 -2.8694 -2.8022 -2.1271
  639SOL     OW 1915   1.461   1.641   0.252  0.6846  0.2188  0.4975
  639SOL    HW1 1916   1.415   1.562   0.204 -0.7800 -1.1622 -2.5190
  639SOL    HW2 1917   1.432   1.647   0.349 -1.4581  1.1642  1.4734
  640SOL     OW 1918   1.830   2.730   0.946 -0.1898  0.4850 -0.1239
  640SOL    HW1 1919   1.812   2.644   0.895 -0.1677 -1.6993 -1.2087
  640SOL    HW2 1920   1.783   2.811   0.897 -0.6590  0.2477 -1.8402
  641SOL     OW 1921   3.110   2.954   0.541 -0.3604  0.4501 -0.2750
  641SOL    HW1 1922   0.027   2.902   0.461 -2.2786 -1.3266  0.5935
  641SOL    HW2 1923   0.082   2.972   0.598 -2.0747  2.3664  1.9641
  642SOL     OW 1924   0.859   0.328   1.748  1.0741 -0.2494 -0.3367
  642SOL    HW1 1925   0.760   0.336   1.729 -0.4350 -0.6652 -3.3894
  642SOL    HW2 1926   0.916   0.351   1.664  0.2734 -0.4625  1.0739
  643SOL     OW 1927   0.548   2.056   2.217 -0.3589 -0.0662  0.8691
  643SOL    HW1 1928   0.573   2.152   2.231  0.5720 -4.4499 -1.4514
  643SOL    HW2 1929   0.541   2.030   2.117 -1.6271  1.1240  1.7598
  644SOL     OW 1930   0.923   2.931   0.413 -0.0427 -0.0771  0.5051
  644SOL    HW1 1931   0.872   3.014   0.443 -0.4454  0.8616  2.6995
  644SOL    HW2 1932   0.903   2.854   0.473  1.4809  3.2933 -1.5359
  645SOL     OW 1933   1.186   1.779   0.032  0.3686  0.7930  0.2868
  645SOL    HW1 1934   1.096   1.821   0.066  0.5743  1.0611 -0.6759
  645SOL    HW2 1935   1.276   1.817   0.072 -1.7676  0.4909  1.2520
  646SOL     OW 1936   0.401   1.475   0.012  0.0147  0.4863 -0.3954
  646SOL    HW1 1937   0.494   1.445   0.037 -1.2646 -0.4791  2.1220
  646SOL    HW2 1938   0.367   1.557   0.069  0.0418  0.0393 -0.3118
  647SOL     OW 1939   0.997   0.136   1.046  0.5488 -0.1361  0.2903
  647SOL    HW1 1940   1.034   0.234   1.046  2.3890  2.2651 -1.3579
  647SOL    HW2 1941   1.035   0.084   1.124 -2.5451  1.2933 -1.6587
  648SOL     OW 1942   2.715   0.089   1.542 -0.2348  0.2257  0.2490
  648SOL    HW1 1943   2.613   0.087   1.555 -3.0947  1.0275 -0.6145
  648SOL    HW2 1944   2.754   0.176   1.584 -0.5861  0.6273  0.9025
  649SOL     OW 1945   0.740   2.082   2.873 -0.0946  0.0265 -0.2494
  649SOL    HW1 1946   0.781   2.109   2.783  0.4657 -0.3071  0.3378
  649SOL    HW2 1947   0.639   2.105   2.866  0.8271  1.4218  1.3463
  650SOL     OW 1948   0.139   1.933   1.622  0.1088  0.2020 -0.4403
  650SOL    HW1 1949   0.147   1.878   1.538 -4.7391  3.1631 -1.8413
  650SOL    HW2 1950   0.212   1.913   1.690  1.3363 -1.5847 -0.1432
  651SOL     OW 1951   1.026   0.140   2.973 -0.3021 -0.5500 -0.5391
  651SOL    HW1 1952   1.119   0.111   3.006  3.4877 -0.3699  3.1735
  651SOL    HW2 1953   0.993   0.225   3.023 -0.4717  0.7050  2.2589
  652SOL     OW 1954   2.637   2.185   0.342 -0.2124 -0.3574 -0.4962
  652SOL    HW1 1955   2.609   2.192   0.241 -0.6556 -0.6308 -2.0045
  652SOL    HW2 1956   2.626   2.277   0.392  0.9295  1.5411  3.3373
  653SOL     OW 1957   3.101   0.231   0.982  0.0865 -0.6929  0.4778
  653SOL    HW1 1958   0.030   0.153   0.929 -2.4813 -0.6779 -1.5075
  653SOL    HW2 1959   3.078   0.311   0.920 -0.4812  0.1630 -1.7964
  654SOL     OW 1960   1.861   0.212   2.598 -0.2652  0.3903 -0.6258
  654SOL    HW1 1961   1.766   0.234   2.610  0.3121 -1.0706 -1.5868
  654SOL    HW2 1962   1.869   0.146   2.519  0.3014 -0.7265  1.0895
  655SOL     OW 1963   0.455   2.540   0.913  0.2694  0.3606  0.0741
  655SOL    HW1 1964   0.386   2.584   0.855  2.1948 -2.2952  0.7010
  655SOL    HW2 1965   0.441   2.439   0.924 -1.1677 -1.7344  1.2942
  656SOL     OW 1966   0.075   0.343   1.718 -0.0631  0.1998  0.0268
  656SOL    HW1 1967   3.091   0.330   1.738  1.5727 -0.7322 -0.3675
  656SOL    HW2 1968   0.081   0.381   1.629 -1.4405  0.7975  4.6598
  657SOL     OW 1969   2.221   0.752   2.160  0.2275 -0.2994 -0.2488
  657SOL    HW1 1970   2.290   0.679   2.171 -0.5205 -0.9163  0.0451
  657SOL    HW2 1971   2.125   0.722   2.191 -0.7501 -0.0272 -1.4290
  658SOL     OW 1972   2.270   1.642   1.019  0.7129 -0.3107  0.3693
  658SOL    HW1 1973   2.312   1.702   1.093 -1.3329  0.8129  2.8284
  658SOL    HW2 1974   2.291   1.685   0.927  1.6627 -0.0312  0.0433
  659SOL     OW 1975   2.578   0.039   2.888 -0.4032  0.1623 -0.2581
  659SOL    HW1 1976   2.493   3.103   2.922  1.0864  0.3146 -1.8908
  659SOL    HW2 1977   2.592   0.127   2.941 -0.6486  0.2170  0.8077
  660SOL     OW 1978   1.296   1.378   2.900  0.1234  0.6363 -0.4186
  660SOL    HW1 1979   1.342   1.452   2.942  1.7107 -2.3009  1.9642
  660SOL    HW2 1980   1.338   1.285   2.923  0.8564 -2.3475 -0.6035
  661SOL     OW 1981   2.740   2.516   0.822 -0.3359  0.0831 -0.2521
  661SOL    HW1 1982   2.719   2.422   0.857  0.5224 -0.5570  0.1196
  661SOL    HW2 1983   2.751   2.581   0.897 -0.1523 -1.6914  2.2411
  662SOL     OW 1984   0.742   0.719   0.159 -0.1502  0.6883  0.4464
  662SOL    HW1 1985   0.843   0.732   0.159 -0.2774  1.5706  1.3267
  662SOL    HW2 1986   0.698   0.787   0.218  2.0932 -1.9070 -1.9211
  663SOL     OW 1987   1.555   2.139   0.217 -0.1742 -0.0537 -0.1597
  663SOL    HW1 1988   1.530   2.232   0.258  0.0630  4.0611  1.0110
  663SOL    HW2 1989   1.621   2.091   0.274 -0.0684  1.6677  0.8204
  664SOL     OW 1990   0.749   2.329   1.720  0.2639 -0.6304 -0.2328
  664SOL    HW1 1991   0.730   2.416   1.681  1.3894 -2.4957  1.3495
  664SOL    HW2 1992   0.695   2.249   1.694  2.3993  1.3298  3.6132
  665SOL     OW 1993   2.185   1.993   1.878  0.1213 -0.4262  0.3127
  665SOL    HW1 1994   2.182   2.100   1.853 -0.8134  3.3364  0.5706
  665SOL    HW2 1995   2.114   1.947   1.815 -2.4126 -2.9345 -1.1206
  666SOL     OW 1996   0.459   2.795   0.278 -0.6234  0.0475  0.8387
  666SOL    HW1 1997   0.493   2.894   0.290 -0.7751  0.9833  1.0267
  666SOL    HW2 1998   0.390   2.796   0.202  0.9848  0.8869 -1.4161
  667SOL     OW 1999   1.879   1.587   1.820  0.1746  0.3930 -0.0062
  667SOL    HW1 2000   1.968   1.546   1.799 -2.4417  0.0153  1.3437
  667SOL    HW2 2001   1.896   1.680   1.861  0.3711 -1.7414  2.7042
  668SOL     OW 2002   0.396   0.835   2.409  0.5187  0.0690  0.2634
  668SOL    HW1 2003   0.430   0.768   2.336 -0.9694 -0.7703 -0.5097
  668SOL    HW2 2004   0.304   0.859   2.372 -0.0514 -4.0680 -0.9782
  669SOL     OW 2005   1.842   2.178   2.619  0.0232 -0.0446  0.5449
  669SOL    HW1 2006   1.755   2.203   2.672  1.9291  1.9142  5.4012
  669SOL    HW2 2007   1.834   2.089   2.572 -2.0867  0.5885 -1.2477
  670SOL     OW 2008   2.314   2.313   3.023  0.1202 -0.3982 -0.1587
  670SOL    HW1 2009   2.317   2.228   2.970  2.3250  0.0956  1.8939
  670SOL    HW2 2010   2.245   2.378   2.986  0.6095 -1.0274 -1.2774
  671SOL     OW 2011   0.644   1.170   1.117  0.0815 -0.3766  0.2951
  671SOL    HW1 2012   0.629   1.259   1.168  0.4998 -1.8833 -0.3661
  671SOL    HW2 2013   0.679   1.099   1.182 -1.1340 -0.8729 -0.9150
  672SOL     OW 2014   2.723   0.956   2.296 -0.0456  0.0463 -0.0080
  672SOL    HW1 2015   2.811   0.955   2.239 -0.7922 -1.0543  0.3790
  672SOL    HW2 2016   2.740   1.014   2.381 -0.3866  2.4457  3.0492
  673SOL     OW 2017   2.570   2.213   2.279  0.3121  0.6205 -0.0841
  673SOL    HW1 2018   2.567   2.118   2.249 -0.1401 -0.9978  0.2726
  673SOL    HW2 2019   2.645   2.233   2.339 -0.5863  2.6506 -1.5123
  674SOL     OW 2020   1.040   2.793   2.241  0.2941  0.4910 -0.1429
  674SOL    HW1 2021   1.056   2.863   2.314 -1.3447  3.0735 -0.9422
  674SOL    HW2 2022   1.122   2.740   2.233  0.0501 -0.1044 -3.5269
  675SOL     OW 2023   0.737   1.041   1.577  0.0624 -0.5250 -0.0998
  675SOL    HW1 2024   0.759   0.953   1.621 -1.8637 -0.8884 -2.1705
  675SOL    HW2 2025   0.774   1.117   1.632  0.8304 -0.9868 -1.4851
  676SOL     OW 2026   1.943   0.968   0.636  0.1337  0.4021 -1.1771
  676SOL    HW1 2027   1.959   1.000   0.733  0.4455 -3.0020  2.8976
  676SOL    HW2 2028   2.032   0.929   0.599  0.5377 -1.5374 -2.0746
  677SOL     OW 2029   2.735   1.616   2.877 -0.2585 -0.9704  0.4302
  677SOL    HW1 2030   2.736   1.516   2.865  0.9759  1.3773  2.2707
  677SOL    HW2 2031   2.812   1.654   2.823  0.5549  0.5325  2.0689
  678SOL     OW 2032   3.016   2.397   1.271 -0.6084 -0.2189 -0.5906
  678SOL    HW1 2033   3.109   2.432   1.242  0.2334  1.5638  0.7502
  678SOL    HW2 2034   2.975   2.472   1.328  0.7316  0.2479 -2.2450
  679SOL     OW 2035   1.800   2.526   0.756  0.6808  0.2990 -0.1656
  679SOL    HW1 2036   1.885   2.561   0.707 -3.2416 -1.8504  3.7521
  679SOL    HW2 2037   1.783   2.423   0.745 -2.2178 -2.4173 -1.3676
  680SOL     OW 2038   0.440   2.430   2.495  0.4442 -0.9712  0.0365
  680SOL    HW1 2039   0.415   2.532   2.499  2.6211  0.9261  0.5605
  680SOL    HW2 2040   0.539   2.422   2.477 -1.4436  0.7609  1.7028
  681SOL     OW 2041   0.024   1.201   1.511  0.0796 -0.2619  0.3181
  681SOL    HW1 2042   0.094   1.266   1.548 -0.0774  0.3596  0.1279
  681SOL    HW2 2043   3.047   1.254   1.487 -3.2850  3.0384 -1.9559
  682SOL     OW 2044   0.348   1.996   1.301  0.0041  0.5757  0.3604
  682SOL    HW1 2045   0.325   2.075   1.359  1.0911  1.5512  0.2196
  682SOL    HW2 2046   0.446   1.995   1.282 -0.5091  2.9662 -0.3833
  683SOL     OW 2047   2.552   1.328   1.390  0.4268 -0.1485 -0.0180
  683SOL    HW1 2048   2.582   1.382   1.311 -2.3638 -0.6443  3.8667
  683SOL    HW2 2049   2.511   1.395   1.453 -1.1728 -0.1802  2.0236
  684SOL     OW 2050   2.808   1.593   0.048  0.0478 -0.5623 -0.0784
  684SOL    HW1 2051   2.852   1.501   0.040 -2.2568 -3.0083  1.4939
  684SOL    HW2 2052   2.782   1.627   3.067  0.0064 -0.9761 -0.6321
  685SOL     OW 2053   1.230   1.102   0.220 -0.8647  0.0844 -0.0050
  685SOL    HW1 2054   1.172   1.065   0.149  0.6218 -0.5634  0.6537
  685SOL    HW2 2055   1.277   1.026   0.266 -3.5810  1.0503  0.2470
  686SOL     OW 2056   0.190   0.318   1.148  0.8679 -0.6795 -0.1506
  686SOL    HW1 2057   0.255   0.240   1.147 -2.2095 -1.4988 -0.1189
  686SOL    HW2 2058   0.101   0.303   1.089 -1.6579  0.4240 -1.0105
  687SOL     OW 2059   1.103   1.375   2.346 -0.2589 -0.3457  0.3788
  687SOL    HW1 2060   1.090   1.277   2.320  0.4152  0.3060 -1.7307
  687SOL    HW2 2061   1.132   1.384   2.446  0.4605 -3.4107  2.4466
  688SOL     OW 2062   0.602   1.882   1.286  0.5088  0.3080 -0.1875
  688SOL    HW1 2063   0.691   1.923   1.265  0.5899 -0.3602  0.2827
  688SOL    HW2 2064   0.597   1.856   1.383  1.7356  3.1441 -3.9774
  689SOL     OW 2065   1.435   0.920   1.257 -0.0385 -0.6557  0.7877
  689SOL    HW1 2066   1.487   0.989   1.316  0.9461 -0.7457  2.7402
  689SOL    HW2 2067   1.387   0.844   1.310 -3.8315 -0.0836  0.2686
  690SOL     OW 2068   2.573   0.933   1.079 -0.3655  0.1683 -0.1791
  690SOL    HW1 2069   2.544   0.873   1.003  1.3125 -0.5577  3.6293
  690SOL    HW2 2070   2.642   0.887   1.138  0.0493  2.6524 -0.0274
  691SOL     OW 2071   0.213   2.185   1.955  0.3876  0.1340  0.1342
  691SOL    HW1 2072   0.255   2.252   2.023 -0.6855  2.0708  0.2675
  691SOL    HW2 2073   0.115   2.209   1.943 -0.9205 -0.2937 -4.0964
  692SOL     OW 2074   1.592   0.008   1.002  0.2235  0.1315 -0.0479
  692SOL    HW1 2075   1.688   0.013   1.029 -2.7676 -1.3399 -1.3823
  692SOL    HW2 2076   1.541   3.107   1.089  1.0433 -2.4626 -1.0156
  693SOL     OW 2077   0.085   1.673   2.475  0.4865  0.2329  0.4125
  693SOL    HW1 2078   0.080   1.725   2.562 -0.8026  2.5411  1.0027
  693SOL    HW2 2079   3.105   1.639   2.455  3.8382  1.6767 -2.5890
  694SOL     OW 2080   2.174   0.808   1.082 -0.1872 -0.1079  0.4711
  694SOL    HW1 2081   2.194   0.805   1.180  1.4575  0.6265  2.1428
  694SOL    HW2 2082   2.074   0.820   1.060 -1.8064  1.0868  0.7088
  695SOL     OW 2083   1.037   1.230   1.554  0.0004  0.4743  0.3899
  695SOL    HW1 2084   0.953   1.282   1.512 -3.7643  1.8098  0.7143
  695SOL    HW2 2085   1.114   1.223   1.484  0.2562  1.3754  1.3434
  696SOL     OW 2086   1.580   3.061   0.563 -0.0584 -0.2892 -0.0995
  696SOL    HW1 2087   1.582   0.022   0.638  1.2748  1.0180  1.4276
  696SOL    HW2 2088   1.610   3.099   0.476  1.9506 -0.6064  1.0626
  697SOL     OW 2089   0.728   0.158   1.019 -0.5276  0.1297  0.6229
  697SOL    HW1 2090   0.703   0.236   0.956 -0.0787 -2.0312 -2.5528
  697SOL    HW2 2091   0.831   0.149   1.024  1.7395 -0.1369  3.0019
  698SOL     OW 2092   1.595   1.389   2.782 -0.0276 -0.0674 -0.0392
  698SOL    HW1 2093   1.535   1.421   2.708 -2.3498 -1.1453  1.5037
  698SOL    HW2 2094   1.672   1.343   2.730  1.1809  1.9113  1.2400
  699SOL     OW 2095   1.177   0.980   1.167  0.8004 -0.2895  0.5201
  699SOL    HW1 2096   1.113   0.902   1.144 -2.4725  1.4614  0.9265
  699SOL    HW2 2097   1.279   0.956   1.170  0.4762 -0.6565 -0.6604
  700SOL     OW 2098   1.207   3.105   0.385  0.1285 -1.0728  0.5249
  700SOL    HW1 2099   1.172   3.052   0.305 -0.1102  0.7103 -0.0930
  700SOL    HW2 2100   1.245   3.041   0.458  0.1587 -4.9029  3.7029
  701SOL     OW 2101   2.554   2.818   2.763 -0.1052  0.6071 -0.0566
  701SOL    HW1 2102   2.475   2.787   2.822  1.8236 -1.1000  2.8115
  701SOL    HW2 2103   2.551   2.920   2.760  0.7855 -1.7270 -2.9641
  702SOL     OW 2104   1.047   0.168   0.526  0.2201 -0.4990  0.0647
  702SOL    HW1 2105   1.107   0.093   0.495 -0.6150 -1.4942 -0.3362
  702SOL    HW2 2106   1.087   0.215   0.607 -1.6463  0.2696  0.4033
  703SOL     OW 2107   2.585   0.316   2.193 -0.1175  0.0626  0.3737
  703SOL    HW1 2108   2.513   0.365   2.137  1.2374 -1.4591  0.4581
  703SOL    HW2 2109   2.677   0.359   2.175  0.1181 -0.9690 -0.2337
  704SOL     OW 2110   2.907   1.840   0.722  0.2042  0.1497 -0.2465
  704SOL    HW1 2111   2.880   1.821   0.627  2.9970 -2.1583  2.8458
  704SOL    HW2 2112   3.012   1.832   0.732  1.4754  1.8910  2.0810
  705SOL     OW 2113   3.020   2.930   2.208 -0.7184 -0.2258 -0.0217
  705SOL    HW1 2114   3.037   2.997   2.131 -0.1930 -1.5212  0.1922
  705SOL    HW2 2115   2.967   2.977   2.277  0.5211 -2.4451 -1.9516
  706SOL     OW 2116   2.413   2.463   0.786  0.0253  0.0179 -0.5785
  706SOL    HW1 2117   2.505   2.467   0.832 -0.4639  0.3711 -0.0552
  706SOL    HW2 2118   2.411   2.392   0.709 -2.1279 -0.8025 -1.3397
  707SOL     OW 2119   1.029   2.301   1.709  0.3305  0.0275  0.6991
  707SOL    HW1 2120   0.929   2.283   1.704 -1.6401  1.1876 -0.5629
  707SOL    HW2 2121   1.049   2.368   1.639  0.0810 -0.7429 -0.1699
  708SOL     OW 2122   0.218   2.570   2.082  0.0446  0.2342  0.2987
  708SOL    HW1 2123   0.289   2.639   2.092  1.3783 -0.9973 -1.2113
  708SOL    HW2 2124   0.263   2.483   2.097 -1.2335  2.7083 -1.8372
  709SOL     OW 2125   2.146   2.778   2.015  0.2961 -0.7434 -0.1111
  709SOL    HW1 2126   2.243   2.768   1.981 -0.6762 -0.4409  0.5310
  709SOL    HW2 2127   2.102   2.855   1.962 -2.9394  0.2440 -1.2273
  710SOL     OW 2128   1.962   0.724   2.686 -0.5973 -0.3593  0.5080
  710SOL    HW1 2129   2.031   0.650   2.690  0.8025  1.6568  1.1922
  710SOL    HW2 2130   1.986   0.791   2.612 -0.3538  1.7171 -2.3679
  711SOL     OW 2131   0.928   1.904   0.049 -0.0928  0.0101  0.2334
  711SOL    HW1 2132   0.878   1.992   0.037  2.2930 -0.8316 -1.2978
  711SOL    HW2 2133   0.884   1.828   0.001  2.9668  0.6438  0.7455
  712SOL     OW 2134   0.586   2.455   2.758  0.3394  0.4727  0.6497
  712SOL    HW1 2135   0.666   2.393   2.740 -1.0199 -2.3235  0.7214
  712SOL    HW2 2136   0.534   2.453   2.671  3.4095  1.0813 -1.9337
  713SOL     OW 2137   1.624   1.321   3.053  0.4956 -0.2481 -0.6116
  713SOL    HW1 2138   1.572   1.349   2.969 -2.6161  0.5116  1.6619
  713SOL    HW2 2139   1.577   1.360   0.023 -0.7693  0.5280  1.2210
  714SOL     OW 2140   1.016   1.597   1.437  0.4672 -0.4794 -0.3238
  714SOL    HW1 2141   0.961   1.678   1.408 -1.0391  0.9638  0.1286
  714SOL    HW2 2142   1.110   1.603   1.396 -2.9687 -1.2758 -1.4406
  715SOL     OW 2143   1.758   0.358   2.849 -0.4517 -0.0409  0.0230
  715SOL    HW1 2144   1.726   0.439   2.793 -0.9282  0.0674 -0.7015
  715SOL    HW2 2145   1.850   0.383   2.874 -3.6027 -0.1184  1.2003
  716SOL     OW 2146   3.029   2.705   2.444 -0.3074  0.1043 -0.0827
  716SOL    HW1 2147   3.104   2.674   2.508 -0.3394 -1.5368  0.0761
  716SOL    HW2 2148   3.055   2.780   2.380 -0.2967  0.2491 -0.2121
  717SOL     OW 2149   2.916   0.521   1.090 -0.1841  0.0052 -0.4754
  717SOL    HW1 2150   2.903   0.618   1.109  0.5313 -0.7980  0.1453
  717SOL    HW2 2151   2.854   0.462   1.143  3.6545  1.2766 -0.5087
  718SOL     OW 2152   0.896   1.408   2.670 -0.4544  0.5271  0.6135
  718SOL    HW1 2153   0.823   1.420   2.737  0.8901  1.0038  0.0111
  718SOL    HW2 2154   0.876   1.458   2.582 -0.0845  1.9099  1.1209
  719SOL     OW 2155   2.146   1.104   2.954 -0.2120 -0.6816  0.0788
  719SOL    HW1 2156   2.072   1.045   2.921 -1.3447  2.2718  0.2901
  719SOL    HW2 2157   2.240   1.054   2.955  1.5805 -3.5786  2.6821
  720SOL     OW 2158   0.934   0.553   0.849 -0.3906  0.6726 -0.1568
  720SOL    HW1 2159   0.994   0.488   0.899  0.1421  1.2481  0.2154
  720SOL    HW2 2160   0.866   0.503   0.795  1.6693  0.7096  0.0311
  721SOL     OW 2161   2.592   0.108   0.765  0.2865  0.3291  0.5440
  721SOL    HW1 2162   2.624   0.203   0.795  0.0045  2.2800  1.8901
  721SOL    HW2 2163   2.590   0.101   0.663  0.4973  2.6299  2.9200
  722SOL     OW 2164   2.205   0.572   2.669 -0.2303  0.4015 -0.2371
  722SOL    HW1 2165   2.160   0.509   2.607  2.1176 -1.1111  1.4700
  722SOL    HW2 2166   2.251   0.644   2.616 -1.1261 -1.5013  1.0686
  723SOL     OW 2167   2.374   0.262   0.488 -0.0243  0.1847 -0.3638
  723SOL    HW1 2168   2.330   0.183   0.441  0.1291 -1.0341 -0.7007
  723SOL    HW2 2169   2.354   0.345   0.434 -0.1081 -0.0789  1.9836
  724SOL     OW 2170   0.934   1.548   1.982  0.2378  0.7321  0.0751
  724SOL    HW1 2171   0.878   1.464   1.984  1.2560  0.2387  0.5921
  724SOL    HW2 2172   0.930   1.581   1.885 -0.1544 -0.1101 -1.9481
  725SOL     OW 2173   1.546   0.400   1.086 -0.2451 -0.1337  0.2427
  725SOL    HW1 2174   1.612   0.388   1.161  0.7844 -3.3774 -0.8438
  725SOL    HW2 2175   1.589   0.431   0.998 -0.4688  0.5668 -1.9104
  726SOL     OW 2176   1.869   2.786   0.288 -0.4082  0.0167 -0.0587
  726SOL    HW1 2177   1.769   2.799   0.299 -0.2623  0.2852 -0.7411
  726SOL    HW2 2178   1.885   2.682   0.287 -0.3063 -1.7151 -1.5994
  727SOL     OW 2179   1.632   1.489   1.811 -0.2408 -0.4833  0.1842
  727SOL    HW1 2180   1.719   1.534   1.824 -2.4691  2.5600 -0.6943
  727SOL    HW2 2181   1.638   1.394   1.771 -2.0833 -0.7759  0.8539
  728SOL     OW 2182   2.126   2.577   1.593  1.0596  0.3504  0.2039
  728SOL    HW1 2183   2.032   2.562   1.638 -0.4313 -0.6018 -1.5419
  728SOL    HW2 2184   2.195   2.588   1.667 -2.0884 -0.9768 -1.1279
  729SOL     OW 2185   2.322   1.770   0.793  0.1677 -0.1354 -0.0661
  729SOL    HW1 2186   2.300   1.813   0.703  1.4871 -1.0185  3.2312
  729SOL    HW2 2187   2.387   1.691   0.776  2.0055 -0.6928 -1.4015
  730SOL     OW 2188   0.776   0.971   2.599  0.2443  0.0311 -0.0032
  730SOL    HW1 2189   0.711   0.917   2.653  2.4476 -1.1441 -2.2242
  730SOL    HW2 2190   0.835   1.021   2.663  0.0401  0.6320  3.5176
  731SOL     OW 2191   0.339   0.024   0.712  0.3760  0.0746 -0.1290
  731SOL    HW1 2192   0.357   0.093   0.638 -1.4786 -0.1746  1.4631
  731SOL    HW2 2193   0.413   0.039   0.785  1.0704 -1.4380  2.7349
  732SOL     OW 2194   1.427   0.691   0.406 -0.3881  0.0771  0.7251
  732SOL    HW1 2195   1.383   0.653   0.323 -1.0182 -0.4404  1.2288
  732SOL    HW2 2196   1.372   0.669   0.492 -2.8981  2.1103  1.1373
  733SOL     OW 2197   0.535   2.305   1.049 -0.2281  0.5198  0.0376
  733SOL    HW1 2198   0.608   2.310   1.122  1.5259  2.1835  1.4467
  733SOL    HW2 2199   0.554   2.233   0.982  0.4140 -1.1481 -0.4934
  734SOL     OW 2200   0.373   2.572   0.413  0.3342 -0.4700 -0.6231
  734SOL    HW1 2201   0.410   2.654   0.364 -1.2179 -2.1141  0.7818
  734SOL    HW2 2202   0.273   2.593   0.422  0.5949  1.8135 -2.2891
  735SOL     OW 2203   1.252   0.185   1.316 -0.4084  0.5538 -0.1057
  735SOL    HW1 2204   1.173   0.125   1.310 -0.3415 -0.2642  1.5030
  735SOL    HW2 2205   1.295   0.198   1.226  1.1087  1.3980 -0.1912
  736SOL     OW 2206   2.079   2.459   2.958 -0.5047 -0.0985  0.7613
  736SOL    HW1 2207   2.050   2.508   3.038  0.2407 -2.1002 -2.1071
  736SOL    HW2 2208   2.006   2.394   2.938  2.4070  0.8930 -2.0312
  737SOL     OW 2209   0.073   0.882   0.784 -0.0225 -0.2421 -0.3885
  737SOL    HW1 2210   0.039   0.835   0.868 -1.7732  1.2374 -1.8809
  737SOL    HW2 2211   0.029   0.835   0.709  2.6126  2.6422  4.0730
  738SOL     OW 2212   2.566   2.737   2.119  0.0770  0.3184 -0.2035
  738SOL    HW1 2213   2.640   2.668   2.128 -1.4367 -0.6592  0.0702
  738SOL    HW2 2214   2.514   2.734   2.207  2.9414 -0.5109  0.5085
  739SOL     OW 2215   1.311   2.199   3.076 -0.0058 -0.4510 -0.7935
  739SOL    HW1 2216   1.371   2.128   3.032 -0.2152 -0.2190 -0.9237
  739SOL    HW2 2217   1.336   2.205   0.065 -3.3887 -2.0126  0.2071
  740SOL     OW 2218   1.355   0.215   1.002  0.1221  0.1342  0.2055
  740SOL    HW1 2219   1.406   0.287   1.053  0.7831  2.4774  1.2193
  740SOL    HW2 2220   1.416   0.136   0.986  0.0948 -0.1716 -0.6757
  741SOL     OW 2221   2.954   0.758   0.655  0.7066 -0.3977 -0.3142
  741SOL    HW1 2222   3.028   0.803   0.597 -4.2069 -1.4431  0.7398
  741SOL    HW2 2223   2.916   0.679   0.606  0.4800  2.0464  2.8236
  742SOL     OW 2224   0.764   1.331   2.898 -0.0183 -0.2890  0.3975
  742SOL    HW1 2225   0.856   1.348   2.941 -1.0910  0.7286  0.7480
  742SOL    HW2 2226   0.699   1.407   2.914 -1.5526  1.2388  1.1306
  743SOL     OW 2227   1.220   0.595   2.140  0.3662 -0.2847 -0.2295
  743SOL    HW1 2228   1.170   0.526   2.191  1.0276 -2.7301 -0.8863
  743SOL    HW2 2229   1.153   0.660   2.093 -0.6507  1.1137  0.1173
  744SOL     OW 2230   1.979   0.412   1.284 -0.5886  0.7121  0.3088
  744SOL    HW1 2231   2.028   0.469   1.211  0.2949  3.5134 -2.5805
  744SOL    HW2 2232   2.020   0.315   1.289  0.6243  1.3373  1.1313
  745SOL     OW 2233   1.686   1.308   1.432 -0.4128  0.2033 -0.0287
  745SOL    HW1 2234   1.652   1.376   1.368  1.0908  0.6600  0.1703
  745SOL    HW2 2235   1.786   1.311   1.415 -0.8046 -0.3670 -1.3637
  746SOL     OW 2236   2.184   1.401   0.959  0.3024  0.1543 -0.0071
  746SOL    HW1 2237   2.224   1.495   0.968  1.7760 -2.6104 -0.4499
  746SOL    HW2 2238   2.118   1.389   0.879 -0.7980 -0.8051  1.1188
  747SOL     OW 2239   2.703   1.438   1.172 -0.2750  0.3064 -0.0434
  747SOL    HW1 2240   2.698   1.423   1.072 -2.3080 -1.1824 -0.4701
  747SOL    HW2 2241   2.728   1.537   1.179 -0.0791  2.4063 -1.9345
  748SOL     OW 2242   0.868   1.939   0.954 -0.1630 -0.3879  0.5201
  748SOL    HW1 2243   0.863   2.029   0.911  0.4721 -0.0142 -0.5043
  748SOL    HW2 2244   0.878   1.864   0.881  1.4442  0.0368  0.5239
  749SOL     OW 2245   2.461   2.767   2.370  0.9400 -0.0530 -0.2376
  749SOL    HW1 2246   2.473   2.724   2.463 -1.9541  0.5703  0.5556
  749SOL    HW2 2247   2.490   2.867   2.376 -2.3269  1.1324 -1.2996
  750SOL     OW 2248   2.263   0.587   0.739 -0.1602  0.0625  0.2578
  750SOL    HW1 2249   2.295   0.491   0.726  1.3569  1.4964 -0.3217
  750SOL    HW2 2250   2.175   0.606   0.696  4.2894 -2.8651 -0.3324
  751SOL     OW 2251   2.384   2.745   0.424  0.0995 -0.4623 -0.4076
  751SOL    HW1 2252   2.422   2.745   0.517 -1.8709 -1.4681 -1.3628
  751SOL    HW2 2253   2.335   2.659   0.399  0.4552  0.0240 -0.0133
  752SOL     OW 2254   0.068   0.038   0.794 -0.3032 -0.2696  0.3132
  752SOL    HW1 2255   0.068   3.053   0.830  0.9779 -1.9260 -0.8246
  752SOL    HW2 2256   0.164   0.063   0.762  2.1924  0.8827  0.4577
  753SOL     OW 2257   1.872   1.012   2.215  0.2468  0.3296  0.2773
  753SOL    HW1 2258   1.790   1.073   2.230 -2.9793 -0.1163 -0.6358
  753SOL    HW2 2259   1.885   0.998   2.114 -0.3532 -0.8084 -2.2827
  754SOL     OW 2260   1.762   2.137   1.682 -0.1997 -0.3964  0.1071
  754SOL    HW1 2261   1.700   2.211   1.710 -0.1247  2.6670 -0.9872
  754SOL    HW2 2262   1.706   2.076   1.620 -1.0667 -0.8523 -0.3914
  755SOL     OW 2263   2.614   0.627   0.949  0.0764  0.0873  0.3182
  755SOL    HW1 2264   2.655   0.554   1.009 -0.3003  1.3741  1.4252
  755SOL    HW2 2265   2.513   0.613   0.942  3.3628  0.8827  0.2578
  756SOL     OW 2266   1.034   1.354   2.993 -0.1725  0.0732  0.1181
  756SOL    HW1 2267   1.111   1.338   2.930  0.5225 -2.9215  0.8806
  756SOL    HW2 2268   1.055   1.420   3.065  0.5550  0.9417 -2.1518
  757SOL     OW 2269   1.404   2.729   0.744  0.1185 -0.0045  0.0212
  757SOL    HW1 2270   1.393   2.789   0.829  0.2233  2.2104 -0.9133
  757SOL    HW2 2271   1.313   2.709   0.701 -0.2002  0.9476  3.0034
  758SOL     OW 2272   1.206   2.773   1.457  0.0480 -0.5282  0.0994
  758SOL    HW1 2273   1.297   2.801   1.491  0.3234 -0.0238  0.0877
  758SOL    HW2 2274   1.133   2.780   1.530  1.3841  0.7384 -0.8226
  759SOL     OW 2275   0.089   0.550   0.772  0.4393  0.4313 -0.1857
  759SOL    HW1 2276   3.108   0.525   0.799  0.7686  0.3508 -1.7713
  759SOL    HW2 2277   0.079   0.602   0.686  2.9890 -0.0328 -1.7657
  760SOL     OW 2278   2.448   1.150   1.213  0.0530  0.5135  0.5346
  760SOL    HW1 2279   2.510   1.069   1.196 -0.4774  0.7703  3.9413
  760SOL    HW2 2280   2.487   1.217   1.279  0.0222 -1.9133  0.4839
  761SOL     OW 2281   1.975   0.023   0.502 -0.1827 -0.3224 -0.4569
  761SOL    HW1 2282   1.968   3.047   0.543 -0.6272  1.0915  1.7041
  761SOL    HW2 2283   2.009   0.091   0.571  2.3656 -2.6560  0.1792
  762SOL     OW 2284   2.175   1.719   0.041  0.1458  0.1994 -0.0215
  762SOL    HW1 2285   2.218   1.680   0.122  0.1961  0.0017 -3.3124
  762SOL    HW2 2286   2.231   1.796   0.007  2.7961 -2.1056  0.2686
  763SOL     OW 2287   0.612   1.854   1.567  0.1386  0.2502  0.1344
  763SOL    HW1 2288   0.710   1.833   1.559 -0.2010  1.5297  2.0680
  763SOL    HW2 2289   0.564   1.775   1.610 -1.9096  1.7916 -3.0217
  764SOL     OW 2290   2.691   2.155   2.639  0.0452  0.3426 -0.4095
  764SOL    HW1 2291   2.665   2.187   2.734  1.1172  0.3385  0.3874
  764SOL    HW2 2292   2.722   2.239   2.585  1.1172  2.1608  0.7746
  765SOL     OW 2293   0.490   2.731   1.137 -0.0287  0.8319  0.1369
  765SOL    HW1 2294   0.586   2.733   1.146 -1.8149  0.7120 -0.3651
  765SOL    HW2 2295   0.466   2.669   1.061 -0.4491 -0.6635  1.1818
  766SOL     OW 2296   3.046   2.199   2.505 -0.5042  0.0169 -0.3921
  766SOL    HW1 2297   0.026   2.236   2.489 -1.4268  1.3947  2.5538
  766SOL    HW2 2298   3.003   2.158   2.422 -0.4948 -0.4168 -0.7176
  767SOL     OW 2299   2.301   0.792   2.572  0.0116 -0.4319 -0.4756
  767SOL    HW1 2300   2.303   0.842   2.487 -0.3809 -2.5243  1.2196
  767SOL    HW2 2301   2.394   0.784   2.618 -3.2007  1.8424  2.1023
  768SOL     OW 2302   1.592   0.204   2.626 -0.1252 -0.2093  0.1383
  768SOL    HW1 2303   1.529   0.275   2.586  0.6773 -0.0743 -0.2378
  768SOL    HW2 2304   1.590   0.217   2.727 -1.3649 -0.8534 -2.9043
  769SOL     OW 2305   3.009   2.636   0.995  0.5733 -0.2070  0.5261
  769SOL    HW1 2306   2.997   2.588   0.908  0.4553 -1.8984  1.7405
  769SOL    HW2 2307   3.097   2.597   1.039  1.9563 -0.2678 -1.5379
  770SOL     OW 2308   0.732   0.325   2.877  0.2447 -0.5322  0.3967
  770SOL    HW1 2309   0.736   0.349   2.979 -1.1059  1.5442  1.1927
  770SOL    HW2 2310   0.742   0.222   2.873 -0.2571 -2.3571  0.3610
  771SOL     OW 2311   1.450   1.677   2.355 -0.3427 -0.1115 -0.2791
  771SOL    HW1 2312   1.472   1.608   2.291  0.6887  2.2908  1.9690
  771SOL    HW2 2313   1.366   1.722   2.312 -0.4212  0.6355 -0.4492
  772SOL     OW 2314   1.794   2.831   2.282 -0.3744  0.2725  0.2838
  772SOL    HW1 2315   1.853   2.862   2.361 -1.6793  1.4851  1.6010
  772SOL    HW2 2316   1.799   2.891   2.201  0.0186 -0.6400  1.6027
  773SOL     OW 2317   1.644   0.690   1.359  0.3259  0.2585  0.0875
  773SOL    HW1 2318   1.564   0.720   1.307 -0.3483  0.3036 -2.1981
  773SOL    HW2 2319   1.611   0.639   1.445 -2.1523 -3.0185  2.2765
  774SOL     OW 2320   1.070   0.406   1.060 -0.2912  0.8692  0.3411
  774SOL    HW1 2321   1.158   0.453   1.074 -0.7434  0.2045 -0.0263
  774SOL    HW2 2322   0.990   0.452   1.097 -1.6801  0.5740 -0.7660
  775SOL     OW 2323   2.108   3.066   2.839 -0.0442  0.2444  0.1137
  775SOL    HW1 2324   2.008   3.050   2.852  1.3056  0.4738  0.9180
  775SOL    HW2 2325   2.145   3.007   2.761 -2.3417 -0.8200 -2.1818
  776SOL     OW 2326   2.082   0.922   1.607 -0.1642  0.1557 -0.1370
  776SOL    HW1 2327   1.992   0.902   1.564 -0.0268  1.8996  0.8507
  776SOL    HW2 2328   2.100   0.849   1.673  2.8533  0.5788 -0.0418
  777SOL     OW 2329   3.002   1.400   2.163  0.7890  0.1318 -0.0323
  777SOL    HW1 2330   2.993   1.461   2.250 -1.7203  1.3815  3.0043
  777SOL    HW2 2331   3.054   1.314   2.187  1.8149 -2.3624  3.5294
  778SOL     OW 2332   2.812   1.104   2.522 -0.8531  0.3093 -0.3010
  778SOL    HW1 2333   2.898   1.156   2.524  1.3903 -1.0946 -1.8049
  778SOL    HW2 2334   2.739   1.170   2.530  2.8984 -0.5386 -0.1592
  779SOL     OW 2335   0.001   0.861   3.077  0.1628  0.0696  0.1090
  779SOL    HW1 2336   0.071   0.864   0.034 -1.2722 -0.6475  0.3110
  779SOL    HW2 2337   3.058   0.776   3.073  0.5770 -2.9786  0.0476
  780SOL     OW 2338   2.452   2.048   2.531  0.0559 -0.3167  0.2924
  780SOL    HW1 2339   2.531   2.104   2.565 -1.0545 -2.4625  0.5040
  780SOL    HW2 2340   2.370   2.104   2.530  1.4694 -2.0404  0.0976
  781SOL     OW 2341   2.821   1.076   1.915 -0.1508  0.1185  0.3944
  781SOL    HW1 2342   2.868   1.145   1.854  0.7616  0.0276  1.7286
  781SOL    HW2 2343   2.811   0.984   1.871 -2.0124  1.2046  1.2476
  782SOL     OW 2344   1.188   1.997   2.627 -0.1981 -0.0414  0.3781
  782SOL    HW1 2345   1.280   1.958   2.602 -1.4857 -0.3008 -0.0011
  782SOL    HW2 2346   1.159   1.949   2.711 -3.4760  0.5464 -0.0645
  783SOL     OW 2347   1.040   2.411   1.092  0.1370  0.8950 -0.2001
  783SOL    HW1 2348   1.099   2.328   1.067 -2.0662 -0.8533 -0.4499
  783SOL    HW2 2349   1.080   2.498   1.058 -0.9867 -1.2534 -3.1110
  784SOL     OW 2350   1.992   0.662   2.299 -0.4066 -0.2291  0.1614
  784SOL    HW1 2351   2.001   0.563   2.309 -0.2597  1.6607 -0.0299
  784SOL    HW2 2352   1.981   0.707   2.391 -0.6976  1.2888 -0.0005
  785SOL     OW 2353   3.035   0.081   1.746 -0.3081  0.0475 -0.5932
  785SOL    HW1 2354   2.988   0.169   1.766  0.1397 -0.6385  0.0242
  785SOL    HW2 2355   3.053   0.073   1.642 -1.4598 -2.9141  0.5758
  786SOL     OW 2356   1.239   2.024   0.230 -0.1761  0.4329 -0.1633
  786SOL    HW1 2357   1.146   1.986   0.226 -1.2314 -3.8882 -3.8813
  786SOL    HW2 2358   1.240   2.121   0.252  1.3005 -0.1229 -0.0442
  787SOL     OW 2359   0.942   3.007   0.886  0.0878 -0.2563 -0.7792
  787SOL    HW1 2360   0.844   3.007   0.853 -0.1182 -0.2657 -2.0684
  787SOL    HW2 2361   0.969   3.077   0.962  2.3391  1.4331  4.0554
  788SOL     OW 2362   3.046   1.248   0.897 -0.2125 -0.3222 -0.2641
  788SOL    HW1 2363   3.064   1.346   0.915  3.2111  0.1384 -1.4796
  788SOL    HW2 2364   3.105   1.211   0.822 -1.7832  1.1248 -0.3479
  789SOL     OW 2365   2.498   1.048   2.194 -0.1089  0.1415 -0.5182
  789SOL    HW1 2366   2.418   1.001   2.241 -0.7724 -0.7356 -0.9089
  789SOL    HW2 2367   2.586   1.019   2.240  2.2731 -0.2490  1.5068
  790SOL     OW 2368   1.095   0.258   2.750  0.4279 -0.5802 -0.4504
  790SOL    HW1 2369   1.034   0.336   2.735 -1.4217  2.0602 -1.7415
  790SOL    HW2 2370   1.055   0.187   2.807  3.5319 -0.6237 -0.7035
  791SOL     OW 2371   0.257   2.911   0.077  0.1536 -0.3334 -0.3836
  791SOL    HW1 2372   0.279   3.014   0.075 -0.4810  1.2773 -2.2996
  791SOL    HW2 2373   0.324   2.854   0.022  0.2362  0.6878  0.5247
  792SOL     OW 2374   1.545   0.792   1.768  0.0043 -0.2475  0.4706
  792SOL    HW1 2375   1.520   0.801   1.867 -0.3593  1.5373  0.8670
  792SOL    HW2 2376   1.476   0.847   1.714  3.4822 -0.2979  4.7484
  793SOL     OW 2377   2.831   0.200   1.041  0.3371 -0.4269 -0.0108
  793SOL    HW1 2378   2.933   0.210   1.039 -1.9736 -0.9603  1.0713
  793SOL    HW2 2379   2.784   0.276   1.100 -2.6756  1.1424  3.4352
  794SOL     OW 2380   0.496   0.239   2.216  0.2463  0.1517 -0.4367
  794SOL    HW1 2381   0.574   0.172   2.222  1.6226  0.6792 -0.3296
  794SOL    HW2 2382   0.451   0.230   2.123  1.2290  1.2540  2.7819
  795SOL     OW 2383   0.576   1.604   0.418  0.3534 -0.1110 -0.0047
  795SOL    HW1 2384   0.478   1.569   0.420  3.0984 -1.1496 -0.5839
  795SOL    HW2 2385   0.600   1.660   0.337 -1.9813 -1.9600  0.4584
  796SOL     OW 2386   3.096   1.045   2.893 -0.0861  0.1524 -0.4741
  796SOL    HW1 2387   3.104   0.982   2.969 -0.4120  0.0850 -0.5734
  796SOL    HW2 2388   3.012   1.025   2.836  0.6842 -1.0088 -2.2502
  797SOL     OW 2389   2.242   3.062   2.275  0.1102  0.0352  0.5763
  797SOL    HW1 2390   2.224   2.960   2.278  1.9229  2.1237 -1.4500
  797SOL    HW2 2391   2.299   3.085   2.194  0.1853 -0.8897 -1.6100
  798SOL     OW 2392   0.049   3.048   1.155  0.0262 -0.0781 -0.1546
  798SOL    HW1 2393   0.042   3.011   1.059  0.6385 -1.1686  0.4062
  798SOL    HW2 2394   0.010   2.972   1.211  1.9340 -1.5597 -0.6475
  799SOL     OW 2395   2.835   0.745   1.808  0.2732  0.0376 -0.0889
  799SOL    HW1 2396   2.900   0.696   1.746 -1.0625  0.5801 -0.0263
  799SOL    HW2 2397   2.771   0.813   1.759 -1.1972  0.2534  0.0549
  800SOL     OW 2398   0.475   1.300   0.348 -0.4370  0.0343 -0.7816
  800SOL    HW1 2399   0.403   1.367   0.362 -1.7543 -3.1482 -0.3326
  800SOL    HW2 2400   0.519   1.319   0.258  0.5605 -2.4322  0.1708
  801SOL     OW 2401   2.069   1.757   0.379 -0.6800 -0.0105  0.3044
  801SOL    HW1 2402   2.169   1.729   0.400  1.1433 -2.8597 -0.7727
  801SOL    HW2 2403   2.006   1.692   0.424  0.6308  0.1540 -2.2188
  802SOL     OW 2404   1.461   0.952   2.732  0.2793  0.2494  0.2066
  802SOL    HW1 2405   1.442   1.002   2.648  0.9943  3.0536  0.5911
  802SOL    HW2 2406   1.418   0.861   2.733  1.3902 -1.2967  0.4976
  803SOL     OW 2407   1.089   2.039   1.793  0.4420 -0.5378 -0.2137
  803SOL    HW1 2408   1.119   2.135   1.780  1.9433 -0.1289 -0.4751
  803SOL    HW2 2409   1.161   1.991   1.851  2.3911 -3.7676 -0.0928
  804SOL     OW 2410   1.532   2.541   0.886  0.4805 -0.1616 -0.1017
  804SOL    HW1 2411   1.619   2.518   0.841 -1.5464 -1.9668 -2.6428
  804SOL    HW2 2412   1.467   2.594   0.825 -0.7034 -1.1257 -3.7111
  805SOL     OW 2413   2.762   2.352   2.481 -0.7520 -0.1545 -0.1763
  805SOL    HW1 2414   2.860   2.316   2.492  3.2507  0.5900  0.7292
  805SOL    HW2 2415   2.763   2.452   2.483 -1.0138 -1.4064 -0.8452
  806SOL     OW 2416   3.070   0.096   0.467 -0.1406  0.0284  0.7620
  806SOL    HW1 2417   3.013   0.092   0.550  1.0690 -1.7815 -0.7684
  806SOL    HW2 2418   0.013   0.013   0.459  2.1899  0.0945  2.3768
  807SOL     OW 2419   2.548   0.743   2.904 -0.1911 -0.5072  0.4119
  807SOL    HW1 2420   2.546   0.731   2.801  1.8619 -1.2393 -3.2649
  807SOL    HW2 2421   2.484   0.674   2.949  1.7747 -2.3900  2.6077
  808SOL     OW 2422   1.174   2.384   0.763 -0.4265 -0.4062  0.1441
  808SOL    HW1 2423   1.233   2.328   0.703 -1.6488  2.5623  0.7601
  808SOL    HW2 2424   1.178   2.350   0.859  0.5275 -0.4185  3.1398
  809SOL     OW 2425   2.839   0.279   2.754 -0.2188  0.6818  0.3301
  809SOL    HW1 2426   2.857   0.179   2.771 -0.6722  2.0463 -4.7046
  809SOL    HW2 2427   2.804   0.285   2.658 -0.0762 -1.3793  0.7295
  810SOL     OW 2428   1.614   1.091   0.764 -0.0733  0.0355 -0.4762
  810SOL    HW1 2429   1.545   1.108   0.692  0.7727 -2.4233 -0.9526
  810SOL    HW2 2430   1.568   1.089   0.855 -1.5702 -1.0684  0.6568
  811SOL     OW 2431   1.930   2.931   1.602 -0.4940 -0.4091 -0.2691
  811SOL    HW1 2432   1.904   2.947   1.505 -2.1741  0.2904  1.8611
  811SOL    HW2 2433   1.856   2.894   1.665  0.2257 -0.6342 -0.2214
  812SOL     OW 2434   1.598   2.788   0.325 -0.3201  0.3939  0.5799
  812SOL    HW1 2435   1.613   2.769   0.421  1.9432  0.7287 -1.7555
  812SOL    HW2 2436   1.499   2.776   0.301  1.1360  0.0700  1.0234
  813SOL     OW 2437   1.358   0.386   1.939  0.1663  0.2373  0.1006
  813SOL    HW1 2438   1.325   0.444   2.014 -1.8509  1.5729 -0.0349
  813SOL    HW2 2439   1.407   0.302   1.971  0.2265 -0.4019  1.5613
  814SOL     OW 2440   0.310   0.064   1.164 -0.3007 -0.4617 -0.1249
  814SOL    HW1 2441   0.225   0.014   1.160  3.1858  1.4073  0.8326
  814SOL    HW2 2442   0.363   0.031   1.240  0.3443  1.3134  1.0817
  815SOL     OW 2443   0.203   2.870   0.719 -0.2434  0.2938 -0.2783
  815SOL    HW1 2444   0.246   2.780   0.702 -0.5028  0.9646 -0.2164
  815SOL    HW2 2445   0.272   2.942   0.703 -2.0147 -1.0930  1.2292
  816SOL     OW 2446   2.502   1.570   2.587 -0.4883 -0.1806 -0.0529
  816SOL    HW1 2447   2.431   1.596   2.526  2.8095  0.3142 -0.2916
  816SOL    HW2 2448   2.584   1.624   2.564 -3.5906 -0.0985 -3.0989
  817SOL     OW 2449   1.256   0.006   3.053  0.2485  0.6235  0.1657
  817SOL    HW1 2450   1.327   0.058   3.108  0.5745  0.7736  1.3646
  817SOL    HW2 2451   1.292   3.062   2.978 -2.3547  1.0638 -0.9959
  818SOL     OW 2452   1.748   0.663   3.040 -0.1552 -0.3185  0.4824
  818SOL    HW1 2453   1.797   0.704   0.010  3.2909 -0.7782  0.7320
  818SOL    HW2 2454   1.803   0.582   3.005  0.0910  0.8700 -1.7343
  819SOL     OW 2455   1.781   2.684   2.887 -0.1816 -0.3841  0.5050
  819SOL    HW1 2456   1.883   2.680   2.866  1.1929 -0.7297  0.9965
  819SOL    HW2 2457   1.735   2.774   2.880 -0.3264 -0.5143  2.2107
  820SOL     OW 2458   1.495   1.035   0.064 -0.0390  0.1611  0.7340
  820SOL    HW1 2459   1.578   1.005   0.016  0.7841 -0.0327  0.5525
  820SOL    HW2 2460   1.516   1.085   0.150 -0.7805 -0.6504 -1.0610
  821SOL     OW 2461   0.292   0.621   1.513 -0.4372  0.1092 -0.2047
  821SOL    HW1 2462   0.302   0.715   1.469  0.9804  4.0549 -2.2765
  821SOL    HW2 2463   0.252   0.555   1.446 -0.8106  1.5425  0.0431
  822SOL     OW 2464   1.241   2.601   2.305  0.0258 -0.0973 -0.2173
  822SOL    HW1 2465   1.317   2.608   2.237  0.2961  0.2578 -0.6439
  822SOL    HW2 2466   1.199   2.509   2.300  0.5872  1.0537 -0.3538
  823SOL     OW 2467   0.587   1.512   2.044 -0.0971 -0.1177  0.4723
  823SOL    HW1 2468   0.495   1.546   2.067  1.0191 -1.5069 -3.5009
  823SOL    HW2 2469   0.624   1.447   2.115  0.6003 -1.3012  1.0307
  824SOL     OW 2470   2.084   2.987   1.832 -0.2464 -0.3916 -0.4548
  824SOL    HW1 2471   2.050   2.952   1.743  0.7716  1.0552 -1.3858
  824SOL    HW2 2472   2.158   3.059   1.826 -2.7652  1.4045  2.3892
  825SOL     OW 2473   0.898   1.249   0.190 -0.2750  0.0817  0.3836
  825SOL    HW1 2474   0.941   1.317   0.253  1.5723  1.9206 -2.9921
  825SOL    HW2 2475   0.974   1.205   0.137 -0.2324 -2.7113  1.0728
  826SOL     OW 2476   2.148   0.433   2.422 -0.1080 -0.3128 -0.3067
  826SOL    HW1 2477   2.250   0.453   2.404  2.7164 -1.8505 -0.3530
  826SOL    HW2 2478   2.132   0.376   2.507 -0.3038 -1.1795 -1.8550
  827SOL     OW 2479   0.488   2.187   2.921 -0.9578 -0.5491  0.4699
  827SOL    HW1 2480   0.505   2.285   2.925  2.7665 -1.6399  0.4291
  827SOL    HW2 2481   0.393   2.177   2.889  0.8051  0.8206  1.5791
  828SOL     OW 2482   2.957   0.083   1.275  0.1546  0.5261  0.1596
  828SOL    HW1 2483   3.013   0.036   1.204  0.6452 -2.3038  1.2561
  828SOL    HW2 2484   2.857   0.061   1.275 -1.6831  0.7180 -1.3067
  829SOL     OW 2485   1.283   1.412   1.171 -0.1835  0.1527 -0.8080
  829SOL    HW1 2486   1.265   1.487   1.242  0.0148 -2.8707  0.0048
  829SOL    HW2 2487   1.199   1.378   1.130 -0.5928 -4.6218  1.1991
  830SOL     OW 2488   0.500   1.349   1.699  0.0713 -0.2142 -0.1773
  830SOL    HW1 2489   0.534   1.444   1.714 -0.5861  1.6474  0.5544
  830SOL    HW2 2490   0.466   1.331   1.606  0.7398  2.1030 -0.6608
  831SOL     OW 2491   0.552   1.843   0.255  0.0175 -0.3390  0.3577
  831SOL    HW1 2492   0.489   1.796   0.197  1.5654  0.6358  1.5905
  831SOL    HW2 2493   0.541   1.946   0.255  1.3112  2.5972  2.0840
  832SOL     OW 2494   0.852   2.972   2.594  0.1967  0.4254  0.5283
  832SOL    HW1 2495   0.859   3.009   2.692 -3.1811 -1.1578  0.3291
  832SOL    HW2 2496   0.776   3.025   2.555 -1.1189  0.2337  1.2000
  833SOL     OW 2497   0.084   0.575   2.000  1.3012 -0.6769 -0.1944
  833SOL    HW1 2498   0.098   0.486   2.049 -1.9599 -0.2289 -2.1685
  833SOL    HW2 2499   3.113   0.624   2.038  1.3921  3.2178  1.5523
  834SOL     OW 2500   0.045   0.698   1.021 -0.1432 -0.0597 -0.4709
  834SOL    HW1 2501   0.117   0.664   0.957  0.3029  1.3835  0.4485
  834SOL    HW2 2502   3.078   0.635   1.017  0.0246 -0.3259  1.0301
  835SOL     OW 2503   2.703   2.897   1.076 -0.1703  0.5741  0.4142
  835SOL    HW1 2504   2.717   2.958   0.994 -0.0722  1.9780 -1.4921
  835SOL    HW2 2505   2.661   2.947   1.157  0.8329  0.3884 -1.9998
  836SOL     OW 2506   0.466   1.985   3.090  0.3298  0.6074  0.4364
  836SOL    HW1 2507   0.472   2.026   0.073  1.4659 -0.5846  2.3748
  836SOL    HW2 2508   0.498   2.060   3.026  0.2636  2.3779 -1.4364
  837SOL     OW 2509   1.899   2.271   0.103 -0.4101 -0.2105 -0.2132
  837SOL    HW1 2510   1.900   2.260   3.109  0.5085  0.6157 -1.1584
  837SOL    HW2 2511   1.981   2.228   0.144 -2.0131  0.4328 -0.0200
  838SOL     OW 2512   2.564   1.130   1.942 -0.9586 -0.2003 -0.7597
  838SOL    HW1 2513   2.543   1.082   2.027 -1.2824  2.9434 -0.9532
  838SOL    HW2 2514   2.661   1.115   1.916  1.6166 -1.8660  0.7234
  839SOL     OW 2515   1.133   0.994   0.550  0.5137 -0.3975 -0.0730
  839SOL    HW1 2516   1.040   0.957   0.577  1.4656 -1.7096  1.9241
  839SOL    HW2 2517   1.124   1.091   0.522 -2.6484 -2.8330  0.9174
  840SOL     OW 2518   1.895   0.600   0.840 -0.0556 -0.6208 -0.2314
  840SOL    HW1 2519   1.915   0.618   0.742  0.5632  2.1996  1.4111
  840SOL    HW2 2520   1.805   0.549   0.856 -2.0940 -2.2735  0.9430
  841SOL     OW 2521   0.683   2.978   0.794  0.3691  0.5384  0.2409
  841SOL    HW1 2522   0.602   3.033   0.829 -1.3702 -1.5127 -0.8232
  841SOL    HW2 2523   0.686   2.989   0.694  0.0013 -2.4046 -0.2091
  842SOL     OW 2524   0.523   0.510   0.627 -0.6858  0.2475 -0.2043
  842SOL    HW1 2525   0.459   0.457   0.682 -0.6291  3.6123 -1.1235
  842SOL    HW2 2526   0.489   0.518   0.535  1.7366 -0.6269  0.6118
  843SOL     OW 2527   0.510   0.793   1.885  0.3080  0.3145 -0.0134
  843SOL    HW1 2528   0.487   0.878   1.833  1.1570 -0.7913 -0.9856
  843SOL    HW2 2529   0.432   0.777   1.950 -0.5257  0.5531 -1.1832
  844SOL     OW 2530   1.485   2.437   3.058  0.6420 -0.1513 -0.4192
  844SOL    HW1 2531   1.515   2.457   2.963 -0.2428 -1.0663  0.5383
  844SOL    HW2 2532   1.432   2.349   3.061  0.0577  0.0872  0.6816
  845SOL     OW 2533   2.774   2.621   2.442 -0.4482 -0.0559  0.3303
  845SOL    HW1 2534   2.871   2.661   2.445 -1.2378 -0.6969 -1.1296
  845SOL    HW2 2535   2.747   2.607   2.347 -1.4111  0.9320 -0.6755
  846SOL     OW 2536   1.614   1.871   2.798  0.1853 -0.0817  0.6198
  846SOL    HW1 2537   1.541   1.922   2.850  0.6465 -1.2164  0.6294
  846SOL    HW2 2538   1.638   1.780   2.837  0.1269 -1.2817 -0.7289
  847SOL     OW 2539   2.204   2.791   2.287 -0.3053  0.9147  0.0094
  847SOL    HW1 2540   2.300   2.764   2.293 -2.7745  1.6509 -2.4540
  847SOL    HW2 2541   2.163   2.745   2.206 -0.3121  0.2871 -1.6629
  848SOL     OW 2542   0.725   0.275   0.251 -0.2870 -0.3462  0.5016
  848SOL    HW1 2543   0.687   0.344   0.189 -2.3118 -0.3314  0.0707
  848SOL    HW2 2544   0.805   0.297   0.310 -1.6452  0.3496  0.1284
  849SOL     OW 2545   0.636   2.915   1.402 -0.3359 -0.7838 -0.3034
  849SOL    HW1 2546   0.678   2.868   1.318 -0.0403  1.1338 -3.3997
  849SOL    HW2 2547   0.709   2.960   1.456 -1.5715 -2.9058  0.6329
  850SOL     OW 2548   0.057   1.545   0.368  0.0163 -0.0248  0.4025
  850SOL    HW1 2549   0.017   1.612   0.299 -2.8605  0.2002 -2.1924
  850SOL    HW2 2550   0.006   1.561   0.457  0.2326  0.5469  0.7757
  851SOL     OW 2551   0.280   0.695   3.053 -0.2697  0.4290  0.2355
  851SOL    HW1 2552   0.285   0.790   3.083 -1.8724 -1.9298  0.1829
  851SOL    HW2 2553   0.216   0.687   2.972  1.2657  1.9373  0.2739
  852SOL     OW 2554   1.530   2.066   1.874 -0.5180  0.3807  0.5018
  852SOL    HW1 2555   1.520   1.963   1.868  0.7403 -1.2604 -0.5811
  852SOL    HW2 2556   1.444   2.102   1.918 -2.1164  0.1164  0.2770
  853SOL     OW 2557   0.586   1.923   0.631 -0.3434 -0.9844 -0.3081
  853SOL    HW1 2558   0.671   1.951   0.578  4.9915  1.3220 -3.8873
  853SOL    HW2 2559   0.504   1.937   0.572 -0.7770  0.1188 -1.3913
  854SOL     OW 2560   1.963   1.307   1.446  0.2203 -0.3241 -0.3636
  854SOL    HW1 2561   1.986   1.263   1.539  2.3110  0.6376  1.6382
  854SOL    HW2 2562   2.014   1.270   1.370 -0.1996  2.5611  0.9177
  855SOL     OW 2563   0.515   2.103   0.236 -0.3008 -0.0416  0.2508
  855SOL    HW1 2564   0.427   2.151   0.236 -0.4455 -1.5747  1.4008
  855SOL    HW2 2565   0.586   2.152   0.292  0.7448 -3.3593 -0.4440
  856SOL     OW 2566   2.944   3.094   1.986 -0.3064  0.3455  0.1255
  856SOL    HW1 2567   2.942   0.068   2.035  1.8059 -3.1924 -0.9057
  856SOL    HW2 2568   2.962   0.005   1.890 -2.0779 -3.3385  0.4583
  857SOL     OW 2569   0.376   0.384   1.785  1.0396 -0.2827 -0.0751
  857SOL    HW1 2570   0.275   0.375   1.780  3.3501  0.3449 -0.2806
  857SOL    HW2 2571   0.401   0.483   1.772 -0.7660  0.6876  0.1782
  858SOL     OW 2572   2.618   1.951   2.218 -0.6228  0.3746  0.1299
  858SOL    HW1 2573   2.573   1.864   2.191 -0.9082 -0.7876  0.5232
  858SOL    HW2 2574   2.659   1.937   2.312 -1.0862 -0.2568 -1.3206
  859SOL     OW 2575   1.935   2.906   0.666 -0.0170 -0.2096 -0.0315
  859SOL    HW1 2576   1.844   2.933   0.703  1.1186 -1.8126  1.8871
  859SOL    HW2 2577   1.935   2.806   0.650 -0.2873 -0.1892  1.8916
  860SOL     OW 2578   1.907   0.270   0.118  0.3022 -0.0012 -0.6438
  860SOL    HW1 2579   1.968   0.250   0.039  2.9731  0.7742 -1.0267
  860SOL    HW2 2580   1.812   0.310   0.094 -3.2568 -0.2307  0.8119
  861SOL     OW 2581   0.308   0.393   0.807  0.0188  0.5659 -0.5590
  861SOL    HW1 2582   0.233   0.459   0.797 -0.5025  0.3580  1.0623
  861SOL    HW2 2583   0.368   0.409   0.891  2.1541 -1.8498 -1.7742
  862SOL     OW 2584   2.143   0.433   1.548  0.0234 -0.0668 -0.6596
  862SOL    HW1 2585   2.076   0.384   1.609  1.5223 -2.8176 -1.1722
  862SOL    HW2 2586   2.117   0.423   1.451  1.0394 -0.5618 -0.9091
  863SOL     OW 2587   0.320   1.434   1.089 -0.4619  0.1260 -0.0708
  863SOL    HW1 2588   0.394   1.501   1.073  1.1446 -1.8502  0.2331
  863SOL    HW2 2589   0.278   1.408   1.000  1.2876 -4.9443  0.6963
  864SOL     OW 2590   2.653   2.977   2.025  0.5324 -0.0800  0.1141
  864SOL    HW1 2591   2.752   2.994   2.015 -1.9065 -2.2468  0.4378
  864SOL    HW2 2592   2.635   2.884   2.071 -1.0384  1.0910  0.8106
  865SOL     OW 2593   1.373   0.482   1.460 -0.1120  0.7422  0.9722
  865SOL    HW1 2594   1.460   0.483   1.514  0.7184 -0.6981  1.5711
  865SOL    HW2 2595   1.307   0.416   1.507 -1.2990 -1.3968  0.4662
  866SOL     OW 2596   2.459   2.731   0.674 -0.1217 -0.5516 -0.0475
  866SOL    HW1 2597   2.477   2.793   0.751 -0.1552 -0.7380  0.4686
  866SOL    HW2 2598   2.414   2.644   0.704  2.1055  0.7109  0.1188
  867SOL     OW 2599   2.709   2.610   0.570 -0.0656 -0.2021  0.8602
  867SOL    HW1 2600   2.708   2.565   0.661 -0.3092 -0.8823  0.3738
  867SOL    HW2 2601   2.675   2.705   0.590  2.2380 -0.8200  2.9209
  868SOL     OW 2602   1.453   1.888   2.527 -0.4288 -0.1770 -0.3583
  868SOL    HW1 2603   1.445   1.803   2.471 -3.4856  0.4337  2.8839
  868SOL    HW2 2604   1.514   1.867   2.608  1.8575 -4.0633  0.4043
  869SOL     OW 2605   2.304   1.425   0.574  0.3880  0.0182 -0.3666
  869SOL    HW1 2606   2.285   1.424   0.477 -2.0081  1.5881 -2.5592
  869SOL    HW2 2607   2.222   1.399   0.626 -0.5370  2.0272 -0.3780
  870SOL     OW 2608   2.644   1.619   0.491 -0.0587 -0.1427  0.1142
  870SOL    HW1 2609   2.615   1.597   0.392 -2.0919  0.2598 -0.6458
  870SOL    HW2 2610   2.717   1.689   0.484  1.3788  2.7019 -2.0324
  871SOL     OW 2611   3.042   0.694   1.607  0.2625  0.1673 -0.0289
  871SOL    HW1 2612   3.050   0.787   1.557  0.4480  3.6783 -3.2612
  871SOL    HW2 2613   0.003   0.684   1.678 -0.9521 -1.0509  3.0031
  872SOL     OW 2614   0.420   1.770   2.731  0.1884 -0.4179  0.5396
  872SOL    HW1 2615   0.471   1.767   2.814 -2.9139 -0.3851  2.3350
  872SOL    HW2 2616   0.462   1.714   2.656  2.4102 -0.1264  0.1575
  873SOL     OW 2617   0.423   2.686   1.775 -0.8452 -0.0305 -0.3256
  873SOL    HW1 2618   0.498   2.666   1.844  0.5659 -1.0809 -0.4450
  873SOL    HW2 2619   0.439   2.775   1.732 -0.7193 -3.1526  0.8319
  874SOL     OW 2620   1.227   1.063   2.176 -0.8414  0.0320 -0.2131
  874SOL    HW1 2621   1.157   1.080   2.249  1.9987  0.8648 -1.7451
  874SOL    HW2 2622   1.295   0.989   2.203 -1.6767 -0.4117 -2.6180
  875SOL     OW 2623   3.051   2.865   1.329  0.2979  0.1519  0.2302
  875SOL    HW1 2624   3.031   2.765   1.316 -0.0299  0.8855 -0.5915
  875SOL    HW2 2625   2.980   2.912   1.387 -0.5620 -1.0341 -0.6834
  876SOL     OW 2626   0.968   1.221   0.861 -0.3203  0.1134  0.0203
  876SOL    HW1 2627   0.889   1.153   0.850 -1.2019 -1.6842 -0.8975
  876SOL    HW2 2628   0.950   1.294   0.785 -1.2892  0.6686 -2.3899
  877SOL     OW 2629   0.602   0.452   1.346  0.3241 -0.1378 -0.1009
  877SOL    HW1 2630   0.599   0.436   1.447  1.5957  0.9326 -3.9441
  877SOL    HW2 2631   0.589   0.362   1.296 -0.6038  0.9181  0.2495
  878SOL     OW 2632   2.677   1.873   2.917 -0.3449 -0.1195  0.4987
  878SOL    HW1 2633   2.696   1.774   2.925  0.4020 -2.0226  1.5997
  878SOL    HW2 2634   2.599   1.888   2.859 -1.3120 -0.3849  1.5358
  879SOL     OW 2635   2.364   1.997   1.270  0.2714 -0.4269 -0.2419
  879SOL    HW1 2636   2.270   1.992   1.309 -1.5063 -0.6611 -1.4595
  879SOL    HW2 2637   2.392   2.095   1.272 -0.9738 -4.2262 -1.6259
  880SOL     OW 2638   0.876   2.455   1.313  0.1883 -0.0400 -0.6178
  880SOL    HW1 2639   0.946   2.480   1.384  2.2580  2.4087  0.8225
  880SOL    HW2 2640   0.921   2.429   1.227 -0.1776  1.9996  1.5985
  881SOL     OW 2641   1.216   1.936   0.940  0.3020  0.4733 -0.8542
  881SOL    HW1 2642   1.170   1.952   0.852 -1.2032  0.1202  1.5923
  881SOL    HW2 2643   1.184   1.846   0.982 -2.5349 -1.5602  2.1194
  882SOL     OW 2644   1.959   1.725   2.452  0.6723  0.1602  0.3044
  882SOL    HW1 2645   2.008   1.677   2.523 -1.4531  1.0775 -3.0420
  882SOL    HW2 2646   2.027   1.773   2.388  0.6456  0.0422  2.0758
  883SOL     OW 2647   1.319   0.568   1.082 -0.7043 -0.0560 -0.3580
  883SOL    HW1 2648   1.335   0.634   1.004  0.1390 -0.8224 -1.6536
  883SOL    HW2 2649   1.400   0.506   1.104 -1.4178  1.7171  0.1823
  884SOL     OW 2650   0.034   2.889   0.938  0.6962  0.1192  0.1334
  884SOL    HW1 2651   0.090   2.862   0.855 -2.3259  0.4255  0.4998
  884SOL    HW2 2652   3.094   2.812   0.968  0.7374  3.1444  1.5426
  885SOL     OW 2653   1.054   1.042   1.939 -0.1759 -0.0796  0.0711
  885SOL    HW1 2654   1.098   1.069   1.852  1.6070 -0.3972 -0.2755
  885SOL    HW2 2655   1.110   1.079   2.018  1.4667 -0.5191  3.5611
  886SOL     OW 2656   1.142   0.995   2.880  0.5468 -0.4021 -0.7016
  886SOL    HW1 2657   1.051   1.020   2.838  0.8420  1.2756 -0.5383
  886SOL    HW2 2658   1.209   1.069   2.875  0.3991  2.0864  1.3786
  887SOL     OW 2659   1.565   0.137   0.741  0.5051  0.1462 -0.0285
  887SOL    HW1 2660   1.535   0.225   0.698  0.4996  3.5387  0.0545
  887SOL    HW2 2661   1.594   0.147   0.837  1.4429  2.0575 -0.8430
  888SOL     OW 2662   2.337   1.171   1.818  0.4374  0.4363 -0.0888
  888SOL    HW1 2663   2.287   1.104   1.873  0.9412  0.5079 -1.9817
  888SOL    HW2 2664   2.431   1.184   1.857 -0.9160 -1.7179 -0.6946
  889SOL     OW 2665   0.073   2.004   0.989  0.2708 -0.4855  0.2008
  889SOL    HW1 2666   0.087   2.099   0.956  0.6786  0.4780 -2.0289
  889SOL    HW2 2667   3.084   1.980   0.993 -1.8745 -0.0629 -0.9696
  890SOL     OW 2668   1.233   2.295   0.321 -0.0673  0.1564  0.5562
  890SOL    HW1 2669   1.304   2.298   0.392  0.3293 -3.3263  0.4708
  890SOL    HW2 2670   1.170   2.376   0.330  0.2714  1.0107 -0.2704
  891SOL     OW 2671   2.825   0.559   2.374 -0.0983  0.6815 -0.2691
  891SOL    HW1 2672   2.818   0.517   2.280  2.4395 -0.4238 -1.0291
  891SOL    HW2 2673   2.916   0.605   2.376  0.1475  2.7171  0.5365
  892SOL     OW 2674   0.027   2.442   1.646 -0.1133  0.2543  0.1637
  892SOL    HW1 2675   0.126   2.449   1.629  0.8253  2.3804 -0.8347
  892SOL    HW2 2676   0.001   2.472   1.741 -1.2629  2.4089  0.1270
  893SOL     OW 2677   1.003   0.327   1.400 -0.3233  0.0456 -0.2815
  893SOL    HW1 2678   1.094   0.286   1.398 -1.4386 -4.0191  0.5005
  893SOL    HW2 2679   0.993   0.416   1.453  0.4719  4.6082  2.9268
  894SOL     OW 2680   2.764   3.089   0.907  0.3572  0.0469 -0.2918
  894SOL    HW1 2681   2.807   0.052   0.964  0.4545 -1.2842  0.2773
  894SOL    HW2 2682   2.706   0.022   0.835  1.8506  0.7502  0.2189
  895SOL     OW 2683   1.755   1.922   2.531  0.1656 -0.1031 -0.3394
  895SOL    HW1 2684   1.834   1.857   2.518 -2.3891  1.3257  0.2331
  895SOL    HW2 2685   1.703   1.903   2.614  0.1775  0.2648  0.8487
  896SOL     OW 2686   1.715   0.418   1.299 -0.5661 -0.2013 -0.4747
  896SOL    HW1 2687   1.690   0.517   1.317 -1.2706  1.0833  0.0923
  896SOL    HW2 2688   1.817   0.408   1.299 -1.1118 -0.6167 -1.4875
  897SOL     OW 2689   0.591   1.615   1.787 -0.1643  0.4147  0.3868
  897SOL    HW1 2690   0.688   1.636   1.762  1.2680 -1.0312 -0.2854
  897SOL    HW2 2691   0.590   1.579   1.883 -0.3806 -2.5212 -0.9700
  898SOL     OW 2692   1.858   2.189   2.210 -0.7906  0.5750  0.3043
  898SOL    HW1 2693   1.952   2.149   2.214 -1.0727 -0.6830  0.6077
  898SOL    HW2 2694   1.848   2.267   2.272 -0.1867 -0.8094  3.4296
  899SOL     OW 2695   1.404   2.035   0.635  0.3216  0.0930  0.2528
  899SOL    HW1 2696   1.466   2.022   0.716 -1.9942  1.4703 -0.3044
  899SOL    HW2 2697   1.407   1.954   0.572  1.4583 -0.9136 -1.1203
  900SOL     OW 2698   0.929   3.105   2.253 -0.2563  0.0177  0.4066
  900SOL    HW1 2699   1.009   3.058   2.301  1.7842 -1.1360  3.8685
  900SOL    HW2 2700   0.979   0.054   2.181  1.5237  0.7284 -0.7707
  901SOL     OW 2701   1.146   1.569   2.165 -0.2989 -0.4434 -0.0581
  901SOL    HW1 2702   1.090   1.577   2.080 -0.3192  0.5991  0.2090
  901SOL    HW2 2703   1.127   1.489   2.220 -0.5991 -2.1625  2.5339
  902SOL     OW 2704   2.105   0.664   3.042  0.4756  0.1189 -0.3681
  902SOL    HW1 2705   2.077   0.740   2.978 -4.2756  1.4044  0.5167
  902SOL    HW2 2706   2.085   0.702   0.022  0.3156  0.6560 -0.8241
  903SOL     OW 2707   1.989   0.916   2.442  0.1509  0.0014 -0.3894
  903SOL    HW1 2708   2.041   0.989   2.491  1.1111  0.9284  3.4838
  903SOL    HW2 2709   1.958   0.950   2.350  1.6480 -1.9341 -1.5163
  904SOL     OW 2710   1.894   0.961   1.950  0.6848  0.3830 -0.5790
  904SOL    HW1 2711   1.910   0.859   1.925 -3.8056 -2.9379 -0.9524
  904SOL    HW2 2712   1.861   1.017   1.865 -2.0945  2.9470 -2.2431
  905SOL     OW 2713   2.481   0.354   0.927  0.4064  0.5105 -0.4281
  905SOL    HW1 2714   2.434   0.416   0.991  1.0589  2.7548  2.6689
  905SOL    HW2 2715   2.520   0.277   0.981 -0.3873  0.2070  2.8066
  906SOL     OW 2716   2.802   1.348   0.638 -0.1319 -0.1324  0.2483
  906SOL    HW1 2717   2.801   1.319   0.736 -3.1843  0.9041 -0.0308
  906SOL    HW2 2718   2.709   1.332   0.597 -2.9482 -0.9477 -0.4681
  907SOL     OW 2719   1.217   0.231   0.747  0.1871 -0.1633  0.2217
  907SOL    HW1 2720   1.309   0.255   0.706 -0.6559  1.0439  0.7533
  907SOL    HW2 2721   1.230   0.222   0.848 -0.2111  0.4533  1.4483
  908SOL     OW 2722   1.231   2.685   1.836  0.0787  0.6185  0.1445
  908SOL    HW1 2723   1.197   2.588   1.860 -0.4426 -1.6665  2.0693
  908SOL    HW2 2724   1.333   2.685   1.823  1.6242 -0.5339 -0.1364
  909SOL     OW 2725   2.677   0.918   1.705  0.0548 -1.1025  0.8609
  909SOL    HW1 2726   2.581   0.905   1.740  0.8638 -1.9260 -2.4203
  909SOL    HW2 2727   2.687   0.992   1.628 -0.5555  0.6985 -1.8160
  910SOL     OW 2728   1.250   0.223   2.301 -0.4661  0.3611 -0.2539
  910SOL    HW1 2729   1.173   0.197   2.246  2.1557  2.2953  2.3105
  910SOL    HW2 2730   1.241   0.177   2.395  1.0785  1.3826  0.0124
  911SOL     OW 2731   2.164   1.279   2.484 -0.4315 -0.5054 -0.1507
  911SOL    HW1 2732   2.260   1.294   2.449 -0.3135  2.2872 -0.7304
  911SOL    HW2 2733   2.160   1.201   2.549 -1.2845 -1.0903  2.1063
  912SOL     OW 2734   2.782   2.179   1.213  0.2024  0.0261 -0.1718
  912SOL    HW1 2735   2.791   2.141   1.306  1.6073  2.1706  0.3740
  912SOL    HW2 2736   2.848   2.258   1.208  0.2736 -2.3795  0.2878
  913SOL     OW 2737   2.630   2.141   1.714  0.0877 -0.4230 -0.5971
  913SOL    HW1 2738   2.590   2.231   1.689 -0.1086  0.5309  3.0020
  913SOL    HW2 2739   2.552   2.074   1.729 -0.3381 -0.8357 -2.3560
  914SOL     OW 2740   1.818   2.037   0.807  0.0446 -1.0291  0.6155
  914SOL    HW1 2741   1.891   2.017   0.877 -1.5599  1.9773 -1.8026
  914SOL    HW2 2742   1.762   1.954   0.795 -0.2172  0.4249 -0.6194
  915SOL     OW 2743   0.922   2.525   2.093  0.0029 -0.9124 -0.6473
  915SOL    HW1 2744   0.832   2.499   2.057 -2.1562 -0.7286  2.8550
  915SOL    HW2 2745   0.919   2.617   2.127 -0.6425 -1.0679  1.5307
  916SOL     OW 2746   0.148   2.346   0.749  0.3822  0.1858  0.2436
  916SOL    HW1 2747   0.248   2.334   0.760  0.0422  2.3291 -2.0960
  916SOL    HW2 2748   0.100   2.265   0.711 -2.9305 -2.2299 -1.3134
  917SOL     OW 2749   2.726   0.953   2.954 -0.1814  0.3979 -0.0353
  917SOL    HW1 2750   2.668   0.877   2.923  0.8096 -2.6767  0.1308
  917SOL    HW2 2751   2.793   0.978   2.880 -1.2638 -0.0312 -2.0251
  918SOL     OW 2752   1.641   2.057   2.300  0.5368  0.2607 -0.0830
  918SOL    HW1 2753   1.724   2.111   2.283  0.1209 -1.9080  0.7742
  918SOL    HW2 2754   1.662   2.010   2.391 -0.0093  2.8760 -0.3104
  919SOL     OW 2755   1.652   2.263   0.744 -0.1988  0.0770 -0.0481
  919SOL    HW1 2756   1.630   2.273   0.644 -0.1899 -0.0340  0.1869
  919SOL    HW2 2757   1.681   2.166   0.759  1.1645 -1.0958 -3.0494
  920SOL     OW 2758   1.420   0.366   2.460 -0.1273 -0.0025  0.4032
  920SOL    HW1 2759   1.367   0.323   2.383 -1.2378 -0.5521 -0.3335
  920SOL    HW2 2760   1.367   0.449   2.489 -1.3772 -0.9388  0.9230
  921SOL     OW 2761   0.165   0.661   2.795  0.2917  0.3423 -0.5360
  921SOL    HW1 2762   0.238   0.723   2.754  3.1080  3.3284 -0.8520
  921SOL    HW2 2763   0.174   0.565   2.770 -0.2381  1.6200 -0.2570
  922SOL     OW 2764   2.852   1.847   1.491  0.0073  0.2155  0.6892
  922SOL    HW1 2765   2.927   1.870   1.426  0.8028  0.6070 -0.8487
  922SOL    HW2 2766   2.759   1.867   1.449 -0.2276 -0.0378 -3.3317
  923SOL     OW 2767   0.087   1.805   2.719 -0.0659  0.3326  0.1290
  923SOL    HW1 2768   0.046   1.896   2.724  1.3911 -0.0316  0.1617
  923SOL    HW2 2769   0.167   1.798   2.785  1.9959  2.0982  2.1746
  924SOL     OW 2770   1.657   0.476   2.063 -0.3378 -0.6580  0.2811
  924SOL    HW1 2771   1.641   0.438   2.155  0.4489  0.6145  3.4999
  924SOL    HW2 2772   1.681   0.574   2.063  0.9526  1.2435  2.7425
  925SOL     OW 2773   0.098   1.007   0.215 -0.3789  0.2029 -0.1317
  925SOL    HW1 2774   0.003   1.024   0.179 -0.7049  2.9199  1.1735
  925SOL    HW2 2775   0.130   1.094   0.255 -0.5951 -0.6451  0.4024
  926SOL     OW 2776   2.490   0.184   1.160  0.1014  0.3090 -0.0527
  926SOL    HW1 2777   2.439   0.132   1.088  1.1229  2.2728  0.1215
  926SOL    HW2 2778   2.422   0.212   1.228 -0.3318  0.8168  0.5666
  927SOL     OW 2779   1.289   0.857   0.784 -0.1126  0.2820  0.4903
  927SOL    HW1 2780   1.274   0.923   0.706 -1.0865 -1.2328 -2.3150
  927SOL    HW2 2781   1.207   0.860   0.846 -0.5883 -0.8543  0.1073
  928SOL     OW 2782   3.012   0.204   2.145  0.7621  0.4115 -0.3571
  928SOL    HW1 2783   2.985   0.165   2.234 -1.5507  1.0859  1.2433
  928SOL    HW2 2784   3.100   0.254   2.154 -3.7266  1.2944  1.3621
  929SOL     OW 2785   2.225   0.869   1.357  0.1170  0.4472 -0.1385
  929SOL    HW1 2786   2.191   0.896   1.446  1.8183  0.8415  2.6809
  929SOL    HW2 2787   2.284   0.944   1.325 -1.9542  2.0969 -0.4289
  930SOL     OW 2788   2.061   2.623   1.063  0.4535  0.1437 -0.5676
  930SOL    HW1 2789   1.989   2.676   1.009 -0.3091  0.7796 -0.9110
  930SOL    HW2 2790   2.063   2.646   1.162 -0.6019  0.5248 -0.0850
  931SOL     OW 2791   1.925   0.987   1.272 -0.1245 -0.7399 -0.3873
  931SOL    HW1 2792   1.924   0.913   1.207 -2.1848  3.7435 -0.0101
  931SOL    HW2 2793   2.012   1.033   1.262 -2.9250 -0.6308 -0.5977
  932SOL     OW 2794   3.085   0.886   1.193 -0.0503 -0.0706  0.3999
  932SOL    HW1 2795   0.020   0.972   1.171  0.7846 -0.5166  1.1963
  932SOL    HW2 2796   0.006   0.811   1.133 -1.1986  1.8567 -0.6743
  933SOL     OW 2797   2.091   1.668   2.095 -0.0322 -0.0346  0.1814
  933SOL    HW1 2798   2.065   1.571   2.074 -0.5692 -0.1477 -0.7114
  933SOL    HW2 2799   2.023   1.734   2.051 -0.9440  0.8970 -0.7129
  934SOL     OW 2800   1.456   2.853   1.528  0.2257  0.0536  0.7397
  934SOL    HW1 2801   1.467   2.803   1.436  0.7318 -0.1828  0.0751
  934SOL    HW2 2802   1.504   2.945   1.530 -0.0534  2.4074  0.2992
  935SOL     OW 2803   0.393   0.883   1.460  0.4283 -0.6128 -0.0670
  935SOL    HW1 2804   0.349   0.939   1.390  1.9480 -0.3321  0.7255
  935SOL    HW2 2805   0.459   0.946   1.509 -0.4315  1.4749  1.2554
  936SOL     OW 2806   2.612   0.517   1.426  0.0847  0.9686  0.1600
  936SOL    HW1 2807   2.529   0.580   1.432 -0.3794 -0.3568  0.7437
  936SOL    HW2 2808   2.701   0.564   1.436  3.5413 -4.4535 -1.3069
  937SOL     OW 2809   0.829   0.132   1.391 -0.0962  0.3268  0.2975
  937SOL    HW1 2810   0.749   0.141   1.330 -1.1409  3.3251 -1.8412
  937SOL    HW2 2811   0.882   0.221   1.397 -0.2071 -1.0572 -1.5436
  938SOL     OW 2812   3.035   2.465   0.761 -0.0701  0.2809  0.1881
  938SOL    HW1 2813   2.971   2.388   0.745 -0.2338  2.2253  2.0975
  938SOL    HW2 2814   0.016   2.422   0.768 -0.9646 -2.4230  2.3064
  939SOL     OW 2815   3.070   2.098   2.775  0.5586 -0.3116 -0.4743
  939SOL    HW1 2816   3.056   2.130   2.683 -1.7573  1.3250 -0.6431
  939SOL    HW2 2817   2.996   2.134   2.835 -0.0986  2.5945 -1.3854
  940SOL     OW 2818   1.890   2.249   2.922 -0.3186 -0.3162  0.4028
  940SOL    HW1 2819   1.798   2.254   2.881  0.1077 -0.3196  2.1433
  940SOL    HW2 2820   1.957   2.188   2.868  1.3194 -3.0704  1.0592
  941SOL     OW 2821   1.625   2.677   0.590  0.6683 -0.2138 -0.1842
  941SOL    HW1 2822   1.539   2.687   0.644  0.0435 -1.9418  1.4934
  941SOL    HW2 2823   1.696   2.627   0.645 -2.0489  1.6731  0.7573
  942SOL     OW 2824   1.626   1.866   1.082 -0.5826 -0.0896  0.5138
  942SOL    HW1 2825   1.702   1.904   1.136  0.1708 -1.7502 -2.9384
  942SOL    HW2 2826   1.599   1.932   1.006  0.7060  1.7346  0.3775
  943SOL     OW 2827   1.994   0.707   1.871 -0.2204 -0.1272  0.3845
  943SOL    HW1 2828   1.969   0.661   1.783  1.3276 -0.1714 -0.5756
  943SOL    HW2 2829   2.079   0.662   1.907  1.8163  0.5306  0.3767
  944SOL     OW 2830   1.870   0.567   1.674  0.3282  0.5362 -0.3036
  944SOL    HW1 2831   1.770   0.559   1.647 -0.1788 -0.2124  0.9715
  944SOL    HW2 2832   1.890   0.466   1.685 -2.1349 -0.3918 -1.3675
  945SOL     OW 2833   2.656   2.460   1.289  0.3823  0.3009 -0.2778
  945SOL    HW1 2834   2.591   2.528   1.327 -2.4486 -2.6873  1.7180
  945SOL    HW2 2835   2.701   2.501   1.206 -0.3660  1.3297  1.5469
  946SOL     OW 2836   0.419   1.233   1.442 -0.0186  0.5209  0.2585
  946SOL    HW1 2837   0.329   1.267   1.474 -2.2935  2.2485  1.7863
  946SOL    HW2 2838   0.405   1.174   1.359  1.8299  2.0469 -3.1486
  947SOL     OW 2839   0.681   2.570   0.705  0.0629  0.1089 -0.6533
  947SOL    HW1 2840   0.634   2.577   0.798  1.9613  1.0136  2.1078
  947SOL    HW2 2841   0.636   2.513   0.638  1.6393  1.5693 -1.9978
  948SOL     OW 2842   0.190   1.592   1.753  0.1214 -0.1296  0.4421
  948SOL    HW1 2843   0.147   1.585   1.846 -0.1074  0.7220  0.8564
  948SOL    HW2 2844   0.261   1.667   1.749  0.5166  0.1904 -0.6875
  949SOL     OW 2845   0.653   0.923   2.146 -0.6961 -0.0373 -0.1290
  949SOL    HW1 2846   0.683   0.905   2.052  0.1162 -0.4232  0.2816
  949SOL    HW2 2847   0.593   1.000   2.155  3.3566 -2.7536 -0.1921
  950SOL     OW 2848   0.184   0.569   1.246  0.4718  0.5077  0.0268
  950SOL    HW1 2849   0.127   0.632   1.196  0.7879 -1.8248 -0.3350
  950SOL    HW2 2850   0.204   0.487   1.189  1.1274  0.8556 -0.0084
  951SOL     OW 2851   1.212   1.815   2.242  0.0358 -0.0676  0.0127
  951SOL    HW1 2852   1.188   1.719   2.211  0.1024 -0.2541  2.7382
  951SOL    HW2 2853   1.130   1.873   2.237  0.8927  0.6989 -1.0647
  952SOL     OW 2854   1.138   1.518   0.115  0.0416  0.5003 -0.1440
  952SOL    HW1 2855   1.165   1.606   0.074  1.0430 -1.2200 -0.8934
  952SOL    HW2 2856   1.225   1.464   0.144  1.9098 -0.0377  1.9520
  953SOL     OW 2857   1.093   2.972   2.420 -0.0025  1.2314 -0.4140
  953SOL    HW1 2858   1.024   2.959   2.491 -1.9316 -0.1310 -0.1236
  953SOL    HW2 2859   1.191   2.980   2.463  1.8769  4.0222 -3.8051
  954SOL     OW 2860   2.130   1.397   0.273  0.0383  0.7264  0.3787
  954SOL    HW1 2861   2.063   1.441   0.332  0.6676  0.7955 -0.0666
  954SOL    HW2 2862   2.124   1.297   0.271 -1.8240  1.4233 -1.4286
  955SOL     OW 2863   0.312   2.463   2.835  0.1568  0.3123  0.0978
  955SOL    HW1 2864   0.408   2.483   2.812  0.4288  0.4656 -1.0948
  955SOL    HW2 2865   0.248   2.506   2.770  1.8279  1.0072 -2.6833
  956SOL     OW 2866   1.390   0.951   1.624 -0.1214  0.1613  0.8589
  956SOL    HW1 2867   1.292   0.970   1.620  0.0635  0.8437 -0.0156
  956SOL    HW2 2868   1.442   0.999   1.550  0.0203  0.7055  1.1329
  957SOL     OW 2869   1.888   1.813   1.983  0.4348  0.6402  0.0970
  957SOL    HW1 2870   1.848   1.803   2.075 -1.0637  0.5510 -1.6749
  957SOL    HW2 2871   1.868   1.900   1.938  3.0027  0.5500 -3.2528
  958SOL     OW 2872   1.468   2.354   1.297 -0.0448 -0.5602  0.0619
  958SOL    HW1 2873   1.400   2.419   1.329  0.4377 -3.1573  1.9020
  958SOL    HW2 2874   1.557   2.399   1.265 -1.0288 -0.7196  1.2901
  959SOL     OW 2875   1.290   1.625   1.367  0.2742 -0.0173  0.1939
  959SOL    HW1 2876   1.319   1.720   1.347  1.6101 -1.0597  0.5700
  959SOL    HW2 2877   1.360   1.581   1.423 -0.6609 -1.6325 -0.0216
  960SOL     OW 2878   3.090   1.318   2.890  0.6113  0.4026 -0.3603
  960SOL    HW1 2879   3.093   1.220   2.874  0.2069 -0.3166  0.6973
  960SOL    HW2 2880   0.062   1.354   2.845  0.2588 -1.7296 -0.5440
  961SOL     OW 2881   0.506   1.156   2.226  0.2781 -0.5776  0.0892
  961SOL    HW1 2882   0.504   1.141   2.329 -0.2992 -0.6268  1.5089
  961SOL    HW2 2883   0.594   1.202   2.209  0.3306 -1.0386  1.5539
  962SOL     OW 2884   1.173   1.769   0.589 -0.2279  0.2406  0.4035
  962SOL    HW1 2885   1.154   1.867   0.619  0.0731 -0.2968  0.5564
  962SOL    HW2 2886   1.224   1.706   0.651  1.5530 -0.0483  1.1982
  963SOL     OW 2887   1.160   2.275   2.545  0.1005  0.1506 -0.2242
  963SOL    HW1 2888   1.176   2.293   2.446  0.4626  2.0217 -0.4170
  963SOL    HW2 2889   1.112   2.183   2.549 -2.5101 -0.7697  0.3064
  964SOL     OW 2890   0.855   2.906   0.148  0.0355 -0.0584  0.1336
  964SOL    HW1 2891   0.879   2.889   0.246 -2.7192  0.3323 -0.7930
  964SOL    HW2 2892   0.812   2.998   0.131 -0.6125 -0.7090 -2.5189
  965SOL     OW 2893   0.494   0.049   0.930  0.3768  0.2426 -0.3854
  965SOL    HW1 2894   0.580   0.097   0.958 -0.4501  0.7704 -1.4206
  965SOL    HW2 2895   0.434   0.050   1.010  1.3893  0.0715 -0.3959
  966SOL     OW 2896   0.240   1.584   2.920 -0.4925  0.2270 -0.2165
  966SOL    HW1 2897   0.302   1.530   2.984  1.9708 -1.7445  2.5835
  966SOL    HW2 2898   0.214   1.542   2.830 -0.4556  1.1575 -0.7958
  967SOL     OW 2899   0.805   2.767   2.459 -0.3445  0.3747  0.2185
  967SOL    HW1 2900   0.841   2.846   2.510  1.9249 -1.2914 -1.4536
  967SOL    HW2 2901   0.749   2.792   2.376 -0.1592  0.5135 -0.4997
  968SOL     OW 2902   2.252   0.470   0.341 -0.1775 -0.0159 -0.1700
  968SOL    HW1 2903   2.176   0.406   0.375  1.6360  1.9022 -0.3010
  968SOL    HW2 2904   2.214   0.549   0.294  1.9652  0.7237 -4.7681
  969SOL     OW 2905   0.023   1.849   2.056 -0.2859  0.2762 -0.2406
  969SOL    HW1 2906   3.113   1.927   1.996 -1.5940 -1.4368  1.9449
  969SOL    HW2 2907   3.071   1.770   2.052 -2.6822 -0.7529  1.1360
  970SOL     OW 2908   2.117   1.567   1.226  0.0109  0.7464  0.0287
  970SOL    HW1 2909   2.168   1.585   1.140 -1.3884 -2.5905  2.7728
  970SOL    HW2 2910   2.179   1.552   1.303 -0.7960  0.7584 -0.5507
  971SOL     OW 2911   1.896   0.040   1.077  0.0487 -0.2574  0.6088
  971SOL    HW1 2912   1.894   0.140   1.053 -1.4670 -0.0300  1.3827
  971SOL    HW2 2913   1.994   0.004   1.081  2.0688  0.9991  0.7662
  972SOL     OW 2914   0.258   0.100   1.557  0.4432  0.1192  0.1376
  972SOL    HW1 2915   0.284   0.054   1.644  2.2071 -0.3354 -1.3221
  972SOL    HW2 2916   0.162   0.081   1.535  1.9160 -0.3822  1.0119
  973SOL     OW 2917   2.614   0.878   0.243  0.3444 -0.0162 -0.0616
  973SOL    HW1 2918   2.686   0.865   0.179  0.6439  0.0716  0.9864
  973SOL    HW2 2919   2.643   0.957   0.301  0.3224  3.2592 -0.2636
  974SOL     OW 2920   1.861   1.473   2.368 -0.1340 -0.1368 -0.2460
  974SOL    HW1 2921   1.907   1.560   2.396  1.4600  0.4504  0.4361
  974SOL    HW2 2922   1.791   1.481   2.301  1.9874  0.2731 -0.5146
  975SOL     OW 2923   0.222   2.814   1.483 -0.1542  0.0716 -0.1338
  975SOL    HW1 2924   0.197   2.817   1.383  1.0494  0.1461 -1.0375
  975SOL    HW2 2925   0.140   2.821   1.543 -0.7425 -0.3053 -2.0042
  976SOL     OW 2926   0.334   1.918   2.013 -0.8593  0.1165  0.0840
  976SOL    HW1 2927   0.256   1.988   2.001 -1.8008  0.1746  0.0843
  976SOL    HW2 2928   0.327   1.872   2.104 -1.9628  2.4820 -1.9950
  977SOL     OW 2929   0.790   2.697   3.098 -0.3714  0.1848 -0.1141
  977SOL    HW1 2930   0.883   2.674   3.060  1.6117 -1.6331 -0.4913
  977SOL    HW2 2931   0.804   2.769   0.058  1.0393  0.2676 -0.3906
  978SOL     OW 2932   0.227   1.836   3.017 -0.2178  0.3523 -0.2664
  978SOL    HW1 2933   0.316   1.892   3.034  3.4807  1.8137  0.0553
  978SOL    HW2 2934   0.242   1.754   2.965 -0.3979  2.3013  0.9961
  979SOL     OW 2935   1.722   2.452   1.244 -0.3985 -0.0511 -0.2354
  979SOL    HW1 2936   1.741   2.555   1.244 -0.7268  1.8896 -1.4979
  979SOL    HW2 2937   1.753   2.409   1.160  2.2088 -0.3312 -0.5400
  980SOL     OW 2938   0.968   1.697   2.706 -0.5138  0.1864 -0.1315
  980SOL    HW1 2939   1.060   1.656   2.696 -1.3897  1.6176  1.1236
  980SOL    HW2 2940   0.902   1.645   2.650 -0.9917 -1.2601 -0.7315
  981SOL     OW 2941   2.590   3.007   2.399  0.5901  0.2645  0.3646
  981SOL    HW1 2942   2.572   3.084   2.332  1.8711 -1.1441 -1.8945
  981SOL    HW2 2943   2.568   3.026   2.498  0.2273  1.5757 -0.2170
  982SOL     OW 2944   0.284   3.006   2.429  0.2829  0.4071  0.1799
  982SOL    HW1 2945   0.212   3.076   2.458 -1.8905  2.5473 -1.1567
  982SOL    HW2 2946   0.239   2.936   2.366 -1.1292 -0.0107  1.4466
  983SOL     OW 2947   2.244   1.450   1.797  0.0505 -0.6518  0.4764
  983SOL    HW1 2948   2.307   1.376   1.769  0.7744  0.4255 -0.0221
  983SOL    HW2 2949   2.174   1.457   1.724  1.9517 -0.4302  1.2756
  984SOL     OW 2950   1.610   0.370   1.821  0.2213 -0.3115 -0.8639
  984SOL    HW1 2951   1.509   0.370   1.818 -0.7052 -1.2134 -1.4121
  984SOL    HW2 2952   1.643   0.415   1.905  1.9961  0.5107  0.5481
  985SOL     OW 2953   1.665   1.550   2.199  0.1397 -0.4360  0.0117
  985SOL    HW1 2954   1.572   1.542   2.152  2.1121  0.4108 -0.9916
  985SOL    HW2 2955   1.686   1.650   2.226  1.2891  1.8520 -0.0088
  986SOL     OW 2956   1.919   0.392   2.004  0.6026 -0.4620 -0.0406
  986SOL    HW1 2957   1.945   0.404   1.907 -1.9215  4.7299  0.5231
  986SOL    HW2 2958   1.827   0.429   2.020 -2.1665  0.6689  1.6287
  987SOL     OW 2959   2.218   0.565   1.936 -0.2806 -0.2938 -0.1442
  987SOL    HW1 2960   2.268   0.546   2.023  1.5143 -0.0186 -0.2989
  987SOL    HW2 2961   2.282   0.554   1.862 -1.5312 -3.1617  2.0119
  988SOL     OW 2962   2.605   0.716   2.393 -0.3932 -0.0706  0.0359
  988SOL    HW1 2963   2.685   0.647   2.385  1.5737 -1.3710 -3.2554
  988SOL    HW2 2964   2.641   0.809   2.360  1.5740 -0.5885  1.4423
  989SOL     OW 2965   2.202   2.583   2.740  0.0516 -0.3995  0.0382
  989SOL    HW1 2966   2.292   2.539   2.740 -0.2918  0.1421 -3.5249
  989SOL    HW2 2967   2.146   2.549   2.813 -1.0221  0.0283 -1.7218
  990SOL     OW 2968   1.053   0.687   2.684 -0.4941 -0.2428 -0.4954
  990SOL    HW1 2969   0.981   0.618   2.706  0.3241 -0.4042 -2.1722
  990SOL    HW2 2970   1.016   0.770   2.638  0.9007  0.9360 -0.6567
  991SOL     OW 2971   1.328   0.561   0.211  0.2600  0.4602  0.2869
  991SOL    HW1 2972   1.328   0.631   0.140 -1.2985 -0.6386  5.3128
  991SOL    HW2 2973   1.323   0.467   0.170 -0.1076 -0.2359 -2.5386
  992SOL     OW 2974   2.441   2.408   2.732 -0.5147  0.3388 -0.0051
  992SOL    HW1 2975   2.384   2.342   2.674 -2.8627  0.4528 -0.2233
  992SOL    HW2 2976   2.489   2.482   2.686 -2.7233 -1.5086  0.3526
  993SOL     OW 2977   0.274   0.276   0.274  0.1804  0.8529  0.1490
  993SOL    HW1 2978   0.331   0.346   0.225  2.4015 -0.2489  0.5067
  993SOL    HW2 2979   0.180   0.310   0.294 -0.9903  0.9278 -0.8333
  994SOL     OW 2980   0.318   2.205   1.697  0.2007  0.4508  0.1356
  994SOL    HW1 2981   0.294   2.184   1.797  0.1023 -2.2521  3.4764
  994SOL    HW2 2982   0.339   2.306   1.685  0.2480  2.7952 -0.7612
  995SOL     OW 2983   1.991   1.641   2.975 -0.1645 -0.4449  0.3227
  995SOL    HW1 2984   2.066   1.658   3.045 -0.0938 -0.2203  1.9124
  995SOL    HW2 2985   2.026   1.567   2.916 -1.7872 -3.1041  1.4958
  996SOL     OW 2986   1.438   1.626   2.965  0.4516 -0.3413  0.6197
  996SOL    HW1 2987   1.537   1.629   2.940 -0.2129  1.0577  0.1579
  996SOL    HW2 2988   1.421   1.709   3.022  1.1285  2.2026  2.4159
  997SOL     OW 2989   1.737   1.164   1.146  0.5028  0.2438 -0.2330
  997SOL    HW1 2990   1.791   1.121   1.219 -1.6584  0.1011  2.5531
  997SOL    HW2 2991   1.707   1.260   1.170 -1.0358 -1.6023 -0.8633
  998SOL     OW 2992   2.572   1.537   0.250  0.0083 -0.2381  0.5484
  998SOL    HW1 2993   2.580   1.437   0.228 -1.8200  1.9946  0.7393
  998SOL    HW2 2994   2.620   1.600   0.189 -0.5816  0.0251  1.6069
  999SOL     OW 2995   2.951   2.432   0.277  0.1464 -0.0525 -0.3125
  999SOL    HW1 2996   2.940   2.508   0.345  1.3246 -1.0149 -0.5459
  999SOL    HW2 2997   2.910   2.459   0.186 -1.0608 -1.5640  0.6412
 1000SOL     OW 2998   0.655   3.090   1.999  0.1202  0.1272 -0.3138
 1000SOL    HW1 2999   0.570   3.050   1.960 -0.2617 -1.7125  0.9104
 1000SOL    HW2 3000   0.719   3.111   1.924 -2.1640 -1.7559  1.1873
   3.11295   3.11295   3.11295
