1000 SPC/Fw water molecules t= 431.00000 step= 431000
 3000
    1SOL     OW    1   0.163   0.182   1.169  0.1796  0.1483 -0.4763
    1SOL    HW1    2   0.215   0.113   1.112  0.7666  0.4690  0.4306
    1SOL    HW2    3   0.188   0.173   1.269  0.5086  1.7426  2.4160
    2SOL     OW    4   2.684   2.960   0.089  0.5287  0.0223  0.1876
    2SOL    HW1    5   2.682   2.858   0.103  0.0918 -1.4547 -1.6453
    2SOL    HW2    6   2.665   2.985   3.073  2.9326 -1.0885  2.7102
    3SOL     OW    7   1.349   2.735   0.012 -1.2143 -0.1320 -0.1513
    3SOL    HW1    8   1.331   2.644   3.049  2.1810  3.4771  2.0071
    3SOL    HW2    9   1.358   2.724   0.112 -1.9175 -0.7166 -1.0445
    4SOL     OW   10   1.140   2.763   2.260 -0.2991  0.2757 -0.2293
    4SOL    HW1   11   1.168   2.698   2.331  0.6304  2.9195 -0.1931
    4SOL    HW2   12   1.062   2.820   2.283 -1.5176  1.1669  0.9503
    5SOL     OW   13   2.168   0.067   2.114 -0.4266  0.1987  0.0643
    5SOL    HW1   14   2.149   0.070   2.215  1.3942 -1.0231  1.1902
    5SOL    HW2   15   2.084   0.056   2.061 -0.1944 -0.4061 -1.5993
    6SOL     OW   16   2.596   2.164   1.051  0.1687 -0.0004 -0.3028
    6SOL    HW1   17   2.669   2.227   1.018  2.5854  1.0669 -0.0539
    6SOL    HW2   18   2.537   2.224   1.112 -0.1463 -0.3317 -0.4769
    7SOL     OW   19   1.439   1.597   0.691  0.4897  0.4340 -0.7919
    7SOL    HW1   20   1.390   1.512   0.658 -2.4144  1.7723 -0.7478
    7SOL    HW2   21   1.396   1.674   0.647  3.4732 -0.5095 -0.1053
    8SOL     OW   22   0.476   1.460   1.147  0.0008 -0.0168  0.0548
    8SOL    HW1   23   0.386   1.503   1.179 -1.4492  0.6821  0.1361
    8SOL    HW2   24   0.512   1.529   1.077  1.8070  3.3937 -2.4941
    9SOL     OW   25   3.018   2.767   1.385  0.4595  0.7324 -0.0103
    9SOL    HW1   26   3.006   2.819   1.299 -0.1780  0.7908  0.0874
    9SOL    HW2   27   2.947   2.695   1.405 -2.3759 -0.3068 -1.0029
   10SOL     OW   28   1.177   2.341   0.564 -0.4944  0.0290  0.1039
   10SOL    HW1   29   1.243   2.415   0.534  1.7491  1.1973  0.9298
   10SOL    HW2   30   1.153   2.339   0.662  2.4727 -3.1238  0.6446
   11SOL     OW   31   1.729   1.735   1.098  0.1014  0.3072  0.5881
   11SOL    HW1   32   1.647   1.718   1.040  1.6741  0.2148  1.8769
   11SOL    HW2   33   1.713   1.694   1.194  2.5996  1.0660  0.6790
   12SOL     OW   34   0.123   0.913   2.100 -0.6806 -0.2569  0.4418
   12SOL    HW1   35   0.060   0.919   2.019  0.5863  1.8507 -0.7455
   12SOL    HW2   36   0.155   0.819   2.121 -0.8874  0.7599 -1.3711
   13SOL     OW   37   2.374   2.976   3.073 -0.1732  0.8531 -0.3368
   13SOL    HW1   38   2.358   2.881   3.042  0.5101  0.5641 -1.2298
   13SOL    HW2   39   2.440   3.020   3.013 -1.9256 -1.1346  0.7691
   14SOL     OW   40   1.462   1.717   0.288 -0.4420  0.3571  0.6653
   14SOL    HW1   41   1.401   1.732   0.208 -0.1220 -0.7028  0.4280
   14SOL    HW2   42   1.502   1.811   0.316  0.5436  1.7917 -0.7003
   15SOL     OW   43   3.053   2.797   1.972 -0.5388  0.7536  0.3710
   15SOL    HW1   44   0.050   2.738   1.927 -0.8439 -3.3732 -1.6875
   15SOL    HW2   45   2.970   2.800   1.914 -0.7833  0.9145  0.1233
   16SOL     OW   46   2.815   0.504   0.871 -0.3326 -0.0398 -0.5698
   16SOL    HW1   47   2.895   0.477   0.934  1.1977  0.6744  0.7701
   16SOL    HW2   48   2.793   0.422   0.816  0.7516  1.1514 -1.5199
   17SOL     OW   49   0.724   0.562   0.637 -0.7710 -0.2730 -0.0435
   17SOL    HW1   50   0.791   0.574   0.710 -0.4251 -0.5520  1.0042
   17SOL    HW2   51   0.767   0.515   0.562  2.9464  2.2038  0.6469
   18SOL     OW   52   0.901   0.261   0.799 -0.0234 -0.2462  0.1112
   18SOL    HW1   53   0.910   0.222   0.701  0.9495  2.8621 -2.7385
   18SOL    HW2   54   0.928   0.358   0.796  1.6500 -0.7196 -2.3456
   19SOL     OW   55   1.764   1.290   0.625  0.4481  0.2729  0.5133
   19SOL    HW1   56   1.851   1.249   0.662 -0.6666 -2.4038  1.4464
   19SOL    HW2   57   1.760   1.278   0.524 -2.8330 -0.1820 -0.4995
   20SOL     OW   58   2.251   1.650   2.932  0.5991  0.1039  0.5292
   20SOL    HW1   59   2.162   1.642   2.878 -0.8039 -0.8300 -1.3929
   20SOL    HW2   60   2.316   1.716   2.892  1.0091 -3.3276  3.6685
   21SOL     OW   61   1.510   3.015   0.263 -0.3528 -0.1917 -0.6735
   21SOL    HW1   62   1.462   0.021   0.228  0.0397 -0.2573 -0.9809
   21SOL    HW2   63   1.592   2.993   0.203  2.7954  2.8684 -0.4267
   22SOL     OW   64   2.897   0.918   0.503 -0.2660  0.8712 -0.8589
   22SOL    HW1   65   2.803   0.958   0.518 -1.0688 -1.9858  1.3882
   22SOL    HW2   66   2.899   0.819   0.496  0.7811  0.2066 -0.6361
   23SOL     OW   67   0.569   0.272   1.751 -0.2331  0.0828  0.2086
   23SOL    HW1   68   0.669   0.267   1.772  0.5937 -0.2052 -0.7670
   23SOL    HW2   69   0.543   0.358   1.700 -0.7967 -0.3072 -3.2051
   24SOL     OW   70   1.995   2.311   0.655 -0.3049 -0.4481 -0.1126
   24SOL    HW1   71   2.061   2.340   0.733  1.6554  3.1918  2.9751
   24SOL    HW2   72   1.899   2.293   0.691 -1.7721  0.5632  2.4949
   25SOL     OW   73   1.705   0.095   2.329  0.1401 -0.0425 -0.6886
   25SOL    HW1   74   1.756   0.101   2.416 -4.3431 -0.4926 -0.4742
   25SOL    HW2   75   1.739   0.023   2.265 -0.9367  0.2733 -0.8583
   26SOL     OW   76   1.681   2.506   2.927 -0.1167 -0.3502 -0.3445
   26SOL    HW1   77   1.673   2.596   2.880 -2.0109  1.6281 -0.9325
   26SOL    HW2   78   1.600   2.489   2.981 -0.0817  1.5479 -2.6513
   27SOL     OW   79   1.245   0.396   1.298 -0.3600 -0.2923 -0.1092
   27SOL    HW1   80   1.207   0.417   1.207  1.3768 -0.8049 -0.5285
   27SOL    HW2   81   1.314   0.321   1.306  0.8286  0.7357 -0.2776
   28SOL     OW   82   0.767   1.550   0.782  0.1877  0.1218 -0.6181
   28SOL    HW1   83   0.748   1.466   0.729 -0.4069  2.2353  0.5823
   28SOL    HW2   84   0.867   1.565   0.786 -3.8436  0.0153  2.2410
   29SOL     OW   85   2.422   0.503   1.411 -0.2590  0.1480  0.4452
   29SOL    HW1   86   2.374   0.494   1.320 -1.5848  1.3116  0.0239
   29SOL    HW2   87   2.456   0.414   1.442 -2.9253  1.9765  0.5483
   30SOL     OW   88   1.557   2.175   1.504 -0.2436 -0.3690  0.2497
   30SOL    HW1   89   1.651   2.211   1.524  0.1270 -1.5597 -0.1609
   30SOL    HW2   90   1.527   2.200   1.408  0.2791 -1.6928  1.2815
   31SOL     OW   91   1.925   2.679   1.569  0.2887 -0.2446 -0.0188
   31SOL    HW1   92   1.849   2.745   1.565 -0.5727  1.6353 -0.3070
   31SOL    HW2   93   2.008   2.723   1.529 -0.7462 -1.4965 -0.1432
   32SOL     OW   94   2.016   1.405   2.148  0.3427 -0.3333 -0.0150
   32SOL    HW1   95   2.012   1.307   2.176 -0.0904 -1.0711 -0.1836
   32SOL    HW2   96   2.108   1.429   2.109 -0.3784 -1.4655  0.6264
   33SOL     OW   97   2.567   0.562   2.599 -0.2495 -0.3499 -0.0104
   33SOL    HW1   98   2.521   0.604   2.519 -0.1751 -0.8459 -0.5504
   33SOL    HW2   99   2.511   0.552   2.684 -0.0455 -0.8981 -0.7107
   34SOL     OW  100   1.706   0.251   0.638  0.3818 -0.5759 -0.1101
   34SOL    HW1  101   1.668   0.261   0.541  0.9905 -0.1196 -1.0300
   34SOL    HW2  102   1.707   0.343   0.683  2.9294  0.0199  1.9725
   35SOL     OW  103   0.308   2.042   2.115  0.8427  0.0837 -0.0060
   35SOL    HW1  104   0.333   2.111   2.187 -0.5067  0.9017  0.7793
   35SOL    HW2  105   0.209   2.028   2.107 -0.4424 -0.1971 -1.3184
   36SOL     OW  106   2.422   1.867   2.884  0.0471  0.2710 -0.2330
   36SOL    HW1  107   2.387   1.958   2.918 -1.4105  3.0784  4.9873
   36SOL    HW2  108   2.431   1.872   2.784  2.5883 -0.7594 -0.0145
   37SOL     OW  109   1.384   2.995   1.658  0.2780  0.4558  0.5780
   37SOL    HW1  110   1.476   2.962   1.632  1.3947  2.8624 -2.0592
   37SOL    HW2  111   1.355   2.938   1.738  2.3826  1.2680 -1.6362
   38SOL     OW  112   0.645   0.760   2.641  0.2177  0.0011  1.0253
   38SOL    HW1  113   0.575   0.832   2.623 -4.4716  2.4338  0.4213
   38SOL    HW2  114   0.694   0.780   2.730  0.6247  0.2022 -0.1587
   39SOL     OW  115   1.859   0.727   1.359  0.3392  0.0029  0.2432
   39SOL    HW1  116   1.868   0.711   1.259  0.6158  0.6587  2.7762
   39SOL    HW2  117   1.895   0.822   1.386  0.5031  1.7889 -0.2379
   40SOL     OW  118   1.116   2.343   0.847  0.0354 -0.1368  0.0438
   40SOL    HW1  119   1.155   2.283   0.920 -2.8696 -0.1285 -1.4378
   40SOL    HW2  120   1.177   2.425   0.831 -0.5769  0.1372  0.8796
   41SOL     OW  121   2.153   2.136   1.271 -0.3751  0.6303  0.8806
   41SOL    HW1  122   2.174   2.218   1.218 -0.0547 -0.4812  1.4014
   41SOL    HW2  123   2.172   2.054   1.214  0.8758 -0.9917 -1.4244
   42SOL     OW  124   2.384   0.544   0.573 -0.0641  0.1712 -0.0865
   42SOL    HW1  125   2.402   0.616   0.641  0.0287 -0.5978 -2.9678
   42SOL    HW2  126   2.319   0.569   0.500  1.2100 -0.3627 -1.7189
   43SOL     OW  127   1.064   1.300   2.497  0.8897  0.5641 -0.1116
   43SOL    HW1  128   1.006   1.349   2.568  0.5762  0.8770 -0.2207
   43SOL    HW2  129   1.011   1.281   2.412 -0.9598 -1.1963 -0.4452
   44SOL     OW  130   1.742   2.638   1.179  0.6626  0.1247  0.0912
   44SOL    HW1  131   1.654   2.615   1.130  0.3037 -0.1186 -0.6422
   44SOL    HW2  132   1.803   2.555   1.176 -2.9490 -3.2117  0.7986
   45SOL     OW  133   1.095   2.820   2.642  0.1430 -0.2746  0.3488
   45SOL    HW1  134   1.181   2.876   2.636 -1.7181 -1.7528 -0.7279
   45SOL    HW2  135   1.041   2.817   2.551 -2.4316 -1.0586 -1.0004
   46SOL     OW  136   0.592   2.604   1.878  0.1066  0.3234  0.1396
   46SOL    HW1  137   0.629   2.655   1.798  0.5303  0.1787  0.2279
   46SOL    HW2  138   0.666   2.551   1.922  2.3965 -0.4087  0.0522
   47SOL     OW  139   0.812   1.852   0.711 -0.2973  0.8165  0.7160
   47SOL    HW1  140   0.831   1.751   0.720  1.1731 -2.2670  1.0961
   47SOL    HW2  141   0.746   1.881   0.782 -0.5528  0.9108 -1.3225
   48SOL     OW  142   0.911   2.817   1.172 -0.4212  0.5614 -0.1058
   48SOL    HW1  143   0.949   2.819   1.265 -1.4996  2.1076 -3.2983
   48SOL    HW2  144   0.829   2.877   1.160 -0.1330 -0.7695  0.2686
   49SOL     OW  145   3.005   2.944   2.744 -0.0715  0.0866 -0.5910
   49SOL    HW1  146   2.933   2.897   2.691 -0.7536  3.3322  0.4704
   49SOL    HW2  147   2.972   2.951   2.840  2.3761  0.4219  2.0605
   50SOL     OW  148   1.540   1.009   0.472 -0.2171 -0.2264 -0.4711
   50SOL    HW1  149   1.433   1.021   0.465 -1.0232 -2.1273  1.4674
   50SOL    HW2  150   1.567   0.958   0.392 -1.3565  2.6755  1.2059
   51SOL     OW  151   1.986   0.022   0.380  0.2276  0.4055  0.1086
   51SOL    HW1  152   2.030   3.007   0.350 -1.0146  1.2160 -1.3089
   51SOL    HW2  153   1.957   0.021   0.476  2.4003 -0.9486  0.4852
   52SOL     OW  154   0.947   1.573   0.395 -0.1268  0.0334  0.3273
   52SOL    HW1  155   0.973   1.642   0.325  0.8441 -1.3500  2.3596
   52SOL    HW2  156   1.031   1.535   0.440 -0.3049  0.6025  2.0353
   53SOL     OW  157   0.295   1.139   2.682 -0.5108  0.1040  0.3260
   53SOL    HW1  158   0.342   1.098   2.765 -1.0293 -1.5610 -0.7551
   53SOL    HW2  159   0.336   1.231   2.658  1.1314 -0.6543  1.6235
   54SOL     OW  160   2.644   2.117   0.073 -0.4296 -0.2108 -0.0559
   54SOL    HW1  161   2.729   2.065   0.064  0.4822 -1.7635 -0.5970
   54SOL    HW2  162   2.570   2.056   0.108 -0.1071  0.6448 -1.5213
   55SOL     OW  163   2.367   2.352   1.474 -0.5080 -0.2509 -0.3371
   55SOL    HW1  164   2.433   2.395   1.542  2.0663  1.6519  1.4151
   55SOL    HW2  165   2.273   2.363   1.511  1.7226  1.2394  0.0254
   56SOL     OW  166   1.494   2.996   1.287 -0.5912 -0.4646 -0.4541
   56SOL    HW1  167   1.513   2.902   1.316 -0.0152  2.9484  1.0549
   56SOL    HW2  168   1.498   3.007   1.187  0.6240 -1.0531  0.1176
   57SOL     OW  169   1.525   1.688   0.952  0.8387  0.2516  0.8293
   57SOL    HW1  170   1.496   1.633   0.868  0.6217  0.5018 -1.2354
   57SOL    HW2  171   1.441   1.687   1.013  0.0034 -0.8701 -2.3724
   58SOL     OW  172   2.415   0.190   1.749  0.2613  1.1882 -0.2103
   58SOL    HW1  173   2.358   0.235   1.824 -0.6648 -0.5033  1.6297
   58SOL    HW2  174   2.359   0.116   1.709 -1.8800  0.1654 -1.2005
   59SOL     OW  175   1.069   2.536   2.135  0.0861  0.2713  0.0756
   59SOL    HW1  176   1.089   2.619   2.199 -0.2268 -1.4160  4.4260
   59SOL    HW2  177   0.974   2.527   2.112  2.7468  1.6449 -0.5924
   60SOL     OW  178   0.693   0.110   2.512  0.3227  0.4970 -0.0475
   60SOL    HW1  179   0.630   0.168   2.451 -0.3427  0.0285  0.5509
   60SOL    HW2  180   0.691   0.145   2.607 -0.2480 -1.1675  2.2926
   61SOL     OW  181   0.754   2.143   0.594 -0.4892 -0.1935 -0.0194
   61SOL    HW1  182   0.794   2.210   0.529  3.4335  0.3916 -1.2266
   61SOL    HW2  183   0.823   2.066   0.613  0.6601 -3.7055 -0.0214
   62SOL     OW  184   1.202   1.608   2.080  0.5034  0.2929  0.3931
   62SOL    HW1  185   1.136   1.575   2.010  0.3094  3.1753  0.5932
   62SOL    HW2  186   1.156   1.658   2.159 -0.3984 -0.0281  0.9737
   63SOL     OW  187   1.029   1.601   0.783 -0.3714 -0.1731 -0.2661
   63SOL    HW1  188   1.065   1.615   0.877  1.8648  0.4193 -0.0296
   63SOL    HW2  189   1.074   1.659   0.714 -0.4646  1.6278 -0.2111
   64SOL     OW  190   1.413   1.369   2.976 -0.3354 -0.2041 -0.7853
   64SOL    HW1  191   1.406   1.459   2.924  0.2571  0.0497 -1.3406
   64SOL    HW2  192   1.415   1.379   0.001  0.1123 -0.5619 -0.2427
   65SOL     OW  193   1.695   2.226   2.248 -0.2267 -0.1668 -0.1027
   65SOL    HW1  194   1.667   2.130   2.223  1.3141 -2.5918 -2.4079
   65SOL    HW2  195   1.751   2.221   2.333 -0.4119 -0.6378  1.5422
   66SOL     OW  196   0.125   0.958   0.845 -0.1062 -0.0129 -0.6253
   66SOL    HW1  197   0.216   0.923   0.879  1.0694 -0.1408  2.4612
   66SOL    HW2  198   0.113   0.950   0.746 -0.5511 -1.7263  1.9686
   67SOL     OW  199   2.223   2.611   0.361 -0.4095 -0.0441 -0.1164
   67SOL    HW1  200   2.164   2.604   0.441  1.7362  1.1645 -0.0934
   67SOL    HW2  201   2.208   2.529   0.302  0.4301 -0.1104 -1.5686
   68SOL     OW  202   2.568   2.476   1.621 -0.2877 -0.5552 -0.0474
   68SOL    HW1  203   2.643   2.536   1.583 -0.1635  0.3054 -1.5207
   68SOL    HW2  204   2.565   2.479   1.724 -0.8442 -1.1431 -0.3433
   69SOL     OW  205   2.504   2.472   2.661  0.2100 -0.1391 -0.7867
   69SOL    HW1  206   2.605   2.480   2.634  0.5222  1.7415 -0.7705
   69SOL    HW2  207   2.442   2.528   2.605 -0.2519  1.7679  2.9997
   70SOL     OW  208   0.437   1.338   2.542 -0.2634 -0.3174  0.0666
   70SOL    HW1  209   0.358   1.388   2.503 -1.7692  1.4958  1.3760
   70SOL    HW2  210   0.520   1.324   2.481  0.1604 -0.7653  0.0640
   71SOL     OW  211   0.955   1.150   2.188  0.5408  0.6544 -0.4321
   71SOL    HW1  212   0.857   1.150   2.204 -2.1226 -1.2924  0.1521
   71SOL    HW2  213   0.968   1.190   2.097 -0.0616  1.3636  0.8266
   72SOL     OW  214   2.637   1.423   1.999 -0.4547 -0.1761  0.0623
   72SOL    HW1  215   2.645   1.318   2.013  2.6941 -0.6893  0.9885
   72SOL    HW2  216   2.716   1.459   1.941  0.2618 -0.8514  0.7010
   73SOL     OW  217   0.690   1.803   2.880  0.2358  0.3773  0.1431
   73SOL    HW1  218   0.622   1.840   2.816  0.0547  0.3105  0.1029
   73SOL    HW2  219   0.664   1.707   2.903  0.0369  1.5242 -1.1954
   74SOL     OW  220   1.531   2.660   1.735 -0.6002 -0.6334 -0.0666
   74SOL    HW1  221   1.600   2.585   1.732 -0.3263  0.5373 -0.2430
   74SOL    HW2  222   1.506   2.675   1.833 -0.7850  1.9816  0.3848
   75SOL     OW  223   1.096   2.807   0.499  0.2340  0.2462  0.2590
   75SOL    HW1  224   1.193   2.806   0.532 -1.6346  0.9416  0.7228
   75SOL    HW2  225   1.071   2.888   0.440 -2.8065  0.7527 -1.5786
   76SOL     OW  226   0.166   1.811   2.695 -0.5948  0.6274  0.4489
   76SOL    HW1  227   0.172   1.888   2.755 -1.4723 -2.9396  0.0041
   76SOL    HW2  228   0.137   1.724   2.736  0.7278  1.5897  0.4100
   77SOL     OW  229   0.189   2.680   1.145 -0.0692  0.4472  0.2145
   77SOL    HW1  230   0.135   2.766   1.156  0.2889  3.1417 -0.5056
   77SOL    HW2  231   0.277   2.670   1.202  2.4828 -0.8331  1.9942
   78SOL     OW  232   2.520   1.053   0.301 -0.1859  0.2292 -0.0915
   78SOL    HW1  233   2.594   1.055   0.228  2.6424 -1.2636 -2.7615
   78SOL    HW2  234   2.559   1.079   0.393 -0.9851  2.3076  3.4968
   79SOL     OW  235   0.576   1.571   2.950 -0.3326  0.6127  0.4434
   79SOL    HW1  236   0.481   1.554   2.918 -0.7989  3.5677 -0.0994
   79SOL    HW2  237   0.635   1.490   2.928  1.1771 -1.9371 -2.0942
   80SOL     OW  238   1.637   1.658   1.372  0.1513 -0.5038  0.4424
   80SOL    HW1  239   1.688   1.646   1.459  1.8640  1.3551 -1.3477
   80SOL    HW2  240   1.580   1.580   1.343  0.4435  1.3193  0.6961
   81SOL     OW  241   2.092   0.831   2.304 -0.4947  0.0323 -0.2859
   81SOL    HW1  242   2.081   0.759   2.237  1.2912  2.6869  2.0107
   81SOL    HW2  243   2.000   0.874   2.321 -0.4014  1.4716 -0.4396
   82SOL     OW  244   1.693   1.368   1.489 -0.4229 -0.2117  0.0331
   82SOL    HW1  245   1.616   1.416   1.442  2.6337 -0.6090 -1.6023
   82SOL    HW2  246   1.708   1.393   1.589 -0.3693  0.6967 -2.7385
   83SOL     OW  247   0.121   0.345   3.035 -0.1125  0.3919 -0.3138
   83SOL    HW1  248   0.112   0.280   2.959  1.2566 -0.5433 -0.1873
   83SOL    HW2  249   0.089   0.302   0.048 -1.0704 -0.3151  0.1995
   84SOL     OW  250   0.492   1.353   0.085  0.1889  0.2828  0.5993
   84SOL    HW1  251   0.552   1.383   0.007 -1.2335 -3.5335 -1.3864
   84SOL    HW2  252   0.401   1.312   0.052 -0.9264 -0.2136 -2.5955
   85SOL     OW  253   2.175   1.673   1.782  0.7805  0.3558 -0.2448
   85SOL    HW1  254   2.251   1.605   1.802 -1.3390  0.9124  0.7485
   85SOL    HW2  255   2.150   1.717   1.871  0.8141  0.2910  2.2321
   86SOL     OW  256   0.663   0.842   1.123  0.0166  0.0480  0.5871
   86SOL    HW1  257   0.740   0.864   1.064 -3.0376  1.6884  2.3968
   86SOL    HW2  258   0.643   0.746   1.107  0.2732  0.1639  0.0849
   87SOL     OW  259   2.525   2.062   2.491  0.3195  0.0196 -0.8141
   87SOL    HW1  260   2.598   2.061   2.423 -2.1193  0.6213  0.0810
   87SOL    HW2  261   2.451   2.124   2.454 -0.5818  2.0509 -0.7127
   88SOL     OW  262   0.199   2.743   0.286  0.3054 -0.2302 -0.2467
   88SOL    HW1  263   0.273   2.677   0.305 -0.2878  3.6536  2.3417
   88SOL    HW2  264   0.231   2.842   0.284  0.9584  1.9283  1.0198
   89SOL     OW  265   1.547   0.592   0.017  0.3269  0.2148 -0.1270
   89SOL    HW1  266   1.530   0.525   3.018 -1.3315 -0.9328 -2.2549
   89SOL    HW2  267   1.644   0.596   0.041 -2.2817  0.6830  2.4266
   90SOL     OW  268   2.869   1.412   2.380 -0.7078  0.2692 -0.3274
   90SOL    HW1  269   2.783   1.436   2.423 -0.6662  1.2618  0.5227
   90SOL    HW2  270   2.943   1.434   2.446  0.0950 -0.4104  1.7245
   91SOL     OW  271   2.122   2.839   1.179 -0.5929 -0.1192  0.4246
   91SOL    HW1  272   2.143   2.932   1.135 -0.2790  0.7598  0.4065
   91SOL    HW2  273   2.027   2.844   1.221 -1.6300 -0.9342  2.4197
   92SOL     OW  274   2.259   1.209   1.094  0.0149 -0.0149  0.2411
   92SOL    HW1  275   2.279   1.271   1.018 -0.1316  1.0675  0.9337
   92SOL    HW2  276   2.193   1.135   1.071 -1.2764 -1.1109  0.3382
   93SOL     OW  277   0.394   1.343   0.338  0.2244 -0.2608 -0.1815
   93SOL    HW1  278   0.440   1.372   0.254  1.0843 -0.7143  0.6295
   93SOL    HW2  279   0.370   1.246   0.336  0.9253 -0.1159  0.4441
   94SOL     OW  280   1.162   2.490   1.576  0.5549 -0.0807  0.3794
   94SOL    HW1  281   1.122   2.468   1.669 -0.7096 -2.4632  1.6623
   94SOL    HW2  282   1.257   2.452   1.572  0.6437  0.2167  1.1216
   95SOL     OW  283   0.253   0.650   0.480 -0.0693  0.0544 -0.3415
   95SOL    HW1  284   0.337   0.713   0.477  3.6209 -0.5339 -0.1049
   95SOL    HW2  285   0.190   0.675   0.554  1.4124  0.7512  0.6150
   96SOL     OW  286   3.015   2.965   1.622  0.4220 -0.1085  0.1750
   96SOL    HW1  287   2.931   2.923   1.658 -0.4896  2.1943 -0.7691
   96SOL    HW2  288   3.041   2.910   1.545  0.4547  0.3678  1.7406
   97SOL     OW  289   2.268   0.311   1.211  0.3162 -0.5998 -0.7487
   97SOL    HW1  290   2.205   0.376   1.161  1.4416  0.5595  1.1536
   97SOL    HW2  291   2.355   0.307   1.159 -0.2931 -2.2781  1.5690
   98SOL     OW  292   2.715   2.228   1.531 -0.3176 -0.0748  0.3794
   98SOL    HW1  293   2.685   2.303   1.592  1.8226 -2.6001 -0.9345
   98SOL    HW2  294   2.787   2.181   1.580 -1.1586  0.9953 -1.6159
   99SOL     OW  295   0.018   0.433   1.226 -0.8218 -0.0362 -0.7484
   99SOL    HW1  296   0.117   0.452   1.217 -1.2679 -3.9309 -0.4877
   99SOL    HW2  297   3.066   0.429   1.326 -2.8577  2.5045  0.4029
  100SOL     OW  298   2.021   0.334   2.571  0.3724 -0.1875  0.4832
  100SOL    HW1  299   2.109   0.290   2.570 -1.9723  0.2669 -0.5866
  100SOL    HW2  300   2.029   0.428   2.536 -0.4172 -0.6086  0.4005
  101SOL     OW  301   0.708   2.981   2.170  0.5049  0.5490 -0.1053
  101SOL    HW1  302   0.774   2.921   2.119 -0.4270  0.3772  0.6996
  101SOL    HW2  303   0.713   2.953   2.267 -0.8198  3.1650  0.8761
  102SOL     OW  304   0.500   0.495   1.627  0.1307 -0.1558 -0.3401
  102SOL    HW1  305   0.592   0.538   1.620  0.3985 -0.6406  2.3435
  102SOL    HW2  306   0.434   0.571   1.603  2.6067  1.7785  1.1506
  103SOL     OW  307   1.161   0.876   2.580 -0.3709  0.6677 -0.8248
  103SOL    HW1  308   1.176   0.780   2.609 -1.1405  0.1783  0.3974
  103SOL    HW2  309   1.140   0.885   2.479  1.3366 -0.1683 -1.3646
  104SOL     OW  310   0.167   0.350   1.854 -0.0195 -0.0884 -0.8939
  104SOL    HW1  311   0.069   0.354   1.878 -1.6395  0.2401  1.7132
  104SOL    HW2  312   0.212   0.269   1.897 -0.8278  2.3149 -2.2537
  105SOL     OW  313   2.303   2.099   1.685 -0.1163  0.0628  0.5637
  105SOL    HW1  314   2.405   2.101   1.685  1.7923  3.1373  0.5808
  105SOL    HW2  315   2.270   2.106   1.780  0.4788 -0.2097 -0.7038
  106SOL     OW  316   1.059   3.031   0.372 -0.4139 -0.5627  0.1638
  106SOL    HW1  317   1.002   0.021   0.323  0.3679 -1.5603 -0.2495
  106SOL    HW2  318   1.149   0.006   0.395  1.4325  1.6382 -1.1325
  107SOL     OW  319   2.582   1.856   1.359 -0.0288  0.0365  0.4199
  107SOL    HW1  320   2.553   1.940   1.410 -2.3604 -3.5238 -0.7806
  107SOL    HW2  321   2.555   1.863   1.265 -0.0324  0.5939  1.4921
  108SOL     OW  322   2.990   2.227   0.684  0.1033 -0.2883 -0.2983
  108SOL    HW1  323   3.051   2.203   0.605 -1.0320 -2.9142 -0.8436
  108SOL    HW2  324   3.048   2.264   0.762  0.7993 -0.5004 -3.0830
  109SOL     OW  325   1.511   3.011   0.544  0.0256  0.3171  0.4997
  109SOL    HW1  326   1.525   3.020   0.442  0.9401  1.9896 -1.2233
  109SOL    HW2  327   1.596   2.971   0.582  1.2949  2.6958 -3.3242
  110SOL     OW  328   1.993   1.281   0.985 -0.1560  0.1787  0.3588
  110SOL    HW1  329   2.020   1.277   0.885  0.8274 -1.7558  1.6754
  110SOL    HW2  330   1.893   1.296   0.992  1.2497 -0.4535 -2.1037
  111SOL     OW  331   1.484   2.302   1.923 -0.2230  0.2251 -0.0705
  111SOL    HW1  332   1.576   2.278   1.885 -1.5943 -1.2578  0.6386
  111SOL    HW2  333   1.481   2.313   2.024 -0.7204  0.3872  2.9762
  112SOL     OW  334   1.981   2.154   3.001 -0.4789 -0.0658  0.3148
  112SOL    HW1  335   2.066   2.209   3.006 -0.1895 -0.7811 -0.7930
  112SOL    HW2  336   2.005   2.056   2.996  1.2854  0.0478 -0.4188
  113SOL     OW  337   2.061   1.884   1.678 -0.4980 -0.0104  0.3182
  113SOL    HW1  338   2.122   1.824   1.726  1.2471  2.8858  0.0092
  113SOL    HW2  339   2.099   1.906   1.584 -0.4548 -0.8835  0.9615
  114SOL     OW  340   0.045   1.176   1.585 -0.1402  0.4357  0.1710
  114SOL    HW1  341   0.071   1.094   1.527  1.7297 -2.0825 -0.7940
  114SOL    HW2  342   0.067   1.265   1.542  0.3724  0.6651 -1.8031
  115SOL     OW  343   2.858   0.685   2.990  0.9133  0.0510 -0.4868
  115SOL    HW1  344   2.864   0.740   2.905  2.6434 -0.0357  1.3344
  115SOL    HW2  345   2.838   0.741   3.074  1.6601 -1.2305 -0.1008
  116SOL     OW  346   2.801   0.405   2.957  0.0944  0.8125 -0.2312
  116SOL    HW1  347   2.824   0.493   2.999 -1.7941  1.1730  0.6051
  116SOL    HW2  348   2.792   0.413   2.855  1.2448 -2.3257 -2.8756
  117SOL     OW  349   2.697   2.378   0.125  0.0347 -0.3809  0.2225
  117SOL    HW1  350   2.774   2.423   0.076  2.1880 -0.4217  0.2216
  117SOL    HW2  351   2.682   2.280   0.101 -0.0782  0.2980  1.2237
  118SOL     OW  352   0.554   2.189   2.362 -0.2302 -0.9597 -0.0930
  118SOL    HW1  353   0.584   2.196   2.460 -1.0057 -0.7241  2.4995
  118SOL    HW2  354   0.471   2.247   2.339  1.4639  2.1660 -0.7570
  119SOL     OW  355   0.748   2.764   0.457  0.0685 -0.3490  0.2138
  119SOL    HW1  356   0.786   2.673   0.449 -3.6136  3.8995  0.0986
  119SOL    HW2  357   0.753   2.793   0.551 -1.0685  0.2787 -4.0644
  120SOL     OW  358   1.366   0.733   0.385 -0.2073  0.0404  0.0305
  120SOL    HW1  359   1.383   0.703   0.476 -3.1735  1.9811 -0.2235
  120SOL    HW2  360   1.373   0.661   0.313 -0.7705 -0.8168 -0.0257
  121SOL     OW  361   1.502   0.113   0.762 -0.0586  0.3430  0.4539
  121SOL    HW1  362   1.477   0.046   0.687 -2.4434 -1.2417 -1.9346
  121SOL    HW2  363   1.577   0.178   0.732  0.5258  0.5966  0.5130
  122SOL     OW  364   2.261   1.483   2.085  0.3320  0.0830 -0.2935
  122SOL    HW1  365   2.297   1.433   2.001  2.1493 -1.0935 -0.0509
  122SOL    HW2  366   2.324   1.497   2.161  0.1828  1.6748 -0.8215
  123SOL     OW  367   1.406   1.025   1.170  0.3884 -0.4647 -0.1089
  123SOL    HW1  368   1.425   0.971   1.086  0.8901  0.3624  0.9066
  123SOL    HW2  369   1.329   0.980   1.224 -2.1497 -0.8821  0.5688
  124SOL     OW  370   0.515   0.718   2.961 -0.0717  0.7438  0.3457
  124SOL    HW1  371   0.470   0.671   2.883  1.4122  0.1808  0.6685
  124SOL    HW2  372   0.600   0.770   2.933  2.0163  0.4167  0.8755
  125SOL     OW  373   0.709   0.434   0.236 -0.5822 -0.3754  0.2041
  125SOL    HW1  374   0.770   0.442   0.315  2.2958 -1.4315 -3.1957
  125SOL    HW2  375   0.670   0.341   0.241  3.1591 -0.8107  2.5383
  126SOL     OW  376   0.261   1.624   0.540  0.0634  0.3536 -0.2876
  126SOL    HW1  377   0.271   1.722   0.564  0.4004 -0.6383  0.3234
  126SOL    HW2  378   0.347   1.570   0.552 -0.0778  0.6885  1.5959
  127SOL     OW  379   0.800   2.678   1.665  0.3347  0.3427  0.5327
  127SOL    HW1  380   0.719   2.719   1.619  2.6291  0.4042  2.7679
  127SOL    HW2  381   0.878   2.742   1.650 -2.3621 -0.6346 -0.7625
  128SOL     OW  382   1.037   1.945   0.369  0.0406  0.7765 -0.1521
  128SOL    HW1  383   0.983   1.870   0.329  2.2589  2.0592 -2.6413
  128SOL    HW2  384   1.098   1.910   0.446  2.1782 -3.4238 -0.2058
  129SOL     OW  385   1.710   1.466   1.742 -0.0409  0.1158  0.2235
  129SOL    HW1  386   1.735   1.544   1.679 -1.1031  0.0433 -2.2204
  129SOL    HW2  387   1.733   1.488   1.839  1.4781  1.4562 -0.9289
  130SOL     OW  388   1.898   2.147   1.328 -0.2927  0.6425  0.3366
  130SOL    HW1  389   1.992   2.121   1.297 -1.5313 -1.5696  0.0331
  130SOL    HW2  390   1.834   2.126   1.253 -0.5752 -1.3302 -0.6024
  131SOL     OW  391   0.206   2.399   2.019 -0.8164 -0.4327  0.3144
  131SOL    HW1  392   0.150   2.341   1.956 -1.9072  0.4106 -0.3152
  131SOL    HW2  393   0.272   2.457   1.968  1.4703 -1.7862  0.4747
  132SOL     OW  394   2.571   1.958   0.753  0.6880 -0.5294 -0.3912
  132SOL    HW1  395   2.666   1.946   0.779 -2.5268  0.2356 -0.3860
  132SOL    HW2  396   2.539   2.049   0.790 -1.6118  2.6932  0.1102
  133SOL     OW  397   0.551   0.871   1.691  0.3562  0.6689  0.3115
  133SOL    HW1  398   0.618   0.946   1.706 -2.3834 -2.3870 -0.2241
  133SOL    HW2  399   0.560   0.797   1.764  1.0735 -3.8914 -0.1553
  134SOL     OW  400   2.456   1.534   0.271 -0.1665 -0.4881  0.4242
  134SOL    HW1  401   2.524   1.515   0.193 -0.3778  0.1276 -2.2689
  134SOL    HW2  402   2.507   1.591   0.342  0.9951  1.9948  1.4293
  135SOL     OW  403   1.886   1.032   2.404 -0.2260  0.2322 -0.0142
  135SOL    HW1  404   1.785   1.024   2.399  0.0401  1.8852  0.2088
  135SOL    HW2  405   1.922   0.982   2.484 -0.2367 -1.0421  0.8048
  136SOL     OW  406   2.994   1.760   1.324  0.0703 -0.3158  0.3985
  136SOL    HW1  407   0.003   1.758   1.383 -1.6696 -0.2351  2.0978
  136SOL    HW2  408   2.916   1.756   1.388  4.3361 -0.5050  1.1124
  137SOL     OW  409   2.453   1.747   0.644 -0.4660  0.1843  0.1602
  137SOL    HW1  410   2.430   1.667   0.706  1.3071  0.7647  0.7704
  137SOL    HW2  411   2.512   1.820   0.694  0.6394  2.7990  1.5335
  138SOL     OW  412   2.835   0.655   0.494 -0.4853 -0.3713 -0.1687
  138SOL    HW1  413   2.757   0.648   0.431  2.8916  0.7544 -1.5561
  138SOL    HW2  414   2.886   0.569   0.510  1.4115  0.0989  1.1386
  139SOL     OW  415   2.941   3.000   3.019  0.4155  0.3798 -0.2608
  139SOL    HW1  416   2.902   2.937   0.011 -0.5614  3.2957 -0.7426
  139SOL    HW2  417   2.937   0.023   3.042  1.8359 -0.9058 -4.5295
  140SOL     OW  418   0.761   1.077   1.680  0.3889 -0.3847 -0.2567
  140SOL    HW1  419   0.700   1.095   1.757  2.0741 -1.9348  0.4772
  140SOL    HW2  420   0.762   1.160   1.620 -0.3950  0.7204  2.2946
  141SOL     OW  421   1.467   1.399   1.039  0.2480 -0.3078  0.1071
  141SOL    HW1  422   1.421   1.360   1.120  0.7608  1.5924 -1.1471
  141SOL    HW2  423   1.432   1.494   1.040  1.1191  1.7013  1.0128
  142SOL     OW  424   1.519   0.631   1.067 -0.1108 -0.1330 -0.0705
  142SOL    HW1  425   1.533   0.534   1.041  1.3547  0.8627  0.8802
  142SOL    HW2  426   1.529   0.654   1.169 -0.5603  1.8125  3.3948
  143SOL     OW  427   0.779   1.108   2.585 -0.0455 -0.0666  0.0143
  143SOL    HW1  428   0.765   1.190   2.643 -1.7983 -2.6961 -1.3881
  143SOL    HW2  429   0.690   1.057   2.587 -0.1679 -0.1993  1.2341
  144SOL     OW  430   2.443   3.006   0.272 -0.3346 -0.3144  1.1344
  144SOL    HW1  431   2.537   3.045   0.283  0.4955 -0.1882 -2.9535
  144SOL    HW2  432   2.418   2.999   0.179 -0.5531 -1.1881  1.6595
  145SOL     OW  433   2.434   0.530   2.836 -0.8260 -0.0578  0.3120
  145SOL    HW1  434   2.333   0.519   2.842  3.2744  0.4390  2.0222
  145SOL    HW2  435   2.482   0.500   2.925 -0.3786 -0.4846 -0.0856
  146SOL     OW  436   3.012   2.808   0.275  0.3721 -0.1270  0.3421
  146SOL    HW1  437   2.945   2.765   0.208  1.1549 -1.0293  2.7711
  146SOL    HW2  438   0.025   2.756   0.275  0.8491 -0.3605  1.0286
  147SOL     OW  439   1.294   1.156   2.867 -0.2503  0.1298  0.2042
  147SOL    HW1  440   1.320   1.249   2.892 -1.5216 -1.6493  1.8748
  147SOL    HW2  441   1.313   1.136   2.768 -0.0471  0.6542  1.1699
  148SOL     OW  442   1.393   0.182   0.198 -0.2379 -0.4627 -0.5265
  148SOL    HW1  443   1.440   0.205   0.111 -0.1585 -0.2907  0.8217
  148SOL    HW2  444   1.294   0.177   0.178  0.2038  0.9719 -2.0182
  149SOL     OW  445   1.649   0.369   1.816  0.5729  0.1578  0.1502
  149SOL    HW1  446   1.616   0.331   1.904 -1.8659  1.3427 -1.1350
  149SOL    HW2  447   1.710   0.444   1.846  0.7567  0.3814 -0.8000
  150SOL     OW  448   1.965   3.021   2.884  0.7520 -0.6175  0.7159
  150SOL    HW1  449   2.009   3.012   2.974 -1.8693  2.9905  1.1845
  150SOL    HW2  450   2.038   3.031   2.810  0.2625  0.9082 -1.1644
  151SOL     OW  451   0.518   1.689   0.104  0.2776 -0.6682 -0.7282
  151SOL    HW1  452   0.420   1.681   0.110  1.6085  3.8819 -1.4708
  151SOL    HW2  453   0.556   1.640   0.026  0.1982  2.6286  1.8582
  152SOL     OW  454   0.293   0.537   1.207 -0.3558 -0.0215 -0.1384
  152SOL    HW1  455   0.294   0.630   1.240 -4.2892 -2.7433 -1.4990
  152SOL    HW2  456   0.330   0.477   1.278 -2.7053 -0.4138 -1.8287
  153SOL     OW  457   2.598   2.789   2.338 -0.3933  0.3399 -0.0379
  153SOL    HW1  458   2.597   2.891   2.325 -3.5144 -3.2583 -0.8890
  153SOL    HW2  459   2.510   2.760   2.304  2.4395  0.9358  1.4924
  154SOL     OW  460   2.060   0.056   2.357  0.6795  0.0848 -0.0048
  154SOL    HW1  461   1.987   0.022   2.300 -0.7021  1.7910  1.6828
  154SOL    HW2  462   2.023   0.079   2.451  1.4787 -0.8246  1.8291
  155SOL     OW  463   0.495   1.094   0.622 -0.5360  0.6221  0.5724
  155SOL    HW1  464   0.394   1.099   0.612  1.4132 -0.3286  0.6557
  155SOL    HW2  465   0.527   1.157   0.695 -0.8640 -0.0372 -1.6713
  156SOL     OW  466   2.343   1.584   0.829  0.1784  0.1418 -0.4237
  156SOL    HW1  467   2.368   1.574   0.926  2.6345  2.7639 -2.0487
  156SOL    HW2  468   2.246   1.617   0.816 -0.0345 -0.5440  1.2478
  157SOL     OW  469   0.905   0.407   0.046 -0.5859  0.6799 -0.5704
  157SOL    HW1  470   0.870   0.324   3.074  1.0947  0.0257 -2.3305
  157SOL    HW2  471   0.844   0.425   0.124  0.1777  2.0005  0.1442
  158SOL     OW  472   1.837   0.984   1.041 -0.3512 -0.1494  0.0530
  158SOL    HW1  473   1.776   1.030   0.983 -0.2290  2.0543  4.1420
  158SOL    HW2  474   1.845   0.888   1.013 -0.0914 -0.1710  0.7161
  159SOL     OW  475   0.129   0.299   0.232  0.2804 -0.0987  0.6230
  159SOL    HW1  476   0.091   0.389   0.266 -1.7755 -2.2239 -0.2579
  159SOL    HW2  477   0.230   0.302   0.206  2.0841 -1.0976  0.2831
  160SOL     OW  478   2.264   2.196   1.934 -0.1056 -0.0459 -0.4162
  160SOL    HW1  479   2.172   2.153   1.952 -1.1068  2.1764  0.1436
  160SOL    HW2  480   2.253   2.296   1.919 -0.5225 -0.0547 -0.6457
  161SOL     OW  481   0.393   0.992   2.898  0.0134 -0.3659  0.4365
  161SOL    HW1  482   0.450   0.964   2.976 -0.9597  2.1496  0.4867
  161SOL    HW2  483   0.311   0.932   2.897 -0.9038  2.2861  0.1842
  162SOL     OW  484   0.395   0.481   1.909 -0.1469  0.1187 -0.0794
  162SOL    HW1  485   0.441   0.491   1.822 -1.9678 -2.1633  2.6531
  162SOL    HW2  486   0.297   0.445   1.895 -2.3767 -1.4622 -3.2197
  163SOL     OW  487   2.541   0.305   2.466 -0.5423  0.4856 -0.4552
  163SOL    HW1  488   2.560   0.393   2.518  0.2544  1.8428  2.8246
  163SOL    HW2  489   2.629   0.260   2.437 -0.4110  2.8767 -0.2935
  164SOL     OW  490   2.453   1.959   0.171 -0.2445  0.6019  0.1075
  164SOL    HW1  491   2.373   1.900   0.143  1.3761 -0.4561  1.2755
  164SOL    HW2  492   2.493   1.923   0.259  0.1669 -0.2782 -1.3650
  165SOL     OW  493   0.340   0.029   1.007  0.0780 -0.1370  0.2499
  165SOL    HW1  494   0.385   0.100   0.957 -2.4403 -1.2920  3.5430
  165SOL    HW2  495   0.389   0.004   1.095  2.6016  0.5858  1.5375
  166SOL     OW  496   2.558   0.253   0.217  0.5719  0.2788  0.2634
  166SOL    HW1  497   2.622   0.170   0.215 -1.2731 -0.7726  0.2549
  166SOL    HW2  498   2.582   0.312   0.297 -0.0884 -0.0516 -0.3546
  167SOL     OW  499   2.457   0.669   0.030 -0.4200  0.0654  0.2297
  167SOL    HW1  500   2.512   0.583   0.018 -1.0088 -2.1984 -2.2842
  167SOL    HW2  501   2.359   0.636   0.047 -1.1163 -3.2487 -0.5116
  168SOL     OW  502   1.368   2.855   2.186 -0.6751 -0.5314 -0.0133
  168SOL    HW1  503   1.274   2.836   2.219 -2.0740  0.7177  1.5357
  168SOL    HW2  504   1.370   2.938   2.126  0.7028  0.5947 -1.7879
  169SOL     OW  505   0.329   1.899   0.590  0.2201  0.0826 -0.2202
  169SOL    HW1  506   0.236   1.929   0.623 -1.6150 -1.4382  0.7980
  169SOL    HW2  507   0.394   1.919   0.664 -0.9662 -1.3109 -0.0042
  170SOL     OW  508   3.073   0.706   1.218 -0.0489  0.0275  0.1442
  170SOL    HW1  509   3.054   0.606   1.209  0.8763 -0.7562  3.3923
  170SOL    HW2  510   2.985   0.750   1.238  1.9860  0.2986 -3.9783
  171SOL     OW  511   2.596   1.472   2.476  0.1035  0.0128 -0.2888
  171SOL    HW1  512   2.613   1.376   2.512  1.6175 -0.7551  1.6108
  171SOL    HW2  513   2.520   1.478   2.409 -0.0760 -1.9651  0.4756
  172SOL     OW  514   0.763   1.624   1.320  0.0332  0.4525 -0.7221
  172SOL    HW1  515   0.779   1.579   1.233 -1.6078  2.2070  0.6759
  172SOL    HW2  516   0.833   1.590   1.387  1.9265 -2.5425  0.8972
  173SOL     OW  517   2.044   1.901   0.001  0.1792 -0.1054 -0.0443
  173SOL    HW1  518   2.141   1.875   0.017  0.7204  1.0885 -0.8073
  173SOL    HW2  519   1.998   1.895   0.089  0.9376  2.2207 -1.4124
  174SOL     OW  520   1.828   0.815   2.868 -0.1996 -0.0972  0.1372
  174SOL    HW1  521   1.736   0.865   2.841 -1.6545  0.2636 -3.3246
  174SOL    HW2  522   1.816   0.770   2.958 -1.3189  2.3380 -1.0988
  175SOL     OW  523   0.557   1.879   1.726 -0.3703 -0.0452  0.6589
  175SOL    HW1  524   0.622   1.955   1.715  0.9873 -2.0205 -1.1147
  175SOL    HW2  525   0.518   1.871   1.817  2.0752  2.9621 -2.3043
  176SOL     OW  526   0.617   0.180   0.286 -0.4178 -0.0690  0.1872
  176SOL    HW1  527   0.609   0.169   0.385  1.7465 -0.1211 -1.8806
  176SOL    HW2  528   0.546   0.123   0.241  1.7005  0.8430 -0.2841
  177SOL     OW  529   0.139   1.475   0.365 -0.4434 -0.3286  0.5129
  177SOL    HW1  530   0.143   1.555   0.426 -1.4856 -0.6298 -1.4398
  177SOL    HW2  531   0.225   1.421   0.368 -1.5996  0.2115  1.1314
  178SOL     OW  532   2.955   2.241   2.626 -0.1435  0.1649 -0.1708
  178SOL    HW1  533   3.055   2.234   2.656  1.1470 -0.6291 -0.5356
  178SOL    HW2  534   2.947   2.239   2.523 -0.5423 -0.5666  0.6048
  179SOL     OW  535   2.656   2.820   2.779 -0.0645  0.4686  0.1264
  179SOL    HW1  536   2.703   2.850   2.693  0.5415  1.7738 -1.0793
  179SOL    HW2  537   2.626   2.907   2.830 -0.4714 -0.0132  1.8300
  180SOL     OW  538   2.277   0.505   0.831  0.2544 -0.5735 -0.2132
  180SOL    HW1  539   2.205   0.547   0.774 -1.0498  0.3591  0.4379
  180SOL    HW2  540   2.357   0.463   0.781 -0.9109  3.0431 -3.0012
  181SOL     OW  541   2.941   0.210   2.567 -0.1575  0.1670 -0.3968
  181SOL    HW1  542   3.032   0.232   2.529  1.9542 -0.3077 -1.0542
  181SOL    HW2  543   2.864   0.178   2.503 -0.7560  0.9095 -1.6661
  182SOL     OW  544   2.290   2.156   2.365  0.5279  0.5720  0.3070
  182SOL    HW1  545   2.207   2.101   2.348 -0.1389 -0.5155 -0.6226
  182SOL    HW2  546   2.274   2.251   2.404  1.8376  2.1130  0.7345
  183SOL     OW  547   2.600   0.926   1.955  0.3677  0.6703 -0.1713
  183SOL    HW1  548   2.516   0.894   2.001  1.5499  0.5137 -0.6970
  183SOL    HW2  549   2.591   0.904   1.856  1.9937 -1.1991  2.2196
  184SOL     OW  550   2.662   1.450   0.629 -0.6471  0.1736 -0.4611
  184SOL    HW1  551   2.730   1.418   0.701  1.1358 -0.0579 -1.0034
  184SOL    HW2  552   2.716   1.496   0.558 -1.6903 -1.0787  1.4078
  185SOL     OW  553   2.753   0.311   0.644  0.4422 -0.6719  0.3216
  185SOL    HW1  554   2.839   0.355   0.602 -0.0055  2.7423 -0.7989
  185SOL    HW2  555   2.773   0.215   0.676  0.1644 -0.8476  0.0904
  186SOL     OW  556   2.015   2.620   2.760 -0.5314 -0.4582  0.5459
  186SOL    HW1  557   2.041   2.702   2.702  2.5499  2.0873 -1.1654
  186SOL    HW2  558   1.929   2.574   2.726 -0.5817  0.3204 -0.1134
  187SOL     OW  559   0.312   1.485   0.824 -0.3460 -0.6374 -0.5832
  187SOL    HW1  560   0.339   1.459   0.731 -1.9579  2.4371 -0.0675
  187SOL    HW2  561   0.396   1.513   0.876 -0.6118 -0.5632  1.0039
  188SOL     OW  562   1.742   1.727   0.677 -0.1338 -0.1867  0.0396
  188SOL    HW1  563   1.747   1.666   0.763  2.5117  1.0340  1.6255
  188SOL    HW2  564   1.655   1.709   0.628  1.8952 -3.0017 -0.2317
  189SOL     OW  565   2.885   1.327   2.905  0.1048  0.0308 -0.2071
  189SOL    HW1  566   2.963   1.294   2.853 -2.7098  3.0637 -0.9773
  189SOL    HW2  567   2.883   1.303   3.007 -2.6167 -0.1040  0.5203
  190SOL     OW  568   2.453   0.405   2.214 -0.0412  0.3699  0.7875
  190SOL    HW1  569   2.348   0.399   2.224 -2.6603 -1.9075  1.9201
  190SOL    HW2  570   2.499   0.371   2.299 -0.3496 -1.4593 -2.5232
  191SOL     OW  571   0.981   0.635   2.421  0.1477 -0.3002  0.4954
  191SOL    HW1  572   1.072   0.643   2.463 -0.4240 -1.6817  0.2699
  191SOL    HW2  573   1.003   0.634   2.321  0.2367  3.8669 -2.0898
  192SOL     OW  574   1.357   1.390   2.092  0.0656  0.6498  0.1483
  192SOL    HW1  575   1.391   1.357   2.002  0.9542  0.1993 -1.1778
  192SOL    HW2  576   1.302   1.477   2.086 -1.2335 -1.6057 -1.4519
  193SOL     OW  577   1.377   2.733   0.995 -0.3381  0.6006  0.3460
  193SOL    HW1  578   1.351   2.753   1.090  2.0312 -1.1078 -2.1983
  193SOL    HW2  579   1.340   2.805   0.934  2.4420 -0.0570 -3.2927
  194SOL     OW  580   1.455   1.663   1.950  0.3885  0.2333  0.1032
  194SOL    HW1  581   1.503   1.611   2.023  1.8800  0.0818  2.4060
  194SOL    HW2  582   1.353   1.673   1.975 -3.1009 -0.8053 -0.8677
  195SOL     OW  583   1.907   0.058   0.640 -0.1976 -0.3972  0.0805
  195SOL    HW1  584   1.967   0.093   0.712  0.0679 -1.5497 -2.8793
  195SOL    HW2  585   1.833   0.126   0.618  1.4660 -0.2008 -1.2176
  196SOL     OW  586   1.521   1.451   2.449 -0.1593  0.6848 -0.4974
  196SOL    HW1  587   1.421   1.472   2.440  0.7318 -1.3804 -0.8881
  196SOL    HW2  588   1.534   1.359   2.490 -0.3328 -0.5849  2.4710
  197SOL     OW  589   0.373   0.181   1.942 -0.4637 -0.5044  0.0821
  197SOL    HW1  590   0.393   0.091   1.985 -1.2701 -1.3558 -2.2457
  197SOL    HW2  591   0.447   0.218   1.885  0.0745 -2.2819 -0.1230
  198SOL     OW  592   0.187   1.233   0.941  0.3811 -0.3220 -0.5217
  198SOL    HW1  593   0.151   1.143   0.900  1.6912 -4.0054 -0.4738
  198SOL    HW2  594   0.225   1.299   0.872 -0.9419 -2.3744  0.9914
  199SOL     OW  595   0.343   2.183   0.939 -0.1797  0.2001 -0.4779
  199SOL    HW1  596   0.383   2.158   0.850  1.6155  1.5802 -1.6371
  199SOL    HW2  597   0.416   2.203   1.003 -0.4298 -0.8300 -3.7205
  200SOL     OW  598   2.019   1.463   3.051  0.5151 -0.4620  0.0206
  200SOL    HW1  599   2.082   1.515   0.036  0.1833  1.4860  1.2596
  200SOL    HW2  600   2.005   1.362   0.005  1.7018 -0.9766  0.7622
  201SOL     OW  601   0.580   2.119   1.360 -0.0895 -0.3207  0.5777
  201SOL    HW1  602   0.664   2.067   1.334  0.3641  1.4543  0.5912
  201SOL    HW2  603   0.524   2.067   1.424  3.3471 -0.4163 -1.3315
  202SOL     OW  604   1.153   2.655   2.833  0.4762  0.1109 -0.6274
  202SOL    HW1  605   1.146   2.743   2.780  0.1071 -1.3925 -0.6257
  202SOL    HW2  606   1.104   2.577   2.791  2.0234 -1.3178  0.1407
  203SOL     OW  607   1.539   0.343   2.062  0.0451 -0.2702  0.1137
  203SOL    HW1  608   1.486   0.297   2.132 -0.1820 -0.5932 -1.5246
  203SOL    HW2  609   1.531   0.448   2.059  1.3335  1.7664  2.2478
  204SOL     OW  610   0.450   1.120   1.472 -0.2562 -0.7248 -0.1269
  204SOL    HW1  611   0.418   1.046   1.409  1.2205  2.7822  0.1572
  204SOL    HW2  612   0.515   1.183   1.421  0.2042 -0.0549 -0.0501
  205SOL     OW  613   2.318   1.223   2.439 -0.1534  0.1566 -0.1530
  205SOL    HW1  614   2.291   1.322   2.451  1.0773 -0.4097 -4.5068
  205SOL    HW2  615   2.302   1.192   2.344 -2.8855  2.1052  0.8572
  206SOL     OW  616   0.094   2.156   2.413 -0.5775 -0.3848  0.1920
  206SOL    HW1  617   0.108   2.169   2.512 -1.6160  0.2818  0.2432
  206SOL    HW2  618   0.090   2.059   2.391  1.9176 -3.4257  1.1766
  207SOL     OW  619   0.597   3.009   1.765  0.5818 -0.3205 -0.0324
  207SOL    HW1  620   0.699   2.996   1.777  2.7666 -0.4315  0.4217
  207SOL    HW2  621   0.572   0.030   1.750 -0.2952 -0.7318  0.5002
  208SOL     OW  622   0.481   2.392   1.514 -0.3179 -0.0841  0.2108
  208SOL    HW1  623   0.384   2.409   1.503 -0.7637 -0.3877  0.2994
  208SOL    HW2  624   0.495   2.293   1.489  1.4439 -1.5369  2.0224
  209SOL     OW  625   1.393   2.551   2.769 -0.1451  0.0432  0.2397
  209SOL    HW1  626   1.309   2.608   2.786  0.5182  2.9163  1.0144
  209SOL    HW2  627   1.380   2.477   2.704 -0.6305  0.4123  1.0628
  210SOL     OW  628   2.862   1.544   1.902  0.6525  0.4617  0.1305
  210SOL    HW1  629   2.950   1.498   1.907  2.0920  2.9869  0.5795
  210SOL    HW2  630   2.839   1.584   1.992 -1.1812  0.5146 -1.6073
  211SOL     OW  631   1.079   0.132   1.760  0.1128 -0.0102 -0.0172
  211SOL    HW1  632   1.127   0.158   1.851  3.7121  0.6886 -0.5366
  211SOL    HW2  633   1.142   0.126   1.678 -1.6072 -4.0010 -0.0183
  212SOL     OW  634   1.160   2.155   1.610 -0.1365 -0.0261  0.2292
  212SOL    HW1  635   1.173   2.232   1.678 -0.5742  0.7391 -0.9498
  212SOL    HW2  636   1.207   2.071   1.631 -1.0561  0.8309 -1.5363
  213SOL     OW  637   2.403   0.622   1.940  0.2633  0.7293 -0.5344
  213SOL    HW1  638   2.381   0.706   1.995 -0.1637  0.4691  0.0960
  213SOL    HW2  639   2.397   0.646   1.841 -1.9965  3.6715 -0.0553
  214SOL     OW  640   1.014   1.773   1.766 -0.4131  0.5651 -0.2199
  214SOL    HW1  641   1.076   1.798   1.685 -1.2509 -0.7559 -1.5734
  214SOL    HW2  642   0.983   1.862   1.812 -2.0958  2.5857 -0.0052
  215SOL     OW  643   2.427   2.297   1.213  0.2670  0.5673  0.1099
  215SOL    HW1  644   2.339   2.321   1.163  0.0188 -2.4602 -1.3199
  215SOL    HW2  645   2.417   2.308   1.313  1.4233  0.9147 -2.4640
  216SOL     OW  646   3.052   0.914   1.039 -0.2750 -0.5600 -0.2790
  216SOL    HW1  647   0.002   0.831   1.093 -1.7851 -1.8392 -1.8302
  216SOL    HW2  648   0.030   0.931   0.952 -1.0339  0.5307  2.0300
  217SOL     OW  649   2.136   0.156   1.415  0.2239 -0.0817  0.2757
  217SOL    HW1  650   2.171   0.228   1.345 -0.6129  1.3155 -0.7043
  217SOL    HW2  651   2.046   0.112   1.396 -5.2322 -1.9105  1.9263
  218SOL     OW  652   1.516   2.485   1.048  0.2404  0.4853  0.0075
  218SOL    HW1  653   1.572   2.460   0.971 -2.5613  0.9579  2.8143
  218SOL    HW2  654   1.451   2.562   1.020 -0.5408  1.7272 -0.5257
  219SOL     OW  655   1.713   2.151   0.071  0.0649 -0.3305 -0.1285
  219SOL    HW1  656   1.783   2.148   3.069  2.2477 -2.7826 -1.7463
  219SOL    HW2  657   1.616   2.156   0.039  0.0801 -1.0394 -0.1327
  220SOL     OW  658   1.788   2.277   2.834  0.4895  0.0837  0.3713
  220SOL    HW1  659   1.731   2.360   2.857  1.3710  1.6521 -0.9269
  220SOL    HW2  660   1.847   2.246   2.909 -1.6248  1.1023 -1.1186
  221SOL     OW  661   3.018   2.543   1.166  0.0441 -0.2589  0.3608
  221SOL    HW1  662   3.073   2.466   1.129  1.3016 -1.3599  1.1348
  221SOL    HW2  663   3.070   2.633   1.158 -1.9078 -0.3781 -0.6708
  222SOL     OW  664   2.010   2.722   0.838  0.8060 -0.6470  0.4241
  222SOL    HW1  665   1.940   2.778   0.889  0.8951  1.2528  0.1361
  222SOL    HW2  666   2.098   2.714   0.891  0.5407  0.5311 -1.0366
  223SOL     OW  667   0.586   2.590   2.179  0.7113 -0.2843 -0.0111
  223SOL    HW1  668   0.524   2.654   2.131 -1.3814  1.8253 -2.8074
  223SOL    HW2  669   0.583   2.495   2.139  0.9257  1.2726  1.3859
  224SOL     OW  670   2.817   2.427   1.011 -0.3284  0.0542 -0.0820
  224SOL    HW1  671   2.876   2.468   1.078  0.1419 -1.5523  1.7837
  224SOL    HW2  672   2.842   2.454   0.916  1.1550  0.3355 -1.7672
  225SOL     OW  673   2.200   2.075   0.815  0.0269  0.4592  0.3271
  225SOL    HW1  674   2.283   2.135   0.806  0.7465 -1.2866 -0.9986
  225SOL    HW2  675   2.200   1.994   0.749 -0.7203 -1.9886 -0.2567
  226SOL     OW  676   1.179   2.629   0.262 -0.2676 -0.6263 -1.2556
  226SOL    HW1  677   1.095   2.642   0.316 -1.0749 -1.9862  0.6980
  226SOL    HW2  678   1.253   2.697   0.291  3.2630  1.2401  1.5200
  227SOL     OW  679   1.922   0.514   0.864  0.0808  0.2182  0.2189
  227SOL    HW1  680   1.828   0.486   0.828 -0.8885  0.7088  0.6932
  227SOL    HW2  681   1.984   0.571   0.806 -0.6011  0.6436  1.4175
  228SOL     OW  682   1.138   0.636   2.189  0.3820 -0.1367  0.1850
  228SOL    HW1  683   1.230   0.592   2.212 -0.2047 -2.4380 -1.6916
  228SOL    HW2  684   1.149   0.718   2.124  0.3020  1.1675 -1.4473
  229SOL     OW  685   3.020   1.008   2.960  0.0872  0.5309  0.1837
  229SOL    HW1  686   2.979   1.078   2.898 -1.7672 -2.1733 -0.6465
  229SOL    HW2  687   3.068   1.051   3.038  0.5778 -2.6476 -4.7980
  230SOL     OW  688   0.873   1.182   1.241  0.1377  0.2092 -0.0138
  230SOL    HW1  689   0.912   1.090   1.270  4.2700  1.1166  2.2463
  230SOL    HW2  690   0.938   1.254   1.272  0.3906  0.1221  2.2591
  231SOL     OW  691   2.443   3.039   2.352  0.3887  0.3842  0.2995
  231SOL    HW1  692   2.461   0.011   2.264  2.1502 -0.6637 -0.5022
  231SOL    HW2  693   2.479   0.024   2.425  1.2411  1.4709  1.6460
  232SOL     OW  694   0.467   2.102   0.153 -0.5584 -0.3504  0.1806
  232SOL    HW1  695   0.451   2.014   0.201  0.4177  1.5510 -1.7422
  232SOL    HW2  696   0.408   2.111   0.070 -0.3175 -0.6983  1.2007
  233SOL     OW  697   1.192   2.342   2.295  0.8470 -0.4500  0.4310
  233SOL    HW1  698   1.139   2.405   2.234  0.8150 -0.3308  1.6601
  233SOL    HW2  699   1.280   2.315   2.248 -3.0586 -0.6556 -1.0366
  234SOL     OW  700   1.045   1.526   1.862  0.2965 -0.6243  0.4683
  234SOL    HW1  701   1.114   1.476   1.807 -0.9532 -1.8687 -0.5471
  234SOL    HW2  702   1.044   1.620   1.829  1.6452 -2.2313 -1.5903
  235SOL     OW  703   0.724   2.093   1.681  0.3893  0.1506 -0.1789
  235SOL    HW1  704   0.767   2.162   1.618  1.9785  1.0273 -3.9000
  235SOL    HW2  705   0.796   2.062   1.751  2.8704  1.5305  1.8612
  236SOL     OW  706   1.501   2.805   2.686 -0.5620  0.1099  0.8872
  236SOL    HW1  707   1.604   2.799   2.688 -3.5353  0.4839 -0.3048
  236SOL    HW2  708   1.468   2.715   2.724 -1.7463 -3.9740  2.5503
  237SOL     OW  709   1.247   0.212   0.817 -0.2151  0.9560  0.0347
  237SOL    HW1  710   1.177   0.138   0.811  1.1255  1.7527 -0.0020
  237SOL    HW2  711   1.337   0.174   0.784 -0.2202  0.6304  0.3752
  238SOL     OW  712   1.442   0.678   2.751  0.1064  0.3017  0.0895
  238SOL    HW1  713   1.415   0.597   2.812 -1.8311 -0.9724 -0.8182
  238SOL    HW2  714   1.437   0.759   2.805  0.4733 -3.3444 -0.0062
  239SOL     OW  715   0.011   0.571   2.347  0.3736  0.4479  0.5786
  239SOL    HW1  716   0.096   0.601   2.308 -0.2989  1.7111  0.0987
  239SOL    HW2  717   3.001   0.613   2.306 -0.2324 -0.9038  0.7082
  240SOL     OW  718   2.309   2.831   0.686 -0.0061  0.1875 -0.2170
  240SOL    HW1  719   2.375   2.759   0.665 -0.1676 -0.1950 -1.2015
  240SOL    HW2  720   2.238   2.839   0.615 -3.1091  0.7740 -1.3815
  241SOL     OW  721   1.634   0.989   1.282  0.5205 -0.4038  0.3248
  241SOL    HW1  722   1.544   1.022   1.242  0.7374 -1.6553  1.6882
  241SOL    HW2  723   1.712   0.998   1.219  2.8018 -2.0955  1.0408
  242SOL     OW  724   0.749   0.950   0.755 -0.3144 -0.0682 -0.1781
  242SOL    HW1  725   0.713   1.043   0.763  0.4923 -1.3274  1.0579
  242SOL    HW2  726   0.678   0.877   0.757  3.1006 -1.5591 -0.0199
  243SOL     OW  727   0.324   0.833   1.008  0.6253 -0.2466 -0.4101
  243SOL    HW1  728   0.335   0.900   1.087 -0.3157 -0.0533  1.0914
  243SOL    HW2  729   0.400   0.764   1.007  0.6210 -2.0654 -2.0307
  244SOL     OW  730   1.170   0.371   0.060 -0.4782 -0.3574  0.0746
  244SOL    HW1  731   1.076   0.410   0.048  1.4007 -1.2685  1.3109
  244SOL    HW2  732   1.161   0.271   0.076 -0.0055  1.0307  0.8276
  245SOL     OW  733   2.081   0.999   0.010  0.1184  0.3290  0.0240
  245SOL    HW1  734   2.133   1.015   2.998  3.4507  0.6646 -0.7206
  245SOL    HW2  735   2.148   1.002   0.083  1.3862 -0.7124 -5.7102
  246SOL     OW  736   0.004   0.900   1.849  0.0900 -0.4073  0.1719
  246SOL    HW1  737   0.073   0.959   1.802  1.4857 -1.4047  0.7874
  246SOL    HW2  738   0.018   0.801   1.843 -1.0732  0.4008  3.5407
  247SOL     OW  739   0.352   2.888   1.692  0.0820  0.3331  0.4562
  247SOL    HW1  740   0.279   2.954   1.674  1.7303 -0.5849 -1.0773
  247SOL    HW2  741   0.423   2.915   1.761 -0.4693  1.6186 -1.0347
  248SOL     OW  742   0.641   1.316   2.379  0.1909  0.5595 -0.0451
  248SOL    HW1  743   0.725   1.370   2.363  0.3680  1.5467 -2.4543
  248SOL    HW2  744   0.659   1.221   2.340  1.4010 -2.1809  3.2735
  249SOL     OW  745   0.537   2.945   2.884 -0.1927  0.3560  0.6834
  249SOL    HW1  746   0.579   2.884   2.955  1.4254  0.4373  0.1266
  249SOL    HW2  747   0.555   2.912   2.790 -1.3295 -0.8142  2.2598
  250SOL     OW  748   0.262   0.160   2.508 -0.2327 -0.2467  0.2141
  250SOL    HW1  749   0.198   0.236   2.494  2.1114 -1.1887  0.5726
  250SOL    HW2  750   0.348   0.198   2.531  0.5656 -0.1808 -1.8347
  251SOL     OW  751   2.947   1.829   1.076  0.7975  0.9731  0.2263
  251SOL    HW1  752   2.898   1.916   1.095 -0.5890  0.3405 -1.1812
  251SOL    HW2  753   2.964   1.779   1.163 -0.6106  1.2257 -2.1619
  252SOL     OW  754   1.772   2.607   2.055  0.2068  0.4021  0.2189
  252SOL    HW1  755   1.768   2.590   1.953  0.3943  0.1391  1.5864
  252SOL    HW2  756   1.864   2.634   2.084  0.9577 -1.0576 -0.5837
  253SOL     OW  757   1.726   1.604   2.933  0.5986  0.1214  0.0285
  253SOL    HW1  758   1.671   1.666   3.000 -1.2867  0.9572  3.3806
  253SOL    HW2  759   1.789   1.542   2.982  2.7136  4.6397 -2.8785
  254SOL     OW  760   0.607   1.449   1.714  0.4826 -0.3010 -0.7439
  254SOL    HW1  761   0.596   1.533   1.661  1.2876 -1.0691  1.0565
  254SOL    HW2  762   0.613   1.476   1.813 -0.3406 -0.9482  2.1192
  255SOL     OW  763   0.990   2.885   1.418  0.7952  0.5911  0.3455
  255SOL    HW1  764   1.039   2.970   1.401 -2.1323  0.9371 -1.6557
  255SOL    HW2  765   1.031   2.827   1.492  3.0917  1.0657  0.5451
  256SOL     OW  766   0.089   2.251   0.869  0.1402  0.4827 -0.3739
  256SOL    HW1  767   0.177   2.206   0.881  0.0940  0.2525  2.5920
  256SOL    HW2  768   0.043   2.253   0.962 -1.4791 -0.7545  1.8248
  257SOL     OW  769   0.243   2.791   2.599  0.4039  0.4421 -0.1666
  257SOL    HW1  770   0.216   2.874   2.656 -1.6143 -5.6233  2.7139
  257SOL    HW2  771   0.163   2.722   2.601 -3.7406  0.3133  1.7167
  258SOL     OW  772   1.352   2.062   1.917 -0.0914  0.3066 -0.0086
  258SOL    HW1  773   1.416   1.997   1.870  0.8249  0.2703  2.0751
  258SOL    HW2  774   1.400   2.152   1.927  2.3048  1.4574  0.1483
  259SOL     OW  775   1.151   1.725   2.310  0.4923  0.2941 -0.8003
  259SOL    HW1  776   1.195   1.643   2.353  1.5003  1.3665 -1.0725
  259SOL    HW2  777   1.076   1.764   2.367  0.5941  0.2310  1.0300
  260SOL     OW  778   2.319   0.851   2.067 -0.0756  0.0871 -0.6444
  260SOL    HW1  779   2.248   0.815   2.131 -0.7620 -0.3010 -0.8756
  260SOL    HW2  780   2.288   0.948   2.048  1.6962  0.2001 -2.6144
  261SOL     OW  781   1.389   0.847   0.950  0.3158 -0.1570  0.2858
  261SOL    HW1  782   1.424   0.760   0.986  0.5368  0.0032  1.0531
  261SOL    HW2  783   1.442   0.867   0.864  1.3640 -0.2475 -2.7937
  262SOL     OW  784   2.133   1.958   2.661  0.5344  0.0377 -0.4319
  262SOL    HW1  785   2.120   2.061   2.670  0.4450  2.8301 -0.0197
  262SOL    HW2  786   2.054   1.908   2.707  0.5064 -3.6860 -1.0679
  263SOL     OW  787   0.864   2.198   0.844  0.0606 -0.3011  0.3038
  263SOL    HW1  788   0.935   2.268   0.862 -1.8368 -0.7208  0.9173
  263SOL    HW2  789   0.840   2.194   0.747 -0.3100 -1.5578  0.7414
  264SOL     OW  790   0.279   2.261   0.570 -0.4406 -0.0796  0.2922
  264SOL    HW1  791   0.240   2.342   0.618 -0.6578 -4.5539  1.1388
  264SOL    HW2  792   0.205   2.198   0.542  0.0727 -1.5126  0.0374
  265SOL     OW  793   1.125   1.401   0.068  0.3398  0.2199  0.3105
  265SOL    HW1  794   1.184   1.329   0.024 -0.5317  0.2302  0.5040
  265SOL    HW2  795   1.094   1.363   0.160 -1.3362  0.7799  1.7609
  266SOL     OW  796   0.765   2.021   2.296 -0.3182 -0.6608  0.2415
  266SOL    HW1  797   0.849   2.080   2.304  1.9247  1.3188 -0.3171
  266SOL    HW2  798   0.685   2.078   2.323  1.7677  1.0088  0.9999
  267SOL     OW  799   1.819   0.748   2.309  0.6836  0.0296  0.1040
  267SOL    HW1  800   1.772   0.699   2.388  1.1852 -0.2601 -0.6883
  267SOL    HW2  801   1.752   0.788   2.240 -1.9601  1.5413 -0.6117
  268SOL     OW  802   0.657   1.195   0.196  0.5485  0.0374 -0.0910
  268SOL    HW1  803   0.603   1.268   0.147 -1.2762 -0.0191 -1.6268
  268SOL    HW2  804   0.750   1.194   0.158 -0.5448  1.0247 -0.4673
  269SOL     OW  805   2.347   1.747   2.402 -0.4718 -0.3590  0.0979
  269SOL    HW1  806   2.392   1.757   2.491  0.9837 -1.2322 -1.9500
  269SOL    HW2  807   2.407   1.771   2.324  0.7416  0.1944 -1.4096
  270SOL     OW  808   0.988   2.077   2.992  0.3857  0.4744 -0.5821
  270SOL    HW1  809   0.919   2.027   3.047 -1.4171  3.4289 -0.7156
  270SOL    HW2  810   0.940   2.146   2.935 -1.4287  1.6660 -0.5819
  271SOL     OW  811   0.388   0.329   0.205 -0.0336 -0.3806  0.3460
  271SOL    HW1  812   0.435   0.387   0.142  0.7347 -3.5067  2.3523
  271SOL    HW2  813   0.417   0.234   0.195 -2.0351 -1.8697  1.7314
  272SOL     OW  814   3.007   0.131   0.295  0.2526 -0.8228  0.1000
  272SOL    HW1  815   3.040   0.050   0.349  0.1146  1.9266  0.8332
  272SOL    HW2  816   0.011   0.193   0.275  2.7016  1.6775  0.6847
  273SOL     OW  817   0.123   0.042   1.751  0.1975 -0.5625 -0.3282
  273SOL    HW1  818   0.110   0.065   1.853  0.9754 -0.3759  2.1804
  273SOL    HW2  819   0.052   3.055   1.714  1.3013 -1.0804 -0.6111
  274SOL     OW  820   2.772   0.545   1.356 -0.0652 -0.0002 -0.6378
  274SOL    HW1  821   2.850   0.512   1.413  0.2197 -0.6672 -0.3606
  274SOL    HW2  822   2.741   0.474   1.292  1.4657 -2.2041  1.2179
  275SOL     OW  823   0.798   1.518   1.081  0.0912  0.1145 -0.3117
  275SOL    HW1  824   0.758   1.581   1.014  0.7945 -1.7527  1.2911
  275SOL    HW2  825   0.779   1.422   1.051  1.8653 -0.4655 -0.4990
  276SOL     OW  826   0.649   1.200   1.918 -0.2494  0.2758 -0.0040
  276SOL    HW1  827   0.626   1.289   1.961 -1.0338 -2.9933  0.9079
  276SOL    HW2  828   0.614   1.112   1.956 -1.2698  2.9093  0.4499
  277SOL     OW  829   1.138   2.364   1.812 -0.1911  0.0560 -0.4327
  277SOL    HW1  830   1.189   2.438   1.856  0.2783 -1.7230 -0.8620
  277SOL    HW2  831   1.087   2.307   1.879 -1.2394 -1.9891  0.4522
  278SOL     OW  832   2.339   2.689   2.166  0.2072 -0.4390 -0.1970
  278SOL    HW1  833   2.279   2.742   2.228  1.4467 -2.3471  1.4444
  278SOL    HW2  834   2.311   2.591   2.168 -0.1196 -0.0204 -0.2490
  279SOL     OW  835   1.339   1.801   0.057 -0.4427 -0.1453  1.2366
  279SOL    HW1  836   1.433   1.813   0.017 -0.6581 -0.6508  0.9936
  279SOL    HW2  837   1.291   1.891   0.062 -1.4166  3.4913  2.8580
  280SOL     OW  838   1.336   0.570   0.191 -0.0793 -0.6668  0.2841
  280SOL    HW1  839   1.282   0.487   0.164 -0.5726 -3.1017  2.0049
  280SOL    HW2  840   1.412   0.584   0.129 -3.6334  2.7844  1.9100
  281SOL     OW  841   0.398   0.377   1.396 -0.5044  0.0179 -0.0205
  281SOL    HW1  842   0.435   0.392   1.490 -1.1674  0.0036 -0.7017
  281SOL    HW2  843   0.382   0.281   1.385  2.2701  1.2061  0.7107
  282SOL     OW  844   0.143   2.492   0.672 -0.3259 -0.3229  0.1709
  282SOL    HW1  845   0.147   2.548   0.754  2.9923  1.0634  0.8803
  282SOL    HW2  846   0.081   2.526   0.600  3.3901 -0.6773  1.6989
  283SOL     OW  847   1.510   1.860   1.803  0.1677 -0.6140  0.0582
  283SOL    HW1  848   1.492   1.784   1.869 -1.4862  1.8992  1.6045
  283SOL    HW2  849   1.598   1.852   1.750  0.0143 -1.4432 -1.6086
  284SOL     OW  850   2.717   2.783   1.543 -0.2164  0.2532 -0.4758
  284SOL    HW1  851   2.714   2.884   1.548  1.3248  2.7177 -2.4331
  284SOL    HW2  852   2.736   2.756   1.448 -0.4358  2.5987  0.8320
  285SOL     OW  853   0.360   2.292   0.303  0.6270  0.9188 -0.4603
  285SOL    HW1  854   0.349   2.262   0.402 -3.0677 -1.3231  4.0687
  285SOL    HW2  855   0.401   2.219   0.243  0.2107 -1.8552  1.2588
  286SOL     OW  856   0.465   2.798   1.012  0.1836  0.4176  0.6230
  286SOL    HW1  857   0.540   2.861   1.041 -1.4480  0.6145  1.2305
  286SOL    HW2  858   0.375   2.842   1.010 -0.4541 -0.3094  2.0620
  287SOL     OW  859   0.757   1.409   0.544 -0.0303  0.1462 -0.5058
  287SOL    HW1  860   0.752   1.309   0.523 -2.2594  0.9673  0.1025
  287SOL    HW2  861   0.816   1.457   0.481  0.1576 -0.5668 -0.3533
  288SOL     OW  862   1.918   1.864   2.851  0.7537  0.5778 -0.5262
  288SOL    HW1  863   1.901   1.763   2.847  0.5776  0.9604  1.4962
  288SOL    HW2  864   1.964   1.887   2.940 -1.0816  0.1819 -0.3124
  289SOL     OW  865   2.722   1.722   0.208 -0.8435 -0.0804 -0.3173
  289SOL    HW1  866   2.686   1.711   0.116  3.4176 -4.1909 -0.2689
  289SOL    HW2  867   2.660   1.764   0.274 -2.8133  3.6091 -0.6543
  290SOL     OW  868   1.462   1.445   1.353  0.2297 -0.2474 -0.4189
  290SOL    HW1  869   1.394   1.490   1.413 -0.5273  1.6233 -0.2683
  290SOL    HW2  870   1.413   1.372   1.299  1.2751  1.9400  2.5750
  291SOL     OW  871   1.297   1.133   0.063 -0.4399 -0.0653  0.4873
  291SOL    HW1  872   1.260   1.048   0.105  0.5747 -1.0694  1.5589
  291SOL    HW2  873   1.291   1.124   3.035 -1.2035  2.5581 -0.2037
  292SOL     OW  874   1.343   1.313   0.343  0.0928  0.3531 -0.4923
  292SOL    HW1  875   1.262   1.275   0.291 -2.9901 -0.0093  0.4171
  292SOL    HW2  876   1.411   1.345   0.272 -1.3983  1.9382  1.8879
  293SOL     OW  877   1.054   0.008   0.814 -0.0485  0.1585 -0.0869
  293SOL    HW1  878   1.029   2.986   0.843  0.7142 -0.0526  0.4910
  293SOL    HW2  879   0.971   0.065   0.800 -1.1598 -0.4363  0.3646
  294SOL     OW  880   2.003   1.133   2.181  0.6118 -0.0933 -0.5041
  294SOL    HW1  881   1.978   1.072   2.102  0.0198  2.0041  0.1426
  294SOL    HW2  882   1.962   1.095   2.267  2.0860 -1.3974 -3.6236
  295SOL     OW  883   1.606   1.807   3.064 -0.1305 -0.0587 -0.5324
  295SOL    HW1  884   1.631   1.816   0.084  0.0144 -1.0072 -1.2586
  295SOL    HW2  885   1.624   1.891   3.004  0.0074  0.0031  1.4858
  296SOL     OW  886   1.105   0.783   1.684 -0.1457  0.3854 -0.0241
  296SOL    HW1  887   1.072   0.688   1.693 -0.4607  1.1308  0.6891
  296SOL    HW2  888   1.032   0.840   1.634  0.6115  2.1206 -2.2167
  297SOL     OW  889   0.003   0.609   1.843 -0.6873 -0.1377  0.6587
  297SOL    HW1  890   2.995   0.553   1.856  0.5331 -0.0319 -1.2744
  297SOL    HW2  891   0.046   0.585   1.755  1.3755  1.2002  0.1305
  298SOL     OW  892   1.480   1.856   1.346 -0.0625  0.0759 -0.1099
  298SOL    HW1  893   1.450   1.890   1.438  0.9910  1.0844  0.2030
  298SOL    HW2  894   1.556   1.791   1.356 -1.7640  0.9762 -2.8516
  299SOL     OW  895   1.125   0.114   2.540 -0.1447 -0.4539  0.1005
  299SOL    HW1  896   1.182   0.038   2.501  1.8452 -1.7944 -3.2325
  299SOL    HW2  897   1.044   0.125   2.478 -1.2045 -0.6098  0.3682
  300SOL     OW  898   2.668   2.063   0.412 -0.2464 -0.6742 -0.3872
  300SOL    HW1  899   2.763   2.093   0.397 -1.5735 -0.2998  0.0717
  300SOL    HW2  900   2.608   2.137   0.382  1.5861  1.2133 -0.3545
  301SOL     OW  901   2.073   0.586   2.516  0.0658  0.2450  0.5036
  301SOL    HW1  902   2.049   0.648   2.440 -0.5308 -0.2132 -2.9067
  301SOL    HW2  903   2.032   0.619   2.603 -4.2852  0.5263  0.6624
  302SOL     OW  904   2.450   2.196   2.960 -0.1353  0.0985  0.2536
  302SOL    HW1  905   2.519   2.174   3.032  0.0731 -0.2305 -0.5812
  302SOL    HW2  906   2.478   2.163   2.867 -0.0390  1.9866  5.0348
  303SOL     OW  907   0.013   2.293   0.213  0.3639 -0.0859 -0.3392
  303SOL    HW1  908   0.080   2.276   0.290 -0.4871  0.2477  1.4380
  303SOL    HW2  909   0.033   2.376   0.160 -0.2788  0.6089 -0.7721
  304SOL     OW  910   0.135   1.767   1.062  0.1350 -0.3180 -0.6510
  304SOL    HW1  911   0.037   1.785   1.083 -0.5309  3.7401 -2.9162
  304SOL    HW2  912   0.195   1.837   1.109  1.6205  1.3853  0.3354
  305SOL     OW  913   2.625   0.437   1.697 -0.2416  0.3099 -0.4225
  305SOL    HW1  914   2.604   0.451   1.599  3.2386  0.3480  0.9587
  305SOL    HW2  915   2.559   0.373   1.743 -2.5006  0.7080  0.2194
  306SOL     OW  916   1.726   1.343   1.049  0.0983  0.1447  0.1572
  306SOL    HW1  917   1.626   1.360   1.039 -1.6729 -0.6700  1.4132
  306SOL    HW2  918   1.763   1.385   1.134  0.8495  0.5707  0.8942
  307SOL     OW  919   0.046   0.253   0.716 -0.6360 -0.3743 -1.0347
  307SOL    HW1  920   0.131   0.223   0.674  1.7667  2.1963  2.8315
  307SOL    HW2  921   3.075   0.174   0.759  0.6110  0.8900 -2.5472
  308SOL     OW  922   0.080   1.417   1.959  0.3047  0.1209 -0.5940
  308SOL    HW1  923   0.003   1.347   1.959  1.4077 -1.4454  0.2885
  308SOL    HW2  924   0.138   1.414   1.874 -2.4322 -0.4937  1.6693
  309SOL     OW  925   2.773   1.823   2.340 -0.0962  0.1612  0.7089
  309SOL    HW1  926   2.751   1.920   2.328  0.3164 -3.5780  0.7451
  309SOL    HW2  927   2.784   1.798   2.439  1.5626 -1.1525  1.6589
  310SOL     OW  928   2.536   1.034   2.982  0.2366 -0.1371 -0.2755
  310SOL    HW1  929   2.585   1.067   2.899  0.4205 -1.3311 -0.1341
  310SOL    HW2  930   2.496   0.947   2.959  4.7293  2.6072  0.6395
  311SOL     OW  931   1.968   0.925   2.638 -0.4804  0.4038  0.0935
  311SOL    HW1  932   2.049   0.979   2.670  1.6223  0.0443 -0.6905
  311SOL    HW2  933   1.918   0.884   2.715  0.6199  0.7414 -1.1804
  312SOL     OW  934   1.389   2.335   2.597  0.2606  0.0166 -0.0794
  312SOL    HW1  935   1.480   2.288   2.617  1.8453  1.1748 -1.6596
  312SOL    HW2  936   1.335   2.291   2.524  0.9588  1.8098  2.7415
  313SOL     OW  937   0.377   0.388   0.471 -0.5922  0.2655  0.0595
  313SOL    HW1  938   0.399   0.379   0.371 -2.1241 -1.5175  2.7286
  313SOL    HW2  939   0.340   0.479   0.492 -0.8706  0.0490 -1.6809
  314SOL     OW  940   0.675   1.877   1.161  0.5664  0.7120 -0.1124
  314SOL    HW1  941   0.747   1.937   1.192  0.2012 -0.1336  0.3284
  314SOL    HW2  942   0.705   1.786   1.204 -0.9533 -2.3689  1.7124
  315SOL     OW  943   0.742   1.859   2.088 -0.5536 -0.2741  1.0831
  315SOL    HW1  944   0.646   1.848   2.059  0.3308 -0.2446 -0.1922
  315SOL    HW2  945   0.747   1.921   2.169  1.1483 -1.0812 -2.3252
  316SOL     OW  946   0.518   2.458   0.591 -0.3648  0.3654 -0.0913
  316SOL    HW1  947   0.458   2.381   0.628 -0.6614  0.6064  0.7558
  316SOL    HW2  948   0.541   2.538   0.655  0.4302  2.3381 -2.5379
  317SOL     OW  949   2.409   0.005   1.315 -0.6504  0.3189  0.5724
  317SOL    HW1  950   2.406   0.103   1.282 -1.7219  0.2171 -0.7471
  317SOL    HW2  951   2.447   3.018   1.247 -1.3635  1.1922  1.5491
  318SOL     OW  952   1.864   2.745   0.446 -0.9917 -0.2857  0.4426
  318SOL    HW1  953   1.816   2.814   0.507  1.8528  1.8339  1.3696
  318SOL    HW2  954   1.928   2.684   0.493 -1.2044 -0.7070 -0.1111
  319SOL     OW  955   1.639   0.498   2.765  0.5998  0.0375 -0.1621
  319SOL    HW1  956   1.570   0.574   2.754 -1.6050  0.9215  2.2239
  319SOL    HW2  957   1.599   0.405   2.752 -0.6138 -1.4106 -0.6320
  320SOL     OW  958   2.864   2.268   1.961  1.0365 -0.2303 -0.1172
  320SOL    HW1  959   2.780   2.212   1.979  0.6684 -1.6341  1.4852
  320SOL    HW2  960   2.859   2.340   2.033  1.5394 -1.7438 -1.1398
  321SOL     OW  961   0.408   2.478   0.006 -0.2406  0.5423 -0.4604
  321SOL    HW1  962   0.498   2.499   0.053  0.3269 -1.8111  2.0079
  321SOL    HW2  963   0.341   2.552   0.026 -0.9989  2.9879  1.4827
  322SOL     OW  964   2.548   0.656   2.260 -0.4160 -0.3803 -0.1241
  322SOL    HW1  965   2.522   0.581   2.200  0.3764  2.2673 -2.0168
  322SOL    HW2  966   2.482   0.673   2.331  2.9103 -0.3562 -0.8690
  323SOL     OW  967   2.551   1.117   0.782  0.1521 -0.1014 -0.3114
  323SOL    HW1  968   2.460   1.074   0.782  3.1378  1.0995  0.8775
  323SOL    HW2  969   2.600   1.073   0.860 -1.3484 -0.8368 -2.1343
  324SOL     OW  970   2.619   0.495   1.091 -0.4164  0.0940 -0.4876
  324SOL    HW1  971   2.690   0.542   1.045 -0.6973 -0.8840  1.2364
  324SOL    HW2  972   2.536   0.547   1.121 -0.3977 -1.0417  2.3374
  325SOL     OW  973   2.727   3.068   1.604  0.0192  0.2331  0.0527
  325SOL    HW1  974   2.806   0.005   1.671  0.3185  0.3784  4.1570
  325SOL    HW2  975   2.745   0.054   1.526 -0.1579  0.3978  1.2771
  326SOL     OW  976   1.939   2.798   0.187 -0.2060 -0.3041  0.3692
  326SOL    HW1  977   1.936   2.703   0.153 -1.3174  0.4395  0.1811
  326SOL    HW2  978   1.901   2.803   0.281  0.0253  3.2695 -2.4451
  327SOL     OW  979   1.884   1.760   0.379 -0.7172 -0.0097  0.3624
  327SOL    HW1  980   1.893   1.856   0.340  1.1839  3.1811  1.7434
  327SOL    HW2  981   1.855   1.762   0.478 -0.1667  0.7829  1.0442
  328SOL     OW  982   2.930   2.245   2.341  0.2854 -0.0359  0.2756
  328SOL    HW1  983   2.918   2.328   2.279  0.0569  1.7189 -2.5693
  328SOL    HW2  984   3.031   2.221   2.341  1.6368  2.1692  1.2351
  329SOL     OW  985   0.086   2.161   1.454 -0.1840  0.5048 -0.5795
  329SOL    HW1  986   0.142   2.151   1.370 -0.2078 -0.6889  0.6117
  329SOL    HW2  987   3.070   2.112   1.445 -0.5220 -2.6326 -2.4163
  330SOL     OW  988   2.817   0.855   2.765 -0.1889 -0.0629  0.1410
  330SOL    HW1  989   2.831   0.954   2.769  2.6721  1.4679  0.6705
  330SOL    HW2  990   2.850   0.815   2.678  0.9222 -3.3031  1.9886
  331SOL     OW  991   2.199   2.345   1.090 -0.2211 -0.2209  0.1564
  331SOL    HW1  992   2.117   2.295   1.052 -1.0620 -0.5432  2.3306
  331SOL    HW2  993   2.188   2.449   1.080 -0.2699  1.0629 -2.5189
  332SOL     OW  994   0.560   2.655   0.757  0.3434  0.3403 -0.0142
  332SOL    HW1  995   0.623   2.735   0.739  1.3658 -0.1564  1.3604
  332SOL    HW2  996   0.487   2.676   0.826  1.1247  0.6405  1.3634
  333SOL     OW  997   2.085   1.810   2.422 -0.3187  0.7183  0.4383
  333SOL    HW1  998   2.063   1.817   2.524  0.6406  0.7785 -0.3998
  333SOL    HW2  999   2.188   1.789   2.415  1.6378 -4.2858 -1.7188
  334SOL     OW 1000   0.613   1.210   0.826 -0.2986  0.0998  0.4517
  334SOL    HW1 1001   0.699   1.255   0.859  1.8642 -0.3254  2.1890
  334SOL    HW2 1002   0.553   1.200   0.906  0.3295  3.1941  0.1541
  335SOL     OW 1003   3.054   1.914   2.325 -0.6093  0.4455 -0.0806
  335SOL    HW1 1004   2.961   1.900   2.361  0.7405 -0.2766  0.5060
  335SOL    HW2 1005   3.060   1.913   2.219  1.7926  0.9906 -3.2555
  336SOL     OW 1006   2.237   2.846   2.381 -0.3626 -0.3754 -0.1907
  336SOL    HW1 1007   2.291   2.929   2.366 -1.7083 -0.2728 -1.9387
  336SOL    HW2 1008   2.157   2.860   2.452 -3.9736  4.0448  2.3881
  337SOL     OW 1009   1.020   0.921   0.686 -0.4973 -0.1023 -0.1404
  337SOL    HW1 1010   0.921   0.945   0.685 -0.7281  0.2151 -1.4643
  337SOL    HW2 1011   1.075   0.960   0.760 -0.2116  1.2160 -2.1779
  338SOL     OW 1012   1.428   2.012   1.123  0.5054  0.1715 -0.3159
  338SOL    HW1 1013   1.422   1.944   1.204  1.1188  1.4186  1.2010
  338SOL    HW2 1014   1.475   2.099   1.152  0.4521  0.1735 -2.7593
  339SOL     OW 1015   0.359   1.900   1.224 -0.0288  0.0785  0.4306
  339SOL    HW1 1016   0.459   1.904   1.198  3.7203 -0.4588 -0.6455
  339SOL    HW2 1017   0.346   1.852   1.315 -1.2631  0.3309 -0.2070
  340SOL     OW 1018   0.918   2.970   1.782  0.0436 -0.1418  0.2295
  340SOL    HW1 1019   0.981   3.057   1.777  0.6304  0.5997 -0.0502
  340SOL    HW2 1020   0.963   2.894   1.737 -0.4989  0.0234 -0.5267
  341SOL     OW 1021   2.106   1.516   1.095  0.2808 -0.6727 -0.5829
  341SOL    HW1 1022   2.207   1.510   1.098 -1.2722  1.9804  0.1190
  341SOL    HW2 1023   2.071   1.437   1.042 -3.7887 -0.6146  0.4316
  342SOL     OW 1024   2.515   1.364   0.898 -0.3910 -0.1735 -0.3039
  342SOL    HW1 1025   2.534   1.271   0.860  1.9837  2.6639 -3.8633
  342SOL    HW2 1026   2.477   1.427   0.827 -1.4503  1.6595  0.2577
  343SOL     OW 1027   2.139   0.243   0.896  0.1061 -0.3780  0.6057
  343SOL    HW1 1028   2.160   0.337   0.862  0.1873  1.7441 -5.6657
  343SOL    HW2 1029   2.203   0.170   0.859 -0.6490 -1.4305 -2.3956
  344SOL     OW 1030   2.283   0.329   0.205  0.1201 -0.5203 -0.1869
  344SOL    HW1 1031   2.383   0.303   0.206  2.7908 -3.6255  2.0756
  344SOL    HW2 1032   2.245   0.259   0.271  0.4262  1.4074 -1.7985
  345SOL     OW 1033   0.855   2.547   1.915  0.1436  0.0022 -0.4724
  345SOL    HW1 1034   0.865   2.587   1.822  4.8070  0.8009 -1.8861
  345SOL    HW2 1035   0.901   2.456   1.921 -1.0335 -0.2945 -3.3202
  346SOL     OW 1036   2.261   2.468   0.808  0.0741 -0.6915 -0.3565
  346SOL    HW1 1037   2.254   2.491   0.908 -3.4418  0.4051 -0.3103
  346SOL    HW2 1038   2.324   2.535   0.762 -0.4807  1.4551 -0.2855
  347SOL     OW 1039   2.223   3.073   1.090  0.2387  0.1771 -0.0713
  347SOL    HW1 1040   2.267   0.006   1.182  0.4562 -3.4876 -1.7545
  347SOL    HW2 1041   2.170   0.078   1.065 -0.7457  0.1626 -1.0845
  348SOL     OW 1042   0.726   0.608   1.576 -0.3955  0.2762  0.1974
  348SOL    HW1 1043   0.764   0.656   1.655 -2.1757  1.7904 -1.1749
  348SOL    HW2 1044   0.735   0.666   1.493 -0.0803 -0.7134 -0.7044
  349SOL     OW 1045   2.374   0.670   2.462  0.7868  0.2282  0.4826
  349SOL    HW1 1046   2.299   0.623   2.508  0.1382 -2.4072  0.2892
  349SOL    HW2 1047   2.359   0.773   2.460 -1.5239  2.9159 -0.2920
  350SOL     OW 1048   2.174   2.366   0.248 -0.2757  0.4275 -0.4995
  350SOL    HW1 1049   2.172   2.339   0.152  0.7460 -1.6072  1.7787
  350SOL    HW2 1050   2.094   2.317   0.293 -0.9183  0.2312 -0.2973
  351SOL     OW 1051   1.139   0.543   0.425 -0.1245  0.1275  0.6129
  351SOL    HW1 1052   1.138   0.608   0.504  0.2901 -0.3393  0.3950
  351SOL    HW2 1053   1.191   0.580   0.345 -1.1441  2.4788  3.1845
  352SOL     OW 1054   1.764   1.937   2.629 -0.3820  0.1738 -0.7515
  352SOL    HW1 1055   1.692   1.868   2.605 -2.4281  0.4490 -0.9726
  352SOL    HW2 1056   1.801   1.925   2.724 -0.8781 -0.4380  2.2648
  353SOL     OW 1057   0.679   1.330   2.724  0.4264  0.1026 -0.6897
  353SOL    HW1 1058   0.591   1.340   2.673 -2.4513  2.7745 -1.3675
  353SOL    HW2 1059   0.749   1.389   2.680  0.8910  0.8002 -2.3256
  354SOL     OW 1060   0.643   2.609   2.788 -0.3459 -0.2430  0.1002
  354SOL    HW1 1061   0.682   2.532   2.844 -0.4514 -0.9520 -1.5199
  354SOL    HW2 1062   0.714   2.684   2.777  1.1213  1.0673  1.2726
  355SOL     OW 1063   2.365   2.697   1.541 -0.3294 -0.1689 -0.3330
  355SOL    HW1 1064   2.425   2.777   1.516  1.9546 -1.7023 -1.7518
  355SOL    HW2 1065   2.422   2.617   1.570  1.5134 -0.3414 -0.5431
  356SOL     OW 1066   2.800   0.994   0.856  0.2873 -0.6003  0.2317
  356SOL    HW1 1067   2.892   0.982   0.895  3.0828  0.7626  1.1200
  356SOL    HW2 1068   2.768   0.915   0.802 -0.7682  0.4078 -1.2553
  357SOL     OW 1069   2.750   0.165   1.413  0.1115  0.5863  0.0162
  357SOL    HW1 1070   2.845   0.165   1.444 -3.5960 -1.0456 -0.4690
  357SOL    HW2 1071   2.758   0.205   1.320 -0.6073  1.8735 -3.4455
  358SOL     OW 1072   0.160   1.867   1.759  0.2146 -0.0023 -0.3376
  358SOL    HW1 1073   0.206   1.802   1.826  0.5348  0.1186  1.2710
  358SOL    HW2 1074   0.191   1.963   1.776  1.6682  0.0648  0.1720
  359SOL     OW 1075   2.788   2.853   2.543  0.3962 -0.0994 -0.3602
  359SOL    HW1 1076   2.718   2.807   2.487  2.2576 -0.1706 -0.4057
  359SOL    HW2 1077   2.866   2.875   2.484  1.0175 -1.6223  1.8652
  360SOL     OW 1078   0.945   0.364   1.450  0.2243 -0.4290 -0.3871
  360SOL    HW1 1079   0.897   0.311   1.377  0.4640  1.3878  1.0444
  360SOL    HW2 1080   1.037   0.394   1.424  1.9141  1.2387  0.2642
  361SOL     OW 1081   2.186   2.615   1.029 -0.4448  0.6120  0.0822
  361SOL    HW1 1082   2.144   2.663   1.108 -1.4822  2.9794 -0.3938
  361SOL    HW2 1083   2.280   2.656   1.005 -1.0382  1.9212 -1.2377
  362SOL     OW 1084   0.906   0.156   0.544 -0.3124 -0.0670 -0.4200
  362SOL    HW1 1085   0.805   0.139   0.531  0.8462  1.2084  3.5153
  362SOL    HW2 1086   0.964   0.075   0.515 -1.9858 -3.7387 -3.1375
  363SOL     OW 1087   1.315   1.278   0.827 -0.1250  0.5169  0.5341
  363SOL    HW1 1088   1.368   1.296   0.743  0.0749 -0.4913  2.3025
  363SOL    HW2 1089   1.356   1.316   0.914  1.7633 -1.1184  3.8419
  364SOL     OW 1090   0.347   0.698   1.572 -0.4847  0.3806 -0.5294
  364SOL    HW1 1091   0.408   0.763   1.620  2.4129 -3.1859 -0.8215
  364SOL    HW2 1092   0.306   0.737   1.482 -1.0836  0.1171  0.4009
  365SOL     OW 1093   2.768   0.748   0.741  0.2300  0.3554  0.3688
  365SOL    HW1 1094   2.774   0.731   0.643  0.0510 -0.1135  1.1552
  365SOL    HW2 1095   2.801   0.661   0.786  1.0377  2.2491 -0.9249
  366SOL     OW 1096   2.652   1.591   1.005  0.2236  0.2673  0.8228
  366SOL    HW1 1097   2.629   1.509   0.951 -1.5996 -1.1512  1.1472
  366SOL    HW2 1098   2.729   1.640   0.959  2.3447 -2.6168 -1.4293
  367SOL     OW 1099   2.056   2.015   2.252 -0.0614 -0.4058  0.3955
  367SOL    HW1 1100   2.095   1.931   2.303  2.2529  0.8270  1.1062
  367SOL    HW2 1101   1.987   2.067   2.306 -1.5358  0.6036  0.3075
  368SOL     OW 1102   2.765   2.008   1.184 -0.4683 -0.1628  0.1096
  368SOL    HW1 1103   2.739   1.913   1.199 -2.2150  2.4152  1.4219
  368SOL    HW2 1104   2.705   2.054   1.114  0.4209  1.1637  0.5241
  369SOL     OW 1105   2.030   2.854   2.585 -0.1081 -0.3163  0.3335
  369SOL    HW1 1106   1.942   2.891   2.545 -3.5746  1.5465  0.6802
  369SOL    HW2 1107   2.086   2.927   2.622 -1.9699 -0.7675 -1.2051
  370SOL     OW 1108   0.355   0.430   0.970 -0.0105 -0.8837 -0.0548
  370SOL    HW1 1109   0.323   0.473   1.052  0.1115  0.4218  0.9902
  370SOL    HW2 1110   0.378   0.333   0.982  2.5791 -1.1498 -1.8355
  371SOL     OW 1111   0.680   1.745   0.318  0.1034  0.0612 -0.4352
  371SOL    HW1 1112   0.645   1.688   0.241  0.6182  3.0340 -2.0318
  371SOL    HW2 1113   0.773   1.711   0.350 -0.5458 -0.9958  2.1839
  372SOL     OW 1114   0.905   1.134   3.002 -0.4620 -0.4807  0.2543
  372SOL    HW1 1115   0.925   1.073   0.007 -0.2907 -2.7829  2.0435
  372SOL    HW2 1116   0.927   1.081   2.916  1.0881  0.1841  0.2482
  373SOL     OW 1117   1.204   2.600   2.452  0.3650 -0.4291 -0.1805
  373SOL    HW1 1118   1.218   2.504   2.424 -0.9653 -0.2760 -0.6325
  373SOL    HW2 1119   1.145   2.596   2.533  1.0988  2.9314 -1.2639
  374SOL     OW 1120   0.449   1.886   0.333 -0.0028 -0.0247  1.0447
  374SOL    HW1 1121   0.431   1.896   0.430  1.1864  1.7018 -2.7820
  374SOL    HW2 1122   0.535   1.834   0.324  0.0161  0.3054  1.1229
  375SOL     OW 1123   0.633   0.676   1.849  0.2708 -0.1070  0.4277
  375SOL    HW1 1124   0.730   0.673   1.884 -1.6742  0.2413  3.7208
  375SOL    HW2 1125   0.568   0.643   1.917 -0.1591 -0.8242 -1.7164
  376SOL     OW 1126   0.220   2.423   1.500  0.0433 -0.2823 -0.3631
  376SOL    HW1 1127   0.171   2.330   1.487 -1.1554 -2.4591 -0.4467
  376SOL    HW2 1128   0.163   2.472   1.570 -3.5583  0.4173  0.4039
  377SOL     OW 1129   2.816   1.571   2.798  0.0497 -0.3011 -0.5878
  377SOL    HW1 1130   2.841   1.481   2.845  0.2966 -2.0172  2.5624
  377SOL    HW2 1131   2.719   1.591   2.810  1.6856 -2.3839 -0.5113
  378SOL     OW 1132   1.600   2.839   3.033  0.1895 -0.5588 -0.0332
  378SOL    HW1 1133   1.518   2.799   3.072  1.4067  0.3407  1.5421
  378SOL    HW2 1134   1.643   2.909   0.018  1.8019 -0.0837  1.8721
  379SOL     OW 1135   1.757   0.749   0.683  0.6021 -1.0451 -0.5725
  379SOL    HW1 1136   1.792   0.714   0.767 -0.8036 -0.4842 -0.2553
  379SOL    HW2 1137   1.727   0.845   0.700 -0.3632  0.1815 -0.9377
  380SOL     OW 1138   0.394   2.021   1.530  0.3346 -0.7095  0.0548
  380SOL    HW1 1139   0.432   1.948   1.591 -3.5253  0.4777  0.1670
  380SOL    HW2 1140   0.292   2.030   1.538 -1.2919 -0.9662  1.1636
  381SOL     OW 1141   2.284   1.488   2.465 -0.4367  0.7230 -0.8645
  381SOL    HW1 1142   2.307   1.571   2.418  2.7699 -0.9024  0.8836
  381SOL    HW2 1143   2.202   1.504   2.524  0.3975 -0.9428 -1.3267
  382SOL     OW 1144   0.176   3.037   2.691  0.1494  0.1196  0.3485
  382SOL    HW1 1145   0.071   3.027   2.695  0.0501 -0.5259 -2.0396
  382SOL    HW2 1146   0.202   0.008   2.603 -0.9826  0.6473  0.2369
  383SOL     OW 1147   1.649   1.222   2.938 -0.1354  0.5431  0.5640
  383SOL    HW1 1148   1.699   1.233   2.849  1.8718 -0.5575 -0.0826
  383SOL    HW2 1149   1.556   1.270   2.942 -3.2075  2.6082 -0.9981
  384SOL     OW 1150   1.117   1.953   1.255  0.3781 -0.4205  0.1371
  384SOL    HW1 1151   1.019   1.970   1.256  0.6978 -0.0338 -0.3627
  384SOL    HW2 1152   1.169   2.041   1.269 -2.9336  0.3694 -0.6220
  385SOL     OW 1153   1.642   2.853   0.873  0.4820  0.2126  0.1954
  385SOL    HW1 1154   1.704   2.913   0.927 -2.2546 -1.3444 -0.0528
  385SOL    HW2 1155   1.578   2.801   0.929  0.2304  1.3793 -0.6693
  386SOL     OW 1156   1.560   1.942   0.883  0.3813  0.9443 -0.5489
  386SOL    HW1 1157   1.503   1.983   0.957  0.6371 -2.5570  2.1661
  386SOL    HW2 1158   1.571   1.843   0.913  0.0709 -0.2545  1.8507
  387SOL     OW 1159   2.491   2.095   1.465  0.4590 -0.7220 -0.7685
  387SOL    HW1 1160   2.420   2.155   1.429  0.6961 -0.0870  1.2185
  387SOL    HW2 1161   2.581   2.150   1.474  2.1853  1.5654  0.9960
  388SOL     OW 1162   2.617   0.900   1.679  0.1042  0.4200 -0.4254
  388SOL    HW1 1163   2.620   0.885   1.579 -2.1643  0.9858  2.2208
  388SOL    HW2 1164   2.672   0.981   1.707  2.1180 -3.1564  0.1279
  389SOL     OW 1165   1.895   0.876   0.169 -0.2427  0.1303  0.8521
  389SOL    HW1 1166   1.954   0.911   0.093  1.7154  1.2779 -1.4890
  389SOL    HW2 1167   1.925   0.933   0.250  0.4699  0.4276  1.0778
  390SOL     OW 1168   1.558   1.782   2.494  0.4470  0.2615  0.4172
  390SOL    HW1 1169   1.468   1.801   2.448 -1.2133  0.7371 -0.1679
  390SOL    HW2 1170   1.553   1.679   2.485 -0.4990 -0.5092 -2.7112
  391SOL     OW 1171   1.213   2.038   0.087  0.3813  0.3752 -0.0080
  391SOL    HW1 1172   1.184   2.016   0.181  4.0971 -0.7954 -0.0752
  391SOL    HW2 1173   1.137   2.045   0.024  1.9484 -1.0553  1.3639
  392SOL     OW 1174   0.200   2.666   1.812  0.1974  0.8419  0.0338
  392SOL    HW1 1175   0.254   2.741   1.767  1.4424  1.8573 -0.4989
  392SOL    HW2 1176   0.265   2.586   1.824 -0.7762 -0.2117 -1.0043
  393SOL     OW 1177   1.462   2.191   3.039  0.5330  0.1701  0.2310
  393SOL    HW1 1178   1.388   2.134   3.067 -0.1244 -1.1256  1.8346
  393SOL    HW2 1179   1.433   2.289   3.046  1.0060 -3.0393  0.2730
  394SOL     OW 1180   0.319   0.611   2.402  0.4583  0.0713 -0.4069
  394SOL    HW1 1181   0.262   0.639   2.482 -0.5071  0.7511  0.7312
  394SOL    HW2 1182   0.384   0.540   2.433 -0.3871  1.8659 -0.9120
  395SOL     OW 1183   0.454   1.210   1.046 -0.0934  0.0786 -0.0022
  395SOL    HW1 1184   0.480   1.306   1.075  1.1894  1.6120  1.2319
  395SOL    HW2 1185   0.352   1.213   1.026 -4.4678 -2.1093  0.9551
  396SOL     OW 1186   1.663   0.830   2.103 -0.0203  0.0448  0.3432
  396SOL    HW1 1187   1.733   0.893   2.071 -0.2433 -1.3661 -1.4806
  396SOL    HW2 1188   1.578   0.882   2.090  0.2973 -1.7749 -0.8437
  397SOL     OW 1189   0.877   0.083   0.215 -0.2299  0.6216 -0.5691
  397SOL    HW1 1190   0.862   0.031   0.126  0.0974  3.8339 -0.7117
  397SOL    HW2 1191   0.786   0.113   0.243 -0.2501 -0.8351  1.8074
  398SOL     OW 1192   0.675   2.186   2.634  0.1986  0.0622  0.1040
  398SOL    HW1 1193   0.755   2.195   2.700  1.9469  0.1522 -0.6736
  398SOL    HW2 1194   0.589   2.173   2.688 -1.2004 -0.6291  0.3400
  399SOL     OW 1195   2.022   1.498   2.566  0.0814 -0.4832  0.3653
  399SOL    HW1 1196   2.010   1.397   2.573  1.2951 -0.4522  1.0432
  399SOL    HW2 1197   1.969   1.536   2.488 -0.5206 -2.0376 -0.5517
  400SOL     OW 1198   2.063   1.321   1.507 -0.4047  0.4803 -0.0652
  400SOL    HW1 1199   2.058   1.270   1.418  0.7105 -0.2079  0.6835
  400SOL    HW2 1200   2.028   1.419   1.498 -0.8273  0.6433  0.1412
  401SOL     OW 1201   1.297   1.288   1.220  0.6020  1.1019  0.0095
  401SOL    HW1 1202   1.310   1.198   1.170  2.7978  0.3719 -3.3085
  401SOL    HW2 1203   1.205   1.304   1.250 -0.9337 -2.2878 -2.0817
  402SOL     OW 1204   0.003   2.511   1.690  0.8052  0.1988 -0.1617
  402SOL    HW1 1205   3.044   2.551   1.602  1.8709  2.0765  0.5818
  402SOL    HW2 1206   0.074   2.571   1.730 -3.1317  0.1687 -2.1726
  403SOL     OW 1207   0.207   1.337   2.226 -0.0415  0.2535 -0.3859
  403SOL    HW1 1208   0.126   1.313   2.278  1.1603  2.0595 -1.9182
  403SOL    HW2 1209   0.186   1.335   2.133  0.9565 -0.2741  5.2443
  404SOL     OW 1210   2.315   1.713   1.455 -0.5008 -0.5306 -0.2480
  404SOL    HW1 1211   2.267   1.791   1.494 -0.3194 -1.7475 -1.8406
  404SOL    HW2 1212   2.371   1.739   1.373 -0.9361 -1.0799 -3.0401
  405SOL     OW 1213   2.824   0.472   2.657  0.4163 -0.2546 -0.0272
  405SOL    HW1 1214   2.742   0.521   2.624  0.2763 -2.2189 -0.7031
  405SOL    HW2 1215   2.843   0.388   2.610  1.5109  1.5791  0.5827
  406SOL     OW 1216   1.081   1.426   2.812  0.5273  0.3536  0.0180
  406SOL    HW1 1217   1.056   1.393   2.903 -2.3151  1.6198  1.5434
  406SOL    HW2 1218   1.177   1.461   2.807 -0.6036 -2.7632  0.1462
  407SOL     OW 1219   1.862   2.530   0.073  0.2866 -0.2094  0.2114
  407SOL    HW1 1220   1.862   2.445   0.128 -0.9341  0.6806  1.2234
  407SOL    HW2 1221   1.780   2.532   0.013  0.3187 -1.4529 -1.3441
  408SOL     OW 1222   0.396   0.070   0.181 -0.1178  0.0242 -0.2736
  408SOL    HW1 1223   0.308   0.017   0.177 -0.3093 -1.8533 -1.0079
  408SOL    HW2 1224   0.439   0.077   0.086  1.2857  0.5535  0.5584
  409SOL     OW 1225   2.456   1.805   1.097  0.3496 -0.5366  0.3116
  409SOL    HW1 1226   2.375   1.860   1.072  1.8511 -0.1132  0.8124
  409SOL    HW2 1227   2.488   1.743   1.025 -0.8927  4.3014  1.6567
  410SOL     OW 1228   2.209   2.292   3.048  0.1822  0.0815  0.1318
  410SOL    HW1 1229   2.290   2.234   3.017 -1.1649 -2.6701  0.5840
  410SOL    HW2 1230   2.192   2.372   2.988 -3.0456  0.8632  2.1562
  411SOL     OW 1231   0.222   1.135   0.589 -0.1742  0.6098  0.4232
  411SOL    HW1 1232   0.156   1.055   0.576  1.7184  0.2556 -1.5124
  411SOL    HW2 1233   0.168   1.219   0.599  0.4163 -0.4492  1.2528
  412SOL     OW 1234   1.437   2.737   0.264 -0.0328 -0.5424  0.3261
  412SOL    HW1 1235   1.506   2.666   0.289 -0.3767 -0.2162 -1.6675
  412SOL    HW2 1236   1.456   2.834   0.288  1.0922  1.1388  0.8794
  413SOL     OW 1237   1.656   0.363   2.376  0.0558 -0.2603 -0.5933
  413SOL    HW1 1238   1.557   0.375   2.375  0.6774  1.6873 -1.4082
  413SOL    HW2 1239   1.670   0.265   2.368 -1.6557  3.6302 -0.2570
  414SOL     OW 1240   2.990   0.423   0.535 -0.1019  0.2154  0.0330
  414SOL    HW1 1241   3.050   0.443   0.458 -0.5367  0.3976 -0.3298
  414SOL    HW2 1242   3.040   0.369   0.604  2.7860  1.7331  1.1028
  415SOL     OW 1243   0.950   1.516   1.581  0.5456 -0.4445  0.1407
  415SOL    HW1 1244   0.950   1.571   1.670  1.6899  1.5100  0.1174
  415SOL    HW2 1245   0.892   1.435   1.586  0.7322  3.0804 -0.1737
  416SOL     OW 1246   0.513   0.102   3.011 -0.4218  0.5123  0.2576
  416SOL    HW1 1247   0.487   0.171   2.937 -0.3975  3.0118 -0.1596
  416SOL    HW2 1248   0.542   0.014   2.963  1.4010 -1.5662 -1.1702
  417SOL     OW 1249   2.510   2.901   1.150 -0.3354  0.2576  0.1460
  417SOL    HW1 1250   2.503   2.824   1.083 -1.4651 -0.7961  1.5603
  417SOL    HW2 1251   2.573   2.879   1.225 -0.9320  1.8091  0.1338
  418SOL     OW 1252   0.774   0.522   2.568 -0.2137  0.3829  0.0656
  418SOL    HW1 1253   0.866   0.531   2.520 -2.7707 -1.5405 -1.2380
  418SOL    HW2 1254   0.742   0.613   2.593 -1.8011  0.4338  0.8588
  419SOL     OW 1255   0.262   1.589   1.215 -0.4210 -0.1670  0.0031
  419SOL    HW1 1256   0.213   1.512   1.175  0.5729 -1.4069  0.5905
  419SOL    HW2 1257   0.243   1.667   1.156 -0.8681  1.3186  0.9695
  420SOL     OW 1258   0.971   1.959   0.925 -0.1790 -0.1348 -0.5306
  420SOL    HW1 1259   0.927   2.054   0.924 -0.1159  0.6145  1.3312
  420SOL    HW2 1260   0.941   1.911   0.842 -0.3587  0.8982 -0.0928
  421SOL     OW 1261   2.027   2.080   1.983  0.0216  0.4792  0.8016
  421SOL    HW1 1262   1.956   2.034   1.920 -1.3241 -1.1788 -0.9412
  421SOL    HW2 1263   2.024   2.055   2.084  0.6297 -0.1656  3.0773
  422SOL     OW 1264   3.063   0.544   2.778  0.1446  0.2128 -0.1410
  422SOL    HW1 1265   0.035   0.470   2.829  3.4184  0.2850 -1.3869
  422SOL    HW2 1266   2.973   0.512   2.749  1.8553  1.7514  1.7616
  423SOL     OW 1267   1.232   2.062   0.955 -0.0536 -0.1404  0.9701
  423SOL    HW1 1268   1.140   2.021   0.954 -1.3966  0.7589 -0.6767
  423SOL    HW2 1269   1.276   2.050   1.049  2.2035  2.2815  2.2713
  424SOL     OW 1270   0.758   1.319   1.544 -0.2136 -0.2829  0.0983
  424SOL    HW1 1271   0.714   1.314   1.452 -0.5012  0.6772 -0.0230
  424SOL    HW2 1272   0.687   1.363   1.604  1.0583  2.3207 -1.2815
  425SOL     OW 1273   3.022   2.667   2.211  0.2565  0.1509  0.4538
  425SOL    HW1 1274   0.021   2.597   2.227 -0.8777 -0.2989  1.6902
  425SOL    HW2 1275   3.020   2.717   2.124 -2.5348 -0.2449 -0.8695
  426SOL     OW 1276   1.744   2.899   0.618  0.2117 -0.7138  0.2146
  426SOL    HW1 1277   1.723   2.850   0.709  1.8268  1.9862 -3.3025
  426SOL    HW2 1278   1.795   2.985   0.635 -2.0046  0.3752  2.1536
  427SOL     OW 1279   0.753   0.845   2.875  0.0918  0.1144 -0.2706
  427SOL    HW1 1280   0.794   0.782   2.945 -6.1199 -0.2271  0.8765
  427SOL    HW2 1281   0.830   0.890   2.830  0.8760 -0.0556  0.1980
  428SOL     OW 1282   2.066   1.383   0.310 -0.0077 -0.6163 -0.1647
  428SOL    HW1 1283   1.972   1.368   0.273 -0.9205  0.0855 -2.9503
  428SOL    HW2 1284   2.141   1.411   0.243  1.9010  1.7792 -2.4057
  429SOL     OW 1285   3.054   2.976   0.476  0.0028 -0.4618 -0.6650
  429SOL    HW1 1286   0.045   2.926   0.533  0.0441  2.4475 -0.9307
  429SOL    HW2 1287   3.031   2.919   0.396 -2.0685 -0.7253 -1.9014
  430SOL     OW 1288   0.442   2.786   2.045  0.2593 -0.8243  0.1557
  430SOL    HW1 1289   0.464   2.886   2.067 -2.0469  1.7332  2.4137
  430SOL    HW2 1290   0.503   2.738   1.978  0.4375  0.2896  3.1189
  431SOL     OW 1291   2.366   0.929   1.394  0.2262  0.0344  0.1533
  431SOL    HW1 1292   2.402   1.016   1.366 -2.5123 -1.2103  0.1830
  431SOL    HW2 1293   2.444   0.861   1.395 -0.2156 -0.5115  0.2048
  432SOL     OW 1294   1.905   2.298   2.082 -0.7104  0.0700 -0.0460
  432SOL    HW1 1295   1.823   2.281   2.136  2.6936 -1.5550 -2.1504
  432SOL    HW2 1296   1.936   2.213   2.042  0.8228  3.7619  1.8142
  433SOL     OW 1297   0.966   2.224   0.426 -0.0105 -0.0433  0.3127
  433SOL    HW1 1298   1.001   2.133   0.408 -1.0576  0.3076 -0.5458
  433SOL    HW2 1299   1.041   2.279   0.461  0.3134 -0.1738 -0.2743
  434SOL     OW 1300   0.293   2.282   2.270  0.2074 -0.0801  0.0521
  434SOL    HW1 1301   0.221   2.267   2.335  4.2457  0.0037 -3.1957
  434SOL    HW2 1302   0.263   2.354   2.201  0.3224  0.6050 -0.3026
  435SOL     OW 1303   0.500   0.848   0.236 -0.0030  0.4131 -0.3586
  435SOL    HW1 1304   0.423   0.817   0.170 -1.7841  1.6982 -1.2817
  435SOL    HW2 1305   0.567   0.902   0.178  1.5389  1.0071 -1.0196
  436SOL     OW 1306   0.192   2.882   1.369  0.3039 -0.0887  0.3730
  436SOL    HW1 1307   0.265   2.814   1.389  3.1364 -3.1808 -0.0262
  436SOL    HW2 1308   0.098   2.835   1.376 -1.5578  0.2552 -0.8148
  437SOL     OW 1309   1.702   1.914   1.591 -0.5790 -0.1590  0.1313
  437SOL    HW1 1310   1.787   1.962   1.624 -0.4078 -0.9894 -2.2034
  437SOL    HW2 1311   1.641   1.968   1.528 -0.6041 -0.6904  0.7088
  438SOL     OW 1312   2.996   1.721   0.591  0.3948  0.1429  0.3718
  438SOL    HW1 1313   0.001   1.698   0.646  1.0282  0.2632 -2.6060
  438SOL    HW2 1314   3.017   1.796   0.528 -0.0903  0.1263  0.3452
  439SOL     OW 1315   0.065   0.647   0.678 -0.0345  0.0752 -0.2423
  439SOL    HW1 1316   0.088   0.631   0.777  2.3475 -3.6220  1.6035
  439SOL    HW2 1317   3.068   0.581   0.645 -1.1621 -1.1293  0.6612
  440SOL     OW 1318   0.356   2.857   2.366  0.4528 -0.2668 -0.0967
  440SOL    HW1 1319   0.319   2.878   2.458 -0.3221 -1.8313 -0.6660
  440SOL    HW2 1320   0.379   2.759   2.362  1.8736  0.3259  0.1712
  441SOL     OW 1321   2.995   0.361   0.987 -0.4916  0.2906  0.1125
  441SOL    HW1 1322   3.041   0.387   1.077  1.9857 -0.8663 -1.3329
  441SOL    HW2 1323   3.061   0.345   0.909 -0.2989  0.2325 -3.5426
  442SOL     OW 1324   1.638   2.217   2.600 -1.1913  0.0025  0.0165
  442SOL    HW1 1325   1.681   2.262   2.683  0.7240 -0.4913  2.9920
  442SOL    HW2 1326   1.712   2.182   2.538  0.8055 -0.0714 -0.5738
  443SOL     OW 1327   0.712   1.339   2.994  0.0387 -0.8444 -0.0340
  443SOL    HW1 1328   0.691   1.315   2.896 -0.8514 -1.0763 -3.7889
  443SOL    HW2 1329   0.800   1.292   3.012 -1.1721  0.2311 -1.6430
  444SOL     OW 1330   1.580   1.499   2.193  0.0641  0.7727  0.1086
  444SOL    HW1 1331   1.504   1.437   2.173  1.0031  2.3537  1.6324
  444SOL    HW2 1332   1.599   1.494   2.292 -0.2872 -0.0965 -2.0667
  445SOL     OW 1333   0.153   2.954   0.825 -0.0882 -0.6208  0.2023
  445SOL    HW1 1334   0.220   3.005   0.881  1.5910 -0.7267  0.3288
  445SOL    HW2 1335   0.079   3.014   0.793  1.9490  0.8837  0.3916
  446SOL     OW 1336   2.109   0.545   1.369  0.3475 -0.2465 -0.3231
  446SOL    HW1 1337   2.170   0.625   1.369 -3.6172 -0.5168 -2.3240
  446SOL    HW2 1338   2.095   0.519   1.273  0.0831 -2.1165  1.3226
  447SOL     OW 1339   0.158   0.835   2.868  0.3511  0.6391 -0.0652
  447SOL    HW1 1340   0.132   0.738   2.889  1.1801  3.8163 -0.8292
  447SOL    HW2 1341   0.077   0.898   2.881 -3.0406  2.3915 -1.5169
  448SOL     OW 1342   1.379   1.963   1.585 -0.4030  0.2824 -0.6314
  448SOL    HW1 1343   1.416   2.057   1.569  1.4599 -1.4935 -1.1469
  448SOL    HW2 1344   1.412   1.915   1.668  1.1409  0.6798  1.6835
  449SOL     OW 1345   1.045   1.332   0.733 -0.9848 -0.1397 -0.0384
  449SOL    HW1 1346   1.134   1.285   0.763  0.2489 -0.6658  2.3216
  449SOL    HW2 1347   1.041   1.435   0.746 -0.5206  0.3360 -1.5989
  450SOL     OW 1348   2.856   1.945   1.893  0.1042 -0.3123  0.8329
  450SOL    HW1 1349   2.779   1.985   1.946 -1.8514 -0.7937  0.0196
  450SOL    HW2 1350   2.821   1.871   1.830 -0.5980 -1.5703  1.1408
  451SOL     OW 1351   2.292   1.406   2.827 -0.4477 -0.1878 -0.1716
  451SOL    HW1 1352   2.253   1.415   2.733 -1.7785 -0.2589 -0.4295
  451SOL    HW2 1353   2.287   1.500   2.870 -3.9383  0.4163  1.3798
  452SOL     OW 1354   1.584   0.668   1.328  0.0218 -0.8998  0.6731
  452SOL    HW1 1355   1.498   0.656   1.380  2.2700  0.7843 -1.0244
  452SOL    HW2 1356   1.637   0.742   1.370 -1.4409  2.0853  0.0563
  453SOL     OW 1357   1.912   0.989   1.418 -0.3547 -0.4075  0.7382
  453SOL    HW1 1358   1.821   1.011   1.460  2.0988 -1.8921 -0.6820
  453SOL    HW2 1359   1.930   1.059   1.351 -0.1967  0.9222  1.2869
  454SOL     OW 1360   2.822   0.792   0.158 -0.0431 -0.3888  0.2922
  454SOL    HW1 1361   2.924   0.802   0.181  2.1085 -0.0570 -0.1548
  454SOL    HW2 1362   2.762   0.729   0.214 -0.5920 -1.0909 -1.9543
  455SOL     OW 1363   2.624   1.484   1.256 -0.1630  0.2924  0.5711
  455SOL    HW1 1364   2.643   1.533   1.165  1.0568  4.7369  0.6408
  455SOL    HW2 1365   2.649   1.541   1.334 -0.2814 -2.7047 -0.9391
  456SOL     OW 1366   0.675   0.150   1.457 -0.2504 -0.2008 -0.3257
  456SOL    HW1 1367   0.702   0.199   1.543  1.1610  1.7573  3.3023
  456SOL    HW2 1368   0.686   0.046   1.469 -0.5687  2.5280 -0.6703
  457SOL     OW 1369   1.726   3.029   1.055  0.5478  0.2360  0.1830
  457SOL    HW1 1370   1.629   3.065   1.058  1.9825 -2.0232  3.1540
  457SOL    HW2 1371   1.797   0.031   1.065  1.9142  2.0431  0.0029
  458SOL     OW 1372   2.581   0.388   0.460 -0.1742  0.1021 -0.0598
  458SOL    HW1 1373   2.636   0.347   0.535 -4.1208 -0.1249 -1.8344
  458SOL    HW2 1374   2.515   0.445   0.505  2.1814 -0.7075 -4.9118
  459SOL     OW 1375   1.817   0.652   0.003 -0.3186  0.1574 -0.2115
  459SOL    HW1 1376   1.827   0.716   0.075  1.8894 -1.5785 -1.2045
  459SOL    HW2 1377   1.888   0.581   0.005  0.0543  1.4331  1.4643
  460SOL     OW 1378   0.003   2.653   2.595  0.8867  0.1238 -0.0024
  460SOL    HW1 1379   2.994   2.673   2.649  2.4195 -1.6206 -3.5609
  460SOL    HW2 1380   3.060   2.621   2.502  0.8521 -2.1320  3.3973
  461SOL     OW 1381   0.737   1.911   0.038  0.1037 -0.0550  0.1954
  461SOL    HW1 1382   0.660   1.879   0.101 -0.3312 -0.0302 -0.0578
  461SOL    HW2 1383   0.718   1.881   3.018 -2.1353  1.4806 -0.2472
  462SOL     OW 1384   2.036   2.577   0.566 -0.0098 -0.4660  0.0827
  462SOL    HW1 1385   2.014   2.477   0.580 -3.0433 -0.2830 -3.4181
  462SOL    HW2 1386   2.072   2.619   0.651 -2.0190  1.4040 -3.4257
  463SOL     OW 1387   0.053   0.531   0.322  0.3775 -0.6947  0.1944
  463SOL    HW1 1388   0.136   0.558   0.370  0.6486 -3.3394  0.4161
  463SOL    HW2 1389   0.013   0.614   0.279 -0.3364 -0.4647  2.1420
  464SOL     OW 1390   0.833   2.503   0.461 -0.6341 -0.3196  0.0969
  464SOL    HW1 1391   0.757   2.477   0.516  0.0929 -0.3417 -2.6801
  464SOL    HW2 1392   0.858   2.438   0.389 -1.8120  1.8009  1.6593
  465SOL     OW 1393   2.318   0.862   0.503  0.0180  0.2096 -0.4000
  465SOL    HW1 1394   2.217   0.848   0.499 -0.5217 -0.7308 -1.0357
  465SOL    HW2 1395   2.370   0.826   0.424 -0.8459 -0.0708  0.2358
  466SOL     OW 1396   2.166   0.196   0.003 -0.2911 -0.1066  0.1470
  466SOL    HW1 1397   2.216   0.243   0.083  0.9347  1.3557 -0.2039
  466SOL    HW2 1398   2.131   0.107   0.025 -0.2258  0.8480 -1.0308
  467SOL     OW 1399   1.221   0.422   1.876  0.0856  0.1670  1.0564
  467SOL    HW1 1400   1.140   0.445   1.818 -0.8627 -0.4178  2.0071
  467SOL    HW2 1401   1.267   0.510   1.889  2.7017  1.3190  1.4177
  468SOL     OW 1402   2.841   0.671   2.260  0.1487 -0.6161  0.3830
  468SOL    HW1 1403   2.876   0.717   2.174 -0.9022 -0.3523  1.4527
  468SOL    HW2 1404   2.742   0.699   2.265 -0.3539  0.5811 -2.2557
  469SOL     OW 1405   0.841   2.560   2.296  0.0652  0.0609  0.2267
  469SOL    HW1 1406   0.834   2.470   2.348  0.5835 -2.2374  0.3792
  469SOL    HW2 1407   0.753   2.583   2.258  1.5752 -3.0879  1.3868
  470SOL     OW 1408   1.845   1.216   1.864 -0.0887  0.1590  0.4401
  470SOL    HW1 1409   1.919   1.263   1.813  0.2672 -2.3941  1.3981
  470SOL    HW2 1410   1.809   1.276   1.937  0.0397  2.7595 -0.4161
  471SOL     OW 1411   2.711   1.058   0.098  0.0552  0.1568  0.3360
  471SOL    HW1 1412   2.640   1.040   0.024 -2.2268 -0.0383  1.7441
  471SOL    HW2 1413   2.756   0.975   0.135  0.3708  0.7899  3.0611
  472SOL     OW 1414   0.416   2.567   0.343 -0.2686 -0.5090  0.0137
  472SOL    HW1 1415   0.457   2.542   0.435 -2.4615  0.2704  4.9966
  472SOL    HW2 1416   0.379   2.478   0.310  0.9105  0.9810  1.9857
  473SOL     OW 1417   0.929   2.808   2.415 -0.2002 -0.6615  0.3713
  473SOL    HW1 1418   0.906   2.709   2.398 -0.6519 -2.1722 -1.4011
  473SOL    HW2 1419   0.844   2.870   2.415 -0.5967  2.1073 -2.7106
  474SOL     OW 1420   1.631   3.048   1.982  0.1231 -0.2523 -0.1011
  474SOL    HW1 1421   1.678   3.013   1.903  0.2210 -0.3996  1.2419
  474SOL    HW2 1422   1.696   0.025   2.043  0.6082  0.8509  0.7167
  475SOL     OW 1423   0.803   2.433   2.945  0.5735  0.1704  0.0433
  475SOL    HW1 1424   0.884   2.492   2.953  0.3941  1.6581 -1.9505
  475SOL    HW2 1425   0.764   2.426   3.038  0.4895  1.4878  3.7654
  476SOL     OW 1426   0.529   0.646   0.983 -0.1899 -0.0771 -0.0269
  476SOL    HW1 1427   0.539   0.705   0.898  0.5663 -0.7501 -1.3508
  476SOL    HW2 1428   0.470   0.566   0.970  0.2208  1.0140 -0.4890
  477SOL     OW 1429   1.775   2.032   1.058  0.2127  0.3593 -0.1445
  477SOL    HW1 1430   1.709   2.039   0.976  0.1115  1.9339 -2.5930
  477SOL    HW2 1431   1.755   1.947   1.109 -1.5209 -0.4747 -0.0299
  478SOL     OW 1432   0.417   0.887   2.341 -0.0668  0.2360 -0.0343
  478SOL    HW1 1433   0.372   0.955   2.283 -0.3159 -0.3425  0.2626
  478SOL    HW2 1434   0.353   0.855   2.417 -3.3888  1.5096 -0.8924
  479SOL     OW 1435   0.514   3.010   0.741  0.1109 -0.9405  0.3415
  479SOL    HW1 1436   0.479   0.005   0.800 -0.8150 -0.4005 -1.5058
  479SOL    HW2 1437   0.454   2.987   0.659 -0.7436  0.8771 -0.2249
  480SOL     OW 1438   2.535   2.486   2.962  0.2865  0.0892 -0.2981
  480SOL    HW1 1439   2.554   2.504   2.865  1.6045  1.1227 -1.5611
  480SOL    HW2 1440   2.538   2.386   2.976  3.9656  0.3196 -1.4335
  481SOL     OW 1441   2.383   0.618   1.066 -0.0535 -0.2101 -0.1546
  481SOL    HW1 1442   2.352   0.700   1.116 -0.2675 -0.2739  0.4791
  481SOL    HW2 1443   2.303   0.579   1.009 -1.3318 -1.2298  1.7438
  482SOL     OW 1444   1.395   2.343   1.646 -0.4035 -0.3329  0.4082
  482SOL    HW1 1445   1.438   2.270   1.590 -1.0489  0.7473 -0.2675
  482SOL    HW2 1446   1.428   2.341   1.742 -1.5364 -1.0568  1.1474
  483SOL     OW 1447   0.312   1.497   2.967  0.5595  0.0410 -0.0971
  483SOL    HW1 1448   0.295   1.537   3.060 -0.1097  0.6740 -0.2033
  483SOL    HW2 1449   0.284   1.400   2.976 -0.0786  1.4648  0.4351
  484SOL     OW 1450   1.342   1.895   2.360  0.4931  0.5172  0.1338
  484SOL    HW1 1451   1.268   1.845   2.313  2.6462  0.0864  2.4368
  484SOL    HW2 1452   1.384   1.969   2.303 -1.5650 -2.2369  0.2879
  485SOL     OW 1453   0.267   0.280   2.173 -0.1136  0.5262  0.9671
  485SOL    HW1 1454   0.164   0.288   2.171 -2.9390 -1.8207  1.9184
  485SOL    HW2 1455   0.303   0.244   2.086  0.1975 -0.5398  0.6654
  486SOL     OW 1456   1.256   0.092   0.462  0.2061 -0.5725  0.3762
  486SOL    HW1 1457   1.314   0.115   0.385 -2.0797 -0.7641 -1.2039
  486SOL    HW2 1458   1.295   0.100   0.557 -0.9179 -1.5051  0.9521
  487SOL     OW 1459   1.293   2.921   0.792  0.0161  0.5305 -0.3127
  487SOL    HW1 1460   1.341   2.870   0.719  1.5151  0.6640 -1.3843
  487SOL    HW2 1461   1.221   2.974   0.752  0.2802  1.9699  1.6388
  488SOL     OW 1462   2.087   0.699   0.742  0.2900 -0.5485 -0.9091
  488SOL    HW1 1463   2.136   0.775   0.791  0.0225  2.5648  0.8585
  488SOL    HW2 1464   2.070   0.728   0.646 -0.1551  2.5067 -0.1568
  489SOL     OW 1465   1.243   2.733   1.244  0.2320  0.0816 -0.0808
  489SOL    HW1 1466   1.281   2.710   1.336 -0.3155 -3.0127  0.5545
  489SOL    HW2 1467   1.165   2.678   1.202 -0.7010  0.2042 -2.4053
  490SOL     OW 1468   0.931   0.886   0.384  0.1379 -0.0876  0.0293
  490SOL    HW1 1469   0.895   0.966   0.434  1.4627 -0.8510  0.7658
  490SOL    HW2 1470   0.990   0.834   0.445 -1.0379 -1.6736 -3.8180
  491SOL     OW 1471   0.844   2.803   2.870  0.5146  0.3987 -0.3893
  491SOL    HW1 1472   0.894   2.736   2.930 -0.6854  0.0414  1.5242
  491SOL    HW2 1473   0.907   2.841   2.802 -0.5049 -3.5196  0.2310
  492SOL     OW 1474   1.249   1.177   2.221 -0.3386  0.4202  0.0388
  492SOL    HW1 1475   1.286   1.262   2.175  1.8691 -0.6414 -1.1253
  492SOL    HW2 1476   1.152   1.172   2.250 -0.3468  1.5029 -2.1257
  493SOL     OW 1477   2.844   1.937   0.104 -0.0841  0.0878  0.5930
  493SOL    HW1 1478   2.865   1.919   0.006 -0.8294 -0.6996  2.5163
  493SOL    HW2 1479   2.790   1.863   0.148 -2.3643  3.1560  2.5297
  494SOL     OW 1480   2.071   1.622   0.762 -0.2072 -0.0726 -0.3810
  494SOL    HW1 1481   1.979   1.588   0.780  1.5167 -0.7750 -0.5777
  494SOL    HW2 1482   2.106   1.563   0.681 -0.0090 -2.7650 -0.2282
  495SOL     OW 1483   0.184   0.929   2.514  0.1241  0.5874 -0.3911
  495SOL    HW1 1484   0.118   0.957   2.445  2.6207 -0.9828  1.4004
  495SOL    HW2 1485   0.223   1.014   2.564  0.8037  0.8601  0.3382
  496SOL     OW 1486   2.736   3.029   2.224  0.1211  0.6875 -0.1671
  496SOL    HW1 1487   2.711   2.978   2.141 -1.5492  0.9914 -1.5162
  496SOL    HW2 1488   2.821   2.992   2.265 -1.1662 -1.9290  0.5490
  497SOL     OW 1489   2.267   1.124   0.594 -0.1305  0.1329  0.5881
  497SOL    HW1 1490   2.327   1.196   0.558  0.2544  0.8829 -1.0909
  497SOL    HW2 1491   2.290   1.040   0.538  0.7815 -0.6594  2.1757
  498SOL     OW 1492   0.054   2.517   0.075  0.0029 -0.3939  0.4282
  498SOL    HW1 1493   3.033   2.537   0.049  0.3608  0.7548 -0.5557
  498SOL    HW2 1494   0.121   2.587   0.051  0.9285  0.3275  0.5283
  499SOL     OW 1495   1.495   2.538   0.608 -0.1134  0.1505  0.0309
  499SOL    HW1 1496   1.541   2.514   0.517 -0.6809 -0.8038 -5.1256
  499SOL    HW2 1497   1.528   2.472   0.681  0.4318  2.1067  0.1599
  500SOL     OW 1498   1.232   0.613   2.535 -0.0752 -0.2808  0.2362
  500SOL    HW1 1499   1.200   0.518   2.558  1.0985  2.0463 -0.2236
  500SOL    HW2 1500   1.313   0.615   2.479 -2.6240 -0.9513 -0.2611
  501SOL     OW 1501   0.859   0.198   1.258 -0.1437  0.0483  0.2090
  501SOL    HW1 1502   0.933   0.132   1.267  0.0708  5.1455  0.7775
  501SOL    HW2 1503   0.788   0.179   1.330 -3.3447 -0.3573  0.6909
  502SOL     OW 1504   0.036   0.115   2.018 -0.7325  0.2618 -0.0894
  502SOL    HW1 1505   0.092   0.046   2.066  0.0500  0.7499  1.7503
  502SOL    HW2 1506   3.065   0.185   2.077  0.2896  0.7735  1.4159
  503SOL     OW 1507   1.459   2.359   2.188  0.1314  0.3336  0.1582
  503SOL    HW1 1508   1.437   2.447   2.232 -1.2383  0.9380  2.5314
  503SOL    HW2 1509   1.537   2.302   2.227 -0.8743 -0.4790  1.5228
  504SOL     OW 1510   2.054   2.921   1.765 -0.8846  0.5263 -0.4595
  504SOL    HW1 1511   2.119   2.976   1.705 -2.3656 -1.4829 -0.6865
  504SOL    HW2 1512   1.985   2.875   1.711 -1.3025 -1.8965  4.4496
  505SOL     OW 1513   2.351   1.020   1.723 -0.1799  0.2670 -0.4201
  505SOL    HW1 1514   2.433   0.972   1.692  0.0758  0.1539 -1.4093
  505SOL    HW2 1515   2.280   0.952   1.750  1.8962  2.2801 -0.3277
  506SOL     OW 1516   0.444   1.467   2.215 -0.3825 -0.8275  0.1235
  506SOL    HW1 1517   0.354   1.428   2.200 -0.2127 -2.2139  2.0024
  506SOL    HW2 1518   0.504   1.417   2.283  3.2482 -0.4079 -0.1181
  507SOL     OW 1519   0.234   0.089   1.403  0.4377 -0.0244  0.9040
  507SOL    HW1 1520   0.252   0.122   1.497  1.7096 -2.5158  0.0005
  507SOL    HW2 1521   0.222   3.061   1.403  0.7652 -2.0850  1.5045
  508SOL     OW 1522   1.330   0.603   1.442 -0.7352  0.0924  0.2567
  508SOL    HW1 1523   1.303   0.688   1.393 -1.2966 -0.9810  3.1085
  508SOL    HW2 1524   1.296   0.525   1.389 -0.1880  0.0314  2.9810
  509SOL     OW 1525   1.221   2.203   1.364 -0.6045  0.4882 -0.1090
  509SOL    HW1 1526   1.137   2.250   1.321  0.3336 -0.2053  0.4931
  509SOL    HW2 1527   1.207   2.190   1.463  0.3970  0.9101 -2.1302
  510SOL     OW 1528   2.613   1.471   0.023  0.1871  0.0700  0.7180
  510SOL    HW1 1529   2.544   1.407   3.058 -0.7638 -0.9828  0.4415
  510SOL    HW2 1530   2.693   1.413   0.058 -2.4667 -2.9430  2.9982
  511SOL     OW 1531   0.620   1.265   1.321  0.1521 -0.4229 -0.3754
  511SOL    HW1 1532   0.701   1.222   1.280  0.2362  1.3326 -1.1734
  511SOL    HW2 1533   0.560   1.316   1.253 -0.4884 -1.0631 -1.5282
  512SOL     OW 1534   2.809   2.420   0.586 -0.2748 -0.2351 -0.1554
  512SOL    HW1 1535   2.853   2.339   0.629  0.1690  2.3610 -0.9113
  512SOL    HW2 1536   2.708   2.408   0.585 -0.9551 -1.7332  0.9463
  513SOL     OW 1537   0.888   1.481   2.636  0.0210 -0.0794  0.4400
  513SOL    HW1 1538   0.886   1.581   2.616 -1.5806  0.9215  0.7360
  513SOL    HW2 1539   0.945   1.468   2.720  0.4327 -0.5180  1.8069
  514SOL     OW 1540   0.109   2.447   2.758  0.3622 -0.3375  0.4359
  514SOL    HW1 1541   0.190   2.499   2.791 -2.3020  1.6180 -0.6309
  514SOL    HW2 1542   0.050   2.519   2.714  0.5659  0.9576 -1.8509
  515SOL     OW 1543   1.423   1.071   1.859  0.0400 -0.0681  0.4174
  515SOL    HW1 1544   1.475   1.012   1.797 -2.1721  1.8022  1.9170
  515SOL    HW2 1545   1.321   1.064   1.841 -1.8214 -0.2741 -0.8082
  516SOL     OW 1546   2.011   2.203   0.405 -0.3649 -0.1280  0.6760
  516SOL    HW1 1547   2.092   2.144   0.390  2.5090 -0.9993 -1.5818
  516SOL    HW2 1548   2.011   2.234   0.503 -0.4173 -1.8217 -0.2751
  517SOL     OW 1549   1.136   1.759   0.588  0.1811 -0.6949 -0.1272
  517SOL    HW1 1550   1.162   1.699   0.512  1.2648  0.9173  1.6589
  517SOL    HW2 1551   1.215   1.812   0.624  0.8568  2.1807  0.2660
  518SOL     OW 1552   2.124   2.448   2.133  0.6114  0.3398 -0.1127
  518SOL    HW1 1553   2.155   2.416   2.227  0.5806  0.4352  2.3795
  518SOL    HW2 1554   2.036   2.400   2.103 -3.2773 -0.6562  2.0047
  519SOL     OW 1555   1.624   2.384   0.798 -0.2525 -0.1513  0.0148
  519SOL    HW1 1556   1.711   2.432   0.831  1.2051  0.1382 -0.3254
  519SOL    HW2 1557   1.644   2.283   0.795 -0.5075 -1.1123 -0.6447
  520SOL     OW 1558   2.771   2.452   2.613  0.1881  0.4164  0.3695
  520SOL    HW1 1559   2.747   2.465   2.511 -0.0227  1.8531 -1.0760
  520SOL    HW2 1560   2.836   2.370   2.620  1.3288 -2.5267 -1.9698
  521SOL     OW 1561   0.013   1.082   2.329  0.2407  0.1363  0.1708
  521SOL    HW1 1562   2.989   1.124   2.313 -2.8632 -0.5161 -0.8189
  521SOL    HW2 1563   0.039   1.029   2.245  1.7260 -0.0251 -2.4737
  522SOL     OW 1564   0.570   0.463   2.124 -0.2209  0.1358 -0.0915
  522SOL    HW1 1565   0.486   0.461   2.063 -1.3164  1.0185 -1.6929
  522SOL    HW2 1566   0.591   0.557   2.155 -0.9206  0.8213  2.0890
  523SOL     OW 1567   0.615   1.912   0.883 -0.0566  0.1182  0.0160
  523SOL    HW1 1568   0.629   1.935   0.981 -0.3627  3.8608  1.1557
  523SOL    HW2 1569   0.568   1.988   0.835  1.6436 -3.9174  0.9703
  524SOL     OW 1570   1.625   2.562   0.369  0.0886  0.2104 -0.1306
  524SOL    HW1 1571   1.692   2.630   0.393 -3.4160 -1.1631 -0.8814
  524SOL    HW2 1572   1.663   2.473   0.341  0.4003  1.0786  3.1849
  525SOL     OW 1573   2.138   0.876   1.544 -0.4092 -0.0370 -0.4030
  525SOL    HW1 1574   2.062   0.918   1.493 -0.9347  0.6500  0.3069
  525SOL    HW2 1575   2.222   0.892   1.493 -1.1099  0.3874 -0.0300
  526SOL     OW 1576   0.986   2.625   0.660  0.1571 -0.0879  0.0309
  526SOL    HW1 1577   1.031   2.698   0.604 -1.2702  3.5522 -0.4931
  526SOL    HW2 1578   0.946   2.548   0.607 -2.3369 -0.8591  0.5393
  527SOL     OW 1579   2.442   2.602   0.644 -0.4250  0.1856 -0.1994
  527SOL    HW1 1580   2.539   2.634   0.672  2.7007 -0.1417  0.3060
  527SOL    HW2 1581   2.456   2.547   0.560  0.9473 -3.3760 -0.5491
  528SOL     OW 1582   2.031   0.456   0.077  0.5175  0.0438  0.5334
  528SOL    HW1 1583   2.040   0.437   0.177  2.1192 -1.1689  0.9998
  528SOL    HW2 1584   2.024   0.364   0.023 -0.0377  1.1880 -0.3829
  529SOL     OW 1585   1.683   1.557   2.666  0.4176  0.1515  0.1336
  529SOL    HW1 1586   1.713   1.580   2.759 -1.2519 -1.3673 -0.0558
  529SOL    HW2 1587   1.731   1.619   2.603  1.9216 -1.5273  0.1142
  530SOL     OW 1588   2.273   0.578   0.333 -0.0055 -0.2598 -0.1361
  530SOL    HW1 1589   2.308   0.661   0.288 -2.0593 -1.0125 -0.7062
  530SOL    HW2 1590   2.263   0.496   0.274 -2.5583  0.6878 -1.2195
  531SOL     OW 1591   1.599   0.951   2.838  0.2704 -0.2224 -0.8045
  531SOL    HW1 1592   1.614   1.046   2.875 -1.2793  0.7823 -0.5734
  531SOL    HW2 1593   1.508   0.915   2.878  1.7760 -0.7704 -1.5004
  532SOL     OW 1594   1.827   0.633   0.410 -0.5687 -0.3718 -0.5554
  532SOL    HW1 1595   1.759   0.647   0.337  3.7043 -0.0737  2.1297
  532SOL    HW2 1596   1.793   0.633   0.505 -2.1044 -1.1736  2.7412
  533SOL     OW 1597   0.671   1.084   2.258  0.1415 -0.6563  0.2960
  533SOL    HW1 1598   0.615   1.054   2.179 -0.6634  2.1995 -3.2904
  533SOL    HW2 1599   0.713   1.009   2.312 -1.7692  2.4002 -0.1184
  534SOL     OW 1600   1.439   0.095   2.425 -0.3352 -0.3423 -0.2648
  534SOL    HW1 1601   1.393   0.177   2.385  1.7146  0.3555  2.8519
  534SOL    HW2 1602   1.535   0.089   2.394 -0.6111 -0.5452 -0.0630
  535SOL     OW 1603   0.165   2.997   0.118 -0.1742  0.5784 -0.7839
  535SOL    HW1 1604   0.064   3.012   0.115  0.1225  1.9166 -1.5048
  535SOL    HW2 1605   0.200   2.959   0.031 -0.2790 -0.0997  0.5434
  536SOL     OW 1606   0.526   0.209   0.907 -0.4366 -0.2088  0.0431
  536SOL    HW1 1607   0.549   0.264   0.828 -3.3051 -1.7313 -1.5110
  536SOL    HW2 1608   0.613   0.196   0.959 -0.3107  1.2303  0.0822
  537SOL     OW 1609   1.437   0.701   0.669 -1.0455 -0.6477 -0.2589
  537SOL    HW1 1610   1.498   0.785   0.685  1.8055 -1.1965  0.9100
  537SOL    HW2 1611   1.488   0.630   0.619 -2.0959 -0.0240 -0.1777
  538SOL     OW 1612   2.789   2.077   2.741 -0.0656 -0.1456  0.3603
  538SOL    HW1 1613   2.869   2.118   2.691  3.1171  2.0999 -1.2595
  538SOL    HW2 1614   2.710   2.141   2.755  2.2963 -1.4140 -0.7662
  539SOL     OW 1615   2.137   1.672   0.323  0.1669 -0.2104 -0.0964
  539SOL    HW1 1616   2.060   1.729   0.351  0.3630 -1.4804  0.9086
  539SOL    HW2 1617   2.152   1.609   0.398 -2.6834  1.0054  0.1802
  540SOL     OW 1618   0.338   2.658   1.395  0.0418  0.0829  0.4905
  540SOL    HW1 1619   0.295   2.578   1.444  2.4181  1.8471 -0.4743
  540SOL    HW2 1620   0.420   2.632   1.337 -0.3946 -2.8792 -2.5933
  541SOL     OW 1621   1.854   2.995   2.181 -0.1389 -0.1100  0.4917
  541SOL    HW1 1622   1.891   2.899   2.177 -0.9530  1.0808 -1.3251
  541SOL    HW2 1623   1.880   3.039   2.091  0.3973  1.0325 -0.6894
  542SOL     OW 1624   0.181   0.676   2.634  0.1873 -0.8546 -0.6172
  542SOL    HW1 1625   0.095   0.631   2.667 -1.4825 -2.5908  0.2772
  542SOL    HW2 1626   0.171   0.778   2.637  2.1478 -2.7601  1.8916
  543SOL     OW 1627   0.144   1.065   1.347  0.7462 -0.5625 -0.2526
  543SOL    HW1 1628   0.189   1.156   1.368  1.0662 -1.0470  0.2230
  543SOL    HW2 1629   0.072   1.069   1.272  0.1149  1.2332 -1.7448
  544SOL     OW 1630   2.474   0.281   1.052 -0.0157 -0.0170  0.4099
  544SOL    HW1 1631   2.516   0.372   1.073  0.4774 -0.4731 -3.4188
  544SOL    HW2 1632   2.477   0.268   0.953 -1.6918  0.2239  0.3692
  545SOL     OW 1633   1.512   2.121   0.567  0.3065  0.0831  0.0169
  545SOL    HW1 1634   1.457   2.155   0.646  1.2026 -1.4140  1.0973
  545SOL    HW2 1635   1.611   2.139   0.582  0.3912 -0.3222 -0.2428
  546SOL     OW 1636   2.246   2.720   1.799 -1.1068 -0.2940  0.3386
  546SOL    HW1 1637   2.288   2.706   1.705 -0.7490 -2.4706 -1.9874
  546SOL    HW2 1638   2.169   2.792   1.805 -4.8830  0.2098 -0.7319
  547SOL     OW 1639   0.476   0.002   2.099  0.1988 -0.6284  0.1895
  547SOL    HW1 1640   0.572   3.041   2.119  2.6320  2.5013 -0.4026
  547SOL    HW2 1641   0.413   0.003   2.180 -1.6542  0.5800  0.5662
  548SOL     OW 1642   1.896   1.211   0.001  0.7188 -0.2320  0.2755
  548SOL    HW1 1643   1.810   1.211   3.016 -0.1836  2.3545 -2.2739
  548SOL    HW2 1644   1.951   1.122   3.065  0.2304 -3.2535 -0.8023
  549SOL     OW 1645   3.015   1.085   0.328 -0.6374 -0.2684  0.8587
  549SOL    HW1 1646   2.974   1.036   0.407 -0.7736  2.7623  1.2071
  549SOL    HW2 1647   2.985   1.181   0.340  0.7338  2.3373 -0.7173
  550SOL     OW 1648   1.930   1.910   0.794 -0.3755  0.1797  0.1854
  550SOL    HW1 1649   1.874   1.847   0.739 -1.2393  0.0031 -2.9817
  550SOL    HW2 1650   1.982   1.871   0.869  0.3825  2.1056  0.9074
  551SOL     OW 1651   1.314   0.367   0.600  0.8261 -0.3333 -0.0654
  551SOL    HW1 1652   1.270   0.318   0.680 -1.6021 -0.9897  1.8872
  551SOL    HW2 1653   1.248   0.402   0.530  2.9788  2.4493 -0.7915
  552SOL     OW 1654   2.974   2.922   2.328 -0.1409 -0.0974 -0.2796
  552SOL    HW1 1655   3.041   2.995   2.346 -2.6646 -0.1045 -1.3038
  552SOL    HW2 1656   3.019   2.844   2.283 -2.0225  0.4808  0.6344
  553SOL     OW 1657   0.119   3.072   2.333 -1.2948  0.8797 -0.4064
  553SOL    HW1 1658   0.193   0.045   2.385 -2.9212 -1.1250  2.5924
  553SOL    HW2 1659   0.157   3.014   2.257  0.1315  2.3529 -3.4598
  554SOL     OW 1660   0.731   2.965   1.443 -0.4938  0.5167  0.1217
  554SOL    HW1 1661   0.659   2.899   1.463 -0.4477 -0.3909  0.5101
  554SOL    HW2 1662   0.824   2.918   1.451 -2.0570 -2.3347 -0.5092
  555SOL     OW 1663   2.642   2.518   2.364 -0.0892 -0.6615 -0.5566
  555SOL    HW1 1664   2.627   2.618   2.350  0.9224  0.7025 -0.5866
  555SOL    HW2 1665   2.597   2.460   2.291 -0.4526 -3.2164  0.0544
  556SOL     OW 1666   1.145   0.377   2.615 -0.5694 -0.4655  0.0359
  556SOL    HW1 1667   1.078   0.383   2.692  0.6337  0.1185 -2.6362
  556SOL    HW2 1668   1.147   0.285   2.578 -0.4990  0.4699  3.6249
  557SOL     OW 1669   0.371   1.698   2.333 -0.4365 -0.9094  0.3432
  557SOL    HW1 1670   0.272   1.687   2.352 -0.3894  0.6838 -2.0527
  557SOL    HW2 1671   0.405   1.618   2.282 -0.6259  1.8723  2.9497
  558SOL     OW 1672   2.248   0.947   2.479 -0.4884  0.3035 -0.3142
  558SOL    HW1 1673   2.257   1.039   2.445  2.2934 -2.6519  0.5946
  558SOL    HW2 1674   2.179   0.897   2.420 -1.6205  0.7185 -1.4221
  559SOL     OW 1675   2.392   2.067   2.127 -0.7154  0.0781  0.0950
  559SOL    HW1 1676   2.350   2.107   2.044 -1.5942 -0.5049  2.1405
  559SOL    HW2 1677   2.351   2.101   2.215  0.5446  1.0959  0.3380
  560SOL     OW 1678   2.503   0.943   2.280  0.2623  0.4023 -0.6887
  560SOL    HW1 1679   2.409   0.976   2.258 -3.4787  2.2241 -1.1329
  560SOL    HW2 1680   2.521   0.850   2.240 -0.9741  0.8217  0.2665
  561SOL     OW 1681   0.111   0.236   2.766 -0.3072  0.4287 -0.7320
  561SOL    HW1 1682   0.159   0.146   2.758 -1.7794 -0.6581  2.3521
  561SOL    HW2 1683   0.022   0.239   2.715 -0.7744  2.2385  2.1143
  562SOL     OW 1684   0.961   0.962   1.567 -0.1244  0.3354  0.2529
  562SOL    HW1 1685   0.939   0.933   1.471 -2.1877 -1.0772  0.0378
  562SOL    HW2 1686   0.877   1.017   1.596 -2.4297  1.8295 -1.4343
  563SOL     OW 1687   1.485   3.015   2.862  0.0273  0.2420 -0.3243
  563SOL    HW1 1688   1.483   2.963   2.775  3.2231  0.8424  0.1958
  563SOL    HW2 1689   1.517   2.958   2.942 -0.5305  1.1543  0.8757
  564SOL     OW 1690   0.003   2.243   1.119 -0.8856  0.0916  0.0120
  564SOL    HW1 1691   0.092   2.205   1.147 -3.5792 -1.1256 -1.8673
  564SOL    HW2 1692   3.011   2.236   1.192  2.9733 -0.8100 -1.6544
  565SOL     OW 1693   0.506   2.207   1.842 -0.3142  0.0855 -0.5533
  565SOL    HW1 1694   0.569   2.184   1.767 -1.5219 -2.1285  0.6655
  565SOL    HW2 1695   0.410   2.204   1.818 -0.6573 -2.8486  0.5904
  566SOL     OW 1696   1.261   2.563   1.958  0.1233 -0.0189 -0.6023
  566SOL    HW1 1697   1.181   2.548   2.025 -2.8717  0.7737  0.4163
  566SOL    HW2 1698   1.349   2.555   2.001 -2.2380  2.8133 -0.6585
  567SOL     OW 1699   1.862   2.495   0.864  0.3054  0.0940 -0.2728
  567SOL    HW1 1700   1.890   2.474   0.961  1.0462 -1.6880 -0.5762
  567SOL    HW2 1701   1.903   2.578   0.825 -3.8877  1.1000  2.6495
  568SOL     OW 1702   2.051   0.796   0.489  0.6137  0.1801 -0.4261
  568SOL    HW1 1703   2.024   0.893   0.473 -0.6393  0.0386 -1.8192
  568SOL    HW2 1704   1.994   0.735   0.428  2.1578 -0.1736  2.4262
  569SOL     OW 1705   2.805   1.778   2.615  0.0320 -0.1808 -0.0430
  569SOL    HW1 1706   2.855   1.862   2.642  0.3677  1.9971 -1.5330
  569SOL    HW2 1707   2.825   1.700   2.675 -0.6114  0.3934 -1.9851
  570SOL     OW 1708   2.987   0.062   1.144 -0.2027 -0.5775 -0.4242
  570SOL    HW1 1709   3.068   0.121   1.163  0.3166  1.1860  1.9383
  570SOL    HW2 1710   2.907   0.123   1.152  1.4306  0.7366 -0.2906
  571SOL     OW 1711   2.995   0.424   1.479  0.6632  0.6350 -0.1054
  571SOL    HW1 1712   3.065   0.471   1.537 -1.9980 -0.6238 -0.3894
  571SOL    HW2 1713   2.963   0.335   1.524  0.3816  1.0505  0.8527
  572SOL     OW 1714   2.913   2.623   0.794 -0.2401 -0.0819  0.3932
  572SOL    HW1 1715   2.891   2.579   0.705  1.3654 -1.7199  0.1167
  572SOL    HW2 1716   3.012   2.614   0.815 -2.2136  2.3597  0.9085
  573SOL     OW 1717   0.876   0.681   3.046 -0.0371 -0.2054 -0.1969
  573SOL    HW1 1718   0.843   0.724   0.059 -3.2512  1.9930  2.8905
  573SOL    HW2 1719   0.866   0.583   3.048  1.1057  3.1505  1.1354
  574SOL     OW 1720   2.883   2.724   0.029 -0.8730 -0.3490 -0.4820
  574SOL    HW1 1721   2.790   2.686   0.049 -0.6212 -2.6168  2.6147
  574SOL    HW2 1722   2.894   2.747   3.004  2.3461 -1.7009 -1.8189
  575SOL     OW 1723   1.460   2.280   1.246 -0.6923 -0.0835  0.6607
  575SOL    HW1 1724   1.372   2.261   1.290 -0.3856  2.3107 -1.1258
  575SOL    HW2 1725   1.460   2.364   1.188  1.2117  0.6598  1.6293
  576SOL     OW 1726   0.789   2.501   1.154  0.4261 -0.7400  0.1683
  576SOL    HW1 1727   0.809   2.520   1.054  0.9553 -1.2144  1.8041
  576SOL    HW2 1728   0.858   2.551   1.206 -0.1481 -0.1460 -1.9462
  577SOL     OW 1729   2.376   1.479   1.092  0.0764  0.0808 -0.7199
  577SOL    HW1 1730   2.422   1.493   1.183  2.2023  1.0106  2.6124
  577SOL    HW2 1731   2.430   1.416   1.040 -2.6822  1.4987  3.0271
  578SOL     OW 1732   1.612   0.277   0.373 -0.1340 -0.3071  0.1678
  578SOL    HW1 1733   1.703   0.264   0.325  0.2925  1.2777 -0.7798
  578SOL    HW2 1734   1.537   0.254   0.308 -1.7400 -1.4009  0.8802
  579SOL     OW 1735   2.267   0.793   2.699  0.3178 -0.3021  0.2072
  579SOL    HW1 1736   2.363   0.770   2.722  1.8893  2.5075  1.4185
  579SOL    HW2 1737   2.253   0.856   2.619 -0.8530  1.1481 -1.5202
  580SOL     OW 1738   1.823   0.572   1.919  0.3825 -0.7175  0.4064
  580SOL    HW1 1739   1.920   0.560   1.892  0.9250  1.6314  0.7963
  580SOL    HW2 1740   1.813   0.548   2.015  0.6996  2.1467 -3.3568
  581SOL     OW 1741   0.444   0.985   1.202 -1.0636  0.1363 -0.4872
  581SOL    HW1 1742   0.444   1.074   1.155 -0.5919 -1.8756 -0.8121
  581SOL    HW2 1743   0.536   0.944   1.198 -1.0535  2.4386  0.1703
  582SOL     OW 1744   2.634   0.103   1.909 -0.0556 -0.4674 -0.5166
  582SOL    HW1 1745   2.612   0.125   2.007 -3.5285 -0.7911  0.7749
  582SOL    HW2 1746   2.552   0.117   1.850  1.4865 -0.3001  0.4511
  583SOL     OW 1747   2.904   0.377   1.861 -0.2614  0.1588  0.4466
  583SOL    HW1 1748   2.803   0.402   1.885 -3.9440  1.3554 -2.0972
  583SOL    HW2 1749   2.912   0.298   1.799  0.6555  1.8416 -2.3443
  584SOL     OW 1750   1.420   1.866   2.748 -0.4317 -0.5626  0.6897
  584SOL    HW1 1751   1.479   1.928   2.806  0.0150 -0.6425  1.0586
  584SOL    HW2 1752   1.473   1.819   2.675 -2.5770  0.6719 -1.6596
  585SOL     OW 1753   0.275   2.917   2.926  0.4726 -0.1287  0.0823
  585SOL    HW1 1754   0.374   2.938   2.911 -2.8531  0.5308 -2.1602
  585SOL    HW2 1755   0.229   2.936   2.840 -1.1363 -1.5691 -0.4943
  586SOL     OW 1756   1.926   1.598   2.336  0.6970 -0.0196  0.4969
  586SOL    HW1 1757   1.957   1.532   2.264  3.5175  2.9393 -0.5379
  586SOL    HW2 1758   1.975   1.689   2.329 -1.1470  0.4949  0.3302
  587SOL     OW 1759   2.465   2.221   0.324 -0.2116  0.4957 -0.3304
  587SOL    HW1 1760   2.459   2.259   0.235  0.6973 -0.5588  1.3747
  587SOL    HW2 1761   2.384   2.160   0.343 -0.9653 -3.7226  1.9532
  588SOL     OW 1762   2.519   0.303   0.780  0.3768 -0.3768 -0.2426
  588SOL    HW1 1763   2.465   0.233   0.730 -1.5028  0.1503  0.6208
  588SOL    HW2 1764   2.617   0.307   0.743  1.6236  0.4547  2.1173
  589SOL     OW 1765   0.558   0.746   0.723  0.5908  0.0126  0.4389
  589SOL    HW1 1766   0.607   0.667   0.685 -1.5235 -0.8112  0.9187
  589SOL    HW2 1767   0.490   0.780   0.651 -0.4916  1.4056  0.2456
  590SOL     OW 1768   2.197   1.997   0.394  0.1349 -0.0069 -0.4461
  590SOL    HW1 1769   2.194   1.937   0.477  0.8546 -0.4820 -1.3757
  590SOL    HW2 1770   2.209   1.942   0.313 -0.4709  0.2766  1.4626
  591SOL     OW 1771   0.445   2.314   1.175 -0.4053 -0.1640  0.0182
  591SOL    HW1 1772   0.528   2.276   1.212 -2.9033  0.6421 -1.7022
  591SOL    HW2 1773   0.450   2.414   1.152 -1.2951  2.5753  0.4282
  592SOL     OW 1774   0.882   0.568   1.257  0.7264  0.2369  0.1178
  592SOL    HW1 1775   0.910   0.509   1.335  0.2803  0.5765 -0.6160
  592SOL    HW2 1776   0.787   0.539   1.230 -0.1893 -2.5227 -0.2404
  593SOL     OW 1777   1.070   1.349   1.370 -0.1520  0.0980  0.3621
  593SOL    HW1 1778   1.132   1.314   1.442  2.6361 -0.2717 -1.3359
  593SOL    HW2 1779   1.020   1.432   1.403 -1.0164 -0.4847 -1.1224
  594SOL     OW 1780   0.851   2.356   0.209 -0.4635  0.1407  0.4437
  594SOL    HW1 1781   0.796   2.300   0.141 -1.9436  0.2358 -1.2762
  594SOL    HW2 1782   0.909   2.293   0.269  1.8122 -3.4600 -0.2525
  595SOL     OW 1783   1.649   0.422   1.246  0.6497 -0.4445 -0.0506
  595SOL    HW1 1784   1.629   0.508   1.291  0.0080 -2.2616  1.4558
  595SOL    HW2 1785   1.580   0.351   1.272  1.9052 -0.4958  1.1489
  596SOL     OW 1786   2.985   1.127   1.206  0.4001  0.5388  0.1587
  596SOL    HW1 1787   3.009   1.047   1.143  0.4443 -0.1239  0.9552
  596SOL    HW2 1788   2.887   1.149   1.208  0.8457 -3.2332  0.0683
  597SOL     OW 1789   0.407   2.581   2.379 -0.1115  0.0055 -0.8183
  597SOL    HW1 1790   0.418   2.508   2.453  0.6214  1.4902  2.1701
  597SOL    HW2 1791   0.476   2.567   2.308 -2.5459  2.1981  1.9572
  598SOL     OW 1792   2.624   2.104   1.963  0.4526  0.0266 -0.0242
  598SOL    HW1 1793   2.613   2.055   1.875  0.5802  0.0833 -0.6657
  598SOL    HW2 1794   2.541   2.093   2.026 -0.9710 -0.7260  1.6640
  599SOL     OW 1795   0.819   0.199   3.001 -0.0535 -0.2157  0.3402
  599SOL    HW1 1796   0.739   0.218   2.936  0.2775 -2.1122  0.5718
  599SOL    HW2 1797   0.809   0.102   3.033 -0.0658  0.1889 -3.2787
  600SOL     OW 1798   0.159   2.202   2.677 -0.4745 -0.1180 -0.2031
  600SOL    HW1 1799   0.156   2.299   2.714  0.2472 -0.9546  1.5743
  600SOL    HW2 1800   0.128   2.135   2.746 -0.9709  0.3576 -2.9133
  601SOL     OW 1801   0.688   0.791   1.386  0.3408 -0.1797 -0.1034
  601SOL    HW1 1802   0.655   0.819   1.295 -0.3603 -0.2058 -1.8227
  601SOL    HW2 1803   0.634   0.835   1.456  0.5915 -1.0759  0.5110
  602SOL     OW 1804   0.979   2.833   0.889  0.3464 -0.2626 -0.0069
  602SOL    HW1 1805   1.009   2.754   0.827  0.4180 -2.0684 -4.0255
  602SOL    HW2 1806   0.937   2.804   0.977 -1.9465  2.7280 -0.4814
  603SOL     OW 1807   0.506   0.440   2.539  0.1888  0.1205 -0.0066
  603SOL    HW1 1808   0.603   0.472   2.541 -1.1527 -0.3580  0.7244
  603SOL    HW2 1809   0.500   0.376   2.461 -0.2505 -1.8087  1.0315
  604SOL     OW 1810   0.549   2.751   1.552 -0.2592  0.0589 -0.4137
  604SOL    HW1 1811   0.476   2.805   1.607  0.3356  0.9889  0.7936
  604SOL    HW2 1812   0.502   2.689   1.490  0.0730 -1.2474  1.2091
  605SOL     OW 1813   1.500   0.625   1.996  0.0465 -0.1556  0.6685
  605SOL    HW1 1814   1.430   0.652   1.924 -1.2533 -1.6800 -1.7863
  605SOL    HW2 1815   1.576   0.694   1.997 -0.7402  1.9067  1.0460
  606SOL     OW 1816   2.356   2.801   2.761  0.5488 -0.0348 -0.5791
  606SOL    HW1 1817   2.343   2.759   2.855 -2.6384  2.3611 -1.4369
  606SOL    HW2 1818   2.451   2.822   2.742 -0.1399 -1.1168  1.7201
  607SOL     OW 1819   0.635   0.464   1.212  0.5100 -0.3417 -0.3884
  607SOL    HW1 1820   0.586   0.490   1.127  0.5327  0.4420 -2.0216
  607SOL    HW2 1821   0.567   0.426   1.279  0.3799 -1.4153 -1.8977
  608SOL     OW 1822   0.119   1.720   2.446  0.0882  0.0236  0.2347
  608SOL    HW1 1823   0.166   1.768   2.523 -1.6276 -1.6809 -0.2701
  608SOL    HW2 1824   0.062   1.784   2.394 -1.6181 -1.0783  1.1968
  609SOL     OW 1825   1.445   1.335   0.593 -0.7408 -0.3732  0.1394
  609SOL    HW1 1826   1.394   1.325   0.508 -1.6856  0.2606 -0.8368
  609SOL    HW2 1827   1.542   1.353   0.576  2.0228 -3.4395  0.1867
  610SOL     OW 1828   0.125   0.565   0.936  0.6850 -0.1010  0.2347
  610SOL    HW1 1829   0.198   0.499   0.909 -1.3453 -1.7704  1.4370
  610SOL    HW2 1830   0.157   0.610   1.021 -0.5746  1.5455 -0.1546
  611SOL     OW 1831   1.572   0.957   0.730 -0.6728 -0.2563 -0.2291
  611SOL    HW1 1832   1.592   1.043   0.779  0.7241  0.2137 -0.7756
  611SOL    HW2 1833   1.547   0.977   0.632  0.7660 -0.7484  0.2251
  612SOL     OW 1834   1.746   1.184   0.353  0.1044  0.1727 -0.3343
  612SOL    HW1 1835   1.729   1.215   0.259 -0.5817 -2.0412 -0.0266
  612SOL    HW2 1836   1.673   1.128   0.394  0.2477 -0.9774  3.2557
  613SOL     OW 1837   1.628   0.904   0.224  0.3846 -0.1243  0.0285
  613SOL    HW1 1838   1.723   0.882   0.193 -0.2441  0.0121  1.0939
  613SOL    HW2 1839   1.590   0.984   0.175  0.1471 -0.1303 -1.0700
  614SOL     OW 1840   2.758   0.186   2.367  0.3526  0.3167 -0.4970
  614SOL    HW1 1841   2.739   0.092   2.332  0.3999 -1.4811  3.0547
  614SOL    HW2 1842   2.762   0.264   2.301  1.7382 -0.7160 -1.1095
  615SOL     OW 1843   0.548   1.622   0.952  0.1452 -0.0560  0.8728
  615SOL    HW1 1844   0.626   1.584   0.898 -1.8260 -2.7305 -1.6406
  615SOL    HW2 1845   0.544   1.724   0.934 -2.3975  1.7080 -0.3251
  616SOL     OW 1846   1.532   1.196   2.517  0.0848  0.7446 -0.2522
  616SOL    HW1 1847   1.566   1.128   2.448 -1.9148  1.4370  0.3799
  616SOL    HW2 1848   1.448   1.164   2.558  0.7576 -0.9996 -0.7681
  617SOL     OW 1849   1.347   0.442   2.904  0.2008  0.3156  0.4383
  617SOL    HW1 1850   1.276   0.408   2.969  0.6558  0.6340  1.5148
  617SOL    HW2 1851   1.376   0.375   2.829 -0.5549 -0.1569 -0.0610
  618SOL     OW 1852   1.964   2.532   2.408  0.0564  0.4069  0.0088
  618SOL    HW1 1853   1.885   2.540   2.344  2.0893 -0.5457 -1.6885
  618SOL    HW2 1854   1.933   2.551   2.499  0.5702 -1.8295  0.0842
  619SOL     OW 1855   2.199   1.928   1.091  0.1217  0.0788  0.5617
  619SOL    HW1 1856   2.207   1.974   1.005 -1.8117  0.4334  2.4507
  619SOL    HW2 1857   2.123   1.861   1.088 -2.4586  2.4644 -1.8152
  620SOL     OW 1858   1.987   2.758   2.194 -0.4936  0.6098 -0.0934
  620SOL    HW1 1859   2.068   2.740   2.144 -2.1609  1.4832  0.3544
  620SOL    HW2 1860   1.989   2.713   2.289 -0.3508 -2.8743  1.1401
  621SOL     OW 1861   0.087   1.361   0.649  0.4932  0.3128  0.2546
  621SOL    HW1 1862   0.125   1.436   0.593 -0.0575 -1.9285  1.3820
  621SOL    HW2 1863   0.010   1.396   0.708 -0.6455  2.2996  1.9322
  622SOL     OW 1864   1.408   1.528   2.747  0.5490 -0.1732  0.0758
  622SOL    HW1 1865   1.353   1.615   2.728 -1.1010  1.3872 -0.9523
  622SOL    HW2 1866   1.499   1.524   2.703  2.2397 -0.3035 -1.3857
  623SOL     OW 1867   2.858   2.442   2.179  0.0158 -0.5543 -0.1522
  623SOL    HW1 1868   2.781   2.451   2.243  2.8031 -0.4273  0.8236
  623SOL    HW2 1869   2.920   2.519   2.190 -0.4541 -0.8327 -0.5330
  624SOL     OW 1870   0.635   2.550   0.146 -0.3189 -0.3894  0.2092
  624SOL    HW1 1871   0.686   2.473   0.187  0.0193 -0.3793 -0.2001
  624SOL    HW2 1872   0.578   2.593   0.215 -2.5694 -0.9572 -0.4362
  625SOL     OW 1873   0.484   1.866   2.011  0.2634 -0.8654 -0.0591
  625SOL    HW1 1874   0.427   1.943   2.057 -0.7058  0.3708  1.6470
  625SOL    HW2 1875   0.419   1.787   1.992  1.6243 -0.6312 -0.1888
  626SOL     OW 1876   0.832   3.002   3.066  0.3075  0.7254 -0.5772
  626SOL    HW1 1877   0.875   2.945   2.990  2.0117 -1.8200  0.8869
  626SOL    HW2 1878   0.770   2.936   0.043 -0.4221 -0.6983  1.2897
  627SOL     OW 1879   1.518   1.421   0.167  0.4292 -0.1405  0.1297
  627SOL    HW1 1880   1.565   1.336   0.139 -1.2071 -0.0333 -0.8297
  627SOL    HW2 1881   1.589   1.489   0.200  0.6150 -0.0126  1.3590
  628SOL     OW 1882   1.390   2.195   0.802  0.4540 -0.3122 -0.2601
  628SOL    HW1 1883   1.321   2.130   0.848 -4.7208 -3.5249  0.0373
  628SOL    HW2 1884   1.384   2.292   0.831 -2.0119  2.6684 -0.1567
  629SOL     OW 1885   2.986   0.139   1.527  0.2586  0.5229  0.1956
  629SOL    HW1 1886   0.004   0.178   1.507  1.6419  0.0613  0.3298
  629SOL    HW2 1887   3.001   0.059   1.592 -1.3523  0.2398  1.7536
  630SOL     OW 1888   2.280   0.680   1.668 -0.7758 -0.6715  0.0469
  630SOL    HW1 1889   2.220   0.732   1.611 -0.1335 -1.3786  2.5984
  630SOL    HW2 1890   2.344   0.622   1.612 -1.8973 -0.8550 -3.9992
  631SOL     OW 1891   1.229   0.427   1.015  0.0462  0.0700 -0.1566
  631SOL    HW1 1892   1.334   0.440   1.019  3.5738  0.1539  0.0743
  631SOL    HW2 1893   1.201   0.384   0.926 -1.0989 -0.6226  0.4157
  632SOL     OW 1894   2.856   0.795   2.010 -0.4150 -0.4358  0.4351
  632SOL    HW1 1895   2.775   0.844   1.981  0.4923 -2.0688  5.8042
  632SOL    HW2 1896   2.928   0.802   1.942 -0.2508 -0.5926  0.2835
  633SOL     OW 1897   1.352   0.896   2.921  0.6356  0.0053 -0.0829
  633SOL    HW1 1898   1.319   0.986   2.884 -0.0052 -0.2269 -0.6315
  633SOL    HW2 1899   1.271   0.838   2.937 -0.0631  1.6851  1.5013
  634SOL     OW 1900   0.635   2.829   0.047  0.4296  0.1148  0.0951
  634SOL    HW1 1901   0.661   2.730   0.051  2.6195  2.0969 -0.1786
  634SOL    HW2 1902   0.572   2.851   0.123  1.7267 -0.6076  1.5880
  635SOL     OW 1903   0.103   1.437   1.481 -0.1122 -0.0030  0.4810
  635SOL    HW1 1904   0.151   1.424   1.391  0.0031 -2.1616 -0.4697
  635SOL    HW2 1905   0.059   1.529   1.497 -0.9519 -0.3831 -0.0011
  636SOL     OW 1906   0.156   1.596   0.096  0.1894 -0.2365  0.1870
  636SOL    HW1 1907   0.143   1.568   0.192 -1.1570 -0.7232 -3.1909
  636SOL    HW2 1908   0.068   1.600   0.052  3.4620  1.7724  2.4245
  637SOL     OW 1909   3.022   2.596   0.512 -0.4670 -0.1264  0.0082
  637SOL    HW1 1910   2.988   2.672   0.456  1.6395 -3.6958  0.5016
  637SOL    HW2 1911   2.943   2.529   0.513  0.3611 -0.3645 -0.8000
  638SOL     OW 1912   2.539   2.558   0.309 -0.1069  0.3235  0.0446
  638SOL    HW1 1913   2.441   2.545   0.321  0.9999  1.6669  0.3853
  638SOL    HW2 1914   2.590   2.481   0.261  1.7742 -2.3741  0.7797
  639SOL     OW 1915   1.389   0.289   2.690 -0.2064  0.3246 -0.3836
  639SOL    HW1 1916   1.295   0.307   2.662  2.9837  2.2309  1.7929
  639SOL    HW2 1917   1.424   0.199   2.653 -0.9383  0.5619  0.9061
  640SOL     OW 1918   2.214   1.979   1.462  0.2780 -0.0616 -0.7046
  640SOL    HW1 1919   2.184   2.043   1.387 -1.0228  3.2721 -3.0429
  640SOL    HW2 1920   2.266   2.030   1.537 -1.4864  1.6816 -1.9558
  641SOL     OW 1921   2.995   0.030   0.834 -0.4949  0.0530 -0.3946
  641SOL    HW1 1922   2.988   0.044   0.936 -0.8475  0.8194 -2.8113
  641SOL    HW2 1923   2.903   0.035   0.790 -1.8626 -0.0600  0.3842
  642SOL     OW 1924   1.123   1.066   1.820 -0.1205 -0.5225  0.0935
  642SOL    HW1 1925   1.058   1.127   1.865 -1.3914 -1.7680  0.1590
  642SOL    HW2 1926   1.085   1.019   1.739  0.2097  1.6154 -0.2903
  643SOL     OW 1927   0.575   1.828   2.464 -0.1021 -0.3173  0.4196
  643SOL    HW1 1928   0.500   1.767   2.432  1.1022 -0.2686  0.7898
  643SOL    HW2 1929   0.572   1.922   2.417  0.1451  0.8514 -2.4100
  644SOL     OW 1930   1.471   2.687   2.399 -0.1316  0.8753 -0.1554
  644SOL    HW1 1931   1.455   2.769   2.340  1.8081 -1.9886 -0.4576
  644SOL    HW2 1932   1.392   2.672   2.461 -1.3170 -1.6072  1.6198
  645SOL     OW 1933   1.331   0.696   1.797  0.1635 -0.5051 -0.1498
  645SOL    HW1 1934   1.403   0.734   1.740 -1.2241 -1.8293 -2.2855
  645SOL    HW2 1935   1.237   0.712   1.762  1.9888 -1.4903 -2.1414
  646SOL     OW 1936   1.153   2.250   2.726  0.2778  0.4928  0.3763
  646SOL    HW1 1937   1.247   2.280   2.738  0.2656 -0.1666  1.5427
  646SOL    HW2 1938   1.145   2.142   2.737  0.6562 -5.4561  0.5593
  647SOL     OW 1939   1.375   2.782   0.571  0.2117 -0.2112  0.1415
  647SOL    HW1 1940   1.425   2.697   0.585  3.7458 -2.2126  0.9236
  647SOL    HW2 1941   1.432   2.859   0.537 -1.1989 -1.7129 -0.5620
  648SOL     OW 1942   2.723   2.718   1.266 -0.1669  0.5136 -0.4331
  648SOL    HW1 1943   2.695   2.625   1.292  0.2745 -2.3013 -1.0246
  648SOL    HW2 1944   2.760   2.718   1.176  1.7662 -3.1226  3.3901
  649SOL     OW 1945   0.821   2.370   2.492  0.1115  0.2121 -0.3831
  649SOL    HW1 1946   0.846   2.287   2.444 -0.7703  1.4537 -2.1110
  649SOL    HW2 1947   0.741   2.361   2.552  0.2597 -0.2036 -1.4080
  650SOL     OW 1948   2.511   1.796   2.624  0.3387  0.2397 -0.1160
  650SOL    HW1 1949   2.602   1.750   2.633  0.1026 -0.6135  1.8933
  650SOL    HW2 1950   2.531   1.885   2.584 -0.5225 -1.4767  1.1604
  651SOL     OW 1951   2.512   2.391   2.142  0.1864  0.2265 -0.4380
  651SOL    HW1 1952   2.555   2.399   2.051  1.5150 -0.2481  1.0259
  651SOL    HW2 1953   2.428   2.346   2.129  3.6433 -0.3632 -0.3651
  652SOL     OW 1954   2.570   2.508   1.074 -0.2212 -0.0750 -0.0282
  652SOL    HW1 1955   2.666   2.474   1.054  1.6303 -2.5543 -2.0306
  652SOL    HW2 1956   2.518   2.465   1.155  0.6880  1.1676  0.0482
  653SOL     OW 1957   2.798   1.255   0.908  0.2171  0.0876 -0.5936
  653SOL    HW1 1958   2.744   1.272   0.992  2.0087 -0.8400  0.7001
  653SOL    HW2 1959   2.796   1.164   0.872 -1.7667 -0.7889 -0.2078
  654SOL     OW 1960   0.968   0.419   2.818  0.1783 -0.0893  0.3720
  654SOL    HW1 1961   0.994   0.389   2.906  0.7465  1.2303 -2.3732
  654SOL    HW2 1962   0.867   0.428   2.809 -0.3589  1.0062  0.5743
  655SOL     OW 1963   0.773   0.150   1.021  0.6064  0.2515 -0.1923
  655SOL    HW1 1964   0.817   0.198   0.942 -1.4540  1.0411  0.4004
  655SOL    HW2 1965   0.803   0.193   1.108 -3.1311 -1.7038  0.7280
  656SOL     OW 1966   0.377   2.472   1.825 -0.5662 -0.7999  0.0883
  656SOL    HW1 1967   0.385   2.414   1.742 -3.0689  1.5654 -2.4415
  656SOL    HW2 1968   0.471   2.509   1.850  1.9705 -0.6832 -0.1810
  657SOL     OW 1969   2.426   0.797   0.252  0.1369 -0.1961 -0.2470
  657SOL    HW1 1970   2.460   0.767   0.164 -2.0499  2.1729  5.0702
  657SOL    HW2 1971   2.466   0.893   0.268 -0.1871 -0.5934 -0.7885
  658SOL     OW 1972   2.018   2.157   1.003  0.3788  0.1729  0.1739
  658SOL    HW1 1973   2.071   2.149   0.919 -1.1618 -0.3878 -2.2271
  658SOL    HW2 1974   1.945   2.082   1.004 -0.1651 -1.6944 -1.2487
  659SOL     OW 1975   2.641   1.729   3.011 -0.3908 -0.8268 -0.0968
  659SOL    HW1 1976   2.558   1.770   2.972  1.9691 -2.0173 -2.8285
  659SOL    HW2 1977   2.622   1.633   3.022  3.0598  2.4822 -0.6416
  660SOL     OW 1978   0.890   0.425   0.467 -0.5723  0.6571  0.2227
  660SOL    HW1 1979   0.900   0.336   0.517 -0.1885 -3.3362 -1.3262
  660SOL    HW2 1980   0.980   0.462   0.443  0.3223 -2.0525  2.2178
  661SOL     OW 1981   1.752   2.992   0.130 -1.0587  0.1969 -0.1513
  661SOL    HW1 1982   1.817   2.921   0.150 -1.8273 -1.0840  0.5962
  661SOL    HW2 1983   1.799   0.007   0.127 -0.6950 -0.0884 -0.1141
  662SOL     OW 1984   0.734   2.876   0.711  0.4983  0.1219  0.0857
  662SOL    HW1 1985   0.654   2.935   0.728  1.8780 -1.4719  0.0458
  662SOL    HW2 1986   0.804   2.884   0.785  2.3217  0.1013  0.3342
  663SOL     OW 1987   1.342   3.039   2.002  0.6876 -0.6102  0.1500
  663SOL    HW1 1988   1.441   3.046   1.979  2.8865  0.2941  0.8188
  663SOL    HW2 1989   1.298   0.057   2.021  0.5527  0.1359 -0.0385
  664SOL     OW 1990   0.753   2.437   1.497 -0.3250 -0.3468  0.0789
  664SOL    HW1 1991   0.665   2.390   1.472  2.4348 -0.9035 -0.0777
  664SOL    HW2 1992   0.743   2.505   1.574  0.1965  0.2123 -4.4179
  665SOL     OW 1993   0.901   2.212   1.507 -0.1063 -0.0748 -0.2949
  665SOL    HW1 1994   0.995   2.191   1.538 -1.3892  0.7438 -1.1564
  665SOL    HW2 1995   0.881   2.310   1.508 -0.5770 -3.1009 -3.2223
  666SOL     OW 1996   0.693   2.917   2.455  0.0234 -0.5779  0.2082
  666SOL    HW1 1997   0.694   3.014   2.485 -2.1544  1.5462 -0.4657
  666SOL    HW2 1998   0.621   2.863   2.505 -0.4633  0.1946  0.9470
  667SOL     OW 1999   2.066   1.360   1.773  0.1217 -0.1938  0.5523
  667SOL    HW1 2000   2.067   1.333   1.676  2.2087  0.5181  1.2677
  667SOL    HW2 2001   2.090   1.456   1.786  0.7974 -1.7150  0.2248
  668SOL     OW 2002   1.704   2.837   1.597  0.4324 -0.1025  0.2100
  668SOL    HW1 2003   1.643   2.777   1.651 -0.9400 -1.4511  1.5046
  668SOL    HW2 2004   1.705   2.931   1.632 -1.0987 -3.4099  0.4840
  669SOL     OW 2005   2.435   2.700   0.944  0.4104 -0.7677  0.0173
  669SOL    HW1 2006   2.483   2.625   0.991 -1.1228  1.9418  0.9980
  669SOL    HW2 2007   2.478   2.718   0.852  2.1740 -1.3699 -0.4281
  670SOL     OW 2008   1.396   2.449   3.040  0.2505 -0.4056  0.0335
  670SOL    HW1 2009   1.311   2.456   0.019  0.1241  0.3658  2.5415
  670SOL    HW2 2010   1.376   2.461   2.944  0.4861 -3.3050  1.0398
  671SOL     OW 2011   0.733   1.110   0.446 -0.3803  0.6868 -0.0249
  671SOL    HW1 2012   0.694   1.136   0.354  2.9102 -0.3873  1.2560
  671SOL    HW2 2013   0.658   1.081   0.509 -0.1197  0.0284  0.8574
  672SOL     OW 2014   2.686   1.166   2.801  0.5149  0.0676 -1.0321
  672SOL    HW1 2015   2.731   1.244   2.850  0.7145  0.5353 -0.6038
  672SOL    HW2 2016   2.661   1.189   2.703  0.1400  1.8161 -4.1061
  673SOL     OW 2017   2.923   2.112   1.650  0.3309  0.1081  0.6489
  673SOL    HW1 2018   3.021   2.129   1.648 -3.0992  0.1905  0.0215
  673SOL    HW2 2019   2.891   2.048   1.721  1.3498  2.8236 -1.4211
  674SOL     OW 2020   0.597   2.316   2.091 -0.0942  0.0330  0.1630
  674SOL    HW1 2021   0.589   2.260   2.176 -0.1986 -0.8691 -3.6343
  674SOL    HW2 2022   0.551   2.272   2.011  1.8232  1.3540 -1.9283
  675SOL     OW 2023   1.023   0.513   1.719 -0.1727  0.4847  0.4017
  675SOL    HW1 2024   0.960   0.519   1.801  1.0545 -1.4341 -1.8310
  675SOL    HW2 2025   0.986   0.449   1.649  0.8948 -1.2396  0.8411
  676SOL     OW 2026   1.879   0.050   1.365 -0.4022  0.4487  0.0517
  676SOL    HW1 2027   1.861   3.037   1.320 -1.9900  1.2675  2.2346
  676SOL    HW2 2028   1.817   0.057   1.443  1.8531 -0.8881 -1.0081
  677SOL     OW 2029   2.419   1.277   3.039  0.1416 -0.4683 -0.4876
  677SOL    HW1 2030   2.364   1.310   2.959 -2.8495  1.1652 -1.4852
  677SOL    HW2 2031   2.459   1.185   3.015 -1.2166  2.2311 -0.5643
  678SOL     OW 2032   2.707   1.238   1.188 -0.2368 -0.4157  0.1456
  678SOL    HW1 2033   2.682   1.335   1.213  0.5950  4.6256 -1.5087
  678SOL    HW2 2034   2.636   1.174   1.213  1.4747  0.0661 -1.4671
  679SOL     OW 2035   2.539   0.424   0.010 -0.5033 -0.1350  0.0230
  679SOL    HW1 2036   2.533   0.370   0.099 -0.6144  3.0076  1.3020
  679SOL    HW2 2037   2.632   0.399   3.047  0.8173 -1.2497  2.4115
  680SOL     OW 2038   0.597   1.478   1.985  1.0455  0.0041  0.0539
  680SOL    HW1 2039   0.680   1.484   2.044  3.0966 -1.0139 -0.9623
  680SOL    HW2 2040   0.514   1.477   2.042  0.8516 -2.2190  0.3584
  681SOL     OW 2041   2.600   2.001   1.731  0.1825  0.3313  0.1485
  681SOL    HW1 2042   2.564   2.019   1.640  0.2031  0.2363  1.5085
  681SOL    HW2 2043   2.615   1.896   1.746 -0.4328  1.1786  1.8648
  682SOL     OW 2044   0.099   2.069   0.029  0.2891 -0.0899 -0.5254
  682SOL    HW1 2045   0.131   1.991   0.090  1.6978 -1.4245 -1.6588
  682SOL    HW2 2046   0.057   2.144   0.082 -1.9187  0.6260  1.3954
  683SOL     OW 2047   2.856   2.222   1.304 -0.2402  0.0004 -0.1195
  683SOL    HW1 2048   2.845   2.132   1.261  0.1395  2.3348  1.9140
  683SOL    HW2 2049   2.785   2.230   1.372  1.4174  1.3338  0.6367
  684SOL     OW 2050   2.868   1.174   2.243 -0.5210 -0.5339 -0.1017
  684SOL    HW1 2051   2.862   1.269   2.286 -0.2081  2.7854  0.8412
  684SOL    HW2 2052   2.785   1.142   2.194 -2.4536  1.0282  0.8998
  685SOL     OW 2053   1.522   0.499   0.536 -0.7007  0.0713  0.5392
  685SOL    HW1 2054   1.582   0.462   0.458 -0.4321 -0.6806  1.2482
  685SOL    HW2 2055   1.440   0.445   0.544  1.9987  1.3902 -3.0970
  686SOL     OW 2056   0.568   0.358   0.675 -0.4991  0.3464 -0.1402
  686SOL    HW1 2057   0.638   0.432   0.670 -1.0247 -1.4150  1.5149
  686SOL    HW2 2058   0.492   0.376   0.610  1.0993 -1.1737 -0.5373
  687SOL     OW 2059   0.494   1.918   2.718  0.3024 -0.5623  0.0249
  687SOL    HW1 2060   0.519   1.895   2.621  3.2137  0.0188 -1.3575
  687SOL    HW2 2061   0.482   2.014   2.738 -0.3211  1.6362  0.8900
  688SOL     OW 2062   2.048   0.367   1.572 -0.2699 -0.5194 -0.2918
  688SOL    HW1 2063   2.080   0.282   1.520 -0.0657 -0.7395 -0.6564
  688SOL    HW2 2064   2.073   0.444   1.510 -2.4360 -1.0584 -2.4585
  689SOL     OW 2065   1.649   0.474   0.799 -0.2985 -0.1780  0.0502
  689SOL    HW1 2066   1.591   0.423   0.867 -0.8813 -1.3507  0.7720
  689SOL    HW2 2067   1.589   0.509   0.723  0.1044  0.9310 -0.7934
  690SOL     OW 2068   0.099   1.330   1.166  0.3799 -0.6548 -0.1185
  690SOL    HW1 2069   0.013   1.283   1.199  3.3428  2.3326 -0.1935
  690SOL    HW2 2070   0.140   1.295   1.081  0.1983 -0.1625 -0.6900
  691SOL     OW 2071   0.240   2.135   1.223  0.1885 -0.1919 -0.0832
  691SOL    HW1 2072   0.307   2.209   1.210  0.2410 -1.2070  0.1627
  691SOL    HW2 2073   0.282   2.045   1.206 -0.0895  0.1347  0.6659
  692SOL     OW 2074   1.255   0.129   1.548 -0.1538 -0.0243 -0.1373
  692SOL    HW1 2075   1.307   0.048   1.575 -1.9697  1.0182 -0.2631
  692SOL    HW2 2076   1.320   0.210   1.545  3.2832  0.4622 -3.1240
  693SOL     OW 2077   0.831   1.597   2.099 -0.8757  0.4969  0.0705
  693SOL    HW1 2078   0.797   1.694   2.088 -1.4323  1.7152  1.8078
  693SOL    HW2 2079   0.894   1.568   2.023 -1.9001  3.0747 -1.1188
  694SOL     OW 2080   1.828   1.496   0.804  0.1012  0.5985  0.5871
  694SOL    HW1 2081   1.789   1.455   0.887 -2.4109 -1.2911 -0.6304
  694SOL    HW2 2082   1.801   1.440   0.725  2.5269  2.7478  1.2308
  695SOL     OW 2083   0.932   0.911   1.299 -0.2865  0.6741 -0.5173
  695SOL    HW1 2084   0.959   0.897   1.200  1.7343  0.2218  0.9712
  695SOL    HW2 2085   0.852   0.852   1.319 -3.1721  1.3973 -0.5259
  696SOL     OW 2086   0.385   2.995   0.510 -0.0270 -0.3452  0.7019
  696SOL    HW1 2087   0.441   2.960   0.429  0.8825 -0.6271  0.9636
  696SOL    HW2 2088   0.325   2.920   0.545  3.2426  1.3688 -1.2345
  697SOL     OW 2089   2.053   0.449   1.101 -0.3407  0.0193 -0.2232
  697SOL    HW1 2090   2.032   0.452   1.004  1.0019 -2.2030 -1.5506
  697SOL    HW2 2091   1.986   0.397   1.161  0.4471 -2.7619  0.6570
  698SOL     OW 2092   1.489   1.337   1.844 -0.0853 -0.5977  0.1227
  698SOL    HW1 2093   1.567   1.368   1.785  0.9801 -3.2681 -0.3681
  698SOL    HW2 2094   1.473   1.236   1.824  0.3487  0.4508  2.8808
  699SOL     OW 2095   3.061   0.363   2.162  0.3543  0.3658 -0.3410
  699SOL    HW1 2096   2.956   0.371   2.164 -5.2789 -0.4298 -0.7096
  699SOL    HW2 2097   0.026   0.434   2.220  1.4995 -0.3620  1.2052
  700SOL     OW 2098   1.283   2.536   0.802  0.0030  0.2229  0.1757
  700SOL    HW1 2099   1.353   2.547   0.727  0.1525  1.2174 -2.6187
  700SOL    HW2 2100   1.285   2.614   0.869  1.6888  2.7274  1.9414
  701SOL     OW 2101   0.030   1.498   2.535  0.0768 -0.2136  0.0630
  701SOL    HW1 2102   0.057   1.592   2.501 -0.9461  0.9604  0.5929
  701SOL    HW2 2103   0.036   1.503   2.634 -0.0289  1.3737 -1.8718
  702SOL     OW 2104   0.624   0.138   0.564 -0.9766  0.3490 -0.2440
  702SOL    HW1 2105   0.602   0.219   0.624  0.6503  1.2678 -1.2684
  702SOL    HW2 2106   0.581   0.056   0.599  1.9156  2.6730  1.2089
  703SOL     OW 2107   1.717   0.012   2.754 -0.2291  0.0320  0.8631
  703SOL    HW1 2108   1.782   0.031   2.831  0.6402 -1.2121  0.7875
  703SOL    HW2 2109   1.631   3.053   2.785  3.4760  1.8332  0.9820
  704SOL     OW 2110   2.579   1.811   0.412  0.0692  0.6673 -0.0430
  704SOL    HW1 2111   2.615   1.905   0.416 -2.5462 -1.7046 -1.3897
  704SOL    HW2 2112   2.535   1.790   0.501  1.3525 -0.5279  0.0814
  705SOL     OW 2113   2.715   2.080   2.276  0.3092  0.3127 -0.1904
  705SOL    HW1 2114   2.686   2.074   2.178  1.1006  0.6904 -1.8573
  705SOL    HW2 2115   2.800   2.134   2.285  2.6827 -1.3401 -0.0678
  706SOL     OW 2116   2.810   2.921   0.562 -0.1291  0.6578  0.3971
  706SOL    HW1 2117   2.751   2.880   0.487 -1.3169  0.1664  0.2270
  706SOL    HW2 2118   2.897   2.967   0.530 -0.6991  1.0828  2.8555
  707SOL     OW 2119   1.150   0.117   0.113  0.5945 -0.2964  0.7197
  707SOL    HW1 2120   1.164   0.031   0.060 -0.7090 -0.9172 -0.3956
  707SOL    HW2 2121   1.056   0.116   0.148  2.0970 -1.6189  0.8621
  708SOL     OW 2122   0.248   2.126   1.831  0.0768 -0.1604  0.4859
  708SOL    HW1 2123   0.166   2.185   1.802  0.2805  1.2696 -0.8422
  708SOL    HW2 2124   0.272   2.143   1.929  0.7654  1.2528  1.8839
  709SOL     OW 2125   1.251   2.823   1.860  0.5773 -0.2170  0.0180
  709SOL    HW1 2126   1.245   2.730   1.909  0.0956 -0.7342  2.3190
  709SOL    HW2 2127   1.264   2.900   1.926 -0.3187 -1.5237 -2.0810
  710SOL     OW 2128   1.782   2.523   2.621 -0.2571  0.2968 -0.5033
  710SOL    HW1 2129   1.732   2.578   2.694 -1.7040 -0.7157  0.8499
  710SOL    HW2 2130   1.724   2.484   2.547  2.7714 -1.6794  1.9429
  711SOL     OW 2131   1.037   2.473   2.638  0.5031 -0.7835 -0.6059
  711SOL    HW1 2132   0.962   2.453   2.575  2.3890 -1.8232 -0.7104
  711SOL    HW2 2133   1.089   2.387   2.651  0.5572 -0.1917  2.8595
  712SOL     OW 2134   1.187   1.971   2.781  0.8845 -0.5940  0.9941
  712SOL    HW1 2135   1.272   1.917   2.804  0.5244 -0.6072  2.2665
  712SOL    HW2 2136   1.125   1.998   2.861 -1.5218  1.9942  4.6006
  713SOL     OW 2137   1.582   0.901   1.693  0.1586  0.3932 -0.5173
  713SOL    HW1 2138   1.648   0.836   1.736  1.7472  0.5463  2.0521
  713SOL    HW2 2139   1.629   0.978   1.648  0.9188  0.3096 -0.4185
  714SOL     OW 2140   1.230   1.432   1.711  0.4527  0.3447  0.3036
  714SOL    HW1 2141   1.330   1.449   1.723 -1.1315  0.4215  2.4188
  714SOL    HW2 2142   1.209   1.347   1.661  1.8338 -0.1656  3.3488
  715SOL     OW 2143   2.744   0.070   0.249  0.1538 -0.1789  0.2387
  715SOL    HW1 2144   2.844   0.083   0.269  2.2498 -0.4680 -0.3472
  715SOL    HW2 2145   2.724   3.075   0.184 -2.6472  1.3600  0.6898
  716SOL     OW 2146   0.523   2.575   1.177  0.1377 -0.4642  0.3105
  716SOL    HW1 2147   0.617   2.552   1.178 -2.8390  1.7629 -2.6555
  716SOL    HW2 2148   0.515   2.643   1.101  1.5135  0.1842  1.6620
  717SOL     OW 2149   2.644   0.643   0.308  0.0979 -0.5034 -0.5844
  717SOL    HW1 2150   2.614   0.546   0.309  0.7727  0.5045  0.9070
  717SOL    HW2 2151   2.561   0.701   0.290 -1.3716  0.1953  0.2655
  718SOL     OW 2152   1.831   1.418   1.271 -0.1780 -0.1092  0.4567
  718SOL    HW1 2153   1.921   1.465   1.284  0.6786  0.7537  0.8268
  718SOL    HW2 2154   1.786   1.390   1.356  2.0245 -0.0614 -1.2029
  719SOL     OW 2155   2.639   2.670   0.060  0.1743  0.1116  0.1270
  719SOL    HW1 2156   2.621   2.611   3.056  0.4878  0.8811  2.2729
  719SOL    HW2 2157   2.591   2.630   0.144  1.1395 -3.2080  1.8746
  720SOL     OW 2158   1.046   0.621   1.040  0.1456 -0.6365  0.3060
  720SOL    HW1 2159   1.123   0.558   1.025  0.2094 -1.4950  1.7916
  720SOL    HW2 2160   0.996   0.595   1.121 -1.5634  0.4507 -1.5838
  721SOL     OW 2161   1.899   0.166   1.024 -0.3831  0.3690  0.6972
  721SOL    HW1 2162   1.982   0.202   0.974 -0.8860  1.5206 -2.7833
  721SOL    HW2 2163   1.871   0.231   1.099 -0.0618  0.9095 -0.8623
  722SOL     OW 2164   0.880   1.986   1.884  0.3163 -0.0616 -0.7317
  722SOL    HW1 2165   0.820   1.933   1.945 -0.4457  1.1631  1.0991
  722SOL    HW2 2166   0.959   2.028   1.932  0.2152  1.0355 -2.1492
  723SOL     OW 2167   1.075   0.054   1.336 -0.3052 -0.8044 -0.6277
  723SOL    HW1 2168   1.130   0.023   1.255  2.9419  0.4352  0.3974
  723SOL    HW2 2169   1.134   0.086   1.414 -0.2017 -2.1340  0.1155
  724SOL     OW 2170   1.843   1.958   1.829  0.3297  0.3591 -0.2016
  724SOL    HW1 2171   1.899   1.923   1.752 -0.9802 -0.4312  1.7261
  724SOL    HW2 2172   1.824   1.880   1.891  1.6270 -4.0753 -3.3808
  725SOL     OW 2173   1.346   2.694   1.503  0.0020 -0.0274  0.3199
  725SOL    HW1 2174   1.427   2.681   1.442 -0.4046  0.0225  1.6287
  725SOL    HW2 2175   1.368   2.660   1.598  0.9921 -2.2839  1.7930
  726SOL     OW 2176   1.818   0.200   0.231  0.6950  0.0217  0.3362
  726SOL    HW1 2177   1.849   0.235   0.139  0.3097 -1.1563 -1.7122
  726SOL    HW2 2178   1.888   0.144   0.278  0.7984  1.1841 -0.7997
  727SOL     OW 2179   1.372   1.895   0.659  0.2896  0.4543  0.5267
  727SOL    HW1 2180   1.427   1.906   0.746  2.1136 -2.2290 -0.0172
  727SOL    HW2 2181   1.398   1.959   0.581 -0.0946  1.4581 -0.8382
  728SOL     OW 2182   1.748   2.877   2.457 -0.4113 -0.0564  0.2915
  728SOL    HW1 2183   1.646   2.885   2.479 -1.8651 -1.5612  0.6374
  728SOL    HW2 2184   1.763   2.873   2.356  0.8024  0.8950  0.1776
  729SOL     OW 2185   2.106   2.315   1.615  0.1059  0.0941 -0.0479
  729SOL    HW1 2186   2.131   2.368   1.698 -2.3399  1.4365 -0.4989
  729SOL    HW2 2187   2.134   2.220   1.621 -2.5032 -0.7765 -3.9642
  730SOL     OW 2188   1.740   0.585   2.526  0.2008 -0.2008 -0.4612
  730SOL    HW1 2189   1.735   0.580   2.631  0.9283 -1.9845  2.2903
  730SOL    HW2 2190   1.736   0.495   2.485 -2.2369  0.8672  1.3731
  731SOL     OW 2191   0.488   0.103   1.262  0.9630 -0.2388 -0.2699
  731SOL    HW1 2192   0.412   0.095   1.325  3.4908  0.1248 -2.2172
  731SOL    HW2 2193   0.564   0.153   1.307 -3.0506  1.2758 -3.2977
  732SOL     OW 2194   1.837   2.865   1.223 -0.7318  0.2975  0.0393
  732SOL    HW1 2195   1.794   2.930   1.159  0.2308  0.7712 -0.0899
  732SOL    HW2 2196   1.808   2.767   1.199 -0.0985 -3.9585  1.3095
  733SOL     OW 2197   1.237   0.880   1.347 -0.0217 -0.6798 -0.8015
  733SOL    HW1 2198   1.136   0.901   1.354 -2.4663 -1.2258  0.0747
  733SOL    HW2 2199   1.294   0.944   1.405  0.2622 -0.5172 -2.1223
  734SOL     OW 2200   2.537   2.355   0.586 -0.4540 -0.1379  0.0110
  734SOL    HW1 2201   2.502   2.328   0.497 -0.4191  3.3000  0.4615
  734SOL    HW2 2202   2.503   2.298   0.666 -0.6480 -0.5527 -0.4342
  735SOL     OW 2203   0.529   0.502   0.052 -0.2144 -0.2127  0.4327
  735SOL    HW1 2204   0.526   0.581   3.061 -0.3814  0.4660 -2.0175
  735SOL    HW2 2205   0.608   0.522   0.109  0.7963  0.5115 -0.6480
  736SOL     OW 2206   2.030   2.202   2.694 -0.8048 -0.2259  0.2588
  736SOL    HW1 2207   2.096   2.272   2.722 -0.0307 -0.1129  1.3384
  736SOL    HW2 2208   1.948   2.220   2.753  0.6209  0.1735 -1.2076
  737SOL     OW 2209   1.024   2.335   1.243 -0.2891 -0.1653 -0.3156
  737SOL    HW1 2210   1.019   2.427   1.284 -0.0186  2.1369 -1.6760
  737SOL    HW2 2211   0.956   2.326   1.166 -0.1746  1.8008 -2.3025
  738SOL     OW 2212   1.505   2.666   2.047  0.4604  0.2141  0.1033
  738SOL    HW1 2213   1.467   2.748   2.101 -0.9605 -0.7599  1.3360
  738SOL    HW2 2214   1.604   2.666   2.051 -4.5245  1.5244 -1.8301
  739SOL     OW 2215   1.095   2.111   2.027 -0.4408 -0.2602 -0.0251
  739SOL    HW1 2216   1.179   2.074   1.987  1.4455  0.5474  2.4222
  739SOL    HW2 2217   1.114   2.125   2.127  0.8458  1.5199 -0.8163
  740SOL     OW 2218   1.844   2.227   1.576  0.6015  0.2251 -0.2005
  740SOL    HW1 2219   1.864   2.209   1.478  0.8043  0.8421  0.7516
  740SOL    HW2 2220   1.926   2.271   1.610 -5.2317 -2.5282  1.3546
  741SOL     OW 2221   2.271   1.784   0.118  0.0769 -0.1688 -0.1851
  741SOL    HW1 2222   2.245   1.732   0.204  0.3130 -1.3734  1.0155
  741SOL    HW2 2223   2.269   1.712   0.048 -3.5124  1.4722 -1.3028
  742SOL     OW 2224   0.952   0.975   2.784 -0.7827 -0.1825  0.2586
  742SOL    HW1 2225   0.898   1.008   2.705 -1.7188  1.7796  1.8167
  742SOL    HW2 2226   1.045   0.944   2.746  0.6195 -0.4044 -0.3661
  743SOL     OW 2227   2.581   1.208   2.548  0.1612 -0.0033 -0.4092
  743SOL    HW1 2228   2.607   1.115   2.515  1.2571 -1.1711 -3.3821
  743SOL    HW2 2229   2.482   1.224   2.524 -0.0643  3.1030  2.2896
  744SOL     OW 2230   2.193   2.461   1.861 -0.4238 -0.1220  0.4587
  744SOL    HW1 2231   2.176   2.465   1.964 -0.3891  0.4743  2.9532
  744SOL    HW2 2232   2.229   2.552   1.834  0.0349  1.6165  0.7056
  745SOL     OW 2233   2.656   1.648   1.496 -0.2705 -0.3296  0.3141
  745SOL    HW1 2234   2.626   1.726   1.438 -3.1336  0.0578  2.4639
  745SOL    HW2 2235   2.571   1.610   1.539 -0.6547  2.5596 -0.6462
  746SOL     OW 2236   2.931   1.445   0.760 -0.2393  0.4603 -0.1033
  746SOL    HW1 2237   2.934   1.532   0.812  1.4817 -0.3541  0.0966
  746SOL    HW2 2238   2.889   1.369   0.815  2.0539  0.8761  1.0751
  747SOL     OW 2239   1.807   2.342   0.253 -0.0369 -0.3709 -0.3061
  747SOL    HW1 2240   1.880   2.307   0.312 -0.0968 -0.3125  1.0896
  747SOL    HW2 2241   1.758   2.270   0.204  0.5279  1.0722  1.2098
  748SOL     OW 2242   0.700   2.207   0.058 -1.1210  0.2590 -0.2437
  748SOL    HW1 2243   0.724   2.130   3.069 -2.1875 -1.8535 -1.7578
  748SOL    HW2 2244   0.608   2.187   0.095  0.5284 -0.7539  0.5187
  749SOL     OW 2245   2.791   0.403   2.194 -0.2916  0.5948 -0.7772
  749SOL    HW1 2246   2.811   0.497   2.228 -0.3449 -2.3920 -1.9924
  749SOL    HW2 2247   2.733   0.403   2.111  1.7905 -0.9308  4.6683
  750SOL     OW 2248   1.494   0.221   1.317  0.0079 -0.0215 -0.1596
  750SOL    HW1 2249   1.536   0.229   1.409 -2.1183  0.6195  0.0732
  750SOL    HW2 2250   1.470   0.126   1.287  0.4963  0.3566  1.9390
  751SOL     OW 2251   2.202   2.399   2.413  0.4251 -0.0560  0.3458
  751SOL    HW1 2252   2.102   2.424   2.409 -2.4406  0.1901  3.3068
  751SOL    HW2 2253   2.244   2.467   2.472 -0.7366 -1.0484 -1.3968
  752SOL     OW 2254   1.997   1.760   1.039  0.0167 -0.0420 -0.2594
  752SOL    HW1 2255   1.900   1.770   1.060  1.5130  2.6030 -1.6530
  752SOL    HW2 2256   2.022   1.664   1.028 -3.1848  2.3897 -0.6249
  753SOL     OW 2257   1.409   0.621   2.262 -0.1473  0.0642  0.4603
  753SOL    HW1 2258   1.442   0.681   2.339 -1.7486  1.5223 -2.9660
  753SOL    HW2 2259   1.457   0.648   2.173  2.2668 -1.4407 -4.1944
  754SOL     OW 2260   0.115   2.673   0.889 -0.3491 -1.1565  0.3035
  754SOL    HW1 2261   0.123   2.775   0.875  0.3987  1.7274  2.6350
  754SOL    HW2 2262   0.164   2.651   0.976  0.4911 -0.3766 -0.8989
  755SOL     OW 2263   2.211   3.065   1.627  0.6214  0.1439  0.2366
  755SOL    HW1 2264   2.293   3.016   1.593 -3.1672 -0.4702 -1.1559
  755SOL    HW2 2265   2.174   0.049   1.551 -0.5014  0.9343 -0.0618
  756SOL     OW 2266   1.597   1.000   2.362 -0.0399 -0.3911 -0.0389
  756SOL    HW1 2267   1.574   0.916   2.411  3.0492  0.0389  0.8832
  756SOL    HW2 2268   1.547   1.015   2.274  0.0238 -0.6285  0.4443
  757SOL     OW 2269   2.841   2.815   1.800 -0.2764  0.4265  0.1146
  757SOL    HW1 2270   2.778   2.869   1.859  0.8761 -3.5854 -0.2244
  757SOL    HW2 2271   2.800   2.789   1.713  3.1785  1.1566  2.1908
  758SOL     OW 2272   0.314   0.179   1.637 -0.4602  0.6359  0.1472
  758SOL    HW1 2273   0.243   0.114   1.678 -1.9100  1.4345  4.4066
  758SOL    HW2 2274   0.367   0.228   1.708 -0.9955 -1.7422 -1.8851
  759SOL     OW 2275   2.044   1.286   0.703  0.2190 -0.2497  0.1234
  759SOL    HW1 2276   2.093   1.198   0.685  1.8890 -0.7723  1.9557
  759SOL    HW2 2277   2.063   1.364   0.633  0.6894  1.0780 -0.4585
  760SOL     OW 2278   1.707   0.044   1.645 -0.2320  0.0422  0.0560
  760SOL    HW1 2279   1.647   0.104   1.590 -0.0535  0.5183 -0.2317
  760SOL    HW2 2280   1.777   0.104   1.684  1.0606  1.8984 -0.5958
  761SOL     OW 2281   2.022   0.465   0.340  0.1896 -0.2330 -0.2293
  761SOL    HW1 2282   2.103   0.500   0.388  0.1391  1.5021 -1.5668
  761SOL    HW2 2283   1.938   0.521   0.368  0.7467  0.0177 -1.9101
  762SOL     OW 2284   2.344   2.683   3.001 -0.1176 -0.1913 -0.5646
  762SOL    HW1 2285   2.416   2.609   3.019  0.6652 -0.9326  1.6530
  762SOL    HW2 2286   2.250   2.650   3.023  0.3618  0.2932 -2.2280
  763SOL     OW 2287   0.980   0.878   1.053  0.6001 -0.5070 -0.9894
  763SOL    HW1 2288   0.992   0.776   1.040 -0.4482  0.3140 -0.5198
  763SOL    HW2 2289   1.039   0.931   0.991 -0.5189  0.7034 -0.5153
  764SOL     OW 2290   2.206   2.415   2.785  0.2547 -0.1625  0.2657
  764SOL    HW1 2291   2.139   2.491   2.777 -3.3543 -1.7141  2.7263
  764SOL    HW2 2292   2.302   2.437   2.763  0.4506 -2.0252 -1.3653
  765SOL     OW 2293   0.200   0.660   2.164  0.0133  0.0511  0.3798
  765SOL    HW1 2294   0.249   0.629   2.249  0.0527  1.6576  0.3994
  765SOL    HW2 2295   0.238   0.611   2.080 -1.2419  0.3043 -3.2911
  766SOL     OW 2296   2.554   1.558   2.768  0.0427 -0.6161  0.3125
  766SOL    HW1 2297   2.500   1.490   2.821  1.0774  1.1489  0.4553
  766SOL    HW2 2298   2.557   1.535   2.668 -0.5352  0.8193 -0.4815
  767SOL     OW 2299   0.066   1.659   2.090 -0.0382 -0.2379 -0.0620
  767SOL    HW1 2300   3.056   1.668   2.144  0.1281  1.8580  0.8990
  767SOL    HW2 2301   0.071   1.569   2.044  2.1978 -0.0761 -0.2656
  768SOL     OW 2302   0.995   0.982   0.142  0.0732 -0.4149  0.4951
  768SOL    HW1 2303   0.953   0.939   0.222  2.7074  2.7588  0.9686
  768SOL    HW2 2304   1.093   0.950   0.131  0.7895 -2.7617 -0.6639
  769SOL     OW 2305   1.745   2.759   2.800  0.8260  0.3150  0.5270
  769SOL    HW1 2306   1.699   2.779   2.887  0.1346  0.2266  0.6355
  769SOL    HW2 2307   1.823   2.824   2.783  1.9398 -1.3146  0.8966
  770SOL     OW 2308   0.512   0.280   2.317  0.1719  0.2078 -0.4107
  770SOL    HW1 2309   0.417   0.261   2.285  0.8219  0.8427 -3.0800
  770SOL    HW2 2310   0.564   0.314   2.234  2.8231 -0.2362 -0.9760
  771SOL     OW 2311   0.793   2.242   1.105 -0.5688 -0.4083  0.6358
  771SOL    HW1 2312   0.773   2.344   1.119 -2.9332  1.3647  0.2652
  771SOL    HW2 2313   0.791   2.206   1.008  1.1981 -0.8673 -0.1218
  772SOL     OW 2314   0.302   0.770   0.066 -0.5837 -0.0034 -0.1670
  772SOL    HW1 2315   0.353   0.754   3.053 -0.8982 -0.2492  0.6895
  772SOL    HW2 2316   0.217   0.715   0.058 -0.5511  0.1034  0.1510
  773SOL     OW 2317   1.994   0.820   1.772 -0.1183  0.6931 -0.2610
  773SOL    HW1 2318   2.050   0.822   1.693  0.0729  2.2894  0.4168
  773SOL    HW2 2319   1.904   0.799   1.740  0.3345 -0.6379 -1.0104
  774SOL     OW 2320   1.024   1.160   0.521 -0.0132 -0.4458  0.3059
  774SOL    HW1 2321   1.028   1.081   0.587  0.1678 -0.2639 -0.5271
  774SOL    HW2 2322   1.016   1.242   0.572  0.7375 -2.7690 -0.6282
  775SOL     OW 2323   1.805   0.156   2.996 -0.2963  0.0631  0.3627
  775SOL    HW1 2324   1.876   0.084   2.976  1.3077 -1.1237 -0.4841
  775SOL    HW2 2325   1.830   0.242   2.948 -0.0524 -1.3161  2.1175
  776SOL     OW 2326   2.267   0.231   2.508  0.0975  0.1901 -0.1180
  776SOL    HW1 2327   2.355   0.274   2.484 -2.3855  0.7258  1.8534
  776SOL    HW2 2328   2.255   0.139   2.463 -0.1132 -2.0149 -0.2795
  777SOL     OW 2329   0.928   1.749   0.189 -0.1478 -0.4847 -0.9230
  777SOL    HW1 2330   0.977   1.709   0.108 -1.8997  0.7008  1.6701
  777SOL    HW2 2331   0.845   1.799   0.158  0.8706  1.5103  1.4380
  778SOL     OW 2332   0.518   2.846   0.330 -0.4375 -0.6087 -0.4427
  778SOL    HW1 2333   0.469   2.763   0.347 -1.4056  2.9581 -3.7866
  778SOL    HW2 2334   0.612   2.836   0.372  0.3724  0.3747  1.6173
  779SOL     OW 2335   0.282   1.231   2.997 -0.1822 -0.9967 -0.6007
  779SOL    HW1 2336   0.191   1.213   3.043  0.8842 -0.5859 -1.7800
  779SOL    HW2 2337   0.328   1.144   2.975 -2.4257  0.5632 -0.2854
  780SOL     OW 2338   2.195   0.373   2.227 -0.6786  0.4881 -0.3764
  780SOL    HW1 2339   2.119   0.347   2.162 -1.5398 -0.5186  2.2073
  780SOL    HW2 2340   2.167   0.366   2.324  0.0032 -0.6957  1.8459
  781SOL     OW 2341   1.769   0.697   1.698 -0.3100 -0.8207  0.4641
  781SOL    HW1 2342   1.784   0.652   1.789  0.0585  2.4261 -0.9052
  781SOL    HW2 2343   1.766   0.628   1.627  0.7079  0.9119 -0.7168
  782SOL     OW 2344   1.709   1.917   2.198  0.5428  0.2413 -0.0529
  782SOL    HW1 2345   1.699   1.857   2.275 -1.3446  2.8532  1.6901
  782SOL    HW2 2346   1.792   1.901   2.145  0.3019  0.7934 -0.5990
  783SOL     OW 2347   1.212   2.982   1.125 -0.1378 -0.9716  0.0272
  783SOL    HW1 2348   1.219   2.894   1.183 -0.3731 -0.5539  1.2347
  783SOL    HW2 2349   1.182   2.962   1.030  0.5810 -1.7781 -2.0506
  784SOL     OW 2350   1.532   0.749   2.472  0.0072  0.1461 -0.4190
  784SOL    HW1 2351   1.621   0.700   2.482  2.0105  1.2961 -2.6465
  784SOL    HW2 2352   1.486   0.738   2.559  0.3199  2.3563 -0.2195
  785SOL     OW 2353   1.850   0.389   2.886  0.4467 -0.5392 -0.2941
  785SOL    HW1 2354   1.916   0.399   2.811  1.3697  0.2780 -0.5154
  785SOL    HW2 2355   1.763   0.439   2.862  0.3234  1.4298 -0.3970
  786SOL     OW 2356   2.863   1.705   0.855 -0.6129  0.1378 -0.4466
  786SOL    HW1 2357   2.908   1.738   0.773 -0.8353 -1.6791  2.3337
  786SOL    HW2 2358   2.893   1.752   0.941 -2.0582  0.9744  0.2952
  787SOL     OW 2359   1.610   1.948   0.326  0.2320  0.4193 -0.0202
  787SOL    HW1 2360   1.583   2.028   0.382  2.2872 -0.8888 -0.4581
  787SOL    HW2 2361   1.707   1.955   0.291  3.0641  0.5438  0.7160
  788SOL     OW 2362   2.095   1.562   1.368 -0.2676  0.5240 -0.7775
  788SOL    HW1 2363   2.084   1.564   1.269  2.7345 -0.7010  0.2076
  788SOL    HW2 2364   2.179   1.619   1.395  0.8998 -2.4380 -0.9607
  789SOL     OW 2365   0.002   1.229   2.763 -0.3915  0.1834  0.3522
  789SOL    HW1 2366   0.099   1.200   2.757  0.4299 -1.2443  0.2881
  789SOL    HW2 2367   3.023   1.180   2.694  1.0214  1.9044  1.3336
  790SOL     OW 2368   0.526   0.365   2.894 -0.1391  0.0340 -0.2121
  790SOL    HW1 2369   0.523   0.386   2.994 -2.4666 -2.0187  1.0466
  790SOL    HW2 2370   0.458   0.429   2.842 -2.3110  4.7225  1.8821
  791SOL     OW 2371   0.938   0.142   2.366  0.1322 -0.0025  0.0539
  791SOL    HW1 2372   0.858   0.131   2.428  2.1757  1.2690  0.9817
  791SOL    HW2 2373   0.921   0.125   2.267  2.1064 -1.9905  1.1349
  792SOL     OW 2374   1.828   0.490   2.173  0.0386  0.2370  0.7121
  792SOL    HW1 2375   1.882   0.568   2.213  1.6589  1.7987 -0.3524
  792SOL    HW2 2376   1.752   0.464   2.235 -1.7010  2.4091 -1.6481
  793SOL     OW 2377   2.574   0.737   1.417  0.0234 -0.0442 -0.4375
  793SOL    HW1 2378   2.664   0.694   1.398  1.6236 -3.1348  0.3594
  793SOL    HW2 2379   2.499   0.666   1.401  0.5530  0.0768 -1.7151
  794SOL     OW 2380   0.149   0.513   1.634 -0.2543  0.2591 -0.3233
  794SOL    HW1 2381   0.210   0.593   1.617 -2.2198  0.0272 -0.5033
  794SOL    HW2 2382   0.193   0.454   1.706  3.7640  0.7537 -0.1691
  795SOL     OW 2383   2.952   1.366   0.356  0.3297  0.8538  0.2381
  795SOL    HW1 2384   2.893   1.435   0.391  1.3071 -2.1229 -0.1356
  795SOL    HW2 2385   3.050   1.386   0.373  0.5343 -0.6796 -1.6585
  796SOL     OW 2386   0.245   2.699   0.003 -0.0415 -0.4371 -0.6128
  796SOL    HW1 2387   0.224   2.734   0.093  3.3157 -0.1988 -2.2231
  796SOL    HW2 2388   0.282   2.780   3.024 -0.0772  2.0937 -0.9950
  797SOL     OW 2389   2.088   2.615   3.033  0.5833  1.0069 -0.5604
  797SOL    HW1 2390   2.000   2.578   0.000  0.2717 -1.6573 -0.5490
  797SOL    HW2 2391   2.075   2.636   2.936  1.3699  1.4915 -1.3681
  798SOL     OW 2392   0.206   1.056   1.754  0.0470 -0.0697 -0.3762
  798SOL    HW1 2393   0.299   1.101   1.740 -2.6120 -1.8903 -3.1930
  798SOL    HW2 2394   0.139   1.127   1.723  0.2556  2.7838  1.9387
  799SOL     OW 2395   2.883   0.741   2.533 -0.1226  0.0591 -0.2191
  799SOL    HW1 2396   2.894   0.732   2.433 -1.1698  2.2881  0.1986
  799SOL    HW2 2397   2.889   0.650   2.581  0.6483 -2.1679 -0.1893
  800SOL     OW 2398   2.870   2.058   0.872 -0.0953 -0.2508  0.2657
  800SOL    HW1 2399   2.908   2.126   0.812 -3.7565  0.1670  1.7937
  800SOL    HW2 2400   2.945   2.011   0.916 -0.7031  0.1980  1.4315
  801SOL     OW 2401   1.693   1.164   0.848  0.2949  0.0821  0.6033
  801SOL    HW1 2402   1.692   1.222   0.763 -1.8075 -0.8857  0.2351
  801SOL    HW2 2403   1.690   1.219   0.933  2.2098  0.4110 -0.7701
  802SOL     OW 2404   1.164   1.811   1.500 -0.2791  0.2495 -0.2668
  802SOL    HW1 2405   1.232   1.887   1.513 -1.0288  0.4187 -1.4023
  802SOL    HW2 2406   1.111   1.829   1.416  2.6264  0.7561  0.8997
  803SOL     OW 2407   3.053   1.903   0.382 -0.5839 -0.2007 -0.2121
  803SOL    HW1 2408   0.016   1.858   0.297  1.4100 -1.5629 -3.0341
  803SOL    HW2 2409   2.989   1.981   0.357  0.2673  0.7657 -0.8874
  804SOL     OW 2410   0.978   2.561   1.366  0.1342 -0.2036 -0.2978
  804SOL    HW1 2411   1.052   2.554   1.434  0.3235  1.6854  1.5752
  804SOL    HW2 2412   0.882   2.542   1.406 -0.6716 -0.2932  2.6954
  805SOL     OW 2413   1.551   1.144   0.118  0.2578 -0.2608 -0.0983
  805SOL    HW1 2414   1.451   1.121   0.102  1.1233  2.2051 -3.4644
  805SOL    HW2 2415   1.591   1.153   0.028  2.2673 -1.4598 -0.7708
  806SOL     OW 2416   1.460   0.019   1.027  0.5485  0.2232  0.7466
  806SOL    HW1 2417   1.453   0.011   0.924 -1.5205 -1.1927 -1.9358
  806SOL    HW2 2418   1.367   0.004   1.063  2.1018  0.4439 -1.3919
  807SOL     OW 2419   2.191   3.029   2.705  0.3240  0.1688  0.1992
  807SOL    HW1 2420   2.237   0.040   2.730 -0.3272 -3.9290  0.3987
  807SOL    HW2 2421   2.250   2.951   2.732  1.2227  0.5469  0.0392
  808SOL     OW 2422   0.097   1.103   0.115  0.7705  0.2060  0.0486
  808SOL    HW1 2423   0.025   1.088   0.191 -3.3720 -1.8802  1.5367
  808SOL    HW2 2424   0.190   1.081   0.160  3.4458 -4.7188  0.5072
  809SOL     OW 2425   2.670   0.950   2.477  0.0232  0.1703  0.5207
  809SOL    HW1 2426   2.692   0.861   2.514  1.2487 -0.9915 -1.7504
  809SOL    HW2 2427   2.605   0.947   2.398 -0.3834 -1.1560  0.5891
  810SOL     OW 2428   2.461   2.750   1.936  0.2942  0.2380 -0.0896
  810SOL    HW1 2429   2.383   2.726   1.880  0.7395 -2.8247  3.2425
  810SOL    HW2 2430   2.424   2.744   2.031  0.1584  0.8300  0.1471
  811SOL     OW 2431   2.570   2.482   1.890  0.7424 -0.5587  0.0757
  811SOL    HW1 2432   2.521   2.573   1.907 -2.0752  4.6154 -2.1703
  811SOL    HW2 2433   2.667   2.492   1.866  0.7374  3.5269 -2.7678
  812SOL     OW 2434   1.541   0.172   3.067 -0.7832  0.0853 -0.1653
  812SOL    HW1 2435   1.502   0.118   2.986 -0.1754  1.8211 -0.6486
  812SOL    HW2 2436   1.645   0.172   3.058  1.0321 -3.0676 -0.5517
  813SOL     OW 2437   1.957   0.021   1.949  0.6978  0.1001 -0.0745
  813SOL    HW1 2438   2.005   3.027   1.890 -0.4912  0.6946 -1.0592
  813SOL    HW2 2439   1.943   0.111   1.901 -1.6066  1.1128  0.1963
  814SOL     OW 2440   1.730   1.111   1.602  0.2931  0.2801 -1.0251
  814SOL    HW1 2441   1.764   1.139   1.691 -0.4784 -1.1661 -3.3461
  814SOL    HW2 2442   1.709   1.194   1.542 -0.6597 -0.4985 -1.0330
  815SOL     OW 2443   0.440   0.860   0.508  0.1729 -0.1663 -0.4785
  815SOL    HW1 2444   0.466   0.854   0.410  1.4377  0.5476  2.1740
  815SOL    HW2 2445   0.484   0.939   0.551 -0.4637 -1.4553 -0.4544
  816SOL     OW 2446   2.006   1.600   2.820 -0.3114  0.4703  0.0505
  816SOL    HW1 2447   1.979   1.541   2.738  1.2657  1.0604 -0.7128
  816SOL    HW2 2448   2.022   1.535   2.902  0.4174 -1.4158  1.8476
  817SOL     OW 2449   0.191   2.827   0.577 -0.2228 -0.0642 -0.4507
  817SOL    HW1 2450   0.138   2.742   0.575 -0.4232 -0.2684 -0.7902
  817SOL    HW2 2451   0.198   2.862   0.672 -0.3240  3.0914  1.4988
  818SOL     OW 2452   1.864   0.113   2.551 -0.7078  0.0135 -0.0246
  818SOL    HW1 2453   1.915   0.203   2.567  2.0749  0.6076 -3.5439
  818SOL    HW2 2454   1.821   0.082   2.634 -0.4909 -0.7827  0.6380
  819SOL     OW 2455   1.274   0.999   0.467 -0.6649  0.4876 -0.5367
  819SOL    HW1 2456   1.278   0.904   0.429 -0.3622 -1.1450 -0.3516
  819SOL    HW2 2457   1.200   1.060   0.442  0.0067  0.4254  0.2873
  820SOL     OW 2458   2.272   0.932   0.793 -0.1067 -0.9991 -0.6595
  820SOL    HW1 2459   2.365   0.892   0.814 -0.3169 -0.2009  0.3692
  820SOL    HW2 2460   2.276   1.002   0.715  1.6401  1.9867 -5.5215
  821SOL     OW 2461   2.253   0.140   0.391 -0.3382  0.0729  0.1313
  821SOL    HW1 2462   2.334   0.081   0.364  3.7928 -0.0371  1.9154
  821SOL    HW2 2463   2.176   0.087   0.433 -1.1457  1.1957  2.0310
  822SOL     OW 2464   0.525   2.803   2.648  0.3033  0.6092  0.4769
  822SOL    HW1 2465   0.563   2.726   2.701  0.0352 -1.5451  0.0705
  822SOL    HW2 2466   0.443   2.771   2.602  0.1983  0.3351 -0.9228
  823SOL     OW 2467   0.025   2.288   1.842 -0.2483  0.5776 -0.0475
  823SOL    HW1 2468   3.009   2.264   1.880  0.3960  1.0539 -0.3305
  823SOL    HW2 2469   0.031   2.379   1.794  1.0831 -0.3082  2.4802
  824SOL     OW 2470   0.855   2.783   2.046  0.0266  0.3828  0.7191
  824SOL    HW1 2471   0.884   2.834   1.962  2.3601  1.7206 -0.5498
  824SOL    HW2 2472   0.846   2.681   2.024 -1.0152 -2.8784  0.9052
  825SOL     OW 2473   1.263   1.594   0.398  0.2897  0.0534 -0.1432
  825SOL    HW1 2474   1.253   1.490   0.399 -2.5947 -3.3340 -0.1201
  825SOL    HW2 2475   1.356   1.626   0.362  2.4548 -0.0329  0.2451
  826SOL     OW 2476   1.195   3.005   3.023 -0.0459 -0.1420  0.0348
  826SOL    HW1 2477   1.151   3.047   2.942 -0.1729 -0.5762  1.0575
  826SOL    HW2 2478   1.287   2.969   2.996  0.4236 -2.8098 -1.6003
  827SOL     OW 2479   0.371   1.720   1.427 -0.1619  0.2880  0.1090
  827SOL    HW1 2480   0.449   1.692   1.486 -0.6249  0.7905  1.6592
  827SOL    HW2 2481   0.347   1.642   1.365  1.0291  0.3969  2.2748
  828SOL     OW 2482   2.319   1.252   1.516  0.5909 -0.4543  0.1930
  828SOL    HW1 2483   2.216   1.257   1.496 -3.1062  1.5146  2.2081
  828SOL    HW2 2484   2.331   1.189   1.593 -0.0938  1.0354 -0.8029
  829SOL     OW 2485   2.882   2.137   0.290  0.6874  0.3539  0.3358
  829SOL    HW1 2486   2.877   2.055   0.230 -1.2199 -1.0005 -2.0593
  829SOL    HW2 2487   2.924   2.216   0.244  0.6130  0.9266  2.0317
  830SOL     OW 2488   1.141   0.686   0.637 -0.0413 -0.4171 -0.2654
  830SOL    HW1 2489   1.239   0.684   0.652 -0.9232 -1.3082 -1.1029
  830SOL    HW2 2490   1.107   0.776   0.671  2.1485 -0.4717  2.0166
  831SOL     OW 2491   2.861   1.900   2.916 -0.3719  0.2335  0.5796
  831SOL    HW1 2492   2.779   1.843   2.940 -1.2517  0.1172 -2.0320
  831SOL    HW2 2493   2.825   1.974   2.853  1.5412  1.1418  0.7958
  832SOL     OW 2494   0.977   2.654   3.056  0.5277  0.3489  0.1788
  832SOL    HW1 2495   0.954   2.707   0.062  0.5463 -1.9412  0.1094
  832SOL    HW2 2496   1.071   2.673   3.026 -0.4727  1.9278  1.4757
  833SOL     OW 2497   1.116   0.342   2.268 -0.7134 -0.6388  0.1374
  833SOL    HW1 2498   1.070   0.295   2.347 -0.8830 -0.0207  0.0052
  833SOL    HW2 2499   1.058   0.417   2.231  0.9068  1.4066  1.0960
  834SOL     OW 2500   0.073   0.902   0.581  0.9978  0.0411  0.2703
  834SOL    HW1 2501   3.054   0.922   0.548  2.1273 -0.6491 -0.4527
  834SOL    HW2 2502   0.079   0.801   0.593  0.4166  0.7463  2.7535
  835SOL     OW 2503   2.287   0.352   1.930 -0.0219  0.1892 -0.2083
  835SOL    HW1 2504   2.330   0.446   1.935 -1.7594 -0.8040 -1.6574
  835SOL    HW2 2505   2.192   0.362   1.957  1.3795 -0.6747 -1.8412
  836SOL     OW 2506   0.482   2.129   0.704 -0.2821 -0.3570  0.1973
  836SOL    HW1 2507   0.412   2.171   0.640 -0.6527 -2.4501  2.3745
  836SOL    HW2 2508   0.566   2.117   0.651  0.2979  1.1443 -0.0795
  837SOL     OW 2509   2.122   1.757   2.024  0.3098  0.3015 -0.8997
  837SOL    HW1 2510   2.181   1.683   2.057 -0.2138 -0.4953  2.0002
  837SOL    HW2 2511   2.125   1.839   2.080 -0.5236  1.5682 -0.9935
  838SOL     OW 2512   0.421   1.214   1.723 -0.1810  0.5649 -0.4668
  838SOL    HW1 2513   0.423   1.185   1.623 -0.6581 -0.6468 -0.4355
  838SOL    HW2 2514   0.491   1.282   1.738 -4.0309  0.6801  1.5815
  839SOL     OW 2515   0.273   0.157   0.608  0.2881  0.5724 -0.5084
  839SOL    HW1 2516   0.303   0.240   0.553  0.1464 -2.3616  0.1263
  839SOL    HW2 2517   0.317   0.077   0.565  3.5071  0.4694 -0.3307
  840SOL     OW 2518   0.097   0.390   2.520 -0.5826  0.1030 -0.0692
  840SOL    HW1 2519   0.047   0.461   2.466 -1.2628 -0.4651 -2.9994
  840SOL    HW2 2520   0.147   0.425   2.601 -0.4840 -1.4240 -0.7390
  841SOL     OW 2521   0.357   2.540   2.823 -0.1195 -0.0264 -0.2306
  841SOL    HW1 2522   0.376   2.638   2.788  0.7020  0.9417 -0.5147
  841SOL    HW2 2523   0.399   2.525   2.916  0.0424  1.5599 -3.3608
  842SOL     OW 2524   0.691   2.979   1.079 -0.0957 -0.4031  0.3903
  842SOL    HW1 2525   0.717   3.064   1.034 -0.5233 -1.2306  0.1614
  842SOL    HW2 2526   0.648   3.000   1.169  0.0037  0.2107  2.2829
  843SOL     OW 2527   0.099   1.576   2.802 -0.0579  0.2761  1.0599
  843SOL    HW1 2528   0.184   1.552   2.848 -0.7028 -1.2808 -0.7200
  843SOL    HW2 2529   0.019   1.543   2.856 -2.9792  0.1289 -0.1253
  844SOL     OW 2530   0.982   2.179   2.380 -0.1801 -0.0894 -0.1123
  844SOL    HW1 2531   1.052   2.248   2.361  0.6729 -0.2434  1.2170
  844SOL    HW2 2532   1.033   2.106   2.428  0.4164 -0.4420 -1.6591
  845SOL     OW 2533   2.301   2.632   2.549  0.4799 -0.7301 -0.5163
  845SOL    HW1 2534   2.295   2.690   2.462 -0.9212 -1.7035 -0.6926
  845SOL    HW2 2535   2.286   2.685   2.635  0.6853 -2.3453 -1.2159
  846SOL     OW 2536   1.962   1.242   2.576 -0.0711  0.1708  0.0897
  846SOL    HW1 2537   1.875   1.266   2.621  0.6057 -0.6841  1.4015
  846SOL    HW2 2538   1.939   1.184   2.495 -0.4001 -1.1841 -0.1808
  847SOL     OW 2539   2.806   0.113   2.795 -0.4075  0.1122  0.0265
  847SOL    HW1 2540   2.865   0.119   2.708 -0.8977 -4.4361 -1.6885
  847SOL    HW2 2541   2.858   0.123   2.885  1.6904 -0.5219  0.8448
  848SOL     OW 2542   0.018   0.829   0.227 -0.9522 -0.3233 -0.6683
  848SOL    HW1 2543   0.010   0.921   0.273  0.2564  2.1212 -0.4467
  848SOL    HW2 2544   0.091   0.833   0.156  0.5898  1.3851  2.8869
  849SOL     OW 2545   1.375   0.337   2.298 -0.7855  0.0865 -0.4007
  849SOL    HW1 2546   1.397   0.436   2.278 -0.8394 -0.5144  0.7500
  849SOL    HW2 2547   1.275   0.339   2.294 -0.1895  0.5886  1.3799
  850SOL     OW 2548   0.295   1.050   0.306  0.2807 -0.4086 -0.3915
  850SOL    HW1 2549   0.351   0.975   0.268 -0.0514  2.7685  0.8272
  850SOL    HW2 2550   0.270   1.040   0.405 -0.7349  1.3356 -1.1374
  851SOL     OW 2551   0.456   1.445   0.577  0.4801 -0.4018  0.4168
  851SOL    HW1 2552   0.548   1.421   0.609  1.0253  1.4293 -3.1996
  851SOL    HW2 2553   0.442   1.421   0.480 -2.2989 -2.2647  0.5590
  852SOL     OW 2554   1.239   1.187   1.581 -0.1631 -0.0389 -0.4806
  852SOL    HW1 2555   1.178   1.119   1.616 -1.4476  0.4361  0.3318
  852SOL    HW2 2556   1.324   1.149   1.534  3.5510  1.5572 -0.3807
  853SOL     OW 2557   2.428   1.350   0.532  0.2790  0.1457 -0.3509
  853SOL    HW1 2558   2.421   1.392   0.438 -1.9142 -0.3714 -2.2910
  853SOL    HW2 2559   2.500   1.404   0.579  0.1611 -1.3678  0.3694
  854SOL     OW 2560   1.444   1.017   2.121  0.3320  0.2833  0.3453
  854SOL    HW1 2561   1.432   1.043   2.022  1.2942  0.8884 -1.2903
  854SOL    HW2 2562   1.381   1.074   2.178  2.9321  0.6479  1.6877
  855SOL     OW 2563   0.503   2.415   2.596  0.0419 -0.6938  0.3595
  855SOL    HW1 2564   0.481   2.324   2.641 -2.2777 -0.0538 -0.2134
  855SOL    HW2 2565   0.556   2.479   2.656  2.1472 -1.1485 -1.4619
  856SOL     OW 2566   1.042   0.844   2.038 -0.2211  0.5384  0.3744
  856SOL    HW1 2567   1.078   0.889   1.951 -2.4013  2.3352 -0.0699
  856SOL    HW2 2568   0.999   0.910   2.096  1.1756 -2.2910 -2.7003
  857SOL     OW 2569   0.943   0.997   2.414 -0.1197  0.1441 -0.1135
  857SOL    HW1 2570   0.983   1.068   2.358 -3.1840 -0.4957  1.7587
  857SOL    HW2 2571   0.888   1.034   2.489  1.3609 -2.3704 -0.2611
  858SOL     OW 2572   2.867   1.063   1.741  0.2363 -0.0673  0.0036
  858SOL    HW1 2573   2.905   1.132   1.679  1.6236  3.1146  2.1347
  858SOL    HW2 2574   2.937   0.997   1.775  2.5173  2.3872  0.6897
  859SOL     OW 2575   2.567   3.014   0.894 -0.6456 -0.1857  0.0692
  859SOL    HW1 2576   2.475   3.013   0.857 -0.8938  1.8493  0.7240
  859SOL    HW2 2577   2.560   3.015   0.994  1.1757 -0.3787 -1.1917
  860SOL     OW 2578   1.541   0.342   0.998  0.6065  0.0645 -0.1523
  860SOL    HW1 2579   1.510   0.248   0.976  1.6583  3.2476  0.1339
  860SOL    HW2 2580   1.596   0.331   1.082 -2.9094 -1.6956  0.9601
  861SOL     OW 2581   1.838   0.694   1.083  0.6091 -0.3786 -0.1801
  861SOL    HW1 2582   1.748   0.654   1.083  2.6706 -1.3364  0.6222
  861SOL    HW2 2583   1.905   0.624   1.045  1.8368 -0.1369 -1.7217
  862SOL     OW 2584   1.310   2.965   2.543  0.4679 -0.3379  0.0175
  862SOL    HW1 2585   1.387   2.917   2.582 -1.0659 -2.3963 -2.2091
  862SOL    HW2 2586   1.332   3.040   2.479 -0.3592 -2.9442 -0.8707
  863SOL     OW 2587   3.013   2.869   1.137  0.0724 -0.3967  0.0974
  863SOL    HW1 2588   3.007   2.971   1.160 -0.1617  3.3009 -2.3299
  863SOL    HW2 2589   2.932   2.840   1.087 -0.7954  1.2365 -2.1239
  864SOL     OW 2590   2.444   0.140   2.126  0.0240 -0.0681 -0.2872
  864SOL    HW1 2591   2.459   0.241   2.124 -1.8895 -1.2593 -2.3919
  864SOL    HW2 2592   2.344   0.127   2.122  0.9454  0.8483 -1.5633
  865SOL     OW 2593   1.244   1.499   2.470  0.0292  0.0833 -0.1925
  865SOL    HW1 2594   1.205   1.409   2.461  0.8976  1.4809  1.1137
  865SOL    HW2 2595   1.206   1.556   2.546 -0.8255  1.1989 -0.7940
  866SOL     OW 2596   2.225   3.028   0.832  0.8170  0.0876 -0.4878
  866SOL    HW1 2597   2.229   2.942   0.775 -0.6476  1.0396 -2.2370
  866SOL    HW2 2598   2.264   3.019   0.922 -1.6492 -0.4028 -0.6289
  867SOL     OW 2599   2.793   2.770   1.005  0.6519 -0.4201  0.0085
  867SOL    HW1 2600   2.765   2.846   0.941 -0.6612 -0.2715 -1.4424
  867SOL    HW2 2601   2.836   2.702   0.945  0.7986  1.4187 -0.2389
  868SOL     OW 2602   0.120   1.744   1.537 -0.2267  0.8123 -0.1765
  868SOL    HW1 2603   0.212   1.760   1.503 -0.0747  0.3999  0.8577
  868SOL    HW2 2604   0.115   1.780   1.633  2.2309 -0.6768 -1.8408
  869SOL     OW 2605   1.858   2.135   2.475 -0.0732 -0.4708 -0.1650
  869SOL    HW1 2606   1.934   2.146   2.545  0.2378  0.7191 -0.1715
  869SOL    HW2 2607   1.811   2.047   2.503 -1.4877 -2.8490  0.8624
  870SOL     OW 2608   1.183   1.010   0.898  0.1423  0.5917  0.0255
  870SOL    HW1 2609   1.247   0.932   0.914 -0.7342 -2.6198  1.7542
  870SOL    HW2 2610   1.234   1.094   0.872 -0.6256 -1.0107  0.4808
  871SOL     OW 2611   2.870   1.618   2.175 -0.6619  0.5965  0.2318
  871SOL    HW1 2612   2.820   1.696   2.222 -0.3529  3.9377 -0.6309
  871SOL    HW2 2613   2.856   1.534   2.230 -1.0918 -1.0818  1.2639
  872SOL     OW 2614   0.978   1.741   2.828  0.8530  0.2459  0.5207
  872SOL    HW1 2615   1.019   1.715   2.918 -0.9651  3.7746  1.4134
  872SOL    HW2 2616   0.885   1.774   2.834  1.6120  0.2271  1.3043
  873SOL     OW 2617   0.930   1.241   1.937  0.4935  0.0478 -0.4961
  873SOL    HW1 2618   0.832   1.211   1.932  0.3436 -0.4428 -1.5670
  873SOL    HW2 2619   0.952   1.334   1.900  1.5548  1.4097  0.3519
  874SOL     OW 2620   1.442   1.027   1.488  0.5038 -0.2347 -0.6128
  874SOL    HW1 2621   1.470   0.990   1.577 -1.3109 -1.3165  2.0684
  874SOL    HW2 2622   1.513   1.013   1.416  0.3454  0.9756 -3.1890
  875SOL     OW 2623   2.907   0.192   0.003 -0.1724  0.0050 -0.3043
  875SOL    HW1 2624   2.947   0.213   0.097  1.9605  0.5479  2.8561
  875SOL    HW2 2625   2.871   0.275   3.034 -1.1132 -0.2910 -0.3558
  876SOL     OW 2626   1.033   1.240   0.273  0.2521  0.2129 -0.4763
  876SOL    HW1 2627   1.013   1.211   0.370  0.4149 -4.1382 -2.1894
  876SOL    HW2 2628   1.008   1.166   0.205  2.6934  1.7390 -0.3486
  877SOL     OW 2629   2.199   2.910   0.374  0.1087  0.0624 -0.1134
  877SOL    HW1 2630   2.165   2.815   0.372 -0.6575  1.7227  0.8541
  877SOL    HW2 2631   2.295   2.923   0.347 -0.7832 -0.7496  0.5652
  878SOL     OW 2632   1.887   1.998   0.243  0.4958  0.1999 -0.0185
  878SOL    HW1 2633   1.952   2.065   0.288 -0.0563  2.3322  1.7056
  878SOL    HW2 2634   1.824   2.046   0.177  0.2758  3.3437 -1.6950
  879SOL     OW 2635   0.037   1.934   2.043 -0.4312 -0.2350  0.1300
  879SOL    HW1 2636   0.074   1.840   2.042 -1.8746 -2.0265  0.8004
  879SOL    HW2 2637   3.059   1.947   1.955 -2.7387 -0.6199 -0.5642
  880SOL     OW 2638   0.118   1.969   0.723 -0.5260  0.0793  0.4731
  880SOL    HW1 2639   0.029   2.020   0.741 -2.1144  1.8164  1.5216
  880SOL    HW2 2640   0.128   1.885   0.781  0.5506  0.4446 -1.0704
  881SOL     OW 2641   1.188   0.224   2.038 -0.6095 -0.1677  0.5671
  881SOL    HW1 2642   1.152   0.249   2.129  0.7148  1.5004 -0.7157
  881SOL    HW2 2643   1.222   0.307   1.979  1.3717  0.6843 -3.4592
  882SOL     OW 2644   2.509   0.814   0.849 -0.4153 -0.3112 -0.0674
  882SOL    HW1 2645   2.599   0.797   0.807 -1.9129 -1.4570  0.8316
  882SOL    HW2 2646   2.503   0.760   0.936  0.7706 -0.1722 -0.7259
  883SOL     OW 2647   1.620   0.288   1.545 -0.5000  0.5583  0.1012
  883SOL    HW1 2648   1.552   0.321   1.613  3.5546 -1.4058  1.5429
  883SOL    HW2 2649   1.679   0.364   1.528 -1.2161 -3.5400  0.5588
  884SOL     OW 2650   2.883   0.060   1.831  1.0042 -0.3205  0.2831
  884SOL    HW1 2651   2.795   0.068   1.887 -0.1164  1.0787  1.4008
  884SOL    HW2 2652   2.958   0.088   1.893 -1.7522 -0.0798  0.3382
  885SOL     OW 2653   1.704   1.297   2.676  0.1673 -0.0750 -0.2239
  885SOL    HW1 2654   1.698   1.395   2.663  2.4747 -2.4259 -0.8425
  885SOL    HW2 2655   1.645   1.247   2.604 -1.4683 -1.5378 -2.1442
  886SOL     OW 2656   2.176   0.412   2.882  0.2631  0.3292  0.1977
  886SOL    HW1 2657   2.166   0.343   2.952 -1.2519  0.6371 -0.3454
  886SOL    HW2 2658   2.103   0.482   2.880  1.1220  0.0528 -0.1823
  887SOL     OW 2659   1.083   2.766   1.662  0.2514 -0.4140 -0.9040
  887SOL    HW1 2660   1.161   2.795   1.719  0.5065 -0.0556 -0.5100
  887SOL    HW2 2661   1.113   2.690   1.603  0.3626  0.3098  2.8306
  888SOL     OW 2662   1.863   1.729   1.996 -0.1679 -0.5249 -0.1343
  888SOL    HW1 2663   1.830   1.637   1.972  2.7617  0.2738  1.2059
  888SOL    HW2 2664   1.963   1.726   2.007 -1.3386  2.3262  0.3705
  889SOL     OW 2665   1.882   2.405   1.136  0.1959  0.0161  0.2860
  889SOL    HW1 2666   1.914   2.421   1.230  0.4786 -3.1189 -3.8991
  889SOL    HW2 2667   1.867   2.304   1.123 -0.1670 -0.5838 -0.8146
  890SOL     OW 2668   1.309   1.676   1.111 -0.0860 -0.4873  0.1918
  890SOL    HW1 2669   1.358   1.730   1.184 -2.3288  0.3157 -1.7142
  890SOL    HW2 2670   1.210   1.691   1.102 -0.5812 -0.6142  0.3191
  891SOL     OW 2671   2.831   1.309   0.105 -0.4995  0.1043  0.3773
  891SOL    HW1 2672   2.807   1.213   0.115 -0.4314  0.5054 -0.8743
  891SOL    HW2 2673   2.909   1.331   0.167  0.2329 -0.7608  3.0054
  892SOL     OW 2674   2.278   1.408   0.141 -0.4750 -0.3411  0.0336
  892SOL    HW1 2675   2.328   1.359   0.068 -1.4537  1.6202 -1.1196
  892SOL    HW2 2676   2.352   1.455   0.199  0.8114  0.7101  0.0259
  893SOL     OW 2677   1.968   2.472   1.368  0.1216  0.1533 -0.7399
  893SOL    HW1 2678   1.952   2.556   1.424 -2.3604  2.4271  1.3260
  893SOL    HW2 2679   1.985   2.393   1.427 -1.8013  0.8012  2.1738
  894SOL     OW 2680   2.609   2.803   0.419 -0.2062  0.5524  0.2826
  894SOL    HW1 2681   2.598   2.703   0.403 -1.2191  0.4882  0.0718
  894SOL    HW2 2682   2.536   2.855   0.371 -0.8261  0.0125  0.6251
  895SOL     OW 2683   2.875   2.652   2.773  1.0047 -0.6774 -0.7029
  895SOL    HW1 2684   2.802   2.719   2.789 -4.6854  2.3029  2.6408
  895SOL    HW2 2685   2.844   2.585   2.702  2.6636  3.7659 -3.3496
  896SOL     OW 2686   2.329   0.164   2.809 -0.0159  0.1593 -0.4084
  896SOL    HW1 2687   2.305   0.229   2.737  0.8606 -1.8468 -1.1963
  896SOL    HW2 2688   2.278   0.186   2.893  1.4276  0.7599 -1.6896
  897SOL     OW 2689   0.293   1.688   1.945  0.4865 -0.0808  0.1238
  897SOL    HW1 2690   0.208   1.698   2.002  0.1813 -1.8301  1.0560
  897SOL    HW2 2691   0.296   1.598   1.900  0.6517 -1.0127  0.1718
  898SOL     OW 2692   2.726   1.758   1.743  0.1706 -0.2599  0.0131
  898SOL    HW1 2693   2.778   1.690   1.800 -3.6331 -0.1239  4.1481
  898SOL    HW2 2694   2.701   1.712   1.653 -2.5037 -0.7874 -0.1327
  899SOL     OW 2695   1.585   2.733   1.381 -0.9103  0.3241 -0.1874
  899SOL    HW1 2696   1.642   2.668   1.337  1.4694 -0.6500 -2.4209
  899SOL    HW2 2697   1.631   2.791   1.455  0.4745  0.9739  1.2933
  900SOL     OW 2698   1.251   0.857   0.167 -0.6425  0.3202 -0.2304
  900SOL    HW1 2699   1.277   0.792   0.091 -2.9669 -0.7222 -2.0306
  900SOL    HW2 2700   1.308   0.828   0.246 -1.2639  0.1150  0.7231
  901SOL     OW 2701   1.258   1.124   2.604 -0.2477  0.0692  0.4882
  901SOL    HW1 2702   1.175   1.185   2.593 -3.2806  0.2602  1.1446
  901SOL    HW2 2703   1.232   1.024   2.597 -1.3172  2.4081  1.3914
  902SOL     OW 2704   2.437   2.215   0.836 -0.4728 -0.1348  0.1788
  902SOL    HW1 2705   2.386   2.304   0.842 -0.2631  0.0755  0.7805
  902SOL    HW2 2706   2.503   2.206   0.917  1.3014  0.2817  1.6642
  903SOL     OW 2707   2.984   1.201   1.968 -0.3991 -0.3847 -0.1061
  903SOL    HW1 2708   2.976   1.171   2.064  0.1707 -0.7173 -1.0173
  903SOL    HW2 2709   2.925   1.144   1.904 -0.1173  0.3781 -0.1640
  904SOL     OW 2710   1.977   1.059   0.363 -0.3458 -0.0916  0.5147
  904SOL    HW1 2711   1.892   1.116   0.349 -0.3858 -1.2216  2.0112
  904SOL    HW2 2712   2.056   1.116   0.325 -0.5030  0.8558 -1.7820
  905SOL     OW 2713   2.142   2.784   1.426  0.3790 -0.7832 -0.0192
  905SOL    HW1 2714   2.157   2.805   1.330 -0.4601 -0.7648  1.3057
  905SOL    HW2 2715   2.225   2.734   1.467 -0.6945  2.1976 -0.7202
  906SOL     OW 2716   1.610   2.037   2.892  0.6166 -0.8551  0.3419
  906SOL    HW1 2717   1.548   2.119   2.907 -2.1990  4.2429 -0.6513
  906SOL    HW2 2718   1.689   2.079   2.844 -1.6046  1.6401 -0.8874
  907SOL     OW 2719   0.784   2.565   0.894 -0.1777  0.5096  0.0350
  907SOL    HW1 2720   0.859   2.575   0.826  2.4454 -1.4377 -1.1638
  907SOL    HW2 2721   0.693   2.552   0.847 -1.1676  1.8965 -0.5149
  908SOL     OW 2722   0.914   0.162   2.073  0.2022  0.6653  0.2911
  908SOL    HW1 2723   0.848   0.088   2.046 -0.1870  1.5531  0.6500
  908SOL    HW2 2724   1.000   0.162   2.018 -0.2905 -2.0388 -0.2000
  909SOL     OW 2725   1.883   0.239   1.763  0.6423  0.2260  0.0513
  909SOL    HW1 2726   1.936   0.287   1.689  0.1437  0.7817  0.8264
  909SOL    HW2 2727   1.785   0.269   1.772 -1.8262  1.8213 -1.2208
  910SOL     OW 2728   1.145   0.732   2.985  0.3688 -0.3260  0.2301
  910SOL    HW1 2729   1.046   0.729   3.014 -2.2364  0.9009  0.2486
  910SOL    HW2 2730   1.169   0.639   2.952  0.6882  1.3237 -1.9174
  911SOL     OW 2731   0.079   0.642   0.002  0.1951  0.1133 -0.2766
  911SOL    HW1 2732   3.061   0.652   3.038 -0.1006  0.6721  1.8461
  911SOL    HW2 2733   0.099   0.543   0.030 -0.0162 -2.5782 -0.9045
  912SOL     OW 2734   2.853   2.393   2.934 -0.1424  0.3022 -0.2691
  912SOL    HW1 2735   2.876   2.485   2.900 -0.1195 -0.5223  4.3888
  912SOL    HW2 2736   2.884   2.313   2.879 -1.3277 -2.8878  1.9303
  913SOL     OW 2737   2.555   2.207   2.721  0.7354  0.2199  0.3263
  913SOL    HW1 2738   2.516   2.140   2.651 -1.2041  1.7848  0.4996
  913SOL    HW2 2739   2.519   2.300   2.708  0.9466 -0.4561  0.3161
  914SOL     OW 2740   1.810   1.664   1.609  0.0820  0.8994 -0.3261
  914SOL    HW1 2741   1.771   1.756   1.585 -0.7213  1.5850  1.2669
  914SOL    HW2 2742   1.900   1.667   1.571 -1.4990 -1.1939  3.9918
  915SOL     OW 2743   0.160   2.528   2.253  0.6063  1.0087 -0.5972
  915SOL    HW1 2744   0.177   2.479   2.165 -0.3187 -0.3094 -1.2543
  915SOL    HW2 2745   0.251   2.566   2.279  2.4329  2.4517 -1.8400
  916SOL     OW 2746   0.234   1.424   1.731 -0.4341 -0.3256  0.2383
  916SOL    HW1 2747   0.318   1.366   1.720  2.5326 -2.2083 -0.6750
  916SOL    HW2 2748   0.179   1.427   1.643 -3.6146 -0.8679 -3.1104
  917SOL     OW 2749   2.575   3.061   2.874 -0.3148 -0.4156 -0.2794
  917SOL    HW1 2750   2.507   0.052   2.858  2.0599  0.1055 -1.0906
  917SOL    HW2 2751   2.663   0.021   2.847 -1.4598 -1.6538  1.3071
  918SOL     OW 2752   1.686   2.544   2.317  0.4116 -0.4517 -0.3737
  918SOL    HW1 2753   1.608   2.599   2.345  0.9207 -0.5697  0.1333
  918SOL    HW2 2754   1.694   2.543   2.217  1.2667  0.1286  1.5502
  919SOL     OW 2755   1.709   2.199   1.813 -0.4184  0.5923 -0.7669
  919SOL    HW1 2756   1.751   2.227   1.723 -0.1656 -1.1446 -0.7055
  919SOL    HW2 2757   1.746   2.106   1.841  0.0624 -1.3875  1.8316
  920SOL     OW 2758   0.637   0.976   0.033  0.0380 -0.0133 -0.4813
  920SOL    HW1 2759   0.696   0.968   3.030  1.4783  1.0083  3.0051
  920SOL    HW2 2760   0.630   1.069   0.066 -3.1536 -0.4449  2.6498
  921SOL     OW 2761   2.927   1.087   2.587  0.1889  0.5648  0.2837
  921SOL    HW1 2762   2.837   1.050   2.553 -1.8677 -2.2630 -3.1649
  921SOL    HW2 2763   3.004   1.067   2.519  2.0988  0.1921 -0.4227
  922SOL     OW 2764   0.210   1.867   0.180  0.0011  0.2610 -0.3802
  922SOL    HW1 2765   0.188   1.779   0.131  0.2835 -1.3291  2.6965
  922SOL    HW2 2766   0.295   1.861   0.230 -0.0510  0.5240  0.2677
  923SOL     OW 2767   0.533   0.981   2.031 -0.2722 -0.1204 -0.2642
  923SOL    HW1 2768   0.440   1.014   2.060 -0.8278  0.4207 -0.4130
  923SOL    HW2 2769   0.546   0.886   2.064  3.1723  1.9444  1.2350
  924SOL     OW 2770   1.079   0.061   2.804 -0.0258 -0.4298 -0.1696
  924SOL    HW1 2771   1.076   0.077   2.703  1.0687 -0.2534 -3.6342
  924SOL    HW2 2772   1.015   0.119   2.858  1.9479  0.4026  0.4496
  925SOL     OW 2773   2.462   1.160   1.306 -0.4161 -0.4059 -0.2922
  925SOL    HW1 2774   2.410   1.188   1.223 -0.6026 -0.3913 -0.2858
  925SOL    HW2 2775   2.409   1.198   1.384 -0.9607  0.6059  0.6360
  926SOL     OW 2776   2.011   0.340   2.021  0.3084  0.0142  0.1518
  926SOL    HW1 2777   1.987   0.324   1.919  1.9346  0.2125 -3.9291
  926SOL    HW2 2778   1.931   0.384   2.070 -1.2993 -2.9327  0.7055
  927SOL     OW 2779   2.821   2.467   1.789  0.5019  0.0346  0.0074
  927SOL    HW1 2780   2.904   2.498   1.746 -3.2657 -0.7756  1.2297
  927SOL    HW2 2781   2.824   2.378   1.839 -0.8223 -1.5950 -0.0114
  928SOL     OW 2782   0.533   0.996   2.575  0.7085 -0.0178  0.0553
  928SOL    HW1 2783   0.449   1.043   2.605  2.0249 -0.7729 -2.3931
  928SOL    HW2 2784   0.527   0.973   2.476 -2.7795 -0.5348 -1.9642
  929SOL     OW 2785   2.738   0.055   0.732 -0.1086 -0.0833  0.0402
  929SOL    HW1 2786   2.661   0.023   0.793  1.1416  1.4150  0.5685
  929SOL    HW2 2787   2.745   3.057   0.666 -0.3700 -0.0329  0.0485
  930SOL     OW 2788   2.505   0.257   1.496  0.4546 -0.3973  0.0704
  930SOL    HW1 2789   2.478   0.221   1.586 -0.7149  2.9698  2.3593
  930SOL    HW2 2790   2.593   0.213   1.467  2.6900 -1.5725  0.2084
  931SOL     OW 2791   2.262   1.091   0.185  0.4819 -0.2575 -0.7946
  931SOL    HW1 2792   2.270   1.186   0.159 -1.5592 -0.7403 -0.7270
  931SOL    HW2 2793   2.336   1.062   0.250 -1.3186 -1.2482 -1.1837
  932SOL     OW 2794   2.442   1.490   1.593 -0.6042  0.3016  0.1519
  932SOL    HW1 2795   2.422   1.390   1.563 -1.3239 -0.2939 -0.2703
  932SOL    HW2 2796   2.381   1.555   1.550  3.3152 -1.4229 -0.2455
  933SOL     OW 2797   2.970   2.487   1.429  0.6242 -0.4908 -0.2195
  933SOL    HW1 2798   2.944   2.392   1.442  0.9847  1.2308  2.4937
  933SOL    HW2 2799   2.994   2.503   1.332  1.4564 -2.1662  0.1156
  934SOL     OW 2800   0.835   2.063   1.300  0.2810  0.0133  0.2396
  934SOL    HW1 2801   0.822   2.146   1.237  0.9194  2.4035 -3.5921
  934SOL    HW2 2802   0.863   2.102   1.391  1.0420 -1.4495 -0.3084
  935SOL     OW 2803   2.494   1.544   2.215  0.0245  0.0887  0.2181
  935SOL    HW1 2804   2.554   1.491   2.149  0.4280  0.6399 -0.3645
  935SOL    HW2 2805   2.494   1.647   2.195 -0.0506  0.7120 -1.2378
  936SOL     OW 2806   2.445   1.547   1.863 -0.6650  0.3956  0.8186
  936SOL    HW1 2807   2.470   1.533   1.761  1.0173 -1.1462 -0.2069
  936SOL    HW2 2808   2.513   1.507   1.925 -1.0739 -0.1941 -1.4461
  937SOL     OW 2809   1.897   0.961   1.984 -0.3904 -0.2991 -0.0056
  937SOL    HW1 2810   1.869   1.043   1.929 -1.1515  2.8876 -1.7669
  937SOL    HW2 2811   1.942   0.889   1.929 -0.7292 -1.5094 -0.3078
  938SOL     OW 2812   0.881   2.226   2.799  0.7849  0.1546  0.3728
  938SOL    HW1 2813   0.845   2.307   2.851  1.4178  1.9007  1.8482
  938SOL    HW2 2814   0.962   2.250   2.742 -0.7302  4.1213  0.8132
  939SOL     OW 2815   2.533   0.817   2.817 -0.0878 -0.2167  0.1583
  939SOL    HW1 2816   2.636   0.840   2.810  1.8030  0.9276  0.9756
  939SOL    HW2 2817   2.509   0.733   2.868 -0.1707  1.8226  0.9288
  940SOL     OW 2818   1.044   1.714   1.059  0.0986 -0.0470 -0.3455
  940SOL    HW1 2819   0.969   1.662   1.100 -2.7651  1.5049 -1.2204
  940SOL    HW2 2820   1.021   1.815   1.056  0.2834  1.7946 -1.6006
  941SOL     OW 2821   0.848   2.276   1.962 -0.1142  0.2862  0.1503
  941SOL    HW1 2822   0.761   2.298   2.010  1.6474  1.1426  0.8711
  941SOL    HW2 2823   0.897   2.201   2.010 -1.5661  1.4901  0.3457
  942SOL     OW 2824   0.334   2.232   3.002  0.0989 -0.3272 -0.6264
  942SOL    HW1 2825   0.242   2.189   2.992 -1.3056 -0.6496 -0.9552
  942SOL    HW2 2826   0.329   2.315   3.057  0.8658 -1.6165 -0.8521
  943SOL     OW 2827   1.776   2.536   1.789 -0.1848 -0.0799 -0.2248
  943SOL    HW1 2828   1.802   2.435   1.778 -2.0553 -0.1125 -0.1109
  943SOL    HW2 2829   1.827   2.596   1.730  0.2438 -0.2129  2.3808
  944SOL     OW 2830   1.100   1.659   3.065  0.3559 -0.4409  0.0596
  944SOL    HW1 2831   1.185   1.706   0.026  1.7567 -1.0568  2.2415
  944SOL    HW2 2832   1.107   1.560   0.010 -4.0773  1.0675 -0.7927
  945SOL     OW 2833   2.653   2.736   0.697 -0.2497 -0.2010  0.2742
  945SOL    HW1 2834   2.741   2.699   0.735 -2.5248 -3.7354  0.5736
  945SOL    HW2 2835   2.685   2.809   0.626 -0.3510  1.9217  0.8691
  946SOL     OW 2836   1.192   1.710   2.661  0.0904  0.2228 -0.3970
  946SOL    HW1 2837   1.232   1.803   2.662 -0.3442 -2.4391  2.2454
  946SOL    HW2 2838   1.111   1.713   2.723  0.1217  1.3925 -0.6468
  947SOL     OW 2839   2.641   0.500   1.968 -0.1989  0.0794  0.1150
  947SOL    HW1 2840   2.549   0.534   1.984  1.8389  0.9896  0.3904
  947SOL    HW2 2841   2.666   0.517   1.871 -0.7072  0.1576 -3.3158
  948SOL     OW 2842   0.098   1.673   0.805  0.0119 -0.2014 -0.6728
  948SOL    HW1 2843   0.162   1.593   0.792  0.6430  0.8852 -0.8690
  948SOL    HW2 2844   0.121   1.722   0.891  0.1028 -2.2132 -1.2984
  949SOL     OW 2845   0.771   0.810   2.310  0.5476 -0.0989  0.4195
  949SOL    HW1 2846   0.801   0.725   2.353  1.6247 -0.3182  1.1465
  949SOL    HW2 2847   0.842   0.881   2.334 -0.5710 -0.6466 -1.1409
  950SOL     OW 2848   0.238   0.783   1.326 -0.2359 -0.6518 -0.1227
  950SOL    HW1 2849   0.248   0.879   1.298  1.2044 -0.9155  0.7178
  950SOL    HW2 2850   0.148   0.751   1.296  2.2647  0.4922  1.5412
  951SOL     OW 2851   0.865   1.470   2.332  0.2028  1.0555 -0.5263
  951SOL    HW1 2852   0.893   1.550   2.388 -1.3437  1.2300 -1.0677
  951SOL    HW2 2853   0.847   1.506   2.239 -0.1868 -0.1966  0.1979
  952SOL     OW 2854   1.737   2.100   0.750 -0.2727  0.2414  0.4507
  952SOL    HW1 2855   1.820   2.042   0.758  0.1841 -2.3051  0.5721
  952SOL    HW2 2856   1.658   2.046   0.774  1.4069  0.0335  0.2543
  953SOL     OW 2857   0.764   0.733   0.220  0.3533 -0.0104  0.3892
  953SOL    HW1 2858   0.819   0.779   0.295  1.8660  0.6519  2.1930
  953SOL    HW2 2859   0.662   0.742   0.231 -0.5096  1.3258 -2.4622
  954SOL     OW 2860   2.128   0.997   1.008  0.9448  0.1863 -0.1246
  954SOL    HW1 2861   2.173   0.974   0.922 -0.1473 -1.1259  0.6582
  954SOL    HW2 2862   2.023   1.005   0.996 -3.0688  0.5910 -0.2643
  955SOL     OW 2863   2.153   1.475   0.538  0.4568 -0.3466 -0.4684
  955SOL    HW1 2864   2.252   1.449   0.544  0.9616 -0.2295  0.6776
  955SOL    HW2 2865   2.119   1.436   0.452 -0.7528 -0.3682  1.1215
  956SOL     OW 2866   0.881   0.620   1.936 -0.6105  0.6362 -0.6175
  956SOL    HW1 2867   0.878   0.554   2.015  0.8709  0.5378  0.6601
  956SOL    HW2 2868   0.938   0.698   1.965  1.1642 -0.5555  0.3423
  957SOL     OW 2869   1.874   0.290   1.242  0.3695  0.5386  0.4279
  957SOL    HW1 2870   1.794   0.356   1.255  0.0418 -2.6149  1.3451
  957SOL    HW2 2871   1.851   0.199   1.295 -2.5308 -2.1071  0.7343
  958SOL     OW 2872   0.045   2.135   0.472  0.3906  0.1800 -0.1420
  958SOL    HW1 2873   3.043   2.177   0.419 -0.9023 -0.6412 -0.9938
  958SOL    HW2 2874   0.040   2.032   0.466 -1.8253 -0.3619  3.0355
  959SOL     OW 2875   2.290   1.231   1.945  0.0120 -0.2230 -0.0995
  959SOL    HW1 2876   2.202   1.262   1.907  0.8567  1.2353 -1.0477
  959SOL    HW2 2877   2.353   1.202   1.873  0.5507  0.6122  0.1830
  960SOL     OW 2878   0.019   2.017   2.868 -0.5974 -0.0701 -0.2643
  960SOL    HW1 2879   0.067   2.039   2.953 -1.6133 -1.5093 -1.5953
  960SOL    HW2 2880   3.014   1.961   2.890 -2.1384  0.4817 -3.4871
  961SOL     OW 2881   0.585   1.659   1.557  0.1046 -0.4562 -0.1678
  961SOL    HW1 2882   0.635   1.662   1.471  0.4574  1.0360 -1.3963
  961SOL    HW2 2883   0.598   1.746   1.609  0.8570 -0.7424 -0.1571
  962SOL     OW 2884   0.847   1.256   0.968 -0.7711 -0.0050 -0.2245
  962SOL    HW1 2885   0.837   1.216   1.063 -1.4136 -0.4120  0.5148
  962SOL    HW2 2886   0.935   1.233   0.920  0.9456 -2.1856 -0.6546
  963SOL     OW 2887   1.159   2.030   2.520  0.6526  0.0520  0.5373
  963SOL    HW1 2888   1.230   1.975   2.469 -1.9588  0.2677  0.9881
  963SOL    HW2 2889   1.171   2.027   2.622 -1.5494  1.0649  1.8458
  964SOL     OW 2890   0.192   2.953   2.081 -0.4046  0.0984 -0.1739
  964SOL    HW1 2891   0.104   2.909   2.056 -0.1984  0.5285  0.2951
  964SOL    HW2 2892   0.271   2.897   2.112 -2.6506  4.2662  0.5353
  965SOL     OW 2893   0.429   2.181   2.756 -0.3264 -0.4421 -0.6812
  965SOL    HW1 2894   0.333   2.191   2.724  5.5512 -2.4977 -2.3733
  965SOL    HW2 2895   0.430   2.213   2.854  2.2303  1.2772  1.3151
  966SOL     OW 2896   2.973   1.644   0.039 -0.2751  0.0456 -0.1144
  966SOL    HW1 2897   2.927   1.618   0.126  1.4963 -0.0322 -0.0935
  966SOL    HW2 2898   2.918   1.635   3.032  3.9744 -0.3801 -1.7456
  967SOL     OW 2899   2.093   2.996   0.057 -0.1900 -0.0454 -0.6709
  967SOL    HW1 2900   2.191   2.976   0.057 -4.0840  0.6941  2.0741
  967SOL    HW2 2901   2.038   2.933   0.116 -2.8456  1.0315 -0.3237
  968SOL     OW 2902   2.349   0.115   0.647  0.3360 -0.3827 -0.4037
  968SOL    HW1 2903   2.287   0.048   0.694  1.5270  2.2999 -1.1450
  968SOL    HW2 2904   2.329   0.120   0.548  1.2703  0.3486 -1.7802
  969SOL     OW 2905   0.327   1.118   2.143  0.0375  0.1026 -0.1193
  969SOL    HW1 2906   0.299   1.212   2.187  0.2615  4.5134  3.3527
  969SOL    HW2 2907   0.250   1.058   2.113  1.4298  0.3942 -0.3862
  970SOL     OW 2908   1.706   1.599   0.273  0.0314 -0.0497  0.1060
  970SOL    HW1 2909   1.782   1.652   0.313  0.9172 -3.3061 -0.1432
  970SOL    HW2 2910   1.621   1.656   0.276  3.7620 -1.0215 -3.7254
  971SOL     OW 2911   2.449   2.977   1.566  0.0080  0.5237 -0.0239
  971SOL    HW1 2912   2.523   3.030   1.619 -1.2339 -0.3639 -0.8543
  971SOL    HW2 2913   2.444   3.000   1.466  0.1270 -0.4588 -1.5798
  972SOL     OW 2914   2.776   0.229   1.145  0.2737  0.0978  0.1566
  972SOL    HW1 2915   2.675   0.230   1.122 -1.3651  0.0847  0.6153
  972SOL    HW2 2916   2.825   0.288   1.081 -1.9301  0.7671  1.4539
  973SOL     OW 2917   0.397   0.571   2.757  0.5254 -0.3566  0.1377
  973SOL    HW1 2918   0.457   0.530   2.682  3.3691 -2.2010  0.7042
  973SOL    HW2 2919   0.315   0.610   2.716 -1.0304 -3.1376  3.0961
  974SOL     OW 2920   2.632   1.164   2.099 -0.1485 -0.7921  0.0543
  974SOL    HW1 2921   2.605   1.089   2.040 -0.5351  2.0459  1.0031
  974SOL    HW2 2922   2.575   1.183   2.182  0.2362  0.1277  0.7971
  975SOL     OW 2923   0.846   0.236   1.660  0.2671  0.0100  0.2887
  975SOL    HW1 2924   0.885   0.292   1.580 -1.9699  1.0517 -4.4569
  975SOL    HW2 2925   0.921   0.176   1.702 -0.3309  3.6855  0.6628
  976SOL     OW 2926   1.256   1.567   1.485  0.0065  0.8694 -0.0199
  976SOL    HW1 2927   1.235   1.666   1.489 -2.4613  0.0384 -0.4967
  976SOL    HW2 2928   1.220   1.515   1.568  0.6088 -0.4822  3.4312
  977SOL     OW 2929   0.917   2.778   0.215 -0.5224 -0.5363  0.0536
  977SOL    HW1 2930   0.861   2.773   0.300 -1.5839 -0.6366 -3.3652
  977SOL    HW2 2931   0.987   2.848   0.227 -0.6254  1.3811 -1.6015
  978SOL     OW 2932   2.271   1.116   2.190  0.0997 -0.0835  0.9593
  978SOL    HW1 2933   2.171   1.111   2.181  1.4858 -0.0583  2.1461
  978SOL    HW2 2934   2.301   1.181   2.121  0.1694  1.0820 -0.0933
  979SOL     OW 2935   1.384   0.401   1.611  0.3432  0.1726 -0.1349
  979SOL    HW1 2936   1.353   0.385   1.707  1.8602 -0.6213 -1.6228
  979SOL    HW2 2937   1.364   0.497   1.572 -0.2765  1.7902  1.4298
  980SOL     OW 2938   1.773   1.441   2.014 -0.0124  0.4639 -0.4612
  980SOL    HW1 2939   1.868   1.445   2.049  0.9808 -0.6529 -0.4114
  980SOL    HW2 2940   1.702   1.466   2.085 -2.3835 -4.7181 -0.0354
  981SOL     OW 2941   1.807   0.509   1.501  0.0675 -0.1653  0.5716
  981SOL    HW1 2942   1.821   0.600   1.453 -1.0159 -1.0344  1.4432
  981SOL    HW2 2943   1.898   0.470   1.524 -4.4555  2.1537  1.6643
  982SOL     OW 2944   0.731   0.307   2.733 -0.2109 -0.7326  0.8053
  982SOL    HW1 2945   0.761   0.387   2.673  0.3115 -1.4758 -2.6668
  982SOL    HW2 2946   0.644   0.326   2.790  1.7406  2.7653  0.1215
  983SOL     OW 2947   2.167   0.688   0.031 -0.2393 -0.1005 -0.4135
  983SOL    HW1 2948   2.107   0.614   0.064  2.0457  0.7486  1.3388
  983SOL    HW2 2949   2.140   0.706   3.009  0.8830  1.4104 -1.6316
  984SOL     OW 2950   0.839   0.430   2.121  0.0579  0.0531 -0.4786
  984SOL    HW1 2951   0.870   0.335   2.134 -2.9299  0.3336 -2.1293
  984SOL    HW2 2952   0.735   0.436   2.119  0.1226  2.7311  1.3963
  985SOL     OW 2953   1.469   2.028   2.178  0.1293 -0.2691  0.2329
  985SOL    HW1 2954   1.449   2.048   2.084  0.7691  0.8055  1.5925
  985SOL    HW2 2955   1.558   1.977   2.189 -0.8006  1.8031  1.3218
  986SOL     OW 2956   2.664   2.921   1.983 -0.8020 -0.4199  0.2034
  986SOL    HW1 2957   2.589   2.856   1.954 -0.2912 -0.0552 -1.2892
  986SOL    HW2 2958   2.644   3.014   1.949  0.5825  1.5119 -0.4444
  987SOL     OW 2959   2.013   1.199   1.265 -0.0479 -0.0538 -0.2314
  987SOL    HW1 2960   2.062   1.174   1.176 -1.2506 -0.1338 -0.7164
  987SOL    HW2 2961   1.934   1.257   1.241  1.8121 -0.4940  0.4187
  988SOL     OW 2962   2.519   1.801   2.184  0.0907  0.2410  0.0463
  988SOL    HW1 2963   2.472   1.882   2.153 -2.7241 -2.4840  3.1314
  988SOL    HW2 2964   2.619   1.810   2.211  0.0265 -0.2239 -0.3010
  989SOL     OW 2965   1.176   2.364   0.091  0.4985  0.1804  0.0686
  989SOL    HW1 2966   1.177   2.421   0.176  1.7456  1.4647 -0.7442
  989SOL    HW2 2967   1.084   2.324   0.077 -0.6611 -0.2776  2.8854
  990SOL     OW 2968   2.066   0.655   2.839 -0.0885 -0.8743  0.2521
  990SOL    HW1 2969   1.986   0.714   2.853  1.2701 -3.3160  1.5815
  990SOL    HW2 2970   2.143   0.705   2.798 -0.6864 -2.4828 -0.1495
  991SOL     OW 2971   0.945   0.542   0.789 -0.3506 -0.4621  0.3119
  991SOL    HW1 2972   0.967   0.565   0.887 -0.2097  0.7191  0.4585
  991SOL    HW2 2973   1.007   0.597   0.731  1.4585 -1.8091 -1.6217
  992SOL     OW 2974   2.198   0.807   1.196  0.1274  0.3703  0.0968
  992SOL    HW1 2975   2.249   0.852   1.276  0.3324  0.0197 -0.8147
  992SOL    HW2 2976   2.198   0.871   1.116 -1.9439  0.4288  1.4698
  993SOL     OW 2977   2.080   0.582   1.867 -0.6298 -0.1058  0.0669
  993SOL    HW1 2978   2.060   0.681   1.851 -0.6628  1.4264  0.7721
  993SOL    HW2 2979   2.168   0.567   1.814  0.2712 -1.6400 -0.9299
  994SOL     OW 2980   0.857   1.734   2.491  0.3217 -0.2132 -0.3151
  994SOL    HW1 2981   0.911   1.778   2.568  0.7776  0.6908 -1.0969
  994SOL    HW2 2982   0.767   1.785   2.484  0.0443  0.4931 -1.9715
  995SOL     OW 2983   2.203   1.020   2.837  0.0062  0.3915  0.0171
  995SOL    HW1 2984   2.275   1.090   2.825 -0.2643  1.1150 -1.2531
  995SOL    HW2 2985   2.230   0.930   2.795 -3.0887 -0.0445  0.4220
  996SOL     OW 2986   2.193   1.844   0.627 -0.0039  0.7610  0.2912
  996SOL    HW1 2987   2.137   1.791   0.693  0.1511  1.7994 -1.1616
  996SOL    HW2 2988   2.292   1.807   0.629  0.0870  4.0456 -0.0196
  997SOL     OW 2989   2.097   0.618   2.136 -0.4072 -0.5070 -0.0557
  997SOL    HW1 2990   2.163   0.550   2.177 -0.6783 -1.6818  1.1783
  997SOL    HW2 2991   2.094   0.607   2.035  0.4683 -1.1617 -1.2123
  998SOL     OW 2992   2.679   1.105   0.533  0.1664 -0.9373  0.4600
  998SOL    HW1 2993   2.639   1.112   0.628  0.2968 -0.7441  0.8620
  998SOL    HW2 2994   2.715   1.198   0.506 -1.5638 -0.5155 -0.6603
  999SOL     OW 2995   2.806   1.592   0.440  0.2148  0.2956 -0.1001
  999SOL    HW1 2996   2.775   1.644   0.352 -2.3062  2.3326 -2.2485
  999SOL    HW2 2997   2.862   1.654   0.502 -0.4321  2.3355  0.7096
 1000SOL     OW 2998   0.555   0.737   2.163 -0.3524  0.2789 -0.3310
 1000SOL    HW1 2999   0.649   0.764   2.197  0.5877  1.1750  2.5363
 1000SOL    HW2 3000   0.489   0.784   2.231 -1.0772  2.6614  0.4273
   3.07561   3.07561   3.07561
