1000 SPC/Fw water molecules t= 425.00000 step= 425000
 3000
    1SOL     OW    1   0.066   3.090   1.125  0.2799 -0.0942 -0.1594
    1SOL    HW1    2   0.130   0.063   1.162 -0.2961 -1.1881 -1.5838
    1SOL    HW2    3   0.041   3.029   1.206 -1.3195  1.7628 -0.0578
    2SOL     OW    4   2.592   0.080   0.054  0.3010  0.7128  0.1163
    2SOL    HW1    5   2.533   0.025   3.081 -1.0871 -0.8384 -0.6386
    2SOL    HW2    6   2.642   0.149   0.001 -1.4189  1.3169  0.3189
    3SOL     OW    7   1.590   2.627   0.045  0.2292 -0.4261 -0.1867
    3SOL    HW1    8   1.553   2.594   3.046 -1.9747 -1.1911 -2.8900
    3SOL    HW2    9   1.585   2.725   0.041  0.0057 -3.3110 -1.4115
    4SOL     OW   10   1.124   0.035   2.412 -0.3427  0.5010  0.2676
    4SOL    HW1   11   1.067   0.064   2.490  0.7913 -1.0942 -2.2492
    4SOL    HW2   12   1.058   0.020   2.339  0.9151  1.8513  3.1289
    5SOL     OW   13   2.289   0.055   2.099  0.4957 -0.7025  0.4677
    5SOL    HW1   14   2.226   3.087   2.043 -1.7948  3.0643 -2.3435
    5SOL    HW2   15   2.251   0.148   2.099 -0.0657 -0.9772 -1.3526
    6SOL     OW   16   2.461   2.058   1.320  0.2617  1.0560  0.1025
    6SOL    HW1   17   2.524   2.122   1.268 -0.8763 -1.2414 -1.8792
    6SOL    HW2   18   2.419   1.988   1.258  0.9786 -0.4739  0.6023
    7SOL     OW   19   1.686   1.495   0.685  0.1951  0.6615  0.5867
    7SOL    HW1   20   1.750   1.446   0.749 -0.7176  0.8998 -2.5421
    7SOL    HW2   21   1.676   1.452   0.589  1.0389 -2.0324 -2.2631
    8SOL     OW   22   0.439   1.656   1.051 -0.1275  0.1853  0.2197
    8SOL    HW1   23   0.509   1.682   1.117  1.4258 -0.1048  0.3678
    8SOL    HW2   24   0.353   1.648   1.101  1.4199  0.3603  0.8242
    9SOL     OW   25   3.071   2.694   1.452  0.1285  0.1538  0.7761
    9SOL    HW1   26   2.975   2.672   1.444  0.5863 -0.1187  2.4409
    9SOL    HW2   27   0.033   2.625   1.404 -2.3811  2.6274 -0.0381
   10SOL     OW   28   1.190   2.338   0.541 -0.9998 -0.1321  0.1844
   10SOL    HW1   29   1.235   2.361   0.453 -1.5406 -1.0449  1.9180
   10SOL    HW2   30   1.092   2.369   0.538  1.3273 -1.1028 -0.4813
   11SOL     OW   31   1.584   1.860   1.225  0.1493 -0.5643  0.2938
   11SOL    HW1   32   1.647   1.939   1.208 -0.5657 -1.0113 -0.3811
   11SOL    HW2   33   1.532   1.836   1.140  0.5297 -2.3777 -2.0658
   12SOL     OW   34   0.134   0.743   2.220 -0.2702 -0.5280 -0.2234
   12SOL    HW1   35   0.143   0.815   2.147 -0.1075  1.5541  0.1006
   12SOL    HW2   36   0.219   0.736   2.270 -3.7129  0.3958 -1.0501
   13SOL     OW   37   2.390   2.910   0.106  0.4257 -0.0462 -0.8446
   13SOL    HW1   38   2.376   2.809   0.094  0.5403 -0.8669  1.7219
   13SOL    HW2   39   2.482   2.942   0.082 -0.3113 -1.9937  0.9551
   14SOL     OW   40   1.362   1.760   0.267 -0.2214  0.5172 -0.2814
   14SOL    HW1   41   1.355   1.735   0.169 -1.0298  0.3585  1.7616
   14SOL    HW2   42   1.448   1.809   0.287 -0.4389 -1.6988  0.6028
   15SOL     OW   43   2.857   2.719   1.828 -0.2592  0.1708 -0.2673
   15SOL    HW1   44   2.897   2.628   1.800  1.7227 -0.0982  0.6781
   15SOL    HW2   45   2.897   2.792   1.770 -0.3101 -1.1186  0.8948
   16SOL     OW   46   2.793   0.485   0.838 -0.0607  0.2205  0.3722
   16SOL    HW1   47   2.840   0.467   0.924  0.1228 -0.9941 -3.3169
   16SOL    HW2   48   2.820   0.413   0.768 -0.6334 -1.7498 -2.0779
   17SOL     OW   49   1.021   0.206   0.723 -0.0808 -0.5558 -0.3365
   17SOL    HW1   50   0.926   0.187   0.759 -3.7353  0.4094 -0.6838
   17SOL    HW2   51   1.061   0.281   0.785  0.9300 -0.3601  0.4178
   18SOL     OW   52   1.122   0.348   0.999  0.1374  0.2929 -0.3144
   18SOL    HW1   53   1.217   0.361   1.033  0.5695  0.8086  1.2109
   18SOL    HW2   54   1.077   0.438   0.978 -0.3429  0.3929 -0.2788
   19SOL     OW   55   2.013   1.198   0.764 -0.2040 -0.0063 -0.9517
   19SOL    HW1   56   2.115   1.211   0.778  1.6301  1.1052 -0.5254
   19SOL    HW2   57   1.989   1.203   0.666 -0.9293 -1.3366  1.7961
   20SOL     OW   58   2.256   1.531   2.807  0.2442  0.5232  0.0317
   20SOL    HW1   59   2.187   1.510   2.735  2.8948  1.7328 -1.1032
   20SOL    HW2   60   2.337   1.573   2.760 -1.9110  1.3553  0.5400
   21SOL     OW   61   1.390   3.011   0.234  0.5170 -0.3122 -0.1977
   21SOL    HW1   62   1.413   3.084   0.303  2.3941  0.7913  1.5132
   21SOL    HW2   63   1.353   2.929   0.282  0.3093  3.2200 -1.3411
   22SOL     OW   64   2.947   0.875   0.927 -0.6185 -0.0037 -0.1779
   22SOL    HW1   65   2.899   0.961   0.921  1.2603 -2.2579 -0.5456
   22SOL    HW2   66   2.934   0.819   0.840 -1.1928 -1.2385  0.9479
   23SOL     OW   67   0.447   0.308   2.041  0.0168  0.3315  0.0404
   23SOL    HW1   68   0.523   0.376   2.057 -0.2078  1.6811  0.0924
   23SOL    HW2   69   0.464   0.246   1.963 -0.0763  0.0728  2.1057
   24SOL     OW   70   2.127   2.160   1.024 -0.3360 -0.3472  0.5124
   24SOL    HW1   71   2.035   2.204   1.010  0.3311  1.3151  3.2219
   24SOL    HW2   72   2.147   2.081   0.967 -1.0203  0.2180 -1.2039
   25SOL     OW   73   1.843   0.095   2.491 -0.3899  0.0223 -0.4802
   25SOL    HW1   74   1.755   0.076   2.445 -0.4496  0.2103 -0.2639
   25SOL    HW2   75   1.841   0.084   2.588 -0.0521 -0.6600 -0.6557
   26SOL     OW   76   1.560   2.201   3.071  0.0709 -0.3955  0.2832
   26SOL    HW1   77   1.623   2.258   3.018 -0.5516  0.5392  2.0978
   26SOL    HW2   78   1.490   2.165   3.008  0.8566  0.6538  0.5866
   27SOL     OW   79   1.403   0.347   1.343  0.4447  0.8611 -0.8593
   27SOL    HW1   80   1.418   0.329   1.245 -0.1603  0.7582 -0.8050
   27SOL    HW2   81   1.454   0.281   1.403  0.3573 -1.3691  1.6540
   28SOL     OW   82   0.776   1.677   0.557  0.1160  0.5773  0.1902
   28SOL    HW1   83   0.716   1.606   0.605  0.3570  0.2233  1.4716
   28SOL    HW2   84   0.843   1.634   0.488  1.3120  0.1463  0.0867
   29SOL     OW   85   2.570   0.442   1.456  0.0725 -0.7043 -0.1743
   29SOL    HW1   86   2.492   0.415   1.398  2.7037  1.5429  2.3982
   29SOL    HW2   87   2.601   0.368   1.521  2.5863  1.7868  1.1375
   30SOL     OW   88   1.451   2.441   1.583  0.2248  0.5250  0.4758
   30SOL    HW1   89   1.537   2.414   1.626 -4.9752  0.4232 -2.3380
   30SOL    HW2   90   1.431   2.370   1.510  3.9217  1.0883  1.1590
   31SOL     OW   91   1.943   2.727   1.502 -0.5262  0.0068 -0.4599
   31SOL    HW1   92   2.027   2.743   1.557 -1.3085  0.5495 -1.3790
   31SOL    HW2   93   1.957   2.776   1.415 -1.6761  0.4486 -0.3119
   32SOL     OW   94   2.121   1.423   2.344  0.2095 -0.4795 -0.0432
   32SOL    HW1   95   2.092   1.338   2.295  0.1493 -0.6739  2.2042
   32SOL    HW2   96   2.185   1.396   2.418  0.0911  0.8872  1.9924
   33SOL     OW   97   2.708   0.608   2.839  0.6595 -0.5406  0.1359
   33SOL    HW1   98   2.727   0.615   2.937 -1.8550  0.7843 -2.6426
   33SOL    HW2   99   2.710   0.702   2.789  0.0786  3.0287 -0.6960
   34SOL     OW  100   1.763   0.384   0.215 -0.4131 -0.1376 -0.1585
   34SOL    HW1  101   1.692   0.311   0.213 -0.6077 -2.1532  1.1578
   34SOL    HW2  102   1.720   0.476   0.218 -1.4512  0.8293  0.7636
   35SOL     OW  103   0.246   1.962   2.178  0.0381 -0.5344 -0.4968
   35SOL    HW1  104   0.223   2.035   2.108  1.7047  0.9664 -0.3782
   35SOL    HW2  105   0.212   1.871   2.145 -0.6884  0.9678 -0.1463
   36SOL     OW  106   2.456   1.671   2.698  0.2663 -0.2479  0.1275
   36SOL    HW1  107   2.510   1.702   2.780 -0.4153 -2.0809  1.7102
   36SOL    HW2  108   2.498   1.693   2.610 -0.2125 -1.6611 -0.5820
   37SOL     OW  109   1.290   2.875   1.633 -0.3308  0.7550  0.1157
   37SOL    HW1  110   1.309   2.804   1.569 -1.2758  3.2301 -0.5200
   37SOL    HW2  111   1.325   2.857   1.722 -0.5736  2.0842 -2.7587
   38SOL     OW  112   0.584   0.732   2.669  0.2352  0.0319  0.0464
   38SOL    HW1  113   0.566   0.826   2.639  1.0905  0.2777  2.2432
   38SOL    HW2  114   0.639   0.686   2.603 -2.6319  2.8450 -0.6088
   39SOL     OW  115   1.960   0.677   1.331 -0.8037  0.1929 -0.1317
   39SOL    HW1  116   1.876   0.629   1.302 -1.9399 -1.2675  0.2478
   39SOL    HW2  117   1.981   0.748   1.262 -0.9443 -2.8947 -2.0862
   40SOL     OW  118   1.149   2.468   0.804  0.1953  0.0237 -0.5540
   40SOL    HW1  119   1.168   2.382   0.862  0.2890 -2.0010  0.3151
   40SOL    HW2  120   1.204   2.439   0.720  2.4001 -0.4635  1.3888
   41SOL     OW  121   2.124   1.899   1.170 -0.2131 -0.3448  0.2359
   41SOL    HW1  122   2.026   1.871   1.150  0.8715 -1.7552  0.7280
   41SOL    HW2  123   2.142   1.991   1.135 -0.9125 -0.2195  0.6224
   42SOL     OW  124   2.374   0.540   0.775  0.5325 -0.0499 -0.5385
   42SOL    HW1  125   2.448   0.571   0.842  0.9131  0.9775  0.0110
   42SOL    HW2  126   2.339   0.622   0.718  0.0585 -0.4493 -0.2685
   43SOL     OW  127   0.913   1.483   2.265 -0.3333  0.0714 -0.5034
   43SOL    HW1  128   0.883   1.411   2.334 -0.2555 -3.8824 -0.1243
   43SOL    HW2  129   0.848   1.562   2.264  0.5500 -0.5199 -2.1254
   44SOL     OW  130   1.718   2.565   1.241 -0.0225  0.1112  0.6552
   44SOL    HW1  131   1.634   2.511   1.214  1.4442 -0.0898 -1.0653
   44SOL    HW2  132   1.803   2.503   1.245  0.7511 -0.5755 -2.4906
   45SOL     OW  133   0.963   0.039   2.633 -0.1379 -0.2215 -0.2084
   45SOL    HW1  134   0.917   0.097   2.703 -2.1186 -1.7335  2.0175
   45SOL    HW2  135   0.907   3.049   2.623  0.3155  2.7821  0.2319
   46SOL     OW  136   0.722   2.598   1.765  0.1427  0.0965  0.0623
   46SOL    HW1  137   0.687   2.679   1.719  1.1701 -0.8696  1.8522
   46SOL    HW2  138   0.758   2.610   1.860 -0.2414 -1.2368 -1.1573
   47SOL     OW  139   0.905   2.073   0.780 -0.3133  0.5399 -0.1005
   47SOL    HW1  140   0.886   1.976   0.775 -0.5535  0.5631 -0.3788
   47SOL    HW2  141   0.885   2.096   0.879  0.0215  1.0764  2.9586
   48SOL     OW  142   0.882   2.558   1.282 -0.0567 -0.4295  0.3558
   48SOL    HW1  143   0.955   2.623   1.307  2.5366  1.3704  0.0805
   48SOL    HW2  144   0.799   2.562   1.340 -0.7310  3.6406  0.3284
   49SOL     OW  145   2.872   3.008   2.884  0.4244 -0.6606 -0.4982
   49SOL    HW1  146   2.911   0.010   2.898 -2.8512 -1.8482  0.0016
   49SOL    HW2  147   2.899   2.947   2.964  1.3117 -2.2097 -0.5849
   50SOL     OW  148   1.676   1.097   0.442 -0.0894 -0.1183 -0.8099
   50SOL    HW1  149   1.615   1.070   0.520 -0.3738 -0.9615  0.5211
   50SOL    HW2  150   1.625   1.124   0.358  1.8047 -0.3925 -2.5521
   51SOL     OW  151   2.024   0.063   0.518  0.0392  0.0933  0.5855
   51SOL    HW1  152   1.998   0.144   0.462 -1.2596  0.6097 -2.1261
   51SOL    HW2  153   2.064   0.092   0.606 -0.9636 -1.0914 -0.8014
   52SOL     OW  154   0.912   1.532   0.379  0.6772  0.7126  0.2933
   52SOL    HW1  155   0.952   1.438   0.404  1.0331  0.4620  0.0450
   52SOL    HW2  156   0.885   1.538   0.286 -0.4373 -1.4816  4.8325
   53SOL     OW  157   0.363   1.040   2.727 -2.0107  0.3849  0.1078
   53SOL    HW1  158   0.417   1.050   2.814 -2.3349  2.8581  1.1882
   53SOL    HW2  159   0.347   1.132   2.684 -1.8834  0.2968  0.1348
   54SOL     OW  160   2.319   1.932   2.918  0.7330  0.2030 -0.4695
   54SOL    HW1  161   2.407   1.889   2.890 -2.3386  1.0474  1.1180
   54SOL    HW2  162   2.256   1.855   2.944  1.2334 -3.3658 -0.1165
   55SOL     OW  163   2.223   2.336   1.379  0.8161  0.0597  0.2309
   55SOL    HW1  164   2.250   2.415   1.433 -0.7587 -0.8536 -0.7175
   55SOL    HW2  165   2.253   2.254   1.430  0.9733 -1.1570 -1.7527
   56SOL     OW  166   1.688   3.045   1.346 -0.0036  0.0424 -0.2476
   56SOL    HW1  167   1.678   2.946   1.366  0.1238 -1.8854  0.9935
   56SOL    HW2  168   1.668   3.051   1.244 -1.8261 -2.8617 -1.0854
   57SOL     OW  169   1.549   1.733   0.764  0.0097  1.0449 -0.2177
   57SOL    HW1  170   1.617   1.661   0.761 -1.6722  1.8260 -1.1811
   57SOL    HW2  171   1.467   1.701   0.713  0.3642 -0.5300 -0.8600
   58SOL     OW  172   2.463   0.066   1.720 -0.0374  0.3383 -0.3505
   58SOL    HW1  173   2.427   0.106   1.806 -1.6857  2.8278 -1.1043
   58SOL    HW2  174   2.429   0.112   1.640 -0.6859 -0.9489  1.9300
   59SOL     OW  175   0.929   2.747   2.419 -0.1029  0.0845  0.0116
   59SOL    HW1  176   0.943   2.753   2.323 -2.8639 -0.8213  2.1521
   59SOL    HW2  177   0.841   2.699   2.441  1.2144  0.9612 -2.0362
   60SOL     OW  178   0.639   0.128   2.517 -0.2434  0.0380 -0.2642
   60SOL    HW1  179   0.546   0.164   2.507 -0.3183 -0.6993  0.9306
   60SOL    HW2  180   0.684   0.177   2.591  0.2101 -1.6152 -3.0747
   61SOL     OW  181   0.709   2.191   0.643  0.1357 -0.2581 -0.2306
   61SOL    HW1  182   0.695   2.164   0.548  2.2825  1.3883 -0.3577
   61SOL    HW2  183   0.789   2.134   0.685  2.1927  0.4240 -0.3804
   62SOL     OW  184   1.080   2.172   2.125  0.1311 -0.6820  0.4021
   62SOL    HW1  185   1.143   2.249   2.136  0.1952  0.1786 -0.2619
   62SOL    HW2  186   1.066   2.122   2.214 -0.7316  2.1169  2.9552
   63SOL     OW  187   1.133   1.676   0.859 -0.3753 -0.1324 -0.2957
   63SOL    HW1  188   1.038   1.707   0.840 -0.4462 -1.3358 -2.5329
   63SOL    HW2  189   1.179   1.642   0.775  2.6008  0.8387  1.3733
   64SOL     OW  190   1.476   1.456   0.023 -0.1845 -0.2418 -0.0369
   64SOL    HW1  191   1.516   1.379   3.061 -0.5228  1.8727 -0.3531
   64SOL    HW2  192   1.544   1.470   0.098  1.0586 -1.3890  2.3498
   65SOL     OW  193   1.520   2.129   2.169  0.2185  0.5244  0.4018
   65SOL    HW1  194   1.559   2.066   2.103 -2.9845  1.0960 -0.7445
   65SOL    HW2  195   1.594   2.156   2.237 -0.4455 -2.6675  0.6863
   66SOL     OW  196   0.382   1.000   1.155 -0.1162 -0.5067  0.5714
   66SOL    HW1  197   0.347   0.934   1.225 -0.6260 -1.5438  1.0706
   66SOL    HW2  198   0.427   0.951   1.082 -1.3165  0.4653 -0.9657
   67SOL     OW  199   2.086   2.657   0.376  0.3464 -0.4614 -0.1444
   67SOL    HW1  200   2.005   2.639   0.433  2.6215  1.3332 -1.3720
   67SOL    HW2  201   2.106   2.571   0.325 -0.6303  0.7478  0.6385
   68SOL     OW  202   2.324   2.534   1.539 -0.1744 -0.0226 -0.2668
   68SOL    HW1  203   2.296   2.619   1.491  0.1944 -1.1480  0.1176
   68SOL    HW2  204   2.404   2.548   1.602  2.2736  0.8308 -2.4926
   69SOL     OW  205   2.400   2.372   2.513  0.4146 -0.2916 -0.4102
   69SOL    HW1  206   2.327   2.442   2.521  0.2030 -0.2414  1.4268
   69SOL    HW2  207   2.380   2.309   2.438  1.5231  2.2059 -0.4036
   70SOL     OW  208   0.267   1.290   2.624  0.0395 -0.0069  0.1485
   70SOL    HW1  209   0.203   1.339   2.689 -1.0739  0.0826 -0.6758
   70SOL    HW2  210   0.227   1.254   2.543  0.7497  1.3506  0.0484
   71SOL     OW  211   1.104   1.414   2.062 -0.0669 -0.2556 -0.4132
   71SOL    HW1  212   1.057   1.475   2.128 -1.2668  0.6714  1.9017
   71SOL    HW2  213   1.035   1.372   1.996  0.0706 -2.6887 -0.5731
   72SOL     OW  214   2.331   1.199   1.718  0.6180 -0.3487  0.2862
   72SOL    HW1  215   2.256   1.158   1.663 -0.5225 -1.8240 -1.7137
   72SOL    HW2  216   2.418   1.163   1.685 -1.1707 -1.2786 -0.1045
   73SOL     OW  217   0.560   1.812   2.930 -0.1429  0.2614  0.2170
   73SOL    HW1  218   0.611   1.746   2.987 -1.6864 -1.3141  0.1185
   73SOL    HW2  219   0.456   1.816   2.958 -3.9835  1.0858  1.1125
   74SOL     OW  220   1.665   2.843   1.898 -0.0591 -0.0393 -0.3132
   74SOL    HW1  221   1.731   2.769   1.930  0.6809 -0.3078 -0.5908
   74SOL    HW2  222   1.572   2.823   1.927  0.3763 -1.2396  0.4443
   75SOL     OW  223   0.947   2.694   0.485 -0.2433 -0.2180 -0.5502
   75SOL    HW1  224   1.039   2.733   0.470 -0.6772 -3.9351 -1.7577
   75SOL    HW2  225   0.895   2.747   0.557 -1.6531 -0.3655 -0.4566
   76SOL     OW  226   2.929   2.038   2.615  0.2381 -0.3554  0.4720
   76SOL    HW1  227   2.980   2.090   2.543  1.1336  1.2715 -1.7319
   76SOL    HW2  228   2.991   2.002   2.688 -0.1233  0.8988  1.8523
   77SOL     OW  229   0.009   2.514   1.145 -0.1658  0.4517  0.3322
   77SOL    HW1  230   3.024   2.561   1.188  2.5523  0.6870  1.3501
   77SOL    HW2  231   0.093   2.573   1.156 -0.4731 -2.2508  2.7388
   78SOL     OW  232   2.564   1.050   0.351  0.2084  0.6002  0.3495
   78SOL    HW1  233   2.632   1.060   0.276 -1.3940 -1.9908  1.4959
   78SOL    HW2  234   2.613   1.043   0.438  0.0899  0.3341 -2.6956
   79SOL     OW  235   0.313   1.768   2.985  0.1046 -0.1539 -0.0150
   79SOL    HW1  236   0.277   1.677   2.951 -1.9891  0.1915  1.2583
   79SOL    HW2  237   0.247   1.793   3.060  2.3331  1.5963 -2.4246
   80SOL     OW  238   1.649   1.461   1.552 -0.1243  0.5784 -0.0110
   80SOL    HW1  239   1.657   1.523   1.631 -1.3784 -2.9923  0.5509
   80SOL    HW2  240   1.570   1.484   1.493  2.2084 -1.8169  1.9168
   81SOL     OW  241   2.252   0.816   2.173  0.2151 -0.2106 -0.3211
   81SOL    HW1  242   2.292   0.721   2.169  1.6706 -0.1911  0.0465
   81SOL    HW2  243   2.167   0.814   2.126  1.5178 -3.2749 -1.5637
   82SOL     OW  244   1.631   1.180   1.668 -0.3987 -0.0975 -0.0633
   82SOL    HW1  245   1.621   1.260   1.601  1.7238  1.4198 -0.4516
   82SOL    HW2  246   1.571   1.199   1.747 -2.0918 -0.0498 -2.6259
   83SOL     OW  247   0.287   0.247   0.062  0.4122  0.7270  0.0180
   83SOL    HW1  248   0.190   0.264   0.102  1.1586 -0.6410  0.7862
   83SOL    HW2  249   0.283   0.166   3.093  0.9076  1.0236 -0.8632
   84SOL     OW  250   0.439   1.315   2.903  0.3464  0.5650  0.4216
   84SOL    HW1  251   0.529   1.344   2.867  0.0648 -0.8866 -2.7799
   84SOL    HW2  252   0.447   1.220   2.936 -1.0260 -0.2804 -1.7397
   85SOL     OW  253   2.177   1.535   1.933  0.5020 -0.1650  0.1218
   85SOL    HW1  254   2.269   1.569   1.916 -2.6122 -0.4815  0.8759
   85SOL    HW2  255   2.147   1.542   2.029 -0.3671 -0.4492 -1.9263
   86SOL     OW  256   0.690   0.923   1.187 -0.0583  0.0271  0.0920
   86SOL    HW1  257   0.790   0.950   1.187  2.5908  2.3640 -0.1038
   86SOL    HW2  258   0.661   0.886   1.101  3.4476 -1.5001  0.7719
   87SOL     OW  259   2.522   2.049   2.343 -0.1411  0.6298 -0.0232
   87SOL    HW1  260   2.613   2.094   2.337 -3.1634 -3.5583 -1.4895
   87SOL    HW2  261   2.449   2.120   2.319 -1.6992  3.5536 -0.2245
   88SOL     OW  262   0.308   2.793   0.229 -0.2630  0.1341 -0.2479
   88SOL    HW1  263   0.298   2.809   0.329  0.2921 -0.0636  1.0806
   88SOL    HW2  264   0.411   2.792   0.209 -2.7921 -0.8733 -0.1872
   89SOL     OW  265   1.731   0.712   0.232  0.0729 -0.4481  0.0318
   89SOL    HW1  266   1.686   0.743   0.149  1.3745 -0.8515 -1.1836
   89SOL    HW2  267   1.822   0.756   0.243 -1.3689 -1.4516  0.2969
   90SOL     OW  268   2.927   1.520   2.256  0.0776 -0.2849 -0.2463
   90SOL    HW1  269   2.878   1.455   2.316 -2.5180 -0.8763 -0.1551
   90SOL    HW2  270   2.959   1.595   2.319 -0.6051  2.5949  0.1325
   91SOL     OW  271   2.027   2.910   1.308  0.1254 -0.1271  0.3919
   91SOL    HW1  272   2.038   2.921   1.205  1.0759  1.1743 -1.3479
   91SOL    HW2  273   1.991   2.997   1.350 -2.0431 -1.3905  2.1139
   92SOL     OW  274   2.185   1.548   1.112  0.0059  0.4266 -0.5687
   92SOL    HW1  275   2.264   1.522   1.054  1.8909  1.0229  2.1051
   92SOL    HW2  276   2.210   1.626   1.175  0.6002  2.1519  4.9751
   93SOL     OW  277   0.268   1.250   0.122 -0.5837 -0.0367 -0.4959
   93SOL    HW1  278   0.239   1.344   0.103 -2.1531 -1.2984  1.6258
   93SOL    HW2  279   0.362   1.255   0.164 -0.6402  0.0857 -1.7179
   94SOL     OW  280   1.031   2.660   1.795  0.4224 -0.2514 -0.0238
   94SOL    HW1  281   0.994   2.643   1.890  2.3918  1.3947  1.1680
   94SOL    HW2  282   1.110   2.598   1.777 -0.2903 -0.7275  0.9613
   95SOL     OW  283   0.191   0.651   0.864 -0.1105 -0.1254 -0.5246
   95SOL    HW1  284   0.250   0.735   0.865  1.7511 -0.7829  1.6838
   95SOL    HW2  285   0.189   0.609   0.959 -0.3972  3.1742  1.5216
   96SOL     OW  286   0.048   2.852   1.689  0.0676  0.9691 -0.4428
   96SOL    HW1  287   3.057   2.909   1.697  0.4126  0.6139  0.9261
   96SOL    HW2  288   0.038   2.795   1.601 -1.6794  2.0568  0.5521
   97SOL     OW  289   2.369   0.318   1.301  0.8118 -0.0517  0.3123
   97SOL    HW1  290   2.318   0.396   1.261  4.0796  0.4593 -1.6335
   97SOL    HW2  291   2.365   0.235   1.241  0.4818 -2.9415  0.5424
   98SOL     OW  292   3.037   2.350   1.529 -0.2425 -0.1387  0.2024
   98SOL    HW1  293   2.939   2.347   1.495 -1.4120 -0.7189 -1.4885
   98SOL    HW2  294   0.005   2.296   1.469 -0.9907 -2.8686  0.6887
   99SOL     OW  295   0.030   0.363   1.258  0.3644 -0.1095  0.1859
   99SOL    HW1  296   0.092   0.282   1.260 -1.5479 -1.1652  0.5107
   99SOL    HW2  297   3.066   0.382   1.344 -3.3045  0.3998  0.5081
  100SOL     OW  298   2.441   0.471   2.509  0.1339  0.1556 -0.0411
  100SOL    HW1  299   2.350   0.425   2.505  2.1762  1.5375  1.2231
  100SOL    HW2  300   2.499   0.442   2.588  0.5101 -0.9247  0.8909
  101SOL     OW  301   0.479   0.105   2.237  0.2695  0.8206 -0.2311
  101SOL    HW1  302   0.490   0.179   2.171  2.5617 -2.4255 -0.7556
  101SOL    HW2  303   0.568   0.068   2.256 -0.0752  0.3537 -0.3196
  102SOL     OW  304   0.637   0.326   1.481 -0.2236 -0.0406  0.0352
  102SOL    HW1  305   0.544   0.365   1.473  1.1945 -2.6908  2.2361
  102SOL    HW2  306   0.662   0.314   1.582  0.1657 -1.2905  2.1866
  103SOL     OW  307   1.158   0.883   2.448  0.2253  0.0648  0.3315
  103SOL    HW1  308   1.241   0.894   2.392 -0.6725  1.8901  1.6947
  103SOL    HW2  309   1.077   0.860   2.388 -1.7111 -0.2509 -3.0259
  104SOL     OW  310   0.244   0.434   1.900 -0.6302 -0.3067  0.0734
  104SOL    HW1  311   0.145   0.427   1.915  2.4056  1.3399 -1.9944
  104SOL    HW2  312   0.296   0.403   1.983 -1.2283  1.4306 -2.1943
  105SOL     OW  313   2.224   1.933   1.721 -0.1318 -0.2268  0.2770
  105SOL    HW1  314   2.200   2.000   1.643 -0.2785 -1.4772 -2.1767
  105SOL    HW2  315   2.151   1.865   1.729  1.5776  4.6501 -1.8407
  106SOL     OW  316   1.371   0.146   0.425  0.1835 -0.3763  0.1188
  106SOL    HW1  317   1.269   0.156   0.438  0.1261  0.5517  1.4246
  106SOL    HW2  318   1.404   0.212   0.351 -0.8404 -0.6541  0.3073
  107SOL     OW  319   2.346   2.114   1.535  0.0122  0.3610  0.7889
  107SOL    HW1  320   2.408   2.132   1.613  0.6197  1.5499 -0.8392
  107SOL    HW2  321   2.401   2.080   1.453 -0.6945 -2.6018  1.0075
  108SOL     OW  322   0.167   2.145   0.884 -0.0939  0.3886  0.1590
  108SOL    HW1  323   0.095   2.124   0.821 -1.0436  0.8513  0.0372
  108SOL    HW2  324   0.226   2.219   0.847 -0.7230 -3.1327 -0.5226
  109SOL     OW  325   1.448   2.702   0.847  0.0263 -0.3277  0.3571
  109SOL    HW1  326   1.438   2.618   0.789  1.0716 -1.0979 -0.1572
  109SOL    HW2  327   1.422   2.683   0.944 -0.4362  2.5751 -0.1317
  110SOL     OW  328   1.947   1.609   0.927  0.1635 -0.3176  0.0597
  110SOL    HW1  329   2.032   1.592   0.985 -0.6030  2.2948  1.5836
  110SOL    HW2  330   1.903   1.516   0.919 -1.6393 -2.4005 -1.6001
  111SOL     OW  331   1.450   2.586   1.990  0.4612 -0.0146  1.0054
  111SOL    HW1  332   1.524   2.518   1.999 -1.8061  2.8108 -0.5801
  111SOL    HW2  333   1.453   2.651   2.066  2.0265  1.2835 -2.9044
  112SOL     OW  334   2.078   2.271   2.909  0.3809  0.1224 -0.1783
  112SOL    HW1  335   2.069   2.222   2.822 -1.0320  1.0941  1.9201
  112SOL    HW2  336   2.163   2.247   2.949 -3.1137 -0.1525 -3.1455
  113SOL     OW  337   2.049   1.722   1.755 -0.6032 -0.1560 -0.0858
  113SOL    HW1  338   2.068   1.649   1.833  1.3180 -3.1746  2.4241
  113SOL    HW2  339   2.029   1.672   1.670 -0.7472  0.7914  0.5329
  114SOL     OW  340   2.987   1.272   1.880  0.2319 -0.5330  0.4915
  114SOL    HW1  341   2.906   1.250   1.937  0.3150  0.2192 -0.1445
  114SOL    HW2  342   2.989   1.362   1.830 -1.5477  1.0589  0.3402
  115SOL     OW  343   2.986   0.997   0.224 -0.1876  0.0529 -0.1480
  115SOL    HW1  344   3.070   1.002   0.167 -1.2065  1.1065  3.7138
  115SOL    HW2  345   2.992   0.952   0.314  0.4373  1.2027 -0.0880
  116SOL     OW  346   2.880   0.802   0.031 -0.5929 -0.1470 -0.3578
  116SOL    HW1  347   2.922   0.870   0.090 -1.7842  2.0444 -0.3628
  116SOL    HW2  348   2.883   0.839   3.031  0.6494 -0.7509 -1.3218
  117SOL     OW  349   2.734   2.171   3.050  0.0922  0.0924 -0.0678
  117SOL    HW1  350   2.700   2.264   3.030  0.4684  1.0279  0.7304
  117SOL    HW2  351   2.736   2.118   2.958  0.9425 -0.4863 -0.8684
  118SOL     OW  352   0.527   2.023   2.568 -0.2129  0.0038 -0.5215
  118SOL    HW1  353   0.567   2.116   2.594  1.8979 -1.2431  0.7215
  118SOL    HW2  354   0.467   1.985   2.642  0.4777  1.4486 -0.0177
  119SOL     OW  355   0.736   2.664   0.332 -0.1412  0.1021  0.1832
  119SOL    HW1  356   0.689   2.575   0.354 -0.8774  2.1881  1.3348
  119SOL    HW2  357   0.812   2.680   0.400  0.6591 -1.0193  0.3875
  120SOL     OW  358   1.434   0.890   0.218 -0.6172  0.1963  0.8800
  120SOL    HW1  359   1.345   0.852   0.255 -0.0867 -1.4962 -2.4725
  120SOL    HW2  360   1.477   0.832   0.144  1.2934 -0.1245 -1.6614
  121SOL     OW  361   1.370   2.946   0.811 -0.5120  0.5770  0.0422
  121SOL    HW1  362   1.399   2.847   0.819 -2.3699 -1.9845 -4.7212
  121SOL    HW2  363   1.422   2.995   0.740  1.0929  2.3674 -3.5174
  122SOL     OW  364   2.528   1.414   2.331 -0.9488 -0.0842  0.0316
  122SOL    HW1  365   2.545   1.362   2.246 -0.1917  0.2404  0.3664
  122SOL    HW2  366   2.552   1.510   2.304  1.9219 -0.8462 -1.8934
  123SOL     OW  367   1.361   1.065   1.450 -0.1447 -0.1559  0.1451
  123SOL    HW1  368   1.351   1.115   1.535 -1.1184 -1.0272 -1.6621
  123SOL    HW2  369   1.323   0.968   1.459 -1.1615 -1.4087  2.2505
  124SOL     OW  370   0.605   0.482   0.179  0.3096  0.0491  0.0246
  124SOL    HW1  371   0.582   0.384   0.168 -1.1948  0.4091 -1.2291
  124SOL    HW2  372   0.544   0.537   0.116 -0.7637 -0.7537 -1.1775
  125SOL     OW  373   0.640   0.348   0.469  0.4814  0.2254 -0.3698
  125SOL    HW1  374   0.601   0.294   0.391 -0.0859  0.1249 -1.5228
  125SOL    HW2  375   0.687   0.427   0.426 -0.9490  0.3462 -5.0238
  126SOL     OW  376   0.244   1.555   0.428 -0.6262  0.3013  0.3196
  126SOL    HW1  377   0.220   1.650   0.449  2.3556 -1.2526 -0.0056
  126SOL    HW2  378   0.343   1.559   0.408  0.8084 -1.0959 -1.7887
  127SOL     OW  379   0.623   2.822   1.637 -0.3298 -0.1579 -0.4594
  127SOL    HW1  380   0.525   2.836   1.616 -1.5152  1.3965  1.0170
  127SOL    HW2  381   0.674   2.906   1.678  2.4856  0.3184  0.1950
  128SOL     OW  382   1.070   1.785   0.360  0.0793  0.9217  0.1566
  128SOL    HW1  383   1.057   1.687   0.381 -0.7758  0.1426 -0.4850
  128SOL    HW2  384   1.168   1.802   0.361 -0.6688 -2.2121 -1.2037
  129SOL     OW  385   1.800   1.647   1.990 -0.4023 -0.1939  0.2190
  129SOL    HW1  386   1.791   1.705   1.906  0.7551  2.2024  1.1374
  129SOL    HW2  387   1.821   1.552   1.970 -0.7675 -0.0761 -1.3228
  130SOL     OW  388   1.766   2.113   1.490  0.9747 -0.1910  0.5397
  130SOL    HW1  389   1.859   2.129   1.520 -0.8617 -1.0915 -0.6878
  130SOL    HW2  390   1.758   2.102   1.390  3.6979 -1.1186  0.5111
  131SOL     OW  391   0.167   2.169   1.991 -0.3564 -0.3721  0.1501
  131SOL    HW1  392   0.105   2.196   1.915 -1.5971 -0.3816  0.6572
  131SOL    HW2  393   0.242   2.235   1.998 -1.7808 -0.2086  0.2972
  132SOL     OW  394   2.720   1.825   0.786  0.6139 -0.1724 -0.0718
  132SOL    HW1  395   2.809   1.833   0.736 -0.1009  0.8059  0.0321
  132SOL    HW2  396   2.695   1.911   0.837  0.7269  1.2297 -1.3327
  133SOL     OW  397   0.480   0.764   1.606 -0.3378  0.0073 -0.1578
  133SOL    HW1  398   0.551   0.775   1.533  2.7583 -0.8072 -4.1463
  133SOL    HW2  399   0.496   0.669   1.636  0.2974 -1.3340  1.6827
  134SOL     OW  400   2.328   1.688   0.163  0.4945 -0.3615  0.1100
  134SOL    HW1  401   2.282   1.727   0.245  1.6803 -1.3759 -2.5500
  134SOL    HW2  402   2.265   1.707   0.081 -1.9303  0.8316 -1.0153
  135SOL     OW  403   1.853   1.077   2.509  0.0170 -0.8426 -0.2154
  135SOL    HW1  404   1.780   1.008   2.489 -1.5102  0.0163  0.5876
  135SOL    HW2  405   1.940   1.037   2.525  0.5074  1.8520 -1.3231
  136SOL     OW  406   2.866   1.688   1.397 -0.6230 -0.1291 -0.0761
  136SOL    HW1  407   2.953   1.635   1.411 -0.8398 -0.1163  0.1518
  136SOL    HW2  408   2.799   1.683   1.476  3.1555 -1.9305  1.5707
  137SOL     OW  409   2.517   1.828   0.426  0.2107 -0.3750 -0.0304
  137SOL    HW1  410   2.575   1.822   0.343 -0.0285 -0.1747  1.0985
  137SOL    HW2  411   2.540   1.916   0.474  0.4334 -1.9636  0.7682
  138SOL     OW  412   2.908   0.712   0.698  0.1966 -0.4605  0.2338
  138SOL    HW1  413   2.851   0.743   0.621  0.1926  0.1813  0.0382
  138SOL    HW2  414   2.875   0.624   0.731 -0.4272  1.0809 -1.5265
  139SOL     OW  415   3.092   0.009   0.040  0.6052 -0.4031 -0.0749
  139SOL    HW1  416   3.069   0.075   0.112 -0.2019  1.2886  1.4034
  139SOL    HW2  417   0.090   3.061   0.059  0.3091  0.3863 -1.8268
  140SOL     OW  418   0.740   1.045   1.465 -0.0139  0.0034 -0.2370
  140SOL    HW1  419   0.778   1.098   1.547  0.5778 -3.0730  1.4277
  140SOL    HW2  420   0.667   1.093   1.412 -0.3907  1.0679  1.8799
  141SOL     OW  421   1.432   1.422   1.098  0.8354  0.2614  0.4915
  141SOL    HW1  422   1.402   1.340   1.153  0.5708 -5.2677 -1.1008
  141SOL    HW2  423   1.373   1.501   1.128 -2.5031 -2.1524  2.1019
  142SOL     OW  424   1.234   0.709   1.171 -0.7063 -0.1205  0.0212
  142SOL    HW1  425   1.206   0.740   1.080 -0.3308 -3.8045  1.4329
  142SOL    HW2  426   1.172   0.635   1.202 -4.1812  1.4665 -2.2377
  143SOL     OW  427   0.596   1.205   2.409 -0.2538  0.2814  0.4569
  143SOL    HW1  428   0.565   1.282   2.472  0.4538 -1.3215  0.2316
  143SOL    HW2  429   0.562   1.224   2.314  1.6156 -0.4672 -2.7849
  144SOL     OW  430   2.373   0.028   0.273 -0.1684 -0.0027 -0.4657
  144SOL    HW1  431   2.466   0.070   0.262 -2.6430 -2.6802 -0.3263
  144SOL    HW2  432   2.375   3.034   0.223  2.4314 -1.2501 -2.1051
  145SOL     OW  433   2.534   0.419   2.791  0.4348  0.8373  0.2279
  145SOL    HW1  434   2.459   0.456   2.853 -1.7272  2.2023  2.3350
  145SOL    HW2  435   2.615   0.483   2.801 -3.4561  0.5003 -0.0574
  146SOL     OW  436   2.871   2.833   0.404  0.2313  0.9467 -0.2590
  146SOL    HW1  437   2.929   2.761   0.363  0.4870  3.2569 -0.5545
  146SOL    HW2  438   2.772   2.808   0.403  1.7082 -0.0347 -0.7676
  147SOL     OW  439   1.096   1.152   2.850 -0.4232  0.7329  0.7175
  147SOL    HW1  440   1.099   1.212   2.766  0.8120  0.2129 -2.4766
  147SOL    HW2  441   1.157   1.071   2.839  0.0084  1.9657 -0.1455
  148SOL     OW  442   1.287   0.122   0.060  0.1524  0.0867  0.5742
  148SOL    HW1  443   1.295   0.027   0.095  0.7531  0.6667 -0.0216
  148SOL    HW2  444   1.210   0.129   3.085 -1.6020 -0.2284 -0.3846
  149SOL     OW  445   1.381   0.065   2.008 -0.0595  0.2985 -0.1358
  149SOL    HW1  446   1.473   0.029   2.043  3.0179  0.7681  0.2615
  149SOL    HW2  447   1.361   0.157   2.045 -2.1477  0.3832  2.7041
  150SOL     OW  448   2.185   0.087   3.009  0.7284 -0.4129 -0.7384
  150SOL    HW1  449   2.113   0.032   3.058 -0.3870 -0.2162  0.7722
  150SOL    HW2  450   2.270   0.037   3.004 -1.7988  2.9042  0.4124
  151SOL     OW  451   0.475   1.533   0.013 -0.4108  0.6301  0.3645
  151SOL    HW1  452   0.375   1.538   0.007  1.1936 -0.9276 -0.5686
  151SOL    HW2  453   0.514   1.440   0.027  0.7885 -1.0236 -0.0585
  152SOL     OW  454   0.217   0.172   1.234  0.0921 -0.2850 -0.0420
  152SOL    HW1  455   0.303   0.204   1.192 -0.4924 -2.5036  0.1286
  152SOL    HW2  456   0.235   0.162   1.333  1.1553  0.0083 -0.6234
  153SOL     OW  457   2.600   2.773   1.901  0.1241  0.3896 -0.2074
  153SOL    HW1  458   2.700   2.780   1.900 -2.1135  1.3423 -1.4600
  153SOL    HW2  459   2.567   2.797   1.995 -0.8477  1.4631 -2.0276
  154SOL     OW  460   2.270   2.912   2.509 -0.6646  0.0275 -0.1691
  154SOL    HW1  461   2.222   2.837   2.466  0.0367  2.8024  1.6291
  154SOL    HW2  462   2.217   2.996   2.489  1.5880 -1.2201 -1.1019
  155SOL     OW  463   0.265   1.190   0.553  0.3178 -0.3700 -0.6828
  155SOL    HW1  464   0.224   1.252   0.486  0.5747 -0.3903  3.3197
  155SOL    HW2  465   0.217   1.206   0.639  1.1091  1.5250 -3.1989
  156SOL     OW  466   2.579   1.639   0.630  0.3762 -0.4064  0.2669
  156SOL    HW1  467   2.653   1.693   0.675 -2.0313  2.5765  1.4517
  156SOL    HW2  468   2.555   1.694   0.547 -1.9093 -0.8273 -1.2002
  157SOL     OW  469   0.859   0.405   0.122 -0.0970  0.1678 -0.5982
  157SOL    HW1  470   0.778   0.457   0.156  1.1661 -2.0079  1.8077
  157SOL    HW2  471   0.932   0.407   0.190 -0.2828 -0.1923  0.1816
  158SOL     OW  472   1.639   0.864   1.014 -0.3034  0.7078 -0.5404
  158SOL    HW1  473   1.623   0.959   1.042 -0.4187  0.1417 -2.6946
  158SOL    HW2  474   1.575   0.798   1.064  0.9526 -1.8104  0.4665
  159SOL     OW  475   0.091   0.637   0.297  0.0338  0.2842 -0.3785
  159SOL    HW1  476   0.064   0.637   0.395 -0.0812 -1.5927 -0.8877
  159SOL    HW2  477   0.157   0.557   0.287 -0.8215 -2.1828  0.3904
  160SOL     OW  478   2.406   2.019   1.896 -0.2070  0.3145 -0.3235
  160SOL    HW1  479   2.340   1.974   1.835 -0.1003 -1.9323  1.3485
  160SOL    HW2  480   2.361   2.099   1.935  3.3486  0.6603  2.7252
  161SOL     OW  481   0.508   1.049   2.957  0.2411  0.0254  0.7336
  161SOL    HW1  482   0.589   1.014   2.908 -0.5095  1.1709  0.2526
  161SOL    HW2  483   0.494   1.004   3.048  0.8537  1.2897 -1.2798
  162SOL     OW  484   0.399   0.660   1.909 -0.0983 -0.1121  0.0671
  162SOL    HW1  485   0.482   0.659   1.847  0.1237 -0.6490  1.4020
  162SOL    HW2  486   0.349   0.567   1.906 -2.4729 -0.7623  1.7719
  163SOL     OW  487   2.852   3.010   2.631  0.4118  0.2322  0.0321
  163SOL    HW1  488   2.841   3.018   2.731  0.2770  1.7810 -2.4253
  163SOL    HW2  489   2.795   3.073   2.575  2.0801  0.0723  0.9613
  164SOL     OW  490   2.321   2.205   0.197 -0.3313 -0.2189 -0.3131
  164SOL    HW1  491   2.330   2.196   0.097 -1.2113  0.9339  0.3404
  164SOL    HW2  492   2.412   2.199   0.238 -3.3842 -0.7506 -1.2409
  165SOL     OW  493   0.469   0.164   1.112 -0.7226  0.3314 -0.1497
  165SOL    HW1  494   0.569   0.194   1.109  2.6179 -0.5764  0.5668
  165SOL    HW2  495   0.463   0.061   1.122 -0.0459 -4.4489 -2.8349
  166SOL     OW  496   2.452   0.426   0.298  0.5139 -0.0437 -0.3108
  166SOL    HW1  497   2.535   0.423   0.248 -0.4477 -1.1291  0.8275
  166SOL    HW2  498   2.465   0.448   0.399  2.3807  0.7306  2.4209
  167SOL     OW  499   2.477   0.784   3.065  0.3622  0.1559 -0.7291
  167SOL    HW1  500   2.551   0.718   3.086 -1.4192 -0.3914  1.9866
  167SOL    HW2  501   2.410   0.795   0.042  3.4451  1.0133 -0.8711
  168SOL     OW  502   1.312   2.939   2.408  0.4439  0.3208  0.0424
  168SOL    HW1  503   1.249   3.019   2.391  1.4223  1.1082  2.5704
  168SOL    HW2  504   1.387   2.967   2.471  3.6266  0.0837  0.8492
  169SOL     OW  505   0.371   1.883   0.677 -0.7394  0.1231 -0.2396
  169SOL    HW1  506   0.343   1.916   0.767  0.1218 -0.2882 -0.7207
  169SOL    HW2  507   0.475   1.892   0.667  0.1990  0.7412 -0.7193
  170SOL     OW  508   2.949   0.761   1.379 -0.0684 -0.4892 -0.0813
  170SOL    HW1  509   2.913   0.705   1.457 -1.3646  2.1422  2.3980
  170SOL    HW2  510   2.945   0.710   1.293  2.8086 -1.1820  2.8241
  171SOL     OW  511   2.805   1.357   2.424 -0.3772 -0.6253  0.0463
  171SOL    HW1  512   2.849   1.272   2.406  1.0288  0.2398  0.3128
  171SOL    HW2  513   2.709   1.354   2.396  1.6884  1.9677  0.5289
  172SOL     OW  514   0.949   1.933   1.243 -0.1839  0.8118 -0.2852
  172SOL    HW1  515   1.031   1.983   1.221 -1.3852 -1.0379  1.6653
  172SOL    HW2  516   0.955   1.883   1.326 -1.7580 -0.2340  1.0931
  173SOL     OW  517   1.804   1.772   2.919  0.3775  0.3984  0.0185
  173SOL    HW1  518   1.864   1.777   3.001 -0.8476 -2.4107  0.3312
  173SOL    HW2  519   1.709   1.812   2.929 -1.8046  2.6196  0.5296
  174SOL     OW  520   1.815   0.726   2.781  0.4877  0.0776 -0.1308
  174SOL    HW1  521   1.892   0.785   2.762 -4.0905 -1.2788  1.1897
  174SOL    HW2  522   1.831   0.661   2.860 -0.4752  2.5056 -0.5876
  175SOL     OW  523   0.620   1.908   1.451  0.1353  0.0620  0.0808
  175SOL    HW1  524   0.667   1.888   1.538  0.0312  2.0043  0.1146
  175SOL    HW2  525   0.647   1.998   1.409  0.2926  0.3347 -2.5254
  176SOL     OW  526   0.970   0.009   0.313  0.3487 -0.0067  0.0130
  176SOL    HW1  527   0.881   0.006   0.359  0.5659 -1.4607 -0.5354
  176SOL    HW2  528   0.963   0.053   0.220  1.7028  3.0725 -0.6040
  177SOL     OW  529   0.144   1.318   0.370 -0.1442 -0.2464 -0.0611
  177SOL    HW1  530   0.191   1.407   0.394  2.1667  0.9922 -0.0692
  177SOL    HW2  531   0.170   1.292   0.276  0.3827  0.1792  0.2698
  178SOL     OW  532   3.002   2.273   2.367 -0.0301  0.3255 -0.4210
  178SOL    HW1  533   3.039   2.299   2.460  2.1889  1.1212  1.9479
  178SOL    HW2  534   3.030   2.181   2.340  1.5226  0.3449 -1.0639
  179SOL     OW  535   2.686   2.773   2.632  0.0149 -0.2268 -0.0683
  179SOL    HW1  536   2.683   2.737   2.536  0.7699 -1.2918  1.8269
  179SOL    HW2  537   2.764   2.832   2.645  0.8360 -4.3028  2.3692
  180SOL     OW  538   2.153   0.392   0.828  0.6396 -0.2937  0.2425
  180SOL    HW1  539   2.112   0.391   0.922  1.4503 -0.3509  2.6366
  180SOL    HW2  540   2.234   0.458   0.827 -1.2663 -1.3484  2.5208
  181SOL     OW  541   2.782   0.356   2.510  0.6673 -0.1923  0.1294
  181SOL    HW1  542   2.805   0.360   2.411  0.4778  1.7174 -0.5198
  181SOL    HW2  543   2.781   0.261   2.539  1.7611  0.4936 -2.2254
  182SOL     OW  544   2.298   2.210   2.297  0.1352  0.0325  0.0945
  182SOL    HW1  545   2.267   2.120   2.263  1.4775  2.5612 -0.8755
  182SOL    HW2  546   2.238   2.282   2.264  0.3972  1.7249 -0.9205
  183SOL     OW  547   2.427   0.530   1.906  0.2545  0.8521  0.1585
  183SOL    HW1  548   2.503   0.587   1.935 -1.4752 -0.8156 -0.5469
  183SOL    HW2  549   2.397   0.555   1.810 -0.6525 -1.9274 -0.7449
  184SOL     OW  550   3.004   1.556   0.603  0.3878  0.0743  0.0485
  184SOL    HW1  551   3.091   1.515   0.637 -1.4779  1.4311  0.4108
  184SOL    HW2  552   3.013   1.657   0.604  1.6008 -2.4868  1.9589
  185SOL     OW  553   2.693   0.232   0.628 -0.2471  0.2159  0.0447
  185SOL    HW1  554   2.771   0.180   0.658 -4.3318  2.4935 -0.3935
  185SOL    HW2  555   2.615   0.172   0.615  1.0821  0.7476  0.6202
  186SOL     OW  556   2.174   2.605   2.838 -0.2814  0.2102 -0.2580
  186SOL    HW1  557   2.130   2.559   2.917 -0.2243  0.1621  0.0076
  186SOL    HW2  558   2.176   2.708   2.845 -0.7415 -0.2999 -0.2841
  187SOL     OW  559   0.409   1.613   0.781  0.2121  0.8888 -0.1041
  187SOL    HW1  560   0.420   1.616   0.878  0.1826 -0.1549 -3.6130
  187SOL    HW2  561   0.424   1.705   0.742 -1.9126  1.0287  2.6674
  188SOL     OW  562   2.003   1.704   0.664  0.7223  0.1277  0.0911
  188SOL    HW1  563   1.969   1.672   0.751  2.1646 -0.4269 -0.6117
  188SOL    HW2  564   1.970   1.800   0.656 -0.5615  0.8782  0.9392
  189SOL     OW  565   2.956   1.382   2.951  0.4868 -0.0135 -0.0972
  189SOL    HW1  566   2.990   1.285   2.948  0.6625 -0.8055  0.5056
  189SOL    HW2  567   2.855   1.392   2.927  0.8121 -0.4988 -0.7394
  190SOL     OW  568   2.508   0.402   2.260 -0.0469  0.0012 -0.0967
  190SOL    HW1  569   2.602   0.357   2.264 -1.0257 -0.5320  0.0675
  190SOL    HW2  570   2.479   0.424   2.354  0.8056 -0.7139  0.7148
  191SOL     OW  571   1.102   0.398   2.275  0.2994  0.1373 -0.3123
  191SOL    HW1  572   1.081   0.386   2.374 -2.4609 -2.7313  0.6418
  191SOL    HW2  573   1.173   0.464   2.257 -0.0772  1.2456  0.3358
  192SOL     OW  574   1.237   1.948   1.990 -0.0748 -0.2899  0.9979
  192SOL    HW1  575   1.151   1.900   1.981  1.6472  2.0179  0.0768
  192SOL    HW2  576   1.228   2.046   2.011  1.8340 -2.4515 -0.0963
  193SOL     OW  577   1.395   2.660   1.121 -0.2078  0.6071  0.0167
  193SOL    HW1  578   1.428   2.698   1.210  1.5254 -3.3120 -2.1666
  193SOL    HW2  579   1.297   2.670   1.104 -0.3212 -0.2175  1.3920
  194SOL     OW  580   1.008   1.750   1.880  0.4637  0.3570  0.4437
  194SOL    HW1  581   1.095   1.691   1.869 -0.1471 -0.8496 -0.2792
  194SOL    HW2  582   0.987   1.799   1.794  1.6820  1.0505  0.7031
  195SOL     OW  583   1.976   0.480   0.655  0.1820 -0.2441 -0.7684
  195SOL    HW1  584   2.045   0.431   0.708  0.0326 -0.8629 -1.7902
  195SOL    HW2  585   1.948   0.424   0.574 -1.3213 -0.8816  2.2430
  196SOL     OW  586   1.399   1.580   2.241 -0.0266  0.1215 -0.6606
  196SOL    HW1  587   1.464   1.632   2.299  1.4822 -1.0152  0.3778
  196SOL    HW2  588   1.317   1.567   2.296 -0.6871  0.9693  0.5147
  197SOL     OW  589   0.159   0.158   1.808  0.7142 -0.4846 -0.4896
  197SOL    HW1  590   0.108   0.165   1.899 -0.0200  2.0322 -1.1396
  197SOL    HW2  591   0.253   0.192   1.821 -1.0238 -0.6387  2.1156
  198SOL     OW  592   0.236   1.247   1.113  0.0692  0.1816 -0.4473
  198SOL    HW1  593   0.287   1.162   1.145 -2.0633 -2.2983  1.3927
  198SOL    HW2  594   0.200   1.242   1.016  1.2809  1.8863 -2.8931
  199SOL     OW  595   0.309   2.443   0.814  0.0456 -0.3132  0.1149
  199SOL    HW1  596   0.344   2.395   0.733 -1.9326 -0.1322 -0.3614
  199SOL    HW2  597   0.363   2.525   0.834  0.1524  2.5878  1.8324
  200SOL     OW  598   1.848   1.497   2.887  1.2178  0.3672  0.1411
  200SOL    HW1  599   1.856   1.591   2.918  0.8616 -1.6710 -0.9066
  200SOL    HW2  600   1.844   1.436   2.964 -0.4730  1.7390 -3.2696
  201SOL     OW  601   0.422   2.339   1.676  0.1988  0.5292  0.3571
  201SOL    HW1  602   0.514   2.297   1.680 -0.9573 -1.0802  0.4973
  201SOL    HW2  603   0.352   2.263   1.655 -2.1645 -0.6236 -0.8148
  202SOL     OW  604   1.091   2.623   2.806  0.0615 -0.4692 -0.8846
  202SOL    HW1  605   1.140   2.559   2.868 -0.7243  2.1478  1.3780
  202SOL    HW2  606   1.065   2.711   2.853 -1.0849  1.4579  0.1737
  203SOL     OW  607   1.598   0.465   2.169  0.2121 -0.3306  0.1172
  203SOL    HW1  608   1.648   0.422   2.244 -1.9955  1.0182  2.9566
  203SOL    HW2  609   1.592   0.564   2.178 -1.7481  0.0699 -0.0209
  204SOL     OW  610   0.567   1.164   1.285 -0.0226  0.3016 -0.1220
  204SOL    HW1  611   0.519   1.089   1.231 -0.2064 -1.0829 -1.4220
  204SOL    HW2  612   0.623   1.228   1.225 -1.5944  3.2324 -1.6199
  205SOL     OW  613   2.342   1.092   2.456  0.9875 -0.1991 -0.3002
  205SOL    HW1  614   2.347   1.180   2.503 -0.8571 -3.1632  0.8900
  205SOL    HW2  615   2.366   1.103   2.359  1.7803 -0.1218  0.3695
  206SOL     OW  616   0.312   1.916   2.744 -0.2158 -0.2680  0.0657
  206SOL    HW1  617   0.277   2.004   2.777  0.3879 -3.0841 -0.9394
  206SOL    HW2  618   0.346   1.858   2.822  1.7385 -1.5830  0.0979
  207SOL     OW  619   0.475   0.133   1.806 -0.0064 -0.1212  0.1862
  207SOL    HW1  620   0.507   0.126   1.714  0.6202 -1.8169  0.0631
  207SOL    HW2  621   0.470   0.038   1.845 -0.3345  0.9798 -2.4236
  208SOL     OW  622   0.482   2.471   1.433  0.2059  0.4439 -0.0418
  208SOL    HW1  623   0.382   2.469   1.423  0.7203  1.6121  0.7598
  208SOL    HW2  624   0.513   2.402   1.505  2.2628 -2.8369 -0.8996
  209SOL     OW  625   1.479   2.502   2.812 -0.0568  0.1450 -0.1628
  209SOL    HW1  626   1.446   2.433   2.745  0.1839  0.1265 -1.0022
  209SOL    HW2  627   1.412   2.522   2.882  1.4234  2.5949 -1.9744
  210SOL     OW  628   2.723   1.398   1.609  0.1010 -0.2800  0.5732
  210SOL    HW1  629   2.822   1.395   1.625  1.1503 -3.5108  0.0840
  210SOL    HW2  630   2.685   1.495   1.602 -2.4493  0.8009 -2.9358
  211SOL     OW  631   1.208   0.220   1.767  0.4072  0.2454 -0.1962
  211SOL    HW1  632   1.261   0.277   1.832 -0.1238 -0.0154  0.6888
  211SOL    HW2  633   1.266   0.165   1.713 -3.2243  1.3276  2.9319
  212SOL     OW  634   0.911   2.425   1.525 -0.3118 -0.1027  0.4736
  212SOL    HW1  635   0.955   2.513   1.508  1.1170 -1.1959  1.9194
  212SOL    HW2  636   0.875   2.407   1.618 -1.0376 -0.2075 -1.6648
  213SOL     OW  637   2.679   0.514   2.024 -0.4598 -0.1647  0.2186
  213SOL    HW1  638   2.723   0.592   2.079 -1.8128  1.5360 -2.7071
  213SOL    HW2  639   2.587   0.484   2.049  1.7381  1.8194  1.1824
  214SOL     OW  640   0.956   1.932   1.706 -0.2396 -0.1599  0.8291
  214SOL    HW1  641   1.025   1.982   1.649 -0.4938 -2.2188  0.9159
  214SOL    HW2  642   0.918   1.996   1.776 -0.2664  1.8577 -0.4209
  215SOL     OW  643   2.631   2.017   0.964 -0.1220 -0.3191  0.5692
  215SOL    HW1  644   2.617   2.099   1.031  2.3471  2.1415  1.7960
  215SOL    HW2  645   2.596   1.930   1.010 -1.1340  1.7287 -0.7612
  216SOL     OW  646   2.898   0.662   1.099 -0.6336 -0.3817 -0.1296
  216SOL    HW1  647   2.968   0.596   1.079 -0.3684  0.5832  2.1989
  216SOL    HW2  648   2.906   0.749   1.051 -1.4564 -0.0163  1.6526
  217SOL     OW  649   2.305   0.121   1.510  0.0439  0.1976 -0.3197
  217SOL    HW1  650   2.325   0.190   1.437  0.5962 -1.7468  0.2567
  217SOL    HW2  651   2.344   0.034   1.474 -1.1492 -4.7582 -0.3161
  218SOL     OW  652   1.507   2.401   1.174 -0.1417 -0.3117  0.2141
  218SOL    HW1  653   1.535   2.336   1.098  0.4143  1.8989 -1.1827
  218SOL    HW2  654   1.439   2.473   1.141  0.2112  1.3954  0.1923
  219SOL     OW  655   1.710   2.065   0.140  0.4557 -0.8315  0.4342
  219SOL    HW1  656   1.723   2.147   0.198  2.1439  1.9238  0.0614
  219SOL    HW2  657   1.648   2.095   0.064  2.4806 -1.9944  0.7320
  220SOL     OW  658   1.785   2.345   2.863  0.0990  0.1236  0.2656
  220SOL    HW1  659   1.788   2.434   2.811 -1.1871 -2.8770  2.2168
  220SOL    HW2  660   1.876   2.322   2.895 -0.9658  1.2975 -0.7668
  221SOL     OW  661   2.926   2.275   0.812 -0.5700 -0.1455  0.2726
  221SOL    HW1  662   3.011   2.333   0.813 -0.1009  1.3083  0.7189
  221SOL    HW2  663   2.925   2.210   0.891  1.5460 -1.1239 -0.9781
  222SOL     OW  664   1.878   2.483   0.824  0.2010 -0.4570 -0.5892
  222SOL    HW1  665   1.801   2.548   0.818  0.2354 -2.4089 -2.2449
  222SOL    HW2  666   1.955   2.536   0.866 -2.9717  0.7728 -0.8906
  223SOL     OW  667   0.342   2.635   2.268  0.1707  0.0316 -0.4943
  223SOL    HW1  668   0.420   2.677   2.217 -1.4505  2.0688  3.0858
  223SOL    HW2  669   0.351   2.538   2.287  1.0074  2.9051  0.4036
  224SOL     OW  670   2.583   2.210   1.132 -0.0923  0.6116 -0.7758
  224SOL    HW1  671   2.659   2.269   1.107 -3.5818  0.4391 -1.3688
  224SOL    HW2  672   2.497   2.251   1.106  3.8880 -1.1627  0.3357
  225SOL     OW  673   2.151   1.962   0.817  0.0936  0.2954 -0.3310
  225SOL    HW1  674   2.213   1.881   0.810 -0.2368  0.6774  0.9566
  225SOL    HW2  675   2.081   1.971   0.745 -2.0662  1.6139  0.0924
  226SOL     OW  676   1.325   2.451   0.343  0.1510  0.0260  0.0119
  226SOL    HW1  677   1.354   2.548   0.350  0.2994  1.3107 -0.8666
  226SOL    HW2  678   1.310   2.414   0.247 -0.1983 -2.2555 -0.9019
  227SOL     OW  679   1.840   0.644   1.002  0.5761  0.3525  0.3044
  227SOL    HW1  680   1.754   0.623   1.054 -0.8167  1.1834  1.2616
  227SOL    HW2  681   1.822   0.690   0.913  0.8722 -3.4602 -0.5330
  228SOL     OW  682   1.167   0.718   2.129 -0.1314  0.1122  0.1266
  228SOL    HW1  683   1.240   0.656   2.164  0.1026 -0.5128  0.1414
  228SOL    HW2  684   1.216   0.798   2.088  1.7750 -1.3297 -1.1709
  229SOL     OW  685   3.007   1.154   2.696 -0.2239  0.1150  0.1085
  229SOL    HW1  686   3.083   1.111   2.646 -0.2795 -0.4081  0.7442
  229SOL    HW2  687   3.013   1.127   2.792  1.2136  1.2004  2.0496
  230SOL     OW  688   1.015   1.234   1.011 -0.0945 -0.4912 -0.1215
  230SOL    HW1  689   1.097   1.266   0.952 -0.5600  2.5710 -0.8374
  230SOL    HW2  690   1.037   1.235   1.112  4.0645 -0.6777 -0.3093
  231SOL     OW  691   2.507   2.810   2.189 -0.1914  0.0137 -0.0549
  231SOL    HW1  692   2.510   2.913   2.193 -0.2444  0.6075 -0.8619
  231SOL    HW2  693   2.567   2.770   2.260  0.2486  1.5475 -1.3370
  232SOL     OW  694   0.487   1.956   0.191 -0.1360  0.3919  0.2267
  232SOL    HW1  695   0.528   2.005   0.271  0.8473  1.9803 -1.6230
  232SOL    HW2  696   0.511   2.007   0.105  0.1840  2.0969 -0.7596
  233SOL     OW  697   1.159   2.465   2.283  0.6282  0.3666  0.1285
  233SOL    HW1  698   1.126   2.495   2.376 -1.0921 -0.3459 -1.1999
  233SOL    HW2  699   1.252   2.426   2.288 -2.8003 -1.3951  0.9043
  234SOL     OW  700   1.116   1.411   1.653  0.0868 -0.6031 -0.4028
  234SOL    HW1  701   1.170   1.472   1.715 -1.1272 -0.6137  2.2413
  234SOL    HW2  702   1.044   1.469   1.605  0.5288 -1.2010 -1.0020
  235SOL     OW  703   0.633   1.957   1.757 -0.9359  0.1719  0.0520
  235SOL    HW1  704   0.626   2.037   1.701  3.1672 -2.7748 -2.3349
  235SOL    HW2  705   0.675   1.979   1.846  0.3802 -1.3267  3.3066
  236SOL     OW  706   1.618   2.803   2.551 -0.3482 -0.0084 -0.2598
  236SOL    HW1  707   1.719   2.793   2.555 -1.6992 -1.6258 -1.2386
  236SOL    HW2  708   1.575   2.716   2.579 -0.6421 -1.8107  1.3337
  237SOL     OW  709   1.116   3.006   0.702  0.0843 -0.1142 -0.2461
  237SOL    HW1  710   1.098   0.012   0.704 -0.6784 -3.5084 -4.1411
  237SOL    HW2  711   1.196   2.977   0.759  0.6080  0.6231  1.0946
  238SOL     OW  712   1.229   0.688   2.847 -0.0491  0.0698  0.1391
  238SOL    HW1  713   1.202   0.612   2.909  0.5052  0.5027  0.2077
  238SOL    HW2  714   1.188   0.675   2.756  0.0170  1.7055 -0.1171
  239SOL     OW  715   0.242   0.472   2.240 -0.1509  0.7005  0.1493
  239SOL    HW1  716   0.206   0.548   2.187 -2.0261  0.7063  0.4992
  239SOL    HW2  717   0.322   0.494   2.297 -1.3143  1.6400 -0.2212
  240SOL     OW  718   2.295   2.639   0.740  0.1861  0.6789 -0.3465
  240SOL    HW1  719   2.330   2.543   0.735  1.5515 -0.4813  0.5294
  240SOL    HW2  720   2.306   2.678   0.650 -1.0241  0.3067  0.9408
  241SOL     OW  721   1.599   1.043   1.346 -0.2297 -0.1184 -0.6119
  241SOL    HW1  722   1.503   1.046   1.381 -0.7862 -1.2222 -0.7428
  241SOL    HW2  723   1.652   0.967   1.384 -2.6739  1.3337 -2.0665
  242SOL     OW  724   0.302   0.894   0.856  0.0287  0.1003  0.2797
  242SOL    HW1  725   0.248   0.889   0.941  1.9309 -0.0802  1.6700
  242SOL    HW2  726   0.250   0.935   0.781  1.1037 -0.0283  0.9541
  243SOL     OW  727   0.302   0.847   1.370  0.5299 -0.4884 -0.4283
  243SOL    HW1  728   0.210   0.876   1.404 -2.3716  1.3995  0.5305
  243SOL    HW2  729   0.372   0.850   1.442 -0.6583 -1.6354 -2.6094
  244SOL     OW  730   1.168   0.452   2.955  0.5522  0.2912 -0.4536
  244SOL    HW1  731   1.074   0.480   2.975 -1.2534  1.6360  0.8678
  244SOL    HW2  732   1.163   0.364   2.904 -2.2180 -0.8278  1.4119
  245SOL     OW  733   2.179   0.994   0.023 -0.1507  0.2182 -0.1618
  245SOL    HW1  734   2.261   0.985   3.060 -2.6527  1.8778 -0.1460
  245SOL    HW2  735   2.199   1.044   0.109  0.1714  2.0000  3.3505
  246SOL     OW  736   0.087   1.152   2.061 -0.0923 -0.1375 -0.1639
  246SOL    HW1  737   0.039   1.190   1.980  1.8694  0.9127 -0.7014
  246SOL    HW2  738   0.101   1.053   2.055  0.6330  3.2686  4.2275
  247SOL     OW  739   0.471   2.960   1.878  0.0970  0.1299 -0.1982
  247SOL    HW1  740   0.394   2.891   1.889 -2.0372  0.3247  1.0512
  247SOL    HW2  741   0.553   2.932   1.928  1.0367 -1.8924 -0.8479
  248SOL     OW  742   0.744   1.347   2.059 -0.3787 -0.2086 -0.0151
  248SOL    HW1  743   0.789   1.401   2.133  1.6547  2.6345 -3.0216
  248SOL    HW2  744   0.804   1.354   1.974  0.7191 -0.4325 -1.3917
  249SOL     OW  745   0.502   0.291   2.739 -0.4052 -0.3434  0.5710
  249SOL    HW1  746   0.402   0.276   2.723  2.3036 -2.4532 -2.1336
  249SOL    HW2  747   0.515   0.388   2.778 -0.0499 -0.1417 -0.2455
  250SOL     OW  748   0.211   0.107   2.921 -0.0471  0.1372  0.3018
  250SOL    HW1  749   0.146   0.040   2.887 -0.3848  1.5986  0.9491
  250SOL    HW2  750   0.209   0.190   2.861 -0.0608 -0.4940 -2.3280
  251SOL     OW  751   2.970   1.703   1.130 -0.3959 -0.7157  0.3320
  251SOL    HW1  752   2.901   1.693   1.057  3.4869 -0.0661  0.5056
  251SOL    HW2  753   2.922   1.727   1.216 -2.7393 -2.1808 -4.3306
  252SOL     OW  754   1.702   2.734   2.222  0.0955 -0.2395  0.1682
  252SOL    HW1  755   1.751   2.704   2.137 -0.4293 -2.9847 -1.3783
  252SOL    HW2  756   1.755   2.804   2.268  2.5081  0.9472 -0.3764
  253SOL     OW  757   1.611   1.581   2.746  0.1172  0.4018  0.2968
  253SOL    HW1  758   1.580   1.673   2.772  3.5782 -2.2125  0.5433
  253SOL    HW2  759   1.701   1.565   2.792  1.7641  1.3511  0.7278
  254SOL     OW  760   0.704   1.420   1.656  0.3336  0.0583 -0.3015
  254SOL    HW1  761   0.633   1.431   1.585 -0.3222 -0.3188  1.1063
  254SOL    HW2  762   0.691   1.501   1.719 -2.3138 -3.4084  0.5588
  255SOL     OW  763   0.888   3.033   1.469  0.5564 -0.2237 -0.0878
  255SOL    HW1  764   0.971   3.091   1.456  0.3392  1.8053 -0.3743
  255SOL    HW2  765   0.846   3.052   1.561  1.2290 -2.1022  2.6150
  256SOL     OW  766   0.027   2.449   0.890  0.3296 -0.0436 -0.3081
  256SOL    HW1  767   0.128   2.449   0.882 -0.8781  1.6278 -2.5296
  256SOL    HW2  768   0.008   2.458   0.987  1.0951 -0.3987 -0.1180
  257SOL     OW  769   0.148   2.758   2.909 -0.3867  0.0627  0.7321
  257SOL    HW1  770   0.246   2.773   2.929 -0.4111  2.1295 -3.9073
  257SOL    HW2  771   0.105   2.842   2.868 -1.1311  0.3498  0.6455
  258SOL     OW  772   1.096   2.354   1.787  0.4241 -0.2378  0.2114
  258SOL    HW1  773   1.130   2.310   1.870 -0.3683  0.2243 -0.7026
  258SOL    HW2  774   1.159   2.425   1.752 -3.3880 -0.2998  4.7451
  259SOL     OW  775   1.113   1.917   2.334  0.5553  0.1767 -0.3072
  259SOL    HW1  776   1.081   1.845   2.398 -1.4985  0.8289 -0.2250
  259SOL    HW2  777   1.066   1.909   2.241  0.8540 -1.1252  1.8609
  260SOL     OW  778   2.517   0.733   2.306  0.4250  0.4808  0.3567
  260SOL    HW1  779   2.492   0.801   2.379 -1.7499  0.9176  0.7313
  260SOL    HW2  780   2.435   0.677   2.270  0.8968 -0.5220 -1.0770
  261SOL     OW  781   1.209   0.838   0.919 -0.2427  0.7083 -0.4426
  261SOL    HW1  782   1.252   0.767   0.863 -1.6292 -1.0420 -1.7322
  261SOL    HW2  783   1.233   0.934   0.893 -1.3369 -0.8452  0.0104
  262SOL     OW  784   2.266   2.003   2.657  0.2944 -0.5573 -0.0262
  262SOL    HW1  785   2.302   1.968   2.745 -1.6968 -0.8646 -2.2026
  262SOL    HW2  786   2.187   2.067   2.674 -1.3298  0.3292 -1.9449
  263SOL     OW  787   0.678   2.323   0.916  0.3586 -1.0461 -0.4436
  263SOL    HW1  788   0.753   2.380   0.873 -1.5281  0.0559 -1.3781
  263SOL    HW2  789   0.656   2.247   0.854  2.2150  4.4651  1.6922
  264SOL     OW  790   0.130   2.485   0.421 -0.0009  0.3662  0.6135
  264SOL    HW1  791   0.046   2.500   0.370  0.4097  1.2175 -0.2429
  264SOL    HW2  792   0.127   2.396   0.468  1.0163 -1.0946  0.4383
  265SOL     OW  793   0.728   1.281   0.059 -0.3787 -0.4620  0.1287
  265SOL    HW1  794   0.740   1.271   3.051 -0.3790 -3.5793 -0.0720
  265SOL    HW2  795   0.791   1.211   0.107  2.4163  1.4969  0.3775
  266SOL     OW  796   0.754   2.256   2.385  0.4648 -0.4053  0.0050
  266SOL    HW1  797   0.830   2.192   2.405  0.4825  0.2558 -2.5640
  266SOL    HW2  798   0.727   2.322   2.457  1.4630  0.7206 -2.8207
  267SOL     OW  799   1.943   0.749   2.314  0.2073  0.0055  0.3384
  267SOL    HW1  800   1.976   0.802   2.388 -0.3391  1.2111 -1.2302
  267SOL    HW2  801   1.848   0.774   2.293  0.6787 -1.6821 -0.3215
  268SOL     OW  802   0.741   0.906   0.213  0.7163 -0.1641  0.1767
  268SOL    HW1  803   0.803   0.988   0.202  0.8458 -0.6849 -1.0911
  268SOL    HW2  804   0.720   0.876   0.311 -1.4491 -1.3504 -3.0353
  269SOL     OW  805   2.500   1.713   2.259  0.2949  0.4958  0.0717
  269SOL    HW1  806   2.486   1.748   2.350  1.9306  1.8544 -2.9177
  269SOL    HW2  807   2.538   1.791   2.202  0.4229  0.0978  0.7458
  270SOL     OW  808   1.157   1.860   0.087  1.1201 -0.0698 -0.2169
  270SOL    HW1  809   1.081   1.816   0.137 -0.2341  0.5062  0.7270
  270SOL    HW2  810   1.225   1.787   0.061  1.8260 -1.3679  1.9291
  271SOL     OW  811   0.295   0.466   0.223  0.0960 -0.2270 -0.1351
  271SOL    HW1  812   0.315   0.518   0.138 -0.8754 -0.9590 -0.9946
  271SOL    HW2  813   0.299   0.368   0.196 -0.7236  1.1175 -0.4274
  272SOL     OW  814   2.837   0.420   0.445  0.1349 -0.2706 -0.0064
  272SOL    HW1  815   2.771   0.356   0.488 -0.0154  0.1138  0.2548
  272SOL    HW2  816   2.931   0.404   0.481  0.3576 -0.7710 -0.7863
  273SOL     OW  817   0.220   3.044   1.630 -0.0496  0.2018  0.0452
  273SOL    HW1  818   0.215   0.011   1.711  0.8062  1.7038 -0.6636
  273SOL    HW2  819   0.158   2.963   1.635 -2.3794  1.2750  1.3314
  274SOL     OW  820   2.827   0.551   1.528  0.2169  0.2011  0.1936
  274SOL    HW1  821   2.902   0.481   1.534  0.9995 -1.2922  0.6711
  274SOL    HW2  822   2.734   0.507   1.506 -0.1204 -2.8903  1.4188
  275SOL     OW  823   0.768   1.676   0.971 -0.2801 -0.4639  0.1461
  275SOL    HW1  824   0.676   1.689   1.009  1.6327  0.9453  0.2488
  275SOL    HW2  825   0.790   1.580   0.945 -0.2604  0.6179 -0.7113
  276SOL     OW  826   0.767   1.157   1.725 -0.5452 -0.0436  0.2375
  276SOL    HW1  827   0.740   1.253   1.705  0.8748 -0.4014  2.7355
  276SOL    HW2  828   0.684   1.106   1.737  3.8721  2.6985 -2.4902
  277SOL     OW  829   0.972   2.764   2.095 -0.2207 -0.3161 -0.5276
  277SOL    HW1  830   1.063   2.723   2.072 -0.9347 -1.8718  0.3427
  277SOL    HW2  831   0.905   2.695   2.065 -0.5691  3.4185 -1.2628
  278SOL     OW  832   2.059   2.744   2.151 -0.3733 -0.0978  0.1020
  278SOL    HW1  833   2.153   2.719   2.120  1.0398  0.8035  1.4131
  278SOL    HW2  834   1.999   2.719   2.079  2.9450  2.1869  3.6496
  279SOL     OW  835   1.350   1.696   3.091  0.4175 -0.0979  0.3004
  279SOL    HW1  836   1.389   1.601   3.093  0.3052 -0.7267  1.9416
  279SOL    HW2  837   1.337   1.724   2.991 -1.3836 -1.3890 -2.0345
  280SOL     OW  838   1.570   0.750   0.018  0.0253  0.1618  0.3114
  280SOL    HW1  839   1.598   0.803   3.026  0.2502  0.2238 -1.6066
  280SOL    HW2  840   1.526   0.659   3.087 -0.6211 -1.4859  2.3411
  281SOL     OW  841   0.409   0.463   1.443 -0.3175  0.1722 -0.1369
  281SOL    HW1  842   0.415   0.529   1.368  2.5122  2.0347 -1.7180
  281SOL    HW2  843   0.345   0.493   1.517  1.1383  1.1712  0.8114
  282SOL     OW  844   0.029   2.627   0.688  0.2079  0.4234 -0.3808
  282SOL    HW1  845   0.031   2.560   0.766  2.1456  1.1716  0.6872
  282SOL    HW2  846   0.081   2.589   0.613 -0.2400  0.7407  1.9279
  283SOL     OW  847   1.368   2.252   1.966 -0.4270  0.0244 -0.1813
  283SOL    HW1  848   1.438   2.238   2.038  0.8235 -0.4901 -0.6444
  283SOL    HW2  849   1.388   2.324   1.900 -0.4615 -0.7836  0.7229
  284SOL     OW  850   2.889   2.649   1.223 -0.1298 -0.5504  0.9632
  284SOL    HW1  851   2.889   2.728   1.159  0.3536  0.1123  1.2712
  284SOL    HW2  852   2.793   2.624   1.247  2.5906  0.7167  1.3636
  285SOL     OW  853   0.299   2.216   0.022 -0.0616 -0.2072  0.1285
  285SOL    HW1  854   0.261   2.194   3.024 -0.7054  2.2414 -1.6296
  285SOL    HW2  855   0.361   2.293   0.014 -0.9909 -1.6604 -0.2595
  286SOL     OW  856   0.428   2.862   0.847 -0.6765 -0.0149 -0.4938
  286SOL    HW1  857   0.493   2.937   0.837 -2.5208 -0.8473 -1.2863
  286SOL    HW2  858   0.341   2.904   0.882  2.0830  0.2557  2.6834
  287SOL     OW  859   0.604   1.461   0.640  0.0522 -0.0365 -0.0758
  287SOL    HW1  860   0.516   1.503   0.674 -2.2559  0.5465 -1.3661
  287SOL    HW2  861   0.632   1.380   0.696 -0.4786 -0.9581 -0.5213
  288SOL     OW  862   1.837   1.917   2.690  0.0906 -0.3840  0.0663
  288SOL    HW1  863   1.867   1.876   2.600 -0.2713 -0.1193 -1.0512
  288SOL    HW2  864   1.838   1.851   2.767 -0.2267  0.7837 -1.2722
  289SOL     OW  865   2.904   1.910   0.361 -0.5238  0.1656  0.6772
  289SOL    HW1  866   2.833   1.959   0.310 -0.3265 -0.9416 -1.2889
  289SOL    HW2  867   2.952   1.855   0.290 -0.1500 -0.0704 -0.0186
  290SOL     OW  868   1.391   1.538   1.449  0.2824 -0.2378 -0.1236
  290SOL    HW1  869   1.356   1.625   1.413  0.2685 -3.6979 -0.2161
  290SOL    HW2  870   1.320   1.474   1.480  0.9278 -2.0099  1.9667
  291SOL     OW  871   1.233   1.357   0.124 -0.1698  0.5119  0.2332
  291SOL    HW1  872   1.225   1.265   0.081  1.2784  1.1796  1.2225
  291SOL    HW2  873   1.308   1.413   0.087  1.7053 -0.0093 -0.2670
  292SOL     OW  874   1.045   1.287   0.346 -0.2227  0.4276  0.0161
  292SOL    HW1  875   1.083   1.266   0.436 -2.8287  0.9798 -0.4881
  292SOL    HW2  876   1.117   1.292   0.273 -1.6227  0.1959  0.0625
  293SOL     OW  877   1.031   2.888   0.935 -0.2290 -0.1813 -0.0321
  293SOL    HW1  878   0.930   2.883   0.949 -3.3883  0.0101  1.3530
  293SOL    HW2  879   1.060   2.932   0.846  1.7340  0.7033 -1.0405
  294SOL     OW  880   1.952   1.219   2.262 -0.1848  0.1163  0.7026
  294SOL    HW1  881   1.867   1.261   2.227  0.2757 -2.9859  4.1461
  294SOL    HW2  882   1.930   1.154   2.334  1.1265 -0.6087 -1.0617
  295SOL     OW  883   1.573   1.868   3.003 -0.6224  0.0903 -0.5000
  295SOL    HW1  884   1.506   1.813   3.054 -0.2404 -0.7113 -2.8509
  295SOL    HW2  885   1.524   1.937   2.948 -1.0052 -2.4995  3.2908
  296SOL     OW  886   1.290   0.771   1.869 -0.2083 -0.1430  0.0347
  296SOL    HW1  887   1.252   0.690   1.820 -2.2190 -0.1710 -0.1114
  296SOL    HW2  888   1.233   0.851   1.855  2.0111 -1.1886 -0.4288
  297SOL     OW  889   0.110   0.884   1.966  0.0839 -0.2594 -1.1357
  297SOL    HW1  890   0.011   0.919   1.961 -2.2547 -1.6950  0.1027
  297SOL    HW2  891   0.130   0.821   1.890 -0.0809  1.5965  0.3797
  298SOL     OW  892   1.416   1.978   1.422 -0.1523  0.0284  0.4581
  298SOL    HW1  893   1.498   1.952   1.375 -2.5225 -3.2740  2.8709
  298SOL    HW2  894   1.414   2.079   1.431  1.3611 -1.5881 -2.2143
  299SOL     OW  895   1.275   0.014   2.709  0.5388  0.0617  0.0753
  299SOL    HW1  896   1.354   3.087   2.655 -2.5121  0.9932  2.4975
  299SOL    HW2  897   1.192   0.013   2.655  1.2789  0.7456 -0.1619
  300SOL     OW  898   2.581   1.747   0.078 -0.6002 -0.1411 -0.2592
  300SOL    HW1  899   2.591   1.643   0.070 -0.9098  0.3543 -0.3315
  300SOL    HW2  900   2.485   1.765   0.105  1.5672  1.5249  0.5041
  301SOL     OW  901   2.025   0.853   2.582 -0.1947 -0.4796 -0.2478
  301SOL    HW1  902   2.113   0.805   2.549  1.9495  0.8978 -1.5537
  301SOL    HW2  903   2.046   0.903   2.667 -0.8541  0.0896  0.0805
  302SOL     OW  904   2.521   2.118   2.679  0.5485  0.2956 -0.0638
  302SOL    HW1  905   2.565   2.168   2.606  2.4510 -0.3932  2.3267
  302SOL    HW2  906   2.427   2.086   2.655 -1.8900 -0.8001  2.1078
  303SOL     OW  907   0.095   2.170   0.199 -0.3812  0.2166 -1.1448
  303SOL    HW1  908   0.168   2.187   0.128 -1.5804 -0.7031  1.1531
  303SOL    HW2  909   3.092   2.193   0.170  0.0580  0.9369  1.0230
  304SOL     OW  910   0.349   1.921   1.300  0.2066  0.0144 -0.5701
  304SOL    HW1  911   0.272   1.897   1.357  1.6653  0.6696 -1.0010
  304SOL    HW2  912   0.441   1.900   1.346  4.1991  0.1663  2.6950
  305SOL     OW  913   2.906   0.666   1.764 -0.3454  0.4382 -0.3375
  305SOL    HW1  914   2.961   0.595   1.814 -1.8029  1.3316  0.9796
  305SOL    HW2  915   2.864   0.624   1.683 -0.9048  2.5021  1.2411
  306SOL     OW  916   1.709   1.358   1.095 -0.4293 -0.0352  0.0607
  306SOL    HW1  917   1.616   1.388   1.109  4.9261 -0.4120  1.1712
  306SOL    HW2  918   1.761   1.352   1.182 -1.2229  0.5255 -1.7526
  307SOL     OW  919   3.068   0.256   0.799  0.3852  0.0987 -0.4973
  307SOL    HW1  920   0.060   0.209   0.806 -3.7636  0.9384 -1.6130
  307SOL    HW2  921   2.991   0.195   0.767 -2.6867 -0.5514  0.9083
  308SOL     OW  922   0.277   1.344   1.821  0.1922  0.2007 -0.4259
  308SOL    HW1  923   0.218   1.338   1.739 -0.6002 -0.3644  0.9802
  308SOL    HW2  924   0.348   1.273   1.822 -1.2286  0.0291  0.8351
  309SOL     OW  925   2.827   1.949   2.117  0.0664 -0.3999 -0.7996
  309SOL    HW1  926   2.861   2.030   2.072 -1.6471 -1.0881  1.1594
  309SOL    HW2  927   2.724   1.949   2.128 -0.0723  1.7693  0.9805
  310SOL     OW  928   2.542   1.268   2.689  0.0841  0.1504 -0.2329
  310SOL    HW1  929   2.624   1.222   2.657 -1.8784 -1.6998  1.4488
  310SOL    HW2  930   2.488   1.212   2.754  0.2072 -0.9163  2.5103
  311SOL     OW  931   1.554   1.163   3.045 -0.2712 -0.0516  0.1960
  311SOL    HW1  932   1.466   1.184   2.999 -0.6764  2.4055  0.6869
  311SOL    HW2  933   1.591   1.068   3.027 -0.4663  0.5758 -0.6074
  312SOL     OW  934   1.410   2.263   2.574 -0.0346 -0.2415  0.2657
  312SOL    HW1  935   1.509   2.254   2.607  1.5098 -2.4223  0.4341
  312SOL    HW2  936   1.384   2.185   2.511 -0.5141 -0.2920 -0.3998
  313SOL     OW  937   0.333   0.432   0.760 -0.7392  0.2779 -0.0735
  313SOL    HW1  938   0.356   0.443   0.661  0.4522  0.5732  1.3249
  313SOL    HW2  939   0.278   0.505   0.795  1.7688 -2.0817 -1.4532
  314SOL     OW  940   0.828   2.054   1.037  0.1497 -0.3231  1.1401
  314SOL    HW1  941   0.793   2.127   1.099  0.3288  0.2105 -0.4197
  314SOL    HW2  942   0.867   1.987   1.101 -2.1070  2.4208 -0.9479
  315SOL     OW  943   0.733   2.094   2.156 -0.2607 -0.0154 -0.2445
  315SOL    HW1  944   0.677   2.009   2.158 -0.3103  0.2981  0.1816
  315SOL    HW2  945   0.758   2.132   2.249  1.5131  0.2106  0.9554
  316SOL     OW  946   0.394   2.506   0.471 -0.0758  0.0668  0.5366
  316SOL    HW1  947   0.290   2.509   0.449 -1.1151 -0.2461 -2.7873
  316SOL    HW2  948   0.424   2.596   0.509  0.8344  2.6063 -0.3517
  317SOL     OW  949   2.658   0.027   1.104 -0.0413 -0.2028  0.5662
  317SOL    HW1  950   2.623   0.100   1.044 -0.1195  2.3717 -0.9433
  317SOL    HW2  951   2.607   3.035   1.085  0.2053  0.6770  2.4760
  318SOL     OW  952   2.003   2.907   0.333 -0.2781  0.2589  0.3010
  318SOL    HW1  953   2.019   2.968   0.412 -0.1012  2.6200 -0.4695
  318SOL    HW2  954   2.024   2.813   0.363  2.5196  2.9497  0.2245
  319SOL     OW  955   1.709   0.716   2.521  0.6144  0.9125 -1.0523
  319SOL    HW1  956   1.745   0.715   2.617  0.8958  0.1756  1.3809
  319SOL    HW2  957   1.738   0.630   2.473 -1.9944 -1.4226  0.5056
  320SOL     OW  958   2.943   2.192   2.089 -0.7854 -0.0792  0.4459
  320SOL    HW1  959   3.007   2.231   2.157  1.1869  0.3973  0.5407
  320SOL    HW2  960   2.954   2.236   1.998  2.0412 -1.3194  3.9693
  321SOL     OW  961   0.518   2.466   0.046 -0.4543 -0.5931  0.3471
  321SOL    HW1  962   0.581   2.543   0.030 -0.7043 -2.2111 -1.6789
  321SOL    HW2  963   0.430   2.502   0.084  1.9055 -1.2852  3.2293
  322SOL     OW  964   2.783   0.634   2.547  0.7379 -0.1256  0.0472
  322SOL    HW1  965   2.759   0.536   2.527  0.6098 -0.6403 -0.4077
  322SOL    HW2  966   2.704   0.677   2.593 -1.5933  2.0516 -0.6674
  323SOL     OW  967   2.434   1.030   0.902 -0.4484 -0.0528  0.4409
  323SOL    HW1  968   2.506   1.080   0.959 -1.2299  0.4955  0.0779
  323SOL    HW2  969   2.462   0.947   0.845 -0.8258 -2.6554  0.5183
  324SOL     OW  970   2.721   0.393   1.157 -0.3016  0.0140  0.0929
  324SOL    HW1  971   2.810   0.398   1.101 -0.1411 -0.5005 -0.8181
  324SOL    HW2  972   2.683   0.482   1.185 -0.7764  0.3621  0.9786
  325SOL     OW  973   2.893   2.956   1.667 -0.4170 -0.7089  0.5517
  325SOL    HW1  974   2.851   3.002   1.744 -0.9454 -0.4247 -0.3044
  325SOL    HW2  975   2.883   3.009   1.579 -1.9316  1.1375 -1.7681
  326SOL     OW  976   1.781   2.844   0.202 -0.2932  0.0522  0.6484
  326SOL    HW1  977   1.781   2.765   0.132  1.9867 -0.0583 -1.6403
  326SOL    HW2  978   1.871   2.856   0.249  1.4860 -0.0717  0.1099
  327SOL     OW  979   1.827   1.688   0.360 -0.3957 -0.0380 -0.2137
  327SOL    HW1  980   1.859   1.759   0.300 -0.0636 -0.8639  3.1184
  327SOL    HW2  981   1.863   1.706   0.451 -0.7270  0.6847 -3.4838
  328SOL     OW  982   0.047   2.026   2.375  0.0391 -0.0836  0.4915
  328SOL    HW1  983   0.130   2.040   2.322 -0.3108 -1.0689  0.1533
  328SOL    HW2  984   3.088   1.940   2.343  0.3698 -2.4406 -2.9752
  329SOL     OW  985   0.141   2.179   1.426 -0.0936  0.0141 -0.0419
  329SOL    HW1  986   0.209   2.190   1.350  1.1237  0.3062 -0.4918
  329SOL    HW2  987   0.188   2.166   1.515 -1.4781  0.7967 -0.4510
  330SOL     OW  988   2.795   0.866   2.774  0.0593 -0.3091 -0.4203
  330SOL    HW1  989   2.765   0.951   2.724 -1.0539 -3.0673 -0.6335
  330SOL    HW2  990   2.895   0.843   2.766 -1.0273 -0.0502  2.0824
  331SOL     OW  991   2.357   2.316   1.037 -0.0484 -0.0756 -0.3119
  331SOL    HW1  992   2.291   2.243   1.022 -1.6579 -1.1856  0.7374
  331SOL    HW2  993   2.306   2.388   1.084  1.4033 -0.1925 -0.1925
  332SOL     OW  994   0.488   2.725   0.616 -0.0617 -0.4342 -0.0835
  332SOL    HW1  995   0.588   2.705   0.627 -1.3653 -1.6472 -1.0939
  332SOL    HW2  996   0.462   2.784   0.694  0.2737 -0.4624 -0.4695
  333SOL     OW  997   2.214   1.755   2.557  0.0074 -0.1165 -0.5396
  333SOL    HW1  998   2.225   1.854   2.588  0.0853  4.4853  0.8533
  333SOL    HW2  999   2.285   1.694   2.599 -1.9121  0.1054  0.5403
  334SOL     OW 1000   0.703   1.229   0.792 -0.2123 -0.0654 -0.3101
  334SOL    HW1 1001   0.784   1.167   0.793  2.5753  0.2602  1.9294
  334SOL    HW2 1002   0.626   1.182   0.836 -1.8964  1.9943 -0.8722
  335SOL     OW 1003   2.975   1.817   2.309  0.2264  0.6324 -0.3212
  335SOL    HW1 1004   2.929   1.890   2.251  0.8267 -0.2515 -1.5956
  335SOL    HW2 1005   2.916   1.793   2.391 -1.7051 -0.6963 -0.1486
  336SOL     OW 1006   2.290   2.677   2.058  0.0882  0.3210 -0.2787
  336SOL    HW1 1007   2.328   2.584   2.032  2.2852  1.4230 -2.8968
  336SOL    HW2 1008   2.368   2.737   2.098  1.0479  2.7875 -2.8953
  337SOL     OW 1009   0.912   1.036   0.866  0.0503  0.4490  0.8452
  337SOL    HW1 1010   0.927   0.962   0.936  0.9513 -1.6156 -1.6931
  337SOL    HW2 1011   0.932   1.126   0.917  1.1533 -0.5871  0.0386
  338SOL     OW 1012   1.393   2.072   1.079 -0.0359  0.0026  0.2048
  338SOL    HW1 1013   1.396   1.973   1.053 -0.4014  0.5850 -2.0475
  338SOL    HW2 1014   1.486   2.112   1.086 -1.7825 -1.9212  0.8736
  339SOL     OW 1015   0.211   1.767   1.497  0.2847 -0.2927 -0.2693
  339SOL    HW1 1016   0.276   1.826   1.549 -1.1743  0.0594 -2.3897
  339SOL    HW2 1017   0.113   1.803   1.510 -4.3670 -1.1637 -0.9921
  340SOL     OW 1018   1.037   0.078   1.935 -0.0567  0.9005 -0.1471
  340SOL    HW1 1019   1.077   0.155   1.880  0.2488 -0.9140 -0.5585
  340SOL    HW2 1020   1.060   3.082   1.888 -1.5870 -2.4224  0.3502
  341SOL     OW 1021   1.746   1.648   1.226  0.7407 -0.3921  0.4442
  341SOL    HW1 1022   1.758   1.609   1.128  2.8285 -1.7277 -2.6740
  341SOL    HW2 1023   1.678   1.727   1.231 -1.4198  0.4962  2.7771
  342SOL     OW 1024   2.369   1.458   0.926  0.5445 -0.3825 -0.4741
  342SOL    HW1 1025   2.440   1.454   0.997 -0.2274 -0.1029  0.3750
  342SOL    HW2 1026   2.324   1.371   0.896 -0.8031  1.1952  0.7473
  343SOL     OW 1027   2.118   0.131   0.763  0.2085 -0.1340  0.6676
  343SOL    HW1 1028   2.141   0.227   0.797  0.6752  1.0855  0.8236
  343SOL    HW2 1029   2.179   0.062   0.809 -1.4685  1.6234  0.7217
  344SOL     OW 1030   2.229   0.273   0.278  0.5970  0.1055  0.5426
  344SOL    HW1 1031   2.314   0.317   0.304 -4.3379  2.5765 -0.3850
  344SOL    HW2 1032   2.229   0.172   0.270 -3.4999 -1.2895  1.1668
  345SOL     OW 1033   0.807   3.035   1.731 -0.1512  0.0809 -0.1824
  345SOL    HW1 1034   0.769   3.080   1.811 -2.8560 -2.3345  1.7261
  345SOL    HW2 1035   0.908   3.025   1.728 -1.3762 -2.1216 -0.5796
  346SOL     OW 1036   2.401   2.107   0.781 -0.2408  0.0754  0.2480
  346SOL    HW1 1037   2.459   2.076   0.858 -0.1821 -2.4439  0.5014
  346SOL    HW2 1038   2.308   2.076   0.793  0.8100  2.3995 -0.1778
  347SOL     OW 1039   2.414   3.030   1.303  0.2766 -0.2533 -0.4002
  347SOL    HW1 1040   2.479   2.980   1.243 -1.6888 -1.8026  1.0015
  347SOL    HW2 1041   2.342   3.076   1.252  0.4610  0.9390  0.7439
  348SOL     OW 1042   0.892   0.861   1.588  0.0109  0.0047 -0.7206
  348SOL    HW1 1043   0.819   0.899   1.530 -1.3517 -0.9313  1.7581
  348SOL    HW2 1044   0.922   0.768   1.558  0.9906 -0.3331 -1.6833
  349SOL     OW 1045   2.513   0.736   2.587 -0.1051  0.4391 -0.7710
  349SOL    HW1 1046   2.480   0.650   2.539 -0.2043 -0.5317 -2.2489
  349SOL    HW2 1047   2.438   0.781   2.641 -2.6468  0.4168 -0.3011
  350SOL     OW 1048   2.138   2.417   0.247  0.0932 -0.0514  0.0083
  350SOL    HW1 1049   2.118   2.450   0.152 -0.3064  0.3340  1.1688
  350SOL    HW2 1050   2.169   2.323   0.245 -0.8754  0.7569  0.9061
  351SOL     OW 1051   1.379   0.543   0.228 -0.0939 -0.3984 -0.2469
  351SOL    HW1 1052   1.428   0.567   0.143  0.3645  1.0126 -0.7423
  351SOL    HW2 1053   1.424   0.572   0.313 -0.5320 -3.5379  1.2542
  352SOL     OW 1054   1.820   1.952   2.343 -0.2603 -0.2874 -0.1755
  352SOL    HW1 1055   1.769   1.903   2.271  1.5111  1.8371 -0.9146
  352SOL    HW2 1056   1.895   1.894   2.375  0.9750 -0.7053 -2.4578
  353SOL     OW 1057   0.534   1.399   2.571 -0.0507 -0.4895  0.1928
  353SOL    HW1 1058   0.434   1.385   2.592  1.2639  2.0219 -1.0964
  353SOL    HW2 1059   0.569   1.484   2.620 -1.1076  1.8904  0.0589
  354SOL     OW 1060   0.535   2.632   2.736  0.1164  0.9236  0.1180
  354SOL    HW1 1061   0.496   2.561   2.677 -0.9365  1.2358 -0.1000
  354SOL    HW2 1062   0.638   2.619   2.746  3.5116  1.6290  0.3409
  355SOL     OW 1063   2.265   2.739   1.331  0.0361  0.3526 -0.1608
  355SOL    HW1 1064   2.355   2.773   1.298 -1.7380  0.7543 -1.0823
  355SOL    HW2 1065   2.199   2.813   1.339  0.2626 -1.8965 -0.4170
  356SOL     OW 1066   2.756   0.931   1.213 -0.1969 -0.7130 -0.3559
  356SOL    HW1 1067   2.817   0.856   1.231 -0.9334 -0.0795 -1.1821
  356SOL    HW2 1068   2.684   0.933   1.281  3.1360  0.0081 -1.7438
  357SOL     OW 1069   2.926   0.024   1.454  0.1871 -0.7027  0.2268
  357SOL    HW1 1070   2.967   0.091   1.519 -0.7173  5.2750 -0.1708
  357SOL    HW2 1071   2.871   0.077   1.384  1.3409 -0.9053  0.6936
  358SOL     OW 1072   2.982   1.506   1.699  0.1414  0.4229  0.1409
  358SOL    HW1 1073   2.999   1.593   1.752 -0.5316  0.1667  1.2484
  358SOL    HW2 1074   3.020   1.515   1.605 -1.9936  2.1910  0.2454
  359SOL     OW 1075   2.709   2.718   2.379 -0.3445 -0.0188  0.8555
  359SOL    HW1 1076   2.733   2.620   2.350 -0.0638 -2.6415 -0.6136
  359SOL    HW2 1077   2.774   2.784   2.339  1.3507  0.0554  0.2090
  360SOL     OW 1078   1.158   0.456   1.325  0.2999  0.7070 -0.4260
  360SOL    HW1 1079   1.083   0.386   1.326  0.2536  1.7751 -0.7540
  360SOL    HW2 1080   1.248   0.409   1.333  0.0881 -2.2723 -2.2348
  361SOL     OW 1081   2.110   2.593   0.923  0.4802  0.2357  0.1170
  361SOL    HW1 1082   2.178   2.600   0.845  1.4227 -0.1969  0.2970
  361SOL    HW2 1083   2.158   2.569   1.008 -0.2012  0.9027 -3.7678
  362SOL     OW 1084   1.098   0.206   0.436 -0.4748  0.1629 -0.3298
  362SOL    HW1 1085   1.050   0.128   0.398 -0.7562  0.6083  2.5975
  362SOL    HW2 1086   1.061   0.218   0.530 -1.0654  0.4897 -0.6758
  363SOL     OW 1087   1.435   1.457   0.802  0.2565 -0.0035  0.2689
  363SOL    HW1 1088   1.527   1.470   0.760 -2.5141  2.5716 -0.6538
  363SOL    HW2 1089   1.439   1.430   0.903 -1.4232 -0.4130 -0.2973
  364SOL     OW 1090   0.198   0.770   1.724  0.0273 -0.0004 -0.5421
  364SOL    HW1 1091   0.284   0.730   1.764 -0.6530  0.9799  1.8897
  364SOL    HW2 1092   0.224   0.824   1.642 -3.9381 -0.8114 -0.2134
  365SOL     OW 1093   2.570   0.623   0.934 -0.5317  0.9313  0.4650
  365SOL    HW1 1094   2.648   0.561   0.906  0.8929 -0.8857 -2.6656
  365SOL    HW2 1095   2.578   0.644   1.034  1.5088  0.1092  0.8939
  366SOL     OW 1096   2.715   1.638   0.996  0.1074  0.3467  0.6518
  366SOL    HW1 1097   2.714   1.698   0.909 -0.8271  1.0017  1.4068
  366SOL    HW2 1098   2.724   1.539   0.978  0.2132  0.1917 -1.5069
  367SOL     OW 1099   2.184   1.959   2.308 -0.0480 -0.3022  0.0650
  367SOL    HW1 1100   2.212   1.897   2.385  0.6634 -0.1082  1.3132
  367SOL    HW2 1101   2.107   1.927   2.249  0.0543 -0.7696 -0.7457
  368SOL     OW 1102   2.739   1.994   1.449  0.0344  0.0074 -0.4028
  368SOL    HW1 1103   2.711   1.985   1.549 -1.6771 -0.1046  2.0989
  368SOL    HW2 1104   2.663   1.983   1.386  0.8337  0.0588 -1.5305
  369SOL     OW 1105   2.269   2.895   2.790 -0.3771 -0.3048  0.3080
  369SOL    HW1 1106   2.279   2.872   2.687 -0.9176 -0.7902 -3.7786
  369SOL    HW2 1107   2.334   2.965   2.825 -0.3856 -1.0781 -1.5329
  370SOL     OW 1108   0.752   0.427   1.059 -0.0440  0.0776 -0.2903
  370SOL    HW1 1109   0.665   0.447   1.007  1.0286 -1.8525  0.0518
  370SOL    HW2 1110   0.785   0.333   1.035  2.2169  1.2767  0.2883
  371SOL     OW 1111   0.538   1.557   0.392 -0.5089 -0.5127 -0.3020
  371SOL    HW1 1112   0.587   1.630   0.334  1.5746 -1.6058 -1.7544
  371SOL    HW2 1113   0.592   1.537   0.478 -0.0136 -1.3009 -1.9844
  372SOL     OW 1114   0.861   1.124   2.735  0.0806  0.3586  0.0981
  372SOL    HW1 1115   0.941   1.131   2.803  0.7494  1.8411  2.0329
  372SOL    HW2 1116   0.893   1.122   2.637  0.8037  0.5438 -1.7131
  373SOL     OW 1117   1.109   2.572   2.527  0.1994 -0.2464  0.6208
  373SOL    HW1 1118   1.044   2.638   2.482 -1.7117 -0.8574  0.7379
  373SOL    HW2 1119   1.128   2.604   2.621 -0.0349 -0.8222 -0.5087
  374SOL     OW 1120   0.645   2.067   0.398  0.0011  0.1287 -0.0229
  374SOL    HW1 1121   0.629   2.001   0.476  1.1911 -0.6890 -0.3520
  374SOL    HW2 1122   0.739   2.052   0.363  0.3154 -0.6038 -0.7680
  375SOL     OW 1123   0.599   0.570   1.741  0.2765 -0.3678 -0.5240
  375SOL    HW1 1124   0.652   0.481   1.741  0.9118  0.1104 -0.1257
  375SOL    HW2 1125   0.653   0.650   1.772  2.3844  0.6750  0.2618
  376SOL     OW 1126   0.200   2.510   1.408 -0.0673  0.2983 -0.3280
  376SOL    HW1 1127   0.159   2.429   1.454 -0.9960 -1.3743  1.4407
  376SOL    HW2 1128   0.244   2.572   1.474 -0.8744 -1.6677 -1.9689
  377SOL     OW 1129   2.945   1.657   2.819 -0.4103  0.1209  0.2456
  377SOL    HW1 1130   2.894   1.604   2.747 -1.3405  2.5387  2.3293
  377SOL    HW2 1131   3.020   1.601   2.857  0.0964  0.4975 -0.1362
  378SOL     OW 1132   1.713   3.066   3.021 -0.1273 -0.0337  0.1089
  378SOL    HW1 1133   1.640   2.999   3.054 -1.1056  1.1891 -0.2057
  378SOL    HW2 1134   1.775   3.088   0.004 -4.0606  0.3503 -0.2398
  379SOL     OW 1135   1.711   0.569   0.671  0.5617  0.8028  0.0652
  379SOL    HW1 1136   1.813   0.538   0.665  0.4280  0.3167 -0.0840
  379SOL    HW2 1137   1.710   0.659   0.723 -0.2660  2.0152  0.7432
  380SOL     OW 1138   0.365   1.903   1.696 -0.0538  0.4005  0.2983
  380SOL    HW1 1139   0.331   1.824   1.754 -1.4385 -0.9169 -0.9723
  380SOL    HW2 1140   0.466   1.916   1.696 -0.8451  3.0450 -2.0480
  381SOL     OW 1141   2.338   1.373   2.511 -0.5847 -0.1831 -0.8107
  381SOL    HW1 1142   2.403   1.401   2.434 -1.0714 -3.4240 -0.2587
  381SOL    HW2 1143   2.392   1.337   2.586  1.7370 -0.1485  1.1783
  382SOL     OW 1144   0.057   2.971   2.814  0.3255  0.0286 -0.8512
  382SOL    HW1 1145   3.046   2.969   2.829 -2.2138  2.0533 -0.1013
  382SOL    HW2 1146   0.075   2.990   2.717 -1.8207 -2.6779  0.9975
  383SOL     OW 1147   1.339   1.246   2.935 -0.0128 -0.0493  0.5018
  383SOL    HW1 1148   1.385   1.279   2.848 -0.7673  0.2329 -3.1950
  383SOL    HW2 1149   1.241   1.222   2.911  0.1224  1.0687 -1.4080
  384SOL     OW 1150   1.158   2.112   1.204 -0.0130 -0.2254 -0.6776
  384SOL    HW1 1151   1.148   2.212   1.230 -1.2025  0.2405 -0.0554
  384SOL    HW2 1152   1.256   2.091   1.180 -0.7832 -1.5513  0.9586
  385SOL     OW 1153   1.696   2.800   0.824  0.0794  0.2142 -0.0119
  385SOL    HW1 1154   1.740   2.796   0.917  0.0035 -1.2917  1.0073
  385SOL    HW2 1155   1.600   2.768   0.830 -2.9353 -0.4785  0.7085
  386SOL     OW 1156   1.443   1.815   1.001  0.2437 -0.4038 -0.0783
  386SOL    HW1 1157   1.389   1.741   1.047 -0.9678 -0.2089 -0.3746
  386SOL    HW2 1158   1.476   1.772   0.913 -1.6808 -2.3719  2.4959
  387SOL     OW 1159   2.798   2.255   1.420  0.1364 -0.4344 -0.3856
  387SOL    HW1 1160   2.795   2.289   1.322 -1.5257  3.2394 -1.0344
  387SOL    HW2 1161   2.795   2.154   1.425  2.7296 -2.1656 -0.3705
  388SOL     OW 1162   2.822   1.072   1.559  0.3004  0.3073 -0.6687
  388SOL    HW1 1163   2.810   1.069   1.458  1.6451 -2.7604 -2.1955
  388SOL    HW2 1164   2.915   1.106   1.584 -1.8508 -1.5403  0.4869
  389SOL     OW 1165   1.975   0.791   0.100  0.4839  0.6327 -0.9355
  389SOL    HW1 1166   2.034   0.874   0.075  1.9451  1.3795  1.7636
  389SOL    HW2 1167   2.027   0.748   0.177  0.9760  2.1397 -2.0487
  390SOL     OW 1168   1.405   1.901   2.583  0.1148 -0.2070  0.2955
  390SOL    HW1 1169   1.381   1.971   2.519 -0.8857  3.4641  0.7545
  390SOL    HW2 1170   1.443   1.816   2.537  0.2759  0.2050 -3.3472
  391SOL     OW 1171   1.171   2.118   0.196 -0.3599  0.3542  0.0381
  391SOL    HW1 1172   1.122   2.119   0.286 -0.4998 -0.2088  0.3523
  391SOL    HW2 1173   1.173   2.022   0.159 -0.4825 -1.2598  2.5362
  392SOL     OW 1174   0.271   2.604   1.665  0.4998 -0.4094 -0.4215
  392SOL    HW1 1175   0.321   2.686   1.636 -0.8843 -0.4713  2.0767
  392SOL    HW2 1176   0.328   2.518   1.666 -0.1499  0.0782 -0.3561
  393SOL     OW 1177   1.345   2.301   0.106 -0.1832 -0.0066  0.3893
  393SOL    HW1 1178   1.271   2.232   0.128 -1.7990  1.6035  0.9886
  393SOL    HW2 1179   1.427   2.264   0.057  4.3590 -0.4945 -0.8300
  394SOL     OW 1180   0.369   0.771   2.361 -0.0816  0.1705  0.4014
  394SOL    HW1 1181   0.374   0.827   2.445  1.4537  1.7322  1.5482
  394SOL    HW2 1182   0.394   0.674   2.379 -1.2357 -0.2031  1.4497
  395SOL     OW 1183   0.491   1.385   1.042  0.5268  0.1696 -0.2781
  395SOL    HW1 1184   0.457   1.482   1.029 -2.0817  0.6227  0.9139
  395SOL    HW2 1185   0.414   1.324   1.070  0.5574  2.5332  1.2837
  396SOL     OW 1186   1.791   0.954   2.126 -0.1385  0.3082  0.1593
  396SOL    HW1 1187   1.884   0.960   2.086  1.8407 -0.1594 -1.2827
  396SOL    HW2 1188   1.754   1.043   2.164  1.2970 -0.0072  0.6722
  397SOL     OW 1189   0.824   0.168   3.069  0.1292 -0.1170 -0.1008
  397SOL    HW1 1190   0.765   0.103   0.027  1.1541  3.2320  0.1572
  397SOL    HW2 1191   0.810   0.265   0.012  0.4221 -0.4080 -0.2318
  398SOL     OW 1192   0.630   2.268   2.691 -0.2606 -0.1332 -0.4953
  398SOL    HW1 1193   0.718   2.315   2.710 -0.9088 -0.2203 -1.8232
  398SOL    HW2 1194   0.618   2.196   2.765 -0.1638  1.5498 -0.5851
  399SOL     OW 1195   1.836   1.494   2.406 -0.6861  0.3018  0.1193
  399SOL    HW1 1196   1.773   1.425   2.440 -0.1957  2.8162  0.8021
  399SOL    HW2 1197   1.930   1.450   2.379  3.0344 -2.5915 -1.1952
  400SOL     OW 1198   1.928   1.489   1.622 -0.1898 -0.2119 -0.2676
  400SOL    HW1 1199   1.896   1.564   1.561  1.4585  0.4933 -1.2450
  400SOL    HW2 1200   1.914   1.399   1.574 -1.4090 -0.0021 -1.0825
  401SOL     OW 1201   1.330   1.254   1.266  0.7588  0.0799 -0.0022
  401SOL    HW1 1202   1.330   1.178   1.337  1.5561 -1.6830  0.5964
  401SOL    HW2 1203   1.235   1.287   1.247 -3.4313  1.5902 -0.2563
  402SOL     OW 1204   3.053   2.539   1.726 -0.3050  0.3078  0.0715
  402SOL    HW1 1205   3.050   2.497   1.637  1.9698  2.0523  3.6277
  402SOL    HW2 1206   0.048   2.588   1.734  0.9595 -1.0380  0.6080
  403SOL     OW 1207   0.177   1.499   2.024 -0.5708 -0.4621 -0.5646
  403SOL    HW1 1208   0.113   1.444   2.083 -1.6528  1.8360  0.0775
  403SOL    HW2 1209   0.239   1.437   1.967  0.3954  0.6263  0.0782
  404SOL     OW 1210   2.074   1.868   1.458 -0.6620 -0.6707  0.0718
  404SOL    HW1 1211   2.082   1.961   1.496  4.4468  1.1930 -2.4780
  404SOL    HW2 1212   2.096   1.873   1.356 -1.1386 -0.7962 -3.7491
  405SOL     OW 1213   2.931   0.400   2.785  0.6495 -0.4191  0.0471
  405SOL    HW1 1214   2.854   0.471   2.798  0.1240  0.0749 -0.2844
  405SOL    HW2 1215   2.937   0.374   2.688  1.8537  1.2229  1.7945
  406SOL     OW 1216   0.832   1.524   2.668 -0.6415 -0.2452  0.2231
  406SOL    HW1 1217   0.823   1.441   2.606 -1.3494 -2.2779  0.1563
  406SOL    HW2 1218   0.753   1.587   2.645 -1.1187  1.1234  0.8897
  407SOL     OW 1219   1.832   2.516   0.152 -0.7573  0.0195 -0.8986
  407SOL    HW1 1220   1.817   2.429   0.196 -0.2392 -1.1694 -2.3240
  407SOL    HW2 1221   1.745   2.556   0.118 -1.9646  1.5970 -1.1466
  408SOL     OW 1222   0.487   3.040   0.469  0.1334  0.2561 -0.2374
  408SOL    HW1 1223   0.443   0.024   0.424  2.4344 -0.3378  2.5185
  408SOL    HW2 1224   0.423   2.978   0.508  1.1070 -0.8534 -3.6324
  409SOL     OW 1225   2.389   1.883   1.065  0.0942 -0.2282  0.5975
  409SOL    HW1 1226   2.366   1.846   0.971 -1.3124  3.9162 -3.7016
  409SOL    HW2 1227   2.314   1.862   1.128 -0.8536  2.7295 -4.1592
  410SOL     OW 1228   2.323   2.197   3.009  0.0657  0.3299  0.4731
  410SOL    HW1 1229   2.328   2.103   2.974 -0.9928  1.2053  0.6186
  410SOL    HW2 1230   2.356   2.258   2.934 -3.2170  0.3999  2.5099
  411SOL     OW 1231   0.182   0.911   0.538  0.2433 -0.4784  0.2584
  411SOL    HW1 1232   0.244   0.988   0.518 -1.4695  0.6317 -1.5564
  411SOL    HW2 1233   0.088   0.951   0.558  0.9551  2.1687  2.3979
  412SOL     OW 1234   1.458   2.668   0.291  0.3274  0.0354 -0.2489
  412SOL    HW1 1235   1.510   2.723   0.360 -0.9299 -0.0280  1.2847
  412SOL    HW2 1236   1.514   2.634   0.218  0.5613 -1.1779  2.1288
  413SOL     OW 1237   1.887   0.268   2.315  0.5917 -0.7179  0.0259
  413SOL    HW1 1238   1.867   0.219   2.227 -0.4560 -1.3793  2.9149
  413SOL    HW2 1239   1.874   0.200   2.392 -0.6868 -0.2554  0.5388
  414SOL     OW 1240   3.082   0.397   0.578 -0.2382 -0.1010  0.3285
  414SOL    HW1 1241   0.022   0.493   0.561 -1.3558  0.1673  1.3837
  414SOL    HW2 1242   3.078   0.374   0.676 -0.6778 -0.8682 -2.1986
  415SOL     OW 1243   0.990   1.790   1.472  0.0541  0.9453 -0.0487
  415SOL    HW1 1244   0.970   1.838   1.559 -0.9121  0.0939  0.4793
  415SOL    HW2 1245   0.991   1.688   1.490 -0.2509 -1.5574 -2.4802
  416SOL     OW 1246   0.552   0.226   0.246 -0.3768 -0.3957 -0.3305
  416SOL    HW1 1247   0.602   0.186   0.168  2.6995 -0.1674 -1.5726
  416SOL    HW2 1248   0.455   0.200   0.255  2.2388  1.1082  2.8082
  417SOL     OW 1249   2.573   2.861   1.125  0.5995 -0.3340 -0.1689
  417SOL    HW1 1250   2.636   2.792   1.166  0.6165 -0.7508 -0.1112
  417SOL    HW2 1251   2.500   2.826   1.060  0.4670  0.1779 -1.6310
  418SOL     OW 1252   0.711   0.536   2.521 -0.1688 -0.1088  0.1183
  418SOL    HW1 1253   0.777   0.568   2.451  1.4360  3.7121  2.1000
  418SOL    HW2 1254   0.742   0.484   2.605 -1.9334 -0.8600  1.1187
  419SOL     OW 1255   0.179   1.532   1.135 -0.1528 -0.0021 -0.2748
  419SOL    HW1 1256   0.179   1.431   1.142 -0.5286 -1.2110 -4.4337
  419SOL    HW2 1257   0.109   1.565   1.070  0.9543 -0.0747  0.4018
  420SOL     OW 1258   1.163   1.968   0.761 -0.4069 -0.2774  0.1375
  420SOL    HW1 1259   1.074   2.011   0.766  2.4989  1.9350 -1.9075
  420SOL    HW2 1260   1.169   1.882   0.816 -1.1060  0.7448 -0.6238
  421SOL     OW 1261   1.940   2.047   2.028 -0.2237 -0.1074 -0.6650
  421SOL    HW1 1262   1.986   2.017   1.945 -1.1818 -0.7721 -0.0540
  421SOL    HW2 1263   1.938   1.972   2.096 -2.3628  1.2931  1.9204
  422SOL     OW 1264   0.025   0.549   2.946  0.4008  0.1125  0.0848
  422SOL    HW1 1265   0.007   0.454   2.913 -0.1603 -2.9182 -1.4568
  422SOL    HW2 1266   3.075   0.564   3.039 -0.0992 -2.0889  2.6214
  423SOL     OW 1267   1.203   2.239   0.928  0.2483  0.9313 -0.1377
  423SOL    HW1 1268   1.122   2.181   0.901  0.9439 -1.1691 -2.1835
  423SOL    HW2 1269   1.264   2.181   0.984  1.7441  0.6843 -1.0808
  424SOL     OW 1270   0.922   1.531   1.529  0.2905 -0.6186 -0.3636
  424SOL    HW1 1271   0.886   1.528   1.429 -1.9717 -0.8863 -2.0684
  424SOL    HW2 1272   0.841   1.510   1.588  1.2229 -0.8291 -3.0391
  425SOL     OW 1273   3.004   2.673   2.062 -0.1860 -0.3016 -0.0609
  425SOL    HW1 1274   0.001   2.627   2.059  0.3126 -2.6657 -2.6996
  425SOL    HW2 1275   2.970   2.696   1.971  2.2193 -0.6999  3.9539
  426SOL     OW 1276   1.795   3.024   0.651  0.3121  0.5081 -0.6004
  426SOL    HW1 1277   1.788   2.949   0.722 -0.5205 -1.4448  2.5882
  426SOL    HW2 1278   1.886   3.036   0.612  1.3350  2.3970  1.2708
  427SOL     OW 1279   0.689   0.916   2.830 -0.1524 -0.0221  0.2746
  427SOL    HW1 1280   0.760   0.979   2.795  1.3865  0.6516  0.4029
  427SOL    HW2 1281   0.664   0.843   2.761 -0.9757  1.4586  5.1003
  428SOL     OW 1282   2.106   1.392   0.346 -0.1439  0.4541 -0.7184
  428SOL    HW1 1283   2.031   1.423   0.287  0.6244  0.5574 -1.3081
  428SOL    HW2 1284   2.181   1.378   0.281 -0.5572  0.0631 -0.1527
  429SOL     OW 1285   2.993   0.170   0.246 -0.0862  0.0123  0.1323
  429SOL    HW1 1286   3.054   0.160   0.325 -1.4166  0.8558  1.4475
  429SOL    HW2 1287   2.906   0.114   0.263 -1.3581 -3.3959  3.1516
  430SOL     OW 1288   0.612   2.712   2.158 -0.4756  0.1763 -0.2472
  430SOL    HW1 1289   0.638   2.808   2.133 -2.0890 -2.6221  1.3578
  430SOL    HW2 1290   0.629   2.697   2.259  0.5619  0.4736  0.7257
  431SOL     OW 1291   2.367   1.036   1.405 -0.0518 -0.8638 -0.0500
  431SOL    HW1 1292   2.284   1.031   1.457  1.9605  0.1472  0.3854
  431SOL    HW2 1293   2.416   1.122   1.426  3.4441  0.9939 -0.1035
  432SOL     OW 1294   1.854   2.277   2.120 -0.1139 -0.2737  0.1522
  432SOL    HW1 1295   1.801   2.267   2.205 -0.0149 -0.6275 -0.0497
  432SOL    HW2 1296   1.896   2.185   2.098 -0.5606 -0.0578 -1.8224
  433SOL     OW 1297   0.915   2.020   0.356  0.0172 -0.3970 -0.5277
  433SOL    HW1 1298   0.942   1.923   0.349 -0.6476 -0.2687  0.4346
  433SOL    HW2 1299   0.973   2.066   0.427 -0.2728  1.9664  2.0185
  434SOL     OW 1300   0.391   2.105   2.346 -0.0112  0.9822  0.2488
  434SOL    HW1 1301   0.460   2.066   2.414 -1.1082 -0.9795  2.9516
  434SOL    HW2 1302   0.347   2.041   2.282 -1.0234  0.7436 -0.6841
  435SOL     OW 1303   0.708   0.636   0.374  0.0414 -0.1360  0.1925
  435SOL    HW1 1304   0.658   0.598   0.294 -0.3104 -2.8401 -0.2364
  435SOL    HW2 1305   0.653   0.685   0.440 -2.7242 -0.7031  0.5981
  436SOL     OW 1306   0.272   2.861   1.290 -0.0678  0.2500  0.0659
  436SOL    HW1 1307   0.293   2.781   1.228  2.3548  0.8781  0.3953
  436SOL    HW2 1308   0.174   2.888   1.275 -1.0709  1.6157  0.6821
  437SOL     OW 1309   1.609   1.955   1.666  0.2286  0.2560 -0.7029
  437SOL    HW1 1310   1.510   1.982   1.650  0.9627 -0.5475 -1.8776
  437SOL    HW2 1311   1.672   2.011   1.609 -0.4504  2.0847  3.3319
  438SOL     OW 1312   0.083   1.823   0.811  0.3767 -0.2488  0.2079
  438SOL    HW1 1313   0.073   1.847   0.913 -1.9156 -0.8444  1.1157
  438SOL    HW2 1314   0.180   1.790   0.787  1.2402  1.8699 -0.0771
  439SOL     OW 1315   0.190   0.528   1.112 -0.3160  0.8933 -0.4245
  439SOL    HW1 1316   0.286   0.538   1.147 -0.4058  1.1338  0.8219
  439SOL    HW2 1317   0.132   0.460   1.162  2.8091 -2.5360 -0.2460
  440SOL     OW 1318   0.070   2.908   2.326 -0.0878  0.0454 -0.2983
  440SOL    HW1 1319   0.127   2.852   2.387  0.1454 -3.6704 -1.1654
  440SOL    HW2 1320   0.124   2.942   2.247  0.6236  1.2835  2.4971
  441SOL     OW 1321   2.971   0.405   1.030 -0.3638 -0.2183  0.2899
  441SOL    HW1 1322   3.039   0.372   1.102 -0.3909 -0.3417 -0.7101
  441SOL    HW2 1323   2.994   0.348   0.949 -0.6973  0.0156  3.8933
  442SOL     OW 1324   1.654   2.147   2.679 -0.6733  0.0444 -0.4682
  442SOL    HW1 1325   1.702   2.210   2.744  0.1673  1.4903 -0.4263
  442SOL    HW2 1326   1.714   2.068   2.651  0.8155  1.7030  0.9739
  443SOL     OW 1327   0.724   1.322   2.851  0.3731  0.5884 -0.0764
  443SOL    HW1 1328   0.760   1.402   2.810 -0.7942 -0.7134  2.6216
  443SOL    HW2 1329   0.763   1.239   2.813  1.4685  0.5822  2.9362
  444SOL     OW 1330   1.414   1.752   2.039 -0.0528 -0.1219 -0.1796
  444SOL    HW1 1331   1.339   1.817   2.017 -1.3329 -0.6363 -2.0696
  444SOL    HW2 1332   1.387   1.692   2.121 -2.2970 -3.5870  2.8292
  445SOL     OW 1333   0.214   3.001   0.896  0.4482 -0.0013 -0.2578
  445SOL    HW1 1334   0.255   3.088   0.869  1.2519  0.3423 -1.1711
  445SOL    HW2 1335   0.155   3.026   0.981 -0.8229  0.1547  2.2191
  446SOL     OW 1336   2.234   0.533   1.208 -0.1344 -0.1323  0.0202
  446SOL    HW1 1337   2.226   0.636   1.225  0.2400  2.6597  0.6316
  446SOL    HW2 1338   2.172   0.502   1.133  0.8190  0.5170 -1.9454
  447SOL     OW 1339   0.491   0.927   0.116 -0.1041 -0.3854  0.3733
  447SOL    HW1 1340   0.584   0.919   0.159 -1.6257 -1.6027  0.4584
  447SOL    HW2 1341   0.416   0.893   0.176 -1.3892  1.6920  1.7918
  448SOL     OW 1342   1.364   2.085   1.732  0.4511 -0.6137  0.0045
  448SOL    HW1 1343   1.272   2.043   1.739  0.5910  3.1154  1.1599
  448SOL    HW2 1344   1.384   2.132   1.820 -1.1870 -2.5551 -0.0695
  449SOL     OW 1345   1.080   1.336   0.628 -0.1325 -0.2249  0.0912
  449SOL    HW1 1346   1.137   1.310   0.707 -2.6832 -2.0132  1.4378
  449SOL    HW2 1347   1.003   1.274   0.624  1.9815 -0.3449 -1.1125
  450SOL     OW 1348   3.050   1.715   1.858 -0.3150 -0.1481  0.0206
  450SOL    HW1 1349   0.054   1.734   1.887 -2.6618  0.3373  3.4511
  450SOL    HW2 1350   2.993   1.662   1.923  1.8419 -0.9415  1.2533
  451SOL     OW 1351   2.676   1.445   2.895 -0.4483  0.3821 -0.3117
  451SOL    HW1 1352   2.653   1.464   2.993 -0.1497  0.8523  2.2214
  451SOL    HW2 1353   2.592   1.405   2.845 -0.1688 -2.3992  1.5200
  452SOL     OW 1354   1.650   0.616   1.288 -0.2998  0.4996  0.7929
  452SOL    HW1 1355   1.616   0.654   1.376  0.3410  0.0742  2.3632
  452SOL    HW2 1356   1.592   0.636   1.208  1.8308 -2.5400  1.5102
  453SOL     OW 1357   2.045   1.049   1.323 -0.2122 -0.1210 -0.2118
  453SOL    HW1 1358   2.027   0.989   1.246 -2.0887  1.3705  3.0781
  453SOL    HW2 1359   2.048   1.152   1.297  2.2390  1.2324 -0.9199
  454SOL     OW 1360   2.960   0.868   0.470  0.9601 -0.2167  0.4513
  454SOL    HW1 1361   3.024   0.810   0.524  0.2133  2.0698 -0.8383
  454SOL    HW2 1362   2.869   0.825   0.461 -0.6663 -0.1491 -3.0665
  455SOL     OW 1363   2.601   1.682   1.237  0.6843 -0.0192  0.0366
  455SOL    HW1 1364   2.637   1.670   1.142  0.6570 -0.8938 -0.4294
  455SOL    HW2 1365   2.674   1.663   1.305 -0.4195  0.3409 -2.2731
  456SOL     OW 1366   0.737   0.141   1.219 -0.1727 -0.0739 -0.0401
  456SOL    HW1 1367   0.697   0.198   1.294 -1.3969  1.1617  1.1501
  456SOL    HW2 1368   0.714   0.047   1.234  0.6349  2.0634  1.6744
  457SOL     OW 1369   1.629   3.054   1.077  0.2646  0.4554 -0.2288
  457SOL    HW1 1370   1.528   3.067   1.053  0.8356  1.1358 -0.7709
  457SOL    HW2 1371   1.689   0.013   1.017  1.4170  1.0656  0.2323
  458SOL     OW 1372   2.526   0.444   0.558  0.0316 -0.2324 -0.0706
  458SOL    HW1 1373   2.589   0.369   0.583 -1.0667 -0.3270  1.3613
  458SOL    HW2 1374   2.482   0.478   0.644  1.5543  0.5537  0.9377
  459SOL     OW 1375   1.840   0.592   3.001  0.5241  0.1996 -0.0399
  459SOL    HW1 1376   1.858   0.665   3.066 -0.2674  0.1532 -2.0812
  459SOL    HW2 1377   1.885   0.507   3.036 -0.4808  2.8000  2.1967
  460SOL     OW 1378   3.007   2.367   2.638 -0.3028  0.3066  0.3145
  460SOL    HW1 1379   2.910   2.385   2.657 -0.8339  0.9923 -0.8071
  460SOL    HW2 1380   3.053   2.459   2.632 -3.3928 -1.4857 -0.2125
  461SOL     OW 1381   0.614   1.716   0.162  0.3173  0.2516 -0.6063
  461SOL    HW1 1382   0.573   1.799   0.193 -0.1263 -1.1135 -1.1218
  461SOL    HW2 1383   0.540   1.658   0.113 -1.2282  1.6606  3.4604
  462SOL     OW 1384   2.056   2.348   0.641  0.9137  0.1327 -0.7267
  462SOL    HW1 1385   2.157   2.368   0.647  1.2310 -1.8157 -0.3948
  462SOL    HW2 1386   1.998   2.386   0.717 -0.4488  0.9267  1.6725
  463SOL     OW 1387   0.103   0.661   0.584 -0.2506  0.3719  0.1532
  463SOL    HW1 1388   0.074   0.662   0.682 -1.1717  1.6911  2.8041
  463SOL    HW2 1389   0.147   0.749   0.572 -1.4053 -0.5705  1.3339
  464SOL     OW 1390   0.655   2.406   0.378  0.2344 -0.5959  1.0305
  464SOL    HW1 1391   0.559   2.422   0.411 -1.9654  1.1973 -0.2692
  464SOL    HW2 1392   0.673   2.316   0.337 -0.9104  2.2463  1.6983
  465SOL     OW 1393   2.291   0.763   0.632  0.0938  0.2976 -0.7432
  465SOL    HW1 1394   2.190   0.762   0.635  0.1465 -0.0445  0.3712
  465SOL    HW2 1395   2.317   0.838   0.570  1.0588  0.4634  1.0548
  466SOL     OW 1396   2.205   0.337   0.036 -0.0843  0.1256 -0.3539
  466SOL    HW1 1397   2.246   0.352   0.132 -0.2223 -1.0107  1.4090
  466SOL    HW2 1398   2.208   0.236   0.014 -2.5182  1.2916  2.2058
  467SOL     OW 1399   0.980   0.686   1.906 -0.1103 -0.1065  0.4937
  467SOL    HW1 1400   1.041   0.632   1.843  0.5557  0.9033 -0.3492
  467SOL    HW2 1401   1.022   0.704   1.995  0.1324 -0.7973 -1.6140
  468SOL     OW 1402   3.019   0.588   2.151 -0.1510  0.2178  0.1447
  468SOL    HW1 1403   3.090   0.651   2.187  1.2767  0.1455  0.8478
  468SOL    HW2 1404   2.928   0.623   2.172  2.0691 -1.5451  3.1484
  469SOL     OW 1405   0.651   2.678   2.438  0.2677 -0.7654  0.2400
  469SOL    HW1 1406   0.603   2.599   2.481  2.6621  2.3014 -2.7954
  469SOL    HW2 1407   0.638   2.758   2.500  1.4790 -1.8456 -0.2311
  470SOL     OW 1408   1.742   1.296   2.089 -0.7387  0.5454 -0.2487
  470SOL    HW1 1409   1.641   1.308   2.091 -0.2564  0.6627  1.3969
  470SOL    HW2 1410   1.785   1.353   2.021 -0.5040 -2.3137  1.7972
  471SOL     OW 1411   2.745   1.072   0.142  0.1183  0.0659 -0.2992
  471SOL    HW1 1412   2.743   1.037   0.050  2.0896  1.3882  1.8349
  471SOL    HW2 1413   2.830   1.048   0.190 -1.3747 -0.8983 -2.5518
  472SOL     OW 1414   0.274   2.836   0.498 -0.5751  0.0976 -0.1997
  472SOL    HW1 1415   0.203   2.862   0.562 -0.7077 -0.8291  0.2291
  472SOL    HW2 1416   0.350   2.791   0.550  0.5303 -1.1132 -2.6391
  473SOL     OW 1417   0.886   2.854   2.655  0.4715 -0.3543  0.3620
  473SOL    HW1 1418   0.789   2.892   2.638 -0.9532  0.2376  0.8593
  473SOL    HW2 1419   0.921   2.815   2.564  0.4413 -1.1174 -2.5300
  474SOL     OW 1420   1.642   3.057   2.064 -0.3435 -0.0110 -0.0215
  474SOL    HW1 1421   1.662   2.980   1.997  0.5204 -0.6281 -1.6944
  474SOL    HW2 1422   1.729   0.018   2.072 -1.6247  1.3555 -1.2682
  475SOL     OW 1423   0.915   2.584   0.137 -0.0667  0.4121  0.2787
  475SOL    HW1 1424   1.011   2.617   0.164  2.3707  2.2398  2.2400
  475SOL    HW2 1425   0.845   2.593   0.211  1.3226 -0.9696  0.7464
  476SOL     OW 1426   0.562   0.855   0.971 -0.0764  0.2158  0.2601
  476SOL    HW1 1427   0.490   0.892   0.906 -0.1492  0.2502  0.3863
  476SOL    HW2 1428   0.622   0.785   0.918  2.2198  0.5947  2.0088
  477SOL     OW 1429   1.760   2.057   1.175 -0.2694  0.0488  0.0877
  477SOL    HW1 1430   1.785   2.155   1.154 -0.5560  1.2473  0.1333
  477SOL    HW2 1431   1.823   1.996   1.124  2.2850  1.5139 -1.4260
  478SOL     OW 1432   0.516   1.232   2.147  0.8545  0.2897  0.4652
  478SOL    HW1 1433   0.604   1.271   2.120 -3.2885  0.5453  0.3503
  478SOL    HW2 1434   0.493   1.150   2.089 -1.8020 -0.2825 -1.0899
  479SOL     OW 1435   0.291   0.053   0.645  0.6871  0.0389  0.1301
  479SOL    HW1 1436   0.292   0.099   0.732 -3.1161  2.4232 -1.5154
  479SOL    HW2 1437   0.209   0.082   0.591 -0.6603 -1.3700 -1.1149
  480SOL     OW 1438   2.497   2.568   2.949  0.1627  0.2896 -0.7099
  480SOL    HW1 1439   2.438   2.512   2.885 -0.6004 -2.2796  3.4428
  480SOL    HW2 1440   2.578   2.514   2.975 -0.9396  2.5637 -1.8038
  481SOL     OW 1441   2.568   0.642   1.238 -0.0869 -0.6724  0.5013
  481SOL    HW1 1442   2.473   0.614   1.245  2.4012  1.7413  0.2646
  481SOL    HW2 1443   2.601   0.695   1.315 -0.9674 -1.5445 -0.9605
  482SOL     OW 1444   1.281   2.564   1.743  0.3107  0.0458  0.0363
  482SOL    HW1 1445   1.351   2.541   1.670  1.5270  1.2828 -1.4231
  482SOL    HW2 1446   1.325   2.579   1.837  0.5043  3.0674  0.4937
  483SOL     OW 1447   0.248   1.518   2.911  0.2822  0.6355  0.2804
  483SOL    HW1 1448   0.193   1.530   2.828 -1.7832 -0.6702  0.5140
  483SOL    HW2 1449   0.327   1.451   2.897  1.5839 -1.7170  2.7324
  484SOL     OW 1450   1.350   2.051   2.368 -0.2351  0.1721  0.3797
  484SOL    HW1 1451   1.266   2.001   2.338  0.4747 -1.8512  1.0980
  484SOL    HW2 1452   1.403   2.078   2.287  0.2433 -0.4107  1.3336
  485SOL     OW 1453   0.110   0.193   2.497 -0.1025  0.0019  0.4086
  485SOL    HW1 1454   0.077   0.234   2.412  1.6739 -0.2844 -2.2895
  485SOL    HW2 1455   0.067   0.100   2.515 -0.4035  1.7376 -1.4131
  486SOL     OW 1456   1.516   0.000   0.633 -1.0827  0.2176 -0.1412
  486SOL    HW1 1457   1.496   0.075   0.567 -0.8215 -1.8890  0.6766
  486SOL    HW2 1458   1.613   3.059   0.634 -3.0251 -1.4619  1.6004
  487SOL     OW 1459   1.125   2.655   1.000 -0.2902 -0.4968 -0.1565
  487SOL    HW1 1460   1.126   2.596   0.918  2.6700  1.5160 -1.0409
  487SOL    HW2 1461   1.086   2.747   0.980  1.5709  1.8296 -1.9729
  488SOL     OW 1462   1.751   0.816   0.787 -0.1414  0.0207  0.5312
  488SOL    HW1 1463   1.692   0.842   0.864  1.7510  0.4685 -1.7671
  488SOL    HW2 1464   1.838   0.868   0.790 -0.0375  0.6861 -1.8287
  489SOL     OW 1465   1.166   2.637   1.345 -0.5225  0.2878 -0.0135
  489SOL    HW1 1466   1.264   2.629   1.371  2.9760  2.7599 -0.7214
  489SOL    HW2 1467   1.105   2.677   1.423 -3.6115  1.4673  1.6143
  490SOL     OW 1468   0.904   0.683   0.560  0.2945  0.4705  0.4608
  490SOL    HW1 1469   0.942   0.778   0.562  1.4904 -0.5735 -1.1340
  490SOL    HW2 1470   0.861   0.666   0.468  0.8608 -0.8031  1.3010
  491SOL     OW 1471   1.522   2.894   0.020 -0.0334  0.3365  0.6536
  491SOL    HW1 1472   1.480   2.925   0.106  2.2453  0.7146  0.0378
  491SOL    HW2 1473   1.450   2.902   3.038  2.7681  3.2764  1.6253
  492SOL     OW 1474   1.484   1.333   2.151  0.0752 -0.6196  0.3709
  492SOL    HW1 1475   1.442   1.425   2.168 -0.7354 -1.7622 -0.4521
  492SOL    HW2 1476   1.460   1.269   2.227 -0.8013  1.1504  0.5057
  493SOL     OW 1477   3.014   1.762   0.101  0.1210 -0.0764  0.1701
  493SOL    HW1 1478   2.962   1.805   0.020 -2.2801  2.0142 -1.4973
  493SOL    HW2 1479   3.007   1.662   0.096 -0.1530  1.1725  3.0758
  494SOL     OW 1480   2.202   1.559   0.551 -0.1432 -0.2273  0.3712
  494SOL    HW1 1481   2.135   1.580   0.623  0.9778 -0.7636 -1.9899
  494SOL    HW2 1482   2.162   1.511   0.470  0.0152  0.4923 -2.5248
  495SOL     OW 1483   0.190   0.825   2.683 -0.3922  0.1003  0.5245
  495SOL    HW1 1484   0.143   0.842   2.593 -1.0800  0.2038 -1.7542
  495SOL    HW2 1485   0.253   0.905   2.700  0.8275 -0.7604  0.5784
  496SOL     OW 1486   2.913   0.048   2.224  0.2702  0.2401 -0.1868
  496SOL    HW1 1487   2.999   0.048   2.170  0.1218  0.2579 -1.2292
  496SOL    HW2 1488   2.886   3.050   2.258 -3.0066 -1.7236  1.8544
  497SOL     OW 1489   2.534   0.826   0.753  0.5181  0.7105 -0.3222
  497SOL    HW1 1490   2.457   0.786   0.702 -0.3034  0.8790 -0.0553
  497SOL    HW2 1491   2.572   0.764   0.831  2.7995 -2.9918  3.5368
  498SOL     OW 1492   2.930   2.599   0.031  0.0012 -0.1954  0.0684
  498SOL    HW1 1493   2.919   2.697   3.093  0.3436 -0.7387 -2.1713
  498SOL    HW2 1494   3.018   2.557   0.002  0.8139  1.1431 -0.1342
  499SOL     OW 1495   1.446   2.446   0.722 -0.1943  0.1665 -0.2160
  499SOL    HW1 1496   1.450   2.345   0.722 -0.3758  3.6870  0.1652
  499SOL    HW2 1497   1.467   2.471   0.625 -1.2018 -0.2720 -1.5848
  500SOL     OW 1498   1.073   0.378   2.560 -0.0734  0.6765 -0.0658
  500SOL    HW1 1499   0.977   0.383   2.594 -0.2090 -0.0102  0.2419
  500SOL    HW2 1500   1.118   0.470   2.566  0.8882 -0.7928  1.3932
  501SOL     OW 1501   0.965   0.267   1.360  0.2633  0.1449 -0.2924
  501SOL    HW1 1502   1.036   0.197   1.378 -1.3146  2.6420 -0.6780
  501SOL    HW2 1503   0.879   0.218   1.338 -1.1433  1.1710  0.9118
  502SOL     OW 1504   0.022   0.099   2.033  0.7760  0.8930 -0.0700
  502SOL    HW1 1505   0.106   0.046   2.051 -1.5646 -0.8472  2.5941
  502SOL    HW2 1506   0.020   0.188   2.085 -0.2201 -0.0215  3.0001
  503SOL     OW 1507   1.397   2.357   2.279 -0.4041  0.3543 -0.5727
  503SOL    HW1 1508   1.486   2.408   2.301 -1.3205 -1.7882 -0.6544
  503SOL    HW2 1509   1.418   2.269   2.236 -1.7735  1.4395 -0.3010
  504SOL     OW 1510   2.158   2.848   1.627 -0.4039  0.0295 -0.4059
  504SOL    HW1 1511   2.251   2.865   1.648 -2.6923 -1.0585 -0.6529
  504SOL    HW2 1512   2.094   2.910   1.681  1.8923 -0.1051  1.5298
  505SOL     OW 1513   2.584   1.075   1.678 -0.0165  0.4883 -0.1352
  505SOL    HW1 1514   2.679   1.084   1.649 -0.7735 -0.4345  2.3260
  505SOL    HW2 1515   2.568   0.983   1.724  1.2218  1.8776 -0.1318
  506SOL     OW 1516   0.402   1.524   2.217  0.2511 -0.0710 -0.4847
  506SOL    HW1 1517   0.307   1.529   2.178 -0.4319 -2.5565  0.9480
  506SOL    HW2 1518   0.440   1.425   2.220  3.3277  0.7830  0.8585
  507SOL     OW 1519   3.093   2.928   1.326  0.8936  0.6836  0.6005
  507SOL    HW1 1520   3.036   3.002   1.368  1.5628 -0.3512 -0.8225
  507SOL    HW2 1521   3.073   2.838   1.368 -2.4610 -2.9662  1.1502
  508SOL     OW 1522   1.401   0.492   1.576  0.5435  0.0876 -0.1262
  508SOL    HW1 1523   1.442   0.586   1.562 -1.0529  0.8199 -1.4322
  508SOL    HW2 1524   1.393   0.450   1.483  1.0252  3.5636 -0.0293
  509SOL     OW 1525   1.152   2.322   1.437 -0.9721 -0.2942 -0.1789
  509SOL    HW1 1526   1.147   2.355   1.345  1.4103 -1.6608  2.5283
  509SOL    HW2 1527   1.059   2.335   1.477 -1.4571 -2.8060  0.3862
  510SOL     OW 1528   2.594   1.460   0.083  0.3056 -0.3474 -0.2691
  510SOL    HW1 1529   2.501   1.451   0.124  0.6920  0.4567 -0.5064
  510SOL    HW2 1530   2.657   1.430   0.153 -0.7723 -0.2009  0.5729
  511SOL     OW 1531   0.918   1.538   1.262  0.2239 -0.0760  0.4712
  511SOL    HW1 1532   0.855   1.480   1.202 -0.4837 -1.7230 -2.9113
  511SOL    HW2 1533   0.924   1.634   1.239 -0.6925 -0.5652  2.9523
  512SOL     OW 1534   2.785   2.356   0.250  0.0067  0.3715 -0.3174
  512SOL    HW1 1535   2.855   2.295   0.204  0.7488  1.6164 -0.2133
  512SOL    HW2 1536   2.701   2.304   0.271  1.3527 -1.0501 -3.3673
  513SOL     OW 1537   0.555   1.646   2.710  0.0294 -0.3544  0.3557
  513SOL    HW1 1538   0.513   1.715   2.647  0.3863  0.5916 -1.0168
  513SOL    HW2 1539   0.541   1.672   2.809 -1.4567 -0.0049 -0.6150
  514SOL     OW 1540   3.069   2.321   2.907 -0.4070 -0.2094 -0.2455
  514SOL    HW1 1541   0.007   2.402   2.960 -1.1372 -2.1755  1.6650
  514SOL    HW2 1542   3.042   2.344   2.810  0.6755  1.2428  0.1067
  515SOL     OW 1543   1.305   0.968   2.227 -0.5350 -0.1958  0.1546
  515SOL    HW1 1544   1.263   1.013   2.152 -1.2490 -0.4491  0.7395
  515SOL    HW2 1545   1.376   1.027   2.264  3.2994 -1.1461  1.2030
  516SOL     OW 1546   1.939   2.196   0.444  0.4043  0.2603 -0.3225
  516SOL    HW1 1547   2.012   2.145   0.397 -0.0963  1.6972  2.6752
  516SOL    HW2 1548   1.982   2.261   0.508 -1.1369 -2.4515  0.4085
  517SOL     OW 1549   1.281   1.611   0.630 -0.1369  0.0742 -0.2469
  517SOL    HW1 1550   1.344   1.549   0.673 -0.7034  1.1194 -0.9980
  517SOL    HW2 1551   1.239   1.558   0.556 -0.4924  0.3386  3.4855
  518SOL     OW 1552   2.085   2.337   2.237 -0.0608  0.1621 -0.0220
  518SOL    HW1 1553   2.062   2.332   2.334  1.5403 -0.9900 -4.6453
  518SOL    HW2 1554   1.998   2.338   2.184  3.0861 -1.0614 -0.3688
  519SOL     OW 1555   1.601   2.268   0.974 -0.1747  0.1998  0.0272
  519SOL    HW1 1556   1.703   2.270   0.967 -0.2297  0.5178  0.2610
  519SOL    HW2 1557   1.556   2.266   0.880 -0.6450  1.4854 -0.2247
  520SOL     OW 1558   2.688   2.323   2.561 -0.1929 -0.4201 -0.6373
  520SOL    HW1 1559   2.714   2.271   2.472  2.2204 -1.8168 -3.1523
  520SOL    HW2 1560   2.593   2.363   2.553 -0.0466  1.2889 -0.6626
  521SOL     OW 1561   0.048   1.351   2.247 -0.6178  0.1632  0.5397
  521SOL    HW1 1562   3.069   1.419   2.261 -0.0988 -0.9277  0.8255
  521SOL    HW2 1563   0.018   1.260   2.209  2.5872 -2.0545  2.2344
  522SOL     OW 1564   0.666   0.496   2.093  0.5742 -0.1657  0.2156
  522SOL    HW1 1565   0.675   0.589   2.054 -1.6802 -2.7419  0.8665
  522SOL    HW2 1566   0.726   0.483   2.174 -0.5588 -3.2960 -2.3959
  523SOL     OW 1567   0.615   2.015   0.871 -0.1083  0.0487 -0.0620
  523SOL    HW1 1568   0.701   2.022   0.929 -1.9067  0.6123 -0.0694
  523SOL    HW2 1569   0.521   2.022   0.915 -1.8210  0.6337 -1.0977
  524SOL     OW 1570   1.644   2.812   0.438 -0.0903  0.0372  0.3279
  524SOL    HW1 1571   1.696   2.848   0.359 -4.0588  0.9817  1.9953
  524SOL    HW2 1572   1.675   2.862   0.524  1.4688  0.9953 -0.9766
  525SOL     OW 1573   2.427   0.614   1.634 -0.0275  0.6163  0.0549
  525SOL    HW1 1574   2.340   0.642   1.585  2.4924  1.4116 -5.3531
  525SOL    HW2 1575   2.480   0.551   1.574  0.0645  0.9143 -0.0741
  526SOL     OW 1576   0.905   2.424   0.563 -0.3337  0.1787  0.1299
  526SOL    HW1 1577   0.928   2.520   0.545 -0.1307 -2.0669  4.1140
  526SOL    HW2 1578   0.829   2.384   0.508  0.9671  1.4098  1.1361
  527SOL     OW 1579   2.582   2.418   0.510 -0.1143  0.1314  0.4175
  527SOL    HW1 1580   2.515   2.454   0.437 -0.9169 -0.7747 -0.6170
  527SOL    HW2 1581   2.644   2.352   0.467  0.2278 -2.3739 -2.0257
  528SOL     OW 1582   2.385   0.504   2.998  0.3078  0.2276  0.1618
  528SOL    HW1 1583   2.417   0.592   3.032 -0.5776 -2.6951  1.6029
  528SOL    HW2 1584   2.340   0.447   3.068  1.2571  1.5773 -0.9781
  529SOL     OW 1585   1.533   1.703   2.433 -0.4864 -0.0598  0.3847
  529SOL    HW1 1586   1.600   1.644   2.479 -0.4765  2.3918  1.7011
  529SOL    HW2 1587   1.583   1.752   2.355 -0.0900  1.0135 -0.8524
  530SOL     OW 1588   2.346   0.661   0.217  0.3186 -0.5791 -0.2659
  530SOL    HW1 1589   2.244   0.670   0.239 -0.0449  2.0947  2.1881
  530SOL    HW2 1590   2.378   0.573   0.255 -0.2702 -0.3474 -0.9082
  531SOL     OW 1591   1.626   0.908   2.902 -0.0844 -0.4543  0.2568
  531SOL    HW1 1592   1.695   0.854   2.849 -3.7052 -1.4198 -0.7890
  531SOL    HW2 1593   1.575   0.967   2.836 -2.1524  0.6327  0.3855
  532SOL     OW 1594   1.576   0.654   0.445 -0.2908  0.3625 -0.0301
  532SOL    HW1 1595   1.628   0.614   0.526  1.0175  1.9753  0.6842
  532SOL    HW2 1596   1.650   0.670   0.373 -1.3710 -0.5162  0.8609
  533SOL     OW 1597   0.758   0.775   2.086 -0.6210  0.1080 -0.3842
  533SOL    HW1 1598   0.663   0.804   2.108 -1.6792  1.4293  0.1591
  533SOL    HW2 1599   0.764   0.781   1.984 -0.1645 -0.9063  2.3742
  534SOL     OW 1600   1.520   0.278   2.534  0.2395 -0.8090 -0.2401
  534SOL    HW1 1601   1.447   0.254   2.469  2.2108  2.3142  2.4354
  534SOL    HW2 1602   1.490   0.296   2.630 -2.7924 -2.9945 -2.3642
  535SOL     OW 1603   0.316   0.120   0.315 -0.0360 -0.5326  0.1468
  535SOL    HW1 1604   0.254   0.141   0.390 -0.5833 -3.9506 -0.4986
  535SOL    HW2 1605   0.278   0.057   0.241 -1.0189 -0.2647 -1.9762
  536SOL     OW 1606   0.670   0.256   0.735  0.3770  0.0284 -0.6549
  536SOL    HW1 1607   0.681   0.290   0.642  3.8828 -2.6326 -0.1337
  536SOL    HW2 1608   0.725   0.312   0.793  0.2205 -1.2702 -0.3843
  537SOL     OW 1609   1.521   0.895   0.616 -0.4587  0.2608  0.4229
  537SOL    HW1 1610   1.605   0.877   0.672 -1.6151  1.6334  2.0066
  537SOL    HW2 1611   1.522   0.862   0.520  2.6731  1.5438 -3.5798
  538SOL     OW 1612   2.974   2.202   0.052  0.4726  0.4012 -0.2478
  538SOL    HW1 1613   3.035   2.230   3.068 -0.1843  0.1400 -1.1090
  538SOL    HW2 1614   2.877   2.198   0.016 -1.4710  1.1420  0.2540
  539SOL     OW 1615   1.983   1.697   0.052  0.0634 -0.4033  0.4064
  539SOL    HW1 1616   1.978   1.781   0.111  0.2778 -2.3707  1.0118
  539SOL    HW2 1617   1.962   1.612   0.106 -2.6626 -2.1454  1.7251
  540SOL     OW 1618   0.291   2.624   1.142  0.1284  0.1117 -0.7076
  540SOL    HW1 1619   0.294   2.536   1.191 -0.0349 -0.2620  1.6938
  540SOL    HW2 1620   0.358   2.633   1.062  0.6409  0.7602  0.3367
  541SOL     OW 1621   1.916   2.949   2.248  0.0569 -0.5596  0.2820
  541SOL    HW1 1622   1.940   3.029   2.194  1.3939 -1.4695  0.8416
  541SOL    HW2 1623   1.999   2.881   2.235  3.1867 -1.3492 -1.4079
  542SOL     OW 1624   0.250   0.605   2.821 -0.2543  0.4088 -0.1784
  542SOL    HW1 1625   0.156   0.584   2.856  1.9142 -0.1839 -1.1076
  542SOL    HW2 1626   0.252   0.698   2.792  1.3981 -3.5030  1.0155
  543SOL     OW 1627   0.008   1.301   1.282 -0.1532 -0.4950  0.3666
  543SOL    HW1 1628   3.013   1.254   1.277  3.4501 -0.1787 -1.0052
  543SOL    HW2 1629   0.073   1.270   1.213  1.5335  1.9667  1.9580
  544SOL     OW 1630   2.536   0.245   1.029 -0.5278  0.6147 -0.1581
  544SOL    HW1 1631   2.602   0.292   1.090  1.2694 -3.0868 -1.5282
  544SOL    HW2 1632   2.535   0.295   0.942 -0.1908 -1.3108 -0.7263
  545SOL     OW 1633   1.513   2.311   0.460 -0.7790  0.0127 -0.0323
  545SOL    HW1 1634   1.440   2.358   0.408 -0.4013 -0.8936 -0.7388
  545SOL    HW2 1635   1.494   2.213   0.454 -0.9638  0.5100  0.2697
  546SOL     OW 1636   2.096   2.733   1.870  0.3335 -0.1373  0.1862
  546SOL    HW1 1637   2.180   2.732   1.929  2.5948 -0.1897  1.2802
  546SOL    HW2 1638   2.125   2.760   1.775  2.2101  0.3521  0.1188
  547SOL     OW 1639   0.233   3.003   2.097  0.3373 -0.3732  0.7215
  547SOL    HW1 1640   0.328   3.038   2.115 -0.5064  0.8955 -0.6890
  547SOL    HW2 1641   0.229   2.944   2.012 -2.6273 -1.8585  1.0750
  548SOL     OW 1642   1.840   1.261   3.065  0.3092  0.1634 -0.1771
  548SOL    HW1 1643   1.751   1.216   3.078  2.8520 -1.9912  1.3647
  548SOL    HW2 1644   1.901   1.207   3.007  0.0546  0.3667  3.7141
  549SOL     OW 1645   3.023   1.082   0.611  0.0540  0.0384  0.3448
  549SOL    HW1 1646   2.980   1.005   0.563 -0.1985  3.7540  0.0483
  549SOL    HW2 1647   3.022   1.168   0.559 -0.0527 -1.4941  1.0208
  550SOL     OW 1648   1.939   1.975   0.646  0.0815  0.2804  0.1148
  550SOL    HW1 1649   1.944   2.040   0.568  1.6825  1.6772 -0.4389
  550SOL    HW2 1650   1.871   1.999   0.716  0.9671 -2.5084 -0.2958
  551SOL     OW 1651   1.280   0.590   0.787  0.3398  0.3455 -0.5151
  551SOL    HW1 1652   1.371   0.544   0.790  1.0304  0.8031 -2.9200
  551SOL    HW2 1653   1.205   0.526   0.755  0.7774 -1.0933 -0.4441
  552SOL     OW 1654   2.896   2.864   2.268 -0.1924 -0.0404  0.4820
  552SOL    HW1 1655   2.985   2.871   2.312 -0.9852 -1.8259  1.5362
  552SOL    HW2 1656   2.894   2.794   2.191 -3.2489 -1.6841 -2.5402
  553SOL     OW 1657   0.005   3.040   2.559 -0.2140 -0.0119 -0.2547
  553SOL    HW1 1658   3.003   3.025   2.592 -0.9872 -0.3001  0.2065
  553SOL    HW2 1659   0.022   2.995   2.474  0.7743  0.9001  1.4106
  554SOL     OW 1660   0.770   2.879   1.274  0.9692  0.1183  0.0005
  554SOL    HW1 1661   0.722   2.794   1.309 -0.9546  0.4621 -3.3286
  554SOL    HW2 1662   0.806   2.928   1.355  1.7952 -1.1456  0.4375
  555SOL     OW 1663   2.460   2.407   1.980 -0.6867 -0.3224 -0.7414
  555SOL    HW1 1664   2.475   2.463   1.896  2.2266 -0.5648 -0.1683
  555SOL    HW2 1665   2.540   2.403   2.043 -1.0468 -1.2226  1.6871
  556SOL     OW 1666   1.134   0.238   2.788  0.1491  0.7297  0.1320
  556SOL    HW1 1667   1.110   0.285   2.705  1.0149  1.0786  4.2659
  556SOL    HW2 1668   1.209   0.178   2.763 -1.6198 -0.8183 -0.0031
  557SOL     OW 1669   0.426   1.716   2.429 -0.3281 -0.0665 -0.0605
  557SOL    HW1 1670   0.336   1.747   2.467 -0.1034 -1.3067 -2.0204
  557SOL    HW2 1671   0.413   1.654   2.352 -0.9896  1.4005 -1.4033
  558SOL     OW 1672   2.254   0.801   2.456 -0.1721  0.8639 -0.1539
  558SOL    HW1 1673   2.282   0.898   2.470  0.6775 -0.2976 -0.0223
  558SOL    HW2 1674   2.250   0.776   2.356 -0.7541 -2.1117 -0.1194
  559SOL     OW 1675   2.548   1.914   2.101 -0.5802 -0.6264 -0.6894
  559SOL    HW1 1676   2.484   1.955   2.034  0.2648  2.5757  0.3353
  559SOL    HW2 1677   2.523   1.947   2.192  0.0319 -1.4786 -0.2374
  560SOL     OW 1678   2.748   0.756   2.180  0.1924 -0.3146  0.3065
  560SOL    HW1 1679   2.677   0.746   2.250  0.3012  1.0422  1.4405
  560SOL    HW2 1680   2.724   0.831   2.112  2.5896  0.8933  0.6483
  561SOL     OW 1681   0.553   0.333   3.043  0.1182  0.3617 -0.6578
  561SOL    HW1 1682   0.462   0.291   3.044  2.4318 -0.8625  0.5457
  561SOL    HW2 1683   0.558   0.413   2.984  2.1723 -0.4306 -2.0798
  562SOL     OW 1684   1.025   1.112   1.488 -0.5162 -0.2563 -0.1049
  562SOL    HW1 1685   1.123   1.137   1.504  1.3759  1.5186 -1.0139
  562SOL    HW2 1686   0.978   1.080   1.574  1.1732 -2.4877 -1.1516
  563SOL     OW 1687   1.735   0.069   2.779 -0.4035  0.1096  0.0362
  563SOL    HW1 1688   1.655   0.060   2.722  0.1827  0.7826 -1.4020
  563SOL    HW2 1689   1.721   0.033   2.869  2.3761  2.4908  1.0357
  564SOL     OW 1690   3.040   2.161   1.066 -0.2428  0.1827  0.1712
  564SOL    HW1 1691   0.045   2.156   1.045  0.8064 -2.6129  1.4955
  564SOL    HW2 1692   3.027   2.120   1.160 -0.4615  0.3898 -0.3063
  565SOL     OW 1693   0.579   2.317   2.060  0.0525 -0.9245 -0.4192
  565SOL    HW1 1694   0.659   2.355   2.012  2.6013  1.7338 -1.7972
  565SOL    HW2 1695   0.608   2.232   2.099  0.6971  1.0807 -0.4669
  566SOL     OW 1696   1.191   2.584   2.042  0.4014  0.2733  0.1406
  566SOL    HW1 1697   1.183   2.547   2.134  1.4915  1.1075 -1.7787
  566SOL    HW2 1698   1.285   2.594   2.013 -3.0070  2.1723 -2.0626
  567SOL     OW 1699   1.885   2.281   1.015  0.0383  0.2672 -0.1800
  567SOL    HW1 1700   1.910   2.337   1.094  0.8904  0.1280 -0.3606
  567SOL    HW2 1701   1.901   2.347   0.938  0.7229  1.0451 -2.3497
  568SOL     OW 1702   2.021   0.763   0.627  0.0317  0.0173 -0.1450
  568SOL    HW1 1703   2.003   0.826   0.704  0.7796 -1.3131  0.9525
  568SOL    HW2 1704   1.993   0.661   0.638 -0.9948 -0.2662 -2.8500
  569SOL     OW 1705   2.821   1.780   2.545 -0.0892  0.1510  0.3429
  569SOL    HW1 1706   2.876   1.834   2.607  0.5664  3.8515  0.3653
  569SOL    HW2 1707   2.830   1.683   2.571 -0.1113  1.1874  1.4587
  570SOL     OW 1708   2.921   3.075   0.993  0.0306 -0.4289 -0.6262
  570SOL    HW1 1709   3.003   0.008   1.046  1.7342 -1.9471  0.2813
  570SOL    HW2 1710   2.837   3.085   1.051  0.1567  0.4929  2.1076
  571SOL     OW 1711   3.039   0.389   1.541 -0.1818  0.1793 -0.1272
  571SOL    HW1 1712   0.031   0.432   1.577  4.9102  4.1618  0.4423
  571SOL    HW2 1713   3.036   0.302   1.588  0.1181  3.6367  0.2463
  572SOL     OW 1714   2.708   2.459   0.753  0.4924  0.4249 -0.0254
  572SOL    HW1 1715   2.666   2.438   0.657 -0.6312 -0.1637 -3.5128
  572SOL    HW2 1716   2.791   2.406   0.781 -2.0865 -0.1231 -1.7269
  573SOL     OW 1717   0.870   0.525   2.970 -0.2876 -0.1341 -0.1659
  573SOL    HW1 1718   0.864   0.470   3.054  1.0700  0.9503  1.3039
  573SOL    HW2 1719   0.841   0.623   2.989 -2.7341  2.2000  1.4078
  574SOL     OW 1720   2.944   2.864   0.005 -0.5085  0.1835  0.5380
  574SOL    HW1 1721   2.848   2.859   0.042 -2.3041 -1.6692  2.0522
  574SOL    HW2 1722   2.995   2.942   0.044 -0.5011 -0.2302 -2.7368
  575SOL     OW 1723   1.398   2.261   1.399 -0.2371  0.3341 -0.3687
  575SOL    HW1 1724   1.294   2.273   1.415 -4.1746 -0.4053  0.6864
  575SOL    HW2 1725   1.422   2.328   1.328 -0.8102  0.7917  0.8069
  576SOL     OW 1726   0.751   2.621   1.047  0.4161  0.3004  0.3458
  576SOL    HW1 1727   0.777   2.557   0.972 -1.8363  1.0431 -1.5138
  576SOL    HW2 1728   0.801   2.595   1.131  1.6306  1.1491 -0.9262
  577SOL     OW 1729   2.341   1.725   1.314  0.2150  0.0570  0.2728
  577SOL    HW1 1730   2.428   1.695   1.281 -2.3906  0.6473  2.9956
  577SOL    HW2 1731   2.336   1.727   1.415  0.8344  1.4645  0.3681
  578SOL     OW 1732   1.452   0.291   0.205 -0.5936 -0.2783 -0.4314
  578SOL    HW1 1733   1.413   0.387   0.212 -2.1860 -0.0210  0.1044
  578SOL    HW2 1734   1.390   0.231   0.151 -2.1223 -1.9402  1.6970
  579SOL     OW 1735   2.436   1.102   2.899  0.1324 -0.1105  0.1024
  579SOL    HW1 1736   2.517   1.069   2.951  0.5358 -0.5876  0.6610
  579SOL    HW2 1737   2.393   1.027   2.844  0.0772 -0.7853  0.6215
  580SOL     OW 1738   1.877   0.507   2.050  0.4719 -0.1408 -0.2761
  580SOL    HW1 1739   1.785   0.525   2.093  0.2742 -0.2953  1.0694
  580SOL    HW2 1740   1.957   0.504   2.110  1.5166 -0.6474 -0.0504
  581SOL     OW 1741   0.751   1.335   1.125  0.1228  0.1036 -0.3650
  581SOL    HW1 1742   0.680   1.393   1.078  0.8472  2.1293  0.4553
  581SOL    HW2 1743   0.827   1.305   1.065 -0.2142 -0.7992  0.9470
  582SOL     OW 1744   2.655   0.096   2.019 -0.0635  0.2645  0.0820
  582SOL    HW1 1745   2.634   0.054   2.111  0.3946  0.3374 -0.7422
  582SOL    HW2 1746   2.569   0.140   1.986  3.0738 -2.3775  1.9263
  583SOL     OW 1747   3.066   0.436   1.929 -0.3090  0.2022 -0.0257
  583SOL    HW1 1748   3.044   0.488   2.014  1.0687  1.9753 -0.9746
  583SOL    HW2 1749   2.981   0.417   1.879  1.3600  1.1674 -1.6102
  584SOL     OW 1750   1.283   1.802   2.812 -0.0289 -0.3304 -0.5807
  584SOL    HW1 1751   1.222   1.881   2.834  0.0263  0.7190  1.0303
  584SOL    HW2 1752   1.332   1.826   2.727 -0.7288 -0.8389 -0.7375
  585SOL     OW 1753   0.257   3.038   0.103 -0.4247 -0.3478 -0.3172
  585SOL    HW1 1754   0.280   2.943   0.129  0.1385 -0.9952 -4.5120
  585SOL    HW2 1755   0.317   3.078   0.031 -0.6408 -1.4305  1.5329
  586SOL     OW 1756   1.936   1.726   2.495  0.8569 -0.1045  0.5168
  586SOL    HW1 1757   2.035   1.701   2.506 -0.8288  1.2115  3.3722
  586SOL    HW2 1758   1.891   1.651   2.447  2.0376  0.5137 -1.2081
  587SOL     OW 1759   2.393   2.530   0.286  0.1138  0.5457 -0.2234
  587SOL    HW1 1760   2.372   2.599   0.215  0.3493 -0.3185  0.8484
  587SOL    HW2 1761   2.323   2.459   0.288  2.1112  0.0019 -2.8226
  588SOL     OW 1762   2.315   0.128   1.107  0.1719 -0.2414  0.1520
  588SOL    HW1 1763   2.392   0.175   1.067 -0.8684  1.7960  1.5490
  588SOL    HW2 1764   2.267   0.062   1.049 -0.1801  0.2367  1.5891
  589SOL     OW 1765   0.667   0.695   0.747 -0.2031 -0.2017  0.5313
  589SOL    HW1 1766   0.751   0.654   0.708 -0.0449 -1.6943  0.7812
  589SOL    HW2 1767   0.601   0.727   0.679  0.1033 -0.6668  1.4189
  590SOL     OW 1768   2.143   2.022   0.322 -0.2226  0.3375  0.2206
  590SOL    HW1 1769   2.168   1.930   0.359  2.5142  1.4871 -0.7870
  590SOL    HW2 1770   2.223   2.058   0.270  3.2565 -2.8615 -3.5774
  591SOL     OW 1771   0.437   2.318   1.025 -0.1866  0.0962  0.2170
  591SOL    HW1 1772   0.531   2.308   0.992 -1.0137  0.6746  2.4789
  591SOL    HW2 1773   0.387   2.374   0.957  1.5513 -1.4107 -0.7784
  592SOL     OW 1774   0.998   0.661   1.438  0.0984 -0.0332 -0.3214
  592SOL    HW1 1775   1.056   0.580   1.446  1.1055 -0.2400 -2.2014
  592SOL    HW2 1776   0.908   0.636   1.411  5.4207  2.5175  1.5550
  593SOL     OW 1777   1.065   1.304   1.278  0.3410  0.1575  0.2097
  593SOL    HW1 1778   1.013   1.243   1.340 -1.1546  0.1319 -0.6663
  593SOL    HW2 1779   1.019   1.392   1.290 -0.8960 -0.2343  0.8309
  594SOL     OW 1780   0.843   2.226   0.188 -0.0437 -0.0615  0.2436
  594SOL    HW1 1781   0.916   2.265   0.126  0.2519  2.0551  1.2992
  594SOL    HW2 1782   0.882   2.170   0.261  1.1183  1.3111 -1.4390
  595SOL     OW 1783   1.766   0.372   1.348  0.5936  0.8703  0.1635
  595SOL    HW1 1784   1.710   0.455   1.335  0.7889 -2.1772 -0.5693
  595SOL    HW2 1785   1.860   0.399   1.359 -4.1306 -1.8735  2.3792
  596SOL     OW 1786   2.858   1.170   1.279  0.3778 -0.2809 -0.0816
  596SOL    HW1 1787   2.824   1.080   1.251  1.6220  0.3597  0.5697
  596SOL    HW2 1788   2.777   1.229   1.303 -1.0637  1.1361 -0.3918
  597SOL     OW 1789   0.194   2.712   2.488 -0.0218  0.1205 -0.1794
  597SOL    HW1 1790   0.168   2.634   2.547  2.9240  0.5807  1.0045
  597SOL    HW2 1791   0.264   2.684   2.422 -0.2694  0.5828 -3.0785
  598SOL     OW 1792   2.843   2.411   1.850 -0.0714 -0.3166  0.2272
  598SOL    HW1 1793   2.935   2.452   1.835  1.7009 -1.7169 -0.2733
  598SOL    HW2 1794   2.786   2.428   1.769 -1.4085  2.8648 -2.4596
  599SOL     OW 1795   1.058   2.915   2.861  0.1558  0.1714  0.0843
  599SOL    HW1 1796   1.066   3.017   2.879 -0.1612  0.0010  2.8765
  599SOL    HW2 1797   0.999   2.902   2.778  1.8092  2.4372 -1.7824
  600SOL     OW 1798   0.193   2.123   2.903 -0.4489 -0.0996 -0.1318
  600SOL    HW1 1799   0.134   2.206   2.899  0.3370 -1.1289  2.5465
  600SOL    HW2 1800   0.142   2.048   2.945  2.1266  0.1767 -1.7548
  601SOL     OW 1801   0.651   0.749   1.403  0.3515 -0.0115 -0.0935
  601SOL    HW1 1802   0.708   0.669   1.376 -0.2489 -0.7152 -0.1950
  601SOL    HW2 1803   0.669   0.831   1.344  1.1582 -1.1346 -0.6741
  602SOL     OW 1804   0.752   2.868   0.942  0.3090  0.8002 -0.0609
  602SOL    HW1 1805   0.752   2.772   0.974  1.9561  0.8257  0.6539
  602SOL    HW2 1806   0.727   2.930   1.020  1.4847  1.0019 -0.4622
  603SOL     OW 1807   0.461   0.507   2.447 -0.0034  0.2624 -0.2491
  603SOL    HW1 1808   0.561   0.519   2.469 -0.0906  0.3660 -1.5419
  603SOL    HW2 1809   0.436   0.411   2.472 -0.4834  2.5879  0.1197
  604SOL     OW 1810   0.374   2.832   1.558  0.0647 -0.2679  0.0764
  604SOL    HW1 1811   0.314   2.907   1.595  0.0181 -1.8236  0.1644
  604SOL    HW2 1812   0.359   2.819   1.458  0.8369 -0.2656  1.6923
  605SOL     OW 1813   1.623   0.743   2.122 -0.3220  0.3752 -0.2787
  605SOL    HW1 1814   1.592   0.729   2.027 -1.2235  1.4061 -0.8650
  605SOL    HW2 1815   1.692   0.821   2.127 -1.3806  0.5783  0.8146
  606SOL     OW 1816   2.572   2.811   2.878  0.2468 -0.4585 -0.2039
  606SOL    HW1 1817   2.538   2.719   2.909 -1.3604 -0.1518 -1.8247
  606SOL    HW2 1818   2.614   2.804   2.783 -0.0894 -2.3590 -2.4689
  607SOL     OW 1819   0.786   0.532   1.322  0.1788 -0.5138  0.1546
  607SOL    HW1 1820   0.730   0.468   1.381 -1.0503  0.7431  2.5271
  607SOL    HW2 1821   0.796   0.502   1.225  1.1918 -0.3364  0.8089
  608SOL     OW 1822   0.180   1.824   2.518 -0.1116  0.0375 -0.1174
  608SOL    HW1 1823   0.151   1.904   2.458  0.2619  1.6725  0.8828
  608SOL    HW2 1824   0.240   1.855   2.593 -1.3131  2.4085 -0.0658
  609SOL     OW 1825   1.511   1.384   0.474 -0.1784  0.2333  0.6082
  609SOL    HW1 1826   1.512   1.289   0.428  2.6343 -0.8101  0.0948
  609SOL    HW2 1827   1.423   1.432   0.459  2.7381  1.0584  1.4317
  610SOL     OW 1828   0.411   0.640   1.235 -1.0684 -0.1973  0.2533
  610SOL    HW1 1829   0.487   0.672   1.176 -0.0139  1.1808 -0.4421
  610SOL    HW2 1830   0.358   0.719   1.273 -1.5159  4.1160 -0.5006
  611SOL     OW 1831   1.406   1.030   0.838  0.9005 -0.1792  0.6310
  611SOL    HW1 1832   1.469   1.040   0.911 -2.2863  0.1334 -0.4508
  611SOL    HW2 1833   1.442   0.974   0.759 -1.1265  2.3780 -3.3334
  612SOL     OW 1834   1.975   1.173   0.483 -0.3299 -1.0419  0.0741
  612SOL    HW1 1835   1.884   1.152   0.446  1.9583  2.5320  0.7623
  612SOL    HW2 1836   2.023   1.242   0.424  1.3436  2.6171 -0.6431
  613SOL     OW 1837   2.110   0.744   0.358  0.0111 -0.0504  0.3867
  613SOL    HW1 1838   2.118   0.844   0.364 -0.5004 -2.7686  1.1439
  613SOL    HW2 1839   2.082   0.713   0.452  0.9410  0.6329  0.2482
  614SOL     OW 1840   2.731   0.085   2.461 -0.0948 -0.6887  0.1860
  614SOL    HW1 1841   2.753   0.057   2.364  0.3677 -0.1876 -0.0523
  614SOL    HW2 1842   2.632   0.090   2.477 -0.4699 -1.1448 -1.7925
  615SOL     OW 1843   0.637   1.900   0.608  0.0233 -0.0807 -0.1991
  615SOL    HW1 1844   0.691   1.816   0.586 -0.1428 -1.3484 -0.3382
  615SOL    HW2 1845   0.650   1.942   0.703 -1.3194 -1.4087 -0.3571
  616SOL     OW 1846   1.483   1.044   2.718  0.0282  0.0858  0.4332
  616SOL    HW1 1847   1.487   1.140   2.691  1.6367  0.7151 -0.4847
  616SOL    HW2 1848   1.385   1.010   2.737 -0.7759  0.0716  0.8034
  617SOL     OW 1849   1.457   0.496   3.032 -0.0084  0.3060  0.3975
  617SOL    HW1 1850   1.358   0.476   3.028  3.2415 -1.1173 -2.4554
  617SOL    HW2 1851   1.514   0.456   2.962 -0.9214 -1.8126 -0.1304
  618SOL     OW 1852   1.755   2.420   2.523  0.0342 -0.8004 -0.0042
  618SOL    HW1 1853   1.682   2.439   2.455  2.1130 -2.0675 -0.5396
  618SOL    HW2 1854   1.779   2.498   2.579  0.8314  0.4048 -0.5184
  619SOL     OW 1855   2.359   1.727   0.816  0.6964 -0.6182  0.0825
  619SOL    HW1 1856   2.428   1.715   0.741 -0.6028  1.6533 -0.8467
  619SOL    HW2 1857   2.336   1.637   0.856  1.4497  1.5602  2.9823
  620SOL     OW 1858   2.111   2.693   2.402  0.6114  0.0968  0.6634
  620SOL    HW1 1859   2.075   2.695   2.304 -0.3198 -1.2203 -1.7667
  620SOL    HW2 1860   2.037   2.734   2.460  0.1812  0.3709  2.3385
  621SOL     OW 1861   0.155   1.459   0.676 -0.0955  0.3420 -0.0552
  621SOL    HW1 1862   0.179   1.466   0.580  1.1933 -2.0165  0.3565
  621SOL    HW2 1863   0.217   1.510   0.737  1.5390 -0.7441  1.7819
  622SOL     OW 1864   1.273   1.363   2.581 -0.3619 -0.4608  0.4550
  622SOL    HW1 1865   1.249   1.422   2.504  0.0290 -1.5872  0.3424
  622SOL    HW2 1866   1.207   1.383   2.656  2.3508 -1.1856  2.0144
  623SOL     OW 1867   2.875   2.504   2.273 -0.3180 -0.4418  0.0168
  623SOL    HW1 1868   2.927   2.417   2.301  0.8122 -0.4512  1.9409
  623SOL    HW2 1869   2.933   2.577   2.230  1.0521  1.7374 -3.4964
  624SOL     OW 1870   0.647   2.711   0.057 -0.2975 -0.6958  0.0615
  624SOL    HW1 1871   0.727   2.662   0.091 -1.4611  0.9640 -2.7315
  624SOL    HW2 1872   0.630   2.791   0.118  2.5822 -0.6016 -0.5668
  625SOL     OW 1873   0.527   1.931   2.073  0.8435  0.3099  0.3368
  625SOL    HW1 1874   0.431   1.966   2.083 -2.0237 -0.8961  3.0244
  625SOL    HW2 1875   0.525   1.830   2.052 -1.3125 -0.9385 -4.0527
  626SOL     OW 1876   0.443   0.001   3.011  0.7666  0.1111  0.1656
  626SOL    HW1 1877   0.369   0.041   2.956  0.9338  0.3876  0.8872
  626SOL    HW2 1878   0.469   3.002   2.972  0.3931 -2.3272  0.9827
  627SOL     OW 1879   1.931   1.436   0.141 -0.2258  0.5299  0.3292
  627SOL    HW1 1880   1.919   1.353   0.084  0.9941 -1.0259 -0.4448
  627SOL    HW2 1881   1.845   1.445   0.193  2.1323 -0.7760 -2.6378
  628SOL     OW 1882   1.156   2.089   0.519 -0.3965 -0.3296 -0.1797
  628SOL    HW1 1883   1.166   2.042   0.610  1.1833  1.0755 -0.4382
  628SOL    HW2 1884   1.168   2.195   0.521 -0.3254 -0.4587 -1.3369
  629SOL     OW 1885   3.025   0.133   1.671  0.2900  0.1684 -0.4872
  629SOL    HW1 1886   0.020   0.148   1.722  1.5083  2.8148 -0.8640
  629SOL    HW2 1887   2.949   0.118   1.740  0.5643  1.3157 -0.3454
  630SOL     OW 1888   2.089   0.435   1.805  0.3082 -0.3728  0.1917
  630SOL    HW1 1889   2.132   0.417   1.716  0.3010  0.7196  0.0824
  630SOL    HW2 1890   1.994   0.394   1.801  1.9861  1.6604  0.8153
  631SOL     OW 1891   1.393   0.250   1.067 -0.1391 -0.0997  0.9817
  631SOL    HW1 1892   1.461   0.274   0.994  2.2622 -0.0223  3.4065
  631SOL    HW2 1893   1.369   0.151   1.070 -0.5953 -1.1412 -0.3883
  632SOL     OW 1894   2.939   0.925   1.871 -0.5550  0.2401  0.1511
  632SOL    HW1 1895   2.913   0.834   1.830 -1.0269  0.4092  0.4097
  632SOL    HW2 1896   2.973   0.984   1.800  0.8299 -0.8372  0.7040
  633SOL     OW 1897   1.235   0.940   2.737 -0.3360 -0.0476  0.2064
  633SOL    HW1 1898   1.185   0.912   2.655 -1.7112 -0.1103  0.2628
  633SOL    HW2 1899   1.248   0.862   2.803 -0.1675 -0.2505  2.7948
  634SOL     OW 1900   0.530   2.838   2.934 -0.6216  0.4003 -0.3627
  634SOL    HW1 1901   0.513   2.774   2.858 -0.4452 -1.1562 -2.9398
  634SOL    HW2 1902   0.568   2.793   3.019  0.5625  0.1188  0.6637
  635SOL     OW 1903   0.003   1.512   1.439  0.1855 -0.1293  0.1369
  635SOL    HW1 1904   3.093   1.441   1.363 -0.1143 -1.3735 -0.7717
  635SOL    HW2 1905   0.079   1.580   1.423 -2.8950  4.4098  1.2894
  636SOL     OW 1906   0.190   1.507   0.119 -0.0568  0.1548  0.4232
  636SOL    HW1 1907   0.220   1.589   0.167  0.5926 -2.6416 -0.8796
  636SOL    HW2 1908   0.094   1.508   0.089 -0.1563  0.5365  1.9719
  637SOL     OW 1909   2.968   2.559   0.292 -0.1355  0.1820  0.1849
  637SOL    HW1 1910   2.950   2.584   0.195 -1.6400  0.3560 -0.9093
  637SOL    HW2 1911   2.912   2.477   0.311  0.1994  1.0916  2.9443
  638SOL     OW 1912   2.639   2.596   0.189 -0.2301 -0.1778 -0.2469
  638SOL    HW1 1913   2.695   2.512   0.171  3.9284 -0.9947 -1.1547
  638SOL    HW2 1914   2.550   2.560   0.213  1.5371 -2.6196 -2.7895
  639SOL     OW 1915   1.403   0.334   2.784 -0.7334 -0.3304  0.5105
  639SOL    HW1 1916   1.327   0.395   2.818 -0.4502 -0.3891  0.8006
  639SOL    HW2 1917   1.443   0.278   2.855 -0.4095  1.9514 -0.7483
  640SOL     OW 1918   2.004   2.149   1.633 -0.4670 -0.2507 -0.1862
  640SOL    HW1 1919   1.981   2.058   1.680  1.0527 -4.4579  1.1100
  640SOL    HW2 1920   2.047   2.218   1.694 -0.2526  0.7142 -1.2129
  641SOL     OW 1921   2.876   0.067   0.738 -0.4575  0.4860 -0.0248
  641SOL    HW1 1922   2.878   0.031   0.833 -0.8842  2.5198 -1.8354
  641SOL    HW2 1923   2.923   3.093   0.675 -0.9178 -0.2098 -0.1382
  642SOL     OW 1924   1.110   0.973   1.788  0.0752 -0.0375  0.3422
  642SOL    HW1 1925   1.141   1.057   1.743  0.0331 -2.8597 -1.0948
  642SOL    HW2 1926   1.044   0.924   1.732  0.4220  1.3871 -1.0461
  643SOL     OW 1927   0.826   1.941   2.757 -0.1688  0.4222 -0.0457
  643SOL    HW1 1928   0.835   1.856   2.815  2.8882 -3.1087  3.6090
  643SOL    HW2 1929   0.787   1.915   2.664 -0.9370  0.4137 -1.0277
  644SOL     OW 1930   1.342   2.663   2.460  0.2476 -0.0440  0.4635
  644SOL    HW1 1931   1.317   2.750   2.417  1.4345  1.3069  0.8178
  644SOL    HW2 1932   1.263   2.613   2.503 -2.7411  0.1075  0.1839
  645SOL     OW 1933   1.568   0.734   1.859  0.9177  0.2434  0.2035
  645SOL    HW1 1934   1.613   0.807   1.800 -2.2969 -0.6317 -1.1029
  645SOL    HW2 1935   1.465   0.745   1.858 -0.8294  2.7501  0.5099
  646SOL     OW 1936   1.143   2.298   2.569 -0.0146 -0.2118 -0.0118
  646SOL    HW1 1937   1.137   2.400   2.579  0.4306 -1.9524  1.6930
  646SOL    HW2 1938   1.236   2.267   2.546  2.7231  0.8333 -0.3029
  647SOL     OW 1939   1.151   2.877   0.464 -0.3957  0.0836  0.3313
  647SOL    HW1 1940   1.152   2.921   0.558 -1.4313  0.4936  2.6206
  647SOL    HW2 1941   1.130   2.948   0.391 -1.9923  0.7156  0.3415
  648SOL     OW 1942   2.635   2.595   1.250  0.1749  0.0323 -0.4208
  648SOL    HW1 1943   2.608   2.538   1.169 -0.8746 -0.1380 -1.0777
  648SOL    HW2 1944   2.554   2.594   1.315  0.9019  0.6474 -2.6715
  649SOL     OW 1945   0.521   2.454   2.526  0.4685 -0.4230  0.0067
  649SOL    HW1 1946   0.484   2.423   2.438 -0.4577  2.2580  0.2944
  649SOL    HW2 1947   0.557   2.382   2.584 -0.0747  2.2589 -0.5656
  650SOL     OW 1948   2.566   1.834   2.503 -0.0525  0.0349 -0.1058
  650SOL    HW1 1949   2.665   1.829   2.521 -1.5066 -0.0824 -0.3502
  650SOL    HW2 1950   2.540   1.926   2.472  1.5722  0.1216  2.7007
  651SOL     OW 1951   2.691   2.409   2.101  0.1488  0.0199  0.0149
  651SOL    HW1 1952   2.750   2.398   2.018  1.5109  1.1417 -0.3961
  651SOL    HW2 1953   2.750   2.456   2.170 -1.0325 -2.1434 -0.5865
  652SOL     OW 1954   2.379   2.377   0.682 -0.0876  0.4669  0.3900
  652SOL    HW1 1955   2.456   2.398   0.611  1.1423  0.7635 -1.3453
  652SOL    HW2 1956   2.401   2.292   0.731 -0.9510  2.2625  1.3044
  653SOL     OW 1957   2.588   1.124   1.113  0.4443 -0.1376 -0.3951
  653SOL    HW1 1958   2.556   1.173   1.201  2.8183  1.9620  2.9257
  653SOL    HW2 1959   2.626   1.031   1.136  0.6158 -3.1003 -0.0166
  654SOL     OW 1960   0.850   0.420   2.731 -0.2054 -0.6728 -0.5271
  654SOL    HW1 1961   0.834   0.315   2.734 -0.2402 -3.1923  0.3552
  654SOL    HW2 1962   0.846   0.454   2.830 -0.7917  0.6738  2.3678
  655SOL     OW 1963   0.897   0.176   0.983 -0.1824  0.3885 -0.0496
  655SOL    HW1 1964   0.979   0.233   0.992 -1.5984  0.6328 -0.3827
  655SOL    HW2 1965   0.875   0.122   1.068  1.1825 -0.8775 -2.3720
  656SOL     OW 1966   0.355   2.359   1.945 -0.0348 -0.0290 -0.5349
  656SOL    HW1 1967   0.363   2.377   1.842 -0.1040  1.6169 -1.9492
  656SOL    HW2 1968   0.445   2.339   1.989 -1.8776 -1.6194  0.4814
  657SOL     OW 1969   2.475   0.817   0.410  0.0392 -0.0017  0.0386
  657SOL    HW1 1970   2.425   0.766   0.341 -1.3702  1.1484  0.0714
  657SOL    HW2 1971   2.508   0.905   0.370  1.1326  2.4847 -0.9932
  658SOL     OW 1972   1.876   1.861   1.018  0.1194 -0.1843  0.5613
  658SOL    HW1 1973   1.793   1.882   0.956 -0.4364  0.8637 -3.0804
  658SOL    HW2 1974   1.900   1.758   1.009 -1.7231 -1.7725 -2.3054
  659SOL     OW 1975   2.579   1.816   2.912 -0.1946 -0.5486  0.3273
  659SOL    HW1 1976   2.589   1.805   3.010  0.8816  3.3547 -1.2429
  659SOL    HW2 1977   2.644   1.887   2.873 -0.7228  2.2990 -0.2795
  660SOL     OW 1978   1.097   0.469   0.301 -0.5383  0.4460  0.2186
  660SOL    HW1 1979   1.101   0.388   0.365  1.3404 -2.2854  0.1407
  660SOL    HW2 1980   1.195   0.500   0.284  2.6518 -1.0166  2.2859
  661SOL     OW 1981   1.830   0.074   0.167 -0.4667 -0.4305  0.1387
  661SOL    HW1 1982   1.766   0.007   0.208  0.8502  0.6417 -0.2668
  661SOL    HW2 1983   1.927   0.047   0.167 -0.4210 -0.7126  0.0039
  662SOL     OW 1984   0.775   2.850   0.643 -0.3023 -0.3145 -0.6662
  662SOL    HW1 1985   0.789   2.944   0.602  1.4945 -0.4610 -2.6815
  662SOL    HW2 1986   0.755   2.852   0.746  1.4470 -0.6796  0.7286
  663SOL     OW 1987   1.608   0.053   2.334  0.1587 -0.2058 -0.3934
  663SOL    HW1 1988   1.608   3.087   2.251 -3.4831 -0.3577 -0.6604
  663SOL    HW2 1989   1.523   0.108   2.339 -0.3452 -1.4568  3.6756
  664SOL     OW 1990   0.636   2.701   1.400  0.0865  0.3451  0.2730
  664SOL    HW1 1991   0.590   2.611   1.386  0.3045  2.1735  0.3349
  664SOL    HW2 1992   0.623   2.731   1.499 -0.2236 -1.3951  1.7859
  665SOL     OW 1993   0.644   2.196   1.620  0.0177  0.3039 -0.8503
  665SOL    HW1 1994   0.722   2.259   1.637 -1.4980  0.6393 -2.3433
  665SOL    HW2 1995   0.640   2.185   1.519 -0.1244  1.5022 -2.7778
  666SOL     OW 1996   0.638   2.947   2.564  0.4651  0.3477 -0.0401
  666SOL    HW1 1997   0.649   3.043   2.541  1.7317 -0.5854 -1.4384
  666SOL    HW2 1998   0.540   2.934   2.586  2.2748  0.8051 -0.7011
  667SOL     OW 1999   1.884   1.422   1.879  0.0833  0.4926  0.3860
  667SOL    HW1 2000   1.903   1.326   1.898 -0.6674  2.5393  2.0384
  667SOL    HW2 2001   1.909   1.441   1.783 -0.2202 -1.9759 -1.2704
  668SOL     OW 2002   1.734   3.088   1.773 -0.1479 -0.0707  0.8942
  668SOL    HW1 2003   1.700   2.995   1.768 -1.8710  1.3087  0.5944
  668SOL    HW2 2004   1.657   0.063   1.785  0.4717  1.3290  1.7166
  669SOL     OW 2005   2.563   2.519   0.986  1.1968 -0.0616  0.3709
  669SOL    HW1 2006   2.624   2.511   0.904  2.4275  0.0230 -1.9256
  669SOL    HW2 2007   2.491   2.449   0.985  1.0138  0.6666 -1.5217
  670SOL     OW 2008   1.135   1.999   2.928  0.0227 -0.4395  0.1758
  670SOL    HW1 2009   1.124   1.954   3.018 -0.1431 -1.2475 -0.9879
  670SOL    HW2 2010   1.046   2.049   2.903 -0.6341  2.4270  0.9939
  671SOL     OW 2011   0.921   0.958   0.616 -0.4411 -0.2323  0.5975
  671SOL    HW1 2012   1.003   1.011   0.587 -0.0336  0.0152 -1.9941
  671SOL    HW2 2013   0.901   0.979   0.711 -0.3762  0.1256  0.5665
  672SOL     OW 2014   2.752   1.101   2.624 -0.3185 -0.5900 -0.1716
  672SOL    HW1 2015   2.832   1.144   2.672  0.3682  0.6885  0.1186
  672SOL    HW2 2016   2.769   1.083   2.525 -0.1280  2.6610  1.0410
  673SOL     OW 2017   2.990   1.958   1.758  0.4615 -0.4901 -0.1851
  673SOL    HW1 2018   3.010   1.881   1.818 -0.4229  1.6892 -1.4511
  673SOL    HW2 2019   2.889   1.970   1.754 -2.7128 -1.1258  0.7607
  674SOL     OW 2020   0.448   2.367   2.295 -0.3310 -0.3140 -0.2212
  674SOL    HW1 2021   0.413   2.271   2.292  1.5050  2.6259 -0.2489
  674SOL    HW2 2022   0.493   2.394   2.208 -1.2356 -1.3652 -0.0882
  675SOL     OW 2023   1.162   0.569   1.715  0.0228 -0.6092 -0.2856
  675SOL    HW1 2024   1.102   0.500   1.685 -1.0558  0.6986  1.0484
  675SOL    HW2 2025   1.253   0.545   1.681 -2.2850 -1.3573  0.4657
  676SOL     OW 2026   1.930   0.039   1.391 -0.0435  0.1492 -0.1655
  676SOL    HW1 2027   1.831   0.027   1.369  2.1457 -0.2116  1.8003
  676SOL    HW2 2028   1.942   0.113   1.460 -0.2624 -0.3224 -0.5917
  677SOL     OW 2029   2.281   1.311   2.957  0.0199  0.0301  0.5456
  677SOL    HW1 2030   2.282   1.392   2.894 -0.3419  1.4897  0.8843
  677SOL    HW2 2031   2.357   1.247   2.933  0.7943 -0.2433 -2.0083
  678SOL     OW 2032   2.482   1.428   1.191  0.4032 -0.2179 -0.1542
  678SOL    HW1 2033   2.557   1.494   1.211 -0.1948 -0.8771  1.3774
  678SOL    HW2 2034   2.411   1.435   1.264  0.4250 -1.3342  2.4905
  679SOL     OW 2035   2.683   0.631   0.012  0.3323  0.0926 -0.4686
  679SOL    HW1 2036   2.708   0.560   0.080 -0.2071  1.4019  1.7037
  679SOL    HW2 2037   2.743   0.708   0.026 -2.4699 -0.8569 -0.4614
  680SOL     OW 2038   0.672   1.660   1.790  0.1558  0.0414  0.8451
  680SOL    HW1 2039   0.631   1.628   1.877  0.1256  0.9947  0.1440
  680SOL    HW2 2040   0.679   1.762   1.778  1.1320  2.2232 -0.7730
  681SOL     OW 2041   2.692   2.005   1.727  0.6517  0.1868  0.3410
  681SOL    HW1 2042   2.684   2.104   1.714  2.0138 -1.8610 -0.4400
  681SOL    HW2 2043   2.605   1.965   1.757  1.0085 -1.7726 -3.5853
  682SOL     OW 2044   0.131   1.940   0.028 -0.5922  0.1191 -0.0419
  682SOL    HW1 2045   0.131   2.005   0.108 -1.6460 -1.1721 -0.1731
  682SOL    HW2 2046   0.048   1.882   0.041 -3.3944 -1.6895 -1.4854
  683SOL     OW 2047   2.988   2.044   1.295 -0.2973 -0.5431 -0.4212
  683SOL    HW1 2048   2.912   2.015   1.359  1.9062 -1.5736 -2.7585
  683SOL    HW2 2049   3.072   2.053   1.349 -0.8659  2.5367  0.0768
  684SOL     OW 2050   2.824   1.141   2.070 -0.2296 -0.6075 -0.1978
  684SOL    HW1 2051   2.724   1.171   2.092 -4.1339 -1.1386  2.1188
  684SOL    HW2 2052   2.818   1.061   2.008 -0.7574  0.2082 -0.8675
  685SOL     OW 2053   1.307   0.679   0.500 -0.7162  0.2097 -0.2786
  685SOL    HW1 2054   1.405   0.682   0.468 -0.9768 -1.7979 -3.8692
  685SOL    HW2 2055   1.286   0.647   0.595  0.7429  2.6471  1.9271
  686SOL     OW 2056   0.548   0.498   0.900 -0.7060 -0.0745 -0.0178
  686SOL    HW1 2057   0.582   0.584   0.859 -0.5834 -2.1128 -0.6659
  686SOL    HW2 2058   0.464   0.463   0.856 -0.3881  1.8744  0.9524
  687SOL     OW 2059   0.884   2.155   2.910 -0.0906  0.3588  0.1286
  687SOL    HW1 2060   0.831   2.076   2.873 -0.8338 -1.0573  1.1589
  687SOL    HW2 2061   0.842   2.194   2.992  0.7129 -0.4884  0.1876
  688SOL     OW 2062   2.141   0.433   1.527  0.3182 -0.8922  0.6898
  688SOL    HW1 2063   2.224   0.408   1.471 -0.2171 -2.8660 -1.1115
  688SOL    HW2 2064   2.140   0.535   1.536 -1.6411  3.3015  0.3619
  689SOL     OW 2065   1.534   0.462   0.843 -0.2040  0.1413  0.1938
  689SOL    HW1 2066   1.534   0.362   0.848 -1.5107  0.7384 -0.7810
  689SOL    HW2 2067   1.602   0.479   0.771 -0.8726 -2.1746  0.0403
  690SOL     OW 2068   2.579   1.247   1.388  0.4574 -0.1876  0.0034
  690SOL    HW1 2069   2.519   1.310   1.334 -0.6740 -0.9819  1.2902
  690SOL    HW2 2070   2.620   1.286   1.472  2.5076 -2.1564  0.0764
  691SOL     OW 2071   0.345   2.203   1.253 -0.1093  0.2925 -0.2271
  691SOL    HW1 2072   0.362   2.251   1.165 -0.4710  0.4616  5.1299
  691SOL    HW2 2073   0.351   2.103   1.235 -0.0102 -0.1635 -0.8623
  692SOL     OW 2074   1.383   0.068   1.622  0.1969 -0.6548  0.4678
  692SOL    HW1 2075   1.394   3.064   1.630 -0.4837  2.5993 -2.0013
  692SOL    HW2 2076   1.463   0.112   1.571 -2.1662 -1.3675 -0.4511
  693SOL     OW 2077   0.956   1.905   2.102 -0.0266  0.0510  0.1799
  693SOL    HW1 2078   0.991   2.000   2.091 -0.0958 -1.2739 -2.6142
  693SOL    HW2 2079   0.950   1.860   2.008 -0.8987  1.5351 -1.1519
  694SOL     OW 2080   1.838   1.377   0.861  0.3721 -0.2813 -0.0490
  694SOL    HW1 2081   1.777   1.361   0.944 -1.0726 -0.4343  0.1842
  694SOL    HW2 2082   1.901   1.300   0.850  2.0231  1.8658  1.3044
  695SOL     OW 2083   1.271   0.794   1.427  0.1682 -0.7842 -0.7115
  695SOL    HW1 2084   1.275   0.765   1.329 -1.5584 -0.9460  0.8735
  695SOL    HW2 2085   1.188   0.763   1.477 -1.8726 -0.3952  0.5875
  696SOL     OW 2086   0.066   0.162   0.497 -0.6437  0.1067  0.0019
  696SOL    HW1 2087   0.033   0.254   0.529  0.0140  1.2341  1.0118
  696SOL    HW2 2088   0.000   0.086   0.525 -0.6151 -1.6701  0.9610
  697SOL     OW 2089   2.023   0.458   1.044  0.1100 -0.5428 -0.5015
  697SOL    HW1 2090   1.955   0.533   1.040 -3.1437  0.1658 -0.6478
  697SOL    HW2 2091   1.975   0.375   1.078 -1.2373 -1.3259 -3.6773
  698SOL     OW 2092   1.464   1.282   1.878  0.1114 -0.1727 -0.3899
  698SOL    HW1 2093   1.475   1.381   1.866 -1.5480  0.4010 -1.5588
  698SOL    HW2 2094   1.442   1.272   1.976 -1.7232 -0.2196  0.7347
  699SOL     OW 2095   0.036   0.292   2.230 -0.1509 -0.2162 -0.7390
  699SOL    HW1 2096   3.049   0.358   2.221 -1.3035  1.3848  2.6537
  699SOL    HW2 2097   0.127   0.343   2.232 -1.2360  1.9305 -1.2001
  700SOL     OW 2098   1.853   2.632   0.532  0.0311 -0.3921 -0.0186
  700SOL    HW1 2099   1.841   2.548   0.592 -0.0892  0.8539  1.0135
  700SOL    HW2 2100   1.767   2.660   0.495  3.7785 -1.1960  0.3178
  701SOL     OW 2101   0.082   1.559   2.450 -0.3027  0.2230  0.0972
  701SOL    HW1 2102   0.123   1.653   2.452 -0.7655 -1.3343 -2.7698
  701SOL    HW2 2103   0.135   1.498   2.392 -0.5703  2.1703  3.0175
  702SOL     OW 2104   0.751   0.029   0.503  0.1901 -0.4341  0.3366
  702SOL    HW1 2105   0.747   0.102   0.574 -0.4784  0.9243  1.1819
  702SOL    HW2 2106   0.660   3.078   0.493 -0.6316 -3.9614  0.3546
  703SOL     OW 2107   2.017   2.986   2.699  0.7916 -0.2857 -0.4870
  703SOL    HW1 2108   2.095   2.965   2.760 -2.3064  1.1720  0.0848
  703SOL    HW2 2109   2.019   3.085   2.677  0.0308  3.3506 -3.0024
  704SOL     OW 2110   2.709   1.982   0.154  0.2908 -0.3013  0.1301
  704SOL    HW1 2111   2.740   2.034   0.074 -1.0400 -1.6439  0.1683
  704SOL    HW2 2112   2.668   1.897   0.128 -0.2255 -3.2014 -0.3181
  705SOL     OW 2113   2.710   2.240   2.294  0.6719  0.4306  0.4494
  705SOL    HW1 2114   2.695   2.300   2.211  0.6026  1.4856 -1.2898
  705SOL    HW2 2115   2.805   2.209   2.296 -1.1581  2.2113  0.5330
  706SOL     OW 2116   2.741   0.057   0.273 -0.0035 -0.0756  0.5158
  706SOL    HW1 2117   2.685   0.056   0.188  0.1115 -2.7490 -1.3957
  706SOL    HW2 2118   2.734   3.062   0.325 -1.8319 -1.1903  1.3068
  707SOL     OW 2119   1.056   0.075   2.987 -0.0858  0.0316 -0.2640
  707SOL    HW1 2120   1.095   0.142   2.920 -2.0051 -1.4747  0.5699
  707SOL    HW2 2121   0.961   0.093   3.017  1.2878  0.1864 -0.3452
  708SOL     OW 2122   0.250   2.135   1.657  0.2818 -0.1439  0.2892
  708SOL    HW1 2123   0.159   2.147   1.704  0.9267  1.2804  0.3459
  708SOL    HW2 2124   0.298   2.046   1.677 -1.3497  0.2765  0.7381
  709SOL     OW 2125   1.363   2.894   1.908  0.4117 -0.4828  0.1538
  709SOL    HW1 2126   1.361   2.995   1.925  2.2776 -0.2979  0.6098
  709SOL    HW2 2127   1.367   2.843   1.993  0.5167 -0.5349 -1.1168
  710SOL     OW 2128   1.741   2.600   2.741  0.7293 -0.0249  0.0317
  710SOL    HW1 2129   1.766   2.696   2.771  2.7364  1.0082  0.4104
  710SOL    HW2 2130   1.644   2.574   2.756 -0.2156  0.1473 -2.1058
  711SOL     OW 2131   0.796   2.589   2.711 -0.3305 -0.4246 -0.3682
  711SOL    HW1 2132   0.852   2.669   2.698 -0.8216 -1.8568  0.4697
  711SOL    HW2 2133   0.849   2.503   2.726  2.4840  0.9559  2.8994
  712SOL     OW 2134   0.919   1.675   2.874 -0.0604  0.4236 -0.1636
  712SOL    HW1 2135   0.983   1.622   2.932  2.6067  2.1433  1.4138
  712SOL    HW2 2136   0.843   1.621   2.836  0.8354 -0.0178  0.5188
  713SOL     OW 2137   1.844   0.902   1.457  0.4930  0.3912 -0.2553
  713SOL    HW1 2138   1.880   0.822   1.408  1.6500  0.7661  0.6086
  713SOL    HW2 2139   1.888   0.986   1.416  0.9606 -1.6298  1.2756
  714SOL     OW 2140   1.235   1.592   1.825 -0.2577  0.0780  0.2531
  714SOL    HW1 2141   1.214   1.551   1.919  0.5799 -0.6417  1.9034
  714SOL    HW2 2142   1.337   1.581   1.816 -0.2477 -1.7327 -3.0318
  715SOL     OW 2143   2.693   0.387   0.163  0.0818 -0.3181 -0.1956
  715SOL    HW1 2144   2.753   0.356   0.240 -0.4203 -3.7368  0.6931
  715SOL    HW2 2145   2.678   0.322   0.084  1.7414  0.6684  2.6291
  716SOL     OW 2146   0.495   2.632   0.963 -0.2338 -0.1796  0.3801
  716SOL    HW1 2147   0.591   2.616   1.000 -0.0973 -1.5678 -0.0067
  716SOL    HW2 2148   0.481   2.726   0.920 -0.9925  0.7281 -2.8685
  717SOL     OW 2149   2.756   0.691   0.462 -0.1684  0.2867 -0.0298
  717SOL    HW1 2150   2.768   0.587   0.461  1.6574 -0.5522 -0.1737
  717SOL    HW2 2151   2.662   0.719   0.438  2.1017  1.5078 -2.9821
  718SOL     OW 2152   1.771   1.303   1.373 -0.1036  0.0275 -0.2867
  718SOL    HW1 2153   1.725   1.376   1.430 -2.1185  0.3463  0.1045
  718SOL    HW2 2154   1.711   1.221   1.362 -2.4605 -0.3238  2.4175
  719SOL     OW 2155   2.683   2.831   0.051  0.4642  0.4556 -0.2572
  719SOL    HW1 2156   2.659   2.833   3.046  2.0153  0.0441  0.7301
  719SOL    HW2 2157   2.674   2.737   0.096 -1.2141 -0.3347  1.2710
  720SOL     OW 2158   0.951   0.574   0.970 -0.4186 -0.0045 -0.0761
  720SOL    HW1 2159   0.956   0.675   0.989 -0.9546 -0.2542 -1.0936
  720SOL    HW2 2160   0.874   0.530   1.026 -1.8180  0.7866  2.4460
  721SOL     OW 2161   1.870   0.111   0.918  0.2670  0.3271 -0.0380
  721SOL    HW1 2162   1.944   0.097   0.852  0.4539 -0.8094 -0.3088
  721SOL    HW2 2163   1.898   0.165   1.002  0.4603 -0.0370 -1.2274
  722SOL     OW 2164   0.835   2.121   1.896  0.2114 -0.0122 -0.0138
  722SOL    HW1 2165   0.801   2.129   1.991 -1.3325 -1.2536  0.7494
  722SOL    HW2 2166   0.847   2.214   1.860  0.2168  0.8922  1.2516
  723SOL     OW 2167   1.159   0.072   1.420 -0.3169 -0.7663 -0.2445
  723SOL    HW1 2168   1.163   3.080   1.363 -1.9528  0.1179 -1.1676
  723SOL    HW2 2169   1.234   0.077   1.488  0.6199 -0.7261  0.2956
  724SOL     OW 2170   1.884   1.924   1.753  0.9985 -0.0615  0.0688
  724SOL    HW1 2171   1.789   1.908   1.721 -0.1507 -0.4362  0.8121
  724SOL    HW2 2172   1.939   1.842   1.761 -0.8363 -0.3436  2.0530
  725SOL     OW 2173   1.434   2.687   1.439  0.2150 -0.5636  0.3677
  725SOL    HW1 2174   1.517   2.739   1.465 -0.8190 -0.0176  2.1596
  725SOL    HW2 2175   1.437   2.598   1.485 -1.4505  4.1760  0.6835
  726SOL     OW 2176   1.930   0.329   3.081  0.1419  0.1935  0.3918
  726SOL    HW1 2177   1.884   0.282   0.064 -1.3166 -0.9751 -1.2311
  726SOL    HW2 2178   2.030   0.336   0.004 -0.6053 -0.7832  0.0419
  727SOL     OW 2179   1.457   2.030   0.466 -0.2800  0.0740  0.1085
  727SOL    HW1 2180   1.356   2.035   0.471 -3.4303 -0.8273  1.6060
  727SOL    HW2 2181   1.486   1.943   0.418  3.2084 -1.6251  1.0002
  728SOL     OW 2182   1.878   2.829   2.511 -0.3744  0.3123  0.7120
  728SOL    HW1 2183   1.870   2.887   2.427 -0.1602  0.3228 -0.4027
  728SOL    HW2 2184   1.919   2.879   2.589 -2.0790 -0.3929 -1.4036
  729SOL     OW 2185   2.125   2.434   1.722 -0.1070  0.1770  0.3002
  729SOL    HW1 2186   2.216   2.455   1.678  2.1838 -0.5771  0.7498
  729SOL    HW2 2187   2.133   2.417   1.824 -1.1484 -0.4890  0.4066
  730SOL     OW 2188   1.713   0.458   2.450  0.2266  0.0404 -0.1347
  730SOL    HW1 2189   1.649   0.395   2.500  1.6501 -0.3569 -3.3217
  730SOL    HW2 2190   1.769   0.407   2.382  1.3058  0.5301  1.6931
  731SOL     OW 2191   0.495   2.985   1.178  0.7662  0.0713  0.4922
  731SOL    HW1 2192   0.409   2.961   1.228 -0.3395 -2.8787 -0.1013
  731SOL    HW2 2193   0.577   2.931   1.201 -0.0434 -1.5456 -2.6486
  732SOL     OW 2194   1.778   2.807   1.080 -0.1787  0.5625  0.2430
  732SOL    HW1 2195   1.755   2.723   1.136  3.0045  0.4689 -1.0163
  732SOL    HW2 2196   1.698   2.875   1.091 -1.0759  0.7719 -0.5403
  733SOL     OW 2197   1.527   0.726   1.503 -0.2546 -0.0170 -0.3599
  733SOL    HW1 2198   1.434   0.753   1.467  1.1088 -0.0257 -1.2909
  733SOL    HW2 2199   1.560   0.790   1.579  1.4258  2.0950  0.5230
  734SOL     OW 2200   2.555   2.158   0.302  0.2301  0.1360  0.6213
  734SOL    HW1 2201   2.602   2.085   0.245 -0.9322 -1.7150 -2.2714
  734SOL    HW2 2202   2.531   2.129   0.396 -0.1328 -2.0404 -0.4902
  735SOL     OW 2203   0.388   0.450   0.491 -0.1128 -0.4781  0.7747
  735SOL    HW1 2204   0.344   0.456   0.400  1.9880  1.1391  0.1537
  735SOL    HW2 2205   0.482   0.413   0.481 -0.5372  1.0439  0.9192
  736SOL     OW 2206   2.037   2.141   2.680  0.7548  0.2621  0.0381
  736SOL    HW1 2207   1.975   2.067   2.675 -0.3171  1.8646 -0.2602
  736SOL    HW2 2208   2.013   2.205   2.604  1.0169 -1.7924  0.7113
  737SOL     OW 2209   1.167   2.397   1.156  0.0414 -0.0200  0.6714
  737SOL    HW1 2210   1.161   2.494   1.122 -0.2483  1.1603 -0.1523
  737SOL    HW2 2211   1.174   2.336   1.075  3.3165 -0.7297  0.7198
  738SOL     OW 2212   1.438   2.785   2.155 -0.0988  0.0881 -0.0658
  738SOL    HW1 2213   1.377   2.820   2.226  0.0147 -0.7042 -0.5486
  738SOL    HW2 2214   1.532   2.790   2.192  0.9177 -0.0999  0.6813
  739SOL     OW 2215   0.835   2.361   1.770 -0.1656 -0.4368  0.0161
  739SOL    HW1 2216   0.938   2.371   1.773 -1.5073  1.9358 -1.1391
  739SOL    HW2 2217   0.789   2.450   1.786  2.2090  0.0936  0.9589
  740SOL     OW 2218   1.687   2.362   1.682 -0.3065  0.1992 -0.4454
  740SOL    HW1 2219   1.679   2.269   1.639  0.9298  2.1973  1.4715
  740SOL    HW2 2220   1.773   2.400   1.644 -0.2422 -0.5820 -2.1361
  741SOL     OW 2221   2.214   1.704   3.004 -0.5504  0.6201  0.3019
  741SOL    HW1 2222   2.116   1.707   3.034  1.2062  1.7332 -2.5561
  741SOL    HW2 2223   2.225   1.644   2.925  0.2412  0.5340 -0.5005
  742SOL     OW 2224   0.829   1.328   2.470 -0.2745 -0.3353 -0.6447
  742SOL    HW1 2225   0.743   1.285   2.441 -0.6046 -1.6054  0.7856
  742SOL    HW2 2226   0.899   1.253   2.481  1.9084 -0.2590  1.3929
  743SOL     OW 2227   2.864   1.091   2.335 -0.5411 -0.2460 -0.3252
  743SOL    HW1 2228   2.863   0.992   2.361  2.4671 -1.1556  0.2065
  743SOL    HW2 2229   2.837   1.101   2.237  1.3169 -2.8047 -0.9585
  744SOL     OW 2230   2.196   2.322   1.975 -0.3492  0.3329  0.2677
  744SOL    HW1 2231   2.153   2.336   2.065 -0.2466 -2.9306  0.3114
  744SOL    HW2 2232   2.295   2.343   1.976 -0.6886  0.8666  1.4951
  745SOL     OW 2233   2.405   1.744   1.598  0.0497 -0.4584 -0.3294
  745SOL    HW1 2234   2.346   1.819   1.627 -1.5754 -1.4202 -0.3735
  745SOL    HW2 2235   2.365   1.652   1.611  0.3810 -1.2496 -0.9849
  746SOL     OW 2236   2.689   1.334   0.988 -0.1771  0.0774 -0.4433
  746SOL    HW1 2237   2.681   1.322   0.885  2.5049  0.3615 -1.9300
  746SOL    HW2 2238   2.653   1.251   1.042  2.2225  1.6434  2.2900
  747SOL     OW 2239   1.737   2.288   0.294 -0.3747  0.3357 -0.1034
  747SOL    HW1 2240   1.815   2.262   0.358  0.5018  0.8085  0.7762
  747SOL    HW2 2241   1.652   2.296   0.351  3.0966  0.7687  0.1435
  748SOL     OW 2242   1.020   2.351   0.035 -0.1419  0.0664 -0.2094
  748SOL    HW1 2243   0.981   2.435   0.077  0.1103  0.3149  1.4645
  748SOL    HW2 2244   1.084   2.371   3.053 -0.9509 -0.7824 -2.9142
  749SOL     OW 2245   2.831   0.329   2.243 -0.3461  0.2754  0.1867
  749SOL    HW1 2246   2.821   0.370   2.154  0.7914  0.1852  1.0845
  749SOL    HW2 2247   2.858   0.232   2.240 -2.3594  0.0595 -0.0252
  750SOL     OW 2248   1.583   0.171   1.457  0.6784 -0.1466 -0.5973
  750SOL    HW1 2249   1.671   0.221   1.465 -0.0967 -0.9790  1.2357
  750SOL    HW2 2250   1.601   0.079   1.418  0.3328  3.1272  0.9412
  751SOL     OW 2251   1.996   2.324   2.495 -0.7001 -0.0336  0.0912
  751SOL    HW1 2252   1.897   2.352   2.501 -0.0852 -1.6152  0.8645
  751SOL    HW2 2253   2.053   2.394   2.537  0.5392 -2.2410 -0.7959
  752SOL     OW 2254   1.711   1.943   0.813 -0.2224  0.0090  0.4531
  752SOL    HW1 2255   1.651   2.012   0.859 -0.1551 -1.2460  0.2643
  752SOL    HW2 2256   1.664   1.866   0.771  2.6539  1.1569  1.5150
  753SOL     OW 2257   1.346   0.600   2.294 -0.1725 -0.7803 -0.3035
  753SOL    HW1 2258   1.377   0.561   2.383  1.5394  0.4633  3.4451
  753SOL    HW2 2259   1.395   0.688   2.282  0.9798 -1.2730  1.1571
  754SOL     OW 2260   0.087   2.875   0.706 -0.2975  0.3362 -0.0078
  754SOL    HW1 2261   0.130   2.920   0.786 -0.0416  2.9245 -1.2173
  754SOL    HW2 2262   0.057   2.778   0.720 -0.2346 -4.2123  1.7356
  755SOL     OW 2263   2.008   3.065   1.701  0.1258 -0.5605 -1.0251
  755SOL    HW1 2264   2.051   3.094   1.616  1.1995 -2.0241  1.5410
  755SOL    HW2 2265   1.922   0.021   1.719 -0.0033  1.2438  0.4985
  756SOL     OW 2266   1.622   0.951   2.493 -0.0426  0.0307 -0.2588
  756SOL    HW1 2267   1.653   0.855   2.516 -0.5869 -2.1138  3.6901
  756SOL    HW2 2268   1.580   1.000   2.573  0.0768 -0.7313 -0.2559
  757SOL     OW 2269   2.784   2.692   1.496  0.3844 -0.0247 -0.8353
  757SOL    HW1 2270   2.800   2.774   1.552 -0.5414 -1.3143  0.8354
  757SOL    HW2 2271   2.698   2.720   1.443 -2.2287 -0.2126  0.4169
  758SOL     OW 2272   0.217   0.199   1.504  0.3014  0.3528  0.0092
  758SOL    HW1 2273   0.207   0.117   1.564  0.2283  0.2118 -1.4120
  758SOL    HW2 2274   0.255   0.274   1.555 -1.1930 -2.4045  0.4693
  759SOL     OW 2275   2.284   1.234   0.772 -0.5896 -0.2818  0.0315
  759SOL    HW1 2276   2.337   1.297   0.710  1.6317 -1.4968  0.5607
  759SOL    HW2 2277   2.348   1.162   0.816  0.2874 -1.8386 -2.6832
  760SOL     OW 2278   1.939   0.245   1.549  0.2912  0.0061 -0.8839
  760SOL    HW1 2279   1.874   0.270   1.625 -3.2215 -0.8713  1.4822
  760SOL    HW2 2280   2.024   0.299   1.545 -0.8743 -1.2931  1.0523
  761SOL     OW 2281   1.939   0.300   0.408  0.1900 -0.2179  0.4861
  761SOL    HW1 2282   2.030   0.304   0.373 -4.2021 -2.5649 -0.4339
  761SOL    HW2 2283   1.869   0.330   0.340 -1.5963  0.9248 -0.8553
  762SOL     OW 2284   2.317   2.637   0.039  0.4002 -0.3469 -0.1082
  762SOL    HW1 2285   2.387   2.607   3.065 -1.5884  1.4200 -0.5324
  762SOL    HW2 2286   2.233   2.585   0.031  0.3419  1.8348  1.1355
  763SOL     OW 2287   0.993   0.915   1.288 -0.0265 -0.1790  0.2029
  763SOL    HW1 2288   0.982   0.995   1.346  0.9408 -2.4876 -2.1388
  763SOL    HW2 2289   0.991   0.826   1.337 -1.6105 -0.9312  0.8269
  764SOL     OW 2290   2.365   2.397   2.794 -0.1322 -0.0562 -0.3851
  764SOL    HW1 2291   2.280   2.447   2.774  1.1571 -2.1079  3.4610
  764SOL    HW2 2292   2.399   2.341   2.712 -0.6274 -0.9142 -0.3694
  765SOL     OW 2293   0.508   0.831   2.116  0.2472  0.1840  0.3464
  765SOL    HW1 2294   0.475   0.838   2.211  0.8018 -0.4481  0.7037
  765SOL    HW2 2295   0.468   0.749   2.067  1.1054 -0.1137  0.9857
  766SOL     OW 2296   2.804   1.523   2.628 -0.0881  0.4301  0.3017
  766SOL    HW1 2297   2.742   1.496   2.699  2.2411  0.3076 -0.0932
  766SOL    HW2 2298   2.802   1.456   2.554  1.3039 -0.4849 -2.3354
  767SOL     OW 2299   0.078   1.756   2.099 -0.4826 -0.3389 -0.3054
  767SOL    HW1 2300   0.105   1.662   2.073  1.1935  0.6292  0.0562
  767SOL    HW2 2301   0.004   1.757   2.167  0.4629  2.0568 -1.6115
  768SOL     OW 2302   1.145   0.847   3.050 -0.5704  0.5619  0.9506
  768SOL    HW1 2303   1.085   0.792   0.021  3.5246  0.1972  2.1191
  768SOL    HW2 2304   1.202   0.787   2.989  1.2861  1.3672 -0.9282
  769SOL     OW 2305   1.833   2.850   2.835  0.0192 -0.1890  0.5628
  769SOL    HW1 2306   1.910   2.907   2.791  1.6042  2.3359 -0.6353
  769SOL    HW2 2307   1.767   2.910   2.881  0.2259 -2.6460 -2.4305
  770SOL     OW 2308   0.377   0.226   2.480 -0.4972 -0.0964  0.0046
  770SOL    HW1 2309   0.284   0.197   2.509  2.4036  0.5733 -2.1930
  770SOL    HW2 2310   0.385   0.191   2.385 -2.9151  1.6682  0.3936
  771SOL     OW 2311   0.753   2.288   1.174  0.1298 -0.2285 -0.2585
  771SOL    HW1 2312   0.814   2.357   1.211  2.1709 -0.6710  0.1220
  771SOL    HW2 2313   0.732   2.314   1.076 -0.3578 -0.8279  2.5944
  772SOL     OW 2314   0.447   0.626   0.027  0.5599  0.2375 -0.5393
  772SOL    HW1 2315   0.472   0.609   3.024  1.6062  2.3731  1.8490
  772SOL    HW2 2316   0.426   0.723   0.058 -2.4580  2.1470  0.5242
  773SOL     OW 2317   2.243   0.881   1.740  0.1739 -0.2914  0.5448
  773SOL    HW1 2318   2.206   0.971   1.708 -1.8201  1.4081 -1.8938
  773SOL    HW2 2319   2.191   0.842   1.817 -2.9754  1.4536  1.7385
  774SOL     OW 2320   1.135   1.065   0.529  0.1809  0.4487 -0.8992
  774SOL    HW1 2321   1.209   1.102   0.581 -0.3512  1.2333  1.6990
  774SOL    HW2 2322   1.167   1.042   0.435  0.7673  0.9231 -0.4213
  775SOL     OW 2323   2.142   0.165   2.752 -0.0237 -0.1972 -0.0140
  775SOL    HW1 2324   2.177   0.149   2.848 -0.9839  1.7056  1.9956
  775SOL    HW2 2325   2.049   0.212   2.764 -2.7856  2.9452 -1.3400
  776SOL     OW 2326   2.478   3.093   2.517 -0.2157 -0.2492 -0.0658
  776SOL    HW1 2327   2.455   0.051   2.602  0.7956  0.3234  0.2252
  776SOL    HW2 2328   2.418   3.009   2.515 -1.4953  0.4773  1.5518
  777SOL     OW 2329   0.836   1.538   0.106  0.7030 -0.4097  0.3716
  777SOL    HW1 2330   0.784   1.449   0.092 -0.4649  0.6348  2.3951
  777SOL    HW2 2331   0.777   1.624   0.103 -1.2448  2.3774 -0.6911
  778SOL     OW 2332   0.609   2.884   0.264  0.3952 -0.0962  0.3981
  778SOL    HW1 2333   0.574   2.934   0.345  2.1712 -3.2981 -2.0899
  778SOL    HW2 2334   0.659   2.798   0.293  0.0492 -1.2805 -0.0431
  779SOL     OW 2335   3.045   1.015   2.954 -0.4073 -0.3034  0.2539
  779SOL    HW1 2336   0.034   1.025   3.008  1.7254 -1.0629 -1.9865
  779SOL    HW2 2337   3.052   0.928   2.903 -2.6885  1.1582 -0.4835
  780SOL     OW 2338   2.197   0.333   2.467  0.2971 -0.5968  0.4625
  780SOL    HW1 2339   2.121   0.361   2.529 -0.2448  0.4436 -0.7559
  780SOL    HW2 2340   2.186   0.365   2.369  0.9061 -0.5407  0.8103
  781SOL     OW 2341   2.079   0.707   1.874 -0.5529 -0.3927 -0.2330
  781SOL    HW1 2342   1.979   0.730   1.861 -4.2571 -0.9388 -1.6358
  781SOL    HW2 2343   2.096   0.605   1.881 -0.4328  0.9031 -0.0867
  782SOL     OW 2344   1.651   1.790   2.204 -0.2763 -0.1396 -0.5631
  782SOL    HW1 2345   1.569   1.789   2.143  0.5490  0.4484 -1.7679
  782SOL    HW2 2346   1.713   1.721   2.160  0.6497 -3.0037 -2.2858
  783SOL     OW 2347   1.147   2.940   1.282  0.3920  0.7017  0.0178
  783SOL    HW1 2348   1.190   2.856   1.310  1.0870  0.8249  0.3482
  783SOL    HW2 2349   1.053   2.924   1.268  3.1484 -1.2438 -0.1832
  784SOL     OW 2350   1.435   0.563   2.566 -0.7915 -0.3291  0.0168
  784SOL    HW1 2351   1.473   0.655   2.580 -0.5995  0.4262 -2.7949
  784SOL    HW2 2352   1.475   0.501   2.632  0.1808  0.3933  1.4212
  785SOL     OW 2353   2.002   0.457   2.644 -0.1602  0.1873 -0.5754
  785SOL    HW1 2354   1.931   0.526   2.647 -0.8032 -3.2319 -2.4653
  785SOL    HW2 2355   1.977   0.376   2.699  1.3638  0.7661 -0.1973
  786SOL     OW 2356   0.093   1.194   0.808  0.2590 -0.5065  0.6533
  786SOL    HW1 2357   0.021   1.136   0.769  0.4405 -0.8853  0.0838
  786SOL    HW2 2358   0.067   1.289   0.785 -0.3019 -0.9065 -1.0380
  787SOL     OW 2359   1.597   1.858   0.300  0.0042 -0.3805 -0.0996
  787SOL    HW1 2360   1.632   1.940   0.255 -2.6323 -0.6739 -0.5010
  787SOL    HW2 2361   1.668   1.791   0.321 -4.1076  1.5267 -0.4971
  788SOL     OW 2362   1.853   1.688   1.475 -0.3178  0.6945  0.4101
  788SOL    HW1 2363   1.801   1.683   1.387  1.1654 -1.7568 -0.5186
  788SOL    HW2 2364   1.940   1.741   1.455  0.9818  0.0080  0.6476
  789SOL     OW 2365   0.105   1.137   2.472 -0.0592  0.7458  0.7755
  789SOL    HW1 2366   0.106   1.035   2.462 -0.1561 -2.3082  2.1181
  789SOL    HW2 2367   0.056   1.184   2.396 -2.1758  0.1613 -1.5811
  790SOL     OW 2368   0.656   0.003   0.100 -0.4454 -0.0666 -0.2836
  790SOL    HW1 2369   0.656   3.020   0.167  0.4470 -0.3000  0.9208
  790SOL    HW2 2370   0.581   3.083   0.033  3.0145 -0.5172 -0.0232
  791SOL     OW 2371   0.781   0.150   2.267 -0.0025  0.6270 -0.0418
  791SOL    HW1 2372   0.772   0.160   2.369  0.0532  0.6909 -2.2789
  791SOL    HW2 2373   0.870   0.105   2.246 -0.2428  3.7359  0.5838
  792SOL     OW 2374   2.054   0.456   2.252 -0.2057 -0.3955  0.4317
  792SOL    HW1 2375   2.054   0.541   2.307 -1.4084  0.6776 -2.7940
  792SOL    HW2 2376   1.993   0.382   2.289 -0.9285 -0.8173 -0.8055
  793SOL     OW 2377   2.587   0.853   1.424 -0.5956  0.2827 -0.0079
  793SOL    HW1 2378   2.627   0.842   1.519  0.5867  3.0562 -0.8844
  793SOL    HW2 2379   2.529   0.934   1.407  0.4205  1.7967 -2.8909
  794SOL     OW 2380   0.207   0.513   1.637  0.2038 -0.1925 -0.6105
  794SOL    HW1 2381   0.167   0.608   1.645 -1.3761 -1.3599 -2.4895
  794SOL    HW2 2382   0.241   0.478   1.732  3.2610 -0.3696 -0.2262
  795SOL     OW 2383   2.978   1.304   0.482 -0.6504  0.2328 -0.4644
  795SOL    HW1 2384   2.965   1.401   0.503  0.7600  0.3145  1.4201
  795SOL    HW2 2385   3.067   1.291   0.428  2.0331  0.4302 -0.4948
  796SOL     OW 2386   0.278   2.539   0.153 -0.0182 -0.1901  0.1840
  796SOL    HW1 2387   0.287   2.640   0.170  1.0915  0.0645  0.2563
  796SOL    HW2 2388   0.257   2.489   0.240  1.4233  0.3197 -0.1381
  797SOL     OW 2389   2.049   2.490   3.074  0.2933 -0.0289  0.1660
  797SOL    HW1 2390   1.972   2.523   0.040 -1.9765 -1.1173 -1.1890
  797SOL    HW2 2391   2.046   2.391   3.043  1.7943 -0.3201  0.0771
  798SOL     OW 2392   0.135   1.322   1.582  0.1711  0.1674 -0.1490
  798SOL    HW1 2393   0.218   1.275   1.543 -1.1427  0.6621 -1.2863
  798SOL    HW2 2394   0.092   1.373   1.506  1.3341 -0.1708  0.9275
  799SOL     OW 2395   3.054   0.796   2.803  0.3404 -0.0477 -0.1989
  799SOL    HW1 2396   0.047   0.805   2.750  0.6120  1.9474 -1.9830
  799SOL    HW2 2397   3.055   0.709   2.854 -3.9807 -0.2514 -2.9691
  800SOL     OW 2398   2.801   2.112   0.640  0.3279  0.3818  0.1194
  800SOL    HW1 2399   2.855   2.022   0.640  2.4474  0.2544  2.3861
  800SOL    HW2 2400   2.853   2.177   0.700 -1.2684 -1.7659  1.4001
  801SOL     OW 2401   1.582   1.108   1.072 -0.2200  0.0295 -0.1839
  801SOL    HW1 2402   1.613   1.196   1.040 -0.4265 -0.2640  0.8131
  801SOL    HW2 2403   1.567   1.097   1.175 -0.2636  1.9691 -2.3472
  802SOL     OW 2404   1.150   2.052   1.558 -0.0451 -0.8526  0.3876
  802SOL    HW1 2405   1.242   2.027   1.521  1.7308 -0.6727 -0.2721
  802SOL    HW2 2406   1.121   2.134   1.510 -0.6349 -3.0490 -0.8702
  803SOL     OW 2407   0.177   1.799   0.508  0.3190 -0.4496  0.3871
  803SOL    HW1 2408   0.256   1.827   0.567  0.9544  1.3424  0.6490
  803SOL    HW2 2409   0.116   1.882   0.499  0.6594 -0.2431  0.4129
  804SOL     OW 2410   0.984   2.701   1.535  0.7424  0.5441  0.3266
  804SOL    HW1 2411   0.991   2.688   1.634  1.0505  0.4117  2.2109
  804SOL    HW2 2412   0.914   2.773   1.507 -1.4431  0.4429  2.0964
  805SOL     OW 2413   1.503   1.159   0.219  0.3713 -0.2710 -0.0956
  805SOL    HW1 2414   1.477   1.062   0.242  1.1547  1.1090 -1.6230
  805SOL    HW2 2415   1.506   1.173   0.119  1.3576 -0.2939 -0.4305
  806SOL     OW 2416   1.362   3.055   1.058  0.0160 -0.0976  0.1733
  806SOL    HW1 2417   1.347   3.019   0.960  1.4494  2.2898 -3.0175
  806SOL    HW2 2418   1.283   3.043   1.121 -2.3101 -0.8032  0.6417
  807SOL     OW 2419   2.448   3.051   2.939 -0.5396  0.0372 -0.1542
  807SOL    HW1 2420   2.434   0.014   2.853  0.6306 -1.8094 -2.2362
  807SOL    HW2 2421   2.502   2.967   2.927  0.8482 -2.5975  2.0598
  808SOL     OW 2422   0.130   1.034   0.081 -0.0512 -0.3516  0.0301
  808SOL    HW1 2423   0.196   0.967   0.110 -2.6470  0.1953  0.3449
  808SOL    HW2 2424   0.171   1.129   0.088  1.2181  0.8036 -2.9613
  809SOL     OW 2425   2.867   0.853   2.408  0.6598  0.3132 -0.4619
  809SOL    HW1 2426   2.854   0.791   2.488  1.3647 -0.1972  1.9032
  809SOL    HW2 2427   2.824   0.812   2.324 -1.2705 -0.2385 -1.2744
  810SOL     OW 2428   2.064   3.036   1.971 -0.4790 -0.0236  0.0831
  810SOL    HW1 2429   2.042   3.077   1.880  1.2244 -1.4795 -1.1170
  810SOL    HW2 2430   2.080   2.935   1.975  1.8739 -0.0080  1.3688
  811SOL     OW 2431   2.507   2.580   1.752 -0.6861 -0.0364 -0.3527
  811SOL    HW1 2432   2.549   2.649   1.816 -2.6473 -1.2875  0.2914
  811SOL    HW2 2433   2.571   2.537   1.690  0.0663  0.7486  0.8605
  812SOL     OW 2434   1.892   0.276   2.801  0.0098 -0.1862  0.2040
  812SOL    HW1 2435   1.884   0.294   2.899 -0.9171  0.7757 -2.2841
  812SOL    HW2 2436   1.850   0.185   2.782 -0.1444  0.6472  2.3579
  813SOL     OW 2437   1.872   0.132   2.082  0.2846 -0.0912  0.5327
  813SOL    HW1 2438   1.959   0.079   2.065  1.1933  0.2169  0.5973
  813SOL    HW2 2439   1.862   0.193   2.002  0.9236 -0.6624 -1.5373
  814SOL     OW 2440   1.910   1.147   1.754 -0.0386 -0.0295  0.0870
  814SOL    HW1 2441   1.932   1.115   1.848 -2.2717  0.3902 -0.5833
  814SOL    HW2 2442   1.808   1.159   1.743 -1.1756  0.7690 -2.5689
  815SOL     OW 2443   0.686   0.892   0.475  0.0647 -0.2428 -0.2850
  815SOL    HW1 2444   0.629   0.971   0.441  0.3558  0.2326 -0.7366
  815SOL    HW2 2445   0.775   0.925   0.521  4.0070 -1.1107  0.7538
  816SOL     OW 2446   2.012   1.478   2.662 -0.1141  0.4776  0.0240
  816SOL    HW1 2447   1.978   1.545   2.596 -2.4440 -2.4600  2.2767
  816SOL    HW2 2448   1.953   1.482   2.745 -1.5952  1.2779  0.8372
  817SOL     OW 2449   3.027   3.014   0.557  0.2326 -0.3642  0.0253
  817SOL    HW1 2450   3.085   2.959   0.621  0.3979 -0.1817  1.0275
  817SOL    HW2 2451   2.994   2.959   0.480  2.1204 -0.8339 -0.1854
  818SOL     OW 2452   2.138   0.040   2.433  0.2100  0.0474  0.6721
  818SOL    HW1 2453   2.184   0.127   2.442 -0.3926  1.3662  1.0130
  818SOL    HW2 2454   2.036   0.051   2.437  1.5998  3.1958  0.9530
  819SOL     OW 2455   1.182   0.857   0.321 -0.1204  0.1398 -0.2886
  819SOL    HW1 2456   1.198   0.796   0.406  0.5099 -1.0090  1.7403
  819SOL    HW2 2457   1.140   0.804   0.241 -1.3108 -0.9067 -0.0360
  820SOL     OW 2458   2.000   0.948   0.840 -0.1214 -0.0102 -0.3008
  820SOL    HW1 2459   2.080   0.924   0.890  1.8433  1.4605 -2.7204
  820SOL    HW2 2460   2.010   1.046   0.807  2.2804 -0.3023  0.1229
  821SOL     OW 2461   2.315   3.018   0.537 -0.4501 -0.0211  0.5406
  821SOL    HW1 2462   2.371   3.056   0.464  0.6116 -0.7584 -0.2781
  821SOL    HW2 2463   2.221   3.053   0.536  1.5506  1.7037  1.8634
  822SOL     OW 2464   0.401   2.855   2.612 -0.0793  0.6668  0.4742
  822SOL    HW1 2465   0.464   2.785   2.655 -0.7520 -1.2089 -1.9608
  822SOL    HW2 2466   0.322   2.806   2.569  0.8365 -2.6141 -2.9673
  823SOL     OW 2467   0.007   2.190   1.773  0.3383 -0.0826  0.0886
  823SOL    HW1 2468   3.076   2.093   1.767 -2.4614 -1.7203  0.2293
  823SOL    HW2 2469   3.056   2.254   1.709 -0.0004  2.3613  1.2249
  824SOL     OW 2470   0.699   2.967   2.035 -0.5116  0.1225 -0.1471
  824SOL    HW1 2471   0.778   2.907   2.018 -0.6733 -1.9992 -2.4070
  824SOL    HW2 2472   0.718   3.063   2.055 -0.9458 -1.8713  2.6336
  825SOL     OW 2473   1.261   1.537   0.381 -0.1193 -0.2798 -0.0942
  825SOL    HW1 2474   1.236   1.478   0.304  1.0680  2.7881 -4.1961
  825SOL    HW2 2475   1.299   1.628   0.352  2.9013 -0.7489  1.8620
  826SOL     OW 2476   1.492   0.206   2.989  0.4375 -0.3765  0.0534
  826SOL    HW1 2477   1.561   0.125   2.993  3.4319 -2.9739  0.0218
  826SOL    HW2 2478   1.406   0.181   3.040  0.1811  1.4973  2.1048
  827SOL     OW 2479   0.318   1.555   1.364  0.0996 -0.3726 -0.4461
  827SOL    HW1 2480   0.291   1.637   1.415 -1.9318  1.9787  0.0580
  827SOL    HW2 2481   0.276   1.549   1.269 -2.4048  0.6471 -0.0209
  828SOL     OW 2482   2.121   1.083   1.581  0.2065 -0.2746  0.1240
  828SOL    HW1 2483   2.113   1.068   1.480  1.4075 -0.4902 -1.4715
  828SOL    HW2 2484   2.039   1.124   1.629 -2.4760 -0.7430  1.3111
  829SOL     OW 2485   0.065   2.027   0.432  0.2786  0.6722 -0.0874
  829SOL    HW1 2486   3.068   1.984   0.402 -0.4615 -0.3301 -0.7943
  829SOL    HW2 2487   0.100   2.084   0.352  1.5116 -0.5566 -0.2220
  830SOL     OW 2488   0.978   0.852   1.034  0.4270  0.3947  0.0724
  830SOL    HW1 2489   1.074   0.852   0.999  2.5575  1.1581 -0.5918
  830SOL    HW2 2490   0.977   0.881   1.133 -0.7740 -1.6863 -2.5048
  831SOL     OW 2491   2.873   1.850   2.992  0.2555 -0.5825 -0.1738
  831SOL    HW1 2492   2.877   1.762   2.946  2.1565  0.5915  2.7559
  831SOL    HW2 2493   2.847   1.924   2.930  1.2285 -1.3038 -0.6311
  832SOL     OW 2494   1.195   2.649   0.115 -0.0714  0.0745  0.0486
  832SOL    HW1 2495   1.138   2.728   0.092 -0.8710 -0.1265  1.5225
  832SOL    HW2 2496   1.269   2.674   0.182 -0.2435 -1.3352 -0.6434
  833SOL     OW 2497   1.127   0.408   1.978  0.5925  0.2712 -0.0264
  833SOL    HW1 2498   1.103   0.390   2.077  0.7856  1.6429  3.2274
  833SOL    HW2 2499   1.089   0.497   1.951 -0.0627 -1.5057  0.2720
  834SOL     OW 2500   0.105   0.909   1.044 -0.3390  0.1044  0.2352
  834SOL    HW1 2501   0.012   0.908   0.996  0.5444  1.2820  0.2812
  834SOL    HW2 2502   0.093   0.928   1.143 -3.2304  0.0913 -1.5030
  835SOL     OW 2503   2.441   0.235   1.935 -0.6589  0.1090 -0.0293
  835SOL    HW1 2504   2.448   0.337   1.940  3.6438 -0.7071  0.4601
  835SOL    HW2 2505   2.368   0.195   1.991 -0.1028  0.4911 -0.2631
  836SOL     OW 2506   0.432   2.294   0.633 -0.8243  0.3537  0.1079
  836SOL    HW1 2507   0.437   2.371   0.570  0.0993 -2.1606 -1.3373
  836SOL    HW2 2508   0.514   2.260   0.676 -3.7884 -1.0305 -1.5910
  837SOL     OW 2509   2.202   1.638   2.226  0.4616 -0.2339  0.1968
  837SOL    HW1 2510   2.169   1.553   2.263  1.7278  4.8943 -1.6978
  837SOL    HW2 2511   2.300   1.663   2.233 -2.3363  1.2671 -0.7593
  838SOL     OW 2512   0.380   1.169   1.513  0.3021 -0.2393  0.5445
  838SOL    HW1 2513   0.406   1.146   1.416  0.3253  1.1263  0.7739
  838SOL    HW2 2514   0.429   1.112   1.579  1.9584 -0.3838 -1.6198
  839SOL     OW 2515   0.284   0.187   0.883  0.3077 -0.1483 -0.2054
  839SOL    HW1 2516   0.292   0.282   0.845  1.5964  1.0122  0.5386
  839SOL    HW2 2517   0.337   0.169   0.967  0.3553 -0.7245 -3.7835
  840SOL     OW 2518   0.211   0.336   2.756  0.1221 -0.0104  0.3173
  840SOL    HW1 2519   0.163   0.326   2.667  1.1421  0.6690  0.6799
  840SOL    HW2 2520   0.228   0.441   2.767 -1.8050  1.8216 -1.6917
  841SOL     OW 2521   0.077   2.527   3.049 -0.2581 -0.3491 -0.3853
  841SOL    HW1 2522   0.083   2.621   3.009 -0.5044 -0.3335 -0.6065
  841SOL    HW2 2523   0.139   2.529   0.041 -0.0749  2.1963  1.1483
  842SOL     OW 2524   0.542   0.025   0.783 -0.0499 -0.0356 -0.2061
  842SOL    HW1 2525   0.478   0.038   0.708  1.2928 -1.6613  1.1626
  842SOL    HW2 2526   0.602   0.105   0.791  1.1003  1.0569 -0.1823
  843SOL     OW 2527   0.048   1.495   2.708 -0.1505  0.3064  0.1015
  843SOL    HW1 2528   0.006   1.403   2.722 -3.2797  0.0533  0.2373
  843SOL    HW2 2529   0.045   1.521   2.606 -1.9202  1.3034 -0.0024
  844SOL     OW 2530   0.878   2.449   2.232 -0.3248  0.2389  0.3682
  844SOL    HW1 2531   0.979   2.445   2.231 -0.3925 -1.8459 -0.2024
  844SOL    HW2 2532   0.840   2.365   2.275  1.7801  1.5136  0.8809
  845SOL     OW 2533   2.172   2.505   2.582 -0.5061  0.0257 -0.7146
  845SOL    HW1 2534   2.153   2.579   2.516 -1.5840  1.3874  1.3177
  845SOL    HW2 2535   2.188   2.541   2.677  2.4550  1.1622  0.7227
  846SOL     OW 2536   1.685   1.295   2.512 -0.2875 -0.0327  0.7015
  846SOL    HW1 2537   1.608   1.317   2.574 -0.1137 -0.4605 -2.5746
  846SOL    HW2 2538   1.760   1.248   2.556 -3.3267 -0.5598 -1.2509
  847SOL     OW 2539   2.957   0.181   2.935 -0.5430 -0.0760  0.1621
  847SOL    HW1 2540   2.942   0.263   2.868 -2.8756  1.7913  0.1945
  847SOL    HW2 2541   3.025   0.200   3.008  0.9869 -0.1019  0.3245
  848SOL     OW 2542   0.276   0.866   0.252 -0.1258  0.2716 -0.0673
  848SOL    HW1 2543   0.212   0.790   0.265  0.8372  2.2314  3.0345
  848SOL    HW2 2544   0.270   0.933   0.326 -0.0188 -0.6532  0.2140
  849SOL     OW 2545   1.361   0.179   2.337 -0.0931 -0.2145  0.6877
  849SOL    HW1 2546   1.276   0.131   2.363  1.1366  0.6603 -1.9796
  849SOL    HW2 2547   1.363   0.231   2.246  1.2634 -1.0667 -0.3416
  850SOL     OW 2548   0.504   1.121   0.423  0.9396  0.7489 -0.0699
  850SOL    HW1 2549   0.514   1.185   0.344 -2.4292 -2.3516  0.0289
  850SOL    HW2 2550   0.426   1.145   0.483  0.8913  0.5231 -0.3931
  851SOL     OW 2551   0.520   1.326   0.230 -0.0327 -0.2214  0.1028
  851SOL    HW1 2552   0.516   1.404   0.293  0.4674 -0.8688  0.7642
  851SOL    HW2 2553   0.605   1.311   0.175  0.3678 -1.0540  1.8774
  852SOL     OW 2554   1.236   1.185   1.693  0.0711 -0.4169 -0.2501
  852SOL    HW1 2555   1.312   1.171   1.760 -0.1904 -2.0520 -1.5228
  852SOL    HW2 2556   1.186   1.276   1.698 -1.4614 -0.1306  0.9315
  853SOL     OW 2557   2.648   1.267   0.747  0.3848 -0.0128 -0.7536
  853SOL    HW1 2558   2.563   1.294   0.697 -0.2972  2.6629 -1.7129
  853SOL    HW2 2559   2.728   1.266   0.683 -0.5241 -0.2811  1.0156
  854SOL     OW 2560   1.486   1.141   2.344  0.9441 -0.2623 -0.4735
  854SOL    HW1 2561   1.536   1.063   2.380  1.1869 -2.4073  0.4479
  854SOL    HW2 2562   1.557   1.214   2.362  3.4925 -0.7265 -3.2847
  855SOL     OW 2563   0.145   2.556   2.715  0.5251 -0.1567 -0.3946
  855SOL    HW1 2564   0.218   2.491   2.739 -2.5594  0.7531  1.4277
  855SOL    HW2 2565   0.138   2.624   2.793  0.4870  1.6980 -1.0770
  856SOL     OW 2566   1.206   1.161   2.010  0.0278 -0.2551  0.1409
  856SOL    HW1 2567   1.120   1.135   1.962 -0.4472  1.5977 -1.2135
  856SOL    HW2 2568   1.197   1.258   2.034 -2.9587  2.0569 -1.8122
  857SOL     OW 2569   0.968   0.869   2.231  0.5654  0.2064 -0.1383
  857SOL    HW1 2570   1.046   0.825   2.188 -1.7591 -3.0554  2.1777
  857SOL    HW2 2571   0.879   0.849   2.183 -1.7965  2.7044  0.0957
  858SOL     OW 2572   3.059   1.141   1.659 -0.0997  0.0236 -0.0383
  858SOL    HW1 2573   3.042   1.164   1.757 -1.2423  3.0454 -1.4589
  858SOL    HW2 2574   0.023   1.215   1.619 -2.1807 -2.6035 -0.8181
  859SOL     OW 2575   2.671   2.876   0.670 -0.3830  0.3703  0.0486
  859SOL    HW1 2576   2.742   2.815   0.715 -1.1032 -1.7930 -4.1595
  859SOL    HW2 2577   2.664   2.852   0.571 -1.6647 -1.4147 -2.3153
  860SOL     OW 2578   1.604   0.186   0.844 -0.4895  0.0320  0.5495
  860SOL    HW1 2579   1.563   0.131   0.771  1.0044 -0.1018 -0.9436
  860SOL    HW2 2580   1.707   0.172   0.846  2.1447  0.9929 -0.5674
  861SOL     OW 2581   1.486   0.645   1.083 -0.2946 -0.5642 -0.3876
  861SOL    HW1 2582   1.394   0.643   1.136 -3.7246 -2.6773  4.4664
  861SOL    HW2 2583   1.485   0.589   0.998  3.3094  1.6576  1.0061
  862SOL     OW 2584   1.514   3.032   2.575 -0.3893 -0.1523  0.7278
  862SOL    HW1 2585   1.546   2.931   2.576  0.5032 -0.6268  0.3953
  862SOL    HW2 2586   1.563   3.083   2.503  1.3944 -2.5386  0.4657
  863SOL     OW 2587   2.871   2.802   1.023 -0.1960  0.3735 -0.5130
  863SOL    HW1 2588   2.901   2.900   1.011  0.5977 -0.7510 -1.4083
  863SOL    HW2 2589   2.856   2.763   0.930  0.9988  1.0818  0.3096
  864SOL     OW 2590   2.503   3.079   2.240 -0.1094 -0.2852 -0.2895
  864SOL    HW1 2591   2.481   3.090   2.339  3.1347  0.0533 -0.5272
  864SOL    HW2 2592   2.426   0.017   2.182 -3.4721 -1.6521 -0.7317
  865SOL     OW 2593   1.154   1.545   2.397  0.2365 -0.2434  0.0332
  865SOL    HW1 2594   1.063   1.523   2.356  0.9141 -0.1209 -1.6433
  865SOL    HW2 2595   1.141   1.601   2.479 -0.7002 -1.7060 -0.1463
  866SOL     OW 2596   2.042   2.840   0.995  0.3471  0.1376  0.3123
  866SOL    HW1 2597   1.944   2.848   1.019  0.5123  0.2001  0.7118
  866SOL    HW2 2598   2.073   2.744   0.974 -2.9101  2.1224  1.0680
  867SOL     OW 2599   2.448   2.820   0.865  0.0417 -0.5680 -0.2049
  867SOL    HW1 2600   2.534   2.819   0.805  3.2479 -1.9116 -1.5272
  867SOL    HW2 2601   2.378   2.747   0.828 -1.6289 -2.2455 -1.7342
  868SOL     OW 2602   3.056   1.848   1.532  0.2400  0.2558 -0.4147
  868SOL    HW1 2603   2.960   1.849   1.501  0.2078  2.4291  0.9832
  868SOL    HW2 2604   3.063   1.887   1.626 -0.4873 -0.1631 -1.9589
  869SOL     OW 2605   1.705   2.190   2.346  0.6932  0.6537  0.3056
  869SOL    HW1 2606   1.714   2.243   2.434  1.4473  1.4554 -1.8081
  869SOL    HW2 2607   1.740   2.094   2.344 -2.2683  0.9312 -0.9567
  870SOL     OW 2608   1.245   1.248   0.833  0.7468  0.7485  0.0599
  870SOL    HW1 2609   1.291   1.158   0.835 -0.7183  0.5042  1.6951
  870SOL    HW2 2610   1.314   1.323   0.841  1.8168 -0.3540  1.9441
  871SOL     OW 2611   2.818   1.656   2.034 -0.0880  0.6968  0.3643
  871SOL    HW1 2612   2.822   1.749   2.068  1.0149 -2.1058  0.4840
  871SOL    HW2 2613   2.860   1.593   2.105 -0.9410  0.9575 -0.0754
  872SOL     OW 2614   1.081   1.414   2.759 -0.0679  0.6573  0.3189
  872SOL    HW1 2615   1.112   1.435   2.852 -0.6238 -1.8477 -1.4039
  872SOL    HW2 2616   1.006   1.477   2.731  1.1535  0.1041  1.9496
  873SOL     OW 2617   0.942   1.317   1.860  0.2383 -0.0465 -0.1030
  873SOL    HW1 2618   0.878   1.246   1.825  1.6455  0.5495 -0.5531
  873SOL    HW2 2619   0.979   1.374   1.781  0.9323  2.2988  1.5666
  874SOL     OW 2620   1.672   0.907   1.659 -0.1716 -0.2473  0.2639
  874SOL    HW1 2621   1.747   0.892   1.587  4.4788 -0.8795 -0.0188
  874SOL    HW2 2622   1.657   1.009   1.668  0.0030 -2.0657  1.8409
  875SOL     OW 2623   3.080   0.323   0.054  0.0975 -0.0588 -0.4875
  875SOL    HW1 2624   3.040   0.263   0.130  1.7715  0.0804  2.9861
  875SOL    HW2 2625   3.050   0.419   0.066  0.0258  1.5795 -0.3492
  876SOL     OW 2626   0.882   1.131   0.181 -0.3221  0.4007 -0.0104
  876SOL    HW1 2627   0.912   1.189   0.261 -1.7159  0.0959 -0.3722
  876SOL    HW2 2628   0.969   1.099   0.134  2.1976 -1.6465 -0.6710
  877SOL     OW 2629   2.321   2.750   0.489  0.2703 -0.1530 -0.3921
  877SOL    HW1 2630   2.245   2.705   0.437 -0.2944 -1.3316  1.2058
  877SOL    HW2 2631   2.304   2.849   0.505 -2.1019 -0.2241  0.3519
  878SOL     OW 2632   1.915   1.912   0.206 -0.0029 -0.4105  0.3517
  878SOL    HW1 2633   1.989   1.958   0.257  0.2841 -0.8879 -0.6227
  878SOL    HW2 2634   1.835   1.971   0.177  0.0179  0.1939  0.1538
  879SOL     OW 2635   0.245   1.673   1.820 -0.8045 -0.2893  0.3473
  879SOL    HW1 2636   0.261   1.618   1.906  2.3974 -4.3865 -2.1666
  879SOL    HW2 2637   0.223   1.615   1.744 -0.9336 -1.6998 -1.0794
  880SOL     OW 2638   0.369   1.973   0.952 -0.1229  0.8234 -0.0920
  880SOL    HW1 2639   0.292   2.039   0.949  0.8882  1.6481 -0.6953
  880SOL    HW2 2640   0.347   1.884   1.002 -2.2166 -1.9220  1.6230
  881SOL     OW 2641   1.371   0.318   2.096  0.0183  0.6352  0.1409
  881SOL    HW1 2642   1.455   0.375   2.094 -0.7322  2.0387  0.3869
  881SOL    HW2 2643   1.294   0.372   2.062 -0.0329  2.6752  0.0209
  882SOL     OW 2644   2.206   0.890   1.010 -0.2606  0.1883  0.5222
  882SOL    HW1 2645   2.290   0.933   0.966 -1.0335 -2.2687  0.3170
  882SOL    HW2 2646   2.233   0.849   1.099 -0.5834 -0.7736 -1.0174
  883SOL     OW 2647   1.569   0.194   1.863  0.0036 -0.1863 -0.0872
  883SOL    HW1 2648   1.558   0.293   1.892  2.0377 -1.0847  1.4788
  883SOL    HW2 2649   1.496   0.135   1.901  1.7494  2.1613  1.7195
  884SOL     OW 2650   2.855   0.048   1.857 -0.1534  0.7042  0.2133
  884SOL    HW1 2651   2.775   0.067   1.918  1.3924 -0.7770 -0.6207
  884SOL    HW2 2652   2.939   0.033   1.915  0.4633  0.9209  0.3151
  885SOL     OW 2653   1.497   1.337   2.719  0.5141  0.2623 -0.1475
  885SOL    HW1 2654   1.546   1.427   2.736  0.4367  1.1536 -0.4322
  885SOL    HW2 2655   1.420   1.347   2.654 -0.6583 -0.5487 -0.6721
  886SOL     OW 2656   2.204   0.634   2.792  0.2612  0.5224 -0.0369
  886SOL    HW1 2657   2.241   0.568   2.860  0.4819 -1.2345  1.2805
  886SOL    HW2 2658   2.141   0.594   2.725 -1.2688 -2.1538  0.9296
  887SOL     OW 2659   1.065   2.954   1.769  0.6163 -0.3643  0.4679
  887SOL    HW1 2660   1.144   2.960   1.712 -2.2991  1.6728 -0.2845
  887SOL    HW2 2661   1.058   2.862   1.810  0.7348 -1.6426  0.2029
  888SOL     OW 2662   2.006   1.814   2.150  0.2777 -0.0958 -0.5706
  888SOL    HW1 2663   1.939   1.752   2.100 -1.1286  0.0015  0.3944
  888SOL    HW2 2664   2.083   1.760   2.182  0.1398  0.6536 -0.3371
  889SOL     OW 2665   1.924   2.386   1.290  0.0289 -0.5782  0.4703
  889SOL    HW1 2666   1.894   2.359   1.380 -1.7065 -0.2536 -0.6877
  889SOL    HW2 2667   2.027   2.382   1.280  2.9947  2.6160 -1.6093
  890SOL     OW 2668   1.268   1.634   1.125 -0.6217  0.2203  0.7356
  890SOL    HW1 2669   1.263   1.674   1.218  2.2095 -2.4143 -0.6670
  890SOL    HW2 2670   1.184   1.641   1.070 -1.1592 -1.8722  0.1314
  891SOL     OW 2671   2.755   1.335   0.282 -0.1603  0.3372 -1.0259
  891SOL    HW1 2672   2.726   1.248   0.234  0.3768 -0.7763  1.0668
  891SOL    HW2 2673   2.832   1.320   0.348  0.9478 -1.9597  2.2702
  892SOL     OW 2674   2.333   1.386   0.136  0.3602 -0.4605 -0.7889
  892SOL    HW1 2675   2.321   1.366   0.037  0.4404  0.4456  2.6093
  892SOL    HW2 2676   2.319   1.482   0.159  0.2939 -1.2303 -1.7327
  893SOL     OW 2677   1.909   2.462   1.567 -0.3078 -0.6963  0.4186
  893SOL    HW1 2678   1.923   2.556   1.531  0.1595  3.1722  0.6417
  893SOL    HW2 2679   1.988   2.434   1.623 -5.6625  1.9503 -0.8608
  894SOL     OW 2680   2.609   2.760   0.397 -0.7227  0.1244  0.1531
  894SOL    HW1 2681   2.634   2.711   0.309  1.7812  1.4278 -2.4494
  894SOL    HW2 2682   2.510   2.750   0.420 -1.5126 -1.5366 -0.3723
  895SOL     OW 2683   2.803   2.517   2.709  0.3451 -0.1700 -0.4792
  895SOL    HW1 2684   2.787   2.615   2.681  2.2175  2.0482 -1.4309
  895SOL    HW2 2685   2.739   2.456   2.652 -0.1631  0.9324  0.2864
  896SOL     OW 2686   2.410   0.158   2.732  0.2151  0.1259  0.1858
  896SOL    HW1 2687   2.462   0.236   2.764 -1.5984 -1.1942 -1.8670
  896SOL    HW2 2688   2.311   0.177   2.741  0.1328 -0.4336  1.4788
  897SOL     OW 2689   0.566   1.668   2.047 -0.1642  0.4910  0.1049
  897SOL    HW1 2690   0.663   1.686   2.077  1.8374 -1.0374  0.8242
  897SOL    HW2 2691   0.515   1.623   2.124  1.2497  1.6022  0.8736
  898SOL     OW 2692   2.674   1.680   1.593 -0.0121 -0.3826 -0.2707
  898SOL    HW1 2693   2.699   1.707   1.689 -1.4698  0.4411  0.3378
  898SOL    HW2 2694   2.575   1.709   1.582  0.8265  0.4655 -0.9954
  899SOL     OW 2695   1.682   2.791   1.433  0.3496  0.2497  0.1109
  899SOL    HW1 2696   1.705   2.710   1.378 -0.9334  0.4207  1.9763
  899SOL    HW2 2697   1.754   2.812   1.499 -0.5296 -0.0425  1.7032
  900SOL     OW 2698   1.143   1.087   0.103  0.4039 -0.0888 -0.5211
  900SOL    HW1 2699   1.121   1.010   0.040 -0.8951 -1.8314 -1.0330
  900SOL    HW2 2700   1.217   1.052   0.163 -1.6088 -0.9212 -2.1113
  901SOL     OW 2701   1.026   1.122   2.513  0.0091  0.3637  0.0940
  901SOL    HW1 2702   1.080   1.203   2.481 -1.4438  1.1913  0.2422
  901SOL    HW2 2703   1.062   1.032   2.488  0.0572  0.7634 -0.1179
  902SOL     OW 2704   2.543   2.064   0.561 -0.0429 -0.4385  0.0993
  902SOL    HW1 2705   2.478   2.081   0.636 -2.1330  0.7974 -0.2325
  902SOL    HW2 2706   2.638   2.077   0.594  2.4007  0.8596 -2.6316
  903SOL     OW 2707   2.584   1.331   1.854  0.2882  0.0324 -0.3172
  903SOL    HW1 2708   2.648   1.402   1.822  0.0115 -1.5133  1.3142
  903SOL    HW2 2709   2.592   1.247   1.795  1.8096  0.4214  1.2885
  904SOL     OW 2710   2.204   1.010   0.484  0.0602  0.1612  0.6184
  904SOL    HW1 2711   2.279   1.039   0.422 -0.9377 -0.2833  1.9437
  904SOL    HW2 2712   2.128   1.079   0.488 -0.5994  1.7301 -0.4795
  905SOL     OW 2713   2.216   2.517   1.164  0.2143  0.2202  0.2414
  905SOL    HW1 2714   2.188   2.608   1.195  1.1691 -2.3850 -0.8026
  905SOL    HW2 2715   2.204   2.450   1.239 -2.1600 -1.0504  4.0252
  906SOL     OW 2716   1.458   2.061   2.870  0.4993 -0.1362 -0.3957
  906SOL    HW1 2717   1.355   2.045   2.860 -1.8692 -0.0497 -3.7097
  906SOL    HW2 2718   1.509   2.058   2.786 -0.4861 -0.9578 -1.4561
  907SOL     OW 2719   0.873   2.473   0.834 -0.5782 -0.7761  0.3107
  907SOL    HW1 2720   0.975   2.486   0.846  0.7915 -0.3358  2.0216
  907SOL    HW2 2721   0.854   2.456   0.733 -0.8468 -0.8363 -1.5184
  908SOL     OW 2722   0.972   3.037   2.172 -0.0204 -0.1284 -0.0490
  908SOL    HW1 2723   0.982   2.939   2.146  0.5301  2.4869 -0.3833
  908SOL    HW2 2724   1.005   0.004   2.099 -3.8708  1.9792  0.3746
  909SOL     OW 2725   1.836   0.322   1.831  0.7712  0.0931  0.5004
  909SOL    HW1 2726   1.738   0.298   1.837  1.9506  0.8407  0.4687
  909SOL    HW2 2727   1.856   0.394   1.904 -0.8576  1.3709  1.7535
  910SOL     OW 2728   1.161   0.622   2.563  0.0755  0.4634 -0.4317
  910SOL    HW1 2729   1.261   0.596   2.555  1.9184 -0.2278 -1.0402
  910SOL    HW2 2730   1.142   0.705   2.504  0.5487 -0.0767  0.1401
  911SOL     OW 2731   2.992   0.563   0.105 -0.3637 -1.2821 -0.3121
  911SOL    HW1 2732   2.940   0.649   0.085  3.3049 -1.4743  0.2262
  911SOL    HW2 2733   3.055   0.585   0.184 -3.0809  0.4682  2.3653
  912SOL     OW 2734   2.724   2.439   2.993 -0.8124 -0.7159 -0.5222
  912SOL    HW1 2735   2.747   2.442   2.894 -0.4714  0.2547 -0.6570
  912SOL    HW2 2736   2.792   2.490   3.047 -2.9872  2.6034  0.6836
  913SOL     OW 2737   2.731   2.027   2.816 -0.3169  0.4176 -0.2105
  913SOL    HW1 2738   2.644   2.066   2.772 -0.1185 -0.7299 -1.7054
  913SOL    HW2 2739   2.800   2.035   2.743 -2.1093  1.1814 -0.9566
  914SOL     OW 2740   1.711   1.697   1.709  0.3184 -0.3036 -0.0186
  914SOL    HW1 2741   1.647   1.775   1.704  2.2846  1.9971  0.5517
  914SOL    HW2 2742   1.782   1.701   1.635  1.9757 -2.3419 -0.5505
  915SOL     OW 2743   0.179   2.567   2.037 -0.4374 -0.4018 -0.4408
  915SOL    HW1 2744   0.244   2.505   1.990 -0.2343  4.1993 -1.4004
  915SOL    HW2 2745   0.206   2.582   2.132  0.7238 -0.0855  0.6809
  916SOL     OW 2746   0.561   1.452   1.432  0.0167 -0.6702 -0.3101
  916SOL    HW1 2747   0.474   1.496   1.418  0.7918  2.2667  0.8164
  916SOL    HW2 2748   0.565   1.365   1.383 -0.4588  0.0603  2.6705
  917SOL     OW 2749   2.703   0.266   3.004  0.0651 -0.1218  0.6661
  917SOL    HW1 2750   2.654   0.332   2.945  0.0987 -0.8681 -1.9100
  917SOL    HW2 2751   2.793   0.240   2.965  0.9275 -1.3393  0.9668
  918SOL     OW 2752   1.572   2.539   2.360 -0.2738 -0.3741 -0.7105
  918SOL    HW1 2753   1.481   2.561   2.402 -2.0265  0.4398 -0.9870
  918SOL    HW2 2754   1.624   2.624   2.333 -0.2306  0.2113 -1.9746
  919SOL     OW 2755   1.692   2.422   1.945  0.6104 -0.3330 -0.0076
  919SOL    HW1 2756   1.682   2.401   1.845 -1.8427 -1.1996 -0.2056
  919SOL    HW2 2757   1.744   2.354   1.997 -1.8898 -0.9531  1.6603
  920SOL     OW 2758   0.811   0.779   3.082  0.5151  0.2258 -0.2259
  920SOL    HW1 2759   0.784   0.840   3.003  1.4027 -0.9185 -0.0514
  920SOL    HW2 2760   0.780   0.819   0.078  1.3050  1.1597 -0.3991
  921SOL     OW 2761   0.046   0.872   2.448 -0.5231 -0.0631 -0.4719
  921SOL    HW1 2762   3.037   0.886   2.443  0.8703 -4.4100 -1.2070
  921SOL    HW2 2763   0.080   0.810   2.371  0.2433  3.7170  0.6930
  922SOL     OW 2764   0.279   1.788   0.225 -0.3410  0.7526  0.7802
  922SOL    HW1 2765   0.349   1.857   0.202 -1.8056  0.5967  2.5892
  922SOL    HW2 2766   0.222   1.817   0.303 -0.3168 -3.4825  0.9511
  923SOL     OW 2767   0.484   1.041   1.726  0.6461 -0.4475  0.4239
  923SOL    HW1 2768   0.430   1.041   1.813 -0.3007 -1.0145  0.9074
  923SOL    HW2 2769   0.477   0.946   1.696 -1.0005  2.5660 -1.2554
  924SOL     OW 2770   1.323   2.960   2.932 -0.1051  0.1650  0.2718
  924SOL    HW1 2771   1.351   3.028   2.863 -2.3229 -2.9854 -2.0129
  924SOL    HW2 2772   1.233   2.922   2.906 -1.2334 -1.2240 -1.3459
  925SOL     OW 2773   2.294   1.397   1.384 -0.4872 -0.2681  0.4383
  925SOL    HW1 2774   2.202   1.369   1.355  0.8793  0.2339 -1.2081
  925SOL    HW2 2775   2.298   1.422   1.486 -1.0941  2.3463  0.2267
  926SOL     OW 2776   2.183   0.309   2.058  0.1882 -0.0050  0.1281
  926SOL    HW1 2777   2.171   0.356   1.967 -0.1702 -0.9111 -0.8126
  926SOL    HW2 2778   2.138   0.363   2.134  0.0618  1.0865  1.1630
  927SOL     OW 2779   2.684   2.469   1.575  0.6987  0.1513 -0.0559
  927SOL    HW1 2780   2.727   2.550   1.524  2.8148 -0.9688  1.7502
  927SOL    HW2 2781   2.715   2.380   1.532  0.7232  0.1327  2.0121
  928SOL     OW 2782   0.555   0.974   2.556  0.0745 -0.0799  0.7641
  928SOL    HW1 2783   0.476   0.993   2.617  2.2581 -0.9717  1.7438
  928SOL    HW2 2784   0.585   1.052   2.498  2.0176  0.6974  0.8469
  929SOL     OW 2785   2.511   0.035   0.672  0.1082  0.6118 -0.3765
  929SOL    HW1 2786   2.581   3.053   0.671  0.4571 -1.1403 -1.1644
  929SOL    HW2 2787   2.416   3.091   0.654 -2.1542 -2.2028 -1.4507
  930SOL     OW 2788   2.673   0.246   1.616 -0.2955  0.0053 -0.2080
  930SOL    HW1 2789   2.625   0.171   1.672 -1.6860 -2.4213  1.6844
  930SOL    HW2 2790   2.760   0.215   1.577 -2.3122 -0.5724  2.4277
  931SOL     OW 2791   2.310   1.111   0.232  0.2228  0.5145  0.6859
  931SOL    HW1 2792   2.300   1.195   0.183 -1.0842  1.4560  2.3340
  931SOL    HW2 2793   2.400   1.100   0.277 -1.6779 -2.5638 -1.5655
  932SOL     OW 2794   2.324   1.466   1.657 -0.4613  0.0863 -0.3149
  932SOL    HW1 2795   2.329   1.360   1.673  1.4790 -0.7121 -0.1095
  932SOL    HW2 2796   2.353   1.515   1.746 -0.3115 -0.9228  1.3246
  933SOL     OW 2797   2.832   2.320   1.123 -0.5011 -0.4592 -0.1667
  933SOL    HW1 2798   2.869   2.406   1.083 -0.7285  1.8988 -1.0916
  933SOL    HW2 2799   2.905   2.249   1.099  0.3325 -1.3620 -3.3363
  934SOL     OW 2800   0.588   2.174   1.359 -0.4779 -0.0626 -0.1837
  934SOL    HW1 2801   0.641   2.205   1.279  0.4610 -0.0338 -0.4703
  934SOL    HW2 2802   0.490   2.193   1.340 -0.9809  0.3624 -0.1194
  935SOL     OW 2803   2.562   1.250   2.107 -0.3567  0.0787  0.0145
  935SOL    HW1 2804   2.500   1.170   2.115  0.5574 -1.1110 -1.3553
  935SOL    HW2 2805   2.559   1.288   2.013  0.8650  0.9081 -0.9042
  936SOL     OW 2806   2.426   1.545   1.904 -0.7857  0.4561  0.2931
  936SOL    HW1 2807   2.491   1.623   1.912 -0.3445 -1.7763  1.4580
  936SOL    HW2 2808   2.473   1.455   1.884  0.0578 -2.1158  0.5225
  937SOL     OW 2809   2.004   1.102   2.014  0.0245 -0.2947 -0.3954
  937SOL    HW1 2810   1.968   1.137   2.101  0.0065  1.3079 -1.4016
  937SOL    HW2 2811   2.096   1.144   2.000 -0.5786  0.1900  2.5272
  938SOL     OW 2812   0.917   2.331   2.704  0.2214  0.4090 -0.3316
  938SOL    HW1 2813   0.931   2.285   2.795  0.1896 -0.5438  0.5573
  938SOL    HW2 2814   0.999   2.314   2.648  0.5306 -0.4263  1.3943
  939SOL     OW 2815   2.659   0.987   3.002 -0.3078 -0.0498  0.0867
  939SOL    HW1 2816   2.704   0.986   2.902 -0.0805 -0.8550 -3.4949
  939SOL    HW2 2817   2.595   0.905   3.015 -2.5558 -0.2485 -0.9501
  940SOL     OW 2818   0.883   1.795   0.775 -0.0419 -0.2720  0.2039
  940SOL    HW1 2819   0.856   1.755   0.684  2.1192  1.8331 -3.7239
  940SOL    HW2 2820   0.836   1.755   0.858 -1.0088  0.7474  2.0914
  941SOL     OW 2821   0.781   2.584   2.028 -0.0498  0.4743  0.2530
  941SOL    HW1 2822   0.698   2.627   2.073  1.4233 -0.4683 -0.5458
  941SOL    HW2 2823   0.822   2.521   2.097 -1.5998 -1.3075 -0.0993
  942SOL     OW 2824   0.635   2.200   0.041 -0.0359 -0.4698  0.3315
  942SOL    HW1 2825   0.595   2.295   0.041  0.1528  3.3018 -2.3100
  942SOL    HW2 2826   0.717   2.193   0.093 -1.6229 -0.7881 -1.4461
  943SOL     OW 2827   1.849   2.655   1.979  0.2173  0.1840  0.1658
  943SOL    HW1 2828   1.832   2.551   1.978  2.6842 -1.1810  0.1195
  943SOL    HW2 2829   1.918   2.685   1.911  0.4784  0.5819 -0.3908
  944SOL     OW 2830   1.047   1.499   3.041 -0.1677  0.1206  0.3918
  944SOL    HW1 2831   1.134   1.478   3.088 -0.8986  1.2846 -2.8101
  944SOL    HW2 2832   0.972   1.526   0.013  1.5648 -2.4477  1.1995
  945SOL     OW 2833   2.854   2.714   0.755 -0.4149 -0.2690 -0.5222
  945SOL    HW1 2834   2.795   2.633   0.766  0.1092 -0.4802  1.4887
  945SOL    HW2 2835   2.937   2.696   0.700  0.1670 -0.1887 -0.9070
  946SOL     OW 2836   1.065   1.720   2.582  0.7918  0.3967 -0.2703
  946SOL    HW1 2837   1.118   1.756   2.665  2.2961 -0.0533  2.8998
  946SOL    HW2 2838   0.967   1.701   2.607 -1.3353 -1.9526 -0.0456
  947SOL     OW 2839   2.815   0.380   1.825  0.0810  0.1520  0.2104
  947SOL    HW1 2840   2.759   0.317   1.768 -0.1489  0.3317  0.6794
  947SOL    HW2 2841   2.755   0.430   1.894 -0.7980  1.2685  1.2188
  948SOL     OW 2842   0.092   1.859   1.073 -0.0157 -0.1952 -0.0572
  948SOL    HW1 2843   0.014   1.796   1.107 -0.6414  1.8851  1.0329
  948SOL    HW2 2844   0.078   1.950   1.112 -0.4560 -0.6424 -1.4598
  949SOL     OW 2845   0.752   0.794   1.818 -0.0276 -0.0272 -0.1091
  949SOL    HW1 2846   0.836   0.746   1.843  1.8291 -1.0195 -0.5444
  949SOL    HW2 2847   0.781   0.856   1.742  0.1964  0.0866  0.0858
  950SOL     OW 2848   0.056   0.923   1.483  0.2538  0.0403 -0.0547
  950SOL    HW1 2849   0.014   1.001   1.536  0.4390  0.0722 -1.5946
  950SOL    HW2 2850   3.079   0.857   1.462  0.8191  0.8417  0.1251
  951SOL     OW 2851   0.775   1.757   2.237  0.3674 -0.3864 -0.3422
  951SOL    HW1 2852   0.716   1.799   2.310 -0.0221  1.9600  0.6073
  951SOL    HW2 2853   0.849   1.817   2.200  0.5274 -1.5487 -1.3453
  952SOL     OW 2854   1.469   2.186   0.735 -0.3359  0.1060  0.3498
  952SOL    HW1 2855   1.488   2.146   0.645 -0.3326 -0.0147  1.3060
  952SOL    HW2 2856   1.380   2.152   0.770 -2.7146 -0.0380  3.4672
  953SOL     OW 2857   1.030   0.686   0.162 -0.0041  0.5917 -0.6465
  953SOL    HW1 2858   1.039   0.613   0.235  1.0603  2.1329 -1.1662
  953SOL    HW2 2859   0.936   0.698   0.128  0.6325  0.5625 -1.1388
  954SOL     OW 2860   1.959   0.879   1.145 -0.2810 -0.4063  0.4552
  954SOL    HW1 2861   2.041   0.871   1.088 -2.0855 -1.8096  0.9084
  954SOL    HW2 2862   1.879   0.839   1.101  2.3170  0.9668  2.4728
  955SOL     OW 2863   2.430   1.418   0.633 -0.3598 -0.3215  0.1109
  955SOL    HW1 2864   2.501   1.494   0.638  0.7297 -0.5140 -2.6439
  955SOL    HW2 2865   2.340   1.466   0.638  0.0274  0.7508 -0.7853
  956SOL     OW 2866   0.743   0.325   1.729 -0.4043  0.0324 -0.0516
  956SOL    HW1 2867   0.746   0.283   1.823 -2.5201 -0.0281  1.7950
  956SOL    HW2 2868   0.838   0.350   1.695  0.2229 -1.8270  1.8699
  957SOL     OW 2869   1.908   0.238   1.152 -0.1969 -0.2043  0.1374
  957SOL    HW1 2870   1.827   0.278   1.196  0.9794  0.8515 -0.8155
  957SOL    HW2 2871   1.942   0.157   1.208 -2.0837  0.7282  1.9129
  958SOL     OW 2872   0.167   2.225   0.597 -0.4518  0.5632  0.6924
  958SOL    HW1 2873   0.150   2.147   0.529 -0.5180 -1.8862 -2.5164
  958SOL    HW2 2874   0.268   2.222   0.621 -0.6440 -2.0926  2.0160
  959SOL     OW 2875   2.231   1.245   1.958  0.3053  0.1323 -0.1759
  959SOL    HW1 2876   2.212   1.340   1.936  2.0503 -1.4864  2.4132
  959SOL    HW2 2877   2.286   1.214   1.878 -0.3888 -0.6918 -2.9019
  960SOL     OW 2878   0.008   1.875   2.768  0.8995 -0.0549  0.2683
  960SOL    HW1 2879   0.106   1.884   2.787 -0.5667  4.3378 -0.5945
  960SOL    HW2 2880   3.056   1.784   2.778  0.4375  0.7023 -0.4243
  961SOL     OW 2881   0.623   1.695   1.268 -0.0992 -0.4409  0.1484
  961SOL    HW1 2882   0.609   1.614   1.333  1.5797 -0.3599  0.4141
  961SOL    HW2 2883   0.644   1.779   1.325 -1.7413  0.4448  0.8061
  962SOL     OW 2884   0.845   1.447   0.869  0.4713 -0.1272  0.6624
  962SOL    HW1 2885   0.790   1.364   0.844 -0.2516 -2.0690  1.8529
  962SOL    HW2 2886   0.934   1.447   0.823 -0.3444  0.5280 -0.1948
  963SOL     OW 2887   0.976   2.126   2.436 -0.4901 -0.2606  0.2972
  963SOL    HW1 2888   1.018   2.033   2.418  0.0833  0.9020 -1.2823
  963SOL    HW2 2889   1.033   2.175   2.505  0.7668 -0.6309  0.7741
  964SOL     OW 2890   0.241   2.823   1.897 -0.0461 -0.1006 -0.4758
  964SOL    HW1 2891   0.173   2.830   1.825  1.8615  0.9031  3.0965
  964SOL    HW2 2892   0.242   2.727   1.934  0.3942 -2.5374 -0.7557
  965SOL     OW 2893   0.598   2.073   2.883  0.3291 -0.3161 -0.0626
  965SOL    HW1 2894   0.617   2.131   2.965  2.3900  2.6128  0.1675
  965SOL    HW2 2895   0.594   1.975   2.916  1.2136  2.3160 -2.3326
  966SOL     OW 2896   2.998   1.497   0.077  0.5164 -0.7057 -0.4625
  966SOL    HW1 2897   2.956   1.430   0.144 -0.0034 -4.1245  2.1823
  966SOL    HW2 2898   2.993   1.459   3.076 -2.0556  0.9356 -1.0348
  967SOL     OW 2899   2.119   3.084   0.164 -0.3140  0.5830  0.0682
  967SOL    HW1 2900   2.219   3.084   0.181 -0.1770  0.8707  1.4469
  967SOL    HW2 2901   2.073   3.018   0.230 -1.5785 -0.8121  2.7793
  968SOL     OW 2902   2.242   3.026   0.933  0.2222 -0.1924  0.5463
  968SOL    HW1 2903   2.166   2.958   0.953  0.7321 -0.5229  0.1474
  968SOL    HW2 2904   2.327   2.981   0.900 -2.0019  2.2630  1.3604
  969SOL     OW 2905   0.381   1.027   1.978  0.5873  0.6407 -0.1892
  969SOL    HW1 2906   0.297   0.972   1.979 -2.1028  0.9930 -1.6369
  969SOL    HW2 2907   0.452   0.975   2.030  0.2000  0.6368  0.4831
  970SOL     OW 2908   1.651   1.505   0.243 -0.0522 -0.0392  0.0588
  970SOL    HW1 2909   1.698   1.571   0.298  0.8756 -1.2365 -2.2242
  970SOL    HW2 2910   1.599   1.438   0.295 -0.6842  0.3704  0.0917
  971SOL     OW 2911   2.562   2.819   1.430 -0.1542  0.3727  0.2857
  971SOL    HW1 2912   2.502   2.808   1.513  0.4632 -2.3287  0.7430
  971SOL    HW2 2913   2.546   2.907   1.380 -0.1181  0.0198 -0.1841
  972SOL     OW 2914   2.779   0.172   1.303 -0.7841  0.3446 -0.2656
  972SOL    HW1 2915   2.712   0.122   1.243 -1.4267  1.4501 -1.0991
  972SOL    HW2 2916   2.776   0.274   1.288  2.3681  0.0514  3.8644
  973SOL     OW 2917   0.501   0.534   2.869  0.0962 -0.4340  0.3326
  973SOL    HW1 2918   0.548   0.594   2.802 -1.6446 -0.9160 -1.8591
  973SOL    HW2 2919   0.405   0.545   2.851  0.7306  1.0879  3.0225
  974SOL     OW 2920   2.611   0.917   2.013  0.0980  0.0730  0.3836
  974SOL    HW1 2921   2.613   0.876   1.920  2.8577 -2.1155  0.9469
  974SOL    HW2 2922   2.522   0.929   2.058 -1.4289 -0.6307 -0.9449
  975SOL     OW 2923   1.002   0.329   1.622 -0.5009  0.1170  0.0965
  975SOL    HW1 2924   1.008   0.305   1.526 -3.4360  0.8065  1.2856
  975SOL    HW2 2925   1.068   0.288   1.685  0.9179  1.6766 -0.4975
  976SOL     OW 2926   1.237   1.757   1.364  0.4134  0.2801  0.2362
  976SOL    HW1 2927   1.307   1.821   1.397 -2.9078 -1.1402  2.8611
  976SOL    HW2 2928   1.142   1.774   1.394 -0.0396 -1.2539 -1.9886
  977SOL     OW 2929   1.035   2.886   0.093 -0.6029 -0.2166  0.0456
  977SOL    HW1 2930   1.004   2.959   0.160 -3.1509 -0.4297 -1.0005
  977SOL    HW2 2931   0.980   2.877   0.007  3.2215  3.1868  1.1239
  978SOL     OW 2932   2.363   1.067   2.117 -0.7747  0.3102  0.1127
  978SOL    HW1 2933   2.303   0.999   2.162 -2.0175 -2.8165 -1.1378
  978SOL    HW2 2934   2.304   1.127   2.057  4.0392 -1.4573  1.5546
  979SOL     OW 2935   1.517   0.459   1.807  0.0701  0.4578  0.5228
  979SOL    HW1 2936   1.551   0.556   1.810 -1.0169  2.4289 -1.6709
  979SOL    HW2 2937   1.463   0.456   1.720  0.2116  1.5457  0.3888
  980SOL     OW 2938   1.509   1.552   1.857  0.2812  0.1909  0.3182
  980SOL    HW1 2939   1.595   1.577   1.806 -2.5492 -1.2538  0.7583
  980SOL    HW2 2940   1.494   1.618   1.935 -0.0441  0.5318  1.4339
  981SOL     OW 2941   2.162   0.706   1.514 -0.1515  0.0427  0.2079
  981SOL    HW1 2942   2.075   0.709   1.455 -0.0337 -0.7719 -1.5426
  981SOL    HW2 2943   2.157   0.750   1.607 -0.5640 -0.7913  1.6853
  982SOL     OW 2944   0.749   0.174   2.800 -0.2267 -0.7839 -0.4686
  982SOL    HW1 2945   0.657   0.220   2.796  1.4799  0.2230 -1.3604
  982SOL    HW2 2946   0.786   0.162   2.894 -0.9679  0.3388  0.3368
  983SOL     OW 2947   2.333   0.845   2.836 -0.5275  0.1112 -0.2611
  983SOL    HW1 2948   2.260   0.775   2.820  2.4860  0.0740  2.0882
  983SOL    HW2 2949   2.384   0.823   2.922  1.0665  1.6675  0.0661
  984SOL     OW 2950   0.803   0.194   1.975 -0.0380 -0.4647 -0.4826
  984SOL    HW1 2951   0.891   0.148   1.956 -0.7650  0.6383  0.6120
  984SOL    HW2 2952   0.796   0.218   2.075  1.5006 -0.5122 -2.8940
  985SOL     OW 2953   1.647   1.974   1.937  0.1146 -0.9168  0.1049
  985SOL    HW1 2954   1.618   1.953   1.843 -0.3866  1.1567  2.4584
  985SOL    HW2 2955   1.747   1.985   1.935 -1.3733  2.2001  1.1654
  986SOL     OW 2956   2.424   2.900   1.685 -0.2702 -0.1954 -0.1037
  986SOL    HW1 2957   2.484   2.850   1.755  0.6329  2.4037  3.9084
  986SOL    HW2 2958   2.446   2.999   1.694  0.2540  0.0511 -1.7166
  987SOL     OW 2959   2.041   1.317   1.263  0.0043  0.5128 -0.0309
  987SOL    HW1 2960   2.077   1.377   1.191 -2.8873 -1.4700  0.9320
  987SOL    HW2 2961   1.949   1.349   1.295 -0.6188  1.8058  0.6821
  988SOL     OW 2962   2.619   1.736   1.884 -0.1009 -0.4979 -0.2331
  988SOL    HW1 2963   2.574   1.808   1.941 -3.5922  1.7006 -0.2520
  988SOL    HW2 2964   2.692   1.690   1.935 -1.8417 -3.6364 -0.1279
  989SOL     OW 2965   1.230   2.486   2.991 -0.0125  1.0113  0.3397
  989SOL    HW1 2966   1.216   2.547   3.068 -2.8427 -0.0010 -1.1414
  989SOL    HW2 2967   1.281   2.404   3.025  0.9461  0.8701  0.1612
  990SOL     OW 2968   2.041   0.937   2.828  0.2594  0.1383 -0.9153
  990SOL    HW1 2969   2.095   0.890   2.904  1.0202 -1.9832  0.5368
  990SOL    HW2 2970   2.049   1.038   2.833  2.1260 -1.3460  2.4132
  991SOL     OW 2971   1.018   0.501   0.716 -0.5285 -0.1780 -0.0027
  991SOL    HW1 2972   0.981   0.561   0.638 -0.7938  0.9708  0.6586
  991SOL    HW2 2973   0.996   0.535   0.809 -0.6429 -1.2763 -2.4356
  992SOL     OW 2974   2.271   0.803   1.276 -0.0477 -0.3014 -0.1429
  992SOL    HW1 2975   2.312   0.897   1.290 -0.1440  1.2810 -0.9937
  992SOL    HW2 2976   2.236   0.765   1.362  0.4797  0.3671 -3.1301
  993SOL     OW 2977   2.518   0.834   1.766  0.2787 -0.7462  0.5015
  993SOL    HW1 2978   2.522   0.748   1.717  0.2845  1.5514  2.5009
  993SOL    HW2 2979   2.421   0.861   1.771 -0.5003  0.2218  0.8820
  994SOL     OW 2980   0.653   1.815   2.466 -0.2049  0.1165  0.1904
  994SOL    HW1 2981   0.637   1.913   2.484  0.2014 -0.2893 -0.9739
  994SOL    HW2 2982   0.564   1.771   2.458  1.7738  1.2486 -2.4762
  995SOL     OW 2983   2.047   1.224   2.837 -0.0610 -0.3779  0.0680
  995SOL    HW1 2984   2.033   1.291   2.763  1.0997 -0.5723 -2.5364
  995SOL    HW2 2985   2.124   1.256   2.899 -0.6115 -1.5908 -0.9749
  996SOL     OW 2986   2.243   1.799   0.430  0.3626 -0.0159  0.5309
  996SOL    HW1 2987   2.204   1.729   0.492  1.0559  2.9151 -0.2637
  996SOL    HW2 2988   2.347   1.808   0.439  1.7261 -0.1793  3.8918
  997SOL     OW 2989   2.342   0.565   2.154 -0.3288 -0.2519  0.5048
  997SOL    HW1 2990   2.348   0.544   2.051 -0.2322 -2.0204 -0.6252
  997SOL    HW2 2991   2.402   0.501   2.201 -1.6079  1.5201 -0.0068
  998SOL     OW 2992   2.674   1.003   0.598  0.0976  0.3218  0.4762
  998SOL    HW1 2993   2.672   1.074   0.675  0.2654  1.8818  0.4474
  998SOL    HW2 2994   2.615   0.923   0.618 -0.4917 -1.1123  2.1852
  999SOL     OW 2995   2.959   1.872   0.662 -0.7281 -0.5008 -0.3246
  999SOL    HW1 2996   2.964   1.894   0.564  1.4790  1.4457  1.6966
  999SOL    HW2 2997   3.048   1.855   0.710 -1.6728 -1.7105 -0.6646
 1000SOL     OW 2998   0.863   0.543   2.289 -0.5740 -0.2764 -0.2529
 1000SOL    HW1 2999   0.855   0.645   2.278 -0.7566  0.8761  1.4563
 1000SOL    HW2 3000   0.957   0.508   2.286  1.2731 -0.8313  0.0373
   3.09361   3.09361   3.09361
