1000 SPC/Fw water molecules t= 239.00000 step= 239000
 3000
    1SOL     OW    1   2.769   2.825   1.198  0.8352 -0.0077 -0.4812
    1SOL    HW1    2   2.796   2.830   1.102  2.7389 -2.1473 -1.0382
    1SOL    HW2    3   2.733   2.733   1.227 -2.3110 -1.7543 -0.0323
    2SOL     OW    4   1.825   1.776   1.383 -0.7067  0.1787  0.0621
    2SOL    HW1    5   1.783   1.737   1.472 -0.8987  4.1831  1.5276
    2SOL    HW2    6   1.890   1.711   1.341 -0.1175  0.6893  0.4470
    3SOL     OW    7   1.625   2.449   2.836 -0.1862 -0.5456 -0.4540
    3SOL    HW1    8   1.581   2.528   2.889  0.3838  1.8147 -0.7091
    3SOL    HW2    9   1.720   2.466   2.817 -1.2787  1.1750  1.4655
    4SOL     OW   10   1.670   1.980   2.117 -0.2134 -0.4016  0.4852
    4SOL    HW1   11   1.586   1.925   2.126  3.4179 -0.6994 -1.1539
    4SOL    HW2   12   1.740   1.942   2.183 -0.4247  1.5837  2.2680
    5SOL     OW   13   1.263   1.256   1.424  0.1745  0.9653  0.1110
    5SOL    HW1   14   1.279   1.312   1.335 -0.1768  2.5806 -2.6011
    5SOL    HW2   15   1.280   1.157   1.415  0.9356  0.8491 -0.8045
    6SOL     OW   16   2.250   0.046   0.114  0.0608  0.1267 -0.3634
    6SOL    HW1   17   2.286   0.093   0.030 -0.2533  0.0558  0.3262
    6SOL    HW2   18   2.272   3.017   0.111 -0.2413  1.2845 -0.2308
    7SOL     OW   19   2.832   1.510   1.585 -0.4688  0.1521  0.1875
    7SOL    HW1   20   2.838   1.496   1.685 -1.3850 -1.3650 -4.0132
    7SOL    HW2   21   2.910   1.468   1.534 -0.0539 -0.1325 -0.0938
    8SOL     OW   22   1.049   0.436   0.987  0.3264  0.0181  0.0913
    8SOL    HW1   23   1.091   0.501   0.925  0.1072 -1.0208  0.2127
    8SOL    HW2   24   1.118   0.367   1.016  0.7597  2.4396 -1.3145
    9SOL     OW   25   1.599   0.369   2.598 -0.2613  0.6108  0.3411
    9SOL    HW1   26   1.588   0.473   2.599  1.1199  1.6193  1.4905
    9SOL    HW2   27   1.640   0.337   2.509  1.9300  0.3922  1.2658
   10SOL     OW   28   0.585   2.077   0.205 -0.0036  0.6182  0.3625
   10SOL    HW1   29   0.524   2.000   0.186  0.9599 -1.0031 -0.7634
   10SOL    HW2   30   0.615   2.082   0.303  1.2958 -1.8781  1.4980
   11SOL     OW   31   1.086   0.919   0.290 -0.2709  0.3508 -0.1654
   11SOL    HW1   32   1.158   0.962   0.348  1.3734  0.1275  0.9389
   11SOL    HW2   33   1.045   0.982   0.224 -1.5110 -2.0446  1.2594
   12SOL     OW   34   0.138   0.249   1.527  0.0194 -0.0542 -0.0839
   12SOL    HW1   35   0.055   0.289   1.573 -1.4093  3.3979  0.3357
   12SOL    HW2   36   0.228   0.286   1.558 -0.1664 -0.7322 -2.2618
   13SOL     OW   37   1.283   0.082   0.178  0.6595 -0.7536  0.0624
   13SOL    HW1   38   1.216   0.130   0.121  0.0874 -1.2872  1.4807
   13SOL    HW2   39   1.242   0.059   0.268  1.1876  0.8754 -1.1981
   14SOL     OW   40   1.125   2.378   1.200 -0.4250  0.1799 -0.0835
   14SOL    HW1   41   1.156   2.395   1.299 -0.7780 -1.2066 -0.6507
   14SOL    HW2   42   1.199   2.325   1.155 -1.6034 -2.4248  0.3916
   15SOL     OW   43   2.583   1.125   1.607 -0.3138 -0.5929  0.1244
   15SOL    HW1   44   2.661   1.119   1.669 -3.9241  2.0767  2.6046
   15SOL    HW2   45   2.520   1.193   1.645  1.3641 -1.1723  1.2714
   16SOL     OW   46   1.847   2.817   3.006  0.5916  0.0348  0.1505
   16SOL    HW1   47   1.769   2.850   2.944  0.2239  2.3719  0.4398
   16SOL    HW2   48   1.841   2.717   3.026  0.1033 -1.1551  0.0088
   17SOL     OW   49   0.903   3.058   1.449 -0.3309 -0.0430 -0.3630
   17SOL    HW1   50   0.950   3.024   1.369 -0.5202  1.4617  0.8927
   17SOL    HW2   51   0.866   2.987   1.511 -1.8244  0.3007  0.3789
   18SOL     OW   52   1.377   0.665   2.833 -0.2196  0.3120  0.8305
   18SOL    HW1   53   1.394   0.580   2.883  3.1660  2.8189  2.0954
   18SOL    HW2   54   1.466   0.714   2.823  3.3168  1.7160 -0.2725
   19SOL     OW   55   2.028   1.968   2.938 -0.6433 -0.1306  0.0363
   19SOL    HW1   56   1.962   2.031   2.894  3.2982 -0.8553  0.5503
   19SOL    HW2   57   2.064   2.003   3.028  3.8204  2.2076  0.6340
   20SOL     OW   58   2.021   1.745   1.608  0.5050 -0.4081 -0.1307
   20SOL    HW1   59   2.026   1.644   1.620 -0.9468  1.2350  2.3958
   20SOL    HW2   60   2.078   1.778   1.530  0.5203 -3.2168  1.9116
   21SOL     OW   61   0.655   1.477   2.767  0.1959  0.0607  0.2782
   21SOL    HW1   62   0.734   1.536   2.734  2.0594  2.6986  1.5075
   21SOL    HW2   63   0.697   1.410   2.835 -0.1532  0.5343  0.3753
   22SOL     OW   64   1.991   2.839   1.356  0.1478 -1.1509 -0.2288
   22SOL    HW1   65   1.889   2.851   1.371 -3.4845  1.2277 -0.1352
   22SOL    HW2   66   2.018   2.894   1.273 -0.8270 -1.8529  1.8249
   23SOL     OW   67   3.050   0.495   1.659  0.1641 -0.7143 -0.4783
   23SOL    HW1   68   0.078   0.485   1.638  2.4108  1.3477 -0.6647
   23SOL    HW2   69   3.014   0.574   1.607 -1.8563  0.0728 -1.2135
   24SOL     OW   70   2.124   2.637   0.956  0.1484 -0.2461  0.4156
   24SOL    HW1   71   2.142   2.630   1.056  2.1951  1.8868 -1.3020
   24SOL    HW2   72   2.091   2.550   0.913  3.1305 -1.9694 -1.1177
   25SOL     OW   73   1.451   2.777   2.734  0.3515  0.1243  0.0261
   25SOL    HW1   74   1.507   2.708   2.679 -2.1121 -1.0264  2.7405
   25SOL    HW2   75   1.351   2.751   2.722  0.2665 -1.9641 -0.0316
   26SOL     OW   76   1.867   2.774   2.728  0.0137  0.5208  0.3223
   26SOL    HW1   77   1.944   2.832   2.694  0.6721 -4.5073  0.6293
   26SOL    HW2   78   1.792   2.833   2.759 -0.1320  0.8913  2.6678
   27SOL     OW   79   0.194   1.886   2.519  0.2854 -0.2106 -0.1751
   27SOL    HW1   80   0.159   1.970   2.551 -1.2508 -2.1968 -1.0901
   27SOL    HW2   81   0.126   1.828   2.466 -0.4183 -0.0258  0.2343
   28SOL     OW   82   2.875   1.101   1.390 -0.4375  0.4453 -0.6588
   28SOL    HW1   83   2.810   1.148   1.331 -0.4491 -2.3850 -0.5234
   28SOL    HW2   84   2.860   1.138   1.487  0.0508  1.4229  1.9787
   29SOL     OW   85   2.293   2.498   1.554 -0.1448 -0.2614 -0.1924
   29SOL    HW1   86   2.264   2.421   1.615 -1.5526 -2.8558  2.7495
   29SOL    HW2   87   2.380   2.537   1.599  2.6010  0.6767  4.0535
   30SOL     OW   88   1.381   0.451   3.024  0.2088 -0.2536 -0.4372
   30SOL    HW1   89   1.304   0.444   0.016 -0.0056 -0.5552  1.4319
   30SOL    HW2   90   1.469   0.434   3.068 -0.5895 -1.1615  0.5738
   31SOL     OW   91   2.530   2.610   1.648  1.1130 -0.5378 -0.0420
   31SOL    HW1   92   2.494   2.682   1.715 -2.5174  0.4895 -0.4601
   31SOL    HW2   93   2.589   2.658   1.585 -0.3717 -1.0136  1.9922
   32SOL     OW   94   0.893   1.575   1.483  0.1360  0.3939 -0.2223
   32SOL    HW1   95   0.807   1.621   1.515 -2.4658 -2.6758 -0.0243
   32SOL    HW2   96   0.889   1.551   1.381 -0.8430 -0.3005 -0.5589
   33SOL     OW   97   0.441   2.684   2.132  0.0171  0.2288  0.1339
   33SOL    HW1   98   0.428   2.586   2.153  0.2014 -0.2179  3.4359
   33SOL    HW2   99   0.365   2.712   2.063 -1.8681  2.5733 -2.8877
   34SOL     OW  100   1.531   0.067   0.574  0.7794  0.5601  0.2989
   34SOL    HW1  101   1.429   0.059   0.589  0.4762 -0.4984 -0.1285
   34SOL    HW2  102   1.576   0.079   0.665  1.7318 -0.0620 -0.8996
   35SOL     OW  103   2.059   0.145   0.778  0.1456 -0.3955 -0.3350
   35SOL    HW1  104   2.044   0.048   0.771  0.5051  0.5247  0.5409
   35SOL    HW2  105   1.970   0.187   0.813 -0.0535 -0.0654  0.9847
   36SOL     OW  106   1.913   2.489   2.314 -0.5070 -0.1495  0.0713
   36SOL    HW1  107   1.827   2.451   2.351 -0.1658 -0.0193  2.2627
   36SOL    HW2  108   1.942   2.429   2.236 -1.3949  0.6972  0.0108
   37SOL     OW  109   0.789   2.780   2.404 -0.5355 -0.5806 -0.4201
   37SOL    HW1  110   0.733   2.806   2.321 -1.7790  3.5996 -0.3343
   37SOL    HW2  111   0.753   2.821   2.489 -0.3134  0.7258  0.2370
   38SOL     OW  112   0.240   2.775   2.471 -0.1109  0.4565  0.7657
   38SOL    HW1  113   0.332   2.728   2.473  4.1485 -0.1405 -0.6281
   38SOL    HW2  114   0.253   2.873   2.445 -0.7777  1.1732  0.8036
   39SOL     OW  115   2.377   1.188   2.014 -0.3192  0.6693 -0.0190
   39SOL    HW1  116   2.427   1.261   1.959  0.6120 -2.5222  0.9745
   39SOL    HW2  117   2.348   1.217   2.109  0.8916 -0.9295  1.7585
   40SOL     OW  118   0.340   2.817   0.016 -0.2737 -0.3396 -0.3977
   40SOL    HW1  119   0.410   2.809   0.092  0.0193 -0.4373  1.2463
   40SOL    HW2  120   0.320   2.720   3.044 -0.9518 -3.6923 -1.2795
   41SOL     OW  121   1.836   0.735   1.037 -0.1853  0.0862  0.1009
   41SOL    HW1  122   1.935   0.748   1.059 -1.1456  0.5403  1.5603
   41SOL    HW2  123   1.799   0.817   0.985 -0.4522  1.0743 -1.5722
   42SOL     OW  124   0.451   0.423   1.211 -0.5618  0.0269 -0.3663
   42SOL    HW1  125   0.509   0.474   1.143  0.1248  0.3315 -1.2128
   42SOL    HW2  126   0.359   0.468   1.225 -1.8393  0.2384  0.8187
   43SOL     OW  127   2.639   1.341   2.859  0.3752 -0.4356  0.3987
   43SOL    HW1  128   2.627   1.240   2.863  1.2690 -4.1062 -2.1419
   43SOL    HW2  129   2.677   1.370   2.768  0.6574  1.8542 -2.2778
   44SOL     OW  130   3.054   2.952   0.810  0.6233 -0.3792  0.9598
   44SOL    HW1  131   0.075   2.998   0.810  2.7887  0.5060  0.7822
   44SOL    HW2  132   3.065   2.854   0.819  2.3339  3.2881  0.4414
   45SOL     OW  133   0.082   2.775   1.454 -0.3575  0.3161  0.3745
   45SOL    HW1  134   0.162   2.821   1.495 -2.0237 -2.9672 -0.5397
   45SOL    HW2  135   0.022   2.848   1.406  1.1218  1.3163 -1.4600
   46SOL     OW  136   2.354   2.450   2.458 -0.4437  0.1103 -0.1134
   46SOL    HW1  137   2.361   2.349   2.437 -1.6906 -0.8761 -1.5166
   46SOL    HW2  138   2.257   2.483   2.468  1.3146  0.3918 -0.1255
   47SOL     OW  139   2.104   2.004   1.101 -0.1033 -0.2693  0.0551
   47SOL    HW1  140   2.059   2.094   1.089 -0.9851  0.3901 -0.6351
   47SOL    HW2  141   2.035   1.935   1.070  2.3844  0.1541 -3.6659
   48SOL     OW  142   0.535   1.596   0.202 -0.2129 -0.0192  0.0205
   48SOL    HW1  143   0.542   1.572   0.106 -0.9066 -0.8700  0.7769
   48SOL    HW2  144   0.537   1.514   0.262 -1.0474 -2.0928  1.1178
   49SOL     OW  145   2.867   0.253   2.497  0.2791 -0.5469 -0.4399
   49SOL    HW1  146   2.787   0.271   2.558 -0.7883 -0.3327 -2.2208
   49SOL    HW2  147   2.849   0.312   2.410  0.1299  0.3901  0.8552
   50SOL     OW  148   2.133   0.910   0.249  0.0456 -0.1053 -0.0096
   50SOL    HW1  149   2.033   0.901   0.270 -0.6398 -1.1831  1.9305
   50SOL    HW2  150   2.156   0.851   0.164  1.3324 -0.2858 -0.3562
   51SOL     OW  151   2.123   0.808   1.019 -0.3487  0.1542 -0.0084
   51SOL    HW1  152   2.149   0.843   1.110  0.6220  1.6007 -1.0189
   51SOL    HW2  153   2.187   0.729   1.002 -0.7132 -2.9225 -0.9272
   52SOL     OW  154   1.254   1.227   2.832  0.1726 -0.5300 -0.2771
   52SOL    HW1  155   1.283   1.303   2.770  3.6467 -0.0504  0.5074
   52SOL    HW2  156   1.267   1.132   2.797  2.0697  0.2556  0.5115
   53SOL     OW  157   0.541   1.546   1.975  0.1363 -0.2311 -0.1792
   53SOL    HW1  158   0.466   1.486   2.005  1.1105  2.9037  0.5589
   53SOL    HW2  159   0.599   1.503   1.901 -0.3587 -0.9563 -2.3395
   54SOL     OW  160   2.126   0.412   1.108 -0.9637  0.0275 -0.0093
   54SOL    HW1  161   2.135   0.393   1.010  0.9550  0.4305  3.0502
   54SOL    HW2  162   2.189   0.488   1.134  0.8625  0.2910 -0.2378
   55SOL     OW  163   2.383   2.275   1.048 -0.4144 -0.2757 -0.7817
   55SOL    HW1  164   2.385   2.180   1.088  1.2866  0.3756  1.7979
   55SOL    HW2  165   2.346   2.282   0.954  0.4654 -2.5945  0.8397
   56SOL     OW  166   1.032   2.999   1.760 -0.0810  0.4186 -0.2961
   56SOL    HW1  167   1.050   3.028   1.856 -0.1915  0.3916 -0.0606
   56SOL    HW2  168   1.064   3.062   1.689 -0.8703 -0.4512 -0.9702
   57SOL     OW  169   1.552   1.528   0.045 -0.4214 -0.3923 -0.2376
   57SOL    HW1  170   1.548   1.531   3.013  0.1350  0.5178  0.6571
   57SOL    HW2  171   1.629   1.588   0.077 -1.9526 -0.6012  0.2761
   58SOL     OW  172   3.000   0.710   2.405  0.3830  0.1338 -0.1816
   58SOL    HW1  173   3.056   0.691   2.321  0.9651  1.6633  1.3485
   58SOL    HW2  174   3.058   0.709   2.487  0.3633 -1.0469  0.5172
   59SOL     OW  175   0.857   2.520   2.825 -0.0627 -0.1537 -0.0362
   59SOL    HW1  176   0.920   2.601   2.843 -2.1913  1.6746 -0.9590
   59SOL    HW2  177   0.909   2.441   2.795 -0.7173  0.4260  0.8967
   60SOL     OW  178   2.405   2.436   0.652 -0.3925  0.1238  0.8801
   60SOL    HW1  179   2.437   2.502   0.720 -0.4999  1.1834  1.2861
   60SOL    HW2  180   2.431   2.466   0.560  0.1177  0.4279 -0.8613
   61SOL     OW  181   1.119   2.124   0.765  0.0932  0.2554 -0.3892
   61SOL    HW1  182   1.087   2.221   0.741  1.7228  1.1585 -0.0490
   61SOL    HW2  183   1.108   2.067   0.680  0.5642 -0.4303  1.6454
   62SOL     OW  184   2.271   1.949   2.495 -0.4666 -0.3712  0.6746
   62SOL    HW1  185   2.276   1.957   2.598 -0.4984  2.5689 -1.9359
   62SOL    HW2  186   2.298   1.857   2.459  1.0533  2.1685  0.2838
   63SOL     OW  187   2.156   2.714   2.971 -0.0856  0.0649  0.6044
   63SOL    HW1  188   2.061   2.679   2.974  0.8317 -0.8640 -0.3184
   63SOL    HW2  189   2.186   2.738   2.873  0.1937  1.1970 -0.6414
   64SOL     OW  190   1.257   0.784   2.612 -0.2112  0.1046 -0.7455
   64SOL    HW1  191   1.276   0.716   2.688 -0.3198 -0.8424 -0.9615
   64SOL    HW2  192   1.306   0.747   2.532  1.0457 -0.9934 -0.1657
   65SOL     OW  193   1.333   2.499   0.210  0.4989  0.2144  0.3352
   65SOL    HW1  194   1.295   2.541   0.127  1.7984  2.3648 -0.7137
   65SOL    HW2  195   1.405   2.565   0.242  1.7222  0.7028  3.5938
   66SOL     OW  196   0.362   1.306   1.722  0.0905  0.0913 -0.6509
   66SOL    HW1  197   0.352   1.206   1.706  0.3050 -3.1526 -1.2360
   66SOL    HW2  198   0.266   1.349   1.734 -1.7415  0.8722 -0.5189
   67SOL     OW  199   2.795   2.809   2.760 -0.4371  0.1205 -0.6556
   67SOL    HW1  200   2.700   2.774   2.768 -0.0149  0.5825  0.2415
   67SOL    HW2  201   2.811   2.839   2.666 -0.6916 -1.8633  2.2115
   68SOL     OW  202   0.590   2.394   1.369 -0.0652  0.5714 -0.3734
   68SOL    HW1  203   0.590   2.296   1.398  0.7252  2.0852  0.6753
   68SOL    HW2  204   0.684   2.417   1.334  0.6557 -0.1645  0.1795
   69SOL     OW  205   0.582   2.166   0.489  0.1383 -0.1737  0.0948
   69SOL    HW1  206   0.603   2.261   0.518  1.1145  0.0651  2.6934
   69SOL    HW2  207   0.651   2.105   0.532 -0.7385 -1.5266 -0.5112
   70SOL     OW  208   2.607   1.067   2.653 -0.0538  0.2681 -0.2842
   70SOL    HW1  209   2.671   1.001   2.605  0.3938  2.7141  1.2828
   70SOL    HW2  210   2.531   1.008   2.691 -2.7825 -1.4486  1.1662
   71SOL     OW  211   0.704   1.054   2.469  1.1008 -0.4091 -0.2717
   71SOL    HW1  212   0.659   0.969   2.438  1.3791 -0.1340  1.1713
   71SOL    HW2  213   0.661   1.140   2.434 -0.8786 -2.3936  0.6075
   72SOL     OW  214   0.313   2.120   0.467  0.0382 -0.2712  0.2090
   72SOL    HW1  215   0.407   2.133   0.500  0.4846  3.1190  1.5546
   72SOL    HW2  216   0.315   2.176   0.381 -1.4917 -0.5837  0.0180
   73SOL     OW  217   0.973   1.388   0.328 -0.2872 -0.5628 -0.6539
   73SOL    HW1  218   0.943   1.472   0.377 -0.3752  1.0747  1.4430
   73SOL    HW2  219   1.075   1.393   0.319  0.3902  0.2576 -3.0259
   74SOL     OW  220   2.544   0.033   0.132  0.0595  0.0165  0.2036
   74SOL    HW1  221   2.445   0.019   0.151  1.3570  3.4362 -0.4685
   74SOL    HW2  222   2.580   0.107   0.193 -1.2808 -0.0973 -1.5503
   75SOL     OW  223   2.205   1.575   1.952  0.6449  0.5024 -0.2194
   75SOL    HW1  224   2.173   1.555   1.855 -1.0695  0.2939 -0.8385
   75SOL    HW2  225   2.304   1.607   1.946  0.3753 -0.8313 -0.8163
   76SOL     OW  226   1.959   2.584   1.719  0.4072 -0.2146  0.4544
   76SOL    HW1  227   1.862   2.576   1.686  0.0737 -0.8833  1.0190
   76SOL    HW2  228   2.019   2.629   1.648  1.5996 -0.2055  1.6037
   77SOL     OW  229   2.469   0.469   1.331 -0.1445 -0.3539 -0.0030
   77SOL    HW1  230   2.462   0.369   1.343 -1.0270  3.8676 -0.3357
   77SOL    HW2  231   2.441   0.520   1.415  1.6043 -0.1090 -0.9692
   78SOL     OW  232   1.832   0.997   2.899 -0.3933  0.3853 -0.0853
   78SOL    HW1  233   1.836   0.973   2.995  0.2785  1.2583 -1.9132
   78SOL    HW2  234   1.768   0.938   2.842  1.4786  1.3030  0.5194
   79SOL     OW  235   0.243   1.530   2.145  0.3641  0.2421  0.3087
   79SOL    HW1  236   0.155   1.567   2.106 -1.1477  0.1052  1.2911
   79SOL    HW2  237   0.296   1.465   2.088 -0.2872  0.4971  0.7621
   80SOL     OW  238   1.697   0.855   1.262  0.0898  0.1896 -0.0942
   80SOL    HW1  239   1.784   0.820   1.219 -3.3604  0.2140 -0.8416
   80SOL    HW2  240   1.619   0.790   1.256  0.6535 -0.5715 -3.7259
   81SOL     OW  241   1.142   0.412   1.365 -0.0467 -0.3798 -0.6659
   81SOL    HW1  242   1.059   0.385   1.412 -0.0569 -0.9023 -0.6918
   81SOL    HW2  243   1.136   0.507   1.329 -0.9946  2.4511  0.1872
   82SOL     OW  244   1.531   2.310   1.815 -0.7141  0.3874  0.3297
   82SOL    HW1  245   1.490   2.306   1.720 -1.9703 -0.8331 -0.6941
   82SOL    HW2  246   1.619   2.263   1.808  1.1755 -1.4720  1.8696
   83SOL     OW  247   0.684   0.088   0.760  0.2954 -0.2158 -0.2263
   83SOL    HW1  248   0.736   0.063   0.840  1.0454  1.0652 -0.6002
   83SOL    HW2  249   0.662   0.188   0.764  0.2655  1.0542  0.2110
   84SOL     OW  250   0.192   0.926   2.992 -0.0810 -0.4571 -0.1776
   84SOL    HW1  251   0.276   0.924   2.939 -0.1028  1.0713  0.5605
   84SOL    HW2  252   0.128   1.000   2.961 -1.6120 -2.6527 -0.5066
   85SOL     OW  253   2.769   2.483   1.718 -0.0524  0.4393  0.0708
   85SOL    HW1  254   2.826   2.522   1.641 -1.0784  2.5706 -1.3211
   85SOL    HW2  255   2.668   2.515   1.709 -1.2614 -0.0528  1.8418
   86SOL     OW  256   2.887   2.650   1.512 -0.4480 -0.5750 -0.3275
   86SOL    HW1  257   2.882   2.724   1.582 -0.2526  3.0733 -0.0512
   86SOL    HW2  258   2.956   2.665   1.437  3.3546 -3.3775  1.2241
   87SOL     OW  259   0.101   2.926   0.068  0.0923 -0.5622  0.8630
   87SOL    HW1  260   0.188   2.881   0.054 -2.3881  3.3307  0.3657
   87SOL    HW2  261   0.032   2.893   0.003  3.4297  1.9600  0.2249
   88SOL     OW  262   0.212   2.126   1.214  0.2199 -0.0928  0.1342
   88SOL    HW1  263   0.267   2.179   1.149 -2.5130 -0.8844  0.4884
   88SOL    HW2  264   0.145   2.074   1.160  1.2210  0.9381 -1.5597
   89SOL     OW  265   1.143   0.751   1.684 -0.3086 -0.1363 -0.1915
   89SOL    HW1  266   1.169   0.654   1.698  0.9479  1.5999  0.1322
   89SOL    HW2  267   1.224   0.811   1.664  0.1713 -1.2550  1.0806
   90SOL     OW  268   2.690   1.590   2.057 -0.2304  0.2996 -0.1300
   90SOL    HW1  269   2.703   1.574   2.157 -1.2250 -1.7618  0.4649
   90SOL    HW2  270   2.724   1.685   2.035  0.0031  1.5969 -1.6951
   91SOL     OW  271   1.452   1.504   0.726 -0.4880 -0.2327 -0.0864
   91SOL    HW1  272   1.490   1.521   0.817 -0.4187 -1.4154 -0.2580
   91SOL    HW2  273   1.350   1.514   0.724  1.1728 -0.2113 -0.8011
   92SOL     OW  274   2.342   0.628   1.136  0.0187 -0.5104 -0.1546
   92SOL    HW1  275   2.335   0.720   1.185  1.1815  1.4215 -0.3111
   92SOL    HW2  276   2.418   0.568   1.168 -0.4491 -1.5019 -0.1936
   93SOL     OW  277   2.517   1.576   3.004  0.6969  0.2312 -0.1474
   93SOL    HW1  278   2.431   1.600   2.959  0.9864 -0.9915 -1.5568
   93SOL    HW2  279   2.560   1.502   2.946 -2.5536  1.5415 -0.8188
   94SOL     OW  280   2.378   2.189   2.426 -0.6829 -0.3842  0.0636
   94SOL    HW1  281   2.337   2.103   2.458  1.4109  1.0097 -2.2966
   94SOL    HW2  282   2.450   2.166   2.354  2.6498  1.0234  1.4518
   95SOL     OW  283   1.880   0.529   1.200 -0.7527 -0.7139 -0.3215
   95SOL    HW1  284   1.825   0.590   1.139  2.5863  2.4757 -0.2333
   95SOL    HW2  285   1.965   0.489   1.156  1.7808 -0.4584 -1.0608
   96SOL     OW  286   2.664   2.903   1.686 -0.2111  0.2043  0.9479
   96SOL    HW1  287   2.612   2.957   1.754 -0.5515 -1.0642 -0.2398
   96SOL    HW2  288   2.606   2.875   1.608  0.7936 -2.3211 -0.9536
   97SOL     OW  289   2.058   2.989   1.141 -0.1490 -0.1449 -0.9255
   97SOL    HW1  290   2.031   2.955   1.051 -1.1786  1.8912  2.8043
   97SOL    HW2  291   2.026   0.019   1.154 -1.1843  1.2486  0.6419
   98SOL     OW  292   1.397   2.280   1.545  0.2211 -0.6274  0.0428
   98SOL    HW1  293   1.493   2.316   1.532 -1.6122 -1.0174  1.1058
   98SOL    HW2  294   1.396   2.182   1.527 -2.3766 -0.8104 -0.9777
   99SOL     OW  295   2.548   2.736   2.022  0.2264  0.0194 -0.4963
   99SOL    HW1  296   2.523   2.676   2.096  1.2241 -1.8391 -0.1286
   99SOL    HW2  297   2.646   2.765   2.031  0.4754  1.5429 -1.2281
  100SOL     OW  298   0.316   0.829   2.686  0.5731  0.0842 -0.1481
  100SOL    HW1  299   0.360   0.885   2.757 -1.4232 -0.0007 -0.8336
  100SOL    HW2  300   0.384   0.757   2.661 -0.3876  2.8721  0.4830
  101SOL     OW  301   1.873   0.831   0.064  0.2473  0.8958 -0.0586
  101SOL    HW1  302   1.870   0.831   0.165  0.4802 -0.1424 -0.0647
  101SOL    HW2  303   1.923   0.752   0.023 -2.3678  3.7734  2.4583
  102SOL     OW  304   0.261   0.534   1.556 -0.0541  0.0579  0.2979
  102SOL    HW1  305   0.297   0.621   1.587 -2.5035 -1.1813 -1.6777
  102SOL    HW2  306   0.324   0.457   1.574 -0.2090  0.7924 -1.6966
  103SOL     OW  307   3.027   0.991   2.247 -0.0651  0.1869 -0.5881
  103SOL    HW1  308   3.069   0.939   2.327  0.4596  1.9379  3.0194
  103SOL    HW2  309   2.926   0.980   2.246 -0.3625  1.2938 -0.0027
  104SOL     OW  310   0.278   0.238   2.548  0.5940  0.2690 -0.1408
  104SOL    HW1  311   0.376   0.258   2.539 -3.1042 -0.3241  0.5029
  104SOL    HW2  312   0.244   0.185   2.469  0.6375  1.0346  0.6345
  105SOL     OW  313   1.997   2.011   1.382 -0.6066  0.0958  0.7051
  105SOL    HW1  314   1.927   1.939   1.381  1.3906  0.3429  0.1157
  105SOL    HW2  315   2.062   2.000   1.299  2.9998  2.9761 -3.2057
  106SOL     OW  316   1.822   0.320   0.546  0.2200  0.2131 -0.4261
  106SOL    HW1  317   1.854   0.223   0.526 -1.7927 -3.4486  2.9042
  106SOL    HW2  318   1.896   0.385   0.572  1.0742  2.1935 -0.9503
  107SOL     OW  319   0.108   1.883   1.681 -0.5220 -0.3028  0.4700
  107SOL    HW1  320   0.177   1.958   1.701 -1.8721 -1.3270  3.2280
  107SOL    HW2  321   0.066   1.892   1.589 -1.9222 -1.2089 -0.9506
  108SOL     OW  322   2.802   2.867   1.999 -0.5307 -0.6006  0.1545
  108SOL    HW1  323   2.858   2.837   1.917  0.1868 -0.7792 -0.6818
  108SOL    HW2  324   2.856   2.935   2.055 -2.2883 -1.0927  0.3839
  109SOL     OW  325   1.566   0.292   0.424 -0.1324 -0.2070  0.6860
  109SOL    HW1  326   1.660   0.312   0.458 -0.9426  0.9672  0.9208
  109SOL    HW2  327   1.528   0.208   0.462  0.2245  1.6695 -0.7929
  110SOL     OW  328   0.198   2.201   2.300 -0.3552  0.5972 -0.2841
  110SOL    HW1  329   0.221   2.280   2.357  1.6078 -2.1592  1.2249
  110SOL    HW2  330   0.282   2.143   2.299  1.4028 -1.7697 -1.1765
  111SOL     OW  331   1.587   2.415   2.088 -0.0713 -0.2851 -0.1931
  111SOL    HW1  332   1.651   2.337   2.114  2.1743 -1.5865 -0.3369
  111SOL    HW2  333   1.554   2.402   1.992 -1.6102  0.9151  1.8206
  112SOL     OW  334   1.639   2.658   2.576 -0.5031 -0.2800  0.4492
  112SOL    HW1  335   1.733   2.667   2.619  2.7992  1.8370 -1.2596
  112SOL    HW2  336   1.621   2.559   2.564 -0.4792  0.1929 -2.5214
  113SOL     OW  337   1.649   2.381   1.498  0.0197 -0.3390 -0.0704
  113SOL    HW1  338   1.707   2.347   1.422  1.3927  0.0768 -0.3948
  113SOL    HW2  339   1.684   2.460   1.549 -1.2356 -2.1292 -0.2879
  114SOL     OW  340   2.818   0.761   0.799 -0.0253 -0.2585 -0.3009
  114SOL    HW1  341   2.767   0.848   0.777 -2.9789  0.3619  3.2962
  114SOL    HW2  342   2.763   0.681   0.776  3.2901 -0.8835 -1.6681
  115SOL     OW  343   0.469   0.957   2.874 -0.0304 -0.2594  0.7328
  115SOL    HW1  344   0.481   1.056   2.890 -4.0378  0.8206  2.5181
  115SOL    HW2  345   0.560   0.912   2.862  1.3512 -0.9027  0.2074
  116SOL     OW  346   0.101   1.299   2.213  0.1688 -0.1590 -0.4472
  116SOL    HW1  347   0.083   1.226   2.148  0.2466 -0.3230  1.3546
  116SOL    HW2  348   0.166   1.371   2.176 -1.2363 -0.0701 -0.2717
  117SOL     OW  349   2.516   0.003   0.761  0.0336  0.1401 -0.3690
  117SOL    HW1  350   2.586   0.075   0.778  1.4238  1.4532  2.2537
  117SOL    HW2  351   2.512   3.050   0.664 -0.0691  1.9934  0.0284
  118SOL     OW  352   1.246   1.910   1.529 -0.5560  0.6884 -0.2361
  118SOL    HW1  353   1.223   1.813   1.548  3.4440  0.3413  1.2135
  118SOL    HW2  354   1.332   1.937   1.578  0.0808 -1.5457 -1.9508
  119SOL     OW  355   0.832   2.140   2.711  0.2942 -0.4666  0.1363
  119SOL    HW1  356   0.923   2.149   2.757 -1.1649 -1.2454 -0.5495
  119SOL    HW2  357   0.750   2.194   2.755 -1.6289  2.8936  1.1512
  120SOL     OW  358   0.721   0.798   2.856 -0.0841 -0.1166  0.4760
  120SOL    HW1  359   0.694   0.704   2.865  1.4193  3.4311  1.0656
  120SOL    HW2  360   0.803   0.803   2.795  0.1306 -0.8217 -1.0593
  121SOL     OW  361   1.731   2.544   1.097  0.4682 -0.2293  0.1934
  121SOL    HW1  362   1.745   2.634   1.050 -1.5658  1.3814  1.3111
  121SOL    HW2  363   1.676   2.492   1.030  0.3829  1.7481 -1.5791
  122SOL     OW  364   2.255   2.291   1.737 -0.3282 -0.3141  0.5245
  122SOL    HW1  365   2.304   2.261   1.819 -0.2949 -1.3540  0.0531
  122SOL    HW2  366   2.219   2.207   1.688 -1.6479  2.3921 -1.7841
  123SOL     OW  367   0.223   2.777   0.527  0.4724  0.6664 -0.1007
  123SOL    HW1  368   0.307   2.735   0.487 -1.1558 -0.3645  1.7958
  123SOL    HW2  369   0.148   2.792   0.456 -0.1691  0.3086 -0.3138
  124SOL     OW  370   2.124   1.310   2.648 -0.7151  0.1114  0.5365
  124SOL    HW1  371   2.220   1.335   2.668 -2.1703 -1.5770  1.9989
  124SOL    HW2  372   2.071   1.279   2.731 -2.1147  0.6032 -0.1650
  125SOL     OW  373   0.595   0.962   0.612  0.3873 -0.6042 -0.8665
  125SOL    HW1  374   0.646   0.931   0.697  1.0421  0.5697  3.2129
  125SOL    HW2  375   0.539   1.049   0.633 -1.1230  1.3049  3.4938
  126SOL     OW  376   2.819   1.898   0.842  0.4579  0.2172  0.2926
  126SOL    HW1  377   2.842   1.966   0.771 -0.8543  1.3928 -0.0240
  126SOL    HW2  378   2.724   1.919   0.878 -0.0959 -0.8542  0.2447
  127SOL     OW  379   0.030   2.161   1.815 -0.0872  0.0711  0.2097
  127SOL    HW1  380   0.111   2.142   1.753  1.1230  0.3180 -0.7691
  127SOL    HW2  381   0.055   2.137   1.912 -0.9586 -2.1270  0.4662
  128SOL     OW  382   0.941   0.693   0.070  0.3886 -0.1002 -0.0683
  128SOL    HW1  383   0.974   0.627   0.141  0.8813  3.3922  1.1547
  128SOL    HW2  384   0.848   0.726   0.083  0.0558 -0.8945  0.0683
  129SOL     OW  385   2.449   0.976   1.019  0.5194  0.1906  0.1489
  129SOL    HW1  386   2.456   0.923   0.933 -2.2238 -0.2267 -0.8836
  129SOL    HW2  387   2.536   0.971   1.065 -2.3131  0.8770  0.1391
  130SOL     OW  388   2.317   1.165   1.409 -0.0901  0.1825  0.0625
  130SOL    HW1  389   2.365   1.078   1.434 -1.5973 -1.7847 -1.9128
  130SOL    HW2  390   2.363   1.190   1.321 -2.6896  2.9488 -1.5028
  131SOL     OW  391   2.693   3.045   2.976  0.1600  0.0538  0.2449
  131SOL    HW1  392   2.681   2.945   2.977 -0.3786  1.0194  0.0384
  131SOL    HW2  393   2.632   0.008   3.053 -1.9292 -1.2765  3.9735
  132SOL     OW  394   2.816   2.220   1.779  1.1870 -0.1595  0.1607
  132SOL    HW1  395   2.794   2.316   1.756  1.2513  0.6886  1.6716
  132SOL    HW2  396   2.917   2.208   1.788 -0.5825  0.0110  3.2286
  133SOL     OW  397   1.058   0.649   1.266  0.0033  0.7454  0.3502
  133SOL    HW1  398   0.985   0.577   1.253  0.7011 -1.2001 -1.0735
  133SOL    HW2  399   1.013   0.739   1.261 -0.7288 -1.3427  0.2012
  134SOL     OW  400   0.124   1.150   0.436 -0.1847 -0.3895  0.3258
  134SOL    HW1  401   0.028   1.181   0.428  0.7517  1.4827  2.6890
  134SOL    HW2  402   0.179   1.188   0.362 -0.1425  1.0921 -0.2232
  135SOL     OW  403   2.059   1.113   1.314 -0.3994 -0.0224  0.2914
  135SOL    HW1  404   2.150   1.152   1.327 -1.8772  0.3455  2.2649
  135SOL    HW2  405   1.981   1.149   1.372 -2.4465 -0.4986  0.3913
  136SOL     OW  406   2.884   0.870   0.494  0.3550 -0.1708 -0.2476
  136SOL    HW1  407   2.794   0.925   0.490 -2.4260  3.5439 -0.2208
  136SOL    HW2  408   2.886   0.836   0.592  0.3705  0.0024  2.8145
  137SOL     OW  409   2.544   1.387   1.230  0.0705 -0.1781 -0.2246
  137SOL    HW1  410   2.624   1.321   1.233  0.9863 -1.6230  0.7166
  137SOL    HW2  411   2.459   1.336   1.196  0.0959 -2.1341  0.5059
  138SOL     OW  412   1.950   0.779   1.653  0.1455 -0.0748  0.1147
  138SOL    HW1  413   2.010   0.792   1.728 -3.5987 -1.0487 -3.4368
  138SOL    HW2  414   1.998   0.779   1.561 -0.5959 -0.3005  0.6254
  139SOL     OW  415   2.008   0.165   0.127 -0.1842 -0.5050 -0.5195
  139SOL    HW1  416   2.089   0.103   0.120 -2.6920  1.0855  1.0460
  139SOL    HW2  417   1.931   0.106   0.152 -0.7079  0.5494  0.3508
  140SOL     OW  418   1.404   1.951   1.898  0.2264  0.0095 -0.0849
  140SOL    HW1  419   1.342   2.023   1.923  0.9754 -1.3128  1.4587
  140SOL    HW2  420   1.407   1.880   1.973 -0.7507 -3.1241  1.6191
  141SOL     OW  421   1.738   2.055   0.776 -0.3247 -0.0531 -0.6021
  141SOL    HW1  422   1.808   1.985   0.761  0.4212  1.4273  0.2523
  141SOL    HW2  423   1.770   2.146   0.739  1.2796 -1.3597 -2.5149
  142SOL     OW  424   0.230   0.920   0.355 -0.5554  0.0267 -0.5659
  142SOL    HW1  425   0.182   0.851   0.304 -0.5536 -0.8671  1.9782
  142SOL    HW2  426   0.167   0.995   0.382 -0.5868 -0.5619  0.0710
  143SOL     OW  427   0.413   2.131   2.760 -0.4100  0.2438  0.5910
  143SOL    HW1  428   0.357   2.213   2.739  2.0080  3.1152  0.6153
  143SOL    HW2  429   0.365   2.040   2.738 -1.2602 -1.2608 -1.2747
  144SOL     OW  430   1.140   0.102   1.579  0.4042  0.1035  0.1167
  144SOL    HW1  431   1.061   0.167   1.584 -2.1322 -3.4750 -2.7013
  144SOL    HW2  432   1.182   0.115   1.488 -0.9926 -0.3376 -0.0255
  145SOL     OW  433   2.420   1.452   0.427 -0.1824  0.3366 -0.9128
  145SOL    HW1  434   2.473   1.415   0.348  0.0161  2.8117  0.3567
  145SOL    HW2  435   2.475   1.500   0.495  0.9964  1.0243  0.6540
  146SOL     OW  436   2.483   2.549   0.178  0.0582 -0.6375  0.0708
  146SOL    HW1  437   2.553   2.553   0.099  2.0202  5.3412 -1.5790
  146SOL    HW2  438   2.390   2.560   0.139  1.1993  2.3737  1.1344
  147SOL     OW  439   2.118   2.610   1.231 -0.3245  0.0481 -0.5928
  147SOL    HW1  440   2.218   2.579   1.234  1.4983  0.1128  1.0614
  147SOL    HW2  441   2.110   2.711   1.235  0.9224 -2.0117 -1.4493
  148SOL     OW  442   1.445   2.889   2.236  0.1309 -0.0762  0.3118
  148SOL    HW1  443   1.505   2.868   2.314 -0.0652  0.9753  0.6360
  148SOL    HW2  444   1.496   2.891   2.148  2.5136 -1.5235 -2.2703
  149SOL     OW  445   1.299   0.420   2.376  0.3008 -0.2127  0.4346
  149SOL    HW1  446   1.357   0.387   2.294  0.3485  1.3599 -1.4998
  149SOL    HW2  447   1.332   0.513   2.407  0.7273  1.0361 -3.0826
  150SOL     OW  448   0.699   2.461   0.319 -0.2602 -0.0869  0.2326
  150SOL    HW1  449   0.789   2.482   0.273  0.9984 -0.7654 -1.4950
  150SOL    HW2  450   0.700   2.458   0.419 -1.8977  0.4891  1.2592
  151SOL     OW  451   0.165   1.453   0.209  0.3660 -0.2194 -0.2067
  151SOL    HW1  452   0.097   1.380   0.210  0.8953  2.6872 -0.3327
  151SOL    HW2  453   0.177   1.492   0.118  0.3853  0.3975  0.4213
  152SOL     OW  454   0.004   0.371   0.611  0.0088  0.3678  0.2842
  152SOL    HW1  455   3.041   0.358   0.705  0.8063 -0.9128  0.0644
  152SOL    HW2  456   3.062   0.290   0.550 -1.7529  0.4518  0.4674
  153SOL     OW  457   2.320   0.084   0.931 -0.1545  0.4934  1.2070
  153SOL    HW1  458   2.233   0.114   0.887  0.2316  0.3528  1.6463
  153SOL    HW2  459   2.384   0.039   0.862  0.9024  2.4076  0.9927
  154SOL     OW  460   1.148   0.444   1.683  0.2009  0.3999  0.2335
  154SOL    HW1  461   1.124   0.356   1.725  1.6798  1.3927 -1.6760
  154SOL    HW2  462   1.223   0.436   1.614 -0.7781 -1.7746  4.4131
  155SOL     OW  463   2.648   1.427   0.946 -0.1066 -0.0660  0.6143
  155SOL    HW1  464   2.583   1.429   1.026 -1.2161 -3.6091 -1.0674
  155SOL    HW2  465   2.680   1.517   0.930  1.2161 -2.7144  1.9237
  156SOL     OW  466   2.609   1.984   0.119 -0.2383 -0.5232 -0.8447
  156SOL    HW1  467   2.549   1.908   0.087  2.4455  2.1137 -0.4629
  156SOL    HW2  468   2.688   1.948   0.177  4.2380 -1.8473 -0.9475
  157SOL     OW  469   0.960   2.831   0.643  0.0425  0.2364 -0.1886
  157SOL    HW1  470   0.926   2.790   0.732 -0.6798 -0.2726  1.7411
  157SOL    HW2  471   0.944   2.772   0.559  1.0543 -1.5605 -1.4249
  158SOL     OW  472   2.291   0.455   2.617  0.4067 -0.1864  0.2730
  158SOL    HW1  473   2.391   0.449   2.635  2.3156  0.5206 -2.5416
  158SOL    HW2  474   2.255   0.386   2.547 -0.0016 -1.0202 -1.6013
  159SOL     OW  475   0.375   0.193   0.137  0.0362 -0.2666  0.0890
  159SOL    HW1  476   0.304   0.155   0.074 -0.8339 -1.2527 -0.9389
  159SOL    HW2  477   0.335   0.195   0.228 -0.4062  1.3675 -0.7769
  160SOL     OW  478   1.208   2.052   3.043 -0.0613  0.3081 -0.1404
  160SOL    HW1  479   1.188   1.979   2.975 -0.4654 -1.9023 -0.1148
  160SOL    HW2  480   1.117   2.080   0.016 -1.7169  0.7627 -0.2199
  161SOL     OW  481   2.669   1.781   2.383 -0.0065 -0.0497  0.2437
  161SOL    HW1  482   2.692   1.881   2.376  1.8102 -0.7355 -0.8289
  161SOL    HW2  483   2.568   1.758   2.371 -1.1978 -1.8554  0.4183
  162SOL     OW  484   0.132   2.846   1.119 -0.6857  0.0256  0.2678
  162SOL    HW1  485   0.213   2.817   1.178  0.9994  0.3027  2.9803
  162SOL    HW2  486   0.063   2.882   1.183 -0.0329 -1.3537  0.3144
  163SOL     OW  487   2.166   0.383   2.856  0.0983  0.2827  0.4154
  163SOL    HW1  488   2.081   0.330   2.866  1.8018  1.2375  0.6560
  163SOL    HW2  489   2.192   0.400   2.760 -1.2572  0.9412 -0.7907
  164SOL     OW  490   2.861   1.634   0.858 -0.3394  0.2358  0.6036
  164SOL    HW1  491   2.882   1.607   0.764 -2.4453 -0.8513  1.8437
  164SOL    HW2  492   2.864   1.733   0.868 -2.5535  0.0117  1.5259
  165SOL     OW  493   2.821   0.180   1.891 -0.0443 -0.5584 -0.0620
  165SOL    HW1  494   2.745   0.115   1.900 -0.1504  2.0233  1.1063
  165SOL    HW2  495   2.791   0.277   1.894  0.7144  2.0520  2.2098
  166SOL     OW  496   2.201   0.768   0.665  0.0926  0.2956 -0.0413
  166SOL    HW1  497   2.153   0.855   0.682 -2.6888 -0.9351 -2.8336
  166SOL    HW2  498   2.271   0.785   0.590  4.2859 -3.2972  1.5642
  167SOL     OW  499   0.436   0.368   0.460 -0.0396 -0.3296  0.2857
  167SOL    HW1  500   0.394   0.457   0.418 -0.7251 -0.2086 -1.9858
  167SOL    HW2  501   0.418   0.356   0.561  1.1302 -0.4661 -0.1185
  168SOL     OW  502   1.809   2.734   2.193 -0.1121  0.6235  0.9053
  168SOL    HW1  503   1.846   2.648   2.232  2.2767 -0.2813 -0.7827
  168SOL    HW2  504   1.760   2.781   2.267  0.0862  1.0069  0.5965
  169SOL     OW  505   0.962   1.026   0.635 -0.0505 -0.4998 -0.0525
  169SOL    HW1  506   0.907   0.993   0.557  1.7802 -2.5334  2.6232
  169SOL    HW2  507   0.900   1.021   0.716 -0.8287 -1.9879 -1.8809
  170SOL     OW  508   2.837   0.657   1.506 -0.1320 -0.5462 -0.4521
  170SOL    HW1  509   2.827   0.639   1.407 -1.4560  1.0937  2.2231
  170SOL    HW2  510   2.795   0.583   1.566  1.2171  2.9216  0.5896
  171SOL     OW  511   1.019   2.738   1.655 -0.0739  0.0677 -0.1548
  171SOL    HW1  512   1.104   2.699   1.611 -3.2760  0.0092  1.0386
  171SOL    HW2  513   1.042   2.836   1.680 -1.2221 -0.1378  0.1429
  172SOL     OW  514   0.150   2.518   1.498 -0.2365  0.2547 -0.5491
  172SOL    HW1  515   0.113   2.452   1.432  1.1778  1.8428  0.2739
  172SOL    HW2  516   0.140   2.610   1.459 -0.1574 -1.1359  2.6485
  173SOL     OW  517   1.181   0.294   2.845  0.2552 -0.3743 -0.0609
  173SOL    HW1  518   1.193   0.296   2.742  0.5946 -1.0421 -1.8150
  173SOL    HW2  519   1.237   0.356   2.899 -0.4866  0.0880 -2.9075
  174SOL     OW  520   1.750   3.065   2.506 -0.1397 -0.3293 -0.4752
  174SOL    HW1  521   1.683   0.036   2.569 -0.2684  1.8590  1.9194
  174SOL    HW2  522   1.838   3.068   2.555 -0.9142 -1.1937  3.9238
  175SOL     OW  523   1.783   2.540   3.064 -0.0233  0.1551  0.9781
  175SOL    HW1  524   1.819   2.541   0.090  0.1457  0.0935 -0.6095
  175SOL    HW2  525   1.687   2.578   3.064 -0.6687  0.8370  0.1084
  176SOL     OW  526   1.687   0.303   2.867  0.1513 -0.6254  0.7970
  176SOL    HW1  527   1.671   0.374   2.944  1.6839  1.4558  1.2343
  176SOL    HW2  528   1.643   0.334   2.780 -2.0111 -0.4040  1.0436
  177SOL     OW  529   0.852   1.629   0.418 -1.1030 -0.1775  0.2257
  177SOL    HW1  530   0.776   1.626   0.488  3.3529  3.7300  0.5850
  177SOL    HW2  531   0.839   1.677   0.333 -2.2336 -0.1258  1.0755
  178SOL     OW  532   3.008   2.161   2.417 -0.3023  0.1617  0.0962
  178SOL    HW1  533   0.027   2.194   2.367  2.3071  2.0619 -2.6391
  178SOL    HW2  534   3.020   2.160   2.521  1.8414  0.1678  1.8474
  179SOL     OW  535   0.469   2.615   2.455 -0.2556  0.2689 -0.1669
  179SOL    HW1  536   0.519   2.594   2.543 -0.9760  1.2141  0.2404
  179SOL    HW2  537   0.518   2.577   2.371 -1.9789 -0.9176 -1.5769
  180SOL     OW  538   1.926   1.816   1.061 -0.6767  0.0516  0.1290
  180SOL    HW1  539   1.969   1.731   1.100 -0.5579 -0.5977 -0.7129
  180SOL    HW2  540   1.840   1.831   1.109  3.0498 -3.8747  2.5967
  181SOL     OW  541   1.738   0.865   2.226 -0.1611  0.3576  0.3706
  181SOL    HW1  542   1.744   0.938   2.154 -1.6298  1.0054 -0.8989
  181SOL    HW2  543   1.773   0.902   2.314 -0.5685 -0.4551 -1.5297
  182SOL     OW  544   2.720   2.881   2.286 -0.3798  0.2433 -0.2026
  182SOL    HW1  545   2.755   2.797   2.242 -1.4973  1.9138  0.7515
  182SOL    HW2  546   2.764   2.966   2.248 -0.7417  0.0060 -2.4447
  183SOL     OW  547   1.400   0.679   2.417  0.1130  0.3023  0.0726
  183SOL    HW1  548   1.397   0.708   2.320  0.9965  1.7002 -0.4975
  183SOL    HW2  549   1.496   0.676   2.457 -3.1018 -1.6868  0.4561
  184SOL     OW  550   0.899   0.878   1.629 -0.2749  0.0272 -0.2402
  184SOL    HW1  551   0.961   0.806   1.663 -2.3591 -0.0103  0.9788
  184SOL    HW2  552   0.933   0.915   1.540 -0.3801  0.7217 -1.3670
  185SOL     OW  553   2.047   1.019   0.645  0.2043  0.2896  0.1558
  185SOL    HW1  554   2.042   1.061   0.739  0.1361  0.1806  2.5446
  185SOL    HW2  555   2.079   1.080   0.572 -0.7271 -1.3285 -0.4234
  186SOL     OW  556   0.321   1.836   2.773 -0.0513  0.1857 -0.0298
  186SOL    HW1  557   0.386   1.762   2.788 -1.7707 -0.1057  0.8328
  186SOL    HW2  558   0.271   1.825   2.689  1.0448 -1.3904 -2.5537
  187SOL     OW  559   2.625   1.355   0.212  0.2303  0.0785  0.4992
  187SOL    HW1  560   2.614   1.453   0.237 -0.2124  2.2787 -4.5757
  187SOL    HW2  561   2.660   1.298   0.285 -1.2468  1.7306 -2.5259
  188SOL     OW  562   0.053   1.789   0.732  0.3137 -0.2725  0.1133
  188SOL    HW1  563   0.136   1.816   0.685  0.2566 -1.5567  1.8641
  188SOL    HW2  564   0.063   1.736   0.820 -2.0064 -0.3286  1.4970
  189SOL     OW  565   2.335   0.475   0.187 -0.5349 -0.2151  0.3351
  189SOL    HW1  566   2.319   0.498   0.286 -0.4985  2.5796  1.1550
  189SOL    HW2  567   2.433   0.462   0.172 -1.8999  0.8761 -0.9696
  190SOL     OW  568   1.398   1.399   2.042 -0.1569 -0.5693 -0.5937
  190SOL    HW1  569   1.363   1.489   2.011  0.4402  0.1529  2.2110
  190SOL    HW2  570   1.342   1.316   2.007 -0.5743 -3.2069  1.0609
  191SOL     OW  571   2.341   0.022   1.795 -0.6741  0.2948 -0.1822
  191SOL    HW1  572   2.332   0.095   1.729  1.2694 -2.1889 -0.4663
  191SOL    HW2  573   2.275   0.034   1.874 -1.3318  1.3915  1.9779
  192SOL     OW  574   1.811   1.171   1.492  0.0043  0.5572 -0.5613
  192SOL    HW1  575   1.761   1.205   1.411 -2.2053 -1.2384  2.0580
  192SOL    HW2  576   1.777   1.077   1.515  1.3971  1.7003 -1.7618
  193SOL     OW  577   0.837   0.670   0.840  0.1529 -0.3710  0.7045
  193SOL    HW1  578   0.795   0.637   0.753 -0.5553  1.6940 -2.2590
  193SOL    HW2  579   0.838   0.599   0.913  0.2235  1.1733 -0.3845
  194SOL     OW  580   1.082   2.981   1.260 -0.5269 -0.4981 -0.1537
  194SOL    HW1  581   1.060   2.980   1.160  0.8940  0.9634  0.7380
  194SOL    HW2  582   1.149   2.907   1.289  3.1224  0.2699  1.1013
  195SOL     OW  583   2.371   0.594   0.434 -0.0398 -0.1889 -0.2579
  195SOL    HW1  584   2.388   0.552   0.525  0.8073  1.2938  1.0671
  195SOL    HW2  585   2.404   0.689   0.428  1.0735  2.2611  0.8931
  196SOL     OW  586   0.823   1.979   1.442 -0.5053 -0.1501  0.1705
  196SOL    HW1  587   0.862   2.037   1.365  0.7566 -0.1738 -0.1448
  196SOL    HW2  588   0.891   1.977   1.520  1.3101  0.1802  1.6928
  197SOL     OW  589   0.457   2.668   0.459 -0.2474 -0.5633 -0.7593
  197SOL    HW1  590   0.538   2.659   0.522  1.4494 -1.7767 -0.1690
  197SOL    HW2  591   0.481   2.702   0.367  2.7314 -0.3567 -0.3160
  198SOL     OW  592   0.771   0.925   0.839 -0.0268  0.0697  0.6750
  198SOL    HW1  593   0.804   0.973   0.924  2.1040  2.0127  2.8683
  198SOL    HW2  594   0.787   0.822   0.837  0.6111 -4.5105 -0.2258
  199SOL     OW  595   0.085   0.009   1.676  0.2198 -0.4229 -0.0273
  199SOL    HW1  596   0.113   0.087   1.618 -0.9597 -0.3472  4.3573
  199SOL    HW2  597   0.148   3.001   1.673 -2.0548 -1.0155 -2.2921
  200SOL     OW  598   2.420   1.667   2.594  0.6934  0.4951  0.0964
  200SOL    HW1  599   2.406   1.576   2.633 -1.2362  0.4165 -0.5176
  200SOL    HW2  600   2.387   1.667   2.498 -0.5124 -1.4407  1.7140
  201SOL     OW  601   2.707   2.360   1.388 -0.2215 -0.4077 -0.3569
  201SOL    HW1  602   2.796   2.322   1.398  0.0175  1.6331  1.0647
  201SOL    HW2  603   2.632   2.306   1.427  1.9698  1.9888 -0.5905
  202SOL     OW  604   2.583   0.144   0.385  0.4241 -0.6179 -0.6378
  202SOL    HW1  605   2.500   0.194   0.414  0.7428 -1.4230  0.9331
  202SOL    HW2  606   2.660   0.196   0.426  2.5265  1.5239 -0.2421
  203SOL     OW  607   1.336   2.102   2.289 -0.2745  0.0355  0.1274
  203SOL    HW1  608   1.313   2.098   2.191 -2.0459  2.6585  2.1622
  203SOL    HW2  609   1.284   2.033   2.342 -1.2314 -0.3837 -1.7381
  204SOL     OW  610   0.941   1.409   1.690 -0.2820  0.0489 -0.0656
  204SOL    HW1  611   0.934   1.479   1.619  2.0036 -1.8725  1.3825
  204SOL    HW2  612   0.870   1.344   1.667 -0.0039  1.1237 -1.8228
  205SOL     OW  613   1.012   2.001   1.644 -0.0160  0.7969 -0.1647
  205SOL    HW1  614   1.102   1.959   1.609 -0.2711 -0.4884  1.6380
  205SOL    HW2  615   0.991   1.972   1.738  2.8067  0.6372  0.4642
  206SOL     OW  616   0.240   0.506   2.652  0.0758  0.0043 -0.1187
  206SOL    HW1  617   0.340   0.521   2.656 -1.3932  0.5303 -0.1048
  206SOL    HW2  618   0.217   0.409   2.626 -3.4692 -0.9697 -4.9812
  207SOL     OW  619   1.608   2.900   1.964 -0.5979  0.0482  0.3499
  207SOL    HW1  620   1.510   2.895   1.946  1.1161  0.1599  0.6024
  207SOL    HW2  621   1.645   2.805   1.952  0.4152 -0.0382  0.5849
  208SOL     OW  622   0.863   2.365   1.834 -0.0276  0.3372  0.2203
  208SOL    HW1  623   0.857   2.305   1.917 -0.1764 -1.0026 -1.0202
  208SOL    HW2  624   0.856   2.467   1.856 -0.6754 -0.8921 -2.0389
  209SOL     OW  625   1.941   1.244   2.844  0.3593  0.2849  0.5910
  209SOL    HW1  626   1.898   1.156   2.874 -0.1704 -3.4760 -1.3970
  209SOL    HW2  627   1.862   1.316   2.837 -0.0574 -2.3013  1.6175
  210SOL     OW  628   2.859   0.355   1.239  0.2987 -0.4931  0.3296
  210SOL    HW1  629   2.842   0.333   1.139  0.4309 -1.4453  1.4145
  210SOL    HW2  630   2.817   0.447   1.266  0.8024  1.1293  1.3994
  211SOL     OW  631   0.849   0.918   1.245 -0.2793 -0.0703 -0.5917
  211SOL    HW1  632   0.850   0.985   1.164  0.3896  2.2101 -1.0655
  211SOL    HW2  633   0.895   0.957   1.330  1.5351 -0.8466  1.7400
  212SOL     OW  634   0.992   2.002   0.980 -0.3330 -0.4885  0.3153
  212SOL    HW1  635   0.949   1.922   0.936  2.6267  1.5145 -0.3679
  212SOL    HW2  636   1.041   2.046   0.901 -0.0891 -0.8606 -0.9243
  213SOL     OW  637   1.789   0.249   1.741  0.0313  0.0919  0.3433
  213SOL    HW1  638   1.756   0.287   1.828 -1.2294  1.1895 -0.0360
  213SOL    HW2  639   1.851   0.172   1.765 -1.2001 -1.4832 -0.1489
  214SOL     OW  640   1.573   2.001   2.674  0.0965 -0.3441  0.0304
  214SOL    HW1  641   1.605   2.021   2.577 -1.7612 -1.0053 -0.2675
  214SOL    HW2  642   1.621   2.046   2.750 -0.0113 -1.0582  0.4580
  215SOL     OW  643   2.947   1.850   1.219 -0.1383  0.3825  0.1584
  215SOL    HW1  644   2.873   1.918   1.235  2.1659 -1.1686  1.8080
  215SOL    HW2  645   2.902   1.761   1.192 -0.1194  0.7919 -2.4415
  216SOL     OW  646   0.642   0.085   2.189  0.0917  0.8753 -0.4931
  216SOL    HW1  647   0.730   0.063   2.146 -0.7551  2.4118 -2.2343
  216SOL    HW2  648   0.632   0.043   2.281 -1.9243 -0.4773 -0.6140
  217SOL     OW  649   2.554   0.323   3.021 -0.3203 -0.0839  0.4991
  217SOL    HW1  650   2.551   0.418   2.997 -0.0105 -4.4852  0.3921
  217SOL    HW2  651   2.651   0.289   3.018  2.2327 -1.3458  1.4077
  218SOL     OW  652   1.695   1.620   2.541  0.1055 -0.2401 -0.3270
  218SOL    HW1  653   1.679   1.518   2.523 -1.7517  0.0563 -0.7612
  218SOL    HW2  654   1.755   1.633   2.626 -0.6583  0.4816 -0.5834
  219SOL     OW  655   1.595   1.123   0.054 -0.5945  0.0188 -0.2306
  219SOL    HW1  656   1.675   1.178   0.082 -1.1346 -0.0485 -1.0106
  219SOL    HW2  657   1.588   1.110   3.022  1.8277  1.3632 -3.8676
  220SOL     OW  658   1.418   1.959   1.137  0.7141  0.6406 -0.3621
  220SOL    HW1  659   1.332   1.964   1.191  0.0308  0.0211 -0.8149
  220SOL    HW2  660   1.405   1.992   1.042 -0.1868 -1.1116 -0.0156
  221SOL     OW  661   0.061   0.759   0.088 -0.0592 -0.2606  0.1541
  221SOL    HW1  662   3.063   0.821   0.124  0.7651 -1.0734  0.0454
  221SOL    HW2  663   0.116   0.819   0.032 -2.8210 -3.2651  0.7683
  222SOL     OW  664   1.250   2.678   1.501  0.9552 -0.1207  0.7470
  222SOL    HW1  665   1.225   2.583   1.472  0.9849 -0.9099  2.5604
  222SOL    HW2  666   1.312   2.716   1.427  2.9556  0.1905 -0.9941
  223SOL     OW  667   1.312   0.067   2.922 -0.0230 -0.0344  0.2584
  223SOL    HW1  668   1.242   0.143   2.903 -0.0440  1.1533 -0.7146
  223SOL    HW2  669   1.403   0.098   2.948 -2.0765 -0.7083 -0.5290
  224SOL     OW  670   2.663   0.954   1.159 -0.5519 -0.0741  0.0665
  224SOL    HW1  671   2.760   0.927   1.135 -0.4940  1.8067  1.0737
  224SOL    HW2  672   2.638   0.927   1.254  0.9531  0.6250 -0.8411
  225SOL     OW  673   0.919   1.219   1.312 -0.1315  0.0443  0.0698
  225SOL    HW1  674   0.943   1.302   1.263 -0.7731  2.0632 -1.2207
  225SOL    HW2  675   0.823   1.218   1.339  2.7214 -0.5303 -1.5474
  226SOL     OW  676   1.537   2.668   3.006  0.0984 -0.3012  0.1754
  226SOL    HW1  677   1.495   2.702   0.023  1.0802 -4.0604 -1.3804
  226SOL    HW2  678   1.518   2.725   2.928  2.7220 -0.0312 -1.6490
  227SOL     OW  679   0.576   1.598   0.990  0.2241  0.1104 -0.0134
  227SOL    HW1  680   0.561   1.510   1.046 -0.6307 -4.7989  1.6219
  227SOL    HW2  681   0.515   1.676   1.016  0.0417 -0.2690 -1.6629
  228SOL     OW  682   0.350   2.786   1.264  0.4381 -0.0349  0.1974
  228SOL    HW1  683   0.391   2.783   1.359 -0.0487  1.8059  2.8872
  228SOL    HW2  684   0.409   2.829   1.195 -0.0083 -0.5448 -2.5330
  229SOL     OW  685   2.385   1.238   0.161  0.1301 -0.0181  0.1582
  229SOL    HW1  686   2.477   1.267   0.133 -0.5254  0.1729  2.0624
  229SOL    HW2  687   2.333   1.209   0.078  2.4999 -1.0464  0.2655
  230SOL     OW  688   0.989   1.105   1.865  0.2445 -0.0437 -0.1273
  230SOL    HW1  689   1.020   1.099   1.771  1.3115 -0.2784  3.5645
  230SOL    HW2  690   0.993   1.014   1.912  3.2129  0.2707  0.7540
  231SOL     OW  691   1.469   1.940   1.648  0.2212 -0.5194  0.2454
  231SOL    HW1  692   1.555   1.992   1.628  0.8323 -1.2233 -3.4634
  231SOL    HW2  693   1.450   1.940   1.749 -0.9099 -3.1334  1.8979
  232SOL     OW  694   1.845   2.275   0.655  0.2818  0.2481  0.0107
  232SOL    HW1  695   1.800   2.369   0.658  1.3419 -0.1935  0.8237
  232SOL    HW2  696   1.908   2.261   0.569  3.9601 -3.6944 -2.2041
  233SOL     OW  697   1.248   2.327   2.979 -0.7262  0.0238  0.4106
  233SOL    HW1  698   1.325   2.337   2.917  0.4457 -0.3323 -0.3760
  233SOL    HW2  699   1.246   2.234   3.030 -1.1389 -1.6129  2.6304
  234SOL     OW  700   0.839   0.122   2.458  0.6097  0.5282  0.3539
  234SOL    HW1  701   0.847   0.099   2.553  0.6387 -1.3736 -0.9431
  234SOL    HW2  702   0.752   0.086   2.422  0.5704  0.6728  2.4559
  235SOL     OW  703   2.939   2.424   0.183 -0.3762  0.1000 -0.4308
  235SOL    HW1  704   2.895   2.457   0.268 -0.1151  0.5041 -3.1236
  235SOL    HW2  705   2.956   2.326   0.195 -0.4157  3.1850 -2.7868
  236SOL     OW  706   1.978   2.078   2.353 -0.2241 -0.6114  0.5865
  236SOL    HW1  707   1.892   2.018   2.347  0.9607 -2.6264 -2.6359
  236SOL    HW2  708   1.996   2.122   2.449  0.3611  1.0313  0.7635
  237SOL     OW  709   1.605   1.102   1.235  0.3985  0.3667  0.5057
  237SOL    HW1  710   1.640   1.007   1.239 -1.0705 -0.9087 -0.2836
  237SOL    HW2  711   1.596   1.131   1.136 -0.2423  1.1013 -4.6558
  238SOL     OW  712   2.062   0.198   2.181  0.6734  0.5555 -0.1721
  238SOL    HW1  713   2.042   0.290   2.140 -3.2932  1.1761 -0.3439
  238SOL    HW2  714   1.980   0.150   2.225 -2.3514 -0.3718 -0.1477
  239SOL     OW  715   0.586   1.452   1.705 -0.4951  0.5943 -0.3811
  239SOL    HW1  716   0.493   1.411   1.719  0.4087 -0.1521  0.5014
  239SOL    HW2  717   0.657   1.378   1.701 -2.7267 -0.9310 -0.9066
  240SOL     OW  718   0.040   2.199   0.467  0.7752  0.6054 -0.6915
  240SOL    HW1  719   0.039   2.301   0.484  0.3194 -0.4735 -1.4495
  240SOL    HW2  720   0.129   2.163   0.504 -1.0374  0.7203  1.0035
  241SOL     OW  721   1.629   1.998   0.541  0.4744  0.1649  0.6868
  241SOL    HW1  722   1.659   2.029   0.630 -2.2264  0.4455 -2.2389
  241SOL    HW2  723   1.576   1.910   0.542 -0.3711 -1.3145 -1.6222
  242SOL     OW  724   1.458   1.536   0.318  0.1516 -0.4759 -0.1726
  242SOL    HW1  725   1.504   1.467   0.381 -0.0315  0.7445  1.6539
  242SOL    HW2  726   1.493   1.524   0.223 -0.0457 -1.0181  0.8916
  243SOL     OW  727   0.899   0.017   2.106 -0.1565  0.5377 -0.1092
  243SOL    HW1  728   0.929   0.083   2.180  0.8550  0.5946  1.3801
  243SOL    HW2  729   0.976   3.032   2.072 -2.4857 -2.2094  0.8052
  244SOL     OW  730   1.651   2.930   2.833 -0.4514  0.1850 -0.4805
  244SOL    HW1  731   1.624   3.001   2.898  2.4558  0.5722  0.1405
  244SOL    HW2  732   1.568   2.892   2.782  0.1519 -0.8163 -2.8185
  245SOL     OW  733   1.401   2.910   0.036 -0.0589  0.0116  0.0795
  245SOL    HW1  734   1.368   2.970   0.105  1.6591  0.5555  0.5144
  245SOL    HW2  735   1.403   2.954   3.016 -0.5637 -0.7778 -2.2254
  246SOL     OW  736   0.911   0.319   2.678  0.2354 -0.1069 -0.0154
  246SOL    HW1  737   1.013   0.312   2.657 -2.0209 -1.7862  5.0197
  246SOL    HW2  738   0.881   0.228   2.718  0.9905  0.3814 -1.2036
  247SOL     OW  739   0.289   0.683   1.912 -0.4444 -0.3381 -0.0080
  247SOL    HW1  740   0.335   0.635   1.986 -1.5042 -1.3582 -1.7743
  247SOL    HW2  741   0.195   0.650   1.893 -1.2348  0.4352 -0.8023
  248SOL     OW  742   0.759   0.784   2.090  0.2322 -0.3221  0.2375
  248SOL    HW1  743   0.716   0.692   2.071 -0.2334 -0.3674  1.3942
  248SOL    HW2  744   0.851   0.789   2.049 -1.0358 -1.6189  1.9382
  249SOL     OW  745   2.009   0.424   0.190 -0.2247 -0.0243 -0.2213
  249SOL    HW1  746   2.011   0.329   0.157  0.3518  1.8097  1.4139
  249SOL    HW2  747   2.104   0.462   0.198  0.5782 -1.7086  0.3188
  250SOL     OW  748   0.673   0.371   0.759 -0.3211 -0.2641  0.0714
  250SOL    HW1  749   0.709   0.437   0.686 -0.4526  3.2657  0.3879
  250SOL    HW2  750   0.571   0.360   0.759 -2.2730  0.9866  3.3473
  251SOL     OW  751   1.163   0.267   2.577 -0.1219 -0.4058  0.0808
  251SOL    HW1  752   1.171   0.341   2.509 -3.0866 -1.1721  1.7739
  251SOL    HW2  753   1.210   0.186   2.545  0.4902  0.3857 -0.4326
  252SOL     OW  754   1.468   1.777   2.097  0.2654  0.0885 -0.1264
  252SOL    HW1  755   1.530   1.745   2.022 -2.2081  0.9675 -0.5719
  252SOL    HW2  756   1.477   1.722   2.184 -1.1834 -2.5646 -1.6083
  253SOL     OW  757   1.677   2.632   1.983 -0.2044  0.2824 -0.3932
  253SOL    HW1  758   1.647   2.542   2.030  1.7338 -2.0288  0.8262
  253SOL    HW2  759   1.740   2.679   2.048 -1.2562  0.6506  0.0314
  254SOL     OW  760   0.750   2.072   1.884  0.4506 -0.4272 -0.0305
  254SOL    HW1  761   0.780   2.131   1.962 -0.7881  0.5017 -1.4804
  254SOL    HW2  762   0.799   1.982   1.880  0.0505 -2.3964 -1.2624
  255SOL     OW  763   1.211   0.597   0.539  0.0105  0.0571 -0.6356
  255SOL    HW1  764   1.217   0.631   0.634  0.0876 -0.6369 -2.6166
  255SOL    HW2  765   1.120   0.631   0.489 -4.1118  0.0596 -1.9546
  256SOL     OW  766   1.848   1.877   1.754 -0.4232  0.1481 -0.8371
  256SOL    HW1  767   1.906   1.818   1.693 -1.4165  0.5694  1.9542
  256SOL    HW2  768   1.769   1.920   1.702 -1.1375  1.2188  1.7550
  257SOL     OW  769   0.599   2.182   2.535 -0.7502  0.6037  0.0277
  257SOL    HW1  770   0.694   2.215   2.554 -0.3645  1.9545 -2.2320
  257SOL    HW2  771   0.538   2.177   2.616 -0.5361 -0.0477 -0.8152
  258SOL     OW  772   0.813   0.426   2.188 -0.1168 -0.5259 -0.5987
  258SOL    HW1  773   0.853   0.332   2.186 -0.2271  1.2463 -2.0182
  258SOL    HW2  774   0.788   0.454   2.289 -1.5403 -2.2874  0.8762
  259SOL     OW  775   1.139   0.848   2.170 -0.3131  0.6205 -0.4139
  259SOL    HW1  776   1.124   0.833   2.270  2.0969 -0.8284 -1.6335
  259SOL    HW2  777   1.205   0.782   2.126  0.8243 -1.5272  1.0996
  260SOL     OW  778   1.439   0.882   0.593 -0.2720 -0.3812 -0.2778
  260SOL    HW1  779   1.363   0.927   0.640 -1.7666  0.4615 -0.3318
  260SOL    HW2  780   1.508   0.844   0.657  2.3551  0.3162  0.0291
  261SOL     OW  781   0.359   2.907   2.805  0.0563  0.1316 -0.7899
  261SOL    HW1  782   0.359   2.894   2.907  1.5434 -3.4756  1.6580
  261SOL    HW2  783   0.268   2.928   2.773  0.4189 -0.6309  1.8371
  262SOL     OW  784   2.421   0.008   2.750  0.1392  0.5391 -0.1512
  262SOL    HW1  785   2.523   3.067   2.734  0.4409  3.2672 -0.8178
  262SOL    HW2  786   2.405   0.053   2.841  1.1725 -2.1060 -1.8151
  263SOL     OW  787   0.153   2.184   0.049  0.4182  0.5333 -0.5500
  263SOL    HW1  788   0.086   2.156   0.120  0.9627  0.4062  2.2118
  263SOL    HW2  789   0.193   2.103   0.002 -0.1319 -1.0782 -1.3511
  264SOL     OW  790   0.640   1.211   1.397  0.4331 -0.5166  0.2180
  264SOL    HW1  791   0.554   1.248   1.438 -0.2845 -0.0727  0.1490
  264SOL    HW2  792   0.617   1.188   1.302 -0.6247  0.9287  0.6338
  265SOL     OW  793   0.528   1.357   0.350  0.2112  0.1280 -0.6234
  265SOL    HW1  794   0.464   1.287   0.309 -2.2071  0.7860 -2.1443
  265SOL    HW2  795   0.624   1.321   0.368 -0.1029  0.8788 -1.6437
  266SOL     OW  796   1.831   1.266   0.418 -0.0601 -0.2672 -0.5650
  266SOL    HW1  797   1.926   1.270   0.452 -0.2250  0.1023  0.2128
  266SOL    HW2  798   1.825   1.276   0.317 -0.1381  0.1903  1.5225
  267SOL     OW  799   2.870   0.443   0.040  0.5685  0.3814 -0.4421
  267SOL    HW1  800   2.846   0.345   0.016 -0.9501  0.4593 -1.5483
  267SOL    HW2  801   2.927   0.480   3.031 -0.7220  0.0715 -1.7495
  268SOL     OW  802   0.097   2.980   2.712  0.2064 -0.3005 -0.3438
  268SOL    HW1  803   0.076   2.882   2.738 -2.3651 -1.3931  0.2342
  268SOL    HW2  804   0.023   3.017   2.650 -1.2641  3.2145  0.7717
  269SOL     OW  805   2.010   0.096   2.625 -0.2511  0.3415  0.5756
  269SOL    HW1  806   2.001   0.139   2.717 -2.0177 -0.4161  0.3133
  269SOL    HW2  807   2.069   0.151   2.559  0.0027 -0.8656 -1.1196
  270SOL     OW  808   0.966   1.052   2.578 -0.3147 -0.1484  0.1122
  270SOL    HW1  809   0.869   1.049   2.546  0.6970  0.6172 -1.9883
  270SOL    HW2  810   0.996   1.149   2.600  0.7861  1.5601 -0.9196
  271SOL     OW  811   2.672   0.961   0.301 -0.1956  0.0883 -0.2918
  271SOL    HW1  812   2.585   0.925   0.271 -0.5803  1.0255  1.3232
  271SOL    HW2  813   2.724   1.012   0.227  0.4761  0.2643  1.3772
  272SOL     OW  814   2.834   1.729   2.592 -0.0656 -0.0203 -0.0183
  272SOL    HW1  815   2.763   1.741   2.527  0.6006 -0.4323  2.4585
  272SOL    HW2  816   2.866   1.821   2.619  1.2331 -0.3786  1.6147
  273SOL     OW  817   2.319   0.564   2.981  0.5795 -0.1222  0.0025
  273SOL    HW1  818   2.279   0.481   2.940 -2.9072  4.5392  0.9624
  273SOL    HW2  819   2.329   0.549   0.013  1.3733  0.5309 -1.3920
  274SOL     OW  820   0.050   2.710   0.908  0.2952  0.6889 -0.4288
  274SOL    HW1  821   0.135   2.675   0.860  0.6219  0.8447  0.2500
  274SOL    HW2  822   0.081   2.774   0.983  3.2352  2.5386 -0.3137
  275SOL     OW  823   1.996   1.626   0.613 -0.6424 -0.5943 -0.1874
  275SOL    HW1  824   2.091   1.639   0.575  1.4558 -2.2061  0.6853
  275SOL    HW2  825   1.988   1.700   0.683  1.7851  0.8667  3.9027
  276SOL     OW  826   0.114   1.310   2.671  0.4168 -0.2476 -0.4564
  276SOL    HW1  827   0.219   1.314   2.667  2.1582  0.9909  2.1367
  276SOL    HW2  828   0.077   1.272   2.584  0.4517  1.8899  0.0709
  277SOL     OW  829   1.726   2.642   1.599 -0.2268 -0.0354 -0.0897
  277SOL    HW1  830   1.641   2.655   1.653  3.1612 -0.5670 -0.3425
  277SOL    HW2  831   1.735   2.715   1.526 -1.8490  3.0388  0.3093
  278SOL     OW  832   1.688   0.466   1.936 -0.2238  0.3112  0.0690
  278SOL    HW1  833   1.584   0.482   1.941  1.4453  2.5024 -0.7288
  278SOL    HW2  834   1.731   0.512   1.852  2.1114 -0.4750 -1.3632
  279SOL     OW  835   1.975   1.601   0.307 -0.2865 -0.1850  0.1592
  279SOL    HW1  836   1.892   1.646   0.266 -0.1733  0.4070  1.8261
  279SOL    HW2  837   1.972   1.602   0.412  1.3413 -2.1486  1.3189
  280SOL     OW  838   0.385   1.622   0.784 -0.0362  0.0742 -0.4588
  280SOL    HW1  839   0.387   1.572   0.693 -1.4564  1.1023 -1.4538
  280SOL    HW2  840   0.468   1.596   0.836 -1.5078 -1.6948  1.3125
  281SOL     OW  841   3.041   0.036   2.515 -0.8381  0.1475  0.2179
  281SOL    HW1  842   3.009   0.133   2.507  0.3268 -1.1976 -0.1714
  281SOL    HW2  843   0.023   0.022   2.425 -0.2199 -0.8036 -3.7863
  282SOL     OW  844   0.218   0.876   0.992 -0.0888  0.1994 -0.1470
  282SOL    HW1  845   0.118   0.879   0.962 -1.9294  0.6906  1.5004
  282SOL    HW2  846   0.233   0.785   1.039  1.7424  0.5384 -2.0760
  283SOL     OW  847   1.941   2.099   0.210  0.5030 -0.3625  0.2641
  283SOL    HW1  848   2.033   2.092   0.169  0.5464  3.3134 -1.6381
  283SOL    HW2  849   1.870   2.124   0.138 -1.9054  0.7110 -0.9799
  284SOL     OW  850   1.611   1.376   0.513 -0.4662 -0.0102 -0.3003
  284SOL    HW1  851   1.647   1.433   0.588  1.7209  2.5958 -1.3080
  284SOL    HW2  852   1.690   1.349   0.454 -0.7213 -1.8460 -0.9965
  285SOL     OW  853   2.684   0.039   2.703 -0.2029  0.4869  0.5011
  285SOL    HW1  854   2.702   0.000   2.792  0.3395  0.4295 -1.3538
  285SOL    HW2  855   2.734   3.052   2.634  2.0935  1.7015  0.5391
  286SOL     OW  856   1.321   2.937   1.638  0.0604  0.1202  0.0634
  286SOL    HW1  857   1.340   2.842   1.612  0.3465 -0.4616  0.8387
  286SOL    HW2  858   1.250   2.984   1.585 -2.3830  0.2726  1.2674
  287SOL     OW  859   0.825   1.089   1.041  0.2157  0.3694 -0.5105
  287SOL    HW1  860   0.842   1.181   1.001 -0.2694  1.3300  2.9136
  287SOL    HW2  861   0.731   1.093   1.083 -0.6970 -0.5502 -0.5020
  288SOL     OW  862   1.565   0.110   2.984 -0.3479  0.0517 -0.2446
  288SOL    HW1  863   1.624   0.176   2.932  0.9811 -1.4865 -4.1264
  288SOL    HW2  864   1.576   0.127   0.013 -1.9119 -0.3983 -1.4863
  289SOL     OW  865   0.076   1.555   2.741 -0.3611 -0.2031 -0.7107
  289SOL    HW1  866   0.061   1.607   2.654  1.4221  1.5338  0.9407
  289SOL    HW2  867   0.088   1.452   2.722 -1.4999 -1.0468  0.5294
  290SOL     OW  868   1.484   2.254   0.690  0.0743 -0.2854  0.2711
  290SOL    HW1  869   1.435   2.337   0.664  1.7968  1.2680  0.5219
  290SOL    HW2  870   1.521   2.206   0.610  0.5821  1.2008 -2.5480
  291SOL     OW  871   2.284   1.985   2.766  1.0746 -0.4872 -0.2340
  291SOL    HW1  872   2.219   1.949   2.835 -0.7977  0.0332 -0.7731
  291SOL    HW2  873   2.381   1.960   2.799  1.2706 -0.3035  2.8927
  292SOL     OW  874   0.995   0.819   1.947  0.2196  0.8468  0.1511
  292SOL    HW1  875   1.048   0.847   2.031 -0.4964  1.5129  0.8469
  292SOL    HW2  876   1.060   0.785   1.879  0.7126  2.9192 -1.3415
  293SOL     OW  877   2.036   2.898   0.882 -0.5125  0.3536 -0.1199
  293SOL    HW1  878   2.026   2.889   0.781  1.1901 -1.4850 -1.2785
  293SOL    HW2  879   2.102   2.823   0.914  4.3742  0.9256 -0.3008
  294SOL     OW  880   0.284   0.522   2.375 -0.6851 -0.5534 -0.1428
  294SOL    HW1  881   0.253   0.535   2.466 -1.4418 -1.4420 -5.0215
  294SOL    HW2  882   0.389   0.519   2.383  1.2306 -0.1558  0.1829
  295SOL     OW  883   1.554   1.676   0.553 -0.2371  0.0817 -0.7544
  295SOL    HW1  884   1.504   1.623   0.626 -2.1774 -1.0114  1.0779
  295SOL    HW2  885   1.523   1.649   0.463  1.4399 -1.6772  1.2765
  296SOL     OW  886   2.346   1.861   0.001  0.0831 -0.1166 -0.3393
  296SOL    HW1  887   2.366   1.808   2.985 -2.1161  1.7858 -1.6152
  296SOL    HW2  888   2.267   1.818   0.047  0.8527  3.3981  1.8061
  297SOL     OW  889   1.914   0.533   3.031  0.5788 -0.3328  0.1907
  297SOL    HW1  890   1.996   0.538   2.967  1.3499 -0.4727 -1.1904
  297SOL    HW2  891   1.942   0.491   0.047 -0.2943  1.1128 -0.7680
  298SOL     OW  892   1.083   2.398   2.608  0.2745 -0.1781  0.5147
  298SOL    HW1  893   1.098   2.323   2.678  1.4156 -1.1387  1.0076
  298SOL    HW2  894   1.140   2.378   2.526 -0.7023  0.5999  0.5436
  299SOL     OW  895   1.233   2.793   2.382  0.6273  0.3408  0.1117
  299SOL    HW1  896   1.312   2.829   2.332  0.7005 -3.3662  1.5548
  299SOL    HW2  897   1.157   2.783   2.315  1.9995 -1.5008 -1.9308
  300SOL     OW  898   2.348   0.162   2.963 -0.2769  0.1676 -0.1278
  300SOL    HW1  899   2.432   0.207   2.998  1.0633 -0.1385 -4.0939
  300SOL    HW2  900   2.288   0.233   2.924  1.4297  0.5219  0.2924
  301SOL     OW  901   1.283   1.614   1.317  0.0497 -0.4395 -0.1573
  301SOL    HW1  902   1.310   1.535   1.269  0.2789  0.1707  2.4599
  301SOL    HW2  903   1.214   1.666   1.262  3.0994  1.0607 -0.6648
  302SOL     OW  904   2.570   2.429   0.389  1.0641 -0.3419  0.4352
  302SOL    HW1  905   2.654   2.479   0.412 -0.5715 -3.1103 -0.8576
  302SOL    HW2  906   2.532   2.462   0.301 -0.5002  0.1337  1.8588
  303SOL     OW  907   2.863   2.663   2.215  0.0524  0.0560 -0.2666
  303SOL    HW1  908   2.966   2.678   2.230  4.8908 -1.7534 -0.0742
  303SOL    HW2  909   2.843   2.613   2.127  0.7968 -1.5954 -0.1010
  304SOL     OW  910   0.009   0.568   1.936 -0.2560  0.5631  0.3708
  304SOL    HW1  911   3.054   0.545   1.841 -0.8762  1.3634  0.6731
  304SOL    HW2  912   3.003   0.613   1.981  2.1769  0.5294 -0.8984
  305SOL     OW  913   0.462   1.758   1.794 -0.1071 -0.3607  0.0854
  305SOL    HW1  914   0.484   1.688   1.866  2.7984  2.2797  0.7041
  305SOL    HW2  915   0.529   1.830   1.796 -0.3581 -1.0394  3.4632
  306SOL     OW  916   2.770   0.925   1.918  0.5594  0.2487 -0.0829
  306SOL    HW1  917   2.773   0.982   2.005 -0.0078  0.0008  1.5929
  306SOL    HW2  918   2.677   0.931   1.878  1.2441 -1.6518  1.7391
  307SOL     OW  919   1.825   1.350   1.737  0.0608  0.1086 -0.4799
  307SOL    HW1  920   1.725   1.358   1.715  0.5324 -2.3256 -0.0793
  307SOL    HW2  921   1.865   1.298   1.659 -0.9737  0.5601  1.1839
  308SOL     OW  922   2.552   1.699   1.015 -0.5094 -0.0330  0.0092
  308SOL    HW1  923   2.455   1.665   1.011  1.1928 -1.5478 -0.1762
  308SOL    HW2  924   2.562   1.799   0.989  0.0092  1.7925  3.0375
  309SOL     OW  925   2.292   1.526   1.319  0.0710  0.5664 -0.1214
  309SOL    HW1  926   2.330   1.580   1.394 -1.7356 -2.8440 -1.0418
  309SOL    HW2  927   2.349   1.446   1.297 -0.3485 -1.9451  0.1301
  310SOL     OW  928   2.778   1.454   2.625  0.3647  0.1217 -0.5351
  310SOL    HW1  929   2.735   1.466   2.535 -1.5029  0.7175 -1.9427
  310SOL    HW2  930   2.819   1.542   2.654 -0.0927  1.3395 -1.1244
  311SOL     OW  931   3.017   1.863   3.027 -0.1100  0.2315 -0.4689
  311SOL    HW1  932   2.945   1.919   2.981 -1.5242 -0.1614  1.4124
  311SOL    HW2  933   2.997   1.767   2.998 -2.4647 -2.2504  0.2425
  312SOL     OW  934   2.289   1.616   1.010 -0.4781  0.6626 -0.8536
  312SOL    HW1  935   2.224   1.570   0.941 -1.0110 -0.3132  0.5523
  312SOL    HW2  936   2.265   1.613   1.109 -2.1581  0.8021  1.0992
  313SOL     OW  937   2.501   2.665   1.083  0.5259 -0.6049  0.3314
  313SOL    HW1  938   2.547   2.755   1.116  2.3569  1.5763  1.6615
  313SOL    HW2  939   2.475   2.608   1.161  3.8046  1.0017 -1.0867
  314SOL     OW  940   1.115   1.682   0.512  0.1830 -0.7999  0.3969
  314SOL    HW1  941   1.136   1.631   0.595 -1.1368  1.4528  1.9884
  314SOL    HW2  942   1.026   1.653   0.473 -2.4244  0.2182  2.2315
  315SOL     OW  943   0.866   2.521   2.488 -0.4132 -0.8348  0.4546
  315SOL    HW1  944   0.938   2.490   2.553  1.0247 -0.8926  0.5037
  315SOL    HW2  945   0.880   2.620   2.449 -0.2311  4.5118 -2.3853
  316SOL     OW  946   0.159   0.768   0.681 -0.4569  0.4243  0.1060
  316SOL    HW1  947   0.255   0.771   0.638  3.9918 -0.1086 -1.8979
  316SOL    HW2  948   0.100   0.707   0.624  0.4915 -0.2468 -0.7572
  317SOL     OW  949   0.957   0.271   0.491 -0.1322 -0.6109  0.3035
  317SOL    HW1  950   0.868   0.310   0.462  1.6388  1.2382 -0.7468
  317SOL    HW2  951   0.951   0.177   0.535  2.2163  1.7010  1.5847
  318SOL     OW  952   2.842   2.552   0.413  0.3154  0.2261 -0.2755
  318SOL    HW1  953   2.933   2.522   0.446  1.8842 -1.9743 -3.3777
  318SOL    HW2  954   2.837   2.651   0.422  1.8218 -3.3658 -0.9666
  319SOL     OW  955   0.642   1.327   2.377  0.1038  0.6638 -0.0266
  319SOL    HW1  956   0.546   1.353   2.373  1.4917  0.8807  0.7408
  319SOL    HW2  957   0.697   1.410   2.398  0.7247  0.9296  1.3043
  320SOL     OW  958   0.849   2.624   1.820  0.1254 -0.0546  0.0161
  320SOL    HW1  959   0.925   2.665   1.770  0.7299 -0.7948  1.3888
  320SOL    HW2  960   0.762   2.641   1.769 -1.2838 -1.7257 -1.2356
  321SOL     OW  961   1.129   2.296   0.251  0.2387  0.4658  0.1513
  321SOL    HW1  962   1.186   2.241   0.322 -0.9306 -2.1085 -0.1429
  321SOL    HW2  963   1.194   2.361   0.203 -0.6331 -1.7594  0.0569
  322SOL     OW  964   2.484   0.953   2.135  0.1837 -0.0316 -0.2739
  322SOL    HW1  965   2.434   1.037   2.103  0.2545  1.1230  0.8184
  322SOL    HW2  966   2.578   0.980   2.165  0.5833 -0.6157  1.3047
  323SOL     OW  967   2.347   0.900   0.420 -0.0781  0.2811 -0.1615
  323SOL    HW1  968   2.248   0.926   0.404 -2.4976  1.8297 -0.8043
  323SOL    HW2  969   2.381   0.872   0.329 -2.2682 -1.1792  1.5366
  324SOL     OW  970   0.486   2.481   2.978  0.4568 -0.2970  0.0977
  324SOL    HW1  971   0.393   2.527   2.962 -2.5487  3.9403 -0.8092
  324SOL    HW2  972   0.485   2.437   3.067  2.9382  1.0594 -1.7160
  325SOL     OW  973   1.698   0.358   2.340 -0.3549  0.1142  0.1045
  325SOL    HW1  974   1.742   0.442   2.314 -1.1983  0.5371  0.7217
  325SOL    HW2  975   1.751   0.276   2.316 -1.5596 -1.1865  1.6802
  326SOL     OW  976   2.147   2.715   1.564 -0.0290  0.1421  0.1578
  326SOL    HW1  977   2.205   2.635   1.540  1.0512  1.3057 -0.2613
  326SOL    HW2  978   2.096   2.756   1.484 -0.9012 -1.2409 -0.6438
  327SOL     OW  979   1.693   0.627   2.922  0.1670 -0.2992 -0.0401
  327SOL    HW1  980   1.628   0.642   3.003  0.3865 -0.9809  1.6513
  327SOL    HW2  981   1.782   0.595   2.962 -0.7253 -0.1287  5.4939
  328SOL     OW  982   2.740   1.035   2.198 -0.5699 -0.2517 -0.1871
  328SOL    HW1  983   2.717   1.136   2.200  0.6439 -0.0755 -0.1755
  328SOL    HW2  984   2.762   1.003   2.294  1.5361 -0.7328  1.4953
  329SOL     OW  985   1.537   0.181   1.925 -0.7082 -0.2237 -0.1125
  329SOL    HW1  986   1.492   0.150   1.837  3.0095  1.2245 -0.5041
  329SOL    HW2  987   1.622   0.136   1.955 -0.0718  1.3639  2.9572
  330SOL     OW  988   2.761   1.816   1.585  0.3014  0.1236 -0.4323
  330SOL    HW1  989   2.684   1.803   1.516 -4.0452  0.0583 -2.3623
  330SOL    HW2  990   2.810   1.727   1.589 -0.9326  0.0798  1.2083
  331SOL     OW  991   0.375   1.332   1.997 -0.3777 -0.9795 -0.0102
  331SOL    HW1  992   0.371   1.305   1.901  0.4268  0.6476  2.8752
  331SOL    HW2  993   0.440   1.269   2.041 -0.4501 -0.7847 -3.1242
  332SOL     OW  994   0.535   0.110   1.439  0.0911 -0.2136 -0.6875
  332SOL    HW1  995   0.517   0.074   1.344  1.1176 -1.7189 -1.3427
  332SOL    HW2  996   0.570   0.208   1.441  0.4870  2.0520 -0.5641
  333SOL     OW  997   2.140   2.692   1.908  0.1235  0.3367 -0.8048
  333SOL    HW1  998   2.214   2.738   1.856  0.2234 -1.8695 -1.8320
  333SOL    HW2  999   2.068   2.656   1.843  1.1164  1.6800  1.1139
  334SOL     OW 1000   0.849   1.596   0.897  0.3114 -0.4136  0.3479
  334SOL    HW1 1001   0.749   1.600   0.915  0.2881  0.7473  2.5900
  334SOL    HW2 1002   0.881   1.692   0.888 -0.6557 -0.0037  0.5834
  335SOL     OW 1003   0.640   2.235   2.858  0.3318  0.2165  0.6820
  335SOL    HW1 1004   0.606   2.327   2.886  0.9850  0.2302 -0.0876
  335SOL    HW2 1005   0.566   2.172   2.832  1.6365  1.0526  2.2033
  336SOL     OW 1006   0.041   0.167   1.893  0.6956 -0.6854 -0.1737
  336SOL    HW1 1007   0.065   0.105   1.814  1.9454 -0.3774 -2.7756
  336SOL    HW2 1008   3.012   0.172   1.928  0.2707 -0.0649  0.8034
  337SOL     OW 1009   2.577   2.251   0.042  0.4468 -0.2162 -0.4310
  337SOL    HW1 1010   2.507   2.303   0.093  1.3291 -0.4482 -1.5556
  337SOL    HW2 1011   2.572   2.155   0.073  2.4288  0.2649 -2.3610
  338SOL     OW 1012   0.879   2.125   1.214 -0.4933  0.1742  0.4703
  338SOL    HW1 1013   0.826   2.207   1.191  2.3131 -1.4793  0.6689
  338SOL    HW2 1014   0.915   2.086   1.129 -1.8959 -1.4349  1.6208
  339SOL     OW 1015   3.024   0.290   2.127  0.3748 -0.1943 -0.0934
  339SOL    HW1 1016   3.064   0.326   2.042  0.5140  0.2418  1.3571
  339SOL    HW2 1017   0.018   0.236   2.182  0.5183  2.5838 -2.1461
  340SOL     OW 1018   1.556   2.617   0.636  0.9435  0.5130  0.2395
  340SOL    HW1 1019   1.535   2.717   0.646  1.6896  0.0012  0.0030
  340SOL    HW2 1020   1.476   2.557   0.615  3.0379  0.5376  1.8390
  341SOL     OW 1021   1.526   1.301   1.008  0.1716  0.4409 -0.3136
  341SOL    HW1 1022   1.470   1.232   0.953  1.3165  1.6925  1.9824
  341SOL    HW2 1023   1.600   1.344   0.954 -2.2522 -1.7043 -0.7702
  342SOL     OW 1024   0.172   1.317   0.797 -0.2002 -0.1578  0.1909
  342SOL    HW1 1025   0.174   1.370   0.708  0.6354  0.9293 -2.2748
  342SOL    HW2 1026   0.175   1.222   0.768 -0.7007  0.4903  0.4941
  343SOL     OW 1027   1.515   0.161   1.231 -0.3877  0.2423 -0.0142
  343SOL    HW1 1028   1.532   0.250   1.186  1.9472 -3.3116  1.5966
  343SOL    HW2 1029   1.436   0.163   1.292 -1.5768  1.3246  1.1157
  344SOL     OW 1030   1.924   2.425   1.245  0.0652 -0.3909 -0.0045
  344SOL    HW1 1031   2.000   2.489   1.257 -2.1830 -0.1628 -1.2305
  344SOL    HW2 1032   1.842   2.478   1.203  0.7957 -0.4179 -1.6487
  345SOL     OW 1033   2.836   2.408   2.823  0.6152  0.2441 -0.3694
  345SOL    HW1 1034   2.868   2.474   2.752 -1.1262  2.1596 -1.7668
  345SOL    HW2 1035   2.916   2.365   2.874  2.6576 -1.9971 -1.1413
  346SOL     OW 1036   0.127   1.460   1.051 -0.2897  0.1393  0.4779
  346SOL    HW1 1037   0.131   1.561   1.025 -0.4391 -1.5472  3.2553
  346SOL    HW2 1038   0.153   1.405   0.969 -0.4949  1.6804 -0.9938
  347SOL     OW 1039   1.819   2.568   0.727  0.2896 -0.0600  0.0351
  347SOL    HW1 1040   1.720   2.588   0.701 -0.5244  1.8987 -1.9699
  347SOL    HW2 1041   1.851   2.622   0.812 -2.8407 -1.7630  2.8604
  348SOL     OW 1042   1.204   1.296   2.460 -0.5278  0.7505 -0.3084
  348SOL    HW1 1043   1.181   1.214   2.403 -0.2719 -0.7608  0.2389
  348SOL    HW2 1044   1.124   1.363   2.458 -0.8689  1.2323  0.2931
  349SOL     OW 1045   2.268   1.229   2.253  0.2371  0.4640 -0.2095
  349SOL    HW1 1046   2.182   1.259   2.205 -1.1940 -0.6690 -0.2349
  349SOL    HW2 1047   2.246   1.180   2.338 -0.6429  1.4408  0.4224
  350SOL     OW 1048   0.019   2.365   1.279 -0.2056  0.5149 -0.1887
  350SOL    HW1 1049   3.039   2.288   1.330 -0.4179 -0.6093  0.2673
  350SOL    HW2 1050   0.074   2.328   1.201  0.6506  2.1684  0.4324
  351SOL     OW 1051   0.551   0.248   2.577 -0.1366  0.0197  0.4958
  351SOL    HW1 1052   0.562   0.273   2.675 -2.8356 -1.7952 -2.1168
  351SOL    HW2 1053   0.635   0.269   2.527 -1.0891 -1.7061  1.6382
  352SOL     OW 1054   0.874   2.733   1.392 -0.3547 -0.2954 -0.2625
  352SOL    HW1 1055   0.950   2.739   1.458  0.0684  1.7355  0.1855
  352SOL    HW2 1056   0.788   2.711   1.439  0.3687 -0.0696 -1.5367
  353SOL     OW 1057   1.088   0.878   2.437 -0.8211  0.1203 -0.4859
  353SOL    HW1 1058   1.026   0.950   2.478 -0.0017  0.6834 -2.6513
  353SOL    HW2 1059   1.143   0.836   2.514  3.8491 -0.5839  0.1354
  354SOL     OW 1060   1.417   1.177   0.264 -0.2699  0.7004 -0.0939
  354SOL    HW1 1061   1.406   1.079   0.294 -1.9907  0.0206  0.8470
  354SOL    HW2 1062   1.485   1.175   0.189 -0.2923  0.9997  1.7092
  355SOL     OW 1063   2.444   0.490   0.672  0.2657  0.3670  0.3083
  355SOL    HW1 1064   2.470   0.486   0.771 -0.3526 -0.4095  1.3605
  355SOL    HW2 1065   2.435   0.391   0.643  0.8169 -3.0079  1.1059
  356SOL     OW 1066   2.788   0.972   2.473 -0.3026 -0.4006  0.4148
  356SOL    HW1 1067   2.843   1.054   2.509  0.6299  2.7873 -1.1633
  356SOL    HW2 1068   2.815   0.888   2.522 -1.0320  2.6130  0.2239
  357SOL     OW 1069   0.665   2.887   1.902 -0.0326 -0.0719  0.1484
  357SOL    HW1 1070   0.727   2.940   1.840 -0.0197  1.1292  1.1526
  357SOL    HW2 1071   0.620   2.808   1.854 -0.7209  1.2415 -0.8679
  358SOL     OW 1072   2.916   1.176   2.580 -0.0765  0.0384  0.3851
  358SOL    HW1 1073   2.881   1.266   2.591  0.3323 -0.7163 -0.1544
  358SOL    HW2 1074   2.989   1.188   2.507  2.2052 -1.2063 -0.1378
  359SOL     OW 1075   2.550   2.720   2.713 -0.0499  0.0931  0.1032
  359SOL    HW1 1076   2.456   2.762   2.705  2.5215 -0.3296 -1.2534
  359SOL    HW2 1077   2.565   2.634   2.656 -1.7775  1.7395 -2.6157
  360SOL     OW 1078   1.765   1.028   1.000  0.0370  0.2212 -0.0463
  360SOL    HW1 1079   1.718   1.073   0.919  0.8871  0.5309 -2.6365
  360SOL    HW2 1080   1.869   1.029   0.998  3.6094 -1.2416 -2.4110
  361SOL     OW 1081   1.791   2.774   0.938  0.3440 -0.2295  0.2112
  361SOL    HW1 1082   1.693   2.811   0.940  2.2184 -2.5610 -1.3429
  361SOL    HW2 1083   1.855   2.849   0.932 -2.5291  0.2814 -0.0371
  362SOL     OW 1084   1.374   1.115   0.822  0.3098 -0.3703  0.1905
  362SOL    HW1 1085   1.359   1.156   0.726 -1.5484 -0.9179  2.3982
  362SOL    HW2 1086   1.284   1.100   0.866 -0.4201  3.8874 -3.0757
  363SOL     OW 1087   0.078   2.083   2.671  0.6181  0.2344  0.2281
  363SOL    HW1 1088   3.056   2.052   2.696  1.4751 -1.8011 -0.8628
  363SOL    HW2 1089   0.110   2.153   2.738  0.3728  0.8488  4.3169
  364SOL     OW 1090   1.541   0.624   1.303 -0.1818  0.2734 -0.3944
  364SOL    HW1 1091   1.521   0.615   1.400 -1.3928  0.2422 -0.7611
  364SOL    HW2 1092   1.544   0.530   1.256  0.1314  1.7923  1.0439
  365SOL     OW 1093   3.012   2.947   1.300  0.4340 -0.0346  0.0532
  365SOL    HW1 1094   2.984   3.039   1.329  0.3747 -0.2507 -1.8059
  365SOL    HW2 1095   2.925   2.902   1.268  0.4813  0.4748  0.4636
  366SOL     OW 1096   2.974   1.288   0.360 -0.4119  0.3749 -0.7551
  366SOL    HW1 1097   2.961   1.386   0.353  0.0408 -1.3612 -1.3912
  366SOL    HW2 1098   2.887   1.238   0.392 -4.1242 -1.7072  3.0293
  367SOL     OW 1099   2.905   1.988   2.725  0.1931 -0.0568  0.2191
  367SOL    HW1 1100   2.819   2.007   2.674  0.8925 -3.0752  0.8118
  367SOL    HW2 1101   2.876   1.987   2.827 -1.2307 -0.8851  2.6345
  368SOL     OW 1102   2.745   2.019   1.232  0.7363  0.2316  0.2091
  368SOL    HW1 1103   2.701   2.100   1.186 -1.6292 -0.8988 -0.9428
  368SOL    HW2 1104   2.677   1.962   1.275  1.6304 -0.1300 -2.1439
  369SOL     OW 1105   0.698   0.381   0.408 -0.0135  0.4800 -0.2208
  369SOL    HW1 1106   0.684   0.456   0.340  1.1110  2.3080  0.1414
  369SOL    HW2 1107   0.606   0.353   0.443  0.5158 -1.5013  2.6498
  370SOL     OW 1108   0.689   0.793   1.425 -0.5481  0.2093 -0.4776
  370SOL    HW1 1109   0.768   0.823   1.360  3.6551  1.6946 -1.4487
  370SOL    HW2 1110   0.722   0.766   1.523 -0.0646 -0.0839 -0.1115
  371SOL     OW 1111   2.425   1.622   0.197 -0.1861  0.1498  0.2651
  371SOL    HW1 1112   2.448   1.589   0.100 -0.6756 -0.9772  2.3452
  371SOL    HW2 1113   2.354   1.695   0.194  0.7364  1.6329  0.5218
  372SOL     OW 1114   0.173   0.947   2.481  0.3188 -0.8009 -0.0178
  372SOL    HW1 1115   0.228   0.920   2.563  0.8556  1.0928  1.2853
  372SOL    HW2 1116   0.225   0.928   2.397  0.5754 -0.3567 -3.1715
  373SOL     OW 1117   2.601   1.281   0.665  0.1777 -0.1522  0.2491
  373SOL    HW1 1118   2.584   1.379   0.676 -2.1829  0.2599 -0.0575
  373SOL    HW2 1119   2.687   1.261   0.712  0.4403  0.4155 -1.5445
  374SOL     OW 1120   0.539   2.347   0.164  0.1349 -0.4461  0.5965
  374SOL    HW1 1121   0.572   2.252   0.164 -0.8177  0.4113 -1.0513
  374SOL    HW2 1122   0.589   2.403   0.228 -3.3412 -2.0707 -0.8883
  375SOL     OW 1123   0.826   0.344   0.042 -0.0279 -0.3322  0.1677
  375SOL    HW1 1124   0.841   0.362   3.011  0.1588 -0.5713 -1.5436
  375SOL    HW2 1125   0.761   0.266   0.061  0.0633  0.0403  0.8942
  376SOL     OW 1126   0.194   3.006   1.973 -0.5517 -0.8568 -0.4763
  376SOL    HW1 1127   0.145   0.020   1.998  0.4981 -1.4796  0.6217
  376SOL    HW2 1128   0.291   3.006   2.004 -1.0132 -2.3094 -2.3367
  377SOL     OW 1129   0.536   1.904   2.149  0.0665 -0.0301  0.3969
  377SOL    HW1 1130   0.505   1.877   2.239  2.8916  2.9317 -1.5173
  377SOL    HW2 1131   0.608   1.842   2.120 -0.2991  3.0358 -1.5480
  378SOL     OW 1132   1.396   0.914   0.340  0.0734  0.0648  0.4722
  378SOL    HW1 1133   1.374   0.821   0.298  1.2640 -0.0632 -1.5288
  378SOL    HW2 1134   1.415   0.906   0.439  0.9937  3.8895 -3.6549
  379SOL     OW 1135   1.241   1.391   0.242  0.1272  0.0829 -0.2573
  379SOL    HW1 1136   1.295   1.303   0.240 -0.1156 -0.7783  0.1712
  379SOL    HW2 1137   1.299   1.465   0.280  2.3358  1.2788  0.3327
  380SOL     OW 1138   2.556   2.122   2.229  0.3031 -0.4251  0.5711
  380SOL    HW1 1139   2.632   2.075   2.279 -1.2233  0.5234  2.9818
  380SOL    HW2 1140   2.574   2.207   2.179 -0.4770  1.0188  1.2544
  381SOL     OW 1141   0.406   0.729   1.676 -0.0107 -0.0525 -0.4516
  381SOL    HW1 1142   0.446   0.814   1.636 -1.4535  1.6515 -0.6447
  381SOL    HW2 1143   0.370   0.742   1.770  3.4551 -0.4630 -0.9132
  382SOL     OW 1144   2.601   2.284   2.836  0.2462  0.4061  0.1762
  382SOL    HW1 1145   2.677   2.350   2.813  1.3143  3.7639  0.2036
  382SOL    HW2 1146   2.580   2.275   2.936 -0.1536  0.0338 -1.6679
  383SOL     OW 1147   2.024   1.707   2.114  0.0123 -0.4076  0.0106
  383SOL    HW1 1148   2.104   1.683   2.057 -0.3739 -0.3351  3.1295
  383SOL    HW2 1149   1.962   1.630   2.128  1.5443 -0.7099 -0.5115
  384SOL     OW 1150   0.565   2.137   2.261  0.0167 -0.2289  0.1745
  384SOL    HW1 1151   0.561   2.044   2.223 -2.3377 -0.2597  1.8785
  384SOL    HW2 1152   0.561   2.136   2.363  0.4610  0.2477 -1.3275
  385SOL     OW 1153   2.585   2.220   0.782 -0.5440  0.0219  0.2669
  385SOL    HW1 1154   2.672   2.259   0.819 -0.1702  0.6784  0.4429
  385SOL    HW2 1155   2.516   2.290   0.770  0.9566 -1.5925  0.7316
  386SOL     OW 1156   1.584   0.763   0.072  0.2281 -0.0476  0.3542
  386SOL    HW1 1157   1.617   0.691   0.130 -2.3482  0.8750  0.2134
  386SOL    HW2 1158   1.659   0.826   0.052 -0.6861  1.1051  2.1034
  387SOL     OW 1159   0.490   0.969   1.588 -0.0040 -0.3206 -0.4750
  387SOL    HW1 1160   0.518   1.012   1.499 -0.3692  3.6722  3.0970
  387SOL    HW2 1161   0.568   0.979   1.654  0.0430  0.4673 -1.0699
  388SOL     OW 1162   2.967   0.884   1.533 -0.0847  0.2759  0.0621
  388SOL    HW1 1163   2.917   0.790   1.524 -1.4414 -0.4932 -0.8625
  388SOL    HW2 1164   2.925   0.963   1.480  3.8179 -0.5408 -2.7121
  389SOL     OW 1165   1.814   0.995   2.467 -0.1787  0.2487  0.2346
  389SOL    HW1 1166   1.716   1.002   2.501  1.9443  2.9164 -1.2551
  389SOL    HW2 1167   1.852   1.088   2.452 -0.5024 -1.0274  1.2160
  390SOL     OW 1168   2.230   2.102   0.464 -0.0594 -0.4533  0.1780
  390SOL    HW1 1169   2.319   2.119   0.423  2.1075 -0.3265  1.3972
  390SOL    HW2 1170   2.209   2.009   0.441  1.9938  1.4253 -0.6059
  391SOL     OW 1171   1.292   2.787   0.921 -0.3949 -0.2085  0.7780
  391SOL    HW1 1172   1.325   2.825   0.832  1.5512  0.9286 -0.5784
  391SOL    HW2 1173   1.334   2.698   0.944  1.0522  1.5253  0.3606
  392SOL     OW 1174   2.503   2.854   1.461 -0.3374 -0.8423 -0.7928
  392SOL    HW1 1175   2.547   2.790   1.388  1.0171 -4.9395 -2.2170
  392SOL    HW2 1176   2.406   2.870   1.435  1.5780  0.6941 -2.0728
  393SOL     OW 1177   2.037   2.159   2.621 -0.5399  0.4048  0.1676
  393SOL    HW1 1178   2.048   2.263   2.615  0.9575 -0.9530  0.5657
  393SOL    HW2 1179   2.119   2.115   2.662  0.4347 -1.3545  3.1010
  394SOL     OW 1180   0.604   2.612   2.717  0.3540 -0.1405  0.9178
  394SOL    HW1 1181   0.553   2.574   2.795  0.2943  0.7547 -2.2935
  394SOL    HW2 1182   0.699   2.585   2.722 -2.0242  0.4526  1.7186
  395SOL     OW 1183   0.581   1.153   1.150  0.0410 -0.0575 -0.1836
  395SOL    HW1 1184   0.528   1.075   1.109  0.2273 -0.9592 -0.2043
  395SOL    HW2 1185   0.547   1.240   1.114 -2.6564 -0.6116 -0.1793
  396SOL     OW 1186   1.923   1.236   2.451 -0.4849  0.3821  0.0336
  396SOL    HW1 1187   1.957   1.251   2.357  2.9571 -2.6425  0.8146
  396SOL    HW2 1188   1.996   1.260   2.515 -1.2011 -2.8103  0.8699
  397SOL     OW 1189   2.849   0.769   2.652 -0.3156 -0.3564  0.2137
  397SOL    HW1 1190   2.784   0.693   2.657 -0.8049 -0.8503 -0.1372
  397SOL    HW2 1191   2.944   0.738   2.650 -1.2556  3.4792 -0.1210
  398SOL     OW 1192   1.478   0.563   0.440 -0.2813 -0.5028 -0.4524
  398SOL    HW1 1193   1.482   0.462   0.443 -1.9352 -1.4357  1.4766
  398SOL    HW2 1194   1.391   0.602   0.477  1.1586 -0.2024 -0.3928
  399SOL     OW 1195   1.952   2.881   1.676  0.6656  0.6657 -0.2238
  399SOL    HW1 1196   1.894   2.842   1.751  0.3731 -0.1324 -0.1439
  399SOL    HW2 1197   2.014   2.810   1.636  1.8335 -3.0939  1.3955
  400SOL     OW 1198   0.010   2.428   1.937 -0.4382  0.0014  0.1222
  400SOL    HW1 1199   0.021   2.333   1.906  0.1774  1.7881  1.0940
  400SOL    HW2 1200   0.004   2.504   1.866  0.0174 -0.7415 -0.6485
  401SOL     OW 1201   0.639   0.105   0.085 -0.7066 -0.2492  1.1521
  401SOL    HW1 1202   0.544   0.120   0.113  1.4075 -2.9296 -1.9489
  401SOL    HW2 1203   0.660   0.009   0.063 -0.0145  0.4246 -1.2391
  402SOL     OW 1204   0.436   2.511   1.556  0.2629  0.1942  0.4822
  402SOL    HW1 1205   0.495   2.462   1.489  0.4439  0.1030  0.5190
  402SOL    HW2 1206   0.338   2.487   1.548 -0.2250  1.1141 -1.3247
  403SOL     OW 1207   0.276   1.045   1.714 -0.2551 -0.2154  0.0592
  403SOL    HW1 1208   0.194   0.994   1.687 -1.2736  0.2961  1.4112
  403SOL    HW2 1209   0.353   1.005   1.658 -0.8634  1.4289  0.1783
  404SOL     OW 1210   2.837   2.506   1.992 -0.3897 -0.1340  1.0866
  404SOL    HW1 1211   2.926   2.461   1.982 -2.7678  1.0485 -0.2681
  404SOL    HW2 1212   2.795   2.522   1.902  0.4011 -1.4483  2.2079
  405SOL     OW 1213   2.515   0.191   2.413 -0.1095  0.0668  0.0980
  405SOL    HW1 1214   2.441   0.120   2.416 -0.0546  1.5324 -0.2387
  405SOL    HW2 1215   2.577   0.178   2.329  1.9184 -0.2472 -1.5718
  406SOL     OW 1216   1.885   2.579   0.244 -0.1495 -0.2967  0.3678
  406SOL    HW1 1217   1.968   2.536   0.282 -0.2221  3.1299 -0.0582
  406SOL    HW2 1218   1.806   2.549   0.298  0.7349 -1.9456 -1.3637
  407SOL     OW 1219   2.153   1.398   0.298 -0.2575  0.8304  0.4964
  407SOL    HW1 1220   2.243   1.442   0.319 -1.8127 -0.5953 -0.6355
  407SOL    HW2 1221   2.077   1.466   0.291  0.1009 -0.3919 -1.9192
  408SOL     OW 1222   0.379   0.496   2.085 -0.3609  1.0393  0.4861
  408SOL    HW1 1223   0.317   0.429   2.036 -2.1060  2.1776  1.6982
  408SOL    HW2 1224   0.404   0.458   2.177  1.1746 -0.8816  2.3652
  409SOL     OW 1225   2.926   1.547   0.326  0.3440  0.0088  0.2061
  409SOL    HW1 1226   2.827   1.576   0.323  0.6648  2.0503  1.1651
  409SOL    HW2 1227   2.989   1.622   0.285  3.1056  0.7972 -2.6404
  410SOL     OW 1228   2.039   1.614   1.260 -0.0984 -0.0899 -0.5307
  410SOL    HW1 1229   2.134   1.596   1.294 -1.8425 -1.4545  3.3612
  410SOL    HW2 1230   1.993   1.525   1.231  0.0716 -1.8809  0.4809
  411SOL     OW 1231   0.038   0.593   0.491 -0.1524 -0.2704  0.3635
  411SOL    HW1 1232   3.064   0.580   0.398 -0.5570  0.8838 -0.4400
  411SOL    HW2 1233   0.038   0.505   0.543  0.9211  1.0846  1.1669
  412SOL     OW 1234   1.621   0.399   0.064  0.0236 -0.3409 -0.4067
  412SOL    HW1 1235   1.667   0.462   0.132  1.5006 -0.0337  4.7405
  412SOL    HW2 1236   1.603   0.315   0.113  2.3071  2.0870  2.9881
  413SOL     OW 1237   1.360   0.358   1.536 -0.2605 -0.2220  0.4195
  413SOL    HW1 1238   1.416   0.446   1.537  2.6200  0.7981 -0.3027
  413SOL    HW2 1239   1.289   0.362   1.464 -0.2295  0.8592 -2.4917
  414SOL     OW 1240   0.322   1.156   0.226  0.0358 -0.4952 -0.1242
  414SOL    HW1 1241   0.323   1.057   0.247  0.3602  3.3799 -3.5871
  414SOL    HW2 1242   0.316   1.180   0.130  0.7232  1.2838  0.1970
  415SOL     OW 1243   0.137   1.439   0.543 -0.3687  0.3931  0.1708
  415SOL    HW1 1244   0.051   1.472   0.584  1.6304 -1.0235  1.5488
  415SOL    HW2 1245   0.118   1.362   0.484 -4.0407  3.3196  3.2037
  416SOL     OW 1246   1.866   0.828   0.322 -0.0931  0.6328  0.0335
  416SOL    HW1 1247   1.801   0.898   0.351  2.0479 -0.6709 -1.8144
  416SOL    HW2 1248   1.862   0.746   0.385 -0.4501 -2.4599  2.2917
  417SOL     OW 1249   2.996   0.169   0.444 -0.1867 -0.2831  0.1394
  417SOL    HW1 1250   3.006   0.071   0.465 -1.4430  1.9789  1.2171
  417SOL    HW2 1251   3.043   0.196   0.357  1.2327 -0.7701  2.3769
  418SOL     OW 1252   2.443   0.801   0.182  0.1240 -0.2143 -0.1205
  418SOL    HW1 1253   2.502   0.721   0.158  0.1874  1.6525  2.4493
  418SOL    HW2 1254   2.382   0.826   0.103 -0.6479 -1.7659 -1.0096
  419SOL     OW 1255   0.655   0.537   0.151  0.3070  0.4815 -0.3684
  419SOL    HW1 1256   0.571   0.509   0.099 -2.0564  0.5393 -0.7171
  419SOL    HW2 1257   0.738   0.494   0.115 -0.4234  2.9790 -0.9905
  420SOL     OW 1258   0.488   1.186   0.751 -0.2575 -0.2530 -0.2828
  420SOL    HW1 1259   0.571   1.247   0.739  0.9852  1.0320 -0.3739
  420SOL    HW2 1260   0.404   1.239   0.773  0.9161  1.1582  0.4291
  421SOL     OW 1261   0.374   1.909   0.115 -0.2727  0.1083 -0.1414
  421SOL    HW1 1262   0.343   1.864   0.199  1.6278  1.4897 -2.7688
  421SOL    HW2 1263   0.307   1.914   0.042  1.4246  0.1396  1.0705
  422SOL     OW 1264   2.572   0.235   1.693 -0.5860  0.6927 -0.1632
  422SOL    HW1 1265   2.565   0.165   1.767 -0.8044 -1.7466 -0.2613
  422SOL    HW2 1266   2.627   0.199   1.613 -1.9847 -2.5226 -2.5465
  423SOL     OW 1267   2.088   1.852   0.404  0.1496  0.1267  0.2486
  423SOL    HW1 1268   2.131   1.781   0.463  2.9353  4.6487  0.2926
  423SOL    HW2 1269   1.984   1.848   0.399 -1.6641  2.3082 -2.1854
  424SOL     OW 1270   1.747   1.416   2.878 -0.2488  0.0361 -0.1975
  424SOL    HW1 1271   1.777   1.454   2.966  1.1441 -0.4804 -2.1023
  424SOL    HW2 1272   1.677   1.476   2.831 -0.2810 -1.6055 -0.8328
  425SOL     OW 1273   0.342   2.948   2.288 -0.2061  0.6180 -0.7567
  425SOL    HW1 1274   0.410   3.023   2.305 -0.8039 -0.1590  1.0418
  425SOL    HW2 1275   0.381   2.879   2.230  1.0708  0.0013 -0.3392
  426SOL     OW 1276   2.294   2.837   2.737  0.9743  0.0808 -0.3757
  426SOL    HW1 1277   2.341   2.925   2.748  2.6466  2.0774  0.8740
  426SOL    HW2 1278   2.208   2.837   2.686 -2.5302 -1.2669  1.0616
  427SOL     OW 1279   0.591   0.959   2.013 -0.0157  0.7602 -0.8164
  427SOL    HW1 1280   0.661   0.882   2.031 -0.5750 -1.3620 -0.7204
  427SOL    HW2 1281   0.609   1.045   2.069  2.2972 -0.3057 -2.8715
  428SOL     OW 1282   2.310   1.497   2.184  0.3627 -0.3078 -0.7583
  428SOL    HW1 1283   2.291   1.411   2.238  0.4442 -2.5922 -0.1528
  428SOL    HW2 1284   2.282   1.483   2.092  1.3498  0.6427  2.7596
  429SOL     OW 1285   2.382   0.241   0.646  0.1252 -0.2483  0.1067
  429SOL    HW1 1286   2.340   0.206   0.557  0.0068  0.6776 -2.4311
  429SOL    HW2 1287   2.409   0.163   0.702  1.3870  0.1995 -0.1456
  430SOL     OW 1288   1.666   1.352   2.510  0.2591  0.6355  0.5138
  430SOL    HW1 1289   1.752   1.302   2.543  1.0164 -0.6155  0.6195
  430SOL    HW2 1290   1.643   1.310   2.423  0.4583 -2.9500  0.6744
  431SOL     OW 1291   2.731   1.970   1.793  0.2513  0.0312  0.4649
  431SOL    HW1 1292   2.747   1.920   1.706 -1.6198 -1.9288 -1.9991
  431SOL    HW2 1293   2.768   2.064   1.785  0.0623 -1.4531 -0.5782
  432SOL     OW 1294   0.798   2.593   2.089  0.5769  0.4124 -0.4648
  432SOL    HW1 1295   0.823   2.615   1.987  0.4906 -2.7936 -1.8015
  432SOL    HW2 1296   0.767   2.682   2.133  0.6583  2.5085  1.4563
  433SOL     OW 1297   1.553   2.887   0.940 -0.1929  0.4972  0.2165
  433SOL    HW1 1298   1.556   2.986   0.919 -2.1665 -0.5672  1.5246
  433SOL    HW2 1299   1.456   2.851   0.941  0.1318  1.0060  0.3277
  434SOL     OW 1300   0.392   2.382   1.908  0.2202 -0.1131 -0.0466
  434SOL    HW1 1301   0.464   2.322   1.874 -1.0141  0.9832  1.6995
  434SOL    HW2 1302   0.308   2.379   1.851  0.8262  1.6096 -0.1689
  435SOL     OW 1303   0.390   1.523   0.533  0.4358  0.7721 -0.0873
  435SOL    HW1 1304   0.448   1.470   0.472 -0.5699 -1.8834  0.1109
  435SOL    HW2 1305   0.288   1.510   0.505 -3.9959  0.2635  0.8484
  436SOL     OW 1306   0.125   1.420   1.743  0.0936  0.1740 -0.4608
  436SOL    HW1 1307   0.120   1.507   1.800  1.9689  1.4650  0.0790
  436SOL    HW2 1308   0.082   1.425   1.651 -1.7502 -1.3730 -0.1498
  437SOL     OW 1309   1.253   0.448   0.198  0.5077 -0.2534  0.3144
  437SOL    HW1 1310   1.246   0.396   0.285 -3.0953 -3.7233 -0.7014
  437SOL    HW2 1311   1.255   0.549   0.215  0.0878  4.1416  1.6646
  438SOL     OW 1312   0.413   1.794   1.116  0.6367 -0.3850  0.3192
  438SOL    HW1 1313   0.333   1.858   1.133 -0.5520 -2.4165 -0.4980
  438SOL    HW2 1314   0.416   1.734   1.197 -3.4293  2.5488  2.7996
  439SOL     OW 1315   1.507   1.748   2.668  0.0170 -0.1954  0.8208
  439SOL    HW1 1316   1.532   1.849   2.676 -0.4742  0.7219 -1.2559
  439SOL    HW2 1317   1.586   1.705   2.616  1.4677 -3.7846 -1.7829
  440SOL     OW 1318   1.533   0.410   1.109 -0.1188 -0.1062 -0.0114
  440SOL    HW1 1319   1.486   0.486   1.055 -3.3282  1.0314 -0.6660
  440SOL    HW2 1320   1.637   0.420   1.107  1.5073 -0.3502 -0.4904
  441SOL     OW 1321   0.626   2.721   1.535  0.0518  0.3417  0.8573
  441SOL    HW1 1322   0.554   2.658   1.523 -0.2652  2.2300  0.3645
  441SOL    HW2 1323   0.587   2.807   1.572 -0.6823  2.0575 -2.3694
  442SOL     OW 1324   2.238   2.272   0.816 -0.3854 -0.5802 -0.1310
  442SOL    HW1 1325   2.293   2.317   0.746 -3.3463 -0.0237  2.8284
  442SOL    HW2 1326   2.146   2.321   0.829 -1.5217 -0.6168  0.9685
  443SOL     OW 1327   2.770   0.704   2.280 -0.3052 -0.0225 -0.3082
  443SOL    HW1 1328   2.676   0.694   2.327 -2.2085 -0.7119  0.8587
  443SOL    HW2 1329   2.852   0.710   2.339  0.3881  0.9419 -2.5246
  444SOL     OW 1330   1.471   0.862   2.197  0.4686 -0.0605 -0.6278
  444SOL    HW1 1331   1.571   0.863   2.208  1.7920 -1.9054 -1.7312
  444SOL    HW2 1332   1.444   0.811   2.115  0.6817  0.0761  1.3628
  445SOL     OW 1333   2.645   2.242   1.129 -0.0415  0.0576 -0.9025
  445SOL    HW1 1334   2.690   2.316   1.184  0.0420  0.7282  0.1716
  445SOL    HW2 1335   2.562   2.278   1.094 -0.6677  0.6875  0.8108
  446SOL     OW 1336   0.179   1.054   0.682 -0.3595  0.7420 -0.2878
  446SOL    HW1 1337   0.186   0.953   0.670 -2.5472 -1.2686 -1.5445
  446SOL    HW2 1338   0.155   1.100   0.596  0.8196 -0.6832  2.3356
  447SOL     OW 1339   0.561   2.090   0.818 -0.6063 -0.4811 -0.3539
  447SOL    HW1 1340   0.561   2.097   0.922 -1.1651  0.2742 -2.1905
  447SOL    HW2 1341   0.479   2.037   0.788 -2.7175  0.5642 -0.7854
  448SOL     OW 1342   1.470   1.557   1.482 -0.3313 -0.2468  0.0773
  448SOL    HW1 1343   1.429   1.497   1.554 -0.7352  0.7532  2.0512
  448SOL    HW2 1344   1.399   1.601   1.425  0.7835 -0.9091 -0.8034
  449SOL     OW 1345   0.464   1.640   2.887  0.2181  0.3054  0.1989
  449SOL    HW1 1346   0.528   1.563   2.853  1.2668  2.0329  1.9324
  449SOL    HW2 1347   0.519   1.713   2.935  0.7535  2.2795 -3.1020
  450SOL     OW 1348   2.361   2.206   1.974  0.2161  0.2224  0.5729
  450SOL    HW1 1349   2.293   2.154   2.029 -0.9818 -0.2006 -1.3873
  450SOL    HW2 1350   2.384   2.288   2.030 -0.3372  0.1859  2.3821
  451SOL     OW 1351   2.356   0.399   1.799  0.6446  0.2964 -0.0449
  451SOL    HW1 1352   2.413   0.345   1.741 -1.2388  0.1740  1.7921
  451SOL    HW2 1353   2.313   0.476   1.741 -1.4627  1.0696 -1.8811
  452SOL     OW 1354   0.860   2.490   1.243  0.1559 -0.5430  0.1348
  452SOL    HW1 1355   0.872   2.574   1.298 -0.2739  0.3060  2.3301
  452SOL    HW2 1356   0.946   2.435   1.218 -0.7341 -0.1181  1.6562
  453SOL     OW 1357   0.849   1.321   0.898 -0.0039  0.0303  0.2496
  453SOL    HW1 1358   0.794   1.286   0.819  0.9357  1.7337  2.0443
  453SOL    HW2 1359   0.851   1.424   0.887 -0.6693  1.3788  0.6314
  454SOL     OW 1360   2.789   1.188   0.835  0.0370  0.1719  0.4169
  454SOL    HW1 1361   2.877   1.152   0.863 -3.2307 -1.0134 -1.1547
  454SOL    HW2 1362   2.764   1.256   0.905 -0.1569 -2.2995 -1.1987
  455SOL     OW 1363   0.253   0.173   0.399 -0.0676 -0.1536  0.0194
  455SOL    HW1 1364   0.188   0.226   0.344  1.8353 -0.2155 -2.1377
  455SOL    HW2 1365   0.319   0.244   0.428 -1.7008 -2.7257 -2.6625
  456SOL     OW 1366   2.133   2.505   0.355 -0.4122 -0.5748 -0.0791
  456SOL    HW1 1367   2.164   2.575   0.416 -2.5429 -1.2660  0.0366
  456SOL    HW2 1368   2.088   2.425   0.404 -1.4120 -2.7140  1.9448
  457SOL     OW 1369   1.116   2.767   0.159 -0.2749 -0.0420 -0.4908
  457SOL    HW1 1370   1.186   2.835   0.191 -0.3598  1.3700  0.8804
  457SOL    HW2 1371   1.158   2.692   0.106 -0.9025 -2.3926  0.4020
  458SOL     OW 1372   2.809   2.913   0.154 -0.2486  0.5393 -0.1494
  458SOL    HW1 1373   2.848   2.884   0.061 -0.7200  0.7694  0.9535
  458SOL    HW2 1374   2.755   2.997   0.143  0.1214 -1.0521 -1.8433
  459SOL     OW 1375   2.477   0.461   2.038  0.3077  0.3536 -0.2280
  459SOL    HW1 1376   2.443   0.428   2.129 -0.4399  0.6342  3.0696
  459SOL    HW2 1377   2.424   0.432   1.956  0.5030 -0.6055  3.8510
  460SOL     OW 1378   3.048   0.536   0.227 -0.2551 -0.2090 -0.2067
  460SOL    HW1 1379   0.022   0.627   0.191 -0.7177 -2.4290  0.0882
  460SOL    HW2 1380   2.984   0.494   0.159 -1.8476  2.3298  2.4316
  461SOL     OW 1381   0.088   1.901   1.399  0.3531 -0.3019  0.2530
  461SOL    HW1 1382   0.026   1.873   1.323 -1.9743 -0.7157 -0.2096
  461SOL    HW2 1383   0.142   1.983   1.376 -2.2086 -2.3074 -0.2961
  462SOL     OW 1384   2.837   2.931   0.973 -0.2618 -0.0389  0.0510
  462SOL    HW1 1385   2.930   2.960   0.940  2.0972 -0.7534  3.4334
  462SOL    HW2 1386   2.779   3.014   0.985  2.6293 -0.3687  1.3644
  463SOL     OW 1387   2.822   1.087   0.112 -0.1463 -0.3615 -0.1169
  463SOL    HW1 1388   2.792   1.036   0.029  0.7799 -1.4783 -1.2457
  463SOL    HW2 1389   2.864   1.174   0.088 -1.1844 -1.3942  0.4169
  464SOL     OW 1390   0.476   2.543   1.168 -0.3221 -0.3308  0.3648
  464SOL    HW1 1391   0.426   2.618   1.211 -2.3376 -0.8818 -0.0481
  464SOL    HW2 1392   0.513   2.485   1.238 -2.5612  3.5278 -1.8842
  465SOL     OW 1393   0.878   0.487   1.182 -0.6654  0.6533  0.3862
  465SOL    HW1 1394   0.959   0.471   1.116  1.0247 -2.3581 -0.1636
  465SOL    HW2 1395   0.790   0.512   1.138 -1.2045  2.1644 -0.1773
  466SOL     OW 1396   1.402   2.491   2.273  0.5617  0.2245  0.1294
  466SOL    HW1 1397   1.487   2.454   2.222  2.0998 -2.2915 -1.9491
  466SOL    HW2 1398   1.398   2.588   2.272  1.6039  0.9688 -1.1952
  467SOL     OW 1399   1.036   0.257   1.924  0.8272 -0.2041  0.3609
  467SOL    HW1 1400   1.051   0.332   1.993  0.7168 -0.4850 -1.9673
  467SOL    HW2 1401   1.079   0.175   1.962  1.3606  2.6324 -1.5904
  468SOL     OW 1402   0.273   0.877   2.232 -0.2992  0.6505  0.1885
  468SOL    HW1 1403   0.289   0.942   2.153 -2.1790  0.6382  0.1470
  468SOL    HW2 1404   0.193   0.817   2.215 -2.0467  2.9034  2.0025
  469SOL     OW 1405   0.795   2.243   0.771 -0.6202 -0.3521  0.6192
  469SOL    HW1 1406   0.817   2.298   0.855  0.7162  0.1937 -0.4269
  469SOL    HW2 1407   0.704   2.202   0.776  1.3074 -1.5940  1.2777
  470SOL     OW 1408   2.457   1.698   1.970 -0.1557  0.7178 -0.5234
  470SOL    HW1 1409   2.536   1.639   1.984  0.7421 -3.1791  2.8741
  470SOL    HW2 1410   2.481   1.774   1.907  0.7622 -1.1700 -0.1623
  471SOL     OW 1411   1.038   3.028   2.837 -0.2067 -0.5049 -0.0376
  471SOL    HW1 1412   1.018   3.010   2.936  0.3956 -3.2659 -0.0583
  471SOL    HW2 1413   1.138   3.048   2.835  1.5712 -1.2480  0.1866
  472SOL     OW 1414   0.546   2.642   1.826 -0.4299  0.2148 -0.4915
  472SOL    HW1 1415   0.507   2.622   1.917 -1.2740 -0.0019 -1.2382
  472SOL    HW2 1416   0.517   2.578   1.751  0.7326  0.2021 -3.3204
  473SOL     OW 1417   0.807   0.062   2.717 -0.0807  0.3995 -0.4420
  473SOL    HW1 1418   0.884   0.010   2.758 -1.9167  1.0859  3.7883
  473SOL    HW2 1419   0.725   0.034   2.770  1.2476  0.3992 -2.0044
  474SOL     OW 1420   1.829   0.219   0.920 -0.2403 -0.2873  0.8691
  474SOL    HW1 1421   1.896   0.201   0.997  0.7146 -1.2759 -0.5590
  474SOL    HW2 1422   1.792   0.312   0.916  2.3798  1.9619  1.9991
  475SOL     OW 1423   1.842   0.442   1.444  0.4557  0.2422 -0.2600
  475SOL    HW1 1424   1.864   0.342   1.448 -1.9291 -2.0835  1.7932
  475SOL    HW2 1425   1.831   0.473   1.346 -2.2418  1.5418  2.0658
  476SOL     OW 1426   0.452   0.999   0.973  0.9313  0.0876 -0.2457
  476SOL    HW1 1427   0.353   0.970   0.974 -0.0629  0.7160 -3.9408
  476SOL    HW2 1428   0.477   1.029   0.874 -0.3837  0.7168 -3.3339
  477SOL     OW 1429   1.057   2.370   0.675 -0.3138 -0.4256  0.3236
  477SOL    HW1 1430   1.082   2.431   0.603 -0.1825 -0.7997  2.6560
  477SOL    HW2 1431   1.058   2.415   0.764 -2.9427 -0.9046  0.0259
  478SOL     OW 1432   0.043   2.686   2.298 -0.4044  0.3282  0.2265
  478SOL    HW1 1433   0.096   2.741   2.360 -3.1982  1.3209 -0.8918
  478SOL    HW2 1434   0.093   2.612   2.258 -3.4038 -0.7071 -0.1294
  479SOL     OW 1435   2.625   0.671   1.008 -0.2462  0.0417 -0.0944
  479SOL    HW1 1436   2.704   0.730   0.975  1.6468  0.3893 -1.2849
  479SOL    HW2 1437   2.540   0.709   0.969  1.5389 -4.0679  2.9400
  480SOL     OW 1438   0.033   2.631   0.075  0.3388  0.4664 -0.4687
  480SOL    HW1 1439   3.053   2.551   0.120 -1.3678 -3.1681  0.4157
  480SOL    HW2 1440   0.038   2.709   0.141  2.1070 -0.6751  1.5853
  481SOL     OW 1441   2.137   2.071   1.623 -0.3384  0.4045  0.3484
  481SOL    HW1 1442   2.110   2.044   1.719  0.2021 -0.4165 -1.3743
  481SOL    HW2 1443   2.076   2.063   1.545  3.8134  1.7699  1.5005
  482SOL     OW 1444   1.401   2.317   2.764  0.4032  0.3806  0.1557
  482SOL    HW1 1445   1.485   2.374   2.778 -0.1007  2.4708  1.7420
  482SOL    HW2 1446   1.408   2.265   2.679  1.5302  0.4861  1.6195
  483SOL     OW 1447   0.701   1.690   1.618  0.1863  0.8689 -0.1294
  483SOL    HW1 1448   0.666   1.781   1.628 -0.9374 -1.6594 -0.4146
  483SOL    HW2 1449   0.639   1.620   1.659  2.5703 -0.1506 -2.5287
  484SOL     OW 1450   0.638   0.351   1.424  0.9633  0.8273 -0.4952
  484SOL    HW1 1451   0.710   0.418   1.423 -1.0617 -2.1385  1.6296
  484SOL    HW2 1452   0.574   0.369   1.349  2.0958 -1.0317  1.5929
  485SOL     OW 1453   2.331   1.130   2.986  0.3585 -0.3173  0.1685
  485SOL    HW1 1454   2.267   1.061   2.939 -1.4417  0.5620  0.6716
  485SOL    HW2 1455   2.426   1.097   2.962 -0.4052  0.8581  3.1323
  486SOL     OW 1456   1.667   0.088   1.519 -0.0971  0.3718  0.0141
  486SOL    HW1 1457   1.676   0.161   1.590  0.2341 -0.7555  2.5354
  486SOL    HW2 1458   1.593   0.027   1.554 -1.5361 -1.4087 -1.0185
  487SOL     OW 1459   0.343   2.112   1.448 -0.1998 -0.5199  0.0694
  487SOL    HW1 1460   0.442   2.112   1.447 -1.5440 -0.4799  1.8649
  487SOL    HW2 1461   0.307   2.148   1.362  0.7595 -0.1585  2.4562
  488SOL     OW 1462   2.337   2.289   2.771  0.0518  0.4017  0.1018
  488SOL    HW1 1463   2.337   2.195   2.746 -2.3486  2.9512  0.0923
  488SOL    HW2 1464   2.430   2.311   2.808  2.4973 -0.8797  0.7120
  489SOL     OW 1465   1.812   2.992   0.647 -0.3575 -0.5198 -0.2517
  489SOL    HW1 1466   1.869   2.911   0.633 -1.6760  0.7321  1.6665
  489SOL    HW2 1467   1.832   3.058   0.577  0.1635 -1.9857  2.2087
  490SOL     OW 1468   1.092   2.199   2.781  0.4116 -0.2920 -0.3576
  490SOL    HW1 1469   1.166   2.131   2.766  0.0942  0.4421 -1.0630
  490SOL    HW2 1470   1.120   2.258   2.860  0.3363  0.3685  0.0620
  491SOL     OW 1471   0.493   1.632   1.307 -0.3739  0.0807  0.0229
  491SOL    HW1 1472   0.428   1.646   1.378  1.2888 -1.1227 -0.5433
  491SOL    HW2 1473   0.574   1.690   1.324  1.4492 -1.9358  0.1945
  492SOL     OW 1474   1.249   1.197   1.905 -0.7616 -0.1485 -0.0479
  492SOL    HW1 1475   1.163   1.147   1.915  0.0602  0.2556  1.2775
  492SOL    HW2 1476   1.251   1.244   1.811  0.2148  1.7584 -0.7862
  493SOL     OW 1477   2.575   1.997   0.935  0.2015 -0.1217 -0.3075
  493SOL    HW1 1478   2.520   2.016   1.019  2.0540 -0.7532  0.1849
  493SOL    HW2 1479   2.576   2.076   0.872 -1.3717  1.1058  0.9296
  494SOL     OW 1480   0.048   1.963   1.045  0.0194 -0.0722 -0.1608
  494SOL    HW1 1481   3.059   1.999   0.969 -3.2942  1.3088 -5.2984
  494SOL    HW2 1482   3.058   1.902   1.105 -0.9474 -0.7354  1.0928
  495SOL     OW 1483   2.258   2.714   0.743  0.1366  0.0835 -0.2787
  495SOL    HW1 1484   2.361   2.697   0.759  3.1076  1.8254  0.6245
  495SOL    HW2 1485   2.203   2.690   0.826 -1.5683 -3.1180  0.5002
  496SOL     OW 1486   2.436   0.207   1.372  0.4594  0.4785 -0.0620
  496SOL    HW1 1487   2.522   0.149   1.395 -0.5911 -0.6213  0.8427
  496SOL    HW2 1488   2.360   0.194   1.440 -1.6067  0.2458 -0.2216
  497SOL     OW 1489   2.134   0.949   2.883  0.2453 -0.4476  0.3418
  497SOL    HW1 1490   2.133   0.943   2.782 -0.3259 -1.3471  2.4328
  497SOL    HW2 1491   2.034   0.949   2.918 -0.5232 -2.0459  1.4893
  498SOL     OW 1492   2.932   2.167   1.374  0.0598  0.5967  0.2251
  498SOL    HW1 1493   2.875   2.111   1.307 -2.0631 -0.9106 -3.0535
  498SOL    HW2 1494   2.959   2.128   1.468  1.4255 -0.9696  3.2043
  499SOL     OW 1495   0.818   2.241   2.102  0.5703  0.5595 -0.0661
  499SOL    HW1 1496   0.725   2.223   2.144 -0.3171 -1.1209 -1.2083
  499SOL    HW2 1497   0.876   2.303   2.162 -1.3234  1.7122  0.6705
  500SOL     OW 1498   1.117   1.958   0.524  0.2105 -0.3349 -0.3836
  500SOL    HW1 1499   1.022   1.960   0.497  1.8506  2.2421 -0.0779
  500SOL    HW2 1500   1.142   1.859   0.533  0.3069 -0.2650 -0.7477
  501SOL     OW 1501   1.743   2.873   1.447 -0.3909  0.0718 -0.0528
  501SOL    HW1 1502   1.675   2.902   1.378 -0.2816 -1.1452 -0.1709
  501SOL    HW2 1503   1.775   2.950   1.507  1.2935 -0.6914  1.5819
  502SOL     OW 1504   2.720   0.472   1.651 -0.0203  0.4087 -0.0283
  502SOL    HW1 1505   2.738   0.500   1.750  0.8295  0.4860 -0.4904
  502SOL    HW2 1506   2.650   0.395   1.644  0.5611 -0.2284 -1.8121
  503SOL     OW 1507   2.628   1.283   2.230 -0.2412  0.0456 -0.3595
  503SOL    HW1 1508   2.659   1.372   2.278  3.7121  0.9880  0.0010
  503SOL    HW2 1509   2.565   1.299   2.154  1.9767 -1.2421 -1.9553
  504SOL     OW 1510   1.702   0.900   1.542  0.4639  0.0141  0.1766
  504SOL    HW1 1511   1.785   0.857   1.582 -0.8445  0.3333  0.8794
  504SOL    HW2 1512   1.689   0.867   1.448 -2.1662  0.8551  0.2101
  505SOL     OW 1513   0.530   2.960   1.604 -0.2000 -0.1669 -0.3448
  505SOL    HW1 1514   0.611   3.001   1.656  2.7986  0.6136  2.2007
  505SOL    HW2 1515   0.516   3.022   1.524  2.5295 -0.6685  0.4602
  506SOL     OW 1516   0.084   0.290   0.226 -0.5820 -0.2296 -0.6142
  506SOL    HW1 1517   0.041   0.383   0.241 -1.5791 -2.2434 -0.9060
  506SOL    HW2 1518   0.097   0.273   0.129 -1.0274  1.6899 -1.0765
  507SOL     OW 1519   2.750   2.539   0.009  0.3422  0.2934 -0.3029
  507SOL    HW1 1520   2.745   2.468   3.010  0.5279  2.8494  1.0654
  507SOL    HW2 1521   2.834   2.530   0.064 -5.6991  1.2808  1.9106
  508SOL     OW 1522   1.404   0.434   1.909  0.2379  0.4184  0.0001
  508SOL    HW1 1523   1.308   0.415   1.888 -0.2351 -0.2914  0.9219
  508SOL    HW2 1524   1.454   0.345   1.915  0.1634  1.5643  0.1668
  509SOL     OW 1525   1.694   1.891   1.177 -0.1812  0.3866 -0.2839
  509SOL    HW1 1526   1.726   1.854   1.267  0.5277 -0.6871  0.2593
  509SOL    HW2 1527   1.590   1.876   1.172 -1.3272 -3.0680  1.4000
  510SOL     OW 1528   2.494   0.947   1.427  0.4188  0.3176 -0.0233
  510SOL    HW1 1529   2.508   0.856   1.480  0.0944 -1.1595  3.1329
  510SOL    HW2 1530   2.540   1.020   1.483 -0.0725  1.5225  1.6547
  511SOL     OW 1531   1.161   1.984   1.289  0.5104  0.4108 -0.2937
  511SOL    HW1 1532   1.118   2.073   1.295 -1.9196 -0.7785  0.4722
  511SOL    HW2 1533   1.191   1.954   1.383 -0.3343  0.3690 -2.0396
  512SOL     OW 1534   2.968   1.556   0.610 -0.3214 -0.2749 -0.4302
  512SOL    HW1 1535   2.914   1.559   0.521 -1.5919 -2.1248 -0.1296
  512SOL    HW2 1536   3.041   1.631   0.619  0.7540 -0.0212 -1.2797
  513SOL     OW 1537   0.234   1.263   3.030  0.2571  0.2619 -0.2727
  513SOL    HW1 1538   0.228   1.364   3.015 -1.4889 -2.3688 -0.4434
  513SOL    HW2 1539   0.142   1.216   3.009 -2.8090 -1.7825  0.6633
  514SOL     OW 1540   2.172   2.080   2.159  0.1157  0.4207  0.1198
  514SOL    HW1 1541   2.249   2.012   2.159  1.9400  0.2397 -0.2044
  514SOL    HW2 1542   2.116   2.071   2.244  0.1772 -2.7535 -0.5923
  515SOL     OW 1543   2.311   1.287   0.655 -0.0096  0.0690  0.1614
  515SOL    HW1 1544   2.289   1.263   0.560  0.3399  0.2224 -0.7040
  515SOL    HW2 1545   2.406   1.320   0.664  1.5013  0.4685 -1.3537
  516SOL     OW 1546   2.347   2.859   0.050 -0.1345 -0.1217 -0.3740
  516SOL    HW1 1547   2.269   2.806   0.004 -0.7466  2.6777 -1.3082
  516SOL    HW2 1548   2.432   2.840   3.069 -0.7406 -2.4573  0.0033
  517SOL     OW 1549   0.919   1.533   2.720 -0.4295 -0.6194 -0.0598
  517SOL    HW1 1550   0.962   1.442   2.699 -1.2833 -2.4922 -1.0867
  517SOL    HW2 1551   0.943   1.598   2.644 -2.4004 -1.6980 -0.4976
  518SOL     OW 1552   0.265   0.279   1.965  0.6871 -0.4457  0.2909
  518SOL    HW1 1553   0.346   0.260   1.907 -1.9166 -0.8712 -0.9892
  518SOL    HW2 1554   0.184   0.233   1.925 -2.2891 -0.2030 -2.3752
  519SOL     OW 1555   1.027   1.030   3.047 -0.1444 -0.4861  0.2179
  519SOL    HW1 1556   1.096   0.959   3.028  0.4690  2.0015  0.7485
  519SOL    HW2 1557   1.079   1.116   3.060 -1.2977 -3.2492 -0.9247
  520SOL     OW 1558   2.599   2.389   2.078  0.2184  0.2128  0.1833
  520SOL    HW1 1559   2.574   2.458   2.147 -0.2140 -0.8569  0.4211
  520SOL    HW2 1560   2.677   2.423   2.023  0.4355 -0.8212  1.9157
  521SOL     OW 1561   0.320   1.943   1.957 -0.2442 -0.4181 -0.1017
  521SOL    HW1 1562   0.397   1.920   2.023  2.3565 -2.5292 -1.4992
  521SOL    HW2 1563   0.334   1.869   1.881  0.5896 -2.4926 -2.5996
  522SOL     OW 1564   1.323   2.885   1.909 -0.4154 -0.3887  0.9394
  522SOL    HW1 1565   1.267   2.806   1.939  1.0427 -3.3573 -0.0247
  522SOL    HW2 1566   1.337   2.889   1.806 -0.0255 -0.8328 -2.1046
  523SOL     OW 1567   1.818   2.211   1.363  0.3758 -0.2192  0.0073
  523SOL    HW1 1568   1.897   2.149   1.382  2.2678  0.1897  0.5857
  523SOL    HW2 1569   1.848   2.290   1.301  2.4611  0.8583 -0.4912
  524SOL     OW 1570   0.716   2.428   0.582 -0.0478 -0.1539 -0.5570
  524SOL    HW1 1571   0.691   2.518   0.629  1.9584 -0.5394  0.8827
  524SOL    HW2 1572   0.762   2.355   0.640 -1.2242 -1.7547  3.5909
  525SOL     OW 1573   2.776   0.317   0.509  0.1993 -0.5918 -0.7438
  525SOL    HW1 1574   2.773   0.414   0.540 -0.2924  1.9917  1.5033
  525SOL    HW2 1575   2.871   0.276   0.510  3.0061  1.8295  1.4277
  526SOL     OW 1576   0.873   0.014   0.561 -0.0791  0.3116 -0.1515
  526SOL    HW1 1577   0.802   0.041   0.630  0.7271 -1.5662 -0.1897
  526SOL    HW2 1578   0.911   2.992   0.586 -0.7262 -0.8384  1.9812
  527SOL     OW 1579   1.798   1.366   0.902  0.2685 -0.6212  0.0261
  527SOL    HW1 1580   1.786   1.267   0.880  0.3944  2.4992 -0.3834
  527SOL    HW2 1581   1.782   1.425   0.823 -1.5365 -0.7843  0.8073
  528SOL     OW 1582   2.829   2.462   2.414  0.0551 -0.3597  0.2838
  528SOL    HW1 1583   2.853   2.544   2.354  0.1278  0.2697 -0.4613
  528SOL    HW2 1584   2.874   2.380   2.380 -1.1203  0.3903  4.1845
  529SOL     OW 1585   1.007   1.440   2.406  0.3429 -0.3346 -0.2687
  529SOL    HW1 1586   0.948   1.519   2.448 -2.2421  2.5445  2.6553
  529SOL    HW2 1587   1.020   1.445   2.304 -1.7683 -2.0382  0.7676
  530SOL     OW 1588   1.600   0.899   2.792  0.0272 -0.1039 -0.1619
  530SOL    HW1 1589   1.617   0.997   2.817 -2.0648  1.2274  2.1006
  530SOL    HW2 1590   1.672   0.862   2.733  0.2120 -0.9685  0.0633
  531SOL     OW 1591   0.388   0.808   0.543  0.1434 -0.8081  0.1608
  531SOL    HW1 1592   0.482   0.848   0.557  2.0832  1.1653  1.3915
  531SOL    HW2 1593   0.325   0.872   0.493 -2.8216  2.3124  0.8009
  532SOL     OW 1594   1.660   1.151   0.790  0.1271 -0.2479  0.2122
  532SOL    HW1 1595   1.697   1.082   0.725  1.9123 -1.1668  1.1268
  532SOL    HW2 1596   1.566   1.183   0.773  0.4247 -1.2135  3.2730
  533SOL     OW 1597   0.521   0.346   2.274 -0.0229 -0.5107 -0.2589
  533SOL    HW1 1598   0.557   0.255   2.259 -0.8504  0.4962  1.0627
  533SOL    HW2 1599   0.591   0.402   2.317 -1.6858  0.3766 -1.1569
  534SOL     OW 1600   0.618   3.046   2.882  0.0804  0.1288 -0.4230
  534SOL    HW1 1601   0.661   3.007   2.968  0.8834  0.4769  3.2279
  534SOL    HW2 1602   0.543   2.988   2.848  2.7479  1.1053 -1.7269
  535SOL     OW 1603   0.469   0.417   0.012  0.0814  0.1016 -0.5027
  535SOL    HW1 1604   0.393   0.482   0.013 -0.4648 -0.9966 -0.4544
  535SOL    HW2 1605   0.426   0.343   0.070 -1.2196  0.7400  1.4702
  536SOL     OW 1606   0.564   0.824   2.330  0.4020  0.0363  0.2195
  536SOL    HW1 1607   0.463   0.825   2.306 -4.1806 -0.7135 -1.6813
  536SOL    HW2 1608   0.620   0.797   2.253  2.0356  1.7389  1.8733
  537SOL     OW 1609   1.228   0.145   1.331  0.0541 -0.0966  0.0371
  537SOL    HW1 1610   1.167   0.075   1.287  1.7504 -2.6405 -3.2036
  537SOL    HW2 1611   1.207   0.245   1.304  0.8641 -0.4111 -1.1897
  538SOL     OW 1612   0.845   1.848   0.033 -0.3142 -0.4832  0.6999
  538SOL    HW1 1613   0.913   1.904   0.083 -1.8054  1.5223 -0.7365
  538SOL    HW2 1614   0.900   1.781   3.048  1.5363 -0.2685 -1.5992
  539SOL     OW 1615   2.558   1.348   1.806  0.6026 -0.1885 -0.0142
  539SOL    HW1 1616   2.657   1.375   1.809 -1.4288 -0.9960 -1.0481
  539SOL    HW2 1617   2.498   1.418   1.768 -0.7908 -1.9002 -2.5302
  540SOL     OW 1618   1.637   1.725   1.885  0.4031  0.2651  0.1445
  540SOL    HW1 1619   1.625   1.685   1.794  1.7653  1.3616  1.2565
  540SOL    HW2 1620   1.709   1.796   1.891  1.2991 -0.6014  1.2312
  541SOL     OW 1621   0.744   1.239   1.650  0.2890  0.3646  0.1701
  541SOL    HW1 1622   0.737   1.154   1.704 -0.1316  2.2799  2.4782
  541SOL    HW2 1623   0.728   1.213   1.551 -1.4661 -2.5234 -1.2998
  542SOL     OW 1624   1.799   0.596   2.279  0.2252  0.0928 -0.3439
  542SOL    HW1 1625   1.778   0.692   2.253 -0.2983 -1.0311  0.0871
  542SOL    HW2 1626   1.833   0.545   2.198 -0.6448  1.9430  0.3500
  543SOL     OW 1627   0.995   0.683   0.429 -0.9272  0.1022  0.0097
  543SOL    HW1 1628   0.984   0.785   0.408 -0.0624  1.4105  2.8463
  543SOL    HW2 1629   0.956   0.625   0.354  0.9444  2.7307  1.0236
  544SOL     OW 1630   2.412   1.919   2.148  0.9331  0.2654 -0.6050
  544SOL    HW1 1631   2.442   1.856   2.075  1.9982  1.7994  2.0392
  544SOL    HW2 1632   2.465   2.006   2.143 -0.8345 -2.0148  0.1735
  545SOL     OW 1633   1.688   2.086   1.598  0.0911 -0.1829 -0.0899
  545SOL    HW1 1634   1.707   2.140   1.516 -0.1078  0.0659  0.3304
  545SOL    HW2 1635   1.754   2.120   1.669 -0.5993 -1.5021  1.1810
  546SOL     OW 1636   0.181   0.151   2.809  0.0768  0.0467 -0.4201
  546SOL    HW1 1637   0.233   0.200   2.742 -1.4929 -2.1184  1.0966
  546SOL    HW2 1638   0.157   0.058   2.775  0.5370  0.5858  0.4501
  547SOL     OW 1639   2.195   0.781   0.010  0.3025 -0.5346  0.1677
  547SOL    HW1 1640   2.185   0.838   2.993  2.9430  1.1888 -2.8208
  547SOL    HW2 1641   2.219   0.688   3.049 -0.8322 -1.7197  0.8323
  548SOL     OW 1642   1.842   1.840   2.259  0.2471  0.5198 -0.9929
  548SOL    HW1 1643   1.913   1.812   2.192  0.9269  1.7374  0.6007
  548SOL    HW2 1644   1.881   1.820   2.350  3.3867  0.4724 -1.8660
  549SOL     OW 1645   2.180   0.372   0.850 -0.0178 -0.7209 -0.0856
  549SOL    HW1 1646   2.150   0.281   0.816  1.8298  2.8055 -2.4807
  549SOL    HW2 1647   2.249   0.414   0.788  1.5576 -2.1031  0.0860
  550SOL     OW 1648   2.394   1.847   0.670  0.3558  0.8091 -0.6562
  550SOL    HW1 1649   2.485   1.891   0.657  0.6504  0.5138  0.6631
  550SOL    HW2 1650   2.336   1.906   0.727  0.5318 -0.9880  1.5302
  551SOL     OW 1651   1.437   0.129   1.674  0.6212 -0.2785 -0.2357
  551SOL    HW1 1652   1.366   0.061   1.651  1.7412 -0.3352  1.2572
  551SOL    HW2 1653   1.423   0.216   1.621  0.8438 -0.8888 -2.4271
  552SOL     OW 1654   0.263   2.456   2.440  0.5280  0.3908  0.3400
  552SOL    HW1 1655   0.189   2.466   2.372  1.0847 -1.5140  0.7749
  552SOL    HW2 1656   0.330   2.532   2.432 -0.0729 -0.6556 -1.5674
  553SOL     OW 1657   0.678   2.905   0.388 -0.5146 -0.1050  0.2463
  553SOL    HW1 1658   0.729   2.981   0.354  0.3654 -0.5827  2.6399
  553SOL    HW2 1659   0.631   2.934   0.474  0.4319  0.2192 -1.7583
  554SOL     OW 1660   1.991   2.356   1.833 -0.0454 -0.5366  0.0390
  554SOL    HW1 1661   2.090   2.341   1.820 -0.8378  0.1793  1.5939
  554SOL    HW2 1662   1.953   2.435   1.776 -2.4375  2.1030 -0.3519
  555SOL     OW 1663   1.169   2.081   2.021 -0.2270  0.1751  0.2443
  555SOL    HW1 1664   1.133   2.172   2.041 -1.0979  0.6805 -2.2746
  555SOL    HW2 1665   1.107   2.002   2.050 -0.3393 -2.4622  0.1108
  556SOL     OW 1666   1.410   1.653   0.967  0.3358 -0.0080 -0.1966
  556SOL    HW1 1667   1.418   1.721   1.046 -0.5958 -1.9732 -1.0917
  556SOL    HW2 1668   1.316   1.619   0.954  3.3866  2.4303  2.0886
  557SOL     OW 1669   1.800   2.154   1.843  0.1074  0.0508 -0.1270
  557SOL    HW1 1670   1.792   2.098   1.925  0.7580 -0.4182  2.4417
  557SOL    HW2 1671   1.877   2.222   1.843  1.5758  0.1421  1.7289
  558SOL     OW 1672   0.514   0.193   1.863  0.0933 -0.0159  0.1966
  558SOL    HW1 1673   0.490   0.127   1.934 -1.3977  0.3675 -0.6129
  558SOL    HW2 1674   0.612   0.203   1.847 -3.8576 -2.5807  1.2947
  559SOL     OW 1675   2.292   2.971   1.302  0.0654  0.1551 -0.5403
  559SOL    HW1 1676   2.377   2.970   1.242 -1.3021  0.9770 -0.8570
  559SOL    HW2 1677   2.209   2.997   1.250 -2.1955 -2.1744 -0.7712
  560SOL     OW 1678   0.948   2.221   0.458 -0.2898 -0.2410  0.0047
  560SOL    HW1 1679   0.966   2.266   0.551 -1.2415  1.7904  1.4046
  560SOL    HW2 1680   1.025   2.250   0.399 -3.5684 -1.7191 -1.2829
  561SOL     OW 1681   0.988   0.485   0.235 -0.3967 -0.3111  0.0035
  561SOL    HW1 1682   1.086   0.466   0.213  1.7043  1.0817  1.7581
  561SOL    HW2 1683   0.923   0.413   0.207 -1.1388  1.7594  1.1905
  562SOL     OW 1684   0.747   0.451   2.457  0.0639 -0.3463  0.5831
  562SOL    HW1 1685   0.808   0.392   2.514 -0.8347  4.5321 -0.2236
  562SOL    HW2 1686   0.746   0.550   2.480  0.2146  1.8483  0.8977
  563SOL     OW 1687   1.820   2.148   2.816  0.7442 -0.5290 -0.7221
  563SOL    HW1 1688   1.883   2.154   2.738 -3.2297  0.6760  1.7676
  563SOL    HW2 1689   1.840   2.217   2.890 -2.7724 -3.2220 -0.6735
  564SOL     OW 1690   2.685   0.990   0.708  0.1426  0.4707 -0.4887
  564SOL    HW1 1691   2.582   1.002   0.690 -0.8858  1.2634  0.1534
  564SOL    HW2 1692   2.715   1.073   0.759 -1.6919 -1.1077 -0.0261
  565SOL     OW 1693   1.554   0.110   2.647  0.2856  0.1725  0.4779
  565SOL    HW1 1694   1.573   0.203   2.614 -1.4533 -1.9838  1.5893
  565SOL    HW2 1695   1.540   0.107   2.748 -0.2288  0.8777 -0.3941
  566SOL     OW 1696   1.816   0.113   2.273  0.2657  0.1205 -0.0477
  566SOL    HW1 1697   1.786   0.071   2.359 -0.3058 -1.0097  1.0999
  566SOL    HW2 1698   1.782   0.068   2.183  2.3853 -3.2035  0.9163
  567SOL     OW 1699   2.527   1.557   0.649  0.3050  0.4874  0.3163
  567SOL    HW1 1700   2.490   1.544   0.742 -2.8448  1.4661 -0.0098
  567SOL    HW2 1701   2.567   1.652   0.640  0.0595 -0.3328 -0.2339
  568SOL     OW 1702   1.817   1.904   0.371 -0.1234 -0.3397 -0.2910
  568SOL    HW1 1703   1.847   1.979   0.308  1.4718  1.7820 -0.0789
  568SOL    HW2 1704   1.780   1.942   0.457 -0.1222  0.1192  0.8180
  569SOL     OW 1705   2.278   1.626   2.903 -0.4778 -0.6687 -0.0798
  569SOL    HW1 1706   2.215   1.644   2.824 -0.4465  0.7012  1.4187
  569SOL    HW2 1707   2.236   1.554   2.960  0.7612  0.7442  0.3291
  570SOL     OW 1708   2.923   2.843   1.748 -0.3315 -0.5485 -0.0655
  570SOL    HW1 1709   2.828   2.849   1.725 -0.9570  0.6776  1.2480
  570SOL    HW2 1710   2.981   2.914   1.705 -0.1372 -0.6065 -0.2169
  571SOL     OW 1711   0.229   0.266   2.258 -0.8103 -0.0987  0.0489
  571SOL    HW1 1712   0.268   0.264   2.160  0.3064 -0.5170 -3.4643
  571SOL    HW2 1713   0.236   0.357   2.300  1.2167  1.8401 -0.3154
  572SOL     OW 1714   0.652   1.647   0.615  0.4057 -0.8047 -0.4528
  572SOL    HW1 1715   0.557   1.645   0.588  0.4001  0.5504  2.3546
  572SOL    HW2 1716   0.681   1.736   0.659  2.5987 -1.1224 -0.6112
  573SOL     OW 1717   0.728   2.928   0.036  0.6798  0.6413  0.4815
  573SOL    HW1 1718   0.719   2.828   0.039  1.7385  0.5409  3.0105
  573SOL    HW2 1719   0.827   2.956   0.047 -2.6407  0.8227  3.3552
  574SOL     OW 1720   0.989   0.190   0.831  0.1938 -0.0232 -0.7165
  574SOL    HW1 1721   0.922   0.133   0.887 -1.9866 -0.6398 -0.0958
  574SOL    HW2 1722   0.981   0.292   0.862 -2.7692  4.3888  3.1696
  575SOL     OW 1723   2.864   1.214   1.635  0.0092  0.2262  0.5060
  575SOL    HW1 1724   2.919   1.139   1.679 -0.3321 -1.2879  3.0006
  575SOL    HW2 1725   2.871   1.294   1.704 -1.4319  0.7104 -0.1235
  576SOL     OW 1726   2.043   0.355   1.679  0.2247  0.1722  0.0559
  576SOL    HW1 1727   1.949   0.323   1.661  0.2322  1.1972 -0.9010
  576SOL    HW2 1728   2.082   0.413   1.606 -1.2986  0.0173  1.3602
  577SOL     OW 1729   0.047   1.059   2.003 -0.0356  0.3955  0.0273
  577SOL    HW1 1730   0.013   1.003   2.085 -0.6391 -2.6772  0.3450
  577SOL    HW2 1731   0.148   1.055   1.995  0.2238  0.9587  0.0667
  578SOL     OW 1732   1.659   2.846   2.388  0.4384 -0.6141 -0.2117
  578SOL    HW1 1733   1.691   2.932   2.434 -0.3495  2.1816  2.2667
  578SOL    HW2 1734   1.659   2.777   2.464  0.9999 -0.9802 -0.8853
  579SOL     OW 1735   2.071   1.983   1.884  0.9480  0.4133  0.9446
  579SOL    HW1 1736   2.084   1.987   1.981 -1.7314  2.0078 -0.1418
  579SOL    HW2 1737   1.998   1.910   1.864  3.3269  0.0152 -2.2575
  580SOL     OW 1738   1.857   1.523   2.192 -0.0382 -0.4363 -0.3004
  580SOL    HW1 1739   1.771   1.567   2.230 -2.5429 -0.1300 -0.1784
  580SOL    HW2 1740   1.844   1.503   2.090  0.4041  0.1174  1.9816
  581SOL     OW 1741   1.372   1.015   2.709 -0.0238 -0.5583  0.2057
  581SOL    HW1 1742   1.316   0.961   2.650  1.5715  2.6082  0.7008
  581SOL    HW2 1743   1.435   0.951   2.761 -2.6586  0.3581 -1.8362
  582SOL     OW 1744   0.616   2.129   1.466 -0.4784 -0.2827  0.0877
  582SOL    HW1 1745   0.611   2.160   1.561 -0.1362  0.4931  1.0460
  582SOL    HW2 1746   0.691   2.065   1.456 -2.9686 -0.3466 -3.4966
  583SOL     OW 1747   1.308   1.359   1.182 -0.3008 -0.4491  0.8311
  583SOL    HW1 1748   1.235   1.340   1.118  1.7278 -1.1956 -0.7322
  583SOL    HW2 1749   1.400   1.332   1.133  5.5975 -3.2689 -0.5160
  584SOL     OW 1750   1.336   2.488   0.586 -0.0825  0.1631  0.2678
  584SOL    HW1 1751   1.261   2.475   0.520  0.3112 -0.9531  1.4157
  584SOL    HW2 1752   1.310   2.566   0.640 -1.3709 -2.9177  0.2413
  585SOL     OW 1753   2.577   2.742   2.980 -0.0332 -0.5429 -0.0676
  585SOL    HW1 1754   2.657   2.689   3.014  1.7274 -0.6648  3.2302
  585SOL    HW2 1755   2.559   2.717   2.884 -0.1851 -0.2625 -0.0611
  586SOL     OW 1756   2.724   1.750   0.575  0.3891 -0.1865 -0.1878
  586SOL    HW1 1757   2.761   1.748   0.673  0.7613 -0.3719  0.5152
  586SOL    HW2 1758   2.670   1.837   0.558 -2.2446  1.1001  1.9372
  587SOL     OW 1759   0.908   1.478   0.064 -0.2783  0.1366  0.1734
  587SOL    HW1 1760   0.962   1.391   0.039 -0.3958 -2.2766 -1.2198
  587SOL    HW2 1761   0.885   1.471   0.165 -1.1002  0.5104  2.1338
  588SOL     OW 1762   0.394   0.327   0.729 -0.1764 -0.0966  0.3014
  588SOL    HW1 1763   0.324   0.259   0.757 -1.2355  0.4996  1.6680
  588SOL    HW2 1764   0.392   0.409   0.791  0.6201  1.0977  1.6393
  589SOL     OW 1765   1.224   0.348   0.444 -0.0269 -0.1769 -0.0183
  589SOL    HW1 1766   1.133   0.309   0.458 -1.1100 -2.3774  0.5910
  589SOL    HW2 1767   1.223   0.443   0.477 -0.6744 -1.5557  1.1073
  590SOL     OW 1768   2.229   2.533   0.105  0.6181  0.4191  0.2833
  590SOL    HW1 1769   2.175   2.522   0.194 -0.2379 -2.9601  1.7280
  590SOL    HW2 1770   2.217   2.621   0.059  0.0664  0.2604  0.2716
  591SOL     OW 1771   0.229   2.746   1.951 -0.2304  0.4634 -0.5177
  591SOL    HW1 1772   0.205   2.846   1.963  2.5938  1.6795  1.9104
  591SOL    HW2 1773   0.166   2.690   1.890 -1.9719  0.3514  1.4156
  592SOL     OW 1774   2.994   1.513   2.271  0.1309 -0.0137 -0.0679
  592SOL    HW1 1775   3.040   1.421   2.255  1.6275 -1.7063 -0.4002
  592SOL    HW2 1776   3.015   1.580   2.196 -2.7644  1.4617 -1.5699
  593SOL     OW 1777   1.884   1.395   1.158 -0.3807 -0.0855 -0.5536
  593SOL    HW1 1778   1.804   1.387   1.224 -0.1044  1.4553 -0.0612
  593SOL    HW2 1779   1.846   1.375   1.067  1.0910 -3.0012  1.8049
  594SOL     OW 1780   0.463   1.222   2.906 -0.4167 -0.3338  0.5617
  594SOL    HW1 1781   0.412   1.251   2.822  0.4242 -2.7787 -0.5224
  594SOL    HW2 1782   0.393   1.207   2.978 -3.1351 -0.7764 -1.4474
  595SOL     OW 1783   1.078   1.287   1.029  0.0295 -0.2681 -0.4051
  595SOL    HW1 1784   1.080   1.190   1.059  0.4731 -0.1668  2.7531
  595SOL    HW2 1785   1.000   1.301   0.964 -0.1443 -0.2005  3.5527
  596SOL     OW 1786   2.796   1.230   1.176  0.0308 -0.1912 -0.2694
  596SOL    HW1 1787   2.768   1.149   1.126  0.1682 -2.2177 -1.3721
  596SOL    HW2 1788   2.854   1.301   1.119  0.4958  1.9785 -0.3795
  597SOL     OW 1789   1.060   2.277   1.678  0.3658  0.6626  0.9337
  597SOL    HW1 1790   1.003   2.325   1.746  1.6759  2.2340  0.8111
  597SOL    HW2 1791   1.018   2.184   1.661 -1.0818 -3.1865  0.3927
  598SOL     OW 1792   2.230   2.510   2.080  1.0079  0.1151  0.5507
  598SOL    HW1 1793   2.149   2.455   2.104  1.3917  0.2013 -0.3956
  598SOL    HW2 1794   2.204   2.587   2.021 -0.3656  1.7553 -0.0770
  599SOL     OW 1795   0.766   1.000   3.060  0.0305 -0.0687 -0.8093
  599SOL    HW1 1796   0.747   0.935   2.983  0.6054 -1.1047  1.5616
  599SOL    HW2 1797   0.867   1.019   3.068 -0.4737  0.6450 -0.4385
  600SOL     OW 1798   1.091   0.633   2.926  0.1273  0.1528  0.4809
  600SOL    HW1 1799   1.045   0.647   3.019 -1.5188 -1.0383  0.9457
  600SOL    HW2 1800   1.192   0.634   2.937  0.8893  0.7183 -1.9035
  601SOL     OW 1801   0.848   0.483   1.700 -0.1370 -0.0494 -0.0899
  601SOL    HW1 1802   0.942   0.509   1.717 -2.2185 -0.2692  0.0859
  601SOL    HW2 1803   0.785   0.553   1.736  2.3168 -2.8874 -1.9543
  602SOL     OW 1804   0.367   2.357   0.736 -0.3912 -0.4949  0.2150
  602SOL    HW1 1805   0.324   2.272   0.760  1.3213  2.2107 -1.8142
  602SOL    HW2 1806   0.346   2.377   0.638 -1.4990 -1.6558  0.8246
  603SOL     OW 1807   0.975   2.343   2.311  0.3026 -0.6857 -0.3388
  603SOL    HW1 1808   0.957   2.424   2.372 -0.3280 -0.4731  0.7510
  603SOL    HW2 1809   1.075   2.340   2.284 -1.6153  0.8564  1.0265
  604SOL     OW 1810   0.194   1.963   2.983  0.2747  0.2662 -0.7298
  604SOL    HW1 1811   0.230   1.927   2.893 -0.4409  1.2350 -0.3479
  604SOL    HW2 1812   0.101   1.920   3.006 -1.4447 -2.4785  1.2544
  605SOL     OW 1813   2.050   1.482   1.691 -0.3478  0.4273  0.2554
  605SOL    HW1 1814   1.976   1.437   1.742  3.5850  0.0682 -2.6820
  605SOL    HW2 1815   2.132   1.426   1.671 -0.7676  0.8054  1.5218
  606SOL     OW 1816   0.993   1.275   2.723  0.1805  0.0476  1.1238
  606SOL    HW1 1817   0.909   1.272   2.780  0.0555  2.0318  0.6613
  606SOL    HW2 1818   1.079   1.258   2.776  1.2842  1.8885  0.5683
  607SOL     OW 1819   1.125   1.021   1.049  0.5772 -0.4421 -0.5350
  607SOL    HW1 1820   1.190   0.962   1.104  0.1992 -2.0094  1.5184
  607SOL    HW2 1821   1.033   0.992   1.070  0.9370  0.7436  0.4102
  608SOL     OW 1822   2.813   1.810   1.990  0.1123  0.3569 -0.1153
  608SOL    HW1 1823   2.769   1.873   1.925  0.8546 -0.6993  0.3728
  608SOL    HW2 1824   2.905   1.843   2.025 -2.6396  1.1325 -0.2190
  609SOL     OW 1825   2.287   0.123   0.422 -0.0586  0.7876  0.0978
  609SOL    HW1 1826   2.287   0.136   0.322 -0.6377 -1.0133  1.5731
  609SOL    HW2 1827   2.216   0.054   0.434  0.8265 -0.2322  0.0225
  610SOL     OW 1828   3.008   2.632   1.219 -0.2216  0.3906  1.1462
  610SOL    HW1 1829   0.008   2.680   1.160 -2.7840 -1.2737 -2.2975
  610SOL    HW2 1830   3.031   2.533   1.229  1.9128  0.6230  1.8857
  611SOL     OW 1831   1.542   2.202   0.374  0.3614  0.1302  0.1511
  611SOL    HW1 1832   1.592   2.168   0.292  0.1887 -0.1997  0.0405
  611SOL    HW2 1833   1.556   2.132   0.445  0.9534  2.5527 -1.1816
  612SOL     OW 1834   0.759   3.066   1.704  0.1897 -0.0399 -0.4617
  612SOL    HW1 1835   0.852   3.029   1.720 -0.4189 -0.7891  1.8207
  612SOL    HW2 1836   0.746   0.087   1.750 -0.3747  1.5422  1.9383
  613SOL     OW 1837   2.986   1.999   0.638  0.1257  0.2423 -0.0671
  613SOL    HW1 1838   3.031   2.033   0.554 -1.5981 -0.6811  1.5985
  613SOL    HW2 1839   3.038   1.916   0.671 -0.5587  0.0308 -0.4144
  614SOL     OW 1840   2.119   0.327   1.943  0.5663  0.2633  0.2146
  614SOL    HW1 1841   2.218   0.346   1.924 -0.5921 -2.7189 -0.7404
  614SOL    HW2 1842   2.068   0.332   1.853 -1.2038  0.4335 -0.1619
  615SOL     OW 1843   1.139   1.557   1.004 -0.4724  0.4966 -0.4890
  615SOL    HW1 1844   1.086   1.615   1.065 -0.7185  0.5168  2.0470
  615SOL    HW2 1845   1.136   1.464   1.041 -2.4397  0.0788 -1.3640
  616SOL     OW 1846   1.775   1.721   0.161 -0.0723 -0.0480 -0.0096
  616SOL    HW1 1847   1.764   1.787   0.242  0.0914 -2.7780  0.3330
  616SOL    HW2 1848   1.775   1.774   0.074 -0.9207  1.2771  0.5628
  617SOL     OW 1849   1.949   0.092   0.420  0.2297 -0.1125  0.5540
  617SOL    HW1 1850   2.015   0.015   0.403  2.1809 -1.0162 -1.5094
  617SOL    HW2 1851   1.889   0.096   0.341  1.7660  0.1626  0.1471
  618SOL     OW 1852   0.713   0.698   2.526  0.0172  0.1693  0.0327
  618SOL    HW1 1853   0.673   0.759   2.456  0.4500  1.8356 -0.2862
  618SOL    HW2 1854   0.800   0.737   2.560 -0.1332 -1.7834 -2.6551
  619SOL     OW 1855   2.801   1.642   1.169  0.3294  0.0575 -0.4148
  619SOL    HW1 1856   2.827   1.544   1.166  1.7026  1.7299  2.1059
  619SOL    HW2 1857   2.732   1.654   1.093  1.6171  2.4468  0.5184
  620SOL     OW 1858   2.065   2.896   2.605  0.0936  0.3804  0.3224
  620SOL    HW1 1859   2.041   2.996   2.608 -0.4560 -0.6204  1.6594
  620SOL    HW2 1860   2.107   2.863   2.517 -0.4331  3.2806 -0.2543
  621SOL     OW 1861   2.718   1.761   2.956  0.2818  0.2692 -0.3513
  621SOL    HW1 1862   2.808   1.713   2.969 -0.1193  1.5022 -2.2523
  621SOL    HW2 1863   2.642   1.698   2.994 -2.6800 -4.3958  0.6317
  622SOL     OW 1864   1.769   0.039   2.025 -0.1295  0.2705 -0.3368
  622SOL    HW1 1865   1.703   3.034   2.000 -0.5218 -0.2651 -0.5937
  622SOL    HW2 1866   1.854   0.042   1.966  1.1320  1.4842  0.1388
  623SOL     OW 1867   0.538   2.178   1.064 -0.3514  0.3944  0.2038
  623SOL    HW1 1868   0.622   2.231   1.054 -0.2386 -0.9976  0.2559
  623SOL    HW2 1869   0.452   2.230   1.065 -0.6766  0.0470 -1.3309
  624SOL     OW 1870   0.161   0.120   0.007 -0.1640 -0.2080  0.3419
  624SOL    HW1 1871   0.146   0.019   0.025  2.9261 -3.3192  0.5760
  624SOL    HW2 1872   0.170   0.148   2.979  2.3590  0.7041  1.3653
  625SOL     OW 1873   0.718   1.884   0.750 -0.4207 -0.5530 -0.2912
  625SOL    HW1 1874   0.679   1.971   0.793  0.4084  0.0865 -1.2773
  625SOL    HW2 1875   0.779   1.919   0.669  1.8475  2.0423 -1.6118
  626SOL     OW 1876   2.839   0.202   3.013  0.3719 -0.2327 -0.4452
  626SOL    HW1 1877   2.873   0.245   2.931  2.0707 -0.5969  0.8847
  626SOL    HW2 1878   2.830   0.106   2.997  1.3828  0.6243 -1.1897
  627SOL     OW 1879   1.252   1.662   2.656 -0.3931 -0.0423  0.0152
  627SOL    HW1 1880   1.346   1.703   2.649  0.8349  0.2447 -0.2160
  627SOL    HW2 1881   1.249   1.579   2.595  3.9092 -1.1334 -1.6405
  628SOL     OW 1882   0.249   2.618   2.946 -0.0953  0.1475  0.2789
  628SOL    HW1 1883   0.223   2.663   2.859 -3.2113  0.0594 -0.0412
  628SOL    HW2 1884   0.173   2.602   3.009  1.2623  2.8406 -2.2699
  629SOL     OW 1885   0.579   2.868   2.623 -0.0600 -0.7798  0.1451
  629SOL    HW1 1886   0.495   2.894   2.675  0.2309 -0.1480 -0.3655
  629SOL    HW2 1887   0.608   2.778   2.661 -2.6570 -0.5047  1.4494
  630SOL     OW 1888   1.496   1.084   1.881 -0.0335 -0.1694  0.0084
  630SOL    HW1 1889   1.521   1.106   1.785  2.0455  1.7934 -1.3433
  630SOL    HW2 1890   1.402   1.118   1.906 -1.4155  1.3383 -3.3503
  631SOL     OW 1891   2.029   1.123   0.059  0.8026  0.3470 -0.0307
  631SOL    HW1 1892   2.064   1.051   0.123  1.7943 -0.0775  1.0189
  631SOL    HW2 1893   2.076   1.107   3.044  0.9172  0.5165  1.1785
  632SOL     OW 1894   2.725   0.448   1.950 -0.9116 -0.3059 -0.1423
  632SOL    HW1 1895   2.779   0.531   1.976  3.3157  0.1168  0.6593
  632SOL    HW2 1896   2.639   0.453   1.998  0.4658 -0.7835 -0.6227
  633SOL     OW 1897   0.643   1.430   0.001 -0.4800 -0.1433  0.0206
  633SOL    HW1 1898   0.743   1.455   3.068  1.0745  2.0909  0.0112
  633SOL    HW2 1899   0.622   1.361   3.004  1.5803  1.5609 -0.5733
  634SOL     OW 1900   2.120   2.565   2.470 -0.2058  0.3150  0.1656
  634SOL    HW1 1901   2.037   2.527   2.419 -0.9943 -1.3180  0.9969
  634SOL    HW2 1902   2.153   2.653   2.431 -0.6317 -2.9972  0.0253
  635SOL     OW 1903   1.921   0.571   0.429  0.2850 -0.5566 -0.0672
  635SOL    HW1 1904   1.968   0.553   0.517 -4.0906 -1.0694 -0.1812
  635SOL    HW2 1905   1.975   0.529   0.353 -0.1602 -1.3048 -0.0968
  636SOL     OW 1906   0.685   1.354   0.681  0.8841  0.1274  0.7370
  636SOL    HW1 1907   0.708   1.330   0.584  0.7318 -0.7295 -2.6044
  636SOL    HW2 1908   0.657   1.452   0.685  0.2819 -1.4849 -1.3343
  637SOL     OW 1909   3.027   2.151   0.226 -0.1070 -0.3302  0.0591
  637SOL    HW1 1910   2.952   2.089   0.215  1.3477  2.1080  0.9527
  637SOL    HW2 1911   3.059   2.153   0.323 -0.9529 -1.2786  0.8889
  638SOL     OW 1912   1.206   2.674   2.624 -0.1433 -0.3280 -0.0018
  638SOL    HW1 1913   1.190   2.713   2.529 -2.4453  0.4748 -0.3501
  638SOL    HW2 1914   1.185   2.575   2.626  0.3446  3.6551  2.9866
  639SOL     OW 1915   1.407   1.957   0.140 -0.6352 -0.0021  0.2035
  639SOL    HW1 1916   1.335   2.011   0.089 -0.4304 -0.5254  1.0050
  639SOL    HW2 1917   1.379   1.916   0.227  2.0756  1.9197  0.6262
  640SOL     OW 1918   1.628   0.052   0.827  0.8621  0.5022  0.1717
  640SOL    HW1 1919   1.668   0.134   0.869 -3.0128 -3.9713 -1.1467
  640SOL    HW2 1920   1.696   0.003   0.768  2.7192  2.2167 -2.5979
  641SOL     OW 1921   3.004   2.979   0.520  0.8262  0.5188  0.0485
  641SOL    HW1 1922   3.023   2.980   0.622  0.9277  1.5606  1.8360
  641SOL    HW2 1923   2.912   2.933   0.498 -2.3765 -1.5198  0.8624
  642SOL     OW 1924   0.931   0.265   1.520 -0.7439 -0.6847  0.4985
  642SOL    HW1 1925   0.888   0.177   1.492  0.7847 -2.1231  0.3067
  642SOL    HW2 1926   0.876   0.334   1.569  1.0977 -2.7005 -0.6858
  643SOL     OW 1927   0.622   1.217   2.108  0.7851  0.0784  0.2490
  643SOL    HW1 1928   0.616   1.271   2.198 -1.2958  1.4533  1.1733
  643SOL    HW2 1929   0.677   1.266   2.041 -1.8923 -1.6380  0.1129
  644SOL     OW 1930   0.922   2.436   0.140 -0.0260 -0.0676  0.4653
  644SOL    HW1 1931   0.873   2.372   0.074 -1.6772 -4.6611 -0.5712
  644SOL    HW2 1932   0.998   2.386   0.189 -1.6100  2.2063  1.1583
  645SOL     OW 1933   1.678   2.116   0.125 -0.0559 -0.6367  0.1099
  645SOL    HW1 1934   1.646   2.205   0.078 -2.1171  2.5182  0.9053
  645SOL    HW2 1935   1.604   2.043   0.118 -2.0186 -0.0981 -1.6454
  646SOL     OW 1936   0.221   1.518   2.974  0.1338 -0.0661  0.1582
  646SOL    HW1 1937   0.174   1.535   2.884  0.1828 -0.9157  2.1388
  646SOL    HW2 1938   0.312   1.569   2.971  0.1037 -0.6183 -1.3699
  647SOL     OW 1939   0.825   0.024   0.978 -0.7251 -0.3178  0.0731
  647SOL    HW1 1940   0.830   3.011   1.034 -0.2287  0.2129  0.9321
  647SOL    HW2 1941   0.831   0.105   1.046  0.8455  0.3186  2.7325
  648SOL     OW 1942   1.769   0.558   1.696 -0.0885 -0.5391  0.3431
  648SOL    HW1 1943   1.780   0.507   1.608  1.6919 -1.8153  0.4875
  648SOL    HW2 1944   1.836   0.641   1.694  1.4357  2.2317  2.1786
  649SOL     OW 1945   1.220   1.793   2.879 -0.4775  0.1988 -0.7591
  649SOL    HW1 1946   1.242   1.743   2.791  3.1784  2.3979 -1.4207
  649SOL    HW2 1947   1.159   1.739   2.940  0.0795  0.4621  0.4579
  650SOL     OW 1948   2.727   1.526   2.324 -0.5650  0.2912 -0.2516
  650SOL    HW1 1949   2.709   1.617   2.369  3.1068 -2.3611 -3.0847
  650SOL    HW2 1950   2.828   1.520   2.310  0.7262  2.1957 -1.1335
  651SOL     OW 1951   1.201   2.576   3.052  0.3144  0.0352  0.2571
  651SOL    HW1 1952   1.210   2.476   3.033 -1.2231  0.3011 -0.8984
  651SOL    HW2 1953   1.131   2.618   3.001  2.8157 -0.4343 -3.2654
  652SOL     OW 1954   2.823   2.073   2.967 -0.1250  1.0182  0.0201
  652SOL    HW1 1955   2.759   2.029   3.033  2.7588 -1.3295  1.8537
  652SOL    HW2 1956   2.796   2.159   2.925  2.4950 -1.4662 -0.0837
  653SOL     OW 1957   0.242   0.017   1.058  0.2185 -1.0870 -0.3161
  653SOL    HW1 1958   0.190   3.001   1.056  3.6065  0.8964  0.5659
  653SOL    HW2 1959   0.200   0.083   1.131 -1.0134  0.1542  2.4484
  654SOL     OW 1960   2.192   0.244   2.441  0.0736 -0.3636 -0.6475
  654SOL    HW1 1961   2.131   0.242   2.361  1.7379  1.6142 -0.4614
  654SOL    HW2 1962   2.248   0.166   2.457  1.1158  0.7743  0.4546
  655SOL     OW 1963   0.416   2.868   0.843 -0.4226  0.2798  0.4410
  655SOL    HW1 1964   0.473   2.897   0.760  1.5704  0.0727 -1.2994
  655SOL    HW2 1965   0.350   2.790   0.824 -1.7070 -0.3999  0.1642
  656SOL     OW 1966   2.893   0.016   2.177 -0.0478 -0.5262  0.1304
  656SOL    HW1 1967   2.876   0.113   2.165 -1.5470 -2.1843  2.7268
  656SOL    HW2 1968   2.991   3.068   2.190 -0.0863  2.3118 -0.1831
  657SOL     OW 1969   2.665   0.569   2.631 -0.2516  0.2781  0.4156
  657SOL    HW1 1970   2.633   0.604   2.539  1.6990 -0.2400 -0.9887
  657SOL    HW2 1971   2.661   0.465   2.642  1.8439  0.1715 -2.5397
  658SOL     OW 1972   2.220   1.985   0.842  0.4141  0.2195 -0.2872
  658SOL    HW1 1973   2.208   2.004   0.942 -1.2432  1.6724  0.3298
  658SOL    HW2 1974   2.230   2.079   0.796 -0.9792  1.6270  0.5926
  659SOL     OW 1975   1.945   2.846   0.207  0.0333  0.1842  0.0611
  659SOL    HW1 1976   1.901   2.760   0.238  2.3162 -0.1876 -1.8409
  659SOL    HW2 1977   1.947   2.847   0.105  0.1161 -0.4728 -2.6756
  660SOL     OW 1978   1.560   1.053   2.508  0.2779 -0.3426  0.0622
  660SOL    HW1 1979   1.502   1.082   2.425 -1.6941  0.5354  1.2864
  660SOL    HW2 1980   1.502   1.044   2.592 -2.4783  0.7616  2.7625
  661SOL     OW 1981   2.355   2.476   1.226 -0.2317  0.0654 -0.0466
  661SOL    HW1 1982   2.369   2.399   1.163  1.9033  0.9529  1.6549
  661SOL    HW2 1983   2.332   2.442   1.319  0.0201 -1.4975  1.1000
  662SOL     OW 1984   0.800   0.941   0.427 -0.4014  0.0253 -0.3085
  662SOL    HW1 1985   0.784   0.892   0.340 -2.7864  1.5799  2.4591
  662SOL    HW2 1986   0.725   0.929   0.496  0.2080 -0.6013 -0.5947
  663SOL     OW 1987   1.995   2.244   0.429 -0.4520 -0.6001  0.3506
  663SOL    HW1 1988   2.091   2.219   0.446 -2.2389 -0.5846  2.8295
  663SOL    HW2 1989   1.952   2.193   0.346 -3.6671 -0.7846  0.5755
  664SOL     OW 1990   0.808   1.769   1.243 -0.5703 -0.0437  0.1030
  664SOL    HW1 1991   0.745   1.827   1.187  0.3147 -0.2434  0.2280
  664SOL    HW2 1992   0.833   1.812   1.332  0.0778  0.5840 -2.9318
  665SOL     OW 1993   1.756   2.223   2.186 -0.6809  0.1608  0.1922
  665SOL    HW1 1994   1.844   2.252   2.150 -3.4498 -2.6608  2.9915
  665SOL    HW2 1995   1.724   2.136   2.140  0.0000  2.9304 -0.9144
  666SOL     OW 1996   0.305   2.266   0.244 -0.2634 -0.3651 -0.7960
  666SOL    HW1 1997   0.395   2.294   0.205 -0.3296 -0.9274  1.5491
  666SOL    HW2 1998   0.242   2.240   0.169 -1.5469  1.8346  2.0637
  667SOL     OW 1999   2.406   1.541   1.689  0.0891  0.2945 -0.2398
  667SOL    HW1 2000   2.359   1.625   1.709 -0.6639 -1.9350 -1.2422
  667SOL    HW2 2001   2.475   1.554   1.611 -0.7064  1.2259 -0.8041
  668SOL     OW 2002   0.488   0.636   2.639  0.4647 -0.4534 -0.0475
  668SOL    HW1 2003   0.576   0.653   2.587  0.9461  1.4483  0.1657
  668SOL    HW2 2004   0.507   0.637   2.735 -1.4515  0.3812 -2.3391
  669SOL     OW 2005   1.893   2.285   3.034  0.4275  0.3807 -0.3257
  669SOL    HW1 2006   1.835   2.366   3.052  1.0812 -1.2021  3.4831
  669SOL    HW2 2007   1.989   2.315   3.041 -1.3730 -0.3617  1.3923
  670SOL     OW 2008   2.530   1.866   2.733 -0.6353  0.3237  0.0470
  670SOL    HW1 2009   2.480   1.800   2.670  0.7514 -4.8284  2.7869
  670SOL    HW2 2010   2.568   1.805   2.804  0.8368 -0.5634  0.3848
  671SOL     OW 2011   0.174   1.327   1.279  0.3809 -0.0377 -0.2983
  671SOL    HW1 2012   0.148   1.384   1.202  2.0601 -3.4162 -0.0678
  671SOL    HW2 2013   0.150   1.229   1.256 -2.2705 -1.0023 -1.8150
  672SOL     OW 2014   2.373   0.875   2.384 -0.0006 -0.2115 -0.1836
  672SOL    HW1 2015   2.400   0.895   2.290 -2.4057 -2.5913 -0.5104
  672SOL    HW2 2016   2.326   0.957   2.424  2.6917  1.7062  0.2916
  673SOL     OW 2017   2.438   2.578   2.233 -0.2752 -0.1690 -0.0878
  673SOL    HW1 2018   2.417   2.514   2.312 -2.1763 -0.6920 -1.1758
  673SOL    HW2 2019   2.369   2.562   2.161  0.3554  0.5438  0.5062
  674SOL     OW 2020   1.205   2.364   2.098 -0.9407  0.1406 -0.6401
  674SOL    HW1 2021   1.238   2.394   2.006  4.2911  2.4103  1.2114
  674SOL    HW2 2022   1.272   2.398   2.169  0.9109  1.6810 -1.6756
  675SOL     OW 2023   0.489   0.721   1.046 -0.1090 -0.5704  0.1909
  675SOL    HW1 2024   0.485   0.757   1.142  0.7442  1.5341 -0.7520
  675SOL    HW2 2025   0.476   0.803   0.988  2.5511  2.1155  1.9076
  676SOL     OW 2026   1.776   0.964   0.629 -0.4774  0.4190 -0.2503
  676SOL    HW1 2027   1.729   0.987   0.544  4.7958  2.3486  2.5583
  676SOL    HW2 2028   1.875   0.988   0.624 -1.5336  0.1197  0.5031
  677SOL     OW 2029   0.015   1.662   2.469 -0.1955 -0.0797  0.1842
  677SOL    HW1 2030   0.005   1.582   2.404 -1.6649  0.2771 -0.4349
  677SOL    HW2 2031   2.999   1.685   2.506  3.0467 -0.3876 -0.5199
  678SOL     OW 2032   2.616   1.792   1.356  0.2818  0.6181 -0.7547
  678SOL    HW1 2033   2.671   1.723   1.305  2.1623  1.1577 -1.1669
  678SOL    HW2 2034   2.515   1.768   1.366  0.5699  2.7420  0.8350
  679SOL     OW 2035   1.958   2.765   0.599 -0.1245  0.4808  0.4311
  679SOL    HW1 2036   2.050   2.748   0.560  0.3004 -0.8398 -0.0650
  679SOL    HW2 2037   1.928   2.676   0.645 -0.2414 -2.4414  0.8712
  680SOL     OW 2038   0.401   2.411   2.175 -0.4345 -0.5920  0.3606
  680SOL    HW1 2039   0.486   2.393   2.230 -1.5942  0.5462  1.8305
  680SOL    HW2 2040   0.416   2.402   2.073  2.6415  0.1979 -2.2340
  681SOL     OW 2041   2.812   1.460   1.857 -0.2717 -0.3566  0.1200
  681SOL    HW1 2042   2.896   1.408   1.892  1.9269  0.4754  0.7934
  681SOL    HW2 2043   2.768   1.501   1.943  1.3751  0.3397  1.1974
  682SOL     OW 2044   0.631   1.930   1.137 -0.1485  0.3699  0.0518
  682SOL    HW1 2045   0.608   2.026   1.110 -1.7969  0.5689 -1.8707
  682SOL    HW2 2046   0.542   1.875   1.128 -5.5767 -0.2119 -0.3407
  683SOL     OW 2047   2.107   1.295   1.007  0.1175 -0.2366 -0.1479
  683SOL    HW1 2048   2.124   1.356   0.928 -1.9552 -0.1339  0.9756
  683SOL    HW2 2049   2.032   1.328   1.064  3.2020 -0.8402 -0.8217
  684SOL     OW 2050   2.947   1.611   2.952  0.0092 -0.2027 -0.2775
  684SOL    HW1 2051   3.022   1.590   2.881 -1.3722 -0.9650  1.1184
  684SOL    HW2 2052   2.914   1.528   3.003 -1.3957 -0.8424 -0.5549
  685SOL     OW 2053   1.591   1.181   2.855 -0.3135  0.3057  0.6940
  685SOL    HW1 2054   1.509   1.190   2.803  1.6385  0.2940  0.8352
  685SOL    HW2 2055   1.646   1.263   2.861 -2.7012 -2.3407  3.0650
  686SOL     OW 2056   0.246   0.595   1.292  0.4530  0.5873 -0.3426
  686SOL    HW1 2057   0.327   0.662   1.295  0.6728  0.0979 -0.0210
  686SOL    HW2 2058   0.211   0.569   1.385 -0.1984 -0.4526  2.9633
  687SOL     OW 2059   1.297   2.039   2.735  0.3138  0.0043  0.5652
  687SOL    HW1 2060   1.294   1.950   2.782  1.5946  0.9310 -0.1068
  687SOL    HW2 2061   1.392   2.076   2.745  0.6686  0.9195  0.5459
  688SOL     OW 2062   0.290   1.736   1.497  0.0230 -0.0117 -0.4152
  688SOL    HW1 2063   0.221   1.787   1.445  1.6538 -1.2208  2.3814
  688SOL    HW2 2064   0.260   1.739   1.591 -1.3288  0.9085 -2.0071
  689SOL     OW 2065   1.497   1.074   1.595  1.0649  0.1484  0.0168
  689SOL    HW1 2066   1.465   1.124   1.515 -1.0734 -0.2685  1.5484
  689SOL    HW2 2067   1.570   1.011   1.569 -0.8058 -1.0016 -0.7691
  690SOL     OW 2068   2.330   0.868   1.232  0.8950  0.0284  0.0052
  690SOL    HW1 2069   2.393   0.898   1.307  1.9327  0.0257  0.4762
  690SOL    HW2 2070   2.359   0.906   1.141 -0.3516  0.7930  1.0637
  691SOL     OW 2071   0.610   2.239   1.729  0.2535 -0.0697  0.6089
  691SOL    HW1 2072   0.660   2.161   1.770  0.5269  0.2206 -1.7381
  691SOL    HW2 2073   0.662   2.326   1.724  0.0866 -0.5790  2.3290
  692SOL     OW 2074   1.978   0.173   1.152  0.6037  1.0440  0.0213
  692SOL    HW1 2075   2.044   0.248   1.146  1.0139 -2.5451  2.2298
  692SOL    HW2 2076   1.941   0.175   1.249 -2.0118 -0.7670  0.5070
  693SOL     OW 2077   0.324   1.033   1.989 -0.2014 -0.6422  0.2334
  693SOL    HW1 2078   0.418   1.007   1.991 -2.0165  1.2280 -0.0386
  693SOL    HW2 2079   0.292   1.040   1.893  0.2771 -0.2391 -0.9511
  694SOL     OW 2080   1.908   0.176   1.420  1.0351  0.1241  0.3433
  694SOL    HW1 2081   1.986   0.119   1.449  0.2074  0.9505  1.2711
  694SOL    HW2 2082   1.819   0.134   1.448  1.5946  1.5014 -1.7899
  695SOL     OW 2083   1.224   1.336   1.683  0.0171  0.4771 -0.3635
  695SOL    HW1 2084   1.131   1.362   1.722  0.2857 -0.1391  1.9164
  695SOL    HW2 2085   1.222   1.298   1.587 -1.5576  0.2011  2.2999
  696SOL     OW 2086   1.512   2.692   0.285 -0.0209  0.0671  0.4444
  696SOL    HW1 2087   1.553   2.771   0.336  0.0059 -0.8029  2.1246
  696SOL    HW2 2088   1.550   2.605   0.320 -0.1162  1.7993 -0.8523
  697SOL     OW 2089   0.820   0.534   0.598 -0.0688 -0.1322 -0.5162
  697SOL    HW1 2090   0.781   0.487   0.520  1.8564 -1.1014 -0.6791
  697SOL    HW2 2091   0.907   0.590   0.573  1.4921 -1.9753  0.5936
  698SOL     OW 2092   1.360   1.588   2.376 -0.7142  0.1049 -0.0379
  698SOL    HW1 2093   1.286   1.520   2.391  0.5492 -1.3060 -0.7860
  698SOL    HW2 2094   1.450   1.535   2.372  1.1689  0.0822 -2.8049
  699SOL     OW 2095   1.488   0.921   1.020  0.5748  0.3568 -0.0932
  699SOL    HW1 2096   1.584   0.929   1.056  1.5728 -0.8211  0.6424
  699SOL    HW2 2097   1.484   0.956   0.923  0.2375  1.1885  0.6931
  700SOL     OW 2098   1.368   2.876   0.671 -0.1463  0.4567 -0.2277
  700SOL    HW1 2099   1.318   2.858   0.582 -1.2878 -0.9338  1.1749
  700SOL    HW2 2100   1.386   2.972   0.680 -1.0620 -1.8114 -4.1624
  701SOL     OW 2101   2.341   3.052   2.450 -0.1367 -0.2128 -0.3023
  701SOL    HW1 2102   2.322   3.040   2.549 -1.1911  1.6769 -0.9023
  701SOL    HW2 2103   2.405   2.980   2.418 -0.7966  0.6267  0.1179
  702SOL     OW 2104   1.073   0.203   0.036  0.2417 -0.0337  0.2992
  702SOL    HW1 2105   1.052   0.221   3.006 -0.6936 -0.2815 -2.5751
  702SOL    HW2 2106   1.004   0.236   0.103 -0.7229  1.7811  2.2970
  703SOL     OW 2107   2.449   2.839   2.329 -0.8885  0.2486 -0.5061
  703SOL    HW1 2108   2.421   2.749   2.296 -0.1380  1.7223  1.9093
  703SOL    HW2 2109   2.554   2.841   2.318  3.4492  0.1835  1.2032
  704SOL     OW 2110   0.071   2.390   0.997 -0.0955 -0.2135 -0.4861
  704SOL    HW1 2111   0.040   2.333   0.922 -3.6164  3.2135 -3.2189
  704SOL    HW2 2112   0.002   2.462   1.026  0.4684 -0.0825  0.1450
  705SOL     OW 2113   2.662   0.220   2.182  0.4963  0.0809 -0.0412
  705SOL    HW1 2114   2.712   0.305   2.205 -1.0247  1.1665 -0.9839
  705SOL    HW2 2115   2.649   0.214   2.082  1.8666  0.5123 -1.2451
  706SOL     OW 2116   1.790   0.030   0.213 -0.0914  0.2261 -0.0010
  706SOL    HW1 2117   1.796   2.998   0.216  1.9984  1.5192 -0.0836
  706SOL    HW2 2118   1.695   0.055   0.224  1.1876 -3.2063 -2.2055
  707SOL     OW 2119   0.890   1.818   1.899  0.0538  0.1484 -0.2726
  707SOL    HW1 2120   0.911   1.833   2.001 -1.0030 -2.0143  2.6504
  707SOL    HW2 2121   0.953   1.746   1.865  1.5890 -0.1614  0.5525
  708SOL     OW 2122   0.027   2.628   1.762  0.2233 -0.5538 -0.1524
  708SOL    HW1 2123   0.079   2.612   1.673  0.0286 -0.0690 -3.3109
  708SOL    HW2 2124   3.021   2.694   1.746  1.5047 -1.0391 -0.8391
  709SOL     OW 2125   1.957   0.048   1.828 -0.3745 -0.2157  0.2628
  709SOL    HW1 2126   2.049   0.044   1.878 -0.6664 -0.9519 -1.7384
  709SOL    HW2 2127   1.951   3.032   1.774 -0.1138 -1.0215 -2.5919
  710SOL     OW 2128   2.104   0.773   2.277 -0.1006  0.3854 -0.1856
  710SOL    HW1 2129   2.033   0.839   2.249  2.8074 -4.0326 -1.1682
  710SOL    HW2 2130   2.193   0.810   2.309  1.5553  4.0165 -0.1628
  711SOL     OW 2131   0.993   2.083   0.125 -0.6974 -0.2692  0.3479
  711SOL    HW1 2132   1.033   2.161   0.187  0.4882  0.3001 -2.2390
  711SOL    HW2 2133   0.911   2.120   0.073  2.9852 -1.3871 -2.3964
  712SOL     OW 2134   0.646   2.454   2.290 -0.3981  0.5438  0.5008
  712SOL    HW1 2135   0.704   2.432   2.372 -2.9632 -1.4384 -0.8902
  712SOL    HW2 2136   0.695   2.491   2.213  2.0698 -1.5213  1.2150
  713SOL     OW 2137   1.816   1.250   0.159 -0.0613 -0.4110 -0.9869
  713SOL    HW1 2138   1.815   1.345   0.119 -2.0042  3.4812  2.0715
  713SOL    HW2 2139   1.892   1.194   0.119  2.4371  0.1589  1.3024
  714SOL     OW 2140   0.458   1.410   1.139 -0.1234 -0.1605  0.3517
  714SOL    HW1 2141   0.368   1.360   1.155 -1.9541  1.1181 -0.8946
  714SOL    HW2 2142   0.476   1.466   1.221 -2.3332 -2.9681 -1.6579
  715SOL     OW 2143   1.952   0.240   2.874 -0.1241 -0.2479 -0.2700
  715SOL    HW1 2144   1.852   0.258   2.856 -0.0613 -0.9740 -1.0830
  715SOL    HW2 2145   1.954   0.209   2.972 -1.7543  3.0379 -1.2433
  716SOL     OW 2146   2.635   3.056   1.913 -0.0906  0.6318  0.1789
  716SOL    HW1 2147   2.563   3.065   1.983  1.9631 -0.5022 -0.3809
  716SOL    HW2 2148   2.690   2.971   1.936 -0.7926  0.5666  0.4138
  717SOL     OW 2149   3.051   0.843   0.867 -0.5834 -0.0886  0.0219
  717SOL    HW1 2150   0.046   0.817   0.789  0.7995 -2.2276 -0.6677
  717SOL    HW2 2151   2.962   0.793   0.853 -0.6932  0.7819 -1.3308
  718SOL     OW 2152   1.029   1.170   2.193  0.0310 -0.3179 -0.5662
  718SOL    HW1 2153   0.956   1.167   2.264 -2.3332 -0.5167  0.0998
  718SOL    HW2 2154   1.022   1.093   2.129 -1.7204  0.4506  0.9943
  719SOL     OW 2155   2.820   1.392   3.062  0.0371 -0.0519  0.3425
  719SOL    HW1 2156   2.748   1.354   0.061  1.3329 -0.7932 -1.0688
  719SOL    HW2 2157   2.795   1.373   2.966  0.7457 -1.9158  0.6657
  720SOL     OW 2158   1.162   0.904   0.788 -0.4570  0.2746 -0.2375
  720SOL    HW1 2159   1.142   0.937   0.880 -1.3113  1.9967  0.4482
  720SOL    HW2 2160   1.093   0.950   0.725 -0.0604 -0.0897  2.3190
  721SOL     OW 2161   2.645   0.607   0.133  0.0547  0.4336  0.2991
  721SOL    HW1 2162   2.698   0.561   0.062 -3.0933 -0.6228  1.6066
  721SOL    HW2 2163   2.683   0.590   0.229 -2.6416 -0.6678  1.7560
  722SOL     OW 2164   1.816   0.722   2.706  0.4579 -0.3206  0.2148
  722SOL    HW1 2165   1.777   0.677   2.786  3.3609  1.2403 -1.8812
  722SOL    HW2 2166   1.897   0.671   2.674 -0.1201  1.4086  3.8294
  723SOL     OW 2167   2.817   0.633   0.377  0.3497 -0.4523 -0.0116
  723SOL    HW1 2168   2.893   0.573   0.349 -2.1797 -0.1305 -1.7068
  723SOL    HW2 2169   2.844   0.730   0.385 -0.2511 -0.5356  0.9446
  724SOL     OW 2170   0.831   1.328   1.970  0.3603  0.5115  0.3643
  724SOL    HW1 2171   0.877   1.267   1.901  0.8945  2.8892 -1.5384
  724SOL    HW2 2172   0.904   1.378   2.015  2.3459 -1.1996 -3.0813
  725SOL     OW 2173   2.036   0.962   2.081 -0.8803 -0.3891  0.4369
  725SOL    HW1 2174   2.132   0.976   2.044 -1.1053  0.3476  1.6631
  725SOL    HW2 2175   1.979   1.044   2.062 -2.4748 -2.4950  1.9741
  726SOL     OW 2176   1.633   2.875   0.435 -0.1424  0.0908 -0.4877
  726SOL    HW1 2177   1.707   2.844   0.492 -0.2265  0.2109 -0.6766
  726SOL    HW2 2178   1.583   2.955   0.481 -1.0705  3.3825 -1.5453
  727SOL     OW 2179   1.493   1.285   2.264  0.1416 -0.0980 -0.1223
  727SOL    HW1 2180   1.419   1.234   2.309  0.9932  0.5132  0.0749
  727SOL    HW2 2181   1.458   1.336   2.177  0.7611  1.1942 -0.5556
  728SOL     OW 2182   1.507   2.575   1.269  0.4364 -0.5328  0.9268
  728SOL    HW1 2183   1.479   2.481   1.286 -0.4854 -2.5419  2.3734
  728SOL    HW2 2184   1.571   2.584   1.189  0.1249  1.0040 -0.8397
  729SOL     OW 2185   2.028   1.062   0.914 -0.1689 -0.0252 -0.5062
  729SOL    HW1 2186   2.062   1.153   0.953  0.3690 -0.2867 -0.0084
  729SOL    HW2 2187   2.075   0.985   0.963 -1.0719  0.7794 -0.5158
  730SOL     OW 2188   0.416   1.471   2.377  0.3284 -0.4056 -0.1095
  730SOL    HW1 2189   0.466   1.550   2.418  1.1428  0.4818  0.9411
  730SOL    HW2 2190   0.338   1.506   2.319  1.4103 -1.0492 -0.6186
  731SOL     OW 2191   0.190   0.140   0.792 -0.1681 -0.0752  0.1876
  731SOL    HW1 2192   0.217   0.083   0.705  0.7150  0.9702 -2.5394
  731SOL    HW2 2193   0.236   0.096   0.875 -1.2956  0.0140  1.3734
  732SOL     OW 2194   1.256   0.703   0.217 -0.2767 -0.1089 -0.0438
  732SOL    HW1 2195   1.286   0.755   0.135 -0.5423  0.7468  2.1223
  732SOL    HW2 2196   1.181   0.756   0.263 -1.3680  0.7817  3.3246
  733SOL     OW 2197   0.367   1.910   0.741  0.1040  0.2931 -0.4119
  733SOL    HW1 2198   0.408   1.822   0.774  1.1067 -0.3165  1.8301
  733SOL    HW2 2199   0.315   1.892   0.650 -1.6356  2.7056  0.5927
  734SOL     OW 2200   3.061   2.330   2.965 -0.2162 -0.2755  0.2541
  734SOL    HW1 2201   0.045   2.416   2.978  1.5485 -1.0709  1.9435
  734SOL    HW2 2202   0.024   2.258   3.032 -0.2183  1.6676  0.9307
  735SOL     OW 2203   1.284   0.840   1.186 -0.0022 -0.0126  0.2843
  735SOL    HW1 2204   1.279   0.742   1.164  1.2636  0.6032 -0.4518
  735SOL    HW2 2205   1.363   0.880   1.133  0.3733 -1.2789  0.6410
  736SOL     OW 2206   2.187   2.313   3.023  0.5546 -0.1268 -0.3324
  736SOL    HW1 2207   2.207   2.409   3.056 -1.1711 -0.5291  0.0373
  736SOL    HW2 2208   2.224   2.293   2.930  0.3452  1.7917  0.0333
  737SOL     OW 2209   2.683   0.231   0.771  0.3782  0.0959  0.2439
  737SOL    HW1 2210   2.727   0.255   0.683 -1.3772  0.0139 -0.0135
  737SOL    HW2 2211   2.632   0.309   0.816 -0.6147  1.4054 -0.7144
  738SOL     OW 2212   2.470   0.245   1.101  0.5421 -0.1289  0.2062
  738SOL    HW1 2213   2.451   0.234   1.200  2.1715  0.1503  0.5847
  738SOL    HW2 2214   2.399   0.198   1.045 -1.5775  0.1205 -0.0900
  739SOL     OW 2215   1.644   2.485   0.400 -0.1562  0.1637  0.1203
  739SOL    HW1 2216   1.600   2.393   0.379 -0.8916  0.2057 -1.0917
  739SOL    HW2 2217   1.611   2.530   0.483  1.0867 -3.1695 -1.8607
  740SOL     OW 2218   1.756   0.494   0.928 -0.0956  0.3640  0.1742
  740SOL    HW1 2219   1.777   0.592   0.955 -1.4417  0.7626 -0.9229
  740SOL    HW2 2220   1.736   0.491   0.827  3.2153 -0.5918  0.9585
  741SOL     OW 2221   2.431   1.011   0.644 -0.0679  0.5178  0.2359
  741SOL    HW1 2222   2.404   1.111   0.657 -2.3681  0.9885  0.3893
  741SOL    HW2 2223   2.413   0.974   0.547 -1.5574  0.2842 -0.5727
  742SOL     OW 2224   1.015   1.868   2.143  0.0744  0.7238  0.5480
  742SOL    HW1 2225   1.089   1.819   2.192  0.9312  0.6790 -1.8096
  742SOL    HW2 2226   0.944   1.900   2.211  0.1434 -1.2697 -0.0105
  743SOL     OW 2227   1.918   0.727   2.003 -0.3264 -0.4539  0.2790
  743SOL    HW1 2228   1.968   0.817   2.014 -1.3041  1.3272 -0.4524
  743SOL    HW2 2229   1.969   0.658   2.054 -0.7926  0.8788 -2.5244
  744SOL     OW 2230   2.068   0.827   1.317  0.1557  0.1792 -0.2310
  744SOL    HW1 2231   2.162   0.818   1.284 -0.7691 -0.5150  0.2066
  744SOL    HW2 2232   2.038   0.925   1.302 -1.9976  2.1246 -0.6598
  745SOL     OW 2233   1.657   1.360   1.334  0.1370  0.0997 -0.2077
  745SOL    HW1 2234   1.593   1.419   1.386 -1.9648 -1.8504 -0.0852
  745SOL    HW2 2235   1.620   1.270   1.295  2.0755 -0.9470 -1.4226
  746SOL     OW 2236   1.971   1.853   0.788 -0.5584  0.2822  0.6609
  746SOL    HW1 2237   1.933   1.817   0.877  0.6860  2.3413  0.1767
  746SOL    HW2 2238   2.068   1.888   0.807  4.1888  1.2346 -1.9354
  747SOL     OW 2239   2.157   1.463   0.804  0.1443 -0.3640  0.0833
  747SOL    HW1 2240   2.099   1.524   0.740  1.0711 -0.3506 -1.6209
  747SOL    HW2 2241   2.220   1.400   0.752  1.0686 -1.1631  0.3932
  748SOL     OW 2242   0.228   2.129   0.813  0.1042  0.4792  0.3464
  748SOL    HW1 2243   0.127   2.120   0.820  2.9951  1.6590  3.0981
  748SOL    HW2 2244   0.270   2.039   0.787  0.5138 -3.6548  1.9478
  749SOL     OW 2245   2.413   3.007   2.096 -0.0637  0.0191 -0.2546
  749SOL    HW1 2246   2.419   2.983   2.195  0.0061 -0.8594 -3.1764
  749SOL    HW2 2247   2.320   3.000   2.066  3.7388 -0.5285 -2.3333
  750SOL     OW 2248   2.476   0.778   0.811 -0.3878  0.6018  0.3054
  750SOL    HW1 2249   2.380   0.745   0.812  3.0587  1.1309 -1.5895
  750SOL    HW2 2250   2.478   0.859   0.749 -0.7214 -0.6559 -1.3771
  751SOL     OW 2251   2.562   2.968   0.485  0.2919  0.5272  0.0976
  751SOL    HW1 2252   2.498   2.918   0.424 -0.0768 -2.5456 -3.5872
  751SOL    HW2 2253   2.569   3.065   0.453 -3.0617 -2.6507  1.3516
  752SOL     OW 2254   0.261   2.640   0.772  0.0477 -0.3654  0.0818
  752SOL    HW1 2255   0.298   2.549   0.758  0.3860  1.6791 -2.2043
  752SOL    HW2 2256   0.260   2.681   0.673  0.2075 -0.1005 -1.3565
  753SOL     OW 2257   1.929   0.434   2.081  0.0782 -0.0133 -0.1615
  753SOL    HW1 2258   1.839   0.439   2.037  1.7652 -0.1648  0.0731
  753SOL    HW2 2259   1.994   0.383   2.021  0.7935 -0.7356 -1.7642
  754SOL     OW 2260   1.265   2.426   1.823 -0.3555  0.1074  0.1890
  754SOL    HW1 2261   1.197   2.386   1.753 -1.5936  1.6382 -1.0127
  754SOL    HW2 2262   1.352   2.375   1.828 -0.0643  1.4745 -0.6899
  755SOL     OW 2263   2.701   0.572   0.629  0.0684 -0.2947  0.3839
  755SOL    HW1 2264   2.727   0.610   0.534  1.7075  4.2152 -0.5953
  755SOL    HW2 2265   2.602   0.556   0.630  0.7928  0.3689 -0.2526
  756SOL     OW 2266   0.964   1.668   2.937 -0.0836 -0.4134 -0.2633
  756SOL    HW1 2267   0.945   1.593   3.004  2.6767 -0.5144  2.6654
  756SOL    HW2 2268   0.948   1.638   2.841  1.3925 -0.7974  3.0059
  757SOL     OW 2269   1.222   0.068   0.843 -0.5597  0.1078  0.0626
  757SOL    HW1 2270   1.187   3.048   0.862 -1.3314  1.0232  1.6326
  757SOL    HW2 2271   1.147   0.137   0.837 -1.3584 -2.8426 -0.4915
  758SOL     OW 2272   0.890   0.197   1.196  0.1084 -0.0969  0.2397
  758SOL    HW1 2273   0.875   0.293   1.226  1.9125 -0.3113  1.2588
  758SOL    HW2 2274   0.901   0.141   1.281 -1.0769  1.0043  1.7161
  759SOL     OW 2275   0.347   0.535   0.880 -0.2324  0.4949  0.2524
  759SOL    HW1 2276   0.391   0.585   0.957  2.6487  1.0274  0.8591
  759SOL    HW2 2277   0.260   0.570   0.841  0.2375 -1.3408 -0.8601
  760SOL     OW 2278   2.359   1.229   1.133 -0.7049  0.2277 -0.1205
  760SOL    HW1 2279   2.406   1.161   1.072 -1.5161  0.7605  0.9247
  760SOL    HW2 2280   2.260   1.240   1.102 -1.0701 -1.4676  1.6482
  761SOL     OW 2281   1.654   0.496   0.666  0.1792  0.0856 -0.2941
  761SOL    HW1 2282   1.587   0.506   0.588 -0.6326 -2.0779  0.0417
  761SOL    HW2 2283   1.717   0.416   0.652  0.1858 -0.6046  2.1993
  762SOL     OW 2284   2.013   2.394   0.870  0.5216  0.3552  0.1846
  762SOL    HW1 2285   1.934   2.404   0.806  0.2417 -0.4364 -2.2030
  762SOL    HW2 2286   1.999   2.314   0.936  0.4081 -0.6807  1.2104
  763SOL     OW 2287   1.499   1.434   1.745 -0.3082 -0.2149  0.4467
  763SOL    HW1 2288   1.514   1.470   1.840  0.2500  2.4579  1.6928
  763SOL    HW2 2289   1.400   1.418   1.734  1.3258  0.1441  3.2684
  764SOL     OW 2290   2.763   2.042   2.393  0.1209 -0.3018 -0.0515
  764SOL    HW1 2291   2.859   2.072   2.396 -1.1766  2.5822 -2.7126
  764SOL    HW2 2292   2.713   2.059   2.480 -0.6766 -0.2471  0.8890
  765SOL     OW 2293   0.735   2.351   1.020  0.3174 -0.8898 -0.0593
  765SOL    HW1 2294   0.660   2.410   0.980 -2.4606  1.7464 -0.3887
  765SOL    HW2 2295   0.799   2.409   1.076 -0.2486  1.3712 -0.6952
  766SOL     OW 2296   0.436   1.820   2.394 -0.1991 -0.3998 -0.2627
  766SOL    HW1 2297   0.341   1.827   2.429  3.0018  0.1984 -1.1414
  766SOL    HW2 2298   0.484   1.770   2.470  2.6836  0.6587 -1.4327
  767SOL     OW 2299   2.040   0.930   2.614 -0.0641 -0.0781  0.1667
  767SOL    HW1 2300   1.955   0.953   2.567  2.2537 -1.9754 -0.8454
  767SOL    HW2 2301   2.040   0.832   2.638  0.4274 -2.5455 -0.6123
  768SOL     OW 2302   1.040   2.719   2.854 -0.0874  0.3677 -0.1963
  768SOL    HW1 2303   1.110   2.694   2.788  0.2654 -0.1533  1.3404
  768SOL    HW2 2304   0.999   2.811   2.829 -2.1713  0.3883 -0.5277
  769SOL     OW 2305   2.965   2.609   0.704 -0.9300 -0.4888 -0.1464
  769SOL    HW1 2306   2.887   2.676   0.706  1.1500 -0.4912 -1.5017
  769SOL    HW2 2307   3.029   2.632   0.777  0.3804  0.3758 -2.7488
  770SOL     OW 2308   0.552   2.745   0.213 -0.2825 -0.1995 -0.0581
  770SOL    HW1 2309   0.609   2.666   0.179  1.9079 -1.7777  0.5563
  770SOL    HW2 2310   0.604   2.809   0.273 -0.6644 -1.4160  1.3655
  771SOL     OW 2311   1.175   1.989   2.496 -0.4633 -0.4024 -0.4502
  771SOL    HW1 2312   1.224   2.027   2.579  2.5869  2.4300  0.2998
  771SOL    HW2 2313   1.090   2.046   2.484 -1.4577  1.4088  1.9486
  772SOL     OW 2314   2.139   3.057   2.029  0.4270  0.3273  0.2899
  772SOL    HW1 2315   2.117   0.071   2.086  1.2030  1.2866  0.4799
  772SOL    HW2 2316   2.088   2.976   2.065  0.1629  0.1834 -3.0430
  773SOL     OW 2317   1.162   0.020   1.992 -0.4005 -0.1679 -0.0220
  773SOL    HW1 2318   1.200   0.041   2.085  0.6255  0.7020 -1.3929
  773SOL    HW2 2319   1.222   3.019   1.953 -0.6686 -2.0249  0.8942
  774SOL     OW 2320   1.403   0.817   1.706 -0.2431  0.0368 -0.0455
  774SOL    HW1 2321   1.420   0.908   1.666  3.2140 -1.3718  0.4207
  774SOL    HW2 2322   1.476   0.793   1.773  1.5015  0.0659 -0.4116
  775SOL     OW 2323   2.118   2.954   0.386  0.0981  0.0467 -0.0861
  775SOL    HW1 2324   2.157   2.879   0.443 -1.2351 -1.4019  0.7763
  775SOL    HW2 2325   2.052   2.906   0.321  2.4753 -3.3431 -0.8871
  776SOL     OW 2326   2.246   1.091   1.782 -0.3254  0.0652 -0.0414
  776SOL    HW1 2327   2.310   1.114   1.859  1.3580  0.6547  0.6094
  776SOL    HW2 2328   2.234   1.169   1.719  0.6254 -1.2741 -0.0054
  777SOL     OW 2329   0.080   1.205   2.446  0.0126 -0.5962 -0.6295
  777SOL    HW1 2330   0.108   1.111   2.441  0.3938  1.3814 -0.8077
  777SOL    HW2 2331   0.094   1.247   2.354  0.7245  1.8668  0.5209
  778SOL     OW 2332   2.235   1.087   2.481 -0.4630  0.4037  0.0044
  778SOL    HW1 2333   2.168   1.018   2.508 -0.2987  0.6548 -0.9096
  778SOL    HW2 2334   2.230   1.171   2.535  0.6314  0.2018 -0.5103
  779SOL     OW 2335   2.979   0.275   2.780 -0.0881  0.1269  0.8077
  779SOL    HW1 2336   3.066   0.218   2.793 -2.1965 -0.8232  1.0924
  779SOL    HW2 2337   2.931   0.252   2.691  1.3185  1.3497 -1.1076
  780SOL     OW 2338   2.165   2.803   2.381  0.4215 -0.1014  0.0022
  780SOL    HW1 2339   2.120   2.830   2.292  1.5130  0.7319 -1.6318
  780SOL    HW2 2340   2.260   2.841   2.384 -1.6053  0.4377  0.4130
  781SOL     OW 2341   3.029   1.030   1.740 -0.4064 -0.5613 -0.0996
  781SOL    HW1 2342   3.021   0.998   1.840  3.2936  1.2773  0.3634
  781SOL    HW2 2343   2.994   0.948   1.682  1.4723 -0.5378 -1.8296
  782SOL     OW 2344   2.170   2.072   0.078  0.3132 -0.4166 -0.3375
  782SOL    HW1 2345   2.244   2.010   0.053 -4.6052  1.2677 -1.6626
  782SOL    HW2 2346   2.190   2.165   0.044 -0.8253 -1.4450 -0.2172
  783SOL     OW 2347   0.325   2.324   1.063  0.5307  0.5155  0.1711
  783SOL    HW1 2348   0.223   2.331   1.033  0.4792 -0.0318 -0.0119
  783SOL    HW2 2349   0.383   2.410   1.050  1.0716  1.1164  0.7334
  784SOL     OW 2350   2.540   0.675   2.415 -0.3768  0.4532 -0.2862
  784SOL    HW1 2351   2.500   0.586   2.375 -2.1530 -0.0545 -1.3340
  784SOL    HW2 2352   2.476   0.751   2.414  1.1242 -1.2027 -1.1082
  785SOL     OW 2353   0.140   0.179   1.237 -0.2800  0.0111  0.7396
  785SOL    HW1 2354   0.109   0.275   1.207 -4.1019 -0.6592 -1.9300
  785SOL    HW2 2355   0.121   0.164   1.334 -1.5562  1.9570  0.9729
  786SOL     OW 2356   1.282   2.799   0.433  0.0927  0.2060  0.1165
  786SOL    HW1 2357   1.352   2.760   0.372 -4.0254 -1.9349  1.8405
  786SOL    HW2 2358   1.229   2.873   0.393  0.0753 -0.6307  3.1019
  787SOL     OW 2359   1.264   0.121   0.573 -0.3894  0.1677 -0.4708
  787SOL    HW1 2360   1.253   0.214   0.526  1.0849  2.6363 -1.6897
  787SOL    HW2 2361   1.246   0.135   0.668  0.2321 -0.6628 -0.7520
  788SOL     OW 2362   2.932   1.393   0.970 -0.0880 -0.1679  0.0957
  788SOL    HW1 2363   2.891   1.479   0.928 -0.6523 -1.3410 -0.6268
  788SOL    HW2 2364   3.031   1.420   0.980  0.1783 -1.0909 -0.6059
  789SOL     OW 2365   2.840   0.694   2.002  0.5881 -0.1401 -0.8856
  789SOL    HW1 2366   2.812   0.783   1.959  1.7433  0.8405  0.3856
  789SOL    HW2 2367   2.808   0.699   2.099 -0.6086  1.8481 -3.0104
  790SOL     OW 2368   0.845   0.499   2.866  0.7067  0.1902 -0.3534
  790SOL    HW1 2369   0.850   0.438   2.786  1.9454  1.6028 -2.5465
  790SOL    HW2 2370   0.934   0.544   2.877 -2.3268 -0.6429 -0.8009
  791SOL     OW 2371   2.957   2.827   2.996  0.1260  0.1995  0.3713
  791SOL    HW1 2372   2.903   2.824   2.905 -0.5848  4.4420 -1.9546
  791SOL    HW2 2373   2.987   2.734   3.030  2.2012 -1.0710  1.3235
  792SOL     OW 2374   1.606   0.764   1.899 -0.1966 -0.6780  0.0479
  792SOL    HW1 2375   1.679   0.693   1.910  0.2622 -2.5477 -1.8118
  792SOL    HW2 2376   1.658   0.852   1.893  1.6756 -0.9845  1.0268
  793SOL     OW 2377   2.700   0.568   1.251 -0.4404  0.0475 -0.3120
  793SOL    HW1 2378   2.611   0.539   1.284  3.6972  1.3362  0.0488
  793SOL    HW2 2379   2.693   0.615   1.160 -2.8906  2.0522  0.5904
  794SOL     OW 2380   2.831   0.413   2.277  0.1955  0.4041 -0.3004
  794SOL    HW1 2381   2.781   0.495   2.245  0.9712 -4.4690  0.0192
  794SOL    HW2 2382   2.899   0.382   2.209  0.1550  1.6059  1.6824
  795SOL     OW 2383   0.607   1.875   2.986  0.3818 -0.0826 -0.5770
  795SOL    HW1 2384   0.536   1.904   3.055  2.4697  1.9048 -0.9070
  795SOL    HW2 2385   0.697   1.852   3.030 -0.2379  2.6483  2.5037
  796SOL     OW 2386   2.597   0.573   2.891 -0.0674  0.3585  0.3027
  796SOL    HW1 2387   2.500   0.591   2.911  0.2335 -2.5813  0.7742
  796SOL    HW2 2388   2.619   0.587   2.790  0.3408  2.2621 -1.5614
  797SOL     OW 2389   2.656   2.080   2.646 -0.9789  0.2833  0.0968
  797SOL    HW1 2390   2.596   1.999   2.669 -2.8439 -2.8158 -1.0658
  797SOL    HW2 2391   2.638   2.155   2.710  2.9421 -2.3833 -0.1288
  798SOL     OW 2392   2.929   0.127   1.385  0.0159  0.5630  0.1900
  798SOL    HW1 2393   2.941   0.171   1.474 -1.0785 -0.4376 -3.6909
  798SOL    HW2 2394   2.891   0.200   1.317 -1.5953  1.5343 -0.9671
  799SOL     OW 2395   0.409   0.316   1.649 -0.3560  0.0417  0.9091
  799SOL    HW1 2396   0.467   0.295   1.567 -1.2150 -2.1752 -0.0772
  799SOL    HW2 2397   0.460   0.288   1.733 -1.7649 -0.4620 -0.5240
  800SOL     OW 2398   0.247   1.691   0.291 -0.0772 -0.3464  0.7182
  800SOL    HW1 2399   0.202   1.601   0.273 -1.8486 -2.3503  0.4439
  800SOL    HW2 2400   0.333   1.697   0.240 -2.0795 -0.1230  1.3601
  801SOL     OW 2401   1.753   1.560   0.721 -0.1277  0.1270  0.1307
  801SOL    HW1 2402   1.678   1.602   0.669 -0.5989 -1.8253  1.0904
  801SOL    HW2 2403   1.841   1.584   0.679 -0.5755 -1.9125 -1.0525
  802SOL     OW 2404   1.306   0.841   3.037 -0.2274  0.3947 -0.5653
  802SOL    HW1 2405   1.314   0.775   2.964  1.0060  2.1309  2.4684
  802SOL    HW2 2406   1.388   0.902   3.047  1.8452 -0.5887 -0.2057
  803SOL     OW 2407   1.081   1.624   1.804  0.3144  0.1985  0.4473
  803SOL    HW1 2408   1.103   1.649   1.710  4.4449  2.2997  1.4090
  803SOL    HW2 2409   1.011   1.551   1.796 -0.1457 -1.1398  0.0415
  804SOL     OW 2410   1.612   2.364   0.900  0.2762 -0.4224  0.4703
  804SOL    HW1 2411   1.665   2.292   0.947 -2.0930  1.8042  0.9763
  804SOL    HW2 2412   1.571   2.328   0.812 -1.0661  1.3970 -0.4369
  805SOL     OW 2413   0.129   2.459   2.178 -0.8139  0.3144 -0.0268
  805SOL    HW1 2414   0.081   2.446   2.093  0.7812 -1.5451  2.5896
  805SOL    HW2 2415   0.226   2.435   2.174 -0.4661  2.6332 -2.5712
  806SOL     OW 2416   0.845   0.041   0.282  0.1246  0.0061  0.0224
  806SOL    HW1 2417   0.882   0.092   0.357 -1.4648 -1.4031 -0.3648
  806SOL    HW2 2418   0.790   0.100   0.220 -0.0256 -2.0567  0.5518
  807SOL     OW 2419   2.599   1.074   2.926 -0.2554  0.0041 -0.5455
  807SOL    HW1 2420   2.616   0.991   2.983 -3.0781 -1.7585 -1.7757
  807SOL    HW2 2421   2.645   1.060   2.837 -0.5102  0.0465  0.6712
  808SOL     OW 2422   1.375   2.072   0.893  0.1710 -0.1758 -1.0170
  808SOL    HW1 2423   1.429   2.092   0.811  0.2023  0.7295  2.1768
  808SOL    HW2 2424   1.272   2.079   0.870 -2.4380  1.0405  0.4059
  809SOL     OW 2425   0.260   3.047   0.575  0.7100  0.6104  0.2589
  809SOL    HW1 2426   0.247   2.948   0.565 -0.0687  2.3186  0.3406
  809SOL    HW2 2427   0.247   0.026   0.486  0.7738 -1.0017  0.5257
  810SOL     OW 2428   1.171   1.518   0.736 -0.3803 -0.1773  0.0736
  810SOL    HW1 2429   1.157   1.532   0.838 -0.1292  0.7234  2.3993
  810SOL    HW2 2430   1.147   1.424   0.709  2.5723  0.6967 -0.1160
  811SOL     OW 2431   1.373   2.801   1.270  0.5961  0.2216 -0.4088
  811SOL    HW1 2432   1.429   2.717   1.258 -0.1834 -0.3455 -2.2357
  811SOL    HW2 2433   1.428   2.884   1.245 -2.7767  0.3734 -1.4101
  812SOL     OW 2434   1.132   3.030   0.385  0.3595  0.1138  0.1501
  812SOL    HW1 2435   1.033   3.022   0.371 -0.0236 -2.2498 -0.0933
  812SOL    HW2 2436   1.168   0.004   0.473  0.0922  1.1993 -1.6760
  813SOL     OW 2437   0.996   0.207   2.260  0.4668  0.0992  0.8728
  813SOL    HW1 2438   1.090   0.172   2.279 -1.2913  1.3160  1.7300
  813SOL    HW2 2439   0.938   0.186   2.342  2.7294 -1.9443  0.8504
  814SOL     OW 2440   0.793   2.785   1.108 -0.0732 -0.5858  0.4501
  814SOL    HW1 2441   0.846   2.791   1.198  1.4480 -3.4863 -0.1743
  814SOL    HW2 2442   0.694   2.817   1.117  3.0191 -1.3932  0.7387
  815SOL     OW 2443   0.282   2.454   0.483 -0.0707  0.7889 -0.2638
  815SOL    HW1 2444   0.276   2.410   0.394 -1.2933  2.2238  1.8268
  815SOL    HW2 2445   0.357   2.526   0.489  0.3319 -1.5228 -1.6496
  816SOL     OW 2446   2.378   1.375   2.682 -0.1357 -0.1497  0.2825
  816SOL    HW1 2447   2.438   1.375   2.766  1.1580 -0.2144  0.4112
  816SOL    HW2 2448   2.436   1.342   2.600 -0.4884  0.7571 -2.4483
  817SOL     OW 2449   1.881   2.499   2.742  0.0642 -0.1291  0.7508
  817SOL    HW1 2450   1.977   2.459   2.738 -0.1911  1.8681  1.4637
  817SOL    HW2 2451   1.893   2.601   2.747  1.3639  3.1614 -1.1702
  818SOL     OW 2452   1.390   1.214   0.572 -0.0480 -0.1727 -0.2659
  818SOL    HW1 2453   1.379   1.182   0.478 -0.5603  2.4043 -0.0073
  818SOL    HW2 2454   1.459   1.289   0.561 -0.0297  0.7055 -0.6139
  819SOL     OW 2455   1.487   1.837   2.994 -0.1539 -0.4312 -0.2400
  819SOL    HW1 2456   1.459   1.895   0.005  0.5650  1.7054  0.3866
  819SOL    HW2 2457   1.406   1.791   2.963  0.7852  1.3967 -1.0939
  820SOL     OW 2458   0.710   0.834   0.194 -0.1910 -0.3041  0.4140
  820SOL    HW1 2459   0.709   0.909   0.127  0.2529  0.4661  1.7019
  820SOL    HW2 2460   0.640   0.760   0.186 -1.9844  0.5072 -0.5527
  821SOL     OW 2461   0.488   0.092   1.160 -0.5105 -0.4920  0.3203
  821SOL    HW1 2462   0.396   0.063   1.127 -1.0610 -0.4961  0.6451
  821SOL    HW2 2463   0.498   0.197   1.155  0.5041  1.0384  0.0903
  822SOL     OW 2464   1.714   2.387   2.549  0.6094 -0.2365  0.3061
  822SOL    HW1 2465   1.699   2.287   2.529  1.0583  0.6429 -3.1912
  822SOL    HW2 2466   1.782   2.403   2.624 -1.8742  0.3128 -1.5109
  823SOL     OW 2467   1.111   0.457   2.123 -0.4635  0.0256  0.4078
  823SOL    HW1 2468   1.144   0.421   2.213  2.5554 -0.4724 -0.5427
  823SOL    HW2 2469   1.024   0.510   2.135 -1.9674 -1.5623  0.9666
  824SOL     OW 2470   2.244   0.193   1.607 -0.2743  0.1640  0.1260
  824SOL    HW1 2471   2.178   0.238   1.667  2.5926 -2.2201  1.2840
  824SOL    HW2 2472   2.198   0.106   1.572 -1.3547 -1.5400  0.4454
  825SOL     OW 2473   0.744   1.206   2.880 -0.0788  0.0443  0.6246
  825SOL    HW1 2474   0.763   1.139   2.957  0.1125 -1.6352  4.4799
  825SOL    HW2 2475   0.648   1.203   2.847 -3.5129 -0.2671  3.2390
  826SOL     OW 2476   2.060   0.642   2.582  0.2270 -0.2246 -0.1042
  826SOL    HW1 2477   2.144   0.589   2.589 -1.2876  2.8866 -2.5849
  826SOL    HW2 2478   2.015   0.619   2.493  0.1592  3.4022  3.1116
  827SOL     OW 2479   0.921   2.110   2.461 -0.5176 -0.9131 -0.8647
  827SOL    HW1 2480   0.913   2.195   2.413 -0.0632  0.0987  1.0466
  827SOL    HW2 2481   0.894   2.125   2.557 -1.0051  0.2437  2.5286
  828SOL     OW 2482   2.652   0.054   1.451  0.2898 -0.2606 -0.6402
  828SOL    HW1 2483   2.740   0.091   1.416 -0.7527 -0.1338  1.2297
  828SOL    HW2 2484   2.640   3.029   1.460 -0.9816  3.8556  0.0919
  829SOL     OW 2485   1.131   1.676   1.516 -0.0505 -0.0408 -0.6095
  829SOL    HW1 2486   1.202   1.657   1.444  2.3817 -2.7390  0.4061
  829SOL    HW2 2487   1.045   1.626   1.497  0.5033  1.0598 -0.1254
  830SOL     OW 2488   0.686   0.996   1.754  0.0355 -0.6039 -0.0296
  830SOL    HW1 2489   0.761   0.940   1.729 -2.4904  0.7832  1.4048
  830SOL    HW2 2490   0.646   0.972   1.848 -3.9629  2.3047 -0.1968
  831SOL     OW 2491   3.037   1.778   0.213 -0.3894 -0.0821 -0.1943
  831SOL    HW1 2492   3.007   1.816   0.124 -0.2619 -0.8343 -0.3753
  831SOL    HW2 2493   0.065   1.776   0.231 -1.8781 -0.9553  0.6058
  832SOL     OW 2494   0.943   2.715   0.375  0.0058 -0.2134 -0.1400
  832SOL    HW1 2495   0.844   2.730   0.362 -1.7228  0.2931 -0.2476
  832SOL    HW2 2496   0.999   2.741   0.293  0.5885 -0.7355 -0.0240
  833SOL     OW 2497   2.928   0.255   1.626  0.4849  0.6763  0.0931
  833SOL    HW1 2498   2.890   0.225   1.715  0.4078  3.0730 -0.6605
  833SOL    HW2 2499   2.964   0.350   1.632 -2.0618  1.1572 -0.9335
  834SOL     OW 2500   0.007   1.114   0.949  0.3703  0.1847 -0.0664
  834SOL    HW1 2501   0.043   1.203   0.915 -1.2938  1.8335 -1.4802
  834SOL    HW2 2502   0.033   1.037   0.884  0.5166 -1.1239 -1.2608
  835SOL     OW 2503   2.478   2.964   1.117 -0.1447  0.4147 -0.3027
  835SOL    HW1 2504   2.429   2.964   1.029  1.8584 -2.7889 -1.2473
  835SOL    HW2 2505   2.566   3.016   1.123 -2.0892 -2.0439 -0.0694
  836SOL     OW 2506   0.957   1.721   2.550 -0.0317  0.4261 -0.0381
  836SOL    HW1 2507   0.898   1.778   2.491  0.9677  2.0322  0.0850
  836SOL    HW2 2508   1.024   1.780   2.593 -4.0043  0.1858  0.8083
  837SOL     OW 2509   1.763   1.850   2.977  0.1929 -0.0094  0.1062
  837SOL    HW1 2510   1.660   1.845   2.982 -0.8474 -1.3432  1.5690
  837SOL    HW2 2511   1.798   1.931   2.929  2.3127 -2.6533  0.2198
  838SOL     OW 2512   0.095   0.631   2.203 -0.4651  0.1745 -0.0008
  838SOL    HW1 2513   0.168   0.566   2.227  1.1408  2.2313 -1.5568
  838SOL    HW2 2514   0.064   0.610   2.107 -0.6015  0.5835 -1.2911
  839SOL     OW 2515   0.951   0.747   2.681 -0.1879 -0.6777  0.0951
  839SOL    HW1 2516   1.007   0.795   2.608  0.5050 -2.3541 -0.7827
  839SOL    HW2 2517   1.008   0.706   2.754 -1.0043 -0.5793  0.3187
  840SOL     OW 2518   1.681   0.574   0.259 -0.0914  0.0801 -0.4262
  840SOL    HW1 2519   1.766   0.569   0.314 -2.3364  0.0739  1.0922
  840SOL    HW2 2520   1.597   0.587   0.320 -0.2322  0.5278 -0.2694
  841SOL     OW 2521   0.634   2.691   0.660 -0.0476  0.3288 -0.2820
  841SOL    HW1 2522   0.624   2.644   0.750  3.1686 -5.6095  0.1005
  841SOL    HW2 2523   0.671   2.783   0.669 -0.2780  0.2571  1.6399
  842SOL     OW 2524   0.305   0.602   0.384  0.2136  0.0857  0.1451
  842SOL    HW1 2525   0.210   0.586   0.427 -2.1808 -0.3880  1.5163
  842SOL    HW2 2526   0.334   0.695   0.419  1.6237  2.4244 -1.9512
  843SOL     OW 2527   0.438   0.788   1.303  0.2121 -0.1364 -0.1946
  843SOL    HW1 2528   0.523   0.782   1.365 -1.2096  0.2068  0.1183
  843SOL    HW2 2529   0.384   0.873   1.327 -0.3925 -1.0353  1.2280
  844SOL     OW 2530   2.121   2.411   2.694  0.8037  0.2296  0.5854
  844SOL    HW1 2531   2.118   2.493   2.632 -1.6931  2.8778 -3.5306
  844SOL    HW2 2532   2.217   2.387   2.700 -2.7176 -0.0745  0.6397
  845SOL     OW 2533   2.105   3.046   1.522  0.4863  0.0963 -0.5701
  845SOL    HW1 2534   2.048   2.988   1.584 -0.4990  0.5477  0.0085
  845SOL    HW2 2535   2.171   2.994   1.469 -1.8743  1.1984  0.6853
  846SOL     OW 2536   2.398   1.728   2.330  0.0612  0.6505 -0.1574
  846SOL    HW1 2537   2.371   1.652   2.268 -0.6975 -1.1142 -1.5164
  846SOL    HW2 2538   2.400   1.812   2.277 -3.3589 -2.0770 -0.8623
  847SOL     OW 2539   2.054   2.841   2.141 -0.0274 -0.0442 -0.4001
  847SOL    HW1 2540   1.957   2.811   2.152  0.0281 -0.9131  1.5296
  847SOL    HW2 2541   2.105   2.779   2.077  1.2921 -1.0524 -1.1054
  848SOL     OW 2542   0.056   2.834   0.326 -0.1957  0.1809 -0.1339
  848SOL    HW1 2543   0.092   2.899   0.259 -5.2389  0.1379  3.8080
  848SOL    HW2 2544   3.055   2.880   0.382  0.0820  1.7370 -1.4940
  849SOL     OW 2545   0.543   2.878   1.094  0.4154  0.1357  0.4935
  849SOL    HW1 2546   0.542   2.981   1.101  1.0776 -0.7201  0.9977
  849SOL    HW2 2547   0.499   2.850   1.004  0.8360  1.0546 -1.1017
  850SOL     OW 2548   0.154   1.716   0.969 -0.0439  0.4937 -0.3642
  850SOL    HW1 2549   0.138   1.809   1.001 -2.1916  0.1631  1.4523
  850SOL    HW2 2550   0.253   1.714   0.939  0.7475  3.4482 -1.5736
  851SOL     OW 2551   2.680   0.856   3.059 -0.2521 -0.2307  0.4160
  851SOL    HW1 2552   2.660   0.829   0.085  0.1047  2.0625 -0.2868
  851SOL    HW2 2553   2.735   0.784   3.008  1.2592 -1.4099  0.5206
  852SOL     OW 2554   1.982   1.785   2.475 -0.2141 -0.1882  0.1306
  852SOL    HW1 2555   1.987   1.716   2.549 -0.4886  0.9494 -0.4748
  852SOL    HW2 2556   2.065   1.850   2.475  1.3427  0.9689 -0.8810
  853SOL     OW 2557   0.708   1.799   0.261  0.6011 -0.2866  0.5291
  853SOL    HW1 2558   0.635   1.724   0.255 -1.5596  0.1435 -0.3927
  853SOL    HW2 2559   0.743   1.821   0.171 -2.3623 -0.4597  1.0089
  854SOL     OW 2560   1.662   1.110   2.104  0.0769 -0.2001  0.1767
  854SOL    HW1 2561   1.617   1.075   2.016 -0.2424 -1.4719 -1.9139
  854SOL    HW2 2562   1.597   1.164   2.164 -0.1676  0.3366  0.8195
  855SOL     OW 2563   0.789   2.214   0.019  0.3296  0.2010 -0.1735
  855SOL    HW1 2564   0.712   2.196   0.089 -1.0709 -1.1951  0.6050
  855SOL    HW2 2565   0.748   2.203   2.998 -0.5486  0.7176  0.6154
  856SOL     OW 2566   0.461   3.043   2.016 -0.4804  0.5403 -0.0928
  856SOL    HW1 2567   0.513   2.968   1.965 -1.7932  0.4469  1.3150
  856SOL    HW2 2568   0.527   0.022   2.076  0.6485 -0.2525  3.8513
  857SOL     OW 2569   0.772   0.234   1.825  0.0539 -0.2949  0.1814
  857SOL    HW1 2570   0.842   0.219   1.896  0.5733 -0.7566  0.1957
  857SOL    HW2 2571   0.799   0.317   1.768  2.0457 -0.4200 -1.2958
  858SOL     OW 2572   0.117   2.093   2.059 -0.7624  0.1968 -0.5473
  858SOL    HW1 2573   0.147   2.153   2.134  1.3104  0.7371 -1.3415
  858SOL    HW2 2574   0.199   2.037   2.023 -1.7914 -1.8510 -1.0552
  859SOL     OW 2575   1.960   2.221   1.072  0.2864 -0.0982 -0.3236
  859SOL    HW1 2576   1.961   2.306   1.131  1.7252  0.4469 -1.0580
  859SOL    HW2 2577   1.863   2.181   1.057 -0.2614 -0.3735  0.2040
  860SOL     OW 2578   2.054   0.522   0.681 -0.0211 -0.0824  0.4240
  860SOL    HW1 2579   2.102   0.472   0.755 -0.5481 -2.0908 -2.4215
  860SOL    HW2 2580   2.097   0.617   0.668 -0.2154  0.3432  0.9662
  861SOL     OW 2581   0.040   0.435   1.165  0.4389  0.4414 -0.5510
  861SOL    HW1 2582   0.101   0.507   1.204  1.8855  1.7985  0.3749
  861SOL    HW2 2583   3.019   0.433   1.206  2.1044 -2.5452  0.3617
  862SOL     OW 2584   2.237   0.627   1.671 -0.2491  0.4659  0.4637
  862SOL    HW1 2585   2.195   0.697   1.731  1.4843  1.3786  0.3554
  862SOL    HW2 2586   2.174   0.615   1.590 -1.5740 -1.4950  2.8421
  863SOL     OW 2587   0.390   1.290   1.428 -0.5181  0.0733  0.3318
  863SOL    HW1 2588   0.389   1.318   1.522  0.5876 -0.8342 -0.4113
  863SOL    HW2 2589   0.309   1.329   1.373 -2.0798  1.5955 -0.7384
  864SOL     OW 2590   2.365   2.804   1.826 -0.0462 -0.3851 -0.5259
  864SOL    HW1 2591   2.432   2.793   1.903  1.7896 -2.9143 -1.6556
  864SOL    HW2 2592   2.359   2.898   1.790  0.9211 -1.7412 -2.4679
  865SOL     OW 2593   1.457   0.300   2.180  0.3968 -0.1482  0.0270
  865SOL    HW1 2594   1.482   0.259   2.090 -0.2310  0.3002 -1.5280
  865SOL    HW2 2595   1.538   0.321   2.231 -3.4522  0.1876 -2.5467
  866SOL     OW 2596   2.231   2.726   0.483 -0.0237  0.1296  0.1458
  866SOL    HW1 2597   2.234   2.714   0.582 -1.8849  3.1351 -0.4085
  866SOL    HW2 2598   2.316   2.764   0.449 -0.0693 -0.6489 -3.4184
  867SOL     OW 2599   2.518   2.607   0.821  0.4460 -0.7277 -0.1892
  867SOL    HW1 2600   2.599   2.656   0.795  0.8182  3.1528  0.7418
  867SOL    HW2 2601   2.493   2.629   0.916 -0.2627 -1.3969  1.2775
  868SOL     OW 2602   1.492   1.538   2.829  0.0914 -0.1712 -0.4344
  868SOL    HW1 2603   1.449   1.457   2.783  1.4499 -0.7737  0.9695
  868SOL    HW2 2604   1.477   1.622   2.777 -2.4477 -0.0653 -0.9015
  869SOL     OW 2605   2.586   2.014   0.586 -0.1312 -0.0571 -0.4978
  869SOL    HW1 2606   2.611   2.084   0.658  2.1319 -2.3739  0.6349
  869SOL    HW2 2607   2.519   2.049   0.525  1.3717  0.1134  2.7614
  870SOL     OW 2608   2.854   1.935   0.345  0.5103  0.6278  0.3872
  870SOL    HW1 2609   2.918   1.864   0.308  2.5672 -2.5979 -1.0233
  870SOL    HW2 2610   2.841   1.944   0.443  1.8346  2.6433 -2.8359
  871SOL     OW 2611   0.277   1.019   1.364  0.1362  0.2796  0.3904
  871SOL    HW1 2612   0.293   1.114   1.392 -1.7710  0.9118  0.0613
  871SOL    HW2 2613   0.188   1.016   1.314  1.7374 -1.0197  0.7627
  872SOL     OW 2614   0.736   1.606   2.405  0.0074 -0.2297  0.3932
  872SOL    HW1 2615   0.744   1.677   2.334  0.8831  0.3972 -0.1996
  872SOL    HW2 2616   0.698   1.649   2.487  0.5499 -3.0640 -0.6064
  873SOL     OW 2617   0.278   2.877   1.645  0.0843  0.0094  0.1206
  873SOL    HW1 2618   0.275   2.808   1.719  0.6691  1.4713  0.0005
  873SOL    HW2 2619   0.370   2.919   1.660 -3.1439 -2.1520  0.0224
  874SOL     OW 2620   1.329   0.668   2.048  0.4208 -0.0393  0.0562
  874SOL    HW1 2621   1.384   0.643   1.965  2.9826  0.7913 -1.1581
  874SOL    HW2 2622   1.308   0.585   2.105  0.8321 -1.1619  1.9521
  875SOL     OW 2623   2.693   0.073   1.083  0.2403 -0.3693 -0.2724
  875SOL    HW1 2624   2.782   0.127   1.080 -1.0654  2.7280  1.4539
  875SOL    HW2 2625   2.611   0.136   1.079  1.9837 -0.5928  0.8902
  876SOL     OW 2626   0.768   1.230   0.428 -0.0411  0.7036 -0.0225
  876SOL    HW1 2627   0.783   1.129   0.408  0.9876 -0.2997 -2.1720
  876SOL    HW2 2628   0.850   1.284   0.392  0.8059  0.2122 -1.3949
  877SOL     OW 2629   1.300   0.987   1.417  0.0111 -0.1534  0.2326
  877SOL    HW1 2630   1.379   0.954   1.474 -0.0784 -1.1183 -1.1271
  877SOL    HW2 2631   1.298   0.929   1.331  0.3784  1.4455 -0.5080
  878SOL     OW 2632   2.506   2.158   0.347 -0.2144 -0.4163 -0.4650
  878SOL    HW1 2633   2.563   2.100   0.282  1.4231 -0.6998 -0.5319
  878SOL    HW2 2634   2.538   2.253   0.348  0.9400  0.2126 -2.7035
  879SOL     OW 2635   2.458   1.973   1.835 -0.0365  0.4429  0.1484
  879SOL    HW1 2636   2.554   1.976   1.799 -1.8931  1.3031  1.4404
  879SOL    HW2 2637   2.437   2.070   1.866  1.3665  0.7185  1.7548
  880SOL     OW 2638   1.073   2.503   0.964 -0.6402 -0.4605 -0.0167
  880SOL    HW1 2639   1.133   2.585   0.965 -0.5546  0.4618  1.9519
  880SOL    HW2 2640   1.092   2.454   1.053 -1.3242 -0.9742  3.2879
  881SOL     OW 2641   0.819   1.978   0.482 -0.2713  0.1631  0.0995
  881SOL    HW1 2642   0.778   1.911   0.413 -2.3955  1.6635 -1.4206
  881SOL    HW2 2643   0.855   2.068   0.441  1.0560  2.0509  1.1187
  882SOL     OW 2644   2.126   1.172   0.416  0.1069 -0.3323  0.4190
  882SOL    HW1 2645   2.140   1.263   0.378 -0.6180 -1.0589  2.5527
  882SOL    HW2 2646   2.144   1.103   0.345  0.1656  1.6752  0.6474
  883SOL     OW 2647   1.496   0.656   0.971  0.0217  0.8213 -0.6208
  883SOL    HW1 2648   1.477   0.747   1.010  1.9627 -1.3407 -0.1324
  883SOL    HW2 2649   1.576   0.667   0.913  0.6422 -1.9676 -1.0422
  884SOL     OW 2650   2.792   2.824   0.421 -0.2360  0.1857  0.1440
  884SOL    HW1 2651   2.806   2.836   0.318  0.8144  2.0939  0.9136
  884SOL    HW2 2652   2.695   2.844   0.438  0.0557 -1.8971 -0.0008
  885SOL     OW 2653   1.062   1.436   2.145 -0.0881  0.3343  0.0301
  885SOL    HW1 2654   1.064   1.335   2.144 -2.5278  1.0854 -0.5127
  885SOL    HW2 2655   1.140   1.478   2.088  2.3457  1.9041 -0.1047
  886SOL     OW 2656   1.215   1.801   2.308  0.0734 -0.4294 -0.3557
  886SOL    HW1 2657   1.186   1.863   2.387  0.1289  2.7575 -0.1359
  886SOL    HW2 2658   1.277   1.720   2.335  0.9917 -1.5121  1.7261
  887SOL     OW 2659   1.238   0.635   0.809  0.2280  0.1748  0.3225
  887SOL    HW1 2660   1.317   0.606   0.865 -0.7934 -1.0775 -3.5727
  887SOL    HW2 2661   1.206   0.732   0.816 -2.7128  0.0282 -3.4633
  888SOL     OW 2662   2.375   0.720   1.995 -0.1175  0.0969 -0.0876
  888SOL    HW1 2663   2.416   0.627   2.014  2.7882 -4.2156  1.6669
  888SOL    HW2 2664   2.420   0.790   2.056  2.0433  5.0269  2.9837
  889SOL     OW 2665   3.020   2.151   0.854 -0.3083 -0.4226 -0.0154
  889SOL    HW1 2666   2.992   2.112   0.768 -1.6474  0.4041  1.9276
  889SOL    HW2 2667   2.952   2.223   0.884 -1.5146  0.3245  1.2083
  890SOL     OW 2668   1.279   2.155   0.414 -0.2741 -0.0080  0.1123
  890SOL    HW1 2669   1.377   2.178   0.420 -2.1641 -0.6116 -1.3274
  890SOL    HW2 2670   1.267   2.064   0.455  0.6114  1.3399 -0.0883
  891SOL     OW 2671   3.004   0.521   2.904 -0.4406  0.2818  0.3193
  891SOL    HW1 2672   3.001   0.431   2.848 -1.3566 -3.2470 -4.1667
  891SOL    HW2 2673   3.058   0.596   2.857 -0.2178  1.1979 -1.6802
  892SOL     OW 2674   2.796   2.305   0.912 -0.6119 -0.3135 -0.1912
  892SOL    HW1 2675   2.820   2.406   0.917 -1.8883  0.0017 -1.6161
  892SOL    HW2 2676   2.752   2.273   1.000  1.2296  0.5316  1.0817
  893SOL     OW 2677   1.281   0.282   1.008  0.2658 -0.1500  0.0719
  893SOL    HW1 2678   1.290   0.195   0.950 -0.1488  2.3677  0.3546
  893SOL    HW2 2679   1.375   0.302   1.034 -0.2447 -2.0073  0.4965
  894SOL     OW 2680   2.819   0.308   0.986  0.2769  0.3573 -0.4498
  894SOL    HW1 2681   2.917   0.330   0.962 -1.5196 -1.0923  2.8873
  894SOL    HW2 2682   2.768   0.258   0.913 -0.3880 -0.2295  1.5442
  895SOL     OW 2683   2.107   1.621   2.683 -0.3846  0.2673 -0.2354
  895SOL    HW1 2684   2.151   1.574   2.605 -0.3604 -0.9224  1.7897
  895SOL    HW2 2685   2.061   1.546   2.734  1.9171  0.0016 -1.7196
  896SOL     OW 2686   2.078   0.572   1.453 -0.0975  0.2265  0.2125
  896SOL    HW1 2687   2.080   0.646   1.380  3.0112  0.6207 -1.7975
  896SOL    HW2 2688   1.995   0.515   1.441  2.7222 -2.4959 -0.2309
  897SOL     OW 2689   3.064   1.340   1.492  0.2138 -0.1252  0.1894
  897SOL    HW1 2690   3.009   1.255   1.509  0.5960 -2.5606  0.3909
  897SOL    HW2 2691   0.049   1.331   1.409  0.9994 -0.7593  1.4363
  898SOL     OW 2692   2.024   2.322   2.114  0.6136 -0.2517 -0.2854
  898SOL    HW1 2693   2.010   2.318   2.014  0.5286 -0.2316 -1.0201
  898SOL    HW2 2694   2.085   2.250   2.145 -0.3909  2.1544  1.0596
  899SOL     OW 2695   1.072   1.739   1.213  0.1060 -0.0969 -0.2142
  899SOL    HW1 2696   1.112   1.832   1.236 -2.1618  1.2454  0.6294
  899SOL    HW2 2697   0.970   1.735   1.213  1.3352 -0.5172 -1.4657
  900SOL     OW 2698   1.262   2.331   2.420  0.0135  0.3952 -0.2893
  900SOL    HW1 2699   1.271   2.234   2.383  0.1213 -1.8486 -1.4735
  900SOL    HW2 2700   1.320   2.399   2.365 -1.3353  1.8316 -2.0222
  901SOL     OW 2701   0.727   1.676   2.145 -0.1591 -0.0419  0.3518
  901SOL    HW1 2702   0.660   1.608   2.116 -0.4951 -1.9050  0.4650
  901SOL    HW2 2703   0.820   1.639   2.129  0.4439 -0.6069 -2.5525
  902SOL     OW 2704   2.199   1.409   3.069  0.5482 -0.3555 -0.0474
  902SOL    HW1 2705   2.215   1.338   3.003 -0.8353  0.5228 -1.6453
  902SOL    HW2 2706   2.221   1.376   0.092  1.6389 -0.7260 -1.5697
  903SOL     OW 2707   1.898   1.484   0.040 -0.2532 -0.1742 -0.1260
  903SOL    HW1 2708   1.995   1.450   0.016  2.2086 -0.8222 -0.3226
  903SOL    HW2 2709   1.897   1.575   0.076 -2.6524 -3.5631  0.8592
  904SOL     OW 2710   1.335   1.045   2.324 -0.4122 -0.3765 -0.3162
  904SOL    HW1 2711   1.403   0.981   2.285 -4.3812  1.0505  0.9857
  904SOL    HW2 2712   1.240   1.012   2.314  0.4469 -2.7267  0.4215
  905SOL     OW 2713   2.544   0.424   0.908  0.5129 -0.1895 -0.0565
  905SOL    HW1 2714   2.504   0.358   0.978 -0.7844 -0.9521 -1.2810
  905SOL    HW2 2715   2.590   0.508   0.947  0.4562 -2.7225 -0.5985
  906SOL     OW 2716   0.214   1.871   0.522  0.3383  0.1340 -0.5568
  906SOL    HW1 2717   0.253   1.959   0.483  1.8049  0.0024 -0.3590
  906SOL    HW2 2718   0.234   1.801   0.450 -0.3775  0.3202 -5.2602
  907SOL     OW 2719   1.545   0.171   0.183  0.1421  0.0207 -0.5422
  907SOL    HW1 2720   1.459   0.118   0.163  0.6742  0.8778 -1.6021
  907SOL    HW2 2721   1.531   0.231   0.267 -2.1831  1.8140 -0.8324
  908SOL     OW 2722   1.472   2.633   1.758 -0.6758 -0.0423 -0.1257
  908SOL    HW1 2723   1.526   2.631   1.847  0.2531  2.2871 -1.2517
  908SOL    HW2 2724   1.390   2.574   1.769 -0.0750  1.0897 -0.6276
  909SOL     OW 2725   2.524   0.900   1.809 -0.4918  0.2784 -0.0356
  909SOL    HW1 2726   2.479   0.968   1.744 -3.0277  3.9828 -0.6069
  909SOL    HW2 2727   2.460   0.845   1.862 -0.0631 -1.5602  1.6579
  910SOL     OW 2728   1.333   0.006   2.496 -0.2167  0.3755 -0.2114
  910SOL    HW1 2729   1.422   0.029   2.547  0.6692 -0.5640  1.6673
  910SOL    HW2 2730   1.289   2.999   2.548 -0.4563  0.0293 -1.3517
  911SOL     OW 2731   2.533   1.282   2.498 -0.0519 -0.0714  0.0951
  911SOL    HW1 2732   2.572   1.205   2.551  2.0983 -0.0646 -0.0194
  911SOL    HW2 2733   2.535   1.261   2.399  0.1800  0.9756  0.4148
  912SOL     OW 2734   2.425   2.042   1.467 -0.1783  0.3968 -0.2377
  912SOL    HW1 2735   2.487   2.102   1.522  3.1124  1.0417  0.0322
  912SOL    HW2 2736   2.336   2.040   1.510 -2.5135  1.2428 -1.9888
  913SOL     OW 2737   2.569   2.221   1.601 -0.5147 -0.2875 -0.0258
  913SOL    HW1 2738   2.509   2.288   1.648  1.1716  0.9816 -2.5062
  913SOL    HW2 2739   2.651   2.190   1.653 -0.3677  0.2588  0.8985
  914SOL     OW 2740   2.388   2.031   1.153  0.2068  0.2969  0.8138
  914SOL    HW1 2741   2.442   2.008   1.242  0.5154 -1.3482  3.7927
  914SOL    HW2 2742   2.289   2.001   1.153 -0.5635 -0.9337 -2.7454
  915SOL     OW 2743   1.184   2.407   1.447 -0.3908  0.4814  0.0478
  915SOL    HW1 2744   1.096   2.387   1.495  2.6077  2.1487  0.9204
  915SOL    HW2 2745   1.270   2.364   1.493  1.3269 -3.2264  0.8740
  916SOL     OW 2746   2.878   2.547   1.000  0.2429  0.3142 -0.2226
  916SOL    HW1 2747   2.892   2.626   0.933  1.5549  1.2548 -1.5466
  916SOL    HW2 2748   2.894   2.573   1.097 -1.4632  0.2132 -2.3222
  917SOL     OW 2749   2.873   1.012   2.816 -0.1448  0.4213 -0.2434
  917SOL    HW1 2750   2.856   0.917   2.785 -1.1300  1.9098 -0.7774
  917SOL    HW2 2751   2.885   1.073   2.736  1.2704  0.1595 -0.4366
  918SOL     OW 2752   1.850   1.678   2.755  0.1080 -0.1706  0.5565
  918SOL    HW1 2753   1.815   1.729   2.836  1.6647  1.4155 -0.4242
  918SOL    HW2 2754   1.952   1.676   2.750 -2.3163  0.4418  0.3464
  919SOL     OW 2755   1.540   2.162   1.288 -0.4472  0.6053  0.4908
  919SOL    HW1 2756   1.539   2.076   1.230  0.7193 -1.9411 -0.3587
  919SOL    HW2 2757   1.633   2.178   1.324 -1.9250  1.5198  1.1057
  920SOL     OW 2758   0.566   0.254   2.846  0.7010  0.2577  0.2187
  920SOL    HW1 2759   0.544   0.153   2.854 -0.5728 -1.0059  0.6084
  920SOL    HW2 2760   0.552   0.310   2.932  0.3755  0.3045  0.4124
  921SOL     OW 2761   2.835   2.929   2.540  0.0689  0.4349  0.1700
  921SOL    HW1 2762   2.802   2.904   2.442 -2.0054 -0.6862 -5.1720
  921SOL    HW2 2763   2.919   2.985   2.530  1.8301 -0.8135 -1.1096
  922SOL     OW 2764   2.347   1.773   1.483  0.4474  0.3974 -0.2778
  922SOL    HW1 2765   2.301   1.769   1.571  0.6508 -0.1549 -0.2584
  922SOL    HW2 2766   2.394   1.862   1.468 -0.8213  1.7129  0.0155
  923SOL     OW 2767   0.691   1.912   2.727  0.2156 -0.2455  0.3824
  923SOL    HW1 2768   0.648   1.910   2.816  2.1552  1.4678 -2.2195
  923SOL    HW2 2769   0.738   2.002   2.717 -1.8202  0.3906  2.5707
  924SOL     OW 2770   1.647   0.647   2.508 -0.1688  0.0649 -0.1274
  924SOL    HW1 2771   1.698   0.692   2.584 -0.0081  1.6530 -0.2180
  924SOL    HW2 2772   1.710   0.627   2.429  1.0154  3.4874  0.8124
  925SOL     OW 2773   2.999   0.926   0.258 -0.4302  0.5238  0.4033
  925SOL    HW1 2774   2.948   1.001   0.214 -2.2039 -1.3656  0.7333
  925SOL    HW2 2775   2.964   0.901   0.352  0.2970 -0.3673 -2.0148
  926SOL     OW 2776   0.006   0.323   0.895  0.2858 -0.0877  0.3783
  926SOL    HW1 2777   0.069   0.252   0.855  2.0925 -0.0259  3.0846
  926SOL    HW2 2778   0.032   0.352   0.986  0.8589  0.2755 -1.5585
  927SOL     OW 2779   1.118   1.248   0.674  0.1762  0.3506 -0.1839
  927SOL    HW1 2780   1.199   1.233   0.613 -0.3443 -0.1258 -3.9351
  927SOL    HW2 2781   1.059   1.163   0.680 -3.0471  0.1931 -2.0356
  928SOL     OW 2782   0.108   0.035   2.260 -0.3807 -0.3867  0.3426
  928SOL    HW1 2783   0.179   3.034   2.247  0.8615  1.7326  0.9756
  928SOL    HW2 2784   0.155   0.123   2.242 -2.5210 -1.5261  1.1367
  929SOL     OW 2785   2.490   0.694   1.577  0.6526 -0.5338 -0.1875
  929SOL    HW1 2786   2.393   0.684   1.609 -1.5124  1.4126 -2.7391
  929SOL    HW2 2787   2.556   0.629   1.623  1.8313  0.8090 -0.7822
  930SOL     OW 2788   1.716   2.140   1.025 -0.3094 -0.3964 -0.9109
  930SOL    HW1 2789   1.708   2.099   0.934 -1.1741  2.4166  0.3113
  930SOL    HW2 2790   1.705   2.062   1.092  1.3533 -0.2827  0.5330
  931SOL     OW 2791   1.678   0.750   0.781  0.6416 -0.6266  0.5007
  931SOL    HW1 2792   1.672   0.663   0.722  0.9911 -1.4800 -1.0854
  931SOL    HW2 2793   1.725   0.829   0.735  1.8311  0.6555  0.9354
  932SOL     OW 2794   0.043   0.807   1.302  0.1240  0.3708  0.5306
  932SOL    HW1 2795   0.022   0.844   1.397  0.3196 -1.2055  0.7775
  932SOL    HW2 2796   0.134   0.756   1.299  1.7938 -1.4049  1.3111
  933SOL     OW 2797   2.297   1.788   1.737  0.5464 -0.9359  0.5036
  933SOL    HW1 2798   2.366   1.861   1.764  1.9727  1.7739 -0.2747
  933SOL    HW2 2799   2.204   1.812   1.775  0.7544  0.9635 -0.8543
  934SOL     OW 2800   1.583   2.967   1.250 -0.3268 -0.8062 -0.1444
  934SOL    HW1 2801   1.564   3.069   1.251  1.1230  2.0988  0.3794
  934SOL    HW2 2802   1.624   2.945   1.160 -0.1505  1.4716  0.8114
  935SOL     OW 2803   0.044   1.090   1.231  0.3761  0.3716  0.2761
  935SOL    HW1 2804   3.024   1.077   1.279 -1.1746 -0.0891 -2.4406
  935SOL    HW2 2805   0.026   1.080   1.130  0.3667 -0.8275  0.0538
  936SOL     OW 2806   2.918   0.879   1.127  0.6046 -0.0733  0.0419
  936SOL    HW1 2807   2.984   0.846   1.198  1.4586  0.1506 -2.3119
  936SOL    HW2 2808   2.975   0.891   1.041  1.3178  0.9612  0.0307
  937SOL     OW 2809   1.064   2.929   0.998 -0.5599  0.1738 -0.3424
  937SOL    HW1 2810   0.979   2.893   0.962  3.8200  0.2480  2.3530
  937SOL    HW2 2811   1.143   2.867   0.974  0.2771 -2.5325  0.7536
  938SOL     OW 2812   0.007   2.458   0.512  0.0458  0.1751 -0.0905
  938SOL    HW1 2813   3.038   2.507   0.593  1.2000  0.3145 -1.7928
  938SOL    HW2 2814   0.106   2.490   0.503  0.6403  1.3691  0.0905
  939SOL     OW 2815   0.581   1.723   2.604 -0.4145 -0.6047 -0.3164
  939SOL    HW1 2816   0.620   1.805   2.659  3.9636  4.1411  1.4519
  939SOL    HW2 2817   0.578   1.637   2.662 -0.7299  1.7621 -2.0659
  940SOL     OW 2818   2.926   2.594   2.652 -0.7404 -0.7477 -0.1919
  940SOL    HW1 2819   2.879   2.561   2.568 -1.4672 -0.4519  1.3090
  940SOL    HW2 2820   2.876   2.677   2.694 -0.2816  0.3501  0.7797
  941SOL     OW 2821   0.987   2.976   0.028 -0.6226 -0.9570  0.4911
  941SOL    HW1 2822   1.022   3.062   0.063 -1.7344 -5.1536 -0.4915
  941SOL    HW2 2823   1.023   2.890   0.071  0.2210 -2.3148 -2.1180
  942SOL     OW 2824   1.629   1.729   1.592  0.4129  0.1008  0.2452
  942SOL    HW1 2825   1.567   1.661   1.546 -1.3506 -0.6152  0.1402
  942SOL    HW2 2826   1.573   1.804   1.633  0.3526 -0.9680 -0.2559
  943SOL     OW 2827   2.265   1.316   1.624 -0.0265  0.6131  0.0410
  943SOL    HW1 2828   2.265   1.262   1.538 -0.2875  0.1447  1.5040
  943SOL    HW2 2829   2.331   1.386   1.628 -1.7803 -1.6334  1.1718
  944SOL     OW 2830   1.884   1.166   1.999 -0.0314  0.2484  1.0769
  944SOL    HW1 2831   1.857   1.209   1.914 -0.7270 -0.5788 -2.6485
  944SOL    HW2 2832   1.798   1.147   2.053 -3.5562 -0.1346  3.4564
  945SOL     OW 2833   2.645   2.629   1.373  0.0178 -0.2187 -0.4435
  945SOL    HW1 2834   2.619   2.532   1.385  1.5553  0.4110  2.9022
  945SOL    HW2 2835   2.737   2.633   1.416  0.3611 -0.6107  0.4933
  946SOL     OW 2836   1.042   1.014   1.453 -0.6618  0.4542 -0.2189
  946SOL    HW1 2837   1.010   1.105   1.420 -2.2994 -1.5936  0.1601
  946SOL    HW2 2838   1.144   0.997   1.424  0.5223 -3.2205 -0.8403
  947SOL     OW 2839   0.543   2.523   0.901  0.0746  0.2327 -0.6909
  947SOL    HW1 2840   0.508   2.546   0.995 -1.7523 -0.2048  0.8155
  947SOL    HW2 2841   0.497   2.444   0.851  1.9880 -0.8732 -1.7912
  948SOL     OW 2842   2.996   1.283   1.900 -0.1211 -0.2731  0.0352
  948SOL    HW1 2843   3.008   1.193   1.941  0.7127  2.3227 -0.3527
  948SOL    HW2 2844   0.012   1.307   1.849  0.7707  1.6232  4.0456
  949SOL     OW 2845   0.637   0.549   2.013 -0.2365 -0.8065 -0.3795
  949SOL    HW1 2846   0.708   0.490   2.054 -0.5647 -0.4271  1.7879
  949SOL    HW2 2847   0.543   0.523   2.041 -1.7067 -0.0321 -1.5527
  950SOL     OW 2848   0.668   0.510   1.007 -0.2032 -0.2348  0.5099
  950SOL    HW1 2849   0.609   0.592   0.998  0.2887  0.1758  1.7689
  950SOL    HW2 2850   0.662   0.447   0.927 -2.2370  2.0010  1.6064
  951SOL     OW 2851   1.272   1.620   2.018  0.4421  0.1139  0.4008
  951SOL    HW1 2852   1.337   1.701   2.035  0.5867  1.9236 -0.3168
  951SOL    HW2 2853   1.206   1.641   1.941 -3.1541  0.5277  1.4797
  952SOL     OW 2854   1.147   1.299   0.016 -0.0563  0.2486 -0.6940
  952SOL    HW1 2855   1.189   1.366   0.082  3.8319  0.8474 -1.7761
  952SOL    HW2 2856   1.192   1.293   2.996 -1.6826 -0.6104  0.0104
  953SOL     OW 2857   1.006   2.712   2.234  0.5585 -0.1219 -0.8073
  953SOL    HW1 2858   0.942   2.765   2.293 -1.1141  3.3441  0.3944
  953SOL    HW2 2859   0.957   2.652   2.165 -1.2120  1.8086  2.1824
  954SOL     OW 2860   2.245   1.638   0.515 -0.2577  0.1379 -0.0181
  954SOL    HW1 2861   2.304   1.712   0.558  2.1819  0.4947  0.1308
  954SOL    HW2 2862   2.303   1.563   0.479 -1.6239  3.1493 -0.4740
  955SOL     OW 2863   0.269   2.338   2.685 -0.4443  0.1042 -0.0300
  955SOL    HW1 2864   0.281   2.375   2.589 -0.2117 -3.3423  1.0301
  955SOL    HW2 2865   0.194   2.377   2.734  2.2104  1.3030 -2.7312
  956SOL     OW 2866   0.875   1.474   1.203  0.9654 -0.1442  0.2048
  956SOL    HW1 2867   0.864   1.433   1.107  2.6071  0.1342 -0.8744
  956SOL    HW2 2868   0.850   1.574   1.213  1.3218  0.2633 -0.4835
  957SOL     OW 2869   2.143   1.544   2.417  1.1086  0.0673  0.1558
  957SOL    HW1 2870   2.053   1.578   2.390  1.8884 -1.6607  0.1979
  957SOL    HW2 2871   2.195   1.522   2.331  2.0909 -2.4878  0.1245
  958SOL     OW 2872   1.373   2.528   0.947  0.2776  0.2857 -0.1330
  958SOL    HW1 2873   1.464   2.514   0.905 -1.3526  1.8394 -2.6982
  958SOL    HW2 2874   1.337   2.441   0.983  1.3852  1.4529 -1.3859
  959SOL     OW 2875   1.633   1.676   2.284  0.4444 -0.3055 -0.0883
  959SOL    HW1 2876   1.638   1.665   2.389 -0.1780  2.2218  3.4788
  959SOL    HW2 2877   1.700   1.743   2.255 -2.7395 -2.9757  0.0567
  960SOL     OW 2878   0.057   0.704   2.706 -0.0526  0.8260  0.2026
  960SOL    HW1 2879   0.118   0.784   2.730 -0.2924  4.1568  0.9111
  960SOL    HW2 2880   0.111   0.629   2.670 -0.8658  0.4879 -1.7817
  961SOL     OW 2881   0.659   0.673   1.768  0.4080 -0.5733  0.3248
  961SOL    HW1 2882   0.652   0.637   1.866  0.5888 -1.7247  1.6094
  961SOL    HW2 2883   0.573   0.668   1.718 -1.0865  3.0341 -0.0396
  962SOL     OW 2884   1.317   1.775   0.347 -0.1113 -0.7622 -0.2590
  962SOL    HW1 2885   1.237   1.766   0.406 -1.4948  2.6363  0.3346
  962SOL    HW2 2886   1.368   1.686   0.337  2.4558 -0.7178 -3.2723
  963SOL     OW 2887   1.542   2.325   0.019 -0.2949 -0.1092 -0.4424
  963SOL    HW1 2888   1.562   2.338   2.989  0.1274 -1.4602 -0.6412
  963SOL    HW2 2889   1.458   2.377   0.052 -0.3823  1.9302 -1.1241
  964SOL     OW 2890   1.100   2.500   0.446 -0.0492 -0.1899 -0.1754
  964SOL    HW1 2891   1.097   2.442   0.362  0.0778  0.6500 -0.4034
  964SOL    HW2 2892   1.039   2.583   0.433 -0.6192 -1.7254  2.3985
  965SOL     OW 2893   0.886   2.731   0.875 -0.4604 -0.2988 -0.2535
  965SOL    HW1 2894   0.914   2.637   0.884  1.0633  3.2549 -2.0223
  965SOL    HW2 2895   0.840   2.761   0.962 -0.8308 -0.1563  1.9264
  966SOL     OW 2896   0.033   1.122   2.883  0.6862  0.3500  0.2188
  966SOL    HW1 2897   0.044   1.187   2.803 -2.1304  0.1905 -2.2479
  966SOL    HW2 2898   3.009   1.073   2.881 -0.0442 -1.7332 -0.8169
  967SOL     OW 2899   1.197   2.653   1.976  0.4912 -0.5607 -0.0289
  967SOL    HW1 2900   1.134   2.625   2.049 -1.0301  3.5174  1.0534
  967SOL    HW2 2901   1.202   2.584   1.905 -0.6618  0.0504  0.2066
  968SOL     OW 2902   1.664   0.997   0.385  0.1523 -0.8605 -0.6475
  968SOL    HW1 2903   1.574   0.963   0.361  4.1402  2.4902 -0.0752
  968SOL    HW2 2904   1.678   1.095   0.359  0.3243  0.2204 -0.3876
  969SOL     OW 2905   0.018   1.675   2.086 -0.2447  0.4121 -0.8562
  969SOL    HW1 2906   0.013   1.674   1.984  1.1165  0.4499 -2.4449
  969SOL    HW2 2907   0.002   1.770   2.121 -0.1406 -1.0564  0.2590
  970SOL     OW 2908   2.583   1.521   1.471  0.4719  0.0795 -0.3161
  970SOL    HW1 2909   2.572   1.471   1.383 -0.8270  0.1564 -2.0599
  970SOL    HW2 2910   2.675   1.509   1.508  2.8975 -1.2496 -1.1046
  971SOL     OW 2911   1.505   0.586   1.557  0.0337 -0.0133  0.0285
  971SOL    HW1 2912   1.594   0.573   1.600 -2.3647  1.1031  0.8698
  971SOL    HW2 2913   1.457   0.665   1.598 -4.1379  0.4192  0.5450
  972SOL     OW 2914   0.560   3.064   2.447 -0.0647  0.0820  0.1670
  972SOL    HW1 2915   0.577   2.976   2.500  1.4898 -1.4272  1.0903
  972SOL    HW2 2916   0.515   0.066   2.505 -0.9137 -0.6544  2.0195
  973SOL     OW 2917   2.719   1.185   0.452 -0.1710  0.1019  0.2033
  973SOL    HW1 2918   2.686   1.093   0.423 -1.8626 -0.4202 -1.0351
  973SOL    HW2 2919   2.672   1.201   0.540  1.0312 -2.0709 -0.7111
  974SOL     OW 2920   2.017   1.316   2.187  0.0618 -0.6838 -0.3133
  974SOL    HW1 2921   1.978   1.266   2.109 -1.5451  0.0880  0.9862
  974SOL    HW2 2922   1.953   1.391   2.217  0.2036 -0.5710  3.2759
  975SOL     OW 2923   2.755   2.793   0.718 -0.1667 -0.0476  0.0148
  975SOL    HW1 2924   2.752   2.841   0.630  1.9681  0.8886  2.7855
  975SOL    HW2 2925   2.743   2.862   0.792 -1.2656  0.6434  0.9244
  976SOL     OW 2926   0.005   1.679   1.789 -0.1421 -0.1075  0.0204
  976SOL    HW1 2927   0.051   1.756   1.734  2.7867 -3.5457 -2.8859
  976SOL    HW2 2928   2.978   1.699   1.796  1.0436 -3.4259 -0.1511
  977SOL     OW 2929   0.761   2.628   0.065  0.2408  0.3559 -0.6305
  977SOL    HW1 2930   0.722   2.606   3.041  0.3555  0.3580  0.5575
  977SOL    HW2 2931   0.839   2.568   0.091  0.3881  0.6949 -1.4701
  978SOL     OW 2932   0.819   1.908   2.303 -0.0055 -0.4849 -0.7925
  978SOL    HW1 2933   0.766   1.938   2.217 -0.6357 -0.3773  1.7831
  978SOL    HW2 2934   0.836   1.983   2.371 -1.1697  1.2854  1.0718
  979SOL     OW 2935   1.349   2.279   1.083  0.2828  0.0038 -0.3892
  979SOL    HW1 2936   1.422   2.270   1.152  0.5353 -0.2944  1.2961
  979SOL    HW2 2937   1.351   2.198   1.023 -0.7979  0.0430  2.1515
  980SOL     OW 2938   0.414   1.331   2.651  0.6593 -0.1307 -0.0504
  980SOL    HW1 2939   0.418   1.373   2.559  3.0160  0.7383 -3.4020
  980SOL    HW2 2940   0.505   1.338   2.692  0.2682  0.3630  0.2550
  981SOL     OW 2941   2.624   0.300   2.652 -0.7946  0.1393 -0.0624
  981SOL    HW1 2942   2.609   0.266   2.556  1.2444  1.8119 -0.6911
  981SOL    HW2 2943   2.662   0.220   2.707 -0.8132  1.7163 -1.0402
  982SOL     OW 2944   0.093   2.694   2.714  0.4944  0.3266  0.1523
  982SOL    HW1 2945   0.163   2.701   2.637 -1.3695  0.7675  0.0553
  982SOL    HW2 2946   0.004   2.657   2.673 -1.7987 -2.0787 -3.0859
  983SOL     OW 2947   2.163   0.824   1.834  0.3225  0.2798  0.0802
  983SOL    HW1 2948   2.203   0.919   1.812 -1.3065  2.7841  0.7321
  983SOL    HW2 2949   2.222   0.778   1.903  0.0604 -0.2902  1.0730
  984SOL     OW 2950   1.245   0.113   2.265 -0.5541  0.4237  0.4028
  984SOL    HW1 2951   1.305   0.195   2.249 -0.3848 -0.3185  0.9612
  984SOL    HW2 2952   1.290   0.054   2.336  1.7359  1.4044 -0.5161
  985SOL     OW 2953   1.637   2.130   2.422  0.6141 -0.2903 -0.6774
  985SOL    HW1 2954   1.542   2.164   2.414 -1.4699  0.2354  1.0890
  985SOL    HW2 2955   1.691   2.152   2.342 -1.2877 -0.4129  6.7481
  986SOL     OW 2956   2.109   0.505   2.264 -0.5891 -0.4049  0.2770
  986SOL    HW1 2957   2.108   0.609   2.261 -0.5876 -1.0421 -1.4929
  986SOL    HW2 2958   2.048   0.461   2.193 -0.2918 -1.2864 -0.6192
  987SOL     OW 2959   2.409   0.443   2.312 -0.3453  0.0672  0.4445
  987SOL    HW1 2960   2.310   0.451   2.306  1.9756  1.5959  1.8402
  987SOL    HW2 2961   2.441   0.353   2.354 -0.7723 -0.0571 -1.7856
  988SOL     OW 2962   2.435   0.860   2.691  0.5296  0.2613 -0.5234
  988SOL    HW1 2963   2.496   0.775   2.708  0.8996 -2.1757  1.8425
  988SOL    HW2 2964   2.360   0.830   2.629  0.9037 -2.7780 -0.6392
  989SOL     OW 2965   2.625   2.518   2.570 -0.1151 -0.1337  0.7266
  989SOL    HW1 2966   2.533   2.491   2.540  0.9582 -0.3486 -1.5642
  989SOL    HW2 2967   2.699   2.490   2.500  0.0624 -1.6368 -0.3717
  990SOL     OW 2968   0.285   0.569   0.116  0.4546  0.2936 -0.1503
  990SOL    HW1 2969   0.308   0.594   0.209 -1.4900 -0.6303 -2.9838
  990SOL    HW2 2970   0.209   0.619   0.076  2.2013  0.2158  2.1189
  991SOL     OW 2971   0.590   0.560   2.896 -0.2104  0.6674 -0.0720
  991SOL    HW1 2972   0.535   0.533   2.977 -0.3850  2.3752  0.2504
  991SOL    HW2 2973   0.681   0.515   2.890 -0.7012 -0.4500 -3.4926
  992SOL     OW 2974   3.012   1.925   2.149 -0.2931  0.1137  0.2619
  992SOL    HW1 2975   2.981   1.960   2.234  2.0890  1.1696  0.1393
  992SOL    HW2 2976   0.009   1.998   2.116 -0.5679  2.8936  2.1263
  993SOL     OW 2977   0.538   2.984   0.637  0.2161  0.1686  0.4145
  993SOL    HW1 2978   0.458   3.011   0.581 -0.5957 -0.4877  0.9460
  993SOL    HW2 2979   0.593   3.060   0.679 -1.5927  0.5131 -0.2573
  994SOL     OW 2980   0.273   2.123   1.694  0.3980  0.7684  0.0548
  994SOL    HW1 2981   0.358   2.100   1.745 -1.1325 -1.0264 -0.5942
  994SOL    HW2 2982   0.285   2.110   1.595 -0.4590  0.3954 -0.1966
  995SOL     OW 2983   2.170   1.753   0.174 -0.0023  0.0255 -0.2200
  995SOL    HW1 2984   2.148   1.840   0.219  0.9746  0.5608  0.3765
  995SOL    HW2 2985   2.098   1.692   0.207  2.8062  3.2799 -2.7865
  996SOL     OW 2986   1.398   1.345   2.634 -0.1414 -0.4218 -0.1525
  996SOL    HW1 2987   1.320   1.316   2.575 -2.6097 -1.3178 -1.5497
  996SOL    HW2 2988   1.486   1.362   2.584  0.2235 -1.4297 -0.5047
  997SOL     OW 2989   1.835   1.518   1.937 -0.1798 -0.6493  0.3809
  997SOL    HW1 2990   1.783   1.603   1.915 -0.1071  2.9628 -1.3238
  997SOL    HW2 2991   1.833   1.447   1.865 -0.0007  3.9543 -1.5105
  998SOL     OW 2992   2.670   1.631   0.335 -0.5130 -0.5163 -0.1183
  998SOL    HW1 2993   2.689   1.670   0.428  2.4435  3.4139  0.4528
  998SOL    HW2 2994   2.580   1.666   0.301  0.8492  2.2110 -1.0346
  999SOL     OW 2995   2.422   2.775   0.309  0.0654  0.4105 -0.0928
  999SOL    HW1 2996   2.461   2.685   0.292  0.3584  2.5510 -3.3586
  999SOL    HW2 2997   2.394   2.819   0.224 -0.7903  0.7946  1.7092
 1000SOL     OW 2998   0.671   2.828   2.169 -0.5531 -0.7114  0.3015
 1000SOL    HW1 2999   0.594   2.757   2.186  0.3904 -2.4257  1.2413
 1000SOL    HW2 3000   0.662   2.865   2.074  1.3023  2.4021 -0.4863
   3.07002   3.07002   3.07002
