1000 SPC/Fw water molecules t= 294.00000 step= 294000
 3000
    1SOL     OW    1   2.517   2.890   0.860  0.8310 -0.0527  0.3006
    1SOL    HW1    2   2.600   2.935   0.824 -0.9977 -1.6018 -1.3407
    1SOL    HW2    3   2.544   2.813   0.917 -0.8544  1.6933 -2.0726
    2SOL     OW    4   3.057   2.147   0.929 -0.1367 -0.0735  0.2232
    2SOL    HW1    5   0.032   2.099   0.891 -0.0914 -0.7504 -0.9990
    2SOL    HW2    6   2.972   2.098   0.907 -1.0200  0.9220 -0.7127
    3SOL     OW    7   0.858   2.703   2.928 -0.1353 -0.1216 -0.0283
    3SOL    HW1    8   0.770   2.742   2.969  0.1326 -0.3233  0.8703
    3SOL    HW2    9   0.844   2.606   2.893 -1.2974 -1.1038 -0.3753
    4SOL     OW   10   2.055   2.254   1.497  0.0228  0.2645 -0.1987
    4SOL    HW1   11   2.135   2.306   1.460  3.0325 -0.0405 -1.0787
    4SOL    HW2   12   2.075   2.157   1.508 -2.8659  0.0222 -1.0583
    5SOL     OW   13   1.659   1.007   1.146  0.6476 -0.1518  0.0230
    5SOL    HW1   14   1.594   0.931   1.167 -0.5044 -1.3329  1.2823
    5SOL    HW2   15   1.739   1.006   1.207 -2.4357 -0.5086  0.6165
    6SOL     OW   16   2.103   2.918   3.092 -0.0701  0.1539 -0.1557
    6SOL    HW1   17   2.161   2.952   0.068 -1.5007  1.9527 -0.8238
    6SOL    HW2   18   2.046   2.839   0.016 -0.3118 -1.7912  0.8934
    7SOL     OW   19   2.743   1.170   1.250 -0.0875  0.4204 -0.4903
    7SOL    HW1   20   2.839   1.145   1.277  0.7474  1.0820 -1.0830
    7SOL    HW2   21   2.733   1.257   1.199 -2.2377 -0.5185  0.3472
    8SOL     OW   22   1.515   2.416   1.247 -0.2144 -0.4396 -0.0323
    8SOL    HW1   23   1.554   2.426   1.340  0.0157  2.3205 -0.2322
    8SOL    HW2   24   1.436   2.347   1.250 -2.0289 -0.4263  0.7608
    9SOL     OW   25   1.453   2.956   2.162  0.1499 -0.2447  0.6232
    9SOL    HW1   26   1.395   2.877   2.141  3.9074  2.3202  0.0295
    9SOL    HW2   27   1.548   2.924   2.153  0.7129 -1.2818  0.0487
   10SOL     OW   28   0.581   2.072   1.089  0.6141 -0.2024  0.2628
   10SOL    HW1   29   0.584   2.018   1.000  1.4181  0.0121  0.6030
   10SOL    HW2   30   0.659   2.045   1.152  0.2727  1.4328 -1.0524
   11SOL     OW   31   1.813   1.365   1.097 -0.0222 -0.3103  0.6383
   11SOL    HW1   32   1.898   1.421   1.085  1.5013  0.1077 -0.2449
   11SOL    HW2   33   1.765   1.390   1.185  2.2136 -0.5791  1.8792
   12SOL     OW   34   2.608   2.680   1.737 -0.3729 -0.1623  0.1169
   12SOL    HW1   35   2.682   2.747   1.764 -1.9759 -0.5754  0.2543
   12SOL    HW2   36   2.516   2.702   1.779  1.3877 -1.9838 -1.9393
   13SOL     OW   37   2.332   2.970   0.270  0.1846  0.2477 -0.2951
   13SOL    HW1   38   2.315   3.033   0.347  1.4177  1.4370 -0.3975
   13SOL    HW2   39   2.402   3.004   0.208 -0.2136 -0.7511  0.1792
   14SOL     OW   40   1.774   2.306   0.771 -0.2204  0.0350 -0.0421
   14SOL    HW1   41   1.760   2.202   0.766  0.1384 -2.3478 -2.7502
   14SOL    HW2   42   1.869   2.338   0.758  0.4086  0.9591  0.2215
   15SOL     OW   43   2.993   1.943   2.135  0.1533  0.4441  0.2982
   15SOL    HW1   44   3.054   1.889   2.075  1.2558  0.4210 -2.7390
   15SOL    HW2   45   2.923   1.886   2.178 -2.4086  1.4438 -0.7861
   16SOL     OW   46   2.131   2.666   0.598 -0.4229 -0.1661  0.0659
   16SOL    HW1   47   2.199   2.711   0.531  2.4855 -1.4272  0.2510
   16SOL    HW2   48   2.131   2.715   0.690 -0.1778  2.6432  2.2437
   17SOL     OW   49   0.690   3.080   1.142  0.4947  0.2359  0.0848
   17SOL    HW1   50   0.715   2.988   1.181 -1.2805  1.2294  1.3333
   17SOL    HW2   51   0.720   0.049   1.210  2.0797 -0.9320 -2.9981
   18SOL     OW   52   1.398   1.022   0.084 -0.0037  0.4465 -0.0455
   18SOL    HW1   53   1.294   1.020   0.079 -0.3959  2.9607 -3.9694
   18SOL    HW2   54   1.436   0.969   0.004  1.5210 -3.1612 -2.0677
   19SOL     OW   55   1.847   1.790   0.374  0.2391  0.5209  0.5701
   19SOL    HW1   56   1.892   1.858   0.316  0.5494  0.4330  0.5025
   19SOL    HW2   57   1.914   1.726   0.415 -2.7844  0.6472 -2.3481
   20SOL     OW   58   2.272   1.552   2.050  0.3057  0.1746  0.2691
   20SOL    HW1   59   2.255   1.654   2.054  1.0225  3.6267  0.2112
   20SOL    HW2   60   2.292   1.512   2.144  0.8105 -1.0375 -0.7519
   21SOL     OW   61   1.093   1.289   0.625  0.4349 -0.9145  0.4068
   21SOL    HW1   62   1.116   1.292   0.526 -1.9115 -0.1106  3.3061
   21SOL    HW2   63   0.993   1.300   0.643 -0.2540  0.0386  0.4976
   22SOL     OW   64   2.015   3.066   1.564  0.3385 -0.5461  0.4240
   22SOL    HW1   65   2.059   3.020   1.637 -2.0000 -0.8538 -3.2635
   22SOL    HW2   66   2.084   0.006   1.504  0.6155 -0.2163  1.2836
   23SOL     OW   67   2.838   0.749   1.861  0.1727 -0.2780  0.5718
   23SOL    HW1   68   2.806   0.797   1.946  2.1720  1.1705 -2.6825
   23SOL    HW2   69   2.937   0.749   1.869 -1.8223  2.1178 -1.0652
   24SOL     OW   70   2.568   2.760   0.163 -0.2256 -0.7728 -0.5505
   24SOL    HW1   71   2.470   2.735   0.167 -1.0202  0.8765  3.1262
   24SOL    HW2   72   2.583   2.806   0.075 -1.0584 -0.7033  0.1367
   25SOL     OW   73   1.142   0.258   2.254  0.2316  0.1066  0.3347
   25SOL    HW1   74   1.225   0.199   2.244 -2.3704 -1.3072  0.0606
   25SOL    HW2   75   1.171   0.344   2.297  0.0250 -4.3686 -2.1583
   26SOL     OW   76   1.724   2.312   0.418  0.2833  0.3448  0.2846
   26SOL    HW1   77   1.811   2.267   0.421 -0.5788  2.4176  1.2933
   26SOL    HW2   78   1.679   2.282   0.334 -0.0702 -0.4756  5.3812
   27SOL     OW   79   2.368   1.583   0.090  0.3704  0.0697 -0.2385
   27SOL    HW1   80   2.287   1.564   0.027 -1.4901  1.3267  1.5179
   27SOL    HW2   81   2.442   1.511   0.076 -1.7989  0.7117  0.2494
   28SOL     OW   82   0.616   1.465   1.646 -0.6453  0.0706 -0.2960
   28SOL    HW1   83   0.677   1.452   1.727  1.0872  0.0368 -0.4797
   28SOL    HW2   84   0.656   1.518   1.565 -1.4858  1.0256  0.0490
   29SOL     OW   85   2.285   2.355   1.405 -0.2595  0.0814  0.0655
   29SOL    HW1   86   2.277   2.411   1.321 -1.1814 -0.2364  1.0173
   29SOL    HW2   87   2.323   2.411   1.482  1.2231 -1.6092  0.8030
   30SOL     OW   88   1.572   0.453   0.373 -0.4514 -1.0718 -0.2137
   30SOL    HW1   89   1.653   0.399   0.402 -0.1138 -0.2124 -2.7865
   30SOL    HW2   90   1.484   0.400   0.360 -0.9420 -0.7543 -0.9870
   31SOL     OW   91   2.067   2.476   1.647 -0.1381 -0.0635 -0.0097
   31SOL    HW1   92   1.986   2.535   1.632  0.6927 -0.8449  1.7886
   31SOL    HW2   93   2.053   2.387   1.598  0.8465  0.0402  2.0945
   32SOL     OW   94   0.886   1.655   0.884 -0.0553  0.3330 -0.3598
   32SOL    HW1   95   0.840   1.640   0.796 -1.4890 -0.9216  2.5690
   32SOL    HW2   96   0.973   1.706   0.866 -1.8891  1.0082 -1.4146
   33SOL     OW   97   0.218   0.271   2.698  0.2062  0.0045 -0.1356
   33SOL    HW1   98   0.305   0.251   2.748  0.2049 -0.3929 -2.4648
   33SOL    HW2   99   0.236   0.299   2.599  0.1017 -0.0657 -1.1810
   34SOL     OW  100   1.893   2.990   0.330  0.3128  0.2863 -0.2713
   34SOL    HW1  101   1.855   3.044   0.255  0.2834 -1.3971  0.5883
   34SOL    HW2  102   1.914   2.898   0.302 -1.8640  2.0456  1.7784
   35SOL     OW  103   2.302   2.687   1.349  0.7934 -0.2396 -0.4572
   35SOL    HW1  104   2.320   2.784   1.332 -0.4198 -0.7462  0.8761
   35SOL    HW2  105   2.228   2.650   1.290  1.9605  1.4531 -2.0715
   36SOL     OW  106   1.770   2.550   2.286 -0.1696  0.0498  0.1705
   36SOL    HW1  107   1.806   2.456   2.311  1.3754 -0.8139  1.6710
   36SOL    HW2  108   1.798   2.612   2.361  0.9692 -0.4013  0.3275
   37SOL     OW  109   0.912   0.197   1.843 -0.0248  0.3518  0.4830
   37SOL    HW1  110   0.874   0.115   1.789 -5.9575 -0.6576 -1.9575
   37SOL    HW2  111   0.935   0.166   1.936  0.7762 -1.4374 -1.2291
   38SOL     OW  112   3.062   0.148   2.644 -0.3740  0.5126 -0.0683
   38SOL    HW1  113   3.009   0.132   2.728  2.6406 -0.5026 -0.0050
   38SOL    HW2  114   0.048   0.196   2.664 -0.5231 -1.9936 -0.8763
   39SOL     OW  115   2.270   0.840   1.509  0.3109 -0.1019 -0.2520
   39SOL    HW1  116   2.244   0.930   1.565 -1.7398  1.7973  2.2685
   39SOL    HW2  117   2.216   0.844   1.422 -0.5197 -1.8882 -1.3040
   40SOL     OW  118   1.192   2.806   0.125  0.3877 -0.6742  0.0622
   40SOL    HW1  119   1.090   2.809   0.109  1.4729  2.1707  0.6924
   40SOL    HW2  120   1.218   2.741   0.195  0.9782  0.7368 -4.4746
   41SOL     OW  121   2.425   1.273   1.018 -0.4345 -0.3379  0.4615
   41SOL    HW1  122   2.434   1.325   1.106  1.0860  1.2506 -0.9674
   41SOL    HW2  123   2.516   1.244   0.984  0.7632 -0.7396  0.0468
   42SOL     OW  124   0.195   0.373   1.206 -0.2932 -0.1196 -0.3842
   42SOL    HW1  125   0.245   0.462   1.209 -0.4877  1.6244 -1.8169
   42SOL    HW2  126   0.241   0.309   1.139  1.4372  0.7801 -0.5385
   43SOL     OW  127   2.714   1.684   2.634  0.2743  0.2384 -0.1414
   43SOL    HW1  128   2.618   1.669   2.667 -0.5562 -0.3814  0.7566
   43SOL    HW2  129   2.735   1.622   2.557 -1.5305  1.8982 -0.2645
   44SOL     OW  130   2.621   0.062   1.767 -0.1754  0.1810 -0.1916
   44SOL    HW1  131   2.706   0.038   1.712  0.5663  2.2660  0.3047
   44SOL    HW2  132   2.646   0.088   1.861  1.4216  3.4476 -3.2479
   45SOL     OW  133   0.677   3.026   1.623  0.5504  0.0352 -0.2022
   45SOL    HW1  134   0.779   3.029   1.623  0.5502 -1.1220 -1.1024
   45SOL    HW2  135   0.638   3.037   1.718 -1.7944  1.0569  0.9846
   46SOL     OW  136   1.389   2.856   2.701  0.4531  0.4329 -0.1447
   46SOL    HW1  137   1.292   2.822   2.706 -1.5211 -0.9299 -1.1256
   46SOL    HW2  138   1.407   2.930   2.770  1.2332 -0.2603  0.9849
   47SOL     OW  139   1.878   2.004   0.798  0.2493  0.5156  0.5094
   47SOL    HW1  140   1.813   1.970   0.866  0.4070  1.9184 -1.7331
   47SOL    HW2  141   1.973   1.959   0.799  0.8423  1.9321  1.8294
   48SOL     OW  142   0.730   2.217   0.585  0.2202 -0.7765  0.0714
   48SOL    HW1  143   0.756   2.300   0.532  1.7782 -0.0174 -1.1028
   48SOL    HW2  144   0.756   2.222   0.684 -0.6178 -0.7792 -0.6301
   49SOL     OW  145   2.239   3.055   2.415  0.2531 -0.4639 -0.1733
   49SOL    HW1  146   2.314   2.989   2.390 -1.1040 -3.0197  2.1351
   49SOL    HW2  147   2.203   3.043   2.510  0.1101 -2.2038 -2.1606
   50SOL     OW  148   1.857   0.332   0.199  0.0710 -0.2576  0.2781
   50SOL    HW1  149   1.895   0.425   0.216 -1.6280 -0.1083 -0.1852
   50SOL    HW2  150   1.768   0.350   0.150 -1.6774  1.0975  0.1850
   51SOL     OW  151   2.174   0.835   0.573 -0.8113  0.0600 -0.6165
   51SOL    HW1  152   2.188   0.933   0.576 -0.2120 -0.5352  0.0830
   51SOL    HW2  153   2.080   0.810   0.605  0.9265  0.3505 -1.1051
   52SOL     OW  154   1.051   1.385   1.412  0.3873  0.3082 -0.2437
   52SOL    HW1  155   1.097   1.316   1.351  1.1927 -1.2980 -3.1328
   52SOL    HW2  156   0.970   1.336   1.450  0.0101 -0.9693  1.5546
   53SOL     OW  157   1.084   1.736   2.399  0.1292  0.4399 -0.1731
   53SOL    HW1  158   1.043   1.719   2.306 -1.6229  2.4315  1.0491
   53SOL    HW2  159   1.045   1.821   2.436  1.6816 -0.5647 -0.6874
   54SOL     OW  160   2.449   0.224   1.583 -0.4607 -0.2343 -0.0878
   54SOL    HW1  161   2.539   0.180   1.575  0.5265 -0.0661  2.1594
   54SOL    HW2  162   2.409   0.238   1.491 -1.4897 -0.4265  1.0932
   55SOL     OW  163   2.967   1.955   0.665 -0.1197 -0.2997 -0.2113
   55SOL    HW1  164   2.959   1.864   0.706  1.4332 -1.4206 -0.4571
   55SOL    HW2  165   2.872   1.986   0.640  2.6664  3.3385 -2.4907
   56SOL     OW  166   1.181   0.622   2.099 -0.2222  0.1272  0.1606
   56SOL    HW1  167   1.189   0.578   2.189  0.4388  0.3832  1.1764
   56SOL    HW2  168   1.178   0.723   2.102  0.3144 -2.8347  1.2325
   57SOL     OW  169   1.457   1.314   0.051 -0.3104  0.1857 -0.1085
   57SOL    HW1  170   1.467   1.237   0.114 -0.9295  1.5011 -1.9150
   57SOL    HW2  171   1.549   1.332   0.005  3.4916 -1.5710 -0.7465
   58SOL     OW  172   0.220   0.998   1.483 -0.3808 -0.5050 -0.2714
   58SOL    HW1  173   0.197   1.084   1.535  1.9910 -1.0934  0.5562
   58SOL    HW2  174   0.179   0.914   1.534 -1.3555  0.1107  2.6121
   59SOL     OW  175   1.564   2.931   0.096  0.2862 -0.2565 -0.3298
   59SOL    HW1  176   1.624   2.951   0.015 -0.1990  3.3124  0.0023
   59SOL    HW2  177   1.532   3.019   0.131  0.3153  0.0154  0.2873
   60SOL     OW  178   3.012   2.114   0.269  0.5153  0.4382  0.5806
   60SOL    HW1  179   2.960   2.028   0.264 -2.3867  0.4522  2.0505
   60SOL    HW2  180   2.951   2.198   0.262  0.8004  0.7520  3.7292
   61SOL     OW  181   1.308   2.809   0.619  0.3252 -0.3584 -0.3352
   61SOL    HW1  182   1.356   2.740   0.680 -3.4289 -0.3642  0.2177
   61SOL    HW2  183   1.374   2.879   0.585  1.4278 -0.4980  3.6810
   62SOL     OW  184   1.992   2.070   2.608 -0.1041  0.2905  0.0522
   62SOL    HW1  185   1.994   1.996   2.537  1.9295  1.0139  2.0317
   62SOL    HW2  186   2.041   2.156   2.581  1.4082 -2.0678  2.3985
   63SOL     OW  187   2.434   2.480   0.425 -0.2958 -0.0830 -0.2069
   63SOL    HW1  188   2.374   2.560   0.394 -0.4236  1.4656 -2.9476
   63SOL    HW2  189   2.429   2.469   0.526 -0.0478 -0.2448 -1.8721
   64SOL     OW  190   1.678   1.189   2.621  0.3865  0.0765 -0.3627
   64SOL    HW1  191   1.615   1.253   2.574  1.5365 -2.5867 -1.5564
   64SOL    HW2  192   1.640   1.164   2.714 -0.6256 -0.1396  0.9042
   65SOL     OW  193   1.608   1.813   2.864  0.1855  0.2359  0.5628
   65SOL    HW1  194   1.595   1.761   2.948  2.4404  0.5943 -1.4826
   65SOL    HW2  195   1.524   1.813   2.803 -3.2808  1.8748  0.2816
   66SOL     OW  196   0.313   0.854   1.871 -0.1761 -0.1515 -0.1956
   66SOL    HW1  197   0.399   0.897   1.908 -0.4914 -0.7712 -2.5216
   66SOL    HW2  198   0.339   0.790   1.803 -1.2731  2.9843  2.7296
   67SOL     OW  199   2.328   2.870   2.735 -0.4253 -0.1107  0.3090
   67SOL    HW1  200   2.335   2.797   2.812  0.0625 -1.9240  0.8797
   67SOL    HW2  201   2.386   2.955   2.761  3.0157  2.5116 -0.7769
   68SOL     OW  202   1.047   2.707   1.423  0.4399 -0.0341 -0.0682
   68SOL    HW1  203   0.970   2.668   1.368  1.6396 -0.5211  0.6230
   68SOL    HW2  204   1.114   2.637   1.438  0.3796  2.3684 -0.5755
   69SOL     OW  205   0.615   2.567   0.292 -0.1636 -0.1504 -0.7066
   69SOL    HW1  206   0.661   2.505   0.228  0.7297 -0.7145 -0.3873
   69SOL    HW2  207   0.519   2.550   0.306  1.9845  1.9644 -0.8767
   70SOL     OW  208   2.398   0.137   2.576  0.4234  0.1811  0.1448
   70SOL    HW1  209   2.319   0.190   2.615 -1.3802  0.1654  0.1634
   70SOL    HW2  210   2.364   0.080   2.500 -1.8616 -2.7980  0.4388
   71SOL     OW  211   0.702   1.248   2.384 -0.3137  0.0747 -0.1931
   71SOL    HW1  212   0.718   1.345   2.356 -0.9258  0.0343 -0.6160
   71SOL    HW2  213   0.622   1.234   2.445 -1.0311 -0.8398  0.9503
   72SOL     OW  214   0.051   2.066   0.023  0.2360 -0.2103 -0.3453
   72SOL    HW1  215   0.127   2.132   0.004  2.1819  3.4031 -1.4269
   72SOL    HW2  216   3.094   2.104   0.096 -0.7308  0.0073  0.0804
   73SOL     OW  217   1.211   1.283   0.366  0.1920  0.2457  0.1524
   73SOL    HW1  218   1.293   1.340   0.378  0.2871  0.4192  1.1210
   73SOL    HW2  219   1.163   1.305   0.280 -2.2073  0.1699  1.1259
   74SOL     OW  220   2.231   2.684   2.596 -0.0866  0.2755  0.4542
   74SOL    HW1  221   2.156   2.638   2.652 -1.0729 -1.5663 -0.8834
   74SOL    HW2  222   2.276   2.768   2.639  0.4328  2.8421  1.1510
   75SOL     OW  223   2.419   1.822   0.980 -0.2527  0.4911 -0.5386
   75SOL    HW1  224   2.363   1.820   1.066  0.0183  1.4715  2.4162
   75SOL    HW2  225   2.482   1.902   0.978  1.9228  0.2693 -0.2881
   76SOL     OW  226   1.907   2.819   1.432  0.2710 -0.3350  0.2811
   76SOL    HW1  227   1.943   2.914   1.449  2.2039 -0.0161 -4.4232
   76SOL    HW2  228   1.901   2.761   1.514  0.9885 -0.4113 -2.5730
   77SOL     OW  229   2.380   0.058   2.015 -0.2782  0.0490 -0.0869
   77SOL    HW1  230   2.355   0.110   2.097 -0.7661 -0.9694  0.1514
   77SOL    HW2  231   2.335   0.092   1.930  0.2600  1.0996 -1.2527
   78SOL     OW  232   1.472   0.864   2.978  0.3103 -0.2544 -0.6417
   78SOL    HW1  233   1.375   0.856   2.956  1.8621  0.8073  1.9546
   78SOL    HW2  234   1.503   0.796   3.049  1.5238  0.9129 -1.6846
   79SOL     OW  235   2.349   1.470   2.333 -0.1910 -0.2493  0.0779
   79SOL    HW1  236   2.352   1.568   2.365  0.5103  1.9198  0.9649
   79SOL    HW2  237   2.439   1.422   2.338 -0.7896  1.1767 -3.0041
   80SOL     OW  238   1.912   1.468   1.699 -0.0612 -0.2207  0.7738
   80SOL    HW1  239   1.998   1.445   1.748 -0.1759  2.1388  0.7084
   80SOL    HW2  240   1.912   1.429   1.601  1.1561 -2.2623  0.6353
   81SOL     OW  241   1.300   0.544   1.111 -0.0159 -0.7858  0.2029
   81SOL    HW1  242   1.335   0.473   1.170 -1.1116  1.4374  1.2771
   81SOL    HW2  243   1.299   0.508   1.013 -0.8311  0.8923  0.1372
   82SOL     OW  244   1.605   2.609   1.698 -0.1620 -0.1120  0.0532
   82SOL    HW1  245   1.558   2.581   1.783  0.8885  1.7931  1.7110
   82SOL    HW2  246   1.564   2.696   1.671 -0.7943 -2.3131  1.0406
   83SOL     OW  247   0.138   0.181   0.757 -0.3467  0.4738  0.1619
   83SOL    HW1  248   0.160   0.084   0.760  3.5097  0.8909  1.3145
   83SOL    HW2  249   0.042   0.205   0.777  1.5554 -1.0533 -2.5346
   84SOL     OW  250   0.755   1.157   0.020  0.2447 -0.7597 -0.3989
   84SOL    HW1  251   0.768   1.186   0.117  1.7018 -2.0938  0.7805
   84SOL    HW2  252   0.716   1.231   3.064  0.6862  2.0857 -0.5728
   85SOL     OW  253   2.723   1.700   1.765 -0.0722  0.2778  0.0385
   85SOL    HW1  254   2.798   1.637   1.796 -1.1796  3.7600  2.4489
   85SOL    HW2  255   2.634   1.688   1.817 -0.8886 -1.3179  1.7159
   86SOL     OW  256   3.034   2.599   1.509  0.2700  0.4583  0.7820
   86SOL    HW1  257   3.099   2.647   1.568  0.9671  0.1095 -0.3893
   86SOL    HW2  258   2.993   2.519   1.556 -0.0507 -0.3084 -2.7770
   87SOL     OW  259   0.580   0.249   2.545  0.2408 -0.2607 -0.2167
   87SOL    HW1  260   0.603   0.251   2.444  0.5810 -0.9935 -0.3388
   87SOL    HW2  261   0.499   0.193   2.558  2.4889  2.0082 -0.1500
   88SOL     OW  262   0.585   2.316   1.175 -0.6398 -0.4278  0.0997
   88SOL    HW1  263   0.578   2.218   1.141 -3.9597 -1.3591  0.8461
   88SOL    HW2  264   0.553   2.317   1.273 -2.0199  0.7276  1.0023
   89SOL     OW  265   0.948   0.513   1.442  0.0816  0.0029  0.5185
   89SOL    HW1  266   1.045   0.481   1.455 -0.9531 -2.6957  1.1875
   89SOL    HW2  267   0.897   0.499   1.527 -0.8176 -2.2252 -1.9272
   90SOL     OW  268   2.853   1.394   1.621 -0.1928  0.4078 -0.1833
   90SOL    HW1  269   2.887   1.438   1.710  0.7025  2.0818 -0.0266
   90SOL    HW2  270   2.827   1.295   1.635 -0.3862 -4.1654  0.0924
   91SOL     OW  271   1.271   1.026   1.070  0.0459  0.3752  0.2688
   91SOL    HW1  272   1.252   0.926   1.085  0.4512  0.2281 -0.0710
   91SOL    HW2  273   1.212   1.068   0.998 -0.1881  1.1877 -1.6039
   92SOL     OW  274   2.554   0.883   1.005  0.2095  0.4297 -0.0029
   92SOL    HW1  275   2.503   0.935   1.077  3.6242 -0.0685  0.9660
   92SOL    HW2  276   2.497   0.853   0.926  0.3562  1.5868 -1.3113
   93SOL     OW  277   2.078   0.733   2.633  0.1642 -0.8915  0.1501
   93SOL    HW1  278   2.074   0.638   2.596 -0.9057 -0.3857 -1.4282
   93SOL    HW2  279   2.012   0.790   2.580  2.4892  0.0176  0.0955
   94SOL     OW  280   2.363   1.736   2.398  0.0762  0.2156 -0.0338
   94SOL    HW1  281   2.403   1.815   2.353 -1.2478 -2.2799  1.7512
   94SOL    HW2  282   2.338   1.757   2.494  0.4452  1.1624 -1.2653
   95SOL     OW  283   2.115   0.602   0.901  0.2060  0.1104  0.0593
   95SOL    HW1  284   2.033   0.632   0.962 -4.6094  2.1257  0.9319
   95SOL    HW2  285   2.193   0.582   0.960 -1.9768 -0.0415  0.1852
   96SOL     OW  286   2.476   2.905   2.033 -0.0953 -0.4708 -0.8664
   96SOL    HW1  287   2.426   2.857   1.962  0.5073  2.1770 -0.1092
   96SOL    HW2  288   2.464   3.008   2.019 -0.5200  1.6915 -0.9980
   97SOL     OW  289   2.488   0.637   1.298 -0.1801 -0.0473 -0.2602
   97SOL    HW1  290   2.493   0.737   1.306 -1.6146 -2.4381 -0.9958
   97SOL    HW2  291   2.428   0.594   1.372 -2.5662  0.2424  1.2645
   98SOL     OW  292   1.479   2.192   1.577 -0.3095  0.6337  0.1923
   98SOL    HW1  293   1.559   2.126   1.567  0.9896  0.7925  0.1829
   98SOL    HW2  294   1.522   2.283   1.552  1.5499  2.5913  1.2342
   99SOL     OW  295   2.616   2.210   1.709  0.7557 -0.0258 -0.2588
   99SOL    HW1  296   2.655   2.114   1.725  2.3024 -5.2585 -1.3828
   99SOL    HW2  297   2.546   2.200   1.635  1.0998 -1.2405  1.4726
  100SOL     OW  298   0.884   0.762   2.991  0.4221 -0.1187 -0.3356
  100SOL    HW1  299   0.827   0.687   2.952 -3.7825 -0.4667 -0.9562
  100SOL    HW2  300   0.837   0.808   3.066  0.8498 -1.8393 -2.0175
  101SOL     OW  301   2.283   0.335   2.991  0.1559  0.3134 -0.0771
  101SOL    HW1  302   2.196   0.312   3.043  0.8432 -0.7890 -0.9948
  101SOL    HW2  303   2.313   0.427   3.019 -1.3085 -2.3768  0.6299
  102SOL     OW  304   0.337   0.684   1.664 -0.0895  0.0875 -0.0281
  102SOL    HW1  305   0.360   0.718   1.570  0.0683  2.1409 -1.1322
  102SOL    HW2  306   0.397   0.610   1.695 -0.7759 -1.8260 -1.3752
  103SOL     OW  307   0.140   0.522   3.033  0.3788  0.1031  0.3441
  103SOL    HW1  308   0.240   0.550   3.034  1.6361  0.2458  1.9425
  103SOL    HW2  309   0.105   0.506   2.933 -1.1624  2.7363  1.2749
  104SOL     OW  310   0.712   0.416   2.695  0.0297 -0.3359 -0.1864
  104SOL    HW1  311   0.808   0.416   2.663  0.0262 -3.6104  1.7126
  104SOL    HW2  312   0.658   0.348   2.643  1.5598  0.9915 -0.2358
  105SOL     OW  313   2.222   1.935   1.779 -0.0933 -0.2279 -0.5868
  105SOL    HW1  314   2.155   1.943   1.858  0.3666  3.9177  0.3447
  105SOL    HW2  315   2.303   1.999   1.791  3.2209 -3.2083 -0.4447
  106SOL     OW  316   1.934   0.583   0.217  0.3127  0.1686  0.2156
  106SOL    HW1  317   1.914   0.599   0.318 -0.0871  1.6783  2.2944
  106SOL    HW2  318   1.884   0.642   0.158  0.7887 -3.3028 -0.5571
  107SOL     OW  319   0.065   1.789   0.960 -0.1352 -0.0894  0.5340
  107SOL    HW1  320   0.066   1.797   1.062  0.6371 -0.7092 -1.7220
  107SOL    HW2  321   0.085   1.875   0.910  1.7438  2.9391 -0.6543
  108SOL     OW  322   2.832   2.848   1.738 -0.5778  0.1971  0.2769
  108SOL    HW1  323   2.843   2.942   1.771  0.9839  1.7189  0.3589
  108SOL    HW2  324   2.820   2.835   1.636  1.0002  0.1879 -0.6725
  109SOL     OW  325   1.836   2.966   0.975 -0.1378 -0.0011  0.0984
  109SOL    HW1  326   1.804   3.045   0.919  0.1320  1.7880  0.2824
  109SOL    HW2  327   1.932   2.937   0.968 -0.7500 -0.0682 -0.2828
  110SOL     OW  328   0.664   2.189   2.731  0.3523 -0.3817 -0.5401
  110SOL    HW1  329   0.714   2.099   2.718 -0.0371 -0.1174 -2.4469
  110SOL    HW2  330   0.699   2.263   2.671 -1.8955  3.8589 -1.4023
  111SOL     OW  331   1.530   2.456   2.169 -0.4137  0.2791  0.0499
  111SOL    HW1  332   1.493   2.512   2.093  0.1804  0.3817  0.6257
  111SOL    HW2  333   1.597   2.519   2.218 -0.9238 -2.8278  1.9658
  112SOL     OW  334   2.166   2.117   0.069 -0.8601  0.0011 -0.2393
  112SOL    HW1  335   2.181   2.192   0.131  2.3635  2.0355  1.0313
  112SOL    HW2  336   2.115   2.135   3.085  0.7246 -0.1314 -1.2408
  113SOL     OW  337   1.416   2.009   1.195 -0.4249  0.0549 -0.5082
  113SOL    HW1  338   1.334   1.967   1.240 -4.5061 -1.2116  0.7313
  113SOL    HW2  339   1.489   1.937   1.175 -1.3850  0.5379 -2.0168
  114SOL     OW  340   2.955   0.862   0.693  0.1090 -0.4165 -0.2078
  114SOL    HW1  341   2.864   0.839   0.651 -0.7326  1.2100 -0.1562
  114SOL    HW2  342   2.949   0.943   0.754  0.3118 -1.9209 -1.9352
  115SOL     OW  343   0.799   0.873   0.111  0.2079  0.2820  0.2202
  115SOL    HW1  344   0.770   0.967   0.080  0.8761  2.0065  0.2836
  115SOL    HW2  345   0.737   0.831   0.184 -0.1992  0.2780  1.2328
  116SOL     OW  346   2.576   1.348   2.381  0.3938  0.0640  0.5266
  116SOL    HW1  347   2.554   1.321   2.477 -0.3201 -0.5034 -2.4778
  116SOL    HW2  348   2.642   1.280   2.348  0.2926 -2.1273 -0.2887
  117SOL     OW  349   0.090   2.996   0.772 -0.1895 -0.1589  0.3532
  117SOL    HW1  350   0.109   2.898   0.749  0.0049  2.0951  0.9223
  117SOL    HW2  351   3.094   3.014   0.760 -0.4561 -0.3292  0.8695
  118SOL     OW  352   1.017   2.001   2.544 -0.0350 -0.1462 -0.3408
  118SOL    HW1  353   1.079   2.079   2.567  2.5739  2.5708 -0.7935
  118SOL    HW2  354   0.970   1.973   2.626  0.1627 -0.5211  1.1605
  119SOL     OW  355   0.292   2.514   0.000  0.0569 -0.1958  0.4174
  119SOL    HW1  356   0.312   2.483   0.098 -0.2719 -2.2778  2.1888
  119SOL    HW2  357   0.219   2.587   0.003 -2.2745  1.3368  0.9197
  120SOL     OW  358   1.116   0.687   0.036 -0.6969 -0.3190 -0.2312
  120SOL    HW1  359   1.167   0.666   3.049  0.6566 -0.5805  0.4067
  120SOL    HW2  360   1.035   0.744   0.026  1.5257  0.6245 -0.0813
  121SOL     OW  361   1.373   2.888   1.039 -0.5703 -0.1378  0.0704
  121SOL    HW1  362   1.377   2.789   1.070 -0.4304 -1.6939 -0.6581
  121SOL    HW2  363   1.417   2.956   1.104  1.7401 -2.4221  1.6008
  122SOL     OW  364   2.478   2.555   1.533 -0.7729  0.4149 -0.0455
  122SOL    HW1  365   2.537   2.607   1.601 -1.6710 -0.4494  1.9958
  122SOL    HW2  366   2.445   2.619   1.456  0.7194 -0.4332 -2.0564
  123SOL     OW  367   0.533   2.359   0.878 -0.3005  0.2674  0.3197
  123SOL    HW1  368   0.454   2.302   0.912 -4.3084 -0.9064  0.4596
  123SOL    HW2  369   0.549   2.435   0.943  0.6665  1.1987  0.7137
  124SOL     OW  370   2.488   0.805   0.136  0.1023  0.0405 -0.2962
  124SOL    HW1  371   2.423   0.738   0.091  0.9431  1.0456 -0.6593
  124SOL    HW2  372   2.587   0.779   0.122  0.6321  1.3045 -0.1705
  125SOL     OW  373   0.507   1.171   0.373  0.1442  0.1197  0.7512
  125SOL    HW1  374   0.487   1.114   0.457 -0.9736 -1.6708  2.7237
  125SOL    HW2  375   0.604   1.203   0.367  1.6771 -1.1631 -0.8340
  126SOL     OW  376   0.232   1.569   0.939 -0.0246  0.1843 -0.4048
  126SOL    HW1  377   0.183   1.479   0.946 -2.7298  1.7812 -0.3206
  126SOL    HW2  378   0.169   1.648   0.949  2.0891  1.8844 -0.8146
  127SOL     OW  379   0.883   2.130   2.353  0.4299 -0.1466 -0.1953
  127SOL    HW1  380   0.960   2.151   2.290  2.8583  0.3948 -2.0270
  127SOL    HW2  381   0.913   2.071   2.430 -0.1687  0.1297  1.4147
  128SOL     OW  382   0.926   1.088   2.884 -0.3672 -0.1031 -0.1120
  128SOL    HW1  383   0.946   0.988   2.884  1.8183  1.0041  3.7428
  128SOL    HW2  384   0.885   1.121   2.969  0.8054  1.6515  0.7168
  129SOL     OW  385   2.558   1.507   0.647  0.2676  0.1676  0.0518
  129SOL    HW1  386   2.473   1.529   0.699 -0.5387  0.4638  0.2972
  129SOL    HW2  387   2.566   1.565   0.561  2.5346  1.0134  0.4283
  130SOL     OW  388   2.464   1.409   1.266 -0.0747  0.0325  0.0638
  130SOL    HW1  389   2.516   1.474   1.206 -0.5792  0.0886 -0.5451
  130SOL    HW2  390   2.510   1.396   1.354 -0.0709 -1.2385 -0.1080
  131SOL     OW  391   3.006   2.847   0.087 -0.3623  0.2940 -0.5557
  131SOL    HW1  392   3.018   2.941   0.123  1.2343 -0.8012 -3.5525
  131SOL    HW2  393   3.067   2.776   0.132 -0.9146  1.3600 -0.7618
  132SOL     OW  394   0.541   1.940   0.855  0.3639  0.0457  0.0698
  132SOL    HW1  395   0.606   1.905   0.786  0.0441  0.6771  2.6249
  132SOL    HW2  396   0.452   1.956   0.814 -0.2337 -0.0731 -1.2466
  133SOL     OW  397   0.787   0.398   1.272 -0.1128  0.3208 -0.4089
  133SOL    HW1  398   0.837   0.445   1.349  0.8571  2.4125 -1.1016
  133SOL    HW2  399   0.851   0.373   1.198 -1.4769  1.3028 -0.5501
  134SOL     OW  400   0.090   1.794   3.098 -0.3066  0.1791  0.0954
  134SOL    HW1  401   0.022   1.746   3.048  0.8765  2.5020  0.0318
  134SOL    HW2  402   0.072   1.895   0.004 -0.8410 -0.2078 -0.4537
  135SOL     OW  403   1.784   0.642   1.727 -0.1609  0.6570 -0.0176
  135SOL    HW1  404   1.711   0.708   1.749 -2.4271  1.1475 -2.0322
  135SOL    HW2  405   1.757   0.585   1.644  2.1296 -4.0935 -2.4116
  136SOL     OW  406   0.040   1.466   0.269  0.0476  0.2571 -0.2589
  136SOL    HW1  407   0.007   1.553   0.313  1.6212 -1.4176 -0.4222
  136SOL    HW2  408   0.058   1.404   0.350  1.9476  1.5044  2.0852
  137SOL     OW  409   0.099   1.356   0.992  0.0256 -0.4615  0.2810
  137SOL    HW1  410   0.150   1.281   0.945  0.8779  0.5301 -0.9911
  137SOL    HW2  411   3.096   1.349   0.984 -1.1313  0.3870 -1.7113
  138SOL     OW  412   1.953   0.797   0.735  0.3641  0.2401  0.0052
  138SOL    HW1  413   1.980   0.714   0.789  2.4084 -0.6843 -0.9706
  138SOL    HW2  414   1.949   0.878   0.793  0.1116 -0.3451  2.3478
  139SOL     OW  415   1.722   2.573   0.221  0.2771  0.4334  0.1000
  139SOL    HW1  416   1.628   2.619   0.213 -2.4948  0.3408  2.2746
  139SOL    HW2  417   1.755   2.578   0.314  1.2278  1.0542 -1.1108
  140SOL     OW  418   1.292   1.741   1.583  0.0893  0.6531  0.2228
  140SOL    HW1  419   1.291   1.797   1.668  0.2716 -2.2684 -1.7039
  140SOL    HW2  420   1.215   1.673   1.593 -1.7536 -0.6053  1.7352
  141SOL     OW  421   1.735   1.933   0.581  0.0889  0.2462 -0.2172
  141SOL    HW1  422   1.799   1.894   0.512 -1.8146  1.9799 -0.1119
  141SOL    HW2  423   1.787   1.952   0.667 -0.3793 -1.8845 -0.6917
  142SOL     OW  424   1.138   0.234   0.102  0.1102 -0.2022  0.2157
  142SOL    HW1  425   1.058   0.178   0.072  0.3834 -0.7721  3.9070
  142SOL    HW2  426   1.105   0.313   0.160 -1.9908  2.0714 -0.7542
  143SOL     OW  427   0.276   2.270   2.978  0.3245  0.6940  0.4822
  143SOL    HW1  428   0.321   2.307   2.891  2.1300  1.2103  0.4909
  143SOL    HW2  429   0.263   2.352   3.039 -3.6651  0.5216  2.2583
  144SOL     OW  430   1.418   3.096   1.255 -0.5286  0.3431 -0.5455
  144SOL    HW1  431   1.389   3.057   1.343  0.2556 -1.4842 -2.5883
  144SOL    HW2  432   1.508   0.039   1.256 -0.3264 -2.2734  2.9161
  145SOL     OW  433   1.913   1.079   0.039 -0.7882 -0.8488  0.4423
  145SOL    HW1  434   1.993   1.039   0.094 -0.5271 -2.3052  0.7712
  145SOL    HW2  435   1.877   1.168   0.082 -1.1533 -0.3547  3.2861
  146SOL     OW  436   0.113   2.424   1.034 -0.1965  0.6581 -0.0368
  146SOL    HW1  437   0.042   2.425   0.960  1.0479 -0.3091 -1.0749
  146SOL    HW2  438   0.067   2.420   1.126 -3.3519 -0.1647 -0.8604
  147SOL     OW  439   2.246   0.125   1.740 -0.0946 -0.1263  1.1242
  147SOL    HW1  440   2.217   0.031   1.717  1.4321 -1.6741  0.6143
  147SOL    HW2  441   2.331   0.155   1.688  3.2234 -0.5495 -1.3475
  148SOL     OW  442   1.404   3.029   1.846  0.4051  0.3387 -0.3894
  148SOL    HW1  443   1.312   3.073   1.831 -0.5533  0.9185 -0.8176
  148SOL    HW2  444   1.396   2.934   1.879  1.2251  2.0488 -1.6091
  149SOL     OW  445   1.786   0.155   2.391 -0.3424 -0.0419 -0.6220
  149SOL    HW1  446   1.699   0.167   2.435 -0.4694 -0.5896  2.1597
  149SOL    HW2  447   1.771   0.178   2.294 -1.4076 -3.7129 -0.8358
  150SOL     OW  448   3.081   2.930   0.452 -0.0414  0.0684  0.0761
  150SOL    HW1  449   0.025   3.023   0.438  1.4665  2.6092 -0.4911
  150SOL    HW2  450   3.028   2.929   0.542  0.1417 -0.3758 -1.4180
  151SOL     OW  451   0.305   2.422   0.265 -0.3364 -0.4818  0.7881
  151SOL    HW1  452   0.270   2.512   0.289  0.0951 -1.0836  0.4111
  151SOL    HW2  453   0.252   2.349   0.308 -1.1666 -1.8923 -0.7892
  152SOL     OW  454   2.801   0.076   0.698  0.1107 -0.6009 -0.1705
  152SOL    HW1  455   2.865   0.110   0.773  0.9455  1.4335  0.0850
  152SOL    HW2  456   2.708   0.096   0.734  0.4721 -1.2289  2.0386
  153SOL     OW  457   2.423   0.334   1.050 -0.2116 -0.2039 -0.0206
  153SOL    HW1  458   2.334   0.283   1.031  1.4299 -1.9102 -0.7864
  153SOL    HW2  459   2.500   0.305   0.990 -0.8566 -1.2381 -0.1962
  154SOL     OW  460   0.663   0.304   2.280 -0.4811 -0.6249  0.0066
  154SOL    HW1  461   0.750   0.336   2.322  1.6347 -0.2789 -2.6938
  154SOL    HW2  462   0.644   0.353   2.194 -1.1800  0.8355 -1.5492
  155SOL     OW  463   0.248   1.338   1.227  0.0274 -0.3938  0.4629
  155SOL    HW1  464   0.346   1.372   1.232  1.6574 -0.0515 -0.0917
  155SOL    HW2  465   0.204   1.367   1.139  1.2451 -2.2588  0.9105
  156SOL     OW  466   2.408   2.069   3.046  0.9478 -0.4009 -0.2147
  156SOL    HW1  467   2.453   1.976   3.045  1.5730 -1.6115 -1.1641
  156SOL    HW2  468   2.318   2.072   3.094 -0.0575 -0.8412  0.0380
  157SOL     OW  469   1.024   0.480   0.167  0.1110 -0.3885 -0.2499
  157SOL    HW1  470   0.950   0.504   0.226  0.5668  3.1090 -4.1853
  157SOL    HW2  471   1.062   0.564   0.116  1.1086  0.5518 -0.2758
  158SOL     OW  472   2.500   0.004   2.784  0.2433 -0.0892 -0.4609
  158SOL    HW1  473   2.491   0.059   2.701  0.1518 -1.1577  1.2108
  158SOL    HW2  474   2.492   0.070   2.864 -2.3064  0.6176 -0.6905
  159SOL     OW  475   0.538   0.253   0.614  0.5877  0.2632  0.7393
  159SOL    HW1  476   0.454   0.309   0.635  0.9227 -0.0603  0.6247
  159SOL    HW2  477   0.556   0.192   0.695  1.5811  1.4588 -1.4004
  160SOL     OW  478   1.467   1.709   2.561 -0.4534 -0.4388  0.6753
  160SOL    HW1  479   1.434   1.723   2.463 -1.6393  1.4329 -2.0677
  160SOL    HW2  480   1.495   1.614   2.586  0.6660 -1.9573  3.4150
  161SOL     OW  481   3.060   1.287   2.635  0.7622  0.5184  0.3977
  161SOL    HW1  482   3.005   1.323   2.557 -0.1410 -1.7152 -3.0595
  161SOL    HW2  483   3.017   1.274   2.726 -0.4121 -2.4541  0.3113
  162SOL     OW  484   0.696   2.415   1.466  0.6229 -0.2261 -0.2840
  162SOL    HW1  485   0.680   2.471   1.550 -0.1780 -1.2420  0.7315
  162SOL    HW2  486   0.618   2.352   1.454  1.1742  1.3376  1.4326
  163SOL     OW  487   2.293   0.185   2.228  0.1758  1.0541 -0.1595
  163SOL    HW1  488   2.271   0.106   2.283 -4.6143  1.7452 -1.6395
  163SOL    HW2  489   2.208   0.231   2.198 -0.5141  0.3737 -2.2578
  164SOL     OW  490   2.289   1.398   0.449  0.2390 -0.2091  0.8627
  164SOL    HW1  491   2.204   1.340   0.436  0.4281 -1.5467 -1.1725
  164SOL    HW2  492   2.280   1.485   0.393  1.3811 -0.1883 -0.8680
  165SOL     OW  493   0.008   0.396   1.619  0.2327 -0.0606 -0.3810
  165SOL    HW1  494   0.018   0.425   1.716 -0.8265  0.3975  0.6568
  165SOL    HW2  495   0.090   0.347   1.583 -0.0377 -0.9783 -2.3039
  166SOL     OW  496   2.128   1.000   0.216  0.3288  0.1525 -0.2855
  166SOL    HW1  497   2.056   0.952   0.273 -1.6358 -1.6685  1.3661
  166SOL    HW2  498   2.221   0.995   0.258 -3.5394  2.5812  1.0871
  167SOL     OW  499   2.870   0.694   0.328 -0.0639 -0.2960 -0.5070
  167SOL    HW1  500   2.885   0.598   0.302  0.6896  0.8834 -0.4724
  167SOL    HW2  501   2.952   0.743   0.361 -0.6459  1.3403 -3.2669
  168SOL     OW  502   1.559   2.687   2.581 -0.4081  0.1222 -0.6297
  168SOL    HW1  503   1.490   2.748   2.626 -0.1873  1.4001 -1.4173
  168SOL    HW2  504   1.523   2.642   2.498 -0.0279 -0.2911 -0.0858
  169SOL     OW  505   0.874   1.678   0.550 -0.3561  0.4922 -0.4208
  169SOL    HW1  506   0.956   1.701   0.495  1.4886  2.9381 -1.4912
  169SOL    HW2  507   0.807   1.615   0.502  0.3352  2.6630  0.7901
  170SOL     OW  508   3.049   0.432   1.192 -0.2217  0.4067  0.2615
  170SOL    HW1  509   0.049   0.417   1.187  2.0333 -0.4037  1.5308
  170SOL    HW2  510   2.997   0.465   1.108 -1.5608 -0.3374  0.3213
  171SOL     OW  511   1.305   2.022   2.827 -0.1844  0.7637  0.2393
  171SOL    HW1  512   1.204   2.058   2.819  0.4411  1.0545  1.1875
  171SOL    HW2  513   1.363   2.099   2.858  0.1635  1.5688  0.3605
  172SOL     OW  514   2.828   2.796   1.454 -0.1315  0.0588  1.0151
  172SOL    HW1  515   2.867   2.857   1.381 -2.8222  0.8617 -0.2333
  172SOL    HW2  516   2.902   2.731   1.476  1.5105  3.1485  0.3678
  173SOL     OW  517   1.483   0.570   2.762  0.2136  0.9407 -0.1541
  173SOL    HW1  518   1.567   0.598   2.809 -1.8568 -0.0098  0.3396
  173SOL    HW2  519   1.475   0.630   2.680  2.8254 -0.1127  3.9758
  174SOL     OW  520   1.715   3.048   2.657  0.0192 -0.3837 -0.4767
  174SOL    HW1  521   1.676   0.035   2.690 -1.0475 -0.7141 -0.7815
  174SOL    HW2  522   1.672   3.011   2.570 -1.5865  1.2683 -0.1511
  175SOL     OW  523   2.048   2.363   0.718  0.2846 -0.1699 -0.3090
  175SOL    HW1  524   2.088   2.280   0.757 -1.0865 -0.4786 -2.9654
  175SOL    HW2  525   2.121   2.428   0.690  0.7355 -3.2423  0.9954
  176SOL     OW  526   1.586   0.173   2.787  0.0456 -0.1868  0.2983
  176SOL    HW1  527   1.522   0.252   2.808 -1.9941 -1.4214 -0.0686
  176SOL    HW2  528   1.682   0.197   2.812  0.6505  1.0677 -0.7180
  177SOL     OW  529   1.137   1.750   0.397 -0.3596  0.1890 -0.3794
  177SOL    HW1  530   1.143   1.853   0.380  3.2881  0.6809 -2.2451
  177SOL    HW2  531   1.123   1.703   0.302  2.5641  0.8089 -0.2562
  178SOL     OW  532   2.567   2.063   0.153  0.0386 -0.0511 -0.5689
  178SOL    HW1  533   2.518   2.086   0.066 -0.4321  0.1666 -2.3707
  178SOL    HW2  534   2.528   2.118   0.230  1.1807  2.0576 -0.1205
  179SOL     OW  535   0.078   2.786   2.806 -0.2710 -0.4450  0.1854
  179SOL    HW1  536   3.092   2.839   2.809 -0.2590 -3.7339  1.6382
  179SOL    HW2  537   0.130   2.812   2.724 -1.9798 -2.4297 -0.8622
  180SOL     OW  538   1.771   1.398   0.819  0.2800  0.3463  0.6677
  180SOL    HW1  539   1.786   1.391   0.922  0.8975  0.8680 -1.4261
  180SOL    HW2  540   1.681   1.358   0.799  1.9585 -1.0444 -0.0644
  181SOL     OW  541   1.846   0.699   2.070 -0.1959  0.4999 -0.1798
  181SOL    HW1  542   1.827   0.785   2.120  1.3352  0.3506 -0.1248
  181SOL    HW2  543   1.799   0.701   1.981  0.3858  1.1200  1.2734
  182SOL     OW  544   2.779   2.976   2.415  0.1802  0.6223  0.6930
  182SOL    HW1  545   2.753   2.948   2.510 -3.4710 -0.6290  1.0984
  182SOL    HW2  546   2.820   2.901   2.362  0.5297  0.8388 -0.6065
  183SOL     OW  547   1.524   0.708   2.056 -0.3657 -0.1960 -0.2217
  183SOL    HW1  548   1.558   0.746   1.968  1.2778  0.4226  1.4636
  183SOL    HW2  549   1.457   0.636   2.034  1.3385 -0.6171 -2.0516
  184SOL     OW  550   0.252   1.071   1.222 -0.6351  0.3238  0.4117
  184SOL    HW1  551   0.272   1.173   1.221  1.6702  1.1668  1.0463
  184SOL    HW2  552   0.261   1.031   1.317  1.7954  0.5065  0.1012
  185SOL     OW  553   1.823   0.666   0.469  0.6274 -0.0085 -0.0595
  185SOL    HW1  554   1.840   0.608   0.554  0.2885 -2.5112  0.6474
  185SOL    HW2  555   1.721   0.659   0.450  0.6692  1.2017  1.1989
  186SOL     OW  556   0.668   2.756   0.005 -0.5039  0.1800 -0.0683
  186SOL    HW1  557   0.585   2.812   0.034 -0.0397 -1.6561 -1.6867
  186SOL    HW2  558   0.643   2.658   0.002 -0.9524  0.7949 -0.7221
  187SOL     OW  559   2.498   0.845   2.829  0.0178 -0.4198 -0.0193
  187SOL    HW1  560   2.410   0.881   2.783 -0.2410 -0.7756 -1.6852
  187SOL    HW2  561   2.468   0.771   2.893 -1.5380  1.9732 -0.9452
  188SOL     OW  562   2.913   1.525   1.390 -0.0523 -0.4276 -0.3243
  188SOL    HW1  563   2.998   1.470   1.374  1.1323 -1.7377 -0.2409
  188SOL    HW2  564   2.886   1.500   1.486  0.6474  0.8504  1.3589
  189SOL     OW  565   2.651   0.312   0.044 -0.0797 -0.3952 -0.1037
  189SOL    HW1  566   2.714   0.245   0.074 -2.8890  2.1512 -0.6986
  189SOL    HW2  567   2.701   0.395   0.015 -1.6971 -1.0840 -3.1920
  190SOL     OW  568   1.225   1.183   2.019  0.3143  0.2310 -0.4164
  190SOL    HW1  569   1.322   1.215   2.027  1.4334 -0.7973 -1.7332
  190SOL    HW2  570   1.166   1.216   2.094  0.7560  1.2031 -1.7485
  191SOL     OW  571   2.795   0.499   1.779  0.0364 -0.0598  0.0277
  191SOL    HW1  572   2.694   0.484   1.778 -0.7117 -2.1158  0.9705
  191SOL    HW2  573   2.808   0.598   1.802 -2.1618  2.6665  1.4778
  192SOL     OW  574   2.184   1.427   1.339  0.2673 -0.5061  0.5532
  192SOL    HW1  575   2.150   1.514   1.388 -2.5607 -0.1274  1.3448
  192SOL    HW2  576   2.285   1.429   1.316 -2.6725 -1.3455 -0.8506
  193SOL     OW  577   1.145   0.772   1.104 -0.0296 -0.4617  0.4112
  193SOL    HW1  578   1.076   0.799   1.176  0.8361  0.8400  0.8606
  193SOL    HW2  579   1.195   0.694   1.133 -1.3310  2.2793 -1.4322
  194SOL     OW  580   1.220   2.615   1.764 -0.5428 -0.1408 -0.0615
  194SOL    HW1  581   1.257   2.674   1.690 -1.7254 -1.2072  1.4708
  194SOL    HW2  582   1.135   2.657   1.799  0.0321  0.4286 -2.6264
  195SOL     OW  583   1.849   0.190   2.848  0.1079  0.7230 -0.1467
  195SOL    HW1  584   1.879   0.169   2.753 -0.8381 -1.9357  1.0282
  195SOL    HW2  585   1.898   0.140   2.923 -0.0960 -0.3880  0.7419
  196SOL     OW  586   1.152   2.354   1.790  0.2891  0.1464 -0.5316
  196SOL    HW1  587   1.098   2.298   1.721 -2.1027 -3.1766 -0.6663
  196SOL    HW2  588   1.156   2.457   1.780 -0.8604 -0.5633 -0.9548
  197SOL     OW  589   1.113   2.843   1.022  0.1477 -0.4113 -0.5101
  197SOL    HW1  590   1.076   2.841   0.927  2.6331  0.4376  2.5450
  197SOL    HW2  591   1.214   2.864   1.020  0.6544 -1.7284 -0.8004
  198SOL     OW  592   1.005   0.916   0.764  0.0540 -0.2090 -0.2818
  198SOL    HW1  593   0.974   0.853   0.835 -0.9953  1.8435 -0.4223
  198SOL    HW2  594   0.927   0.936   0.702  2.0955  0.8138  0.7519
  199SOL     OW  595   2.994   2.661   1.850  0.1827  0.5585 -0.3751
  199SOL    HW1  596   2.936   2.726   1.796 -0.8154  0.4712  1.0906
  199SOL    HW2  597   3.026   2.709   1.936  1.5552  2.0498  2.7193
  200SOL     OW  598   2.040   2.118   2.269  0.0517  0.1856  0.1205
  200SOL    HW1  599   2.001   2.039   2.323 -3.2479  0.1052 -0.7472
  200SOL    HW2  600   2.137   2.098   2.239  0.8417  0.6615  0.5082
  201SOL     OW  601   0.049   1.744   1.975  0.2339 -0.7975  0.0627
  201SOL    HW1  602   0.149   1.767   1.974  1.0112  1.9791 -1.5696
  201SOL    HW2  603   3.098   1.774   1.894 -0.4323 -1.2525  1.7206
  202SOL     OW  604   2.555   0.152   0.332  0.0778  0.3669 -0.3667
  202SOL    HW1  605   2.533   0.110   0.239  0.9199  0.4803  0.0380
  202SOL    HW2  606   2.639   0.116   0.377 -3.7509  1.9088 -0.8508
  203SOL     OW  607   1.100   2.371   2.053  0.1689 -0.4668  0.2719
  203SOL    HW1  608   1.143   2.445   2.110  3.0579 -2.2486  0.9225
  203SOL    HW2  609   1.118   2.375   1.948 -1.0868 -0.2035 -4.8013
  204SOL     OW  610   1.339   2.142   1.806 -0.1153  0.3574  0.7755
  204SOL    HW1  611   1.391   2.147   1.718 -1.6224 -0.8827  1.3016
  204SOL    HW2  612   1.291   2.229   1.824  1.3410 -1.2319  1.2274
  205SOL     OW  613   1.581   1.612   2.071  0.0912 -0.0185 -0.5697
  205SOL    HW1  614   1.649   1.542   2.039 -0.8488  0.3222 -1.7445
  205SOL    HW2  615   1.578   1.693   2.011  0.4829  0.0638 -0.5796
  206SOL     OW  616   0.332   0.798   2.627 -0.3211  0.7195  0.7744
  206SOL    HW1  617   0.422   0.760   2.655 -1.4504 -0.2099  2.9500
  206SOL    HW2  618   0.329   0.834   2.534 -2.0813  1.4135  0.2766
  207SOL     OW  619   1.178   0.081   1.787  0.3672 -0.2590 -0.2556
  207SOL    HW1  620   1.244   0.160   1.767 -1.3972  0.8181 -1.4726
  207SOL    HW2  621   1.088   0.119   1.814 -4.1176  1.0133  1.1739
  208SOL     OW  622   0.579   2.765   1.881  0.3362 -0.3419 -0.3971
  208SOL    HW1  623   0.623   2.856   1.875  0.6514 -0.5272  1.1684
  208SOL    HW2  624   0.476   2.763   1.899 -1.4514  0.1556  0.2587
  209SOL     OW  625   1.320   0.657   0.239 -0.2622  0.0393 -0.7890
  209SOL    HW1  626   1.416   0.671   0.207  0.5457 -3.5959 -0.4952
  209SOL    HW2  627   1.255   0.653   0.167  0.4323 -0.6632  4.0742
  210SOL     OW  628   2.749   0.405   0.712 -0.7103  0.2298  0.0552
  210SOL    HW1  629   2.834   0.458   0.734  1.6512  1.0362 -0.0782
  210SOL    HW2  630   2.727   0.401   0.612 -0.5782 -1.4983  0.5548
  211SOL     OW  631   0.488   0.416   1.331  0.3236 -0.0627 -0.4689
  211SOL    HW1  632   0.446   0.505   1.306  1.4244 -2.3137  1.0276
  211SOL    HW2  633   0.566   0.399   1.272 -0.3727  2.0361 -0.1663
  212SOL     OW  634   1.211   1.764   1.084  0.2211 -0.0043  0.3634
  212SOL    HW1  635   1.278   1.686   1.073  1.3151 -1.9700  0.7513
  212SOL    HW2  636   1.205   1.804   1.181 -1.8567  1.5915  2.1807
  213SOL     OW  637   2.156   0.275   1.937 -0.4245  0.2343  0.0369
  213SOL    HW1  638   2.201   0.223   1.865 -2.5389  3.7039  0.7245
  213SOL    HW2  639   2.204   0.360   1.952  2.7671 -0.6772 -0.0184
  214SOL     OW  640   0.957   2.422   2.416 -0.4869  0.0778 -0.0916
  214SOL    HW1  641   0.980   2.337   2.367 -2.7898  1.1440 -2.1420
  214SOL    HW2  642   0.859   2.433   2.443 -2.6368 -1.2839  0.8975
  215SOL     OW  643   2.507   1.667   1.450  0.1825  0.3936 -0.1005
  215SOL    HW1  644   2.463   1.695   1.542 -0.5884  3.1439 -2.4963
  215SOL    HW2  645   2.527   1.568   1.451 -0.2744  0.9003  1.5326
  216SOL     OW  646   0.478   0.963   1.416 -0.1538  0.6894  0.3548
  216SOL    HW1  647   0.538   0.970   1.498  1.1840 -0.3344 -1.0431
  216SOL    HW2  648   0.380   0.962   1.446 -1.5532 -2.2197 -1.0170
  217SOL     OW  649   3.040   0.330   0.512  0.2434 -0.2427 -0.2809
  217SOL    HW1  650   3.018   0.363   0.421 -1.3221 -1.3451  0.8126
  217SOL    HW2  651   2.960   0.276   0.546 -0.0484  0.5164 -1.3163
  218SOL     OW  652   2.010   1.763   1.093 -0.0122  0.0266 -0.2938
  218SOL    HW1  653   2.077   1.793   1.023 -1.7160  0.8994  1.5455
  218SOL    HW2  654   2.018   1.662   1.111 -0.6496  3.0506 -2.6263
  219SOL     OW  655   1.619   0.409   0.089 -0.0609 -0.1380 -0.0597
  219SOL    HW1  656   1.542   0.367   0.034 -0.9273 -0.7161 -0.5591
  219SOL    HW2  657   1.583   0.444   0.180  0.7098  1.4883  0.9398
  220SOL     OW  658   1.764   1.846   0.996 -0.0835  0.3462  0.5500
  220SOL    HW1  659   1.857   1.819   1.029 -0.5662  2.0534  0.5200
  220SOL    HW2  660   1.691   1.812   1.050  1.0287 -0.9100  0.2329
  221SOL     OW  661   2.744   0.847   0.501 -0.1395 -0.3558  0.6880
  221SOL    HW1  662   2.794   0.791   0.432  0.4972  0.8870  1.6042
  221SOL    HW2  663   2.658   0.805   0.531  2.8303  3.0010  0.2790
  222SOL     OW  664   0.847   2.742   1.625  0.3900  0.1399  0.0901
  222SOL    HW1  665   0.927   2.749   1.563  2.2838 -0.6005  1.9833
  222SOL    HW2  666   0.763   2.779   1.582 -0.5804  0.4544  0.0831
  223SOL     OW  667   1.381   0.323   0.012 -0.6212  0.3006  0.8353
  223SOL    HW1  668   1.373   0.344   3.014 -2.0946 -0.1906 -2.3355
  223SOL    HW2  669   1.288   0.301   0.047  0.0565 -0.5750 -2.3775
  224SOL     OW  670   2.686   0.460   1.201 -0.6110 -0.0348  0.0903
  224SOL    HW1  671   2.692   0.506   1.108 -1.6083 -1.0793 -2.4294
  224SOL    HW2  672   2.639   0.523   1.267 -1.0268  3.1460 -1.3427
  225SOL     OW  673   0.718   1.592   1.442  0.0793  0.2863 -0.3266
  225SOL    HW1  674   0.815   1.598   1.420 -2.4458 -2.5076 -0.8043
  225SOL    HW2  675   0.658   1.653   1.382 -1.9729  0.9903 -0.4530
  226SOL     OW  676   1.045   2.810   0.764 -0.8659 -0.1772 -0.1245
  226SOL    HW1  677   1.001   2.887   0.717 -0.6334 -1.3210  2.4223
  226SOL    HW2  678   1.135   2.787   0.724 -1.3757  0.9409  0.4048
  227SOL     OW  679   1.200   1.918   1.775  0.3517  0.1352  0.1781
  227SOL    HW1  680   1.104   1.928   1.746 -1.8670 -1.9041 -1.2149
  227SOL    HW2  681   1.249   2.002   1.787  0.5298  0.1083 -0.7807
  228SOL     OW  682   0.471   0.503   1.874 -0.2644  0.1856 -0.0592
  228SOL    HW1  683   0.555   0.450   1.900 -1.0972 -0.1500 -1.0445
  228SOL    HW2  684   0.395   0.443   1.854  0.8410  1.0526  0.3405
  229SOL     OW  685   2.755   0.741   0.072  0.1661 -0.0665  0.1948
  229SOL    HW1  686   2.756   0.828   0.020 -2.5602 -0.4662  0.1495
  229SOL    HW2  687   2.809   0.752   0.159  2.9027  1.7552  4.1380
  230SOL     OW  688   0.166   1.267   1.607  0.1267 -0.0684  0.3415
  230SOL    HW1  689   0.264   1.295   1.618  2.2511 -0.3397  0.0703
  230SOL    HW2  690   0.128   1.255   1.702  0.1149  2.2367  3.9931
  231SOL     OW  691   1.074   2.935   1.300  0.1453  0.4351  0.3452
  231SOL    HW1  692   1.078   2.855   1.365  0.1358 -0.8763  1.3173
  231SOL    HW2  693   1.076   2.900   1.205  0.3362 -0.1131 -2.1021
  232SOL     OW  694   2.726   2.545   3.063 -0.5199  0.5480 -0.1142
  232SOL    HW1  695   2.752   2.442   3.074  1.6079 -1.1896 -1.2748
  232SOL    HW2  696   2.627   2.562   3.091 -2.8555  0.7297 -0.8806
  233SOL     OW  697   1.326   2.625   3.064 -0.0654  0.0906 -0.0082
  233SOL    HW1  698   1.233   2.592   3.037 -3.7170  0.6613  0.7213
  233SOL    HW2  699   1.324   2.723   3.080  1.8021 -4.1376 -1.6320
  234SOL     OW  700   0.713   1.150   1.797 -0.5838  0.3362  0.3254
  234SOL    HW1  701   0.729   1.243   1.836  2.0777 -2.1321  0.8700
  234SOL    HW2  702   0.656   1.100   1.868  0.6225 -1.1026  0.8038
  235SOL     OW  703   3.080   2.315   2.935  0.1685 -0.7378 -0.0151
  235SOL    HW1  704   0.029   2.235   2.904 -0.6625  0.2597  0.0712
  235SOL    HW2  705   3.034   2.365   2.857 -0.2013  0.5893 -0.6051
  236SOL     OW  706   1.849   2.346   2.672 -0.4237  0.4384  0.7154
  236SOL    HW1  707   1.942   2.334   2.628  0.9027  1.2053 -0.8483
  236SOL    HW2  708   1.799   2.262   2.704  0.1882  0.4093 -1.7060
  237SOL     OW  709   2.275   1.081   0.919 -0.0220 -0.1983  0.5684
  237SOL    HW1  710   2.180   1.120   0.915 -2.2154  0.3797  1.3121
  237SOL    HW2  711   2.342   1.157   0.936  1.1663  1.5403 -0.7213
  238SOL     OW  712   1.267   2.754   2.124 -0.5451 -0.6067  0.1268
  238SOL    HW1  713   1.224   2.680   2.178  0.2181  0.5745 -0.1513
  238SOL    HW2  714   1.196   2.831   2.110 -0.5905  1.0679 -0.2482
  239SOL     OW  715   0.719   2.196   2.010  0.3959 -0.4478  0.0905
  239SOL    HW1  716   0.787   2.131   2.042  0.4291 -0.8944  1.1039
  239SOL    HW2  717   0.745   2.230   1.916 -0.7502 -1.2497  1.2500
  240SOL     OW  718   2.916   2.920   0.653 -1.0209  0.3834  0.1428
  240SOL    HW1  719   2.868   2.835   0.673  1.0348  2.2911  0.1261
  240SOL    HW2  720   2.857   2.999   0.662 -0.9800  1.1311  0.4994
  241SOL     OW  721   1.152   1.808   2.951  0.2721  0.4617  0.0266
  241SOL    HW1  722   1.200   1.744   3.016  1.1729 -2.5778  2.2933
  241SOL    HW2  723   1.214   1.867   2.894 -0.5850 -0.7560 -1.4677
  242SOL     OW  724   2.239   0.941   3.053  0.3809  0.2790 -0.0099
  242SOL    HW1  725   2.339   0.945   3.062 -0.0796  0.0129 -1.1910
  242SOL    HW2  726   2.190   0.937   0.041  0.1871 -2.6238  0.1018
  243SOL     OW  727   0.713   0.398   1.981  0.3733  0.8584  0.4661
  243SOL    HW1  728   0.785   0.458   2.024  0.0757  2.0396  3.4493
  243SOL    HW2  729   0.751   0.308   1.954  1.3583  0.9317  0.3003
  244SOL     OW  730   1.479   2.238   2.889  0.0482 -0.5630 -0.2141
  244SOL    HW1  731   1.483   2.341   2.889  1.5825  0.7834  2.2495
  244SOL    HW2  732   1.563   2.201   2.934  1.0030  1.8884 -0.6179
  245SOL     OW  733   1.837   2.349   0.099  0.3981 -0.0882  0.2079
  245SOL    HW1  734   1.748   2.299   0.110  0.1802  1.0118 -1.0872
  245SOL    HW2  735   1.827   2.446   0.134 -0.4019  1.3740  0.4647
  246SOL     OW  736   1.221   1.029   2.441  0.0700  0.5989 -0.7029
  246SOL    HW1  737   1.299   1.066   2.390 -3.4001  0.6967 -3.1971
  246SOL    HW2  738   1.150   1.104   2.452 -2.3479  4.2265 -1.4549
  247SOL     OW  739   2.788   0.916   2.493 -0.1410  0.2258  0.4004
  247SOL    HW1  740   2.723   0.968   2.550 -3.4207 -2.1453  1.6257
  247SOL    HW2  741   2.868   0.888   2.554  2.6355  1.7289  2.8657
  248SOL     OW  742   0.078   1.210   1.855  0.3339 -0.2251  0.5241
  248SOL    HW1  743   3.088   1.242   1.883 -0.4830 -0.3565 -0.1440
  248SOL    HW2  744   0.094   1.122   1.905  1.6240  1.3935  1.7411
  249SOL     OW  745   2.932   0.417   0.269  0.1210 -0.5409  0.4581
  249SOL    HW1  746   3.001   0.482   0.226 -2.6382  2.2124 -0.6326
  249SOL    HW2  747   2.906   0.338   0.210  0.0639  2.1254  0.8155
  250SOL     OW  748   2.843   0.156   0.131  0.5400  0.7433 -0.2259
  250SOL    HW1  749   2.939   0.121   0.125 -0.0154  0.9558 -0.4420
  250SOL    HW2  750   2.798   0.116   0.211 -2.6133  1.2450 -0.9621
  251SOL     OW  751   0.940   1.565   1.774  0.3169  0.2158 -0.2524
  251SOL    HW1  752   0.992   1.633   1.834 -0.2960  0.9583  1.1617
  251SOL    HW2  753   1.009   1.525   1.706  3.3311  0.2460 -2.0799
  252SOL     OW  754   1.883   1.948   1.315 -0.3655  0.1054 -0.1085
  252SOL    HW1  755   1.971   1.953   1.367  0.3857  2.1533 -1.2054
  252SOL    HW2  756   1.903   1.912   1.227  1.3807  1.2335 -0.7302
  253SOL     OW  757   1.979   2.258   2.039  0.2611 -0.2959 -0.4941
  253SOL    HW1  758   1.993   2.211   2.129 -1.3088 -0.1662 -0.6208
  253SOL    HW2  759   1.938   2.355   2.043 -0.0918  0.8452 -0.0219
  254SOL     OW  760   0.681   2.292   2.438  0.1993 -0.3523 -0.1066
  254SOL    HW1  761   0.762   2.246   2.397  0.2658  2.2245  1.3111
  254SOL    HW2  762   0.594   2.234   2.443 -2.6705  1.5580  0.2820
  255SOL     OW  763   1.553   0.147   0.467 -0.1592  0.5845  0.3301
  255SOL    HW1  764   1.651   0.180   0.452 -0.9652  0.3570 -0.9002
  255SOL    HW2  765   1.509   0.206   0.539  1.8458 -0.1584 -3.1694
  256SOL     OW  766   1.795   2.306   1.385  0.2865 -0.0507  0.1506
  256SOL    HW1  767   1.896   2.323   1.408  1.8191  1.7883  3.1547
  256SOL    HW2  768   1.781   2.287   1.285  1.7087 -2.2149 -0.9938
  257SOL     OW  769   0.352   2.590   2.814 -0.0653  0.0773  0.4285
  257SOL    HW1  770   0.379   2.501   2.768  1.6016  1.9983  0.0707
  257SOL    HW2  771   0.307   2.577   2.907  0.1244  0.8522  1.9787
  258SOL     OW  772   0.543   0.982   1.978  0.0221 -0.1138  1.1618
  258SOL    HW1  773   0.556   0.881   1.973  0.3604 -0.9922 -1.0210
  258SOL    HW2  774   0.501   1.006   2.069 -0.7326  0.0903  0.5490
  259SOL     OW  775   1.279   0.737   2.485 -0.8388  0.5342 -0.0987
  259SOL    HW1  776   1.373   0.703   2.505  2.5742 -3.4017  0.2711
  259SOL    HW2  777   1.270   0.832   2.514 -0.3368 -1.5870  3.2928
  260SOL     OW  778   2.263   0.598   0.484 -0.2117  0.4434 -0.2204
  260SOL    HW1  779   2.247   0.520   0.552  4.4075 -5.1113 -0.9124
  260SOL    HW2  780   2.240   0.694   0.510  1.9361 -1.8664 -1.9937
  261SOL     OW  781   1.072   0.289   0.476  0.0774 -0.0151  0.1080
  261SOL    HW1  782   1.026   0.342   0.407  1.7570 -1.7331  1.8359
  261SOL    HW2  783   1.023   0.295   0.566  0.0097  0.9132 -0.6795
  262SOL     OW  784   1.776   2.596   2.735 -0.2734 -0.3333  0.8227
  262SOL    HW1  785   1.810   2.499   2.730  1.6711  1.0207 -0.8992
  262SOL    HW2  786   1.702   2.613   2.666  1.0498  0.9899 -1.4646
  263SOL     OW  787   0.534   1.764   2.921 -0.4140 -0.2262 -0.0032
  263SOL    HW1  788   0.485   1.709   2.995 -0.0272 -3.6083  2.0688
  263SOL    HW2  789   0.460   1.787   2.854 -0.1387  3.2791  0.0939
  264SOL     OW  790   0.334   1.698   1.918  0.7260 -0.5388  0.5500
  264SOL    HW1  791   0.430   1.729   1.929 -1.3066  0.8414 -1.0881
  264SOL    HW2  792   0.338   1.658   1.828 -1.0333 -0.0886  1.3255
  265SOL     OW  793   0.783   1.223   0.314  0.0088 -0.2600  0.1466
  265SOL    HW1  794   0.799   1.314   0.353  1.5741  1.0099 -0.3245
  265SOL    HW2  795   0.859   1.162   0.335 -0.4698 -0.7288 -0.8071
  266SOL     OW  796   1.616   1.780   0.201 -0.0567  0.4535  0.0092
  266SOL    HW1  797   1.536   1.765   0.261 -0.0040  0.9485 -1.5004
  266SOL    HW2  798   1.700   1.785   0.254 -0.8513  0.8449 -0.4042
  267SOL     OW  799   0.084   0.158   3.072 -0.6308 -0.2231 -0.3740
  267SOL    HW1  800   0.014   0.224   3.042  1.6500  4.1356 -0.0043
  267SOL    HW2  801   0.169   0.204   0.007  2.5944 -0.3311  1.6268
  268SOL     OW  802   1.044   0.242   2.829  0.0346 -0.4347 -0.8672
  268SOL    HW1  803   0.971   0.269   2.896  1.5647 -2.9731  0.2580
  268SOL    HW2  804   1.104   0.171   2.871  0.1675 -3.4339 -1.2201
  269SOL     OW  805   1.507   0.406   2.337 -0.2961  0.5109  0.7533
  269SOL    HW1  806   1.535   0.385   2.239  2.8749 -1.0031 -2.2278
  269SOL    HW2  807   1.503   0.328   2.406 -1.6321  1.9527 -0.1723
  270SOL     OW  808   0.698   0.932   2.590 -0.1718 -0.1242  0.2486
  270SOL    HW1  809   0.800   0.916   2.590  1.4211  0.0385 -0.6044
  270SOL    HW2  810   0.651   0.842   2.616 -0.3484 -1.5283  1.9859
  271SOL     OW  811   0.473   1.009   0.032 -0.0956  0.6772  0.0994
  271SOL    HW1  812   0.534   1.049   0.102 -1.0558  3.2518  0.7668
  271SOL    HW2  813   0.451   1.069   3.053  0.6548 -2.6561 -0.1362
  272SOL     OW  814   2.085   1.344   2.760 -0.2698 -0.6713  0.2033
  272SOL    HW1  815   2.108   1.415   2.691 -2.9605  1.1644 -3.8109
  272SOL    HW2  816   2.038   1.264   2.716  0.5839 -0.4444 -0.9383
  273SOL     OW  817   2.969   0.270   2.406 -0.4644 -0.9633  0.3067
  273SOL    HW1  818   3.041   0.336   2.378  1.8580  1.7774 -0.7054
  273SOL    HW2  819   2.980   0.246   2.501 -0.4557  0.2870 -2.0503
  274SOL     OW  820   2.901   0.010   1.680 -0.5531  0.6329 -0.0856
  274SOL    HW1  821   2.914   0.113   1.678  0.6473 -1.2538  0.3327
  274SOL    HW2  822   3.000   3.074   1.671  2.7613 -1.0571 -1.2235
  275SOL     OW  823   2.061   1.251   0.403  0.3999  0.1868 -0.6508
  275SOL    HW1  824   2.058   1.188   0.317 -1.7266 -3.4129  2.4052
  275SOL    HW2  825   1.974   1.272   0.451  0.4053  2.1964 -2.3241
  276SOL     OW  826   0.217   1.349   2.699  0.1749 -0.7590  0.4177
  276SOL    HW1  827   0.119   1.343   2.677 -1.3300  0.2821  0.2814
  276SOL    HW2  828   0.245   1.277   2.763  3.4377  2.5279 -0.5558
  277SOL     OW  829   1.841   2.506   2.002  0.5304 -0.1597 -0.0034
  277SOL    HW1  830   1.767   2.514   2.072  2.3616  0.7479 -1.6127
  277SOL    HW2  831   1.856   2.595   1.951 -1.8335 -0.1960  0.0061
  278SOL     OW  832   2.011   0.265   1.357 -0.4543  0.2104 -0.0465
  278SOL    HW1  833   2.063   0.174   1.358  1.1055 -1.7184 -1.1148
  278SOL    HW2  834   2.049   0.320   1.282 -2.3443  0.4360  1.6123
  279SOL     OW  835   1.237   1.292   3.007  0.3911 -0.0569 -0.1987
  279SOL    HW1  836   1.256   1.243   2.920  1.4965 -0.0923  0.1730
  279SOL    HW2  837   1.325   1.297   3.064  2.3154  0.8295  1.2455
  280SOL     OW  838   0.581   1.893   0.447 -0.3162 -0.3631  0.2388
  280SOL    HW1  839   0.678   1.893   0.410  4.7970  0.6908 -4.7589
  280SOL    HW2  840   0.567   1.946   0.529 -1.0065  0.9617 -1.2048
  281SOL     OW  841   0.358   0.034   2.215 -0.1224  0.0147 -0.2380
  281SOL    HW1  842   0.399   3.044   2.193 -0.8941  2.0195  1.0898
  281SOL    HW2  843   0.308   0.066   2.138  0.4734  1.3230 -0.6909
  282SOL     OW  844   0.264   1.653   1.347 -0.0527 -0.0569  0.1682
  282SOL    HW1  845   0.207   1.715   1.289 -1.8232 -1.1220  0.1447
  282SOL    HW2  846   0.277   1.563   1.303 -1.0620  4.1695  0.3426
  283SOL     OW  847   1.697   2.110   2.591  0.1413  0.8086  0.5771
  283SOL    HW1  848   1.791   2.066   2.603  3.7572 -1.0046 -0.0190
  283SOL    HW2  849   1.621   2.044   2.578 -1.5619 -1.3054 -0.3566
  284SOL     OW  850   1.807   0.770   0.070  0.0694  0.0327 -0.5700
  284SOL    HW1  851   1.797   0.833   0.156 -1.7478  2.6103  1.4293
  284SOL    HW2  852   1.837   0.829   3.097  2.4173 -1.6778 -1.3235
  285SOL     OW  853   2.963   2.638   2.573  0.1473 -0.2644  0.1468
  285SOL    HW1  854   2.984   2.740   2.574 -0.5411 -0.1593  2.0930
  285SOL    HW2  855   2.889   2.612   2.507 -1.7107 -1.5033 -1.5661
  286SOL     OW  856   2.031   2.669   1.231 -0.2038  0.0234 -0.0063
  286SOL    HW1  857   1.985   2.734   1.296  0.1145 -2.4172 -0.3676
  286SOL    HW2  858   1.963   2.605   1.191  1.2239 -0.1258  1.7758
  287SOL     OW  859   0.852   1.002   1.103 -0.2508 -0.0131  0.5079
  287SOL    HW1  860   0.891   0.937   1.168  3.0290  0.4257  0.5757
  287SOL    HW2  861   0.902   1.092   1.107 -0.7576 -1.4917 -1.4029
  288SOL     OW  862   1.406   2.434   0.138 -0.0305  0.2093  0.2520
  288SOL    HW1  863   1.408   2.479   0.234  2.8381  1.6078  1.7137
  288SOL    HW2  864   1.403   2.504   0.067  0.1688 -0.6658 -0.2320
  289SOL     OW  865   3.055   1.831   2.559 -0.3290 -0.4426  0.2721
  289SOL    HW1  866   2.977   1.880   2.606  0.5879 -0.3275  0.1213
  289SOL    HW2  867   0.006   1.780   2.628 -1.3474  0.1024  0.0863
  290SOL     OW  868   1.173   2.454   0.633 -0.5153 -0.3031  0.2558
  290SOL    HW1  869   1.080   2.485   0.667  2.8532  1.6455 -0.4390
  290SOL    HW2  870   1.173   2.353   0.601  1.7977 -0.5913 -0.7743
  291SOL     OW  871   1.954   1.526   0.212  0.2886  0.0461 -0.1067
  291SOL    HW1  872   2.004   1.516   0.126 -0.7768  1.5060 -1.3175
  291SOL    HW2  873   1.903   1.615   0.207  0.0747  1.9510 -0.2218
  292SOL     OW  874   1.129   1.523   1.601 -0.5052  0.2235 -0.0605
  292SOL    HW1  875   1.109   1.463   1.514 -2.6440 -1.6691 -2.4002
  292SOL    HW2  876   1.181   1.466   1.666 -0.9118  0.1102  0.7124
  293SOL     OW  877   2.103   2.854   1.008 -0.4649 -0.2551  0.5150
  293SOL    HW1  878   2.173   2.826   0.939  0.4377  0.5696  0.0435
  293SOL    HW2  879   2.081   2.778   1.078  0.0845 -1.7792  2.5773
  294SOL     OW  880   3.071   1.034   2.534  0.3629 -0.2180  0.4907
  294SOL    HW1  881   3.076   1.133   2.560 -2.1269 -0.9846 -1.4073
  294SOL    HW2  882   3.047   1.018   2.435  0.4574  2.1339 -1.4319
  295SOL     OW  883   0.935   1.930   3.056 -0.2361  0.2829  0.1639
  295SOL    HW1  884   0.957   2.013   0.008 -1.1932  1.0550  3.1755
  295SOL    HW2  885   1.010   1.887   3.008  0.9315 -0.8574 -0.2093
  296SOL     OW  886   1.962   1.909   2.394  0.3360  0.3296  0.5806
  296SOL    HW1  887   2.023   1.831   2.348  2.1710 -1.0379  0.2307
  296SOL    HW2  888   1.866   1.872   2.377 -1.9865 -1.1510 -0.6668
  297SOL     OW  889   2.705   0.502   2.749  0.2102  0.5536  0.3713
  297SOL    HW1  890   2.661   0.414   2.723  1.6008  0.2116  1.2011
  297SOL    HW2  891   2.639   0.574   2.720  1.8712  0.2229 -1.5276
  298SOL     OW  892   0.613   2.247   2.982  0.3040 -0.0553  0.0296
  298SOL    HW1  893   0.618   2.163   3.042  1.2715 -1.9926 -1.4353
  298SOL    HW2  894   0.638   2.233   2.883 -0.6963 -1.7478  1.6524
  299SOL     OW  895   1.129   2.763   2.640 -0.1588 -0.1461  0.3249
  299SOL    HW1  896   1.108   2.759   2.536 -1.1167  2.2807 -1.1764
  299SOL    HW2  897   1.171   2.674   2.669  3.8343 -0.8467 -0.5948
  300SOL     OW  898   2.724   0.387   0.434 -0.2929  0.2685  0.0299
  300SOL    HW1  899   2.677   0.314   0.383  0.9522 -2.0765 -2.9152
  300SOL    HW2  900   2.809   0.413   0.383  2.5143  0.3288 -0.5448
  301SOL     OW  901   0.989   0.812   1.311 -0.0722  0.0663  0.3359
  301SOL    HW1  902   0.951   0.727   1.346 -0.7347  0.9954  0.2544
  301SOL    HW2  903   0.950   0.889   1.368 -0.3209 -0.4063  1.0243
  302SOL     OW  904   0.018   2.112   2.522 -0.1345  0.3256  0.2868
  302SOL    HW1  905   0.036   2.018   2.558  0.6149 -0.5818  2.1090
  302SOL    HW2  906   0.089   2.180   2.549 -0.9853  0.8130  0.2489
  303SOL     OW  907   3.045   0.044   2.272  0.3061 -0.3046  0.1295
  303SOL    HW1  908   3.001   0.126   2.314  1.2712  0.8150  1.9597
  303SOL    HW2  909   3.096   3.094   2.344  0.1173  2.1007  1.2522
  304SOL     OW  910   2.504   0.470   1.748 -0.4768 -0.3054 -0.0821
  304SOL    HW1  911   2.491   0.393   1.682  0.6856 -3.2790 -2.2416
  304SOL    HW2  912   2.490   0.433   1.842 -0.6890 -1.0714 -2.2146
  305SOL     OW  913   0.403   0.022   2.481  0.3662 -0.3427 -0.2076
  305SOL    HW1  914   0.427   3.026   2.485  0.4951 -0.2746 -0.5044
  305SOL    HW2  915   0.378   0.040   2.388  0.8895  0.6611  1.3211
  306SOL     OW  916   2.559   1.132   1.451 -0.6763 -0.1209 -0.2542
  306SOL    HW1  917   2.583   1.049   1.507  1.1004 -0.4181  1.8018
  306SOL    HW2  918   2.626   1.139   1.373  2.6942  2.0573  0.4124
  307SOL     OW  919   1.726   0.698   1.255 -0.0987 -0.6249  0.4712
  307SOL    HW1  920   1.709   0.659   1.349 -0.7740  1.7013 -0.9148
  307SOL    HW2  921   1.642   0.673   1.202  1.9111  0.2707 -1.5807
  308SOL     OW  922   0.197   2.083   1.443  0.0990  0.4109 -0.2721
  308SOL    HW1  923   0.159   2.158   1.500 -0.8833 -0.3316  0.4639
  308SOL    HW2  924   0.125   2.058   1.375 -1.4035  1.1740  1.1876
  309SOL     OW  925   2.487   1.928   1.384  0.6133 -0.2044 -0.3091
  309SOL    HW1  926   2.573   1.956   1.341 -2.8998 -2.0248  2.2356
  309SOL    HW2  927   2.486   1.829   1.408 -1.5397  5.1242 -0.9835
  310SOL     OW  928   2.778   1.754   3.043  0.0635 -0.6762  0.5422
  310SOL    HW1  929   2.830   1.721   2.962  0.3012  1.9072  0.6394
  310SOL    HW2  930   2.786   1.681   0.008 -0.6147  0.1707 -0.5818
  311SOL     OW  931   2.013   1.671   2.893  0.7946 -0.5291 -0.2016
  311SOL    HW1  932   2.045   1.765   2.863  0.2207  2.3359 -1.0501
  311SOL    HW2  933   1.963   1.626   2.818 -0.6439  3.3875 -0.1156
  312SOL     OW  934   2.617   1.979   0.864  0.5040 -0.0065 -0.1426
  312SOL    HW1  935   2.707   1.988   0.911 -1.9114  0.5994 -0.2647
  312SOL    HW2  936   2.610   1.887   0.826 -0.0724  2.1524  2.2409
  313SOL     OW  937   2.666   2.455   1.364 -0.6097  0.5243 -0.4365
  313SOL    HW1  938   2.613   2.471   1.454  0.6454  0.2744 -0.4184
  313SOL    HW2  939   2.643   2.530   1.300  1.0890 -1.9469 -0.3697
  314SOL     OW  940   0.796   1.999   1.262 -0.5973 -0.0670  0.8425
  314SOL    HW1  941   0.868   2.065   1.234 -1.0704  1.0542  3.7687
  314SOL    HW2  942   0.817   1.907   1.223  1.1298  1.3592  0.8838
  315SOL     OW  943   0.514   2.856   2.468  0.7040  0.1823 -0.3468
  315SOL    HW1  944   0.489   2.833   2.563 -1.3281 -1.8880  0.1793
  315SOL    HW2  945   0.610   2.839   2.450 -1.2944  1.1361  0.0481
  316SOL     OW  946   0.299   1.208   0.632  0.2900  0.5094  0.0403
  316SOL    HW1  947   0.358   1.132   0.666 -1.7392 -0.0408 -0.2169
  316SOL    HW2  948   0.325   1.297   0.672  0.8569 -0.9624 -0.5882
  317SOL     OW  949   1.790   0.288   0.460 -0.3135 -0.0201 -0.2603
  317SOL    HW1  950   1.851   0.284   0.379 -1.3785  0.5890  0.5792
  317SOL    HW2  951   1.819   0.360   0.526 -1.9826 -3.2873  1.4898
  318SOL     OW  952   2.936   2.568   0.476  0.0047 -0.0577  0.3774
  318SOL    HW1  953   2.848   2.567   0.423 -0.9251  4.6769  1.4799
  318SOL    HW2  954   3.008   2.529   0.411  2.1201  0.2955  0.0367
  319SOL     OW  955   0.885   1.523   0.001 -1.1227 -0.3763  0.1416
  319SOL    HW1  956   0.959   1.533   3.032 -2.4154  0.4706 -1.8284
  319SOL    HW2  957   0.801   1.488   3.057 -0.9864  0.7110 -1.2203
  320SOL     OW  958   0.783   2.797   2.411  0.0541  0.6098  0.3932
  320SOL    HW1  959   0.869   2.788   2.355  4.0825 -1.2422  0.4278
  320SOL    HW2  960   0.805   2.874   2.473  1.6602 -2.1564 -1.5488
  321SOL     OW  961   1.146   0.008   2.985 -0.3865  0.1186 -0.3318
  321SOL    HW1  962   1.169   0.027   3.079  1.0850  1.0568 -2.2609
  321SOL    HW2  963   1.072   3.039   2.971 -1.4920  1.9622  0.7298
  322SOL     OW  964   2.281   1.153   1.851 -0.0396 -0.7999 -0.0285
  322SOL    HW1  965   2.338   1.126   1.934  2.4663  0.9343 -1.2017
  322SOL    HW2  966   2.311   1.234   1.810 -1.0803 -2.7754  0.7525
  323SOL     OW  967   2.561   0.641   0.498 -0.2160  0.2725 -0.2436
  323SOL    HW1  968   2.472   0.648   0.441 -1.9334  0.5246 -0.7324
  323SOL    HW2  969   2.616   0.556   0.481  1.8023 -0.3382 -2.5305
  324SOL     OW  970   0.032   0.444   2.786 -0.1087  0.4636  0.0198
  324SOL    HW1  971   3.059   0.451   2.721  0.8833 -1.3667 -1.7928
  324SOL    HW2  972   0.097   0.374   2.753  1.5628  4.1273  0.5331
  325SOL     OW  973   1.617   0.152   1.887 -0.2731  0.1498 -0.4285
  325SOL    HW1  974   1.705   0.164   1.837  1.8132  2.3819  1.2940
  325SOL    HW2  975   1.566   0.065   1.867  0.1954  2.7668 -1.3148
  326SOL     OW  976   2.501   0.014   1.170  0.3126  0.3899 -0.1212
  326SOL    HW1  977   2.569   0.088   1.183  0.4398  2.3944 -0.1035
  326SOL    HW2  978   2.436   0.044   1.100  1.3119 -1.5491 -1.5763
  327SOL     OW  979   1.724   0.696   2.887  0.2057 -0.3965 -0.2855
  327SOL    HW1  980   1.808   0.638   2.892  0.1661 -1.0270  0.3569
  327SOL    HW2  981   1.748   0.794   2.911  1.1753  3.1824 -0.2930
  328SOL     OW  982   2.933   1.371   2.398  0.3709 -0.1199 -0.1637
  328SOL    HW1  983   2.888   1.281   2.375 -0.0551  1.1421 -0.8901
  328SOL    HW2  984   2.864   1.446   2.392 -0.5439 -0.5786  0.6052
  329SOL     OW  985   1.867   2.660   1.645  0.1883  0.4087 -0.0248
  329SOL    HW1  986   1.772   2.615   1.648 -1.0177 -1.3354  2.4301
  329SOL    HW2  987   1.873   2.721   1.726  1.9519 -2.6442  1.1656
  330SOL     OW  988   2.338   1.709   1.674  0.0883  0.6898  0.6706
  330SOL    HW1  989   2.281   1.786   1.704  0.8851  0.0589 -0.5239
  330SOL    HW2  990   2.409   1.689   1.749  2.2223  0.0452 -2.5663
  331SOL     OW  991   0.334   2.048   1.212 -0.5120 -0.3007  0.0122
  331SOL    HW1  992   0.328   2.031   1.311  0.8165  0.6805 -1.4599
  331SOL    HW2  993   0.431   2.061   1.180  1.7460  0.1765  0.9992
  332SOL     OW  994   0.732   0.629   1.131  0.1395 -0.0390 -0.1841
  332SOL    HW1  995   0.702   0.700   1.202  0.1959 -0.1181 -1.6805
  332SOL    HW2  996   0.786   0.557   1.182  0.5245  1.4426 -0.0643
  333SOL     OW  997   2.144   2.641   2.353 -0.6667 -0.3567 -0.2407
  333SOL    HW1  998   2.048   2.660   2.368  0.7599  0.3648  1.0517
  333SOL    HW2  999   2.191   2.656   2.445  0.0107 -4.1851 -2.3496
  334SOL     OW 1000   1.198   1.114   1.334 -0.2702  0.1180  0.1158
  334SOL    HW1 1001   1.269   1.088   1.260  1.1417  0.5462  1.1904
  334SOL    HW2 1002   1.224   1.084   1.430  0.3801  0.8832  0.0741
  335SOL     OW 1003   0.446   2.834   2.753 -0.6166 -0.1390 -0.2629
  335SOL    HW1 1004   0.402   2.887   2.829 -1.8381 -1.1674 -1.1862
  335SOL    HW2 1005   0.416   2.737   2.763 -0.8959 -2.2317 -0.8809
  336SOL     OW 1006   2.657   2.446   1.837  0.1431 -0.4260  0.0917
  336SOL    HW1 1007   2.640   2.522   1.772  1.4842 -1.4884  1.1421
  336SOL    HW2 1008   2.661   2.358   1.789  2.4317 -0.7569 -2.0704
  337SOL     OW 1009   2.354   1.654   0.345  0.0296 -0.0461  0.4534
  337SOL    HW1 1010   2.359   1.642   0.243  0.3053 -1.1897  0.4769
  337SOL    HW2 1011   2.451   1.671   0.375  1.1911 -0.1034  1.5040
  338SOL     OW 1012   1.185   1.866   1.342  0.0932  0.0016 -0.1553
  338SOL    HW1 1013   1.224   1.831   1.431 -0.9173 -1.2712 -0.0328
  338SOL    HW2 1014   1.126   1.951   1.358 -1.3348  1.4393  0.9531
  339SOL     OW 1015   0.041   0.789   1.866  0.1188 -0.1725 -0.3890
  339SOL    HW1 1016   0.136   0.806   1.892  1.4132  2.1363 -1.3803
  339SOL    HW2 1017   0.031   0.818   1.767 -0.7456 -0.7547 -3.4099
  340SOL     OW 1018   1.665   3.014   1.496 -0.1595  0.5041  0.1294
  340SOL    HW1 1019   1.648   2.941   1.428  1.8208 -0.7379  0.9994
  340SOL    HW2 1020   1.762   3.054   1.484  2.1520  2.3969 -0.8884
  341SOL     OW 1021   2.243   1.442   0.919  0.3817 -0.1230 -0.1864
  341SOL    HW1 1022   2.311   1.367   0.948  1.3498 -2.0400 -0.0816
  341SOL    HW2 1023   2.268   1.458   0.818 -0.0408  1.2148  0.7748
  342SOL     OW 1024   0.500   1.669   1.031  0.1576  0.2803  0.3957
  342SOL    HW1 1025   0.404   1.644   1.002  1.1676  1.5832 -1.0382
  342SOL    HW2 1026   0.552   1.730   0.970 -0.9069 -0.7433  0.9050
  343SOL     OW 1027   2.282   0.552   1.461  0.0281  0.1654  0.0288
  343SOL    HW1 1028   2.199   0.508   1.502 -0.7178 -0.3053 -0.0798
  343SOL    HW2 1029   2.273   0.655   1.474 -0.5158  3.4379 -1.5569
  344SOL     OW 1030   2.185   3.069   0.679  0.0162  0.0959  0.3299
  344SOL    HW1 1031   2.188   3.090   0.576 -1.8960 -0.7524 -0.8116
  344SOL    HW2 1032   2.267   0.003   0.723 -1.2669 -0.5220 -0.6939
  345SOL     OW 1033   3.080   2.909   2.537  0.1006  0.2042  0.0649
  345SOL    HW1 1034   2.996   2.963   2.549  1.1404 -0.5090 -0.2391
  345SOL    HW2 1035   0.067   2.954   2.572 -0.9737  0.4813 -0.1234
  346SOL     OW 1036   3.029   0.875   0.432 -0.1414 -0.4913  0.4011
  346SOL    HW1 1037   2.999   0.968   0.394 -1.5424  1.6435 -4.0218
  346SOL    HW2 1038   3.012   0.864   0.533  0.8993  0.6480 -1.4870
  347SOL     OW 1039   1.664   2.783   1.320 -0.7983  0.1346  0.0603
  347SOL    HW1 1040   1.751   2.782   1.380  1.7582  0.7238  1.0714
  347SOL    HW2 1041   1.636   2.697   1.281  2.4338 -1.7340  1.1886
  348SOL     OW 1042   1.183   1.039   1.817 -0.1148  0.1795  0.1249
  348SOL    HW1 1043   1.203   1.088   1.900 -1.0877 -1.5826 -3.0766
  348SOL    HW2 1044   1.082   1.020   1.803 -1.4723 -4.2314  1.3188
  349SOL     OW 1045   2.090   1.338   2.226  0.1827 -0.2168  0.7702
  349SOL    HW1 1046   2.127   1.246   2.251  1.0979  2.1793  1.3100
  349SOL    HW2 1047   2.145   1.408   2.277 -0.1172  1.8839  2.0075
  350SOL     OW 1048   0.183   2.004   0.844 -0.1947  0.1546  1.3096
  350SOL    HW1 1049   0.225   2.086   0.889  0.6332  2.1340  0.7648
  350SOL    HW2 1050   0.215   1.993   0.748  0.2708  0.5473 -1.3355
  351SOL     OW 1051   0.570   0.649   2.220  0.4307 -0.1902  0.0452
  351SOL    HW1 1052   0.663   0.667   2.255 -2.1588 -1.2049 -1.5287
  351SOL    HW2 1053   0.552   0.692   2.125 -2.0042  0.1222 -1.4688
  352SOL     OW 1054   0.941   3.039   1.669 -0.1510  0.1001  0.3046
  352SOL    HW1 1055   1.011   3.087   1.612 -2.6455  3.3232  0.6473
  352SOL    HW2 1056   0.977   2.969   1.730  0.1686 -0.5049  0.5215
  353SOL     OW 1057   0.768   1.522   2.351 -0.3394  0.1018 -0.3006
  353SOL    HW1 1058   0.733   1.610   2.386 -0.0067 -0.9140  2.3398
  353SOL    HW2 1059   0.871   1.508   2.361  2.0098  0.0918  1.0669
  354SOL     OW 1060   1.840   1.303   0.573  0.3632  0.6349  0.1226
  354SOL    HW1 1061   1.756   1.264   0.529 -1.6963 -2.5695 -4.3939
  354SOL    HW2 1062   1.811   1.366   0.647  2.3913  1.3349 -1.6908
  355SOL     OW 1063   1.887   0.465   0.630 -0.5974 -0.4106 -0.8862
  355SOL    HW1 1064   1.852   0.483   0.726 -0.3332  0.3655  0.7118
  355SOL    HW2 1065   1.989   0.440   0.630  2.8791 -2.3171  0.2706
  356SOL     OW 1066   0.134   1.165   0.062 -0.5542  0.7882  0.9494
  356SOL    HW1 1067   0.115   1.254   0.020 -1.5381 -3.1773 -0.1127
  356SOL    HW2 1068   0.234   1.159   0.089  0.5436  0.6126 -0.4863
  357SOL     OW 1069   2.891   3.040   2.063  0.6943 -0.0402  0.2038
  357SOL    HW1 1070   2.826   0.011   2.039 -0.2881 -0.7431 -0.6149
  357SOL    HW2 1071   2.969   3.076   2.115  2.6956  3.4312 -3.4816
  358SOL     OW 1072   0.445   1.320   2.545  0.5498  0.3396 -0.0493
  358SOL    HW1 1073   0.440   1.392   2.473  0.1596 -0.2442  0.5261
  358SOL    HW2 1074   0.365   1.329   2.611  0.2536  0.8299 -0.7579
  359SOL     OW 1075   2.480   2.564   2.531 -0.3817 -0.2258  0.4467
  359SOL    HW1 1076   2.397   2.599   2.581  1.4684 -1.3530  1.0163
  359SOL    HW2 1077   2.488   2.581   2.433 -0.8650 -1.1703  0.2622
  360SOL     OW 1078   1.508   1.310   0.783  0.1412 -0.1132 -0.0420
  360SOL    HW1 1079   1.412   1.355   0.779 -0.2132 -0.9321  0.4726
  360SOL    HW2 1080   1.520   1.253   0.865 -0.6856 -2.6730 -1.6986
  361SOL     OW 1081   2.236   2.354   1.093 -0.1858 -0.0568  0.4623
  361SOL    HW1 1082   2.247   2.259   1.062  1.2835 -1.7562  1.6066
  361SOL    HW2 1083   2.142   2.367   1.128  4.0511  0.3232  0.4732
  362SOL     OW 1084   1.984   1.164   0.787  0.1274 -0.1376 -0.1490
  362SOL    HW1 1085   2.058   1.148   0.719  0.5868 -0.4470 -1.4542
  362SOL    HW2 1086   1.927   1.248   0.767 -0.6209  2.1992  2.1304
  363SOL     OW 1087   2.713   1.958   0.538 -0.7018  0.7876  0.1604
  363SOL    HW1 1088   2.719   1.963   0.438 -0.5052  1.3263 -1.1622
  363SOL    HW2 1089   2.655   2.030   0.583 -1.2811  0.8435 -1.6944
  364SOL     OW 1090   2.208   0.068   1.427 -0.3525 -0.0132  0.1065
  364SOL    HW1 1091   2.267   3.083   1.414  2.5194 -0.1091 -1.8270
  364SOL    HW2 1092   2.261   0.151   1.391  2.3802  3.8067  1.5213
  365SOL     OW 1093   0.182   2.712   1.225 -0.0893  0.0416  0.3348
  365SOL    HW1 1094   0.241   2.674   1.154 -1.5346 -1.2239  1.6169
  365SOL    HW2 1095   0.083   2.679   1.224 -2.2703  0.1444  0.9293
  366SOL     OW 1096   0.117   1.275   0.445 -0.4020  1.1551 -0.5755
  366SOL    HW1 1097   0.041   1.207   0.449  0.6708  1.3199  0.1781
  366SOL    HW2 1098   0.192   1.240   0.507  1.5448 -3.3684 -0.4744
  367SOL     OW 1099   2.395   2.295   2.880  0.0424  0.0994  0.1729
  367SOL    HW1 1100   2.406   2.210   2.936  0.3855 -0.7526 -2.4561
  367SOL    HW2 1101   2.397   2.273   2.784 -0.9466 -0.4871  3.0813
  368SOL     OW 1102   2.847   1.934   1.004  0.2549  0.1423  0.0477
  368SOL    HW1 1103   2.794   1.936   1.085  2.7077  1.7184 -2.9631
  368SOL    HW2 1104   2.859   1.838   0.972  1.5488 -1.1060  0.8266
  369SOL     OW 1105   0.806   1.019   0.600  0.1354  0.4670  0.7036
  369SOL    HW1 1106   0.707   1.006   0.600 -0.3456  0.0794 -0.8042
  369SOL    HW2 1107   0.843   1.001   0.508 -0.2666 -0.0815 -2.0549
  370SOL     OW 1108   0.595   0.065   0.812  0.2547  0.5086  0.2393
  370SOL    HW1 1109   0.548   0.029   0.893  1.4962  0.7162 -0.8703
  370SOL    HW2 1110   0.697   0.060   0.829 -1.5961 -0.1745  2.5628
  371SOL     OW 1111   2.203   1.203   2.978  0.1392 -0.1512 -0.3625
  371SOL    HW1 1112   2.190   1.101   2.985 -0.0254  1.7905 -2.1983
  371SOL    HW2 1113   2.167   1.236   2.887  0.5080 -1.9077 -0.0126
  372SOL     OW 1114   0.610   0.697   2.692  0.3419  0.9007 -0.2404
  372SOL    HW1 1115   0.600   0.724   2.789  0.3218  1.9502 -0.6288
  372SOL    HW2 1116   0.644   0.603   2.676  0.1159 -0.2141 -1.2495
  373SOL     OW 1117   0.417   0.557   3.055 -0.5310 -0.2833  0.2652
  373SOL    HW1 1118   0.506   0.550   3.004  1.9411 -1.0721 -2.3558
  373SOL    HW2 1119   0.410   0.645   0.010  1.7074  0.9489  2.5431
  374SOL     OW 1120   0.984   2.483   0.082  0.3680  0.9996 -0.4465
  374SOL    HW1 1121   1.041   2.520   0.003  1.2887 -1.3429  3.4068
  374SOL    HW2 1122   1.010   2.530   0.170  2.3943 -1.9636 -1.3636
  375SOL     OW 1123   0.935   3.028   0.661  0.1352  0.1756  0.0235
  375SOL    HW1 1124   0.903   3.062   0.754 -2.3754  1.2504 -0.2696
  375SOL    HW2 1125   1.020   3.080   0.631 -0.0314 -0.8053  0.5653
  376SOL     OW 1126   0.211   2.319   2.146  0.1318 -0.5181  0.0222
  376SOL    HW1 1127   0.121   2.369   2.162 -0.9883  1.1222  0.1007
  376SOL    HW2 1128   0.274   2.390   2.112 -0.0682  1.7415  1.9294
  377SOL     OW 1129   2.740   2.012   3.062  0.5664 -0.3535 -1.3844
  377SOL    HW1 1130   2.669   2.027   0.036 -0.6490  0.2201  1.6273
  377SOL    HW2 1131   2.755   1.912   3.052 -1.7840  2.8991  0.0278
  378SOL     OW 1132   1.552   0.696   0.459 -0.2804  0.0121  0.8543
  378SOL    HW1 1133   1.555   0.599   0.417 -0.1029 -4.1231  1.5449
  378SOL    HW2 1134   1.478   0.688   0.531 -0.5593  0.0897  0.7813
  379SOL     OW 1135   1.270   1.471   0.721 -0.3091  0.2804  0.2177
  379SOL    HW1 1136   1.206   1.397   0.688 -2.4616 -0.4053 -1.9552
  379SOL    HW2 1137   1.260   1.561   0.679  0.2562 -2.9433 -0.3954
  380SOL     OW 1138   2.376   2.132   1.892  0.2285  0.2274 -0.5060
  380SOL    HW1 1139   2.477   2.146   1.875  3.5078 -0.2907  3.5103
  380SOL    HW2 1140   2.317   2.214   1.872  1.8841  1.6886  0.0744
  381SOL     OW 1141   3.087   0.958   2.228  0.2756 -0.3551  0.1883
  381SOL    HW1 1142   0.067   0.979   2.164  1.5093  0.1199  1.8303
  381SOL    HW2 1143   2.997   0.980   2.176 -2.9543  4.3968 -0.6591
  382SOL     OW 1144   2.827   2.308   0.231 -0.3258 -0.1852  0.1624
  382SOL    HW1 1145   2.773   2.377   0.281  2.4441 -0.6628  1.7895
  382SOL    HW2 1146   2.809   2.306   0.130  1.2212 -3.2807  1.3406
  383SOL     OW 1147   1.435   1.133   2.290  0.4124  0.0767 -0.0584
  383SOL    HW1 1148   1.415   1.166   2.199  0.6797 -3.7379  0.7027
  383SOL    HW2 1149   1.487   1.047   2.268 -0.8161 -0.1120 -0.3227
  384SOL     OW 1150   0.903   2.343   2.686  0.2137  0.3651 -0.1945
  384SOL    HW1 1151   0.959   2.377   2.606 -1.9520 -2.4634 -1.3192
  384SOL    HW2 1152   0.844   2.414   2.738 -5.3164  1.0997  3.2758
  385SOL     OW 1153   2.098   2.381   0.163 -0.2685 -0.1031 -0.4035
  385SOL    HW1 1154   2.003   2.346   0.149  2.3998 -0.1936  0.2253
  385SOL    HW2 1155   2.103   2.483   0.190 -1.2746  2.4190 -2.8977
  386SOL     OW 1156   1.451   1.425   0.432  0.1142  0.0516  0.5073
  386SOL    HW1 1157   1.471   1.508   0.382  0.0386 -2.8549 -1.4479
  386SOL    HW2 1158   1.469   1.430   0.530 -0.1873 -0.2289 -1.2914
  387SOL     OW 1159   2.730   0.899   1.191 -0.1508  0.0536 -0.0795
  387SOL    HW1 1160   2.667   0.881   1.112  3.2441  1.7308 -0.9348
  387SOL    HW2 1161   2.719   0.997   1.219 -0.9017  1.6629  0.9202
  388SOL     OW 1162   0.078   0.730   1.004  0.2263  0.2618 -0.1307
  388SOL    HW1 1163   0.051   0.827   1.037  0.4939  2.4605 -2.2040
  388SOL    HW2 1164   0.003   0.660   1.019  0.3198 -0.6416  2.0081
  389SOL     OW 1165   1.797   1.124   2.380  0.2673 -0.0846  0.5312
  389SOL    HW1 1166   1.753   1.123   2.469 -0.5878  0.7683 -2.4534
  389SOL    HW2 1167   1.794   1.213   2.327  1.4381 -0.6149 -1.2303
  390SOL     OW 1168   1.479   2.274   0.528  0.4057 -0.2803  0.3157
  390SOL    HW1 1169   1.570   2.295   0.489  1.5583  0.7431  0.6053
  390SOL    HW2 1170   1.474   2.180   0.565  4.1137  0.6542  0.8377
  391SOL     OW 1171   1.209   2.093   1.024  0.1466 -0.3684 -0.3825
  391SOL    HW1 1172   1.292   2.052   1.060 -2.6457  3.1920 -1.6917
  391SOL    HW2 1173   1.208   2.080   0.924  0.3814  0.4504  2.9134
  392SOL     OW 1174   2.409   2.425   1.993  0.6931  1.1431 -0.1954
  392SOL    HW1 1175   2.318   2.409   1.945 -2.3708  1.8261  1.0183
  392SOL    HW2 1176   2.489   2.400   1.931  2.7978 -0.0371 -2.2644
  393SOL     OW 1177   1.509   2.003   0.064  0.3715  0.0527 -0.1727
  393SOL    HW1 1178   1.577   2.035   3.094  0.9903 -0.3132 -1.1493
  393SOL    HW2 1179   1.538   1.914   0.105  1.8004  1.2693  1.3193
  394SOL     OW 1180   0.229   0.364   2.451  0.4166  0.0748 -0.1147
  394SOL    HW1 1181   0.186   0.352   2.357  0.8881  0.9559 -0.1992
  394SOL    HW2 1182   0.301   0.438   2.446 -0.3320 -1.7952  1.3262
  395SOL     OW 1183   0.460   1.050   0.821 -0.1790  0.0547 -0.5473
  395SOL    HW1 1184   0.484   1.144   0.843  1.2007 -1.3644  0.3649
  395SOL    HW2 1185   0.514   0.982   0.876 -2.2416  1.4280 -0.6048
  396SOL     OW 1186   2.289   0.954   2.675  0.8901 -0.0041 -0.0546
  396SOL    HW1 1187   2.217   0.902   2.626  0.4094  0.2118  0.6759
  396SOL    HW2 1188   2.300   1.046   2.632  0.3146  0.2992 -1.4578
  397SOL     OW 1189   0.129   0.949   2.741  0.3315 -0.1436 -0.4130
  397SOL    HW1 1190   0.189   0.866   2.719 -1.1899 -0.3814  0.2965
  397SOL    HW2 1191   0.063   0.964   2.667  1.1768 -2.4349  2.8893
  398SOL     OW 1192   1.539   2.780   0.326 -0.1018  0.8910 -0.2089
  398SOL    HW1 1193   1.542   2.852   0.398  0.7383 -1.1365  1.7699
  398SOL    HW2 1194   1.557   2.815   0.236 -0.0127 -1.3609  1.9940
  399SOL     OW 1195   2.169   2.313   1.867  0.5614 -0.0199  0.3885
  399SOL    HW1 1196   2.108   2.284   1.947 -1.0902  0.7540  1.8003
  399SOL    HW2 1197   2.121   2.367   1.794  0.8473  1.3268 -2.8162
  400SOL     OW 1198   0.096   1.497   2.053 -0.5258  0.8039  0.3959
  400SOL    HW1 1199   0.178   1.487   1.997  2.4134 -2.4076 -0.1246
  400SOL    HW2 1200   0.054   1.590   2.039 -0.7082 -1.4791 -2.0976
  401SOL     OW 1201   0.521   0.976   0.580 -0.1416 -0.3091 -0.3512
  401SOL    HW1 1202   0.509   0.876   0.555 -0.6987 -1.4416 -3.2513
  401SOL    HW2 1203   0.489   0.994   0.675  1.2965  0.2336  0.2453
  402SOL     OW 1204   0.704   2.980   2.138 -0.0750 -0.7175  0.4745
  402SOL    HW1 1205   0.739   3.047   2.207 -0.3168 -2.9583  1.3806
  402SOL    HW2 1206   0.616   2.940   2.174 -1.5363 -1.2480 -0.0497
  403SOL     OW 1207   2.628   1.782   2.079  0.7051 -0.4646  0.1052
  403SOL    HW1 1208   2.666   1.801   2.175 -0.2481 -0.6053  0.3762
  403SOL    HW2 1209   2.616   1.871   2.032  1.4071 -0.1615 -0.1955
  404SOL     OW 1210   2.642   2.074   1.978 -0.0580 -0.6756 -0.3250
  404SOL    HW1 1211   2.626   2.098   2.076 -0.1705  0.0932 -0.9138
  404SOL    HW2 1212   2.730   2.109   1.941 -1.5555 -1.4659 -2.9587
  405SOL     OW 1213   1.963   0.144   2.588  0.0840 -0.7799  0.4287
  405SOL    HW1 1214   2.007   0.055   2.617  1.2394  1.3866 -0.2334
  405SOL    HW2 1215   1.893   0.120   2.512  1.5380 -0.5696  0.9261
  406SOL     OW 1216   1.093   2.014   0.316 -0.0421 -0.0506  0.3744
  406SOL    HW1 1217   1.147   2.050   0.237  1.6818 -1.6813  2.4345
  406SOL    HW2 1218   0.991   2.030   0.313  0.1322 -2.4344  0.0768
  407SOL     OW 1219   1.605   1.225   0.331 -0.5547  0.2746 -0.0704
  407SOL    HW1 1220   1.585   1.124   0.316  1.6783 -2.0852 -1.0837
  407SOL    HW2 1221   1.519   1.268   0.369 -0.1304 -0.4103  0.0445
  408SOL     OW 1222   0.097   0.781   1.598 -0.2563 -0.4241  0.3134
  408SOL    HW1 1223   0.168   0.736   1.652  0.0732 -0.3440  1.4157
  408SOL    HW2 1224   0.079   0.721   1.517  1.7515  0.0838  0.0520
  409SOL     OW 1225   2.978   1.345   2.910 -0.6442  0.0429  0.1326
  409SOL    HW1 1226   2.930   1.435   2.887  0.5371  0.5087 -1.1992
  409SOL    HW2 1227   3.032   1.361   2.996  0.2039 -1.2411 -0.6421
  410SOL     OW 1228   2.538   2.431   0.685  0.0169  0.3935  0.0481
  410SOL    HW1 1229   2.505   2.459   0.780 -0.0264 -0.6367  1.9777
  410SOL    HW2 1230   2.568   2.336   0.683  0.2501 -0.3434  1.3168
  411SOL     OW 1231   0.152   0.718   0.318  0.7142  0.0854 -0.2513
  411SOL    HW1 1232   0.098   0.791   0.361  3.2551 -0.3446 -1.0070
  411SOL    HW2 1233   0.093   0.653   0.268  0.7783  1.6824  0.5904
  412SOL     OW 1234   1.772   0.072   0.181 -0.2385 -0.3686  0.8225
  412SOL    HW1 1235   1.795   0.170   0.197  0.3407 -0.6278  0.4798
  412SOL    HW2 1236   1.672   0.068   0.156 -3.7434  1.3521  0.4393
  413SOL     OW 1237   1.176   0.344   1.470 -0.0693 -0.2073 -0.7631
  413SOL    HW1 1238   1.247   0.311   1.537  3.1113 -2.4117 -1.6626
  413SOL    HW2 1239   1.133   0.271   1.422 -0.1827  1.0341  0.8537
  414SOL     OW 1240   0.335   1.263   0.200 -0.3714 -0.1205 -0.3017
  414SOL    HW1 1241   0.240   1.286   0.232 -1.3805 -1.9980 -0.2777
  414SOL    HW2 1242   0.394   1.226   0.279 -0.6424 -1.8979  1.5072
  415SOL     OW 1243   2.841   1.552   0.105  0.2229 -0.2155  0.0905
  415SOL    HW1 1244   2.934   1.519   0.073  0.7294 -1.1039  0.6612
  415SOL    HW2 1245   2.833   1.570   0.209 -1.7530 -0.9088  0.3823
  416SOL     OW 1246   2.798   0.510   3.042  0.6466  0.5845  0.6399
  416SOL    HW1 1247   2.752   0.513   2.950 -1.1738 -0.4892 -2.8153
  416SOL    HW2 1248   2.784   0.595   3.098  0.4797 -0.9666 -1.4889
  417SOL     OW 1249   2.788   2.905   0.355  0.0668 -0.3588 -0.5638
  417SOL    HW1 1250   2.882   2.873   0.392  3.1056 -1.2155  4.8421
  417SOL    HW2 1251   2.740   2.842   0.295 -2.2351  2.4967  0.7042
  418SOL     OW 1252   0.314   0.293   0.040 -0.7219  0.3392 -0.6288
  418SOL    HW1 1253   0.358   0.314   0.132  0.7635  2.1618  0.2037
  418SOL    HW2 1254   0.300   0.377   3.088  0.4673 -0.0760  1.2952
  419SOL     OW 1255   0.614   0.868   0.936  0.0291 -0.0119  0.2793
  419SOL    HW1 1256   0.689   0.913   0.981 -1.0400  2.3878 -1.2362
  419SOL    HW2 1257   0.640   0.778   0.897  0.1855  5.2676  0.7010
  420SOL     OW 1258   0.277   0.549   0.879  0.2697 -0.1138 -0.7430
  420SOL    HW1 1259   0.272   0.592   0.975  0.6296 -0.1021  1.8774
  420SOL    HW2 1260   0.219   0.590   0.810 -0.0282 -1.0268  0.3914
  421SOL     OW 1261   0.594   2.193   0.260  0.3957 -0.0587  0.4602
  421SOL    HW1 1262   0.542   2.147   0.188  2.0890  1.3350  1.2839
  421SOL    HW2 1263   0.662   2.261   0.227  0.6913 -1.5262 -0.5765
  422SOL     OW 1264   2.483   0.398   2.021  0.2278  0.0009  0.2925
  422SOL    HW1 1265   2.528   0.374   2.107  0.8885  0.7430 -1.9604
  422SOL    HW2 1266   2.391   0.441   2.032 -2.7214 -0.5144 -1.1609
  423SOL     OW 1267   1.979   1.946   0.215 -0.3402 -0.3270  0.3639
  423SOL    HW1 1268   1.935   1.890   0.137 -0.1340 -0.3233  0.2128
  423SOL    HW2 1269   2.050   2.011   0.188 -0.7329  1.0653 -0.1357
  424SOL     OW 1270   1.705   1.536   2.440 -0.0517  0.3587 -0.1076
  424SOL    HW1 1271   1.743   1.480   2.363  0.1534  0.2026 -2.7344
  424SOL    HW2 1272   1.643   1.486   2.503  1.0078  1.0577 -0.8244
  425SOL     OW 1273   0.019   2.718   2.302 -0.5243 -0.6707  0.0027
  425SOL    HW1 1274   3.017   2.717   2.312 -0.1632 -0.7398  0.7346
  425SOL    HW2 1275   0.062   2.758   2.383  1.4587  0.4277  0.3466
  426SOL     OW 1276   2.318   2.722   0.406  0.2346  0.2497 -0.0022
  426SOL    HW1 1277   2.250   2.668   0.349 -2.7387  0.2257 -0.5586
  426SOL    HW2 1278   2.317   2.815   0.373 -0.7975 -1.9691 -1.1233
  427SOL     OW 1279   0.446   1.075   2.476 -0.1667 -0.5847 -0.1935
  427SOL    HW1 1280   0.444   1.169   2.520  0.6330  0.4335 -0.0510
  427SOL    HW2 1281   0.528   1.026   2.514 -0.8511  0.4615 -0.5543
  428SOL     OW 1282   2.508   1.281   2.647 -0.5125  0.1533 -0.8258
  428SOL    HW1 1283   2.556   1.194   2.666  1.7770  1.9335 -2.5678
  428SOL    HW2 1284   2.415   1.265   2.615  2.9660 -0.8146 -0.5315
  429SOL     OW 1285   2.450   0.073   0.550  0.7409 -0.0195  0.2026
  429SOL    HW1 1286   2.477   3.077   0.552 -0.1829  0.0909 -1.0270
  429SOL    HW2 1287   2.469   0.118   0.459 -1.9878 -0.0520  0.7767
  430SOL     OW 1288   1.497   1.955   2.320 -0.1634 -0.6298  0.5880
  430SOL    HW1 1289   1.536   2.042   2.281 -1.4609 -2.0733 -1.6437
  430SOL    HW2 1290   1.471   1.964   2.419  1.6195 -0.7793  0.0737
  431SOL     OW 1291   3.091   1.791   1.699  0.1733  0.2339 -0.0269
  431SOL    HW1 1292   3.032   1.773   1.613 -1.5643 -0.8794 -2.0345
  431SOL    HW2 1293   0.090   1.812   1.677  0.0503 -1.6155 -0.1316
  432SOL     OW 1294   1.226   2.265   2.550 -0.6198  0.6683 -0.2194
  432SOL    HW1 1295   1.326   2.275   2.568 -1.5923 -0.4681  2.8159
  432SOL    HW2 1296   1.199   2.249   2.450 -1.3549 -0.0362 -2.0678
  433SOL     OW 1297   0.914   2.540   0.735 -0.1274 -0.0276 -0.2669
  433SOL    HW1 1298   0.854   2.529   0.654  2.6061 -1.4046 -0.5233
  433SOL    HW2 1299   0.945   2.635   0.758  0.3372 -1.7527  0.7520
  434SOL     OW 1300   0.416   2.108   2.428  0.3016  0.0045  0.3052
  434SOL    HW1 1301   0.366   2.180   2.479 -1.5955  1.0847 -0.2032
  434SOL    HW2 1302   0.358   2.087   2.341 -0.0012  0.0505 -1.8572
  435SOL     OW 1303   0.407   1.473   0.740 -0.7499  1.0957 -0.1702
  435SOL    HW1 1304   0.438   1.522   0.656 -1.0931 -1.5424 -2.4081
  435SOL    HW2 1305   0.340   1.529   0.799  0.9531  3.7976  2.1362
  436SOL     OW 1306   0.426   2.332   1.782 -0.3350  0.1513  0.7427
  436SOL    HW1 1307   0.354   2.339   1.706 -1.5666 -1.3028 -2.6372
  436SOL    HW2 1308   0.423   2.235   1.820  0.2618  2.4822  0.5046
  437SOL     OW 1309   1.097   0.586   0.539 -0.1662  0.2534  0.2046
  437SOL    HW1 1310   1.014   0.537   0.504  0.8694 -1.5548  0.5333
  437SOL    HW2 1311   1.112   0.672   0.489  1.5337 -2.5854  2.7823
  438SOL     OW 1312   0.295   2.213   0.969 -0.0045 -0.1206  0.2026
  438SOL    HW1 1313   0.232   2.296   0.973  0.2005  1.0745 -2.8593
  438SOL    HW2 1314   0.309   2.163   1.056 -0.5702 -0.9666 -0.0583
  439SOL     OW 1315   0.947   2.736   1.887  0.6875  0.0072 -0.2250
  439SOL    HW1 1316   0.876   2.685   1.944  0.1103  0.5722 -0.7902
  439SOL    HW2 1317   0.910   2.736   1.792  0.9342 -2.7465  1.9081
  440SOL     OW 1318   1.538   0.143   1.536 -0.2896 -0.0734 -0.2314
  440SOL    HW1 1319   1.574   0.052   1.510 -1.2303  0.0593 -3.3353
  440SOL    HW2 1320   1.606   0.215   1.513  0.5897  0.8195 -2.4221
  441SOL     OW 1321   0.431   0.123   1.585  0.2535  0.1133 -0.2497
  441SOL    HW1 1322   0.431   0.041   1.526 -0.6410 -0.1295 -0.1454
  441SOL    HW2 1323   0.407   0.110   1.684 -0.2809 -0.3422  1.0001
  442SOL     OW 1324   2.039   1.986   0.487  0.4019  0.3034  0.0935
  442SOL    HW1 1325   2.054   1.953   0.392 -0.8406 -1.0713  1.3715
  442SOL    HW2 1326   1.985   2.074   0.496  0.4733  2.1195 -0.4836
  443SOL     OW 1327   2.508   0.337   2.344  0.0457  0.3479  0.4260
  443SOL    HW1 1328   2.564   0.274   2.402  0.1114 -1.7053  0.7329
  443SOL    HW2 1329   2.416   0.293   2.323 -3.7444 -2.1784  2.4015
  444SOL     OW 1330   2.144   0.996   1.690  0.3173 -0.1201  0.0729
  444SOL    HW1 1331   2.198   1.057   1.752  2.1291 -0.1948 -1.1809
  444SOL    HW2 1332   2.106   0.919   1.747  1.5473 -1.8817  1.1243
  445SOL     OW 1333   2.812   2.007   1.735  0.1047 -0.4830 -0.1066
  445SOL    HW1 1334   2.801   1.911   1.759  1.0998 -0.0149 -3.0879
  445SOL    HW2 1335   2.884   2.059   1.784 -1.8355  0.1974 -2.4478
  446SOL     OW 1336   2.968   1.411   0.752 -0.5084  0.0009  0.3266
  446SOL    HW1 1337   3.023   1.322   0.744  2.5599  0.6842  1.7831
  446SOL    HW2 1338   2.914   1.422   0.665 -2.7604  0.0388 -1.4341
  447SOL     OW 1339   1.253   1.728   0.662  0.1369 -0.1781 -0.3040
  447SOL    HW1 1340   1.187   1.758   0.732 -1.7416 -1.1431 -2.7868
  447SOL    HW2 1341   1.214   1.742   0.568  1.9955  2.7356  1.2349
  448SOL     OW 1342   1.430   1.349   1.557 -0.1507  0.0763 -0.6733
  448SOL    HW1 1343   1.487   1.374   1.635 -3.4421 -2.9417 -0.8882
  448SOL    HW2 1344   1.469   1.370   1.467  1.6297  2.0155 -2.9069
  449SOL     OW 1345   0.666   1.392   2.996 -0.0872 -0.0535 -0.4662
  449SOL    HW1 1346   0.572   1.399   3.037 -1.9338  1.3967  1.6572
  449SOL    HW2 1347   0.667   1.395   2.895  0.0816  2.1130  1.9682
  450SOL     OW 1348   2.284   2.153   2.146  0.7022  0.3265  0.2860
  450SOL    HW1 1349   2.316   2.139   2.051 -0.6463  1.3276 -0.6335
  450SOL    HW2 1350   2.305   2.254   2.167 -0.5409 -0.5472  0.3862
  451SOL     OW 1351   1.974   3.004   2.296  0.1795 -0.6364 -0.3561
  451SOL    HW1 1352   2.065   3.008   2.346 -1.0588  3.5184  1.7918
  451SOL    HW2 1353   1.930   3.100   2.300 -0.0302  3.5965  1.8752
  452SOL     OW 1354   1.032   0.077   1.431  0.3959  0.1810  0.3273
  452SOL    HW1 1355   1.053   3.092   1.381  0.6364 -0.5509 -0.2036
  452SOL    HW2 1356   0.934   0.100   1.416  0.1529 -2.0617  0.0530
  453SOL     OW 1357   1.100   1.159   0.875  0.0307 -0.2076 -0.1412
  453SOL    HW1 1358   1.058   1.078   0.835  0.9809  2.3375 -0.9579
  453SOL    HW2 1359   1.115   1.226   0.796  1.8367  0.7266  1.3051
  454SOL     OW 1360   0.591   1.299   0.840  0.5479  0.0090 -0.6287
  454SOL    HW1 1361   0.509   1.356   0.821  0.0050  0.8658 -1.6756
  454SOL    HW2 1362   0.624   1.315   0.934  0.2911  0.7904  3.1988
  455SOL     OW 1363   2.925   2.992   2.819 -0.1146 -0.9014 -0.0671
  455SOL    HW1 1364   2.883   2.933   2.883  3.2884  0.2089 -1.2964
  455SOL    HW2 1365   2.905   3.088   2.839 -0.9939 -3.8363  0.7068
  456SOL     OW 1366   2.690   2.237   1.179 -0.2447 -0.1134 -0.2628
  456SOL    HW1 1367   2.681   2.291   1.270 -3.4743  3.6381  1.1848
  456SOL    HW2 1368   2.782   2.253   1.145 -0.8544  0.4134  0.8550
  457SOL     OW 1369   1.474   0.105   0.169 -0.0152  0.0499 -0.0107
  457SOL    HW1 1370   1.443   0.176   0.098  0.4496 -2.6446 -1.4435
  457SOL    HW2 1371   1.482   0.153   0.260 -0.9565 -0.2240 -0.8587
  458SOL     OW 1372   2.782   0.057   0.436  0.1284 -0.6301 -0.5155
  458SOL    HW1 1373   2.791   0.074   0.537 -1.6953  1.3939  0.5305
  458SOL    HW2 1374   2.800   3.061   0.416  2.6065 -1.1040  1.4027
  459SOL     OW 1375   2.037   0.432   2.603  0.0606  0.2637 -0.2214
  459SOL    HW1 1376   2.118   0.390   2.652  0.1374  1.6622  3.2135
  459SOL    HW2 1377   1.988   0.351   2.559  0.7579  1.9873 -3.7847
  460SOL     OW 1378   2.879   0.144   2.853  0.3426  0.3296 -0.2117
  460SOL    HW1 1379   2.926   0.203   2.922  0.7587  2.2997 -0.4983
  460SOL    HW2 1380   2.785   0.169   2.833  0.2211  1.0474 -0.2903
  461SOL     OW 1381   0.826   1.750   1.137 -0.0534 -0.4002  0.3585
  461SOL    HW1 1382   0.869   1.695   1.215  0.5131 -0.1511  0.8614
  461SOL    HW2 1383   0.844   1.711   1.045 -1.0733  1.0739 -0.7139
  462SOL     OW 1384   2.445   2.995   1.612 -0.1356  0.1895  0.3212
  462SOL    HW1 1385   2.413   2.925   1.680 -3.1667 -0.8933 -0.9331
  462SOL    HW2 1386   2.501   3.068   1.656  1.7328 -1.9212  1.9988
  463SOL     OW 1387   3.013   1.122   0.265 -0.1188  0.1153  0.3044
  463SOL    HW1 1388   2.923   1.158   0.269  3.8618 -0.0498  1.6809
  463SOL    HW2 1389   3.081   1.191   0.229  1.0760  2.7805 -2.5709
  464SOL     OW 1390   3.021   2.655   1.182  0.2301 -0.4640 -0.6545
  464SOL    HW1 1391   2.963   2.647   1.100 -0.1147 -0.9468 -1.2682
  464SOL    HW2 1392   2.971   2.626   1.269 -1.9261 -1.0891  2.5641
  465SOL     OW 1393   0.486   1.592   0.506 -0.2357  0.3049  0.5216
  465SOL    HW1 1394   0.433   1.582   0.422  0.8052 -0.3105  1.9638
  465SOL    HW2 1395   0.542   1.679   0.498  2.2686 -0.0570  0.7670
  466SOL     OW 1396   0.978   0.419   2.642 -0.2764  0.2683 -0.1178
  466SOL    HW1 1397   0.997   0.353   2.719 -0.0783 -0.2550  0.9514
  466SOL    HW2 1398   1.004   0.511   2.673 -0.5530 -2.0795  0.1746
  467SOL     OW 1399   0.843   0.639   2.363 -0.8161 -0.4624 -0.4870
  467SOL    HW1 1400   0.845   0.700   2.282 -2.3297 -0.3147 -2.0672
  467SOL    HW2 1401   0.879   0.547   2.354  2.0075  1.3496 -0.9565
  468SOL     OW 1402   0.431   0.933   2.227  1.2469  0.8278 -0.4157
  468SOL    HW1 1403   0.363   0.863   2.255 -1.2720 -0.0878 -1.0459
  468SOL    HW2 1404   0.453   0.989   2.307 -2.6281 -0.2999 -0.2018
  469SOL     OW 1405   0.152   2.189   0.308 -0.3121 -0.8422  0.3209
  469SOL    HW1 1406   0.236   2.142   0.276  1.6331  1.7816  1.0944
  469SOL    HW2 1407   0.068   2.133   0.296 -2.3721  3.0093 -0.0376
  470SOL     OW 1408   2.950   1.994   2.853 -0.3168 -0.0263 -0.3940
  470SOL    HW1 1409   2.908   2.007   2.945 -0.6918  2.3419  0.1887
  470SOL    HW2 1410   2.914   2.057   2.779 -0.9891  0.7103  0.3112
  471SOL     OW 1411   1.902   0.462   2.159 -0.0976 -0.0553  0.2196
  471SOL    HW1 1412   1.863   0.557   2.135  2.9018  3.7543  2.6102
  471SOL    HW2 1413   1.836   0.384   2.143 -2.2223 -0.9896 -2.1306
  472SOL     OW 1414   0.852   2.574   1.303  0.1318 -0.0770  0.0785
  472SOL    HW1 1415   0.787   2.512   1.351 -1.4916 -0.9483 -0.5862
  472SOL    HW2 1416   0.847   2.567   1.198  0.2421 -0.8675 -2.0317
  473SOL     OW 1417   0.820   3.076   2.549 -0.3877  0.1002  0.2275
  473SOL    HW1 1418   0.919   3.092   2.568 -2.2195 -4.4119 -1.8002
  473SOL    HW2 1419   0.767   3.073   2.633  1.3155 -1.0652  0.2301
  474SOL     OW 1420   2.144   2.958   1.768  0.1576 -0.4531 -0.2561
  474SOL    HW1 1421   2.184   2.886   1.708  1.0884  0.2815  1.2716
  474SOL    HW2 1422   2.130   2.931   1.868  1.4499  1.8500  2.8099
  475SOL     OW 1423   1.702   0.244   0.972  0.2696 -0.2122  0.0941
  475SOL    HW1 1424   1.697   0.165   0.907 -0.0940  0.6832  0.9534
  475SOL    HW2 1425   1.721   0.335   0.930 -2.2192  0.8765  0.0377
  476SOL     OW 1426   0.582   0.599   0.864  0.9168  0.8513 -0.0057
  476SOL    HW1 1427   0.483   0.616   0.860 -0.9617  0.3478 -0.4557
  476SOL    HW2 1428   0.612   0.578   0.960  1.2973  1.2391  1.7372
  477SOL     OW 1429   1.370   2.589   0.774  0.0239 -0.1781  0.0480
  477SOL    HW1 1430   1.436   2.536   0.832  2.3640  1.7141 -0.0095
  477SOL    HW2 1431   1.307   2.533   0.716  1.3668 -0.8172 -2.3155
  478SOL     OW 1432   0.258   2.362   2.552  0.1920  0.1167 -0.4281
  478SOL    HW1 1433   0.216   2.450   2.585 -1.2465  0.0137  2.2428
  478SOL    HW2 1434   0.316   2.379   2.468 -0.2543  1.6352 -0.7371
  479SOL     OW 1435   2.736   0.210   1.125  0.0937  0.2061  0.0228
  479SOL    HW1 1436   2.687   0.293   1.157  0.2008  0.7468 -0.3040
  479SOL    HW2 1437   2.821   0.199   1.180  0.6232  0.8779 -1.5826
  480SOL     OW 1438   0.046   2.711   0.262 -0.0534  0.0912  0.5783
  480SOL    HW1 1439   0.017   2.772   0.339  2.0411 -1.3013 -2.0179
  480SOL    HW2 1440   0.024   2.612   0.277  2.2022 -0.3747  1.7153
  481SOL     OW 1441   2.469   2.169   1.509 -0.1008  0.3446  0.5478
  481SOL    HW1 1442   2.475   2.073   1.480  1.1559  1.0265 -1.3328
  481SOL    HW2 1443   2.390   2.215   1.464  1.2407 -0.6685 -1.1356
  482SOL     OW 1444   1.090   2.545   2.951  0.5895 -0.3790  0.0837
  482SOL    HW1 1445   1.108   2.521   2.858 -0.4829  1.1724  2.3431
  482SOL    HW2 1446   1.020   2.626   2.947 -2.1787  0.3111  2.4834
  483SOL     OW 1447   0.398   2.393   2.330 -0.2505 -0.3461 -0.4648
  483SOL    HW1 1448   0.322   2.360   2.271  1.0172 -1.1444 -0.9538
  483SOL    HW2 1449   0.482   2.398   2.278  0.2616 -1.4626  0.2825
  484SOL     OW 1450   1.349   0.545   1.478 -0.1637 -0.3485  0.2961
  484SOL    HW1 1451   1.348   0.560   1.583  2.1333  1.0700  0.0092
  484SOL    HW2 1452   1.283   0.476   1.438  0.5618 -0.8025 -0.8572
  485SOL     OW 1453   2.025   0.945   2.463 -0.1184 -1.0379  0.2047
  485SOL    HW1 1454   2.094   0.903   2.398 -2.3031 -1.5604 -0.1765
  485SOL    HW2 1455   1.951   0.988   2.412  1.7688  1.0768  0.1313
  486SOL     OW 1456   2.317   3.057   0.962  0.7277  0.1378 -0.2325
  486SOL    HW1 1457   2.239   2.995   0.991 -1.4978 -1.5706 -1.2048
  486SOL    HW2 1458   2.395   3.004   0.915  1.7178 -1.1061  1.9468
  487SOL     OW 1459   0.793   2.285   1.759  0.5567 -0.2748 -0.0627
  487SOL    HW1 1460   0.707   2.327   1.715  0.0374 -0.5867 -2.1326
  487SOL    HW2 1461   0.868   2.273   1.691 -2.5125 -0.7345 -0.4708
  488SOL     OW 1462   2.486   1.448   2.885 -0.1268  0.2113 -0.0059
  488SOL    HW1 1463   2.491   1.367   2.822 -0.2908 -0.3737 -0.5753
  488SOL    HW2 1464   2.531   1.418   2.973  3.1497 -0.5313  1.0429
  489SOL     OW 1465   2.178   0.245   0.967  0.1725  0.2706 -0.1507
  489SOL    HW1 1466   2.114   0.283   0.900 -1.6179 -0.6689 -1.7674
  489SOL    HW2 1467   2.183   0.149   0.948 -2.1901  1.2336 -0.4553
  490SOL     OW 1468   1.088   1.339   0.137  0.4810 -0.1551  0.1143
  490SOL    HW1 1469   1.142   1.332   0.051 -1.4601  0.4320  0.3425
  490SOL    HW2 1470   0.989   1.367   0.119 -1.6473  0.9803  0.5626
  491SOL     OW 1471   0.507   2.233   1.453  0.2588  0.3261 -0.6286
  491SOL    HW1 1472   0.405   2.222   1.438  1.3953 -0.0090 -0.2203
  491SOL    HW2 1473   0.548   2.140   1.471 -0.0913 -2.1901 -1.2165
  492SOL     OW 1474   1.145   1.710   1.928  0.2260  0.7788  0.4839
  492SOL    HW1 1475   1.188   1.629   1.884 -0.5650  2.0502 -0.3584
  492SOL    HW2 1476   1.174   1.799   1.890 -2.3905 -3.4880 -1.3138
  493SOL     OW 1477   2.925   2.295   1.116  0.3266 -0.4951 -0.2963
  493SOL    HW1 1478   2.983   2.364   1.166 -0.6763  3.5087 -0.8781
  493SOL    HW2 1479   2.967   2.264   1.025 -0.1254 -0.8279 -2.1532
  494SOL     OW 1480   3.094   2.144   0.542  0.1554 -0.0582 -0.3069
  494SOL    HW1 1481   3.047   2.073   0.599  0.3647  3.0449  0.1221
  494SOL    HW2 1482   3.045   2.155   0.451 -3.1098 -0.1539 -0.5441
  495SOL     OW 1483   2.843   2.785   2.994  0.1872  0.1297 -0.6652
  495SOL    HW1 1484   2.813   2.687   3.009 -0.3661  0.0474 -2.1191
  495SOL    HW2 1485   2.909   2.807   3.062 -1.6901 -3.3608 -2.6831
  496SOL     OW 1486   2.336   0.286   1.332 -0.2785 -0.2863 -0.3229
  496SOL    HW1 1487   2.365   0.308   1.238  0.0616  0.0078 -1.5080
  496SOL    HW2 1488   2.327   0.373   1.385 -1.9841  1.7134  0.6636
  497SOL     OW 1489   2.878   1.094   2.943 -0.1814 -1.1149 -0.0926
  497SOL    HW1 1490   2.962   1.044   2.962 -2.6886  2.2348  1.0358
  497SOL    HW2 1491   2.903   1.191   2.925  0.4330 -0.7647  1.1945
  498SOL     OW 1492   2.960   1.552   1.823  0.1596  0.5551 -0.3387
  498SOL    HW1 1493   3.006   1.532   1.913 -2.6129 -0.0737 -0.5986
  498SOL    HW2 1494   3.017   1.614   1.768 -0.2102  0.6962 -0.6051
  499SOL     OW 1495   0.719   2.508   2.772 -0.0167 -0.0163 -0.0969
  499SOL    HW1 1496   0.709   2.535   2.670 -0.5384  3.3812 -1.4789
  499SOL    HW2 1497   0.632   2.491   2.815  1.3503 -1.0162 -0.5520
  500SOL     OW 1498   1.946   0.567   2.872 -0.5712  0.5277  0.1216
  500SOL    HW1 1499   2.027   0.621   2.898 -0.4553 -1.7120 -0.4524
  500SOL    HW2 1500   1.964   0.524   2.783 -1.5040 -1.6518  0.7913
  501SOL     OW 1501   1.354   0.280   1.679  0.2099 -0.0721 -0.4907
  501SOL    HW1 1502   1.380   0.378   1.705  3.2819 -1.1270  4.2478
  501SOL    HW2 1503   1.439   0.227   1.662  0.7023  0.3274  1.7272
  502SOL     OW 1504   2.474   0.737   1.661  0.1901  0.1664 -0.1022
  502SOL    HW1 1505   2.466   0.640   1.667  0.2216  2.7935 -2.2729
  502SOL    HW2 1506   2.390   0.777   1.619 -1.9934 -2.1976  0.6968
  503SOL     OW 1507   2.244   1.823   2.078 -0.2081 -0.4794  0.1600
  503SOL    HW1 1508   2.308   1.871   2.140 -0.3240  0.2302 -1.9594
  503SOL    HW2 1509   2.176   1.886   2.035  0.5173 -1.3206  0.0047
  504SOL     OW 1510   1.476   0.980   1.418 -0.2469 -0.5232  0.6359
  504SOL    HW1 1511   1.396   1.029   1.466 -0.4001 -1.6688 -0.3839
  504SOL    HW2 1512   1.454   0.883   1.392 -0.4785  0.1324 -1.8292
  505SOL     OW 1513   0.649   0.626   1.580  0.0338  0.4868 -0.1325
  505SOL    HW1 1514   0.717   0.665   1.645 -1.9076 -1.4287 -0.2311
  505SOL    HW2 1515   0.663   0.524   1.589  1.4921  1.1968 -1.7300
  506SOL     OW 1516   0.461   0.229   2.799 -0.0088 -0.4439  0.3217
  506SOL    HW1 1517   0.469   0.215   2.900 -1.0968 -1.8371 -1.0918
  506SOL    HW2 1518   0.553   0.229   2.760 -0.2957 -2.2528 -0.3270
  507SOL     OW 1519   0.094   0.105   0.394 -0.3072 -0.2310 -0.1659
  507SOL    HW1 1520   0.074   0.202   0.412  2.1059  2.3711 -0.4462
  507SOL    HW2 1521   0.196   0.095   0.393 -0.5099  2.8017  0.1040
  508SOL     OW 1522   0.816   0.719   1.801 -0.0128 -0.0995 -0.0698
  508SOL    HW1 1523   0.879   0.780   1.754 -1.0620 -1.6326 -1.5423
  508SOL    HW2 1524   0.865   0.654   1.863  2.2174 -0.3221 -1.6726
  509SOL     OW 1525   1.562   2.192   1.025 -0.0095 -0.7587 -0.1642
  509SOL    HW1 1526   1.540   2.125   1.103 -0.8029 -0.3285  1.0225
  509SOL    HW2 1527   1.492   2.180   0.951 -4.3858  1.1513  0.1024
  510SOL     OW 1528   2.491   1.390   1.760 -0.2932  0.2635  0.7087
  510SOL    HW1 1529   2.496   1.382   1.658  0.8266  0.8540 -1.2237
  510SOL    HW2 1530   2.500   1.489   1.794 -2.0580  1.4382  1.5805
  511SOL     OW 1531   1.021   2.196   1.607 -0.1669 -0.1266  0.5002
  511SOL    HW1 1532   1.098   2.165   1.539 -0.5474 -2.2959  1.4228
  511SOL    HW2 1533   0.977   2.111   1.645 -3.8431 -1.7918 -0.6874
  512SOL     OW 1534   2.963   1.664   0.839  0.5230 -0.3329  0.0029
  512SOL    HW1 1535   2.985   1.572   0.800  1.2567 -0.8927 -0.0064
  512SOL    HW2 1536   3.051   1.694   0.873  2.1919 -2.3419  0.2054
  513SOL     OW 1537   0.108   1.716   2.746  0.2090 -0.1330 -0.2422
  513SOL    HW1 1538   0.183   1.786   2.747 -0.2292 -2.0151  0.5362
  513SOL    HW2 1539   0.116   1.635   2.802  0.3923  5.1676  0.5082
  514SOL     OW 1540   2.736   2.301   2.297 -0.2854 -0.2066 -0.9354
  514SOL    HW1 1541   2.822   2.246   2.317 -1.8256  0.3487 -2.8159
  514SOL    HW2 1542   2.743   2.354   2.212 -2.0299 -3.1337  3.0506
  515SOL     OW 1543   2.453   1.065   0.676  0.5098  0.5121  0.6578
  515SOL    HW1 1544   2.451   0.970   0.709 -0.4640 -0.3961  1.7799
  515SOL    HW2 1545   2.500   1.126   0.740 -1.4079 -0.3119 -2.5271
  516SOL     OW 1546   2.491   1.794   3.017 -0.4302  0.2548  0.1420
  516SOL    HW1 1547   2.435   1.721   3.060 -1.6956  1.0267 -0.2509
  516SOL    HW2 1548   2.590   1.778   3.022 -2.6840 -1.0181 -4.6834
  517SOL     OW 1549   0.580   1.095   2.785  0.5862 -0.0802 -0.2229
  517SOL    HW1 1550   0.639   1.025   2.741 -1.0601 -1.8611  3.9364
  517SOL    HW2 1551   0.626   1.186   2.775 -0.9936  0.3755 -3.8047
  518SOL     OW 1552   2.732   0.151   2.433  0.5051 -0.0399 -0.4854
  518SOL    HW1 1553   2.816   0.194   2.399 -1.3033 -1.1214 -0.1353
  518SOL    HW2 1554   2.725   0.053   2.404 -0.1658  0.6739  2.7431
  519SOL     OW 1555   1.428   1.499   2.879 -0.0244 -0.2929  0.0526
  519SOL    HW1 1556   1.337   1.470   2.915 -0.4291  0.6110  0.6415
  519SOL    HW2 1557   1.485   1.546   2.946 -0.4417 -2.0848 -1.0285
  520SOL     OW 1558   2.861   2.729   2.301 -0.8322  0.6835  0.6231
  520SOL    HW1 1559   2.806   2.766   2.222 -0.0020  1.8283  1.9703
  520SOL    HW2 1560   2.810   2.657   2.351  0.5487 -1.3375 -0.6641
  521SOL     OW 1561   0.656   1.547   2.103  0.3205  0.2059 -0.1646
  521SOL    HW1 1562   0.693   1.548   2.200 -0.0817  1.6725  0.2393
  521SOL    HW2 1563   0.583   1.475   2.093 -1.6759 -0.4902 -1.7834
  522SOL     OW 1564   1.044   2.918   2.091  0.0967 -0.4540  0.9067
  522SOL    HW1 1565   0.997   2.863   2.017  1.0837 -0.2690 -1.4971
  522SOL    HW2 1566   1.029   3.020   2.089  0.2796  0.4734 -0.0594
  523SOL     OW 1567   2.819   2.327   1.543  0.3280  0.2708 -0.2658
  523SOL    HW1 1568   2.775   2.354   1.453  1.5999 -2.1527  0.3052
  523SOL    HW2 1569   2.753   2.275   1.597  1.4793  2.2863 -1.8059
  524SOL     OW 1570   1.646   2.538   0.547  0.1464  0.6134  0.3832
  524SOL    HW1 1571   1.591   2.538   0.633 -1.5403  0.0388 -0.9603
  524SOL    HW2 1572   1.678   2.443   0.516  1.1349 -1.5867  1.0020
  525SOL     OW 1573   2.680   0.598   0.976 -0.3989  0.4632 -0.4598
  525SOL    HW1 1574   2.641   0.689   1.007  0.2759  2.9462 -0.0666
  525SOL    HW2 1575   2.611   0.553   0.917  1.6432  0.7038  0.0467
  526SOL     OW 1576   1.409   2.627   1.113 -0.5378  0.1838 -0.0151
  526SOL    HW1 1577   1.430   2.544   1.163 -3.4942  0.4365 -2.5049
  526SOL    HW2 1578   1.489   2.649   1.053 -0.5842 -1.3757 -1.0778
  527SOL     OW 1579   2.463   2.175   1.011 -0.2317  0.3672  0.3718
  527SOL    HW1 1580   2.512   2.225   1.080 -1.3564 -1.6267  0.5559
  527SOL    HW2 1581   2.513   2.084   0.991 -1.0333 -1.5120 -1.8171
  528SOL     OW 1582   2.088   3.000   2.632  0.0323  0.3466  0.0536
  528SOL    HW1 1583   2.017   2.933   2.660 -1.7764  0.8939  1.4476
  528SOL    HW2 1584   2.174   2.983   2.682 -0.1270 -0.4703  1.7042
  529SOL     OW 1585   1.414   1.711   2.253 -0.4216 -0.2939 -0.2943
  529SOL    HW1 1586   1.439   1.806   2.268 -0.8082 -2.6001 -2.8107
  529SOL    HW2 1587   1.484   1.665   2.196 -2.2555  1.7318  0.6146
  530SOL     OW 1588   2.221   1.125   2.284 -0.5127 -0.1974 -0.0846
  530SOL    HW1 1589   2.315   1.157   2.257  1.6965  1.2445 -2.1159
  530SOL    HW2 1590   2.210   1.036   2.239  1.0017 -1.8553 -2.3118
  531SOL     OW 1591   0.512   0.844   2.912  0.1504  0.2682  0.5127
  531SOL    HW1 1592   0.499   0.909   2.834 -0.1815 -0.0983  1.1969
  531SOL    HW2 1593   0.492   0.890   2.999  1.7276  1.0153 -2.0572
  532SOL     OW 1594   1.537   1.644   0.620  0.0358  0.1544 -0.2429
  532SOL    HW1 1595   1.626   1.633   0.672  2.1351  0.0816  1.6165
  532SOL    HW2 1596   1.460   1.650   0.681  3.2794 -0.3446 -0.7691
  533SOL     OW 1597   0.230   0.577   2.058 -0.4023 -0.0993  0.1532
  533SOL    HW1 1598   0.293   0.604   1.981 -0.4593  0.2998  0.6915
  533SOL    HW2 1599   0.242   0.641   2.140  1.4141 -0.8686 -2.0122
  534SOL     OW 1600   1.246   0.506   2.324  0.0530  0.1899 -0.2491
  534SOL    HW1 1601   1.341   0.472   2.330  0.6667  0.9930  0.6970
  534SOL    HW2 1602   1.232   0.592   2.382  0.0202  0.3834  0.3878
  535SOL     OW 1603   0.664   0.461   0.224 -0.1739 -0.5757 -0.3327
  535SOL    HW1 1604   0.579   0.400   0.239 -4.0689 -1.9424 -0.0235
  535SOL    HW2 1605   0.641   0.541   0.166  3.6475  1.0022 -1.6271
  536SOL     OW 1606   0.860   0.314   3.078  0.5358  0.0917  0.3530
  536SOL    HW1 1607   0.913   0.369   0.042 -0.5309  0.1106  0.1787
  536SOL    HW2 1608   0.813   0.238   0.017  2.4914  0.7624 -3.2618
  537SOL     OW 1609   1.320   3.075   1.529 -0.3677 -0.4852  0.3880
  537SOL    HW1 1610   1.239   0.017   1.564 -0.2754 -0.1191  0.3989
  537SOL    HW2 1611   1.404   0.017   1.571  2.7218  2.9123  0.4972
  538SOL     OW 1612   0.413   2.849   0.073  0.1783  0.0860 -0.1166
  538SOL    HW1 1613   0.364   2.858   3.083 -0.2735  1.0362 -2.6484
  538SOL    HW2 1614   0.376   2.778   0.138 -0.9951 -1.3423 -0.9194
  539SOL     OW 1615   2.700   1.189   1.886 -0.2601 -0.2616 -0.3445
  539SOL    HW1 1616   2.731   1.155   1.795 -0.0619 -0.1605  0.9873
  539SOL    HW2 1617   2.632   1.269   1.871 -1.9577  0.8929  1.6489
  540SOL     OW 1618   2.111   1.987   1.526 -0.0841 -0.2302 -0.2873
  540SOL    HW1 1619   2.208   1.989   1.553 -0.8019  2.4367  0.6845
  540SOL    HW2 1620   2.060   1.934   1.593 -1.6960  1.8514 -2.6273
  541SOL     OW 1621   0.580   2.529   1.710  0.0174  0.1808 -0.4136
  541SOL    HW1 1622   0.520   2.447   1.722 -1.6843  0.3168 -0.3096
  541SOL    HW2 1623   0.567   2.592   1.788 -0.7869  2.0604 -1.6516
  542SOL     OW 1624   2.465   0.815   1.986 -0.3006 -0.0962  0.1536
  542SOL    HW1 1625   2.509   0.769   1.903 -0.7659  1.3928 -1.6697
  542SOL    HW2 1626   2.371   0.793   2.016 -0.1364  1.1159 -0.2307
  543SOL     OW 1627   1.035   0.500   0.813  0.4659  0.0058 -0.4701
  543SOL    HW1 1628   1.056   0.532   0.719  1.4908  0.6372  0.3434
  543SOL    HW2 1629   0.999   0.574   0.874  0.4606  0.8580 -0.2469
  544SOL     OW 1630   2.219   2.021   1.210 -0.3885  0.2118  0.4146
  544SOL    HW1 1631   2.210   2.102   1.274 -2.6802  0.3793  0.2670
  544SOL    HW2 1632   2.218   1.929   1.249 -1.5278  0.2918 -1.2671
  545SOL     OW 1633   1.463   1.392   1.190 -0.3112  0.3658 -0.5531
  545SOL    HW1 1634   1.469   1.315   1.124 -0.4186 -0.4804 -0.1291
  545SOL    HW2 1635   1.550   1.389   1.243 -1.3432 -0.5269 -0.4696
  546SOL     OW 1636   0.061   3.092   2.870 -0.1345 -0.5720  0.0645
  546SOL    HW1 1637   3.071   3.048   2.857 -0.6021  0.3719 -2.9263
  546SOL    HW2 1638   0.066   0.053   2.953 -0.5698 -0.2490  0.0919
  547SOL     OW 1639   2.296   0.398   2.708  0.2960 -0.2300 -0.3218
  547SOL    HW1 1640   2.299   0.369   2.806  1.1019  1.4626 -0.5296
  547SOL    HW2 1641   2.344   0.486   2.698 -0.1090  0.8631  2.3610
  548SOL     OW 1642   2.559   2.088   2.445 -0.0389 -0.6296  0.0668
  548SOL    HW1 1643   2.623   2.029   2.503  0.2944 -0.9706  3.2743
  548SOL    HW2 1644   2.601   2.180   2.428  2.2617  0.2239 -0.1626
  549SOL     OW 1645   2.392   0.272   0.742 -0.5880  0.3454 -0.7059
  549SOL    HW1 1646   2.481   0.234   0.782 -0.9480  2.6513  1.9865
  549SOL    HW2 1647   2.360   0.205   0.673  1.6164  1.0637  2.2272
  550SOL     OW 1648   2.717   1.070   0.083  0.2529  0.4744  0.3172
  550SOL    HW1 1649   2.777   1.104   0.007  0.1344 -0.4544 -0.3963
  550SOL    HW2 1650   2.615   1.083   0.064  0.4648 -0.7200  0.1450
  551SOL     OW 1651   1.284   2.550   1.418 -0.1424 -0.1465 -0.0034
  551SOL    HW1 1652   1.229   2.466   1.407  0.5461  0.9443 -1.4108
  551SOL    HW2 1653   1.362   2.542   1.352  1.9633 -3.0124  0.7900
  552SOL     OW 1654   2.879   2.443   2.762 -0.9979  0.3108 -1.2368
  552SOL    HW1 1655   2.883   2.513   2.688 -0.8209 -2.0796 -2.3032
  552SOL    HW2 1656   2.820   2.465   2.835  3.6555 -0.3126 -1.0661
  553SOL     OW 1657   0.525   2.999   0.577 -0.2953 -0.2728  0.0240
  553SOL    HW1 1658   0.550   3.049   0.660  0.1871  0.2147 -0.5165
  553SOL    HW2 1659   0.610   2.997   0.519  1.0190  0.1704 -0.4608
  554SOL     OW 1660   1.759   2.134   1.910  0.6825 -0.2430  0.2195
  554SOL    HW1 1661   1.829   2.207   1.902  2.6860  0.3478  3.5656
  554SOL    HW2 1662   1.743   2.106   2.004 -2.1478  1.4772  0.8229
  555SOL     OW 1663   1.433   2.604   1.937  0.1847 -0.0161 -0.2018
  555SOL    HW1 1664   1.353   2.582   1.879  1.7093 -1.5303  0.9978
  555SOL    HW2 1665   1.390   2.663   2.008 -0.2797  2.0866 -0.1489
  556SOL     OW 1666   1.778   1.686   0.761  0.0475  0.5209 -0.1555
  556SOL    HW1 1667   1.755   1.749   0.838  0.0507  1.1829 -0.5498
  556SOL    HW2 1668   1.780   1.591   0.802 -1.1987 -2.6848 -0.0175
  557SOL     OW 1669   1.404   2.039   2.032  0.2043 -0.0245 -0.2198
  557SOL    HW1 1670   1.386   2.085   1.941  0.0200  2.8989 -2.4152
  557SOL    HW2 1671   1.489   2.070   2.078  0.4380  0.0077 -2.0486
  558SOL     OW 1672   3.063   0.734   2.399  0.0700 -0.4243  0.0716
  558SOL    HW1 1673   0.001   0.734   2.491 -0.8543  0.0701 -4.9530
  558SOL    HW2 1674   3.059   0.833   2.365  0.2216  0.2029 -0.5389
  559SOL     OW 1675   2.263   2.634   2.111  0.1794 -0.0725 -0.3245
  559SOL    HW1 1676   2.303   2.540   2.110 -2.8140  0.7505 -0.7225
  559SOL    HW2 1677   2.196   2.645   2.189 -1.1995 -1.8699  1.1974
  560SOL     OW 1678   0.316   3.015   2.939  0.3127  0.1536  0.4298
  560SOL    HW1 1679   0.381   3.077   2.988 -0.5777 -0.7693  0.9049
  560SOL    HW2 1680   0.225   3.053   2.907  0.1802  3.2488 -0.9347
  561SOL     OW 1681   1.595   0.935   0.294 -0.2077 -0.4108 -0.2803
  561SOL    HW1 1682   1.517   0.958   0.233 -0.4431  2.5259  0.1227
  561SOL    HW2 1683   1.563   0.870   0.365  0.0687  1.5735 -1.2086
  562SOL     OW 1684   0.789   1.042   2.150  0.3803  0.4380 -0.4330
  562SOL    HW1 1685   0.705   1.067   2.098 -0.3594  0.1013  3.4834
  562SOL    HW2 1686   0.818   1.120   2.206 -0.0324 -0.2661 -3.0207
  563SOL     OW 1687   1.590   2.233   0.176 -0.1593 -0.0553  0.2916
  563SOL    HW1 1688   1.557   2.138   0.171 -0.7977 -1.7129  0.6568
  563SOL    HW2 1689   1.514   2.298   0.162 -3.1391  1.2756 -0.0696
  564SOL     OW 1690   0.272   2.057   0.564  0.5451  0.3366  0.1547
  564SOL    HW1 1691   0.331   2.137   0.556  1.1067 -4.6136  1.7674
  564SOL    HW2 1692   0.175   2.080   0.539  1.2751 -3.6673 -0.2882
  565SOL     OW 1693   0.926   2.832   0.088  0.2785  0.1010  0.6817
  565SOL    HW1 1694   0.847   2.778   0.054  2.6370 -0.4600 -0.3747
  565SOL    HW2 1695   0.914   2.928   0.051  0.6139  2.6930 -0.9517
  566SOL     OW 1696   2.077   2.580   2.770 -0.0845  0.2304 -0.2775
  566SOL    HW1 1697   2.098   2.512   2.847  1.5770  1.0480  0.8412
  566SOL    HW2 1698   1.979   2.588   2.751 -0.4527  1.0798 -1.1363
  567SOL     OW 1699   2.702   1.646   0.872 -0.0086 -0.1767 -0.3601
  567SOL    HW1 1700   2.802   1.635   0.845  4.2809 -1.0280  1.0986
  567SOL    HW2 1701   2.638   1.604   0.801 -2.5915 -0.9721 -2.8067
  568SOL     OW 1702   1.957   1.127   2.691  0.2133 -0.1399  0.3504
  568SOL    HW1 1703   1.995   1.071   2.615  0.2877 -2.6098 -2.9322
  568SOL    HW2 1704   1.855   1.144   2.677 -2.2077  2.4904  1.0561
  569SOL     OW 1705   2.104   1.714   2.303 -0.2796 -0.2385 -0.2800
  569SOL    HW1 1706   2.191   1.739   2.343  0.8890 -0.5314 -1.6882
  569SOL    HW2 1707   2.114   1.708   2.199 -1.5710  1.6294 -3.0700
  570SOL     OW 1708   3.033   2.387   1.972  0.9585 -0.2717 -0.1778
  570SOL    HW1 1709   3.048   2.420   2.069  1.0196 -0.3766  2.7553
  570SOL    HW2 1710   2.996   2.464   1.914  0.7441  1.7477 -1.9930
  571SOL     OW 1711   0.337   0.110   1.841  0.3755 -0.0951  0.4176
  571SOL    HW1 1712   0.303   0.205   1.849 -2.1203  2.0986 -0.1990
  571SOL    HW2 1713   0.257   0.048   1.850 -3.0378 -0.0360 -0.5303
  572SOL     OW 1714   1.090   1.824   0.852 -0.0380  0.3505  0.0106
  572SOL    HW1 1715   1.081   1.920   0.826 -0.1252 -1.6224  1.3522
  572SOL    HW2 1716   1.141   1.804   0.936 -2.3176 -0.4179 -2.5292
  573SOL     OW 1717   1.322   0.367   0.354  0.5585  0.3702  0.4149
  573SOL    HW1 1718   1.243   0.334   0.407  2.4855 -2.1891 -0.6649
  573SOL    HW2 1719   1.313   0.459   0.318 -0.1531  1.9183  0.2431
  574SOL     OW 1720   0.368   0.086   0.350  0.2565  0.0376 -0.4428
  574SOL    HW1 1721   0.402   0.001   0.300 -2.1077 -1.0408 -0.9169
  574SOL    HW2 1722   0.419   0.092   0.438  1.2381 -1.4691  1.0784
  575SOL     OW 1723   0.487   1.467   1.216  0.2837 -0.7820  0.0499
  575SOL    HW1 1724   0.501   1.537   1.141 -1.4688 -0.4991  1.0165
  575SOL    HW2 1725   0.572   1.435   1.261 -0.6923 -0.1376 -0.0901
  576SOL     OW 1726   2.668   0.117   2.019 -0.0035 -0.0635  0.7272
  576SOL    HW1 1727   2.566   0.120   2.028 -1.2255  3.3490  1.3240
  576SOL    HW2 1728   2.707   0.206   2.039 -0.0497 -1.0419  1.6429
  577SOL     OW 1729   2.502   1.623   1.890 -0.6433  0.4039 -0.3294
  577SOL    HW1 1730   2.427   1.586   1.943  1.8984  1.3722 -2.3506
  577SOL    HW2 1731   2.563   1.672   1.961 -2.0543  2.7296 -0.3083
  578SOL     OW 1732   0.979   0.107   2.088  0.3676 -0.3086 -0.2682
  578SOL    HW1 1733   1.045   0.158   2.147 -0.1127 -0.5885 -3.0624
  578SOL    HW2 1734   0.894   0.091   2.141  1.0240 -0.8417 -2.1008
  579SOL     OW 1735   2.040   1.991   1.977 -0.0867 -0.6626  0.1681
  579SOL    HW1 1736   1.954   1.947   2.015  0.4082 -3.2223  0.0883
  579SOL    HW2 1737   2.030   2.094   1.971 -1.4477 -0.2978  1.5619
  580SOL     OW 1738   1.703   1.152   1.964 -0.1910  0.1505 -0.0846
  580SOL    HW1 1739   1.673   1.111   1.880 -1.1857  2.4126  1.1743
  580SOL    HW2 1740   1.722   1.085   2.038  1.4207  0.7514  1.4002
  581SOL     OW 1741   1.321   1.303   2.516 -0.0921 -0.1300 -0.2165
  581SOL    HW1 1742   1.247   1.363   2.473  0.6086  1.5671 -0.3226
  581SOL    HW2 1743   1.355   1.244   2.443 -2.4647 -0.2515  2.7054
  582SOL     OW 1744   0.107   2.235   1.797 -0.0800  0.5308 -0.1464
  582SOL    HW1 1745   0.187   2.187   1.834  0.5466  1.3421  2.9278
  582SOL    HW2 1746   0.065   2.287   1.877 -1.1473 -0.5803  1.3561
  583SOL     OW 1747   1.679   0.882   0.643 -0.4250 -0.0373 -0.4518
  583SOL    HW1 1748   1.778   0.877   0.668  0.5323  0.1898  0.0922
  583SOL    HW2 1749   1.654   0.829   0.558 -0.2015 -0.6006 -0.1952
  584SOL     OW 1750   0.798   2.478   0.486  0.1484  0.0189 -0.4100
  584SOL    HW1 1751   0.739   2.531   0.422  0.5205  2.6606 -3.2534
  584SOL    HW2 1752   0.888   2.468   0.443 -0.6974  0.6942 -0.9043
  585SOL     OW 1753   3.094   2.484   0.041  0.1351  0.5621 -0.0134
  585SOL    HW1 1754   3.073   2.419   3.060 -0.3182 -1.8386 -2.6182
  585SOL    HW2 1755   0.016   2.579   0.010  1.6255 -1.2440 -1.3110
  586SOL     OW 1756   2.489   1.193   0.444 -0.1333  0.6106  0.6985
  586SOL    HW1 1757   2.502   1.159   0.537 -0.9103 -0.6861 -0.2530
  586SOL    HW2 1758   2.423   1.272   0.444  0.8102 -0.1872  1.6990
  587SOL     OW 1759   3.039   1.780   0.411  0.0018 -0.6950 -0.0730
  587SOL    HW1 1760   0.038   1.775   0.435 -0.9493 -0.9533 -0.3096
  587SOL    HW2 1761   3.012   1.875   0.437 -1.3449 -0.9773  0.0666
  588SOL     OW 1762   3.063   0.491   0.721  0.0943  0.0434  0.1049
  588SOL    HW1 1763   0.002   0.582   0.706 -1.3407 -2.3109 -1.4230
  588SOL    HW2 1764   3.074   0.433   0.639 -2.4561  0.8379  0.1301
  589SOL     OW 1765   1.484   3.052   0.829  0.1223  0.6395 -0.5777
  589SOL    HW1 1766   1.443   2.994   0.904 -1.5521  1.0019  1.6362
  589SOL    HW2 1767   1.413   0.014   0.795  2.0022  0.3658  0.5231
  590SOL     OW 1768   2.431   2.198   0.355  0.0044 -0.0197 -0.6021
  590SOL    HW1 1769   2.366   2.154   0.420 -1.9350 -0.6824  0.3993
  590SOL    HW2 1770   2.441   2.300   0.374  0.7024  3.2649  0.1213
  591SOL     OW 1771   0.388   2.478   1.999 -0.0589 -0.1151  0.4049
  591SOL    HW1 1772   0.482   2.470   2.043 -1.4604 -2.6083 -2.2559
  591SOL    HW2 1773   0.401   2.425   1.910  1.8199  0.8186 -0.9097
  592SOL     OW 1774   0.480   1.351   2.093 -0.3443  0.5602 -0.6136
  592SOL    HW1 1775   0.418   1.289   2.146 -1.3652  0.8068 -2.4929
  592SOL    HW2 1776   0.442   1.350   2.000  0.8314  0.3479 -0.9245
  593SOL     OW 1777   1.544   1.681   1.657 -0.2759 -0.4779 -0.1265
  593SOL    HW1 1778   1.451   1.687   1.619  3.2176 -0.5826  0.2293
  593SOL    HW2 1779   1.547   1.727   1.747  0.4994 -0.6105 -0.3645
  594SOL     OW 1780   0.288   1.132   2.832  0.4503 -0.1991 -0.1389
  594SOL    HW1 1781   0.236   1.050   2.797  0.7741 -0.7049  0.6181
  594SOL    HW2 1782   0.383   1.117   2.800 -0.4065 -0.5109 -1.5107
  595SOL     OW 1783   1.788   0.477   0.867  0.9635 -0.4293  0.3176
  595SOL    HW1 1784   1.846   0.531   0.935  2.2968 -0.5206  0.2474
  595SOL    HW2 1785   1.692   0.509   0.879 -1.0620  2.5759 -0.6100
  596SOL     OW 1786   0.411   0.824   1.131  0.1280 -0.0101  0.3615
  596SOL    HW1 1787   0.497   0.841   1.079 -0.7865  0.3881  1.4224
  596SOL    HW2 1788   0.361   0.913   1.128  0.6268  1.1438 -2.5355
  597SOL     OW 1789   0.105   2.547   2.656  0.0851 -0.0550  0.4271
  597SOL    HW1 1790   0.009   2.568   2.650  1.7127  1.9182  0.7114
  597SOL    HW2 1791   0.150   2.604   2.729  0.6790 -2.9330 -0.6653
  598SOL     OW 1792   2.114   2.305   2.521  0.2706 -0.2501 -0.9109
  598SOL    HW1 1793   2.151   2.338   2.429  2.1114  2.4864 -0.4032
  598SOL    HW2 1794   2.195   2.301   2.585 -0.2087  2.9434 -2.2036
  599SOL     OW 1795   1.310   1.045   0.446  0.1589 -0.5765 -0.0300
  599SOL    HW1 1796   1.265   1.136   0.425 -1.0702  1.1178  0.8241
  599SOL    HW2 1797   1.387   1.056   0.510 -0.2869  2.6514 -0.8629
  600SOL     OW 1798   1.155   0.053   0.564  0.2466 -0.4281 -0.2321
  600SOL    HW1 1799   1.118   0.151   0.545 -1.0166 -0.1768 -0.5962
  600SOL    HW2 1800   1.219   0.016   0.494 -1.2721  1.9797 -1.3174
  601SOL     OW 1801   0.623   0.326   1.553 -0.2544  0.2028 -0.5373
  601SOL    HW1 1802   0.555   0.268   1.599  1.0191  1.2351 -0.5039
  601SOL    HW2 1803   0.574   0.378   1.478  0.0558  2.0955  2.1916
  602SOL     OW 1804   0.123   2.715   0.689  0.0251  0.4985 -0.4361
  602SOL    HW1 1805   0.206   2.660   0.663  1.0238 -0.0642 -1.1159
  602SOL    HW2 1806   0.044   2.652   0.717 -2.4636 -0.6445  1.2710
  603SOL     OW 1807   1.055   2.868   2.354  0.2635 -0.0527 -0.4799
  603SOL    HW1 1808   1.135   2.918   2.398  4.6158 -0.5237 -1.8967
  603SOL    HW2 1809   1.059   2.876   2.253  0.7719 -1.7431 -0.0288
  604SOL     OW 1810   1.079   2.525   0.352  0.5811  0.2544 -0.4643
  604SOL    HW1 1811   1.175   2.497   0.374 -1.1337  0.1382 -0.9629
  604SOL    HW2 1812   1.052   2.610   0.405  0.6711 -1.5719 -0.2137
  605SOL     OW 1813   1.644   1.065   1.669  0.2049 -0.1493 -0.1534
  605SOL    HW1 1814   1.574   1.074   1.592  0.7068 -0.6016 -0.1889
  605SOL    HW2 1815   1.738   1.072   1.634 -1.9244 -3.6193 -0.0041
  606SOL     OW 1816   0.949   0.829   2.535  0.3115  0.0808  0.2605
  606SOL    HW1 1817   0.892   0.772   2.468 -2.3765 -1.6748 -2.1656
  606SOL    HW2 1818   1.007   0.898   2.486  3.1950 -0.2106  0.4846
  607SOL     OW 1819   0.597   1.083   1.164 -0.5024  0.0242  0.1956
  607SOL    HW1 1820   0.548   1.049   1.252 -2.0822  1.0344  3.6065
  607SOL    HW2 1821   0.691   1.042   1.148 -1.4646  1.0133 -0.7380
  608SOL     OW 1822   2.428   1.963   2.262 -0.6067  0.3875  0.6221
  608SOL    HW1 1823   2.371   2.048   2.248  0.1613 -0.6566  0.8300
  608SOL    HW2 1824   2.516   1.987   2.309 -0.0741 -1.1906  2.6078
  609SOL     OW 1825   1.983   0.054   3.035 -0.0151  0.7145 -0.1755
  609SOL    HW1 1826   2.030   0.130   3.090 -0.5653 -0.6472 -0.5466
  609SOL    HW2 1827   2.041   3.073   3.044 -1.0828  0.7469  1.4013
  610SOL     OW 1828   0.483   2.748   1.572 -0.2776  0.3889  0.3867
  610SOL    HW1 1829   0.502   2.662   1.622  0.1207  0.6549  0.3522
  610SOL    HW2 1830   0.519   2.833   1.611 -1.7178  2.3302  0.6321
  611SOL     OW 1831   1.390   1.579   1.009 -0.1431  0.0532 -0.8180
  611SOL    HW1 1832   1.343   1.547   0.924 -0.5027  0.1290 -2.4104
  611SOL    HW2 1833   1.412   1.507   1.080 -0.2321 -1.4250 -0.7122
  612SOL     OW 1834   0.794   0.064   2.298  0.3138 -0.1690  0.0273
  612SOL    HW1 1835   0.733   0.146   2.308 -0.3729  0.9031  0.1336
  612SOL    HW2 1836   0.808   0.020   2.391 -0.6749 -0.4285 -0.9483
  613SOL     OW 1837   2.840   1.618   0.349 -0.7296 -0.1850  0.6460
  613SOL    HW1 1838   2.827   1.531   0.403 -0.1695  0.6965 -1.3429
  613SOL    HW2 1839   2.912   1.679   0.387 -3.2023  0.9231  2.4092
  614SOL     OW 1840   1.846   0.134   1.703  0.3540  0.5489  0.0841
  614SOL    HW1 1841   1.911   0.090   1.642  0.9134 -1.6060 -2.1708
  614SOL    HW2 1842   1.883   0.223   1.729  1.9140 -1.6240  0.6857
  615SOL     OW 1843   0.959   1.626   1.339  0.0252 -0.2183  0.2153
  615SOL    HW1 1844   1.002   1.537   1.359 -0.1601  2.7197  2.5234
  615SOL    HW2 1845   1.030   1.698   1.351 -1.5336  0.7645 -1.0339
  616SOL     OW 1846   1.601   1.631   3.065 -0.2449  0.2992 -0.7002
  616SOL    HW1 1847   1.637   1.533   3.063  0.5253  0.0841 -0.7852
  616SOL    HW2 1848   1.596   1.653   0.065 -0.4551 -2.4347  0.8616
  617SOL     OW 1849   1.897   2.747   0.055 -0.0159 -0.5859 -0.0250
  617SOL    HW1 1850   1.848   2.816   3.097  1.3956  0.0635 -0.7191
  617SOL    HW2 1851   1.835   2.679   0.095  2.3265 -0.5580  0.0265
  618SOL     OW 1852   1.010   0.674   2.739  0.2603 -0.0337 -0.3888
  618SOL    HW1 1853   0.968   0.716   2.819 -0.0015 -2.1631 -2.3896
  618SOL    HW2 1854   1.019   0.736   2.662  3.0994 -0.7807  1.9631
  619SOL     OW 1855   2.796   1.396   0.503  0.1569  0.0809 -0.0101
  619SOL    HW1 1856   2.795   1.296   0.487  1.4965  1.1702 -0.6940
  619SOL    HW2 1857   2.723   1.421   0.571  0.4264 -0.8379 -2.2837
  620SOL     OW 1858   2.442   2.544   3.059 -0.0756  0.6312 -0.0188
  620SOL    HW1 1859   2.367   2.610   3.040 -1.4360  3.1073 -0.8175
  620SOL    HW2 1860   2.423   2.451   3.014 -0.0110 -0.7834 -1.8770
  621SOL     OW 1861   2.406   1.179   0.038  0.1269  0.0090  0.2414
  621SOL    HW1 1862   2.374   1.146   0.125 -0.0231  1.0211 -2.4963
  621SOL    HW2 1863   2.337   1.214   3.076 -0.1346 -0.7344 -0.1510
  622SOL     OW 1864   1.421   2.493   2.423  0.4211  0.1857  0.2533
  622SOL    HW1 1865   1.456   2.456   2.333 -1.4391  1.8806 -0.2843
  622SOL    HW2 1866   1.461   2.440   2.502 -1.6666 -1.9040  1.0870
  623SOL     OW 1867   1.017   1.708   0.147 -0.0388  0.2694 -0.1517
  623SOL    HW1 1868   0.989   1.625   0.096  0.9165  0.8797 -1.2110
  623SOL    HW2 1869   0.965   1.787   0.112  1.0359 -0.9155 -1.5109
  624SOL     OW 1870   0.514   0.145   3.059  0.8265  0.0427  0.2884
  624SOL    HW1 1871   0.437   0.205   3.094  0.7165 -1.8334  2.6940
  624SOL    HW2 1872   0.586   0.139   0.024 -1.3730  1.2886 -1.2438
  625SOL     OW 1873   1.067   2.081   0.782  0.6829  0.3716  0.0441
  625SOL    HW1 1874   1.108   2.124   0.700  2.1739  0.8764 -0.7032
  625SOL    HW2 1875   0.993   2.135   0.820  1.3547 -0.4640 -0.4645
  626SOL     OW 1876   2.697   2.878   2.675  0.3053 -0.0171 -0.4401
  626SOL    HW1 1877   2.629   2.916   2.744 -1.4287  2.3187  1.6802
  626SOL    HW2 1878   2.789   2.889   2.710  0.2194  0.8840  1.2277
  627SOL     OW 1879   1.524   1.433   2.630  0.3359 -0.1376 -0.8260
  627SOL    HW1 1880   1.496   1.464   2.724 -0.9627 -0.1259  0.8085
  627SOL    HW2 1881   1.433   1.388   2.595 -2.1878 -0.7192 -2.0933
  628SOL     OW 1882   0.257   0.722   2.313 -0.3710 -0.3140  0.5209
  628SOL    HW1 1883   0.164   0.723   2.347  0.1040 -3.2380 -1.8538
  628SOL    HW2 1884   0.311   0.648   2.361  4.4686  2.8286  0.1815
  629SOL     OW 1885   3.076   2.851   2.066 -0.1794 -0.5809  0.1299
  629SOL    HW1 1886   2.991   2.904   2.057  1.0372  1.6666  0.7842
  629SOL    HW2 1887   3.094   2.811   2.157  0.0279 -0.9429  2.4207
  630SOL     OW 1888   1.590   0.833   1.820 -0.1176  0.0591  0.4903
  630SOL    HW1 1889   1.491   0.805   1.797 -2.8226 -1.5455 -3.6973
  630SOL    HW2 1890   1.605   0.928   1.777 -0.9615  3.2411  0.5563
  631SOL     OW 1891   2.386   0.990   0.312 -0.2516  0.1693  0.1728
  631SOL    HW1 1892   2.443   0.914   0.271  0.5869  4.3604  2.9742
  631SOL    HW2 1893   2.445   1.059   0.359 -3.1882  2.1655  1.4560
  632SOL     OW 1894   1.957   0.094   1.967  0.3144 -0.0761  0.3566
  632SOL    HW1 1895   1.920   0.093   1.873 -0.9321 -1.4326 -3.1876
  632SOL    HW2 1896   2.051   0.141   1.966  1.1281  4.0563 -1.1029
  633SOL     OW 1897   0.774   2.815   0.308  0.0448 -0.2375  0.0598
  633SOL    HW1 1898   0.835   2.822   0.226 -1.6540  1.9892  0.1878
  633SOL    HW2 1899   0.735   2.724   0.335  2.5448  0.6826  0.4923
  634SOL     OW 1900   1.244   2.519   2.712  0.1719 -0.0461 -0.5618
  634SOL    HW1 1901   1.325   2.508   2.769  0.1118  1.0955  0.9925
  634SOL    HW2 1902   1.230   2.442   2.644 -2.7833  0.3498  0.4418
  635SOL     OW 1903   2.494   0.169   2.997  0.0015 -0.5447  0.6361
  635SOL    HW1 1904   2.555   0.221   3.059 -1.5277  1.0925 -0.8980
  635SOL    HW2 1905   2.400   0.212   3.001 -0.8921  0.2488  0.1220
  636SOL     OW 1906   0.820   1.264   0.699  0.1995 -0.0298  0.1134
  636SOL    HW1 1907   0.733   1.288   0.746 -0.3997 -0.4940 -1.0144
  636SOL    HW2 1908   0.820   1.164   0.672  1.6581  0.3399  2.0517
  637SOL     OW 1909   0.336   2.431   0.677 -0.4359 -0.1257 -0.4388
  637SOL    HW1 1910   0.401   2.435   0.754 -0.6000  0.3111  0.4094
  637SOL    HW2 1911   0.379   2.373   0.603  2.4017 -1.7027 -1.7209
  638SOL     OW 1912   0.569   3.022   0.223 -0.2085  0.6654 -0.0584
  638SOL    HW1 1913   0.642   2.963   0.261 -1.2631 -0.3635 -0.3686
  638SOL    HW2 1914   0.511   2.961   0.160 -3.1933 -2.0475 -0.7106
  639SOL     OW 1915   1.410   1.689   0.382  0.3662  0.0535  0.3138
  639SOL    HW1 1916   1.452   1.680   0.472 -1.0047 -0.7137 -4.6018
  639SOL    HW2 1917   1.307   1.705   0.376 -0.9945  0.1345  0.2185
  640SOL     OW 1918   1.706   2.728   0.952 -0.2014  0.6646 -0.0279
  640SOL    HW1 1919   1.709   2.713   0.848  1.1215  0.6586 -1.3231
  640SOL    HW2 1920   1.745   2.824   0.977  1.4543  1.6916  1.9099
  641SOL     OW 1921   3.011   2.548   0.736 -0.1601  0.6112 -0.6298
  641SOL    HW1 1922   3.065   2.461   0.716 -0.2043 -1.2385  1.0301
  641SOL    HW2 1923   2.957   2.564   0.649  0.2403 -0.3509  1.8451
  642SOL     OW 1924   0.833   0.411   1.670  0.0659 -0.3975  0.5806
  642SOL    HW1 1925   0.879   0.349   1.741  1.0173  1.0522  2.8152
  642SOL    HW2 1926   0.758   0.362   1.624 -0.1366 -0.2896 -1.4238
  643SOL     OW 1927   0.763   1.898   2.209  0.0119  0.3282 -0.3050
  643SOL    HW1 1928   0.732   1.933   2.119  1.2826  1.5284  0.7954
  643SOL    HW2 1929   0.807   1.971   2.263  0.6601 -0.0691 -0.5049
  644SOL     OW 1930   0.759   3.017   0.479  0.0729 -0.0752  0.3297
  644SOL    HW1 1931   0.769   2.942   0.415 -1.4191  3.2347  1.6941
  644SOL    HW2 1932   0.840   3.019   0.543 -0.0995 -2.0424 -1.2603
  645SOL     OW 1933   0.999   1.575   2.865 -0.0422  0.3521  0.3720
  645SOL    HW1 1934   0.906   1.585   2.830  0.3157  1.9641 -0.0633
  645SOL    HW2 1935   1.053   1.659   2.862 -2.0597  1.0637 -2.5954
  646SOL     OW 1936   0.422   1.442   0.005 -0.4989 -0.0417  0.1146
  646SOL    HW1 1937   0.392   1.535   0.042 -1.3460 -0.7008  0.3812
  646SOL    HW2 1938   0.384   1.364   0.063 -0.1737 -2.7083 -1.2346
  647SOL     OW 1939   1.090   0.013   1.011  0.2813 -0.0860 -0.6584
  647SOL    HW1 1940   1.128   0.060   1.098  3.9334 -0.1692 -0.2425
  647SOL    HW2 1941   1.093   3.016   1.023 -0.4347 -0.8209  1.3177
  648SOL     OW 1942   2.722   2.818   2.095 -0.3619 -0.1958 -0.3421
  648SOL    HW1 1943   2.628   2.852   2.075 -2.5554 -0.2595  0.0400
  648SOL    HW2 1944   2.785   2.899   2.074  0.2058  0.3597 -3.5363
  649SOL     OW 1945   0.554   2.495   3.055  0.1164 -0.4542  0.9027
  649SOL    HW1 1946   0.553   2.399   3.025  1.8529  2.6312 -1.7396
  649SOL    HW2 1947   0.455   2.526   3.056 -3.4566 -0.2438  0.3554
  650SOL     OW 1948   0.240   1.883   1.658  0.5189  0.1651  0.0854
  650SOL    HW1 1949   0.288   1.798   1.632 -0.9799 -2.0287  0.0254
  650SOL    HW2 1950   0.240   1.951   1.585 -0.9324 -1.3205  0.3847
  651SOL     OW 1951   0.716   0.157   0.151 -0.1627  0.3673 -0.0418
  651SOL    HW1 1952   0.755   0.202   0.231 -0.6769  1.8738 -0.0929
  651SOL    HW2 1953   0.645   0.094   0.184  1.5392  0.8873 -1.8642
  652SOL     OW 1954   2.778   1.915   0.278 -0.3622  0.2703  0.5169
  652SOL    HW1 1955   2.776   1.825   0.223 -2.4159 -1.2325 -0.2292
  652SOL    HW2 1956   2.713   1.983   0.238 -4.3461 -1.1586 -0.0179
  653SOL     OW 1957   2.970   0.156   0.902  0.0946  0.0210  0.1227
  653SOL    HW1 1958   2.935   0.230   0.960 -1.2204  3.3695  1.4035
  653SOL    HW2 1959   3.059   0.120   0.942  0.7531  1.8753  1.2810
  654SOL     OW 1960   1.514   0.184   2.495 -0.9310 -0.4634  0.4957
  654SOL    HW1 1961   1.534   0.190   2.595 -0.6133  2.0074 -2.3760
  654SOL    HW2 1962   1.457   0.103   2.481 -1.2898  3.1956 -0.3988
  655SOL     OW 1963   0.915   2.286   1.342 -0.2202 -0.2830 -0.0313
  655SOL    HW1 1964   0.998   2.287   1.396  1.2769 -0.7121  0.2155
  655SOL    HW2 1965   0.827   2.311   1.393  0.5749 -0.9730 -2.0968
  656SOL     OW 1966   0.220   0.348   1.895 -0.0119 -0.3537  0.2923
  656SOL    HW1 1967   0.199   0.434   1.946  0.1022 -2.7965  1.3406
  656SOL    HW2 1968   0.145   0.280   1.906  2.1595 -0.4513  0.5466
  657SOL     OW 1969   2.110   0.735   2.005 -0.9497 -0.1386  0.0405
  657SOL    HW1 1970   2.021   0.703   2.042  3.0861  0.1936  1.1685
  657SOL    HW2 1971   2.101   0.754   1.903 -2.2674  2.0476 -2.3214
  658SOL     OW 1972   2.276   1.738   1.229 -0.3716  0.0350  0.2070
  658SOL    HW1 1973   2.343   1.702   1.293  1.4519 -2.0745 -0.6778
  658SOL    HW2 1974   2.178   1.734   1.261  3.3657  0.8263 -2.4833
  659SOL     OW 1975   2.578   2.850   3.016  0.0291  0.7810  0.0347
  659SOL    HW1 1976   2.681   2.834   3.024 -0.1630 -2.1757 -0.4249
  659SOL    HW2 1977   2.529   2.777   2.965  0.2213 -0.7515  1.9360
  660SOL     OW 1978   0.941   1.306   2.721 -0.4310  0.2822 -0.2969
  660SOL    HW1 1979   1.006   1.364   2.771 -0.4751 -2.2315  0.4677
  660SOL    HW2 1980   0.941   1.218   2.779  0.8135 -1.6529  0.9400
  661SOL     OW 1981   2.409   2.491   0.911  0.2596  0.5288 -0.5460
  661SOL    HW1 1982   2.485   2.538   0.959 -0.4764 -0.0750 -3.1770
  661SOL    HW2 1983   2.356   2.425   0.969 -1.1853  3.5359  0.8316
  662SOL     OW 1984   0.624   0.762   0.278 -0.6393 -0.4263  0.5269
  662SOL    HW1 1985   0.593   0.759   0.374  1.2451 -1.1907 -0.5434
  662SOL    HW2 1986   0.546   0.752   0.216  0.1071  0.3146 -0.4593
  663SOL     OW 1987   1.027   2.198   0.010  0.1067  0.6756  0.1571
  663SOL    HW1 1988   1.114   2.192   0.060 -1.9580  0.0434  0.3426
  663SOL    HW2 1989   0.998   2.295   0.005 -0.5069 -1.9726 -1.0595
  664SOL     OW 1990   0.509   2.963   1.382  0.1587  0.6713  0.5121
  664SOL    HW1 1991   0.530   2.875   1.328  1.8919 -2.0002 -1.3043
  664SOL    HW2 1992   0.581   2.999   1.444 -2.2876 -0.3908 -0.7176
  665SOL     OW 1993   1.912   1.771   1.616 -0.3316  0.2606 -0.3045
  665SOL    HW1 1994   1.849   1.844   1.656 -0.2685 -0.3375 -1.7359
  665SOL    HW2 1995   1.891   1.674   1.637  2.4945 -0.4458 -0.3149
  666SOL     OW 1996   0.304   2.693   0.275 -0.0987  0.2409  0.1437
  666SOL    HW1 1997   0.203   2.704   0.258  1.6207  0.5488 -1.7377
  666SOL    HW2 1998   0.327   2.746   0.359 -1.9883  0.6333 -2.6068
  667SOL     OW 1999   1.706   1.692   1.418  0.3513  0.1128  0.0379
  667SOL    HW1 2000   1.779   1.766   1.412  0.7321  1.1479  0.4233
  667SOL    HW2 2001   1.645   1.701   1.500 -0.4855 -1.8180 -1.5305
  668SOL     OW 2002   0.451   0.545   2.434  0.2953  0.3784 -0.0350
  668SOL    HW1 2003   0.512   0.481   2.487  0.6340  1.3405  3.5434
  668SOL    HW2 2004   0.501   0.583   2.350  0.2095  1.2286  0.4051
  669SOL     OW 2005   1.825   2.268   2.342  0.0022  0.0583  0.7255
  669SOL    HW1 2006   1.914   2.228   2.309  2.5269  0.6809  0.5119
  669SOL    HW2 2007   1.810   2.265   2.442  0.4255 -0.3557 -1.2838
  670SOL     OW 2008   2.279   2.082   0.579  0.1222 -0.4907  0.2528
  670SOL    HW1 2009   2.190   2.039   0.544 -1.9524 -0.7057  0.4007
  670SOL    HW2 2010   2.261   2.119   0.670 -1.1684 -0.8297 -0.7343
  671SOL     OW 2011   0.713   1.317   1.260  0.8515  0.0158  0.0457
  671SOL    HW1 2012   0.750   1.367   1.177  0.0548  0.4663  0.9429
  671SOL    HW2 2013   0.656   1.238   1.227 -1.3443 -3.4152 -0.5435
  672SOL     OW 2014   2.765   1.145   2.325 -0.1504  1.0590 -0.2777
  672SOL    HW1 2015   2.751   1.114   2.228 -0.2065  1.5196  0.2655
  672SOL    HW2 2016   2.774   1.063   2.384 -1.3274 -0.2811  2.9310
  673SOL     OW 2017   3.020   1.697   2.329 -1.2010 -0.7339 -0.1568
  673SOL    HW1 2018   3.053   1.729   2.420  0.5791 -0.2665 -1.3688
  673SOL    HW2 2019   3.014   1.598   2.326  0.3541  1.7071  2.0677
  674SOL     OW 2020   0.738   2.666   2.096  0.3720 -0.6615  0.8756
  674SOL    HW1 2021   0.735   2.724   2.179  2.2039 -0.8805  0.0502
  674SOL    HW2 2022   0.668   2.689   2.029 -0.3482 -0.3170  0.9598
  675SOL     OW 2023   0.653   0.769   1.343  0.4527  0.4077 -0.2518
  675SOL    HW1 2024   0.660   0.704   1.420  1.0725 -0.7058  0.9059
  675SOL    HW2 2025   0.585   0.844   1.366  1.9205  1.9089  1.5825
  676SOL     OW 2026   1.865   0.898   0.315  0.4962 -0.4322 -0.7981
  676SOL    HW1 2027   1.768   0.930   0.328  0.0513  0.3339 -0.7631
  676SOL    HW2 2028   1.880   0.833   0.393  2.6002  1.8004  1.7384
  677SOL     OW 2029   2.897   1.610   2.847 -0.4100  0.0257  0.1420
  677SOL    HW1 2030   2.828   1.642   2.775 -1.6236 -1.2654 -1.4345
  677SOL    HW2 2031   2.992   1.616   2.813 -1.5379 -0.9701  1.1968
  678SOL     OW 2032   3.097   2.377   1.314  0.4628 -0.6129 -0.5085
  678SOL    HW1 2033   0.004   2.303   1.383  0.2043  0.2102 -0.0305
  678SOL    HW2 2034   3.092   2.468   1.366  1.0735  6.0751  2.2208
  679SOL     OW 2035   1.893   2.986   0.620 -0.1167  0.1647 -0.1965
  679SOL    HW1 2036   1.885   2.986   0.519 -0.3857 -1.2557 -1.2411
  679SOL    HW2 2037   1.988   3.008   0.639 -3.4617 -1.2233 -2.0161
  680SOL     OW 2038   3.082   2.458   2.219 -0.1591 -0.0825  0.5385
  680SOL    HW1 2039   3.061   2.404   2.297  2.0735  2.0061 -1.5942
  680SOL    HW2 2040   0.001   2.555   2.238  0.9924 -0.0938  0.1955
  681SOL     OW 2041   0.037   1.363   1.381  0.1144 -0.6620  0.6029
  681SOL    HW1 2042   0.112   1.367   1.310 -0.4042  0.9478 -0.3611
  681SOL    HW2 2043   0.074   1.342   1.475  2.5303 -1.3937  0.0614
  682SOL     OW 2044   0.507   1.771   1.295  0.0269  0.4001 -0.0857
  682SOL    HW1 2045   0.538   1.739   1.206  0.6974 -1.0170  0.5812
  682SOL    HW2 2046   0.419   1.730   1.326 -1.2355 -2.6050 -2.2755
  683SOL     OW 2047   2.885   1.740   1.539 -0.5417 -0.1150  0.0533
  683SOL    HW1 2048   2.893   1.666   1.468 -0.2634  0.3114 -2.5817
  683SOL    HW2 2049   2.801   1.735   1.592  2.8448  0.3200  1.0925
  684SOL     OW 2050   0.034   1.426   0.008  0.1038  0.3585  0.0538
  684SOL    HW1 2051   0.045   1.456   0.105 -1.6938 -0.1656 -3.0604
  684SOL    HW2 2052   0.097   1.472   3.049 -3.5947  0.9635  0.3428
  685SOL     OW 2053   0.913   0.934   0.367 -0.0128  0.0304 -0.6495
  685SOL    HW1 2054   0.856   0.865   0.315 -0.9288 -2.0833 -1.1522
  685SOL    HW2 2055   1.006   0.903   0.387 -0.1605  1.7909  1.8801
  686SOL     OW 2056   0.076   0.060   1.042 -0.0370 -0.2825 -0.3591
  686SOL    HW1 2057   0.031   0.094   1.125  0.1887  2.5195  2.3935
  686SOL    HW2 2058   0.175   0.080   1.041  0.5396 -2.7240  0.8665
  687SOL     OW 2059   1.124   1.289   2.250 -0.1077  0.3639 -0.4517
  687SOL    HW1 2060   1.070   1.249   2.326  3.5498 -0.3769  1.0957
  687SOL    HW2 2061   1.160   1.386   2.272  3.2200  4.1566  1.6328
  688SOL     OW 2062   0.936   1.973   1.734  0.2290  0.1789 -0.2913
  688SOL    HW1 2063   0.844   1.930   1.729  0.5372  0.4773  2.7188
  688SOL    HW2 2064   0.929   2.022   1.825  0.4535 -0.1393 -0.7615
  689SOL     OW 2065   1.882   0.674   1.046  0.5500 -0.4889  1.1756
  689SOL    HW1 2066   1.841   0.663   1.134  1.4415 -0.1897 -0.3991
  689SOL    HW2 2067   1.858   0.769   1.025 -0.3113 -3.6200 -0.8433
  690SOL     OW 2068   2.958   1.055   0.878  0.2293  0.3683 -0.1823
  690SOL    HW1 2069   2.977   1.145   0.918 -2.2308 -2.8995 -0.9396
  690SOL    HW2 2070   2.999   0.988   0.940  2.5694  1.7385 -1.5011
  691SOL     OW 2071   0.256   2.374   1.575 -0.1758  0.0450  0.3940
  691SOL    HW1 2072   0.164   2.340   1.596  1.0028  1.6939  0.1756
  691SOL    HW2 2073   0.250   2.450   1.509 -3.4114 -1.5237  0.7464
  692SOL     OW 2074   1.794   3.016   1.229 -0.0333 -0.6311 -0.0241
  692SOL    HW1 2075   1.801   3.013   1.126 -0.1059  0.8507  0.4194
  692SOL    HW2 2076   1.781   2.924   1.272  4.3547  0.4200  0.8575
  693SOL     OW 2077   0.430   1.523   2.376 -0.0047  0.1491  0.4671
  693SOL    HW1 2078   0.501   1.587   2.342 -4.1253  0.6391 -0.9160
  693SOL    HW2 2079   0.334   1.534   2.349  2.5769 -0.4305  2.3800
  694SOL     OW 2080   1.853   0.967   0.967  0.0770  0.2911  0.0920
  694SOL    HW1 2081   1.897   1.049   0.928 -0.3941 -1.7502  0.0273
  694SOL    HW2 2082   1.763   0.984   1.012  1.5804 -1.2160  0.9594
  695SOL     OW 2083   0.951   1.044   1.440  0.3129 -0.4095 -0.8455
  695SOL    HW1 2084   0.881   1.123   1.447  1.0886  1.4661 -0.6868
  695SOL    HW2 2085   1.033   1.079   1.386 -0.1795 -1.4205  0.2712
  696SOL     OW 2086   1.727   0.033   0.804  0.1106  0.1662 -0.3650
  696SOL    HW1 2087   1.773   3.085   0.733  0.3681  2.1154  0.3482
  696SOL    HW2 2088   1.633   0.002   0.808  2.2262  0.5149  2.6551
  697SOL     OW 2089   0.859   0.060   0.909 -0.5265  0.3745  0.0373
  697SOL    HW1 2090   0.955   0.064   0.943 -2.1604 -1.5806 -3.9968
  697SOL    HW2 2091   0.805   0.039   0.993  1.6390  3.1359 -2.7376
  698SOL     OW 2092   1.475   1.312   2.081  0.9494  0.0003 -0.2603
  698SOL    HW1 2093   1.560   1.284   2.037 -1.0203  1.4814 -0.4881
  698SOL    HW2 2094   1.470   1.412   2.100 -0.6968  0.1215 -0.3082
  699SOL     OW 2095   1.503   0.807   0.857  0.1197  0.1268  0.1029
  699SOL    HW1 2096   1.568   0.837   0.785 -1.8797 -0.4366 -0.5794
  699SOL    HW2 2097   1.409   0.819   0.815 -1.1087 -4.6671  2.6324
  700SOL     OW 2098   1.365   2.543   0.385 -0.4204  0.1119 -0.0745
  700SOL    HW1 2099   1.403   2.634   0.365  0.5563  1.6133 -2.9329
  700SOL    HW2 2100   1.395   2.501   0.473  0.6833  0.7176 -2.0032
  701SOL     OW 2101   2.147   2.430   2.970  0.0416 -0.4924 -0.5701
  701SOL    HW1 2102   2.162   2.426   3.070  1.5721 -0.2853 -0.6357
  701SOL    HW2 2103   2.217   2.376   2.927 -1.0777  0.5368  1.2147
  702SOL     OW 2104   0.949   0.250   0.727  0.0846  0.2110  0.0065
  702SOL    HW1 2105   0.987   0.332   0.773 -3.0355 -1.2098  2.3222
  702SOL    HW2 2106   0.904   0.190   0.793 -2.4355  0.6692 -2.4577
  703SOL     OW 2107   2.128   0.391   2.318  0.0453  0.6823 -0.4104
  703SOL    HW1 2108   2.117   0.382   2.421 -2.7520 -1.6924  2.7656
  703SOL    HW2 2109   2.040   0.420   2.272 -1.3046  0.6746  1.3449
  704SOL     OW 2110   0.070   2.353   0.691 -0.0023 -0.1796  0.5637
  704SOL    HW1 2111   0.039   2.274   0.633 -1.0200  0.8209 -0.2503
  704SOL    HW2 2112   0.170   2.381   0.673  0.6073 -0.0163  0.9060
  705SOL     OW 2113   2.696   2.543   2.096 -0.0289 -0.5595 -0.7129
  705SOL    HW1 2114   2.696   2.502   2.007 -1.7270  0.0867  0.7744
  705SOL    HW2 2115   2.709   2.643   2.086 -0.3183 -1.5498 -1.0495
  706SOL     OW 2116   2.280   2.716   0.834 -0.3043 -0.4114  0.2706
  706SOL    HW1 2117   2.305   2.621   0.844 -0.7934  3.2706 -3.4737
  706SOL    HW2 2118   2.361   2.781   0.807  1.3155  0.2048 -0.3740
  707SOL     OW 2119   0.612   2.441   2.142 -0.2905 -0.4719  0.7286
  707SOL    HW1 2120   0.675   2.362   2.126  0.3571  0.1423 -1.1690
  707SOL    HW2 2121   0.667   2.532   2.140  0.8898  4.1579 -1.0638
  708SOL     OW 2122   2.973   2.171   2.311  0.0819  0.4016  0.6972
  708SOL    HW1 2123   3.053   2.165   2.375  2.1383 -0.2345 -1.3302
  708SOL    HW2 2124   2.993   2.108   2.236  0.9190  1.4011  0.7601
  709SOL     OW 2125   2.109   2.892   2.021 -0.4403 -0.3386  0.2760
  709SOL    HW1 2126   2.170   2.831   2.071 -1.7966  0.2382 -0.4593
  709SOL    HW2 2127   2.073   2.967   2.078  2.3195 -1.9152  0.1093
  710SOL     OW 2128   1.524   0.858   2.291  0.0093 -0.1585 -0.4847
  710SOL    HW1 2129   1.526   0.824   2.386 -3.1418  1.1279 -0.7090
  710SOL    HW2 2130   1.505   0.783   2.220  0.4860  0.9766  0.4390
  711SOL     OW 2131   0.650   1.977   3.085 -0.0655 -0.3451 -0.0326
  711SOL    HW1 2132   0.750   1.977   3.096  0.8780  2.7458 -1.0193
  711SOL    HW2 2133   0.620   1.894   3.031 -1.9841 -0.0880 -0.4304
  712SOL     OW 2134   0.706   2.553   2.519  0.1929  0.2009  0.0015
  712SOL    HW1 2135   0.704   2.641   2.470 -0.8190 -2.3530 -0.3398
  712SOL    HW2 2136   0.669   2.480   2.463  0.7881 -0.2161 -0.9799
  713SOL     OW 2137   1.693   1.385   3.037  0.4404 -0.1940 -0.3151
  713SOL    HW1 2138   1.747   1.391   2.950  1.6796 -0.3114 -0.6322
  713SOL    HW2 2139   1.741   1.343   0.017 -1.0951  0.6688 -0.5534
  714SOL     OW 2140   1.235   1.354   1.786 -0.2612 -0.0366  0.1765
  714SOL    HW1 2141   1.305   1.314   1.723  0.1553 -0.7655 -1.3066
  714SOL    HW2 2142   1.209   1.298   1.868 -1.4095  1.4685 -1.0900
  715SOL     OW 2143   1.790   0.659   2.569 -0.6672 -0.0271  0.0298
  715SOL    HW1 2144   1.760   0.680   2.663 -0.9828 -0.7103 -1.1186
  715SOL    HW2 2145   1.836   0.569   2.568 -1.9805  0.9864  0.9417
  716SOL     OW 2146   2.917   2.146   1.953 -0.1720 -0.0752  0.1756
  716SOL    HW1 2147   2.951   2.239   1.970 -1.4640 -1.5110  0.3320
  716SOL    HW2 2148   2.941   2.075   2.024  2.1652  1.2630  0.8515
  717SOL     OW 2149   2.644   1.122   0.890 -0.2751 -0.1022  0.6015
  717SOL    HW1 2150   2.746   1.131   0.890  2.9507  0.0657 -1.5830
  717SOL    HW2 2151   2.616   1.043   0.946  1.0125 -0.3108 -0.6583
  718SOL     OW 2152   0.965   1.706   2.163 -0.0748  0.6352 -0.4292
  718SOL    HW1 2153   0.887   1.771   2.162  0.4298 -2.3555  0.1510
  718SOL    HW2 2154   1.025   1.705   2.081 -0.1941 -0.1478  2.5167
  719SOL     OW 2155   1.883   0.937   2.931 -0.0137  0.1925 -0.2125
  719SOL    HW1 2156   1.875   0.981   2.839 -1.0540 -1.8519 -0.6567
  719SOL    HW2 2157   1.896   1.005   3.007 -0.0637  3.4828  0.4645
  720SOL     OW 2158   0.693   0.481   0.646 -0.3116  0.1741  0.1583
  720SOL    HW1 2159   0.677   0.537   0.731 -1.5855 -1.5404 -0.5686
  720SOL    HW2 2160   0.654   0.390   0.658  2.2685  3.2555  3.6231
  721SOL     OW 2161   2.496   0.544   0.767  0.0504  0.1735 -0.6432
  721SOL    HW1 2162   2.534   0.574   0.677 -1.5418 -2.1091  0.9923
  721SOL    HW2 2163   2.458   0.447   0.760  0.9393 -1.3298  0.3371
  722SOL     OW 2164   2.789   0.703   2.318  0.0879  0.0529 -0.6369
  722SOL    HW1 2165   2.887   0.675   2.306 -0.1912  0.8431  1.8985
  722SOL    HW2 2166   2.782   0.787   2.380  2.1458 -1.4626 -1.1511
  723SOL     OW 2167   2.288   0.266   0.267  0.2874 -0.4657 -0.0847
  723SOL    HW1 2168   2.380   0.231   0.285 -2.2873  0.4011 -0.4332
  723SOL    HW2 2169   2.277   0.365   0.257 -1.5080  0.6941  0.9048
  724SOL     OW 2170   0.619   1.789   1.965  0.0313  0.3144 -0.2019
  724SOL    HW1 2171   0.663   1.702   2.008 -0.9253 -1.3234 -0.1439
  724SOL    HW2 2172   0.656   1.810   1.874 -0.9219 -0.7538  1.7746
  725SOL     OW 2173   1.670   0.138   1.223 -0.1070 -0.0818  0.8866
  725SOL    HW1 2174   1.685   0.186   1.135  2.3426 -1.6000  3.7523
  725SOL    HW2 2175   1.726   0.052   1.229  1.0067 -0.9020  2.0909
  726SOL     OW 2176   2.090   2.657   0.254 -0.2354 -0.4100 -0.1059
  726SOL    HW1 2177   2.031   2.703   0.186 -2.6011 -3.5500 -0.1327
  726SOL    HW2 2178   2.031   2.638   0.330  1.3970  0.5088 -2.0747
  727SOL     OW 2179   1.716   1.435   1.343  0.4185 -0.5862 -0.3249
  727SOL    HW1 2180   1.787   1.390   1.402  1.1808 -1.6274 -0.2108
  727SOL    HW2 2181   1.677   1.518   1.391 -3.0941 -0.2565  0.6621
  728SOL     OW 2182   2.230   2.707   1.624  0.0845 -0.6167  0.2280
  728SOL    HW1 2183   2.257   2.717   1.524  1.3766 -0.1952 -1.1965
  728SOL    HW2 2184   2.177   2.624   1.633 -1.4961  0.0416 -0.1356
  729SOL     OW 2185   2.157   1.849   0.867  0.2395  0.4484  0.1745
  729SOL    HW1 2186   2.121   1.786   0.796  0.3876 -3.1077  0.1094
  729SOL    HW2 2187   2.255   1.823   0.893  2.2223 -0.3840 -1.3590
  730SOL     OW 2188   1.220   0.597   2.911  0.0023  0.0158  0.0825
  730SOL    HW1 2189   1.138   0.613   2.852  0.6535 -4.3156  0.6881
  730SOL    HW2 2190   1.303   0.584   2.855 -2.3913 -0.1983  0.3659
  731SOL     OW 2191   0.449   3.101   1.045 -0.1287 -0.0743 -0.1164
  731SOL    HW1 2192   0.546   3.088   1.082 -0.4858 -0.4106  0.1907
  731SOL    HW2 2193   0.384   3.072   1.120  0.7650 -0.1806  2.2332
  732SOL     OW 2194   1.339   0.609   0.650 -0.6425  0.6427  0.2007
  732SOL    HW1 2195   1.266   0.576   0.588  1.2835 -0.9015 -1.4357
  732SOL    HW2 2196   1.310   0.701   0.686 -0.5354  1.2163  0.6044
  733SOL     OW 2197   0.600   1.979   1.448 -0.4290  0.5191  0.0995
  733SOL    HW1 2198   0.691   1.988   1.405 -0.2708  0.1356 -1.6541
  733SOL    HW2 2199   0.541   1.917   1.396 -0.3767  0.2788 -0.1449
  734SOL     OW 2200   0.006   2.432   0.299 -0.3952  0.0852 -0.4160
  734SOL    HW1 2201   0.051   2.342   0.319  0.0338 -1.3214  2.1747
  734SOL    HW2 2202   3.084   2.437   0.203 -0.1984 -2.4686 -0.0550
  735SOL     OW 2203   1.181   0.151   1.217  0.6596 -0.1418 -0.3429
  735SOL    HW1 2204   1.125   0.124   1.296  0.7395 -3.3009 -0.7310
  735SOL    HW2 2205   1.273   0.113   1.231 -2.2913 -1.3388 -0.1914
  736SOL     OW 2206   1.998   2.262   0.442 -0.2837  0.1617  0.4541
  736SOL    HW1 2207   2.030   2.323   0.528  1.9058  1.8348  2.4565
  736SOL    HW2 2208   2.057   2.281   0.360  3.3195  1.1424  0.9341
  737SOL     OW 2209   2.928   1.306   0.995  0.1739  0.0483  0.4523
  737SOL    HW1 2210   2.900   1.361   0.908  0.6243  2.7591 -3.5927
  737SOL    HW2 2211   2.888   1.345   1.082  0.3835  0.5166  0.2624
  738SOL     OW 2212   2.292   2.415   2.283 -0.1209 -0.4560 -0.8128
  738SOL    HW1 2213   2.221   2.490   2.305  0.2396 -1.3073 -0.9560
  738SOL    HW2 2214   2.391   2.446   2.282 -0.9848  0.4915  0.1416
  739SOL     OW 2215   1.033   2.130   2.836 -0.1185 -0.4962  0.2692
  739SOL    HW1 2216   1.010   2.144   2.934  1.6165  1.7612 -0.8852
  739SOL    HW2 2217   1.011   2.211   2.775 -0.4143  0.7971 -1.7795
  740SOL     OW 2218   1.435   0.294   1.171 -0.0644 -0.4930 -0.0042
  740SOL    HW1 2219   1.494   0.261   1.247  3.1792  1.3996  2.7661
  740SOL    HW2 2220   1.463   0.263   1.077  0.8325 -0.9673 -1.6082
  741SOL     OW 2221   0.240   1.117   0.970  0.1458 -0.1212  0.1377
  741SOL    HW1 2222   0.311   1.073   0.913  0.3931  0.8760 -2.3344
  741SOL    HW2 2223   0.239   1.081   1.063  0.7907  1.3268 -1.0812
  742SOL     OW 2224   0.969   1.192   2.463 -0.1826 -0.2059 -0.6414
  742SOL    HW1 2225   0.970   1.224   2.563 -0.6574  0.6230  0.0272
  742SOL    HW2 2226   0.869   1.185   2.431  0.9510  0.6497 -2.1275
  743SOL     OW 2227   0.906   0.820   2.177  0.3275 -0.6045 -0.1891
  743SOL    HW1 2228   0.844   0.904   2.170  1.5799 -0.8077  0.8317
  743SOL    HW2 2229   1.006   0.841   2.185  0.2942  1.4257 -0.5444
  744SOL     OW 2230   1.748   0.307   1.408 -0.5489  0.2104 -0.0565
  744SOL    HW1 2231   1.719   0.260   1.321 -1.7110 -0.5990  0.3257
  744SOL    HW2 2232   1.851   0.301   1.413  0.1562  1.5356 -0.4332
  745SOL     OW 2233   2.201   1.164   1.297  0.1432  0.0963  0.1778
  745SOL    HW1 2234   2.103   1.151   1.269  1.2497 -0.4863 -1.3082
  745SOL    HW2 2235   2.217   1.262   1.317 -2.9550 -1.6029  0.6968
  746SOL     OW 2236   2.178   1.129   0.610 -0.8391 -0.4115 -0.1241
  746SOL    HW1 2237   2.160   1.179   0.524 -0.6366 -0.4373  1.6224
  746SOL    HW2 2238   2.279   1.108   0.629 -0.3521  1.7083  0.6407
  747SOL     OW 2239   2.547   1.575   1.082 -0.3400 -0.0303 -0.4128
  747SOL    HW1 2240   2.607   1.592   0.997 -0.5863  2.4139  1.1161
  747SOL    HW2 2241   2.467   1.636   1.079  1.1704 -0.7955 -0.7951
  748SOL     OW 2242   0.463   2.259   0.507  0.2968  0.0698 -0.5499
  748SOL    HW1 2243   0.548   2.268   0.564 -0.3805 -0.6728 -2.9204
  748SOL    HW2 2244   0.485   2.257   0.406 -0.7486  0.0201 -0.7045
  749SOL     OW 2245   2.743   2.525   2.451 -0.5811  0.2729  0.0397
  749SOL    HW1 2246   2.718   2.444   2.392 -0.3097  0.8587 -2.3277
  749SOL    HW2 2247   2.663   2.562   2.502  1.6835 -0.1003  0.5349
  750SOL     OW 2248   2.416   0.817   0.780  0.2697 -0.1668 -0.0594
  750SOL    HW1 2249   2.467   0.731   0.791  1.7329 -0.3248 -0.0146
  750SOL    HW2 2250   2.326   0.806   0.728  0.3059  0.8219 -0.2901
  751SOL     OW 2251   2.548   3.095   0.117  0.4007 -0.0019 -0.1147
  751SOL    HW1 2252   2.548   0.007   0.017 -0.9320 -1.5704 -0.6605
  751SOL    HW2 2253   2.622   3.029   0.140 -0.4326 -1.7824  0.4731
  752SOL     OW 2254   2.874   2.656   0.940  0.4786  0.1422  0.4049
  752SOL    HW1 2255   2.937   2.735   0.960 -1.1619  1.4124 -0.1213
  752SOL    HW2 2256   2.921   2.600   0.876 -2.5275  2.7499  3.6561
  753SOL     OW 2257   1.767   0.964   2.172  0.2065 -0.1672 -0.2885
  753SOL    HW1 2258   1.816   1.028   2.234 -0.3612 -1.8221 -0.9321
  753SOL    HW2 2259   1.677   0.933   2.212 -0.9201  0.9659  0.5422
  754SOL     OW 2260   1.716   2.077   1.490  0.2885  0.0925  0.2211
  754SOL    HW1 2261   1.737   2.172   1.460 -2.1438  0.6403 -1.9064
  754SOL    HW2 2262   1.769   2.013   1.435 -2.7274  1.2892  1.0587
  755SOL     OW 2263   2.738   1.132   0.449 -0.1792 -0.0622  0.0935
  755SOL    HW1 2264   2.740   1.025   0.456  3.2707 -4.2926 -1.0816
  755SOL    HW2 2265   2.647   1.166   0.420 -2.2261  1.6168 -0.5153
  756SOL     OW 2266   0.675   1.341   2.732 -0.5534 -0.3860 -0.2483
  756SOL    HW1 2267   0.610   1.343   2.651  0.1943 -1.6539  2.6160
  756SOL    HW2 2268   0.777   1.341   2.703  0.7015 -0.0244  0.8414
  757SOL     OW 2269   1.569   2.457   0.883  0.0073  0.0782 -0.0564
  757SOL    HW1 2270   1.652   2.416   0.843 -1.9801 -0.0080  0.6937
  757SOL    HW2 2271   1.540   2.405   0.969 -0.5260 -1.1940  1.7223
  758SOL     OW 2272   1.357   2.779   1.585 -0.0843 -0.5556  0.1239
  758SOL    HW1 2273   1.309   2.867   1.568 -1.9042  0.1622  0.2185
  758SOL    HW2 2274   1.341   2.713   1.512 -1.4543 -0.6563 -0.6008
  759SOL     OW 2275   0.095   0.726   0.739 -0.6689  0.4505  0.1144
  759SOL    HW1 2276   0.026   0.781   0.687  1.9277 -0.1826  1.8016
  759SOL    HW2 2277   0.100   0.742   0.842 -1.3536 -1.7408 -1.0354
  760SOL     OW 2278   2.443   1.035   1.221 -0.0180  0.9697  0.2237
  760SOL    HW1 2279   2.380   1.097   1.175  0.7847  2.9476  0.8455
  760SOL    HW2 2280   2.447   1.052   1.320 -0.1605 -1.1916  0.8351
  761SOL     OW 2281   2.094   0.264   0.087 -0.4187  0.3505 -0.2966
  761SOL    HW1 2282   2.159   0.271   0.169  0.5880 -0.1149  0.0542
  761SOL    HW2 2283   2.007   0.304   0.121  0.7873  2.8773  2.0041
  762SOL     OW 2284   2.103   1.461   3.091  0.0385 -0.2296  0.4540
  762SOL    HW1 2285   2.132   1.368   3.057  1.4715 -3.3265 -0.1902
  762SOL    HW2 2286   2.061   1.515   3.013 -0.5013 -2.1191 -3.5092
  763SOL     OW 2287   0.318   2.072   1.836  0.3020 -0.2911  0.2625
  763SOL    HW1 2288   0.370   2.038   1.916 -0.2378  0.2727  1.4580
  763SOL    HW2 2289   0.277   1.994   1.780 -1.2062 -4.9213 -1.4687
  764SOL     OW 2290   2.837   2.300   3.054  0.0039  0.2310  0.1305
  764SOL    HW1 2291   2.819   2.201   3.029  0.6685 -0.3836 -1.1790
  764SOL    HW2 2292   2.922   2.331   3.010 -1.2533 -1.9097  0.8394
  765SOL     OW 2293   0.274   2.974   1.227 -0.3372 -0.3289 -0.0640
  765SOL    HW1 2294   0.361   2.963   1.279  0.9814 -2.5636  0.0959
  765SOL    HW2 2295   0.217   2.888   1.235  2.6238  0.8417  1.7025
  766SOL     OW 2296   2.782   1.822   2.297 -0.0523 -0.1360  0.2966
  766SOL    HW1 2297   2.872   1.774   2.294  0.6761  3.5773 -2.9491
  766SOL    HW2 2298   2.778   1.879   2.388 -0.6405 -0.4574  1.1537
  767SOL     OW 2299   2.384   0.704   2.232 -0.1469 -0.6850 -0.5861
  767SOL    HW1 2300   2.343   0.624   2.182 -1.4843  1.6141 -1.4259
  767SOL    HW2 2301   2.464   0.677   2.293 -2.0581  0.0938 -1.3707
  768SOL     OW 2302   1.373   3.071   2.851  0.0603  0.0214 -0.1835
  768SOL    HW1 2303   1.293   3.078   2.912 -0.7876  1.9307  1.1884
  768SOL    HW2 2304   1.421   0.053   2.829 -0.7920 -1.5140  2.3616
  769SOL     OW 2305   2.613   2.663   1.025 -0.3701  0.5046  0.2135
  769SOL    HW1 2306   2.711   2.656   0.990  0.9535 -0.1340  0.8087
  769SOL    HW2 2307   2.614   2.686   1.124  0.5309  2.3028 -1.1074
  770SOL     OW 2308   0.647   3.097   2.750  0.0087  0.5438 -0.4734
  770SOL    HW1 2309   0.615   2.999   2.730 -1.5362 -1.8731 -0.7534
  770SOL    HW2 2310   0.570   0.059   2.768  1.7227  0.7703 -1.0580
  771SOL     OW 2311   1.170   1.946   2.150  0.3942  0.6071  0.2712
  771SOL    HW1 2312   1.260   1.969   2.103  0.5137 -1.6867 -0.1775
  771SOL    HW2 2313   1.178   1.858   2.205  2.7683  0.2318 -0.2901
  772SOL     OW 2314   1.502   2.492   2.876 -0.2186 -0.3808  0.0827
  772SOL    HW1 2315   1.586   2.538   2.834  0.2608 -0.1244  0.8828
  772SOL    HW2 2316   1.452   2.551   2.950 -3.7041  2.5961  0.6048
  773SOL     OW 2317   1.875   0.924   1.336 -0.3862  0.5393  0.1206
  773SOL    HW1 2318   1.975   0.911   1.310  2.5569 -1.8080 -2.2716
  773SOL    HW2 2319   1.834   0.830   1.336 -0.4273 -3.7037  2.8814
  774SOL     OW 2320   0.930   0.721   0.937 -0.0954  0.3033 -0.7346
  774SOL    HW1 2321   1.019   0.733   0.983 -0.9115  0.9194 -1.5664
  774SOL    HW2 2322   0.860   0.699   1.010 -0.4665  1.3311 -0.3055
  775SOL     OW 2323   1.875   2.846   2.688 -0.4562 -0.4131  0.4884
  775SOL    HW1 2324   1.823   2.929   2.658  2.2170 -1.6069  0.4671
  775SOL    HW2 2325   1.824   2.762   2.718  0.1192 -1.4622  0.5539
  776SOL     OW 2326   2.132   0.908   1.301  0.2295  0.3189  0.3323
  776SOL    HW1 2327   2.180   0.997   1.307 -0.1689 -0.4518  1.6846
  776SOL    HW2 2328   2.138   0.888   1.200 -1.8853 -0.2086 -0.6087
  777SOL     OW 2329   0.199   1.032   2.057 -0.1665 -0.5214 -0.0570
  777SOL    HW1 2330   0.256   0.966   2.002  3.0396  1.8746 -0.2072
  777SOL    HW2 2331   0.256   1.096   2.114 -1.5756  2.0713  1.1066
  778SOL     OW 2332   0.019   0.968   3.007  1.0176  0.5314  0.3719
  778SOL    HW1 2333   0.053   0.947   2.910  2.0289 -0.4572  0.7338
  778SOL    HW2 2334   0.066   1.046   3.049 -1.8343 -0.0977 -1.9005
  779SOL     OW 2335   0.710   0.532   2.959 -0.0260  0.4550 -0.5225
  779SOL    HW1 2336   0.757   0.464   3.019  1.7093 -1.4172  5.5699
  779SOL    HW2 2337   0.702   0.490   2.864 -2.9636  0.6898 -2.2991
  780SOL     OW 2338   2.098   1.542   2.574 -0.5784 -0.7856  0.0833
  780SOL    HW1 2339   2.042   1.571   2.490  1.2271  0.5847 -3.2718
  780SOL    HW2 2340   2.148   1.624   2.610  1.0905 -0.2619  0.8406
  781SOL     OW 2341   2.859   1.012   2.056  0.0245 -0.1117  0.0704
  781SOL    HW1 2342   2.827   1.087   1.999  0.8329 -1.4766 -1.2181
  781SOL    HW2 2343   2.782   0.956   2.085  1.0187  0.1216  2.6793
  782SOL     OW 2344   0.808   1.925   2.751 -0.3938 -0.6156  0.5741
  782SOL    HW1 2345   0.794   1.826   2.765 -0.5013 -2.4985 -1.3874
  782SOL    HW2 2346   0.862   1.962   2.826  0.2436 -1.9610 -2.3288
  783SOL     OW 2347   1.275   2.307   1.216 -0.3161 -0.3308 -0.8003
  783SOL    HW1 2348   1.269   2.233   1.145  2.2700 -3.3026  0.8540
  783SOL    HW2 2349   1.213   2.385   1.193 -0.9456  0.5544  1.9720
  784SOL     OW 2350   1.529   0.641   2.486 -0.0876  0.0009 -0.1733
  784SOL    HW1 2351   1.624   0.664   2.516 -0.0886 -1.6203  0.5863
  784SOL    HW2 2352   1.536   0.548   2.438  1.5481 -0.8724 -0.2619
  785SOL     OW 2353   0.101   0.133   2.064 -0.7141  0.3231  0.2112
  785SOL    HW1 2354   0.055   0.090   2.151  3.3782  0.8944  0.7837
  785SOL    HW2 2355   0.118   0.061   1.992 -1.1502 -0.6352  3.0332
  786SOL     OW 2356   0.815   2.062   0.378  0.1959  0.0534  0.4525
  786SOL    HW1 2357   0.743   2.096   0.312 -0.9474  1.0616 -1.0677
  786SOL    HW2 2358   0.812   2.119   0.461  2.5886 -0.0433  0.0057
  787SOL     OW 2359   1.255   0.112   0.806 -0.3355 -0.4293  0.3827
  787SOL    HW1 2360   1.213   0.100   0.713  1.2190 -1.1315  0.6425
  787SOL    HW2 2361   1.203   0.073   0.885  1.1741  0.6783 -2.3225
  788SOL     OW 2362   2.773   1.459   1.176 -0.0454 -0.3546 -0.2478
  788SOL    HW1 2363   2.719   1.541   1.136 -2.1752  1.5144 -0.6450
  788SOL    HW2 2364   2.823   1.485   1.261  1.5754 -2.3012 -0.1540
  789SOL     OW 2365   2.460   1.092   2.032  0.2578 -0.0264  0.6336
  789SOL    HW1 2366   2.475   0.992   2.019 -4.2365  0.9281  0.0797
  789SOL    HW2 2367   2.543   1.145   1.995  2.1286  0.9544 -0.6488
  790SOL     OW 2368   0.998   0.045   0.271  0.1353 -0.4607  0.0255
  790SOL    HW1 2369   1.095   0.029   0.286  1.1780  0.7746 -2.0723
  790SOL    HW2 2370   0.947   0.058   0.355  4.0227  0.0263 -0.7144
  791SOL     OW 2371   3.072   0.012   0.151  0.2285  0.2174 -0.0431
  791SOL    HW1 2372   0.027   0.047   0.077  0.3427 -2.1056 -1.9928
  791SOL    HW2 2373   0.004   0.031   0.244 -1.2835  0.3387 -1.7571
  792SOL     OW 2374   1.404   0.474   2.003 -0.6463 -0.3195 -0.3032
  792SOL    HW1 2375   1.448   0.388   2.026 -0.9110  1.7859 -0.5933
  792SOL    HW2 2376   1.305   0.478   2.024 -2.1981  0.2747 -2.3410
  793SOL     OW 2377   2.982   0.170   1.267 -0.8278 -0.1447  0.8006
  793SOL    HW1 2378   3.011   0.269   1.262  0.6499  0.2506  0.9491
  793SOL    HW2 2379   3.028   0.114   1.335 -2.6374  1.9547 -0.6132
  794SOL     OW 2380   0.106   0.379   2.193 -0.3874  0.3277 -0.0357
  794SOL    HW1 2381   0.166   0.451   2.151 -0.3754 -1.4069 -0.7773
  794SOL    HW2 2382   0.115   0.298   2.132 -2.5807  0.5909 -1.6229
  795SOL     OW 2383   0.735   1.446   0.478 -0.5979  0.2183  0.1797
  795SOL    HW1 2384   0.759   1.382   0.559 -1.3360 -0.7826  1.7545
  795SOL    HW2 2385   0.635   1.454   0.478  1.5942 -2.0358 -0.0382
  796SOL     OW 2386   3.045   0.850   0.137 -0.0579 -0.7296  0.3170
  796SOL    HW1 2387   3.045   0.930   0.200 -0.0531 -0.3682 -2.3484
  796SOL    HW2 2388   3.086   0.869   0.045 -0.6741 -1.9454  1.3172
  797SOL     OW 2389   1.570   2.941   2.447  0.1669 -0.2259 -0.1806
  797SOL    HW1 2390   1.559   2.857   2.499  2.1979 -1.3353 -0.0336
  797SOL    HW2 2391   1.524   2.942   2.355  1.4029 -1.6858  2.3402
  798SOL     OW 2392   2.949   2.976   1.280  0.1340  0.0051 -0.2459
  798SOL    HW1 2393   2.960   3.076   1.281  0.2024 -0.1222 -1.1317
  798SOL    HW2 2394   2.978   2.935   1.193 -0.8463 -0.0510 -4.0997
  799SOL     OW 2395   2.788   1.134   1.629 -0.2819 -0.0004  0.0797
  799SOL    HW1 2396   2.726   1.052   1.616 -2.5859  0.2358  1.5934
  799SOL    HW2 2397   2.880   1.092   1.622 -2.8246 -2.0559  2.1470
  800SOL     OW 2398   0.199   1.815   0.436  0.5354 -0.3850 -0.1836
  800SOL    HW1 2399   0.230   1.890   0.496  0.5520  1.3412 -0.8324
  800SOL    HW2 2400   0.268   1.802   0.361 -2.0656  0.5115  1.4577
  801SOL     OW 2401   2.030   1.694   0.671 -0.0601  0.1680  0.0714
  801SOL    HW1 2402   2.049   1.677   0.569 -0.6915  1.4999 -6.1916
  801SOL    HW2 2403   1.930   1.712   0.689  1.7422 -0.4382 -1.0351
  802SOL     OW 2404   1.342   1.176   2.773  0.1588  0.0070  0.4871
  802SOL    HW1 2405   1.326   1.226   2.683  0.4289 -1.3850 -0.6489
  802SOL    HW2 2406   1.440   1.148   2.782  0.0265  0.2642  0.8529
  803SOL     OW 2407   0.486   2.031   2.040 -0.0575  0.2230 -0.0496
  803SOL    HW1 2408   0.555   2.099   2.011  0.1859 -0.2556  0.3433
  803SOL    HW2 2409   0.518   1.934   2.023  1.7726  4.4480 -2.1809
  804SOL     OW 2410   1.399   2.158   0.807 -0.0819 -0.2251  0.1574
  804SOL    HW1 2411   1.435   2.082   0.753 -0.2844  1.1230  2.2996
  804SOL    HW2 2412   1.376   2.241   0.751  1.9987 -0.5925 -0.0080
  805SOL     OW 2413   2.378   2.308   2.602  0.1055  0.4291 -0.3736
  805SOL    HW1 2414   2.431   2.227   2.566 -1.2279 -1.2223 -1.5255
  805SOL    HW2 2415   2.413   2.396   2.562 -0.6943 -0.3876 -0.2466
  806SOL     OW 2416   0.278   0.397   0.657  0.8123 -0.1639 -0.5449
  806SOL    HW1 2417   0.227   0.307   0.662 -0.9159  0.7676 -0.1097
  806SOL    HW2 2418   0.288   0.443   0.750 -0.0424 -0.0995  1.4908
  807SOL     OW 2419   2.927   0.497   2.602 -0.5361  0.5328  0.7209
  807SOL    HW1 2420   2.844   0.518   2.651  0.2291  0.7931  0.6817
  807SOL    HW2 2421   2.915   0.476   2.502  3.3123  0.0993  0.9646
  808SOL     OW 2422   0.788   2.222   0.850 -0.0714 -0.8649  0.0858
  808SOL    HW1 2423   0.834   2.230   0.939 -0.1347  0.3391 -1.3963
  808SOL    HW2 2424   0.692   2.256   0.861  2.4590 -1.7622 -1.0682
  809SOL     OW 2425   2.630   0.258   2.649 -0.1160 -0.1482 -0.0309
  809SOL    HW1 2426   2.683   0.222   2.569  1.6289 -1.1718 -1.7283
  809SOL    HW2 2427   2.529   0.250   2.629 -3.0188 -2.1713 -0.8404
  810SOL     OW 2428   1.519   1.103   0.621  0.0602 -0.0312  0.0116
  810SOL    HW1 2429   1.521   1.169   0.697 -0.7908 -0.0898  1.0695
  810SOL    HW2 2430   1.584   1.026   0.635 -0.4932  3.8080 -0.0638
  811SOL     OW 2431   1.869   2.786   1.927  0.2618 -0.6131 -0.5265
  811SOL    HW1 2432   1.805   2.836   1.866 -0.1235  1.7593  3.2362
  811SOL    HW2 2433   1.939   2.849   1.956  1.4891 -0.8742 -0.0401
  812SOL     OW 2434   1.900   2.661   0.455  0.2352 -0.0315 -0.2158
  812SOL    HW1 2435   1.816   2.638   0.510 -0.3553 -2.6917  1.5503
  812SOL    HW2 2436   1.978   2.659   0.520 -0.5608  2.5888 -1.4774
  813SOL     OW 2437   0.905   0.580   2.033  0.2153  0.4787 -0.4970
  813SOL    HW1 2438   0.999   0.560   2.061 -2.7783 -0.3073 -0.1888
  813SOL    HW2 2439   0.882   0.670   2.079  1.5905  2.1170 -1.1115
  814SOL     OW 2440   0.088   0.023   1.410  0.2410  0.3684 -0.0763
  814SOL    HW1 2441   0.131   0.108   1.447  0.5197 -1.7237 -1.3458
  814SOL    HW2 2442   0.150   3.068   1.347  2.0352  0.7448 -3.3050
  815SOL     OW 2443   0.305   0.227   1.001 -0.4723  0.2992  0.2479
  815SOL    HW1 2444   0.362   0.143   0.997 -1.2933 -0.2458  0.6531
  815SOL    HW2 2445   0.273   0.244   0.905 -0.1971 -1.2579  0.0415
  816SOL     OW 2446   2.742   1.564   2.391 -0.2631 -0.3311 -0.3190
  816SOL    HW1 2447   2.662   1.505   2.361 -0.1067 -1.2983 -1.1732
  816SOL    HW2 2448   2.740   1.657   2.350  0.5454 -1.7648  2.4960
  817SOL     OW 2449   1.264   3.021   0.331  0.2814 -0.1334  0.2478
  817SOL    HW1 2450   1.342   3.086   0.319  1.8343  1.2496  2.2943
  817SOL    HW2 2451   1.290   2.930   0.291 -0.4044  0.6753 -0.1611
  818SOL     OW 2452   1.554   0.679   0.082  0.0880  0.3301 -0.2005
  818SOL    HW1 2453   1.640   0.728   0.111  0.2242  3.2606  0.9810
  818SOL    HW2 2454   1.584   0.585   0.053  0.9757 -5.0353 -2.0823
  819SOL     OW 2455   2.240   2.721   2.958  0.0830 -0.2085  0.3093
  819SOL    HW1 2456   2.178   2.664   2.899 -4.9431 -1.0360 -1.3663
  819SOL    HW2 2457   2.182   2.795   3.000 -2.3974  1.4282 -0.0392
  820SOL     OW 2458   1.603   1.088   2.856 -0.3139  0.2030  0.3080
  820SOL    HW1 2459   1.563   1.007   2.901  0.6028  0.4886 -1.4310
  820SOL    HW2 2460   1.632   1.153   2.928 -1.2893 -0.1260  0.2059
  821SOL     OW 2461   0.017   0.597   1.413 -0.8211 -0.2840 -0.0870
  821SOL    HW1 2462   3.097   0.541   1.495  0.0843 -0.6141 -1.0437
  821SOL    HW2 2463   3.085   0.555   1.327 -1.5031 -1.4916  1.0211
  822SOL     OW 2464   1.177   2.527   2.276  0.3490  0.2471  0.5427
  822SOL    HW1 2465   1.255   2.499   2.335 -1.0063 -0.5110 -3.9656
  822SOL    HW2 2466   1.087   2.501   2.319 -1.0844 -0.2674  1.4986
  823SOL     OW 2467   0.431   1.252   1.634  0.6056 -0.2050  0.0543
  823SOL    HW1 2468   0.506   1.320   1.651  1.9090 -1.5690  0.7213
  823SOL    HW2 2469   0.455   1.160   1.672 -1.4603  0.5307  0.0609
  824SOL     OW 2470   1.694   2.824   2.146  0.1472 -0.2194  0.3759
  824SOL    HW1 2471   1.726   2.756   2.212  0.3479 -0.9353  0.4543
  824SOL    HW2 2472   1.757   2.828   2.061  3.7783  0.6922 -2.3188
  825SOL     OW 2473   1.120   1.040   0.081  0.2146 -0.1472  0.4128
  825SOL    HW1 2474   1.101   1.133   0.111  0.5146 -0.8470 -1.0615
  825SOL    HW2 2475   1.061   0.978   0.132  3.3663  0.1202 -2.0885
  826SOL     OW 2476   2.176   0.742   2.887  1.0429  0.1829  0.1376
  826SOL    HW1 2477   2.158   0.749   2.789 -2.0565  0.6556 -1.0332
  826SOL    HW2 2478   2.204   0.828   2.932  1.0685 -1.0602  0.5681
  827SOL     OW 2479   0.436   2.342   2.758  0.1941 -0.3187  0.1234
  827SOL    HW1 2480   0.514   2.280   2.756 -1.0492 -1.1259  1.3817
  827SOL    HW2 2481   0.374   2.336   2.680 -0.0982  0.1131  2.0772
  828SOL     OW 2482   2.910   0.261   1.718 -1.0288 -0.2162 -0.6388
  828SOL    HW1 2483   2.992   0.298   1.664  0.2291  0.4074  2.7132
  828SOL    HW2 2484   2.853   0.340   1.739  0.1590 -1.1903 -1.9073
  829SOL     OW 2485   0.810   1.410   0.996  0.3426 -0.1711 -0.4254
  829SOL    HW1 2486   0.842   1.497   0.954 -0.0994 -2.3614  1.0911
  829SOL    HW2 2487   0.893   1.350   1.004  1.5085  2.6447  0.3106
  830SOL     OW 2488   0.791   1.232   1.501 -0.4600  0.0467 -0.3423
  830SOL    HW1 2489   0.742   1.260   1.415 -0.2092 -1.2930 -0.8235
  830SOL    HW2 2490   0.739   1.265   1.586  0.1145  1.8707  1.3528
  831SOL     OW 2491   0.407   2.092   0.033 -0.6486  0.3419 -0.6680
  831SOL    HW1 2492   0.494   2.050   3.102 -1.8334  0.6599  0.1390
  831SOL    HW2 2493   0.353   2.142   3.067  0.1371  0.0840  0.9444
  832SOL     OW 2494   0.838   3.048   3.071 -0.3718 -0.0254 -0.6170
  832SOL    HW1 2495   0.770   3.073   2.997  0.5758  0.9252 -0.9065
  832SOL    HW2 2496   0.810   3.095   0.057 -0.5482 -1.4448  0.4519
  833SOL     OW 2497   3.082   0.484   1.877  0.5152  0.2025  0.1217
  833SOL    HW1 2498   2.982   0.497   1.853 -3.1717 -0.5663  1.9097
  833SOL    HW2 2499   0.024   0.570   1.885 -1.0627 -2.9404  0.1376
  834SOL     OW 2500   2.947   0.531   0.967  1.0082 -0.1486  0.0179
  834SOL    HW1 2501   2.856   0.578   0.955  1.3635 -0.7581 -0.9025
  834SOL    HW2 2502   2.991   0.518   0.872 -0.5884 -3.6430 -2.3380
  835SOL     OW 2503   2.773   3.036   1.010  0.1712  0.5995  0.2708
  835SOL    HW1 2504   2.801   0.025   1.047  1.9950  0.7818 -0.7634
  835SOL    HW2 2505   2.685   3.000   1.047  1.9032 -1.5925  0.5548
  836SOL     OW 2506   0.132   2.066   2.848 -0.1893  0.0305  0.2545
  836SOL    HW1 2507   0.062   2.018   2.901 -0.2954 -1.9892 -0.4488
  836SOL    HW2 2508   0.189   2.136   2.897  0.2458 -0.1001  0.0598
  837SOL     OW 2509   1.704   2.034   2.970 -0.2382  0.2067  0.7023
  837SOL    HW1 2510   1.804   2.042   2.981  0.4419  0.0172  0.6431
  837SOL    HW2 2511   1.681   1.948   2.919 -1.9484  2.9286  0.3457
  838SOL     OW 2512   2.670   0.909   1.577 -0.6283 -0.2050  0.1951
  838SOL    HW1 2513   2.714   0.828   1.523  0.1361  0.1010 -2.5719
  838SOL    HW2 2514   2.608   0.872   1.647  1.7211  2.0369  1.4444
  839SOL     OW 2515   1.280   0.872   0.703 -0.1067 -0.6613 -0.1118
  839SOL    HW1 2516   1.183   0.882   0.738 -1.3168 -0.1743  2.5107
  839SOL    HW2 2517   1.296   0.922   0.618 -1.9801 -0.8738  0.1729
  840SOL     OW 2518   1.515   0.521   0.876  0.1585  0.4999 -0.1808
  840SOL    HW1 2519   1.435   0.454   0.883 -0.0889 -4.0036  1.5548
  840SOL    HW2 2520   1.483   0.618   0.866 -3.3228  1.9971 -0.6717
  841SOL     OW 2521   0.335   2.821   0.502  0.6495 -0.3371  0.4639
  841SOL    HW1 2522   0.249   2.857   0.547 -2.8232  3.2576  0.3257
  841SOL    HW2 2523   0.417   2.874   0.533 -2.5598  0.8960 -0.7468
  842SOL     OW 2524   0.531   0.679   0.525 -0.1671  0.0258  0.0370
  842SOL    HW1 2525   0.586   0.603   0.559 -0.2396  0.8010 -2.1641
  842SOL    HW2 2526   0.450   0.637   0.476 -1.2774  0.4727  0.3617
  843SOL     OW 2527   0.928   0.976   1.725  0.2451 -0.8435  0.0520
  843SOL    HW1 2528   0.856   1.030   1.765  3.7073 -2.0092 -0.6438
  843SOL    HW2 2529   0.923   1.000   1.625 -2.1435 -1.0670 -3.1443
  844SOL     OW 2530   1.282   2.177   0.137 -0.3222 -1.1440 -0.0529
  844SOL    HW1 2531   1.363   2.123   0.102  0.4533  3.3328 -0.6496
  844SOL    HW2 2532   1.300   2.276   0.145 -4.3315  0.0347 -1.5644
  845SOL     OW 2533   2.505   2.592   2.271  0.1594  0.3663 -0.3071
  845SOL    HW1 2534   2.442   2.660   2.222  1.2909 -0.3373  0.6863
  845SOL    HW2 2535   2.580   2.555   2.207  2.0455 -2.9377 -2.8132
  846SOL     OW 2536   1.965   2.212   3.000 -0.0506 -0.2634  0.7311
  846SOL    HW1 2537   2.005   2.290   2.943  4.2504  2.0400 -1.7827
  846SOL    HW2 2538   1.903   2.249   3.069  3.6183 -1.1970 -2.3554
  847SOL     OW 2539   1.880   2.756   2.421  0.0899  0.1615 -0.0852
  847SOL    HW1 2540   1.888   2.842   2.368  0.4414 -0.7883  0.0142
  847SOL    HW2 2541   1.925   2.760   2.516  0.8619 -0.4791  0.9181
  848SOL     OW 2542   0.861   0.485   0.420  0.5415 -0.1912 -0.2130
  848SOL    HW1 2543   0.786   0.487   0.351  1.1231 -0.3393 -1.4365
  848SOL    HW2 2544   0.819   0.468   0.514  0.1415 -0.9149  0.8657
  849SOL     OW 2545   0.801   2.846   1.264 -0.3849 -0.2277  0.4353
  849SOL    HW1 2546   0.813   2.742   1.267 -1.8776 -0.5383  0.6727
  849SOL    HW2 2547   0.889   2.892   1.286 -0.3271  1.7550 -0.4360
  850SOL     OW 2548   0.348   1.714   0.052  0.2619  0.4765  0.2976
  850SOL    HW1 2549   0.380   1.783   0.123  1.1964  0.3029  3.3403
  850SOL    HW2 2550   0.253   1.737   0.027 -0.1102  1.4236  1.7016
  851SOL     OW 2551   0.391   0.765   0.133  0.2019  0.0538  0.2520
  851SOL    HW1 2552   0.424   0.854   0.096  0.1547  0.5605  0.5056
  851SOL    HW2 2553   0.297   0.762   0.166  0.9341  1.6080  0.2331
  852SOL     OW 2554   1.739   1.955   1.722 -0.6993  0.6065  0.0002
  852SOL    HW1 2555   1.759   2.026   1.795  1.2217  1.0619  0.9953
  852SOL    HW2 2556   1.726   1.999   1.631  0.3463  3.3563  1.8828
  853SOL     OW 2557   0.388   1.880   0.258 -0.6118 -0.0115  0.0731
  853SOL    HW1 2558   0.458   1.881   0.333  1.5487 -2.4992  0.1373
  853SOL    HW2 2559   0.387   1.965   0.203 -1.6910  0.1280  1.5198
  854SOL     OW 2560   1.931   1.332   1.478 -0.0522 -0.3048  0.0243
  854SOL    HW1 2561   2.028   1.330   1.442  1.1937 -0.7927 -2.0113
  854SOL    HW2 2562   1.900   1.233   1.486  0.8976  1.2593 -1.3241
  855SOL     OW 2563   0.744   2.361   0.115 -0.0289  0.2886  0.0991
  855SOL    HW1 2564   0.826   2.416   0.097 -0.6478 -1.3340 -1.0588
  855SOL    HW2 2565   0.698   2.339   0.025 -0.2229  1.2080 -0.4856
  856SOL     OW 2566   2.826   0.335   2.064  0.4633  0.1101  0.6196
  856SOL    HW1 2567   2.805   0.348   1.966  2.0384 -1.8852  0.7569
  856SOL    HW2 2568   2.893   0.406   2.105 -1.1943 -1.8029  1.2242
  857SOL     OW 2569   0.589   0.727   1.966 -0.1311  0.3286 -0.1141
  857SOL    HW1 2570   0.547   0.638   1.946  2.3249 -1.9006 -0.4764
  857SOL    HW2 2571   0.678   0.742   1.917  0.1326 -0.4924 -3.6639
  858SOL     OW 2572   0.287   1.220   2.243  0.0748  0.0886 -0.0413
  858SOL    HW1 2573   0.203   1.269   2.271  1.6142 -0.6342 -0.4852
  858SOL    HW2 2574   0.309   1.138   2.305  1.8218 -1.7238 -0.3767
  859SOL     OW 2575   2.156   0.033   0.419  0.0152 -0.5744 -0.1353
  859SOL    HW1 2576   2.194   0.110   0.363 -0.6066 -4.1368  0.6563
  859SOL    HW2 2577   2.055   0.011   0.409  0.4784 -0.8485  2.9727
  860SOL     OW 2578   1.740   2.988   3.006 -0.0511 -0.0071  0.7803
  860SOL    HW1 2579   1.729   3.007   2.905 -0.7017  1.0424 -0.7219
  860SOL    HW2 2580   1.797   3.064   3.045 -0.0269 -1.2167  0.0434
  861SOL     OW 2581   0.308   0.542   0.429  0.1025 -0.2028  0.1185
  861SOL    HW1 2582   0.242   0.613   0.395  1.5951  1.3956  0.5437
  861SOL    HW2 2583   0.294   0.508   0.522  0.8999  0.5301 -0.0066
  862SOL     OW 2584   1.765   0.225   2.135  0.2151 -0.0583 -0.3444
  862SOL    HW1 2585   1.832   0.163   2.087  1.8970 -0.9291 -1.1723
  862SOL    HW2 2586   1.668   0.198   2.105  0.4379  1.4383 -3.0924
  863SOL     OW 2587   0.153   1.863   1.202  0.3145 -0.2151  0.1117
  863SOL    HW1 2588   0.229   1.928   1.196  2.0279 -2.8036 -1.8230
  863SOL    HW2 2589   0.061   1.910   1.223 -1.3267  1.2374  2.4746
  864SOL     OW 2590   2.364   2.717   1.849  0.6728  0.6847 -0.3567
  864SOL    HW1 2591   2.294   2.704   1.777  0.5904 -2.2920 -0.3016
  864SOL    HW2 2592   2.324   2.680   1.940 -2.3977  1.8229  1.9830
  865SOL     OW 2593   1.024   0.391   1.098 -0.7948  0.2229  0.0976
  865SOL    HW1 2594   1.091   0.330   1.148 -0.5477 -0.2646  3.0732
  865SOL    HW2 2595   1.049   0.393   0.998 -0.0822  0.3688 -1.0892
  866SOL     OW 2596   2.589   2.927   0.562  0.3233  0.1560 -0.3779
  866SOL    HW1 2597   2.643   2.931   0.472 -0.9843  0.9617  0.6439
  866SOL    HW2 2598   2.613   2.847   0.619 -0.2320  3.0145  3.2733
  867SOL     OW 2599   2.711   2.689   0.695  0.4922 -0.0060  0.3800
  867SOL    HW1 2600   2.760   2.672   0.781 -1.4768  2.1971 -0.7264
  867SOL    HW2 2601   2.643   2.617   0.672  0.2941  4.9159  1.2908
  868SOL     OW 2602   1.134   2.199   2.255  0.3007  0.2583 -0.1461
  868SOL    HW1 2603   1.175   2.110   2.235  0.0822  0.1740  0.7264
  868SOL    HW2 2604   1.134   2.264   2.179 -1.7074  1.6463  2.0838
  869SOL     OW 2605   2.087   1.650   0.414 -0.5505 -0.0322  0.6089
  869SOL    HW1 2606   2.046   1.595   0.339 -0.3384 -1.1178  0.4377
  869SOL    HW2 2607   2.188   1.669   0.393 -0.1116  2.1955 -1.0353
  870SOL     OW 2608   2.557   2.149   0.644  0.3182  0.2130  0.0415
  870SOL    HW1 2609   2.460   2.138   0.621 -1.1916 -0.1420  0.1700
  870SOL    HW2 2610   2.568   2.107   0.736 -1.3350  0.6586 -0.6766
  871SOL     OW 2611   2.975   1.129   1.353  0.1359  0.0991 -0.0287
  871SOL    HW1 2612   3.045   1.208   1.363  1.4183 -1.6017  0.1753
  871SOL    HW2 2613   2.999   1.044   1.402  4.2006  1.9955 -0.7139
  872SOL     OW 2614   0.632   1.749   2.409  0.6529 -0.2241 -0.3019
  872SOL    HW1 2615   0.675   1.826   2.357  0.0825 -0.0907  1.2071
  872SOL    HW2 2616   0.548   1.782   2.459 -2.8208  1.2595 -0.4299
  873SOL     OW 2617   0.330   2.740   1.983  0.5977  0.0707  0.0402
  873SOL    HW1 2618   0.336   2.635   1.999 -0.2876 -1.5113  0.0290
  873SOL    HW2 2619   0.230   2.767   1.971 -0.8970  0.5531 -2.7706
  874SOL     OW 2620   1.184   0.905   2.190 -0.2110  0.1332 -0.3878
  874SOL    HW1 2621   1.206   0.992   2.138  0.2490  0.2402  0.0802
  874SOL    HW2 2622   1.204   0.920   2.294 -0.6780  0.6866  1.6141
  875SOL     OW 2623   2.606   2.742   1.289  0.0008 -0.4910 -0.8671
  875SOL    HW1 2624   2.689   2.764   1.347  0.5400 -0.4983 -1.1394
  875SOL    HW2 2625   2.532   2.810   1.312  1.1695  1.6551  1.9931
  876SOL     OW 2626   1.039   1.248   1.117  0.1425  0.0484 -0.0549
  876SOL    HW1 2627   1.129   1.228   1.163  2.4707 -1.1293 -0.7609
  876SOL    HW2 2628   1.041   1.227   1.018 -0.5977  0.6220  0.2972
  877SOL     OW 2629   0.222   0.288   1.475 -0.3328  0.0898  0.3539
  877SOL    HW1 2630   0.208   0.323   1.383 -1.2947 -2.3480  1.1135
  877SOL    HW2 2631   0.322   0.275   1.502  0.0779  1.8503  2.1797
  878SOL     OW 2632   2.460   1.686   2.769 -0.1513 -0.0443  0.5350
  878SOL    HW1 2633   2.487   1.751   2.842  1.9288  2.9746 -0.1864
  878SOL    HW2 2634   2.461   1.588   2.804  0.5037 -1.7219 -0.4947
  879SOL     OW 2635   2.724   1.982   1.268 -0.1505 -0.3473 -0.1164
  879SOL    HW1 2636   2.718   2.076   1.231 -0.0919 -0.6443  0.4812
  879SOL    HW2 2637   2.775   1.979   1.360 -0.8713  0.5097  4.3195
  880SOL     OW 2638   0.958   2.172   1.091  0.2296  0.0870 -0.3546
  880SOL    HW1 2639   0.945   2.222   1.181  0.8381  0.8067  1.4753
  880SOL    HW2 2640   1.052   2.132   1.081  0.6035 -0.2097  2.0609
  881SOL     OW 2641   1.567   1.757   1.154 -0.3118 -0.4064 -0.2740
  881SOL    HW1 2642   1.500   1.690   1.122  1.2296  2.5463 -0.8186
  881SOL    HW2 2643   1.621   1.717   1.228  2.0184 -0.9045  1.0933
  882SOL     OW 2644   2.266   1.184   2.548 -0.0395  0.6219 -0.3050
  882SOL    HW1 2645   2.235   1.279   2.559  1.4744 -2.1163 -1.1307
  882SOL    HW2 2646   2.230   1.148   2.462 -1.9248 -2.3659  1.2541
  883SOL     OW 2647   1.268   0.387   0.854 -0.4310  0.4545  0.1292
  883SOL    HW1 2648   1.180   0.444   0.830 -4.3359  1.1099 -0.0074
  883SOL    HW2 2649   1.266   0.289   0.812 -0.1405 -0.9199  0.0151
  884SOL     OW 2650   3.013   2.887   1.013 -0.3421  0.3273  0.3237
  884SOL    HW1 2651   3.096   2.946   0.992  3.1305  1.4746  0.5882
  884SOL    HW2 2652   2.921   2.933   1.009 -0.3409  1.4570 -2.1231
  885SOL     OW 2653   1.314   1.111   1.587  0.4882 -0.0043 -0.2206
  885SOL    HW1 2654   1.275   1.086   1.678 -0.7893 -1.8252 -0.9648
  885SOL    HW2 2655   1.366   1.199   1.597 -0.6471 -0.7664  1.2646
  886SOL     OW 2656   1.202   0.964   2.896 -0.3623  0.5224 -0.2002
  886SOL    HW1 2657   1.177   1.013   2.983 -1.3791 -0.7960  0.3340
  886SOL    HW2 2658   1.239   1.031   2.827 -0.5435  1.5432  1.0726
  887SOL     OW 2659   1.486   0.326   0.640 -0.1341 -0.1269  0.0986
  887SOL    HW1 2660   1.451   0.419   0.629  2.2797  1.1178 -2.0514
  887SOL    HW2 2661   1.525   0.316   0.737 -0.2958 -0.1624  0.7406
  888SOL     OW 2662   2.068   1.421   1.937  0.2684  0.0719 -0.4087
  888SOL    HW1 2663   2.153   1.468   1.967 -3.2695 -1.5282  0.1070
  888SOL    HW2 2664   2.053   1.335   1.998 -1.5846  1.0499 -0.0736
  889SOL     OW 2665   3.086   2.059   1.257 -0.2757  0.1883  0.5087
  889SOL    HW1 2666   3.074   2.110   1.170 -0.2426  2.3058 -3.7578
  889SOL    HW2 2667   3.003   2.053   1.317  2.7558  2.0187 -0.9251
  890SOL     OW 2668   1.206   2.197   0.545 -0.1082  0.1915  0.4791
  890SOL    HW1 2669   1.294   2.237   0.516 -1.1259  1.5173 -1.6698
  890SOL    HW2 2670   1.177   2.124   0.481  0.2907  1.5649 -1.3095
  891SOL     OW 2671   2.559   0.602   2.400 -0.7218 -0.6818 -0.3373
  891SOL    HW1 2672   2.660   0.626   2.390  0.3890  0.6599  2.3829
  891SOL    HW2 2673   2.537   0.506   2.385  1.1390  1.1188  0.9052
  892SOL     OW 2674   0.213   2.753   1.516  0.0647 -0.4241  0.2335
  892SOL    HW1 2675   0.206   2.729   1.419  3.1159  1.7094  1.8422
  892SOL    HW2 2676   0.311   2.753   1.545 -0.6321 -1.8001 -0.1932
  893SOL     OW 2677   0.908   0.339   2.379  0.8091 -0.6771  0.1784
  893SOL    HW1 2678   0.942   0.375   2.470  1.2587  2.2870  0.5234
  893SOL    HW2 2679   0.978   0.291   2.327 -2.2073 -0.6362 -0.7551
  894SOL     OW 2680   2.628   0.217   0.872  0.3106 -0.5234  0.7238
  894SOL    HW1 2681   2.681   0.189   0.958  0.3700  1.5698 -2.5662
  894SOL    HW2 2682   2.682   0.283   0.813  0.9310  1.6772 -0.4829
  895SOL     OW 2683   1.722   1.788   2.367  0.0389 -0.0116  0.0018
  895SOL    HW1 2684   1.712   1.697   2.411 -0.8185  0.3603 -0.0112
  895SOL    HW2 2685   1.640   1.848   2.386 -2.9016  2.6214 -1.3774
  896SOL     OW 2686   1.668   0.562   1.490  0.0355  0.0847  0.1922
  896SOL    HW1 2687   1.683   0.465   1.460  0.4881 -2.6413 -0.2068
  896SOL    HW2 2688   1.574   0.593   1.506  1.4062  1.5420 -0.8354
  897SOL     OW 2689   0.705   1.852   1.706  0.2243  0.2499 -0.6309
  897SOL    HW1 2690   0.717   1.762   1.660 -0.4969  0.0824 -2.1902
  897SOL    HW2 2691   0.664   1.917   1.635  1.7267  1.5514 -2.1839
  898SOL     OW 2692   1.794   1.928   2.139  0.1360 -0.0730 -0.0221
  898SOL    HW1 2693   1.811   1.853   2.077 -1.2823 -0.9504  2.5742
  898SOL    HW2 2694   1.749   1.893   2.224  0.7001 -1.9223 -1.5569
  899SOL     OW 2695   2.238   2.151   0.852  0.1592 -0.4272  0.2893
  899SOL    HW1 2696   2.311   2.151   0.924  0.1147 -0.4435  1.3812
  899SOL    HW2 2697   2.187   2.065   0.863  1.2775 -0.8957 -1.5943
  900SOL     OW 2698   1.085   0.011   2.674  0.2498  0.1471  0.1086
  900SOL    HW1 2699   1.057   3.040   2.739 -0.0174  0.6756 -1.3071
  900SOL    HW2 2700   1.069   0.097   2.719  0.0282 -1.3416  1.2051
  901SOL     OW 2701   1.224   1.517   2.340  0.1108 -0.5411 -0.1570
  901SOL    HW1 2702   1.155   1.589   2.360 -1.3831 -0.4834  3.3369
  901SOL    HW2 2703   1.306   1.557   2.296 -1.7062 -1.1716 -0.0413
  902SOL     OW 2704   2.325   0.627   0.007  0.0041  0.0542  0.5454
  902SOL    HW1 2705   2.266   0.677   3.046  0.8183  0.5476 -1.0041
  902SOL    HW2 2706   2.275   0.592   0.085  1.4056  1.4838  0.7529
  903SOL     OW 2707   2.165   0.844   2.247  0.0312 -0.4122 -0.2900
  903SOL    HW1 2708   2.134   0.821   2.153  1.8025  0.5960 -1.0032
  903SOL    HW2 2709   2.252   0.800   2.270 -1.2814  0.1552 -2.6915
  904SOL     OW 2710   1.896   1.063   1.580  0.0327  0.2410 -0.2671
  904SOL    HW1 2711   1.888   1.006   1.495 -1.8110 -0.2302  1.9859
  904SOL    HW2 2712   1.991   1.048   1.619  1.1733 -0.8657 -1.3090
  905SOL     OW 2713   2.172   0.433   0.705 -0.1155  0.2988  0.0579
  905SOL    HW1 2714   2.249   0.369   0.733  3.4974 -2.3477 -2.3851
  905SOL    HW2 2715   2.145   0.495   0.785 -0.9797 -2.7336  4.5064
  906SOL     OW 2716   2.596   1.695   0.426  0.4144 -0.7218  0.1303
  906SOL    HW1 2717   2.678   1.674   0.371  1.2167  0.1342  0.8752
  906SOL    HW2 2718   2.606   1.788   0.469 -1.5255  4.0867  1.9676
  907SOL     OW 2719   1.513   2.965   0.525 -0.2416 -0.3034 -0.5656
  907SOL    HW1 2720   1.574   2.919   0.592 -1.2071  0.5505  0.4980
  907SOL    HW2 2721   1.538   3.065   0.521 -0.0675  1.0305 -1.4526
  908SOL     OW 2722   1.576   2.177   2.187 -0.0723  0.2801  0.1175
  908SOL    HW1 2723   1.541   2.271   2.164  2.1000 -1.5120 -1.8188
  908SOL    HW2 2724   1.675   2.186   2.219 -1.2356 -0.6985 -0.4890
  909SOL     OW 2725   2.249   0.511   2.092 -0.4309 -0.8755  0.6456
  909SOL    HW1 2726   2.195   0.468   2.166  1.1699 -1.4340 -3.3472
  909SOL    HW2 2727   2.197   0.591   2.055 -1.2974 -0.1323 -0.5074
  910SOL     OW 2728   1.281   3.034   2.505 -0.1532 -0.3540 -0.4635
  910SOL    HW1 2729   1.222   3.080   2.577 -0.5729 -0.6243 -0.4972
  910SOL    HW2 2730   1.338   2.965   2.552 -0.2729  1.6049 -0.3100
  911SOL     OW 2731   2.660   1.033   2.721  0.3456 -0.0849 -0.3230
  911SOL    HW1 2732   2.612   0.952   2.755  1.2683  0.7939  0.8069
  911SOL    HW2 2733   2.726   1.063   2.790 -2.5045 -1.4226 -1.5994
  912SOL     OW 2734   0.005   2.273   1.560  0.0618 -0.0764  0.3792
  912SOL    HW1 2735   3.009   2.283   1.540 -0.9850 -0.6557 -0.5084
  912SOL    HW2 2736   0.018   2.229   1.651  0.1785 -0.1777 -1.3839
  913SOL     OW 2737   2.785   1.956   2.543 -0.0585 -0.5320 -0.6618
  913SOL    HW1 2738   2.753   1.883   2.606  0.5615 -0.0792 -1.0272
  913SOL    HW2 2739   2.816   2.041   2.590 -2.1397 -0.2278  0.7583
  914SOL     OW 2740   2.289   1.545   0.692 -0.9025 -0.1591  0.4556
  914SOL    HW1 2741   2.297   1.485   0.609  0.7058  0.2373 -0.1779
  914SOL    HW2 2742   2.209   1.605   0.687  3.8307  2.8510 -0.9427
  915SOL     OW 2743   0.464   2.895   2.174  0.0833 -0.3866  0.5268
  915SOL    HW1 2744   0.463   2.848   2.262  3.0341 -1.2771 -0.8842
  915SOL    HW2 2745   0.428   2.826   2.108 -0.4693  0.7712 -0.5583
  916SOL     OW 2746   0.571   2.568   1.090 -0.1693 -0.6875 -0.2194
  916SOL    HW1 2747   0.580   2.473   1.131  0.4205 -1.9113 -1.6019
  916SOL    HW2 2748   0.480   2.598   1.082  2.0372 -2.0329  1.3041
  917SOL     OW 2749   2.450   0.622   2.666 -0.2337 -0.2239 -0.3713
  917SOL    HW1 2750   2.436   0.721   2.700  0.0497  1.4792 -0.4895
  917SOL    HW2 2751   2.493   0.618   2.573  0.5837  3.3165  2.2666
  918SOL     OW 2752   1.493   2.292   2.633  0.0984  0.1673  0.0581
  918SOL    HW1 2753   1.480   2.256   2.726  0.9287  0.0095 -0.7568
  918SOL    HW2 2754   1.571   2.240   2.591 -1.4398 -0.5757  1.7964
  919SOL     OW 2755   1.803   2.239   1.103 -0.2313  0.4197 -0.0727
  919SOL    HW1 2756   1.864   2.182   1.044 -0.0307  0.9137  5.6116
  919SOL    HW2 2757   1.707   2.241   1.060  0.3518 -0.7795 -1.6506
  920SOL     OW 2758   1.330   0.066   2.262 -0.1344  0.3129  0.7526
  920SOL    HW1 2759   1.290   0.047   2.355 -0.5370  0.7970  2.1413
  920SOL    HW2 2760   1.384   3.088   2.229  0.9328 -0.8494 -0.3968
  921SOL     OW 2761   0.120   0.664   2.600  0.3484  0.0490  0.5400
  921SOL    HW1 2762   0.213   0.699   2.611  0.3309  0.1162 -0.8180
  921SOL    HW2 2763   0.103   0.594   2.677 -0.6547 -1.3979  1.5211
  922SOL     OW 2764   2.895   2.010   1.484  0.7522 -0.0426 -0.2940
  922SOL    HW1 2765   2.915   1.908   1.496 -1.4546  1.8364 -0.5518
  922SOL    HW2 2766   2.881   2.038   1.583  0.4937 -0.3997  1.7693
  923SOL     OW 2767   0.044   1.339   2.258 -0.1266 -0.4019  0.0737
  923SOL    HW1 2768   0.067   1.398   2.176  2.6301 -2.7670 -1.9607
  923SOL    HW2 2769   3.062   1.372   2.307  1.6447  0.4267 -0.2339
  924SOL     OW 2770   1.480   0.243   2.102  0.0529 -0.1660  0.6456
  924SOL    HW1 2771   1.533   0.219   2.019 -0.4770 -1.4330 -0.2561
  924SOL    HW2 2772   1.424   0.171   2.150  1.0008  0.8338  0.7796
  925SOL     OW 2773   0.019   1.199   0.719  0.3279  0.8708  0.0498
  925SOL    HW1 2774   0.115   1.195   0.690  0.1683  2.6399 -0.7961
  925SOL    HW2 2775   3.072   1.107   0.740 -0.9774  0.4188 -0.8535
  926SOL     OW 2776   2.344   0.580   1.068  0.3053 -0.2097  0.4299
  926SOL    HW1 2777   2.380   0.491   1.032 -0.0322  0.6036 -0.6328
  926SOL    HW2 2778   2.404   0.618   1.139  1.0348 -1.8944 -2.5345
  927SOL     OW 2779   1.504   0.762   1.108  0.2181  0.0611 -0.0265
  927SOL    HW1 2780   1.515   0.788   1.007 -1.0821 -2.3918  0.1304
  927SOL    HW2 2781   1.445   0.678   1.112 -1.5177  0.5757 -2.0223
  928SOL     OW 2782   2.992   0.512   2.243 -0.1795 -0.0659 -0.2081
  928SOL    HW1 2783   3.017   0.593   2.298 -0.6037 -0.5849  0.9842
  928SOL    HW2 2784   3.073   0.458   2.221  1.5419  1.0535 -0.5636
  929SOL     OW 2785   2.184   0.872   1.040  0.0795 -0.2325 -0.0458
  929SOL    HW1 2786   2.220   0.795   0.988  0.0754  2.4648  0.4437
  929SOL    HW2 2787   2.211   0.961   0.997 -2.1739 -0.4774  2.7724
  930SOL     OW 2788   1.803   2.540   1.151 -0.6545  0.4512  0.0360
  930SOL    HW1 2789   1.759   2.451   1.152  1.2204  1.9007 -1.5422
  930SOL    HW2 2790   1.758   2.606   1.083  0.4467  0.4640  0.5186
  931SOL     OW 2791   1.951   1.173   1.238  0.3896 -0.5346  0.3616
  931SOL    HW1 2792   1.896   1.090   1.261  1.7777  1.9692  0.7241
  931SOL    HW2 2793   1.891   1.237   1.181 -1.9630  4.6966  0.0909
  932SOL     OW 2794   2.961   0.938   1.532 -0.1181  0.4945 -0.1321
  932SOL    HW1 2795   2.874   0.884   1.512 -0.9802 -1.9133  0.7830
  932SOL    HW2 2796   3.044   0.879   1.546 -0.7911 -1.4112 -1.8166
  933SOL     OW 2797   1.847   1.760   1.937  0.7531  0.2076 -0.3221
  933SOL    HW1 2798   1.877   1.666   1.937 -0.9245  2.0796 -2.3364
  933SOL    HW2 2799   1.868   1.803   1.849  0.5728  0.3570  0.1368
  934SOL     OW 2800   1.689   2.918   1.787 -0.7446  0.0393 -0.0791
  934SOL    HW1 2801   1.726   2.961   1.702  0.2558  1.5151 -0.3418
  934SOL    HW2 2802   1.587   2.940   1.784 -5.4302  0.7789 -2.2046
  935SOL     OW 2803   3.058   0.941   1.120 -0.5345  0.1324 -0.5953
  935SOL    HW1 2804   0.039   0.988   1.153  1.2816  0.8094 -1.4231
  935SOL    HW2 2805   2.973   0.950   1.173 -0.8529  2.7488 -0.6545
  936SOL     OW 2806   2.806   0.746   1.407 -0.1656 -0.6061 -0.4207
  936SOL    HW1 2807   2.876   0.677   1.382  1.0972 -1.3048  1.7346
  936SOL    HW2 2808   2.754   0.781   1.327 -0.9878 -0.3431 -1.9991
  937SOL     OW 2809   0.777   0.140   1.365  0.1436 -0.0544 -0.1853
  937SOL    HW1 2810   0.792   0.229   1.325  2.0269 -0.8810 -1.3858
  937SOL    HW2 2811   0.719   0.141   1.447  2.8862 -1.6317 -3.8940
  938SOL     OW 2812   0.311   2.605   0.992 -0.5562  0.2033  0.2080
  938SOL    HW1 2813   0.244   2.532   1.001  1.6755  0.7127 -0.1304
  938SOL    HW2 2814   0.292   2.661   0.910  2.1097 -1.6135  1.1633
  939SOL     OW 2815   2.887   2.175   2.659 -0.0100  0.4226  0.0730
  939SOL    HW1 2816   2.978   2.170   2.614 -1.2295  5.1618  2.4939
  939SOL    HW2 2817   2.868   2.275   2.662  0.8727 -1.1329  0.4808
  940SOL     OW 2818   1.887   1.767   0.042  0.0184 -0.5573  1.0215
  940SOL    HW1 2819   1.916   1.741   3.050 -1.0513 -0.9504 -1.5796
  940SOL    HW2 2820   1.788   1.774   0.055  1.1931 -1.2318  1.5592
  941SOL     OW 2821   1.713   2.797   0.667  0.3422  0.7180 -0.2330
  941SOL    HW1 2822   1.693   2.720   0.603  1.7488  0.1245 -0.5466
  941SOL    HW2 2823   1.783   2.860   0.631  3.1705 -0.5513  1.0306
  942SOL     OW 2824   2.061   1.479   1.090  0.0491 -0.6063 -0.2750
  942SOL    HW1 2825   2.128   1.466   1.011 -2.1765 -1.0824 -0.8852
  942SOL    HW2 2826   2.109   1.462   1.180 -2.2746 -0.7518  1.1713
  943SOL     OW 2827   2.056   0.732   1.743 -0.2378  0.2676 -0.1085
  943SOL    HW1 2828   1.973   0.671   1.735 -0.9869  0.5341 -0.2328
  943SOL    HW2 2829   2.096   0.748   1.653 -2.7262 -1.1946  4.4072
  944SOL     OW 2830   1.312   0.820   1.725 -0.1716  0.1814 -0.3745
  944SOL    HW1 2831   1.267   0.893   1.780  0.4374  1.8997 -0.8275
  944SOL    HW2 2832   1.278   0.813   1.627 -1.2514 -3.6413 -1.7071
  945SOL     OW 2833   2.401   2.944   1.351 -0.3604  0.1002  0.5417
  945SOL    HW1 2834   2.451   3.008   1.289 -0.6709 -0.5754  0.2003
  945SOL    HW2 2835   2.419   2.964   1.449 -0.5822 -1.8240 -1.5115
  946SOL     OW 2836   0.743   1.871   0.699 -0.0898  0.5389  0.0792
  946SOL    HW1 2837   0.779   1.798   0.638 -2.0163  0.0996  0.3948
  946SOL    HW2 2838   0.791   1.957   0.684 -0.1944 -0.5271 -0.3579
  947SOL     OW 2839   1.112   2.517   1.144  0.3433 -0.8459  0.2957
  947SOL    HW1 2840   1.160   2.575   1.082 -1.5825  0.1285 -2.4804
  947SOL    HW2 2841   1.009   2.521   1.124 -0.4478  1.4658  0.6437
  948SOL     OW 2842   0.366   1.620   1.615 -0.4495 -0.4023  0.5041
  948SOL    HW1 2843   0.468   1.601   1.602  0.8287  0.3435  0.8536
  948SOL    HW2 2844   0.326   1.637   1.519 -0.9552 -0.1766 -0.7882
  949SOL     OW 2845   0.635   0.956   1.636 -0.0449  0.0524  0.1661
  949SOL    HW1 2846   0.664   0.855   1.656  0.1590 -2.6514 -1.3073
  949SOL    HW2 2847   0.693   1.024   1.689  1.0509 -0.4425  0.0386
  950SOL     OW 2848   0.301   0.623   1.281 -0.1348 -0.2668 -0.2684
  950SOL    HW1 2849   0.211   0.635   1.332 -0.9730 -0.3604  1.3407
  950SOL    HW2 2850   0.330   0.703   1.223  2.6399  1.1754 -1.3954
  951SOL     OW 2851   0.998   2.082   2.003 -0.6403 -0.3828 -0.0168
  951SOL    HW1 2852   1.062   2.028   2.057 -0.8298 -0.5255 -0.1898
  951SOL    HW2 2853   1.028   2.179   2.005 -0.8078 -2.0424  0.5985
  952SOL     OW 2854   1.273   1.652   0.051 -0.0124  0.6953 -0.4657
  952SOL    HW1 2855   1.183   1.685   0.078 -1.6936 -1.1878 -0.3752
  952SOL    HW2 2856   1.292   1.559   0.088  1.3909 -1.6068 -0.8212
  953SOL     OW 2857   1.003   2.915   2.824  0.0302 -0.1978 -0.0283
  953SOL    HW1 2858   0.929   2.871   2.880  4.7905 -0.0550  1.6480
  953SOL    HW2 2859   1.044   2.848   2.754 -0.0093 -3.3373 -0.0265
  954SOL     OW 2860   1.786   1.293   0.157 -0.7346 -0.3241  0.1572
  954SOL    HW1 2861   1.718   1.258   0.230 -1.3698 -0.4483  0.2816
  954SOL    HW2 2862   1.840   1.371   0.200  1.1052 -0.9645  0.8329
  955SOL     OW 2863   0.138   2.742   3.070 -0.1435 -0.3779 -0.2744
  955SOL    HW1 2864   0.090   2.804   0.027  2.7155 -1.8382 -1.6896
  955SOL    HW2 2865   0.139   2.775   2.970 -0.7295  0.3705 -3.5109
  956SOL     OW 2866   1.211   0.788   1.465 -0.4061  0.1759 -0.0351
  956SOL    HW1 2867   1.268   0.702   1.461 -1.4259 -0.4026  0.0333
  956SOL    HW2 2868   1.127   0.787   1.403 -2.6437  1.6767 -1.4713
  957SOL     OW 2869   1.557   1.833   1.893  0.6162  0.1936  0.1863
  957SOL    HW1 2870   1.647   1.870   1.851 -0.7017 -0.8747 -0.7418
  957SOL    HW2 2871   1.513   1.906   1.949 -1.8667  1.2119 -0.9013
  958SOL     OW 2872   1.224   2.134   1.429 -0.4758  0.2673 -0.0579
  958SOL    HW1 2873   1.320   2.147   1.460 -0.3155 -0.6179 -0.0802
  958SOL    HW2 2874   1.221   2.191   1.349  2.3888 -2.3706  2.9293
  959SOL     OW 2875   1.507   1.177   1.029  0.2255  0.2513 -0.3898
  959SOL    HW1 2876   1.577   1.116   1.070 -0.0624  2.7982  0.2477
  959SOL    HW2 2877   1.426   1.125   1.015  2.4572  0.2579  1.8035
  960SOL     OW 2878   0.214   1.505   2.932  0.2776 -0.0147  0.4804
  960SOL    HW1 2879   0.287   1.479   2.995  0.0915 -0.1253 -0.4755
  960SOL    HW2 2880   0.238   1.480   2.837 -1.2550  1.4359  2.3867
  961SOL     OW 2881   0.741   1.401   1.878  0.3568 -0.2205  0.3722
  961SOL    HW1 2882   0.717   1.441   1.972 -0.4842  1.2886 -1.2218
  961SOL    HW2 2883   0.829   1.439   1.844 -1.0752  3.3186  1.0586
  962SOL     OW 2884   1.470   1.996   0.612 -0.6869 -0.1142  0.0933
  962SOL    HW1 2885   1.568   1.965   0.602  1.0846 -1.4520  1.8452
  962SOL    HW2 2886   1.411   1.914   0.587 -0.7464  0.0225 -0.8756
  963SOL     OW 2887   1.448   1.982   2.581  0.1895 -0.1038 -0.2238
  963SOL    HW1 2888   1.386   2.024   2.653 -0.2451  0.2265  0.5243
  963SOL    HW2 2889   1.426   1.883   2.594  0.7678  0.3437 -1.4234
  964SOL     OW 2890   0.737   0.197   0.446 -0.0394  0.3398  0.2119
  964SOL    HW1 2891   0.662   0.237   0.503 -1.7543  1.7348 -0.2255
  964SOL    HW2 2892   0.750   0.097   0.468  2.0664  2.3651  2.6091
  965SOL     OW 2893   0.850   2.534   1.042  0.2131 -0.2578 -0.2874
  965SOL    HW1 2894   0.749   2.554   1.048  0.0042  0.8587 -0.7073
  965SOL    HW2 2895   0.879   2.510   0.946  1.5621  3.8437  1.5764
  966SOL     OW 2896   0.327   1.881   2.779 -0.1638 -0.2596 -0.6642
  966SOL    HW1 2897   0.361   1.885   2.680 -0.6937 -0.2044 -1.7829
  966SOL    HW2 2898   0.258   1.951   2.786 -1.1440 -1.6524 -0.5741
  967SOL     OW 2899   0.203   3.028   2.633  0.5506 -0.3927  0.3953
  967SOL    HW1 2900   0.149   3.069   2.713  1.2126  2.1092  3.3470
  967SOL    HW2 2901   0.274   3.095   2.598  1.5730  2.8595  1.1983
  968SOL     OW 2902   2.204   0.532   0.233  0.3651 -0.5699  0.1667
  968SOL    HW1 2903   2.225   0.575   0.325  1.2881 -0.7656  0.0733
  968SOL    HW2 2904   2.109   0.557   0.206  1.1844 -2.3923 -0.7175
  969SOL     OW 2905   0.293   1.381   1.882 -0.0640 -0.1911  0.0434
  969SOL    HW1 2906   0.222   1.306   1.898 -0.5924  2.4545  1.2880
  969SOL    HW2 2907   0.330   1.369   1.786  1.8448 -1.5402 -1.4198
  970SOL     OW 2908   2.590   1.392   1.514  0.0823 -0.1589  0.1849
  970SOL    HW1 2909   2.688   1.401   1.548  0.6837 -0.0899 -0.5173
  970SOL    HW2 2910   2.578   1.296   1.480  0.7191  0.5150  2.2361
  971SOL     OW 2911   2.120   0.427   1.174 -0.0909 -0.0249  0.3111
  971SOL    HW1 2912   2.176   0.511   1.158  0.0860  1.5348 -0.4460
  971SOL    HW2 2913   2.131   0.358   1.099 -0.4707  1.9191 -1.1756
  972SOL     OW 2914   0.102   3.019   1.906 -0.7325  0.2790 -0.3195
  972SOL    HW1 2915   0.048   2.970   1.979  2.3316  0.3116 -2.6166
  972SOL    HW2 2916   0.107   2.961   1.822 -0.2377  0.7117  2.2228
  973SOL     OW 2917   3.101   0.590   0.137  0.1502  0.3640 -0.4516
  973SOL    HW1 2918   3.082   0.688   0.123  1.7123  0.2659 -0.2249
  973SOL    HW2 2919   0.050   0.555   0.054 -0.9444 -2.5901  0.2312
  974SOL     OW 2920   1.822   1.378   2.244 -0.2062 -0.1131 -0.3544
  974SOL    HW1 2921   1.920   1.375   2.269 -0.3759 -1.0325  1.5192
  974SOL    HW2 2922   1.811   1.422   2.147  1.2580  1.3958 -1.9078
  975SOL     OW 2923   0.044   2.954   1.607  0.8057  0.1629  0.4814
  975SOL    HW1 2924   0.050   3.022   1.532 -1.7076 -2.5460  1.6632
  975SOL    HW2 2925   0.083   2.864   1.580 -2.4829 -1.3611 -1.2339
  976SOL     OW 2926   0.270   2.071   2.192 -0.7217  0.0246  0.0358
  976SOL    HW1 2927   0.237   2.168   2.186 -0.6146 -1.6277  1.8903
  976SOL    HW2 2928   0.353   2.057   2.130  0.1373  1.3173 -3.5641
  977SOL     OW 2929   1.103   2.793   0.438 -0.1491 -0.4477  0.3805
  977SOL    HW1 2930   1.181   2.798   0.505  5.2007  2.0189 -0.8878
  977SOL    HW2 2931   1.110   2.872   0.373  1.1676  0.1508 -0.8712
  978SOL     OW 2932   0.411   1.868   2.532 -0.5340  0.0348  0.5288
  978SOL    HW1 2933   0.447   1.960   2.490  0.4353  1.9203 -2.2085
  978SOL    HW2 2934   0.349   1.826   2.462 -2.3047 -1.6418 -2.2350
  979SOL     OW 2935   1.599   2.425   1.505  0.0111  0.2953  0.4119
  979SOL    HW1 2936   1.599   2.488   1.583 -2.2039 -3.3322 -3.0257
  979SOL    HW2 2937   1.695   2.418   1.467  2.3996  0.1986 -1.2604
  980SOL     OW 2938   0.743   1.640   2.793 -0.2060 -0.1436 -0.0667
  980SOL    HW1 2939   0.717   1.586   2.709 -1.2550 -3.4854  2.1293
  980SOL    HW2 2940   0.662   1.679   2.841  1.4400 -1.0819 -1.5068
  981SOL     OW 2941   2.467   2.930   2.310 -0.2055  0.1115 -0.4875
  981SOL    HW1 2942   2.494   2.938   2.213  1.0137 -1.2815  2.1224
  981SOL    HW2 2943   2.541   2.957   2.373  0.4099 -0.4016 -0.7689
  982SOL     OW 2944   2.992   0.324   3.008 -0.1951 -0.3249 -0.2654
  982SOL    HW1 2945   2.916   0.390   3.025  0.2027  2.3544 -0.6654
  982SOL    HW2 2946   3.061   0.373   2.949  0.9179  0.1829 -0.0693
  983SOL     OW 2947   1.792   1.443   1.975 -0.0734 -0.7523 -0.4692
  983SOL    HW1 2948   1.885   1.454   1.946 -3.7486 -1.8607 -2.8500
  983SOL    HW2 2949   1.743   1.368   1.927 -0.2492  1.4487 -0.3036
  984SOL     OW 2950   1.348   0.561   1.740 -0.5109 -0.1300 -0.3997
  984SOL    HW1 2951   1.364   0.530   1.835  1.7939  0.4617 -1.5790
  984SOL    HW2 2952   1.314   0.658   1.745  1.3522 -1.1770  0.6441
  985SOL     OW 2953   1.635   1.436   1.719  0.1014 -0.2469  0.1800
  985SOL    HW1 2954   1.581   1.523   1.691 -3.5231  1.3438 -0.7635
  985SOL    HW2 2955   1.736   1.450   1.723 -0.4052 -1.9631  1.0896
  986SOL     OW 2956   1.932   0.375   1.801 -0.2371 -0.4443  0.4060
  986SOL    HW1 2957   2.012   0.337   1.854 -2.4825  0.3058  0.6201
  986SOL    HW2 2958   1.892   0.459   1.848 -0.0502  1.1821 -2.1275
  987SOL     OW 2959   2.056   0.435   1.580  0.3543 -0.2952 -0.0189
  987SOL    HW1 2960   2.029   0.380   1.500  0.4117 -0.1448  1.6330
  987SOL    HW2 2961   1.993   0.410   1.655  0.4460  2.4888 -3.9566
  988SOL     OW 2962   2.655   0.874   2.169  0.1235 -0.8129 -0.3748
  988SOL    HW1 2963   2.566   0.848   2.130 -0.5245 -1.6795  1.1720
  988SOL    HW2 2964   2.697   0.790   2.210  0.3522 -1.7487  0.5442
  989SOL     OW 2965   2.094   1.921   2.831 -0.1371 -0.3468 -0.1941
  989SOL    HW1 2966   2.059   1.986   2.762  1.5138 -0.9970 -2.5641
  989SOL    HW2 2967   2.093   1.963   2.925 -3.0093  0.0256  2.1706
  990SOL     OW 2968   1.346   0.323   2.803  0.2350 -0.5897  0.6403
  990SOL    HW1 2969   1.249   0.319   2.773 -0.2185  0.3148  0.5708
  990SOL    HW2 2970   1.379   0.416   2.796  1.3566 -2.1884 -2.3551
  991SOL     OW 2971   1.159   0.813   0.393  0.5744 -0.2881 -0.2544
  991SOL    HW1 2972   1.203   0.900   0.422  1.2997 -0.3888  1.1200
  991SOL    HW2 2973   1.200   0.767   0.313  3.6095  2.2629 -0.0884
  992SOL     OW 2974   2.259   1.785   2.637  0.6452  0.2766  0.0497
  992SOL    HW1 2975   2.337   1.748   2.692 -0.4570 -2.1398 -1.0891
  992SOL    HW2 2976   2.196   1.830   2.698  3.3450  0.3833 -1.2874
  993SOL     OW 2977   0.417   0.359   0.270 -0.1536  0.1991 -0.4335
  993SOL    HW1 2978   0.395   0.262   0.291  0.6859  1.7778  2.0607
  993SOL    HW2 2979   0.371   0.420   0.342 -1.7002 -0.6604  1.3035
  994SOL     OW 2980   0.210   1.824   2.309 -0.4240 -0.0955 -0.2290
  994SOL    HW1 2981   0.115   1.784   2.294 -1.5253 -2.4415 -2.8520
  994SOL    HW2 2982   0.206   1.909   2.249 -0.9161  0.2429 -0.5558
  995SOL     OW 2983   1.840   1.431   2.824 -0.0377  0.4081 -0.4074
  995SOL    HW1 2984   1.827   1.519   2.786  2.5869  0.9008  2.4697
  995SOL    HW2 2985   1.933   1.387   2.817  0.2356  2.6657  1.5356
  996SOL     OW 2986   1.798   1.665   2.705  0.2136  0.0788 -0.2366
  996SOL    HW1 2987   1.758   1.614   2.627 -0.2429 -0.2075 -1.3021
  996SOL    HW2 2988   1.728   1.724   2.750  1.5820  0.5531  2.6019
  997SOL     OW 2989   2.129   1.653   1.485  0.4688 -0.6130 -0.2218
  997SOL    HW1 2990   2.204   1.670   1.554 -1.3465 -0.9456  1.7605
  997SOL    HW2 2991   2.042   1.690   1.523  0.2856 -0.6808  3.1764
  998SOL     OW 2992   2.589   1.417   0.039  0.3875  0.5563  0.3730
  998SOL    HW1 2993   2.571   1.316   0.063  0.0283 -2.0163 -2.0308
  998SOL    HW2 2994   2.684   1.446   0.050  1.3840 -1.8534  0.7584
  999SOL     OW 2995   2.679   2.539   0.341  0.2173 -0.2347  1.0457
  999SOL    HW1 2996   2.592   2.520   0.394  1.5962 -2.2840  0.5242
  999SOL    HW2 2997   2.655   2.591   0.253  0.9903 -0.5472  1.4564
 1000SOL     OW 2998   0.615   3.074   1.883 -0.0926  0.1864  0.5779
 1000SOL    HW1 2999   0.523   0.010   1.892  0.3686  0.1791  1.6211
 1000SOL    HW2 3000   0.651   3.041   1.975  2.3097 -2.7852  1.2923
   3.10176   3.10176   3.10176
