1000 SPC/Fw water molecules t= 462.00000 step= 462000
 3000
    1SOL     OW    1   2.934   2.907   1.524 -0.6190  0.2702  0.4081
    1SOL    HW1    2   2.922   2.823   1.465  1.1939  0.0432 -1.1538
    1SOL    HW2    3   2.847   2.954   1.547 -0.4916  0.6724 -0.0576
    2SOL     OW    4   2.661   0.114   0.021 -0.2685  0.6729 -0.1027
    2SOL    HW1    5   2.579   0.137   0.070  1.3326 -1.3467 -2.1669
    2SOL    HW2    6   2.746   0.105   0.076  1.1985  3.0263  4.8046
    3SOL     OW    7   1.288   2.576   0.293  0.0227 -0.2218 -0.2953
    3SOL    HW1    8   1.224   2.502   0.325 -0.1065 -0.0689  2.1897
    3SOL    HW2    9   1.357   2.601   0.364  0.6053 -0.6277  2.4601
    4SOL     OW   10   1.310   2.621   2.436 -0.3484 -0.2916 -0.0417
    4SOL    HW1   11   1.352   2.678   2.507  0.6344 -2.1669  1.0402
    4SOL    HW2   12   1.273   2.533   2.473  1.1147 -0.5252  1.5948
    5SOL     OW   13   2.150   0.243   2.198 -0.0698  0.6652  0.3836
    5SOL    HW1   14   2.182   0.204   2.109 -0.1817 -0.7232  0.5539
    5SOL    HW2   15   2.077   0.311   2.187  0.8136 -0.3086  0.0610
    6SOL     OW   16   2.624   1.704   1.246 -0.6930 -0.3430 -0.1763
    6SOL    HW1   17   2.656   1.609   1.218  1.9501 -1.4549 -0.5651
    6SOL    HW2   18   2.540   1.707   1.304  1.7063  0.5474 -1.8451
    7SOL     OW   19   1.127   2.104   0.460 -0.6888  0.1614 -0.3860
    7SOL    HW1   20   1.078   2.101   0.551 -3.2311  0.3444  3.1793
    7SOL    HW2   21   1.072   2.055   0.386 -1.0257  0.7221  1.1385
    8SOL     OW   22   0.239   0.753   0.506  0.1714 -0.5601  0.1733
    8SOL    HW1   23   0.310   0.762   0.434 -1.9703 -0.0427 -0.4877
    8SOL    HW2   24   0.154   0.740   0.451  2.7068  0.8607 -1.3569
    9SOL     OW   25   0.261   2.907   1.630  0.3949  0.4122  0.2964
    9SOL    HW1   26   0.342   2.844   1.647  0.0653 -0.0257  0.4119
    9SOL    HW2   27   0.173   2.860   1.635  0.7741 -0.1788  0.1302
   10SOL     OW   28   1.131   2.416   0.462  0.2750  0.3505  0.2529
   10SOL    HW1   29   1.187   2.340   0.498 -2.7512 -1.2102 -0.4511
   10SOL    HW2   30   1.089   2.473   0.536  0.1281 -2.1938  1.0515
   11SOL     OW   31   2.193   0.940   1.322 -0.6054  0.3836  0.3010
   11SOL    HW1   32   2.260   0.871   1.283  0.1001  2.0490 -2.3567
   11SOL    HW2   33   2.132   0.899   1.392  0.7646  1.9111  1.5057
   12SOL     OW   34   0.280   0.731   2.093 -0.1899  0.2800 -0.2976
   12SOL    HW1   35   0.308   0.828   2.073 -0.7706 -1.6192 -0.1955
   12SOL    HW2   36   0.305   0.712   2.191  1.1466  0.7553  0.7804
   13SOL     OW   37   1.934   0.088   0.210 -0.1343  0.0956 -0.2737
   13SOL    HW1   38   1.944   0.162   0.282  0.9773  0.6272  0.7335
   13SOL    HW2   39   1.849   0.089   0.160  0.1376  0.4868  1.8529
   14SOL     OW   40   1.973   2.104   0.050  0.0199 -0.0855  0.0939
   14SOL    HW1   41   1.885   2.133   0.002 -1.8200  2.2784  1.3773
   14SOL    HW2   42   1.970   2.005   0.076 -0.8761  2.0276 -2.2509
   15SOL     OW   43   0.098   2.889   2.724 -0.2014  0.8620  0.0982
   15SOL    HW1   44   0.026   2.909   2.651 -0.0068 -1.6380  1.4600
   15SOL    HW2   45   0.077   2.934   2.814  1.3929 -0.3719  3.3531
   16SOL     OW   46   2.967   0.656   1.084 -0.0207  0.1441 -0.0579
   16SOL    HW1   47   2.982   0.614   0.992 -2.1783 -0.3358 -2.7124
   16SOL    HW2   48   2.927   0.589   1.150  1.5061 -0.7743  1.2761
   17SOL     OW   49   0.690   0.271   0.883  0.2174 -0.2929  0.2072
   17SOL    HW1   50   0.693   0.230   0.980  0.6250  0.8224 -2.1173
   17SOL    HW2   51   0.755   0.216   0.824 -1.6682  0.1667 -0.4667
   18SOL     OW   52   3.003   0.201   0.462  0.2355  0.1186 -0.1493
   18SOL    HW1   53   2.906   0.224   0.465 -1.9379  0.6050 -2.2095
   18SOL    HW2   54   3.044   0.187   0.558 -0.2770  1.8948  1.9970
   19SOL     OW   55   1.644   1.337   1.167  0.0180  0.7063  0.1090
   19SOL    HW1   56   1.619   1.388   1.087  0.0175 -1.1075  1.8752
   19SOL    HW2   57   1.587   1.371   1.244  0.0485 -0.8630 -0.5405
   20SOL     OW   58   2.346   1.899   2.378  0.0293 -0.0952  0.5118
   20SOL    HW1   59   2.413   1.923   2.452  0.3708 -0.0618 -0.1657
   20SOL    HW2   60   2.390   1.839   2.306  1.5593  2.4007  1.3521
   21SOL     OW   61   1.501   2.971   0.265  0.0592 -0.0928  0.1065
   21SOL    HW1   62   1.539   2.881   0.238 -0.9137 -4.4750 -1.2788
   21SOL    HW2   63   1.423   3.005   0.211 -0.1334 -0.1335 -1.0917
   22SOL     OW   64   2.283   0.902   0.237 -0.2907  0.2034  0.3616
   22SOL    HW1   65   2.342   0.983   0.230  0.1125 -1.9817  1.1815
   22SOL    HW2   66   2.312   0.863   0.327  1.8437 -0.3171  0.8896
   23SOL     OW   67   1.018   0.462   2.016  0.1772  0.3235 -0.5874
   23SOL    HW1   68   0.981   0.368   1.995  0.8894 -4.3279 -0.4215
   23SOL    HW2   69   1.110   0.451   2.055 -2.8052  0.2058  2.9483
   24SOL     OW   70   1.942   2.299   0.995  0.0610 -0.4719  0.0850
   24SOL    HW1   71   2.041   2.286   0.988 -2.3113 -1.3602  0.6492
   24SOL    HW2   72   1.912   2.365   0.920 -2.3597 -0.6487 -0.2915
   25SOL     OW   73   1.551   0.095   2.969 -0.6254  0.2834 -0.0212
   25SOL    HW1   74   1.624   0.043   3.014 -1.3937  1.4543  1.2322
   25SOL    HW2   75   1.572   0.132   2.878  1.0768 -0.3573  1.5622
   26SOL     OW   76   1.193   2.869   2.575  0.0309 -0.4078 -0.0259
   26SOL    HW1   77   1.281   2.847   2.532  0.8673 -0.3436  0.2772
   26SOL    HW2   78   1.151   2.789   2.628  0.6929 -3.5018  1.5713
   27SOL     OW   79   1.089   0.475   1.001  0.3212 -0.3110 -0.2580
   27SOL    HW1   80   1.141   0.407   0.949 -3.8399 -0.0368  1.8031
   27SOL    HW2   81   1.080   0.453   1.100  0.3035 -1.3694  1.0502
   28SOL     OW   82   0.201   1.917   0.978 -0.1238  0.1103  0.5469
   28SOL    HW1   83   0.296   1.923   1.016  2.1051 -3.8110 -2.1435
   28SOL    HW2   84   0.134   1.908   1.054 -0.3755 -0.1963 -1.8608
   29SOL     OW   85   2.599   1.018   1.240  0.4648  0.8817  0.5930
   29SOL    HW1   86   2.569   0.929   1.199 -1.1132  0.7661 -0.1781
   29SOL    HW2   87   2.609   1.012   1.341 -1.4140  1.6226 -1.9114
   30SOL     OW   88   1.699   2.833   1.305  0.1521 -0.0541 -0.3362
   30SOL    HW1   89   1.686   2.746   1.252 -2.6062  1.7310  0.2990
   30SOL    HW2   90   1.621   2.893   1.283  2.9767 -1.6606 -1.3677
   31SOL     OW   91   1.223   2.839   1.264  0.5762 -0.0746  0.2560
   31SOL    HW1   92   1.223   2.826   1.162  0.1362 -1.5148 -4.0368
   31SOL    HW2   93   1.275   2.764   1.309  1.0130  3.5087  0.5899
   32SOL     OW   94   2.259   1.496   2.071 -0.0934  0.3349 -0.5286
   32SOL    HW1   95   2.331   1.509   1.998 -1.5307 -0.9019  0.4223
   32SOL    HW2   96   2.233   1.399   2.073  3.5872  0.9391 -2.1993
   33SOL     OW   97   2.074   2.848   2.711  0.0802  0.1657 -0.0759
   33SOL    HW1   98   2.064   2.749   2.697 -0.3731 -1.0145 -1.6154
   33SOL    HW2   99   2.139   2.888   2.644 -1.7287  2.2469  1.0879
   34SOL     OW  100   1.939   0.884   0.481  0.4773 -0.0847 -0.3540
   34SOL    HW1  101   1.973   0.814   0.418 -5.1254  3.9666  2.3927
   34SOL    HW2  102   1.835   0.879   0.490 -0.5236 -0.0731 -0.3799
   35SOL     OW  103   0.263   1.530   1.813  0.0599 -0.0669 -0.5804
   35SOL    HW1  104   0.229   1.533   1.912 -1.0020 -2.5076 -1.2459
   35SOL    HW2  105   0.189   1.515   1.744 -0.5415 -0.2148  0.1404
   36SOL     OW  106   2.648   2.433   2.994 -0.3718 -0.2393  0.3927
   36SOL    HW1  107   2.589   2.398   3.065  1.4418  0.1397 -2.6574
   36SOL    HW2  108   2.605   2.460   2.909  1.5610  0.0110  0.3502
   37SOL     OW  109   1.606   2.797   1.889  0.0355  0.4323 -0.0348
   37SOL    HW1  110   1.659   2.793   1.974  1.7668  1.5397 -0.6979
   37SOL    HW2  111   1.504   2.786   1.913 -4.2409 -0.7230  1.5782
   38SOL     OW  112   0.891   1.260   2.281 -0.2196 -0.5408 -0.1121
   38SOL    HW1  113   0.925   1.187   2.343 -2.8054 -0.7998 -0.4880
   38SOL    HW2  114   0.807   1.228   2.233  0.6776 -0.6905  0.5530
   39SOL     OW  115   1.848   0.557   1.729  0.2100  0.2543 -0.2297
   39SOL    HW1  116   1.794   0.553   1.810  1.9012 -0.9797 -4.0791
   39SOL    HW2  117   1.932   0.496   1.739  3.7640 -0.5310  1.4669
   40SOL     OW  118   0.845   2.400   0.809  0.0615 -0.0884 -0.4272
   40SOL    HW1  119   0.819   2.344   0.733 -1.3077  1.9576  2.9788
   40SOL    HW2  120   0.886   2.344   0.882 -2.5321  0.9296 -1.6222
   41SOL     OW  121   2.205   2.063   0.944 -0.0692 -0.1206 -0.2955
   41SOL    HW1  122   2.215   2.163   0.961  3.2038 -0.7860  1.8698
   41SOL    HW2  123   2.296   2.020   0.962  3.4239 -0.1325  3.3720
   42SOL     OW  124   2.174   0.370   0.426  0.1655  0.5693 -0.0375
   42SOL    HW1  125   2.165   0.432   0.342  1.0956 -0.8423 -0.3981
   42SOL    HW2  126   2.136   0.279   0.414 -0.0172  0.9118  0.8562
   43SOL     OW  127   0.716   1.446   2.395 -0.3988 -0.8548  0.2583
   43SOL    HW1  128   0.657   1.368   2.416  0.5203 -2.6651 -0.3705
   43SOL    HW2  129   0.805   1.404   2.357  0.5930  0.7502 -1.0744
   44SOL     OW  130   1.653   2.595   1.130  0.2480 -0.9511 -0.3779
   44SOL    HW1  131   1.556   2.559   1.133  0.2005 -2.5636 -0.8207
   44SOL    HW2  132   1.722   2.525   1.143 -3.6001 -0.5354  2.5482
   45SOL     OW  133   0.523   2.249   2.725 -0.4356  0.0441 -0.8234
   45SOL    HW1  134   0.533   2.198   2.812 -0.8797 -1.5873  2.4178
   45SOL    HW2  135   0.605   2.317   2.722  0.2098  2.1091 -0.0150
   46SOL     OW  136   0.701   2.677   2.280 -0.1169 -0.0238  0.2614
   46SOL    HW1  137   0.700   2.675   2.179 -0.4055 -1.7680  2.8412
   46SOL    HW2  138   0.758   2.596   2.312  1.2422 -2.3177  0.5467
   47SOL     OW  139   0.483   1.720   0.747  0.7208 -0.0546  0.2174
   47SOL    HW1  140   0.514   1.621   0.752 -0.7066 -2.9319  1.3292
   47SOL    HW2  141   0.532   1.765   0.826  0.2575  0.9096  1.4736
   48SOL     OW  142   0.673   2.780   1.453  0.3384 -0.0207 -0.1416
   48SOL    HW1  143   0.718   2.695   1.422 -2.4242  1.9108  1.1754
   48SOL    HW2  144   0.741   2.857   1.454 -1.8280 -2.8856 -0.2400
   49SOL     OW  145   0.075   2.958   2.986 -0.7715  0.1933 -0.0521
   49SOL    HW1  146   0.030   2.869   3.002 -1.2523  0.8595 -2.1532
   49SOL    HW2  147   0.152   2.970   3.057 -0.4414  2.1461  1.1529
   50SOL     OW  148   1.320   0.775   0.424  0.0587 -0.3632 -0.0403
   50SOL    HW1  149   1.216   0.774   0.437 -2.8682 -2.2332  0.9500
   50SOL    HW2  150   1.362   0.866   0.430  1.0730 -2.1968 -3.0081
   51SOL     OW  151   1.825   0.167   0.514 -0.1865 -0.0653 -0.4610
   51SOL    HW1  152   1.759   0.140   0.441 -1.4945  2.0155  3.7027
   51SOL    HW2  153   1.765   0.194   0.592 -0.4425  0.4713  0.2803
   52SOL     OW  154   0.264   1.464   1.025 -0.2687  0.0050 -0.3971
   52SOL    HW1  155   0.348   1.414   1.034 -4.9618  0.5786 -1.3707
   52SOL    HW2  156   0.265   1.534   0.951  0.1491  1.3523 -1.2056
   53SOL     OW  157   3.048   1.110   3.002  0.7927 -0.3741  0.0829
   53SOL    HW1  158   2.974   1.062   3.047  1.3138 -0.3137  0.1137
   53SOL    HW2  159   3.027   1.211   3.007 -2.2172 -0.8296  0.7066
   54SOL     OW  160   2.818   2.246   3.020  0.1415 -0.1445 -0.0444
   54SOL    HW1  161   2.782   2.152   3.008  0.5351  2.2597  0.2515
   54SOL    HW2  162   2.743   2.307   2.991  0.7109 -0.0266  0.4533
   55SOL     OW  163   2.497   2.058   1.265  0.3629  0.4976  0.0989
   55SOL    HW1  164   2.543   2.146   1.244 -3.3337  0.5754 -2.3868
   55SOL    HW2  165   2.403   2.087   1.298 -0.6524  1.3682  0.3895
   56SOL     OW  166   1.848   0.357   1.109 -0.5928  0.3332 -0.0940
   56SOL    HW1  167   1.810   0.264   1.139 -0.0458 -0.4728  1.8369
   56SOL    HW2  168   1.829   0.372   1.006 -2.6860 -0.1937 -0.6948
   57SOL     OW  169   2.002   1.875   1.035  0.2730 -0.2255 -0.4034
   57SOL    HW1  170   1.935   1.836   0.967 -4.6329  2.5329  0.0279
   57SOL    HW2  171   2.085   1.931   0.999  0.6190  2.8201 -0.0743
   58SOL     OW  172   2.666   0.444   2.106  0.1732 -0.3954 -0.4748
   58SOL    HW1  173   2.739   0.436   2.176 -1.6047  0.9582  0.4171
   58SOL    HW2  174   2.608   0.523   2.133  1.6301 -2.8765  0.1367
   59SOL     OW  175   1.507   2.442   1.958 -0.0239 -0.4256  0.1617
   59SOL    HW1  176   1.420   2.393   1.959 -2.0873 -0.5845 -1.1368
   59SOL    HW2  177   1.510   2.503   2.041  0.7394 -1.7662 -1.9871
   60SOL     OW  178   1.109   2.221   0.059 -0.0051 -0.9209 -0.6867
   60SOL    HW1  179   1.028   2.173   0.031  0.2046  2.3242  0.5182
   60SOL    HW2  180   1.135   2.201   0.155 -0.3835 -1.9507  0.3615
   61SOL     OW  181   0.564   2.083   0.312 -0.3906 -1.0307  0.6152
   61SOL    HW1  182   0.636   2.095   0.239 -0.6851 -0.2791 -0.7837
   61SOL    HW2  183   0.524   1.993   0.306  1.2560  0.1771 -0.9996
   62SOL     OW  184   1.367   1.643   1.531  0.2243  0.6043 -1.3950
   62SOL    HW1  185   1.355   1.573   1.604 -1.7224 -0.0888 -0.3440
   62SOL    HW2  186   1.467   1.665   1.531  1.2636 -1.7999 -0.9007
   63SOL     OW  187   0.956   1.968   0.653 -0.0351  0.1746  0.4478
   63SOL    HW1  188   0.856   1.966   0.649 -1.8291 -1.0508 -0.0665
   63SOL    HW2  189   0.988   1.877   0.679  0.4362  1.1097 -0.7169
   64SOL     OW  190   1.481   1.519   2.582  0.7248 -0.3444 -0.2808
   64SOL    HW1  191   1.561   1.510   2.524 -0.7502  1.5290 -0.8548
   64SOL    HW2  192   1.507   1.578   2.659 -1.1003 -1.5755  0.1667
   65SOL     OW  193   1.616   1.765   1.633 -0.5779 -0.3081  0.1179
   65SOL    HW1  194   1.709   1.793   1.602 -2.7806  0.2280  1.9895
   65SOL    HW2  195   1.580   1.823   1.707 -0.7245 -2.2566 -0.1743
   66SOL     OW  196   2.823   0.824   0.859  0.0648 -0.2179  0.1336
   66SOL    HW1  197   2.870   0.756   0.912 -0.7112  0.1357 -0.6692
   66SOL    HW2  198   2.884   0.874   0.797  2.1377 -0.8544 -2.3992
   67SOL     OW  199   2.216   2.339   0.981 -0.3317 -0.0324  0.5309
   67SOL    HW1  200   2.315   2.343   0.994 -2.6617  0.2558 -0.4050
   67SOL    HW2  201   2.190   2.365   0.888  0.2187  1.8175 -0.7366
   68SOL     OW  202   2.492   2.687   1.639  0.1792  0.6328  0.1619
   68SOL    HW1  203   2.452   2.748   1.569 -0.5392  0.5164  3.0159
   68SOL    HW2  204   2.424   2.660   1.709 -1.7985 -0.4613 -2.8907
   69SOL     OW  205   2.469   2.786   0.178 -0.2159 -0.4500  0.4435
   69SOL    HW1  206   2.518   2.726   0.116 -0.2889  1.7461  0.9480
   69SOL    HW2  207   2.439   2.867   0.121  1.8046  0.0553  2.9957
   70SOL     OW  208   0.780   1.515   2.675  0.3523  0.1832  0.1134
   70SOL    HW1  209   0.726   1.601   2.691 -0.7172  3.7374 -0.0274
   70SOL    HW2  210   0.743   1.445   2.613 -1.0046 -0.3007  1.2864
   71SOL     OW  211   0.833   1.413   1.884  0.3772  0.0607 -0.5095
   71SOL    HW1  212   0.808   1.374   1.794  2.1410 -0.8977  0.6262
   71SOL    HW2  213   0.757   1.464   1.926 -1.8845 -0.3717  0.0524
   72SOL     OW  214   3.003   1.028   1.628  0.8144  0.2182 -0.0172
   72SOL    HW1  215   3.055   1.110   1.660  0.3843  1.6333 -2.3525
   72SOL    HW2  216   2.905   1.025   1.662 -1.5170  1.3775  0.6963
   73SOL     OW  217   1.015   2.204   2.226 -0.6583 -0.1529  0.4492
   73SOL    HW1  218   0.982   2.251   2.146  0.3318 -2.0212  3.4194
   73SOL    HW2  219   1.098   2.149   2.212 -2.2366 -0.5241 -0.0745
   74SOL     OW  220   1.399   0.072   2.009  0.3231 -0.3766  0.2960
   74SOL    HW1  221   1.311   0.024   2.023  1.9526 -1.4001 -0.4875
   74SOL    HW2  222   1.479   0.020   2.051 -2.6910  0.6351  1.5125
   75SOL     OW  223   1.136   3.000   0.564 -0.3609  0.1617 -0.0468
   75SOL    HW1  224   1.181   2.927   0.511 -0.3469  0.3648 -0.7943
   75SOL    HW2  225   1.173   3.016   0.662  0.7454 -1.0267  2.8812
   76SOL     OW  226   0.378   1.898   2.720  0.1961  0.1281 -0.3076
   76SOL    HW1  227   0.453   1.830   2.722  0.0527  2.4886 -2.3281
   76SOL    HW2  228   0.366   1.918   2.624  0.2545 -3.2921 -0.5476
   77SOL     OW  229   0.395   2.523   1.102 -0.5539  0.3253 -1.6546
   77SOL    HW1  230   0.376   2.604   1.045  0.3372 -1.5162  1.3134
   77SOL    HW2  231   0.407   2.557   1.199 -2.7866  0.4899  2.2038
   78SOL     OW  232   2.447   1.113   0.266  0.4829  0.3551  0.5647
   78SOL    HW1  233   2.466   1.134   0.169 -0.6427 -1.5880  1.7257
   78SOL    HW2  234   2.448   1.202   0.315  2.2964 -0.3222 -4.2097
   79SOL     OW  235   0.531   1.513   2.909  0.2911  0.1181  0.2097
   79SOL    HW1  236   0.538   1.426   2.963  0.4964  1.6716 -2.5160
   79SOL    HW2  237   0.572   1.509   2.817 -1.5933  1.3576 -1.6858
   80SOL     OW  238   1.986   1.421   1.442  0.3517  0.3173  0.0203
   80SOL    HW1  239   1.990   1.379   1.534 -0.6469 -0.9513 -0.7791
   80SOL    HW2  240   1.931   1.367   1.376  1.7053  0.2339 -0.7681
   81SOL     OW  241   2.036   0.923   2.458 -0.0993 -0.3989 -0.4816
   81SOL    HW1  242   1.962   0.887   2.515 -2.9088 -0.5416  1.3583
   81SOL    HW2  243   2.041   0.885   2.360  0.3075  0.0295 -2.1159
   82SOL     OW  244   2.055   1.737   1.293  0.3535 -0.1213 -0.8269
   82SOL    HW1  245   2.045   1.799   1.211  2.1686  1.3079 -1.5149
   82SOL    HW2  246   2.014   1.647   1.275 -1.4641  0.7920  1.2037
   83SOL     OW  247   2.441   2.947   3.029 -1.0085  0.4347  0.2689
   83SOL    HW1  248   2.520   3.006   3.007 -0.7607  1.4400  0.1623
   83SOL    HW2  249   2.356   2.973   2.978 -1.3703 -0.9327 -1.0110
   84SOL     OW  250   0.751   0.641   0.488  0.2002  0.4544  0.0667
   84SOL    HW1  251   0.727   0.722   0.435 -1.1655 -3.1722  0.9278
   84SOL    HW2  252   0.811   0.670   0.566 -0.3886  4.1339 -0.2673
   85SOL     OW  253   2.309   1.590   1.183 -0.1718 -1.0477 -0.2148
   85SOL    HW1  254   2.237   1.539   1.139  1.8394  2.7741 -0.3960
   85SOL    HW2  255   2.369   1.637   1.116 -0.3325  0.2321 -1.4534
   86SOL     OW  256   0.746   0.740   1.263  0.0062 -0.7886  0.3566
   86SOL    HW1  257   0.662   0.707   1.311  1.8875 -1.1990 -1.8634
   86SOL    HW2  258   0.736   0.841   1.244  2.1493 -1.1342  1.9131
   87SOL     OW  259   3.023   2.402   2.336 -0.3644 -0.6175 -0.4103
   87SOL    HW1  260   3.028   2.325   2.272 -1.9923  2.0625  1.0019
   87SOL    HW2  261   2.946   2.463   2.306 -1.7285  0.2308 -0.2644
   88SOL     OW  262   0.176   2.865   0.377 -0.4117  0.0283 -0.2333
   88SOL    HW1  263   0.139   2.959   0.353 -1.8111  1.4743 -2.2049
   88SOL    HW2  264   0.274   2.877   0.414  0.9741  0.6854  0.4292
   89SOL     OW  265   1.301   2.999   0.801  0.4016  0.1336  0.2279
   89SOL    HW1  266   1.374   3.011   0.728  0.3537  0.1356 -2.8842
   89SOL    HW2  267   1.326   3.051   0.887 -0.7293  1.9225  0.8897
   90SOL     OW  268   3.061   1.025   2.123 -0.6873 -0.2021 -0.1836
   90SOL    HW1  269   2.969   0.990   2.121  1.3060  3.1615  2.2828
   90SOL    HW2  270   0.053   0.960   2.163  3.2981 -0.1474  0.1359
   91SOL     OW  271   1.918   2.833   0.974  0.1444 -0.0855  0.2318
   91SOL    HW1  272   1.826   2.800   0.956  0.7122  2.1714  0.0147
   91SOL    HW2  273   1.984   2.775   0.920  2.0456  4.5360  2.0867
   92SOL     OW  274   1.727   1.780   0.617  0.0345 -0.0613 -0.2585
   92SOL    HW1  275   1.785   1.710   0.576  0.6702 -0.9102  4.0421
   92SOL    HW2  276   1.706   1.853   0.548  0.5566 -0.1190  1.6957
   93SOL     OW  277   0.549   1.344   0.564 -0.1121 -0.3645  0.4418
   93SOL    HW1  278   0.559   1.253   0.599  2.0129  1.6178 -2.5787
   93SOL    HW2  279   0.591   1.404   0.635  1.3128  0.7691 -1.6695
   94SOL     OW  280   0.726   2.483   1.380 -0.0473  0.4681  0.7191
   94SOL    HW1  281   0.804   2.416   1.395  1.9681 -1.2155  1.3791
   94SOL    HW2  282   0.661   2.452   1.311 -0.4005 -0.9573  0.9198
   95SOL     OW  283   0.166   0.994   0.589  0.3117  0.1932 -0.3368
   95SOL    HW1  284   0.241   1.048   0.623 -0.8499  0.3291 -3.5744
   95SOL    HW2  285   0.192   0.894   0.580  0.7034  0.0710  4.0625
   96SOL     OW  286   0.721   2.656   2.010  0.8052  0.4607  0.3575
   96SOL    HW1  287   0.645   2.710   1.971  3.4947 -0.2297  0.3736
   96SOL    HW2  288   0.702   2.554   2.003  1.3710 -4.4267 -0.6050
   97SOL     OW  289   2.395   0.886   0.971  0.1214  0.0035 -0.0677
   97SOL    HW1  290   2.422   0.853   1.061 -2.6217 -0.1920 -0.8522
   97SOL    HW2  291   2.312   0.842   0.935 -0.8970  0.7202 -0.6907
   98SOL     OW  292   0.369   1.912   2.146 -0.1856  0.3309  0.1300
   98SOL    HW1  293   0.375   1.850   2.065  3.4434 -2.5737 -0.7419
   98SOL    HW2  294   0.293   1.981   2.143  0.6934  0.8910  2.5361
   99SOL     OW  295   2.936   0.346   1.447 -0.5638 -0.5751  0.0373
   99SOL    HW1  296   3.009   0.281   1.416 -1.4696  0.2026  0.3794
   99SOL    HW2  297   2.934   0.358   1.550  2.4787  0.8663  0.6291
  100SOL     OW  298   1.864   0.404   2.481 -0.1475 -0.1560  0.6235
  100SOL    HW1  299   1.955   0.411   2.528  1.1559  0.3199 -1.9842
  100SOL    HW2  300   1.849   0.306   2.456  2.1826 -0.9048  1.1597
  101SOL     OW  301   1.204   2.993   2.086  0.3834 -0.1158  0.7489
  101SOL    HW1  302   1.171   3.061   2.152 -2.9182 -2.5262 -1.3887
  101SOL    HW2  303   1.120   2.951   2.043  1.2603  0.1353 -1.7501
  102SOL     OW  304   0.848   0.638   1.771 -0.2324 -0.7625 -0.3719
  102SOL    HW1  305   0.816   0.549   1.799 -1.5732  4.5648 -1.2315
  102SOL    HW2  306   0.879   0.637   1.674 -1.7392 -0.7592  0.6876
  103SOL     OW  307   0.665   0.946   2.873 -0.4637  0.5577  0.0969
  103SOL    HW1  308   0.669   1.035   2.822 -0.2754 -1.3200  1.0784
  103SOL    HW2  309   0.626   0.875   2.805 -0.3641 -1.1952 -1.8518
  104SOL     OW  310   0.574   0.368   1.965 -0.0404  0.1336  0.2178
  104SOL    HW1  311   0.605   0.273   1.943 -0.0096 -2.3555 -2.4371
  104SOL    HW2  312   0.653   0.420   2.009  0.1579  2.0284  2.3863
  105SOL     OW  313   2.728   2.332   1.688 -0.5594 -0.2542 -0.1411
  105SOL    HW1  314   2.732   2.254   1.626 -0.7549  0.1165 -2.4158
  105SOL    HW2  315   2.816   2.387   1.682 -0.1103  2.4335  0.7517
  106SOL     OW  316   0.875   2.924   0.643  0.2021 -0.2410  0.8177
  106SOL    HW1  317   0.939   2.916   0.563  0.5211 -0.0660  0.8139
  106SOL    HW2  318   0.788   2.891   0.614  2.8090  0.5304  0.5977
  107SOL     OW  319   2.757   1.885   1.091 -0.4637  0.0650 -0.0788
  107SOL    HW1  320   2.692   1.954   1.053  1.0453 -0.2806 -0.7629
  107SOL    HW2  321   2.713   1.806   1.140  1.6304 -1.0554  0.0772
  108SOL     OW  322   0.120   2.369   0.725  0.7659  0.5440 -0.2749
  108SOL    HW1  323   0.023   2.372   0.696 -2.6166 -0.1048  0.5574
  108SOL    HW2  324   0.146   2.276   0.761  2.3498 -1.4209 -1.4163
  109SOL     OW  325   1.691   2.953   0.602 -0.5038 -0.5926 -0.1362
  109SOL    HW1  326   1.762   2.989   0.668  0.8817 -1.9428  1.1587
  109SOL    HW2  327   1.727   2.881   0.541  1.5986  1.6400 -0.5056
  110SOL     OW  328   1.823   2.113   0.549  0.1119  0.4012 -0.1187
  110SOL    HW1  329   1.775   2.166   0.479  0.0730 -0.4633  0.1631
  110SOL    HW2  330   1.806   2.146   0.646  0.8577 -0.2644  1.7101
  111SOL     OW  331   2.029   2.740   1.977  0.3875 -0.4504 -0.3682
  111SOL    HW1  332   2.104   2.673   1.994 -2.0895  0.4437 -0.5350
  111SOL    HW2  333   1.962   2.735   2.054  0.6590 -1.4891  0.2981
  112SOL     OW  334   1.828   2.323   2.416 -0.2165  0.2978  0.3272
  112SOL    HW1  335   1.727   2.340   2.405  0.0092  2.4442  0.8452
  112SOL    HW2  336   1.877   2.410   2.411 -0.3836 -2.0223  1.9404
  113SOL     OW  337   2.492   2.031   1.970  0.1331 -0.0957  0.0560
  113SOL    HW1  338   2.411   1.993   2.017  3.8546  0.0654  0.9696
  113SOL    HW2  339   2.488   2.044   1.868  1.9569  0.0532 -1.6829
  114SOL     OW  340   0.174   1.039   1.246 -0.1616  0.2754 -0.2600
  114SOL    HW1  341   0.118   0.968   1.202  0.9303 -1.1559 -1.2219
  114SOL    HW2  342   0.125   1.126   1.268  1.8744  0.4385 -0.3428
  115SOL     OW  343   2.550   0.634   2.759 -0.6611 -0.3017 -0.1081
  115SOL    HW1  344   2.602   0.719   2.791  0.1548 -1.2254 -1.5330
  115SOL    HW2  345   2.612   0.555   2.743 -1.0417  1.8874 -1.1851
  116SOL     OW  346   2.809   0.465   2.748 -0.3630  0.1370  0.0195
  116SOL    HW1  347   2.819   0.392   2.818  0.5760  1.9452 -0.9252
  116SOL    HW2  348   2.804   0.419   2.658 -0.2016 -1.5164 -0.3983
  117SOL     OW  349   2.607   2.793   0.663 -0.8917 -0.1174 -0.5745
  117SOL    HW1  350   2.586   2.889   0.698 -0.8692  0.5824  0.8453
  117SOL    HW2  351   2.634   2.737   0.743  0.3689  0.8555 -0.2606
  118SOL     OW  352   0.897   2.079   2.445 -0.5077 -0.0007 -0.8581
  118SOL    HW1  353   0.843   2.000   2.410  1.3890  1.9676  1.0791
  118SOL    HW2  354   0.946   2.130   2.368 -0.4196  0.1129  0.9909
  119SOL     OW  355   0.639   2.745   0.519  0.6596  0.2583  0.2036
  119SOL    HW1  356   0.711   2.769   0.449  1.5164 -1.2216 -0.0877
  119SOL    HW2  357   0.633   2.646   0.521 -1.6863  2.8978 -0.0087
  120SOL     OW  358   1.382   0.626   0.717  0.1130  0.0103  0.6268
  120SOL    HW1  359   1.458   0.564   0.752  0.5743 -0.0190  3.2741
  120SOL    HW2  360   1.422   0.715   0.704  0.5695 -2.4429  1.3155
  121SOL     OW  361   1.849   0.493   0.864  0.5727  0.1353 -0.0205
  121SOL    HW1  362   1.840   0.596   0.844 -2.6481  2.5593 -0.5204
  121SOL    HW2  363   1.918   0.455   0.798 -0.9873 -1.6665  1.4733
  122SOL     OW  364   1.969   1.577   2.409  0.1309 -0.1895 -0.5120
  122SOL    HW1  365   2.008   1.672   2.419 -0.3493 -2.1188 -0.8725
  122SOL    HW2  366   1.980   1.546   2.313  1.9910  1.9138  0.6904
  123SOL     OW  367   0.749   0.970   0.818 -0.4478 -0.3537 -0.5452
  123SOL    HW1  368   0.843   0.931   0.825 -0.0836  1.5595  0.3787
  123SOL    HW2  369   0.678   0.917   0.866  0.5703  2.1701 -1.4993
  124SOL     OW  370   0.646   0.338   2.904 -0.7398  0.1025  0.1445
  124SOL    HW1  371   0.598   0.279   2.977 -1.8156 -2.9328  3.9568
  124SOL    HW2  372   0.708   0.283   2.842 -2.4879 -1.7386 -1.7495
  125SOL     OW  373   0.673   2.985   3.000  1.0480 -0.0044 -0.3141
  125SOL    HW1  374   0.769   2.955   3.003 -0.9999 -1.7269  2.4432
  125SOL    HW2  375   0.649   3.021   2.907 -1.0026 -0.1053 -0.7081
  126SOL     OW  376   0.851   1.246   0.144 -0.1711  0.0897 -1.0668
  126SOL    HW1  377   0.792   1.182   0.091 -1.0074 -1.4696  0.2639
  126SOL    HW2  378   0.807   1.257   0.237 -2.3222 -0.9695 -1.2834
  127SOL     OW  379   1.092   2.505   1.151 -0.2605 -0.1693 -0.0352
  127SOL    HW1  380   1.012   2.551   1.186  1.7041 -1.6618 -1.4900
  127SOL    HW2  381   1.160   2.571   1.115 -1.8631 -1.3015  1.6760
  128SOL     OW  382   1.292   1.703   0.126 -0.1058  0.6408  0.2549
  128SOL    HW1  383   1.314   1.717   0.227  1.0848 -0.1341  2.2556
  128SOL    HW2  384   1.200   1.738   0.109  0.4648  0.8694  0.5502
  129SOL     OW  385   1.958   1.585   1.723 -0.4199  0.5364 -0.1740
  129SOL    HW1  386   1.977   1.484   1.717  0.5910 -0.9722  1.6903
  129SOL    HW2  387   1.889   1.603   1.790  1.8808  1.3800 -2.1891
  130SOL     OW  388   2.117   1.738   1.561  0.4213  0.4743  0.1716
  130SOL    HW1  389   2.051   1.681   1.615 -0.6926  1.2648  0.6706
  130SOL    HW2  390   2.102   1.731   1.461  1.0144 -0.7823  0.2151
  131SOL     OW  391   0.918   2.336   1.999 -0.2161  0.1631  0.7409
  131SOL    HW1  392   0.935   2.249   1.947  0.6572 -0.6884  1.2656
  131SOL    HW2  393   0.830   2.378   1.959 -1.2876  1.6545 -0.0369
  132SOL     OW  394   2.608   1.503   0.614  0.1201  0.1516 -0.0476
  132SOL    HW1  395   2.634   1.537   0.711  1.0493  0.8924  4.8315
  132SOL    HW2  396   2.643   1.576   0.548 -3.3396  2.4756 -1.1909
  133SOL     OW  397   0.685   1.778   1.916  0.6470 -0.2843  0.1549
  133SOL    HW1  398   0.722   1.752   1.822  3.1152 -4.3761 -1.9938
  133SOL    HW2  399   0.699   1.880   1.926 -0.7867  2.7780 -1.7865
  134SOL     OW  400   3.040   1.538   0.749 -0.1910  0.4763 -0.1519
  134SOL    HW1  401   3.067   1.466   0.683  4.0012 -0.5961  0.3993
  134SOL    HW2  402   0.045   1.584   0.773  0.5627 -1.1122 -1.1217
  135SOL     OW  403   1.980   1.193   2.785  0.7225  0.1987  0.0336
  135SOL    HW1  404   2.047   1.263   2.807 -0.0229  1.1038  0.3833
  135SOL    HW2  405   1.995   1.148   2.697 -2.0412 -1.1257 -0.8084
  136SOL     OW  406   0.086   1.333   1.168 -0.0398  0.0081  0.4491
  136SOL    HW1  407   3.077   1.353   1.121  0.1870  2.2963 -0.5357
  136SOL    HW2  408   0.173   1.371   1.122 -0.3026  0.9081  2.1481
  137SOL     OW  409   2.204   1.375   0.299 -0.0214 -0.4169 -0.2532
  137SOL    HW1  410   2.216   1.332   0.206  0.0782  1.4375  0.6484
  137SOL    HW2  411   2.280   1.344   0.361  0.3505  1.3356  0.4406
  138SOL     OW  412   2.633   0.485   0.709 -0.8269  0.6224  0.0413
  138SOL    HW1  413   2.548   0.447   0.666  1.4202  2.4363  0.9308
  138SOL    HW2  414   2.709   0.489   0.639  0.9976 -0.9308 -3.3004
  139SOL     OW  415   2.363   2.682   2.968  0.7530 -0.7267  0.2427
  139SOL    HW1  416   2.397   2.778   2.973  1.2390 -1.5697 -1.1340
  139SOL    HW2  417   2.421   2.625   2.911 -2.6549  1.2042  0.7952
  140SOL     OW  418   0.648   1.519   1.096  0.2490  0.7837 -0.2575
  140SOL    HW1  419   0.582   1.451   1.062 -1.1267 -2.4543  2.4922
  140SOL    HW2  420   0.631   1.609   1.054 -0.5238 -1.8815  2.3947
  141SOL     OW  421   1.110   1.332   0.742  0.3049  0.0399  0.7452
  141SOL    HW1  422   1.146   1.372   0.828  1.0807 -0.7034 -1.9009
  141SOL    HW2  423   1.183   1.282   0.687 -2.0490 -2.8573 -3.2441
  142SOL     OW  424   1.616   0.802   1.013 -0.3193  0.3275  0.3230
  142SOL    HW1  425   1.610   0.725   1.083  0.5399  1.4009  0.7841
  142SOL    HW2  426   1.660   0.882   1.058 -1.2777  0.3166  3.7171
  143SOL     OW  427   0.232   0.686   2.969  0.8272  0.1375  0.1052
  143SOL    HW1  428   0.164   0.691   2.893 -0.0204 -0.2242  3.8843
  143SOL    HW2  429   0.321   0.641   2.946  1.0859  0.5840 -0.7519
  144SOL     OW  430   2.438   0.190   0.198 -0.6594 -0.0824 -0.1080
  144SOL    HW1  431   2.337   0.169   0.185 -2.2811  0.5470 -0.5609
  144SOL    HW2  432   2.468   0.167   0.295  0.1231  1.5007 -0.9275
  145SOL     OW  433   2.299   0.087   2.373  0.2275 -0.1909  0.1447
  145SOL    HW1  434   2.358   0.142   2.433  1.1389 -0.7555  1.0675
  145SOL    HW2  435   2.251   0.150   2.309  0.8169 -2.0298  2.2923
  146SOL     OW  436   2.883   2.935   0.566  0.5270  0.3729  0.0636
  146SOL    HW1  437   2.932   2.851   0.586 -3.0773  4.0165  1.1164
  146SOL    HW2  438   2.901   2.957   0.465  1.1887 -2.1648 -1.2438
  147SOL     OW  439   1.442   0.852   2.900 -0.3244  0.1955 -0.1566
  147SOL    HW1  440   1.372   0.792   2.942  3.0492 -0.2846  0.1784
  147SOL    HW2  441   1.412   0.951   2.901 -3.5918  0.7995  0.7929
  148SOL     OW  442   0.971   3.051   0.176 -0.3048  0.4805 -0.0877
  148SOL    HW1  443   0.934   2.995   0.101  0.5499 -2.3930  1.4239
  148SOL    HW2  444   0.915   0.055   0.184 -2.9131 -0.7468  1.0021
  149SOL     OW  445   1.315   0.841   2.495 -0.4605 -0.5412 -0.0174
  149SOL    HW1  446   1.401   0.837   2.550 -1.0399 -2.1778 -1.9196
  149SOL    HW2  447   1.282   0.938   2.480 -0.5945  1.6315  1.4931
  150SOL     OW  448   1.359   2.990   2.967  0.5580 -0.7608 -0.1324
  150SOL    HW1  449   1.397   2.901   2.995 -0.3625  1.7311 -2.2901
  150SOL    HW2  450   1.424   3.064   2.949 -2.6186 -0.3583 -1.2037
  151SOL     OW  451   0.601   1.291   3.055 -0.8261  0.2521 -0.6738
  151SOL    HW1  452   0.589   1.196   0.016 -0.4015  0.1070 -0.8548
  151SOL    HW2  453   0.616   1.357   0.050  0.8069 -0.6905  0.9150
  152SOL     OW  454   0.864   0.263   1.359 -0.0618  0.0990  0.4844
  152SOL    HW1  455   0.807   0.337   1.401 -0.1883 -1.1441 -0.5336
  152SOL    HW2  456   0.871   0.189   1.428 -2.7084 -0.3240 -0.0965
  153SOL     OW  457   2.737   2.871   1.917 -0.1863 -0.0405 -0.1435
  153SOL    HW1  458   2.653   2.896   1.966 -1.0534 -1.3134  0.0414
  153SOL    HW2  459   2.769   2.955   1.869 -1.0735 -0.7807  0.8144
  154SOL     OW  460   2.470   2.913   1.989  0.7181 -0.1245 -0.1479
  154SOL    HW1  461   2.460   2.928   2.093  1.7763 -0.8197  0.6530
  154SOL    HW2  462   2.415   2.983   1.940  0.3510  1.9922 -0.2226
  155SOL     OW  463   0.110   1.098   0.338  0.1039  0.1856  0.4983
  155SOL    HW1  464   0.028   1.044   0.316  1.8429 -0.6979 -0.3808
  155SOL    HW2  465   0.134   1.089   0.435 -2.6242  0.1896 -1.6045
  156SOL     OW  466   2.108   1.091   0.323 -0.3314 -0.7565  0.0268
  156SOL    HW1  467   2.160   1.007   0.290 -0.9149 -1.6445 -2.2243
  156SOL    HW2  468   2.169   1.168   0.327 -1.9962  0.9767  2.4870
  157SOL     OW  469   0.621   2.690   2.860  0.0327  0.2495 -0.3798
  157SOL    HW1  470   0.677   2.688   2.943  0.8392 -0.4181  1.6526
  157SOL    HW2  471   0.523   2.664   2.884  0.8627 -0.6872  2.1425
  158SOL     OW  472   1.999   0.878   1.523  0.3548  0.0824 -0.3852
  158SOL    HW1  473   1.986   0.882   1.625 -1.1339 -0.2278 -2.3386
  158SOL    HW2  474   1.910   0.908   1.480  0.3097 -2.0390 -0.4699
  159SOL     OW  475   0.043   0.162   0.072  0.4731  0.0628 -0.9673
  159SOL    HW1  476   0.042   0.144   3.052 -3.2678  1.7033 -3.8412
  159SOL    HW2  477   0.042   0.262   0.084 -1.3546 -1.1407  1.6992
  160SOL     OW  478   2.463   2.020   1.699 -0.6441 -0.1020 -0.0293
  160SOL    HW1  479   2.539   1.993   1.635  1.0410 -0.3984 -2.1986
  160SOL    HW2  480   2.411   1.939   1.727  0.6038 -2.8266  0.0478
  161SOL     OW  481   0.053   0.421   0.091 -0.1551  0.0928 -0.3190
  161SOL    HW1  482   0.086   0.494   0.028  0.4634 -1.3250  1.3111
  161SOL    HW2  483   3.048   0.455   0.148 -1.7828  1.9568 -0.4102
  162SOL     OW  484   0.544   0.487   1.702 -0.6073  0.5668  0.0256
  162SOL    HW1  485   0.517   0.584   1.735 -2.6047  2.5472  2.2966
  162SOL    HW2  486   0.618   0.451   1.762 -1.5576  1.1776 -1.7180
  163SOL     OW  487   2.621   0.015   2.430 -0.0583  0.3904 -0.8437
  163SOL    HW1  488   2.605   0.078   2.356  0.9758 -1.2282  2.2883
  163SOL    HW2  489   2.689   3.029   2.390  0.8347  1.2264 -1.4113
  164SOL     OW  490   2.169   1.640   0.230 -0.2428  0.6650  0.0074
  164SOL    HW1  491   2.099   1.644   0.156 -0.1490 -0.1769  0.7666
  164SOL    HW2  492   2.193   1.544   0.257 -1.0544  1.4248 -2.4587
  165SOL     OW  493   0.167   3.010   0.941  0.2498  0.0593 -0.0422
  165SOL    HW1  494   0.200   3.009   0.845  2.5432 -1.0081 -0.8311
  165SOL    HW2  495   0.222   2.952   1.001 -0.2785 -2.1004  1.9948
  166SOL     OW  496   2.786   0.434   0.014  0.1089 -0.1837  0.3278
  166SOL    HW1  497   2.702   0.412   0.071 -0.0289  1.1836  1.1362
  166SOL    HW2  498   2.778   0.392   3.001  1.3263  2.5036  0.2835
  167SOL     OW  499   1.909   0.402   0.448 -0.6232  0.5675  0.9252
  167SOL    HW1  500   2.009   0.412   0.433  0.5517 -0.6847 -1.4697
  167SOL    HW2  501   1.885   0.315   0.496  2.7230  1.3987  0.4998
  168SOL     OW  502   1.325   0.380   2.365 -0.2196  0.1171  0.4162
  168SOL    HW1  503   1.235   0.427   2.384  1.0123  0.4537  1.1947
  168SOL    HW2  504   1.407   0.442   2.364  1.2907  2.3346 -0.2340
  169SOL     OW  505   0.588   1.783   0.985  0.9378  0.5845 -0.2048
  169SOL    HW1  506   0.513   1.831   1.035 -0.7451  0.4333  1.3849
  169SOL    HW2  507   0.665   1.849   0.965 -0.8612  0.7274 -1.8465
  170SOL     OW  508   0.255   0.067   1.480 -0.0124  0.5576 -0.0107
  170SOL    HW1  509   0.326   0.137   1.498 -0.1866 -0.1715 -2.3276
  170SOL    HW2  510   0.254   3.066   1.543  1.7644  0.0217  1.7742
  171SOL     OW  511   2.560   1.503   2.308 -0.1031 -0.2417  0.4099
  171SOL    HW1  512   2.641   1.568   2.333  2.6732  0.3076  1.0696
  171SOL    HW2  513   2.589   1.438   2.233  0.2155  1.0292 -0.7080
  172SOL     OW  514   1.262   1.858   1.080  0.6290  0.6181  0.5729
  172SOL    HW1  515   1.246   1.906   1.168 -1.7015  1.6582  0.5079
  172SOL    HW2  516   1.361   1.831   1.066  1.7862 -0.2238 -1.3897
  173SOL     OW  517   2.217   2.258   3.052  0.6750  0.6481  0.1254
  173SOL    HW1  518   2.201   2.352   3.068 -0.2991 -2.3640 -0.1733
  173SOL    HW2  519   2.130   2.203   3.069 -0.0380  1.2333  0.6017
  174SOL     OW  520   1.828   0.956   0.178  0.1285 -0.4510 -0.2163
  174SOL    HW1  521   1.891   0.952   0.100  2.5606 -2.2513  2.9799
  174SOL    HW2  522   1.874   1.013   0.254 -0.7498  0.5095  2.0278
  175SOL     OW  523   0.668   1.730   1.624  0.8402 -0.3196  0.1457
  175SOL    HW1  524   0.602   1.648   1.642  0.6326 -1.2422  0.9971
  175SOL    HW2  525   0.620   1.820   1.598 -1.8005  0.0881  0.4330
  176SOL     OW  526   0.420   0.154   0.473  0.6178 -0.3920 -0.2648
  176SOL    HW1  527   0.503   0.181   0.526 -1.2553 -2.2696  1.8995
  176SOL    HW2  528   0.341   0.212   0.494  0.8209  1.5316 -1.7532
  177SOL     OW  529   3.052   1.463   0.139  0.3770 -0.0805 -0.0334
  177SOL    HW1  530   3.019   1.415   0.055  0.3231  1.2664  0.9823
  177SOL    HW2  531   0.043   1.413   0.191  2.2147 -1.0026  1.1527
  178SOL     OW  532   2.852   2.354   1.960 -0.4630  0.0361  0.5430
  178SOL    HW1  533   2.782   2.386   1.892 -1.0688 -0.1055  0.1180
  178SOL    HW2  534   2.825   2.379   2.054 -1.1539  0.8594 -3.5362
  179SOL     OW  535   2.035   0.148   2.860 -0.2807 -0.1683  0.0455
  179SOL    HW1  536   2.101   0.225   2.877  1.5990  0.5353 -0.9379
  179SOL    HW2  537   1.940   0.182   2.882  0.7841  0.6670 -1.2455
  180SOL     OW  538   2.378   0.416   0.613 -0.1846 -0.2658  0.1280
  180SOL    HW1  539   2.298   0.396   0.553 -0.6228  0.6721  0.5908
  180SOL    HW2  540   2.355   0.452   0.708 -0.8388  1.3847  3.6970
  181SOL     OW  541   2.952   0.091   2.464  0.1502 -0.3608  0.3895
  181SOL    HW1  542   2.998   0.129   2.380 -1.0712 -0.4594 -0.7156
  181SOL    HW2  543   2.925   3.074   2.442 -0.1621  0.2212 -1.7838
  182SOL     OW  544   2.492   2.287   2.378  0.1564  0.6455  0.4236
  182SOL    HW1  545   2.560   2.352   2.423  0.9829 -1.1733 -0.3008
  182SOL    HW2  546   2.501   2.302   2.279 -0.9821  0.9366  0.8738
  183SOL     OW  547   2.594   0.995   1.508  0.8982  1.0356  0.1597
  183SOL    HW1  548   2.667   1.037   1.564  1.6042 -3.4284 -3.4462
  183SOL    HW2  549   2.506   0.993   1.553  0.8532  1.9243  0.8532
  184SOL     OW  550   2.926   1.385   1.061 -0.3417 -0.3368 -0.0869
  184SOL    HW1  551   2.934   1.480   1.042  1.3335 -2.1913  0.6878
  184SOL    HW2  552   2.888   1.333   0.978 -1.2713  1.7628 -1.5219
  185SOL     OW  553   0.065   0.129   1.110  0.2800 -0.0440  0.8346
  185SOL    HW1  554   0.072   0.052   1.044  2.7272  3.1148 -0.0210
  185SOL    HW2  555   0.127   0.205   1.080 -0.0858  0.4143  1.6998
  186SOL     OW  556   2.236   2.343   2.342  0.1129 -0.2667 -0.4467
  186SOL    HW1  557   2.210   2.423   2.399 -0.1709  0.3573  2.3283
  186SOL    HW2  558   2.329   2.317   2.371  0.1200  2.0626 -3.6790
  187SOL     OW  559   0.302   1.226   0.561 -0.3384 -0.2405 -0.4090
  187SOL    HW1  560   0.380   1.291   0.569  2.1229  0.7851  1.0199
  187SOL    HW2  561   0.216   1.255   0.607 -0.2140 -0.3326 -1.4330
  188SOL     OW  562   1.691   1.916   2.948  0.5167 -0.6382 -0.0613
  188SOL    HW1  563   1.739   2.003   2.929 -0.1461  0.4123  0.0830
  188SOL    HW2  564   1.669   1.901   3.044  0.6948  0.1391 -0.3970
  189SOL     OW  565   0.077   1.541   2.738  0.3161 -0.2014  0.3297
  189SOL    HW1  566   3.076   1.536   2.667 -0.9197  0.6751  0.2141
  189SOL    HW2  567   0.055   1.611   2.810  1.3554 -0.8196 -1.0990
  190SOL     OW  568   2.311   0.620   2.593  0.1588  0.5293  0.0582
  190SOL    HW1  569   2.300   0.721   2.593 -1.7783  3.2644  0.1682
  190SOL    HW2  570   2.406   0.597   2.619 -1.5183 -2.9723  0.8557
  191SOL     OW  571   0.931   1.089   1.961 -0.2171  0.1657 -0.2716
  191SOL    HW1  572   0.885   1.004   1.928 -0.8522 -2.0012 -1.7591
  191SOL    HW2  573   0.864   1.156   1.992  2.9206 -0.5028 -0.5096
  192SOL     OW  574   1.616   1.102   2.022  0.4958 -0.7185 -0.2167
  192SOL    HW1  575   1.533   1.159   2.008  0.9767  0.6437 -3.1708
  192SOL    HW2  576   1.629   1.033   1.951 -1.7346 -0.5317 -0.1919
  193SOL     OW  577   1.212   2.811   1.005 -0.2235 -0.3310  0.2547
  193SOL    HW1  578   1.198   2.723   0.950  1.6405  0.4045 -0.5745
  193SOL    HW2  579   1.232   2.890   0.938  1.0101  3.8721 -0.3466
  194SOL     OW  580   1.388   1.413   1.723 -0.6726 -0.2458  0.2210
  194SOL    HW1  581   1.358   1.313   1.722 -2.1002 -0.7139  2.9521
  194SOL    HW2  582   1.349   1.461   1.800 -3.8252 -0.3403 -0.0451
  195SOL     OW  583   1.860   0.199   0.844 -0.0331 -0.1444 -0.2010
  195SOL    HW1  584   1.933   0.256   0.805 -0.5610  0.8676 -3.1999
  195SOL    HW2  585   1.901   0.133   0.912  0.8414 -1.9658  0.6778
  196SOL     OW  586   0.961   1.481   2.143 -0.1025 -0.3165 -0.2988
  196SOL    HW1  587   0.915   1.471   2.053  2.6305 -1.6976 -0.4979
  196SOL    HW2  588   0.935   1.396   2.193 -2.5534 -0.4078  1.5774
  197SOL     OW  589   0.591   0.361   2.309  0.2601 -0.0154  0.0857
  197SOL    HW1  590   0.521   0.416   2.361  0.8782 -0.0745 -2.0080
  197SOL    HW2  591   0.548   0.321   2.225 -0.0792 -1.2912  0.0417
  198SOL     OW  592   2.850   1.114   1.237 -0.1591 -0.1677  0.4477
  198SOL    HW1  593   2.764   1.063   1.246  1.8391  0.0334 -1.5167
  198SOL    HW2  594   2.856   1.173   1.155 -0.1829  0.1124 -0.6100
  199SOL     OW  595   0.564   2.326   1.215 -0.2643  0.3168 -0.7140
  199SOL    HW1  596   0.575   2.235   1.168  1.9719  2.4553  2.4204
  199SOL    HW2  597   0.521   2.396   1.153  0.5794 -1.1361 -1.0757
  200SOL     OW  598   2.823   2.126   2.639  0.0917  0.4140 -0.4485
  200SOL    HW1  599   2.893   2.197   2.616 -1.2313  0.5954 -0.4817
  200SOL    HW2  600   2.829   2.084   2.733  1.6995  0.2636 -1.0013
  201SOL     OW  601   0.934   2.315   1.418 -0.1808 -0.2927  0.4327
  201SOL    HW1  602   1.026   2.307   1.373  2.3069  1.3680  0.5152
  201SOL    HW2  603   0.885   2.223   1.418 -1.8927 -2.0601  0.3761
  202SOL     OW  604   0.785   2.368   0.092  0.3376 -0.2582 -0.0816
  202SOL    HW1  605   0.841   2.339   0.174 -1.9206 -2.1204 -1.8460
  202SOL    HW2  606   0.686   2.344   0.095  1.1824  0.6332  1.3219
  203SOL     OW  607   1.836   0.149   2.388 -0.3344  0.3383  0.0403
  203SOL    HW1  608   1.913   0.114   2.331 -2.5553 -2.5965  0.5374
  203SOL    HW2  609   1.796   0.075   2.448 -0.4428 -0.1609  0.0068
  204SOL     OW  610   0.518   1.518   1.699 -0.6243  0.5325  0.0978
  204SOL    HW1  611   0.426   1.523   1.737  2.3366  0.8618 -0.4858
  204SOL    HW2  612   0.525   1.438   1.635 -1.0660  1.7754  2.2530
  205SOL     OW  613   2.398   1.290   2.473 -0.4121  0.4894 -0.0763
  205SOL    HW1  614   2.407   1.317   2.380  0.2518  0.7686  0.8211
  205SOL    HW2  615   2.323   1.341   2.517  0.9159  0.1209  0.0248
  206SOL     OW  616   3.004   2.318   2.595  0.5167  0.1144  0.0544
  206SOL    HW1  617   2.971   2.383   2.527  0.1972  0.0169  1.6083
  206SOL    HW2  618   0.015   2.284   2.566  1.2028 -1.9255 -1.0063
  207SOL     OW  619   0.544   2.829   1.922 -0.3046 -0.0445  0.2276
  207SOL    HW1  620   0.446   2.842   1.940  1.0081  1.4245 -0.4030
  207SOL    HW2  621   0.560   2.830   1.823  0.0896  1.3834 -1.0968
  208SOL     OW  622   0.080   2.523   1.292 -0.2611  0.2153 -0.2109
  208SOL    HW1  623   0.154   2.461   1.325 -2.8286  1.0547 -2.5339
  208SOL    HW2  624   0.119   2.610   1.246  0.2918 -0.4468 -2.4359
  209SOL     OW  625   1.070   2.733   2.308 -0.4427 -0.0066 -0.4105
  209SOL    HW1  626   1.158   2.683   2.301 -0.8824 -1.3242 -1.6696
  209SOL    HW2  627   1.051   2.755   2.408  0.6050 -1.1078 -0.8233
  210SOL     OW  628   0.045   1.277   2.026 -0.1668  0.3120 -0.0117
  210SOL    HW1  629   0.115   1.321   2.079 -1.9085 -0.5346 -0.8394
  210SOL    HW2  630   0.035   1.181   2.057  0.7778  0.6565  2.7149
  211SOL     OW  631   1.351   2.774   1.999  0.1060 -0.6245 -0.0075
  211SOL    HW1  632   1.281   2.728   1.945  2.1058  1.5649 -1.2121
  211SOL    HW2  633   1.318   2.857   2.047  1.3838 -0.7816  0.0446
  212SOL     OW  634   1.684   2.667   1.665 -0.6180 -0.5307 -0.1494
  212SOL    HW1  635   1.679   2.708   1.758  1.7576  0.7644 -3.0624
  212SOL    HW2  636   1.770   2.697   1.619 -0.6038  1.4547  1.0125
  213SOL     OW  637   2.480   0.600   1.616 -0.5134  0.3469  0.0637
  213SOL    HW1  638   2.429   0.551   1.542 -2.4712  0.0589  1.8673
  213SOL    HW2  639   2.555   0.659   1.578 -1.4776 -1.7811 -0.1424
  214SOL     OW  640   0.715   2.168   0.986 -0.2387  0.0346 -0.1655
  214SOL    HW1  641   0.807   2.215   1.004  2.3598 -1.8968 -0.4073
  214SOL    HW2  642   0.639   2.234   0.958  2.0250  1.1734  0.3564
  215SOL     OW  643   2.408   1.832   0.550  0.1213 -0.0650 -0.3537
  215SOL    HW1  644   2.492   1.784   0.512  0.9875 -2.7385  0.5997
  215SOL    HW2  645   2.419   1.935   0.544 -2.2194 -0.4191  0.3482
  216SOL     OW  646   0.142   0.829   1.758  0.1484 -0.2074  0.0647
  216SOL    HW1  647   0.145   0.926   1.789 -1.7950  1.0845  3.0369
  216SOL    HW2  648   0.236   0.795   1.754 -1.4458  1.0057  0.5483
  217SOL     OW  649   2.284   0.242   1.331  0.7050  0.0859  0.0233
  217SOL    HW1  650   2.380   0.218   1.303  2.3082 -2.6591  1.7745
  217SOL    HW2  651   2.232   0.298   1.256  0.1761  0.0254 -2.7473
  218SOL     OW  652   1.582   2.206   1.146  0.5669  0.7044 -0.1787
  218SOL    HW1  653   1.653   2.278   1.151 -3.1283  1.9697  1.8032
  218SOL    HW2  654   1.570   2.167   1.241 -1.0398  1.8241  0.4908
  219SOL     OW  655   1.669   2.474   3.032 -0.3859 -0.6704  0.1019
  219SOL    HW1  656   1.580   2.432   3.066 -1.4190 -1.0313 -0.1336
  219SOL    HW2  657   1.723   2.508   0.036 -0.4197  0.7127  2.5562
  220SOL     OW  658   1.483   2.766   3.047 -0.3635  0.6158  0.7196
  220SOL    HW1  659   1.389   2.729   3.057 -2.1711 -1.8707 -3.4372
  220SOL    HW2  660   1.545   2.742   0.047 -0.6244 -1.3925 -2.3920
  221SOL     OW  661   0.122   2.487   1.804 -0.2073  0.2162  0.2381
  221SOL    HW1  662   0.083   2.578   1.779 -1.3045 -1.1992 -1.8300
  221SOL    HW2  663   0.178   2.499   1.888  0.7667 -3.0141  0.7891
  222SOL     OW  664   1.803   2.386   1.210 -0.5354  1.2431 -0.0753
  222SOL    HW1  665   1.852   2.358   1.298  1.0612  0.5910  3.0733
  222SOL    HW2  666   1.859   2.369   1.129  0.5591  2.5911  1.6727
  223SOL     OW  667   1.271   2.409   1.761  0.2071  0.1016  0.1054
  223SOL    HW1  668   1.279   2.395   1.864 -0.2765 -0.8136 -1.9184
  223SOL    HW2  669   1.230   2.328   1.719  2.3455 -0.5578  1.5068
  224SOL     OW  670   2.611   2.311   1.281 -0.3122 -0.5708 -0.4594
  224SOL    HW1  671   2.708   2.301   1.309 -0.1825  1.5791 -0.9928
  224SOL    HW2  672   2.564   2.368   1.350  0.7140  2.4049  0.6047
  225SOL     OW  673   2.334   2.082   0.561 -0.7644  0.0564 -0.2500
  225SOL    HW1  674   2.240   2.063   0.581  0.8533 -0.7848 -1.7331
  225SOL    HW2  675   2.351   2.132   0.470  0.2717 -0.4747 -2.9643
  226SOL     OW  676   1.485   2.613   0.481 -0.2574 -0.2279 -0.3617
  226SOL    HW1  677   1.524   2.516   0.482  1.7656 -3.7320  1.2815
  226SOL    HW2  678   1.500   2.656   0.570  1.2824  1.6799  0.2950
  227SOL     OW  679   2.065   1.048   0.884 -0.1715  0.0259 -0.0521
  227SOL    HW1  680   1.974   1.078   0.849 -1.1884 -0.8977 -2.0667
  227SOL    HW2  681   2.126   1.027   0.806 -0.3236  0.4661  0.8082
  228SOL     OW  682   1.450   0.360   2.851  0.3690  0.3964  0.3673
  228SOL    HW1  683   1.443   0.343   2.951  1.4839  0.1292  0.7615
  228SOL    HW2  684   1.490   0.453   2.831 -1.8804  2.9697  2.2022
  229SOL     OW  685   2.969   1.262   2.692  0.0975  0.5390 -0.2152
  229SOL    HW1  686   2.942   1.242   2.786  2.5755  0.8130 -0.3121
  229SOL    HW2  687   3.006   1.180   2.643 -1.4781 -1.7249  0.4844
  230SOL     OW  688   0.495   1.307   1.033 -0.0492 -0.2490  0.0201
  230SOL    HW1  689   0.475   1.239   1.109 -3.1644  1.7744 -0.1046
  230SOL    HW2  690   0.506   1.262   0.942  0.1971  0.5858 -0.8113
  231SOL     OW  691   2.468   0.285   2.515 -0.0415 -0.3277 -0.4544
  231SOL    HW1  692   2.448   0.363   2.456 -0.7430 -0.3124  3.5960
  231SOL    HW2  693   2.568   0.273   2.527 -0.0389  0.5345 -0.7979
  232SOL     OW  694   2.944   2.115   0.359  0.6581  0.2368 -0.4007
  232SOL    HW1  695   2.982   2.026   0.332  0.8093  1.2946  1.8331
  232SOL    HW2  696   2.876   2.095   0.429  0.4484 -1.6484 -1.7649
  233SOL     OW  697   1.536   2.379   2.318  0.0787  0.0181 -0.1592
  233SOL    HW1  698   1.512   2.472   2.285 -0.0921  0.4050  0.4307
  233SOL    HW2  699   1.602   2.332   2.252  1.5021 -0.7037  0.3978
  234SOL     OW  700   1.183   1.612   1.306  0.4132 -0.2226 -0.3519
  234SOL    HW1  701   1.233   1.628   1.395  2.1011  1.3617 -0.1352
  234SOL    HW2  702   1.241   1.617   1.223 -0.1189  1.7467  0.4706
  235SOL     OW  703   0.977   1.729   1.590 -0.1133 -0.7660 -0.2108
  235SOL    HW1  704   0.873   1.732   1.584 -1.5883 -0.9839  3.3098
  235SOL    HW2  705   1.015   1.644   1.630  1.4372  0.4237 -0.7948
  236SOL     OW  706   1.121   2.992   2.855 -0.4468 -0.2913 -0.5769
  236SOL    HW1  707   1.223   2.995   2.883  2.6623  2.8032  3.2038
  236SOL    HW2  708   1.114   2.971   2.758 -2.3443  1.9223  1.8176
  237SOL     OW  709   1.191   0.055   1.593  0.5913 -0.2311 -0.8188
  237SOL    HW1  710   1.207   0.044   1.495  1.4881  1.3596  0.3968
  237SOL    HW2  711   1.272   0.084   1.647  0.4271  1.4906 -0.2555
  238SOL     OW  712   1.135   0.996   0.061 -0.3495  0.3671  0.3358
  238SOL    HW1  713   1.100   1.012   3.046  1.2667 -0.8011  0.6347
  238SOL    HW2  714   1.147   0.895   0.072 -0.3941  0.7991 -1.6646
  239SOL     OW  715   2.647   0.853   2.864  0.4450 -0.2473 -0.1888
  239SOL    HW1  716   2.593   0.945   2.859 -0.9084  3.9729 -0.4307
  239SOL    HW2  717   2.643   0.820   2.961  2.7500 -0.4490  3.8698
  240SOL     OW  718   2.505   2.117   0.776 -0.0818 -0.5615 -0.2795
  240SOL    HW1  719   2.492   2.059   0.854  1.1021  1.2029 -2.0092
  240SOL    HW2  720   2.448   2.084   0.695  0.8821  1.9710  0.1069
  241SOL     OW  721   0.909   1.230   1.129 -0.4069  0.1387 -0.0603
  241SOL    HW1  722   0.869   1.253   1.038 -0.0035 -0.5985  0.6431
  241SOL    HW2  723   0.947   1.319   1.170  1.0893  0.1983  3.8404
  242SOL     OW  724   0.652   0.532   0.841  0.1409  0.4969 -0.3739
  242SOL    HW1  725   0.739   0.566   0.797  0.3763 -2.0401  0.0727
  242SOL    HW2  726   0.660   0.430   0.846  0.4128  1.1559 -1.6612
  243SOL     OW  727   0.343   0.440   1.132 -0.1401 -0.3586  0.3320
  243SOL    HW1  728   0.253   0.482   1.151  3.1240 -3.7632  1.2663
  243SOL    HW2  729   0.409   0.512   1.109  0.6577 -5.2553  2.5290
  244SOL     OW  730   1.151   0.168   0.398  0.3990  0.0319  0.2673
  244SOL    HW1  731   1.123   0.068   0.398 -1.5830  0.9843 -0.9029
  244SOL    HW2  732   1.092   0.231   0.342 -1.7624  0.9861  0.6651
  245SOL     OW  733   1.953   0.679   0.322 -0.3100  0.0991  0.3413
  245SOL    HW1  734   1.915   0.597   0.368  2.2716  2.2617 -1.7859
  245SOL    HW2  735   2.006   0.643   0.241  3.5532  1.6045  0.0476
  246SOL     OW  736   0.366   0.335   1.530 -0.0614 -0.1788 -0.4963
  246SOL    HW1  737   0.266   0.337   1.556  0.0444 -1.6940  0.4296
  246SOL    HW2  738   0.412   0.423   1.561 -2.6841 -0.0934  0.6269
  247SOL     OW  739   0.995   0.074   1.811 -0.2461  0.0274 -0.5348
  247SOL    HW1  740   1.054   0.070   1.726  2.0218  1.1394 -0.6521
  247SOL    HW2  741   0.995   3.054   1.852  2.1027 -1.7455 -0.4444
  248SOL     OW  742   0.660   1.565   2.087 -0.2783 -0.1218 -0.1586
  248SOL    HW1  743   0.684   1.647   2.033 -1.3956 -2.7576  0.8165
  248SOL    HW2  744   0.646   1.585   2.188  1.4795 -0.1427 -0.5820
  249SOL     OW  745   0.479   2.683   0.127  0.3048 -0.0461 -0.4022
  249SOL    HW1  746   0.450   2.626   0.051 -0.5857  0.0345 -2.0935
  249SOL    HW2  747   0.434   2.643   0.208  3.2534 -0.1988 -1.9378
  250SOL     OW  748   0.923   0.205   2.036 -0.2214 -0.1210 -0.4807
  250SOL    HW1  749   0.859   0.142   2.086 -2.4252 -0.5316  0.8025
  250SOL    HW2  750   0.950   0.160   1.946  2.3418 -2.6764  1.1018
  251SOL     OW  751   2.644   1.922   1.435 -0.4073 -0.2572  0.4764
  251SOL    HW1  752   2.644   1.827   1.400 -2.7043  1.4917 -0.2868
  251SOL    HW2  753   2.600   1.983   1.370  1.4102 -1.5723  3.1582
  252SOL     OW  754   1.846   0.057   1.800 -0.5223  0.1218 -0.2374
  252SOL    HW1  755   1.803   0.089   1.888 -1.2107 -1.7715 -0.4752
  252SOL    HW2  756   1.872   3.038   1.808 -0.0616 -0.7160  0.7755
  253SOL     OW  757   2.085   1.823   2.394  0.2989 -0.8833 -0.2647
  253SOL    HW1  758   2.033   1.911   2.404 -0.8854  0.9718  1.7660
  253SOL    HW2  759   2.181   1.826   2.407 -3.6316 -1.0887  0.7896
  254SOL     OW  760   0.729   1.427   1.380 -0.0729  0.1832  0.6601
  254SOL    HW1  761   0.824   1.442   1.391 -2.1890 -0.0456 -1.0330
  254SOL    HW2  762   0.711   1.420   1.278 -0.7515 -0.6345  2.4763
  255SOL     OW  763   0.646   3.057   1.650 -0.0737 -0.6109  0.5161
  255SOL    HW1  764   0.738   3.071   1.601 -2.1208 -2.1249 -1.9844
  255SOL    HW2  765   0.615   2.960   1.628  0.3082  0.5461  0.3653
  256SOL     OW  766   0.190   2.654   0.764  0.7632 -0.2475  0.0983
  256SOL    HW1  767   0.183   2.552   0.765 -0.3739 -1.5186  1.4705
  256SOL    HW2  768   0.284   2.688   0.783 -0.6061 -1.4768 -0.5038
  257SOL     OW  769   0.833   2.456   2.322 -0.1578  0.2297  0.2786
  257SOL    HW1  770   0.927   2.416   2.305  2.4822  0.2508  0.1782
  257SOL    HW2  771   0.762   2.385   2.312 -3.4700  2.0329  1.3609
  258SOL     OW  772   1.498   1.906   1.834  0.1832 -0.4185  0.2106
  258SOL    HW1  773   1.518   1.833   1.895 -0.5180  0.4363 -0.2813
  258SOL    HW2  774   1.399   1.918   1.825  0.5484  0.3264  3.3797
  259SOL     OW  775   1.149   1.088   2.131 -0.0498 -0.2435 -0.2240
  259SOL    HW1  776   1.069   1.083   2.069 -0.0709  1.0441 -1.0426
  259SOL    HW2  777   1.198   1.174   2.112  2.2139 -0.9613  1.2050
  260SOL     OW  778   2.483   0.651   2.204  0.4707  0.7526 -0.0001
  260SOL    HW1  779   2.431   0.582   2.265 -2.0999  0.9124  0.4472
  260SOL    HW2  780   2.488   0.742   2.251  0.1318  0.9512  2.0942
  261SOL     OW  781   0.855   1.267   0.865  0.1912 -0.1196  0.2104
  261SOL    HW1  782   0.806   1.195   0.815 -1.7167  2.8283 -1.2324
  261SOL    HW2  783   0.943   1.288   0.819 -0.3944  1.4795 -0.9402
  262SOL     OW  784   2.400   2.315   2.650 -1.2454 -0.1256 -0.1498
  262SOL    HW1  785   2.463   2.279   2.583 -2.2888 -1.7752  0.5018
  262SOL    HW2  786   2.357   2.245   2.713  0.0652 -1.2423 -0.3086
  263SOL     OW  787   0.776   2.745   1.043 -0.1614 -0.1291  0.5138
  263SOL    HW1  788   0.811   2.827   0.992 -0.2395 -0.1508  0.9680
  263SOL    HW2  789   0.839   2.734   1.124  0.1731 -1.0332 -0.8205
  264SOL     OW  790   0.122   2.184   0.393  0.4828 -0.5427  0.6105
  264SOL    HW1  791   0.026   2.156   0.413 -0.4181  0.3118  0.7482
  264SOL    HW2  792   0.146   2.174   0.294  2.3954 -1.9371 -1.0403
  265SOL     OW  793   1.565   1.129   2.575  0.2999  0.0412 -0.3987
  265SOL    HW1  794   1.587   1.137   2.476  2.1266  0.2695 -0.3828
  265SOL    HW2  795   1.478   1.177   2.595 -2.9783  1.1013 -0.5070
  266SOL     OW  796   1.106   1.922   2.042 -0.1692 -0.2651  0.2589
  266SOL    HW1  797   1.152   1.995   2.101  0.4795 -1.1781  2.8033
  266SOL    HW2  798   1.162   1.902   1.962 -1.3902 -0.6453 -0.9668
  267SOL     OW  799   2.483   1.051   2.593 -0.4698 -0.3615  0.5087
  267SOL    HW1  800   2.496   1.078   2.692  1.9178  0.2001  0.2102
  267SOL    HW2  801   2.433   1.121   2.541 -0.8351  0.2754  2.8443
  268SOL     OW  802   0.917   1.168   2.701 -0.4045  0.2507 -0.1215
  268SOL    HW1  803   0.817   1.183   2.721 -0.1399 -0.8039 -0.5758
  268SOL    HW2  804   0.964   1.121   2.777 -0.6566  1.2343  0.7100
  269SOL     OW  805   3.070   1.804   2.025 -0.3672  0.7000  0.5381
  269SOL    HW1  806   0.012   1.786   1.927  1.1817  2.5291 -2.0009
  269SOL    HW2  807   2.976   1.845   2.029  1.5812  2.7174 -1.8664
  270SOL     OW  808   0.065   2.077   3.002  0.1778 -0.3048 -0.0567
  270SOL    HW1  809   3.066   2.020   2.974 -1.2428  4.7585  1.2878
  270SOL    HW2  810   0.041   2.172   2.972 -1.1028  0.9275  2.3438
  271SOL     OW  811   0.167   0.354   0.340 -0.0555 -0.0607  0.2913
  271SOL    HW1  812   0.096   0.286   0.376 -1.2916  0.4564  1.9597
  271SOL    HW2  813   0.143   0.388   0.245 -0.6770 -0.9722  1.1192
  272SOL     OW  814   0.054   0.027   0.304 -0.5622  0.7792  0.1700
  272SOL    HW1  815   0.066   0.077   0.212 -0.3258 -1.7877 -2.1226
  272SOL    HW2  816   0.004   0.087   0.369  2.3936 -0.7702  3.4027
  273SOL     OW  817   0.281   2.867   1.987  0.0602  0.5847  0.4474
  273SOL    HW1  818   0.270   2.888   2.084 -2.3025 -0.4978 -0.2255
  273SOL    HW2  819   0.238   2.944   1.937 -3.4105 -1.9228  0.1077
  274SOL     OW  820   0.152   0.613   1.219  0.2585 -0.0884  0.1327
  274SOL    HW1  821   0.060   0.653   1.205 -0.1526  0.6812  2.2333
  274SOL    HW2  822   0.174   0.610   1.315 -0.6716 -0.8428 -0.9342
  275SOL     OW  823   0.891   1.626   1.164 -0.5418 -1.1634 -0.1885
  275SOL    HW1  824   0.962   1.559   1.196 -1.4071 -1.3399  2.3092
  275SOL    HW2  825   0.807   1.579   1.130 -0.2895 -1.9262  1.1979
  276SOL     OW  826   0.494   1.206   1.779  0.5290  0.3676  0.1180
  276SOL    HW1  827   0.580   1.241   1.743  1.9330  0.2399  3.8639
  276SOL    HW2  828   0.451   1.260   1.848  0.7705 -3.1275 -2.9464
  277SOL     OW  829   1.233   1.860   1.804 -0.2593  0.2551 -0.0638
  277SOL    HW1  830   1.183   1.886   1.724  1.3979 -1.5625 -0.1549
  277SOL    HW2  831   1.254   1.763   1.815  2.2725  0.7233 -3.2450
  278SOL     OW  832   2.224   2.552   2.071  0.1242 -0.1408  0.0280
  278SOL    HW1  833   2.205   2.602   2.159  0.6408 -1.0281  1.5271
  278SOL    HW2  834   2.182   2.459   2.071  2.0116  0.3373  0.5011
  279SOL     OW  835   1.219   1.792   2.914  0.2145  0.0059 -0.0555
  279SOL    HW1  836   1.188   1.710   2.965  1.1094 -3.8044  1.7472
  279SOL    HW2  837   1.317   1.810   2.936  0.5103 -2.1293 -0.4854
  280SOL     OW  838   1.383   0.516   0.402 -0.0158  0.3707  0.2522
  280SOL    HW1  839   1.446   0.501   0.479  0.3853  0.5307 -2.8185
  280SOL    HW2  840   1.363   0.618   0.392 -1.5010 -0.6490  0.2306
  281SOL     OW  841   0.735   0.468   1.457 -0.5817  0.0787  0.1644
  281SOL    HW1  842   0.665   0.535   1.428  1.7344 -1.3784 -0.4833
  281SOL    HW2  843   0.736   0.447   1.558  0.8740 -2.7132 -1.7018
  282SOL     OW  844   3.076   2.749   0.542 -0.2170  0.8351  0.1231
  282SOL    HW1  845   0.047   2.816   0.478 -0.0426  1.1844  0.0301
  282SOL    HW2  846   0.061   2.708   0.612  2.3256 -2.7970  0.3920
  283SOL     OW  847   1.333   1.936   1.511  0.4200  0.1395  0.0519
  283SOL    HW1  848   1.279   1.951   1.421 -0.1964 -1.1428 -2.7160
  283SOL    HW2  849   1.330   1.836   1.536 -0.8395  0.4301 -0.8273
  284SOL     OW  850   2.489   2.774   1.327 -0.1788 -0.3555  0.2144
  284SOL    HW1  851   2.589   2.784   1.338 -1.2422  0.1241  3.5528
  284SOL    HW2  852   2.474   2.715   1.245  2.4470  0.5274  5.1813
  285SOL     OW  853   0.518   2.329   0.915 -0.1882  0.2079  0.3518
  285SOL    HW1  854   0.571   2.417   0.921  2.6417 -0.8255 -1.0072
  285SOL    HW2  855   0.482   2.319   0.822 -1.9600  0.3885  0.5071
  286SOL     OW  856   0.370   2.678   1.343  0.0667  0.8847  0.6847
  286SOL    HW1  857   0.341   2.648   1.437 -0.2854 -0.7392 -0.8290
  286SOL    HW2  858   0.343   2.771   1.318  0.2825 -1.6008 -0.7892
  287SOL     OW  859   0.487   1.160   0.828  0.0496 -0.0314  0.0986
  287SOL    HW1  860   0.394   1.175   0.782  1.0011  0.3207 -2.2750
  287SOL    HW2  861   0.491   1.065   0.868 -0.2020 -1.5455  0.2541
  288SOL     OW  862   1.186   1.989   2.707 -0.0954  0.2572 -0.4489
  288SOL    HW1  863   1.217   1.912   2.769 -0.4871 -0.0050 -1.1227
  288SOL    HW2  864   1.254   2.022   2.639  0.2730 -0.0702 -1.0009
  289SOL     OW  865   2.440   1.578   0.003 -0.7957  0.1210 -0.3353
  289SOL    HW1  866   2.439   1.666   0.050 -1.8391 -0.2539  1.4677
  289SOL    HW2  867   2.430   1.596   2.984 -0.9391  3.8947  1.2411
  290SOL     OW  868   1.229   1.413   0.960 -0.1366  0.0925 -0.8701
  290SOL    HW1  869   1.213   1.323   1.008  0.0149  0.5203 -1.4008
  290SOL    HW2  870   1.291   1.470   1.016 -2.6583 -0.5263 -0.2079
  291SOL     OW  871   1.066   1.036   2.883  0.8436  0.2949  0.8169
  291SOL    HW1  872   1.160   1.064   2.861 -1.6349 -2.7599  1.4438
  291SOL    HW2  873   1.047   0.939   2.859  1.5010 -0.3826 -0.6619
  292SOL     OW  874   1.627   1.802   0.130 -0.2565 -0.0104 -0.0787
  292SOL    HW1  875   1.596   1.860   0.207 -2.7600  1.8833 -1.1031
  292SOL    HW2  876   1.556   1.736   0.116  2.3403 -1.1028 -0.2509
  293SOL     OW  877   1.505   3.040   1.003  0.2879  0.7019  0.4443
  293SOL    HW1  878   1.473   2.997   1.091  0.5148  0.0288 -0.9041
  293SOL    HW2  879   1.529   0.058   1.018  0.0180  0.5490 -1.3525
  294SOL     OW  880   2.167   0.969   0.631 -0.0435  0.1886 -0.2198
  294SOL    HW1  881   2.076   0.967   0.588  0.7931 -0.5793  0.1915
  294SOL    HW2  882   2.229   0.901   0.588  1.5382  3.5023  0.0650
  295SOL     OW  883   1.969   1.855   2.664  0.0159  0.6537  0.1591
  295SOL    HW1  884   1.994   1.814   2.575  1.0428  1.3419  0.9644
  295SOL    HW2  885   1.873   1.831   2.687  0.2927  2.3828  0.0317
  296SOL     OW  886   1.494   1.099   1.312  0.1558 -0.6451  0.2239
  296SOL    HW1  887   1.411   1.167   1.297 -1.4399  2.8667 -2.6644
  296SOL    HW2  888   1.483   1.015   1.256 -1.7165  0.1484 -1.4988
  297SOL     OW  889   0.084   0.841   2.338 -0.2982  0.0946  0.3305
  297SOL    HW1  890   0.172   0.805   2.372  1.3866  0.1235 -2.4136
  297SOL    HW2  891   0.001   0.800   2.389 -1.3171  0.6299 -0.1989
  298SOL     OW  892   1.564   2.062   1.404  0.5881  0.0039  0.4207
  298SOL    HW1  893   1.483   2.005   1.441 -2.1676 -1.2462  0.7369
  298SOL    HW2  894   1.623   2.090   1.481 -1.4386  0.3715 -2.1958
  299SOL     OW  895   1.095   0.464   2.500  0.4120 -0.7086 -0.4355
  299SOL    HW1  896   1.163   0.413   2.557 -1.0913 -0.2527 -0.2448
  299SOL    HW2  897   1.006   0.414   2.494  0.3424 -0.2131  3.0954
  300SOL     OW  898   2.158   1.746   0.484  0.0776 -0.7801  0.5782
  300SOL    HW1  899   2.156   1.725   0.386  0.7114  0.6633  3.7388
  300SOL    HW2  900   2.246   1.793   0.510  1.2715 -0.9924  1.5616
  301SOL     OW  901   2.098   0.428   2.611  0.1362 -0.4035  0.0962
  301SOL    HW1  902   2.156   0.509   2.597  0.5199  1.7942  0.5430
  301SOL    HW2  903   2.120   0.375   2.695 -1.4597 -2.7525  1.8335
  302SOL     OW  904   2.611   2.058   2.439 -0.5327 -0.1826 -0.1464
  302SOL    HW1  905   2.663   2.085   2.523  1.4442  0.9291  0.8429
  302SOL    HW2  906   2.558   2.137   2.397  0.4102  0.7344 -2.2857
  303SOL     OW  907   0.406   2.577   2.287  0.2345 -0.0131  0.2296
  303SOL    HW1  908   0.504   2.576   2.315 -1.8606  1.6662  1.4474
  303SOL    HW2  909   0.353   2.530   2.359  1.2069  3.6596 -1.4143
  304SOL     OW  910   2.919   1.577   1.362 -0.1900  0.4172 -0.1857
  304SOL    HW1  911   2.905   1.478   1.358 -0.2602  0.5633  0.9441
  304SOL    HW2  912   2.904   1.621   1.274 -0.1663  0.4327  2.7141
  305SOL     OW  913   0.312   0.335   2.095 -0.7700  0.3039  0.8866
  305SOL    HW1  914   0.404   0.319   2.047  1.8042 -1.2332 -2.9893
  305SOL    HW2  915   0.277   0.252   2.127 -0.2421  2.5025  1.7727
  306SOL     OW  916   1.309   1.609   0.598  0.0455  0.0808  0.2962
  306SOL    HW1  917   1.312   1.509   0.601 -0.8038  2.4399  1.2527
  306SOL    HW2  918   1.298   1.642   0.504  1.8603 -2.1860  0.7204
  307SOL     OW  919   3.002   2.901   0.843 -0.3131 -0.0774 -0.0456
  307SOL    HW1  920   0.024   2.928   0.856  0.0443 -2.0665  1.1454
  307SOL    HW2  921   2.993   2.877   0.748  0.9791 -1.7561  2.7511
  308SOL     OW  922   0.047   1.322   2.398  0.2180  0.4951 -0.3466
  308SOL    HW1  923   0.005   1.395   2.459 -0.5649 -0.2133  1.6021
  308SOL    HW2  924   0.057   1.236   2.459 -0.1367 -0.7298  3.4615
  309SOL     OW  925   2.977   1.903   2.568 -1.0052 -0.2431 -0.0722
  309SOL    HW1  926   2.926   1.821   2.597 -0.6064  0.5028 -3.1356
  309SOL    HW2  927   2.922   1.986   2.572 -0.3603 -0.9176  1.8485
  310SOL     OW  928   2.124   0.510   0.202 -0.2840  0.1166 -0.2914
  310SOL    HW1  929   2.210   0.564   0.182  0.9688  2.8667  1.2820
  310SOL    HW2  930   2.074   0.496   0.112 -2.6695 -0.0131  1.7384
  311SOL     OW  931   1.985   1.121   3.067 -0.7040  0.0247  0.1571
  311SOL    HW1  932   1.959   1.123   2.972  0.1627 -0.5072 -1.1111
  311SOL    HW2  933   2.033   1.035   0.002  0.1877  3.5426  1.0127
  312SOL     OW  934   1.254   1.571   1.914  0.0530 -0.1507  0.3014
  312SOL    HW1  935   1.334   1.630   1.944  0.3422 -1.8294  1.0159
  312SOL    HW2  936   1.218   1.507   1.985  3.6998 -1.1626 -1.7471
  313SOL     OW  937   0.018   0.701   0.340  0.1999  0.3762  0.9018
  313SOL    HW1  938   0.058   0.721   0.249  1.4005  0.2783  0.2155
  313SOL    HW2  939   3.034   0.618   0.338 -1.3979  1.4565  0.9882
  314SOL     OW  940   0.353   1.835   1.358 -0.1392  0.2224 -0.2571
  314SOL    HW1  941   0.385   1.857   1.454 -2.6848 -2.4674  1.3201
  314SOL    HW2  942   0.351   1.734   1.353 -3.8935 -2.4443  1.0671
  315SOL     OW  943   1.028   1.408   1.298 -0.7416  0.4582  0.3033
  315SOL    HW1  944   1.030   1.346   1.380  0.0038 -1.8978  0.1240
  315SOL    HW2  945   1.104   1.476   1.303  0.8385  1.4354 -1.7397
  316SOL     OW  946   0.374   2.312   0.679 -0.1056  0.2919 -0.5495
  316SOL    HW1  947   0.279   2.352   0.680 -0.0076  0.9292  0.9931
  316SOL    HW2  948   0.373   2.235   0.611 -2.6714  1.8816  0.7597
  317SOL     OW  949   2.514   0.187   1.215 -0.2208 -0.1818  0.5643
  317SOL    HW1  950   2.590   0.199   1.288  2.1410 -0.6660  3.6344
  317SOL    HW2  951   2.528   0.228   1.121 -1.1935  0.1208  1.1806
  318SOL     OW  952   1.262   3.020   0.150  0.0249 -0.7104 -0.3575
  318SOL    HW1  953   1.288   3.014   0.050  0.7511 -1.6600  3.1368
  318SOL    HW2  954   1.161   3.028   0.149 -0.0269 -0.3703 -2.0540
  319SOL     OW  955   1.567   0.594   2.795 -0.3482  0.3949  0.3084
  319SOL    HW1  956   1.665   0.618   2.800  0.1674  1.5930 -0.6719
  319SOL    HW2  957   1.515   0.664   2.741 -0.7749 -1.4895  1.4633
  320SOL     OW  958   2.945   1.979   1.774  0.0151 -0.0435 -0.0961
  320SOL    HW1  959   2.869   1.961   1.839  1.6841 -0.2426  2.0377
  320SOL    HW2  960   3.015   1.899   1.770  1.2672 -0.3664  3.3002
  321SOL     OW  961   0.139   2.514   2.887  0.4486 -0.4053  0.1041
  321SOL    HW1  962   0.163   2.525   2.983 -3.9210 -0.0930  0.8199
  321SOL    HW2  963   0.098   2.421   2.879 -0.7039  0.3929  0.1098
  322SOL     OW  964   2.848   0.834   2.171 -0.4088 -0.0547  0.0014
  322SOL    HW1  965   2.790   0.794   2.241  1.0498 -1.9481  1.1142
  322SOL    HW2  966   2.824   0.814   2.070  2.4011 -1.0717 -0.2310
  323SOL     OW  967   2.009   1.386   0.504  0.9623 -0.5724 -0.1806
  323SOL    HW1  968   2.088   1.381   0.440  1.2547 -0.0618 -3.6256
  323SOL    HW2  969   1.953   1.297   0.502  1.6583 -1.3074 -1.7768
  324SOL     OW  970   0.037   0.163   1.371 -0.1375 -0.4104 -0.1710
  324SOL    HW1  971   0.128   0.137   1.403 -2.8087 -1.2320 -1.9919
  324SOL    HW2  972   0.047   0.177   1.267  1.7387  2.4231 -1.6256
  325SOL     OW  973   2.687   3.037   1.428  0.0766 -0.0087 -0.0187
  325SOL    HW1  974   2.735   2.983   1.356 -0.2010  2.4605  2.2170
  325SOL    HW2  975   2.699   0.060   1.419  2.9068  0.4791  1.8787
  326SOL     OW  976   1.599   2.695   0.233  0.7170 -0.2596  0.5757
  326SOL    HW1  977   1.577   2.664   0.326  0.0955 -0.4813 -1.6857
  326SOL    HW2  978   1.686   2.653   0.198  1.5138 -1.2836 -0.0252
  327SOL     OW  979   1.869   2.314   0.254  0.1549 -0.1707 -0.5085
  327SOL    HW1  980   1.774   2.273   0.263 -0.2457 -1.9479 -0.0977
  327SOL    HW2  981   1.931   2.253   0.199 -0.5035 -1.0440  1.1942
  328SOL     OW  982   3.035   2.245   1.800 -0.1042  0.1039 -0.5197
  328SOL    HW1  983   3.017   2.143   1.812 -0.5313  0.4099 -1.3753
  328SOL    HW2  984   2.973   2.292   1.866  1.5920 -0.1040 -0.5197
  329SOL     OW  985   2.905   2.109   1.165 -0.0042 -0.8414  0.1899
  329SOL    HW1  986   2.881   2.159   1.249 -1.4380  2.0922 -0.0673
  329SOL    HW2  987   2.887   2.012   1.176  1.1891 -0.0913 -3.0548
  330SOL     OW  988   2.256   0.904   2.614  0.0305 -0.1076 -0.5225
  330SOL    HW1  989   2.188   0.912   2.538  0.2178  0.1301  3.6549
  330SOL    HW2  990   2.340   0.963   2.610 -0.0715  2.1322  2.4662
  331SOL     OW  991   2.358   1.398   0.761 -0.1024 -0.2305  0.0468
  331SOL    HW1  992   2.292   1.464   0.732  4.0470 -0.5623 -0.1199
  331SOL    HW2  993   2.444   1.423   0.713  1.1537 -0.9398  0.0443
  332SOL     OW  994   0.121   2.768   1.162 -0.1062 -0.2832 -0.9974
  332SOL    HW1  995   0.193   2.737   1.098 -1.8986  0.3606 -0.2079
  332SOL    HW2  996   0.156   2.846   1.224  0.4898  2.3710  0.0631
  333SOL     OW  997   0.113   1.802   2.462  0.3009  0.2050 -0.1588
  333SOL    HW1  998   0.194   1.864   2.448  1.9519 -0.5825 -0.5535
  333SOL    HW2  999   0.035   1.847   2.509  0.4016 -0.3012  2.9980
  334SOL     OW 1000   0.290   0.823   1.112  0.1315 -0.2407 -0.0468
  334SOL    HW1 1001   0.232   0.745   1.147 -0.1322  2.6174 -0.4548
  334SOL    HW2 1002   0.309   0.897   1.176 -0.2908  1.3662 -1.0666
  335SOL     OW 1003   0.160   1.558   2.076  0.2935 -0.1506  0.0759
  335SOL    HW1 1004   0.091   1.633   2.071 -2.7650 -1.6359 -1.9204
  335SOL    HW2 1005   0.168   1.512   2.168  1.3986  0.8447  0.7154
  336SOL     OW 1006   2.167   2.707   2.304  0.1045 -0.6773  0.5279
  336SOL    HW1 1007   2.178   2.672   2.399  0.6046  0.0173  0.9862
  336SOL    HW2 1008   2.082   2.764   2.294 -2.6699 -2.2626 -1.2622
  337SOL     OW 1009   1.007   0.696   1.269 -0.5023  0.0807 -0.3370
  337SOL    HW1 1010   0.909   0.714   1.238 -4.1121  2.4676 -1.2606
  337SOL    HW2 1011   1.080   0.749   1.223 -0.9962 -0.1007  0.5565
  338SOL     OW 1012   1.543   2.015   0.949 -0.1464  0.5832  0.4999
  338SOL    HW1 1013   1.528   2.078   1.030 -1.3887  0.1881 -1.7756
  338SOL    HW2 1014   1.538   1.914   0.971  0.3207 -0.6682  0.8136
  339SOL     OW 1015   0.109   1.851   1.225  0.1190  0.1930  0.1278
  339SOL    HW1 1016   0.201   1.841   1.263  0.0483 -1.1874 -1.5564
  339SOL    HW2 1017   0.040   1.847   1.298 -2.2118  1.2337 -1.9864
  340SOL     OW 1018   0.759   0.017   2.146  0.2103  0.2585 -0.1845
  340SOL    HW1 1019   0.791   3.019   2.206  0.3111  1.5959  2.2151
  340SOL    HW2 1020   0.666   0.043   2.177  1.3904 -1.6532  2.7392
  341SOL     OW 1021   1.866   1.631   0.439  0.2627 -0.0019  0.3383
  341SOL    HW1 1022   1.911   1.719   0.427 -1.7815 -0.8357 -2.1775
  341SOL    HW2 1023   1.927   1.551   0.425  2.0900 -0.4861  2.1635
  342SOL     OW 1024   1.593   1.563   0.424 -0.1096  0.1017  0.7583
  342SOL    HW1 1025   1.565   1.529   0.328 -2.4035 -3.2305 -0.7630
  342SOL    HW2 1026   1.693   1.589   0.424  0.0506  3.3975  2.6057
  343SOL     OW 1027   1.921   0.022   1.035 -0.0298  0.0352  0.5190
  343SOL    HW1 1028   1.854   0.047   1.108  0.7162 -1.1218 -0.1869
  343SOL    HW2 1029   1.921   3.001   1.015 -0.5591  1.6023  1.2426
  344SOL     OW 1030   2.754   0.254   2.891 -0.3607  0.1768  0.3286
  344SOL    HW1 1031   2.721   0.187   2.965 -1.0196 -0.8023 -1.4763
  344SOL    HW2 1032   2.672   0.258   2.824  0.2640 -0.5046 -0.1043
  345SOL     OW 1033   1.448   2.537   1.595  0.4998 -0.5569 -0.4375
  345SOL    HW1 1034   1.514   2.605   1.633  0.3101  2.1827  0.0142
  345SOL    HW2 1035   1.394   2.495   1.673 -0.9539 -0.3474  1.9615
  346SOL     OW 1036   2.247   2.086   1.340 -0.2286  0.0670 -0.5415
  346SOL    HW1 1037   2.149   2.098   1.308  0.4554  1.8304  1.2625
  346SOL    HW2 1038   2.266   2.146   1.415  0.0437  2.4192 -0.6191
  347SOL     OW 1039   2.121   2.847   1.159 -0.0179 -0.2372 -0.3083
  347SOL    HW1 1040   2.038   2.829   1.102  3.5642  0.8881 -1.6477
  347SOL    HW2 1041   2.097   2.891   1.251  0.5611  1.0144  0.4616
  348SOL     OW 1042   0.723   0.997   1.542  0.2939  0.1633 -0.3312
  348SOL    HW1 1043   0.645   0.948   1.587 -1.9610  1.3737  2.2634
  348SOL    HW2 1044   0.708   1.005   1.444  2.6429  1.0188  0.9616
  349SOL     OW 1045   2.243   0.357   2.851 -0.5435 -0.2204 -0.1790
  349SOL    HW1 1046   2.273   0.442   2.898  1.5592 -0.5692  0.9810
  349SOL    HW2 1047   2.320   0.315   2.809  0.2970  0.4975 -0.6235
  350SOL     OW 1048   2.304   2.125   2.837 -0.0573  0.0318 -0.9837
  350SOL    HW1 1049   2.297   2.030   2.877 -1.4871 -0.9777 -2.4553
  350SOL    HW2 1050   2.269   2.203   2.898 -1.3975  1.8086  1.2658
  351SOL     OW 1051   1.101   0.258   0.652  0.0493 -0.0646  0.3536
  351SOL    HW1 1052   1.109   0.214   0.561  2.5554  0.3265  0.3600
  351SOL    HW2 1053   1.120   0.358   0.647  1.1696  0.0576  0.8117
  352SOL     OW 1054   1.912   2.079   2.357  0.5781  0.7273  0.6055
  352SOL    HW1 1055   1.887   2.172   2.393 -0.2743  1.5481  0.5311
  352SOL    HW2 1056   1.927   2.088   2.254  0.5941 -1.2791 -2.2164
  353SOL     OW 1057   0.075   0.812   0.069 -0.0096 -0.1689  0.0049
  353SOL    HW1 1058   0.138   0.745   0.031 -0.6047  1.2536  0.2115
  353SOL    HW2 1059   0.070   0.893   0.006  0.5536 -2.0285  0.7295
  354SOL     OW 1060   0.942   2.372   2.833 -0.2031  0.3173  0.7051
  354SOL    HW1 1061   0.979   2.308   2.760 -0.9268 -2.6092 -3.2049
  354SOL    HW2 1062   0.968   2.340   2.926 -1.1342 -2.8278  2.2460
  355SOL     OW 1063   2.769   2.679   1.727 -0.3606  0.0657  0.0423
  355SOL    HW1 1064   2.789   2.759   1.788  0.5111  3.5460  2.0157
  355SOL    HW2 1065   2.676   2.682   1.697  4.4308 -0.8190  2.0731
  356SOL     OW 1066   2.564   1.067   0.888  0.0804 -0.2155  0.4514
  356SOL    HW1 1067   2.513   0.979   0.923  0.9418 -2.1749 -0.1428
  356SOL    HW2 1068   2.505   1.144   0.914  2.0638 -0.8274  1.6060
  357SOL     OW 1069   2.828   0.230   1.071 -0.0059  0.0548 -0.0771
  357SOL    HW1 1070   2.815   0.131   1.074 -1.1640  2.6186  0.7409
  357SOL    HW2 1071   2.883   0.259   0.995 -0.9399 -1.1585  0.3413
  358SOL     OW 1072   1.186   2.285   1.312  0.3722 -0.1456  0.2605
  358SOL    HW1 1073   1.181   2.368   1.249 -1.4358  2.4970 -0.6975
  358SOL    HW2 1074   1.269   2.298   1.367 -0.9790 -0.2975  1.4592
  359SOL     OW 1075   3.019   2.670   2.817 -0.6637 -0.0478 -0.5183
  359SOL    HW1 1076   0.020   2.628   2.864  0.5638 -0.2960 -0.0080
  359SOL    HW2 1077   3.052   2.722   2.735  2.1554  1.9550  1.5991
  360SOL     OW 1078   1.096   0.834   1.675 -0.3143  0.1810 -0.6260
  360SOL    HW1 1079   1.199   0.851   1.677 -2.5921  1.3285  1.4725
  360SOL    HW2 1080   1.073   0.751   1.621  0.5214 -1.3019  1.3742
  361SOL     OW 1081   2.355   0.065   0.638 -0.7452 -0.5126  0.6880
  361SOL    HW1 1082   2.347   0.081   0.736 -1.5740 -0.6446 -1.1180
  361SOL    HW2 1083   2.263   0.063   0.597  1.2783 -2.8497  0.6914
  362SOL     OW 1084   0.265   3.066   0.678 -0.1425  0.2520 -0.3723
  362SOL    HW1 1085   0.307   2.985   0.629 -0.5846  1.7381  2.1278
  362SOL    HW2 1086   0.346   0.051   0.689 -0.2583 -0.7472 -1.8870
  363SOL     OW 1087   0.773   1.261   0.400  0.3452  0.2005  0.4857
  363SOL    HW1 1088   0.707   1.206   0.453  1.5005 -0.8539 -1.6917
  363SOL    HW2 1089   0.821   1.327   0.460 -1.0788 -0.4546  0.9980
  364SOL     OW 1090   0.513   0.942   1.715  0.2577  0.0587 -0.3889
  364SOL    HW1 1091   0.469   0.921   1.627  1.4578 -2.4454 -0.7541
  364SOL    HW2 1092   0.502   1.043   1.736 -0.3859  0.7725  2.3460
  365SOL     OW 1093   2.832   1.324   0.510  0.3850 -0.0481 -0.4342
  365SOL    HW1 1094   2.753   1.333   0.570  0.6908  2.8216 -0.3343
  365SOL    HW2 1095   2.849   1.223   0.488 -1.9042 -0.4431 -3.2093
  366SOL     OW 1096   2.708   1.549   0.889 -0.0214 -0.3947  0.3948
  366SOL    HW1 1097   2.711   1.507   0.982  2.4499 -0.3278  0.4635
  366SOL    HW2 1098   2.796   1.517   0.846  2.4194 -0.8282  3.3167
  367SOL     OW 1099   2.259   1.920   2.050  0.7058 -0.9424 -0.1497
  367SOL    HW1 1100   2.239   1.981   2.133  0.2363 -0.8371  1.8397
  367SOL    HW2 1101   2.173   1.900   2.002 -3.6530  3.0261  0.5477
  368SOL     OW 1102   2.676   1.457   1.152  0.0392  0.7928 -0.1880
  368SOL    HW1 1103   2.772   1.428   1.173  1.4239  1.2374 -0.8064
  368SOL    HW2 1104   2.608   1.383   1.168  1.0475 -1.0864 -2.7395
  369SOL     OW 1105   2.177   2.527   0.016 -0.3059  0.0290  0.2182
  369SOL    HW1 1106   2.232   2.595   3.039  0.3929  0.6842  2.0372
  369SOL    HW2 1107   2.103   2.568   0.067 -0.6918  0.6703  0.9369
  370SOL     OW 1108   2.920   3.049   1.254 -0.2352 -0.4678  0.3128
  370SOL    HW1 1109   2.950   3.011   1.343  1.9057  1.5298 -0.2769
  370SOL    HW2 1110   2.999   0.019   1.218  1.9441  1.0293 -1.3999
  371SOL     OW 1111   0.757   1.802   0.040 -0.2551  0.2817  0.1910
  371SOL    HW1 1112   0.766   1.900   0.051 -0.9896 -2.7535  2.2368
  371SOL    HW2 1113   0.670   1.769   0.002  1.3535 -0.6390 -0.1638
  372SOL     OW 1114   1.030   1.084   0.298 -0.5690 -0.0953  0.1304
  372SOL    HW1 1115   0.945   1.125   0.256 -0.9357 -2.6157  0.2261
  372SOL    HW2 1116   1.093   1.052   0.226 -1.2752  0.3249 -1.8861
  373SOL     OW 1117   1.498   2.616   2.812 -0.2521  0.4127 -0.5873
  373SOL    HW1 1118   1.562   2.538   2.826  1.6862 -1.2724 -2.2075
  373SOL    HW2 1119   1.492   2.675   2.894 -1.1799  0.5761  0.0936
  374SOL     OW 1120   0.247   2.144   0.129  0.3406  0.4194 -0.6859
  374SOL    HW1 1121   0.343   2.113   0.121  0.5449 -0.9051 -0.7347
  374SOL    HW2 1122   0.189   2.101   0.060 -0.8535 -1.0764  2.6618
  375SOL     OW 1123   0.728   1.276   1.626  0.1649 -0.1109  0.3632
  375SOL    HW1 1124   0.750   1.348   1.557  1.0668 -0.9989 -1.3363
  375SOL    HW2 1125   0.733   1.180   1.585 -2.0998 -1.8440 -0.7671
  376SOL     OW 1126   0.676   2.397   1.875 -0.0330  0.1376  0.6497
  376SOL    HW1 1127   0.681   2.399   1.775 -3.0153  1.2603  1.5183
  376SOL    HW2 1128   0.579   2.381   1.909 -1.1635  2.3447 -1.2489
  377SOL     OW 1129   2.918   1.467   2.083 -0.7559 -0.2769  0.2256
  377SOL    HW1 1130   2.945   1.537   2.150  0.7642 -1.3697 -1.6617
  377SOL    HW2 1131   2.994   1.402   2.068  2.2970 -3.5432 -0.6140
  378SOL     OW 1132   0.914   2.920   3.007  0.4557 -0.5935 -0.0704
  378SOL    HW1 1133   0.996   2.963   2.968  3.0646 -2.0226  0.7276
  378SOL    HW2 1134   0.925   2.820   3.020  1.0566  2.3280 -1.4105
  379SOL     OW 1135   2.069   0.333   0.736 -0.4799 -0.0741  0.2376
  379SOL    HW1 1136   2.110   0.335   0.643  0.3488 -1.1498  0.6004
  379SOL    HW2 1137   2.132   0.385   0.796 -3.5944  1.5716  1.3374
  380SOL     OW 1138   2.979   1.840   1.404  0.4331 -0.4751 -0.5557
  380SOL    HW1 1139   2.974   1.737   1.411  3.1078 -1.8553 -1.5113
  380SOL    HW2 1140   2.887   1.886   1.424 -1.6245  0.3639  1.7850
  381SOL     OW 1141   2.075   1.834   1.859  0.2230 -0.7451  0.0131
  381SOL    HW1 1142   2.046   1.762   1.799 -0.1404 -1.0168  2.2169
  381SOL    HW2 1143   2.042   1.923   1.821 -0.5636 -0.7308 -0.5108
  382SOL     OW 1144   0.095   0.461   2.605  0.1567 -0.5692 -0.0663
  382SOL    HW1 1145   0.095   0.359   2.604 -0.6359  1.3126 -0.7883
  382SOL    HW2 1146   0.116   0.499   2.511 -0.1909  2.0371  0.1538
  383SOL     OW 1147   1.696   1.485   2.413  0.2310  0.3121 -0.1535
  383SOL    HW1 1148   1.734   1.396   2.389 -1.1247  2.1692  2.4602
  383SOL    HW2 1149   1.772   1.553   2.417 -0.2662 -0.1546  0.2967
  384SOL     OW 1150   1.150   2.002   1.312  0.5850  0.6729 -0.3187
  384SOL    HW1 1151   1.166   2.103   1.303  0.2647  0.8635  0.7271
  384SOL    HW2 1152   1.050   1.972   1.301 -0.3417  0.7819  0.1527
  385SOL     OW 1153   1.832   2.425   0.802  0.0093  0.6523 -0.0693
  385SOL    HW1 1154   1.758   2.488   0.826  2.2252 -0.9515 -1.9265
  385SOL    HW2 1155   1.871   2.459   0.711  0.1801 -1.1462 -1.1600
  386SOL     OW 1156   1.867   1.758   0.852  0.1057  0.1400  0.4310
  386SOL    HW1 1157   1.830   1.780   0.763  1.0102  0.1305  2.8460
  386SOL    HW2 1158   1.872   1.657   0.874  2.3701 -1.5757 -1.4545
  387SOL     OW 1159   0.237   2.332   1.373  0.4307  0.0581  0.4492
  387SOL    HW1 1160   0.307   2.275   1.327 -1.0355  0.9584 -0.0027
  387SOL    HW2 1161   0.195   2.278   1.442  1.0917  1.3651 -1.9006
  388SOL     OW 1162   2.954   0.415   1.713  0.4126  0.3683  0.1830
  388SOL    HW1 1163   2.945   0.517   1.704 -0.7503  2.0125  1.6777
  388SOL    HW2 1164   2.909   0.382   1.802 -1.1968  1.2025  0.1470
  389SOL     OW 1165   1.869   1.153   0.541 -0.2102 -0.5206  0.6941
  389SOL    HW1 1166   1.864   1.108   0.632  4.4309 -0.5010  0.3001
  389SOL    HW2 1167   1.926   1.094   0.483  0.1221  1.3127  0.8432
  390SOL     OW 1168   1.027   2.201   2.655 -0.5520 -0.3268  0.4104
  390SOL    HW1 1169   0.986   2.173   2.567  3.2805  0.1247  2.5134
  390SOL    HW2 1170   1.083   2.126   2.691 -2.5353  0.7310 -2.7549
  391SOL     OW 1171   0.795   2.025   2.824 -0.3455 -0.1561 -0.1454
  391SOL    HW1 1172   0.805   2.056   2.728 -1.2669 -0.5696  0.0272
  391SOL    HW2 1173   0.717   2.076   2.874 -0.2125  0.3323 -1.6987
  392SOL     OW 1174   0.009   2.735   1.714 -0.4071  0.3043  0.0585
  392SOL    HW1 1175   3.030   2.739   1.630 -1.5156 -0.6342  1.0292
  392SOL    HW2 1176   3.058   2.805   1.785  0.6059 -1.5490 -0.2227
  393SOL     OW 1177   1.815   2.552   0.158  0.3898  0.1646 -0.2434
  393SOL    HW1 1178   1.844   2.458   0.184  1.6939 -1.0320 -0.5896
  393SOL    HW2 1179   1.894   2.619   0.179  2.2232 -1.2734 -1.3082
  394SOL     OW 1180   0.767   0.492   2.118 -0.3221 -0.7219 -0.2229
  394SOL    HW1 1181   0.721   0.431   2.185 -0.5415 -2.7741  0.8752
  394SOL    HW2 1182   0.862   0.456   2.095  3.3258  0.4723  0.7897
  395SOL     OW 1183   0.435   1.151   1.247  0.3487  0.0765 -0.1611
  395SOL    HW1 1184   0.344   1.119   1.273 -2.0547  0.7375  1.0708
  395SOL    HW2 1185   0.469   1.233   1.304 -0.5538  1.6695  3.3733
  396SOL     OW 1186   1.569   1.483   2.130  0.3497  0.4260 -0.3746
  396SOL    HW1 1187   1.613   1.396   2.106 -0.8912  1.8258  2.5755
  396SOL    HW2 1188   1.565   1.489   2.229 -2.6265  1.6463 -0.9709
  397SOL     OW 1189   0.760   0.530   3.076  0.4802 -0.0430  0.5977
  397SOL    HW1 1190   0.718   0.523   0.089  2.2493 -0.9236  0.1207
  397SOL    HW2 1191   0.722   0.462   3.012  0.7894  0.4561 -1.7970
  398SOL     OW 1192   0.643   1.778   2.645  0.4089  0.0673 -0.0611
  398SOL    HW1 1193   0.724   1.805   2.693  0.5587 -0.1550 -1.3111
  398SOL    HW2 1194   0.636   1.809   2.547 -0.4786  1.7633 -1.7919
  399SOL     OW 1195   2.745   1.708   2.330  0.4773  0.0150  0.4731
  399SOL    HW1 1196   2.730   1.803   2.288 -3.5600 -0.3460  0.7985
  399SOL    HW2 1197   2.842   1.684   2.313 -1.3283 -3.1515  1.5617
  400SOL     OW 1198   2.325   1.055   1.559 -0.0616  0.3204 -0.1752
  400SOL    HW1 1199   2.340   1.153   1.574 -1.6753 -5.0991 -0.8627
  400SOL    HW2 1200   2.275   1.031   1.474 -0.0645  0.1071 -1.0118
  401SOL     OW 1201   1.062   1.718   0.695  0.2325  0.2633  0.6372
  401SOL    HW1 1202   1.052   1.726   0.801 -3.7825  1.7635  0.6214
  401SOL    HW2 1203   1.149   1.675   0.675  0.8998  3.8008  0.7076
  402SOL     OW 1204   3.061   2.669   2.096  0.1155 -0.3084 -0.1547
  402SOL    HW1 1205   0.063   2.609   2.082  2.9347  3.4560 -1.9540
  402SOL    HW2 1206   3.057   2.745   2.029  0.2148 -1.6130  3.8636
  403SOL     OW 1207   0.516   1.304   2.504 -0.3891  0.2014 -0.1390
  403SOL    HW1 1208   0.479   1.359   2.581 -0.4304  0.8964  0.0921
  403SOL    HW2 1209   0.457   1.224   2.488 -0.9630  2.7000  2.2513
  404SOL     OW 1210   1.941   2.249   1.419  0.3893  0.5185 -0.1836
  404SOL    HW1 1211   2.013   2.289   1.475  1.2356 -1.8711 -0.6402
  404SOL    HW2 1212   1.951   2.169   1.356 -1.1202  0.7488 -1.5616
  405SOL     OW 1213   0.024   0.111   2.862  0.2711  0.4079 -0.0773
  405SOL    HW1 1214   3.001   0.131   2.856 -0.1511 -0.0381 -0.2900
  405SOL    HW2 1215   0.043   0.018   2.906  1.9881 -1.1536  0.3177
  406SOL     OW 1216   0.663   0.833   0.264  0.0773 -0.2628 -1.0894
  406SOL    HW1 1217   0.746   0.798   0.219 -0.3528  0.8547  1.3545
  406SOL    HW2 1218   0.620   0.901   0.202 -1.0441 -2.8996  1.7138
  407SOL     OW 1219   1.964   2.604   2.654  0.2175 -0.7550 -0.6505
  407SOL    HW1 1220   1.940   2.505   2.670  1.3320  0.6982 -0.8855
  407SOL    HW2 1221   1.921   2.657   2.730  1.1934  0.1648  1.0884
  408SOL     OW 1222   2.885   0.066   0.163 -0.7174  0.3660 -0.0587
  408SOL    HW1 1223   2.891   3.047   0.190 -0.0544  0.3510 -1.3693
  408SOL    HW2 1224   2.978   0.088   0.128  0.6130 -0.2570  3.2496
  409SOL     OW 1225   2.114   1.471   1.047  0.5005 -0.6398  0.3392
  409SOL    HW1 1226   2.112   1.497   0.948  0.0326 -3.1967 -3.9609
  409SOL    HW2 1227   2.146   1.376   1.066 -1.6774 -0.1361 -0.0007
  410SOL     OW 1228   2.558   2.095   0.103 -0.4536  0.1930  0.4210
  410SOL    HW1 1229   2.555   2.194   0.083  0.9157  2.5034 -1.3741
  410SOL    HW2 1230   2.533   2.039   0.024  0.5760  0.0986 -0.3654
  411SOL     OW 1231   0.136   1.255   0.783  0.0343  0.2555 -0.1437
  411SOL    HW1 1232   0.149   1.347   0.820  2.4757  0.7295 -2.1927
  411SOL    HW2 1233   0.071   1.199   0.836  3.0463  1.2796 -2.1848
  412SOL     OW 1234   2.170   2.421   0.733 -0.4428  0.1003 -0.3656
  412SOL    HW1 1235   2.261   2.460   0.707  0.3916 -1.0282  3.0873
  412SOL    HW2 1236   2.148   2.348   0.670  0.4776  0.0182 -1.3711
  413SOL     OW 1237   2.051   0.747   2.196 -0.1537 -0.1688 -0.3659
  413SOL    HW1 1238   1.948   0.727   2.177 -2.6893 -0.7929  0.5844
  413SOL    HW2 1239   2.101   0.776   2.114  0.4606  0.7440  0.5599
  414SOL     OW 1240   2.741   0.254   0.311  0.2350  0.0030  0.0119
  414SOL    HW1 1241   2.808   0.201   0.255  1.4975  0.8226  4.8906
  414SOL    HW2 1242   2.683   0.188   0.366 -1.2840 -1.5605  2.5909
  415SOL     OW 1243   0.920   1.834   1.321 -0.3450  0.2764 -0.3235
  415SOL    HW1 1244   0.889   1.764   1.252  1.9144 -0.2875  0.0055
  415SOL    HW2 1245   0.953   1.789   1.406 -0.9256 -0.4025  0.4680
  416SOL     OW 1246   0.493   3.064   2.576 -0.1693 -0.2574 -0.0296
  416SOL    HW1 1247   0.443   0.055   2.520 -0.7197 -0.2088 -1.0274
  416SOL    HW2 1248   0.428   2.998   2.619  1.0062 -1.8263  0.5518
  417SOL     OW 1249   2.575   0.312   0.982  0.1371 -0.1003  0.4076
  417SOL    HW1 1250   2.586   0.400   0.925  1.2545  3.9514 -0.9866
  417SOL    HW2 1251   2.665   0.277   1.004 -1.3435  1.0386  0.9482
  418SOL     OW 1252   0.058   0.681   2.771 -0.4717 -0.1115  0.3059
  418SOL    HW1 1253   3.045   0.681   2.816  0.6165  1.0326 -3.7710
  418SOL    HW2 1254   0.074   0.592   2.723  0.6964  2.0827 -2.6372
  419SOL     OW 1255   0.265   1.210   1.569 -0.6412  0.2244 -0.1666
  419SOL    HW1 1256   0.350   1.269   1.567  0.5208  0.8188 -0.9608
  419SOL    HW2 1257   0.183   1.262   1.539  3.1177 -2.7249 -1.5169
  420SOL     OW 1258   0.641   1.506   0.784 -0.0477 -0.9299 -0.6185
  420SOL    HW1 1259   0.704   1.574   0.743  1.1717  3.8190  1.0831
  420SOL    HW2 1260   0.695   1.431   0.831 -2.5428 -2.1492  1.0977
  421SOL     OW 1261   2.492   2.540   2.783  0.2663 -0.0368 -0.4572
  421SOL    HW1 1262   2.465   2.452   2.738  2.7044 -1.5962  1.1006
  421SOL    HW2 1263   2.471   2.618   2.721  1.8161  0.5288  0.0428
  422SOL     OW 1264   2.886   0.706   2.837  0.1656  0.1356  0.8613
  422SOL    HW1 1265   2.853   0.611   2.810  1.5000  3.3477  0.0401
  422SOL    HW2 1266   2.804   0.762   2.866  1.2213  0.1067 -0.1224
  423SOL     OW 1267   1.345   2.064   0.787 -0.6904  0.3933  0.1581
  423SOL    HW1 1268   1.415   2.013   0.844  0.3733  0.5233 -0.9179
  423SOL    HW2 1269   1.253   2.056   0.830  1.6231 -1.1123 -1.1226
  424SOL     OW 1270   0.517   1.951   1.557 -0.6037 -0.4186 -0.5966
  424SOL    HW1 1271   0.528   2.045   1.518 -0.8540  2.3738 -1.5828
  424SOL    HW2 1272   0.450   1.952   1.631 -1.0804 -1.0125 -1.1139
  425SOL     OW 1273   0.008   2.810   2.332  0.1335  0.0550 -0.0173
  425SOL    HW1 1274   0.004   2.742   2.258 -2.1761  0.1613 -0.0170
  425SOL    HW2 1275   2.989   2.833   2.352  0.4466 -2.5569  2.3460
  426SOL     OW 1276   1.693   0.833   0.543 -0.1942 -0.5040 -0.1915
  426SOL    HW1 1277   1.656   0.865   0.450 -0.6961  0.4457 -1.5363
  426SOL    HW2 1278   1.625   0.859   0.618  0.0542 -1.1182 -0.5682
  427SOL     OW 1279   0.569   1.014   0.068  0.3829  0.2951  0.1788
  427SOL    HW1 1280   0.465   1.013   0.092 -0.7561  0.4276 -0.2411
  427SOL    HW2 1281   0.583   0.987   3.050 -1.7167 -0.9050 -0.0345
  428SOL     OW 1282   1.305   1.294   3.052  0.2989  0.0636 -0.6557
  428SOL    HW1 1283   1.350   1.294   0.062 -1.9724  2.4027  1.3849
  428SOL    HW2 1284   1.212   1.326   3.054  3.0652  0.1029  0.5075
  429SOL     OW 1285   2.929   2.543   0.437  0.4990  0.0095  0.1063
  429SOL    HW1 1286   2.903   2.531   0.341  2.1719  1.1594  0.9371
  429SOL    HW2 1287   2.977   2.634   0.450 -0.4072  3.9717  1.6605
  430SOL     OW 1288   0.557   2.502   2.543 -0.6794  0.0197 -0.2405
  430SOL    HW1 1289   0.469   2.536   2.578  2.1810 -0.0047  0.4818
  430SOL    HW2 1290   0.610   2.484   2.626 -0.9647 -1.6637 -1.5029
  431SOL     OW 1291   2.755   1.092   0.669  1.0106 -0.2471  0.2264
  431SOL    HW1 1292   2.715   1.121   0.761 -1.2893 -1.8614 -0.9689
  431SOL    HW2 1293   2.848   1.062   0.676 -0.3832  1.8530 -0.1055
  432SOL     OW 1294   2.060   2.307   2.139  0.3710 -0.3947  0.5546
  432SOL    HW1 1295   2.134   2.292   2.207 -1.1439 -4.1134  1.6745
  432SOL    HW2 1296   2.004   2.222   2.142 -1.5896 -1.6575 -1.5503
  433SOL     OW 1297   1.398   2.430   0.819  0.2855 -0.4197 -0.2842
  433SOL    HW1 1298   1.451   2.353   0.783 -0.9399 -3.1231 -1.0522
  433SOL    HW2 1299   1.427   2.518   0.777  0.7349 -1.0533  0.3601
  434SOL     OW 1300   0.687   2.059   1.900  0.7060 -0.5354  0.4718
  434SOL    HW1 1301   0.724   2.153   1.882 -2.4527 -0.6558  1.9640
  434SOL    HW2 1302   0.644   2.050   1.991 -1.6947 -0.0224 -1.9504
  435SOL     OW 1303   2.864   0.969   0.082 -0.0007 -0.2834 -0.6198
  435SOL    HW1 1304   2.888   0.986   0.180  0.5758  2.5627  0.3526
  435SOL    HW2 1305   2.835   0.873   0.075 -1.5925  2.0131  1.5231
  436SOL     OW 1306   0.285   2.590   2.051  0.1901 -0.2156  0.0540
  436SOL    HW1 1307   0.288   2.689   2.019 -0.5412  2.1406 -2.7701
  436SOL    HW2 1308   0.320   2.587   2.147 -0.2326 -1.0199 -1.7596
  437SOL     OW 1309   1.917   2.881   1.784  0.2946 -0.1067  0.4883
  437SOL    HW1 1310   1.913   2.845   1.688 -0.2587  0.1894  3.3727
  437SOL    HW2 1311   1.945   2.812   1.850 -1.4387  2.4916  0.3550
  438SOL     OW 1312   0.306   1.803   0.565  0.0745 -0.0284  0.0422
  438SOL    HW1 1313   0.383   1.777   0.629 -0.0147  1.7981  2.0068
  438SOL    HW2 1314   0.324   1.901   0.534 -0.6939  0.2160  0.3887
  439SOL     OW 1315   0.163   0.471   0.783  0.0333  0.0239  0.3833
  439SOL    HW1 1316   0.220   0.443   0.701  0.9680 -1.1380 -0.3767
  439SOL    HW2 1317   0.195   0.413   0.862  2.8651  0.4321  3.2148
  440SOL     OW 1318   0.347   2.877   2.694  0.2271 -0.1205 -0.5860
  440SOL    HW1 1319   0.379   2.793   2.654 -1.3706 -0.0225 -0.2338
  440SOL    HW2 1320   0.246   2.879   2.696 -1.3815  3.1620 -2.2905
  441SOL     OW 1321   2.993   0.968   0.675  0.1870  0.1897  0.2860
  441SOL    HW1 1322   0.017   0.989   0.652 -0.6675 -0.3673 -1.2708
  441SOL    HW2 1323   2.963   0.890   0.617  0.0763 -0.8641 -1.2841
  442SOL     OW 1324   1.209   2.369   2.515  0.3304 -0.0571 -0.1826
  442SOL    HW1 1325   1.258   2.307   2.446  0.6474  0.7092 -1.9416
  442SOL    HW2 1326   1.135   2.310   2.553 -0.2893 -2.3401  0.0516
  443SOL     OW 1327   0.700   0.264   0.485 -0.3131  0.2036  0.3922
  443SOL    HW1 1328   0.762   0.276   0.405  2.2641 -0.8111 -2.5998
  443SOL    HW2 1329   0.744   0.205   0.557  3.1732 -4.0359  0.7021
  444SOL     OW 1330   1.448   1.798   2.404 -0.1735  0.2373  0.2992
  444SOL    HW1 1331   1.426   1.701   2.371 -2.7116 -0.8246 -3.0787
  444SOL    HW2 1332   1.503   1.847   2.333  1.5615 -1.2685 -1.1844
  445SOL     OW 1333   3.036   0.477   0.540  0.1042 -0.4091  0.2449
  445SOL    HW1 1334   0.012   0.435   0.468 -0.1524  0.7632 -3.1032
  445SOL    HW2 1335   3.074   0.466   0.634 -0.2648  3.3351  0.1381
  446SOL     OW 1336   1.991   0.788   1.064 -0.4888 -0.3306 -0.0843
  446SOL    HW1 1337   1.923   0.733   1.113  0.3938  0.0300 -2.8141
  446SOL    HW2 1338   1.954   0.872   1.017 -0.4335  2.5297  1.8238
  447SOL     OW 1339   2.944   0.974   0.342  0.2113  0.3606 -0.0592
  447SOL    HW1 1340   2.989   0.883   0.338  0.6461 -0.0979 -1.6186
  447SOL    HW2 1341   2.856   0.974   0.391  1.0587  2.4803 -0.5315
  448SOL     OW 1342   1.823   1.895   1.453  0.2500 -0.2265 -0.7020
  448SOL    HW1 1343   1.754   1.924   1.388 -0.0483 -2.5624 -1.7263
  448SOL    HW2 1344   1.899   1.856   1.399 -1.7835  1.2214 -0.6264
  449SOL     OW 1345   0.914   1.426   0.561  0.5748  0.0258 -0.1328
  449SOL    HW1 1346   0.995   1.393   0.609 -0.1664  2.9340  0.4373
  449SOL    HW2 1347   0.870   1.509   0.598  1.7849  0.7492 -1.5079
  450SOL     OW 1348   2.584   2.766   2.314  0.2303 -0.1186 -0.2569
  450SOL    HW1 1349   2.503   2.815   2.287  0.6888 -0.8759  0.0096
  450SOL    HW2 1350   2.611   2.692   2.248  0.0314 -1.6503  0.3340
  451SOL     OW 1351   2.545   1.103   2.848 -0.2185  0.0569 -0.4820
  451SOL    HW1 1352   2.634   1.115   2.906  0.3736 -1.3921  1.2057
  451SOL    HW2 1353   2.468   1.167   2.884 -5.6423  2.4096  1.3393
  452SOL     OW 1354   1.690   1.038   1.105 -0.3054 -0.3196 -0.1293
  452SOL    HW1 1355   1.746   1.053   1.191  1.0379  3.4817 -0.9921
  452SOL    HW2 1356   1.613   1.103   1.095  2.7024 -0.1062 -1.3888
  453SOL     OW 1357   2.139   0.632   1.467 -0.6573  0.5816  0.0152
  453SOL    HW1 1358   2.126   0.721   1.514 -1.9063 -1.3977 -0.5344
  453SOL    HW2 1359   2.163   0.639   1.367 -0.4514 -2.0361  0.7565
  454SOL     OW 1360   2.662   1.357   2.741 -0.5697 -0.1843 -0.3476
  454SOL    HW1 1361   2.687   1.326   2.643  3.1182 -5.9991 -0.5702
  454SOL    HW2 1362   2.651   1.270   2.793 -0.4324 -0.3579  3.5493
  455SOL     OW 1363   2.507   1.637   1.556  0.0044 -0.1448  0.0619
  455SOL    HW1 1364   2.497   1.541   1.520  2.5155 -0.3678  1.3374
  455SOL    HW2 1365   2.447   1.696   1.503 -1.3593 -0.2380 -0.0994
  456SOL     OW 1366   1.203   2.876   1.658  0.1929 -0.1442  0.0091
  456SOL    HW1 1367   1.173   2.970   1.638 -0.0464  1.1962  1.2695
  456SOL    HW2 1368   1.295   2.861   1.615  0.7371  0.6160 -0.1649
  457SOL     OW 1369   1.632   2.792   0.936 -0.7389  0.5684 -0.3025
  457SOL    HW1 1370   1.620   2.718   1.005 -0.0935 -1.9367 -0.0025
  457SOL    HW2 1371   1.624   2.883   0.980  0.5510 -0.9239 -0.6136
  458SOL     OW 1372   2.744   0.164   0.634 -0.0837  0.8003 -0.0382
  458SOL    HW1 1373   2.676   0.205   0.566  1.3651 -2.2215  3.6388
  458SOL    HW2 1374   2.704   0.079   0.665  1.7554  1.4399 -0.8630
  459SOL     OW 1375   1.479   1.205   0.144  0.3452  0.1398 -1.0096
  459SOL    HW1 1376   1.435   1.148   0.216  3.0262  0.3236  0.8973
  459SOL    HW2 1377   1.536   1.148   0.079 -1.2942 -0.3401  0.7408
  460SOL     OW 1378   0.329   2.596   2.661  0.5916 -0.8729  0.5040
  460SOL    HW1 1379   0.273   2.583   2.749  2.1688 -0.3583  0.8776
  460SOL    HW2 1380   0.278   2.550   2.586  0.9109  1.0750 -1.2601
  461SOL     OW 1381   0.657   1.516   0.157  0.1368  0.4172 -0.4023
  461SOL    HW1 1382   0.745   1.497   0.206  0.8364  1.3818  2.1381
  461SOL    HW2 1383   0.666   1.608   0.109  0.1412  2.4229 -1.8009
  462SOL     OW 1384   2.067   2.047   0.698 -0.1680 -0.2632 -0.0860
  462SOL    HW1 1385   2.112   2.043   0.794 -1.6189 -0.8865  1.3953
  462SOL    HW2 1386   1.967   2.045   0.707  0.1621  0.6449  0.0616
  463SOL     OW 1387   2.786   0.464   0.477  0.7518  0.4140 -0.6758
  463SOL    HW1 1388   2.887   0.462   0.507  4.0249 -1.5408  0.0192
  463SOL    HW2 1389   2.757   0.385   0.416  2.6382 -1.0029  0.0011
  464SOL     OW 1390   0.762   2.283   0.583  0.3451 -0.2057  0.0457
  464SOL    HW1 1391   0.833   2.288   0.507 -0.0663  2.8845  0.5948
  464SOL    HW2 1392   0.730   2.187   0.589  0.9507 -0.9540  2.6287
  465SOL     OW 1393   2.127   0.358   1.125 -0.6819 -0.6299  0.3152
  465SOL    HW1 1394   2.026   0.365   1.127 -1.9077 -3.3255  2.1313
  465SOL    HW2 1395   2.148   0.274   1.081 -0.3238  3.0398  0.0641
  466SOL     OW 1396   2.104   0.112   0.481 -0.2144 -0.2063  0.1579
  466SOL    HW1 1397   2.109   0.042   0.407  0.9243  0.7960 -1.1078
  466SOL    HW2 1398   2.014   0.130   0.520  0.6145 -0.6061  0.0733
  467SOL     OW 1399   1.303   0.540   2.043  0.0758 -0.0107  0.0063
  467SOL    HW1 1400   1.298   0.593   2.125  1.8584  3.3221 -2.0850
  467SOL    HW2 1401   1.377   0.471   2.047 -1.5715  1.1813 -1.4227
  468SOL     OW 1402   2.746   0.318   1.881  0.0158 -0.2907  0.0644
  468SOL    HW1 1403   2.684   0.348   1.804 -2.5573 -0.6740 -1.3156
  468SOL    HW2 1404   2.721   0.380   1.959 -1.9073  1.9377 -0.5911
  469SOL     OW 1405   0.982   2.097   1.862  0.7751 -0.3190  0.5494
  469SOL    HW1 1406   1.027   2.035   1.926  0.5620  0.2619 -0.4476
  469SOL    HW2 1407   0.976   2.049   1.769  0.3801 -1.8846 -0.3600
  470SOL     OW 1408   2.110   1.201   2.026 -0.2569  0.6199  0.6096
  470SOL    HW1 1409   2.165   1.155   1.957 -1.5980  0.5426  2.1907
  470SOL    HW2 1410   2.029   1.142   2.051 -1.2141 -1.9756 -0.2222
  471SOL     OW 1411   2.799   1.539   2.868  0.1406 -0.5310  1.1608
  471SOL    HW1 1412   2.737   1.466   2.827  1.6645 -0.4636 -0.2219
  471SOL    HW2 1413   2.756   1.601   2.932 -0.0295 -1.0000  1.9286
  472SOL     OW 1414   0.571   2.478   0.552  0.3672  0.0990 -0.2222
  472SOL    HW1 1415   0.495   2.452   0.616 -1.8627  2.8903 -1.6826
  472SOL    HW2 1416   0.650   2.416   0.566 -1.5513  0.1568  1.0776
  473SOL     OW 1417   1.272   2.089   2.185 -0.0683  0.4355 -0.0895
  473SOL    HW1 1418   1.347   2.102   2.120 -0.5903  1.1310 -1.6553
  473SOL    HW2 1419   1.296   2.133   2.276  1.0502 -1.0836  0.4532
  474SOL     OW 1420   1.073   0.038   2.476  0.9996 -0.3778 -0.6201
  474SOL    HW1 1421   0.975   0.049   2.498  0.7110 -1.1082 -1.9743
  474SOL    HW2 1422   1.110   3.026   2.514  1.9232 -1.0212  1.1847
  475SOL     OW 1423   0.923   2.268   0.326 -0.0709  0.2432 -0.1340
  475SOL    HW1 1424   0.987   2.345   0.332 -0.7528  0.1652  0.7070
  475SOL    HW2 1425   0.969   2.177   0.325 -2.5798  0.7287 -0.6149
  476SOL     OW 1426   0.542   0.616   1.090  0.5419  0.1746  0.1924
  476SOL    HW1 1427   0.610   0.674   1.141  1.2639  0.9321  2.8375
  476SOL    HW2 1428   0.573   0.578   1.002 -2.2411  0.3452 -1.2782
  477SOL     OW 1429   1.990   2.101   1.213  0.4958 -0.8026 -0.0796
  477SOL    HW1 1430   2.024   2.028   1.151 -1.6824  1.6670 -0.1861
  477SOL    HW2 1431   1.972   2.189   1.170  1.2705  0.1912  2.1680
  478SOL     OW 1432   2.675   0.729   0.017 -0.0616 -0.1448  0.1040
  478SOL    HW1 1433   2.650   0.746   0.113  0.8133 -2.0257  0.2374
  478SOL    HW2 1434   2.713   0.631   0.005  2.2679 -0.7003  1.6234
  479SOL     OW 1435   0.604   3.016   0.920  0.2146  0.1409  0.1820
  479SOL    HW1 1436   0.557   3.055   1.005  1.2450  1.5199  0.6719
  479SOL    HW2 1437   0.707   3.010   0.929  2.3747 -0.6297 -0.1044
  480SOL     OW 1438   2.431   2.428   0.401 -0.5752  0.0478 -0.4504
  480SOL    HW1 1439   2.478   2.340   0.416  1.3558 -0.6211 -0.3239
  480SOL    HW2 1440   2.456   2.485   0.479  2.5146 -0.0698  1.4154
  481SOL     OW 1441   2.863   0.466   1.231 -0.1233  0.1205  0.3698
  481SOL    HW1 1442   2.862   0.399   1.151  0.2870 -2.4072 -0.0589
  481SOL    HW2 1443   2.894   0.420   1.316 -2.5317 -1.5716 -0.9171
  482SOL     OW 1444   0.873   2.963   0.927 -0.2134  0.0265 -0.3693
  482SOL    HW1 1445   0.892   2.961   0.826  1.7428  0.5105 -2.7954
  482SOL    HW2 1446   0.928   3.033   0.976  3.1332  1.8908  1.6790
  483SOL     OW 1447   3.011   1.388   2.963 -0.2831  0.1449 -0.1613
  483SOL    HW1 1448   2.932   1.450   2.958 -0.0732 -0.1609 -1.0221
  483SOL    HW2 1449   0.001   1.410   2.894  1.5042  0.1120 -1.0931
  484SOL     OW 1450   1.759   1.601   1.915  0.4487  0.1208  0.1390
  484SOL    HW1 1451   1.784   1.694   1.948  2.7352 -1.7027 -0.8005
  484SOL    HW2 1452   1.695   1.554   1.982  2.4298 -0.8829  2.9527
  485SOL     OW 1453   0.356   0.159   2.431  0.2110 -0.0491 -0.1686
  485SOL    HW1 1454   0.422   0.230   2.462 -1.9318 -0.4245 -1.4666
  485SOL    HW2 1455   0.261   0.191   2.452  0.0210  1.6646 -1.2304
  486SOL     OW 1456   1.455   3.065   0.589 -0.2309 -0.0126  0.7876
  486SOL    HW1 1457   1.551   3.026   0.582  0.6315  0.1897  0.8662
  486SOL    HW2 1458   1.423   0.037   0.504  2.5164 -0.1219 -3.1198
  487SOL     OW 1459   1.629   0.204   0.686 -0.2688  0.3986  0.2642
  487SOL    HW1 1460   1.713   0.197   0.749  0.6144  0.7747  2.1411
  487SOL    HW2 1461   1.573   0.122   0.678  1.8672  0.6490  0.5675
  488SOL     OW 1462   2.171   0.754   0.867  0.1660  0.2381  0.0463
  488SOL    HW1 1463   2.128   0.801   0.784  1.2998  0.5245  1.3086
  488SOL    HW2 1464   2.102   0.752   0.941  0.9234 -1.3392 -0.3262
  489SOL     OW 1465   1.049   3.036   1.301  0.1757  0.3998 -0.8409
  489SOL    HW1 1466   1.132   2.974   1.305  4.1683 -2.2200 -0.1460
  489SOL    HW2 1467   1.037   3.077   1.211  3.3759  1.1124  1.8422
  490SOL     OW 1468   1.060   0.769   0.471 -0.2983  0.6808  0.1416
  490SOL    HW1 1469   1.007   0.746   0.383  0.3490  0.2524 -1.4314
  490SOL    HW2 1470   1.024   0.853   0.510 -1.8616  0.0873 -3.1768
  491SOL     OW 1471   1.143   2.828   0.322 -0.0143 -0.0933 -0.0261
  491SOL    HW1 1472   1.210   2.894   0.274 -0.3972  2.9348  3.3171
  491SOL    HW2 1473   1.164   2.728   0.308  0.1316 -1.2376 -1.0368
  492SOL     OW 1474   1.028   1.327   1.546  0.0887  0.2542 -0.3504
  492SOL    HW1 1475   1.057   1.401   1.610 -0.2066  0.6678 -0.3780
  492SOL    HW2 1476   1.022   1.238   1.597  0.6942 -1.1830  1.4901
  493SOL     OW 1477   0.303   1.649   0.315  0.1012  0.2559  0.0541
  493SOL    HW1 1478   0.255   1.679   0.398  0.0754  0.8255 -2.2394
  493SOL    HW2 1479   0.364   1.568   0.329 -0.0675 -0.1897 -1.0486
  494SOL     OW 1480   1.882   1.862   0.178 -0.0531 -0.7234  0.0101
  494SOL    HW1 1481   1.900   1.881   0.277 -0.8907  0.0074  0.3178
  494SOL    HW2 1482   1.782   1.849   0.156  0.0925 -0.6936 -0.0289
  495SOL     OW 1483   0.341   1.086   2.557 -0.3668  0.4886 -0.1674
  495SOL    HW1 1484   0.302   1.008   2.612 -1.3494 -0.0172 -0.6593
  495SOL    HW2 1485   0.339   1.061   2.458 -2.1165 -1.0294 -1.6018
  496SOL     OW 1486   0.521   0.030   2.244  0.0403  0.2799  0.2271
  496SOL    HW1 1487   0.452   0.088   2.293 -3.1279  0.6660 -1.9642
  496SOL    HW2 1488   0.534   3.018   2.294 -0.2376 -2.6416  0.9188
  497SOL     OW 1489   1.603   1.290   0.514 -0.3953  0.5453  0.3350
  497SOL    HW1 1490   1.583   1.382   0.484 -1.2202 -0.0532  0.0779
  497SOL    HW2 1491   1.698   1.263   0.498 -0.8404 -1.9038  1.6015
  498SOL     OW 1492   2.851   2.885   0.260  0.0931  0.7790  0.4368
  498SOL    HW1 1493   2.876   2.785   0.263 -2.2284 -1.0890  0.6620
  498SOL    HW2 1494   2.756   2.896   0.295  1.9676 -2.9535 -0.5429
  499SOL     OW 1495   1.869   2.466   0.526 -0.2795 -0.1154  0.0422
  499SOL    HW1 1496   1.875   2.563   0.489  0.3363 -1.9600 -0.8547
  499SOL    HW2 1497   1.948   2.419   0.496 -2.9669  0.8360  0.9944
  500SOL     OW 1498   0.463   0.551   2.864  0.0821 -0.0567 -0.2362
  500SOL    HW1 1499   0.495   0.635   2.812 -0.7915 -1.5298  1.8990
  500SOL    HW2 1500   0.536   0.479   2.876 -0.1497  0.9868 -0.0262
  501SOL     OW 1501   1.486   2.886   1.591  0.0593 -0.4591 -0.0115
  501SOL    HW1 1502   1.526   2.893   1.683 -0.7794 -1.6470 -1.9018
  501SOL    HW2 1503   1.546   2.839   1.525  0.0835 -1.1269  1.7448
  502SOL     OW 1504   0.168   0.062   2.152  0.1605  0.7632  0.2821
  502SOL    HW1 1505   0.194   3.054   2.195  2.1170  2.4327 -1.9673
  502SOL    HW2 1506   0.166   0.054   2.053  2.5533  3.1578  1.0879
  503SOL     OW 1507   1.710   2.249   2.156 -0.4273  0.0999  0.3002
  503SOL    HW1 1508   1.757   2.330   2.120  0.6101 -1.7565  0.3746
  503SOL    HW2 1509   1.769   2.168   2.146 -0.9763 -0.0189 -0.0219
  504SOL     OW 1510   2.085   0.184   1.712 -0.2524  0.0164 -0.1699
  504SOL    HW1 1511   2.083   0.229   1.620 -1.8724 -0.6215  0.0222
  504SOL    HW2 1512   1.988   0.150   1.732  0.2717  0.0463  1.1447
  505SOL     OW 1513   2.772   1.681   1.622 -0.3280  0.5004  0.1515
  505SOL    HW1 1514   2.807   1.664   1.529 -0.6973  0.5986 -0.4732
  505SOL    HW2 1515   2.670   1.679   1.615  0.2532  1.3384  1.3254
  506SOL     OW 1516   0.260   1.389   2.259  0.1354  0.0104 -0.5210
  506SOL    HW1 1517   0.289   1.457   2.329  0.9799  1.0103 -0.3759
  506SOL    HW2 1518   0.186   1.327   2.297 -0.9344 -0.6921  0.4550
  507SOL     OW 1519   0.283   2.932   1.304  0.3673 -0.5855  0.4343
  507SOL    HW1 1520   0.331   2.954   1.219 -0.2798 -0.5342  0.9958
  507SOL    HW2 1521   0.260   3.015   1.356  1.8986  0.8881 -1.1753
  508SOL     OW 1522   0.983   0.602   1.540  0.3580 -0.3215  0.1662
  508SOL    HW1 1523   0.990   0.606   1.438 -1.8928  2.7339  1.6097
  508SOL    HW2 1524   0.998   0.509   1.578  1.0038 -2.0015  1.6659
  509SOL     OW 1525   1.717   2.410   1.760  0.1439  0.0759 -0.3063
  509SOL    HW1 1526   1.710   2.504   1.715  0.4936  0.4252 -0.6072
  509SOL    HW2 1527   1.660   2.412   1.848 -0.0064  1.1577  1.0236
  510SOL     OW 1528   2.395   1.318   2.943  0.1154  0.3573 -0.1322
  510SOL    HW1 1529   2.481   1.369   2.945 -0.5181  0.6222 -1.5927
  510SOL    HW2 1530   2.321   1.376   2.900  1.1776  1.5518  0.7163
  511SOL     OW 1531   0.481   1.373   1.372 -0.0033 -0.1247 -0.1900
  511SOL    HW1 1532   0.414   1.442   1.335 -2.2257 -2.3025 -0.2429
  511SOL    HW2 1533   0.578   1.409   1.369 -0.5249  0.3557  0.8988
  512SOL     OW 1534   2.636   1.836   0.198  0.2262 -0.3478  0.3457
  512SOL    HW1 1535   2.624   1.940   0.188 -1.1078  1.0202  0.0785
  512SOL    HW2 1536   2.720   1.793   0.160  2.3514  0.2202  0.5674
  513SOL     OW 1537   0.778   1.866   2.327  0.1388  0.4501 -0.2599
  513SOL    HW1 1538   0.866   1.844   2.286  0.0442  1.0461  0.4198
  513SOL    HW2 1539   0.722   1.785   2.332  0.1237  1.2188 -1.3084
  514SOL     OW 1540   0.249   2.194   1.875 -0.1067  0.0140 -0.4640
  514SOL    HW1 1541   0.212   2.129   1.949  0.5093 -0.2867  1.5640
  514SOL    HW2 1542   0.180   2.256   1.840  0.8296 -2.9520  0.3835
  515SOL     OW 1543   2.012   1.307   1.687  0.1317 -0.4561  0.1552
  515SOL    HW1 1544   2.108   1.274   1.694 -0.2530  1.8251  1.6358
  515SOL    HW2 1545   1.954   1.258   1.755  0.6701 -2.4951  0.0868
  516SOL     OW 1546   2.290   2.641   0.317  0.0975 -0.4361 -0.2088
  516SOL    HW1 1547   2.366   2.685   0.267  0.1435  2.3309 -1.2303
  516SOL    HW2 1548   2.313   2.545   0.335 -0.2614 -1.5072  0.0868
  517SOL     OW 1549   0.898   1.588   0.320  0.4440 -0.2826 -0.3991
  517SOL    HW1 1550   0.987   1.601   0.268  2.4121 -0.8738  2.5529
  517SOL    HW2 1551   0.913   1.509   0.382  2.4544 -3.7244  0.3787
  518SOL     OW 1552   1.883   2.781   1.502 -0.1829 -0.6383  0.2355
  518SOL    HW1 1553   1.816   2.809   1.434  0.4196  0.0851 -0.5586
  518SOL    HW2 1554   1.957   2.730   1.461 -0.4196  0.5695  2.4210
  519SOL     OW 1555   2.132   2.551   1.157 -0.2538  0.0551  0.2625
  519SOL    HW1 1556   2.109   2.643   1.120  2.2932  0.9938 -1.1384
  519SOL    HW2 1557   2.185   2.491   1.087  2.2815  1.3258 -3.1743
  520SOL     OW 1558   3.031   2.200   2.140 -0.3548 -0.0740 -0.1444
  520SOL    HW1 1559   2.997   2.119   2.199 -2.7073 -2.3771  2.2186
  520SOL    HW2 1560   2.956   2.244   2.081 -0.0287  3.2003 -1.9482
  521SOL     OW 1561   2.710   0.836   2.523 -0.7586 -0.0957  0.3776
  521SOL    HW1 1562   2.685   0.874   2.614 -0.7852 -1.3109  0.8387
  521SOL    HW2 1563   2.636   0.855   2.459 -1.1045  0.1869  1.9574
  522SOL     OW 1564   0.819   0.804   2.416 -0.1855  0.0696  0.5780
  522SOL    HW1 1565   0.920   0.808   2.431 -2.1069  1.5998  0.8018
  522SOL    HW2 1566   0.799   0.789   2.318 -2.4179  1.3586  1.2773
  523SOL     OW 1567   0.086   2.106   0.839 -0.6896  0.3088  0.6448
  523SOL    HW1 1568   0.149   2.036   0.876 -0.1050  1.8383 -2.9403
  523SOL    HW2 1569   0.048   2.163   0.918  0.4183  0.1776  0.6400
  524SOL     OW 1570   1.986   2.864   3.035  0.2734 -0.0053  0.2637
  524SOL    HW1 1571   2.047   2.810   0.010 -3.4467  4.3553 -1.3675
  524SOL    HW2 1572   2.043   2.899   2.955 -1.7710  2.1461  0.3538
  525SOL     OW 1573   2.443   0.490   1.344  0.1843 -0.4486 -0.1255
  525SOL    HW1 1574   2.537   0.506   1.303 -1.4736 -1.1425  0.0228
  525SOL    HW2 1575   2.424   0.393   1.348 -0.0499  2.6444 -1.8300
  526SOL     OW 1576   0.986   2.571   0.652  0.6515 -0.6016 -0.2223
  526SOL    HW1 1577   0.910   2.528   0.698  1.9205  2.5579 -0.5862
  526SOL    HW2 1578   0.953   2.662   0.631  1.3812  0.2417  1.2053
  527SOL     OW 1579   2.171   2.837   0.455 -0.1269  0.2136  0.3377
  527SOL    HW1 1580   2.216   2.853   0.546 -0.8294 -2.2271 -0.8748
  527SOL    HW2 1581   2.234   2.773   0.405 -0.3166  0.3830 -0.0777
  528SOL     OW 1582   1.578   0.912   0.264 -0.1486  0.8899  0.1242
  528SOL    HW1 1583   1.677   0.926   0.230  2.6384  1.6125 -0.0333
  528SOL    HW2 1584   1.516   0.876   0.191  0.3768 -2.1408  0.1486
  529SOL     OW 1585   1.320   1.567   2.373  0.1269 -0.9833  0.4044
  529SOL    HW1 1586   1.362   1.537   2.465 -1.1146  1.9883  0.4021
  529SOL    HW2 1587   1.223   1.591   2.391 -1.3349 -1.1353 -1.7410
  530SOL     OW 1588   2.179   0.110   0.123  0.3664  0.8993  0.1787
  530SOL    HW1 1589   2.089   0.103   0.168  2.1857 -1.9716  0.0937
  530SOL    HW2 1590   2.167   0.110   0.021 -1.9963 -0.2632 -1.1917
  531SOL     OW 1591   1.600   1.055   3.017 -0.3069  0.1088  0.4623
  531SOL    HW1 1592   1.647   1.103   2.942 -2.3107 -1.5606  1.3780
  531SOL    HW2 1593   1.565   0.960   2.991 -0.9116  0.2587  0.8256
  532SOL     OW 1594   1.570   0.427   0.821  0.2491 -0.0131 -0.2920
  532SOL    HW1 1595   1.582   0.343   0.765  0.7615 -1.1640  0.1031
  532SOL    HW2 1596   1.667   0.465   0.830  3.8158 -1.3729 -1.2485
  533SOL     OW 1597   0.520   0.771   2.716  0.7524 -1.3726 -0.5547
  533SOL    HW1 1598   0.556   0.778   2.618  1.9619 -0.4059  2.0213
  533SOL    HW2 1599   0.435   0.827   2.736 -0.1869  1.7605 -1.6982
  534SOL     OW 1600   1.400   0.272   0.029 -0.4251 -0.3325 -0.1835
  534SOL    HW1 1601   1.397   0.270   0.129  2.1373 -0.9105 -2.0495
  534SOL    HW2 1602   1.450   0.190   3.075  0.3469  0.8336  1.9188
  535SOL     OW 1603   0.433   2.506   2.970 -0.7309  0.4128  0.3148
  535SOL    HW1 1604   0.384   2.468   3.047 -1.2395  2.9394 -1.9758
  535SOL    HW2 1605   0.422   2.450   2.884  1.4550 -0.3556 -0.3809
  536SOL     OW 1606   0.428   2.924   0.470  0.4300 -0.0292 -0.2859
  536SOL    HW1 1607   0.463   3.011   0.512  1.5051 -0.1270  2.0240
  536SOL    HW2 1608   0.490   2.843   0.477 -0.1290  0.1271 -0.6716
  537SOL     OW 1609   1.606   0.533   0.190 -0.1373  0.2329 -0.5396
  537SOL    HW1 1610   1.538   0.603   0.184  3.6523 -2.4344 -2.3099
  537SOL    HW2 1611   1.603   0.473   0.274  0.8675  1.8390  0.0680
  538SOL     OW 1612   2.764   2.003   2.941  0.2296  0.1590  0.2052
  538SOL    HW1 1613   2.845   1.938   2.940 -1.4936  1.1967  0.4960
  538SOL    HW2 1614   2.673   1.953   2.925 -0.9028  1.1340 -0.7718
  539SOL     OW 1615   2.288   1.868   2.983  0.2846  0.0978 -0.1301
  539SOL    HW1 1616   2.227   1.796   2.943  2.0447 -0.3480 -0.4438
  539SOL    HW2 1617   2.258   1.888   0.003  1.5096  0.0072  2.6855
  540SOL     OW 1618   1.002   2.841   1.954 -0.1346  0.2752  1.1967
  540SOL    HW1 1619   1.065   2.769   1.915  1.5326 -0.7481  1.5069
  540SOL    HW2 1620   0.909   2.801   1.976 -1.3523  1.0084  0.2065
  541SOL     OW 1621   2.535   0.178   2.103  0.1898 -0.5112 -0.3412
  541SOL    HW1 1622   2.581   0.270   2.093 -0.9309  0.1760  1.4931
  541SOL    HW2 1623   2.434   0.177   2.085 -0.9174 -3.4528  2.4444
  542SOL     OW 1624   0.257   0.889   2.720  0.2017  0.5965 -0.3797
  542SOL    HW1 1625   0.238   0.942   2.805  2.2426  0.4763 -0.4118
  542SOL    HW2 1626   0.191   0.805   2.717 -1.8953 -1.8251 -0.9024
  543SOL     OW 1627   0.132   0.811   0.855  0.3633  0.6220 -0.5309
  543SOL    HW1 1628   0.197   0.804   0.932  1.8773 -0.3335 -2.5809
  543SOL    HW2 1629   0.135   0.724   0.803 -0.0259  1.0005  0.1676
  544SOL     OW 1630   2.681   0.644   1.289 -0.3262 -0.4199 -0.0310
  544SOL    HW1 1631   2.758   0.583   1.265 -1.7609  0.7461 -0.9694
  544SOL    HW2 1632   2.696   0.680   1.382  2.2572  1.8953 -0.0675
  545SOL     OW 1633   1.359   1.967   0.510 -0.1749  0.0707  0.3761
  545SOL    HW1 1634   1.268   2.009   0.486 -0.1412 -2.5590  1.8642
  545SOL    HW2 1635   1.377   1.993   0.608 -0.0363 -1.9331  0.6571
  546SOL     OW 1636   2.313   2.824   1.511 -0.0840 -0.6042 -0.4159
  546SOL    HW1 1637   2.240   2.754   1.504  0.9600  0.7572  0.3264
  546SOL    HW2 1638   2.380   2.806   1.434  1.4333 -0.7508 -1.0470
  547SOL     OW 1639   0.603   2.285   2.202  0.6786 -0.0555 -0.7960
  547SOL    HW1 1640   0.618   2.190   2.183 -1.6367  1.2875  0.0692
  547SOL    HW2 1641   0.542   2.322   2.130  0.9626 -1.7643 -1.1499
  548SOL     OW 1642   1.204   0.736   2.988  0.0536  0.0996 -0.5649
  548SOL    HW1 1643   1.231   0.639   2.995 -2.3230 -1.1794 -1.2656
  548SOL    HW2 1644   1.134   0.751   2.915 -1.6328 -0.9808  0.8977
  549SOL     OW 1645   2.656   0.765   0.311 -0.2159 -0.9156  0.1113
  549SOL    HW1 1646   2.624   0.678   0.356 -1.3502 -2.2629  2.4200
  549SOL    HW2 1647   2.690   0.833   0.379 -1.3384  0.6474 -0.0188
  550SOL     OW 1648   2.099   1.559   0.663 -0.3026  0.3079  0.3222
  550SOL    HW1 1649   2.123   1.641   0.604  4.3709  1.6096 -2.2723
  550SOL    HW2 1650   2.073   1.485   0.600  1.3834 -0.7011 -0.9464
  551SOL     OW 1651   1.187   0.187   0.879  0.5915  0.3076 -0.1860
  551SOL    HW1 1652   1.280   0.220   0.910  3.2599  0.0107  0.3210
  551SOL    HW2 1653   1.158   0.221   0.788 -2.8220  0.3522 -2.8831
  552SOL     OW 1654   2.359   2.913   2.249  0.4557 -0.1620  0.4959
  552SOL    HW1 1655   2.275   2.849   2.247 -0.5936  1.6306  1.0922
  552SOL    HW2 1656   2.345   2.997   2.304  0.3811 -1.5758  1.4992
  553SOL     OW 1657   0.523   2.862   2.369 -0.5217 -0.5628 -0.5016
  553SOL    HW1 1658   0.581   2.791   2.328 -0.1116  2.1770  0.4556
  553SOL    HW2 1659   0.543   2.865   2.471  2.8260  0.2934 -0.2772
  554SOL     OW 1660   0.448   3.069   1.155 -0.1153  0.0213 -0.2506
  554SOL    HW1 1661   0.437   0.069   1.218  0.4753 -1.1263 -1.0122
  554SOL    HW2 1662   0.523   2.995   1.183  1.4228 -1.5406  0.3821
  555SOL     OW 1663   2.673   1.988   2.184 -0.2304 -0.4050 -0.2725
  555SOL    HW1 1664   2.601   1.994   2.114 -0.0543 -0.5907  0.1654
  555SOL    HW2 1665   2.637   2.027   2.274 -0.2563 -1.3347 -0.8059
  556SOL     OW 1666   1.023   0.354   3.005 -0.2880  0.1165 -0.5068
  556SOL    HW1 1667   0.931   0.389   3.025 -1.6482 -2.0549 -3.3258
  556SOL    HW2 1668   1.016   0.270   2.944 -1.2266  0.0830  0.2750
  557SOL     OW 1669   0.348   1.967   2.447  0.1884 -0.7100 -0.1422
  557SOL    HW1 1670   0.393   2.060   2.444  1.2166  2.8008 -1.6804
  557SOL    HW2 1671   0.341   1.927   2.350 -0.1705  2.2813  0.4356
  558SOL     OW 1672   2.165   0.807   2.874 -0.1561 -0.2455  0.2983
  558SOL    HW1 1673   2.185   0.874   2.795  1.9015  2.1496 -2.4390
  558SOL    HW2 1674   2.234   0.731   2.868 -0.9022  1.0446 -0.9499
  559SOL     OW 1675   2.338   1.784   1.781 -0.4088 -0.3384  0.3402
  559SOL    HW1 1676   2.295   1.728   1.707  0.7877 -0.4938 -1.8543
  559SOL    HW2 1677   2.274   1.799   1.863 -3.7360  3.8239  0.5455
  560SOL     OW 1678   2.166   0.808   1.940  0.1775 -0.0821 -0.1196
  560SOL    HW1 1679   2.233   0.732   1.916  1.2865  0.3923 -1.1465
  560SOL    HW2 1680   2.206   0.901   1.917 -1.4424  1.9032  0.5073
  561SOL     OW 1681   0.100   0.176   2.595  0.1471  0.6661 -0.4099
  561SOL    HW1 1682   0.031   0.134   2.533  4.2456  1.0127  0.9256
  561SOL    HW2 1683   0.078   0.165   2.696  1.1441 -0.4356  4.2827
  562SOL     OW 1684   1.191   1.112   1.366 -0.2220  0.1797  0.2609
  562SOL    HW1 1685   1.169   1.172   1.442 -1.6920  0.7410 -2.3384
  562SOL    HW2 1686   1.124   1.033   1.372  0.6588 -0.6915  1.2607
  563SOL     OW 1687   1.039   0.164   2.812 -0.4194  0.7720 -0.1808
  563SOL    HW1 1688   1.076   0.076   2.850 -1.2672  4.1039  0.3980
  563SOL    HW2 1689   1.110   0.202   2.752 -0.1249 -0.1644  2.4619
  564SOL     OW 1690   2.927   2.040   0.712  0.2322 -0.0616 -0.1026
  564SOL    HW1 1691   3.029   2.036   0.728  1.3558  0.7488  1.3154
  564SOL    HW2 1692   2.886   2.091   0.788  1.3999  1.2234 -0.6087
  565SOL     OW 1693   0.425   1.950   1.117  0.1092  0.5189 -0.5009
  565SOL    HW1 1694   0.412   1.924   1.217 -2.1333  0.5931  1.0682
  565SOL    HW2 1695   0.406   2.047   1.101  0.7110 -0.8494  2.1010
  566SOL     OW 1696   1.439   2.620   2.190 -0.0228 -0.3433  0.3009
  566SOL    HW1 1697   1.405   2.666   2.106  1.5670 -1.3191 -2.3645
  566SOL    HW2 1698   1.363   2.599   2.252  1.4442  1.8756  0.9693
  567SOL     OW 1699   2.294   2.884   0.714 -0.0106 -0.1599  0.3261
  567SOL    HW1 1700   2.313   2.872   0.812  0.4449 -0.2332  2.2217
  567SOL    HW2 1701   2.340   2.961   0.677 -0.8043  0.3971  1.0133
  568SOL     OW 1702   1.598   1.237   0.799 -0.7179 -0.0147  0.0888
  568SOL    HW1 1703   1.528   1.183   0.843 -0.0851  1.2391 -0.1125
  568SOL    HW2 1704   1.577   1.274   0.705 -0.0551  0.9593 -1.2747
  569SOL     OW 1705   2.953   1.504   2.549  0.3733  0.5608 -0.6977
  569SOL    HW1 1706   2.874   1.566   2.552  1.9792  1.7539 -1.0009
  569SOL    HW2 1707   2.935   1.418   2.606 -1.1479 -2.3252  0.1250
  570SOL     OW 1708   3.069   0.062   1.663  0.5599 -0.0178 -0.3543
  570SOL    HW1 1709   0.050   0.093   1.588 -3.2785 -0.8241 -0.2806
  570SOL    HW2 1710   3.036   3.046   1.642 -0.9226  1.2599  0.1707
  571SOL     OW 1711   0.382   0.176   1.789 -0.1004 -0.0154 -0.7046
  571SOL    HW1 1712   0.461   0.175   1.844 -1.5750  0.3345  0.3353
  571SOL    HW2 1713   0.402   0.238   1.712 -0.3772 -2.7126  2.2751
  572SOL     OW 1714   2.926   2.646   1.400  0.5070  0.1077  0.2061
  572SOL    HW1 1715   3.013   2.609   1.358  2.4492  0.3627  1.2968
  572SOL    HW2 1716   2.891   2.581   1.470 -2.0508 -1.3599 -0.6958
  573SOL     OW 1717   0.980   0.722   0.200  0.0366  0.1984 -0.0179
  573SOL    HW1 1718   0.957   0.755   0.107 -1.7994  0.5233  1.9778
  573SOL    HW2 1719   1.023   0.628   0.196  0.7143  1.2243 -1.1860
  574SOL     OW 1720   2.225   3.029   2.900  0.6533  0.2341 -0.5837
  574SOL    HW1 1721   2.157   0.027   2.906  0.7226  0.5025 -2.5691
  574SOL    HW2 1722   2.233   2.994   2.803  2.5853 -1.1443  2.3896
  575SOL     OW 1723   1.330   2.600   1.360 -0.0067 -0.4463 -0.1791
  575SOL    HW1 1724   1.374   2.582   1.451 -2.3397  1.2703 -2.0842
  575SOL    HW2 1725   1.352   2.529   1.289 -0.9220  2.1726 -0.1350
  576SOL     OW 1726   1.012   0.100   1.084  0.1200  0.4280  0.2873
  576SOL    HW1 1727   1.070   0.122   1.001  3.1581 -2.0075 -1.5205
  576SOL    HW2 1728   0.929   0.152   1.085 -0.6606  1.4685  1.0201
  577SOL     OW 1729   2.269   1.237   0.982  0.8423 -0.8730 -0.2772
  577SOL    HW1 1730   2.282   1.290   0.893 -1.3376  0.2871 -1.2527
  577SOL    HW2 1731   2.212   1.156   0.964 -1.5324 -1.7913  1.6675
  578SOL     OW 1732   1.627   0.411   0.499 -0.4794 -0.5349  0.2261
  578SOL    HW1 1733   1.635   0.335   0.562  0.3834  0.5184 -3.4934
  578SOL    HW2 1734   1.718   0.451   0.471  0.1940  0.2846  2.8503
  579SOL     OW 1735   1.889   0.727   2.865 -0.0908  0.4030  0.0579
  579SOL    HW1 1736   1.987   0.745   2.865  0.6029 -0.7097 -0.7045
  579SOL    HW2 1737   1.853   0.728   2.955 -1.2492  1.9339 -1.9760
  580SOL     OW 1738   1.774   0.758   2.183 -0.1093  0.5589 -0.1102
  580SOL    HW1 1739   1.760   0.708   2.269 -0.3850  0.1347  1.4237
  580SOL    HW2 1740   1.685   0.755   2.129 -1.6365 -1.1897 -0.6679
  581SOL     OW 1741   0.424   0.699   0.737  0.1713  0.1509  0.8574
  581SOL    HW1 1742   0.509   0.639   0.736  2.5414 -1.2809  2.4436
  581SOL    HW2 1743   0.389   0.713   0.642 -2.7874 -0.2690  1.3471
  582SOL     OW 1744   2.829   0.037   1.828 -0.2243 -0.1830 -0.2068
  582SOL    HW1 1745   2.901   0.074   1.759  1.5046  3.1333 -0.0629
  582SOL    HW2 1746   2.758   0.113   1.839 -1.6850  1.0875  0.1193
  583SOL     OW 1747   0.331   0.740   2.385 -0.3479 -0.9608 -0.3145
  583SOL    HW1 1748   0.407   0.810   2.395  1.8661 -0.7828 -2.9040
  583SOL    HW2 1749   0.362   0.644   2.411 -1.9283 -1.2888  2.0226
  584SOL     OW 1750   1.786   2.237   2.971 -0.0411  0.0873 -0.2858
  584SOL    HW1 1751   1.845   2.263   2.891  1.8798 -0.1776 -1.2438
  584SOL    HW2 1752   1.729   2.313   2.998  2.9059  0.4696 -0.9549
  585SOL     OW 1753   0.539   2.145   2.981  0.0419 -0.7582  0.6792
  585SOL    HW1 1754   0.464   2.077   2.978 -1.6844  1.3604  1.0022
  585SOL    HW2 1755   0.501   2.234   3.018  1.1114  0.5489  0.8596
  586SOL     OW 1756   2.058   2.103   2.675  0.6477 -0.1185 -0.0314
  586SOL    HW1 1757   2.150   2.118   2.717  0.6339  0.5442  3.6995
  586SOL    HW2 1758   2.020   2.014   2.698  2.1565  2.6418  1.0026
  587SOL     OW 1759   2.539   1.873   2.898  0.4766  0.5410  0.1690
  587SOL    HW1 1760   2.445   1.865   2.946 -0.1813 -2.1759  1.2732
  587SOL    HW2 1761   2.519   1.877   2.796 -0.5167  0.4694 -0.4827
  588SOL     OW 1762   2.992   0.538   0.841 -0.3994  0.1334  0.1381
  588SOL    HW1 1763   2.940   0.454   0.831 -0.0334 -2.0322  0.6072
  588SOL    HW2 1764   0.013   0.513   0.828  1.5520 -0.6659  2.5585
  589SOL     OW 1765   0.884   0.287   0.269 -0.2937  0.1902 -0.4053
  589SOL    HW1 1766   0.952   0.364   0.275 -1.0648  0.3512 -0.7334
  589SOL    HW2 1767   0.798   0.313   0.225 -0.8677 -3.2531  0.5672
  590SOL     OW 1768   2.085   2.261   0.529  0.4561  0.4130 -0.3951
  590SOL    HW1 1769   2.131   2.244   0.441 -1.7876 -0.6075  2.8707
  590SOL    HW2 1770   2.051   2.172   0.569  0.1684  0.3639 -1.8520
  591SOL     OW 1771   0.310   2.206   1.062 -0.3755  0.2578  0.2784
  591SOL    HW1 1772   0.208   2.222   1.046 -3.9721  1.6253  1.2868
  591SOL    HW2 1773   0.366   2.275   1.015  0.1713 -2.7211 -0.0941
  592SOL     OW 1774   1.391   0.616   1.149 -0.0007 -0.1913 -0.1346
  592SOL    HW1 1775   1.351   0.674   1.075 -1.0299 -1.2499  0.8338
  592SOL    HW2 1776   1.416   0.676   1.229  1.7923  0.6266  0.1020
  593SOL     OW 1777   0.805   2.066   1.387  0.0091  0.1666  0.4588
  593SOL    HW1 1778   0.842   1.977   1.355  0.7729  2.9232  0.3282
  593SOL    HW2 1779   0.705   2.054   1.410 -2.0976  0.7920  0.6790
  594SOL     OW 1780   0.960   1.987   0.282 -0.5195 -0.1419 -0.7165
  594SOL    HW1 1781   0.974   1.921   0.207 -0.6795  0.3640 -0.7085
  594SOL    HW2 1782   0.882   1.948   0.335  0.7455 -0.7458 -0.2528
  595SOL     OW 1783   1.664   0.559   1.517  0.2872  0.0891 -0.2866
  595SOL    HW1 1784   1.675   0.476   1.469 -2.2453  3.1907  1.8924
  595SOL    HW2 1785   1.721   0.556   1.600 -0.1180  1.5672 -3.4833
  596SOL     OW 1786   2.947   0.695   1.743 -0.1179 -0.2774 -0.1521
  596SOL    HW1 1787   3.026   0.693   1.816  3.0545 -1.8177  3.3256
  596SOL    HW2 1788   2.979   0.734   1.656 -3.0424 -1.8061 -0.4542
  597SOL     OW 1789   1.088   2.485   2.155 -0.3460 -0.1072 -0.2283
  597SOL    HW1 1790   1.023   2.459   2.079 -0.1055  1.3004 -2.1440
  597SOL    HW2 1791   1.047   2.552   2.226 -0.2548  2.3751 -0.2433
  598SOL     OW 1792   2.484   1.447   1.842  0.2632  0.5405 -0.1903
  598SOL    HW1 1793   2.522   1.538   1.841  0.4615 -3.2343 -1.6478
  598SOL    HW2 1794   2.553   1.381   1.813 -0.2291 -1.4781  2.0790
  599SOL     OW 1795   0.673   2.857   0.166 -0.1415  0.5998 -0.2633
  599SOL    HW1 1796   0.599   2.785   0.148  1.1100 -0.8783  0.0860
  599SOL    HW2 1797   0.678   2.917   0.087 -1.3377 -0.7444  3.6258
  600SOL     OW 1798   0.236   2.426   0.062  0.2575 -0.2143  0.1558
  600SOL    HW1 1799   0.200   2.492   0.128 -0.9635 -1.1891  0.9700
  600SOL    HW2 1800   0.244   2.333   0.103 -2.2831 -0.2598 -3.1081
  601SOL     OW 1801   0.523   0.653   1.393 -0.0700  0.1190  0.0510
  601SOL    HW1 1802   0.456   0.626   1.319  1.3259 -1.9879  0.4263
  601SOL    HW2 1803   0.482   0.711   1.469 -3.0106  0.8389  0.7030
  602SOL     OW 1804   0.493   0.116   0.759  0.2276 -0.4085  0.5975
  602SOL    HW1 1805   0.520   0.035   0.819  1.4819  0.5692  1.8882
  602SOL    HW2 1806   0.547   0.201   0.780 -0.7570 -1.9492 -0.1311
  603SOL     OW 1807   0.446   0.307   2.651  0.0863 -0.5290 -0.3376
  603SOL    HW1 1808   0.375   0.270   2.716 -1.2425  0.5648 -0.0597
  603SOL    HW2 1809   0.517   0.342   2.713 -1.4620  0.8252 -0.1746
  604SOL     OW 1810   1.003   2.466   1.640  0.8304 -0.3241 -0.2302
  604SOL    HW1 1811   1.080   2.423   1.685 -1.0589  2.3741 -0.5887
  604SOL    HW2 1812   0.963   2.406   1.570 -0.3176 -0.6489  3.4331
  605SOL     OW 1813   1.392   1.246   2.008  0.2530 -0.0576 -0.4615
  605SOL    HW1 1814   1.344   1.320   2.064  3.3381  1.0872 -0.7380
  605SOL    HW2 1815   1.340   1.209   1.928  1.2896 -0.1025  1.8014
  606SOL     OW 1816   1.869   3.010   2.780  0.6911  0.1545  0.0776
  606SOL    HW1 1817   1.930   2.933   2.745  0.6284 -1.8587 -3.2293
  606SOL    HW2 1818   1.930   0.008   2.812  2.8000  1.1768  0.5459
  607SOL     OW 1819   1.041   0.373   1.655  0.2312 -0.4028  0.4689
  607SOL    HW1 1820   1.126   0.392   1.705 -3.8193  2.0270  1.5462
  607SOL    HW2 1821   1.051   0.305   1.582 -1.2470 -0.6699  1.2283
  608SOL     OW 1822   0.217   2.191   2.611 -0.1324  0.4911 -0.1613
  608SOL    HW1 1823   0.237   2.102   2.570 -1.8995 -0.4615  1.6773
  608SOL    HW2 1824   0.307   2.238   2.639  2.8167  1.9664 -0.6599
  609SOL     OW 1825   1.167   1.308   0.405 -0.6112 -0.0045  0.2529
  609SOL    HW1 1826   1.110   1.244   0.348 -1.0083 -0.7563 -2.7452
  609SOL    HW2 1827   1.182   1.398   0.356 -1.1841 -1.9702  0.5092
  610SOL     OW 1828   0.266   0.280   0.948 -0.5878  0.3955  0.2709
  610SOL    HW1 1829   0.325   0.204   0.922 -2.8676 -0.7369  1.5767
  610SOL    HW2 1830   0.308   0.341   1.018  2.4969  1.3712 -1.9050
  611SOL     OW 1831   1.286   1.163   0.617 -0.8764  0.4198 -0.4264
  611SOL    HW1 1832   1.220   1.196   0.544  0.1823  2.6810  0.9614
  611SOL    HW2 1833   1.361   1.111   0.574 -3.0571 -0.3105 -0.1843
  612SOL     OW 1834   1.970   1.623   0.050  0.3145 -0.3094  0.5533
  612SOL    HW1 1835   1.906   1.672   0.110 -2.1414  0.6127  0.4435
  612SOL    HW2 1836   1.923   1.540   0.022  2.9685  2.2883 -1.6150
  613SOL     OW 1837   1.530   1.467   0.161 -0.0819 -0.1872 -0.1686
  613SOL    HW1 1838   1.543   1.512   0.071 -1.5401 -1.7231  1.7369
  613SOL    HW2 1839   1.512   1.366   0.162  0.6111 -0.0479  1.4611
  614SOL     OW 1840   2.762   0.284   2.538 -0.5503 -0.3980 -0.6057
  614SOL    HW1 1841   2.778   0.336   2.449  3.2553  1.5943 -0.2850
  614SOL    HW2 1842   2.835   0.212   2.542  1.9621 -1.3030 -0.3604
  615SOL     OW 1843   0.802   1.682   0.628  0.3872  0.0802  0.5419
  615SOL    HW1 1844   0.896   1.708   0.654  0.4055  2.4227 -0.2136
  615SOL    HW2 1845   0.778   1.744   0.549  1.2382  0.5682 -0.2824
  616SOL     OW 1846   1.565   0.869   2.665  0.3336 -0.1891  0.2436
  616SOL    HW1 1847   1.570   0.968   2.633  0.5440 -0.3609  2.0215
  616SOL    HW2 1848   1.544   0.853   2.763  0.4315 -3.4122 -3.1182
  617SOL     OW 1849   1.396   0.265   0.308  0.2011 -0.0458  0.1137
  617SOL    HW1 1850   1.422   0.359   0.338 -0.3603  0.9975 -1.5158
  617SOL    HW2 1851   1.306   0.239   0.334  2.5431  1.8473 -2.1663
  618SOL     OW 1852   2.941   2.020   2.292  0.5222  0.0475  0.0529
  618SOL    HW1 1853   2.841   2.016   2.271 -0.0564  1.2852 -0.4601
  618SOL    HW2 1854   2.969   1.965   2.372  0.3077 -0.0858  0.7713
  619SOL     OW 1855   2.266   1.735   0.777  0.3724 -0.4005  0.0722
  619SOL    HW1 1856   2.184   1.683   0.746 -0.9725 -1.6081  0.0920
  619SOL    HW2 1857   2.304   1.785   0.696 -0.3039  1.4556  2.2373
  620SOL     OW 1858   2.457   3.046   1.579  0.3093  0.2011  0.0888
  620SOL    HW1 1859   2.417   2.952   1.577 -1.3185  0.5131 -2.7338
  620SOL    HW2 1860   2.541   3.039   1.524  1.3943  0.6418  1.1794
  621SOL     OW 1861   2.847   1.750   0.643  0.4220  0.4756 -0.1419
  621SOL    HW1 1862   2.922   1.688   0.664 -3.5179  0.9376 -2.0556
  621SOL    HW2 1863   2.872   1.846   0.662 -0.5608  0.8545  0.4926
  622SOL     OW 1864   0.588   1.666   2.352 -0.3117  0.4803  0.0906
  622SOL    HW1 1865   0.490   1.661   2.380  1.3558  2.1900 -0.1145
  622SOL    HW2 1866   0.638   1.576   2.365 -0.8935 -0.7058 -0.3863
  623SOL     OW 1867   2.712   2.788   2.805  0.0567  0.0485  0.0876
  623SOL    HW1 1868   2.772   2.716   2.762  1.1517 -1.8299  0.8791
  623SOL    HW2 1869   2.720   2.777   2.906  3.0805 -0.4822 -4.6053
  624SOL     OW 1870   0.751   1.837   0.393  0.4322  0.8177 -0.4512
  624SOL    HW1 1871   0.798   1.759   0.342  0.2710 -0.0999 -2.3194
  624SOL    HW2 1872   0.658   1.856   0.363  0.4427  0.0935  1.0025
  625SOL     OW 1873   0.630   2.020   2.155 -0.3290 -0.0450  0.0693
  625SOL    HW1 1874   0.691   1.971   2.215  0.6807  3.0741 -0.0748
  625SOL    HW2 1875   0.541   1.977   2.158 -0.0349 -1.8990 -1.3456
  626SOL     OW 1876   0.160   2.467   0.443  0.4158 -0.1239  0.0460
  626SOL    HW1 1877   0.139   2.481   0.541 -0.0385  1.0940  0.7289
  626SOL    HW2 1878   0.141   2.367   0.426 -0.5589 -1.7408  0.0384
  627SOL     OW 1879   1.009   1.503   2.812  0.0950 -0.0075  0.1062
  627SOL    HW1 1880   1.084   1.484   2.750 -2.3730  3.0804 -1.1147
  627SOL    HW2 1881   0.917   1.509   2.764 -1.2206  0.7302  2.0971
  628SOL     OW 1882   1.555   2.226   0.699 -0.1814 -0.6409  0.4440
  628SOL    HW1 1883   1.480   2.158   0.701  1.2682 -0.2747 -1.7895
  628SOL    HW2 1884   1.627   2.204   0.769 -1.2795  0.2106  0.2814
  629SOL     OW 1885   0.795   0.361   1.773 -0.3403  0.0784  0.3618
  629SOL    HW1 1886   0.759   0.267   1.774 -0.3803 -1.2704 -1.0458
  629SOL    HW2 1887   0.893   0.361   1.757 -4.0270 -0.0634 -0.1065
  630SOL     OW 1888   2.588   0.344   1.658 -0.0003 -0.3763 -0.2901
  630SOL    HW1 1889   2.520   0.277   1.692  0.7755 -0.6506 -1.0450
  630SOL    HW2 1890   2.544   0.434   1.650 -0.0272  1.1324  2.0317
  631SOL     OW 1891   1.375   0.362   0.989  0.0719  0.2193 -0.3842
  631SOL    HW1 1892   1.457   0.387   0.934 -0.7493  1.6860  0.9095
  631SOL    HW2 1893   1.349   0.426   1.065 -0.0433  0.0863  0.8158
  632SOL     OW 1894   2.766   0.791   1.936  0.3969  0.3707 -0.2575
  632SOL    HW1 1895   2.673   0.754   1.923  1.0053 -1.1695  0.6710
  632SOL    HW2 1896   2.832   0.750   1.869 -0.1445 -1.6451  0.7008
  633SOL     OW 1897   1.344   1.107   2.864  0.2644  0.4531 -0.6613
  633SOL    HW1 1898   1.330   1.167   2.950  0.9218  0.9123  1.3390
  633SOL    HW2 1899   1.380   1.169   2.790  1.8618 -0.6863  0.0314
  634SOL     OW 1900   0.517   2.305   0.161  0.7323  0.1303 -0.2256
  634SOL    HW1 1901   0.469   2.380   0.211 -0.6440 -1.4305 -1.2494
  634SOL    HW2 1902   0.541   2.230   0.223  0.2740  3.5031 -3.1801
  635SOL     OW 1903   2.844   1.488   1.787 -0.1927 -0.0396 -0.2236
  635SOL    HW1 1904   2.785   1.549   1.732 -1.7817  0.3531  0.3187
  635SOL    HW2 1905   2.887   1.521   1.872 -0.7716 -0.0134 -0.3117
  636SOL     OW 1906   0.168   1.690   0.099 -0.3010 -0.3068  0.4521
  636SOL    HW1 1907   0.110   1.613   0.090  0.8530  2.2956  1.2406
  636SOL    HW2 1908   0.236   1.673   0.177  0.0219 -0.4883  0.3371
  637SOL     OW 1909   2.942   2.363   0.632  0.0887 -0.4518 -0.0225
  637SOL    HW1 1910   2.878   2.281   0.636 -2.4630 -0.0225  1.5554
  637SOL    HW2 1911   2.930   2.422   0.551  2.4199  0.4082  1.1626
  638SOL     OW 1912   2.620   2.897   0.397  0.1753 -0.1111 -0.3587
  638SOL    HW1 1913   2.622   2.862   0.493  1.6216 -0.5010  0.2283
  638SOL    HW2 1914   2.570   2.838   0.333  2.1614 -1.1127  1.0237
  639SOL     OW 1915   1.112   0.423   0.273 -0.2401 -0.3007 -0.3188
  639SOL    HW1 1916   1.191   0.405   0.335 -0.4135  1.0239 -0.6105
  639SOL    HW2 1917   1.149   0.433   0.176 -0.2162  0.6929 -1.7749
  640SOL     OW 1918   2.329   2.260   1.589 -0.1288  0.0870  0.5429
  640SOL    HW1 1919   2.357   2.181   1.652 -1.4758 -0.2651 -1.7543
  640SOL    HW2 1920   2.404   2.324   1.573  1.4965  0.3346  2.2739
  641SOL     OW 1921   2.813   3.013   0.999 -0.9657  0.1080  0.1127
  641SOL    HW1 1922   2.867   2.986   0.916 -0.8370  0.3841  0.4285
  641SOL    HW2 1923   2.853   2.982   1.087  1.6157  0.3880  1.0660
  642SOL     OW 1924   1.624   0.848   1.604  0.3351  0.1447  0.3393
  642SOL    HW1 1925   1.660   0.756   1.575 -1.7676 -2.4719  1.1952
  642SOL    HW2 1926   1.666   0.922   1.543 -2.0050 -0.7612  2.0519
  643SOL     OW 1927   1.007   1.734   2.219  0.1417  0.3639 -0.4016
  643SOL    HW1 1928   1.043   1.799   2.151 -0.3825 -1.5219 -1.3274
  643SOL    HW2 1929   0.990   1.643   2.176  0.0051  1.3114  2.2092
  644SOL     OW 1930   1.757   0.085   2.050 -0.4068  0.0614 -0.1219
  644SOL    HW1 1931   1.693   0.013   2.084  0.1072  0.0741  1.6330
  644SOL    HW2 1932   1.721   0.181   2.061  0.3382 -0.8957  0.1486
  645SOL     OW 1933   1.786   1.214   1.791 -0.4289 -0.2697  0.2449
  645SOL    HW1 1934   1.713   1.161   1.846 -0.6419 -4.2585 -0.8544
  645SOL    HW2 1935   1.741   1.281   1.734  0.5539 -0.2268  1.7188
  646SOL     OW 1936   1.433   2.369   0.059 -0.6399 -0.0508 -0.4535
  646SOL    HW1 1937   1.383   2.311   3.069 -1.6554  1.0530  0.7083
  646SOL    HW2 1938   1.376   2.453   0.074  0.3079 -0.4699  1.5743
  647SOL     OW 1939   1.430   2.423   1.117 -0.1474 -0.1892 -0.2916
  647SOL    HW1 1940   1.392   2.427   1.025  2.0418  1.8103  0.5534
  647SOL    HW2 1941   1.484   2.337   1.131  0.1028 -0.9169  1.5320
  648SOL     OW 1942   2.871   2.247   1.394 -0.2849 -0.0881 -0.2422
  648SOL    HW1 1943   2.834   2.182   1.470 -0.6526  0.0538 -0.5125
  648SOL    HW2 1944   2.969   2.260   1.405 -0.0509 -0.0998 -1.1797
  649SOL     OW 1945   1.132   2.622   2.663  0.2819  0.3911  0.6734
  649SOL    HW1 1946   1.164   2.529   2.627 -0.5271 -2.5837  1.1909
  649SOL    HW2 1947   1.037   2.640   2.636  1.3157 -1.1120  4.7631
  650SOL     OW 1948   2.961   1.848   2.951 -0.0146 -0.7528 -0.3949
  650SOL    HW1 1949   3.050   1.806   2.917 -0.3117 -0.9737  1.6069
  650SOL    HW2 1950   2.935   1.811   3.045 -0.4027 -1.0785  2.0191
  651SOL     OW 1951   2.549   2.294   2.117 -0.0425 -0.0519  0.0661
  651SOL    HW1 1952   2.554   2.215   2.055 -0.1644  1.8823  0.6108
  651SOL    HW2 1953   2.498   2.373   2.075  0.8756  0.0707  1.5023
  652SOL     OW 1954   2.092   2.666   0.820  0.5556  0.6110 -0.1035
  652SOL    HW1 1955   2.146   2.744   0.784  1.8452 -2.1127  2.6919
  652SOL    HW2 1956   2.126   2.577   0.780  1.1051 -2.4461  2.0436
  653SOL     OW 1957   0.031   1.344   1.433 -0.6464 -0.6895  0.1128
  653SOL    HW1 1958   3.024   1.295   1.453  0.4683 -1.5665  0.6778
  653SOL    HW2 1959   0.063   1.335   1.332  3.0793 -1.0496 -1.0783
  654SOL     OW 1960   1.016   0.784   2.788 -0.1239 -0.4067 -0.1085
  654SOL    HW1 1961   1.026   0.761   2.685 -1.2067 -2.2572 -1.6489
  654SOL    HW2 1962   0.942   0.728   2.828 -0.9512 -0.4679 -1.5211
  655SOL     OW 1963   1.183   0.860   1.119  0.1688  0.2804  0.3453
  655SOL    HW1 1964   1.136   0.940   1.081  0.2909 -1.0594 -1.3271
  655SOL    HW2 1965   1.182   0.787   1.043 -1.5725 -0.7610 -0.5431
  656SOL     OW 1966   1.260   2.333   2.030 -0.0685 -0.6311  0.5562
  656SOL    HW1 1967   1.262   2.238   2.064  0.3655 -1.1231 -2.6937
  656SOL    HW2 1968   1.198   2.391   2.086 -0.5425 -1.8827  0.5089
  657SOL     OW 1969   1.834   1.384   3.071 -0.1258  0.1932 -0.1587
  657SOL    HW1 1970   1.890   1.305   0.016  1.6280  0.3365  0.3469
  657SOL    HW2 1971   1.736   1.367   0.014 -0.0692  2.0026 -0.6330
  658SOL     OW 1972   1.716   2.203   1.588  0.2076  0.2418 -0.2976
  658SOL    HW1 1973   1.782   2.231   1.521 -1.5361 -1.6263  1.8356
  658SOL    HW2 1974   1.693   2.277   1.652 -0.3305 -0.3374  1.1260
  659SOL     OW 1975   2.895   1.695   0.157  0.2004 -0.1253  0.3889
  659SOL    HW1 1976   2.918   1.601   0.175  1.4914  2.2979 -0.7613
  659SOL    HW2 1977   2.959   1.758   0.202  0.2074  1.7758 -0.5691
  660SOL     OW 1978   0.844   0.124   0.692  0.1225 -0.3039 -0.0181
  660SOL    HW1 1979   0.936   0.170   0.683 -1.3755 -0.3462 -1.3111
  660SOL    HW2 1980   0.841   0.026   0.652 -0.9097 -1.4102  1.3553
  661SOL     OW 1981   1.976   0.498   3.065 -0.2803 -0.4337  0.1089
  661SOL    HW1 1982   1.904   0.567   0.006  1.4232 -0.7464  0.1808
  661SOL    HW2 1983   1.944   0.423   3.005 -0.7930 -1.0260 -0.9093
  662SOL     OW 1984   0.274   0.382   0.567 -0.2225 -0.5066  0.0240
  662SOL    HW1 1985   0.225   0.393   0.480 -1.3906  0.6624 -1.2084
  662SOL    HW2 1986   0.367   0.428   0.571  1.9393  0.8293 -2.3830
  663SOL     OW 1987   1.643   2.726   2.356 -0.0615  0.1256 -0.0370
  663SOL    HW1 1988   1.598   2.751   2.441  1.8163  1.9753  2.0924
  663SOL    HW2 1989   1.578   2.672   2.302  0.1584  0.0397  0.6152
  664SOL     OW 1990   0.576   2.462   1.624 -0.1663  0.4406 -0.5561
  664SOL    HW1 1991   0.476   2.475   1.608  0.7697  0.7447  2.3754
  664SOL    HW2 1992   0.628   2.477   1.542 -1.7375 -1.8678  1.5384
  665SOL     OW 1993   1.417   2.302   1.440  0.2719  0.2586 -0.4087
  665SOL    HW1 1994   1.421   2.384   1.495  1.8369  0.8562 -1.0397
  665SOL    HW2 1995   1.500   2.243   1.451  0.9370  1.8677  0.6214
  666SOL     OW 1996   0.799   0.036   2.456  0.2290  0.5552 -0.4104
  666SOL    HW1 1997   0.715   3.078   2.501 -2.2253 -0.7534 -0.7696
  666SOL    HW2 1998   0.830   3.049   2.381  0.3041 -0.9719 -2.8770
  667SOL     OW 1999   2.719   0.738   1.535  0.1562 -0.0873 -0.5487
  667SOL    HW1 2000   2.654   0.819   1.533 -2.4712 -0.1431 -1.1657
  667SOL    HW2 2001   2.784   0.743   1.612 -1.0559 -1.7155 -0.9871
  668SOL     OW 2002   1.516   0.139   1.414 -0.6681 -0.4888  0.6074
  668SOL    HW1 2003   1.605   0.161   1.466  1.9654  1.8027 -1.1347
  668SOL    HW2 2004   1.454   0.217   1.435  1.9813 -3.2541  3.7773
  669SOL     OW 2005   2.476   2.345   1.047  0.2592 -0.4943 -0.1306
  669SOL    HW1 2006   2.544   2.337   1.125 -1.0107 -0.7541 -0.8293
  669SOL    HW2 2007   2.524   2.370   0.958  2.9746  1.0556 -1.7926
  670SOL     OW 2008   1.324   2.383   2.759 -0.1095 -0.1643 -0.0252
  670SOL    HW1 2009   1.368   2.469   2.790 -1.0879 -0.1270 -2.3704
  670SOL    HW2 2010   1.299   2.378   2.661 -0.3078  2.3722 -0.3390
  671SOL     OW 2011   0.450   1.026   0.451 -0.1872 -0.3148  0.1007
  671SOL    HW1 2012   0.407   0.960   0.385  1.6723  0.4171  0.9848
  671SOL    HW2 2013   0.396   1.114   0.463 -0.2185  1.4266 -1.9659
  672SOL     OW 2014   2.736   1.181   3.022  0.1000  0.4815 -0.0757
  672SOL    HW1 2015   2.778   1.108   0.000  0.9204  0.5335 -1.4592
  672SOL    HW2 2016   2.698   1.249   0.004  1.1917 -2.1028  1.5517
  673SOL     OW 2017   0.054   1.770   1.763  0.2194 -0.0070  0.5328
  673SOL    HW1 2018   0.048   1.692   1.696  0.4041  2.5092 -1.5030
  673SOL    HW2 2019   0.143   1.817   1.750 -1.0758 -0.9775  1.0784
  674SOL     OW 2020   1.186   2.197   1.630  0.4259  0.3479  0.0181
  674SOL    HW1 2021   1.106   2.138   1.605 -0.5056 -2.6142 -0.9980
  674SOL    HW2 2022   1.269   2.151   1.597 -3.0837  0.4086 -0.1935
  675SOL     OW 2023   1.180   1.149   1.092 -0.9835  0.1759 -0.0754
  675SOL    HW1 2024   1.206   1.114   1.186  0.2253 -2.1678  0.4612
  675SOL    HW2 2025   1.080   1.153   1.078  1.5619  2.3743 -0.7923
  676SOL     OW 2026   2.238   0.481   0.888  0.2588 -0.0544 -0.4571
  676SOL    HW1 2027   2.218   0.578   0.877  0.2112 -1.6679  1.8206
  676SOL    HW2 2028   2.210   0.447   0.980 -0.1809 -0.0474 -0.1929
  677SOL     OW 2029   2.536   0.434   0.126 -0.1368  0.0376 -0.2898
  677SOL    HW1 2030   2.520   0.339   0.165 -1.0861 -0.2502 -1.4621
  677SOL    HW2 2031   2.455   0.463   0.074 -0.7148  1.3242  2.1264
  678SOL     OW 2032   2.538   1.360   1.446  0.6107  0.3601 -0.4891
  678SOL    HW1 2033   2.499   1.339   1.352 -2.0610  1.2382 -1.3451
  678SOL    HW2 2034   2.472   1.327   1.524 -2.3427 -1.9394  1.8190
  679SOL     OW 2035   2.350   0.584   2.953  0.0122 -0.1722 -0.4804
  679SOL    HW1 2036   2.431   0.617   2.895 -2.8874 -1.7261 -1.6130
  679SOL    HW2 2037   2.339   0.632   3.041  0.7198  1.3386  0.8971
  680SOL     OW 2038   0.694   1.147   2.141 -0.0358 -0.6361  0.3468
  680SOL    HW1 2039   0.656   1.059   2.117 -1.1579  1.0154  1.2078
  680SOL    HW2 2040   0.620   1.214   2.119  1.1616 -0.5026 -0.3382
  681SOL     OW 2041   2.817   2.066   1.573  0.1936 -0.5611 -0.7076
  681SOL    HW1 2042   2.873   2.032   1.655 -1.5490  1.3598  1.9888
  681SOL    HW2 2043   2.756   1.994   1.535 -0.0964 -2.6387 -2.3053
  682SOL     OW 2044   0.503   1.738   3.058 -0.4068  0.3900  0.0913
  682SOL    HW1 2045   0.434   1.793   3.012 -1.4079 -0.8672  2.0256
  682SOL    HW2 2046   0.501   1.640   3.029 -2.9671  3.3280  0.3314
  683SOL     OW 2047   2.474   1.964   1.005  0.1542  0.7976  0.5944
  683SOL    HW1 2048   2.452   1.866   1.017  0.2010  4.0831 -1.0868
  683SOL    HW2 2049   2.473   2.010   1.094 -1.9190 -0.0161 -1.0317
  684SOL     OW 2050   2.541   0.992   1.921  0.1030 -0.5046  0.3568
  684SOL    HW1 2051   2.542   0.893   1.940 -0.4060 -2.4436  1.2140
  684SOL    HW2 2052   2.558   1.050   2.003 -0.4743  1.1764 -0.8105
  685SOL     OW 2053   1.233   0.681   0.929  0.2371 -0.3739  0.1316
  685SOL    HW1 2054   1.291   0.653   0.846  0.6748 -0.5264  4.4865
  685SOL    HW2 2055   1.173   0.598   0.960 -0.1886 -2.1937 -0.0126
  686SOL     OW 2056   0.553   0.144   0.008  0.6293  0.4205  0.2694
  686SOL    HW1 2057   0.597   0.069   3.034 -0.0499 -0.2681  0.1880
  686SOL    HW2 2058   0.476   0.118   0.072 -0.8016 -3.0840 -0.3124
  687SOL     OW 2059   0.220   2.453   2.466  0.3615 -0.2984  0.8192
  687SOL    HW1 2060   0.136   2.457   2.405 -2.7798  1.1363 -2.6502
  687SOL    HW2 2061   0.215   2.368   2.517 -0.2647 -1.0343 -1.2847
  688SOL     OW 2062   2.109   0.358   1.495 -0.1102  0.6052  0.2637
  688SOL    HW1 2063   2.125   0.459   1.498  0.4410  1.0621 -0.8297
  688SOL    HW2 2064   2.196   0.316   1.462 -0.1184  0.4253 -0.1799
  689SOL     OW 2065   1.799   0.747   0.787 -0.5493  0.2483 -0.4469
  689SOL    HW1 2066   1.794   0.789   0.695 -0.4110 -0.9366  0.1349
  689SOL    HW2 2067   1.720   0.767   0.846  0.1926 -0.0082 -1.3632
  690SOL     OW 2068   0.003   0.811   1.481  0.2891  0.3184  1.3695
  690SOL    HW1 2069   3.064   0.892   1.534 -2.9097 -1.2845 -0.0896
  690SOL    HW2 2070   3.059   0.834   1.382  1.0653  1.1275  1.3737
  691SOL     OW 2071   0.203   1.084   1.799  0.6737  0.0012 -0.1936
  691SOL    HW1 2072   0.226   1.146   1.721  0.4039  0.9331  2.2586
  691SOL    HW2 2073   0.142   1.131   1.864  1.1501 -0.0365  4.5947
  692SOL     OW 2074   1.068   0.736   1.966  0.0364 -0.4420 -0.4913
  692SOL    HW1 2075   1.039   0.640   1.977  1.8567 -1.5316 -1.8628
  692SOL    HW2 2076   1.039   0.773   1.870  0.3743  1.2568 -1.0367
  693SOL     OW 2077   0.500   1.335   2.069 -0.2383  0.3999  0.0407
  693SOL    HW1 2078   0.557   1.419   2.076  1.5098  0.0466  0.2478
  693SOL    HW2 2079   0.424   1.323   2.131  2.1772  0.6561 -2.2128
  694SOL     OW 2080   1.380   1.744   0.379 -0.3930 -0.1694  0.1894
  694SOL    HW1 2081   1.460   1.692   0.409  0.4441 -0.1793 -0.7765
  694SOL    HW2 2082   1.366   1.827   0.428  3.2030 -2.5913 -1.4398
  695SOL     OW 2083   0.706   1.011   1.262 -0.2124 -0.0442 -0.5009
  695SOL    HW1 2084   0.788   1.060   1.234 -1.8669 -0.9271  1.2390
  695SOL    HW2 2085   0.626   1.064   1.237  0.8471  0.5463 -0.3819
  696SOL     OW 2086   0.391   2.476   0.320  0.2090  0.0669 -0.0540
  696SOL    HW1 2087   0.297   2.459   0.353 -0.3341  0.8053 -1.6949
  696SOL    HW2 2088   0.460   2.462   0.398  0.4882  0.0397  2.5617
  697SOL     OW 2089   1.325   0.338   1.412  0.4660  0.3205 -0.6698
  697SOL    HW1 2090   1.323   0.434   1.445 -2.2970  0.7906  1.3317
  697SOL    HW2 2091   1.252   0.325   1.340 -0.5555 -1.3691  1.2393
  698SOL     OW 2092   1.653   1.454   1.666  0.2405  0.3961 -0.2072
  698SOL    HW1 2093   1.559   1.423   1.680  0.1252 -0.4721 -1.3479
  698SOL    HW2 2094   1.679   1.542   1.706  2.1178 -2.7264 -1.2774
  699SOL     OW 2095   0.163   0.439   2.294  0.3292  0.0595 -0.2375
  699SOL    HW1 2096   0.103   0.518   2.266  0.7656 -3.6867 -0.0846
  699SOL    HW2 2097   0.223   0.425   2.211  0.4030  1.1535 -0.5838
  700SOL     OW 2098   1.457   2.697   0.745 -0.2107  0.5276 -0.3795
  700SOL    HW1 2099   1.524   2.725   0.817 -1.5620  0.6067 -0.2731
  700SOL    HW2 2100   1.373   2.757   0.756  0.0338 -0.3917 -0.3021
  701SOL     OW 2101   0.343   1.492   2.686 -0.5618  0.0325 -0.1482
  701SOL    HW1 2102   0.241   1.494   2.702 -0.0095 -1.2724 -2.4719
  701SOL    HW2 2103   0.389   1.477   2.776 -1.3478  0.1342  0.2404
  702SOL     OW 2104   0.353   0.410   3.045  0.4544  0.4090  0.2994
  702SOL    HW1 2105   0.346   0.316   3.002  0.2524 -1.1499  0.7009
  702SOL    HW2 2106   0.388   0.478   2.976 -0.7725 -1.6135 -1.0903
  703SOL     OW 2107   1.501   3.042   2.549 -0.0115  0.0612 -0.4816
  703SOL    HW1 2108   1.542   0.039   2.608  2.8836  2.1857  0.2466
  703SOL    HW2 2109   1.441   0.013   2.480  0.2449  1.5087 -2.4790
  704SOL     OW 2110   2.658   1.709   0.433  0.3400  0.5702  0.3177
  704SOL    HW1 2111   2.652   1.761   0.350  1.1161 -2.0183  0.7087
  704SOL    HW2 2112   2.741   1.730   0.483 -1.2525 -1.1311 -1.2590
  705SOL     OW 2113   2.784   1.874   1.953  0.2427 -0.7099 -0.1195
  705SOL    HW1 2114   2.714   1.804   1.918 -0.3566 -0.7984 -2.5307
  705SOL    HW2 2115   2.756   1.913   2.041 -0.5957  0.3375 -1.8975
  706SOL     OW 2116   2.870   2.514   0.903 -0.2565 -0.7016  0.7048
  706SOL    HW1 2117   2.921   2.493   0.817 -0.6080 -1.4825  2.0523
  706SOL    HW2 2118   2.906   2.596   0.958  0.5724  1.4084  1.8033
  707SOL     OW 2119   0.850   2.843   0.356 -0.2024  0.3112  0.2053
  707SOL    HW1 2120   0.936   2.885   0.318  0.5945  1.1131 -1.5304
  707SOL    HW2 2121   0.771   2.855   0.290  0.3705  0.6705  1.9295
  708SOL     OW 2122   0.564   2.199   1.473  0.2964 -0.1641  0.2916
  708SOL    HW1 2123   0.574   2.262   1.392 -1.2720  0.4517  2.0377
  708SOL    HW2 2124   0.574   2.253   1.558  0.0791  0.2331 -1.3975
  709SOL     OW 2125   1.609   2.994   2.193  0.1342 -0.5775  0.0863
  709SOL    HW1 2126   1.591   3.038   2.283 -0.5787  0.7098 -0.7734
  709SOL    HW2 2127   1.615   2.891   2.210 -0.9655 -1.3413 -0.6184
  710SOL     OW 2128   1.489   2.767   2.588 -0.5052 -0.2182  0.4427
  710SOL    HW1 2129   1.496   2.716   2.673 -0.3939  1.1811 -0.6486
  710SOL    HW2 2130   1.502   2.868   2.600 -1.2854 -2.1006  0.1879
  711SOL     OW 2131   1.323   2.205   2.960  0.1861 -0.2028  0.1922
  711SOL    HW1 2132   1.243   2.217   3.021  0.7767 -0.0869  0.1135
  711SOL    HW2 2133   1.322   2.283   2.893 -2.2350  2.4067 -3.6708
  712SOL     OW 2134   1.004   2.005   2.997 -0.3022 -0.1427 -0.0768
  712SOL    HW1 2135   1.091   2.022   2.942  0.5829 -2.1564  0.0586
  712SOL    HW2 2136   0.924   2.014   2.936  1.5321 -0.8885  0.9475
  713SOL     OW 2137   1.375   0.943   1.611 -0.0405 -0.3668  0.0746
  713SOL    HW1 2138   1.369   0.982   1.520 -0.6503 -0.3308 -0.2802
  713SOL    HW2 2139   1.459   0.885   1.621  0.8932  0.3932  1.4532
  714SOL     OW 2140   1.428   1.520   1.156  0.0444 -0.2879 -0.2907
  714SOL    HW1 2141   1.467   1.526   1.251 -3.0511 -1.0481  1.4271
  714SOL    HW2 2142   1.446   1.609   1.109 -3.3555  3.3541  1.6030
  715SOL     OW 2143   2.389   0.127   0.898  0.3066  0.9189 -0.1037
  715SOL    HW1 2144   2.309   0.103   0.957 -3.5153 -1.0428 -0.1374
  715SOL    HW2 2145   2.428   0.218   0.921  0.1793 -2.8248 -0.6741
  716SOL     OW 2146   0.462   2.687   0.781  0.1287 -0.3090  0.4734
  716SOL    HW1 2147   0.529   2.635   0.834  0.3723  1.6792 -1.1975
  716SOL    HW2 2148   0.514   2.733   0.705  1.8239  0.8504 -0.9962
  717SOL     OW 2149   2.931   0.498   0.225 -0.4873 -0.0588 -0.4783
  717SOL    HW1 2150   2.870   0.475   0.144 -1.4800  0.7868 -2.0608
  717SOL    HW2 2151   2.875   0.527   0.304 -1.1832  2.4509 -0.6276
  718SOL     OW 2152   1.711   1.769   1.180  0.3122  0.2760  0.4392
  718SOL    HW1 2153   1.760   1.680   1.172 -0.7170  0.5717  2.9386
  718SOL    HW2 2154   1.766   1.849   1.148 -0.8446 -0.2286 -0.6153
  719SOL     OW 2155   2.606   2.345   0.815  0.0450 -0.0686  0.5857
  719SOL    HW1 2156   2.554   2.256   0.801 -0.5654  2.5381 -1.7578
  719SOL    HW2 2157   2.708   2.331   0.810  1.9077 -1.9785 -0.7845
  720SOL     OW 2158   1.058   0.914   0.792  0.3014  0.0075  0.0426
  720SOL    HW1 2159   1.154   0.872   0.796  0.8112 -0.7076 -0.6743
  720SOL    HW2 2160   1.024   0.958   0.708  2.3774  1.5495  0.2645
  721SOL     OW 2161   1.552   0.197   1.148  0.2135  0.1474 -0.8129
  721SOL    HW1 2162   1.498   0.271   1.103 -2.7953 -1.2541 -0.0229
  721SOL    HW2 2163   1.512   0.185   1.246 -0.9101 -0.7300 -1.4213
  722SOL     OW 2164   1.233   1.423   2.148 -0.3565  0.2609 -0.3168
  722SOL    HW1 2165   1.285   1.469   2.223  2.1801 -1.9749  0.9112
  722SOL    HW2 2166   1.133   1.441   2.151 -0.8614 -0.3830  2.4230
  723SOL     OW 2167   0.861   2.957   1.472 -0.0879 -0.2717  0.1069
  723SOL    HW1 2168   0.932   3.002   1.406  2.7438  2.7500 -1.0296
  723SOL    HW2 2169   0.908   2.879   1.518  0.8918  2.1078 -0.4316
  724SOL     OW 2170   2.015   1.981   1.660  0.3283 -0.1005  0.9596
  724SOL    HW1 2171   1.925   1.975   1.610 -0.9636  0.6727 -1.2794
  724SOL    HW2 2172   2.077   1.909   1.627 -1.8071 -1.1317 -1.3540
  725SOL     OW 2173   0.903   2.655   1.287 -0.0937  0.0679  0.1790
  725SOL    HW1 2174   0.846   2.579   1.326 -3.0997 -0.2332 -0.2447
  725SOL    HW2 2175   0.968   2.702   1.355 -1.2373 -0.0764  0.9987
  726SOL     OW 2176   1.732   2.961   3.060 -0.2910 -0.1359  0.3358
  726SOL    HW1 2177   1.676   2.904   3.001  2.4945 -0.1083 -0.0410
  726SOL    HW2 2178   1.828   2.933   3.050 -3.3269 -1.5767  2.6601
  727SOL     OW 2179   1.531   1.668   0.768 -0.1042 -0.3438  0.1984
  727SOL    HW1 2180   1.438   1.648   0.724  0.3190 -2.2069 -0.8129
  727SOL    HW2 2181   1.601   1.710   0.710 -2.5512  0.8445  1.0075
  728SOL     OW 2182   1.929   2.868   2.302  0.5268 -0.5186 -0.2143
  728SOL    HW1 2183   1.975   2.946   2.250 -0.0318  2.9204 -0.7594
  728SOL    HW2 2184   1.889   2.908   2.386 -0.6374 -2.0284  0.4591
  729SOL     OW 2185   2.389   1.775   1.370 -0.1636 -0.8048 -0.0001
  729SOL    HW1 2186   2.361   1.871   1.350 -0.1813  0.9826 -3.3168
  729SOL    HW2 2187   2.350   1.712   1.300  0.3137  0.9769 -2.3017
  730SOL     OW 2188   1.763   0.635   2.421 -0.1793 -0.3938  0.0225
  730SOL    HW1 2189   1.796   0.545   2.461  0.6241 -0.4424  0.5906
  730SOL    HW2 2190   1.795   0.707   2.479 -1.0150 -2.3597 -5.8302
  731SOL     OW 2191   0.489   0.243   1.285 -0.3280 -0.0622  0.0693
  731SOL    HW1 2192   0.485   0.274   1.386  2.4323 -0.7432  1.9130
  731SOL    HW2 2193   0.428   0.298   1.227 -1.3875 -2.8668  3.3400
  732SOL     OW 2194   1.793   0.130   1.241  0.4463 -0.2639  0.2545
  732SOL    HW1 2195   1.692   0.148   1.227  0.0182  0.8225  1.0647
  732SOL    HW2 2196   1.823   0.084   1.330 -0.0326 -2.8069  1.3360
  733SOL     OW 2197   0.975   0.957   1.392 -0.2788 -0.1506  0.1137
  733SOL    HW1 2198   0.893   0.981   1.448  0.5810 -0.3369  0.7677
  733SOL    HW2 2199   0.988   0.858   1.388  1.9053  1.4952  0.4335
  734SOL     OW 2200   2.362   1.857   0.203  0.1284 -0.3966  0.1522
  734SOL    HW1 2201   2.307   1.772   0.222  0.6315  0.2098 -2.4120
  734SOL    HW2 2202   2.461   1.831   0.200 -1.8821 -1.1833 -2.6737
  735SOL     OW 2203   0.391   0.770   0.273 -0.0015 -0.0985 -0.0013
  735SOL    HW1 2204   0.368   0.677   0.239 -0.0477  1.7305  0.4475
  735SOL    HW2 2205   0.492   0.779   0.286  0.2063 -1.8555 -3.2878
  736SOL     OW 2206   1.857   2.582   2.409 -0.2449 -0.0782 -0.0547
  736SOL    HW1 2207   1.915   2.597   2.489  0.1944  3.2549 -1.2241
  736SOL    HW2 2208   1.767   2.631   2.419 -0.8540  0.3630  0.1427
  737SOL     OW 2209   1.048   1.750   0.965  0.7124  0.1890  0.9267
  737SOL    HW1 2210   0.997   1.693   1.032 -0.5766 -0.2227 -0.3523
  737SOL    HW2 2211   1.134   1.777   1.005 -2.4706  0.4775 -1.5506
  738SOL     OW 2212   1.746   2.710   2.089  0.5662  0.4135 -0.3701
  738SOL    HW1 2213   1.761   2.757   2.178  2.4671 -2.0712  0.7675
  738SOL    HW2 2214   1.793   2.616   2.094  3.6541 -2.3620  1.8440
  739SOL     OW 2215   1.352   2.192   2.410  0.2445  0.0064  0.6585
  739SOL    HW1 2216   1.384   2.126   2.484  1.2739 -0.8122 -3.9867
  739SOL    HW2 2217   1.415   2.267   2.395 -1.9180 -2.8932  0.6501
  740SOL     OW 2218   1.983   2.499   1.819 -0.1483  0.1266 -0.2143
  740SOL    HW1 2219   1.991   2.573   1.888  1.5453  1.3504  0.5181
  740SOL    HW2 2220   1.887   2.464   1.807 -3.4685 -0.0167  1.1913
  741SOL     OW 2221   2.475   1.567   2.742 -0.0653  0.1036  0.0708
  741SOL    HW1 2222   2.533   1.486   2.730 -2.7060  0.0423 -1.6585
  741SOL    HW2 2223   2.482   1.634   2.661 -0.1772  1.8997 -0.0305
  742SOL     OW 2224   0.670   1.201   2.787  0.1715  0.1624  0.1095
  742SOL    HW1 2225   0.704   1.263   2.861 -2.4570  0.9405 -1.3420
  742SOL    HW2 2226   0.567   1.197   2.786 -1.0963  0.1999 -0.5544
  743SOL     OW 2227   2.037   1.177   2.515  0.1252 -0.0746 -0.1741
  743SOL    HW1 2228   2.054   1.077   2.493 -0.8741 -2.6560 -0.0233
  743SOL    HW2 2229   1.944   1.199   2.487  1.9558  0.3899  0.7309
  744SOL     OW 2230   2.168   3.050   1.399  0.2185  0.2517  0.3695
  744SOL    HW1 2231   2.212   0.058   1.378  0.9188 -1.0230 -0.3367
  744SOL    HW2 2232   2.237   2.978   1.422 -0.0884 -1.4711  0.0806
  745SOL     OW 2233   2.468   1.265   1.185  0.0052 -0.2011 -0.2229
  745SOL    HW1 2234   2.509   1.172   1.195  1.9150 -2.7688 -0.9853
  745SOL    HW2 2235   2.386   1.275   1.124  1.6986  0.1621 -0.1151
  746SOL     OW 2236   2.450   1.706   0.983 -0.0672 -0.4264 -0.6191
  746SOL    HW1 2237   2.373   1.715   0.915  0.5231 -2.1517 -1.0448
  746SOL    HW2 2238   2.531   1.659   0.946  1.8514  1.1945 -0.1710
  747SOL     OW 2239   2.041   2.710   0.187 -0.0824 -0.4678  0.3590
  747SOL    HW1 2240   2.010   2.807   0.202  2.9223 -2.3102  0.6066
  747SOL    HW2 2241   2.133   2.694   0.227 -1.6341  1.8420  0.4103
  748SOL     OW 2242   0.740   2.075   0.072 -0.3567 -0.0700 -0.0143
  748SOL    HW1 2243   0.830   2.117   0.093  2.8555  1.5450  1.7732
  748SOL    HW2 2244   0.679   2.119   0.001 -2.8983 -1.3817  0.6141
  749SOL     OW 2245   2.858   0.426   2.315  0.2354 -0.4129  0.2798
  749SOL    HW1 2246   2.907   0.346   2.286 -0.9538  2.8104  0.6896
  749SOL    HW2 2247   2.908   0.510   2.288  0.4533  0.2318 -0.8189
  750SOL     OW 2248   1.302   0.425   1.770  0.4144  0.1510 -0.6350
  750SOL    HW1 2249   1.348   0.330   1.773 -0.3235 -0.3010 -0.7914
  750SOL    HW2 2250   1.308   0.471   1.860  0.6715 -3.2010 -0.3910
  751SOL     OW 2251   2.531   2.437   1.884 -0.2584  0.1540  0.0626
  751SOL    HW1 2252   2.574   2.382   1.807  1.5183 -0.6838  0.3415
  751SOL    HW2 2253   2.477   2.512   1.843 -0.9183  0.0044 -0.7568
  752SOL     OW 2254   1.874   1.560   1.141 -0.7943  0.0694  0.4772
  752SOL    HW1 2255   1.803   1.501   1.103  2.8830  0.4081  0.0955
  752SOL    HW2 2256   1.967   1.527   1.114  0.7246 -2.3568 -0.4938
  753SOL     OW 2257   1.525   1.149   2.282 -0.7412 -0.1226 -0.2824
  753SOL    HW1 2258   1.547   1.119   2.192  2.8283 -2.3903  1.5134
  753SOL    HW2 2259   1.424   1.137   2.303  0.8368 -0.4675  0.9920
  754SOL     OW 2260   0.033   2.281   1.059 -0.0126 -0.3938  0.2266
  754SOL    HW1 2261   0.067   2.358   1.120  1.1412 -2.1063 -1.3846
  754SOL    HW2 2262   3.047   2.221   1.109 -1.6930 -1.4505  1.2182
  755SOL     OW 2263   2.416   3.014   1.206  0.1928  0.3820 -0.0689
  755SOL    HW1 2264   2.472   0.020   1.207 -1.9932 -0.2577 -0.6647
  755SOL    HW2 2265   2.449   2.945   1.270 -1.0142 -0.4747  1.6470
  756SOL     OW 2266   1.885   1.803   2.132 -0.3521  0.5392  0.5339
  756SOL    HW1 2267   1.939   1.721   2.113  0.5723  4.1960  1.1783
  756SOL    HW2 2268   1.857   1.800   2.229  0.1548  0.1119  0.3341
  757SOL     OW 2269   3.031   2.919   1.918 -0.5582 -0.3208 -0.2987
  757SOL    HW1 2270   2.941   2.961   1.903  3.0571 -2.1742 -0.7903
  757SOL    HW2 2271   0.030   2.984   1.914  2.9703  0.1444 -0.5745
  758SOL     OW 2272   0.480   2.766   1.663 -0.2220  0.2329  0.0801
  758SOL    HW1 2273   0.527   2.769   1.573  1.5902 -1.6143 -1.2602
  758SOL    HW2 2274   0.493   2.676   1.708 -0.7933  3.4208  2.0810
  759SOL     OW 2275   2.005   1.079   1.165 -0.1200 -0.4558 -0.4680
  759SOL    HW1 2276   2.068   1.028   1.228  1.1415 -1.8952  2.5263
  759SOL    HW2 2277   2.030   1.077   1.065 -1.6166  0.0324 -0.2894
  760SOL     OW 2278   1.674   0.210   1.627  0.0365  0.0748 -0.0372
  760SOL    HW1 2279   1.730   0.152   1.691  0.5630 -0.5894 -0.2656
  760SOL    HW2 2280   1.730   0.257   1.558  1.4833  0.7402 -1.0978
  761SOL     OW 2281   2.174   0.108   1.063  0.0759  0.5657 -0.4200
  761SOL    HW1 2282   2.080   0.070   1.049  1.4973  0.7069 -0.3947
  761SOL    HW2 2283   2.222   0.069   1.146 -1.4320  1.6546  2.2688
  762SOL     OW 2284   1.851   2.903   0.233 -0.0731 -0.4847  0.0780
  762SOL    HW1 2285   1.896   2.994   0.244  1.8526  0.9216 -1.0021
  762SOL    HW2 2286   1.792   2.910   0.153 -1.6445  1.7927 -2.1077
  763SOL     OW 2287   1.083   0.430   1.257  0.0100 -0.0531  0.4771
  763SOL    HW1 2288   1.011   0.370   1.286  1.4797  1.9370 -0.6860
  763SOL    HW2 2289   1.052   0.528   1.254 -1.0175 -0.0531  1.2940
  764SOL     OW 2290   2.439   2.733   2.559  0.3155  0.0712 -0.2442
  764SOL    HW1 2291   2.500   2.761   2.483 -0.2649  1.0136 -1.8767
  764SOL    HW2 2292   2.388   2.812   2.595 -0.7890 -1.1758 -0.7428
  765SOL     OW 2293   0.041   1.083   2.548 -0.2223 -0.2761  0.2527
  765SOL    HW1 2294   0.141   1.071   2.566  0.7435  0.8397 -1.6669
  765SOL    HW2 2295   3.068   0.995   2.534 -0.9363 -0.3491  1.5884
  766SOL     OW 2296   2.871   1.143   2.321  0.1609  0.0789 -0.9960
  766SOL    HW1 2297   2.889   1.044   2.329  0.8220 -0.9731  0.5577
  766SOL    HW2 2298   2.962   1.187   2.315  1.0946 -1.4586  0.8216
  767SOL     OW 2299   0.087   2.181   1.564 -0.1190 -0.0620 -0.1328
  767SOL    HW1 2300   0.056   2.083   1.554  1.4517 -0.3728 -1.8543
  767SOL    HW2 2301   0.037   2.233   1.643 -1.5812  1.2849  1.2398
  768SOL     OW 2302   0.831   0.789   3.044 -0.3225  0.7706 -0.2757
  768SOL    HW1 2303   0.774   0.709   3.053  1.5887  1.7025 -0.7154
  768SOL    HW2 2304   0.775   0.861   3.000 -0.2368  0.9257  0.2320
  769SOL     OW 2305   1.256   2.623   0.030 -0.4328 -0.0009  0.5024
  769SOL    HW1 2306   1.167   2.622   3.058 -2.1748 -0.9325  0.2961
  769SOL    HW2 2307   1.242   2.626   0.136 -3.6329  4.6910  1.3649
  770SOL     OW 2308   0.832   0.306   2.464 -0.3673  0.4155 -0.2410
  770SOL    HW1 2309   0.764   0.367   2.416 -0.3985  2.7975 -1.1694
  770SOL    HW2 2310   0.811   0.208   2.457  2.7996  0.2448  0.6137
  771SOL     OW 2311   0.656   2.556   0.904 -0.2350 -0.0818  0.3676
  771SOL    HW1 2312   0.731   2.491   0.870  2.0630 -1.4108 -0.2973
  771SOL    HW2 2313   0.700   2.635   0.956 -0.9350 -0.9096  2.6281
  772SOL     OW 2314   2.671   1.020   0.422  0.4332 -0.2329  0.0730
  772SOL    HW1 2315   2.574   1.040   0.389 -4.4550 -1.5364 -1.5207
  772SOL    HW2 2316   2.681   1.037   0.524 -0.6966  0.2836  0.2081
  773SOL     OW 2317   1.705   0.909   1.858 -0.0066  0.3260  0.1969
  773SOL    HW1 2318   1.804   0.905   1.849 -0.7401  0.1510  0.7821
  773SOL    HW2 2319   1.648   0.874   1.777  1.4178 -2.1219  0.6546
  774SOL     OW 2320   0.538   0.467   0.536 -0.0675  0.0538  0.6415
  774SOL    HW1 2321   0.608   0.544   0.526  3.4353 -0.7926 -0.6696
  774SOL    HW2 2322   0.590   0.381   0.507  0.3992  1.4632 -1.4660
  775SOL     OW 2323   1.637   0.127   0.310  0.1052 -0.8576 -0.0722
  775SOL    HW1 2324   1.615   0.027   0.293 -0.3210 -0.0373 -0.0596
  775SOL    HW2 2325   1.550   0.184   0.315 -3.0358  0.7307 -0.0000
  776SOL     OW 2326   2.337   0.478   2.359 -0.1973  0.1917 -0.1340
  776SOL    HW1 2327   2.314   0.534   2.440 -2.7093 -1.2556  1.5805
  776SOL    HW2 2328   2.255   0.449   2.311 -0.1342 -2.1590 -1.6285
  777SOL     OW 2329   1.034   1.362   3.073 -0.5547  0.3044 -0.3574
  777SOL    HW1 2330   0.997   1.385   2.982  0.9793 -3.2883  1.0978
  777SOL    HW2 2331   0.964   1.318   0.061 -3.7948 -2.4777  1.5783
  778SOL     OW 2332   0.132   2.635   0.228 -0.6748  0.3632 -0.3551
  778SOL    HW1 2333   0.126   2.567   0.304 -0.3739 -0.5577  0.1732
  778SOL    HW2 2334   0.158   2.722   0.271 -2.2048 -1.3785 -0.5670
  779SOL     OW 2335   0.180   1.348   0.290 -0.2337  0.7638  0.6970
  779SOL    HW1 2336   0.176   1.245   0.310 -1.8201 -2.9889 -3.0243
  779SOL    HW2 2337   0.280   1.373   0.267  0.3725  2.7958  0.3609
  780SOL     OW 2338   1.992   0.031   2.170 -0.4780  0.4904 -0.2078
  780SOL    HW1 2339   2.052   0.115   2.185 -2.5485 -0.2890  0.2976
  780SOL    HW2 2340   1.905   0.060   2.118 -2.1153  0.7515 -1.5640
  781SOL     OW 2341   1.735   1.044   1.446  0.5841  0.2933 -0.2883
  781SOL    HW1 2342   1.636   1.074   1.442  1.7944 -0.6298 -1.4385
  781SOL    HW2 2343   1.798   1.123   1.425  1.8415  0.3576 -0.0068
  782SOL     OW 2344   1.903   2.067   2.081  0.3530  0.1601 -0.6785
  782SOL    HW1 2345   1.897   2.095   1.986 -0.4823 -0.7037  0.8077
  782SOL    HW2 2346   1.900   1.965   2.088  1.0280  1.5989 -3.4312
  783SOL     OW 2347   1.482   0.333   2.062  0.1560 -0.4125 -0.4374
  783SOL    HW1 2348   1.559   0.320   2.133  0.4668 -2.7816  1.0202
  783SOL    HW2 2349   1.436   0.245   2.031 -0.3768 -2.0259 -0.4907
  784SOL     OW 2350   1.809   1.218   2.306  0.1380  0.0100  0.2491
  784SOL    HW1 2351   1.713   1.196   2.275  0.4621 -0.9841  0.1150
  784SOL    HW2 2352   1.873   1.144   2.275 -0.2913  0.7837 -0.9172
  785SOL     OW 2353   1.792   0.679   0.072 -0.0649 -1.3613  0.2968
  785SOL    HW1 2354   1.801   0.770   0.118 -0.3202  1.4636  0.3886
  785SOL    HW2 2355   1.725   0.614   0.112 -1.8357  0.6233 -1.8806
  786SOL     OW 2356   0.058   1.736   0.499 -0.1020 -0.1355  0.0187
  786SOL    HW1 2357   0.028   1.642   0.473  0.2165  0.1527 -0.8167
  786SOL    HW2 2358   0.158   1.753   0.519 -0.3937  0.0261 -0.6916
  787SOL     OW 2359   1.571   1.961   0.350 -0.4963  0.2657  0.4554
  787SOL    HW1 2360   1.498   1.947   0.418  0.6920  1.4286 -0.0238
  787SOL    HW2 2361   1.575   2.059   0.315  0.0572 -1.0693  0.4904
  788SOL     OW 2362   2.256   1.480   1.429  0.4778 -0.7271 -0.1564
  788SOL    HW1 2363   2.286   1.522   1.342 -2.6114 -0.9564  2.6473
  788SOL    HW2 2364   2.156   1.474   1.423  0.6453  2.2869 -0.2673
  789SOL     OW 2365   3.008   1.636   2.326  0.2137  0.6417 -0.2732
  789SOL    HW1 2366   0.006   1.703   2.359  3.2034  0.6005  2.9794
  789SOL    HW2 2367   2.984   1.575   2.407 -0.9417  1.6401  0.6957
  790SOL     OW 2368   0.658   0.020   2.761  0.5622 -0.6912  0.0962
  790SOL    HW1 2369   0.724   0.095   2.746  1.8757  0.4214  1.2583
  790SOL    HW2 2370   0.572   0.031   2.707  2.3747  0.0167  0.9634
  791SOL     OW 2371   0.686   2.849   2.630 -0.1016 -0.0626  0.0661
  791SOL    HW1 2372   0.666   2.800   2.718 -0.4718 -0.1663  0.3666
  791SOL    HW2 2373   0.658   2.944   2.642  1.8854 -0.0655  0.2391
  792SOL     OW 2374   1.695   0.318   2.224 -0.1484  0.5604 -0.1743
  792SOL    HW1 2375   1.751   0.262   2.289  3.6262 -0.6727  0.5494
  792SOL    HW2 2376   1.657   0.397   2.273  1.0562  0.3863  1.2269
  793SOL     OW 2377   2.759   0.029   2.144 -0.5249  0.6767  0.1158
  793SOL    HW1 2378   2.826   0.092   2.105  0.6444  1.7195  1.4567
  793SOL    HW2 2379   2.669   0.075   2.144 -1.3534  0.1812  0.9599
  794SOL     OW 2380   0.444   0.707   1.832  0.2391  0.4483 -0.3379
  794SOL    HW1 2381   0.405   0.713   1.926  0.1390  1.4737  0.9834
  794SOL    HW2 2382   0.456   0.797   1.796 -1.4340 -0.5361  2.3244
  795SOL     OW 2383   3.077   1.470   0.459  0.4673 -0.3668 -0.1059
  795SOL    HW1 2384   2.992   1.417   0.441  1.0131  2.9175  1.2025
  795SOL    HW2 2385   0.065   1.436   0.398 -0.8997  1.7500  1.2514
  796SOL     OW 2386   2.713   2.676   0.011 -0.1941  0.6402 -0.6196
  796SOL    HW1 2387   2.795   2.701   0.060 -2.5055 -0.9213  1.2641
  796SOL    HW2 2388   2.702   2.578   3.072 -2.3157  0.9891 -1.7934
  797SOL     OW 2389   2.534   2.187   0.381  0.2674 -0.0329  0.1101
  797SOL    HW1 2390   2.503   2.147   0.291 -0.7929 -1.6127 -2.0756
  797SOL    HW2 2391   2.626   2.154   0.408  4.2119  1.2808 -2.2161
  798SOL     OW 2392   0.368   0.887   1.495 -0.6009 -0.0802 -0.0281
  798SOL    HW1 2393   0.298   0.812   1.493 -1.1879  0.8215 -0.8891
  798SOL    HW2 2394   0.329   0.981   1.484  3.9078  0.0231 -0.8196
  799SOL     OW 2395   3.050   0.612   2.234  0.2567 -0.2992 -0.0347
  799SOL    HW1 2396   3.058   0.711   2.260  0.3133  0.1912  1.3475
  799SOL    HW2 2397   3.035   0.614   2.132 -3.2408  0.6577 -1.5499
  800SOL     OW 2398   2.713   2.121   0.570 -0.3754  0.0811 -0.0646
  800SOL    HW1 2399   2.644   2.161   0.636 -0.3901 -0.1114 -1.9936
  800SOL    HW2 2400   2.787   2.069   0.617  1.1527 -0.4272 -2.0545
  801SOL     OW 2401   1.364   1.095   0.888  0.0247 -0.6099  0.3868
  801SOL    HW1 2402   1.313   1.116   0.804  0.7125 -2.5793 -1.0706
  801SOL    HW2 2403   1.304   1.105   0.970  2.6648 -2.5737 -0.2411
  802SOL     OW 2404   1.502   1.749   1.019  0.2266  0.5663  0.0956
  802SOL    HW1 2405   1.587   1.744   1.080 -1.4030 -2.5667 -1.1982
  802SOL    HW2 2406   1.521   1.720   0.919  1.4205 -1.7251  0.7593
  803SOL     OW 2407   0.001   1.869   0.272 -0.1449 -0.2770  0.1160
  803SOL    HW1 2408   0.006   1.836   0.369 -2.3577 -0.3937 -0.2737
  803SOL    HW2 2409   0.076   1.823   0.220 -0.7517 -0.9040  1.9852
  804SOL     OW 2410   1.183   2.589   0.851  0.2831  0.0274 -0.7094
  804SOL    HW1 2411   1.109   2.574   0.785 -0.5251  3.6428  0.4147
  804SOL    HW2 2412   1.265   2.535   0.835 -1.3546  0.8976 -1.3712
  805SOL     OW 2413   1.655   1.785   2.612 -0.2137  0.6202  0.2900
  805SOL    HW1 2414   1.640   1.750   2.709  2.0486 -0.0156 -0.0377
  805SOL    HW2 2415   1.567   1.772   2.566 -0.0385 -0.7745  4.0189
  806SOL     OW 2416   1.449   2.971   1.257  0.2204 -0.1730 -0.4610
  806SOL    HW1 2417   1.480   3.033   1.326 -3.8124 -1.1031 -1.9309
  806SOL    HW2 2418   1.348   2.959   1.247 -0.5984  1.7373  1.1757
  807SOL     OW 2419   1.805   2.987   2.529  0.5567 -0.2902  0.2837
  807SOL    HW1 2420   1.703   2.983   2.536  3.9568 -0.2104 -1.2181
  807SOL    HW2 2421   1.839   2.965   2.618 -3.8392  0.8647 -4.7498
  808SOL     OW 2422   0.463   1.426   0.312 -0.4207  0.6858  0.9030
  808SOL    HW1 2423   0.537   1.470   0.256  1.3363 -1.6963 -0.8505
  808SOL    HW2 2424   0.498   1.398   0.403 -0.1534  0.6437 -0.1544
  809SOL     OW 2425   2.532   0.908   2.314  0.4537  0.0053 -0.0001
  809SOL    HW1 2426   2.579   0.970   2.250  1.6773 -1.8491  3.2155
  809SOL    HW2 2427   2.501   0.955   2.400  0.4004 -0.1628 -2.2220
  810SOL     OW 2428   3.075   0.242   2.286  0.2779  0.1518 -0.2158
  810SOL    HW1 2429   0.045   0.328   2.311 -0.4559 -3.5037  1.0902
  810SOL    HW2 2430   0.047   0.182   2.219  0.4859  0.0446 -3.0049
  811SOL     OW 2431   2.090   2.373   1.613  0.3951 -0.3938  0.0948
  811SOL    HW1 2432   2.072   2.428   1.698  0.5465  0.8268  1.2027
  811SOL    HW2 2433   2.178   2.324   1.617 -3.4939 -0.8850 -0.0633
  812SOL     OW 2434   1.390   0.743   0.150  0.4068  0.1488 -0.2935
  812SOL    HW1 2435   1.366   0.755   0.249 -0.6382 -0.8647 -1.7104
  812SOL    HW2 2436   1.314   0.709   0.093  0.9190 -1.0132  0.4914
  813SOL     OW 2437   1.991   0.443   2.136 -0.1897 -0.0395 -0.3456
  813SOL    HW1 2438   1.891   0.431   2.151  2.2567 -1.7759 -1.7826
  813SOL    HW2 2439   2.022   0.530   2.178  0.2044  1.2873 -0.1291
  814SOL     OW 2440   1.848   1.245   1.299  0.4339  0.2102  0.1202
  814SOL    HW1 2441   1.919   1.213   1.232 -3.7918 -1.0474 -1.8713
  814SOL    HW2 2442   1.757   1.260   1.251 -1.3056  1.0954  2.4631
  815SOL     OW 2443   0.674   1.063   0.576 -0.1020  0.7181  0.1928
  815SOL    HW1 2444   0.696   1.027   0.668  1.2209  0.5764 -3.6730
  815SOL    HW2 2445   0.590   1.024   0.538  2.5419  0.3731  0.2639
  816SOL     OW 2446   1.866   2.327   2.675  0.0964  0.3027 -0.4321
  816SOL    HW1 2447   1.921   2.241   2.683 -2.6141  0.0994 -0.0205
  816SOL    HW2 2448   1.814   2.338   2.585 -1.5633 -0.3805 -3.1637
  817SOL     OW 2449   2.954   2.715   1.041 -0.1131 -0.1199  0.3834
  817SOL    HW1 2450   2.951   2.785   0.966  0.3799 -0.6742  0.7823
  817SOL    HW2 2451   3.046   2.715   1.093  1.6303 -2.7193  0.2967
  818SOL     OW 2452   1.224   0.480   0.017  0.5035 -0.3057  0.1189
  818SOL    HW1 2453   1.136   0.437   3.055 -2.8408 -0.4302  2.5086
  818SOL    HW2 2454   1.301   0.416   0.011 -2.1394 -0.5244  1.9664
  819SOL     OW 2455   0.467   0.913   0.894 -0.1456 -0.1064  0.4926
  819SOL    HW1 2456   0.453   0.832   0.839 -1.0456  0.5127 -0.6506
  819SOL    HW2 2457   0.421   0.901   0.983  1.6492 -0.3588  0.5702
  820SOL     OW 2458   2.166   0.617   1.181 -0.6509 -0.4609 -0.0420
  820SOL    HW1 2459   2.101   0.680   1.135  2.3190 -0.6115 -0.8839
  820SOL    HW2 2460   2.146   0.519   1.165  0.8653  1.1553 -1.7488
  821SOL     OW 2461   2.546   0.092   0.429  0.0040 -0.1821 -0.0775
  821SOL    HW1 2462   2.471   0.084   0.498  1.9111  4.2050  2.1647
  821SOL    HW2 2463   2.574   0.000   0.389 -1.0429 -1.6831  0.0613
  822SOL     OW 2464   0.877   2.629   2.585  0.4285  0.4568 -0.5777
  822SOL    HW1 2465   0.836   2.563   2.520  0.2452  0.6981 -2.5946
  822SOL    HW2 2466   0.809   2.701   2.610 -2.3933  0.4857 -0.3961
  823SOL     OW 2467   0.026   1.536   1.649 -0.5964 -0.2179  0.4815
  823SOL    HW1 2468   3.007   1.553   1.673 -1.0864 -0.0056 -0.7515
  823SOL    HW2 2469   0.030   1.469   1.572 -0.8905  2.9600  1.6747
  824SOL     OW 2470   0.861   2.912   2.285  0.0770  0.4536  0.1573
  824SOL    HW1 2471   0.955   2.884   2.270 -1.7929  1.4306 -1.6420
  824SOL    HW2 2472   0.809   2.825   2.291 -0.8346 -1.2775 -1.2131
  825SOL     OW 2473   1.040   1.798   0.091 -0.3100 -0.6496 -0.2398
  825SOL    HW1 2474   0.944   1.767   0.067 -0.5316 -0.3313 -2.8636
  825SOL    HW2 2475   1.059   1.880   0.032 -1.1419  0.6810  1.4597
  826SOL     OW 2476   1.029   2.639   2.968 -0.6028 -0.1755  0.1970
  826SOL    HW1 2477   1.050   2.621   2.872  0.6475  0.1626  1.5743
  826SOL    HW2 2478   0.929   2.618   2.989 -2.9261 -0.2091  2.5538
  827SOL     OW 2479   0.294   1.939   1.718  0.2740  0.2595 -0.0708
  827SOL    HW1 2480   0.322   1.880   1.796 -1.6480  0.6148 -4.5021
  827SOL    HW2 2481   0.257   2.026   1.753 -0.7137 -1.7188  0.0464
  828SOL     OW 2482   2.951   1.661   1.097 -0.5075 -0.3143  0.2295
  828SOL    HW1 2483   3.049   1.699   1.095  2.2018  2.4475  0.3798
  828SOL    HW2 2484   2.885   1.732   1.062 -0.5308  3.5483  1.3276
  829SOL     OW 2485   2.951   2.596   0.154 -0.2375  0.0578  0.0184
  829SOL    HW1 2486   3.046   2.634   0.163  0.1516  0.1406  0.6660
  829SOL    HW2 2487   2.960   2.499   0.116  1.9037 -4.0657 -0.3782
  830SOL     OW 2488   1.137   0.520   0.636 -0.1092  0.3916 -0.0599
  830SOL    HW1 2489   1.231   0.544   0.669 -0.2998  0.8219  0.1850
  830SOL    HW2 2490   1.103   0.603   0.585 -0.8088  0.3338  1.0300
  831SOL     OW 2491   2.992   2.312   0.124  0.2794 -0.5348 -0.3622
  831SOL    HW1 2492   2.926   2.268   0.060  0.3893 -0.8168  0.3073
  831SOL    HW2 2493   2.983   2.265   0.213  2.4643 -1.2564 -1.3841
  832SOL     OW 2494   1.601   2.371   0.486  0.2540  0.0231  0.2931
  832SOL    HW1 2495   1.687   2.421   0.491 -2.6446 -0.1580  0.1577
  832SOL    HW2 2496   1.586   2.319   0.571 -2.2535 -0.2744 -0.7550
  833SOL     OW 2497   0.566   0.906   2.442  0.3145  0.1956 -0.0052
  833SOL    HW1 2498   0.660   0.874   2.442 -4.6221  0.8282 -1.4452
  833SOL    HW2 2499   0.567   1.006   2.447  2.0833 -0.2073 -1.5307
  834SOL     OW 2500   2.617   0.752   0.713 -0.7428 -0.3705 -0.4691
  834SOL    HW1 2501   2.612   0.652   0.739 -0.8517 -1.1604  0.3130
  834SOL    HW2 2502   2.670   0.802   0.788  0.7224  0.4205 -0.7490
  835SOL     OW 2503   2.509   0.722   1.955 -0.3919 -0.0180  0.2500
  835SOL    HW1 2504   2.446   0.669   1.895  0.5828 -0.6550  0.2065
  835SOL    HW2 2505   2.512   0.683   2.051 -0.1491 -0.8044  3.5884
  836SOL     OW 2506   0.665   1.997   0.660 -0.1007 -0.4403 -0.6988
  836SOL    HW1 2507   0.568   1.984   0.628 -0.9703 -1.3374 -1.0202
  836SOL    HW2 2508   0.684   1.972   0.756  0.3061 -0.8796  0.0096
  837SOL     OW 2509   2.401   1.747   2.187 -0.0164  0.4981 -0.1130
  837SOL    HW1 2510   2.345   1.813   2.139  1.7421 -4.3420 -0.5202
  837SOL    HW2 2511   2.359   1.656   2.177  1.3255  2.5093  0.9004
  838SOL     OW 2512   0.317   1.058   2.282  0.3727 -0.4181  0.4120
  838SOL    HW1 2513   0.226   1.013   2.277  1.0948  2.6611  0.4926
  838SOL    HW2 2514   0.343   1.094   2.188 -3.0537 -0.7866 -1.7443
  839SOL     OW 2515   0.372   3.019   2.904  0.6079  0.4330  0.3467
  839SOL    HW1 2516   0.378   2.943   2.837  0.3566  1.2978  1.0089
  839SOL    HW2 2517   0.343   2.984   2.998 -0.1672 -0.3242  4.5981
  840SOL     OW 2518   2.985   0.832   2.541  0.4268 -0.2032  0.5976
  840SOL    HW1 2519   3.031   0.791   2.625  2.2600 -0.3951  2.5525
  840SOL    HW2 2520   2.885   0.830   2.551 -0.0083  1.3165 -0.6931
  841SOL     OW 2521   0.506   2.188   2.455  0.5204 -0.2607  0.1400
  841SOL    HW1 2522   0.554   2.227   2.540  1.1664 -0.5659  2.0817
  841SOL    HW2 2523   0.543   2.228   2.369 -1.0869 -0.5366  0.5260
  842SOL     OW 2524   0.738   0.180   1.136 -0.2548  0.6023  0.2209
  842SOL    HW1 2525   0.650   0.204   1.180 -1.1999 -0.0797 -0.4528
  842SOL    HW2 2526   0.811   0.198   1.202  0.8597  2.2326  1.0034
  843SOL     OW 2527   0.312   1.600   2.439 -0.0205  0.4383  0.3355
  843SOL    HW1 2528   0.238   1.667   2.448 -1.5577 -0.6477  1.5125
  843SOL    HW2 2529   0.324   1.554   2.524  2.1065  0.1671 -3.1508
  844SOL     OW 2530   1.560   1.893   2.168  0.1194  0.2401  0.4112
  844SOL    HW1 2531   1.504   1.974   2.143 -1.8235 -1.1484 -1.3696
  844SOL    HW2 2532   1.658   1.916   2.178 -1.2066 -1.7403  0.3238
  845SOL     OW 2533   2.311   2.989   2.611  0.5342 -0.0676 -0.0198
  845SOL    HW1 2534   2.412   3.017   2.631 -1.9377 -0.6226  0.6254
  845SOL    HW2 2535   2.293   3.017   2.510  3.5724  1.2274 -3.1697
  846SOL     OW 2536   2.111   1.693   2.899 -0.2046  0.0153 -0.0675
  846SOL    HW1 2537   2.046   1.746   2.835 -2.5068  2.6275 -0.9970
  846SOL    HW2 2538   2.063   1.673   2.987  1.7939  1.0159 -1.6474
  847SOL     OW 2539   2.513   0.210   2.760 -0.6376  0.7253  0.6057
  847SOL    HW1 2540   2.478   0.236   2.671 -2.5789 -1.6860 -1.8394
  847SOL    HW2 2541   2.509   0.106   2.778  1.5692  0.7517 -0.1505
  848SOL     OW 2542   2.466   0.550   0.375  0.1921  0.2760  0.0363
  848SOL    HW1 2543   2.521   0.482   0.326  1.7403  2.5394  1.2722
  848SOL    HW2 2544   2.416   0.512   0.456 -0.7753  0.1918  3.4808
  849SOL     OW 2545   1.247   0.269   2.669 -0.2750 -0.2933  0.1859
  849SOL    HW1 2546   1.287   0.207   2.594 -0.6923 -2.4393 -3.1976
  849SOL    HW2 2547   1.328   0.294   2.731  1.2095 -1.2599 -2.2462
  850SOL     OW 2548   2.396   0.774   0.520  0.4560  0.3402  0.0742
  850SOL    HW1 2549   2.426   0.691   0.464  2.0349 -2.1704  1.2421
  850SOL    HW2 2550   2.465   0.788   0.594 -1.4676  0.0837 -0.7934
  851SOL     OW 2551   0.006   1.073   0.946  0.1041  0.0273 -0.4207
  851SOL    HW1 2552   0.028   0.984   0.892  0.9709 -2.7504 -0.9159
  851SOL    HW2 2553   0.088   1.104   0.997 -0.5133 -0.5963  0.3832
  852SOL     OW 2554   1.284   0.859   2.060 -0.4165  0.4057  0.4507
  852SOL    HW1 2555   1.251   0.953   2.077 -0.2391 -0.0697 -2.2793
  852SOL    HW2 2556   1.217   0.802   2.008  2.4098 -0.9578  1.8883
  853SOL     OW 2557   1.691   1.216   2.812 -0.0637 -0.0389 -0.5058
  853SOL    HW1 2558   1.791   1.223   2.803 -2.5682  0.1634 -0.4287
  853SOL    HW2 2559   1.644   1.190   2.724  0.7640  0.4929  0.1944
  854SOL     OW 2560   1.297   1.157   1.767  0.3831  0.7508  0.2056
  854SOL    HW1 2561   1.335   1.083   1.705  1.7561 -1.7723 -0.2416
  854SOL    HW2 2562   1.196   1.147   1.765 -2.3828 -0.2025  1.8886
  855SOL     OW 2563   0.416   2.344   2.004  0.0291  0.1458  0.5583
  855SOL    HW1 2564   0.374   2.285   1.929 -0.8041  2.0300  1.0248
  855SOL    HW2 2565   0.364   2.429   2.013 -0.1565 -0.5116  3.0550
  856SOL     OW 2566   1.219   1.101   2.394  0.1199 -0.3568 -0.3460
  856SOL    HW1 2567   1.189   1.173   2.462 -2.5079 -1.8667 -1.4299
  856SOL    HW2 2568   1.185   1.121   2.299 -1.0307  2.0472 -1.5839
  857SOL     OW 2569   0.917   1.054   2.450 -0.2965 -0.1992 -0.2529
  857SOL    HW1 2570   0.933   1.086   2.544 -1.6012  0.0127  1.5161
  857SOL    HW2 2571   0.850   0.978   2.432  0.0367  0.5325 -0.8940
  858SOL     OW 2572   0.119   0.403   1.627 -0.1124 -0.4813  0.3143
  858SOL    HW1 2573   0.022   0.380   1.628 -2.3768  2.8916  1.2310
  858SOL    HW2 2574   0.141   0.442   1.719  0.4117  0.1765  1.1266
  859SOL     OW 2575   2.331   2.892   0.985 -0.2501  0.0883  0.3071
  859SOL    HW1 2576   2.389   2.941   1.050 -0.7758  2.7460  0.0456
  859SOL    HW2 2577   2.244   2.876   1.033  0.3044  0.5497 -0.7057
  860SOL     OW 2578   1.397   0.589   1.553 -0.3524  0.5787 -0.2569
  860SOL    HW1 2579   1.367   0.561   1.649 -0.6392  1.8166  1.5212
  860SOL    HW2 2580   1.499   0.584   1.541 -1.3888  2.4336  0.4673
  861SOL     OW 2581   1.880   0.586   1.205 -0.5240 -0.5954  0.0032
  861SOL    HW1 2582   1.863   0.489   1.173  1.0246  0.6957 -0.2824
  861SOL    HW2 2583   1.924   0.592   1.297 -1.2059 -0.3329 -1.0158
  862SOL     OW 2584   1.117   0.139   2.225 -0.3364 -0.3259  0.0654
  862SOL    HW1 2585   1.064   0.172   2.146  0.9079  2.2812  0.0237
  862SOL    HW2 2586   1.064   0.126   2.313  2.8341  0.9155  1.3288
  863SOL     OW 2587   2.690   0.243   1.402  0.1893 -0.4219 -0.3004
  863SOL    HW1 2588   2.679   0.288   1.491  2.5335 -0.7051 -2.7051
  863SOL    HW2 2589   2.778   0.277   1.363  1.2300 -0.0236 -0.5079
  864SOL     OW 2590   2.805   2.917   2.320 -0.3778 -0.1250  0.4004
  864SOL    HW1 2591   2.722   2.857   2.323 -0.4452 -0.5497 -2.8233
  864SOL    HW2 2592   2.805   2.978   2.231  0.4633  1.3498 -0.5195
  865SOL     OW 2593   1.085   1.336   2.561 -0.1737 -0.6216 -0.2976
  865SOL    HW1 2594   1.021   1.284   2.619  1.8639  0.7806 -0.3083
  865SOL    HW2 2595   1.049   1.418   2.514 -1.5891  1.2715  1.4338
  866SOL     OW 2596   2.628   2.647   0.910  0.2865  0.0397  0.0609
  866SOL    HW1 2597   2.704   2.579   0.901  0.5224  0.6100 -0.7007
  866SOL    HW2 2598   2.566   2.620   0.988 -0.4922 -0.9838  0.1615
  867SOL     OW 2599   2.747   2.801   1.264  0.3003 -0.1971  0.3785
  867SOL    HW1 2600   2.783   2.820   1.173  2.4498  0.9624  1.4407
  867SOL    HW2 2601   2.801   2.725   1.304 -2.0033  2.0657 -0.2302
  868SOL     OW 2602   2.812   1.312   1.434  0.2677 -0.0658  0.2386
  868SOL    HW1 2603   2.719   1.346   1.451 -2.7851  1.3937  0.4843
  868SOL    HW2 2604   2.814   1.237   1.365  0.6808  2.5255 -1.2205
  869SOL     OW 2605   2.222   2.102   2.240  0.3260 -0.2699 -0.0692
  869SOL    HW1 2606   2.225   2.192   2.291 -1.0183  2.2880  0.1093
  869SOL    HW2 2607   2.249   2.028   2.307  0.3149  0.5958  0.7979
  870SOL     OW 2608   1.527   0.874   0.763 -0.3892  0.2380  0.0856
  870SOL    HW1 2609   1.538   0.844   0.862 -1.5638 -2.2855  1.5145
  870SOL    HW2 2610   1.496   0.970   0.760 -1.0727  2.7820  0.0071
  871SOL     OW 2611   2.561   1.706   1.911  0.5467 -0.8438 -0.3657
  871SOL    HW1 2612   2.540   1.701   2.011 -0.4480 -0.7192 -1.1409
  871SOL    HW2 2613   2.494   1.749   1.850  1.9381 -1.3222 -1.2252
  872SOL     OW 2614   0.962   1.763   2.683 -0.1783 -0.6088 -0.1385
  872SOL    HW1 2615   1.015   1.715   2.756 -0.8249 -0.7903  1.0941
  872SOL    HW2 2616   0.992   1.860   2.680 -1.6004  0.0964 -0.3390
  873SOL     OW 2617   1.043   1.102   1.697  0.5160 -0.7193 -0.2896
  873SOL    HW1 2618   1.010   1.128   1.789  0.6964  1.3989 -0.3740
  873SOL    HW2 2619   1.045   0.999   1.683 -0.9947  0.5423 -1.8675
  874SOL     OW 2620   1.379   0.805   1.333  0.0628  0.1289 -0.6445
  874SOL    HW1 2621   1.360   0.756   1.420 -3.0854  2.1815 -2.8424
  874SOL    HW2 2622   1.300   0.842   1.284  2.1029 -1.9392 -0.7538
  875SOL     OW 2623   2.569   3.007   2.703  0.3495  0.2142 -0.3274
  875SOL    HW1 2624   2.622   3.039   2.622  1.4671 -0.7435 -1.2932
  875SOL    HW2 2625   2.616   2.933   2.763 -0.9991 -1.8637 -0.1845
  876SOL     OW 2626   0.945   1.008   0.544 -0.4799 -0.5939  0.4063
  876SOL    HW1 2627   0.844   1.023   0.533  0.1141  0.8688  0.6732
  876SOL    HW2 2628   0.993   1.040   0.456  4.4279 -1.6100  1.1837
  877SOL     OW 2629   1.901   2.760   0.480  0.2264  0.5808  0.2004
  877SOL    HW1 2630   1.861   2.803   0.397  4.2678  2.0485 -1.9540
  877SOL    HW2 2631   2.002   2.784   0.480  0.6656  1.8716  0.5365
  878SOL     OW 2632   2.242   2.123   0.279  0.0616 -0.2922 -0.5424
  878SOL    HW1 2633   2.300   2.045   0.245  1.4681  1.6024 -2.1745
  878SOL    HW2 2634   2.175   2.138   0.207  1.0315  0.1304 -1.2055
  879SOL     OW 2635   0.297   2.518   1.575 -0.5077 -0.0004 -0.0717
  879SOL    HW1 2636   0.231   2.497   1.651  0.4130  0.8084 -0.0333
  879SOL    HW2 2637   0.271   2.462   1.494  0.8825 -0.4427  0.2526
  880SOL     OW 2638   0.240   1.662   0.848  0.3405  0.5207  0.1626
  880SOL    HW1 2639   0.194   1.743   0.887 -0.5415 -0.0624 -1.6841
  880SOL    HW2 2640   0.321   1.699   0.792  3.5555 -0.0448 -3.9854
  881SOL     OW 2641   1.331   0.134   2.439 -0.0194  0.5365 -0.1826
  881SOL    HW1 2642   1.242   0.085   2.421  2.2112 -1.3743 -0.1573
  881SOL    HW2 2643   1.339   0.232   2.409  0.2097  1.1048  0.6031
  882SOL     OW 2644   2.435   1.310   0.458  0.3664  0.3456  0.4111
  882SOL    HW1 2645   2.425   1.239   0.531  0.1107 -0.8383  0.1590
  882SOL    HW2 2646   2.480   1.390   0.491 -0.9250 -3.3008 -2.1141
  883SOL     OW 2647   1.318   0.692   2.267  0.2925  0.6442 -0.5544
  883SOL    HW1 2648   1.301   0.738   2.357 -0.7196  0.4762  0.1885
  883SOL    HW2 2649   1.291   0.749   2.189 -1.5740 -1.1562  0.8369
  884SOL     OW 2650   0.170   0.030   1.884  0.1447  0.2135 -0.0758
  884SOL    HW1 2651   0.111   0.061   1.804 -0.3936  2.1229 -2.5696
  884SOL    HW2 2652   0.263   0.066   1.857  0.9720  1.9803  1.6034
  885SOL     OW 2653   2.154   1.412   2.560  0.9719  0.1124  0.3620
  885SOL    HW1 2654   2.100   1.491   2.525 -2.4070 -2.2107  0.5394
  885SOL    HW2 2655   2.111   1.323   2.535 -1.5077  1.5568 -0.0884
  886SOL     OW 2656   1.643   0.167   2.657 -0.6394 -0.7651 -0.3114
  886SOL    HW1 2657   1.638   0.264   2.628 -1.1264  2.2051 -4.3854
  886SOL    HW2 2658   1.690   0.146   2.745 -1.6802  0.0189  3.8140
  887SOL     OW 2659   0.984   2.742   1.550 -0.7333  0.4409 -0.2952
  887SOL    HW1 2660   1.062   2.793   1.594 -0.3194  0.1400 -2.7729
  887SOL    HW2 2661   0.993   2.641   1.572 -0.1382  1.4949 -0.8632
  888SOL     OW 2662   2.337   1.317   1.639  0.9576  0.1427  0.0571
  888SOL    HW1 2663   2.296   1.384   1.579 -0.7196 -0.3740 -0.0425
  888SOL    HW2 2664   2.359   1.352   1.728 -0.6487 -2.9464 -1.2546
  889SOL     OW 2665   2.106   2.632   1.419  0.4608  0.8359 -0.0095
  889SOL    HW1 2666   2.147   2.581   1.338 -0.3542 -0.7536 -0.7354
  889SOL    HW2 2667   2.061   2.568   1.481 -0.7736  1.1109  0.0032
  890SOL     OW 2668   0.975   2.287   1.023  0.0531  0.4893 -0.0867
  890SOL    HW1 2669   1.035   2.209   1.023  1.5991  0.5824  0.4556
  890SOL    HW2 2670   1.021   2.363   1.075 -0.6802 -0.5158  0.9712
  891SOL     OW 2671   2.592   1.372   0.086 -0.4330 -0.7576  0.0578
  891SOL    HW1 2672   2.546   1.448   0.031 -0.8329  0.3556 -2.2596
  891SOL    HW2 2673   2.636   1.415   0.170  0.1528  2.9855  0.5105
  892SOL     OW 2674   2.553   1.722   2.528  0.4255  0.5768 -0.4141
  892SOL    HW1 2675   2.464   1.700   2.482  2.0835  0.4290 -1.2584
  892SOL    HW2 2676   2.632   1.691   2.472  0.1697  0.4403 -1.3577
  893SOL     OW 2677   2.417   2.657   1.096 -0.0285 -0.1437  0.8741
  893SOL    HW1 2678   2.409   2.751   1.046  0.7333  2.6342 -1.7378
  893SOL    HW2 2679   2.327   2.630   1.130  0.4076 -0.2249 -0.7838
  894SOL     OW 2680   2.872   0.755   0.538  0.1502 -0.2098  0.4221
  894SOL    HW1 2681   2.806   0.723   0.610 -1.1099 -2.2108 -1.4940
  894SOL    HW2 2682   2.946   0.691   0.528  0.3991 -0.4379 -0.3150
  895SOL     OW 2683   2.695   2.451   2.451  0.0118 -0.1506 -0.4763
  895SOL    HW1 2684   2.711   2.506   2.367 -0.6980  0.1164  0.9091
  895SOL    HW2 2685   2.728   2.500   2.533 -0.4964  2.6470  0.2300
  896SOL     OW 2686   2.257   2.539   2.532  0.4584 -0.2723  0.0872
  896SOL    HW1 2687   2.343   2.586   2.517 -2.3548 -0.7679 -0.7459
  896SOL    HW2 2688   2.260   2.469   2.603  0.5862  0.9055 -2.2261
  897SOL     OW 2689   0.404   1.785   1.902 -0.7486 -0.2208  0.4665
  897SOL    HW1 2690   0.354   1.696   1.885  1.0050  0.9400  1.6679
  897SOL    HW2 2691   0.504   1.767   1.909 -0.0042 -0.5954 -2.2429
  898SOL     OW 2692   0.131   2.025   2.063 -0.2566 -0.2835  0.3241
  898SOL    HW1 2693   0.091   1.928   2.055 -0.3431 -2.2145 -0.7772
  898SOL    HW2 2694   0.065   2.086   2.103  0.8994 -1.4466 -0.7464
  899SOL     OW 2695   1.900   3.072   1.449  0.0992  0.2026 -0.8544
  899SOL    HW1 2696   1.885   3.022   1.538  0.3124  1.8699 -1.6379
  899SOL    HW2 2697   1.998   3.075   1.427  0.5742 -0.1392  3.1760
  900SOL     OW 2698   1.477   1.052   0.458  0.0007 -0.2188 -0.3460
  900SOL    HW1 2699   1.535   1.130   0.487 -4.6291 -0.2570 -1.5840
  900SOL    HW2 2700   1.520   1.008   0.374 -1.4035  0.7612 -0.1305
  901SOL     OW 2701   1.349   1.282   2.670 -0.2522  0.5601  0.6517
  901SOL    HW1 2702   1.247   1.288   2.666  0.5748 -0.3807  1.3237
  901SOL    HW2 2703   1.389   1.364   2.624 -1.1652 -2.6248 -1.2729
  902SOL     OW 2704   2.841   2.240   0.931  0.2794  0.6575  0.6385
  902SOL    HW1 2705   2.881   2.334   0.930  0.8714 -0.9949  2.4567
  902SOL    HW2 2706   2.858   2.193   1.021  2.6464 -1.8732 -0.7878
  903SOL     OW 2707   3.051   1.273   1.751  0.5070  0.3107 -0.2717
  903SOL    HW1 2708   3.003   1.346   1.704 -1.2656 -0.1577  2.0297
  903SOL    HW2 2709   3.077   1.304   1.845 -1.4947 -4.1324 -0.1218
  904SOL     OW 2710   1.128   1.499   0.199 -0.2091 -0.2439 -0.2249
  904SOL    HW1 2711   1.089   1.456   0.114  1.1226 -2.6070  0.5849
  904SOL    HW2 2712   1.199   1.570   0.183  0.2495  0.0588 -2.2251
  905SOL     OW 2713   2.538   2.436   1.516  0.1260 -0.2438  0.6849
  905SOL    HW1 2714   2.543   2.536   1.529 -0.3272 -3.3389  1.2259
  905SOL    HW2 2715   2.614   2.397   1.569 -2.3931 -2.7367 -2.7388
  906SOL     OW 2716   1.848   2.686   2.892  0.3415  0.3751  0.1709
  906SOL    HW1 2717   1.792   2.604   2.928 -2.2500 -1.2079  2.1233
  906SOL    HW2 2718   1.895   2.749   2.961  0.7561  0.9432  4.0741
  907SOL     OW 2719   0.369   2.808   1.031  0.1742 -0.0638  0.4809
  907SOL    HW1 2720   0.432   2.845   1.102 -1.1775 -2.1194 -1.9837
  907SOL    HW2 2721   0.413   2.790   0.943 -2.4822  0.5961  1.5320
  908SOL     OW 2722   0.649   0.111   1.880  0.0320 -0.5750  0.0014
  908SOL    HW1 2723   0.689   0.065   1.960 -1.9348  1.4156 -0.1633
  908SOL    HW2 2724   0.645   0.051   1.796 -1.7421  1.2764  0.7417
  909SOL     OW 2725   1.836   0.334   1.408  0.1845 -0.2336 -0.1521
  909SOL    HW1 2726   1.925   0.375   1.428  1.5529  2.3536  0.1015
  909SOL    HW2 2727   1.846   0.256   1.344  0.7777  0.8875 -0.5470
  910SOL     OW 2728   0.673   0.494   0.249  0.7235  0.9446 -0.2188
  910SOL    HW1 2729   0.690   0.540   0.337  2.9116 -0.9134 -2.0595
  910SOL    HW2 2730   0.573   0.462   0.242 -3.0056 -3.3424  0.6854
  911SOL     OW 2731   0.315   0.189   2.863  0.2220  0.4671 -0.2892
  911SOL    HW1 2732   0.219   0.184   2.846  0.8820  0.9003 -0.8067
  911SOL    HW2 2733   0.352   0.095   2.875  1.0366  1.4282 -1.5110
  912SOL     OW 2734   2.804   2.527   2.721 -0.0067 -0.2805 -0.5444
  912SOL    HW1 2735   2.897   2.564   2.749  1.8493 -0.2314 -0.2160
  912SOL    HW2 2736   2.751   2.499   2.804 -0.8561 -3.2326  0.4693
  913SOL     OW 2737   2.476   2.365   0.124  0.0446  0.7541  0.3981
  913SOL    HW1 2738   2.382   2.337   0.100  0.1248 -1.0867 -1.1734
  913SOL    HW2 2739   2.487   2.407   0.220 -0.7785 -1.2179  1.4042
  914SOL     OW 2740   1.452   1.691   2.023  0.0148  0.3444 -0.1923
  914SOL    HW1 2741   1.492   1.606   2.058  0.9020 -0.0304 -0.1615
  914SOL    HW2 2742   1.495   1.766   2.076 -1.1326  3.0119 -2.2776
  915SOL     OW 2743   2.845   2.561   2.217 -0.1907  0.2037  0.3134
  915SOL    HW1 2744   2.925   2.607   2.177 -2.7688  0.3567 -0.4426
  915SOL    HW2 2745   2.757   2.589   2.166 -6.0724  3.4688  1.0874
  916SOL     OW 2746   0.031   0.620   1.969 -0.6544  0.0835  0.0304
  916SOL    HW1 2747   0.088   0.696   1.999 -0.8712  0.5769 -1.9451
  916SOL    HW2 2748   0.086   0.547   1.923  1.6883 -1.0427 -0.7074
  917SOL     OW 2749   1.798   0.278   2.915 -0.5765 -0.0609  0.1390
  917SOL    HW1 2750   1.776   0.265   3.016 -1.9942 -0.5902  1.1116
  917SOL    HW2 2751   1.721   0.317   2.859 -2.5313  0.7114 -3.0032
  918SOL     OW 2752   1.855   2.487   2.137 -0.2583  0.2252 -0.2746
  918SOL    HW1 2753   1.848   2.507   2.239  0.1958 -1.8934  1.5259
  918SOL    HW2 2754   1.935   2.426   2.121 -1.4982  0.2344  0.5665
  919SOL     OW 2755   1.883   2.163   1.825 -0.0052 -0.7061 -0.2667
  919SOL    HW1 2756   1.916   2.098   1.759 -0.4656  2.7048  0.2258
  919SOL    HW2 2757   1.847   2.242   1.774  1.9725  1.5422 -5.0328
  920SOL     OW 2758   0.302   0.990   0.119  0.1988  0.0544 -0.1077
  920SOL    HW1 2759   0.317   0.894   0.148  1.0163  2.1944 -2.6461
  920SOL    HW2 2760   0.229   1.038   0.170  0.0134 -0.9442 -1.3081
  921SOL     OW 2761   2.713   1.312   2.477 -0.7572  0.0750  0.0485
  921SOL    HW1 2762   2.656   1.344   2.400  1.2598  1.4200  1.8209
  921SOL    HW2 2763   2.776   1.236   2.441  1.8701 -1.4217  0.7019
  922SOL     OW 2764   0.508   1.826   0.242  0.4002  0.0307 -0.0201
  922SOL    HW1 2765   0.512   1.801   0.142 -0.8485  0.5821 -1.3255
  922SOL    HW2 2766   0.438   1.773   0.286 -1.3844  0.7326 -0.1960
  923SOL     OW 2767   0.614   0.913   2.044 -0.2625 -0.0228  0.0288
  923SOL    HW1 2768   0.673   0.904   1.963  0.0470  0.8970 -1.0981
  923SOL    HW2 2769   0.640   0.844   2.115 -1.0177 -0.6083  1.3794
  924SOL     OW 2770   0.696   2.446   2.781  0.5240  0.1002 -0.1509
  924SOL    HW1 2771   0.796   2.435   2.794 -1.8844  1.9894 -1.2172
  924SOL    HW2 2772   0.674   2.536   2.821 -1.5245 -3.1747 -1.5632
  925SOL     OW 2773   1.665   1.477   0.928  0.2028  0.2685 -0.1926
  925SOL    HW1 2774   1.659   1.377   0.907  0.5776 -0.1736 -0.2435
  925SOL    HW2 2775   1.601   1.528   0.864  1.4851  0.1030 -0.4743
  926SOL     OW 2776   1.535   0.558   2.346  0.2731 -0.6305 -0.1376
  926SOL    HW1 2777   1.468   0.624   2.308  2.3748 -3.9316 -0.3131
  926SOL    HW2 2778   1.616   0.609   2.385  0.2601  0.2667  0.0408
  927SOL     OW 2779   2.644   2.631   2.065  0.0005 -0.4884  0.0989
  927SOL    HW1 2780   2.605   2.558   2.006  1.4591 -0.8613 -0.9621
  927SOL    HW2 2781   2.668   2.714   2.011 -0.6510 -1.1726 -0.2876
  928SOL     OW 2782   0.214   1.040   2.940 -0.2215 -0.3589 -0.1333
  928SOL    HW1 2783   0.117   1.068   2.964 -1.2269  0.1473 -0.0176
  928SOL    HW2 2784   0.262   1.026   3.025 -1.5757  0.4218  0.3196
  929SOL     OW 2785   0.028   0.117   0.694 -0.3225  0.3526 -0.0571
  929SOL    HW1 2786   0.127   0.106   0.689  0.4873  1.1481  1.6995
  929SOL    HW2 2787   3.070   0.035   0.741  2.1804 -1.5591 -1.1255
  930SOL     OW 2788   2.273   0.155   1.990  0.2031  0.1020  0.1388
  930SOL    HW1 2789   2.240   0.064   1.962 -1.4415  2.2632  0.3095
  930SOL    HW2 2790   2.311   0.200   1.904 -1.1986 -0.2411 -2.5639
  931SOL     OW 2791   2.206   1.233   0.073  0.0922 -0.2104 -0.0019
  931SOL    HW1 2792   2.116   1.197   0.052  0.4611 -0.0036  2.4537
  931SOL    HW2 2793   2.269   1.254   3.068  0.2770 -0.9842 -4.3047
  932SOL     OW 2794   2.675   1.269   1.780 -0.3290 -0.3240 -0.3792
  932SOL    HW1 2795   2.745   1.344   1.784  1.7177 -0.6392  0.3802
  932SOL    HW2 2796   2.715   1.180   1.765 -3.5303  0.0436  1.2967
  933SOL     OW 2797   2.927   2.489   1.641 -0.3212 -0.3697  0.0678
  933SOL    HW1 2798   3.004   2.460   1.703 -2.5347  0.1358 -1.1418
  933SOL    HW2 2799   2.882   2.572   1.679 -0.0210  1.1011 -4.4195
  934SOL     OW 2800   0.611   2.881   1.214 -0.0102 -0.2324 -0.2816
  934SOL    HW1 2801   0.667   2.824   1.151  2.6702  1.8031  0.3104
  934SOL    HW2 2802   0.619   2.849   1.313 -0.2584  0.8500  0.4353
  935SOL     OW 2803   2.662   1.094   2.159 -0.0191  0.1899  0.5222
  935SOL    HW1 2804   2.723   1.114   2.239  0.3930 -0.0081 -0.2289
  935SOL    HW2 2805   2.637   1.184   2.124 -1.2137 -2.1726  1.5997
  936SOL     OW 2806   2.266   1.043   1.839 -0.1655 -0.1382 -0.1632
  936SOL    HW1 2807   2.270   1.062   1.739  1.9301 -0.1372 -1.8821
  936SOL    HW2 2808   2.359   1.034   1.879 -1.5056  3.7532  1.4660
  937SOL     OW 2809   1.874   1.018   2.112  0.3859  0.3431  0.3201
  937SOL    HW1 2810   1.796   1.066   2.070  0.9400  1.7667 -0.7054
  937SOL    HW2 2811   1.863   0.913   2.122 -0.2747 -5.1690  1.1614
  938SOL     OW 2812   0.780   2.640   0.023  0.1380  0.4650 -0.0578
  938SOL    HW1 2813   0.759   2.542   0.043  0.6271 -1.3169 -1.5564
  938SOL    HW2 2814   0.772   2.708   0.095 -0.8664  0.3428 -0.2668
  939SOL     OW 2815   2.339   0.670   0.129 -0.5928  0.1224  0.5751
  939SOL    HW1 2816   2.298   0.763   0.150  1.2023 -2.1170  0.7889
  939SOL    HW2 2817   2.404   0.647   0.205 -1.1810  2.6305  1.9092
  940SOL     OW 2818   1.082   2.056   0.890  0.1390  0.0324  0.2941
  940SOL    HW1 2819   1.071   1.979   0.956  1.6194 -0.8438  0.3536
  940SOL    HW2 2820   1.017   2.043   0.808 -2.1796  0.0100 -3.7382
  941SOL     OW 2821   0.995   2.009   1.596  0.2251 -0.2455  0.1738
  941SOL    HW1 2822   0.914   2.029   1.540 -0.2765  0.6756 -1.0139
  941SOL    HW2 2823   1.007   1.910   1.602 -1.1263 -0.4981 -0.8174
  942SOL     OW 2824   0.320   1.982   2.971  0.2475  0.0171 -0.0900
  942SOL    HW1 2825   0.343   1.954   2.877 -0.9848 -1.6664  3.4895
  942SOL    HW2 2826   0.228   2.033   2.964 -1.8783  1.2910  0.7786
  943SOL     OW 2827   2.187   3.000   1.873  0.5539  0.3953 -0.4034
  943SOL    HW1 2828   2.123   2.917   1.888 -0.5085  0.2229  0.6339
  943SOL    HW2 2829   2.210   3.016   1.776 -1.4707  2.6980  1.9060
  944SOL     OW 2830   1.440   1.971   2.858 -0.3724 -0.3556 -0.0456
  944SOL    HW1 2831   1.530   1.966   2.905 -1.5478  2.0595  1.6775
  944SOL    HW2 2832   1.378   2.047   2.889 -1.9486 -1.1238  1.5051
  945SOL     OW 2833   2.438   2.520   0.673  0.1653 -0.2961  0.0475
  945SOL    HW1 2834   2.496   2.463   0.733 -1.3043  2.6073 -0.7683
  945SOL    HW2 2835   2.473   2.613   0.676 -1.0387 -1.3310  0.8323
  946SOL     OW 2836   1.045   1.589   2.469 -0.3982 -0.4290 -0.5022
  946SOL    HW1 2837   1.039   1.628   2.375  0.9006 -0.0734 -0.2695
  946SOL    HW2 2838   0.997   1.643   2.533 -0.3829 -2.8152 -4.1192
  947SOL     OW 2839   0.255   0.491   1.847 -0.0356  0.1271  0.6099
  947SOL    HW1 2840   0.346   0.535   1.834  1.2273  0.8476 -1.0734
  947SOL    HW2 2841   0.262   0.412   1.916  1.4569 -1.2478 -1.0948
  948SOL     OW 2842   2.823   1.172   0.934 -0.0898  0.3316 -0.8540
  948SOL    HW1 2843   2.912   1.132   0.919 -0.8603 -1.3015 -0.3245
  948SOL    HW2 2844   2.750   1.104   0.924  1.3820  1.1228  0.2562
  949SOL     OW 2845   0.786   0.754   2.169  0.8960  0.3081 -0.1882
  949SOL    HW1 2846   0.773   0.659   2.149  1.6695  0.7040  1.1289
  949SOL    HW2 2847   0.868   0.779   2.116 -3.3613  1.9988  1.0135
  950SOL     OW 2848   0.219   0.644   1.481 -0.1798  0.5823 -0.0709
  950SOL    HW1 2849   0.140   0.711   1.500 -0.4477  1.5282  1.1477
  950SOL    HW2 2850   0.217   0.564   1.549 -0.0056  0.4322  3.2561
  951SOL     OW 2851   0.403   1.194   2.798 -0.2949  0.1480 -0.2685
  951SOL    HW1 2852   0.376   1.187   2.699 -1.0501  2.4739  0.6539
  951SOL    HW2 2853   0.330   1.176   2.864  1.4121 -0.6009 -2.1647
  952SOL     OW 2854   1.768   2.112   0.831 -0.2414 -0.2986  0.2236
  952SOL    HW1 2855   1.714   2.078   0.908 -0.3193  1.2359  1.9728
  952SOL    HW2 2856   1.852   2.158   0.867  0.0442 -1.1739  0.5348
  953SOL     OW 2857   0.351   0.136   0.197  0.4156  0.0242 -0.0394
  953SOL    HW1 2858   0.385   0.149   0.293  4.1232 -0.9888  3.2143
  953SOL    HW2 2859   0.262   0.178   0.177  0.4961 -1.2754  1.1463
  954SOL     OW 2860   2.436   0.747   1.198 -0.2509  0.7082 -0.2839
  954SOL    HW1 2861   2.360   0.677   1.198  0.7339  0.6174 -1.5933
  954SOL    HW2 2862   2.514   0.713   1.252 -1.2394  0.3414  0.1504
  955SOL     OW 2863   1.532   1.411   2.946 -0.3907 -0.2479  0.1316
  955SOL    HW1 2864   1.600   1.345   2.921 -1.1360  0.9199  1.8173
  955SOL    HW2 2865   1.450   1.365   2.979  3.5026  1.4696 -2.6847
  956SOL     OW 2866   1.077   0.735   2.542 -0.2271  0.2088 -0.2215
  956SOL    HW1 2867   1.160   0.791   2.529  0.0687 -1.1388 -1.5020
  956SOL    HW2 2868   1.086   0.640   2.505 -0.2852 -0.3956  0.3583
  957SOL     OW 2869   1.398   0.182   1.755 -0.3597 -0.0249  0.1289
  957SOL    HW1 2870   1.399   0.130   1.842 -1.3396 -0.6097 -1.9814
  957SOL    HW2 2871   1.490   0.186   1.711 -1.3741  2.4743  1.8584
  958SOL     OW 2872   0.351   2.071   0.532  0.4218  0.6478  0.2324
  958SOL    HW1 2873   0.419   2.087   0.463 -0.8134  2.6288  1.2448
  958SOL    HW2 2874   0.259   2.096   0.495  1.2149 -0.3855 -1.2536
  959SOL     OW 2875   1.944   0.813   1.781  0.1294  0.3178 -0.1181
  959SOL    HW1 2876   2.022   0.824   1.846  1.9611 -1.0874 -1.4489
  959SOL    HW2 2877   1.930   0.714   1.769  1.0086  1.3884  0.8174
  960SOL     OW 2878   0.133   1.760   2.914 -0.1694  0.4017  0.3174
  960SOL    HW1 2879   0.210   1.808   2.866  0.5444 -0.0499  1.2528
  960SOL    HW2 2880   0.148   1.776   3.013 -0.3514 -1.8146 -0.7129
  961SOL     OW 2881   0.787   1.936   0.899 -0.0069 -0.2764 -0.4878
  961SOL    HW1 2882   0.768   2.031   0.937  0.3191  0.0911 -0.9349
  961SOL    HW2 2883   0.844   1.887   0.966 -1.6828 -0.9075  1.0091
  962SOL     OW 2884   0.288   1.558   1.308 -0.2194 -0.2007 -0.1617
  962SOL    HW1 2885   0.263   1.544   1.211  0.5691  0.0354  0.6100
  962SOL    HW2 2886   0.217   1.517   1.369 -0.0265 -0.9446  0.8041
  963SOL     OW 2887   1.443   2.029   2.587 -0.0349 -0.4118  0.2398
  963SOL    HW1 2888   1.427   1.943   2.534 -0.8900 -2.4097  1.8985
  963SOL    HW2 2889   1.452   2.015   2.688 -0.4184  1.2399  0.7221
  964SOL     OW 2890   0.243   2.900   2.241 -0.2541 -0.2852  0.2937
  964SOL    HW1 2891   0.155   2.859   2.283 -2.1461 -1.7740  1.5536
  964SOL    HW2 2892   0.323   2.869   2.293  0.3497  0.4607  0.1364
  965SOL     OW 2893   3.062   2.299   2.872  0.5736  0.2239  0.1577
  965SOL    HW1 2894   2.973   2.295   2.922 -0.1481 -0.8569  1.7069
  965SOL    HW2 2895   3.041   2.269   2.773 -1.1515 -0.5750  0.8278
  966SOL     OW 2896   2.817   1.727   2.658  0.1267 -0.2163  0.2458
  966SOL    HW1 2897   2.717   1.751   2.653 -1.0489 -0.1346  2.4324
  966SOL    HW2 2898   2.829   1.670   2.740 -1.3857  2.0010 -1.3516
  967SOL     OW 2899   1.730   0.266   0.102 -0.1199 -0.9165  0.5298
  967SOL    HW1 2900   1.707   0.368   0.106 -0.1857 -0.6133  0.3482
  967SOL    HW2 2901   1.689   0.214   0.179  0.2029  0.2553 -1.3524
  968SOL     OW 2902   2.601   3.056   0.816 -0.3212  0.1595 -0.1312
  968SOL    HW1 2903   2.669   3.061   0.892  1.0618  0.4202 -1.2226
  968SOL    HW2 2904   2.514   0.012   0.846  2.2410 -0.1124 -0.6819
  969SOL     OW 2905   0.342   0.986   2.014  0.0475  0.2950 -0.1231
  969SOL    HW1 2906   0.302   1.030   1.931 -3.3691  0.9844 -2.3545
  969SOL    HW2 2907   0.443   0.963   2.007  2.4575  0.8012  2.0924
  970SOL     OW 2908   1.583   1.670   2.838 -0.0995  0.4958 -0.3701
  970SOL    HW1 2909   1.573   1.576   2.886  1.1555 -3.9829 -1.2466
  970SOL    HW2 2910   1.615   1.739   2.901  0.6019 -1.2124  0.5894
  971SOL     OW 2911   2.364   0.181   1.732 -0.1750  0.3980  0.3084
  971SOL    HW1 2912   2.263   0.198   1.716  1.1814 -0.3384  0.9728
  971SOL    HW2 2913   2.398   0.107   1.669 -0.3446 -0.1190 -0.5668
  972SOL     OW 2914   2.921   0.286   0.821  0.5898 -0.0897 -0.1531
  972SOL    HW1 2915   2.835   0.249   0.776  0.9378 -1.9372 -1.3077
  972SOL    HW2 2916   2.997   0.249   0.766 -0.4739  0.7489 -2.2259
  973SOL     OW 2917   0.396   0.479   2.442 -0.3340  0.2809  0.2076
  973SOL    HW1 2918   0.307   0.449   2.402  1.9947 -1.0007 -1.2712
  973SOL    HW2 2919   0.402   0.460   2.539 -0.0563  2.5914 -1.5088
  974SOL     OW 2920   2.761   1.027   1.773  0.4247  0.8244 -0.2906
  974SOL    HW1 2921   2.670   1.003   1.818 -0.8932  0.0973  0.1473
  974SOL    HW2 2922   2.829   0.980   1.830  0.8563 -0.4376 -1.9988
  975SOL     OW 2923   1.178   2.661   1.834  0.2513 -0.2323 -0.4587
  975SOL    HW1 2924   1.180   2.738   1.761  0.3030  3.2346  1.1964
  975SOL    HW2 2925   1.145   2.571   1.796 -0.3284  0.8983  2.5391
  976SOL     OW 2926   1.600   1.519   1.383 -0.3146 -0.4442  0.5668
  976SOL    HW1 2927   1.629   1.615   1.370  1.3054  1.8674  0.2137
  976SOL    HW2 2928   1.622   1.480   1.471 -1.4010 -2.5536  0.8201
  977SOL     OW 2929   0.291   2.984   0.074 -0.2046 -0.1073  0.0289
  977SOL    HW1 2930   0.323   3.067   0.125  1.1137  0.5946 -0.3785
  977SOL    HW2 2931   0.279   2.908   0.139  0.2623  0.2857  2.6084
  978SOL     OW 2932   1.992   1.538   2.145  0.1795  0.4745  0.2589
  978SOL    HW1 2933   2.091   1.549   2.128  1.6885  2.6979  1.3898
  978SOL    HW2 2934   1.956   1.461   2.088  0.4582  0.7029 -2.1837
  979SOL     OW 2935   1.545   0.755   2.046  0.3702 -0.3982  0.1529
  979SOL    HW1 2936   1.442   0.770   2.054 -0.8022  0.5579  1.7829
  979SOL    HW2 2937   1.576   0.820   1.974 -0.6851 -0.2599  0.3803
  980SOL     OW 2938   1.795   1.846   2.371 -0.0254  0.2588  0.0596
  980SOL    HW1 2939   1.845   1.936   2.381  2.6801  0.1879 -0.8917
  980SOL    HW2 2940   1.711   1.836   2.433 -2.7200 -0.9020  1.3480
  981SOL     OW 2941   1.654   0.511   1.964 -0.3733  0.1809  0.1946
  981SOL    HW1 2942   1.587   0.439   1.994 -0.4559  0.0171  1.5047
  981SOL    HW2 2943   1.625   0.609   1.986 -1.3399 -2.0718  1.4885
  982SOL     OW 2944   0.364   0.522   0.203  0.0344  0.5350  0.6398
  982SOL    HW1 2945   0.334   0.448   0.265 -0.7619 -0.6628  2.4827
  982SOL    HW2 2946   0.358   0.492   0.105 -1.4608 -0.6139  0.2242
  983SOL     OW 2947   2.098   0.889   0.049 -0.2999 -0.1124  0.1635
  983SOL    HW1 2948   2.180   0.901   0.107  1.3150  1.8046  0.4810
  983SOL    HW2 2949   2.131   0.859   3.036  1.5978  2.3087  1.5194
  984SOL     OW 2950   0.811   0.247   2.730 -0.1984  0.2589 -0.0292
  984SOL    HW1 2951   0.831   0.275   2.635 -2.0560  1.0216 -2.7590
  984SOL    HW2 2952   0.897   0.221   2.781  0.6527  2.8832  2.5032
  985SOL     OW 2953   1.501   2.120   2.036 -0.3692 -0.0071 -0.4976
  985SOL    HW1 2954   1.526   2.096   1.940 -0.9544  2.0953 -2.1087
  985SOL    HW2 2955   1.572   2.178   2.077  0.1032  0.7843  0.3225
  986SOL     OW 2956   2.370   2.657   1.879 -0.6641 -0.5900  0.1917
  986SOL    HW1 2957   2.392   2.750   1.909 -0.9499  0.5067 -1.9598
  986SOL    HW2 2958   2.309   2.620   1.955  1.0065  0.5591  1.8633
  987SOL     OW 2959   1.813   1.096   0.820  0.3656 -0.6505  0.1555
  987SOL    HW1 2960   1.785   1.038   0.898  2.3387  2.0601  0.0659
  987SOL    HW2 2961   1.733   1.157   0.792 -0.2066 -0.5007 -3.4086
  988SOL     OW 2962   2.668   1.340   2.064 -0.2226 -0.3860 -0.3299
  988SOL    HW1 2963   2.767   1.359   2.083  0.2422 -2.6167 -0.9873
  988SOL    HW2 2964   2.655   1.332   1.961 -0.4030 -2.5801 -3.2570
  989SOL     OW 2965   1.541   2.236   0.258  0.4330 -0.1747 -0.3625
  989SOL    HW1 2966   1.498   2.288   0.179  2.4012 -0.0889 -0.6710
  989SOL    HW2 2967   1.539   2.296   0.341 -0.4824 -0.9775  0.1659
  990SOL     OW 2968   1.838   0.832   2.602  0.9252 -0.2720 -0.2796
  990SOL    HW1 2969   1.742   0.860   2.614  1.0671 -0.2417  1.0965
  990SOL    HW2 2970   1.874   0.788   2.688  0.9652 -0.0812  0.1003
  991SOL     OW 2971   0.899   0.627   0.747  0.2165  0.3308 -0.0646
  991SOL    HW1 2972   0.942   0.694   0.817  3.5090  1.2647 -0.7323
  991SOL    HW2 2973   0.948   0.542   0.740  1.2615 -0.5005  0.2254
  992SOL     OW 2974   3.040   0.881   1.198 -0.7909  0.2154  0.4982
  992SOL    HW1 2975   2.979   0.961   1.191 -1.8605 -1.1496 -0.7367
  992SOL    HW2 2976   3.005   0.806   1.137 -1.8694 -0.6609 -1.3460
  993SOL     OW 2977   2.311   0.588   1.830  0.2423  0.1790 -0.7693
  993SOL    HW1 2978   2.226   0.537   1.835 -0.0874  3.3928 -0.3773
  993SOL    HW2 2979   2.363   0.572   1.743  2.5016 -0.2947 -1.3149
  994SOL     OW 2980   1.048   1.516   1.736  0.0944  0.1126  0.3799
  994SOL    HW1 2981   1.127   1.529   1.802 -0.4394 -0.4257  2.2001
  994SOL    HW2 2982   0.972   1.481   1.793 -0.1098  0.1816 -0.0752
  995SOL     OW 2983   2.173   1.426   2.834  0.0767 -0.0580 -0.0057
  995SOL    HW1 2984   2.186   1.416   2.732  1.7797 -1.4681 -1.0570
  995SOL    HW2 2985   2.151   1.520   2.863 -0.9772 -1.5317  0.2713
  996SOL     OW 2986   1.924   1.900   0.439  0.6363 -0.4192  0.1147
  996SOL    HW1 2987   1.881   1.983   0.481  0.0195 -0.3558 -1.5035
  996SOL    HW2 2988   2.018   1.876   0.475 -1.9971 -1.3419 -1.6462
  997SOL     OW 2989   2.062   0.425   1.837 -0.9876 -0.4617  0.0598
  997SOL    HW1 2990   2.051   0.429   1.937 -1.2079  1.9416  1.9760
  997SOL    HW2 2991   2.081   0.334   1.799  1.6483 -0.5515  0.0468
  998SOL     OW 2992   2.403   1.107   0.614 -0.2898 -0.0330 -0.3194
  998SOL    HW1 2993   2.472   1.087   0.686  0.8400 -0.1468  0.3781
  998SOL    HW2 2994   2.317   1.061   0.635  4.4911  2.3255 -1.9019
  999SOL     OW 2995   2.724   1.448   0.300  0.0056 -0.4981 -0.4721
  999SOL    HW1 2996   2.699   1.538   0.340 -1.4008 -1.4430  2.6222
  999SOL    HW2 2997   2.765   1.386   0.371  0.2810  1.5541  1.3437
 1000SOL     OW 2998   0.794   0.884   1.841  0.6254  0.2042  0.7280
 1000SOL    HW1 2999   0.822   0.789   1.825 -1.3220 -2.2159 -0.5873
 1000SOL    HW2 3000   0.740   0.915   1.756  0.6293  1.6585 -1.0130
   3.07903   3.07903   3.07903
