1000 SPC/Fw water molecules t= 342.00000 step= 342000
 3000
    1SOL     OW    1   2.440   0.212   1.271 -0.1685 -0.0141 -0.3716
    1SOL    HW1    2   2.370   0.231   1.339 -0.9067  0.2209 -1.5844
    1SOL    HW2    3   2.500   0.136   1.304 -0.4536  1.8029 -2.3481
    2SOL     OW    4   2.639   2.518   1.002  0.0711  0.5928  0.0264
    2SOL    HW1    5   2.617   2.579   1.086 -0.9059  3.5403  1.1805
    2SOL    HW2    6   2.612   2.418   1.020  0.5970 -1.3636  2.1201
    3SOL     OW    7   1.185   2.863   2.634  0.0230  0.0875  0.6310
    3SOL    HW1    8   1.225   2.863   2.727  0.5646  0.2229 -0.7435
    3SOL    HW2    9   1.139   2.772   2.605 -2.7019 -3.0753 -3.6572
    4SOL     OW   10   1.757   2.495   2.237  0.0170  0.6397 -0.9725
    4SOL    HW1   11   1.785   2.592   2.208 -0.0935  1.0170  2.6665
    4SOL    HW2   12   1.835   2.429   2.224 -1.0771 -1.4430  0.0261
    5SOL     OW   13   1.797   0.917   1.907  0.6411 -0.0741  0.4315
    5SOL    HW1   14   1.817   0.870   1.817 -0.4141 -0.9805 -2.1359
    5SOL    HW2   15   1.713   0.975   1.898  1.0159 -1.7101  1.7924
    6SOL     OW   16   2.051   2.767   0.762  0.5090 -0.6823  0.3924
    6SOL    HW1   17   1.968   2.710   0.772 -2.0060  0.1994  0.0441
    6SOL    HW2   18   2.034   2.861   0.789 -0.3399  0.5626  0.8029
    7SOL     OW   19   1.814   1.253   1.043  0.0284 -0.1124 -0.1629
    7SOL    HW1   20   1.760   1.299   1.116 -1.3899 -2.1201 -0.6704
    7SOL    HW2   21   1.844   1.159   1.072 -3.9619 -0.6145 -1.2952
    8SOL     OW   22   0.686   1.839   1.279 -0.1508  0.0308  0.5088
    8SOL    HW1   23   0.644   1.758   1.322  1.7107  1.9356 -3.2506
    8SOL    HW2   24   0.676   1.923   1.333  1.3491 -0.8856  1.5488
    9SOL     OW   25   1.153   2.271   1.937  0.3844  0.3409 -0.3491
    9SOL    HW1   26   1.099   2.269   2.023  1.3498  2.5981 -0.8276
    9SOL    HW2   27   1.133   2.188   1.879  3.5218 -1.3508 -0.3536
   10SOL     OW   28   0.309   2.032   0.748  0.4286  0.0056 -0.2965
   10SOL    HW1   29   0.339   1.942   0.776 -0.5475  0.6169  0.3036
   10SOL    HW2   30   0.343   2.095   0.820 -2.0245 -1.3773  1.0350
   11SOL     OW   31   1.521   2.315   1.322 -0.3465 -0.3029  0.4061
   11SOL    HW1   32   1.521   2.375   1.239 -0.1599 -0.7575  1.2537
   11SOL    HW2   33   1.480   2.229   1.296  0.5743 -0.9027  1.4017
   12SOL     OW   34   2.517   0.345   2.333 -0.2686  0.5613 -0.0704
   12SOL    HW1   35   2.583   0.283   2.382  0.8085  0.1005  1.9786
   12SOL    HW2   36   2.466   0.287   2.264  0.0813  0.2261 -1.9050
   13SOL     OW   37   2.845   2.847   0.605 -0.1183  0.5321  0.2855
   13SOL    HW1   38   2.812   2.784   0.675  0.2787 -1.0420 -1.7051
   13SOL    HW2   39   2.944   2.824   0.582 -0.7845  1.2546  3.2087
   14SOL     OW   40   1.659   1.594   2.911  0.4763  0.0967 -0.2614
   14SOL    HW1   41   1.686   1.498   2.935 -1.3808 -1.2366 -1.5465
   14SOL    HW2   42   1.733   1.646   2.863 -0.7480  0.9198 -0.6083
   15SOL     OW   43   2.767   2.798   1.613  0.1466 -0.4039 -0.0953
   15SOL    HW1   44   2.823   2.847   1.543  1.4422  0.4356 -0.6856
   15SOL    HW2   45   2.679   2.761   1.577 -3.0460 -1.0044  1.0076
   16SOL     OW   46   2.736   2.729   0.371 -0.2591  0.2001  0.2367
   16SOL    HW1   47   2.761   2.771   0.455 -1.1336 -1.9960 -0.9022
   16SOL    HW2   48   2.806   2.658   0.350  0.8089  2.1327  0.6921
   17SOL     OW   49   0.231   0.482   1.205 -0.4467  0.0751 -0.1767
   17SOL    HW1   50   0.288   0.565   1.211 -1.8502 -1.2238 -0.8052
   17SOL    HW2   51   0.287   0.401   1.182  0.8779  0.1754  0.9298
   18SOL     OW   52   2.255   0.541   0.381 -0.7219  0.0932 -0.6413
   18SOL    HW1   53   2.179   0.606   0.376  3.5338 -1.2205 -1.3060
   18SOL    HW2   54   2.275   0.525   0.479 -1.2396 -1.6476 -0.2091
   19SOL     OW   55   1.916   1.803   0.122 -0.7142 -0.0905 -0.0793
   19SOL    HW1   56   1.849   1.821   0.046  0.0796 -0.3237 -1.5956
   19SOL    HW2   57   1.925   1.704   0.125 -1.2245  1.9562 -1.3417
   20SOL     OW   58   2.356   2.110   2.040 -0.5763  0.6384  0.7326
   20SOL    HW1   59   2.301   2.020   2.033 -0.5175  1.7268 -1.4135
   20SOL    HW2   60   2.310   2.182   2.092  2.0825  1.9992 -2.4401
   21SOL     OW   61   1.640   0.129   0.434  0.6732  0.3062  0.0603
   21SOL    HW1   62   1.664   0.028   0.442 -0.2873  0.0598 -0.3816
   21SOL    HW2   63   1.723   0.190   0.453 -1.2094  0.1882 -0.8350
   22SOL     OW   64   2.648   0.361   1.812 -0.0325  0.3092 -0.0774
   22SOL    HW1   65   2.553   0.328   1.832  1.1602  0.3234 -0.1303
   22SOL    HW2   66   2.645   0.463   1.789  0.2900 -0.4872  1.7732
   23SOL     OW   67   0.543   0.708   1.857  0.2536  0.4346 -0.3048
   23SOL    HW1   68   0.543   0.612   1.897 -0.3192 -0.2324  1.1863
   23SOL    HW2   69   0.628   0.760   1.883  3.2100 -1.9658  0.3288
   24SOL     OW   70   2.396   2.651   0.418 -0.3910  0.0646 -0.0341
   24SOL    HW1   71   2.447   2.725   0.374 -3.8837 -1.4242 -2.2587
   24SOL    HW2   72   2.378   2.667   0.517 -1.4380  0.0002 -3.6607
   25SOL     OW   73   1.191   2.515   2.741 -0.6129 -0.2103  0.2638
   25SOL    HW1   74   1.134   2.573   2.682  0.0137 -1.7701  1.8660
   25SOL    HW2   75   1.127   2.466   2.800  0.7734 -0.6584 -2.3083
   26SOL     OW   76   1.024   2.454   0.195  0.0814  0.1602 -0.4351
   26SOL    HW1   77   1.068   2.472   0.105 -1.1847 -0.8733  1.3467
   26SOL    HW2   78   1.072   2.502   0.273  0.4112  0.1319  1.1025
   27SOL     OW   79   2.378   0.823   0.083  0.6129 -0.0672  0.0554
   27SOL    HW1   80   2.302   0.876   0.129  0.9372  0.2731  1.3196
   27SOL    HW2   81   2.426   0.888   0.018  0.2899  0.1851 -0.7480
   28SOL     OW   82   1.084   1.563   0.918  0.6746 -0.2447  0.5375
   28SOL    HW1   83   1.084   1.486   0.853  1.8790  0.7591 -0.6499
   28SOL    HW2   84   1.179   1.599   0.935  0.1864  1.6269 -2.7196
   29SOL     OW   85   2.862   2.812   1.931  0.5817  0.3081  0.0693
   29SOL    HW1   86   2.955   2.790   1.900 -2.1208  2.7977 -1.2007
   29SOL    HW2   87   2.796   2.799   1.854  1.6372 -2.1010  0.1435
   30SOL     OW   88   1.189   0.054   1.215 -0.6849 -0.3977  0.1525
   30SOL    HW1   89   1.255   3.056   1.193  1.0271  0.5989  3.5844
   30SOL    HW2   90   1.228   0.142   1.180  0.0819 -0.7025 -0.0920
   31SOL     OW   91   2.216   2.918   2.412 -0.1546 -0.1495 -0.9963
   31SOL    HW1   92   2.156   2.917   2.492 -0.8967 -0.7412  0.4815
   31SOL    HW2   93   2.167   2.938   2.327  0.9510  1.0534 -1.2581
   32SOL     OW   94   0.968   1.348   0.437 -0.2419  0.3699  0.0620
   32SOL    HW1   95   0.977   1.443   0.398  1.0202  1.6710 -0.4242
   32SOL    HW2   96   0.876   1.335   0.476  1.1916 -2.5785 -0.1643
   33SOL     OW   97   0.214   1.079   2.517  0.4252  0.8785  0.2128
   33SOL    HW1   98   0.272   1.163   2.530 -0.2284 -0.0779  0.4440
   33SOL    HW2   99   0.169   1.083   2.425 -1.4865 -0.2921  0.1722
   34SOL     OW  100   2.601   2.988   0.596  0.3757 -1.0318  0.4024
   34SOL    HW1  101   2.658   2.913   0.559 -1.7099 -0.5325  0.0738
   34SOL    HW2  102   2.633   0.001   0.572  0.6475  1.4169  2.2688
   35SOL     OW  103   2.505   2.909   2.026 -0.1896 -0.6696 -0.0832
   35SOL    HW1  104   2.509   2.807   2.022 -0.3135 -0.1482 -0.1875
   35SOL    HW2  105   2.510   2.951   2.120 -1.6931 -1.0413  1.2814
   36SOL     OW  106   2.082   2.240   3.038  0.3364  0.5756  0.3773
   36SOL    HW1  107   2.172   2.271   3.002  0.4646 -0.0048 -1.2239
   36SOL    HW2  108   2.026   2.196   2.963 -1.5103 -1.8713  1.8107
   37SOL     OW  109   1.643   0.010   2.095 -0.2842 -0.2225 -0.1200
   37SOL    HW1  110   1.717   0.080   2.085 -0.7814 -0.1191  1.3144
   37SOL    HW2  111   1.574   0.013   2.015 -0.7057 -0.3456  2.2290
   38SOL     OW  112   0.299   0.755   2.656  0.0270  0.4611  0.1211
   38SOL    HW1  113   0.348   0.810   2.584 -1.6225  3.3802  1.4833
   38SOL    HW2  114   0.352   0.669   2.679  1.5235 -1.2989  0.5060
   39SOL     OW  115   1.980   1.243   1.469 -0.3489 -0.5717 -0.1951
   39SOL    HW1  116   2.055   1.202   1.413  0.1026 -0.5570  1.4201
   39SOL    HW2  117   1.994   1.239   1.568 -0.7567  0.8381 -0.2236
   40SOL     OW  118   1.148   2.607   0.394  0.8019  0.6604  0.0579
   40SOL    HW1  119   1.185   2.695   0.364  0.6864 -0.7856  2.8623
   40SOL    HW2  120   1.222   2.553   0.437  1.6572  1.4818  1.0427
   41SOL     OW  121   2.063   1.191   0.775 -0.4079  0.2238  0.0217
   41SOL    HW1  122   1.985   1.254   0.790 -0.0398 -1.5902 -1.1661
   41SOL    HW2  123   2.134   1.233   0.717 -0.5312 -0.0828  3.7598
   42SOL     OW  124   0.859   0.289   1.373  0.0898  0.1062 -0.3771
   42SOL    HW1  125   0.911   0.240   1.304 -1.5357 -0.0257  2.0153
   42SOL    HW2  126   0.864   0.247   1.466 -3.4233  0.7029  0.6396
   43SOL     OW  127   0.182   1.547   2.271 -0.4550  0.5014  0.1614
   43SOL    HW1  128   0.226   1.461   2.301  1.0042  2.2303  0.9552
   43SOL    HW2  129   0.241   1.624   2.304  0.7444  1.8653  0.0240
   44SOL     OW  130   2.452   0.047   1.602 -0.4134 -0.3856  0.2252
   44SOL    HW1  131   2.439   0.133   1.655 -0.7302 -0.2519 -0.0065
   44SOL    HW2  132   2.504   3.071   1.664 -4.3117  0.3689 -0.7162
   45SOL     OW  133   1.159   3.052   2.184  0.3192  0.2923 -0.2247
   45SOL    HW1  134   1.254   3.024   2.150 -0.0259 -0.9896 -2.7260
   45SOL    HW2  135   1.126   2.982   2.251 -1.9303 -2.1086  0.5467
   46SOL     OW  136   1.008   2.302   2.448  0.1738 -0.2497  0.6080
   46SOL    HW1  137   1.082   2.233   2.439 -1.4650  2.3224 -1.4393
   46SOL    HW2  138   1.051   2.396   2.453  1.1731  2.6396 -2.3723
   47SOL     OW  139   1.303   1.671   0.765 -0.0574  0.4483 -0.5330
   47SOL    HW1  140   1.332   1.634   0.673 -0.4673  1.0176  0.6511
   47SOL    HW2  141   1.368   1.643   0.841 -0.3426 -0.1524 -2.6945
   48SOL     OW  142   1.282   2.401   0.806 -0.1667 -0.1324 -0.2565
   48SOL    HW1  143   1.201   2.383   0.747 -0.3934  0.6819  1.5730
   48SOL    HW2  144   1.271   2.495   0.842  0.1928 -0.0072 -0.8174
   49SOL     OW  145   2.203   3.063   2.949 -0.0175  0.7890  0.2561
   49SOL    HW1  146   2.218   3.004   3.030 -1.6239  0.4931  0.3953
   49SOL    HW2  147   2.139   0.061   2.968  1.9223  0.4944 -0.2382
   50SOL     OW  148   1.783   0.001   3.043 -0.3204  0.7595  0.0413
   50SOL    HW1  149   1.867   3.026   3.060  0.8459  2.9034 -0.3612
   50SOL    HW2  150   1.804   0.095   3.005 -3.8442  3.3135 -2.6612
   51SOL     OW  151   2.357   0.533   1.367 -0.4162 -0.3980 -0.1728
   51SOL    HW1  152   2.360   0.627   1.400 -0.9248  0.2627 -0.5367
   51SOL    HW2  153   2.449   0.493   1.379  0.1161  1.8102  0.0641
   52SOL     OW  154   1.016   1.628   0.336 -0.4489 -0.5702  0.1032
   52SOL    HW1  155   0.968   1.711   0.308  1.2483 -0.0341  0.1974
   52SOL    HW2  156   1.054   1.635   0.432  1.1941  1.9544 -0.4049
   53SOL     OW  157   3.064   1.726   2.583  0.0038  0.1075 -0.1147
   53SOL    HW1  158   0.027   1.818   2.609  0.0074  1.7122 -0.4538
   53SOL    HW2  159   3.012   1.692   2.666 -0.8297  0.7606 -0.2801
   54SOL     OW  160   2.750   1.287   1.794  0.0476 -0.0488  0.1742
   54SOL    HW1  161   2.740   1.369   1.739 -0.2969 -1.1312  1.4713
   54SOL    HW2  162   2.736   1.304   1.893 -1.0285 -0.5489 -0.2767
   55SOL     OW  163   2.172   1.908   0.545 -0.0356 -0.4295  0.3783
   55SOL    HW1  164   2.182   1.830   0.609  1.4488 -2.3013  0.4633
   55SOL    HW2  165   2.224   1.984   0.576 -1.1100 -1.6172  1.0610
   56SOL     OW  166   1.641   0.243   1.664 -0.8524 -0.3937 -0.3715
   56SOL    HW1  167   1.716   0.315   1.659  1.3101 -1.1225  0.9746
   56SOL    HW2  168   1.568   0.272   1.726  1.2497  1.9057  0.4107
   57SOL     OW  169   1.505   1.210   2.582  0.4310 -0.3771  0.6262
   57SOL    HW1  170   1.519   1.286   2.518 -2.8868 -0.1794  2.5102
   57SOL    HW2  171   1.595   1.175   2.609 -0.6296  1.6192  1.8693
   58SOL     OW  172   3.074   0.565   1.270  0.4338  0.1180 -0.6320
   58SOL    HW1  173   0.100   0.557   1.258  3.1441  1.2821 -0.9668
   58SOL    HW2  174   3.033   0.546   1.177  0.4143 -0.8483  2.7321
   59SOL     OW  175   1.716   2.873   0.197 -0.1062 -0.0355 -0.0345
   59SOL    HW1  176   1.658   2.910   0.122 -1.5401  1.0436 -1.9516
   59SOL    HW2  177   1.682   2.915   0.285 -0.3779  0.1691  1.7050
   60SOL     OW  178   2.783   1.876   2.873 -0.1471 -0.1914 -0.1017
   60SOL    HW1  179   2.809   1.974   2.897 -0.8262  1.1052 -3.1680
   60SOL    HW2  180   2.681   1.864   2.874  3.0579 -2.1566  0.1243
   61SOL     OW  181   0.755   2.597   0.836 -0.0233 -0.2678 -0.2824
   61SOL    HW1  182   0.840   2.651   0.822  0.3848 -2.5931  1.0109
   61SOL    HW2  183   0.785   2.510   0.870 -0.1651  2.5562 -0.8238
   62SOL     OW  184   1.657   1.529   2.579  0.7394 -0.1014 -0.8278
   62SOL    HW1  185   1.581   1.591   2.547  0.4762  1.9695 -2.3402
   62SOL    HW2  186   1.734   1.552   2.522 -1.4577  1.0565 -0.9712
   63SOL     OW  187   2.177   2.132   0.213 -0.1643  0.7696 -0.0783
   63SOL    HW1  188   2.135   2.208   0.271 -0.9582  1.5162  3.4100
   63SOL    HW2  189   2.147   2.149   0.117 -1.4866 -0.6027 -1.9630
   64SOL     OW  190   1.821   1.006   2.940 -0.0960  0.5040  0.3656
   64SOL    HW1  191   1.761   0.968   2.868  0.3950 -0.4740  0.2265
   64SOL    HW2  192   1.782   1.098   2.960  1.9979 -0.3906 -2.1787
   65SOL     OW  193   1.924   1.784   2.174 -0.5008 -0.8318 -0.2746
   65SOL    HW1  194   2.020   1.762   2.210 -0.3608  0.7043 -0.4303
   65SOL    HW2  195   1.914   1.752   2.077 -2.5109 -0.2290  0.1452
   66SOL     OW  196   0.388   1.121   1.052  0.4651 -0.1276  0.2945
   66SOL    HW1  197   0.349   1.099   0.960  0.5144 -0.4841  1.4131
   66SOL    HW2  198   0.364   1.219   1.082  0.1137  2.4714 -0.6185
   67SOL     OW  199   2.006   2.935   2.581 -0.0132 -0.4623  0.1868
   67SOL    HW1  200   1.973   3.031   2.572  1.9779  1.7255  0.6884
   67SOL    HW2  201   1.932   2.863   2.567 -0.1136  1.5780  3.8179
   68SOL     OW  202   1.095   2.314   1.349 -0.4314 -0.1518 -0.0059
   68SOL    HW1  203   1.108   2.376   1.267  0.1793  0.0492 -0.5806
   68SOL    HW2  204   1.176   2.265   1.377 -0.7789  1.2296 -0.0743
   69SOL     OW  205   0.751   2.476   2.913  0.0604 -0.1829 -0.1968
   69SOL    HW1  206   0.730   2.499   3.007  0.2358 -0.1662 -2.3515
   69SOL    HW2  207   0.728   2.375   2.897  0.8838  0.1560 -0.7962
   70SOL     OW  208   0.133   0.725   2.406  0.1127 -0.0828 -0.0787
   70SOL    HW1  209   0.181   0.785   2.337  0.4505  2.0562  0.5469
   70SOL    HW2  210   0.101   0.783   2.484  1.2813  1.7777  1.2940
   71SOL     OW  211   0.637   1.455   2.928 -0.1040  0.1757  0.2941
   71SOL    HW1  212   0.644   1.475   2.829 -1.6999 -2.1013  1.1602
   71SOL    HW2  213   0.553   1.503   2.962  0.5335  5.1641  1.1992
   72SOL     OW  214   3.001   1.499   2.346 -0.3376  0.1754 -0.3533
   72SOL    HW1  215   0.017   1.536   2.352 -1.8240 -4.4037 -1.2692
   72SOL    HW2  216   2.935   1.570   2.323  1.7170 -0.9580 -0.8853
   73SOL     OW  217   1.759   1.307   0.474  0.4229  0.9199  0.0416
   73SOL    HW1  218   1.796   1.311   0.380 -1.2308 -2.1758  2.5234
   73SOL    HW2  219   1.786   1.220   0.523  1.7532 -3.3937  3.1048
   74SOL     OW  220   2.402   2.721   2.831 -0.2267  0.1378 -0.0122
   74SOL    HW1  221   2.475   2.715   2.760  1.5731  0.7083  0.1933
   74SOL    HW2  222   2.317   2.689   2.783  1.6467 -1.9421 -0.9581
   75SOL     OW  223   1.993   1.995   1.030 -0.2471 -0.1633  0.7290
   75SOL    HW1  224   1.972   2.059   1.105 -0.2951  0.0064 -0.8364
   75SOL    HW2  225   1.923   1.920   1.017 -1.2417 -1.7687 -1.5765
   76SOL     OW  226   2.554   2.039   1.860 -0.4787  0.2303 -0.7202
   76SOL    HW1  227   2.508   2.053   1.952  0.2503  0.1142  1.6048
   76SOL    HW2  228   2.584   2.129   1.823  1.2708  1.0988  2.5426
   77SOL     OW  229   2.969   0.314   2.215 -0.3436 -0.7886  0.4235
   77SOL    HW1  230   2.933   0.353   2.128  5.7151 -0.0893  1.2999
   77SOL    HW2  231   2.994   0.392   2.279 -1.6485  1.2428 -0.4400
   78SOL     OW  232   2.149   1.261   0.040  0.3845  0.1026  0.3532
   78SOL    HW1  233   2.154   1.354   3.071  2.6279  2.5451 -1.4551
   78SOL    HW2  234   2.159   1.272   0.138 -1.6006  1.6839 -0.3915
   79SOL     OW  235   2.549   1.485   2.478 -0.2525 -0.0993  0.1968
   79SOL    HW1  236   2.514   1.410   2.419  2.5242  0.5406 -0.4420
   79SOL    HW2  237   2.547   1.575   2.434 -1.8236 -1.5250  1.0869
   80SOL     OW  238   1.531   1.496   1.533 -0.6532 -0.4621 -0.3642
   80SOL    HW1  239   1.605   1.550   1.487  0.6621  1.5730  1.6072
   80SOL    HW2  240   1.564   1.432   1.603 -0.0536  2.0966 -0.9531
   81SOL     OW  241   2.114   0.762   1.886 -0.0006  0.1948  0.0710
   81SOL    HW1  242   2.162   0.812   1.958 -0.2031  0.8607  3.2300
   81SOL    HW2  243   2.111   0.818   1.800  0.3404 -0.0059 -1.5190
   82SOL     OW  244   1.750   1.652   1.439  0.0988 -0.4518  0.0305
   82SOL    HW1  245   1.832   1.596   1.421  0.7511 -0.1091 -0.1226
   82SOL    HW2  246   1.748   1.744   1.398 -1.1144 -0.8345  0.8180
   83SOL     OW  247   0.228   3.035   0.152 -0.9122  0.2948 -0.1421
   83SOL    HW1  248   0.282   0.007   0.081 -0.8047 -1.0439 -1.7693
   83SOL    HW2  249   0.129   3.043   0.138  1.3907 -0.2087 -0.5333
   84SOL     OW  250   0.466   0.791   3.063 -0.7652 -0.0069  0.5132
   84SOL    HW1  251   0.527   0.760   0.064  0.5987 -2.9451  2.7275
   84SOL    HW2  252   0.378   0.745   3.072  0.9953  1.8962  0.2308
   85SOL     OW  253   2.578   1.847   1.324 -0.7752  0.3274 -0.1156
   85SOL    HW1  254   2.522   1.801   1.256 -0.4699  3.8362  3.0270
   85SOL    HW2  255   2.644   1.915   1.277 -0.8310 -0.3335 -0.3490
   86SOL     OW  256   0.536   2.571   1.240 -0.0690  0.2827 -0.3054
   86SOL    HW1  257   0.529   2.465   1.239 -2.7832  0.8255  0.4545
   86SOL    HW2  258   0.534   2.603   1.142  0.4096  0.4121 -2.1726
   87SOL     OW  259   0.429   2.357   2.317 -0.0395 -0.0736 -0.6527
   87SOL    HW1  260   0.498   2.370   2.242  3.0124 -0.2242  0.6195
   87SOL    HW2  261   0.370   2.272   2.299 -3.7867  0.4029  0.4983
   88SOL     OW  262   3.059   2.246   0.382  0.1363  0.3288  0.6680
   88SOL    HW1  263   0.037   2.187   0.322  0.8230  0.7751 -0.0153
   88SOL    HW2  264   2.964   2.212   0.382  0.2873 -0.5546  2.9018
   89SOL     OW  265   0.926   0.903   1.004 -0.2827  0.1690  0.1595
   89SOL    HW1  266   0.993   0.832   0.974 -0.1687  0.2791  1.9625
   89SOL    HW2  267   0.951   0.925   1.103 -0.4736 -1.2301  3.1330
   90SOL     OW  268   0.330   1.145   1.769  0.1035 -0.3530  0.0848
   90SOL    HW1  269   0.252   1.203   1.761  0.9597 -0.6999  0.3482
   90SOL    HW2  270   0.416   1.201   1.749  2.4567  1.9192 -3.2727
   91SOL     OW  271   1.076   0.694   0.904  0.1586  0.2915 -0.4263
   91SOL    HW1  272   1.001   0.644   0.857 -0.5459  0.1640 -3.5391
   91SOL    HW2  273   1.132   0.628   0.962  0.2333 -1.5697 -1.5540
   92SOL     OW  274   1.977   1.004   1.023 -0.2535  0.3702  0.3322
   92SOL    HW1  275   2.022   1.062   0.953 -2.0398 -0.3157  2.0084
   92SOL    HW2  276   2.014   0.907   1.014  3.6286 -2.5095 -1.0128
   93SOL     OW  277   2.612   0.943   2.345  0.0971  0.0349 -0.5868
   93SOL    HW1  278   2.706   0.935   2.380 -3.7414  0.2971  1.8480
   93SOL    HW2  279   2.550   0.903   2.419 -2.0151  0.7547 -0.5914
   94SOL     OW  280   1.925   1.731   2.538 -0.4847 -0.2147  0.3055
   94SOL    HW1  281   1.866   1.799   2.490 -0.0561  1.0740 -0.1432
   94SOL    HW2  282   2.022   1.758   2.538  0.3288 -1.6526  1.0360
   95SOL     OW  283   2.726   0.711   1.471 -0.3629  0.6702  0.0848
   95SOL    HW1  284   2.828   0.723   1.471  1.8529 -0.6141  0.7479
   95SOL    HW2  285   2.706   0.609   1.458 -0.6994 -2.7150  1.0040
   96SOL     OW  286   2.614   2.968   1.784 -0.0093 -0.2709  0.5253
   96SOL    HW1  287   2.612   2.947   1.883 -1.5355  1.2878  0.8083
   96SOL    HW2  288   2.694   2.935   1.730 -2.6892 -1.3501  0.4700
   97SOL     OW  289   2.613   0.940   1.496  0.0586  0.5345 -0.4442
   97SOL    HW1  290   2.654   0.846   1.485  2.2613  0.9867  0.2823
   97SOL    HW2  291   2.624   0.963   1.594  2.6273  1.5272  0.4742
   98SOL     OW  292   1.584   2.426   1.711  0.6096  0.6046 -0.2876
   98SOL    HW1  293   1.603   2.340   1.657 -0.8051  0.5393 -1.8858
   98SOL    HW2  294   1.660   2.437   1.781  2.6263  2.2725  1.4362
   99SOL     OW  295   0.481   2.409   1.507 -0.1302  0.3031  0.4317
   99SOL    HW1  296   0.488   2.343   1.427 -0.0857  0.7477 -2.5791
   99SOL    HW2  297   0.548   2.482   1.510 -1.7782 -2.8627 -0.4382
  100SOL     OW  298   1.327   0.640   2.585 -0.6401  0.2314  0.7311
  100SOL    HW1  299   1.396   0.583   2.538 -0.7462  2.3774 -1.1692
  100SOL    HW2  300   1.304   0.586   2.667  1.8236 -0.5124 -0.0356
  101SOL     OW  301   2.475   0.219   2.696 -0.4439 -0.3279 -0.4682
  101SOL    HW1  302   2.440   0.128   2.719  1.8790  1.4075  1.2920
  101SOL    HW2  303   2.480   0.272   2.785 -2.6918 -0.4211 -2.6843
  102SOL     OW  304   0.684   0.734   1.205 -0.2840  0.1051  0.5220
  102SOL    HW1  305   0.601   0.690   1.243  2.7906 -2.7299 -1.5505
  102SOL    HW2  306   0.716   0.686   1.123  1.7134 -0.8693 -0.3244
  103SOL     OW  307   0.945   0.652   2.580 -0.6812  0.1429  0.0042
  103SOL    HW1  308   1.007   0.570   2.590  0.5722  1.7945  3.0555
  103SOL    HW2  309   0.989   0.727   2.634 -0.3776  1.0932  2.9636
  104SOL     OW  310   1.049   0.906   2.660 -0.0046 -0.2413 -0.4669
  104SOL    HW1  311   1.059   0.956   2.748 -0.6247  1.7499 -0.2069
  104SOL    HW2  312   1.104   0.941   2.582  0.7484 -0.4453  3.2245
  105SOL     OW  313   2.028   2.058   1.664 -0.3911  0.2404 -0.4120
  105SOL    HW1  314   2.043   2.139   1.605 -1.6127 -0.6440 -4.0193
  105SOL    HW2  315   2.046   1.972   1.614  1.8608  0.6220 -1.3173
  106SOL     OW  316   1.659   2.956   0.438 -0.3115  0.0392 -0.1654
  106SOL    HW1  317   1.586   2.895   0.476  0.6129  0.5657  0.2695
  106SOL    HW2  318   1.751   2.912   0.465  1.1906 -1.8382  0.9173
  107SOL     OW  319   2.215   1.879   0.937  0.3792 -0.2688 -0.2138
  107SOL    HW1  320   2.133   1.922   0.976  3.0467 -0.7246  2.2242
  107SOL    HW2  321   2.189   1.814   0.869  0.8226  2.7321 -0.8727
  108SOL     OW  322   2.635   0.034   1.404 -0.5027 -0.3921 -0.2228
  108SOL    HW1  323   2.556   0.030   1.470 -1.2995 -1.3667  0.7206
  108SOL    HW2  324   2.710   0.100   1.441  1.5979  0.5389 -0.0403
  109SOL     OW  325   1.969   2.403   0.942  0.2228 -0.3022  0.0744
  109SOL    HW1  326   1.902   2.357   1.002 -1.3702  0.1336  1.8014
  109SOL    HW2  327   2.028   2.468   0.994 -0.3491  1.7011 -0.7033
  110SOL     OW  328   0.720   1.728   1.973 -0.1377  0.4200  0.2809
  110SOL    HW1  329   0.671   1.648   1.941  3.9269  1.7439  0.8920
  110SOL    HW2  330   0.663   1.785   2.035 -0.4008  0.7930  3.4606
  111SOL     OW  331   1.653   2.188   2.124 -0.0642  0.0596 -0.0777
  111SOL    HW1  332   1.747   2.219   2.115 -3.4243  1.3709  0.5055
  111SOL    HW2  333   1.584   2.259   2.113 -0.6262 -1.5371 -1.1218
  112SOL     OW  334   1.535   1.751   2.423 -0.3575 -0.0764  0.1674
  112SOL    HW1  335   1.515   1.718   2.330 -0.2674  1.0084 -3.9913
  112SOL    HW2  336   1.618   1.810   2.421 -0.7522 -1.2615 -0.7468
  113SOL     OW  337   1.539   1.947   1.533 -0.2575  0.0772  0.2983
  113SOL    HW1  338   1.496   1.967   1.623 -0.1009  0.3621  1.1875
  113SOL    HW2  339   1.480   1.884   1.481  0.9041 -2.5623  1.0905
  114SOL     OW  340   2.970   1.057   0.878  0.3970  0.0446  0.5355
  114SOL    HW1  341   3.027   1.004   0.941 -0.9952 -1.7570  0.3338
  114SOL    HW2  342   2.873   1.027   0.901 -0.2254 -0.2489 -2.9716
  115SOL     OW  343   0.612   0.734   0.199  0.1397 -0.1586 -0.2275
  115SOL    HW1  344   0.628   0.776   0.295  1.8629  0.0756  3.0108
  115SOL    HW2  345   0.572   0.642   0.212 -1.7008 -0.4133  1.8945
  116SOL     OW  346   2.544   1.772   2.383  0.4363  0.1572 -0.4523
  116SOL    HW1  347   2.492   1.857   2.365  1.4393 -1.3802  1.2821
  116SOL    HW2  348   2.616   1.782   2.454  1.8825 -0.9762  1.5360
  117SOL     OW  349   0.003   2.681   0.655 -0.0881  0.0598  0.3891
  117SOL    HW1  350   0.032   2.608   0.587  0.2885 -2.6943 -0.4248
  117SOL    HW2  351   0.012   2.635   0.746 -1.1489  0.3394 -0.1951
  118SOL     OW  352   0.671   1.478   2.656  1.2187 -0.4972 -0.2819
  118SOL    HW1  353   0.667   1.575   2.617  2.0324  3.3121 -1.3306
  118SOL    HW2  354   0.766   1.448   2.650 -2.6542  2.4053 -0.0912
  119SOL     OW  355   0.442   1.971   0.519  0.1084  0.0718  0.5571
  119SOL    HW1  356   0.365   1.992   0.583 -0.1419  1.0469  0.5886
  119SOL    HW2  357   0.463   2.046   0.454 -0.3561  1.6411 -0.5114
  120SOL     OW  358   1.321   0.542   0.318  0.0413  0.1909  0.0666
  120SOL    HW1  359   1.391   0.488   0.363  0.0797  2.3919 -0.4987
  120SOL    HW2  360   1.306   0.631   0.367  0.9569  1.1544 -0.9116
  121SOL     OW  361   1.339   2.427   0.531  0.3828  0.0255  0.1933
  121SOL    HW1  362   1.361   2.430   0.631  1.0819  1.6054  0.5958
  121SOL    HW2  363   1.349   2.336   0.483  1.3192 -0.2917  0.2256
  122SOL     OW  364   2.419   2.345   1.805 -0.0404 -0.2274  0.6718
  122SOL    HW1  365   2.346   2.316   1.739 -0.8447  0.2431 -0.0974
  122SOL    HW2  366   2.505   2.302   1.776 -0.1345 -0.2387 -1.1994
  123SOL     OW  367   0.792   1.616   0.650 -0.5266 -0.4855 -0.1320
  123SOL    HW1  368   0.743   1.695   0.608 -1.8910 -0.0561  1.1657
  123SOL    HW2  369   0.893   1.633   0.628  1.8067  5.4378 -0.4797
  124SOL     OW  370   2.925   0.591   0.327  0.2134  0.0496 -0.9617
  124SOL    HW1  371   2.948   0.596   0.230 -2.1594  0.0027 -1.3264
  124SOL    HW2  372   2.824   0.576   0.350  0.1344  1.5099  0.1654
  125SOL     OW  373   0.582   0.830   0.441  0.1800  0.0338  0.2947
  125SOL    HW1  374   0.500   0.777   0.467  3.3264 -2.2325 -0.6663
  125SOL    HW2  375   0.579   0.928   0.458 -2.3267 -0.8012 -1.5372
  126SOL     OW  376   2.897   1.832   0.846 -0.4002 -0.0006  0.1064
  126SOL    HW1  377   2.869   1.785   0.933 -1.4956  2.6652 -1.0484
  126SOL    HW2  378   3.000   1.825   0.832  3.1810 -1.5565  0.5090
  127SOL     OW  379   1.357   2.074   1.738 -0.6183  0.2979 -0.4838
  127SOL    HW1  380   1.430   2.058   1.807 -1.7391 -2.0490  0.7719
  127SOL    HW2  381   1.268   2.048   1.776  2.7197  1.5681 -2.4727
  128SOL     OW  382   0.958   1.284   0.109 -0.5805  0.2335  0.0988
  128SOL    HW1  383   0.857   1.289   0.086 -0.5143  0.7258  3.6634
  128SOL    HW2  384   0.986   1.346   0.185  1.1649 -0.7398 -0.6396
  129SOL     OW  385   1.738   1.892   1.300  0.4574  0.3077 -0.1779
  129SOL    HW1  386   1.677   1.950   1.359  0.9515 -1.7650  0.0809
  129SOL    HW2  387   1.693   1.870   1.210  1.3393  1.7120 -1.2650
  130SOL     OW  388   2.273   1.599   1.460  0.3891  0.3782  0.2715
  130SOL    HW1  389   2.255   1.696   1.486  2.3979  0.6286 -1.1933
  130SOL    HW2  390   2.281   1.538   1.543  0.2920  0.5706  1.7755
  131SOL     OW  391   2.951   2.787   2.891 -0.3377 -0.1878 -0.2239
  131SOL    HW1  392   2.952   2.766   2.792 -0.2507  1.8888 -1.5967
  131SOL    HW2  393   3.048   2.788   2.927  0.2212  4.0765  2.0125
  132SOL     OW  394   2.459   1.532   0.683 -0.2516 -0.3780 -0.0885
  132SOL    HW1  395   2.527   1.551   0.611  1.0513  1.2805 -2.0157
  132SOL    HW2  396   2.500   1.573   0.766  2.1292 -0.7836 -0.6415
  133SOL     OW  397   0.491   0.052   1.813  0.0543  0.0392  0.3863
  133SOL    HW1  398   0.462   0.107   1.896  0.9020 -0.3729 -1.0499
  133SOL    HW2  399   0.551   0.106   1.752 -1.0922 -0.3710  0.3279
  134SOL     OW  400   0.051   1.748   3.059  0.3359 -0.3154  0.1473
  134SOL    HW1  401   3.053   1.715   0.040  0.6671  2.0470  1.5368
  134SOL    HW2  402   0.037   1.839   3.016  1.1082  0.4409  0.9969
  135SOL     OW  403   1.517   0.630   1.915  0.2201 -0.6289 -0.0635
  135SOL    HW1  404   1.494   0.711   1.969 -0.0308  0.4355 -3.7724
  135SOL    HW2  405   1.552   0.653   1.823 -0.9009  1.2356  0.6800
  136SOL     OW  406   2.664   1.635   0.525 -0.5621  0.2983 -0.3939
  136SOL    HW1  407   2.761   1.670   0.542  0.6417 -0.5647  3.1026
  136SOL    HW2  408   2.652   1.608   0.429 -0.1963  1.4156  1.1207
  137SOL     OW  409   2.856   1.686   1.054  0.1028 -0.2676  0.3517
  137SOL    HW1  410   2.796   1.623   1.115 -0.9880  1.0159  2.0757
  137SOL    HW2  411   2.936   1.713   1.109 -2.5508 -1.2364  1.7441
  138SOL     OW  412   2.682   0.632   1.009 -0.6982 -0.2189 -0.1454
  138SOL    HW1  413   2.634   0.612   0.921  1.5700 -3.4712  0.1704
  138SOL    HW2  414   2.642   0.710   1.061 -0.4423  0.9550 -0.7456
  139SOL     OW  415   1.169   2.536   3.073  0.4820  0.6201 -0.0564
  139SOL    HW1  416   1.251   2.598   0.008 -0.7008  0.6878  2.2827
  139SOL    HW2  417   1.103   2.573   3.002 -0.7148  1.2709 -2.0419
  140SOL     OW  418   1.210   1.914   1.063  0.1391  1.1715 -0.3890
  140SOL    HW1  419   1.262   1.933   0.981  0.0847 -0.6486  0.4801
  140SOL    HW2  420   1.117   1.958   1.058 -0.8289 -2.9419 -1.7476
  141SOL     OW  421   1.353   2.171   0.497 -0.4433 -0.8587 -0.8506
  141SOL    HW1  422   1.312   2.095   0.448 -0.8225  2.0422  1.3994
  141SOL    HW2  423   1.426   2.136   0.557  0.5149  2.2160 -0.1441
  142SOL     OW  424   0.859   0.506   0.848  0.0798  0.0604 -0.2483
  142SOL    HW1  425   0.808   0.531   0.764 -1.6034  0.6207 -1.3709
  142SOL    HW2  426   0.918   0.427   0.840  1.8971  1.5074 -0.0287
  143SOL     OW  427   0.715   1.238   3.068  0.4244  0.3848  0.1507
  143SOL    HW1  428   0.691   1.320   3.012  2.3022 -0.3992  1.2658
  143SOL    HW2  429   0.671   1.152   3.029 -0.8490  0.9312 -1.0212
  144SOL     OW  430   1.830   2.605   0.814 -0.5748  0.2691 -0.0324
  144SOL    HW1  431   1.760   2.563   0.755  2.7865 -1.7936  2.9155
  144SOL    HW2  432   1.903   2.538   0.837 -0.3101  2.3157 -1.7026
  145SOL     OW  433   1.946   0.630   2.627 -1.1869 -0.2809 -0.2499
  145SOL    HW1  434   1.901   0.582   2.551 -2.0340 -1.9656  0.3012
  145SOL    HW2  435   2.023   0.564   2.656  0.4430 -0.0461  0.0699
  146SOL     OW  436   0.120   2.804   0.281 -0.1540  0.5289 -0.4331
  146SOL    HW1  437   0.098   2.836   0.377 -0.5427  2.3338  2.0460
  146SOL    HW2  438   0.152   2.881   0.225  1.5315 -1.0007  1.9319
  147SOL     OW  439   1.938   0.248   2.263  0.0437 -0.1186  0.1943
  147SOL    HW1  440   2.034   0.245   2.289 -0.1938  0.7737 -0.2563
  147SOL    HW2  441   1.924   0.293   2.172  1.2351 -0.1300  0.6435
  148SOL     OW  442   1.404   0.260   2.045  0.1908 -0.0783 -0.2592
  148SOL    HW1  443   1.419   0.354   2.082  2.7532 -1.1882 -2.2803
  148SOL    HW2  444   1.421   0.189   2.118 -0.8215 -2.2035  1.3454
  149SOL     OW  445   1.585   0.298   2.318  0.1354  0.2097  0.1084
  149SOL    HW1  446   1.585   0.350   2.226  1.1034  1.1287 -2.8703
  149SOL    HW2  447   1.534   0.211   2.307 -1.2386 -1.5174 -0.0897
  150SOL     OW  448   0.002   0.033   2.932 -0.4042 -0.0627  0.2296
  150SOL    HW1  449   3.046   3.064   3.016 -3.0682  1.0323  2.1079
  150SOL    HW2  450   3.006   0.021   2.862  1.1631 -1.8415  0.0218
  151SOL     OW  451   0.475   1.392   0.282  0.6852 -0.0064 -0.0144
  151SOL    HW1  452   0.444   1.346   0.199  1.7820  2.3822 -2.2796
  151SOL    HW2  453   0.573   1.411   0.282 -1.0250 -3.2876  0.8914
  152SOL     OW  454   2.972   0.255   0.459  0.2243 -0.9885 -0.0488
  152SOL    HW1  455   2.986   0.294   0.365 -1.4071  5.2155  0.0956
  152SOL    HW2  456   2.968   0.329   0.528  0.7168  0.3164  0.6541
  153SOL     OW  457   2.646   0.442   1.430 -0.1589  0.5867 -0.1649
  153SOL    HW1  458   2.681   0.358   1.479 -2.2090  0.6080  0.0232
  153SOL    HW2  459   2.650   0.432   1.327 -0.2493  0.7139  1.0944
  154SOL     OW  460   1.398   2.981   2.000 -0.0196  0.2804 -0.3777
  154SOL    HW1  461   1.453   3.014   1.919  1.0413 -0.6102 -1.1156
  154SOL    HW2  462   1.377   2.886   1.979 -1.1527  0.5688  4.4772
  155SOL     OW  463   0.092   1.811   0.795 -0.1474 -0.1272 -0.0536
  155SOL    HW1  464   0.171   1.876   0.807 -1.4326  0.1386  0.4132
  155SOL    HW2  465   0.111   1.729   0.851 -4.2856 -0.6453  2.4571
  156SOL     OW  466   2.333   2.005   2.936 -0.1209 -0.0945 -0.5346
  156SOL    HW1  467   2.336   2.110   2.921  2.2257  4.4110 -1.1615
  156SOL    HW2  468   2.237   1.975   2.946  0.4940 -0.2491  0.6276
  157SOL     OW  469   0.807   0.214   0.667  0.1384  0.1680  0.0443
  157SOL    HW1  470   0.741   0.286   0.643  2.0611  1.2627  0.2190
  157SOL    HW2  471   0.900   0.252   0.654  0.3001  1.3611  1.8626
  158SOL     OW  472   2.300   0.495   2.181  0.1709 -0.5185  0.5931
  158SOL    HW1  473   2.379   0.451   2.222 -2.7930  1.6543  1.4646
  158SOL    HW2  474   2.337   0.537   2.094  2.7655 -2.9467 -2.9564
  159SOL     OW  475   0.172   0.222   0.484  0.2921  0.1466  0.5697
  159SOL    HW1  476   0.076   0.203   0.460 -0.4594 -0.7816 -0.6717
  159SOL    HW2  477   0.234   0.140   0.464  2.2819 -1.1301  1.1591
  160SOL     OW  478   1.586   1.960   1.870  0.0942  0.1660  0.3349
  160SOL    HW1  479   1.533   1.949   1.954  1.4815  1.4647  0.0170
  160SOL    HW2  480   1.627   1.873   1.838 -1.1590  2.0176  1.1426
  161SOL     OW  481   2.758   0.665   2.618 -0.2192  0.6123 -0.1580
  161SOL    HW1  482   2.785   0.696   2.711  0.8657  1.3884  0.3567
  161SOL    HW2  483   2.808   0.578   2.589  1.4080 -1.1392 -1.0427
  162SOL     OW  484   0.904   2.580   1.818  0.3196  0.7614 -0.6104
  162SOL    HW1  485   0.893   2.565   1.719  2.1729  1.0355  1.4143
  162SOL    HW2  486   0.957   2.664   1.826 -0.9138 -2.4552 -1.0236
  163SOL     OW  487   2.687   0.181   2.475  0.4720  0.5504  0.1475
  163SOL    HW1  488   2.719   0.107   2.412  2.3045 -1.9697  1.5858
  163SOL    HW2  489   2.617   0.149   2.545  0.8834 -1.1217  2.6252
  164SOL     OW  490   2.148   1.538   0.021  0.0328  0.6565 -0.3324
  164SOL    HW1  491   2.136   1.579   3.007 -0.3639  0.0449  0.7134
  164SOL    HW2  492   2.248   1.542   0.045 -0.8386  0.4679  0.2805
  165SOL     OW  493   3.072   0.305   1.639 -0.3907 -0.4306  0.0792
  165SOL    HW1  494   0.059   0.378   1.669  0.3475  2.1675  2.9303
  165SOL    HW2  495   3.067   0.300   1.538  0.5602  1.0571 -0.7889
  166SOL     OW  496   2.287   0.624   2.981 -0.3099 -0.2018  0.3039
  166SOL    HW1  497   2.368   0.632   2.915  0.9465 -1.3385 -2.6367
  166SOL    HW2  498   2.310   0.688   3.056  0.2233  1.9139 -0.6967
  167SOL     OW  499   2.747   0.825   0.014  0.2549 -0.9375  0.2883
  167SOL    HW1  500   2.828   0.843   0.080  0.8215 -1.2782  0.5744
  167SOL    HW2  501   2.781   0.795   3.004 -1.2475 -0.6788  1.5678
  168SOL     OW  502   1.678   2.884   2.858 -0.1100 -0.2976 -0.1849
  168SOL    HW1  503   1.762   2.894   2.913 -0.2993  0.0698  1.2330
  168SOL    HW2  504   1.671   2.964   2.796 -1.7979 -1.0749  3.3898
  169SOL     OW  505   0.120   1.537   0.879 -0.0429  0.1184 -0.2945
  169SOL    HW1  506   0.033   1.483   0.886  1.9164  1.6730 -1.4965
  169SOL    HW2  507   0.194   1.479   0.848 -1.8913 -2.2569  2.4890
  170SOL     OW  508   3.003   0.674   1.511  0.1708  0.0574 -0.4432
  170SOL    HW1  509   3.062   0.706   1.586 -1.3754 -0.0220 -2.5095
  170SOL    HW2  510   3.050   0.612   1.449 -2.0811  0.0701  2.9839
  171SOL     OW  511   2.020   2.057   1.936  0.0885 -1.0019  0.0702
  171SOL    HW1  512   2.034   2.052   1.836 -0.8253 -0.1057  1.3445
  171SOL    HW2  513   2.075   1.984   1.980 -0.7427 -0.1598 -1.2787
  172SOL     OW  514   0.200   2.420   1.523  0.3392  0.3916  0.8895
  172SOL    HW1  515   0.184   2.355   1.449 -0.7386 -0.0257 -2.7301
  172SOL    HW2  516   0.300   2.437   1.526 -0.2405 -0.9073  0.3743
  173SOL     OW  517   1.486   1.075   0.058  0.0233 -0.1984  0.4066
  173SOL    HW1  518   1.501   1.049   0.158  0.2341 -0.4997 -0.1497
  173SOL    HW2  519   1.461   0.998   3.077  0.5294  3.8042  1.9734
  174SOL     OW  520   1.379   3.040   2.533  0.5321  0.2462 -0.3824
  174SOL    HW1  521   1.473   3.063   2.567  2.0725  0.0571 -1.8183
  174SOL    HW2  522   1.329   2.994   2.605 -0.8005 -0.7996 -0.0067
  175SOL     OW  523   1.613   1.873   1.076 -0.4306  0.5783 -0.1794
  175SOL    HW1  524   1.688   1.833   1.015  2.2662 -0.5930 -2.7488
  175SOL    HW2  525   1.537   1.812   1.087  2.8557  1.9259  0.0354
  176SOL     OW  526   1.407   0.126   0.174  0.6004 -0.3356 -0.4139
  176SOL    HW1  527   1.435   0.187   0.252 -0.8137 -0.3235  2.9606
  176SOL    HW2  528   1.346   0.169   0.110  0.3599  0.3756 -0.9078
  177SOL     OW  529   0.681   0.938   2.948 -0.1330  0.3263 -1.0595
  177SOL    HW1  530   0.611   0.866   2.969 -0.1830 -0.8344  0.2457
  177SOL    HW2  531   0.648   1.000   2.879  2.2054 -0.3164  3.3956
  178SOL     OW  532   2.561   2.491   2.489 -1.0159  0.3742  0.2379
  178SOL    HW1  533   2.533   2.569   2.437 -0.3179  0.9159  1.0234
  178SOL    HW2  534   2.566   2.408   2.430 -3.1744 -1.3309 -0.5948
  179SOL     OW  535   2.781   0.279   2.929 -0.6648  0.2247 -0.2352
  179SOL    HW1  536   2.820   0.205   2.867  0.8923  1.1138  1.8399
  179SOL    HW2  537   2.814   0.263   3.025 -1.3418 -2.0129 -0.6661
  180SOL     OW  538   1.875   1.084   0.613  0.3101 -0.1112 -0.1879
  180SOL    HW1  539   1.794   1.045   0.661  1.1384  2.2417  0.4652
  180SOL    HW2  540   1.946   1.111   0.686 -0.0813 -1.0139 -0.8082
  181SOL     OW  541   1.975   1.446   2.577  0.4929 -0.4006 -0.1199
  181SOL    HW1  542   1.941   1.541   2.550  1.4915  1.1562 -0.8248
  181SOL    HW2  543   1.924   1.417   2.662 -0.9188 -1.1232 -0.3242
  182SOL     OW  544   2.822   2.510   2.541 -0.1614  0.4855 -0.4634
  182SOL    HW1  545   2.878   2.509   2.457  2.2582 -2.1058  1.5400
  182SOL    HW2  546   2.729   2.475   2.522 -0.5182 -0.4424 -3.6190
  183SOL     OW  547   1.882   0.724   2.121 -0.8744 -0.5283  0.7159
  183SOL    HW1  548   1.912   0.768   2.034 -1.0589  0.4124 -1.6433
  183SOL    HW2  549   1.955   0.691   2.182  0.5114  0.3637 -1.2542
  184SOL     OW  550   0.124   1.297   1.681  0.0796 -0.0588 -0.2955
  184SOL    HW1  551   0.163   1.330   1.588 -0.6222 -1.4311  0.8601
  184SOL    HW2  552   0.098   1.383   1.736  2.6174  1.9314 -0.3658
  185SOL     OW  553   1.639   0.367   0.665 -0.0700  0.1147 -0.1783
  185SOL    HW1  554   1.634   0.380   0.768 -0.7603 -0.5813 -0.3113
  185SOL    HW2  555   1.542   0.369   0.632  1.2880  0.7996 -1.6047
  186SOL     OW  556   0.238   2.488   2.834  0.1777  0.2767 -0.0561
  186SOL    HW1  557   0.171   2.421   2.795  0.0677 -1.6664  1.6526
  186SOL    HW2  558   0.276   2.548   2.763  1.8821  0.1640  0.3609
  187SOL     OW  559   2.707   1.148   0.546 -0.4558  0.2813 -0.0169
  187SOL    HW1  560   2.716   1.239   0.586 -0.9509 -1.3780 -3.3288
  187SOL    HW2  561   2.642   1.159   0.465  1.2882  1.9003  1.2878
  188SOL     OW  562   2.438   1.279   1.133 -0.5158 -0.6352 -0.2432
  188SOL    HW1  563   2.504   1.251   1.205  1.8047 -2.2842  1.1375
  188SOL    HW2  564   2.482   1.268   1.042 -1.2609 -1.5160 -1.4103
  189SOL     OW  565   2.854   0.412   2.537 -0.1243  0.5327  0.3839
  189SOL    HW1  566   2.807   0.321   2.530  2.9185  0.7521 -0.9409
  189SOL    HW2  567   2.874   0.455   2.448 -0.3529 -2.7773  0.9415
  190SOL     OW  568   1.346   1.033   1.518  0.6422  0.2471  0.0850
  190SOL    HW1  569   1.433   1.074   1.537 -1.0116 -2.0627  0.5579
  190SOL    HW2  570   1.267   1.077   1.562 -2.0075  0.7157 -0.9743
  191SOL     OW  571   0.779   0.436   1.954 -0.5014 -0.6234  0.1544
  191SOL    HW1  572   0.685   0.423   1.911 -3.7812 -2.6731 -0.6639
  191SOL    HW2  573   0.840   0.360   1.931 -2.1090  1.4015  1.5187
  192SOL     OW  574   1.681   2.194   1.498 -0.0716 -0.5171  0.0815
  192SOL    HW1  575   1.652   2.103   1.535  0.3957  1.7626 -0.6094
  192SOL    HW2  576   1.618   2.233   1.431 -1.3205 -0.7938 -3.1183
  193SOL     OW  577   1.724   0.579   1.220  0.2353  0.2526  0.1477
  193SOL    HW1  578   1.638   0.526   1.241  0.8297  0.4545  2.1276
  193SOL    HW2  579   1.729   0.617   1.122  1.2290  0.6313 -2.8848
  194SOL     OW  580   0.379   2.128   1.357  0.0082 -0.3897  0.2517
  194SOL    HW1  581   0.291   2.169   1.376  0.6265  0.0693 -2.9551
  194SOL    HW2  582   0.370   2.056   1.285 -0.8082 -1.1813 -2.0876
  195SOL     OW  583   1.533   0.338   0.324 -0.4856  0.0861  0.3414
  195SOL    HW1  584   1.581   0.257   0.365  1.2495  1.5776  1.7828
  195SOL    HW2  585   1.597   0.377   0.252  0.5933 -1.7220  0.2258
  196SOL     OW  586   0.307   1.364   1.459 -0.4054 -0.0461  0.1554
  196SOL    HW1  587   0.291   1.464   1.444 -2.3051  0.6556  0.4081
  196SOL    HW2  588   0.384   1.346   1.521 -2.2051  3.4625  1.4879
  197SOL     OW  589   0.931   0.177   1.612  0.1001 -0.0146 -0.3507
  197SOL    HW1  590   1.017   0.166   1.555  1.3460  0.0962  0.6557
  197SOL    HW2  591   0.944   0.213   1.707 -0.5185 -1.3920 -0.1520
  198SOL     OW  592   0.762   1.258   1.104 -0.4017  0.0613 -0.8395
  198SOL    HW1  593   0.816   1.291   1.185  1.0389  1.3469 -0.8865
  198SOL    HW2  594   0.711   1.175   1.130  0.3405  0.4482 -1.4628
  199SOL     OW  595   0.023   2.463   1.734  0.6688 -0.1296 -0.3203
  199SOL    HW1  596   0.046   2.431   1.831  0.4155 -2.2642  2.0724
  199SOL    HW2  597   0.093   2.452   1.660 -0.4556  1.0069 -0.5931
  200SOL     OW  598   1.842   1.457   1.696 -0.2389 -0.0043 -0.0769
  200SOL    HW1  599   1.915   1.509   1.648  1.5122  1.3304 -1.0489
  200SOL    HW2  600   1.881   1.416   1.784  0.1811  1.8780 -1.5490
  201SOL     OW  601   0.561   1.868   2.135 -0.3078 -0.4993 -0.4057
  201SOL    HW1  602   0.634   1.910   2.195  0.7684 -0.0031  1.9738
  201SOL    HW2  603   0.476   1.845   2.184  0.3908  0.2650 -0.4762
  202SOL     OW  604   1.546   0.618   3.017  0.4818  0.2852  0.9545
  202SOL    HW1  605   1.626   0.625   2.953  1.3043 -2.0541 -1.4130
  202SOL    HW2  606   1.504   0.707   3.029  0.6407 -1.2034  1.9724
  203SOL     OW  607   1.364   2.735   1.929 -0.8605 -0.5888 -0.2457
  203SOL    HW1  608   1.434   2.689   1.983 -0.9457  2.6172  2.1133
  203SOL    HW2  609   1.283   2.675   1.925 -1.3759  4.0119  0.8265
  204SOL     OW  610   0.536   1.880   1.700 -0.0193 -0.2186  0.5156
  204SOL    HW1  611   0.564   1.897   1.606 -2.2268  2.7224  1.5386
  204SOL    HW2  612   0.463   1.808   1.717  2.8595 -1.4992 -0.9377
  205SOL     OW  613   1.640   1.684   1.800 -0.7265  0.1136 -0.0237
  205SOL    HW1  614   1.658   1.673   1.705  0.6015 -0.1352  1.4488
  205SOL    HW2  615   1.546   1.648   1.821  0.5632  0.8018 -0.6425
  206SOL     OW  616   0.115   1.410   2.045 -0.2342 -0.1862  0.3982
  206SOL    HW1  617   0.193   1.347   2.058  2.3973  1.5093  0.2985
  206SOL    HW2  618   0.119   1.477   2.121 -0.7048 -0.8849 -2.1476
  207SOL     OW  619   0.731   2.887   2.049 -0.1203  0.1214 -0.0195
  207SOL    HW1  620   0.700   2.909   1.949 -1.2297  1.8693 -3.4757
  207SOL    HW2  621   0.669   2.935   2.115 -1.8181  2.1435  0.6191
  208SOL     OW  622   0.467   2.513   1.859 -0.2135 -0.0443  0.1679
  208SOL    HW1  623   0.454   2.541   1.761 -0.8124  1.1676 -0.5950
  208SOL    HW2  624   0.464   2.412   1.853  0.2442  1.6039 -4.4321
  209SOL     OW  625   1.282   2.838   0.369  0.2734 -0.3406 -0.2990
  209SOL    HW1  626   1.376   2.804   0.391  2.0848  0.9305 -0.7179
  209SOL    HW2  627   1.245   2.904   0.439 -2.2758 -2.0014  2.6570
  210SOL     OW  628   2.566   0.569   0.762  0.5003  0.1197  0.0290
  210SOL    HW1  629   2.623   0.486   0.762  0.0684 -0.7463  1.1810
  210SOL    HW2  630   2.611   0.642   0.712  0.7408 -0.7186  2.6539
  211SOL     OW  631   0.585   0.589   1.455 -0.0836 -0.2913  1.0627
  211SOL    HW1  632   0.521   0.662   1.487  1.2929 -2.6668  1.8447
  211SOL    HW2  633   0.671   0.588   1.508 -1.5930  0.3939 -0.6805
  212SOL     OW  634   1.456   2.516   1.511 -0.0834 -0.1606 -0.0346
  212SOL    HW1  635   1.482   2.492   1.608  0.3117 -1.2652  3.0902
  212SOL    HW2  636   1.484   2.446   1.444  2.4843 -0.2595 -0.2005
  213SOL     OW  637   2.888   0.422   1.961  0.4488 -0.8071 -0.4409
  213SOL    HW1  638   2.804   0.400   1.913  0.2145  1.2934  1.9775
  213SOL    HW2  639   2.973   0.415   1.904  0.7718 -0.5479  0.5704
  214SOL     OW  640   0.596   2.477   2.128  0.3525 -0.0073 -0.2981
  214SOL    HW1  641   0.563   2.487   2.031 -1.5263  0.7925 -1.2865
  214SOL    HW2  642   0.663   2.548   2.151  0.7209 -1.9017  0.6516
  215SOL     OW  643   2.741   1.494   1.613 -0.7851 -0.0181 -0.5055
  215SOL    HW1  644   2.828   1.543   1.624  0.8129 -0.8596  0.8887
  215SOL    HW2  645   2.712   1.480   1.515 -2.3294 -1.6270 -1.4689
  216SOL     OW  646   0.704   1.131   2.301  0.1451  0.8264  0.2916
  216SOL    HW1  647   0.665   1.057   2.244 -1.1993 -0.3668  2.2260
  216SOL    HW2  648   0.643   1.151   2.382 -0.8039 -0.0515 -0.5381
  217SOL     OW  649   2.653   0.385   1.181  0.3023 -0.0720  0.2221
  217SOL    HW1  650   2.563   0.336   1.171  0.5142  1.5589  1.7998
  217SOL    HW2  651   2.727   0.333   1.136 -0.6012 -0.7303 -0.1540
  218SOL     OW  652   1.320   2.195   0.975  0.0211 -0.0490 -0.1381
  218SOL    HW1  653   1.251   2.122   0.951 -2.2799  2.1471 -0.6868
  218SOL    HW2  654   1.296   2.289   0.943 -1.9253  2.4277  0.6293
  219SOL     OW  655   1.906   2.402   0.489 -0.2614 -0.2892 -0.9758
  219SOL    HW1  656   1.895   2.505   0.478 -1.3517  1.0472  0.3583
  219SOL    HW2  657   1.829   2.361   0.442  0.1387  2.0625  0.4807
  220SOL     OW  658   1.690   2.392   0.166  0.3782 -0.1955 -0.6274
  220SOL    HW1  659   1.625   2.448   0.109  1.0022  0.3469  1.2496
  220SOL    HW2  660   1.786   2.424   0.145  2.4447  0.0171 -0.3900
  221SOL     OW  661   2.877   1.927   0.365 -0.4811 -0.0966 -0.0795
  221SOL    HW1  662   2.790   1.978   0.367 -0.8991 -1.1303  0.3419
  221SOL    HW2  663   2.912   1.906   0.457 -0.1546  1.2610 -2.6045
  222SOL     OW  664   0.667   2.243   0.705 -0.1369  0.0903 -0.1307
  222SOL    HW1  665   0.690   2.281   0.612 -0.0185  0.2822  3.3678
  222SOL    HW2  666   0.731   2.282   0.779  1.3927  1.1390 -1.4000
  223SOL     OW  667   1.006   0.150   0.382  0.2471 -0.4637 -0.4234
  223SOL    HW1  668   1.081   0.098   0.334  0.9551  1.6204  0.9267
  223SOL    HW2  669   0.917   0.107   0.359 -2.9201 -3.7345 -1.4351
  224SOL     OW  670   2.715   1.188   1.098  0.3972 -0.2215  0.0484
  224SOL    HW1  671   2.713   1.098   1.044 -0.2958  0.1134 -0.4992
  224SOL    HW2  672   2.688   1.173   1.193 -1.6172  0.7222 -2.0444
  225SOL     OW  673   3.051   1.815   1.189  0.7565  0.1444 -0.1793
  225SOL    HW1  674   3.068   1.901   1.128 -1.1277  1.4893 -0.3739
  225SOL    HW2  675   0.045   1.746   1.166 -2.6011  1.5057  0.9795
  226SOL     OW  676   0.810   2.899   0.884  0.0870  0.6353  0.0875
  226SOL    HW1  677   0.778   2.870   0.792  0.5632  1.7521 -1.2891
  226SOL    HW2  678   0.748   2.971   0.913 -0.9501 -1.8224  1.0175
  227SOL     OW  679   1.099   1.465   1.652  0.0915 -0.5818  0.5473
  227SOL    HW1  680   1.122   1.554   1.695 -2.0947  1.8220 -1.4134
  227SOL    HW2  681   1.097   1.482   1.553 -0.7042 -1.6214 -1.1194
  228SOL     OW  682   0.929   0.237   1.883  0.6449 -0.1247  0.0993
  228SOL    HW1  683   0.937   0.153   1.948  2.0332 -0.7433  1.3703
  228SOL    HW2  684   1.008   0.302   1.898 -0.2900  0.8909  2.9454
  229SOL     OW  685   0.002   0.965   2.593 -0.3159  0.2752  0.2043
  229SOL    HW1  686   0.021   0.909   2.679 -2.2575 -0.1127  2.5751
  229SOL    HW2  687   0.095   1.010   2.568  0.0248  1.5084  0.5000
  230SOL     OW  688   0.010   0.694   0.912  0.1861  0.1085  0.3491
  230SOL    HW1  689   3.025   0.624   0.947 -0.8298 -1.0201 -0.1299
  230SOL    HW2  690   0.041   0.765   0.981  2.4260  0.5352  0.4476
  231SOL     OW  691   1.446   0.069   2.261  0.5326  0.2185 -0.1249
  231SOL    HW1  692   1.494   0.030   2.180 -0.8782 -0.5289 -1.1116
  231SOL    HW2  693   1.412   3.066   2.321 -2.0378 -0.1998  0.5193
  232SOL     OW  694   0.034   1.901   0.283 -0.1364 -0.4646 -0.1082
  232SOL    HW1  695   0.082   1.892   0.374 -0.0101 -2.3214  1.3562
  232SOL    HW2  696   3.012   1.896   0.295 -0.5492 -0.4272  0.0450
  233SOL     OW  697   1.460   2.453   2.776 -0.9092 -0.1763  0.4766
  233SOL    HW1  698   1.440   2.370   2.828 -0.4776  1.0697 -0.2293
  233SOL    HW2  699   1.370   2.494   2.745 -0.8272  0.4299 -1.0276
  234SOL     OW  700   0.747   1.205   1.755  0.4474 -0.3713  0.0002
  234SOL    HW1  701   0.791   1.135   1.692  1.6224  0.7427 -0.2894
  234SOL    HW2  702   0.811   1.269   1.798 -2.7047 -3.6395 -2.6532
  235SOL     OW  703   0.043   2.399   2.316  0.0530 -0.1714 -0.0929
  235SOL    HW1  704   0.068   2.323   2.385 -1.7904 -3.5199  1.6129
  235SOL    HW2  705   0.081   2.388   2.222  1.2416 -2.2095 -1.8636
  236SOL     OW  706   1.760   1.799   2.758  0.2569  0.6166  0.0270
  236SOL    HW1  707   1.826   1.758   2.691  1.8961 -0.3134  0.9709
  236SOL    HW2  708   1.714   1.881   2.718  1.3372  0.0842  2.5368
  237SOL     OW  709   1.421   0.636   0.575  0.4809 -0.0153 -0.4066
  237SOL    HW1  710   1.356   0.709   0.600  1.2423 -1.9626 -3.9392
  237SOL    HW2  711   1.508   0.684   0.549 -0.5568 -0.7181 -1.1288
  238SOL     OW  712   0.831   2.639   2.058  0.0125  0.0750  0.3224
  238SOL    HW1  713   0.799   2.733   2.045  0.5594 -1.0354  0.7327
  238SOL    HW2  714   0.857   2.596   1.969 -1.9310 -0.8520  3.2020
  239SOL     OW  715   1.161   2.561   1.966  0.1583  0.0975 -0.2751
  239SOL    HW1  716   1.060   2.572   1.944 -0.6985 -1.9736  1.3648
  239SOL    HW2  717   1.195   2.481   1.922 -1.1718  0.2692 -0.3946
  240SOL     OW  718   1.890   2.998   0.726 -0.4829  0.2270 -0.1633
  240SOL    HW1  719   1.868   2.909   0.682  1.5615  1.2536  1.5276
  240SOL    HW2  720   1.979   3.034   0.696 -2.3306  0.1972  0.0775
  241SOL     OW  721   1.106   1.231   2.378  0.2498 -0.2149  0.2290
  241SOL    HW1  722   1.070   1.137   2.366  0.3781 -0.0677 -1.1005
  241SOL    HW2  723   1.034   1.302   2.369  1.4915 -0.7159  2.1179
  242SOL     OW  724   2.549   0.645   2.856  0.0771 -0.1940  0.2517
  242SOL    HW1  725   2.641   0.613   2.844  0.8270 -1.8511  0.3636
  242SOL    HW2  726   2.547   0.728   2.798  1.0732 -0.3950 -0.8539
  243SOL     OW  727   1.026   0.500   1.450 -0.3639 -0.8635 -0.3627
  243SOL    HW1  728   0.983   0.411   1.420  0.8659  1.4936  1.6096
  243SOL    HW2  729   1.106   0.510   1.393 -1.5930  1.1899  3.1956
  244SOL     OW  730   1.298   2.929   2.883  0.0067 -0.1901 -0.6392
  244SOL    HW1  731   1.210   2.971   2.914  1.9385  3.1175 -0.4908
  244SOL    HW2  732   1.375   2.959   2.945  2.5882  0.8262  0.7215
  245SOL     OW  733   1.906   2.847   0.011  0.1053 -0.3084 -0.4407
  245SOL    HW1  734   1.845   2.850   0.095 -1.2289  2.1868 -1.8576
  245SOL    HW2  735   2.001   2.869   0.035 -0.6706 -0.3581 -1.5152
  246SOL     OW  736   0.817   0.829   1.455 -0.7890  0.6735 -0.0019
  246SOL    HW1  737   0.784   0.797   1.364  1.2245 -0.7117  1.0147
  246SOL    HW2  738   0.815   0.748   1.510 -0.7975  3.4586 -3.1433
  247SOL     OW  739   0.524   0.440   1.869  0.1725 -0.0684 -0.5133
  247SOL    HW1  740   0.491   0.361   1.926 -1.0439  4.0882 -1.2523
  247SOL    HW2  741   0.476   0.441   1.778  0.1768  2.4274  1.3920
  248SOL     OW  742   3.000   1.728   1.872 -0.1751 -0.5332  0.3139
  248SOL    HW1  743   2.962   1.648   1.917  0.8553  4.8388  0.5710
  248SOL    HW2  744   3.026   1.802   1.941 -3.2051  0.5058  2.3585
  249SOL     OW  745   0.108   0.271   3.029 -0.2526  0.1315 -0.6967
  249SOL    HW1  746   0.175   0.235   0.013 -0.7349  1.1601  1.4201
  249SOL    HW2  747   0.064   0.192   2.979 -2.0847  2.0245  2.9809
  250SOL     OW  748   3.035   3.065   0.127  0.1565 -0.0447 -0.1226
  250SOL    HW1  749   3.035   0.092   0.114 -0.9048  4.7847  2.3655
  250SOL    HW2  750   2.962   3.033   0.188  3.2896  0.0859 -0.9583
  251SOL     OW  751   0.867   1.778   1.761 -0.1230  0.3010  0.1857
  251SOL    HW1  752   0.840   1.874   1.756 -0.6776 -0.6936  0.4162
  251SOL    HW2  753   0.801   1.736   1.825  3.0853 -2.1909  0.3478
  252SOL     OW  754   1.848   2.226   1.222 -0.6393 -0.3675  0.3876
  252SOL    HW1  755   1.800   2.300   1.278  0.9075  1.7067 -0.0207
  252SOL    HW2  756   1.937   2.201   1.264  0.1160  1.3001  0.6355
  253SOL     OW  757   1.762   1.900   2.354 -0.1317 -0.5515  0.8055
  253SOL    HW1  758   1.834   1.860   2.288 -0.5509 -0.2646 -2.4490
  253SOL    HW2  759   1.758   2.003   2.344 -0.5662 -1.2169  0.5077
  254SOL     OW  760   0.739   2.195   2.099 -0.4547 -0.2163 -0.6751
  254SOL    HW1  761   0.676   2.173   2.024  0.4880  2.5313 -0.8830
  254SOL    HW2  762   0.723   2.291   2.131 -0.0336  1.5506  0.9317
  255SOL     OW  763   1.157   0.145   1.483 -0.0298 -0.3095  0.7177
  255SOL    HW1  764   1.183   0.108   1.397 -1.0711  0.2271  1.0233
  255SOL    HW2  765   1.220   0.116   1.557  2.2334  0.6175 -0.3867
  256SOL     OW  766   2.356   2.139   1.380 -0.0250  0.1740  0.5163
  256SOL    HW1  767   2.356   2.058   1.314  0.0237 -2.2748 -2.7151
  256SOL    HW2  768   2.408   2.218   1.346  0.7104  0.6225 -5.3480
  257SOL     OW  769   0.447   2.183   2.751  0.1767  0.6743  0.1554
  257SOL    HW1  770   0.390   2.248   2.704  1.8593 -0.4976  1.7233
  257SOL    HW2  771   0.439   2.190   2.856 -3.7973 -3.3712  2.5082
  258SOL     OW  772   0.414   1.300   0.041  0.0626  0.7874  0.5442
  258SOL    HW1  773   0.462   1.217   0.068 -3.1287 -1.2894 -1.8185
  258SOL    HW2  774   0.349   1.287   3.045  2.1687  0.5138  1.7325
  259SOL     OW  775   0.604   1.555   2.252 -0.0824 -0.2968  0.0968
  259SOL    HW1  776   0.625   1.557   2.153 -1.6526  1.5686  4.5760
  259SOL    HW2  777   0.664   1.611   2.310 -0.5460  0.0246  0.1469
  260SOL     OW  778   1.893   0.798   1.270 -0.2211 -0.2498 -0.1056
  260SOL    HW1  779   1.823   0.863   1.232 -0.3215 -1.9511  0.1781
  260SOL    HW2  780   1.855   0.704   1.271  2.2201 -0.8841  0.6971
  261SOL     OW  781   1.046   3.045   0.869  0.1398  0.2452 -0.3991
  261SOL    HW1  782   1.121   2.978   0.893 -1.4800  1.2502 -0.6564
  261SOL    HW2  783   0.954   3.002   0.862 -2.3175 -2.0528 -0.4206
  262SOL     OW  784   2.001   2.126   2.552  0.1305  0.0684 -0.2864
  262SOL    HW1  785   2.025   2.085   2.463 -1.0405  2.6867  1.8000
  262SOL    HW2  786   1.921   2.191   2.543 -1.0509  1.2497 -2.8931
  263SOL     OW  787   0.081   1.518   2.881 -0.2135 -0.1897  0.6427
  263SOL    HW1  788   0.092   1.615   2.913  2.5325  0.1122  0.5056
  263SOL    HW2  789   3.065   1.490   2.870  1.3840 -2.8644 -0.4095
  264SOL     OW  790   0.403   1.911   1.187 -0.9118  0.9444 -0.0484
  264SOL    HW1  791   0.407   1.845   1.112 -3.9639  1.0744  1.5373
  264SOL    HW2  792   0.413   1.862   1.278  1.3690 -1.3665  0.1344
  265SOL     OW  793   0.673   0.860   0.874 -0.1309 -0.2517  0.6401
  265SOL    HW1  794   0.760   0.881   0.922  1.4778  0.6717  2.6448
  265SOL    HW2  795   0.634   0.939   0.827 -0.3910  3.1264  1.2238
  266SOL     OW  796   1.530   1.647   0.051  0.0303 -0.1569 -0.1702
  266SOL    HW1  797   1.573   1.647   3.033 -0.2454  0.7897 -5.1931
  266SOL    HW2  798   1.601   1.648   0.122  1.2452 -0.0149 -1.9753
  267SOL     OW  799   0.831   1.040   2.617  0.6516  0.0774  0.4747
  267SOL    HW1  800   0.919   0.995   2.641 -1.6316 -0.6864  0.4694
  267SOL    HW2  801   0.781   0.990   2.543 -2.2149  1.9071 -0.8874
  268SOL     OW  802   0.815   0.689   2.985 -0.3208 -0.1718 -0.2943
  268SOL    HW1  803   0.867   0.657   3.069 -1.8613 -0.6292 -1.4297
  268SOL    HW2  804   0.781   0.787   2.989  0.4969 -0.1313  0.7314
  269SOL     OW  805   1.809   2.763   2.530  0.2120 -0.2698 -0.3409
  269SOL    HW1  806   1.757   2.808   2.452  0.5972  1.5130  0.2537
  269SOL    HW2  807   1.742   2.725   2.598  2.4595 -1.2424  0.6671
  270SOL     OW  808   1.079   1.317   2.809 -0.3105 -0.2731  0.4375
  270SOL    HW1  809   1.182   1.323   2.816 -0.7745  2.5144  2.8942
  270SOL    HW2  810   1.062   1.217   2.834 -1.4440 -3.2930 -0.0687
  271SOL     OW  811   3.013   0.570   0.073 -0.0849 -0.2449  0.1481
  271SOL    HW1  812   0.017   0.593   0.017  2.5004  1.1342  0.1111
  271SOL    HW2  813   2.926   0.580   0.022 -0.6860 -0.4631 -0.8637
  272SOL     OW  814   2.315   1.133   2.555 -0.0858  0.3476  0.1067
  272SOL    HW1  815   2.252   1.156   2.631  3.7229 -2.2289 -1.4812
  272SOL    HW2  816   2.412   1.138   2.589  0.6088  2.0259  2.1859
  273SOL     OW  817   0.212   0.288   2.229  0.0901 -0.0680 -0.2212
  273SOL    HW1  818   0.189   0.215   2.292  1.9244  2.5203 -0.6810
  273SOL    HW2  819   0.199   0.374   2.281  0.4597  1.6501 -1.0928
  274SOL     OW  820   0.090   0.331   1.959  0.7306  0.1663  0.1012
  274SOL    HW1  821   0.108   0.230   1.950  1.3850 -2.4603 -0.8843
  274SOL    HW2  822   0.086   0.363   2.057  0.9398  1.4450  0.2526
  275SOL     OW  823   1.626   1.411   0.674  0.2284 -0.2430 -0.3794
  275SOL    HW1  824   1.666   1.407   0.582  4.1253 -0.0934  0.2098
  275SOL    HW2  825   1.538   1.464   0.673 -0.4430  1.8193 -2.4828
  276SOL     OW  826   0.515   1.162   2.490 -0.4892  0.2701 -0.1443
  276SOL    HW1  827   0.500   1.065   2.496  0.3007  2.4067 -0.9936
  276SOL    HW2  828   0.483   1.205   2.576 -0.4041 -0.3501  1.7541
  277SOL     OW  829   2.017   2.558   2.478  0.1024 -0.0078 -0.8535
  277SOL    HW1  830   2.051   2.531   2.383 -2.1868 -1.4383 -1.6285
  277SOL    HW2  831   1.971   2.648   2.474  0.1322 -0.3973 -0.2389
  278SOL     OW  832   2.038   0.090   1.740 -0.1733  0.1813 -0.1515
  278SOL    HW1  833   2.032   0.188   1.710  2.1909 -1.3540 -1.3115
  278SOL    HW2  834   2.010   0.027   1.663 -0.6762  0.7427  3.4872
  279SOL     OW  835   1.487   1.303   3.006  0.0740  0.2448 -0.0969
  279SOL    HW1  836   1.419   1.369   3.049  0.4469  1.1050 -3.9105
  279SOL    HW2  837   1.486   1.212   3.055  1.2344 -3.9116 -0.3413
  280SOL     OW  838   0.809   1.515   0.175 -0.4391 -0.1717  0.0267
  280SOL    HW1  839   0.890   1.519   0.239  1.3797 -0.6911 -0.1378
  280SOL    HW2  840   0.833   1.497   0.080 -1.4865  1.7847 -1.0899
  281SOL     OW  841   2.989   2.955   1.487  0.2217  0.1080 -0.5355
  281SOL    HW1  842   3.071   2.929   1.539 -1.4204 -0.6249 -1.5530
  281SOL    HW2  843   2.938   3.020   1.548 -2.7642  3.4873  0.8038
  282SOL     OW  844   2.909   2.214   0.803  0.9914 -0.2208 -0.0251
  282SOL    HW1  845   3.003   2.198   0.771  1.1470  3.0929  1.6729
  282SOL    HW2  846   2.847   2.233   0.726  0.7065 -0.8290 -0.6944
  283SOL     OW  847   1.180   1.843   1.993 -0.1428 -0.0023  0.4652
  283SOL    HW1  848   1.241   1.864   2.068  0.2597 -0.2525  0.4220
  283SOL    HW2  849   1.088   1.816   2.025 -0.0089  1.2356  0.5221
  284SOL     OW  850   1.886   0.249   0.444  0.5527 -0.9695 -0.2087
  284SOL    HW1  851   1.978   0.220   0.470 -0.7027  0.7285 -1.5186
  284SOL    HW2  852   1.880   0.336   0.394 -1.5802 -3.2097 -0.2528
  285SOL     OW  853   0.173   2.860   2.538 -0.3073  0.0011  0.2440
  285SOL    HW1  854   0.125   2.813   2.462  1.8492 -1.2278 -0.2702
  285SOL    HW2  855   0.245   2.795   2.579  0.2089  0.2111 -0.6529
  286SOL     OW  856   2.169   2.463   1.295  0.2560  0.2235 -0.4234
  286SOL    HW1  857   2.257   2.468   1.346  1.1993 -3.5813 -0.3638
  286SOL    HW2  858   2.167   2.523   1.211 -2.0307 -0.4183 -1.5450
  287SOL     OW  859   0.669   1.594   0.921  0.2144 -0.5811 -0.5954
  287SOL    HW1  860   0.637   1.499   0.900  0.6594  2.1615 -1.1798
  287SOL    HW2  861   0.714   1.642   0.842 -0.5715 -1.2696  1.1265
  288SOL     OW  862   1.940   2.085   2.817 -0.4969 -0.3120 -0.5433
  288SOL    HW1  863   1.859   2.143   2.825  0.8349  0.7481  0.0774
  288SOL    HW2  864   1.976   2.080   2.718  0.8052 -0.9215 -0.4594
  289SOL     OW  865   0.457   1.945   2.460 -0.1211 -0.2806  0.2753
  289SOL    HW1  866   0.545   1.995   2.475 -3.5990 -2.6191 -0.9815
  289SOL    HW2  867   0.402   1.928   2.543  0.3788 -2.1172 -2.7388
  290SOL     OW  868   1.024   2.192   1.028  0.3917 -0.0636  0.1343
  290SOL    HW1  869   1.111   2.241   1.041  1.0274  1.4852  1.0171
  290SOL    HW2  870   1.000   2.115   1.090  1.1609 -1.3523 -2.7025
  291SOL     OW  871   1.760   1.320   3.011  0.3789 -0.1619 -0.1111
  291SOL    HW1  872   1.781   1.309   0.035  1.6211 -0.7735  3.0390
  291SOL    HW2  873   1.659   1.313   2.989 -1.5713 -0.6394 -0.7917
  292SOL     OW  874   1.094   1.351   0.728  0.4167 -0.0491 -0.0518
  292SOL    HW1  875   1.041   1.285   0.784 -0.7494 -2.5811 -0.8502
  292SOL    HW2  876   1.147   1.303   0.655 -0.0136 -0.4587 -1.7544
  293SOL     OW  877   1.364   2.937   1.122 -0.2023 -0.1436  0.0360
  293SOL    HW1  878   1.466   2.937   1.137 -2.1336  0.3193 -0.3101
  293SOL    HW2  879   1.343   2.896   1.033  0.3686 -0.1145  0.0076
  294SOL     OW  880   2.877   1.146   2.935  0.7285  1.1916  0.1620
  294SOL    HW1  881   2.971   1.148   2.972  0.4023  0.4813 -0.4135
  294SOL    HW2  882   2.874   1.151   2.830 -0.3064  3.4239  0.2030
  295SOL     OW  883   1.656   2.034   2.624  0.4696  0.2704 -0.2883
  295SOL    HW1  884   1.652   2.104   2.691  0.4515 -0.8243 -0.0024
  295SOL    HW2  885   1.682   2.075   2.535 -1.0107  1.7586 -0.8373
  296SOL     OW  886   2.179   1.163   2.166  0.5901 -0.5569 -0.6913
  296SOL    HW1  887   2.092   1.115   2.154 -2.1209 -0.4434  2.2915
  296SOL    HW2  888   2.163   1.256   2.217  0.2145  5.6656 -0.2440
  297SOL     OW  889   0.295   0.877   2.240  0.3636  0.4364  0.3658
  297SOL    HW1  890   0.329   0.877   2.141  2.0123 -0.4815  0.5865
  297SOL    HW2  891   0.252   0.967   2.247  0.4492 -1.6590  1.2021
  298SOL     OW  892   1.199   2.003   2.240 -0.0333  0.2193 -0.3425
  298SOL    HW1  893   1.153   2.088   2.209 -0.8808 -1.5588  0.9970
  298SOL    HW2  894   1.134   1.949   2.293 -2.3842  1.1394 -0.1074
  299SOL     OW  895   0.548   2.927   2.468 -0.9070 -0.8847 -0.0111
  299SOL    HW1  896   0.639   2.956   2.425 -0.6807  0.2448 -1.4680
  299SOL    HW2  897   0.521   2.842   2.425  1.4865  1.5453  0.4907
  300SOL     OW  898   0.268   0.975   2.941  0.8075  0.1536  0.5496
  300SOL    HW1  899   0.348   0.921   2.962  0.3050  1.3014 -1.2568
  300SOL    HW2  900   0.280   1.060   2.884 -1.3729  1.9633 -1.6561
  301SOL     OW  901   1.620   1.098   1.582 -0.0788  0.1321  0.3736
  301SOL    HW1  902   1.706   1.046   1.608 -0.1307  1.5494  1.4039
  301SOL    HW2  903   1.623   1.188   1.630  3.3922 -0.9155 -0.5642
  302SOL     OW  904   2.424   2.023   2.309  0.0260  0.1344 -0.2313
  302SOL    HW1  905   2.354   2.035   2.384  0.9026 -0.6128 -3.2031
  302SOL    HW2  906   2.402   2.092   2.242  0.2748  1.3956 -1.0808
  303SOL     OW  907   0.005   0.114   2.543  0.1648  0.2750  0.1967
  303SOL    HW1  908   0.088   0.112   2.492 -2.8092 -0.9072  0.1625
  303SOL    HW2  909   3.078   0.206   2.589 -1.3961 -1.8226  0.1828
  304SOL     OW  910   0.164   0.740   1.702  0.4080  0.1376  0.5688
  304SOL    HW1  911   0.243   0.752   1.638 -0.6435  0.3909 -1.4983
  304SOL    HW2  912   0.162   0.644   1.738  0.4914 -0.2980  0.9639
  305SOL     OW  913   2.931   0.076   1.688  0.3653 -0.2196 -0.5378
  305SOL    HW1  914   2.933   0.039   1.783  0.4545  1.7690  0.4300
  305SOL    HW2  915   2.991   0.154   1.668  2.4689  1.5998  0.0854
  306SOL     OW  916   2.612   1.189   1.360 -0.7880  0.1587  0.2264
  306SOL    HW1  917   2.610   1.093   1.392  2.3850  0.1375 -3.6261
  306SOL    HW2  918   2.668   1.247   1.419  1.5676  0.9629 -2.1610
  307SOL     OW  919   1.959   0.075   1.089  0.1063 -0.2002  0.2769
  307SOL    HW1  920   1.930   0.096   0.994 -0.6358  0.5356 -1.0426
  307SOL    HW2  921   2.059   0.091   1.101  1.8882  3.5139 -1.0322
  308SOL     OW  922   2.824   1.972   1.225  0.1527  0.6514  0.2071
  308SOL    HW1  923   2.816   2.015   1.138 -1.3134  0.0654  2.6826
  308SOL    HW2  924   2.891   1.895   1.220 -1.1860 -0.9170  1.9695
  309SOL     OW  925   2.096   1.820   1.566 -0.0734  0.3262  0.4742
  309SOL    HW1  926   2.055   1.833   1.474  0.0505 -2.0168 -1.2368
  309SOL    HW2  927   2.053   1.745   1.614  3.7985 -1.1755  0.2927
  310SOL     OW  928   2.439   1.448   2.984 -0.0478  0.1103 -0.2517
  310SOL    HW1  929   2.464   1.544   3.002  0.2096  0.0116  0.2839
  310SOL    HW2  930   2.371   1.444   2.905  1.3197 -0.3391 -0.5479
  311SOL     OW  931   2.145   1.196   2.755  0.9325 -0.3863  0.1174
  311SOL    HW1  932   2.062   1.251   2.767  0.8475  0.0259 -0.8949
  311SOL    HW2  933   2.132   1.102   2.793  1.0387  3.2315 -0.8739
  312SOL     OW  934   1.453   2.351   1.949 -0.1838 -0.0862  0.1229
  312SOL    HW1  935   1.361   2.310   1.926  0.8937  1.0763 -2.5418
  312SOL    HW2  936   1.498   2.366   1.860  1.3817  0.3873  1.1978
  313SOL     OW  937   0.369   2.863   1.063  0.5443  0.6776  0.5811
  313SOL    HW1  938   0.274   2.840   1.035 -0.5657 -0.4885 -0.7157
  313SOL    HW2  939   0.433   2.791   1.032 -2.1605 -1.0091  1.2358
  314SOL     OW  940   0.947   1.694   1.339 -0.3496 -0.2231 -0.2893
  314SOL    HW1  941   0.878   1.767   1.355  0.5979  0.6801  2.8735
  314SOL    HW2  942   0.924   1.652   1.249 -3.0507  1.1097  3.4321
  315SOL     OW  943   0.523   3.006   2.186  0.3895 -0.3285  0.5109
  315SOL    HW1  944   0.475   3.069   2.246  0.1678 -2.4572  0.6557
  315SOL    HW2  945   0.464   2.922   2.175  0.3444  3.4126 -0.9927
  316SOL     OW  946   3.058   2.029   1.033  0.5285  0.1882 -0.4835
  316SOL    HW1  947   3.024   2.002   0.940  1.9036 -3.6209 -0.4656
  316SOL    HW2  948   0.073   2.063   1.024  0.2302  0.9881  0.2272
  317SOL     OW  949   1.776   0.616   0.357 -0.3342  0.2083  0.4085
  317SOL    HW1  950   1.768   0.563   0.272 -0.6299  1.3318  0.0089
  317SOL    HW2  951   1.807   0.568   0.444 -0.5931 -2.0816  1.4798
  318SOL     OW  952   2.817   2.554   2.971 -0.1302  0.3944  0.0008
  318SOL    HW1  953   2.716   2.562   2.962  2.0828 -2.2461  1.6524
  318SOL    HW2  954   2.869   2.634   2.952  1.3569 -5.6606  1.8023
  319SOL     OW  955   1.687   1.600   0.318 -0.2201 -0.2858  0.2913
  319SOL    HW1  956   1.616   1.527   0.320  1.2408  1.6189 -2.3434
  319SOL    HW2  957   1.776   1.575   0.270 -1.6095 -1.5697 -1.7415
  320SOL     OW  958   0.653   2.383   2.514 -0.6290 -0.1327  0.2308
  320SOL    HW1  959   0.579   2.403   2.452  0.8567 -2.3187  1.4375
  320SOL    HW2  960   0.667   2.285   2.511 -2.0526  0.3361 -1.2806
  321SOL     OW  961   0.883   2.927   0.288  0.1977 -0.5600  0.3009
  321SOL    HW1  962   0.849   2.847   0.243 -0.5577  3.1649  2.0370
  321SOL    HW2  963   0.980   2.953   0.261  4.1312  0.7606 -0.8232
  322SOL     OW  964   2.284   0.945   2.007 -0.0101 -0.0800  0.0374
  322SOL    HW1  965   2.254   1.029   2.051  2.0530 -0.9112 -1.3223
  322SOL    HW2  966   2.362   0.898   2.050 -0.4278 -1.4031 -0.9692
  323SOL     OW  967   2.784   0.922   0.666 -0.0089  0.5180 -0.1038
  323SOL    HW1  968   2.878   0.884   0.673  0.1333  1.4358  0.8206
  323SOL    HW2  969   2.777   1.012   0.617  0.0663 -1.3316 -0.2796
  324SOL     OW  970   0.202   0.465   2.434 -0.2541 -0.7499  0.0360
  324SOL    HW1  971   0.174   0.563   2.427 -1.8624  0.8584 -3.6845
  324SOL    HW2  972   0.303   0.455   2.419  0.6779  1.4613  0.7152
  325SOL     OW  973   0.873   0.231   2.307 -0.1486 -0.2060  0.2280
  325SOL    HW1  974   0.930   0.204   2.228  0.1609 -0.1992 -0.3879
  325SOL    HW2  975   0.924   0.240   2.395 -0.3033 -0.1133  0.4900
  326SOL     OW  976   2.368   2.759   1.062  0.6637 -0.3683 -0.2758
  326SOL    HW1  977   2.444   2.739   1.125 -1.3142 -0.1333 -2.3739
  326SOL    HW2  978   2.404   2.811   0.983 -3.4071 -0.4413 -1.0442
  327SOL     OW  979   1.774   1.010   0.210 -0.3753  0.1886 -0.2030
  327SOL    HW1  980   1.811   0.938   0.153 -0.1193 -0.6532  0.2744
  327SOL    HW2  981   1.689   0.979   0.260 -2.1326 -0.4877  2.0701
  328SOL     OW  982   3.070   1.919   2.057 -0.0299  0.2089 -0.0070
  328SOL    HW1  983   3.075   1.889   2.154  0.5086 -0.3425  0.4569
  328SOL    HW2  984   2.993   1.982   2.043 -1.2819 -1.3524  1.8551
  329SOL     OW  985   2.366   2.609   1.860  0.0435 -0.4643 -0.2697
  329SOL    HW1  986   2.397   2.519   1.824  1.8549  0.8360 -0.8432
  329SOL    HW2  987   2.319   2.658   1.781 -2.2858  0.4573 -0.8358
  330SOL     OW  988   2.383   1.433   1.687  0.1436  0.3190 -0.0781
  330SOL    HW1  989   2.300   1.426   1.747 -2.1028  0.6516 -0.6089
  330SOL    HW2  990   2.447   1.509   1.705 -0.1200 -0.9809 -1.8013
  331SOL     OW  991   2.721   2.063   0.946 -0.1965 -0.1288  0.4968
  331SOL    HW1  992   2.791   2.117   0.893 -1.4601 -0.8615  0.2272
  331SOL    HW2  993   2.700   1.971   0.903  1.5689 -2.7870  1.8320
  332SOL     OW  994   0.656   2.585   0.074 -0.0925 -0.6564 -0.3548
  332SOL    HW1  995   0.584   2.660   0.081 -1.2058  1.4005  2.6568
  332SOL    HW2  996   0.719   2.588   0.155  2.1260  1.3469  0.5227
  333SOL     OW  997   1.937   0.182   2.557  0.2084  0.0793  0.7150
  333SOL    HW1  998   1.865   0.142   2.501  4.1883  0.7375  1.7460
  333SOL    HW2  999   2.000   0.233   2.493  0.9302  1.5285  0.0554
  334SOL     OW 1000   0.589   1.086   0.508  0.5899 -0.1650 -0.5014
  334SOL    HW1 1001   0.689   1.113   0.506  2.9522  0.7313 -0.4356
  334SOL    HW2 1002   0.529   1.167   0.523 -1.8413  1.1580  1.1756
  335SOL     OW 1003   0.172   3.032   2.151 -0.0381 -0.2876  0.0375
  335SOL    HW1 1004   0.183   3.066   2.247 -0.5864  2.0931 -1.1257
  335SOL    HW2 1005   0.148   0.031   2.087 -1.0773 -0.3122 -0.4911
  336SOL     OW 1006   2.857   0.071   2.260 -0.5432 -0.4464 -0.0766
  336SOL    HW1 1007   2.909   3.079   2.316  2.3483 -0.8819 -0.3686
  336SOL    HW2 1008   2.910   0.152   2.229 -0.2541 -0.1481 -1.5757
  337SOL     OW 1009   1.458   1.568   0.960  0.0670 -0.2768  0.1540
  337SOL    HW1 1010   1.485   1.596   1.053  1.5385  2.2028 -2.1446
  337SOL    HW2 1011   1.467   1.465   0.949  1.3028 -0.9080 -2.6329
  338SOL     OW 1012   0.969   1.809   0.849 -0.2267  0.8926 -0.5813
  338SOL    HW1 1013   1.011   1.722   0.885 -2.5604  0.6818 -2.4289
  338SOL    HW2 1014   0.892   1.836   0.911  0.1066  0.9926 -0.8871
  339SOL     OW 1015   0.043   0.899   1.099 -0.4731  0.0132  0.1940
  339SOL    HW1 1016   0.111   0.937   1.165 -1.2173 -0.8664  0.3679
  339SOL    HW2 1017   3.033   0.895   1.146  0.2346  0.6840 -2.1251
  340SOL     OW 1018   1.520   2.584   2.087  0.1593  0.0735  0.0366
  340SOL    HW1 1019   1.501   2.496   2.039  0.0780  2.3414  0.1499
  340SOL    HW2 1020   1.600   2.577   2.146 -2.6104  2.2967 -2.3561
  341SOL     OW 1021   1.868   1.366   0.803 -0.1623  0.1782 -0.0866
  341SOL    HW1 1022   1.852   1.337   0.899  0.6349  1.3118  0.9631
  341SOL    HW2 1023   1.778   1.388   0.763  2.2229 -0.9409 -0.2092
  342SOL     OW 1024   2.762   1.389   0.670  0.4549  0.4439  0.2994
  342SOL    HW1 1025   2.796   1.450   0.601  0.0508 -2.7758  1.9176
  342SOL    HW2 1026   2.734   1.436   0.754 -0.4849 -2.2227  0.1094
  343SOL     OW 1027   2.620   1.060   1.747  0.0395 -0.4180 -0.3377
  343SOL    HW1 1028   2.661   0.996   1.821  3.3566 -1.4547  3.6308
  343SOL    HW2 1029   2.666   1.148   1.756 -0.1045 -1.3994  0.7311
  344SOL     OW 1030   2.038   0.681   1.021  0.5453 -0.5430 -0.4053
  344SOL    HW1 1031   1.942   0.700   1.004  0.6353  2.5396  2.6958
  344SOL    HW2 1032   2.050   0.642   1.115 -2.3174  0.4176  1.7260
  345SOL     OW 1033   0.238   0.040   2.401  0.0265 -0.4076 -0.2727
  345SOL    HW1 1034   0.249   3.022   2.428  1.9788 -0.1895  0.5961
  345SOL    HW2 1035   0.320   0.091   2.436 -2.2050 -0.7969 -2.8126
  346SOL     OW 1036   2.466   1.428   0.203 -0.6166 -0.1387 -0.2228
  346SOL    HW1 1037   2.397   1.485   0.260 -1.9591  1.2093  2.3634
  346SOL    HW2 1038   2.454   1.446   0.104  0.1961  2.7395 -1.8427
  347SOL     OW 1039   1.900   2.822   1.922 -0.0927  0.0138 -0.0039
  347SOL    HW1 1040   1.925   2.761   1.841  1.0781  2.7749  0.0788
  347SOL    HW2 1041   1.937   2.914   1.913  1.5372 -1.2691  3.2325
  348SOL     OW 1042   1.097   1.181   1.667  0.6907 -0.4204 -0.3336
  348SOL    HW1 1043   1.100   1.281   1.678 -0.8591 -0.8238 -1.7485
  348SOL    HW2 1044   1.008   1.140   1.644  2.6280  0.2567  2.0932
  349SOL     OW 1045   2.389   0.917   1.758  0.1675 -0.3471  0.4756
  349SOL    HW1 1046   2.362   0.942   1.852 -0.0645 -3.1421  2.1591
  349SOL    HW2 1047   2.455   0.986   1.718  0.4671  0.7845 -0.2779
  350SOL     OW 1048   2.473   2.387   0.454 -0.1726 -0.5250 -0.2552
  350SOL    HW1 1049   2.477   2.488   0.438  0.1058  2.7717  2.9147
  350SOL    HW2 1050   2.493   2.368   0.553 -2.1256  1.0074 -0.7203
  351SOL     OW 1051   0.270   0.224   1.450 -0.3132 -0.5353  0.4954
  351SOL    HW1 1052   0.286   0.145   1.388  1.3184 -1.9629  1.0271
  351SOL    HW2 1053   0.183   0.268   1.428  0.9988  1.0639 -1.7569
  352SOL     OW 1054   1.813   2.403   1.859  0.1332  0.3544  0.0757
  352SOL    HW1 1055   1.880   2.388   1.934 -3.6781  0.4147  1.3522
  352SOL    HW2 1056   1.763   2.317   1.838  3.3833 -0.4567 -1.6645
  353SOL     OW 1057   0.855   1.381   2.344  0.2720 -0.4490  0.0945
  353SOL    HW1 1058   0.805   1.292   2.339  2.2213  0.6470  0.6614
  353SOL    HW2 1059   0.873   1.393   2.440 -0.1786 -0.7679 -1.9878
  354SOL     OW 1060   1.368   1.574   0.525 -0.5359 -0.6320 -0.4738
  354SOL    HW1 1061   1.388   1.485   0.474 -4.0889  0.7538 -2.6295
  354SOL    HW2 1062   1.398   1.657   0.471  2.2896 -0.6495  0.9227
  355SOL     OW 1063   1.912   0.220   0.841  0.6504 -0.9293 -0.2114
  355SOL    HW1 1064   1.993   0.161   0.820  0.4726 -3.5146 -1.1263
  355SOL    HW2 1065   1.855   0.245   0.758 -1.0925  0.7618 -1.4801
  356SOL     OW 1066   2.766   1.258   0.083 -0.4363 -0.3399  0.8265
  356SOL    HW1 1067   2.815   1.209   0.005 -0.8497 -2.4206 -5.2057
  356SOL    HW2 1068   2.694   1.202   0.123  1.4139  1.6459 -1.5015
  357SOL     OW 1069   0.122   0.048   1.908  0.5373  0.1909  0.5380
  357SOL    HW1 1070   0.161   0.066   1.817  0.9710 -0.5872  2.9656
  357SOL    HW2 1071   0.037   3.077   1.902  1.7347 -1.9782  0.6431
  358SOL     OW 1072   0.172   1.238   0.335 -0.1337 -0.3480  1.0204
  358SOL    HW1 1073   0.136   1.316   0.278  0.7775 -0.9845 -0.4783
  358SOL    HW2 1074   0.219   1.174   0.275  2.0361 -1.5856  2.9938
  359SOL     OW 1075   2.629   3.019   2.720  0.0658  0.4637 -0.0370
  359SOL    HW1 1076   2.533   3.052   2.728  0.1931 -0.0564  2.3574
  359SOL    HW2 1077   2.637   2.920   2.710 -0.1395 -0.7306 -5.0397
  360SOL     OW 1078   1.683   0.968   1.166 -0.3325  0.1771  0.2119
  360SOL    HW1 1079   1.709   1.056   1.214 -1.7219 -0.8885 -2.3885
  360SOL    HW2 1080   1.583   0.953   1.175  0.0546 -0.8777  0.7266
  361SOL     OW 1081   2.111   2.191   1.237  0.1540 -0.1561  0.1434
  361SOL    HW1 1082   2.171   2.147   1.302  0.3750 -1.0465 -3.9208
  361SOL    HW2 1083   2.124   2.286   1.244 -5.4660 -3.6513  0.2603
  362SOL     OW 1084   1.460   0.586   0.992  0.0903 -0.0583 -0.1422
  362SOL    HW1 1085   1.492   0.637   1.078  0.4059  0.9878  2.0979
  362SOL    HW2 1086   1.356   0.568   0.988 -0.3339  0.5636  3.8158
  363SOL     OW 1087   2.127   2.303   0.396 -0.3133  0.3004 -0.1553
  363SOL    HW1 1088   2.185   2.262   0.473 -1.4823  1.0377  1.7494
  363SOL    HW2 1089   2.038   2.330   0.428  2.0023  0.5507  2.0299
  364SOL     OW 1090   0.196   0.443   0.895  0.1339  0.2127 -0.2001
  364SOL    HW1 1091   0.216   0.346   0.875 -1.2941  0.2279  1.6342
  364SOL    HW2 1092   0.216   0.469   0.993 -2.1849  2.2569 -1.9298
  365SOL     OW 1093   0.346   2.785   0.688  0.2492 -0.0669 -0.0168
  365SOL    HW1 1094   0.246   2.789   0.676  1.0325 -3.3515  2.4677
  365SOL    HW2 1095   0.378   2.879   0.699  0.6179 -1.2014  0.0905
  366SOL     OW 1096   0.066   1.520   0.509 -0.1992 -0.1366 -0.5701
  366SOL    HW1 1097   0.098   1.427   0.518  0.6012  2.1035  1.0413
  366SOL    HW2 1098   0.127   1.585   0.463  0.3663  0.0983 -0.2519
  367SOL     OW 1099   2.653   2.204   2.699  0.1108 -0.1196  0.6519
  367SOL    HW1 1100   2.717   2.284   2.715 -0.5861  0.2650  0.7023
  367SOL    HW2 1101   2.561   2.245   2.692  0.9869  2.2411  2.3790
  368SOL     OW 1102   2.218   1.700   0.719 -0.2589 -0.3261 -0.1177
  368SOL    HW1 1103   2.143   1.632   0.721 -0.8133  1.4191 -1.0013
  368SOL    HW2 1104   2.307   1.664   0.686 -1.5990  2.6935  0.4830
  369SOL     OW 1105   1.213   0.698   0.089  0.1188 -0.8114 -0.9057
  369SOL    HW1 1106   1.184   0.644   0.008  0.0955  1.5672  0.0212
  369SOL    HW2 1107   1.258   0.649   0.167  1.7821  0.1846  1.4826
  370SOL     OW 1108   0.577   3.054   0.945  0.0256  0.2952  0.0471
  370SOL    HW1 1109   0.635   0.054   0.973 -0.4309  1.0972 -1.3625
  370SOL    HW2 1110   0.529   3.012   1.022 -1.4428 -2.1013 -0.2076
  371SOL     OW 1111   2.687   1.505   2.716 -0.1824 -0.0895 -0.0240
  371SOL    HW1 1112   2.649   1.518   2.622  3.1031  0.2223 -2.1315
  371SOL    HW2 1113   2.665   1.417   2.761 -0.4799  4.4109 -1.1670
  372SOL     OW 1114   0.767   0.804   2.428  0.1804  0.0667  0.2817
  372SOL    HW1 1115   0.752   0.780   2.327 -5.6075  0.3456 -2.4777
  372SOL    HW2 1116   0.824   0.734   2.478 -0.2372 -2.3081  1.2513
  373SOL     OW 1117   0.550   0.405   0.031  0.2190  0.1016 -0.2393
  373SOL    HW1 1118   0.496   0.413   3.024  2.8069  0.3654  0.6436
  373SOL    HW2 1119   0.632   0.352   0.017 -2.2949  1.3611 -2.9201
  374SOL     OW 1120   1.203   2.046   0.120  0.1110  0.3285 -0.1467
  374SOL    HW1 1121   1.203   2.135   0.073  1.4096 -1.8334 -0.3618
  374SOL    HW2 1122   1.227   1.966   0.064 -1.1650  0.9048 -1.2943
  375SOL     OW 1123   0.894   2.978   1.651  0.5087  0.0739 -0.2579
  375SOL    HW1 1124   0.928   2.932   1.564  0.9000  1.1617  0.8574
  375SOL    HW2 1125   0.859   3.069   1.623  0.2011  1.3316 -0.7871
  376SOL     OW 1126   0.234   2.588   1.994  0.4207 -0.0612  0.4244
  376SOL    HW1 1127   0.169   2.508   1.986 -0.8878 -3.2907  0.2839
  376SOL    HW2 1128   0.326   2.564   1.960 -2.9891 -3.2472  1.7893
  377SOL     OW 1129   2.618   2.032   0.100 -0.2435  0.4849  0.1954
  377SOL    HW1 1130   2.542   2.086   0.142  0.2624 -0.1248 -0.6860
  377SOL    HW2 1131   2.629   1.948   0.154  1.3697  0.8308  1.1896
  378SOL     OW 1132   2.378   0.222   0.606 -0.2297  0.6869  0.0211
  378SOL    HW1 1133   2.362   0.315   0.645  0.2724 -0.6583 -0.3342
  378SOL    HW2 1134   2.397   0.164   0.683 -2.9657  0.4583  0.1662
  379SOL     OW 1135   1.017   0.760   0.426  0.7380 -0.1931  0.4870
  379SOL    HW1 1136   0.966   0.769   0.340 -0.0951 -2.9003  1.4012
  379SOL    HW2 1137   0.975   0.825   0.496 -1.9505  2.7276  1.6378
  380SOL     OW 1138   2.662   2.230   1.690  0.1990 -0.1950  0.3645
  380SOL    HW1 1139   2.704   2.317   1.653 -1.1745  0.1426  0.1296
  380SOL    HW2 1140   2.680   2.151   1.627 -0.5887 -1.7359  2.9563
  381SOL     OW 1141   2.671   1.398   2.050  0.0539 -0.2309 -0.3031
  381SOL    HW1 1142   2.640   1.487   2.094 -0.2400  0.3514  0.5623
  381SOL    HW2 1143   2.638   1.321   2.103 -0.1401  0.2536 -1.0937
  382SOL     OW 1144   2.843   2.124   2.911  0.2143 -0.5313 -0.0889
  382SOL    HW1 1145   2.808   2.148   3.002  0.5745 -2.0421 -1.7461
  382SOL    HW2 1146   2.825   2.203   2.844  3.6129  2.2803 -0.1372
  383SOL     OW 1147   1.256   1.097   2.584 -1.1151 -0.8536 -0.5980
  383SOL    HW1 1148   1.191   1.149   2.521  0.4948 -2.3534  0.5266
  383SOL    HW2 1149   1.350   1.128   2.567  1.0513 -0.0151  0.0163
  384SOL     OW 1150   1.445   1.975   2.112  0.0068 -0.0626 -0.6285
  384SOL    HW1 1151   1.525   2.031   2.137 -2.0832 -1.5993 -0.4176
  384SOL    HW2 1152   1.362   2.016   2.145  1.3928 -0.8154 -0.5040
  385SOL     OW 1153   2.501   2.738   0.186 -0.3467 -0.5048 -0.1266
  385SOL    HW1 1154   2.489   2.639   0.164 -2.8603 -1.6200  0.9484
  385SOL    HW2 1155   2.596   2.754   0.218  0.8335  2.7840 -0.9970
  386SOL     OW 1156   1.648   1.011   0.751  0.4729 -0.1549  0.0671
  386SOL    HW1 1157   1.586   1.086   0.720  1.6497  0.1665  0.2557
  386SOL    HW2 1158   1.598   0.925   0.780 -1.6996 -0.3353  0.8558
  387SOL     OW 1159   3.014   1.772   1.466 -0.1145 -0.5366  0.1791
  387SOL    HW1 1160   3.051   1.847   1.517 -0.7101 -2.0035 -1.9419
  387SOL    HW2 1161   3.007   1.792   1.365  0.4251 -2.1227 -1.2833
  388SOL     OW 1162   0.544   1.266   1.588 -0.1032  0.5647 -0.2090
  388SOL    HW1 1163   0.618   1.271   1.655  1.0117 -2.0057 -2.9422
  388SOL    HW2 1164   0.579   1.202   1.513  4.0259 -0.3209 -1.6625
  389SOL     OW 1165   2.178   0.871   2.384  0.1184  0.5576  0.4555
  389SOL    HW1 1166   2.121   0.867   2.465 -0.7239 -1.7742  1.9200
  389SOL    HW2 1167   2.204   0.968   2.376  2.1135  1.0017 -0.4663
  390SOL     OW 1168   1.078   1.655   0.058 -0.2540 -0.2560 -0.5003
  390SOL    HW1 1169   1.015   1.675   0.136 -2.1715  1.5202  0.3235
  390SOL    HW2 1170   1.023   1.604   3.067  0.8929  1.7720  0.8896
  391SOL     OW 1171   1.321   1.820   0.361 -0.2511 -0.1297  0.3367
  391SOL    HW1 1172   1.241   1.868   0.401 -1.2304 -0.1382 -0.4795
  391SOL    HW2 1173   1.303   1.781   0.268  1.3856  0.7509 -0.4771
  392SOL     OW 1174   2.684   2.855   2.406 -0.0740 -0.7960  0.1411
  392SOL    HW1 1175   2.727   2.793   2.335  0.2494 -1.9913 -0.4532
  392SOL    HW2 1176   2.743   2.931   2.427 -3.5515  0.4565  0.9651
  393SOL     OW 1177   1.482   2.210   2.960 -0.1653  0.3020 -0.9239
  393SOL    HW1 1178   1.534   2.173   3.042 -0.4598  0.2926  1.5287
  393SOL    HW2 1179   1.391   2.231   2.991  1.5352  1.5022  0.0811
  394SOL     OW 1180   0.658   0.362   2.189  0.0256  0.4479  0.2943
  394SOL    HW1 1181   0.725   0.305   2.239 -2.0547 -0.1858  1.2083
  394SOL    HW2 1182   0.701   0.403   2.107 -0.3468 -1.6481  0.5388
  395SOL     OW 1183   0.257   1.630   1.386  0.1248  0.2656  0.2574
  395SOL    HW1 1184   0.224   1.718   1.430 -1.2505  1.6277 -0.0292
  395SOL    HW2 1185   0.247   1.631   1.284  3.4627  1.3151  0.4501
  396SOL     OW 1186   2.236   1.449   2.783 -0.4470 -0.2236  0.1629
  396SOL    HW1 1187   2.215   1.351   2.781 -1.9176  3.4533 -0.0562
  396SOL    HW2 1188   2.151   1.509   2.777 -1.4949  0.4982  1.2874
  397SOL     OW 1189   0.211   0.657   0.021  0.2136 -0.1266  0.2631
  397SOL    HW1 1190   0.230   0.638   3.004 -0.3090 -1.4957 -3.2228
  397SOL    HW2 1191   0.177   0.754   0.042 -1.5319  0.9642 -1.6608
  398SOL     OW 1192   0.804   2.303   0.185 -0.4487  0.2485 -0.2392
  398SOL    HW1 1193   0.885   2.369   0.181 -0.8109  0.1474  0.4993
  398SOL    HW2 1194   0.711   2.338   0.159  0.0588 -0.8517 -2.7195
  399SOL     OW 1195   1.820   2.361   2.550  0.2343 -0.4806  0.0916
  399SOL    HW1 1196   1.800   2.357   2.648  0.4423  1.5941 -2.5999
  399SOL    HW2 1197   1.880   2.443   2.528 -2.0996  1.0098  1.2557
  400SOL     OW 1198   2.979   1.152   1.744  0.4428  0.2493  0.1779
  400SOL    HW1 1199   2.899   1.217   1.751 -1.0631 -0.2346  0.7685
  400SOL    HW2 1200   3.067   1.200   1.730  0.6458 -3.1039  0.6787
  401SOL     OW 1201   0.683   0.654   0.668 -0.0283 -0.4098  0.2914
  401SOL    HW1 1202   0.673   0.716   0.587 -0.4314  1.8409  3.8379
  401SOL    HW2 1203   0.669   0.698   0.755 -0.1655  0.4735 -1.9924
  402SOL     OW 1204   0.952   0.129   2.584 -0.0083 -0.2566  0.4390
  402SOL    HW1 1205   0.875   0.197   2.579 -1.1000 -0.4675 -0.6914
  402SOL    HW2 1206   0.911   0.048   2.628  1.2337  1.7239 -1.2258
  403SOL     OW 1207   2.539   1.620   1.798  0.3237  0.1995  0.5310
  403SOL    HW1 1208   2.569   1.663   1.884 -1.8824 -0.5940 -1.7719
  403SOL    HW2 1209   2.624   1.612   1.740  0.5115  0.4808  0.2992
  404SOL     OW 1210   2.588   2.319   1.341 -0.1429  0.2293  1.1214
  404SOL    HW1 1211   2.682   2.315   1.377  1.9630  1.1629 -0.4145
  404SOL    HW2 1212   2.586   2.286   1.245 -3.4366  1.0853 -0.6823
  405SOL     OW 1213   1.936   0.292   2.807 -0.2013 -0.1437 -0.1604
  405SOL    HW1 1214   1.938   0.221   2.735  0.1425  0.4987  2.8361
  405SOL    HW2 1215   2.011   0.353   2.795 -1.3438 -0.8070  3.0423
  406SOL     OW 1216   1.286   1.819   3.058  0.4481  0.2453 -0.0031
  406SOL    HW1 1217   1.344   1.751   3.012  0.8677  1.9809  0.3300
  406SOL    HW2 1218   1.203   1.768   0.010 -1.4145 -0.1324 -0.5130
  407SOL     OW 1219   1.899   1.826   0.698  0.6033  0.5012 -0.0293
  407SOL    HW1 1220   1.834   1.903   0.681 -0.2468 -1.5137  1.0065
  407SOL    HW2 1221   1.993   1.855   0.663 -0.3110  2.0454  0.1634
  408SOL     OW 1222   0.002   0.260   1.373  0.2777 -0.0977  0.1023
  408SOL    HW1 1223   3.047   0.339   1.317 -1.3347  2.1563 -0.5617
  408SOL    HW2 1224   3.074   0.164   1.331  1.0624  1.8945  0.9107
  409SOL     OW 1225   2.153   1.320   0.321 -0.1230  0.0190  0.5652
  409SOL    HW1 1226   2.124   1.414   0.345 -0.3168 -0.6869 -3.7557
  409SOL    HW2 1227   2.219   1.278   0.389 -1.8394  0.2002  0.3199
  410SOL     OW 1228   2.288   2.381   0.850 -0.1194 -0.2752  0.0911
  410SOL    HW1 1229   2.195   2.408   0.814 -0.2292 -1.4494  0.6915
  410SOL    HW2 1230   2.273   2.310   0.925 -1.6956  0.4761 -1.2972
  411SOL     OW 1231   0.341   0.023   0.393  0.6099 -0.1794 -0.2832
  411SOL    HW1 1232   0.303   0.009   0.300 -0.0646  0.9696  0.2347
  411SOL    HW2 1233   0.435   3.062   0.401 -0.0473  1.1409 -0.3787
  412SOL     OW 1234   1.491   2.742   0.527 -0.2211  0.3421  0.2019
  412SOL    HW1 1235   1.475   2.790   0.617 -1.8800 -0.2531  3.1580
  412SOL    HW2 1236   1.544   2.656   0.539  0.2522  2.3364  0.4772
  413SOL     OW 1237   1.718   0.085   2.427 -0.2459  0.5780 -0.3161
  413SOL    HW1 1238   1.682   0.177   2.419 -1.9919  2.0187 -0.2009
  413SOL    HW2 1239   1.686   0.020   2.352 -1.9387 -0.6775 -0.1278
  414SOL     OW 1240   0.026   0.527   0.500 -0.0092 -0.4519  0.1942
  414SOL    HW1 1241   3.023   0.542   0.441  0.4956  0.4408  0.2866
  414SOL    HW2 1242   0.113   0.499   0.452 -0.6215  3.1289 -0.8731
  415SOL     OW 1243   3.016   1.326   0.815  0.0023 -0.1641 -0.5584
  415SOL    HW1 1244   3.008   1.234   0.854 -1.6677 -0.1600 -1.5602
  415SOL    HW2 1245   2.934   1.349   0.766  3.2798 -1.2582  0.2303
  416SOL     OW 1246   0.081   0.827   2.802 -0.1968  0.1338  0.5227
  416SOL    HW1 1247   0.148   0.769   2.746 -1.8117  2.0728 -0.0056
  416SOL    HW2 1248   0.132   0.880   2.876  2.6219  0.0105  4.1244
  417SOL     OW 1249   2.557   0.242   0.937  0.2866 -0.0895  0.1233
  417SOL    HW1 1250   2.487   0.311   0.921 -0.6191 -1.6132 -1.2249
  417SOL    HW2 1251   2.644   0.273   0.887  1.7645  2.1898  1.2234
  418SOL     OW 1252   0.817   2.987   2.674 -0.0009 -0.4173  0.1043
  418SOL    HW1 1253   0.867   2.939   2.750  1.4758 -1.0931  2.2111
  418SOL    HW2 1254   0.827   2.940   2.582  0.0250  0.8182 -1.8026
  419SOL     OW 1255   0.278   1.013   0.817 -0.2822  1.0006  0.3083
  419SOL    HW1 1256   0.206   1.054   0.756 -0.8469 -0.1741 -1.7268
  419SOL    HW2 1257   0.262   0.912   0.816  0.3041 -2.3280  0.7307
  420SOL     OW 1258   2.903   1.340   1.342  0.0837 -0.2675  0.0111
  420SOL    HW1 1259   2.931   1.401   1.420  0.7582 -0.0679  2.0301
  420SOL    HW2 1260   2.910   1.241   1.377  0.1400 -2.7443  0.9159
  421SOL     OW 1261   1.227   1.946   2.812  0.1670  0.0621 -0.5657
  421SOL    HW1 1262   1.296   1.930   2.741 -0.9796  2.8705  0.6279
  421SOL    HW2 1263   1.263   1.934   2.907 -0.8978  0.3253  0.7067
  422SOL     OW 1264   2.545   0.899   2.744  0.0602  0.1808 -0.9372
  422SOL    HW1 1265   2.580   0.986   2.717 -0.9046 -2.6716 -0.1179
  422SOL    HW2 1266   2.481   0.858   2.677 -1.3841 -3.4842  0.6795
  423SOL     OW 1267   1.916   1.536   0.195  0.0480  0.8873 -0.1223
  423SOL    HW1 1268   2.013   1.533   0.161 -0.1020 -0.1122 -1.7207
  423SOL    HW2 1269   1.876   1.446   0.192 -0.4064  2.8752 -1.5823
  424SOL     OW 1270   0.863   0.997   2.067  0.3080 -0.1942 -0.6157
  424SOL    HW1 1271   0.824   1.055   2.144  2.3573  2.8481  2.7583
  424SOL    HW2 1272   0.964   0.986   2.078  1.4543 -0.7534  1.2745
  425SOL     OW 1273   3.040   2.836   2.160 -0.2323  0.1738  0.5483
  425SOL    HW1 1274   2.996   2.798   2.079  2.3218  3.4030  1.1797
  425SOL    HW2 1275   0.025   2.913   2.142  0.5112  1.3906 -1.8243
  426SOL     OW 1276   2.244   2.487   0.244 -0.7202 -0.2154  0.5053
  426SOL    HW1 1277   2.283   2.554   0.306 -2.4171 -0.6536 -0.0186
  426SOL    HW2 1278   2.199   2.413   0.299 -2.4501 -1.1579 -0.4654
  427SOL     OW 1279   0.744   0.580   2.754  0.2432 -0.4042  0.4947
  427SOL    HW1 1280   0.818   0.599   2.686  1.5381  4.1210 -0.6944
  427SOL    HW2 1281   0.763   0.625   2.844  0.8959  1.0676  0.6409
  428SOL     OW 1282   2.636   1.282   2.876 -0.0227 -0.2640  0.4039
  428SOL    HW1 1283   2.720   1.235   2.917  0.6661 -1.0013  2.9715
  428SOL    HW2 1284   2.570   1.326   2.947 -2.7640  1.0245  1.6054
  429SOL     OW 1285   2.576   0.296   0.197  0.0632  0.6415  0.0505
  429SOL    HW1 1286   2.561   0.377   0.255 -1.2726  0.2960 -0.8767
  429SOL    HW2 1287   2.491   0.257   0.162  1.2580 -1.5337  0.4461
  430SOL     OW 1288   1.230   2.623   2.219  0.0718  0.1309  0.1287
  430SOL    HW1 1289   1.320   2.657   2.252  3.7414  1.4232  2.0320
  430SOL    HW2 1290   1.223   2.615   2.118 -2.0274  0.8379  1.7528
  431SOL     OW 1291   0.208   1.849   1.533 -0.3980 -0.3095  0.6872
  431SOL    HW1 1292   0.169   1.942   1.544 -0.7357  1.1776 -1.6202
  431SOL    HW2 1293   0.244   1.806   1.619 -1.8700  0.7348  0.3279
  432SOL     OW 1294   2.277   2.715   2.078  0.1273 -0.0921 -0.7700
  432SOL    HW1 1295   2.233   2.809   2.076 -1.2846  1.3788 -1.4035
  432SOL    HW2 1296   2.321   2.682   1.986  3.1801 -1.6935 -0.6845
  433SOL     OW 1297   1.136   2.016   0.420  0.2739 -0.1840 -0.3559
  433SOL    HW1 1298   1.048   2.000   0.465  1.7665 -1.8996 -0.0469
  433SOL    HW2 1299   1.144   2.022   0.320  0.8697  2.2140  0.3049
  434SOL     OW 1300   0.086   1.966   2.672 -0.3710  0.1058 -0.3214
  434SOL    HW1 1301   0.184   1.939   2.687 -0.0161  0.5014 -1.2377
  434SOL    HW2 1302   0.048   1.992   2.762  0.6603 -2.5953 -1.2229
  435SOL     OW 1303   0.098   0.978   0.515 -0.6885  0.1704  0.0611
  435SOL    HW1 1304   0.031   1.030   0.459  2.9198 -0.4552 -0.8645
  435SOL    HW2 1305   0.062   0.900   0.565  3.4448 -0.8388  2.1834
  436SOL     OW 1306   0.567   2.654   1.618  0.4790  0.0159  0.1028
  436SOL    HW1 1307   0.488   2.707   1.581  0.9570 -2.8612  0.0199
  436SOL    HW2 1308   0.617   2.701   1.696  0.2836  2.6125  1.7154
  437SOL     OW 1309   0.682   0.002   0.576  0.8560  0.1985  0.0033
  437SOL    HW1 1310   0.733   0.086   0.616  1.5716 -1.2474  0.1377
  437SOL    HW2 1311   0.732   2.997   0.597 -2.8961  2.1234 -0.8373
  438SOL     OW 1312   0.071   2.168   0.715 -0.3037 -0.1547  0.2706
  438SOL    HW1 1313   0.081   2.250   0.651  1.2082  0.0187 -0.1061
  438SOL    HW2 1314   0.163   2.128   0.721 -0.6567  2.9616  2.3079
  439SOL     OW 1315   0.722   2.271   1.565 -0.0382  0.6289 -0.1613
  439SOL    HW1 1316   0.771   2.283   1.475  0.4450 -0.1142  1.3645
  439SOL    HW2 1317   0.731   2.353   1.625  1.2727  0.2473  0.5780
  440SOL     OW 1318   2.085   2.926   2.171 -0.1036  0.2657 -0.0125
  440SOL    HW1 1319   2.050   2.997   2.106  1.9449 -0.3906 -3.0005
  440SOL    HW2 1320   2.026   2.839   2.177 -1.0559  0.9486 -0.5939
  441SOL     OW 1321   0.193   0.468   1.745  0.1005  0.3532 -0.8601
  441SOL    HW1 1322   0.281   0.463   1.700 -0.9384  1.2284  3.3442
  441SOL    HW2 1323   0.198   0.431   1.842  1.2139 -1.9550  0.8158
  442SOL     OW 1324   1.987   2.257   0.729 -0.0496  0.0245 -0.1793
  442SOL    HW1 1325   1.952   2.320   0.657 -1.5375  2.3756 -1.2901
  442SOL    HW2 1326   1.979   2.305   0.819 -1.1662 -1.4509 -3.6474
  443SOL     OW 1327   2.850   0.892   2.459 -0.2494 -0.4225  0.6715
  443SOL    HW1 1328   2.830   0.817   2.523  0.3893  1.1156 -4.4158
  443SOL    HW2 1329   2.914   0.952   2.508 -3.1875 -0.9896 -2.3191
  444SOL     OW 1330   1.936   1.073   2.113  0.0334  0.0131 -0.0966
  444SOL    HW1 1331   1.883   1.015   2.049  0.7798 -0.7542 -0.0678
  444SOL    HW2 1332   1.875   1.129   2.173  1.0099 -0.6032 -0.6133
  445SOL     OW 1333   2.927   2.498   1.241 -0.1745 -0.1462 -0.5129
  445SOL    HW1 1334   2.912   2.599   1.245 -1.8737 -0.7729 -0.8920
  445SOL    HW2 1335   2.927   2.473   1.145  0.2816  2.2067 -0.1346
  446SOL     OW 1336   2.726   1.482   1.164  0.5612  0.1787  0.1365
  446SOL    HW1 1337   2.657   1.479   1.236  2.0341  1.5992  1.2683
  446SOL    HW2 1338   2.763   1.389   1.147 -0.2049 -0.3568  2.6913
  447SOL     OW 1339   0.549   1.070   0.773 -0.5239  0.5037  0.0063
  447SOL    HW1 1340   0.453   1.060   0.800 -0.3066 -3.2426  2.4445
  447SOL    HW2 1341   0.558   1.063   0.672 -1.3950 -1.8445  1.1922
  448SOL     OW 1342   1.405   1.630   1.911  0.2429 -0.2438 -0.2299
  448SOL    HW1 1343   1.311   1.667   1.912  2.9519  0.7902 -1.4598
  448SOL    HW2 1344   1.415   1.527   1.927 -0.9314  1.5592  0.6260
  449SOL     OW 1345   1.505   1.382   0.363 -0.0366  0.1403 -0.2213
  449SOL    HW1 1346   1.585   1.323   0.387  0.3974  2.7396 -0.7754
  449SOL    HW2 1347   1.439   1.327   0.307  3.3397 -1.4162  0.2100
  450SOL     OW 1348   2.789   2.703   2.209  0.4885 -0.1864  0.4661
  450SOL    HW1 1349   2.858   2.778   2.191  0.2103  2.6335 -2.1189
  450SOL    HW2 1350   2.724   2.699   2.126 -0.5927  1.1235 -0.8601
  451SOL     OW 1351   2.350   0.437   2.593 -0.5777 -0.0347 -0.0327
  451SOL    HW1 1352   2.406   0.510   2.548 -0.0748 -1.1627 -2.8726
  451SOL    HW2 1353   2.400   0.353   2.622 -1.0661 -0.8560  0.1089
  452SOL     OW 1354   1.581   0.347   0.927 -0.3074  0.2343 -0.3196
  452SOL    HW1 1355   1.618   0.301   1.012 -1.1901 -0.8726 -1.6079
  452SOL    HW2 1356   1.528   0.429   0.944 -0.4011 -1.6993  0.3725
  453SOL     OW 1357   1.822   0.914   1.595  0.4336 -0.3408  0.2398
  453SOL    HW1 1358   1.787   0.946   1.505 -0.7926  1.8590 -1.3989
  453SOL    HW2 1359   1.915   0.874   1.582  0.6859  0.3143 -1.1413
  454SOL     OW 1360   2.927   1.675   0.594  0.1441 -0.2503 -0.1340
  454SOL    HW1 1361   2.997   1.617   0.548  0.3936 -1.3132 -0.1166
  454SOL    HW2 1362   2.952   1.711   0.682  1.6474  0.3442  2.1043
  455SOL     OW 1363   2.770   0.080   0.429  0.1535 -0.2873 -0.4024
  455SOL    HW1 1364   2.848   0.142   0.453 -0.0486 -0.8374  1.4690
  455SOL    HW2 1365   2.800   0.022   0.349 -1.2235 -0.5394  1.9986
  456SOL     OW 1366   0.083   2.729   1.103 -0.6223  0.4280  0.5136
  456SOL    HW1 1367   3.071   2.745   1.147 -0.4135  0.3592  0.6778
  456SOL    HW2 1368   0.144   2.687   1.172 -0.2661 -0.3264 -0.6891
  457SOL     OW 1369   1.213   3.003   0.567 -0.1032  0.0360  0.4025
  457SOL    HW1 1370   1.128   3.018   0.617 -3.5957 -1.1236 -1.1029
  457SOL    HW2 1371   1.289   3.065   0.594 -2.1416 -1.2412  1.0353
  458SOL     OW 1372   2.392   0.076   0.819 -0.0551 -0.2718  0.0103
  458SOL    HW1 1373   2.454   0.112   0.894 -0.0453 -2.0187  2.0345
  458SOL    HW2 1374   2.397   3.055   0.818 -2.8062  2.0018 -2.4705
  459SOL     OW 1375   2.151   0.473   2.751 -0.2082  0.1447  0.1346
  459SOL    HW1 1376   2.224   0.471   2.677 -2.7221  1.5237 -0.3309
  459SOL    HW2 1377   2.190   0.496   2.838  1.0536  0.2050 -0.8371
  460SOL     OW 1378   2.696   2.837   2.962  0.0805  0.1099 -0.1814
  460SOL    HW1 1379   2.632   2.772   2.919 -0.3288 -0.6025  0.7057
  460SOL    HW2 1380   2.793   2.815   2.940 -1.7397  1.7753  1.9631
  461SOL     OW 1381   0.894   1.996   0.575  0.3166 -0.1836  0.3684
  461SOL    HW1 1382   0.946   2.016   0.658  1.6614  1.5256  1.9830
  461SOL    HW2 1383   0.822   1.923   0.585  2.9496 -2.2628  1.0203
  462SOL     OW 1384   2.295   2.167   1.019 -0.5381 -0.1127  0.3377
  462SOL    HW1 1385   2.237   2.173   1.104 -2.1179 -0.6632 -1.3817
  462SOL    HW2 1386   2.278   2.080   0.975 -1.1063  3.9084 -0.4642
  463SOL     OW 1387   2.331   0.830   0.638  0.1920 -0.1795 -0.1204
  463SOL    HW1 1388   2.338   0.792   0.732  0.8157 -0.4282  0.7293
  463SOL    HW2 1389   2.421   0.802   0.594 -0.3498 -0.0399 -2.2565
  464SOL     OW 1390   0.352   0.011   1.266  0.1987 -0.1759  0.3811
  464SOL    HW1 1391   0.340   3.008   1.211 -0.6827  2.8472 -0.6593
  464SOL    HW2 1392   0.410   3.068   1.349 -3.2633 -1.5550 -1.7206
  465SOL     OW 1393   2.704   1.557   0.254 -0.1054 -0.6876 -0.4589
  465SOL    HW1 1394   2.616   1.515   0.221 -0.3893  0.2186  1.2161
  465SOL    HW2 1395   2.778   1.492   0.265 -2.7511  2.0568  0.6600
  466SOL     OW 1396   1.650   0.292   2.778 -0.2368 -0.0697 -0.0083
  466SOL    HW1 1397   1.742   0.336   2.787 -1.7153 -1.6589 -0.4908
  466SOL    HW2 1398   1.601   0.287   2.866  0.3038 -0.9725 -0.0019
  467SOL     OW 1399   0.829   0.589   1.599  0.0536 -0.1616 -0.4804
  467SOL    HW1 1400   0.844   0.586   1.697  0.1210  1.4201  2.1810
  467SOL    HW2 1401   0.914   0.553   1.554  0.7446  0.9610  3.9683
  468SOL     OW 1402   0.650   1.142   2.777 -0.7013  0.5304 -0.0762
  468SOL    HW1 1403   0.636   1.239   2.759 -1.0100 -0.5760 -2.0930
  468SOL    HW2 1404   0.735   1.105   2.730  1.3856  0.1986  1.1312
  469SOL     OW 1405   0.122   2.113   0.154 -0.5291 -0.3865  0.8108
  469SOL    HW1 1406   0.065   2.116   0.069  1.1346  2.1067 -0.0351
  469SOL    HW2 1407   0.098   2.028   0.206 -1.4027 -2.1680  0.8854
  470SOL     OW 1408   2.193   1.762   2.544 -0.4642 -0.1241 -0.4983
  470SOL    HW1 1409   2.268   1.705   2.580  1.2103 -1.4848 -2.6755
  470SOL    HW2 1410   2.216   1.860   2.533 -3.3936 -2.3538 -1.9508
  471SOL     OW 1411   2.640   1.202   2.261 -0.5705 -0.3753 -0.1504
  471SOL    HW1 1412   2.611   1.104   2.282  0.2018 -0.7511  2.5846
  471SOL    HW2 1413   2.698   1.234   2.336 -1.7112  0.2721 -0.2278
  472SOL     OW 1414   0.468   2.589   0.528  0.6128  0.3058  0.1259
  472SOL    HW1 1415   0.439   2.595   0.427  1.5014  0.3808 -4.2848
  472SOL    HW2 1416   0.426   2.664   0.583 -0.0545 -1.5725  2.2945
  473SOL     OW 1417   0.631   0.013   2.866 -0.1787  0.0806  0.3195
  473SOL    HW1 1418   0.645   3.029   2.946 -0.5263  2.1136 -1.7278
  473SOL    HW2 1419   0.677   3.048   2.789  0.6759  1.3556  0.3722
  474SOL     OW 1420   1.695   2.912   2.275 -0.5589  0.1556 -0.2157
  474SOL    HW1 1421   1.602   2.879   2.295  2.4648  1.1610 -0.4093
  474SOL    HW2 1422   1.689   2.976   2.201 -1.0030 -4.4894  2.2087
  475SOL     OW 1423   1.650   2.317   0.425 -0.4081  0.2781 -0.1088
  475SOL    HW1 1424   1.639   2.218   0.446 -0.5387 -0.3215  1.5923
  475SOL    HW2 1425   1.634   2.336   0.323 -2.2262 -1.4266 -1.8410
  476SOL     OW 1426   0.255   0.740   0.829 -0.1812 -0.0916 -0.0926
  476SOL    HW1 1427   0.161   0.718   0.857 -0.3516  0.4247  0.9777
  476SOL    HW2 1428   0.329   0.704   0.892  0.7259  0.3968  0.1949
  477SOL     OW 1429   1.556   2.304   0.839  0.0681  0.3472  0.1461
  477SOL    HW1 1430   1.601   2.245   0.908 -1.1415 -0.1735  1.3511
  477SOL    HW2 1431   1.454   2.281   0.842 -0.1629  1.3383 -0.8812
  478SOL     OW 1432   0.322   2.106   2.262  0.3058  0.3307  0.0162
  478SOL    HW1 1433   0.352   2.052   2.344 -0.0567 -1.1505  2.9143
  478SOL    HW2 1434   0.320   2.048   2.179 -1.7662  3.0734  2.1104
  479SOL     OW 1435   2.418   0.544   1.087  0.3182 -0.3603  0.0825
  479SOL    HW1 1436   2.518   0.544   1.088 -2.0103  1.2606 -3.2149
  479SOL    HW2 1437   2.370   0.540   1.178  1.6227  1.7574 -0.1545
  480SOL     OW 1438   0.026   2.611   0.127 -0.0329  0.1988  0.3551
  480SOL    HW1 1439   0.050   2.692   0.182  1.3842  0.7543  1.6542
  480SOL    HW2 1440   0.052   2.631   0.028  1.0983  4.1266  0.3513
  481SOL     OW 1441   2.612   2.736   1.218  0.1094 -0.1485 -0.1368
  481SOL    HW1 1442   2.589   2.707   1.314 -2.0458  0.9604 -2.5780
  481SOL    HW2 1443   2.643   2.834   1.214 -0.6224 -0.2246 -1.6031
  482SOL     OW 1444   1.121   2.186   2.779 -0.8316 -0.4076  0.0071
  482SOL    HW1 1445   1.153   2.089   2.792  1.5945  2.7748  1.0827
  482SOL    HW2 1446   1.168   2.222   2.697  1.4236 -0.0220  2.4648
  483SOL     OW 1447   0.342   1.925   2.711 -0.0294 -0.1130  0.3596
  483SOL    HW1 1448   0.378   1.842   2.761 -2.5287 -0.5881  0.7589
  483SOL    HW2 1449   0.387   2.010   2.742 -0.7980 -2.9365  1.5615
  484SOL     OW 1450   0.997   0.919   1.250  0.5078  0.4625 -0.0585
  484SOL    HW1 1451   0.931   0.882   1.317  0.2676  1.4913  2.2063
  484SOL    HW2 1452   1.094   0.905   1.276 -3.1782 -1.7361 -1.1166
  485SOL     OW 1453   2.463   0.584   0.220  0.4241 -0.4337 -0.2662
  485SOL    HW1 1454   2.375   0.550   0.261  1.5503  0.5545 -0.1694
  485SOL    HW2 1455   2.452   0.673   0.172  0.1008 -1.7742 -0.4822
  486SOL     OW 1456   1.665   0.191   1.150  0.3851  0.6512  0.5960
  486SOL    HW1 1457   1.629   0.154   1.237  2.5915  2.0602 -1.5069
  486SOL    HW2 1458   1.752   0.142   1.115  1.5450 -2.7063  0.6894
  487SOL     OW 1459   0.446   2.259   0.890 -0.4779 -0.2933 -0.6496
  487SOL    HW1 1460   0.435   2.359   0.871  0.2823  0.1898 -2.2765
  487SOL    HW2 1461   0.528   2.228   0.837  2.7811 -1.5933 -1.0153
  488SOL     OW 1462   2.316   1.083   0.499  0.1375  0.2681 -0.3060
  488SOL    HW1 1463   2.394   1.087   0.434  0.9143 -0.9439  0.0181
  488SOL    HW2 1464   2.317   0.995   0.548  1.2615 -0.9678  0.5659
  489SOL     OW 1465   1.687   3.056   0.891  0.6876 -0.4446 -0.4973
  489SOL    HW1 1466   1.772   3.040   0.836  2.5708  3.4632  1.1568
  489SOL    HW2 1467   1.651   0.071   0.874  1.1578  1.2016  1.2905
  490SOL     OW 1468   0.935   0.529   0.548 -0.0397 -0.2994 -0.5047
  490SOL    HW1 1469   0.859   0.502   0.485  2.2647 -3.1514  3.5130
  490SOL    HW2 1470   0.972   0.617   0.515  0.1185  0.7934  2.3647
  491SOL     OW 1471   0.308   2.356   0.551 -0.0357  0.1259  0.4144
  491SOL    HW1 1472   0.337   2.285   0.483  0.8185 -0.8655 -1.4064
  491SOL    HW2 1473   0.386   2.412   0.588  3.8857  0.7120 -1.4005
  492SOL     OW 1474   0.938   1.423   2.609 -0.0098 -0.1303  0.7888
  492SOL    HW1 1475   1.000   1.373   2.676 -0.0396  1.5862 -1.9648
  492SOL    HW2 1476   0.986   1.509   2.584 -1.3037 -0.4114  0.4583
  493SOL     OW 1477   0.056   2.555   0.887  0.3356 -0.9249  0.3831
  493SOL    HW1 1478   3.045   2.508   0.890  2.8509 -2.0126 -0.0891
  493SOL    HW2 1479   0.063   2.605   0.975  2.1899  1.3585 -0.5478
  494SOL     OW 1480   2.617   2.007   0.372  0.4021 -0.5555 -0.4363
  494SOL    HW1 1481   2.553   2.083   0.349 -4.0903 -0.6550 -0.7733
  494SOL    HW2 1482   2.575   1.946   0.441 -1.3411 -2.5653  0.6802
  495SOL     OW 1483   2.506   1.865   2.793 -0.5609  0.2575  0.6521
  495SOL    HW1 1484   2.445   1.921   2.854 -1.1727  0.5394  3.1203
  495SOL    HW2 1485   2.460   1.783   2.751  1.8261  2.4412 -1.1909
  496SOL     OW 1486   2.727   0.235   1.579 -0.6734 -0.3201  0.0125
  496SOL    HW1 1487   2.810   0.187   1.622  0.2242 -1.1019  1.1075
  496SOL    HW2 1488   2.676   0.277   1.653  2.3651  0.7601  1.7074
  497SOL     OW 1489   2.591   1.029   0.112  0.7771 -0.5970  0.0644
  497SOL    HW1 1490   2.541   1.053   0.023  0.8269 -0.6639 -3.3338
  497SOL    HW2 1491   2.644   0.943   0.103  0.4579 -0.7383  3.7555
  498SOL     OW 1492   0.027   1.866   2.336  0.1113  0.0918  0.2116
  498SOL    HW1 1493   0.013   1.804   2.415 -1.5528  1.1354  0.1144
  498SOL    HW2 1494   0.025   1.959   2.371  1.1498  0.5330 -0.4302
  499SOL     OW 1495   0.733   2.182   2.902 -0.6026 -0.1644 -0.5212
  499SOL    HW1 1496   0.799   2.141   2.971  0.6065 -0.7775  0.8763
  499SOL    HW2 1497   0.774   2.195   2.807  1.0478 -1.0815 -0.1924
  500SOL     OW 1498   1.499   2.996   3.073 -0.5831  0.1675  0.6032
  500SOL    HW1 1499   1.587   3.021   3.023  0.6632  0.7141 -1.3577
  500SOL    HW2 1500   1.475   3.059   0.062  3.4652 -2.2109 -1.3094
  501SOL     OW 1501   1.570   3.076   1.796 -0.0445  0.6449  0.3656
  501SOL    HW1 1502   1.612   2.996   1.759 -2.9263  1.7984 -0.1252
  501SOL    HW2 1503   1.595   0.080   1.746 -2.7132  2.0288  2.8738
  502SOL     OW 1504   2.936   0.902   2.161  0.4109  0.0273  0.0708
  502SOL    HW1 1505   3.011   0.836   2.134 -0.1388 -0.5229  0.3649
  502SOL    HW2 1506   2.904   0.884   2.258 -1.8167 -1.7613  0.4792
  503SOL     OW 1507   2.262   2.285   2.222 -0.3100 -0.1485 -0.0016
  503SOL    HW1 1508   2.207   2.357   2.176 -0.2331 -2.6769  3.3833
  503SOL    HW2 1509   2.287   2.310   2.317  1.2787  0.7795 -1.8703
  504SOL     OW 1510   1.650   0.693   1.650  0.2495  0.1226 -0.3482
  504SOL    HW1 1511   1.716   0.768   1.613  1.8788  0.9197 -0.3929
  504SOL    HW2 1512   1.684   0.601   1.624  0.9782  0.2264 -2.7434
  505SOL     OW 1513   0.895   0.995   1.652 -0.2081  0.0179 -0.1879
  505SOL    HW1 1514   0.898   0.931   1.571 -0.9854  3.6256  0.4247
  505SOL    HW2 1515   0.856   0.939   1.725  1.5784  1.1267 -2.4859
  506SOL     OW 1516   0.491   0.884   2.471  0.3378 -0.3861 -0.2602
  506SOL    HW1 1517   0.429   0.858   2.395 -2.9336 -1.4385  1.1603
  506SOL    HW2 1518   0.584   0.845   2.470 -0.2921 -0.7795  3.0737
  507SOL     OW 1519   0.372   2.852   2.930 -0.2110 -0.4449  0.4357
  507SOL    HW1 1520   0.444   2.815   2.869 -1.0327 -1.0579 -0.4106
  507SOL    HW2 1521   0.304   2.909   2.874 -2.7958  0.1718  0.5120
  508SOL     OW 1522   1.398   0.765   1.604  0.6874  0.1192  0.2239
  508SOL    HW1 1523   1.494   0.746   1.631  0.8284 -0.0252  0.1330
  508SOL    HW2 1524   1.386   0.860   1.581  2.2402 -3.3829  2.1775
  509SOL     OW 1525   0.986   2.003   1.470 -0.2011 -0.1995 -0.4423
  509SOL    HW1 1526   1.040   1.922   1.483  1.3591  2.3498 -1.1452
  509SOL    HW2 1527   1.049   2.082   1.478 -3.3862  0.1249 -0.5589
  510SOL     OW 1528   2.391   1.293   2.359  0.3237  0.4111 -0.1011
  510SOL    HW1 1529   2.375   1.226   2.439 -1.4205  0.7439  2.1720
  510SOL    HW2 1530   2.437   1.247   2.277 -1.6550 -1.2878 -2.4582
  511SOL     OW 1531   0.762   1.886   1.017 -0.4608  0.2348 -0.2096
  511SOL    HW1 1532   0.701   1.905   0.938 -0.3465  0.8600  4.5117
  511SOL    HW2 1533   0.711   1.848   1.097 -0.4355  3.1998  1.3888
  512SOL     OW 1534   2.452   2.189   0.271 -0.6731 -0.6642 -0.1735
  512SOL    HW1 1535   2.350   2.172   0.248 -2.2398 -2.1580  0.6848
  512SOL    HW2 1536   2.450   2.262   0.343  2.1497 -0.5834 -1.9454
  513SOL     OW 1537   2.740   1.819   2.584  0.7276 -0.4227 -0.5429
  513SOL    HW1 1538   2.780   1.731   2.614  1.4911 -1.0448  1.9365
  513SOL    HW2 1539   2.693   1.869   2.664  0.7535 -1.3666  0.3297
  514SOL     OW 1540   0.027   2.691   2.384  0.0910 -0.4726 -0.0057
  514SOL    HW1 1541   0.060   2.596   2.378 -3.2202 -0.9537  1.8349
  514SOL    HW2 1542   0.003   2.738   2.295  0.6691 -3.2332 -1.5844
  515SOL     OW 1543   2.199   1.114   1.321 -0.8972 -0.0891 -0.2765
  515SOL    HW1 1544   2.216   1.119   1.221  2.5566  4.2281  0.7693
  515SOL    HW2 1545   2.256   1.187   1.367  0.8576  2.7686  1.7516
  516SOL     OW 1546   2.528   2.215   2.977 -0.4852  0.4461 -0.3459
  516SOL    HW1 1547   2.587   2.208   2.891  2.1438 -1.2522  0.6171
  516SOL    HW2 1548   2.535   2.127   3.030  0.0881  0.1447  0.5635
  517SOL     OW 1549   1.393   0.851   3.020  0.3638  0.1152 -0.3188
  517SOL    HW1 1550   1.371   0.877   2.923  0.2797  0.6885 -2.0241
  517SOL    HW2 1551   1.318   0.796   3.068 -1.2692 -1.3259  1.6796
  518SOL     OW 1552   2.937   2.972   2.487  1.2294 -0.1506 -0.3632
  518SOL    HW1 1553   2.993   3.049   2.520 -1.1467  0.7812  1.8740
  518SOL    HW2 1554   2.960   2.893   2.551  0.9139  1.5758  0.9720
  519SOL     OW 1555   1.500   1.707   2.152 -0.0823  0.2477 -0.0223
  519SOL    HW1 1556   1.478   1.662   2.059 -0.6279 -1.5869 -1.5123
  519SOL    HW2 1557   1.479   1.805   2.152 -2.5841 -0.8378 -0.6246
  520SOL     OW 1558   2.939   2.739   2.631  0.0295 -0.6228 -0.1995
  520SOL    HW1 1559   3.025   2.740   2.573  1.6847  1.9297 -3.4743
  520SOL    HW2 1560   2.881   2.663   2.617  4.3666  1.9575 -1.3497
  521SOL     OW 1561   0.346   1.665   2.035  0.7109  0.1277 -0.6481
  521SOL    HW1 1562   0.305   1.615   2.113  0.0814 -3.0715 -0.5768
  521SOL    HW2 1563   0.423   1.607   2.002 -2.2084 -0.4359  0.6787
  522SOL     OW 1564   1.022   2.833   1.846  0.5945  0.3234  0.0426
  522SOL    HW1 1565   0.984   2.887   1.765  0.5697  0.4381  1.0324
  522SOL    HW2 1566   1.039   2.885   1.934  0.3395  0.3337  2.0105
  523SOL     OW 1567   0.274   2.666   1.316  0.2217 -0.0918  0.0626
  523SOL    HW1 1568   0.239   2.605   1.388 -0.6577 -2.3285 -0.0235
  523SOL    HW2 1569   0.358   2.632   1.269  2.4627  0.6633 -2.1501
  524SOL     OW 1570   1.650   2.470   0.669  0.5037 -0.6610 -0.8983
  524SOL    HW1 1571   1.643   2.423   0.578  0.3452  1.6229  1.1930
  524SOL    HW2 1572   1.621   2.405   0.743  0.0094  2.7305 -0.6494
  525SOL     OW 1573   2.428   0.950   0.951  0.3833 -0.2342 -0.4016
  525SOL    HW1 1574   2.362   1.011   0.995 -1.4251  0.9830  0.7127
  525SOL    HW2 1575   2.387   0.856   0.939  2.6865 -2.5560 -1.2762
  526SOL     OW 1576   1.089   2.298   0.648 -0.3036  0.6633  0.2389
  526SOL    HW1 1577   1.132   2.306   0.553  1.6135  0.3096 -0.6768
  526SOL    HW2 1578   1.085   2.198   0.670  0.3936 -1.3920 -1.7384
  527SOL     OW 1579   2.474   1.872   0.853  0.4713  0.3347 -0.5047
  527SOL    HW1 1580   2.453   1.859   0.753 -1.5912 -1.9657 -0.4217
  527SOL    HW2 1581   2.386   1.879   0.909 -0.5562  2.1227 -0.5898
  528SOL     OW 1582   2.166   0.444   0.063 -0.0877 -0.4443 -0.1121
  528SOL    HW1 1583   2.228   0.487   3.075  0.8980 -2.1083  2.0010
  528SOL    HW2 1584   2.188   0.467   0.161  1.4875  3.5802  0.5066
  529SOL     OW 1585   1.216   1.079   1.898 -0.0984 -0.6737  0.3279
  529SOL    HW1 1586   1.204   1.151   1.968 -0.7876  0.8011 -0.0561
  529SOL    HW2 1587   1.194   1.127   1.812 -1.5835  2.6604  3.0822
  530SOL     OW 1588   2.588   1.177   2.632 -0.3048 -0.0832  0.2443
  530SOL    HW1 1589   2.602   1.225   2.720  0.9252 -0.0334  0.0880
  530SOL    HW2 1590   2.669   1.196   2.567  1.2302  1.0676 -0.3247
  531SOL     OW 1591   1.040   1.034   0.078  0.0966 -0.0681  1.0361
  531SOL    HW1 1592   1.139   1.039   0.113  3.5150 -0.9920  1.6010
  531SOL    HW2 1593   1.000   1.129   0.074  0.8448  1.2974  0.6910
  532SOL     OW 1594   1.864   0.509   0.591 -0.1521  0.0347  0.0215
  532SOL    HW1 1595   1.945   0.479   0.649  0.5858 -0.5090 -0.7586
  532SOL    HW2 1596   1.770   0.475   0.617 -3.5857 -0.4981 -3.8534
  533SOL     OW 1597   0.573   0.965   2.119  0.7386  0.1878 -0.1493
  533SOL    HW1 1598   0.485   0.951   2.077  3.7674  4.0007  1.2032
  533SOL    HW2 1599   0.625   0.880   2.125 -1.1992  0.3675 -0.4027
  534SOL     OW 1600   1.657   0.011   2.675  0.4956 -0.6781  0.1608
  534SOL    HW1 1601   1.702   0.014   2.586 -0.3215  1.1100 -0.7814
  534SOL    HW2 1602   1.648   0.103   2.722 -0.3418  1.7300  2.8943
  535SOL     OW 1603   0.765   0.092   0.274  0.3977 -0.5969 -0.2446
  535SOL    HW1 1604   0.692   0.124   0.339  2.0468  0.7274  0.2525
  535SOL    HW2 1605   0.795   3.074   0.293  0.7249 -1.6411 -1.4447
  536SOL     OW 1606   1.123   2.828   1.228  0.4397 -0.1430  0.0128
  536SOL    HW1 1607   1.192   2.872   1.170 -3.9752 -0.9462 -0.0326
  536SOL    HW2 1608   1.035   2.803   1.180 -0.0838 -0.0417  0.6841
  537SOL     OW 1609   1.868   2.741   2.173 -0.1250 -0.4527  0.6585
  537SOL    HW1 1610   1.809   2.809   2.212  0.9124 -0.9868 -2.6301
  537SOL    HW2 1611   1.884   2.762   2.074  0.3638  3.2104 -1.3624
  538SOL     OW 1612   0.352   2.639   2.644  0.2293  0.7671  0.1048
  538SOL    HW1 1613   0.424   2.701   2.677 -0.7026  0.4164 -1.9438
  538SOL    HW2 1614   0.377   2.606   2.553 -0.7590  1.7039  0.2826
  539SOL     OW 1615   2.916   1.926   1.707  0.0266  0.0187 -0.2734
  539SOL    HW1 1616   2.999   1.978   1.683  4.6874 -2.2828  1.2251
  539SOL    HW2 1617   2.950   1.854   1.773  0.1042  0.3675 -0.1637
  540SOL     OW 1618   2.577   2.338   2.044 -0.5520 -0.6662 -0.9582
  540SOL    HW1 1619   2.544   2.307   2.136 -3.0278 -0.3966  0.0241
  540SOL    HW2 1620   2.491   2.358   1.992  2.4414  0.0841  0.6094
  541SOL     OW 1621   0.129   2.902   1.649 -0.0224  0.4114  0.3673
  541SOL    HW1 1622   0.162   2.999   1.661 -0.6488  1.5614 -0.5389
  541SOL    HW2 1623   0.203   2.855   1.594 -1.4201 -0.1880 -1.3967
  542SOL     OW 1624   0.026   0.734   2.045  0.3238  0.4343  0.5355
  542SOL    HW1 1625   0.045   0.783   1.956 -0.3777  0.1065 -4.3073
  542SOL    HW2 1626   0.057   0.636   2.037 -0.8635 -0.4580 -0.2971
  543SOL     OW 1627   0.658   0.496   1.044 -0.5454  0.3425  0.2795
  543SOL    HW1 1628   0.740   0.490   0.978  0.0738  0.1263 -1.4950
  543SOL    HW2 1629   0.663   0.436   1.128  0.0627  0.6031 -0.1917
  544SOL     OW 1630   2.276   1.890   1.265  0.0941  0.3164  0.3448
  544SOL    HW1 1631   2.320   1.837   1.193  1.0256  2.1940  1.1924
  544SOL    HW2 1632   2.194   1.849   1.300  0.4765 -0.2103 -0.9877
  545SOL     OW 1633   1.071   1.616   0.608  0.0945  0.3737  0.4409
  545SOL    HW1 1634   1.160   1.659   0.641 -0.1674  1.5936  0.4872
  545SOL    HW2 1635   1.059   1.522   0.649 -0.0837 -1.6626  0.8975
  546SOL     OW 1636   2.992   0.559   2.348  0.1067  0.0850 -0.0748
  546SOL    HW1 1637   2.917   0.592   2.287  1.6628 -0.6584  1.1575
  546SOL    HW2 1638   3.050   0.634   2.385 -1.5583 -2.4530 -0.0286
  547SOL     OW 1639   0.024   0.380   2.637  0.4343  0.4700 -0.2082
  547SOL    HW1 1640   3.006   0.398   2.612 -0.9353 -0.3637 -2.0214
  547SOL    HW2 1641   0.089   0.415   2.563 -0.9116  0.9615 -1.5844
  548SOL     OW 1642   2.427   2.326   2.699 -0.4847 -0.0221 -0.2706
  548SOL    HW1 1643   2.382   2.336   2.789 -0.3322  1.0051 -1.0651
  548SOL    HW2 1644   2.378   2.370   2.626  0.1841 -1.6864 -2.8849
  549SOL     OW 1645   2.327   0.500   0.638  0.4203 -0.6628 -0.3511
  549SOL    HW1 1646   2.250   0.527   0.699  0.5101 -1.8191  0.6054
  549SOL    HW2 1647   2.412   0.537   0.676  0.4123 -0.8251 -0.3662
  550SOL     OW 1648   2.310   1.277   0.671 -0.4522  0.5232  0.2468
  550SOL    HW1 1649   2.367   1.363   0.672 -0.0898  0.4757  0.5635
  550SOL    HW2 1650   2.321   1.224   0.585 -1.1300  1.9620 -2.1692
  551SOL     OW 1651   1.346   2.746   1.434  0.2645 -0.0114  0.8139
  551SOL    HW1 1652   1.390   2.657   1.465 -0.3382 -4.4722  0.5662
  551SOL    HW2 1653   1.285   2.735   1.353 -5.0949  1.5921  1.6876
  552SOL     OW 1654   2.293   2.394   2.470  0.0077 -0.2461  0.3487
  552SOL    HW1 1655   2.352   2.472   2.453  0.1835 -0.6889 -2.2302
  552SOL    HW2 1656   2.208   2.422   2.516  2.1982  1.2770 -1.5756
  553SOL     OW 1657   0.728   2.586   0.560 -0.1996 -0.1043  0.1367
  553SOL    HW1 1658   0.739   2.578   0.662  0.6367  0.0344 -0.8270
  553SOL    HW2 1659   0.627   2.582   0.542 -0.1893  1.7976  0.9060
  554SOL     OW 1660   1.951   2.619   1.744 -0.5552  0.2702  0.4615
  554SOL    HW1 1661   1.914   2.543   1.803  0.9920  1.0384  0.9604
  554SOL    HW2 1662   1.885   2.636   1.669 -1.6200 -2.0528 -0.5623
  555SOL     OW 1663   1.935   2.265   2.109  0.5010  0.2986  0.2127
  555SOL    HW1 1664   1.999   2.343   2.086 -0.0072  1.8634 -0.6035
  555SOL    HW2 1665   1.957   2.178   2.051 -0.1983  0.4475 -1.0972
  556SOL     OW 1666   1.051   0.309   0.622 -0.4447 -0.0008  0.0400
  556SOL    HW1 1667   1.018   0.405   0.589 -3.3234  3.7850 -2.2887
  556SOL    HW2 1668   1.045   0.237   0.552 -0.8626 -2.6179  0.0785
  557SOL     OW 1669   0.843   2.040   1.723  0.1823  0.3245 -0.1288
  557SOL    HW1 1670   0.871   2.031   1.625 -1.1007 -1.0416 -0.4281
  557SOL    HW2 1671   0.765   2.103   1.735  0.6002 -0.9909  1.6353
  558SOL     OW 1672   2.831   1.294   2.456  0.1789  0.0571 -0.3426
  558SOL    HW1 1673   2.896   1.282   2.376 -1.6647  2.6143  0.2604
  558SOL    HW2 1674   2.863   1.385   2.480  2.0503 -0.7013 -0.8688
  559SOL     OW 1675   2.104   2.481   2.090  0.3241 -0.3475  0.0641
  559SOL    HW1 1676   2.130   2.444   2.001  0.7242  0.1801 -0.2811
  559SOL    HW2 1677   2.166   2.562   2.104 -0.8218  2.1930 -0.8648
  560SOL     OW 1678   0.472   0.375   2.409 -0.0424 -0.4002  0.2670
  560SOL    HW1 1679   0.531   0.391   2.328  1.1956 -0.1311  1.5467
  560SOL    HW2 1680   0.488   0.289   2.457  0.0893  2.1903  2.8650
  561SOL     OW 1681   1.117   0.342   0.219 -0.2620  0.2150 -0.7290
  561SOL    HW1 1682   1.197   0.397   0.256 -0.1947 -1.5637 -0.0828
  561SOL    HW2 1683   1.073   0.284   0.291  2.5050 -1.3442 -0.1476
  562SOL     OW 1684   0.904   1.416   1.837 -0.1415  1.1709  0.2091
  562SOL    HW1 1685   0.928   1.441   1.933  0.2464  0.8960 -1.8963
  562SOL    HW2 1686   0.985   1.424   1.774  0.8013  1.5497 -0.4062
  563SOL     OW 1687   1.973   2.438   0.138 -0.1413  0.0601  0.4545
  563SOL    HW1 1688   2.001   2.382   0.053  3.4237  0.0600  0.7788
  563SOL    HW2 1689   2.059   2.468   0.179  0.2416 -3.4526  1.0519
  564SOL     OW 1690   2.712   2.254   0.573  0.6288 -0.3385  0.2038
  564SOL    HW1 1691   2.648   2.298   0.636 -1.6421 -1.1724  1.6121
  564SOL    HW2 1692   2.736   2.160   0.594 -0.4560  0.9900 -0.4147
  565SOL     OW 1693   0.476   0.124   2.515 -0.1339  0.6921  0.2425
  565SOL    HW1 1694   0.447   0.128   2.613  0.0617 -1.3947 -0.6868
  565SOL    HW2 1695   0.500   0.025   2.490  3.9639 -2.1387 -1.8674
  566SOL     OW 1696   1.560   2.583   2.431 -0.9676 -0.0164 -0.0272
  566SOL    HW1 1697   1.578   2.602   2.529  0.6321 -1.4639  2.0868
  566SOL    HW2 1698   1.624   2.521   2.383  0.7144 -0.2276  1.2340
  567SOL     OW 1699   2.018   1.787   1.294 -0.0272 -0.7668 -0.1782
  567SOL    HW1 1700   2.018   1.718   1.219  1.5595 -2.1571  0.4751
  567SOL    HW2 1701   1.938   1.846   1.280  2.0520 -1.4919 -0.2982
  568SOL     OW 1702   2.093   0.954   2.869  0.1740  0.4707  0.1363
  568SOL    HW1 1703   1.993   0.973   2.896 -1.7229 -0.5469  1.7138
  568SOL    HW2 1704   2.133   0.898   2.941  0.5698 -1.3033 -1.5068
  569SOL     OW 1705   2.205   1.890   2.036 -0.6394  0.2261  0.1195
  569SOL    HW1 1706   2.228   1.877   1.936  1.3014 -0.6656 -0.0608
  569SOL    HW2 1707   2.230   1.806   2.093 -1.0759  1.0919  2.9988
  570SOL     OW 1708   2.918   0.019   1.949 -0.0925  0.3293 -0.0648
  570SOL    HW1 1709   2.902   0.082   2.026 -1.4607  0.9341 -1.8021
  570SOL    HW2 1710   2.872   3.008   1.960 -1.2420  1.5246  1.4939
  571SOL     OW 1711   0.255   0.960   1.259 -0.0763  0.6397 -0.6705
  571SOL    HW1 1712   0.317   1.014   1.199  2.4600 -1.7981  0.2502
  571SOL    HW2 1713   0.270   0.979   1.357 -0.7082 -0.8057 -0.3107
  572SOL     OW 1714   0.118   1.597   1.145 -0.4003  0.3157 -0.1237
  572SOL    HW1 1715   0.072   1.510   1.137  0.1413  0.4419 -0.4995
  572SOL    HW2 1716   0.169   1.609   1.061 -0.2003 -0.4579  1.2737
  573SOL     OW 1717   0.948   0.528   0.124 -0.0419  0.0296  0.0206
  573SOL    HW1 1718   0.953   0.625   0.163 -2.0761  3.5187 -1.6856
  573SOL    HW2 1719   1.032   0.473   0.149  1.1854  1.0945 -0.0807
  574SOL     OW 1720   0.342   0.149   0.001 -0.2002 -0.2409  0.5177
  574SOL    HW1 1721   0.428   0.198   0.023 -1.6528  1.3270  0.2384
  574SOL    HW2 1722   0.317   0.156   2.978 -1.6513 -1.6045  0.5147
  575SOL     OW 1723   0.900   2.340   0.825  0.3294 -0.2111  0.0197
  575SOL    HW1 1724   0.979   2.330   0.758 -0.2234  0.3681 -1.8189
  575SOL    HW2 1725   0.913   2.278   0.898 -0.5378  0.3654  0.8405
  576SOL     OW 1726   2.922   2.792   1.261  0.2404  0.3384  0.4037
  576SOL    HW1 1727   2.866   2.876   1.238  0.8955  2.8892  0.8321
  576SOL    HW2 1728   2.975   2.805   1.344  0.8240 -0.2933 -0.5561
  577SOL     OW 1729   2.684   1.829   1.979 -0.7539 -0.3487 -0.4580
  577SOL    HW1 1730   2.642   1.865   1.893  0.6904  2.1765  1.8972
  577SOL    HW2 1731   2.747   1.900   2.018  0.8639  0.8790  0.2033
  578SOL     OW 1732   1.044   2.888   2.387  0.0048  0.1357  0.2387
  578SOL    HW1 1733   1.015   2.792   2.360  1.3222 -2.7267 -1.4378
  578SOL    HW2 1734   1.110   2.885   2.467 -0.7071 -2.7514 -0.1395
  579SOL     OW 1735   1.863   1.620   1.961  0.0395 -0.0549 -0.4266
  579SOL    HW1 1736   1.772   1.631   1.923 -1.2786 -1.5745  2.0092
  579SOL    HW2 1737   1.936   1.643   1.887 -0.1087 -0.3082  1.3918
  580SOL     OW 1738   1.766   0.491   2.020  0.4096 -0.3849  0.1378
  580SOL    HW1 1739   1.666   0.513   1.997 -3.2288  0.7045 -1.2557
  580SOL    HW2 1740   1.808   0.573   2.078  2.1980  3.1266  1.8029
  581SOL     OW 1741   1.009   1.486   2.101 -0.0696 -0.3737  0.0999
  581SOL    HW1 1742   1.021   1.587   2.104  1.7910 -2.3783 -0.0173
  581SOL    HW2 1743   0.936   1.460   2.168 -1.2851  2.4198  2.4613
  582SOL     OW 1744   0.029   2.759   1.856 -0.3371 -0.0511  0.1304
  582SOL    HW1 1745   0.115   2.728   1.895  3.1478  0.7395  1.3894
  582SOL    HW2 1746   0.044   2.806   1.765  0.1790  1.5559 -0.3234
  583SOL     OW 1747   1.350   1.390   1.338 -0.6999  0.0954 -0.7703
  583SOL    HW1 1748   1.402   1.414   1.418 -1.6202 -0.5379 -1.9495
  583SOL    HW2 1749   1.254   1.409   1.350 -1.3473  0.1837  1.0095
  584SOL     OW 1750   1.417   1.929   2.581  0.1617 -0.4023 -0.0612
  584SOL    HW1 1751   1.448   1.867   2.504  1.6072 -1.9385 -1.2324
  584SOL    HW2 1752   1.507   1.974   2.613 -0.2983  1.1862 -0.2493
  585SOL     OW 1753   0.231   2.409   0.207  1.2271 -0.2362  0.1111
  585SOL    HW1 1754   0.146   2.466   0.196 -3.2124  2.0120 -0.7499
  585SOL    HW2 1755   0.220   2.307   0.188 -0.2462 -2.5752 -1.4456
  586SOL     OW 1756   1.959   1.975   0.336  0.0164 -0.3523 -0.3925
  586SOL    HW1 1757   2.033   2.042   0.309  0.6888  1.8162  2.2499
  586SOL    HW2 1758   1.949   1.905   0.267 -0.6960  1.7635  3.3041
  587SOL     OW 1759   2.728   1.980   0.658  0.3724 -0.3179 -0.0902
  587SOL    HW1 1760   2.800   1.934   0.712 -1.3528  2.0404 -2.0415
  587SOL    HW2 1761   2.660   1.917   0.623 -0.2733 -0.8280  0.2535
  588SOL     OW 1762   2.295   0.387   0.917  0.1869  0.6480 -0.5335
  588SOL    HW1 1763   2.327   0.435   1.002  1.6679 -0.0881 -1.2937
  588SOL    HW2 1764   2.195   0.408   0.896 -2.6797 -0.1095  1.7080
  589SOL     OW 1765   0.475   0.673   0.969  0.8454 -0.2631 -0.1246
  589SOL    HW1 1766   0.523   0.588   1.000  1.0237  0.0683 -0.9286
  589SOL    HW2 1767   0.546   0.742   0.933  1.9148  1.5460 -0.3670
  590SOL     OW 1768   2.579   2.447   0.166  0.7853 -0.1984 -0.5268
  590SOL    HW1 1769   2.529   2.359   0.166  0.3497  1.9915 -0.1767
  590SOL    HW2 1770   2.665   2.434   0.218  0.9036 -0.7060  1.6619
  591SOL     OW 1771   0.425   2.239   1.772  0.2284  0.0054 -0.2230
  591SOL    HW1 1772   0.489   2.162   1.785 -1.1372  2.3201 -3.7397
  591SOL    HW2 1773   0.450   2.289   1.683  1.4632  2.1689  0.5123
  592SOL     OW 1774   0.704   1.577   1.657  0.2800 -0.1312  0.1127
  592SOL    HW1 1775   0.756   1.662   1.647 -0.9462  0.9492 -0.4947
  592SOL    HW2 1776   0.765   1.504   1.679  1.4555  1.3165  1.6889
  593SOL     OW 1777   0.944   2.005   1.178 -0.7391  0.0469  0.5075
  593SOL    HW1 1778   0.937   1.972   1.276 -1.7605 -2.0142  1.5094
  593SOL    HW2 1779   0.879   1.954   1.121  0.9038 -0.0210 -0.7306
  594SOL     OW 1780   0.399   1.572   3.041  0.0745  0.0215 -0.0162
  594SOL    HW1 1781   0.348   1.639   0.019 -2.5695  2.5456 -0.5190
  594SOL    HW2 1782   0.409   1.481   0.004  0.2421  0.9554 -1.2880
  595SOL     OW 1783   1.207   0.491   1.025  0.2767 -0.0870  0.6292
  595SOL    HW1 1784   1.218   0.392   1.002 -0.1048 -0.6677 -2.0988
  595SOL    HW2 1785   1.185   0.503   1.124  0.9014  1.5427  0.3414
  596SOL     OW 1786   0.357   1.421   0.779 -0.0763  0.6541  0.1110
  596SOL    HW1 1787   0.437   1.395   0.832 -3.3268 -0.7792  0.4055
  596SOL    HW2 1788   0.359   1.364   0.694 -0.3911 -1.1278  0.3361
  597SOL     OW 1789   0.025   2.021   2.926 -0.1639 -1.1081 -0.0477
  597SOL    HW1 1790   3.003   2.032   2.899  0.9224  0.6761 -1.6640
  597SOL    HW2 1791   0.069   2.106   2.960  2.0708 -2.5512 -2.0074
  598SOL     OW 1792   2.089   2.051   2.297 -0.4271  0.1615  0.1134
  598SOL    HW1 1793   2.099   2.135   2.238  2.5784  1.3580 -0.4847
  598SOL    HW2 1794   2.129   1.969   2.254 -1.8807  1.2453  0.5240
  599SOL     OW 1795   1.364   0.388   0.636 -0.8418 -0.2521  0.4884
  599SOL    HW1 1796   1.400   0.482   0.614  0.1798 -1.6154 -0.2313
  599SOL    HW2 1797   1.268   0.381   0.607 -3.0354  0.5125 -1.5258
  600SOL     OW 1798   0.823   2.605   0.288  0.1150 -0.0704  0.0010
  600SOL    HW1 1799   0.795   2.591   0.386 -0.3580 -0.3114  0.4631
  600SOL    HW2 1800   0.912   2.560   0.264  1.0115  1.3914  1.0195
  601SOL     OW 1801   0.631   0.366   1.270 -0.3998 -0.6165 -0.7430
  601SOL    HW1 1802   0.604   0.447   1.331 -0.7614 -0.7097 -1.9572
  601SOL    HW2 1803   0.724   0.332   1.300  3.3185 -0.4937  0.6228
  602SOL     OW 1804   0.070   2.912   0.538 -0.8446 -0.6360  0.5197
  602SOL    HW1 1805   0.051   2.830   0.590  0.2382  3.6834 -3.6196
  602SOL    HW2 1806   0.107   2.988   0.592  2.2788 -3.7546  0.0517
  603SOL     OW 1807   0.980   2.626   2.593  0.3554 -0.6363  0.7442
  603SOL    HW1 1808   0.968   2.634   2.489 -3.1639 -0.1561 -0.7970
  603SOL    HW2 1809   0.888   2.604   2.632  0.9512  0.3568  0.3104
  604SOL     OW 1810   0.968   2.615   2.916  0.4618  0.0934 -0.1174
  604SOL    HW1 1811   0.880   2.563   2.904 -0.2143  0.1820 -0.4993
  604SOL    HW2 1812   0.950   2.715   2.910  0.6106 -1.2792 -0.6087
  605SOL     OW 1813   0.773   0.859   1.870 -0.1070 -0.3661 -0.1382
  605SOL    HW1 1814   0.830   0.773   1.861 -1.1779  2.6229  0.4275
  605SOL    HW2 1815   0.807   0.917   1.947  0.8777  0.2481 -0.1726
  606SOL     OW 1816   1.508   0.442   2.544 -0.0043  0.3346 -0.0416
  606SOL    HW1 1817   1.545   0.407   2.631  0.5457 -0.0981  0.4306
  606SOL    HW2 1818   1.540   0.403   2.459 -0.7471 -0.7657  1.1135
  607SOL     OW 1819   0.319   1.387   1.172 -0.2888  0.0427 -0.2095
  607SOL    HW1 1820   0.325   1.367   1.271 -1.7752  1.0515  0.4297
  607SOL    HW2 1821   0.226   1.408   1.145 -0.8205  1.0338 -1.2814
  608SOL     OW 1822   2.862   2.452   2.255  0.1039  0.6472  0.0897
  608SOL    HW1 1823   2.828   2.543   2.228  0.2392  3.5881  1.9746
  608SOL    HW2 1824   2.967   2.450   2.266  0.6027 -0.7348  0.6816
  609SOL     OW 1825   1.719   0.501   0.106  0.1090  0.0602 -0.0236
  609SOL    HW1 1826   1.800   0.524   0.051 -2.6758  1.4595  0.9211
  609SOL    HW2 1827   1.633   0.546   0.071  0.2338 -0.6594  1.1335
  610SOL     OW 1828   0.914   2.742   1.083  0.0496 -0.0604 -0.5918
  610SOL    HW1 1829   0.850   2.790   1.020 -2.5439  0.2008  0.4442
  610SOL    HW2 1830   0.866   2.719   1.170 -0.1551 -0.4435  2.5676
  611SOL     OW 1831   0.875   0.869   0.207 -0.2425 -0.1695 -0.0030
  611SOL    HW1 1832   0.771   0.862   0.195  2.6328 -1.3198  0.0685
  611SOL    HW2 1833   0.915   0.935   0.137  2.2401 -2.9160  0.0311
  612SOL     OW 1834   1.421   0.695   2.354 -0.5474 -0.1304 -0.1635
  612SOL    HW1 1835   1.518   0.711   2.375 -2.5767 -0.0803  2.3065
  612SOL    HW2 1836   1.363   0.710   2.436  0.6611 -2.7689 -0.9026
  613SOL     OW 1837   2.062   0.706   0.335 -0.3251 -0.0667  0.2543
  613SOL    HW1 1838   2.089   0.798   0.364  0.5434 -1.6565  1.3180
  613SOL    HW2 1839   1.961   0.700   0.329  1.6797 -0.4472 -0.7760
  614SOL     OW 1840   1.996   0.537   1.859  0.0738  0.3348  0.1040
  614SOL    HW1 1841   1.907   0.534   1.914 -2.5412  0.0626 -1.1203
  614SOL    HW2 1842   2.046   0.626   1.875 -2.3445 -3.5043  0.8083
  615SOL     OW 1843   0.632   1.996   0.816  0.0593 -0.6040 -0.5608
  615SOL    HW1 1844   0.548   1.948   0.792  2.8615  2.5683  1.7881
  615SOL    HW2 1845   0.654   2.069   0.753 -0.7477 -0.9196  1.7745
  616SOL     OW 1846   1.760   1.206   2.348 -0.5671 -0.2933 -0.3117
  616SOL    HW1 1847   1.715   1.292   2.334  1.5257 -0.5853  0.9803
  616SOL    HW2 1848   1.843   1.219   2.402 -1.4391  2.0289 -0.3738
  617SOL     OW 1849   1.849   2.641   0.302 -0.0215 -0.7473 -0.0918
  617SOL    HW1 1850   1.783   2.705   0.256  1.6721  1.3960 -1.6634
  617SOL    HW2 1851   1.904   2.588   0.234 -1.3443  1.7704  1.0037
  618SOL     OW 1852   1.014   1.049   2.891 -0.0532  0.7075 -0.2118
  618SOL    HW1 1853   0.914   1.061   2.889  0.4223  1.2281 -0.2658
  618SOL    HW2 1854   1.043   1.042   2.990 -0.9873 -0.6824  1.7735
  619SOL     OW 1855   2.504   1.243   0.865 -0.0611  0.0643 -0.1506
  619SOL    HW1 1856   2.579   1.171   0.878  0.0046  1.8808 -0.3896
  619SOL    HW2 1857   2.434   1.222   0.794  2.1074 -0.3966 -1.4039
  620SOL     OW 1858   2.366   2.855   3.066 -0.1661  0.4064 -0.4042
  620SOL    HW1 1859   2.388   2.817   2.976  0.6760  1.1927  1.7962
  620SOL    HW2 1860   2.444   2.848   0.052  2.0258  0.0100  1.8091
  621SOL     OW 1861   2.175   1.007   0.145 -0.0518  0.1853 -0.4716
  621SOL    HW1 1862   2.181   1.101   0.105 -0.0766  0.2794 -0.3003
  621SOL    HW2 1863   2.155   1.008   0.244 -0.7984 -0.0289 -0.8931
  622SOL     OW 1864   0.879   2.225   2.681  0.3785 -0.1897 -0.2080
  622SOL    HW1 1865   0.913   2.273   2.599  0.9289 -0.1669 -1.8805
  622SOL    HW2 1866   0.962   2.211   2.740  4.4551  2.0637 -0.1930
  623SOL     OW 1867   0.296   1.748   0.133 -0.5787 -0.1715 -0.5957
  623SOL    HW1 1868   0.203   1.760   0.095  2.4557 -1.7803 -2.5941
  623SOL    HW2 1869   0.331   1.847   0.141  0.8981 -0.1095 -0.0441
  624SOL     OW 1870   0.376   0.122   2.784  0.6295  0.1694 -0.2326
  624SOL    HW1 1871   0.457   0.090   2.841 -0.9193  0.7874 -0.5709
  624SOL    HW2 1872   0.308   0.045   2.784  1.0336 -2.4201  2.5682
  625SOL     OW 1873   0.894   1.869   0.243 -0.1086  0.5785 -0.2357
  625SOL    HW1 1874   0.923   1.943   0.182 -2.0116 -1.3121 -1.3461
  625SOL    HW2 1875   0.794   1.849   0.240 -0.2883 -1.5030 -2.3935
  626SOL     OW 1876   2.817   0.175   0.112  0.0581 -0.0474  0.0843
  626SOL    HW1 1877   2.783   0.079   0.087 -0.9242 -1.8176 -0.6853
  626SOL    HW2 1878   2.748   0.231   0.166  3.0908  0.3558  2.2372
  627SOL     OW 1879   1.352   1.329   2.767 -0.1371  0.2900 -0.4792
  627SOL    HW1 1880   1.414   1.319   2.849  0.0323 -0.9439  0.1801
  627SOL    HW2 1881   1.401   1.304   2.680  0.4276  0.2714 -1.8298
  628SOL     OW 1882   1.350   0.911   2.745 -0.3357  0.1347  0.1610
  628SOL    HW1 1883   1.309   0.832   2.693 -0.6592 -0.5801 -0.4357
  628SOL    HW2 1884   1.310   0.998   2.703 -2.1000  1.7079 -1.0914
  629SOL     OW 1885   0.265   0.050   1.667 -0.3813 -0.1242 -0.1275
  629SOL    HW1 1886   0.359   0.048   1.710 -0.4182 -0.7703  0.3279
  629SOL    HW2 1887   0.257   0.118   1.595  1.7827 -3.9208 -1.4261
  630SOL     OW 1888   2.558   0.811   2.099  0.7557  0.2264  0.3804
  630SOL    HW1 1889   2.577   0.857   2.189  0.1183 -0.8701  0.5050
  630SOL    HW2 1890   2.645   0.808   2.051 -1.4077 -0.7172 -2.2370
  631SOL     OW 1891   2.063   0.859   0.738  0.3996 -0.6159  0.6533
  631SOL    HW1 1892   2.063   0.961   0.755 -1.3643  3.1440 -0.9286
  631SOL    HW2 1893   2.146   0.832   0.683  2.1002 -2.4414  1.5095
  632SOL     OW 1894   2.697   0.646   1.749  0.5028  0.4309 -0.4244
  632SOL    HW1 1895   2.732   0.709   1.819  1.3146  0.2886  1.1946
  632SOL    HW2 1896   2.743   0.664   1.662  2.2307 -0.9139  1.9396
  633SOL     OW 1897   0.882   2.876   2.923  0.1268  0.2890 -0.3333
  633SOL    HW1 1898   0.964   2.927   2.961  1.3013  1.2894 -0.9408
  633SOL    HW2 1899   0.802   2.890   2.983 -1.5362 -0.4843  1.4316
  634SOL     OW 1900   1.357   2.733   0.008 -0.4394  0.2060  0.1211
  634SOL    HW1 1901   1.386   2.792   0.083  1.0370 -0.2320  1.2157
  634SOL    HW2 1902   1.345   2.785   3.006  1.7990 -1.7654  2.8829
  635SOL     OW 1903   3.009   0.327   0.211 -0.0640 -0.1149  0.8589
  635SOL    HW1 1904   3.007   0.414   0.160 -0.0815  0.8275 -0.6194
  635SOL    HW2 1905   2.943   0.264   0.166  0.3968 -1.2489 -0.1159
  636SOL     OW 1906   0.402   1.282   0.547 -0.1743  0.4536 -0.0492
  636SOL    HW1 1907   0.401   1.325   0.454 -2.7942  0.5356  0.6832
  636SOL    HW2 1908   0.306   1.251   0.566  1.9803  0.3726 -0.7486
  637SOL     OW 1909   0.340   2.641   0.280  0.2269  0.0790  0.2953
  637SOL    HW1 1910   0.307   2.543   0.269  0.8716 -1.6549  3.2125
  637SOL    HW2 1911   0.261   2.701   0.295  2.1532 -3.5958  0.4737
  638SOL     OW 1912   2.938   2.561   0.345  0.6664 -0.3054 -0.3044
  638SOL    HW1 1913   2.995   2.597   0.272 -0.8992  0.2535  2.7611
  638SOL    HW2 1914   2.989   2.543   0.433  3.0964 -0.9797 -0.4899
  639SOL     OW 1915   1.325   1.251   0.206 -0.1461  0.1851 -0.3428
  639SOL    HW1 1916   1.381   1.177   0.161 -0.5905 -0.1293 -0.0615
  639SOL    HW2 1917   1.308   1.329   0.145  1.0460 -0.3292  0.7217
  640SOL     OW 1918   1.525   2.462   1.095  0.0095  0.6719  0.2080
  640SOL    HW1 1919   1.585   2.542   1.094 -1.2753  3.9090  0.2821
  640SOL    HW2 1920   1.538   2.394   1.013 -1.2700  0.7188 -3.1465
  641SOL     OW 1921   2.898   2.421   0.980 -0.2902  0.5928 -0.1404
  641SOL    HW1 1922   2.900   2.343   0.911 -0.8487  0.6829 -0.7842
  641SOL    HW2 1923   2.809   2.470   0.970 -0.7755  0.9131 -1.1266
  642SOL     OW 1924   0.635   2.905   1.791  0.6283 -0.6933 -0.2752
  642SOL    HW1 1925   0.696   2.913   1.711 -0.9888  1.0101  1.3486
  642SOL    HW2 1926   0.575   2.988   1.800  2.5719  0.8706 -0.1651
  643SOL     OW 1927   0.671   2.100   2.580  0.1939  0.0028  0.1416
  643SOL    HW1 1928   0.771   2.105   2.613  1.8773 -3.3211 -0.3816
  643SOL    HW2 1929   0.601   2.122   2.653  1.7311  1.7234  0.9240
  644SOL     OW 1930   1.002   2.639   0.626 -0.5657 -0.0459 -0.1897
  644SOL    HW1 1931   1.062   2.624   0.547 -0.6895 -0.3069  0.2461
  644SOL    HW2 1932   0.922   2.579   0.625  2.1343 -0.0389  2.7273
  645SOL     OW 1933   1.455   1.381   1.959  0.3072 -0.2175  0.0591
  645SOL    HW1 1934   1.365   1.339   1.987 -2.2743 -0.1953 -0.6205
  645SOL    HW2 1935   1.527   1.358   2.032 -1.0154 -1.1351  0.8368
  646SOL     OW 1936   0.457   1.017   0.146 -0.3856  0.0166 -1.1641
  646SOL    HW1 1937   0.431   0.993   0.241 -0.0022 -0.9314  1.0004
  646SOL    HW2 1938   0.455   0.934   0.087 -1.0848 -2.0564 -0.0142
  647SOL     OW 1939   1.056   0.238   0.928  0.0247  0.6272 -0.7772
  647SOL    HW1 1940   1.066   0.288   0.838 -2.5776  2.0487 -0.0896
  647SOL    HW2 1941   1.047   0.136   0.911  1.4104  3.7185  2.0074
  648SOL     OW 1942   2.518   2.754   1.504 -0.3243 -0.0648 -1.0648
  648SOL    HW1 1943   2.459   2.801   1.580  0.6363  0.2778  0.7098
  648SOL    HW2 1944   2.466   2.680   1.463 -0.2354  1.7687 -0.8754
  649SOL     OW 1945   0.526   1.979   2.990  0.0931  0.2022 -0.1181
  649SOL    HW1 1946   0.595   2.047   2.963  0.8744 -1.1281  1.1249
  649SOL    HW2 1947   0.475   2.005   3.076 -0.7405 -1.7588  1.3144
  650SOL     OW 1948   2.392   2.041   1.640  0.6059 -0.1264 -0.2448
  650SOL    HW1 1949   2.399   2.071   1.540  1.4965  2.4579  0.8046
  650SOL    HW2 1950   2.485   2.054   1.689  2.0737 -0.8614  0.9027
  651SOL     OW 1951   0.194   3.006   2.774 -0.2016 -0.1297  0.0591
  651SOL    HW1 1952   0.167   2.949   2.691  0.8502 -2.2479 -0.3329
  651SOL    HW2 1953   0.110   3.026   2.833  0.0454 -3.0570  2.9464
  652SOL     OW 1954   2.439   1.714   0.001 -0.2431 -0.4757  0.1353
  652SOL    HW1 1955   2.462   1.804   3.034  0.3697  3.5206  0.0207
  652SOL    HW2 1956   2.435   1.733   0.100  0.4573  1.3002  0.4453
  653SOL     OW 1957   0.042   0.079   0.721 -0.3256 -0.0420 -0.3373
  653SOL    HW1 1958   0.058   0.109   0.821 -0.3939  0.8284  1.8653
  653SOL    HW2 1959   0.074   0.152   0.658  1.6266 -0.4162 -0.4799
  654SOL     OW 1960   1.186   3.051   0.251 -0.1183  0.4588 -0.1769
  654SOL    HW1 1961   1.210   2.967   0.306  0.0429 -0.8634  0.7049
  654SOL    HW2 1962   1.277   0.016   0.225 -1.8564 -1.8184 -0.7457
  655SOL     OW 1963   0.752   2.702   1.309  0.4438 -0.4139  0.8118
  655SOL    HW1 1964   0.657   2.663   1.291  2.0956  1.1937  0.0769
  655SOL    HW2 1965   0.780   2.656   1.392 -0.1570 -1.1033 -0.1931
  656SOL     OW 1966   0.418   0.239   2.004 -0.2523  0.0354 -0.0615
  656SOL    HW1 1967   0.481   0.242   2.085  1.3219 -1.2961  1.3462
  656SOL    HW2 1968   0.323   0.224   2.043 -1.1762 -3.5098  0.4197
  657SOL     OW 1969   1.882   0.501   2.371  0.2602  0.1473 -0.1859
  657SOL    HW1 1970   1.866   0.409   2.324 -1.4230 -1.3503  0.3085
  657SOL    HW2 1971   1.954   0.550   2.327 -2.3643 -0.9387  1.8962
  658SOL     OW 1972   2.024   1.595   1.102  0.1200 -0.0201 -0.0899
  658SOL    HW1 1973   1.962   1.544   1.164 -0.9853 -0.5638  0.7104
  658SOL    HW2 1974   2.123   1.571   1.127  0.2868 -2.7871  1.0024
  659SOL     OW 1975   2.550   2.541   2.992 -0.0504  0.6328  0.0953
  659SOL    HW1 1976   2.471   2.587   2.953  1.8404 -0.6105  0.7372
  659SOL    HW2 1977   2.542   2.506   0.010 -0.7178 -1.7883 -0.3003
  660SOL     OW 1978   1.138   0.542   2.952  0.9892  0.0048  0.1795
  660SOL    HW1 1979   1.192   0.487   2.888 -0.9426  1.8742  0.5932
  660SOL    HW2 1980   1.040   0.564   2.931 -5.4293 -0.1720  1.0721
  661SOL     OW 1981   2.492   2.905   0.866  0.2883  0.2860  0.9904
  661SOL    HW1 1982   2.518   2.880   0.773  0.2467 -1.0256 -1.4643
  661SOL    HW2 1983   2.566   2.952   0.913 -0.6192 -2.0566 -1.2099
  662SOL     OW 1984   0.601   0.389   0.652 -0.0360 -0.3544  0.4875
  662SOL    HW1 1985   0.632   0.489   0.656  0.0254  3.9679 -2.4077
  662SOL    HW2 1986   0.502   0.391   0.667  0.5043  0.8606 -0.4250
  663SOL     OW 1987   1.327   2.434   2.402  0.1608 -0.0481  0.4944
  663SOL    HW1 1988   1.403   2.486   2.435  2.0289 -2.1524 -1.7069
  663SOL    HW2 1989   1.277   2.489   2.330 -0.1982 -0.0079 -3.0958
  664SOL     OW 1990   0.557   2.309   1.266 -0.2916  0.2007 -0.7006
  664SOL    HW1 1991   0.658   2.288   1.244  3.4334  1.6484  1.2789
  664SOL    HW2 1992   0.502   2.225   1.282 -1.3260  0.4474  0.7581
  665SOL     OW 1993   1.269   2.150   1.483  0.1065 -0.0384  0.6091
  665SOL    HW1 1994   1.302   2.125   1.576  1.5735 -3.2904 -1.1332
  665SOL    HW2 1995   1.335   2.111   1.412  4.3972  0.1218 -1.2075
  666SOL     OW 1996   0.535   2.823   2.707  0.2414 -0.1130 -0.3695
  666SOL    HW1 1997   0.541   2.885   2.628 -1.6516 -1.6655  3.8553
  666SOL    HW2 1998   0.619   2.762   2.716  1.0236 -1.1532  1.3028
  667SOL     OW 1999   1.471   1.598   1.221  0.0764  0.1958 -0.3492
  667SOL    HW1 2000   1.417   1.529   1.270 -2.0832 -1.1027 -2.0419
  667SOL    HW2 2001   1.441   1.690   1.255 -0.3083 -0.6132  1.2383
  668SOL     OW 2002   1.118   0.257   2.182 -0.2817 -0.0725 -0.5159
  668SOL    HW1 2003   1.172   0.308   2.255 -0.7209  0.0897  1.0869
  668SOL    HW2 2004   1.163   0.165   2.173  0.4673 -0.7914  0.3736
  669SOL     OW 2005   2.103   2.317   1.878  0.4009 -0.5184  0.9913
  669SOL    HW1 2006   2.175   2.325   1.806 -1.6399 -0.1970 -0.6250
  669SOL    HW2 2007   2.078   2.218   1.875 -0.7036  1.5332  0.9245
  670SOL     OW 2008   2.279   1.865   0.279 -0.1459  0.0868  0.6967
  670SOL    HW1 2009   2.198   1.870   0.341 -0.8506  1.3833  0.7598
  670SOL    HW2 2010   2.271   1.928   0.200  2.4376  1.1045  2.5694
  671SOL     OW 2011   1.412   0.910   1.106 -0.2533 -0.0785  0.4054
  671SOL    HW1 2012   1.443   0.863   1.019  0.2841 -1.6114  1.6784
  671SOL    HW2 2013   1.397   1.008   1.093 -1.2371 -0.2975 -0.0784
  672SOL     OW 2014   2.339   1.589   2.116  0.2510  0.3687 -0.5362
  672SOL    HW1 2015   2.436   1.606   2.140 -0.5720 -0.1827 -0.2058
  672SOL    HW2 2016   2.330   1.504   2.067  0.4130  2.4162 -0.7789
  673SOL     OW 2017   2.621   1.644   2.159  0.2797  0.1715  0.2982
  673SOL    HW1 2018   2.642   1.705   2.078 -0.2473  2.4490 -0.1059
  673SOL    HW2 2019   2.593   1.701   2.239 -0.4994  0.8179 -0.1180
  674SOL     OW 2020   0.965   2.619   2.296  0.0053 -0.3024 -0.4744
  674SOL    HW1 2021   1.062   2.606   2.268  1.6747 -0.0684 -0.4698
  674SOL    HW2 2022   0.901   2.618   2.211 -2.1384 -2.1401 -0.6473
  675SOL     OW 2023   0.632   1.048   1.431  0.0803 -0.4766 -0.1242
  675SOL    HW1 2024   0.620   1.019   1.335  1.6301  0.9172 -0.4062
  675SOL    HW2 2025   0.707   0.989   1.468  1.0001  1.2168 -0.0093
  676SOL     OW 2026   2.052   0.452   0.789  0.0839 -0.3199 -0.3490
  676SOL    HW1 2027   1.999   0.370   0.811  2.2395 -0.3177  1.6514
  676SOL    HW2 2028   2.050   0.529   0.861 -2.1128  2.8454 -2.2020
  677SOL     OW 2029   2.401   1.639   2.673 -0.1380 -0.3981 -0.6404
  677SOL    HW1 2030   2.476   1.600   2.612  1.0888  0.4217  0.0252
  677SOL    HW2 2031   2.351   1.566   2.721  2.0392  1.7571 -2.1413
  678SOL     OW 2032   0.138   0.037   1.033  0.3985  0.2389  0.2917
  678SOL    HW1 2033   0.147   3.046   0.958 -0.4690 -1.0634 -0.0280
  678SOL    HW2 2034   0.201   0.116   1.016 -1.9143  1.0497  0.7445
  679SOL     OW 2035   2.402   2.967   0.407 -0.6930 -0.5292  0.0905
  679SOL    HW1 2036   2.431   3.016   0.323  2.1566  0.0553  0.6355
  679SOL    HW2 2037   2.467   3.004   0.482 -0.7681 -0.1869  1.9767
  680SOL     OW 2038   0.065   2.361   2.003  0.2269  0.1826  0.1402
  680SOL    HW1 2039   0.104   2.291   1.940 -1.1480 -0.1626 -1.7901
  680SOL    HW2 2040   3.046   2.347   2.021  2.5959  1.2096  1.8126
  681SOL     OW 2041   2.528   1.543   1.351  0.2518  0.0284 -0.2675
  681SOL    HW1 2042   2.572   1.633   1.331 -1.1169 -1.5062 -1.3233
  681SOL    HW2 2043   2.444   1.564   1.408 -0.6891  0.0615  0.4010
  682SOL     OW 2044   2.858   2.324   2.025  0.6637  0.1495  0.8689
  682SOL    HW1 2045   2.762   2.300   1.998  0.1270  1.8126 -1.5837
  682SOL    HW2 2046   2.857   2.380   2.111  1.4449  0.2042 -0.9847
  683SOL     OW 2047   2.939   2.128   1.408  0.1018  0.1497  0.1576
  683SOL    HW1 2048   2.891   2.062   1.344 -1.4463  0.7286  1.1735
  683SOL    HW2 2049   2.882   2.210   1.417  1.2794 -0.8606 -2.6584
  684SOL     OW 2050   2.148   1.421   2.366 -0.4117 -0.3668  0.0119
  684SOL    HW1 2051   2.120   1.443   2.461 -0.9940 -1.4093  2.5717
  684SOL    HW2 2052   2.247   1.384   2.356  4.7188  1.1342 -1.1172
  685SOL     OW 2053   1.523   0.947   0.301 -0.2326 -0.1701  0.5094
  685SOL    HW1 2054   1.424   0.936   0.299 -2.2046  0.2959  0.4560
  685SOL    HW2 2055   1.553   0.900   0.387 -0.6305 -1.2931 -1.4547
  686SOL     OW 2056   0.431   3.040   0.714  0.1346  0.4196 -0.1929
  686SOL    HW1 2057   0.461   3.069   0.804  0.2092  3.3425 -1.4210
  686SOL    HW2 2058   0.502   3.067   0.643  0.0648 -0.4497  0.2527
  687SOL     OW 2059   1.572   1.405   2.225  0.2342  0.3094  0.5477
  687SOL    HW1 2060   1.635   1.487   2.241  0.7030 -0.8962  0.9441
  687SOL    HW2 2061   1.488   1.403   2.281  1.8102 -1.9400  1.2131
  688SOL     OW 2062   1.336   1.809   1.276  0.0337  0.0762 -0.0840
  688SOL    HW1 2063   1.267   1.828   1.205  0.3062 -0.4185  0.5748
  688SOL    HW2 2064   1.288   1.784   1.365 -1.4097 -0.9892  1.7471
  689SOL     OW 2065   2.016   0.169   1.368  0.2477 -0.3392  0.0454
  689SOL    HW1 2066   2.023   0.126   1.279  2.0026  1.0224  0.1956
  689SOL    HW2 2067   2.102   0.201   1.412  3.7224 -1.4606  0.0766
  690SOL     OW 2068   3.061   1.374   1.126  0.1467  0.0157  0.0558
  690SOL    HW1 2069   3.006   1.361   1.209  0.7166 -0.2962 -3.0029
  690SOL    HW2 2070   3.025   1.327   1.044  2.1928 -0.2743 -1.1511
  691SOL     OW 2071   0.534   2.648   0.982  0.3943  0.5884 -0.8117
  691SOL    HW1 2072   0.618   2.640   0.926 -0.7381 -3.0077  2.7589
  691SOL    HW2 2073   0.456   2.596   0.943  1.6276 -0.5876  1.6081
  692SOL     OW 2074   2.216   0.427   1.712  0.5200 -0.3446  0.6209
  692SOL    HW1 2075   2.292   0.496   1.700  1.8394  0.9805  1.7482
  692SOL    HW2 2076   2.134   0.467   1.751  1.3772 -0.7404 -0.4003
  693SOL     OW 2077   0.276   1.935   2.061 -0.4145 -0.3042 -0.2596
  693SOL    HW1 2078   0.315   1.848   2.037 -0.2176  0.0237  2.1524
  693SOL    HW2 2079   0.175   1.931   2.069 -2.6899  1.8985 -0.7757
  694SOL     OW 2080   1.616   1.320   1.739  0.1264  0.1153 -0.1028
  694SOL    HW1 2081   1.699   1.376   1.743  1.4093 -0.3676 -1.4551
  694SOL    HW2 2082   1.570   1.325   1.829 -1.4094  0.5891 -3.2342
  695SOL     OW 2083   0.615   1.001   1.166  0.1918  0.0496  0.5867
  695SOL    HW1 2084   0.538   1.044   1.113 -1.1478  1.4517  0.3332
  695SOL    HW2 2085   0.633   0.904   1.137  1.8311 -0.8357  2.2635
  696SOL     OW 2086   1.496   2.939   0.728  0.5440  0.1721 -0.6226
  696SOL    HW1 2087   1.471   3.027   0.681  2.2282 -0.4513  0.6418
  696SOL    HW2 2088   1.566   2.957   0.799 -0.8784 -1.1823 -0.1862
  697SOL     OW 2089   1.399   0.286   1.778  0.0551 -0.4111  0.1703
  697SOL    HW1 2090   1.416   0.277   1.874  0.3776  0.8564 -2.7301
  697SOL    HW2 2091   1.331   0.218   1.749  2.3632  1.5603 -1.2103
  698SOL     OW 2092   1.883   1.320   1.942  0.1048 -0.0352 -0.3278
  698SOL    HW1 2093   1.806   1.265   1.989 -0.2447 -1.7151  3.1861
  698SOL    HW2 2094   1.941   1.379   2.003 -0.3566 -1.3785  1.2110
  699SOL     OW 2095   2.245   0.235   1.525  0.2216  0.3378 -0.6087
  699SOL    HW1 2096   2.229   0.315   1.584  0.0575 -0.0123 -0.2467
  699SOL    HW2 2097   2.244   0.148   1.578 -0.2275  0.6022 -1.2231
  700SOL     OW 2098   0.897   2.085   0.027 -0.5040 -0.3525  0.0612
  700SOL    HW1 2099   0.862   2.159   0.083 -1.6723  1.2206 -0.0695
  700SOL    HW2 2100   0.999   2.078   0.034  0.7515  1.6928  0.0483
  701SOL     OW 2101   2.166   2.590   2.727  0.2329 -0.2970  0.6034
  701SOL    HW1 2102   2.099   2.563   2.653 -1.3010  1.1329  1.2373
  701SOL    HW2 2103   2.121   2.652   2.796 -0.8976  0.8064  0.9009
  702SOL     OW 2104   0.921   0.039   1.165  0.2341  0.0598  0.5687
  702SOL    HW1 2105   0.914   0.082   1.078  0.9121  0.3741 -0.9004
  702SOL    HW2 2106   1.015   0.051   1.202 -0.9576 -0.3707  0.4436
  703SOL     OW 2107   2.192   0.233   2.386 -0.5864 -0.6000  0.2583
  703SOL    HW1 2108   2.232   0.320   2.425  0.1920  1.2282 -0.0938
  703SOL    HW2 2109   2.231   0.205   2.295  0.3077 -1.5409 -1.8873
  704SOL     OW 2110   2.774   2.351   0.330 -0.0736 -0.2059 -0.3188
  704SOL    HW1 2111   2.847   2.427   0.331  2.6956 -0.0172  0.1137
  704SOL    HW2 2112   2.754   2.313   0.425  0.9060  1.4233  0.5618
  705SOL     OW 2113   2.372   0.128   2.197  0.3876 -0.1024 -0.1778
  705SOL    HW1 2114   2.338   0.124   2.105  0.6527 -0.9800 -0.6062
  705SOL    HW2 2115   2.415   0.040   2.230  0.8145 -1.9844 -2.2489
  706SOL     OW 2116   2.261   2.980   1.216  0.2049  0.2754  0.2784
  706SOL    HW1 2117   2.270   2.903   1.143  1.7879 -2.1469 -3.4835
  706SOL    HW2 2118   2.259   3.072   1.173  0.2508  1.0350  0.1319
  707SOL     OW 2119   0.774   2.994   2.359  0.2649 -0.4341 -0.0190
  707SOL    HW1 2120   0.868   2.961   2.337 -2.0763 -0.0009 -1.3036
  707SOL    HW2 2121   0.772   0.006   2.317  2.2380 -2.3747  2.7151
  708SOL     OW 2122   2.833   2.498   1.681 -0.1243 -0.3040 -0.1964
  708SOL    HW1 2123   2.782   2.563   1.735  0.5846  0.9601 -1.9430
  708SOL    HW2 2124   2.931   2.503   1.714 -0.9109 -0.5995  1.2874
  709SOL     OW 2125   1.847   0.427   1.642  0.0199 -0.7338  0.1366
  709SOL    HW1 2126   1.864   0.428   1.541 -2.1963 -0.7069 -0.0924
  709SOL    HW2 2127   1.918   0.469   1.700 -2.2839 -1.5851 -0.4917
  710SOL     OW 2128   1.220   0.189   2.555  0.1485  0.6264 -0.0162
  710SOL    HW1 2129   1.127   0.147   2.566  0.2120  0.0335 -1.8146
  710SOL    HW2 2130   1.296   0.126   2.532 -1.5658  2.5012  1.0313
  711SOL     OW 2131   0.728   1.767   2.682 -0.3198  0.2380 -0.1703
  711SOL    HW1 2132   0.811   1.775   2.739 -0.8962  0.7655  0.3550
  711SOL    HW2 2133   0.646   1.779   2.738  0.5994 -0.1135 -1.9142
  712SOL     OW 2134   0.980   1.747   2.799  0.2842  0.5751  0.0658
  712SOL    HW1 2135   0.951   1.670   2.861 -1.6534  1.0055  1.5215
  712SOL    HW2 2136   1.049   1.803   2.846  0.4897  0.5521 -1.1743
  713SOL     OW 2137   2.000   1.198   2.481  0.0205 -0.3425 -0.7956
  713SOL    HW1 2138   1.999   1.300   2.500 -0.8187  0.8087 -0.2022
  713SOL    HW2 2139   2.086   1.154   2.509 -1.9573 -2.1105  1.4691
  714SOL     OW 2140   1.129   1.735   1.707  0.2183  0.3590 -0.0865
  714SOL    HW1 2141   1.169   1.807   1.763 -2.9947 -1.6586 -0.1078
  714SOL    HW2 2142   1.027   1.742   1.706 -1.6402 -1.5838  1.0147
  715SOL     OW 2143   2.092   0.200   3.060 -0.0327  0.0613  0.2579
  715SOL    HW1 2144   2.107   0.284   0.033 -1.2471  1.0586  1.1601
  715SOL    HW2 2145   2.054   0.229   2.969 -1.1044 -1.5033 -0.0874
  716SOL     OW 2146   2.831   2.367   1.451 -0.3325  0.5559  0.2549
  716SOL    HW1 2147   2.835   2.417   1.544  0.3487 -0.4184  1.6518
  716SOL    HW2 2148   2.884   2.419   1.386  0.1382 -0.1148  2.5677
  717SOL     OW 2149   2.686   0.986   0.919  0.4625 -0.0202  0.3708
  717SOL    HW1 2150   2.587   0.978   0.936  1.5427  1.0292  3.0447
  717SOL    HW2 2151   2.709   0.959   0.819  0.9722  2.7370 -4.3724
  718SOL     OW 2152   1.342   1.696   1.519 -0.2272 -0.1110  0.4986
  718SOL    HW1 2153   1.401   1.612   1.533  2.6635 -2.6370  1.6138
  718SOL    HW2 2154   1.264   1.700   1.584  0.9505 -0.2589  0.5025
  719SOL     OW 2155   2.515   0.348   2.918 -0.7838 -0.8413 -0.4649
  719SOL    HW1 2156   2.505   0.448   2.930  0.9438 -3.3112 -0.7787
  719SOL    HW2 2157   2.615   0.330   2.922  1.2246  0.8240  1.7860
  720SOL     OW 2158   0.762   0.182   0.954  0.3105 -0.1143  0.2136
  720SOL    HW1 2159   0.836   0.249   0.971  0.6304  0.9229  0.6200
  720SOL    HW2 2160   0.727   0.187   0.861  1.2224  2.4959  2.4450
  721SOL     OW 2161   2.580   0.767   0.558  0.0839  0.6163  0.2621
  721SOL    HW1 2162   2.634   0.721   0.487  1.0768  0.1963  1.9824
  721SOL    HW2 2163   2.635   0.850   0.583  1.6627 -0.3747  0.2704
  722SOL     OW 2164   0.408   2.625   2.360 -0.2441 -1.0470 -0.1169
  722SOL    HW1 2165   0.409   2.529   2.342 -0.0666  3.1051 -1.1252
  722SOL    HW2 2166   0.402   2.680   2.278  0.7068 -0.5574  0.7053
  723SOL     OW 2167   1.421   0.077   0.600  0.0356 -0.0855  0.2637
  723SOL    HW1 2168   1.504   0.084   0.543  0.2957 -0.7780 -1.2630
  723SOL    HW2 2169   1.403   0.167   0.649 -0.7136  1.2719  0.1914
  724SOL     OW 2170   0.951   1.760   2.092 -0.5903  0.3603 -0.3535
  724SOL    HW1 2171   0.953   1.795   2.189 -0.2175  1.2827  2.8153
  724SOL    HW2 2172   0.855   1.763   2.047 -1.1619  2.4445 -2.2445
  725SOL     OW 2173   1.568   0.130   1.391 -0.8598 -0.1272  0.2086
  725SOL    HW1 2174   1.595   0.178   1.472  0.6462  1.4557 -0.6031
  725SOL    HW2 2175   1.557   0.030   1.411  0.7570  0.7871  0.7407
  726SOL     OW 2176   2.183   2.815   0.399 -0.1161  0.2975 -0.3329
  726SOL    HW1 2177   2.249   2.893   0.408 -1.7481  0.0986 -1.9568
  726SOL    HW2 2178   2.235   2.726   0.405  1.4402  2.2321  3.2809
  727SOL     OW 2179   1.351   1.928   0.840  0.1871  0.0551 -0.3109
  727SOL    HW1 2180   1.428   1.969   0.785  1.7464  0.9283  0.7852
  727SOL    HW2 2181   1.354   1.830   0.823 -0.4456  2.7533 -1.9005
  728SOL     OW 2182   2.367   2.658   2.351  0.1859  0.2469 -0.3008
  728SOL    HW1 2183   2.358   2.699   2.259 -3.4642  1.0002 -1.7685
  728SOL    HW2 2184   2.307   2.701   2.418  2.5134 -0.2190 -1.5807
  729SOL     OW 2185   1.954   2.318   1.567 -0.4412  0.4256  0.4940
  729SOL    HW1 2186   1.928   2.367   1.649 -0.3386 -1.3195  1.2102
  729SOL    HW2 2187   1.896   2.329   1.484  0.5905 -2.3348 -2.4500
  730SOL     OW 2188   1.651   0.881   2.751  0.4609 -0.1831  0.1347
  730SOL    HW1 2189   1.675   0.788   2.778 -0.4993  2.2626  1.0640
  730SOL    HW2 2190   1.549   0.896   2.742 -3.0259  1.2486  0.9898
  731SOL     OW 2191   0.744   2.956   1.321  0.1735 -0.2387  0.1872
  731SOL    HW1 2192   0.814   3.013   1.273 -0.0488  2.4553 -2.3462
  731SOL    HW2 2193   0.760   2.857   1.305 -1.2961 -1.9203  1.3805
  732SOL     OW 2194   1.345   0.254   1.122 -0.0456  0.4148 -0.6604
  732SOL    HW1 2195   1.402   0.321   1.173 -0.1780 -1.6134 -1.2948
  732SOL    HW2 2196   1.397   0.232   1.038  0.2521  0.7315  0.1148
  733SOL     OW 2197   0.955   1.175   0.891 -0.2684  0.5630  0.5747
  733SOL    HW1 2198   0.976   1.076   0.920  0.5880 -0.7933  3.8150
  733SOL    HW2 2199   0.894   1.223   0.955 -0.5788  0.7977 -1.5285
  734SOL     OW 2200   2.842   2.365   2.772 -0.0562  0.1105 -0.1440
  734SOL    HW1 2201   2.840   2.422   2.685 -0.5389  0.0923 -1.0939
  734SOL    HW2 2202   2.834   2.426   2.855 -0.1177 -0.8559  0.6234
  735SOL     OW 2203   1.031   2.775   1.482  0.1427  0.0250  0.2544
  735SOL    HW1 2204   1.044   2.798   1.379 -0.6310  2.9026 -1.4785
  735SOL    HW2 2205   1.120   2.775   1.530  1.0249 -3.1569 -0.0699
  736SOL     OW 2206   1.730   1.872   3.020  0.1281  0.1170  0.1695
  736SOL    HW1 2207   1.725   1.845   2.920 -0.5495  1.6665 -0.3986
  736SOL    HW2 2208   1.688   1.964   3.042 -1.2008  1.1083  1.1533
  737SOL     OW 2209   0.134   2.230   1.323 -0.3631 -0.2099 -0.0631
  737SOL    HW1 2210   0.139   2.238   1.222 -2.5193 -2.0894  0.1648
  737SOL    HW2 2211   0.051   2.175   1.339  1.4718  0.5735 -0.6644
  738SOL     OW 2212   1.826   2.450   2.833 -0.0439  0.0354  0.0400
  738SOL    HW1 2213   1.735   2.493   2.858  2.8901  0.0781 -3.1459
  738SOL    HW2 2214   1.905   2.501   2.874  0.4633  1.4739  0.2488
  739SOL     OW 2215   1.265   2.153   2.521 -0.2277 -0.3163  0.2515
  739SOL    HW1 2216   1.298   2.229   2.464 -0.0802  0.7950 -1.4418
  739SOL    HW2 2217   1.331   2.080   2.534 -0.1022  2.2482  2.2253
  740SOL     OW 2218   1.124   2.609   0.878 -0.5404 -0.0292  0.2342
  740SOL    HW1 2219   1.084   2.603   0.787 -1.3928 -0.1067 -1.5406
  740SOL    HW2 2220   1.058   2.647   0.944  1.0264 -0.3395  0.2753
  741SOL     OW 2221   2.928   1.104   0.383 -0.4367  0.6564  0.1174
  741SOL    HW1 2222   2.859   1.105   0.457 -2.4199 -0.6204 -0.2921
  741SOL    HW2 2223   2.927   1.194   0.335  0.3134 -2.8049 -1.7297
  742SOL     OW 2224   0.754   1.689   2.412  0.5587  0.4046  0.0942
  742SOL    HW1 2225   0.844   1.650   2.396 -3.2765 -0.8855 -2.2180
  742SOL    HW2 2226   0.750   1.767   2.479 -1.9104  2.6468  3.0450
  743SOL     OW 2227   1.049   0.958   2.369  0.3286  0.4865  0.3166
  743SOL    HW1 2228   0.969   0.912   2.407  2.5787  3.3899 -0.4575
  743SOL    HW2 2229   1.064   0.933   2.269 -0.9762 -0.1377 -1.3532
  744SOL     OW 2230   2.224   2.919   1.481 -0.6571 -0.0309 -0.3837
  744SOL    HW1 2231   2.293   2.951   1.538 -1.7703 -2.9973 -1.6083
  744SOL    HW2 2232   2.251   2.944   1.383  2.8614 -1.1147  1.0908
  745SOL     OW 2233   1.662   1.392   1.218  0.5478  0.1428  0.4834
  745SOL    HW1 2234   1.583   1.462   1.216 -1.0408  0.3383 -0.0506
  745SOL    HW2 2235   1.672   1.336   1.303  1.2493 -1.5159 -0.5112
  746SOL     OW 2236   1.815   0.752   0.706  0.2412 -0.4196  0.1974
  746SOL    HW1 2237   1.898   0.806   0.714  0.2974 -1.8982 -0.3308
  746SOL    HW2 2238   1.837   0.661   0.663 -1.1727 -1.2439  0.8863
  747SOL     OW 2239   1.992   1.575   0.697  0.0283  0.4765 -0.2010
  747SOL    HW1 2240   1.936   1.499   0.737  0.0388  0.2256 -0.1880
  747SOL    HW2 2241   1.938   1.663   0.703  0.3153  1.4203 -0.4970
  748SOL     OW 2242   0.289   1.610   0.377 -0.6021  0.6106 -0.1282
  748SOL    HW1 2243   0.277   1.672   0.294 -2.9352  2.4536  2.1436
  748SOL    HW2 2244   0.322   1.518   0.348  0.6562 -0.0276 -1.0375
  749SOL     OW 2245   0.028   2.342   2.706  0.7347  0.6220  0.1570
  749SOL    HW1 2246   0.019   2.288   2.619 -1.8171 -1.5405  0.1659
  749SOL    HW2 2247   3.011   2.337   2.750 -1.2108 -2.0533  0.1906
  750SOL     OW 2248   2.283   0.701   0.903 -0.4759 -0.2475 -0.1978
  750SOL    HW1 2249   2.334   0.631   0.950 -1.6224  1.3400  0.4930
  750SOL    HW2 2250   2.189   0.705   0.941  1.5036 -0.5027  2.4902
  751SOL     OW 2251   2.807   2.960   0.241 -0.4981  0.3415  0.2430
  751SOL    HW1 2252   2.756   2.999   0.163  2.6016  1.5179 -0.1200
  751SOL    HW2 2253   2.784   2.869   0.272  0.7141  1.0083 -2.4091
  752SOL     OW 2254   2.330   2.679   0.688  0.0766 -0.0085  0.8570
  752SOL    HW1 2255   2.242   2.709   0.739  0.5273 -0.9766  2.6626
  752SOL    HW2 2256   2.383   2.618   0.748  1.1349  0.0119 -0.7822
  753SOL     OW 2257   2.020   1.451   2.130 -0.1553 -0.3405  0.0370
  753SOL    HW1 2258   2.083   1.466   2.210  0.0266  2.1895 -2.9851
  753SOL    HW2 2259   1.989   1.533   2.079  1.9000 -0.7847 -0.0888
  754SOL     OW 2260   2.233   2.295   1.623  0.7031  0.2462  0.0746
  754SOL    HW1 2261   2.272   2.216   1.569  0.2154 -0.9106 -0.5165
  754SOL    HW2 2262   2.135   2.305   1.598 -0.3515  1.6354  0.1610
  755SOL     OW 2263   2.573   0.829   1.184 -0.7004  0.1067 -0.2849
  755SOL    HW1 2264   2.525   0.884   1.114 -4.3869  1.6866  1.6360
  755SOL    HW2 2265   2.509   0.795   1.259 -1.0677 -1.0590  3.7335
  756SOL     OW 2266   0.918   1.514   2.971 -0.2063  0.2059 -0.3535
  756SOL    HW1 2267   0.963   1.454   2.905 -0.4316  0.8526 -2.0395
  756SOL    HW2 2268   0.817   1.493   2.962 -0.7641  2.2722 -2.5163
  757SOL     OW 2269   1.740   2.651   1.077 -0.2726 -0.1804 -0.2437
  757SOL    HW1 2270   1.780   2.621   0.987  0.7163  0.1682  0.5627
  757SOL    HW2 2271   1.801   2.615   1.155  2.0415  0.4609  0.7037
  758SOL     OW 2272   0.846   2.241   1.299  0.1479 -0.1033  0.2089
  758SOL    HW1 2273   0.938   2.268   1.320 -3.6115 -2.3945 -1.5218
  758SOL    HW2 2274   0.843   2.161   1.239 -0.9708 -1.3204  2.3337
  759SOL     OW 2275   2.232   1.155   1.037 -0.4358 -0.0749 -0.0186
  759SOL    HW1 2276   2.288   1.230   1.076  1.5842 -0.9673  0.0769
  759SOL    HW2 2277   2.193   1.188   0.949  2.9658 -1.7634 -1.2268
  760SOL     OW 2278   2.100   0.904   1.424  0.2114  0.2660  0.0496
  760SOL    HW1 2279   2.043   0.858   1.355 -0.8360 -1.6693  2.3239
  760SOL    HW2 2280   2.139   0.984   1.380 -2.4336 -1.9666 -0.8576
  761SOL     OW 2281   1.896   2.826   0.494  0.0063 -0.3608 -0.3237
  761SOL    HW1 2282   1.896   2.748   0.430  0.8632  0.6023  0.7113
  761SOL    HW2 2283   1.993   2.855   0.503  1.3341  1.3957  2.0798
  762SOL     OW 2284   2.091   1.668   2.853 -0.0211  0.5817 -0.2675
  762SOL    HW1 2285   2.110   1.691   2.757  1.6688  0.3056  0.3376
  762SOL    HW2 2286   2.081   1.757   2.900  0.2149 -0.7155 -2.7989
  763SOL     OW 2287   0.544   1.660   1.423 -0.1492 -0.2460 -0.6858
  763SOL    HW1 2288   0.445   1.637   1.429  0.6292 -1.3619  0.3709
  763SOL    HW2 2289   0.596   1.618   1.502  0.9706 -1.0168  2.3269
  764SOL     OW 2290   0.044   2.278   3.023  0.4394  0.2297 -0.2568
  764SOL    HW1 2291   3.024   2.295   3.048  0.4163  2.3811 -0.5778
  764SOL    HW2 2292   0.086   2.366   3.015 -1.2768 -0.8429 -2.0260
  765SOL     OW 2293   0.532   3.029   1.471 -0.0223  0.4993 -0.5118
  765SOL    HW1 2294   0.620   3.007   1.420  0.4577 -0.4797  0.8636
  765SOL    HW2 2295   0.548   0.031   1.532  0.3350  1.0814  0.0816
  766SOL     OW 2296   2.831   2.056   1.966 -0.3749  0.2838  0.6510
  766SOL    HW1 2297   2.854   2.155   1.981 -1.6646 -0.4720 -0.8304
  766SOL    HW2 2298   2.839   2.025   1.864  0.0458 -1.0481 -0.2263
  767SOL     OW 2299   2.925   1.144   2.030  0.4055  0.1770 -0.2100
  767SOL    HW1 2300   2.945   1.051   2.072 -0.0769  1.1160 -1.0017
  767SOL    HW2 2301   2.942   1.141   1.929 -1.1633  1.1347  3.7349
  768SOL     OW 2302   0.733   0.316   2.646  0.5253 -0.2715 -0.4604
  768SOL    HW1 2303   0.651   0.257   2.639  1.2440  1.4084 -0.2027
  768SOL    HW2 2304   0.725   0.395   2.706  0.2886 -2.2559  2.0852
  769SOL     OW 2305   2.127   2.623   1.063 -0.0844  0.6600 -0.3318
  769SOL    HW1 2306   2.214   2.667   1.055 -0.3758 -2.3065 -0.2635
  769SOL    HW2 2307   2.060   2.696   1.066  1.2486 -3.2798 -0.9111
  770SOL     OW 2308   2.888   0.066   2.761 -0.2714 -0.2640  0.0579
  770SOL    HW1 2309   2.814   3.075   2.757  1.9525  0.4198 -0.5198
  770SOL    HW2 2310   2.894   0.111   2.671 -1.3700  1.0527  0.3596
  771SOL     OW 2311   1.746   2.163   1.791 -0.0976 -0.6017  0.5363
  771SOL    HW1 2312   1.824   2.120   1.735 -2.3352 -2.4164 -1.1846
  771SOL    HW2 2313   1.696   2.088   1.839  3.5084 -0.3837  0.3673
  772SOL     OW 2314   1.192   0.258   3.041 -0.2325 -0.7836  0.1938
  772SOL    HW1 2315   1.158   0.281   0.053 -1.1428 -0.8180 -0.0839
  772SOL    HW2 2316   1.142   0.309   2.967  0.7849  0.7132 -0.2139
  773SOL     OW 2317   2.797   0.865   1.912 -0.0340  0.6790 -0.0721
  773SOL    HW1 2318   2.832   0.892   2.005  1.8343 -0.3153  1.6872
  773SOL    HW2 2319   2.873   0.872   1.843 -0.2818 -2.0059 -1.1815
  774SOL     OW 2320   1.108   1.036   0.602 -0.7750  0.7226  0.0677
  774SOL    HW1 2321   1.168   1.095   0.547  0.3291  0.2019  0.4783
  774SOL    HW2 2322   1.014   1.081   0.604 -0.9126  0.8804  0.5502
  775SOL     OW 2323   2.659   3.041   0.033  0.0850  0.7923  0.4618
  775SOL    HW1 2324   2.577   0.014   0.004  2.1895  2.2243 -1.6315
  775SOL    HW2 2325   2.683   2.968   3.044 -0.3115  1.6124 -1.2698
  776SOL     OW 2326   2.315   1.333   2.023  0.3176 -0.3275 -0.1218
  776SOL    HW1 2327   2.260   1.265   2.066  0.7584  2.7820  0.2513
  776SOL    HW2 2328   2.388   1.293   1.968 -2.4769 -0.7833  1.0639
  777SOL     OW 2329   0.249   1.303   2.890  0.5554 -0.4334 -0.3709
  777SOL    HW1 2330   0.322   1.327   2.824 -0.7237  0.7110 -0.4233
  777SOL    HW2 2331   0.182   1.381   2.899  2.3847  1.4108 -2.1168
  778SOL     OW 2332   0.465   0.500   0.260  0.5385 -0.1966  0.4713
  778SOL    HW1 2333   0.492   0.447   0.175 -1.1270 -1.4094 -1.4936
  778SOL    HW2 2334   0.362   0.483   0.274 -0.1184  0.2216 -0.2958
  779SOL     OW 2335   0.492   0.538   2.652 -0.5088 -0.1298  0.0264
  779SOL    HW1 2336   0.580   0.549   2.699 -2.8088 -2.1429  2.3490
  779SOL    HW2 2337   0.496   0.494   2.562 -1.5335 -0.2883  0.1157
  780SOL     OW 2338   2.052   0.878   2.602 -0.1813 -0.1434  0.3029
  780SOL    HW1 2339   2.057   0.918   2.697 -0.6208 -0.0372 -1.3951
  780SOL    HW2 2340   2.007   0.787   2.608 -1.4210 -1.2087  0.1302
  781SOL     OW 2341   3.021   0.896   1.769  0.5756  0.7385  0.1661
  781SOL    HW1 2342   0.021   0.854   1.723 -0.2935  0.0932 -0.1365
  781SOL    HW2 2343   3.009   0.992   1.746 -1.1951 -1.8533  1.9703
  782SOL     OW 2344   0.484   1.758   2.869  0.2749  0.0311 -0.2792
  782SOL    HW1 2345   0.497   1.834   2.933 -1.9666 -2.8575  1.1327
  782SOL    HW2 2346   0.427   1.686   2.921  0.6458 -0.4561  0.1481
  783SOL     OW 2347   0.940   2.500   1.470  0.2272  0.2144  0.5729
  783SOL    HW1 2348   0.977   2.592   1.461 -3.2156 -1.7182 -1.1371
  783SOL    HW2 2349   1.012   2.433   1.441  2.1382 -0.5509 -2.6834
  784SOL     OW 2350   1.428   0.378   2.956 -0.0082  0.2677 -0.4215
  784SOL    HW1 2351   1.363   0.334   3.022 -0.7341 -2.7350 -2.2096
  784SOL    HW2 2352   1.461   0.466   2.988  0.2368  0.5585  0.0028
  785SOL     OW 2353   1.127   0.399   1.949 -0.7724 -0.3645 -0.6500
  785SOL    HW1 2354   1.126   0.354   2.043 -1.5021 -1.7394  0.8628
  785SOL    HW2 2355   1.220   0.428   1.923 -0.8070  1.0266  1.8536
  786SOL     OW 2356   0.676   1.833   0.540 -0.3185  0.4694  0.1921
  786SOL    HW1 2357   0.684   1.822   0.440 -1.0966  3.4229  1.1625
  786SOL    HW2 2358   0.580   1.861   0.565  0.6940 -0.6866  2.5764
  787SOL     OW 2359   1.244   0.871   0.331  0.0707 -0.4372 -0.5010
  787SOL    HW1 2360   1.154   0.863   0.374 -1.6758  0.5042 -2.1677
  787SOL    HW2 2361   1.238   0.817   0.244  1.2201 -1.0989  3.3949
  788SOL     OW 2362   2.291   1.509   1.179  0.2939 -0.3047 -0.6136
  788SOL    HW1 2363   2.344   1.424   1.165 -1.9715  0.7429  1.1244
  788SOL    HW2 2364   2.315   1.562   1.264 -0.0833 -0.9854 -0.2231
  789SOL     OW 2365   2.926   1.509   2.006  0.1366 -0.4182  0.1647
  789SOL    HW1 2366   3.002   1.465   2.057 -0.5638 -0.9868 -0.3820
  789SOL    HW2 2367   2.838   1.469   2.037 -0.5087 -0.0165 -2.1991
  790SOL     OW 2368   0.686   2.976   0.011  0.5041 -0.3522  0.7262
  790SOL    HW1 2369   0.622   2.900   0.042  0.1545 -2.7491  0.9592
  790SOL    HW2 2370   0.698   3.046   0.085 -0.9827  0.0269  2.8088
  791SOL     OW 2371   0.184   0.461   0.261  0.2510  0.0006 -0.3463
  791SOL    HW1 2372   0.103   0.399   0.261 -0.5476 -0.4009 -1.4714
  791SOL    HW2 2373   0.186   0.510   0.176  1.8277 -0.7338 -0.9127
  792SOL     OW 2374   1.692   0.732   2.349  0.4377 -0.0658  0.1591
  792SOL    HW1 2375   1.733   0.667   2.411 -0.1636  4.8935  1.0312
  792SOL    HW2 2376   1.714   0.714   2.261 -2.2224  0.3804  3.2230
  793SOL     OW 2377   3.033   0.394   0.714 -0.6342 -0.4723  0.2893
  793SOL    HW1 2378   3.056   0.446   0.631 -1.9561 -3.6562  0.8601
  793SOL    HW2 2379   0.006   0.421   0.795  0.5029 -0.8905 -0.9356
  794SOL     OW 2380   0.410   0.412   1.599  0.0252 -0.2282 -0.4297
  794SOL    HW1 2381   0.468   0.467   1.538  0.2426 -0.5045 -2.9488
  794SOL    HW2 2382   0.352   0.350   1.547  0.5498 -1.5442  0.9275
  795SOL     OW 2383   0.022   1.400   0.108 -0.0424  0.1278  0.4370
  795SOL    HW1 2384   0.015   1.477   0.045  0.8664  0.3347  1.2378
  795SOL    HW2 2385   0.021   1.307   0.056  0.1452 -4.3127 -1.7187
  796SOL     OW 2386   0.101   0.936   0.120 -0.2618 -0.1699  0.4875
  796SOL    HW1 2387   0.173   0.938   0.192  2.5052 -1.3328 -1.5068
  796SOL    HW2 2388   0.016   0.897   0.160 -1.7031  0.6199 -1.2395
  797SOL     OW 2389   1.533   2.529   3.031  0.4806  0.0694  0.4534
  797SOL    HW1 2390   1.484   2.619   3.044 -0.0732  2.9507  0.9114
  797SOL    HW2 2391   1.500   2.490   2.945 -1.8680  1.3100  0.5019
  798SOL     OW 2392   2.922   0.535   1.054  0.2045 -0.3858  0.0931
  798SOL    HW1 2393   2.925   0.434   1.054 -0.3010 -0.6116  0.6139
  798SOL    HW2 2394   2.830   0.575   1.044  3.8699 -0.9937 -0.0061
  799SOL     OW 2395   2.426   0.616   1.975  0.0923 -0.1058  0.2912
  799SOL    HW1 2396   2.461   0.696   2.034  0.7078 -1.1967 -0.3918
  799SOL    HW2 2397   2.449   0.626   1.879 -0.8753  0.9126  2.1553
  800SOL     OW 2398   0.162   1.848   0.510  0.0441  0.1344 -0.6852
  800SOL    HW1 2399   0.126   1.839   0.608 -2.6390  0.2408  1.7461
  800SOL    HW2 2400   0.229   1.769   0.496  1.7695 -0.3465  2.5415
  801SOL     OW 2401   1.510   2.011   0.627  0.0190 -0.2608  0.4274
  801SOL    HW1 2402   1.514   1.927   0.567  0.6021 -1.4502 -2.0974
  801SOL    HW2 2403   1.595   2.018   0.678 -2.5237  2.2200  1.2619
  802SOL     OW 2404   1.395   1.582   2.841  0.1551  0.1049  0.3334
  802SOL    HW1 2405   1.342   1.497   2.857  0.2076 -1.1915 -1.9757
  802SOL    HW2 2406   1.490   1.577   2.876  0.2798 -3.9495  1.6205
  803SOL     OW 2407   0.041   2.070   1.603 -0.0817 -0.0208 -0.0107
  803SOL    HW1 2408   3.047   2.099   1.533 -0.2713  4.2817 -1.1437
  803SOL    HW2 2409   0.071   2.155   1.651  1.3358  0.4895 -1.3839
  804SOL     OW 2410   1.195   2.462   1.132  0.0751  0.2710  0.2441
  804SOL    HW1 2411   1.296   2.478   1.149 -3.2702  1.1582 -1.2524
  804SOL    HW2 2412   1.158   2.505   1.048 -1.4607 -1.0461  0.2913
  805SOL     OW 2413   2.289   2.044   2.523  0.1683 -0.0002  0.1524
  805SOL    HW1 2414   2.195   2.076   2.546  2.3726 -0.5663 -1.4071
  805SOL    HW2 2415   2.358   2.109   2.558 -2.2426 -2.4797  0.8435
  806SOL     OW 2416   2.124   0.050   0.763  0.2462 -0.3569 -0.8389
  806SOL    HW1 2417   2.226   0.054   0.793  0.9835  1.4742 -1.2727
  806SOL    HW2 2418   2.119   0.080   0.666  2.5824  0.5288 -1.8537
  807SOL     OW 2419   2.897   1.154   2.667 -0.5881 -0.2054 -0.4503
  807SOL    HW1 2420   2.970   1.089   2.642 -1.7276  1.4244 -0.3739
  807SOL    HW2 2421   2.869   1.213   2.593 -2.4886 -1.4438  0.6240
  808SOL     OW 2422   0.695   1.377   0.573 -0.1611  0.4966 -0.1178
  808SOL    HW1 2423   0.594   1.395   0.595 -3.4942 -0.5712 -0.3716
  808SOL    HW2 2424   0.758   1.452   0.595 -1.4068 -3.7621 -1.6321
  809SOL     OW 2425   2.803   0.601   2.171 -0.2802  0.3854 -0.1359
  809SOL    HW1 2426   2.702   0.602   2.148  1.6526  3.5895 -1.3833
  809SOL    HW2 2427   2.856   0.551   2.097 -0.0946 -0.4535  1.0167
  810SOL     OW 2428   1.370   0.474   1.548 -0.9855 -0.4873 -0.0824
  810SOL    HW1 2429   1.388   0.400   1.616 -1.5076 -0.5247 -0.9202
  810SOL    HW2 2430   1.378   0.566   1.590  0.8340 -0.2604  0.0260
  811SOL     OW 2431   2.316   0.021   1.941  0.2750  0.0948 -0.2277
  811SOL    HW1 2432   2.231   3.067   1.980  2.0286  0.6719 -2.2077
  811SOL    HW2 2433   2.389   3.031   1.946  1.7656 -1.2465  1.7136
  812SOL     OW 2434   1.656   2.134   0.087 -0.1075 -0.0337 -0.0669
  812SOL    HW1 2435   1.662   2.229   0.113 -1.2212  1.7653 -1.8309
  812SOL    HW2 2436   1.656   2.075   0.167 -1.9532  0.9986  1.6137
  813SOL     OW 2437   1.151   0.692   1.661  0.3784 -0.4214  0.0689
  813SOL    HW1 2438   1.129   0.640   1.577 -1.1036 -0.3613 -3.1894
  813SOL    HW2 2439   1.248   0.735   1.642  1.8863  0.8969 -2.5021
  814SOL     OW 2440   0.403   0.232   1.145 -0.3766  0.5608  0.2918
  814SOL    HW1 2441   0.491   0.271   1.172 -1.5131 -0.2465 -1.4111
  814SOL    HW2 2442   0.382   0.143   1.200 -0.6882 -3.0928  2.2093
  815SOL     OW 2443   0.518   0.227   0.409  0.0824 -0.9129  0.5743
  815SOL    HW1 2444   0.496   0.316   0.456  2.2046 -1.4401 -1.7644
  815SOL    HW2 2445   0.438   0.173   0.397 -0.9731 -0.4710 -2.0701
  816SOL     OW 2446   2.169   1.733   2.262 -0.3901  0.0064  0.5227
  816SOL    HW1 2447   2.230   1.669   2.212  0.1765  0.8296  1.6976
  816SOL    HW2 2448   2.189   1.729   2.361 -1.8294 -0.1287 -0.5511
  817SOL     OW 2449   0.861   2.880   0.591  0.2376  0.9272 -0.6398
  817SOL    HW1 2450   0.914   2.793   0.605  2.4602 -1.5279 -0.0717
  817SOL    HW2 2451   0.868   2.895   0.493 -0.1152 -0.0558 -0.6371
  818SOL     OW 2452   1.777   0.619   2.872 -0.0507 -0.5419 -0.2156
  818SOL    HW1 2453   1.823   0.633   2.783  1.9075 -0.8614  3.1406
  818SOL    HW2 2454   1.838   0.569   2.941 -2.1173 -2.9032  0.0871
  819SOL     OW 2455   2.141   0.094   0.238 -0.1054  0.0784 -0.0564
  819SOL    HW1 2456   2.121   3.076   0.214 -0.6961  0.3998 -2.9054
  819SOL    HW2 2457   2.148   0.150   0.156 -0.6847  0.9804  2.5256
  820SOL     OW 2458   1.950   0.577   0.000 -0.0811  0.2046  0.1964
  820SOL    HW1 2459   1.957   0.673   0.027 -1.0713  1.3158  0.2079
  820SOL    HW2 2460   2.034   0.526   0.026  0.2377  2.4963 -0.2602
  821SOL     OW 2461   2.739   0.334   0.774 -0.1687  0.2586 -0.5313
  821SOL    HW1 2462   2.836   0.356   0.754 -0.3321  0.3298 -3.1289
  821SOL    HW2 2463   2.696   0.313   0.683  1.5603  1.5155  1.1892
  822SOL     OW 2464   0.995   2.212   2.177 -0.1426  0.2182 -0.2145
  822SOL    HW1 2465   0.989   2.280   2.255 -0.2228  0.9893  1.3017
  822SOL    HW2 2466   0.900   2.200   2.135 -1.9941  0.5306  1.3265
  823SOL     OW 2467   0.092   1.531   1.796  0.1874  0.0037 -0.2181
  823SOL    HW1 2468   0.118   1.494   1.890  0.5972  0.0748  0.1038
  823SOL    HW2 2469   0.017   1.600   1.801  0.4359 -0.1652  0.4342
  824SOL     OW 2470   1.457   2.842   2.358  0.4333  0.0383 -0.3466
  824SOL    HW1 2471   1.472   2.743   2.390  0.3898 -1.3985  4.0559
  824SOL    HW2 2472   1.412   2.896   2.425  3.2822 -2.3326 -0.7877
  825SOL     OW 2473   1.640   0.800   0.499  0.0799 -0.3812  0.0765
  825SOL    HW1 2474   1.688   0.733   0.444 -3.3427  2.3254 -0.4319
  825SOL    HW2 2475   1.698   0.817   0.583  0.7481  2.5630 -0.6124
  826SOL     OW 2476   1.949   0.846   0.050 -0.0086  0.3789  0.5008
  826SOL    HW1 2477   2.034   0.891   0.080  0.2260 -2.8420 -0.7062
  826SOL    HW2 2478   1.893   0.913   3.067 -3.6421 -0.6556  0.5762
  827SOL     OW 2479   0.412   1.709   2.324 -0.2100 -0.5348  0.2681
  827SOL    HW1 2480   0.428   1.791   2.382 -0.2161 -2.0236 -1.8816
  827SOL    HW2 2481   0.490   1.645   2.314 -1.3302 -2.9777  4.3221
  828SOL     OW 2482   2.353   1.261   1.486 -0.5219  0.6536 -0.7956
  828SOL    HW1 2483   2.373   1.304   1.578  1.9575  0.7129  2.9688
  828SOL    HW2 2484   2.436   1.249   1.432  3.0296  0.6167  0.5390
  829SOL     OW 2485   0.368   1.638   0.633  0.0861 -0.6313  0.0227
  829SOL    HW1 2486   0.349   1.561   0.696 -1.1124 -2.2022 -1.4495
  829SOL    HW2 2487   0.351   1.612   0.537 -0.2383  1.0883  1.4388
  830SOL     OW 2488   1.456   0.819   0.839  0.1503 -0.9363 -0.0501
  830SOL    HW1 2489   1.364   0.811   0.790  0.1304 -0.3281 -2.3453
  830SOL    HW2 2490   1.492   0.728   0.865 -0.0154  0.0886 -0.8503
  831SOL     OW 2491   2.898   1.726   0.127  0.0894  0.6674  0.2835
  831SOL    HW1 2492   2.889   1.790   0.206  0.8304 -1.1383  1.4199
  831SOL    HW2 2493   2.813   1.676   0.106  2.0506  0.7438  1.1725
  832SOL     OW 2494   0.795   0.282   0.072 -0.2705  0.1690  0.1813
  832SOL    HW1 2495   0.848   0.369   0.084  0.1574 -0.0437 -1.3395
  832SOL    HW2 2496   0.801   0.231   0.160 -0.0201  0.3428 -2.2769
  833SOL     OW 2497   0.729   0.739   2.172  0.1320  0.1505  0.3121
  833SOL    HW1 2498   0.807   0.800   2.147 -0.3226  0.4774  0.7520
  833SOL    HW2 2499   0.733   0.651   2.121 -2.1968  1.8757  0.7797
  834SOL     OW 2500   0.325   0.399   0.622  0.2379 -0.0518 -0.3307
  834SOL    HW1 2501   0.289   0.433   0.711 -0.2348 -0.0217  0.3469
  834SOL    HW2 2502   0.253   0.357   0.562 -0.7368  0.4613 -2.0347
  835SOL     OW 2503   2.742   2.988   1.209 -0.0479  0.1369 -0.2028
  835SOL    HW1 2504   2.707   3.041   1.284  1.2211 -1.9027 -1.5348
  835SOL    HW2 2505   2.708   3.027   1.123  0.7359 -0.8987  3.5487
  836SOL     OW 2506   0.393   2.028   0.138  1.1934 -0.2178 -0.2826
  836SOL    HW1 2507   0.315   2.090   0.126 -0.7315 -0.5073  0.5096
  836SOL    HW2 2508   0.449   2.056   0.221  0.3391  0.5891  0.2959
  837SOL     OW 2509   1.802   1.546   2.289 -0.3562  0.2480 -0.1712
  837SOL    HW1 2510   1.812   1.642   2.249  1.8399  1.7808  2.2736
  837SOL    HW2 2511   1.884   1.486   2.269  0.1060 -0.4811 -0.6324
  838SOL     OW 2512   0.376   1.020   1.502  0.1459  0.1864  0.0931
  838SOL    HW1 2513   0.473   1.039   1.484 -0.0329 -0.4099  0.2940
  838SOL    HW2 2514   0.336   1.082   1.573  1.8116  1.9600 -0.2228
  839SOL     OW 2515   0.596   1.322   0.872  0.4364  0.3353 -0.3004
  839SOL    HW1 2516   0.639   1.311   0.966 -2.4987 -2.0004  2.1098
  839SOL    HW2 2517   0.571   1.224   0.841 -1.0858 -1.1206 -0.6344
  840SOL     OW 2518   2.017   0.040   1.998 -0.1755 -0.7828  0.6408
  840SOL    HW1 2519   2.036   0.082   1.909 -0.2495  1.5717 -1.2053
  840SOL    HW2 2520   1.977   0.109   2.060  0.4116 -1.6701 -1.5953
  841SOL     OW 2521   0.501   2.192   0.343  0.6631 -0.3296 -0.2554
  841SOL    HW1 2522   0.586   2.192   0.396 -1.2655 -0.4298 -2.7901
  841SOL    HW2 2523   0.508   2.233   0.249 -2.3405 -1.0947  3.2228
  842SOL     OW 2524   0.308   0.190   0.890  0.0198 -0.0401 -0.3185
  842SOL    HW1 2525   0.376   0.193   0.964  0.9105  0.5466  0.7540
  842SOL    HW2 2526   0.348   0.160   0.805 -3.6047 -1.1339 -0.2076
  843SOL     OW 2527   0.425   1.368   2.690  0.3587  0.0157  0.3975
  843SOL    HW1 2528   0.349   1.432   2.656  1.8307  1.0743 -2.2307
  843SOL    HW2 2529   0.517   1.388   2.650  2.1022  1.9629 -2.0101
  844SOL     OW 2530   1.204   2.240   3.042 -0.0853 -0.1349 -0.4044
  844SOL    HW1 2531   1.170   2.218   2.948  2.0774  1.3213 -1.4190
  844SOL    HW2 2532   1.203   2.340   3.065  0.3106 -2.0829  0.1005
  845SOL     OW 2533   2.611   2.741   2.650  0.0164  0.1289  0.2200
  845SOL    HW1 2534   2.640   2.799   2.572  0.5149  1.6932  2.8506
  845SOL    HW2 2535   2.607   2.643   2.626  2.7520  0.1434 -1.1763
  846SOL     OW 2536   2.045   1.896   2.970 -0.0397  0.1952 -0.3181
  846SOL    HW1 2537   1.983   1.962   2.925  1.6757 -0.8009 -0.6119
  846SOL    HW2 2538   2.008   1.884   3.067 -0.6277 -3.4869  0.9847
  847SOL     OW 2539   2.435   0.115   3.040  0.1468  0.3624  0.1974
  847SOL    HW1 2540   2.357   0.067   2.994  0.2336 -1.5571 -0.8412
  847SOL    HW2 2541   2.459   0.202   2.993 -0.6864 -0.5375 -2.4741
  848SOL     OW 2542   0.369   0.711   0.572 -0.1107  0.2218  0.2242
  848SOL    HW1 2543   0.320   0.725   0.660 -0.0429  1.8323  1.2771
  848SOL    HW2 2544   0.375   0.610   0.550 -0.7170 -1.4956  1.0666
  849SOL     OW 2545   1.296   2.880   1.668  0.0262 -0.2992  0.6143
  849SOL    HW1 2546   1.310   2.825   1.751  1.0733  1.6284  0.7150
  849SOL    HW2 2547   1.335   2.834   1.583  3.3753 -0.5243  0.0820
  850SOL     OW 2548   0.631   1.728   0.273 -0.6337 -1.0862  0.3324
  850SOL    HW1 2549   0.532   1.721   0.274  2.4521 -0.3880  2.7656
  850SOL    HW2 2550   0.666   1.644   0.232  0.2648 -0.5108  0.2834
  851SOL     OW 2551   0.134   1.262   0.620 -0.3112  0.5328  0.2863
  851SOL    HW1 2552   0.062   1.267   0.689 -0.2553 -1.4894 -0.2837
  851SOL    HW2 2553   0.107   1.186   0.555  0.3119  0.8144 -1.4172
  852SOL     OW 2554   1.761   2.648   1.561 -0.3995  0.0896 -0.2512
  852SOL    HW1 2555   1.668   2.610   1.571 -0.0768 -0.9942  0.9034
  852SOL    HW2 2556   1.762   2.748   1.566  0.3050 -2.6377 -1.2068
  853SOL     OW 2557   2.955   1.392   0.339 -0.1570 -0.2794  0.3173
  853SOL    HW1 2558   3.002   1.405   0.249  0.1990  0.3672 -1.8276
  853SOL    HW2 2559   3.003   1.440   0.414 -1.2184  0.0112  1.4322
  854SOL     OW 2560   1.673   1.198   2.058 -0.0152 -0.0674 -0.0714
  854SOL    HW1 2561   1.663   1.183   2.157  0.3976 -0.3452 -1.7014
  854SOL    HW2 2562   1.609   1.136   2.010  1.9028  1.8971  0.3514
  855SOL     OW 2563   0.337   2.284   3.009 -0.8814  0.4125  0.0304
  855SOL    HW1 2564   0.241   2.253   3.027  1.5665  0.1043 -0.3880
  855SOL    HW2 2565   0.333   2.359   2.942  0.0778  0.5240 -1.6584
  856SOL     OW 2566   0.433   0.753   1.601  0.0423  0.6106 -0.7874
  856SOL    HW1 2567   0.481   0.749   1.690  1.3783 -0.2431 -0.1154
  856SOL    HW2 2568   0.418   0.854   1.575 -0.5234  0.3796 -0.6881
  857SOL     OW 2569   1.214   1.299   2.057  0.1603 -0.0876 -0.1576
  857SOL    HW1 2570   1.199   1.249   2.145  1.3433 -0.2899  0.9613
  857SOL    HW2 2571   1.147   1.372   2.044 -0.2008 -0.3758 -1.1410
  858SOL     OW 2572   0.219   1.533   2.642  0.4312  0.2975  0.1815
  858SOL    HW1 2573   0.156   1.524   2.726  2.5200  0.0147  2.6644
  858SOL    HW2 2574   0.196   1.615   2.584 -0.5632 -0.4525 -1.5842
  859SOL     OW 2575   2.674   3.077   0.952  0.3030  0.2388  0.0145
  859SOL    HW1 2576   2.637   0.092   0.955  0.4875 -1.8861 -1.5412
  859SOL    HW2 2577   2.750   3.077   0.881 -0.7252  1.1063 -1.6105
  860SOL     OW 2578   2.133   2.902   0.137  0.4099 -0.1493  0.4817
  860SOL    HW1 2579   2.117   2.880   0.235 -1.7825 -0.3824 -0.9659
  860SOL    HW2 2580   2.232   2.889   0.110  1.0092  1.4114  2.3997
  861SOL     OW 2581   0.741   0.438   0.387  0.2089  0.0894  0.1821
  861SOL    HW1 2582   0.715   0.344   0.421 -2.5428  1.3625 -0.4839
  861SOL    HW2 2583   0.659   0.480   0.347 -0.2382 -1.3991 -1.2639
  862SOL     OW 2584   1.487   0.511   2.157 -0.5344  0.1446  0.4159
  862SOL    HW1 2585   1.498   0.554   2.067  2.0333  1.1821  0.6271
  862SOL    HW2 2586   1.475   0.577   2.227  0.7532 -1.5313 -3.3084
  863SOL     OW 2587   2.559   2.239   1.076  0.2581 -0.1655  0.2670
  863SOL    HW1 2588   2.464   2.219   1.050 -1.0486 -0.8965 -1.2303
  863SOL    HW2 2589   2.627   2.170   1.041  1.3970  0.5178 -2.6666
  864SOL     OW 2590   2.471   2.984   2.294  0.4943  0.0168 -0.3189
  864SOL    HW1 2591   2.381   2.963   2.347 -2.7229  1.1945  1.4025
  864SOL    HW2 2592   2.544   2.923   2.325  0.3220 -1.8725  1.1019
  865SOL     OW 2593   0.951   0.659   1.853 -0.4225 -0.4127 -0.0573
  865SOL    HW1 2594   0.952   0.563   1.887  0.2430 -0.9882 -1.6399
  865SOL    HW2 2595   1.027   0.672   1.785 -0.9412 -1.7744 -1.5422
  866SOL     OW 2596   2.002   2.873   1.131 -0.3311 -0.0361 -0.1002
  866SOL    HW1 2597   2.073   2.881   1.205  0.9613  0.3704  2.3382
  866SOL    HW2 2598   1.956   2.964   1.106 -0.2139  0.2786  1.0152
  867SOL     OW 2599   2.539   2.405   0.740  0.2338 -0.0250  0.1876
  867SOL    HW1 2600   2.589   2.470   0.799 -2.6170 -1.9793 -2.2290
  867SOL    HW2 2601   2.448   2.395   0.775  3.5044 -0.7364 -1.3753
  868SOL     OW 2602   0.636   2.030   1.484  0.5995  0.2082  0.3047
  868SOL    HW1 2603   0.682   2.117   1.493  0.4710 -1.7253  0.1313
  868SOL    HW2 2604   0.542   2.043   1.452  3.2099  0.0361  1.1036
  869SOL     OW 2605   2.309   2.352   2.936  0.9243 -0.4496 -0.6076
  869SOL    HW1 2606   2.403   2.321   2.956 -1.8563  0.5938  1.6259
  869SOL    HW2 2607   2.288   2.442   2.984 -1.2172  3.4732 -2.4449
  870SOL     OW 2608   1.856   1.774   0.959 -0.3755  0.1311 -0.1525
  870SOL    HW1 2609   1.853   1.801   0.861 -1.5675  0.0778 -0.7637
  870SOL    HW2 2610   1.919   1.698   0.980  1.2299  1.7984 -3.0087
  871SOL     OW 2611   0.323   1.715   1.745  0.3153 -0.4892  0.2931
  871SOL    HW1 2612   0.263   1.634   1.736  1.6917  0.1524  0.3054
  871SOL    HW2 2613   0.333   1.722   1.845 -0.2791 -1.2567 -0.7921
  872SOL     OW 2614   0.432   1.343   2.294 -0.6487  0.1102  0.4166
  872SOL    HW1 2615   0.503   1.418   2.282  0.0048  1.0484  1.8707
  872SOL    HW2 2616   0.475   1.268   2.350  0.7398  2.3048  2.4436
  873SOL     OW 2617   1.092   2.037   1.836  0.9550  0.3996  0.1412
  873SOL    HW1 2618   1.107   1.979   1.914  1.3087  0.0721 -4.0014
  873SOL    HW2 2619   1.000   2.016   1.789 -1.6221 -1.7735 -0.4346
  874SOL     OW 2620   1.545   1.019   1.897  0.0615 -0.5198  0.2561
  874SOL    HW1 2621   1.466   1.082   1.889 -2.1281  3.7277  0.3722
  874SOL    HW2 2622   1.517   0.939   1.957 -1.1070 -0.8129 -0.7665
  875SOL     OW 2623   2.760   2.755   0.841  0.4038  0.3688  0.3156
  875SOL    HW1 2624   2.685   2.715   0.897 -1.3358  0.1795 -1.0035
  875SOL    HW2 2625   2.832   2.790   0.899 -1.1166 -2.3533 -4.5230
  876SOL     OW 2626   1.219   1.254   0.465 -0.1473  0.0398  0.3327
  876SOL    HW1 2627   1.261   1.229   0.373  0.6610 -1.6007 -0.8628
  876SOL    HW2 2628   1.126   1.295   0.453 -0.3852 -3.2001 -0.1904
  877SOL     OW 2629   2.902   0.242   1.074  0.1152  0.1911  0.2570
  877SOL    HW1 2630   2.906   0.205   0.978  2.5651  2.1557 -1.6142
  877SOL    HW2 2631   2.903   0.175   1.154 -0.3010 -0.4325  1.3512
  878SOL     OW 2632   2.302   1.600   0.324 -0.7050  0.5127 -0.4630
  878SOL    HW1 2633   2.220   1.580   0.383 -1.6062 -1.7983 -0.1342
  878SOL    HW2 2634   2.310   1.704   0.312 -1.5927 -0.3081 -1.2905
  879SOL     OW 2635   2.453   1.735   1.107 -0.2604 -0.2290  0.6274
  879SOL    HW1 2636   2.413   1.643   1.094  1.9340 -0.0953  1.6482
  879SOL    HW2 2637   2.500   1.769   1.022  1.6414  0.8400 -0.6284
  880SOL     OW 2638   0.356   2.525   0.842 -0.1078  0.0974 -0.0024
  880SOL    HW1 2639   0.262   2.536   0.876  2.1894 -2.4886  0.9549
  880SOL    HW2 2640   0.370   2.563   0.751 -2.2168  1.7901  1.2975
  881SOL     OW 2641   1.222   0.803   0.708  0.4362  0.3173 -0.1928
  881SOL    HW1 2642   1.171   0.886   0.694  0.7533 -0.2992 -0.8826
  881SOL    HW2 2643   1.170   0.745   0.779 -0.8111 -1.7598  1.9941
  882SOL     OW 2644   2.434   1.032   2.959 -0.0376 -1.0174  0.1608
  882SOL    HW1 2645   2.424   1.128   2.922 -0.6758  1.4361 -2.5863
  882SOL    HW2 2646   2.467   0.974   2.884 -0.0381 -0.0452 -0.3268
  883SOL     OW 2647   1.220   0.065   1.745  0.3410 -0.4029  0.4863
  883SOL    HW1 2648   1.139   0.056   1.805  0.8503 -1.4615  0.2906
  883SOL    HW2 2649   1.262   3.048   1.733  1.4520 -0.3734  0.6516
  884SOL     OW 2650   2.857   0.028   0.764  0.3322  0.0938  0.4899
  884SOL    HW1 2651   2.947   0.057   0.726 -1.1831 -2.3480  3.2956
  884SOL    HW2 2652   2.828   3.025   0.707  2.5638  1.7713 -1.6700
  885SOL     OW 2653   1.253   0.848   1.304 -0.7867  0.3072 -1.1093
  885SOL    HW1 2654   1.279   0.912   1.382 -0.9119  1.5501  0.7697
  885SOL    HW2 2655   1.308   0.869   1.220  0.0334  0.0328  0.5500
  886SOL     OW 2656   1.770   1.102   2.636  0.0709 -0.2369 -0.3262
  886SOL    HW1 2657   1.841   1.107   2.570 -0.0944  0.6732  2.9735
  886SOL    HW2 2658   1.739   1.008   2.663  0.0193  0.7116 -1.3527
  887SOL     OW 2659   1.764   0.756   0.985  0.0922  0.5156  0.1970
  887SOL    HW1 2660   1.768   0.752   0.880 -0.3614 -0.7848 -1.0836
  887SOL    HW2 2661   1.765   0.855   1.019  0.5709 -2.3587  1.1970
  888SOL     OW 2662   2.067   1.638   1.794 -0.2835 -0.4755  0.0353
  888SOL    HW1 2663   2.109   1.548   1.824  0.4781 -0.4540  0.6564
  888SOL    HW2 2664   2.130   1.718   1.789 -2.2371 -2.2565 -0.3369
  889SOL     OW 2665   2.219   2.200   0.636 -0.2493 -0.2362 -0.3674
  889SOL    HW1 2666   2.291   2.200   0.708 -0.0331  0.0105  0.5378
  889SOL    HW2 2667   2.128   2.200   0.682  0.7294  0.8648 -1.2676
  890SOL     OW 2668   1.092   2.032   0.775 -0.5158 -0.1537  0.8149
  890SOL    HW1 2669   1.186   2.012   0.740  1.7156 -0.7138 -0.2468
  890SOL    HW2 2670   1.047   1.949   0.812 -0.2631  1.0747 -1.3761
  891SOL     OW 2671   2.547   0.587   2.468 -0.2229  0.5147 -0.1932
  891SOL    HW1 2672   2.625   0.621   2.517 -3.0259  1.6098  2.4890
  891SOL    HW2 2673   2.558   0.504   2.406  0.0316 -2.9713 -0.0558
  892SOL     OW 2674   1.219   0.697   2.156  0.1266  0.5065 -0.0098
  892SOL    HW1 2675   1.126   0.660   2.176 -0.6840  2.6061 -3.4379
  892SOL    HW2 2676   1.284   0.685   2.233 -0.9981  2.6111 -0.5499
  893SOL     OW 2677   1.501   0.408   1.300 -0.2728  0.2224  0.2981
  893SOL    HW1 2678   1.530   0.308   1.321  1.2861 -0.8971  0.9070
  893SOL    HW2 2679   1.469   0.459   1.383 -0.9037 -1.1799  0.3152
  894SOL     OW 2680   2.617   0.300   0.528  0.0289  0.0439 -0.5458
  894SOL    HW1 2681   2.524   0.281   0.545 -0.4717  0.0218  0.8744
  894SOL    HW2 2682   2.648   0.217   0.478 -1.4648 -0.0822 -1.4225
  895SOL     OW 2683   2.008   2.637   2.944  0.5450 -0.8315  0.3539
  895SOL    HW1 2684   1.950   2.702   2.997 -1.5197 -0.7820  0.1842
  895SOL    HW2 2685   2.096   2.617   2.988 -1.6143  0.3139 -0.8636
  896SOL     OW 2686   1.739   2.911   1.581  0.2639 -0.4513 -0.0121
  896SOL    HW1 2687   1.824   2.965   1.559  0.7522 -1.9440  0.3014
  896SOL    HW2 2688   1.669   2.920   1.506  3.9783  1.7143 -0.8084
  897SOL     OW 2689   0.164   2.186   1.838  0.0666 -0.1200  0.5116
  897SOL    HW1 2690   0.253   2.225   1.796  1.9164 -1.0828  0.4922
  897SOL    HW2 2691   0.179   2.091   1.873 -0.4390  0.6291 -1.0192
  898SOL     OW 2692   2.320   1.822   1.785 -0.6116  0.3521 -0.2453
  898SOL    HW1 2693   2.368   1.738   1.768 -1.3802  3.7168  0.8547
  898SOL    HW2 2694   2.361   1.905   1.737  0.2654  1.4525  0.9879
  899SOL     OW 2695   1.782   2.061   0.637  0.3581 -0.1968  0.2100
  899SOL    HW1 2696   1.833   2.145   0.662 -1.8326 -0.5807 -1.2223
  899SOL    HW2 2697   1.767   2.065   0.534 -1.7937  0.1009 -1.4773
  900SOL     OW 2698   0.912   0.172   2.911  0.2623 -0.1492 -0.2072
  900SOL    HW1 2699   0.858   0.203   2.832  3.5973  3.7026 -0.3798
  900SOL    HW2 2700   0.854   0.185   2.999  0.1850 -0.2533  5.9071
  901SOL     OW 2701   1.061   1.665   2.549  0.3788 -0.7780  0.4517
  901SOL    HW1 2702   1.160   1.646   2.554 -1.1952 -2.3110 -0.3323
  901SOL    HW2 2703   1.031   1.714   2.629  3.4074  0.2056  0.8397
  902SOL     OW 2704   2.831   0.585   2.915  0.2881 -0.3268  0.1470
  902SOL    HW1 2705   2.923   0.606   2.877  1.5043  0.9379 -0.1967
  902SOL    HW2 2706   2.810   0.482   2.910 -1.0032 -0.8447 -0.1620
  903SOL     OW 2707   2.090   0.640   2.275 -0.0333 -0.1577 -0.9597
  903SOL    HW1 2708   2.128   0.729   2.309 -0.7416 -1.4886 -1.1578
  903SOL    HW2 2709   2.157   0.587   2.222 -1.0477 -0.5281  1.6573
  904SOL     OW 2710   1.616   0.989   2.288 -0.3811 -0.0778  0.0958
  904SOL    HW1 2711   1.648   0.900   2.328 -0.7054 -1.0262  0.5183
  904SOL    HW2 2712   1.670   1.066   2.326  2.4249 -1.7971 -1.5229
  905SOL     OW 2713   2.218   2.717   1.661 -0.1256 -0.2955 -0.1413
  905SOL    HW1 2714   2.214   2.784   1.579  0.8562  2.6587 -1.3820
  905SOL    HW2 2715   2.140   2.649   1.667 -2.2029 -0.8072 -1.7064
  906SOL     OW 2716   1.697   2.042   0.370 -0.6710 -0.6642 -0.0253
  906SOL    HW1 2717   1.798   2.029   0.358  1.2854 -2.1571 -0.2854
  906SOL    HW2 2718   1.644   1.965   0.393 -0.2019  2.7917 -2.3776
  907SOL     OW 2719   1.291   2.828   0.900  0.2538  0.0571  0.1026
  907SOL    HW1 2720   1.360   2.863   0.838 -2.0580 -0.9220 -0.9156
  907SOL    HW2 2721   1.236   2.751   0.862 -1.4876 -0.3462 -0.7359
  908SOL     OW 2722   1.726   2.173   2.390 -0.3388  0.7562 -0.3802
  908SOL    HW1 2723   1.770   2.249   2.437  0.0727 -3.7437  2.6224
  908SOL    HW2 2724   1.691   2.184   2.296 -3.8842 -1.4867 -1.2099
  909SOL     OW 2725   2.089   0.344   2.038  0.5333 -0.2113 -0.2637
  909SOL    HW1 2726   2.064   0.414   1.970  0.2308 -1.8188  1.2948
  909SOL    HW2 2727   2.175   0.359   2.084 -2.9678 -2.6555 -2.3884
  910SOL     OW 2728   1.240   0.401   2.742 -0.9329  0.5334  0.1288
  910SOL    HW1 2729   1.330   0.391   2.789  0.0596  0.5502  0.7981
  910SOL    HW2 2730   1.219   0.318   2.687 -1.2001  0.7464 -0.0459
  911SOL     OW 2731   2.923   0.865   0.230  0.2326  0.3687  0.4909
  911SOL    HW1 2732   2.909   0.944   0.295  2.7602  0.1277  0.0470
  911SOL    HW2 2733   2.930   0.775   0.281 -1.9620 -1.3877 -0.0917
  912SOL     OW 2734   0.067   2.465   0.518  0.3703  0.4286 -0.0389
  912SOL    HW1 2735   0.029   2.384   0.468 -1.2390 -0.8156 -0.7736
  912SOL    HW2 2736   0.164   2.450   0.536 -2.5168 -2.5533  0.8041
  913SOL     OW 2737   2.619   2.291   2.326 -0.3509  0.1574 -0.3314
  913SOL    HW1 2738   2.707   2.310   2.285 -0.4306 -0.4197 -0.7175
  913SOL    HW2 2739   2.606   2.189   2.340  0.2806 -1.2034  1.2357
  914SOL     OW 2740   1.449   2.072   1.238 -0.4870  0.5160 -0.0871
  914SOL    HW1 2741   1.432   1.973   1.249  1.6868 -2.0855 -0.3372
  914SOL    HW2 2742   1.412   2.110   1.151 -0.6706  0.8533  0.7362
  915SOL     OW 2743   0.345   2.812   2.167  0.2717  0.3657 -0.1140
  915SOL    HW1 2744   0.300   2.745   2.104  1.1593 -1.2328 -2.8214
  915SOL    HW2 2745   0.278   2.885   2.193  2.8335  0.3298  0.0956
  916SOL     OW 2746   0.620   0.191   1.616  0.0262 -0.1521 -0.2199
  916SOL    HW1 2747   0.720   0.207   1.619 -1.2615 -1.5670 -0.4631
  916SOL    HW2 2748   0.562   0.276   1.604  0.1361  0.6437  2.0686
  917SOL     OW 2749   2.675   0.521   0.382 -0.3156 -0.5014  0.0572
  917SOL    HW1 2750   2.643   0.446   0.446 -3.0918 -0.2006  2.7814
  917SOL    HW2 2751   2.591   0.566   0.331 -0.5952 -0.9697 -3.7480
  918SOL     OW 2752   1.715   2.219   2.838 -0.0719  0.8691 -0.4071
  918SOL    HW1 2753   1.756   2.309   2.852 -1.2540 -2.5573 -0.4289
  918SOL    HW2 2754   1.619   2.217   2.874  0.7356 -2.6545 -1.5208
  919SOL     OW 2755   1.672   2.914   1.139 -0.0592 -0.5119  0.5978
  919SOL    HW1 2756   1.700   2.967   1.059 -0.8301  0.1631  0.5383
  919SOL    HW2 2757   1.699   2.817   1.129 -1.6227  1.0847  0.2686
  920SOL     OW 2758   1.256   0.387   2.378  0.1084 -0.2646  0.0529
  920SOL    HW1 2759   1.236   0.313   2.442 -0.2140  0.8226 -4.0470
  920SOL    HW2 2760   1.348   0.414   2.405 -0.9468 -1.6917  3.1325
  921SOL     OW 2761   2.886   0.872   2.833 -0.6725  0.4336  0.1849
  921SOL    HW1 2762   2.873   0.957   2.881  0.9273  1.1108  1.2629
  921SOL    HW2 2763   2.986   0.839   2.843  3.3384  0.0366  1.8360
  922SOL     OW 2764   0.257   2.118   1.041 -0.0472  0.1430 -0.2883
  922SOL    HW1 2765   0.302   2.042   1.089 -1.9764  0.9418 -2.1086
  922SOL    HW2 2766   0.317   2.184   0.993  0.7829 -3.9371  1.1771
  923SOL     OW 2767   0.523   1.508   1.907  0.2703  0.3377  0.4093
  923SOL    HW1 2768   0.534   1.519   1.806 -0.3140 -0.3944 -2.1980
  923SOL    HW2 2769   0.516   1.409   1.929  3.8979 -0.9234 -0.4792
  924SOL     OW 2770   1.628   2.671   2.705  0.2900  0.3023 -0.3234
  924SOL    HW1 2771   1.558   2.602   2.736 -1.7727 -1.6932  1.0317
  924SOL    HW2 2772   1.643   2.748   2.774 -0.7485 -0.7781  0.4943
  925SOL     OW 2773   2.635   1.485   0.906  0.1421 -0.3783 -0.4913
  925SOL    HW1 2774   2.582   1.402   0.909  3.5145  2.4860 -0.3473
  925SOL    HW2 2775   2.685   1.499   0.996  0.9640 -0.9259  0.9153
  926SOL     OW 2776   2.096   0.542   1.260  1.1674 -0.2549  0.5012
  926SOL    HW1 2777   2.188   0.573   1.287 -2.8146  0.8375 -1.2920
  926SOL    HW2 2778   2.046   0.484   1.330 -0.6787 -1.4296  1.2402
  927SOL     OW 2779   1.981   3.036   1.523 -0.0212 -0.4453  0.0015
  927SOL    HW1 2780   1.992   0.028   1.452 -1.7803 -4.0022 -0.9302
  927SOL    HW2 2781   2.062   2.977   1.520 -1.5652  0.0608  0.5725
  928SOL     OW 2782   0.165   1.130   2.248 -0.2850  0.3163  0.0838
  928SOL    HW1 2783   0.229   1.177   2.180  1.1009 -0.8352 -0.3224
  928SOL    HW2 2784   0.074   1.179   2.256 -1.6845 -2.6805  0.8249
  929SOL     OW 2785   2.378   0.820   1.399 -0.0477 -0.0781 -0.4082
  929SOL    HW1 2786   2.291   0.854   1.440 -0.6163 -2.0667 -0.2838
  929SOL    HW2 2787   2.462   0.863   1.440  2.0881  0.6184 -0.5055
  930SOL     OW 2788   2.610   2.647   2.009  0.1671 -0.5905  0.4241
  930SOL    HW1 2789   2.521   2.641   1.959  0.4429  0.2318 -0.6935
  930SOL    HW2 2790   2.639   2.551   2.033 -0.6746 -2.1497  0.1893
  931SOL     OW 2791   1.735   1.161   1.367  0.2537  0.2932 -0.0219
  931SOL    HW1 2792   1.669   1.145   1.443 -1.1976 -0.0839  2.1231
  931SOL    HW2 2793   1.820   1.197   1.405  0.7631  1.5977  1.3777
  932SOL     OW 2794   0.561   1.200   1.942  0.0964  0.4596  0.2527
  932SOL    HW1 2795   0.575   1.112   1.991  0.1930  2.2560 -0.6317
  932SOL    HW2 2796   0.631   1.198   1.867  2.0223 -0.8655  0.7151
  933SOL     OW 2797   2.676   2.007   1.540  0.6103  0.5833  0.1391
  933SOL    HW1 2798   2.642   1.945   1.463 -0.4313 -0.0753 -0.4649
  933SOL    HW2 2799   2.769   1.976   1.569  1.4767 -0.6376 -2.8958
  934SOL     OW 2800   0.580   2.051   1.898 -0.5893 -0.6703 -0.2349
  934SOL    HW1 2801   0.571   1.993   1.982 -1.9259 -1.3206 -1.2560
  934SOL    HW2 2802   0.575   1.984   1.823  1.6067  0.5290  0.5471
  935SOL     OW 2803   3.005   1.519   1.577 -0.6302 -0.2334  0.3929
  935SOL    HW1 2804   3.016   1.613   1.543 -1.0455 -0.0106 -2.3914
  935SOL    HW2 2805   0.012   1.489   1.624 -1.1293  1.4658 -1.1601
  936SOL     OW 2806   2.905   1.054   1.432  0.4154  0.0420 -0.6574
  936SOL    HW1 2807   2.916   0.980   1.362  0.6284 -1.1417 -1.9058
  936SOL    HW2 2808   2.862   1.024   1.515  2.4451  3.9739 -1.5503
  937SOL     OW 2809   1.878   0.427   1.393  0.0980  0.1483  0.2952
  937SOL    HW1 2810   1.869   0.328   1.372  1.9855  1.3719  1.5754
  937SOL    HW2 2811   1.811   0.480   1.341 -1.3192 -2.4344 -1.3181
  938SOL     OW 2812   0.478   2.792   0.087  0.3948 -0.2095  0.4150
  938SOL    HW1 2813   0.422   2.740   0.158 -0.5411  0.6545 -0.7898
  938SOL    HW2 2814   0.427   2.807   0.001 -1.3163 -2.0742  0.6178
  939SOL     OW 2815   2.832   2.077   2.531  0.0793  0.0965 -0.5291
  939SOL    HW1 2816   2.818   1.974   2.537  0.8653 -1.5652  1.8068
  939SOL    HW2 2817   2.756   2.122   2.586  0.5846 -0.2342  2.0956
  940SOL     OW 2818   1.571   1.807   0.429 -0.0439  0.0874 -0.6566
  940SOL    HW1 2819   1.472   1.797   0.403 -1.0472 -0.7091  1.8575
  940SOL    HW2 2820   1.627   1.734   0.383  3.5144 -0.1224 -1.3744
  941SOL     OW 2821   2.259   2.593   3.063  0.1329  0.1765 -0.3058
  941SOL    HW1 2822   2.262   2.545   0.073  2.0887  1.3112 -0.2091
  941SOL    HW2 2823   2.305   2.680   3.057 -0.6530 -1.8218  0.2259
  942SOL     OW 2824   1.674   2.136   1.025  0.3880 -0.3046  0.4161
  942SOL    HW1 2825   1.623   2.050   1.046 -0.8259  0.1038 -0.7206
  942SOL    HW2 2826   1.718   2.174   1.110 -2.4033 -0.8572  1.6483
  943SOL     OW 2827   2.135   0.945   1.692  0.2234  0.3977 -0.9514
  943SOL    HW1 2828   2.117   0.925   1.592  2.0121 -2.2914 -2.6113
  943SOL    HW2 2829   2.232   0.934   1.709 -1.2410  1.2476 -1.5483
  944SOL     OW 2830   1.453   0.856   2.080  0.4330  0.3803  0.4198
  944SOL    HW1 2831   1.501   0.907   2.152  0.5303 -1.7537 -4.0782
  944SOL    HW2 2832   1.355   0.828   2.107 -0.7791 -0.1791  2.6626
  945SOL     OW 2833   2.399   2.490   1.441 -0.8503  0.2423  0.4960
  945SOL    HW1 2834   2.471   2.437   1.390  0.2763  1.8147 -0.4464
  945SOL    HW2 2835   2.347   2.426   1.497  0.6189 -0.9697  2.1226
  946SOL     OW 2836   0.293   0.896   0.350  0.1887 -0.6416  0.4582
  946SOL    HW1 2837   0.218   0.935   0.408 -1.7809  2.1569  0.4929
  946SOL    HW2 2838   0.347   0.835   0.408 -1.9041 -0.8513  2.2341
  947SOL     OW 2839   1.848   2.527   1.310 -0.2675  1.0129 -0.1008
  947SOL    HW1 2840   1.825   2.575   1.397  0.3094 -0.2452  1.0184
  947SOL    HW2 2841   1.950   2.512   1.306 -0.0974  0.7644  2.0971
  948SOL     OW 2842   0.431   1.648   1.071  0.4218  0.4939 -0.8632
  948SOL    HW1 2843   0.393   1.553   1.081 -2.5707  0.6970 -2.7993
  948SOL    HW2 2844   0.532   1.651   1.055 -1.0281 -1.7700  0.2119
  949SOL     OW 2845   1.124   1.313   1.119 -0.3875 -0.0145  0.0205
  949SOL    HW1 2846   1.099   1.362   1.032 -0.8694  3.1884 -0.0177
  949SOL    HW2 2847   1.211   1.265   1.107 -0.0310 -0.1837  1.5002
  950SOL     OW 2848   0.367   0.731   1.222 -0.1044 -0.3584  0.4005
  950SOL    HW1 2849   0.403   0.726   1.127  2.3315 -3.2707  0.2915
  950SOL    HW2 2850   0.326   0.821   1.249 -0.9226 -0.2246  0.7764
  951SOL     OW 2851   0.787   2.014   2.314 -0.2867  0.7824  0.2676
  951SOL    HW1 2852   0.777   2.073   2.225  2.0350  0.7648 -2.4380
  951SOL    HW2 2853   0.765   2.070   2.398 -0.0052  0.3479 -0.3832
  952SOL     OW 2854   1.314   1.499   0.093  0.3698  0.5760  0.3777
  952SOL    HW1 2855   1.396   1.560   0.094  3.5236 -1.0791 -2.0456
  952SOL    HW2 2856   1.228   1.552   0.092  1.1696 -0.3826  0.8426
  953SOL     OW 2857   1.068   3.037   3.012  0.4798  0.5146  0.4724
  953SOL    HW1 2858   1.101   3.030   0.028  1.3096 -2.5757 -1.6408
  953SOL    HW2 2859   1.045   0.051   2.977  2.9557 -0.4882 -0.0660
  954SOL     OW 2860   1.847   1.263   0.193 -0.5101 -0.0098 -0.1483
  954SOL    HW1 2861   1.806   1.165   0.201 -0.5972 -2.5412 -1.0967
  954SOL    HW2 2862   1.941   1.251   0.218 -0.9551  0.1430  2.1831
  955SOL     OW 2863   0.129   2.702   2.968 -0.3283  0.3392  0.3093
  955SOL    HW1 2864   0.214   2.744   2.993 -0.4366 -2.2163  0.7285
  955SOL    HW2 2865   0.154   2.616   2.917  2.4464 -2.5143 -1.5820
  956SOL     OW 2866   1.237   0.575   1.277 -0.0789 -0.2542 -0.2359
  956SOL    HW1 2867   1.232   0.677   1.300  0.7601  1.8417  1.5821
  956SOL    HW2 2868   1.302   0.530   1.343 -0.7445  0.5197 -1.2843
  957SOL     OW 2869   1.092   1.466   1.369  0.2050 -0.0887  0.1016
  957SOL    HW1 2870   1.041   1.555   1.365 -1.9966  1.5422  0.9316
  957SOL    HW2 2871   1.080   1.418   1.280 -0.2542 -0.6826  0.2173
  958SOL     OW 2872   0.415   1.804   0.835  0.1504 -0.1160  0.0321
  958SOL    HW1 2873   0.442   1.754   0.921 -0.8052 -0.6053  0.7941
  958SOL    HW2 2874   0.412   1.743   0.754 -1.4613  0.2208 -3.5423
  959SOL     OW 2875   1.379   1.194   1.140  0.4043 -0.3924 -0.4156
  959SOL    HW1 2876   1.441   1.219   1.060  0.5332 -1.7153  0.0902
  959SOL    HW2 2877   1.399   1.255   1.220  0.3935 -0.2133 -1.1407
  960SOL     OW 2878   0.059   1.169   3.043 -0.0872 -0.4432  0.7080
  960SOL    HW1 2879   0.132   1.205   2.985  0.5174 -0.9298  2.2814
  960SOL    HW2 2880   0.101   1.093   0.016  0.9181 -0.8195 -2.3530
  961SOL     OW 2881   0.873   1.607   1.089  0.1116 -0.3567 -0.2612
  961SOL    HW1 2882   0.797   1.611   1.027  1.7045  0.0286  2.1255
  961SOL    HW2 2883   0.958   1.591   1.032  1.2811  2.7007  1.1678
  962SOL     OW 2884   0.855   1.169   0.628 -0.0371  0.5162  0.1585
  962SOL    HW1 2885   0.781   1.239   0.625  0.0952 -1.7353 -1.4981
  962SOL    HW2 2886   0.886   1.150   0.720  0.7965 -1.1759 -0.6331
  963SOL     OW 2887   1.348   1.622   2.558 -0.4214 -0.3911 -0.3296
  963SOL    HW1 2888   1.406   1.692   2.513  0.2457  1.4225  1.9380
  963SOL    HW2 2889   1.376   1.604   2.652  2.0595 -0.3421 -0.0376
  964SOL     OW 2890   0.712   2.612   2.681 -0.3932 -0.2852  0.1282
  964SOL    HW1 2891   0.701   2.525   2.625  0.8892  0.2327  2.0406
  964SOL    HW2 2892   0.731   2.586   2.780 -0.9160 -0.3998  1.9617
  965SOL     OW 2893   0.545   2.333   0.114  0.2987  0.2084  0.1757
  965SOL    HW1 2894   0.585   2.428   0.117  0.8645 -3.5378 -0.2711
  965SOL    HW2 2895   0.478   2.322   0.037  1.9769 -0.3527  0.4725
  966SOL     OW 2896   2.893   1.651   2.791  0.2911 -0.1627 -0.5915
  966SOL    HW1 2897   2.819   1.583   2.765 -1.4185  2.1724 -1.1709
  966SOL    HW2 2898   2.847   1.736   2.827 -1.1564  3.1564  3.0862
  967SOL     OW 2899   2.368   3.031   2.732 -0.1639 -0.3243 -0.1657
  967SOL    HW1 2900   2.312   2.993   2.651 -0.2309  0.1761  0.0040
  967SOL    HW2 2901   2.304   3.039   2.814  2.8614  0.5884  3.0544
  968SOL     OW 2902   2.138   0.177   0.509  0.5563 -0.0785  0.2136
  968SOL    HW1 2903   2.132   0.138   0.412 -1.1684 -0.5133 -1.2331
  968SOL    HW2 2904   2.232   0.205   0.524 -3.0832  0.7172 -2.7737
  969SOL     OW 2905   0.331   1.253   2.077  0.5074 -0.0213  0.1888
  969SOL    HW1 2906   0.406   1.227   2.017 -0.5206 -0.2553  1.3201
  969SOL    HW2 2907   0.370   1.278   2.169  0.1089 -0.7900 -0.9373
  970SOL     OW 2908   1.503   1.288   0.920 -0.7416 -0.3391 -0.2133
  970SOL    HW1 2909   1.604   1.276   0.914  0.4314 -0.0165 -1.0062
  970SOL    HW2 2910   1.459   1.251   0.839 -0.8615  0.6136 -1.2663
  971SOL     OW 2911   2.258   0.165   1.093  0.2420  0.5690  0.4060
  971SOL    HW1 2912   2.346   0.184   1.142 -1.9796 -0.4857  0.2639
  971SOL    HW2 2913   2.244   0.228   1.018 -1.2161 -3.5166  0.4753
  972SOL     OW 2914   0.379   2.820   1.517 -0.7038 -0.3197 -0.7003
  972SOL    HW1 2915   0.344   2.801   1.426 -0.5816  1.5593  2.3595
  972SOL    HW2 2916   0.440   2.906   1.523  2.9865  0.9317 -1.8905
  973SOL     OW 2917   0.408   0.384   2.878  0.0350  0.3312 -0.3405
  973SOL    HW1 2918   0.444   0.443   2.801  0.7593 -0.7628 -1.3898
  973SOL    HW2 2919   0.359   0.303   2.845 -3.9353  1.1634  1.6250
  974SOL     OW 2920   2.153   1.400   1.829 -0.2904 -0.4147 -0.1240
  974SOL    HW1 2921   2.106   1.311   1.795  0.3930  0.5112 -1.3159
  974SOL    HW2 2922   2.194   1.381   1.921  2.4513  0.2183  2.9549
  975SOL     OW 2923   3.063   0.031   1.257 -0.0697  0.2241  0.1189
  975SOL    HW1 2924   3.023   3.029   1.301 -1.1186 -0.1982  0.3238
  975SOL    HW2 2925   0.030   0.023   1.165 -1.9281 -2.7890 -0.5439
  976SOL     OW 2926   1.004   1.841   2.346  0.2646  0.5869 -0.2504
  976SOL    HW1 2927   1.021   1.766   2.415  0.7524 -1.1795 -2.4378
  976SOL    HW2 2928   0.922   1.903   2.363 -1.8867  0.1596 -0.7967
  977SOL     OW 2929   0.743   2.217   0.438  0.6399  0.6667 -0.7275
  977SOL    HW1 2930   0.784   2.251   0.354 -0.1542 -0.3658 -0.4391
  977SOL    HW2 2931   0.797   2.139   0.481  3.0178  1.9096  0.8479
  978SOL     OW 2932   3.002   1.244   2.259  0.6416  0.1840  0.1247
  978SOL    HW1 2933   2.962   1.208   2.171  2.5394  0.5281  0.7497
  978SOL    HW2 2934   3.014   1.346   2.250 -0.6098 -2.1202 -2.2124
  979SOL     OW 2935   1.556   2.925   1.399 -0.1275  0.0616  0.1275
  979SOL    HW1 2936   1.609   2.913   1.309  1.7509  0.3682 -1.5923
  979SOL    HW2 2937   1.473   2.865   1.396 -3.3877  0.9814  1.5391
  980SOL     OW 2938   1.347   1.409   2.385  0.0723  0.1222 -0.1195
  980SOL    HW1 2939   1.270   1.343   2.400  1.5644  1.8328  2.0170
  980SOL    HW2 2940   1.328   1.490   2.443  0.4789 -0.4226 -1.2243
  981SOL     OW 2941   2.384   0.230   1.791  0.3046 -0.5765  0.6391
  981SOL    HW1 2942   2.306   0.298   1.780 -0.9033  1.8506 -1.2608
  981SOL    HW2 2943   2.353   0.162   1.859 -0.3486 -0.0473 -2.1453
  982SOL     OW 2944   0.059   0.492   2.895  0.6929  0.0051 -0.2361
  982SOL    HW1 2945   0.062   0.457   2.801  1.3498  2.1238 -1.5118
  982SOL    HW2 2946   0.089   0.419   2.961 -0.8584 -0.8169 -0.1434
  983SOL     OW 2947   2.421   0.846   2.521  0.2122 -0.2502  0.3371
  983SOL    HW1 2948   2.322   0.842   2.499  3.1623 -1.2621  0.2345
  983SOL    HW2 2949   2.470   0.755   2.516 -2.8579 -0.8069  2.5592
  984SOL     OW 2950   0.944   3.077   2.024  0.7731 -0.1954  0.3556
  984SOL    HW1 2951   1.020   3.078   2.089 -2.6785 -1.5858 -0.2851
  984SOL    HW2 2952   0.865   3.017   2.059 -2.8801 -0.5738 -0.0316
  985SOL     OW 2953   2.011   1.508   1.429  0.3090 -0.4180  0.3592
  985SOL    HW1 2954   1.995   1.409   1.433  0.0475  1.7658 -0.4750
  985SOL    HW2 2955   2.113   1.526   1.422 -0.0818 -0.7807 -1.0476
  986SOL     OW 2956   2.442   0.654   1.696 -0.2798  0.1879 -0.3290
  986SOL    HW1 2957   2.541   0.638   1.671  1.7482 -0.2072 -1.9852
  986SOL    HW2 2958   2.426   0.756   1.720  0.8361 -1.8019  3.7547
  987SOL     OW 2959   2.897   0.867   1.219 -0.9576 -0.4315 -0.6386
  987SOL    HW1 2960   2.959   0.802   1.267 -0.4218  0.5642 -1.6111
  987SOL    HW2 2961   2.804   0.844   1.220  0.0070  0.8145  3.0316
  988SOL     OW 2962   0.348   0.907   1.979  0.3124  0.1854 -0.0159
  988SOL    HW1 2963   0.330   0.962   1.897  1.5833  0.0630 -0.0547
  988SOL    HW2 2964   0.371   0.809   1.956 -0.3920 -2.2961  0.1390
  989SOL     OW 2965   2.062   1.569   0.431 -0.5659  0.2984  0.0965
  989SOL    HW1 2966   2.045   1.584   0.534 -0.8525 -0.4438  1.4603
  989SOL    HW2 2967   1.973   1.592   0.374 -2.2970  1.6527 -2.1079
  990SOL     OW 2968   0.983   0.575   2.249 -0.5675  0.1988 -0.2870
  990SOL    HW1 2969   0.960   0.510   2.179  0.2947 -0.6488 -0.8306
  990SOL    HW2 2970   1.048   0.530   2.313 -2.3804  2.6588  0.1810
  991SOL     OW 2971   1.400   1.156   0.651  0.2989  0.7817  0.6014
  991SOL    HW1 2972   1.349   1.081   0.696 -0.5776  2.1890  0.0790
  991SOL    HW2 2973   1.339   1.206   0.587 -3.0155  3.2683  0.4202
  992SOL     OW 2974   2.079   0.974   0.406 -0.1219 -0.0707 -0.6036
  992SOL    HW1 2975   2.156   1.031   0.446 -0.4748  2.0649  2.4549
  992SOL    HW2 2976   1.989   1.003   0.447 -0.6637 -1.4244  1.1241
  993SOL     OW 2977   3.057   0.771   0.643  0.5384 -0.1535  0.2836
  993SOL    HW1 2978   3.056   0.767   0.746  1.7770  0.3576  0.6534
  993SOL    HW2 2979   0.010   0.682   0.603 -0.4972  1.0986 -1.3439
  994SOL     OW 2980   0.018   2.161   2.492 -0.3809 -0.1727  0.0413
  994SOL    HW1 2981   3.000   2.150   2.471  1.2546 -0.2455 -0.2580
  994SOL    HW2 2982   0.050   2.085   2.551 -2.1074 -0.3131  1.3841
  995SOL     OW 2983   1.880   1.288   2.787 -0.6971  0.8251  0.0721
  995SOL    HW1 2984   1.835   1.209   2.735 -0.4500  1.1985  0.3992
  995SOL    HW2 2985   1.828   1.303   2.873 -0.1404 -0.4989  0.0397
  996SOL     OW 2986   2.544   1.177   0.336  0.9181 -0.6058 -0.3899
  996SOL    HW1 2987   2.518   1.264   0.286 -0.4828 -0.5614 -0.7949
  996SOL    HW2 2988   2.570   1.104   0.264 -0.4693  1.7594 -0.5237
  997SOL     OW 2989   2.004   1.186   1.741  0.7271 -0.2553 -0.4405
  997SOL    HW1 2990   2.051   1.099   1.730  2.1849  1.4080  0.6848
  997SOL    HW2 2991   1.961   1.208   1.831  0.2358  2.3539  2.4535
  998SOL     OW 2992   2.468   1.826   0.547  0.3405 -0.0628  0.1854
  998SOL    HW1 2993   2.387   1.834   0.486 -0.1260  2.9360 -1.3555
  998SOL    HW2 2994   2.522   1.742   0.538 -1.9125  2.1391  1.8273
  999SOL     OW 2995   2.886   2.344   0.051 -0.2427 -0.1477 -0.2761
  999SOL    HW1 2996   2.833   2.331   0.134  1.8721  2.3920 -0.9865
  999SOL    HW2 2997   2.872   2.439   0.012  0.8993  2.0963 -1.3641
 1000SOL     OW 2998   1.119   0.954   2.111 -0.3714  0.3164  0.0916
 1000SOL    HW1 2999   1.140   0.854   2.105 -3.3281  0.9059  1.5405
 1000SOL    HW2 3000   1.143   1.001   2.026 -4.6876  1.9744  0.5090
   3.07917   3.07917   3.07917
