1000 SPC/Fw water molecules t=  91.00000 step= 91000
 3000
    1SOL     OW    1   1.977   2.652   0.550  0.0075 -0.0195  0.5802
    1SOL    HW1    2   2.054   2.642   0.483  4.1243  1.5855  0.9656
    1SOL    HW2    3   2.007   2.667   0.644  2.1189  0.2962 -3.3376
    2SOL     OW    4   1.094   1.185   2.057 -0.2311  0.0758  0.2347
    2SOL    HW1    5   1.153   1.121   2.002 -0.8240 -1.0131  1.5051
    2SOL    HW2    6   1.134   1.226   2.141 -3.4406  0.7151 -1.2025
    3SOL     OW    7   1.496   2.528   2.420 -0.8598 -0.2564  0.2650
    3SOL    HW1    8   1.535   2.455   2.474  0.2177  0.2668  2.1028
    3SOL    HW2    9   1.474   2.494   2.325 -0.4751 -1.0267 -0.7320
    4SOL     OW   10   1.243   1.849   2.491  0.2283  0.8472  0.6048
    4SOL    HW1   11   1.317   1.776   2.508 -1.9567 -2.4661 -0.4818
    4SOL    HW2   12   1.289   1.941   2.473  1.2525 -2.0299 -1.2709
    5SOL     OW   13   0.622   0.846   1.766 -0.3643 -0.0988 -0.1499
    5SOL    HW1   14   0.614   0.901   1.851  0.0267 -2.5802  0.4197
    5SOL    HW2   15   0.672   0.897   1.693  2.1664  2.6320 -0.4794
    6SOL     OW   16   1.872   0.714   2.712  0.1531  0.5866 -0.0180
    6SOL    HW1   17   1.862   0.797   2.657 -1.1002 -1.2634 -1.7381
    6SOL    HW2   18   1.951   0.707   2.773 -0.2850 -0.7229 -2.0208
    7SOL     OW   19   0.446   0.437   1.693  0.2039 -0.0371  0.0672
    7SOL    HW1   20   0.411   0.534   1.703  0.3425  1.2784  0.0083
    7SOL    HW2   21   0.370   0.372   1.721 -1.9349  0.3047 -0.1648
    8SOL     OW   22   1.664   0.091   1.814  0.0515  0.0587 -0.3052
    8SOL    HW1   23   1.735   0.153   1.776  2.5963 -0.0318 -0.0708
    8SOL    HW2   24   1.676   3.068   1.783  2.0958  1.4545  0.5444
    9SOL     OW   25   0.279   0.335   0.524 -0.3487  0.1071  0.0172
    9SOL    HW1   26   0.321   0.273   0.591 -0.1952 -0.2565 -2.5298
    9SOL    HW2   27   0.271   0.425   0.569 -0.7616 -0.5838 -1.1560
   10SOL     OW   28   0.564   1.959   2.310  0.5300  0.1005 -0.4048
   10SOL    HW1   29   0.563   2.019   2.225 -1.4264  1.0988  0.3724
   10SOL    HW2   30   0.621   2.003   2.383 -0.4085  0.2567  0.7212
   11SOL     OW   31   0.675   1.617   0.188 -0.2107  0.1546 -0.2476
   11SOL    HW1   32   0.733   1.649   0.105  1.3545 -0.4283 -2.3670
   11SOL    HW2   33   0.715   1.525   0.220 -1.0269 -1.9670  0.6940
   12SOL     OW   34   3.027   2.886   1.404 -0.0607 -0.0011 -0.5466
   12SOL    HW1   35   3.031   2.935   1.317 -0.6314  0.0001 -0.4233
   12SOL    HW2   36   0.023   2.812   1.397  2.8353 -0.2001 -0.6970
   13SOL     OW   37   0.906   2.975   0.513 -0.1973  0.4437 -0.0216
   13SOL    HW1   38   0.891   2.937   0.420  2.5699  1.1124  0.1046
   13SOL    HW2   39   0.892   0.002   0.515 -0.1026 -0.6060  1.7974
   14SOL     OW   40   1.556   1.560   0.930  0.3840  0.6391 -0.0553
   14SOL    HW1   41   1.495   1.580   1.011  2.0485 -1.0917  0.5222
   14SOL    HW2   42   1.654   1.552   0.968 -1.0621  1.6609 -1.2504
   15SOL     OW   43   2.871   1.530   2.461  0.2869 -0.6070 -0.3340
   15SOL    HW1   44   2.830   1.477   2.535  1.1273  1.3241 -0.3126
   15SOL    HW2   45   2.906   1.620   2.497 -2.7143 -0.2856  0.6904
   16SOL     OW   46   1.279   0.420   2.541  0.5109 -0.0792 -0.3164
   16SOL    HW1   47   1.217   0.358   2.595 -0.0717 -1.3447 -0.1594
   16SOL    HW2   48   1.354   0.456   2.600 -2.2869 -1.7880 -2.1261
   17SOL     OW   49   0.157   2.272   2.249 -0.0853 -0.5524 -0.0110
   17SOL    HW1   50   0.197   2.188   2.286 -0.9101 -0.1290 -0.7841
   17SOL    HW2   51   0.070   2.256   2.196 -0.5086  0.0298  0.7987
   18SOL     OW   52   1.137   1.349   0.647  0.0415  0.6491  0.0998
   18SOL    HW1   53   1.124   1.443   0.684  0.0199 -1.1910  0.8681
   18SOL    HW2   54   1.188   1.286   0.707  1.2382  0.4590  1.1592
   19SOL     OW   55   2.559   1.362   2.519  0.6780 -0.1035  0.0010
   19SOL    HW1   56   2.625   1.396   2.584 -1.2604 -3.3371 -3.2233
   19SOL    HW2   57   2.471   1.420   2.521  0.3269  2.4294 -1.3864
   20SOL     OW   58   2.362   2.119   2.410 -0.2497 -0.1440 -0.5900
   20SOL    HW1   59   2.372   2.096   2.313 -0.0494  0.2380 -2.3325
   20SOL    HW2   60   2.422   2.193   2.437  0.3764  1.9989 -1.4465
   21SOL     OW   61   0.948   2.171   0.158  0.5606  0.1676  0.5612
   21SOL    HW1   62   1.000   2.105   0.111  0.7689  3.6244  2.6100
   21SOL    HW2   63   0.969   2.184   0.260 -1.3354 -0.5623  0.3644
   22SOL     OW   64   2.244   2.178   1.361  0.0324  0.4939 -0.6259
   22SOL    HW1   65   2.248   2.278   1.340 -0.3230 -3.1514  0.2731
   22SOL    HW2   66   2.157   2.136   1.325 -0.6123 -2.1744 -0.2268
   23SOL     OW   67   0.305   1.065   1.246 -0.0034  0.2587 -0.1349
   23SOL    HW1   68   0.225   1.132   1.257 -2.4988  1.2163 -0.2428
   23SOL    HW2   69   0.316   1.019   1.338 -1.6430 -1.5150 -1.0324
   24SOL     OW   70   2.040   1.612   2.217 -0.2458  0.2554  0.3198
   24SOL    HW1   71   2.001   1.566   2.292  1.6830 -0.6610 -2.0409
   24SOL    HW2   72   2.142   1.613   2.232 -1.7244 -1.8804 -2.8568
   25SOL     OW   73   2.032   0.446   2.252  0.5110 -0.1175  0.5522
   25SOL    HW1   74   2.101   0.421   2.180  2.8313  0.0193  0.3498
   25SOL    HW2   75   1.991   0.355   2.276 -1.0738  0.1472  0.8877
   26SOL     OW   76   1.296   0.290   0.403  0.2731  0.0548  0.2946
   26SOL    HW1   77   1.313   0.345   0.324  0.5216 -2.1320  0.5082
   26SOL    HW2   78   1.310   0.348   0.483 -0.7880 -2.6602 -0.6859
   27SOL     OW   79   0.888   1.653   0.555  0.1588  0.0590  0.3757
   27SOL    HW1   80   0.832   1.731   0.514  0.0000 -2.3136  1.0122
   27SOL    HW2   81   0.834   1.575   0.588  2.8989 -2.3254 -1.6609
   28SOL     OW   82   2.515   1.821   1.036 -0.0266  0.3557 -0.0528
   28SOL    HW1   83   2.571   1.789   1.112 -2.7358  1.9453 -3.3774
   28SOL    HW2   84   2.424   1.857   1.063 -1.1928 -1.3055 -1.5422
   29SOL     OW   85   2.194   2.966   1.618 -0.2649  0.3720 -0.6494
   29SOL    HW1   86   2.093   2.973   1.628 -1.9419 -0.5345 -0.4203
   29SOL    HW2   87   2.230   2.882   1.660  0.1882 -0.7149 -0.4867
   30SOL     OW   88   0.801   0.057   1.383 -0.3998  0.4951 -0.3223
   30SOL    HW1   89   0.872   3.062   1.413  0.9333  0.1869 -1.4238
   30SOL    HW2   90   0.834   0.154   1.394  1.7806 -0.6754  0.4678
   31SOL     OW   91   2.940   2.036   1.774 -0.0624 -0.3769  0.0046
   31SOL    HW1   92   2.974   1.952   1.814  0.5561  0.9994 -4.1932
   31SOL    HW2   93   2.997   2.117   1.793 -1.3127 -1.6809 -0.6745
   32SOL     OW   94   1.545   1.476   1.800  0.7348  0.1256 -0.2184
   32SOL    HW1   95   1.462   1.511   1.759 -1.8628 -0.5872 -0.5426
   32SOL    HW2   96   1.621   1.541   1.793  1.6334  0.2258  1.4065
   33SOL     OW   97   0.375   0.227   3.044 -0.1390 -0.1398 -0.3795
   33SOL    HW1   98   0.441   0.298   3.022 -1.0904 -0.2698  1.0386
   33SOL    HW2   99   0.426   0.146   0.007  1.7897 -0.8852 -3.0926
   34SOL     OW  100   2.331   0.051   0.657 -0.3947 -0.2960 -0.5196
   34SOL    HW1  101   2.272   3.052   0.638  2.7775  2.4318  0.8487
   34SOL    HW2  102   2.388   0.031   0.737 -0.1861  1.3791 -0.8899
   35SOL     OW  103   2.662   0.128   1.457  0.2083 -0.4680 -0.4209
   35SOL    HW1  104   2.611   0.038   1.466  2.0023  3.0384  1.7983
   35SOL    HW2  105   2.758   0.115   1.436  1.7710  0.7134  0.2556
   36SOL     OW  106   2.735   2.602   2.617 -0.3229 -0.3333 -0.5007
   36SOL    HW1  107   2.677   2.685   2.609  2.2797  1.1436 -1.4875
   36SOL    HW2  108   2.826   2.623   2.575 -0.1790  0.9754  0.3209
   37SOL     OW  109   1.409   2.544   3.000  0.5630 -0.3430 -0.3207
   37SOL    HW1  110   1.427   2.632   2.954 -1.4752 -0.1636 -0.6821
   37SOL    HW2  111   1.320   2.550   3.055  1.4047 -0.4478 -0.9697
   38SOL     OW  112   2.708   0.874   2.798  0.1815 -0.6503  0.6921
   38SOL    HW1  113   2.787   0.887   2.864  0.3130  2.0371  1.8656
   38SOL    HW2  114   2.631   0.838   2.855  0.0419 -1.9027 -1.8062
   39SOL     OW  115   2.158   1.974   1.996 -0.6734 -0.0950 -0.1186
   39SOL    HW1  116   2.081   1.909   2.004  0.4625  1.6840 -0.4209
   39SOL    HW2  117   2.121   2.074   2.005  0.0905  2.7968 -0.6176
   40SOL     OW  118   0.294   0.254   2.562  0.1370 -0.3030  0.3849
   40SOL    HW1  119   0.262   0.244   2.658  0.9851 -2.2502 -1.8171
   40SOL    HW2  120   0.396   0.276   2.557 -1.1211 -0.9510  0.3300
   41SOL     OW  121   1.633   1.252   1.414  0.1373 -0.6939  0.1070
   41SOL    HW1  122   1.595   1.172   1.464  0.6369  0.9470  2.4957
   41SOL    HW2  123   1.696   1.298   1.478  1.8112  1.3529  0.2720
   42SOL     OW  124   0.225   0.315   1.801  0.3567  0.3788  0.4135
   42SOL    HW1  125   0.162   0.393   1.813  1.5102 -0.9237  0.8810
   42SOL    HW2  126   0.230   0.257   1.886  0.9922 -1.9625 -2.7502
   43SOL     OW  127   1.452   1.330   2.008 -0.3451  0.3968 -0.0486
   43SOL    HW1  128   1.545   1.298   2.043  1.1829 -0.2864 -1.1057
   43SOL    HW2  129   1.478   1.394   1.934 -2.1646 -1.0308  0.9395
   44SOL     OW  130   3.033   0.099   0.007  0.2873 -0.3015 -0.0376
   44SOL    HW1  131   3.037   0.073   2.980 -1.4726 -0.5659 -0.1140
   44SOL    HW2  132   3.047   0.200   0.012 -2.1367  2.8260 -2.3841
   45SOL     OW  133   0.429   2.110   1.109 -0.3440  0.1871 -0.2848
   45SOL    HW1  134   0.517   2.142   1.151 -0.7548 -0.3524 -1.9852
   45SOL    HW2  135   0.444   2.008   1.088  2.3571 -0.3592  0.2640
   46SOL     OW  136   2.330   2.748   1.756 -0.6251  0.0510 -0.0971
   46SOL    HW1  137   2.396   2.822   1.782  2.8289 -1.5650  0.6541
   46SOL    HW2  138   2.392   2.673   1.720  0.3340  0.0801  0.4253
   47SOL     OW  139   0.961   1.743   1.251  0.2779 -0.2582  0.0044
   47SOL    HW1  140   0.950   1.656   1.302  0.9842  0.0703 -1.3455
   47SOL    HW2  141   0.874   1.794   1.262 -0.8718 -1.8343  1.7333
   48SOL     OW  142   0.486   2.638   0.304 -0.2780  0.0428 -0.0408
   48SOL    HW1  143   0.494   2.589   0.395  1.6287 -0.6671 -0.1659
   48SOL    HW2  144   0.419   2.720   0.314 -2.4551  3.7039  0.0826
   49SOL     OW  145   2.944   1.570   1.920  0.5472 -0.2846 -0.3824
   49SOL    HW1  146   2.935   1.565   2.022  0.7402  0.0686 -2.2328
   49SOL    HW2  147   2.856   1.530   1.876 -1.1696 -3.4334 -2.6132
   50SOL     OW  148   1.882   0.978   0.709 -0.4471 -0.5062 -0.2403
   50SOL    HW1  149   1.882   0.896   0.647 -0.8245  1.2957  0.4148
   50SOL    HW2  150   1.902   0.954   0.804 -1.0135  0.6338 -1.6236
   51SOL     OW  151   1.113   0.658   0.959 -0.1886  0.3785  0.6228
   51SOL    HW1  152   1.068   0.647   1.051  1.1682  1.5359 -1.1962
   51SOL    HW2  153   1.047   0.668   0.886  2.2015 -1.6341  1.2965
   52SOL     OW  154   1.011   1.509   0.322 -0.8305 -0.2659 -0.1905
   52SOL    HW1  155   1.062   1.418   0.329  2.4946 -2.0674 -1.1764
   52SOL    HW2  156   0.954   1.521   0.403 -0.1011 -1.3138 -1.9114
   53SOL     OW  157   1.075   2.577   2.627  0.1450  0.6834  0.1228
   53SOL    HW1  158   1.074   2.476   2.617 -1.2633 -1.2340  0.2762
   53SOL    HW2  159   1.172   2.609   2.615 -0.3750 -0.8600  1.7518
   54SOL     OW  160   1.547   0.663   1.600  0.6680 -0.1226  1.1815
   54SOL    HW1  161   1.511   0.610   1.678 -0.3406  0.6691  0.7698
   54SOL    HW2  162   1.467   0.702   1.547 -1.1397  1.0086 -1.2655
   55SOL     OW  163   2.778   2.529   0.080  0.0348  0.1634  0.3629
   55SOL    HW1  164   2.818   2.610   0.130  0.9030  0.6244  0.8025
   55SOL    HW2  165   2.807   2.536   3.054 -0.2435 -1.3032  0.2679
   56SOL     OW  166   0.874   2.330   1.735  0.3469 -0.3630 -0.3014
   56SOL    HW1  167   0.779   2.298   1.717  0.5200  0.8004  2.4264
   56SOL    HW2  168   0.875   2.430   1.727 -4.3833 -0.6680  0.8708
   57SOL     OW  169   1.888   0.888   2.355  0.2425 -0.2473  0.3968
   57SOL    HW1  170   1.874   0.794   2.321  0.9105 -2.7203  1.5611
   57SOL    HW2  171   1.806   0.943   2.341  1.6821 -1.7811  0.8144
   58SOL     OW  172   0.127   1.130   1.905 -0.2093 -0.0748  0.0300
   58SOL    HW1  173   0.154   1.090   1.815  0.2518  2.2423  0.0738
   58SOL    HW2  174   0.117   1.233   1.897 -0.3964  1.0711 -1.2985
   59SOL     OW  175   0.481   2.801   2.215  0.0370  0.1495  0.6230
   59SOL    HW1  176   0.565   2.826   2.158  1.2602  1.4020 -2.2987
   59SOL    HW2  177   0.487   2.724   2.280  0.3911  0.1522 -0.0398
   60SOL     OW  178   2.783   2.406   0.334  0.2522  0.0323  0.1368
   60SOL    HW1  179   2.847   2.325   0.325  1.5463 -6.2525 -1.4962
   60SOL    HW2  180   2.786   2.456   0.242  0.9054  1.2858 -2.9304
   61SOL     OW  181   0.741   2.790   0.658 -0.7247  0.4783 -0.1166
   61SOL    HW1  182   0.767   2.756   0.562 -1.4271  0.4690 -2.2140
   61SOL    HW2  183   0.785   2.877   0.663 -0.7049 -1.8182  1.5875
   62SOL     OW  184   1.836   2.601   2.584 -0.2300 -0.1883  0.3137
   62SOL    HW1  185   1.798   2.547   2.508 -1.0787 -0.8512 -1.0302
   62SOL    HW2  186   1.908   2.657   2.537  2.0173  0.6845 -3.3503
   63SOL     OW  187   1.893   0.381   0.074  0.1726  0.3805 -0.0308
   63SOL    HW1  188   1.942   0.291   0.085  1.5760  0.2839  0.1971
   63SOL    HW2  189   1.845   0.414   0.156 -1.9959  3.1033  1.1204
   64SOL     OW  190   0.929   1.259   2.641 -0.9049  0.0465 -0.1001
   64SOL    HW1  191   0.981   1.219   2.568 -4.0680 -1.0844 -0.4454
   64SOL    HW2  192   0.852   1.197   2.664 -1.9228  3.9510 -1.1707
   65SOL     OW  193   1.337   2.983   1.006  0.2883 -0.7750 -0.0418
   65SOL    HW1  194   1.428   2.949   1.041 -0.0995 -2.4546  0.1131
   65SOL    HW2  195   1.350   3.064   0.943 -2.0374  0.0661 -1.0655
   66SOL     OW  196   0.499   1.591   1.747 -0.2738  0.0809  0.3138
   66SOL    HW1  197   0.588   1.597   1.697 -1.1143  0.6763  0.8194
   66SOL    HW2  198   0.505   1.655   1.821 -2.3081 -0.7914 -1.0793
   67SOL     OW  199   2.338   2.885   2.165  0.1483 -0.2947 -0.5150
   67SOL    HW1  200   2.410   2.816   2.183 -1.0193  1.9854  0.2318
   67SOL    HW2  201   2.382   2.973   2.144  0.0280  1.4209  3.0816
   68SOL     OW  202   0.765   0.984   1.593 -0.1707  0.0015  0.1107
   68SOL    HW1  203   0.804   1.059   1.540 -1.1933 -0.9244  1.1973
   68SOL    HW2  204   0.748   0.918   1.522 -0.3159  2.0124  1.8621
   69SOL     OW  205   2.315   2.516   0.131 -0.2303  0.3968 -0.1931
   69SOL    HW1  206   2.316   2.553   0.226  3.4375 -0.1204 -0.2488
   69SOL    HW2  207   2.403   2.464   0.116 -1.6613 -0.5425 -2.2652
   70SOL     OW  208   2.357   0.600   2.824 -0.1292 -0.5232  0.0601
   70SOL    HW1  209   2.420   0.619   2.744  0.3916 -0.9898  1.0755
   70SOL    HW2  210   2.404   0.537   2.890 -0.2735 -0.9772  2.3619
   71SOL     OW  211   2.930   2.185   0.318 -0.3685 -0.1016  0.2762
   71SOL    HW1  212   2.936   2.094   0.364 -0.4214 -2.5188  0.7521
   71SOL    HW2  213   2.879   2.177   0.226 -0.1904 -1.9769  0.8978
   72SOL     OW  214   3.014   1.809   0.339  0.6176 -0.2355  0.4526
   72SOL    HW1  215   0.025   1.826   0.397 -0.2806 -0.0201  1.3254
   72SOL    HW2  216   3.004   1.715   0.313 -1.0689  1.6937  0.9093
   73SOL     OW  217   0.982   0.844   0.560  0.1856  0.1122  0.5765
   73SOL    HW1  218   0.904   0.809   0.499  0.8880  2.9191 -2.4897
   73SOL    HW2  219   0.946   0.918   0.624 -3.5454 -0.4449 -0.3221
   74SOL     OW  220   0.204   1.772   2.087  0.5336  0.1702 -0.3601
   74SOL    HW1  221   0.163   1.760   2.176 -0.6311  1.2100 -0.6150
   74SOL    HW2  222   0.280   1.836   2.091  1.7526  0.3943 -3.0186
   75SOL     OW  223   1.689   1.659   1.415 -0.2487  0.2939  0.1552
   75SOL    HW1  224   1.708   1.665   1.517  0.1172 -1.1842 -0.4967
   75SOL    HW2  225   1.611   1.589   1.410  1.1470 -0.6004  0.7007
   76SOL     OW  226   1.571   2.279   0.961 -0.5346 -0.4824 -0.3830
   76SOL    HW1  227   1.575   2.178   0.938  1.4317  0.1847 -0.3294
   76SOL    HW2  228   1.504   2.298   1.036  3.0262 -1.8424 -0.6856
   77SOL     OW  229   2.492   1.547   1.980 -0.3783  0.2706 -0.4988
   77SOL    HW1  230   2.491   1.525   2.079 -3.2005  1.0487 -1.3819
   77SOL    HW2  231   2.441   1.630   1.951  0.1314  0.7151  1.3906
   78SOL     OW  232   1.435   0.656   0.603 -0.1115 -0.4062 -0.2383
   78SOL    HW1  233   1.376   0.723   0.549 -0.5409  1.2410  0.4204
   78SOL    HW2  234   1.387   0.567   0.612 -2.3697 -4.0801  1.8236
   79SOL     OW  235   2.207   1.899   1.650 -0.4826  0.3352 -0.0528
   79SOL    HW1  236   2.277   1.873   1.585  0.2537  1.8053 -0.0455
   79SOL    HW2  237   2.207   2.000   1.672 -0.2656  1.3622  1.8295
   80SOL     OW  238   0.896   0.302   1.391  0.0354 -0.1778  0.1575
   80SOL    HW1  239   0.931   0.367   1.466  1.6300  2.1688  0.6788
   80SOL    HW2  240   0.966   0.294   1.320 -0.4171  2.8848  1.9947
   81SOL     OW  241   0.504   2.514   0.529 -0.2328  0.3042 -0.8367
   81SOL    HW1  242   0.577   2.444   0.542  1.5238  1.0218  4.1688
   81SOL    HW2  243   0.482   2.557   0.621 -1.3599  1.3960  1.3763
   82SOL     OW  244   1.257   0.208   1.582  0.6459  0.6983  0.0402
   82SOL    HW1  245   1.172   0.240   1.630 -2.4291 -1.5223 -0.3350
   82SOL    HW2  246   1.232   0.169   1.492  0.3885 -2.1312 -0.4729
   83SOL     OW  247   0.594   1.797   0.631  0.2836 -0.2640 -0.0932
   83SOL    HW1  248   0.648   1.829   0.712  0.8479 -1.1946 -0.3038
   83SOL    HW2  249   0.659   1.809   0.552 -1.8729 -0.4407  1.5985
   84SOL     OW  250   2.562   1.193   0.164 -0.2179  0.0890  0.5024
   84SOL    HW1  251   2.475   1.229   0.120  0.6282  0.5070 -0.6985
   84SOL    HW2  252   2.600   1.113   0.100  0.4141 -0.3008 -2.4416
   85SOL     OW  253   2.995   2.567   1.484 -0.0349 -0.4517 -0.4857
   85SOL    HW1  254   2.984   2.588   1.583  0.5810  0.5463  3.1733
   85SOL    HW2  255   2.963   2.473   1.465 -1.9929  3.5464 -1.1783
   86SOL     OW  256   1.735   2.702   1.090 -0.5390  0.3746  0.2723
   86SOL    HW1  257   1.718   2.632   1.155 -1.2501  2.0597  1.2965
   86SOL    HW2  258   1.704   2.675   0.994  0.3846 -2.9952 -0.4623
   87SOL     OW  259   2.948   1.718   0.638 -0.4085 -0.7348  0.2279
   87SOL    HW1  260   2.902   1.647   0.584 -1.3928  1.3702 -0.9458
   87SOL    HW2  261   2.927   1.811   0.601 -1.1886  2.6882  2.1231
   88SOL     OW  262   0.983   0.643   1.182 -0.2060  0.2812  0.2609
   88SOL    HW1  263   0.966   0.706   1.257 -1.8530  0.7872 -1.6725
   88SOL    HW2  264   0.899   0.596   1.152 -1.5537  3.9360 -0.3224
   89SOL     OW  265   0.737   2.562   1.954 -0.0629  0.1941 -0.7322
   89SOL    HW1  266   0.834   2.597   1.968  2.6039  0.5289 -0.6563
   89SOL    HW2  267   0.724   2.539   1.858 -1.0815  1.5885  1.4773
   90SOL     OW  268   3.041   1.882   1.206  0.3407  0.3027  0.3030
   90SOL    HW1  269   0.067   1.893   1.180 -1.0429  2.1110 -1.2192
   90SOL    HW2  270   2.972   1.927   1.145 -1.9640  2.1120 -0.7996
   91SOL     OW  271   1.280   1.904   0.998 -0.3569  0.4756  0.9396
   91SOL    HW1  272   1.290   1.955   0.912  0.3405 -4.0633 -2.7785
   91SOL    HW2  273   1.255   1.803   0.973  0.8241 -2.1816  1.9687
   92SOL     OW  274   2.856   2.728   1.790  0.4882 -0.6655  0.1078
   92SOL    HW1  275   2.902   2.800   1.734  0.4125 -0.8771  2.8350
   92SOL    HW2  276   2.804   2.767   1.863  1.2632  2.1882  1.7705
   93SOL     OW  277   2.801   1.205   2.963 -0.1252 -0.6357  0.1766
   93SOL    HW1  278   2.881   1.183   2.901  0.7174  2.7945 -1.1298
   93SOL    HW2  279   2.774   1.117   3.011  4.1279 -1.5721 -1.6476
   94SOL     OW  280   2.510   2.938   1.856  0.0838 -0.4210  0.5284
   94SOL    HW1  281   2.477   3.016   1.915  1.6241  0.6148  0.8038
   94SOL    HW2  282   2.598   2.908   1.896 -1.6535  0.4341  0.1126
   95SOL     OW  283   1.390   0.540   1.803  0.2022  0.0493  0.0352
   95SOL    HW1  284   1.287   0.555   1.817 -0.1277  1.5647  1.2277
   95SOL    HW2  285   1.414   0.453   1.755 -2.3287 -0.4352 -0.6940
   96SOL     OW  286   2.409   0.589   1.801 -0.5082  0.0528  0.2588
   96SOL    HW1  287   2.403   0.670   1.860  2.0127  2.0022 -1.0797
   96SOL    HW2  288   2.454   0.609   1.712  0.4840 -0.5021  0.0959
   97SOL     OW  289   2.523   2.971   1.547 -0.3907  0.2258 -0.5349
   97SOL    HW1  290   2.603   2.909   1.543 -0.6653 -1.0159 -1.0830
   97SOL    HW2  291   2.504   2.993   1.641  0.7919 -0.8403 -0.5484
   98SOL     OW  292   2.013   2.764   1.382 -0.1325 -0.1540  0.4734
   98SOL    HW1  293   2.068   2.702   1.442 -1.1604  0.9893 -0.0593
   98SOL    HW2  294   1.915   2.757   1.406  0.5893 -0.5652 -1.6036
   99SOL     OW  295   2.721   0.273   1.703 -0.2490 -0.4957  0.2196
   99SOL    HW1  296   2.789   0.346   1.675 -1.4641  1.3384 -1.2867
   99SOL    HW2  297   2.699   0.216   1.623  0.4770  2.5426 -0.8512
  100SOL     OW  298   2.069   1.506   1.971 -0.0751  0.2466  0.3230
  100SOL    HW1  299   2.058   1.539   2.067 -0.2674 -0.9066  3.7338
  100SOL    HW2  300   2.041   1.404   1.963 -1.0732 -1.2684 -2.4851
  101SOL     OW  301   2.014   0.106   0.397  0.2433 -0.0869 -0.5173
  101SOL    HW1  302   2.070   0.189   0.412  1.7593  3.8811 -3.4059
  101SOL    HW2  303   1.917   0.126   0.378  1.2743 -0.7818 -0.9254
  102SOL     OW  304   0.577   0.611   1.421 -0.2244 -0.4077 -0.3406
  102SOL    HW1  305   0.482   0.631   1.456 -2.4766 -0.5796  1.3394
  102SOL    HW2  306   0.570   0.552   1.337 -0.8982 -0.6176 -4.0633
  103SOL     OW  307   2.456   0.055   2.627  0.3206 -0.2290 -0.0836
  103SOL    HW1  308   2.534   0.114   2.651 -1.7521 -1.9099 -2.3358
  103SOL    HW2  309   2.411   0.010   2.711 -2.5759 -2.5631  2.1288
  104SOL     OW  310   3.050   2.895   1.696  0.2046  0.0609 -0.3838
  104SOL    HW1  311   0.065   2.843   1.711  2.2054 -1.1674 -4.8169
  104SOL    HW2  312   3.035   2.923   1.599 -1.4865 -1.4696 -0.2936
  105SOL     OW  313   1.399   0.602   2.066 -0.3285  0.1783  0.0183
  105SOL    HW1  314   1.430   0.699   2.077 -1.3050  0.9783 -2.8687
  105SOL    HW2  315   1.394   0.570   1.964 -2.0065 -1.6623 -0.1008
  106SOL     OW  316   1.593   0.294   0.792  0.3871 -0.1986 -0.6419
  106SOL    HW1  317   1.651   0.310   0.875  3.2662  0.6586  1.1755
  106SOL    HW2  318   1.645   0.263   0.711  0.2171 -0.8968 -3.7232
  107SOL     OW  319   0.537   1.194   1.131  1.0755 -0.5823 -0.2431
  107SOL    HW1  320   0.451   1.158   1.175 -1.9050  1.1768 -2.0643
  107SOL    HW2  321   0.603   1.115   1.126 -1.3133 -3.5243  1.3974
  108SOL     OW  322   2.806   0.520   2.253  0.2376 -0.0282 -0.2572
  108SOL    HW1  323   2.862   0.506   2.172 -2.4221  0.2662  0.8851
  108SOL    HW2  324   2.836   0.472   2.338 -1.4493  0.9008  0.1927
  109SOL     OW  325   1.998   0.122   0.111 -0.0311  0.2558  0.5117
  109SOL    HW1  326   2.016   0.101   0.206  0.3495 -0.8893 -2.1852
  109SOL    HW2  327   1.907   0.091   0.076 -0.6747 -3.0169  1.2423
  110SOL     OW  328   2.993   1.867   2.895 -0.4415 -0.0795  0.1162
  110SOL    HW1  329   3.037   1.956   2.927 -3.0744  0.2700  0.3678
  110SOL    HW2  330   3.034   1.781   2.928 -3.2190  3.9153 -0.1756
  111SOL     OW  331   2.230   0.143   2.490 -0.3248 -0.5078  0.3555
  111SOL    HW1  332   2.161   0.097   2.546  1.2661  1.5732  1.2414
  111SOL    HW2  333   2.322   0.113   2.519  0.2399 -0.3043 -0.4708
  112SOL     OW  334   2.507   2.822   1.302  0.1394 -0.0448 -0.0718
  112SOL    HW1  335   2.446   2.860   1.224 -1.2814  3.9689 -2.7570
  112SOL    HW2  336   2.493   2.872   1.391 -0.2383  1.5861  1.1475
  113SOL     OW  337   2.497   2.336   2.036  0.2120 -0.4195 -0.0597
  113SOL    HW1  338   2.512   2.346   1.935 -0.9446  0.4078 -1.4315
  113SOL    HW2  339   2.405   2.359   2.073  0.1265  0.0869 -1.4540
  114SOL     OW  340   2.632   0.087   0.485  0.1992  0.3160  0.1622
  114SOL    HW1  341   2.608   3.066   0.520  0.2103 -0.1303 -1.9136
  114SOL    HW2  342   2.683   0.132   0.558 -0.7279 -0.1391  1.2504
  115SOL     OW  343   2.744   1.724   0.182  0.1888  0.6446 -0.3704
  115SOL    HW1  344   2.832   1.693   0.215 -2.4541  0.3258 -3.5316
  115SOL    HW2  345   2.679   1.641   0.182 -2.2418 -0.7572  1.0149
  116SOL     OW  346   0.211   1.488   2.056 -0.1599 -0.0209 -0.1291
  116SOL    HW1  347   0.204   1.588   2.073  0.7420 -0.6863  1.5411
  116SOL    HW2  348   0.156   1.462   1.973  1.7961 -0.8109  0.2430
  117SOL     OW  349   2.356   2.900   1.063  0.0045 -0.0237  0.0604
  117SOL    HW1  350   2.366   2.803   1.044 -0.3920  0.9071 -2.3871
  117SOL    HW2  351   2.260   2.911   1.100 -1.3209  0.6480 -0.7420
  118SOL     OW  352   0.271   2.082   1.803 -0.4753 -0.2243  0.3417
  118SOL    HW1  353   0.216   2.000   1.779  1.1034 -1.0389  2.0913
  118SOL    HW2  354   0.323   2.120   1.722 -0.6656  0.8740 -3.2356
  119SOL     OW  355   1.191   2.267   1.305 -0.7275 -0.1756  0.0365
  119SOL    HW1  356   1.151   2.260   1.396 -0.4535 -1.1780 -0.9090
  119SOL    HW2  357   1.147   2.336   1.249  3.1672  0.3588 -1.1637
  120SOL     OW  358   0.305   1.911   1.377 -0.0542  0.1999 -0.3865
  120SOL    HW1  359   0.254   1.916   1.468 -1.1220 -0.5882  2.8817
  120SOL    HW2  360   0.404   1.908   1.396 -0.0296  0.0594  2.4992
  121SOL     OW  361   2.398   1.364   1.050 -0.5003 -0.4110 -0.0730
  121SOL    HW1  362   2.354   1.383   1.140 -1.4526  0.4964  1.4822
  121SOL    HW2  363   2.356   1.429   0.982 -1.4083 -0.1441 -0.0324
  122SOL     OW  364   2.118   1.715   2.732  0.2468 -0.4154  0.6983
  122SOL    HW1  365   2.057   1.725   2.813  0.7493 -0.4860 -0.1762
  122SOL    HW2  366   2.089   1.768   2.650  0.0028  3.1280 -2.7689
  123SOL     OW  367   2.652   2.861   0.381  0.4946 -0.2774 -0.4028
  123SOL    HW1  368   2.711   2.782   0.402 -0.1512  0.1287 -0.4671
  123SOL    HW2  369   2.590   2.874   0.464 -0.9489  0.0565  1.2992
  124SOL     OW  370   1.241   1.267   3.025  0.4957 -0.4498  0.0782
  124SOL    HW1  371   1.192   1.352   3.060  0.4665  0.0431 -0.1346
  124SOL    HW2  372   1.172   1.192   3.028 -2.7877  2.2212 -0.7782
  125SOL     OW  373   0.138   1.393   2.794  0.1323 -0.0958 -0.2259
  125SOL    HW1  374   0.188   1.435   2.717  2.6561 -0.6407 -0.7340
  125SOL    HW2  375   0.193   1.334   2.853 -2.4314  0.9738 -0.3630
  126SOL     OW  376   0.080   2.336   0.306  0.2590  0.0991  0.0176
  126SOL    HW1  377   0.160   2.280   0.338  0.4756 -2.3259  1.1949
  126SOL    HW2  378   3.069   2.278   0.313  0.5181  2.6583  0.8197
  127SOL     OW  379   0.166   1.670   0.718 -0.1375  0.4275 -0.1282
  127SOL    HW1  380   0.081   1.617   0.745 -0.4977 -1.4192  1.1089
  127SOL    HW2  381   0.158   1.715   0.627 -2.0928 -2.1004 -0.3260
  128SOL     OW  382   1.176   1.296   0.380  0.3803  1.0756 -0.0789
  128SOL    HW1  383   1.155   1.314   0.477 -1.1410 -0.2384 -0.0184
  128SOL    HW2  384   1.195   1.191   0.377  0.7362  0.9548 -0.7154
  129SOL     OW  385   2.071   1.816   1.319  0.0742  0.2225  0.3535
  129SOL    HW1  386   2.041   1.900   1.270  1.9527 -3.3636  1.9472
  129SOL    HW2  387   2.174   1.820   1.334 -1.3314 -0.5212  1.7152
  130SOL     OW  388   1.839   1.020   0.328  0.3043 -0.4227  1.0936
  130SOL    HW1  389   1.800   0.930   0.305  1.9104 -1.7965 -0.1033
  130SOL    HW2  390   1.912   1.008   0.397 -3.0993  0.8542 -0.1073
  131SOL     OW  391   2.746   1.029   2.591  0.0249  0.7283  0.1442
  131SOL    HW1  392   2.715   0.969   2.673 -1.9558 -0.6042  0.7188
  131SOL    HW2  393   2.678   1.102   2.581  0.6115 -0.3483  0.8049
  132SOL     OW  394   1.715   1.673   2.032 -0.0253 -0.2940 -0.0243
  132SOL    HW1  395   1.656   1.743   1.987 -2.4697  0.2824 -1.6394
  132SOL    HW2  396   1.783   1.715   2.095  0.5288  2.3126 -3.1448
  133SOL     OW  397   0.119   1.261   0.106  0.4313  0.0578  0.0953
  133SOL    HW1  398   0.095   1.192   0.036 -0.1732  1.1140  1.0629
  133SOL    HW2  399   0.037   1.266   0.168 -2.4664 -0.2061 -0.7716
  134SOL     OW  400   2.833   0.836   0.564  0.5207  0.5283  0.1265
  134SOL    HW1  401   2.785   0.797   0.485  2.0044 -2.1805  1.7858
  134SOL    HW2  402   2.934   0.826   0.563  1.2219 -0.5887  1.2386
  135SOL     OW  403   2.306   0.772   0.084  0.3109 -0.4857 -0.0415
  135SOL    HW1  404   2.227   0.731   0.037 -2.1498  0.9045 -0.9958
  135SOL    HW2  405   2.292   0.873   0.096  0.7500  1.2434 -1.4096
  136SOL     OW  406   1.893   1.898   1.712  0.2545  0.0913 -0.0058
  136SOL    HW1  407   1.883   1.915   1.815  2.0593  0.3263 -1.1031
  136SOL    HW2  408   1.994   1.898   1.693  0.7419  1.4634  2.1652
  137SOL     OW  409   2.416   2.502   0.552 -0.3504 -0.1557 -0.3462
  137SOL    HW1  410   2.476   2.422   0.565 -0.1203 -1.3292  1.8961
  137SOL    HW2  411   2.326   2.478   0.602 -1.3804  2.6829  2.6661
  138SOL     OW  412   2.191   0.321   1.534  0.7558  0.1236  0.1342
  138SOL    HW1  413   2.188   0.412   1.580  0.2038  1.1339 -1.8325
  138SOL    HW2  414   2.177   0.244   1.594 -1.1231 -0.2117 -2.6426
  139SOL     OW  415   2.704   0.080   2.808  0.0206 -0.2740 -0.1333
  139SOL    HW1  416   2.621   0.051   2.861 -1.8475 -3.3696  2.1955
  139SOL    HW2  417   2.746   0.156   2.856  0.1233 -1.8369 -0.6088
  140SOL     OW  418   1.404   1.274   2.587 -0.1441  0.1106  0.6145
  140SOL    HW1  419   1.477   1.305   2.523  0.0298  1.7600 -0.0377
  140SOL    HW2  420   1.362   1.354   2.632  1.3752  1.4000 -1.8075
  141SOL     OW  421   0.676   0.676   2.369  0.0214 -0.0064 -0.6393
  141SOL    HW1  422   0.583   0.640   2.374  0.4544  0.2140  1.5725
  141SOL    HW2  423   0.700   0.670   2.271 -3.0040 -0.5185 -0.7489
  142SOL     OW  424   2.376   2.645   2.928  0.5770 -0.2366 -0.9542
  142SOL    HW1  425   2.369   2.717   3.000 -1.1901  2.9815 -0.0527
  142SOL    HW2  426   2.371   2.677   2.834 -1.5104 -0.3147  1.8380
  143SOL     OW  427   0.939   2.143   0.446  0.8032 -0.6577 -0.1452
  143SOL    HW1  428   0.839   2.134   0.427  1.9115 -0.1800  0.7035
  143SOL    HW2  429   0.974   2.060   0.500  0.3518  0.5697 -0.0672
  144SOL     OW  430   1.203   2.579   0.102 -0.6338  0.1745 -0.0446
  144SOL    HW1  431   1.114   2.556   0.072  2.0277 -0.4971  2.5480
  144SOL    HW2  432   1.197   2.665   0.155 -2.5340  2.0145 -1.4249
  145SOL     OW  433   1.664   2.021   2.402  0.3220 -0.7078  0.2042
  145SOL    HW1  434   1.724   2.023   2.483 -0.1543  2.0542 -1.9991
  145SOL    HW2  435   1.629   1.927   2.383  1.4721  0.1566 -1.3564
  146SOL     OW  436   2.866   2.697   2.847 -0.0532  0.1674  0.4032
  146SOL    HW1  437   2.804   2.755   2.905  1.1278 -2.0039 -1.4151
  146SOL    HW2  438   2.805   2.654   2.778  0.3292  0.1920  0.2204
  147SOL     OW  439   3.039   1.461   1.225 -0.1149 -0.2847 -0.0813
  147SOL    HW1  440   0.031   1.517   1.279 -0.6000  3.5913  0.4678
  147SOL    HW2  441   2.969   1.519   1.178  2.3090 -1.2454  1.2835
  148SOL     OW  442   1.803   2.797   0.125 -0.4687 -0.0557  0.1455
  148SOL    HW1  443   1.709   2.804   0.164  2.9365 -0.4999  0.1730
  148SOL    HW2  444   1.827   2.868   0.053  0.8745  0.9866  0.8823
  149SOL     OW  445   0.615   1.832   2.656  0.5758 -0.0338 -0.7455
  149SOL    HW1  446   0.542   1.768   2.692  2.3306 -0.2173 -0.4931
  149SOL    HW2  447   0.597   1.926   2.691  0.8488  0.9368 -2.5820
  150SOL     OW  448   0.361   2.315   0.323 -0.7413 -0.0457  0.9018
  150SOL    HW1  449   0.394   2.239   0.264  2.3579  1.9616 -2.1954
  150SOL    HW2  450   0.427   2.388   0.338 -0.1171  0.6819  1.9063
  151SOL     OW  451   0.507   1.263   0.371 -0.6966  0.3237 -0.0323
  151SOL    HW1  452   0.450   1.183   0.399  2.1848  1.9176 -0.7220
  151SOL    HW2  453   0.480   1.295   0.278  2.0757  1.0755  1.5392
  152SOL     OW  454   2.599   1.815   0.543 -0.0578  0.1908 -0.1502
  152SOL    HW1  455   2.496   1.826   0.526 -3.5488 -1.5839  0.0197
  152SOL    HW2  456   2.658   1.873   0.485  1.4532 -0.3880 -0.4708
  153SOL     OW  457   2.049   2.352   0.590  0.2986 -0.4843  0.0471
  153SOL    HW1  458   2.060   2.378   0.493 -0.0354  0.6314 -0.1339
  153SOL    HW2  459   1.965   2.395   0.627 -1.1978 -1.8061 -0.0202
  154SOL     OW  460   0.776   2.685   0.922 -0.2932  0.7683  0.2220
  154SOL    HW1  461   0.776   2.726   0.828  0.2494  0.3043  1.5864
  154SOL    HW2  462   0.686   2.643   0.945 -3.3057 -0.6728  1.6757
  155SOL     OW  463   2.953   1.778   0.904  0.2116 -0.6363 -0.0283
  155SOL    HW1  464   2.948   1.733   0.812  1.0205  2.0923 -0.8890
  155SOL    HW2  465   3.047   1.782   0.945  0.1077  1.3089  0.2899
  156SOL     OW  466   2.547   2.336   0.079  0.0308  0.0980 -0.1928
  156SOL    HW1  467   2.504   2.244   0.059 -2.8275 -0.6367  0.4609
  156SOL    HW2  468   2.616   2.339   0.155  1.8988  0.7173  0.4191
  157SOL     OW  469   0.595   1.969   1.443 -0.1017 -0.1483  0.6260
  157SOL    HW1  470   0.613   1.904   1.518 -1.1566  0.6181 -2.2139
  157SOL    HW2  471   0.638   1.929   1.355  4.1473 -0.9800 -2.4247
  158SOL     OW  472   1.748   0.791   0.240 -0.9330  0.3280  0.0819
  158SOL    HW1  473   1.688   0.719   0.202  0.4698  0.7523  1.4403
  158SOL    HW2  474   1.843   0.765   0.250 -0.9085  0.9171  0.8795
  159SOL     OW  475   1.117   0.933   0.193  0.2873  0.2806 -0.1136
  159SOL    HW1  476   1.029   0.978   0.204  0.0694 -0.7670  0.7891
  159SOL    HW2  477   1.106   0.837   0.150  2.8128 -1.2837 -1.0965
  160SOL     OW  478   0.871   1.339   0.516  0.0362  0.4530  0.4126
  160SOL    HW1  479   0.820   1.374   0.598  0.8708  1.0038 -0.2586
  160SOL    HW2  480   0.966   1.315   0.540  0.7988 -0.2610 -0.9210
  161SOL     OW  481   0.157   2.027   2.655 -0.7267 -0.0626 -0.0027
  161SOL    HW1  482   0.060   2.032   2.627  4.1026  1.3955 -1.4229
  161SOL    HW2  483   0.175   1.943   2.704 -2.9919  2.5144 -2.2725
  162SOL     OW  484   2.984   2.357   0.857  0.6026  0.1962  0.7458
  162SOL    HW1  485   3.002   2.285   0.924 -0.0321  1.2451  1.9908
  162SOL    HW2  486   0.001   2.395   0.817  5.6792  0.6004  0.9377
  163SOL     OW  487   2.982   0.464   2.645 -0.1866 -0.3769 -0.0898
  163SOL    HW1  488   2.956   0.560   2.623 -1.0992 -1.5976  1.5990
  163SOL    HW2  489   3.071   0.471   2.698  2.0262  4.4069 -0.2561
  164SOL     OW  490   0.508   0.103   2.807 -0.1526  0.3092  0.2001
  164SOL    HW1  491   0.440   0.053   2.865 -0.8324 -0.4704 -1.2602
  164SOL    HW2  492   0.486   0.092   2.710 -1.8994  0.3521 -2.8800
  165SOL     OW  493   2.160   0.523   1.740  0.2706  0.1873 -0.0421
  165SOL    HW1  494   2.078   0.530   1.803 -1.8386 -0.1108  2.6938
  165SOL    HW2  495   2.245   0.540   1.790 -1.6879  1.0749 -0.3554
  166SOL     OW  496   1.941   2.462   1.744 -0.0729  0.1040  0.1167
  166SOL    HW1  497   1.971   2.366   1.753  2.3668  0.5542  0.5025
  166SOL    HW2  498   1.930   2.513   1.836 -0.5509 -1.0062  1.0207
  167SOL     OW  499   1.269   1.001   2.235  0.1236 -0.7308  0.1449
  167SOL    HW1  500   1.187   1.041   2.282 -0.7847  0.5176  1.8296
  167SOL    HW2  501   1.262   0.900   2.246 -4.0919  1.4725  1.6949
  168SOL     OW  502   2.458   0.055   2.040 -0.1020  0.0404  0.0284
  168SOL    HW1  503   2.396   0.132   2.030 -0.3353 -1.8278 -0.8602
  168SOL    HW2  504   2.554   0.089   2.022  0.0687  0.1750 -1.2368
  169SOL     OW  505   0.345   1.049   0.372 -0.6226  0.2775  0.0470
  169SOL    HW1  506   0.290   1.014   0.452  0.1417  3.2141 -1.2126
  169SOL    HW2  507   0.289   1.055   0.289  0.5469  1.1221  3.3308
  170SOL     OW  508   0.081   1.449   1.786 -0.1008 -0.2889 -0.0635
  170SOL    HW1  509   0.127   1.507   1.715  0.9716  1.5191 -0.4174
  170SOL    HW2  510   0.000   1.498   1.814  2.8880  2.0036 -3.2774
  171SOL     OW  511   1.148   2.366   2.166  0.2661  0.1525  0.5804
  171SOL    HW1  512   1.161   2.268   2.175 -0.2809  2.2887 -0.4893
  171SOL    HW2  513   1.072   2.391   2.232  0.3480 -2.1594 -2.8662
  172SOL     OW  514   0.938   2.258   2.000 -0.0781 -0.6120 -0.0944
  172SOL    HW1  515   0.903   2.285   1.908  2.9530 -1.7421 -1.3314
  172SOL    HW2  516   1.021   2.308   2.025  0.0674 -2.9485  1.2021
  173SOL     OW  517   1.399   2.558   0.918 -0.5677 -0.5354 -0.4075
  173SOL    HW1  518   1.492   2.590   0.899  0.7324  1.1861  0.9824
  173SOL    HW2  519   1.329   2.589   0.844 -1.3753 -0.8043 -0.4901
  174SOL     OW  520   2.235   0.267   0.500 -0.0511 -0.3684  0.9725
  174SOL    HW1  521   2.276   0.192   0.550  1.5507  0.2182  0.2626
  174SOL    HW2  522   2.291   0.282   0.419  0.9773  2.4382  1.7907
  175SOL     OW  523   1.139   1.745   0.378  0.0922 -0.8944  0.2268
  175SOL    HW1  524   1.236   1.736   0.405 -0.9246  0.5114  0.9096
  175SOL    HW2  525   1.096   1.655   0.355  3.2143 -0.3105 -0.4067
  176SOL     OW  526   0.711   1.468   0.700  0.4396 -0.0327 -0.2178
  176SOL    HW1  527   0.713   1.420   0.788  1.1556 -1.2260 -0.0968
  176SOL    HW2  528   0.620   1.507   0.693 -1.3136  2.9788 -0.4503
  177SOL     OW  529   1.282   1.124   1.348  0.4553  0.1842  0.0603
  177SOL    HW1  530   1.286   1.087   1.251 -0.0601  0.1798 -2.8892
  177SOL    HW2  531   1.379   1.120   1.386  2.2148 -0.7496 -1.1081
  178SOL     OW  532   2.408   1.560   0.450  0.1870  0.1728 -0.4147
  178SOL    HW1  533   2.470   1.509   0.517  0.3560 -1.7381  0.2554
  178SOL    HW2  534   2.391   1.500   0.372 -2.7011 -0.5715  0.7606
  179SOL     OW  535   1.027   2.290   2.942 -0.2324 -0.2369 -0.2776
  179SOL    HW1  536   1.031   2.349   3.027  0.5055  1.4160 -1.8363
  179SOL    HW2  537   0.932   2.261   2.907  2.8605  0.9410 -0.6200
  180SOL     OW  538   1.919   1.536   1.710 -0.1011 -0.0182 -0.3307
  180SOL    HW1  539   1.946   1.557   1.802 -1.1991 -0.8621  0.4137
  180SOL    HW2  540   2.000   1.560   1.645 -1.0072  0.7021 -2.3902
  181SOL     OW  541   0.794   1.032   2.355  0.0544  0.0188  0.3620
  181SOL    HW1  542   0.830   1.018   2.260 -0.6752  0.3367 -0.4503
  181SOL    HW2  543   0.839   0.962   2.409  0.7872 -1.4060 -0.9418
  182SOL     OW  544   2.725   1.042   2.239  0.3536  0.4248 -0.8023
  182SOL    HW1  545   2.655   1.061   2.309 -0.4200 -1.5718 -0.8998
  182SOL    HW2  546   2.759   0.951   2.262  0.2770 -0.6769 -2.9177
  183SOL     OW  547   1.617   0.478   2.189  0.3229 -0.1160  0.2755
  183SOL    HW1  548   1.642   0.439   2.096 -1.1845 -0.6388 -0.9200
  183SOL    HW2  549   1.520   0.509   2.185  0.8931 -3.0604  2.1736
  184SOL     OW  550   0.388   0.697   1.767 -0.1629 -0.0510 -0.1011
  184SOL    HW1  551   0.370   0.705   1.873  1.3684  0.6614  1.1545
  184SOL    HW2  552   0.476   0.751   1.755  1.4397 -1.0962  2.3665
  185SOL     OW  553   2.169   1.931   0.678 -0.4729  0.0217  0.0337
  185SOL    HW1  554   2.232   1.909   0.602  1.5662  1.5263 -1.2604
  185SOL    HW2  555   2.179   1.875   0.762 -1.4861  0.4222  1.9469
  186SOL     OW  556   0.415   1.878   0.052  0.2180 -0.7314 -0.4612
  186SOL    HW1  557   0.504   1.901   0.000  2.4376  0.8748 -3.1281
  186SOL    HW2  558   0.419   1.785   0.099 -1.3909 -1.0836  1.3194
  187SOL     OW  559   2.380   1.801   3.038  0.2492  0.5111 -0.2322
  187SOL    HW1  560   2.365   1.717   2.979 -1.2666 -1.3063  1.7375
  187SOL    HW2  561   2.485   1.816   3.048  2.3587  1.3694 -1.3399
  188SOL     OW  562   0.972   2.502   0.918  0.0138  0.0381  0.0742
  188SOL    HW1  563   1.060   2.522   0.870 -1.9472  0.9107  2.6224
  188SOL    HW2  564   0.915   2.590   0.919 -0.9796  4.4149 -2.1989
  189SOL     OW  565   1.849   0.996   2.598 -0.0710 -0.5033 -0.7311
  189SOL    HW1  566   1.851   0.954   2.506  0.0671 -0.9044 -1.1897
  189SOL    HW2  567   1.926   1.057   2.608 -0.5433 -0.7511  2.4418
  190SOL     OW  568   0.955   1.958   2.364 -0.1217  0.3444 -0.2882
  190SOL    HW1  569   0.945   1.857   2.355  1.8241  3.6136  0.0307
  190SOL    HW2  570   0.887   1.998   2.429 -1.1584 -0.0885  2.8496
  191SOL     OW  571   2.385   0.717   1.346  0.4799  0.0481 -0.3909
  191SOL    HW1  572   2.303   0.758   1.390  0.7266  0.4856  0.3766
  191SOL    HW2  573   2.441   0.660   1.416  2.9770 -1.4370  3.2671
  192SOL     OW  574   2.334   0.337   2.312  0.1821  0.4387  0.0295
  192SOL    HW1  575   2.281   0.406   2.370 -1.8006  1.1853  1.5786
  192SOL    HW2  576   2.313   0.240   2.338  1.7618 -1.8131 -0.3455
  193SOL     OW  577   0.811   0.319   0.725  0.0142 -0.0126 -0.3862
  193SOL    HW1  578   0.815   0.248   0.655  4.2383 -1.9158  0.9789
  193SOL    HW2  579   0.825   0.287   0.822  1.4724 -0.1091 -0.8491
  194SOL     OW  580   1.334   2.332   1.726 -0.2410 -0.2632 -0.0806
  194SOL    HW1  581   1.289   2.245   1.754 -1.1349  0.5152 -0.8745
  194SOL    HW2  582   1.270   2.412   1.728 -3.6144  2.8435 -1.1784
  195SOL     OW  583   2.770   0.729   0.830  0.2012  0.1813 -0.1280
  195SOL    HW1  584   2.696   0.777   0.882  0.5457  2.6781  1.7451
  195SOL    HW2  585   2.793   0.778   0.746 -0.3934  2.1164 -0.3349
  196SOL     OW  586   1.233   1.812   1.712  0.5771 -0.1878 -0.2621
  196SOL    HW1  587   1.197   1.854   1.626  0.2115 -1.0909 -0.6782
  196SOL    HW2  588   1.159   1.805   1.780 -0.0509 -1.6324  2.0801
  197SOL     OW  589   0.300   0.897   2.302  0.6043 -0.2112  0.2626
  197SOL    HW1  590   0.331   0.952   2.222 -0.0301  0.2226 -1.9543
  197SOL    HW2  591   0.264   0.805   2.272 -2.4547  1.0100  0.9318
  198SOL     OW  592   1.522   0.943   0.318 -0.2499  0.0337 -0.3646
  198SOL    HW1  593   1.572   0.867   0.278 -0.3150  0.3412  2.0878
  198SOL    HW2  594   1.587   1.018   0.343  1.5844  1.0340  0.6832
  199SOL     OW  595   2.632   0.522   1.949  0.0987 -0.3869 -0.8374
  199SOL    HW1  596   2.603   0.537   2.048 -0.4301  2.3202  2.7426
  199SOL    HW2  597   2.554   0.555   1.891 -0.1807 -1.0779 -1.5085
  200SOL     OW  598   2.228   2.510   2.544 -0.0290  0.2921 -0.2268
  200SOL    HW1  599   2.313   2.556   2.507  1.9926  1.6399  0.7215
  200SOL    HW2  600   2.250   2.442   2.618  3.3649  2.7922  1.5318
  201SOL     OW  601   2.205   0.047   1.395 -0.5970 -0.0129 -0.6780
  201SOL    HW1  602   2.184   0.143   1.423 -1.1725 -0.1681 -3.5861
  201SOL    HW2  603   2.210   3.056   1.470 -0.8374  0.8894 -0.4999
  202SOL     OW  604   2.275   2.928   0.005  0.0014 -0.4537  0.1772
  202SOL    HW1  605   2.294   2.970   0.096 -2.2728  0.4657 -0.0285
  202SOL    HW2  606   2.176   2.908   0.003  4.7037 -0.3957 -0.2661
  203SOL     OW  607   0.737   2.014   2.511  0.1113 -0.2161  0.0612
  203SOL    HW1  608   0.685   1.940   2.558  0.5964  2.6140 -1.1480
  203SOL    HW2  609   0.717   2.098   2.570 -0.9462 -1.9291 -0.4113
  204SOL     OW  610   0.760   1.447   2.641  0.2384  0.3541 -0.4552
  204SOL    HW1  611   0.718   1.457   2.738  1.6116 -0.4625  2.6524
  204SOL    HW2  612   0.835   1.373   2.641  3.7076 -1.2385  1.3852
  205SOL     OW  613   0.930   1.031   1.141 -0.7253 -0.8136 -0.2724
  205SOL    HW1  614   1.004   0.965   1.182  1.6116 -3.6923 -1.9864
  205SOL    HW2  615   0.976   1.120   1.121  1.0620  1.9735 -3.2246
  206SOL     OW  616   0.125   0.755   2.589  0.1767  0.3913  0.1974
  206SOL    HW1  617   0.178   0.840   2.592  0.2337 -1.3838  0.8701
  206SOL    HW2  618   0.112   0.726   2.492 -1.0972 -0.4604  0.5696
  207SOL     OW  619   1.798   2.390   2.099 -0.5359  0.7363  0.4122
  207SOL    HW1  620   1.830   2.478   2.059 -0.8137 -3.5098  3.7738
  207SOL    HW2  621   1.745   2.341   2.031 -0.2950 -2.7746 -0.1740
  208SOL     OW  622   1.043   2.674   1.479  0.0430 -0.2241  0.3424
  208SOL    HW1  623   0.967   2.658   1.418 -0.1929 -1.6008 -1.4810
  208SOL    HW2  624   1.131   2.658   1.424 -0.1663 -1.6162 -2.0945
  209SOL     OW  625   1.363   1.614   2.920 -0.6150  0.4290 -0.6966
  209SOL    HW1  626   1.305   1.554   2.865  0.3289  1.6272  0.3527
  209SOL    HW2  627   1.385   1.693   2.861  0.4962  1.5066 -0.0791
  210SOL     OW  628   2.386   0.665   0.912 -0.4486 -0.0879  0.3962
  210SOL    HW1  629   2.444   0.745   0.908  0.2992 -0.7471 -0.0068
  210SOL    HW2  630   2.384   0.617   0.823 -2.5281  0.8642 -0.6940
  211SOL     OW  631   1.225   2.796   0.311 -0.3501  0.4371 -0.3764
  211SOL    HW1  632   1.292   2.726   0.342 -1.5954  1.2082  0.1209
  211SOL    HW2  633   1.279   2.862   0.255 -2.7294 -2.5040 -0.0961
  212SOL     OW  634   2.133   2.197   0.771  0.2405  0.3445 -0.1052
  212SOL    HW1  635   2.143   2.094   0.757  0.1237 -1.3553 -0.6204
  212SOL    HW2  636   2.106   2.243   0.689  3.6306 -0.8040  0.2364
  213SOL     OW  637   1.597   0.721   2.790 -0.2435 -0.3672 -0.2988
  213SOL    HW1  638   1.648   0.633   2.806  1.5756  2.0996  2.1139
  213SOL    HW2  639   1.655   0.795   2.823 -0.2818  1.3334  0.8288
  214SOL     OW  640   1.032   1.770   1.872  0.1039 -0.4598  0.0996
  214SOL    HW1  641   0.940   1.812   1.869  3.6267 -0.9419  1.8155
  214SOL    HW2  642   1.029   1.691   1.937  1.5067  0.1774  1.2167
  215SOL     OW  643   0.295   1.388   0.469 -0.5120  0.5936 -0.4344
  215SOL    HW1  644   0.379   1.356   0.414  3.2586 -0.9859 -0.7626
  215SOL    HW2  645   0.262   1.481   0.450 -0.5873  0.9232  0.7728
  216SOL     OW  646   0.065   3.011   2.346  0.2293 -0.0834 -0.6523
  216SOL    HW1  647   0.151   3.007   2.399 -0.4875 -1.2131  0.8120
  216SOL    HW2  648   0.085   2.977   2.251  1.2512 -0.4655  0.1018
  217SOL     OW  649   2.523   0.919   1.257 -0.1878  0.2485 -0.4197
  217SOL    HW1  650   2.466   0.844   1.296  3.0359 -2.6076  1.5958
  217SOL    HW2  651   2.612   0.879   1.232  0.1796  2.7476 -0.8043
  218SOL     OW  652   1.220   1.775   2.214 -0.1382  0.0783  0.0202
  218SOL    HW1  653   1.303   1.815   2.174 -0.6567 -0.8321  0.3559
  218SOL    HW2  654   1.212   1.801   2.311  2.1494 -3.4582  0.7514
  219SOL     OW  655   1.936   1.582   0.059  0.3925 -0.1210  0.1212
  219SOL    HW1  656   1.965   1.599   0.152  0.0394  1.1324 -1.5970
  219SOL    HW2  657   1.834   1.574   0.057  0.8150 -1.0594  1.6982
  220SOL     OW  658   2.011   0.763   0.263 -0.0441 -0.3814  0.6598
  220SOL    HW1  659   2.058   0.853   0.270  2.8794 -1.1564 -0.8406
  220SOL    HW2  660   2.019   0.717   0.171 -0.1614  1.8027 -1.3715
  221SOL     OW  661   0.148   0.332   0.062 -0.6596  0.2602  0.5856
  221SOL    HW1  662   0.233   0.282   0.046 -0.2334 -1.1064  0.5440
  221SOL    HW2  663   0.142   0.421   0.016 -0.2748 -6.0337 -1.4396
  222SOL     OW  664   1.457   1.951   0.624  0.3104 -0.0590 -0.3783
  222SOL    HW1  665   1.484   1.861   0.661 -1.2804  0.5826  0.3669
  222SOL    HW2  666   1.369   1.984   0.670 -0.3547 -0.1290  0.0486
  223SOL     OW  667   0.881   0.092   3.004  0.3650  0.3875 -0.7307
  223SOL    HW1  668   0.972   0.104   3.046  0.2191  1.5535 -2.1342
  223SOL    HW2  669   0.877   0.045   2.913 -0.3150  1.4744 -0.7799
  224SOL     OW  670   1.752   0.049   1.149  0.6589 -0.3128 -0.3138
  224SOL    HW1  671   1.744   0.046   1.254 -2.3709 -0.7667  3.3436
  224SOL    HW2  672   1.832   0.010   1.113 -5.2132  4.3994  1.5339
  225SOL     OW  673   0.566   2.507   1.272  0.3057 -0.2902  0.3991
  225SOL    HW1  674   0.542   2.500   1.176 -0.0468  1.7670 -1.5970
  225SOL    HW2  675   0.508   2.577   1.316 -0.6455 -2.1188  0.3252
  226SOL     OW  676   1.137   1.854   0.127 -0.4275 -0.1164 -0.2361
  226SOL    HW1  677   1.130   1.820   0.222  2.8917  0.7804 -1.4709
  226SOL    HW2  678   1.214   1.914   0.115 -2.1455 -2.0250  0.8730
  227SOL     OW  679   0.830   1.739   0.984  0.3444  0.7690  0.5810
  227SOL    HW1  680   0.761   1.667   0.986  0.5133  1.8008  1.0728
  227SOL    HW2  681   0.848   1.773   1.076 -1.3945  0.0138 -3.4687
  228SOL     OW  682   0.268   1.647   0.426  0.6414  0.2704 -0.5412
  228SOL    HW1  683   0.301   1.645   0.331 -0.6147  0.5833 -1.8053
  228SOL    HW2  684   0.217   1.734   0.449 -0.8934 -0.7022  0.2490
  229SOL     OW  685   1.951   0.040   2.534 -0.5490 -0.5155 -0.0781
  229SOL    HW1  686   1.968   0.037   2.434  2.4251 -1.9062  2.9071
  229SOL    HW2  687   1.859   0.071   2.555  3.1466  1.3268  0.1014
  230SOL     OW  688   1.999   1.097   2.995  0.3604  0.4098 -0.0322
  230SOL    HW1  689   1.986   1.158   2.918 -0.8360 -1.2699  3.8482
  230SOL    HW2  690   1.941   1.134   3.068  0.6381  1.8807 -0.7912
  231SOL     OW  691   1.206   1.483   2.728  0.1597  0.1210 -0.3492
  231SOL    HW1  692   1.136   1.413   2.739  3.3405 -2.4030  1.5553
  231SOL    HW2  693   1.169   1.577   2.729  0.8799 -0.7084 -1.7057
  232SOL     OW  694   2.599   2.283   0.523 -0.3295  0.0528  0.6109
  232SOL    HW1  695   2.665   2.327   0.464  0.0502 -1.4459 -0.2027
  232SOL    HW2  696   2.531   2.223   0.474 -2.1255 -0.9596  0.1727
  233SOL     OW  697   0.155   2.556   0.449  0.0111 -0.0871  0.5009
  233SOL    HW1  698   0.253   2.560   0.474  2.5443 -0.1856  1.1170
  233SOL    HW2  699   0.137   2.484   0.380  3.1820  3.5054  1.4904
  234SOL     OW  700   0.639   0.795   2.692  0.1396 -0.1053  0.0716
  234SOL    HW1  701   0.576   0.792   2.610  0.4149 -2.2525 -2.8394
  234SOL    HW2  702   0.725   0.847   2.675  1.2649  0.4547  0.9005
  235SOL     OW  703   2.540   0.497   2.211 -0.2239  0.1559  0.3919
  235SOL    HW1  704   2.481   0.428   2.259  0.0694 -0.3967  0.7260
  235SOL    HW2  705   2.631   0.510   2.250 -2.4971 -0.3198 -1.8651
  236SOL     OW  706   1.745   2.501   1.261 -0.3674 -0.2746 -0.0618
  236SOL    HW1  707   1.755   2.483   1.361  2.1498  1.8484  0.9679
  236SOL    HW2  708   1.761   2.411   1.210  1.8390 -0.0812 -0.5000
  237SOL     OW  709   0.917   1.662   2.375 -0.6412 -0.1909 -0.1554
  237SOL    HW1  710   0.960   1.567   2.358  3.1784 -1.6347 -0.2405
  237SOL    HW2  711   0.900   1.669   2.477 -1.3088  3.0054  1.6503
  238SOL     OW  712   1.034   0.267   2.300  0.4711 -0.4051 -0.2562
  238SOL    HW1  713   1.031   0.205   2.376 -1.5069  1.8840 -1.6897
  238SOL    HW2  714   1.099   0.231   2.231  1.0768 -0.2955  1.1087
  239SOL     OW  715   0.373   1.980   2.024  0.5276 -0.0894  0.3238
  239SOL    HW1  716   0.450   2.037   2.048  1.1732 -1.2625 -2.2885
  239SOL    HW2  717   0.322   2.034   1.956  1.3583  1.8364 -0.8052
  240SOL     OW  718   2.537   2.784   0.148 -0.4826 -0.1308  0.2793
  240SOL    HW1  719   2.462   2.725   0.186  1.5349  2.0093  0.8305
  240SOL    HW2  720   2.602   2.813   0.221 -0.3188  2.0943 -1.7694
  241SOL     OW  721   2.579   0.920   0.969  0.3501 -0.3433  0.0236
  241SOL    HW1  722   2.542   0.927   1.063 -1.7930  3.3603  0.6862
  241SOL    HW2  723   2.556   0.997   0.908  1.4694 -0.1790  0.3644
  242SOL     OW  724   2.250   2.433   2.068  0.2980  0.1071  0.1647
  242SOL    HW1  725   2.208   2.372   2.141 -1.2036  0.2340  0.7993
  242SOL    HW2  726   2.226   2.536   2.077  1.0152  2.5349  0.7007
  243SOL     OW  727   0.794   2.613   1.697 -0.3309 -0.3648 -0.7632
  243SOL    HW1  728   0.727   2.667   1.641  1.5252  0.0560  1.6156
  243SOL    HW2  729   0.869   2.680   1.726 -0.4271  3.3022  0.0204
  244SOL     OW  730   2.146   0.462   2.706 -0.2572 -0.1154  0.2859
  244SOL    HW1  731   2.069   0.517   2.676 -0.7888  1.6150  0.0553
  244SOL    HW2  732   2.206   0.502   2.776 -0.1626 -3.5305  0.1669
  245SOL     OW  733   1.476   0.499   1.268  0.3924 -0.3478  0.2461
  245SOL    HW1  734   1.417   0.575   1.288  4.0826 -1.7439  1.7452
  245SOL    HW2  735   1.426   0.412   1.248 -0.8520 -1.9284 -0.6370
  246SOL     OW  736   1.689   2.480   3.021  0.6428  0.2459  0.2393
  246SOL    HW1  737   1.758   2.457   2.951 -1.3587  0.4213  2.0644
  246SOL    HW2  738   1.604   2.528   2.991  1.3035 -1.1576  0.1679
  247SOL     OW  739   1.197   0.713   2.176  0.2936 -0.3175 -0.2942
  247SOL    HW1  740   1.159   0.652   2.249 -0.6263 -2.5345  0.0143
  247SOL    HW2  741   1.254   0.653   2.120  0.4557  2.1694  0.2210
  248SOL     OW  742   0.527   1.800   1.916 -0.3688 -0.2393  0.0411
  248SOL    HW1  743   0.548   1.718   1.974  1.8106 -1.5028 -0.2278
  248SOL    HW2  744   0.467   1.866   1.969 -2.5698 -2.1845  2.3039
  249SOL     OW  745   2.509   0.328   0.423  0.4128 -0.0006 -0.2792
  249SOL    HW1  746   2.450   0.347   0.341 -4.2770 -0.0712 -1.3327
  249SOL    HW2  747   2.553   0.237   0.419  0.6345 -0.8724  1.5242
  250SOL     OW  748   2.769   0.384   2.801  0.2081  0.3003  0.2907
  250SOL    HW1  749   2.817   0.414   2.889  1.5911  0.5470  1.4561
  250SOL    HW2  750   2.825   0.384   2.717  2.2096  0.8083 -1.2384
  251SOL     OW  751   1.359   0.686   0.039  0.6985  0.0247  0.0099
  251SOL    HW1  752   1.377   0.780   3.071 -0.1364  1.3497  1.0584
  251SOL    HW2  753   1.260   0.680   0.067 -1.8311 -0.0493 -2.3189
  252SOL     OW  754   1.833   1.990   1.952  0.1029  0.2359 -0.3666
  252SOL    HW1  755   1.755   2.056   1.948 -1.1736  4.1749 -1.5783
  252SOL    HW2  756   1.848   1.964   2.051 -2.4551 -0.5210  1.5111
  253SOL     OW  757   2.269   2.441   1.092  0.5452 -0.2406 -0.7865
  253SOL    HW1  758   2.323   2.516   1.046 -1.4409  1.8117  3.0308
  253SOL    HW2  759   2.263   2.454   1.193  0.0217 -1.1650  2.9123
  254SOL     OW  760   2.429   1.278   0.667 -0.3356  0.1971 -0.1108
  254SOL    HW1  761   2.514   1.335   0.656 -1.3060 -0.1407 -1.0101
  254SOL    HW2  762   2.436   1.226   0.757  1.8426  1.9924 -0.4208
  255SOL     OW  763   1.342   0.279   1.206 -0.1054  0.3549  0.6527
  255SOL    HW1  764   1.302   0.201   1.253 -1.0593 -1.6748 -0.0620
  255SOL    HW2  765   1.369   0.249   1.110  2.2650 -0.6689 -1.4847
  256SOL     OW  766   1.407   2.204   1.481  0.1882  0.3550  0.0836
  256SOL    HW1  767   1.385   2.260   1.566  1.2628 -1.3627 -1.5090
  256SOL    HW2  768   1.345   2.221   1.401  0.8968 -0.1432  1.2190
  257SOL     OW  769   0.542   3.040   2.566 -0.5319 -0.4634 -0.2671
  257SOL    HW1  770   0.596   0.006   2.489 -1.8125  0.1917 -0.9820
  257SOL    HW2  771   0.585   2.955   2.603 -0.0035 -0.6736 -1.4845
  258SOL     OW  772   0.904   2.497   0.591  0.3589 -0.7363  0.0522
  258SOL    HW1  773   0.888   2.502   0.687 -1.5764  0.0149 -2.5499
  258SOL    HW2  774   0.996   2.459   0.564  0.3225 -0.9570 -0.7626
  259SOL     OW  775   1.437   0.206   2.707 -0.0657  0.0012 -0.4851
  259SOL    HW1  776   1.414   0.188   2.610  0.8446  0.5891  1.5861
  259SOL    HW2  777   1.388   0.145   2.771 -1.1750 -0.8080 -0.5674
  260SOL     OW  778   2.461   0.317   1.471 -0.4345 -0.8026 -0.1926
  260SOL    HW1  779   2.359   0.316   1.497  1.0246 -0.4887 -0.4503
  260SOL    HW2  780   2.500   0.228   1.495 -3.8326  1.3500 -2.0119
  261SOL     OW  781   0.718   0.552   2.623  0.1090  0.4127  0.3294
  261SOL    HW1  782   0.677   0.631   2.678 -1.2332 -2.8044 -1.3781
  261SOL    HW2  783   0.695   0.571   2.527  0.7294  0.3713 -0.8250
  262SOL     OW  784   0.597   2.411   2.138  0.0420 -0.2198  0.1910
  262SOL    HW1  785   0.499   2.418   2.117  1.9761 -0.9502 -0.7456
  262SOL    HW2  786   0.656   2.467   2.072 -0.7257  0.3469  0.9918
  263SOL     OW  787   0.291   1.530   2.609 -0.5930  0.1651 -0.4114
  263SOL    HW1  788   0.216   1.560   2.545  2.0292  0.2208 -2.1979
  263SOL    HW2  789   0.318   1.433   2.590 -0.4377  0.9369  1.8873
  264SOL     OW  790   1.155   1.634   0.679  0.6809 -0.1430 -0.1092
  264SOL    HW1  791   1.141   1.652   0.780 -2.9426  1.3580  3.5845
  264SOL    HW2  792   1.071   1.654   0.621  0.5099 -0.0281  0.7010
  265SOL     OW  793   1.360   2.578   0.439 -0.0084 -0.9008 -0.0967
  265SOL    HW1  794   1.458   2.548   0.439  1.7824 -0.5313 -0.3800
  265SOL    HW2  795   1.296   2.514   0.392 -2.0746  0.6333  2.8059
  266SOL     OW  796   1.839   0.681   1.227 -0.0806  0.2519 -0.5010
  266SOL    HW1  797   1.782   0.616   1.169 -1.0429 -0.3984 -1.2973
  266SOL    HW2  798   1.934   0.700   1.188 -0.3269 -2.8724 -0.6760
  267SOL     OW  799   2.529   1.213   2.862  0.2243 -0.1062  0.3369
  267SOL    HW1  800   2.498   1.124   2.825 -1.2676  1.7184 -1.7835
  267SOL    HW2  801   2.614   1.203   2.916 -3.4647  0.6267 -0.6319
  268SOL     OW  802   1.462   0.191   0.126  0.2653  0.0648  0.4239
  268SOL    HW1  803   1.487   0.182   0.225  0.0111 -0.6402  1.1363
  268SOL    HW2  804   1.390   0.267   0.118  2.0944  1.6566 -1.6312
  269SOL     OW  805   2.539   0.727   2.357 -0.2392  0.0540 -0.3974
  269SOL    HW1  806   2.629   0.771   2.328  2.1845 -0.5092 -2.6305
  269SOL    HW2  807   2.517   0.653   2.293  1.3247  2.5566 -1.8880
  270SOL     OW  808   2.977   1.554   0.270 -0.0325 -0.3172  0.7829
  270SOL    HW1  809   2.969   1.452   0.261  1.1474  0.4671 -2.0905
  270SOL    HW2  810   3.055   1.593   0.216  1.0073  1.8154  2.4142
  271SOL     OW  811   2.508   0.856   2.981  0.5407  0.1179 -0.1842
  271SOL    HW1  812   2.450   0.895   2.904  0.1974  2.1140 -0.1844
  271SOL    HW2  813   2.441   0.812   3.050 -2.8610  1.1292 -0.9841
  272SOL     OW  814   2.947   2.384   2.359  0.4053  0.2053  0.2207
  272SOL    HW1  815   2.957   2.326   2.273 -0.2607 -3.4619 -1.7710
  272SOL    HW2  816   2.884   2.334   2.422 -2.8956  2.2014 -2.2872
  273SOL     OW  817   0.244   2.962   0.606  0.7543 -0.1209  0.6070
  273SOL    HW1  818   0.296   2.931   0.520 -0.2592 -1.7893 -0.6070
  273SOL    HW2  819   0.170   3.029   0.575  0.3685  0.7977  1.4387
  274SOL     OW  820   0.674   2.270   0.793  0.1641  0.2566  0.7118
  274SOL    HW1  821   0.588   2.298   0.837  1.0290  1.5383 -3.2913
  274SOL    HW2  822   0.733   2.212   0.851 -0.9841 -0.5641 -2.9817
  275SOL     OW  823   2.513   0.909   0.558  0.2838  0.3736  0.5653
  275SOL    HW1  824   2.595   0.918   0.498  0.1042  0.3344 -0.2089
  275SOL    HW2  825   2.476   0.999   0.592 -1.4161  0.3447 -2.8907
  276SOL     OW  826   2.419   1.572   1.422  0.7361 -0.1720  0.4028
  276SOL    HW1  827   2.370   1.506   1.357  1.0315  0.0551 -3.1533
  276SOL    HW2  828   2.467   1.517   1.494  0.9833 -1.9637  1.4112
  277SOL     OW  829   2.576   2.923   0.650 -0.6086 -0.0142 -0.0605
  277SOL    HW1  830   2.527   2.970   0.726  2.4952 -3.2418 -3.4583
  277SOL    HW2  831   2.667   2.898   0.688  0.7606  0.0558  5.4197
  278SOL     OW  832   1.593   0.094   2.257  0.1132  0.1657 -0.3874
  278SOL    HW1  833   1.550   0.020   2.323 -1.7478 -3.8359  3.7185
  278SOL    HW2  834   1.615   0.181   2.302  1.4121  1.0939  1.9390
  279SOL     OW  835   1.662   2.632   0.847 -0.2954 -0.2749 -0.6125
  279SOL    HW1  836   1.668   2.691   0.763  1.5470  3.0440 -0.1192
  279SOL    HW2  837   1.720   2.546   0.828  0.4248 -0.1240 -1.2113
  280SOL     OW  838   0.657   1.141   0.804  0.3074 -0.4269  0.5688
  280SOL    HW1  839   0.678   1.217   0.871  0.0356 -1.5813 -1.6983
  280SOL    HW2  840   0.560   1.158   0.775  1.0100  0.9586  0.1638
  281SOL     OW  841   2.525   1.469   2.969 -0.1419 -0.5259 -0.5606
  281SOL    HW1  842   2.562   1.383   2.935 -0.0891  1.0406  0.6210
  281SOL    HW2  843   2.477   1.526   2.899 -0.2548  0.8879 -0.1286
  282SOL     OW  844   2.982   1.285   0.289 -0.1216  0.4346  0.4614
  282SOL    HW1  845   2.889   1.244   0.283  0.7753 -0.9474  0.0459
  282SOL    HW2  846   3.032   1.240   0.370 -0.6928 -1.3790 -2.6904
  283SOL     OW  847   1.678   2.787   2.679 -0.1216 -0.0657  0.0753
  283SOL    HW1  848   1.677   2.874   2.625 -1.5507  0.8268 -2.5324
  283SOL    HW2  849   1.745   2.717   2.644 -0.7695  1.3099 -0.7459
  284SOL     OW  850   1.071   0.203   0.101  0.3583  0.0944  0.7898
  284SOL    HW1  851   1.084   0.115   0.155 -0.5162 -0.6932  3.4618
  284SOL    HW2  852   1.136   0.273   0.131  1.2558  0.4098 -0.3205
  285SOL     OW  853   2.331   1.484   2.466  0.5494 -0.4077  0.3376
  285SOL    HW1  854   2.245   1.473   2.520 -2.5171  1.9119 -0.7028
  285SOL    HW2  855   2.300   1.512   2.375  0.1980 -1.2428  0.2621
  286SOL     OW  856   1.574   2.349   0.704 -0.0474  0.0958 -0.0352
  286SOL    HW1  857   1.664   2.388   0.722 -2.4350 -0.4349 -1.2809
  286SOL    HW2  858   1.523   2.324   0.788 -1.0420 -0.6768 -1.3104
  287SOL     OW  859   1.584   0.805   0.765 -0.3682  0.4392  0.7738
  287SOL    HW1  860   1.611   0.887   0.704  1.9361  1.2808  0.1162
  287SOL    HW2  861   1.536   0.729   0.716 -3.0958 -2.2317  0.0211
  288SOL     OW  862   0.796   2.845   2.378  0.6377  0.3612  0.2198
  288SOL    HW1  863   0.736   2.813   2.461 -3.9140 -2.6201  1.4693
  288SOL    HW2  864   0.769   2.937   2.350  2.4296 -1.2150 -0.4090
  289SOL     OW  865   0.006   1.357   0.748 -0.1245 -0.0838  0.7206
  289SOL    HW1  866   0.073   1.323   0.817 -0.6976 -0.3759  0.2158
  289SOL    HW2  867   2.989   1.330   0.781  0.9476 -1.9653 -1.6383
  290SOL     OW  868   1.210   2.306   0.766  0.0995 -0.3460 -0.0683
  290SOL    HW1  869   1.273   2.368   0.815  3.0426  3.0294  0.2566
  290SOL    HW2  870   1.202   2.333   0.669 -0.4253 -0.0836  0.6243
  291SOL     OW  871   1.508   2.948   0.524 -0.4399  0.1185  0.7738
  291SOL    HW1  872   1.417   2.904   0.544 -1.9884  0.4531  0.9759
  291SOL    HW2  873   1.581   2.902   0.580  0.4898 -0.3431  2.0730
  292SOL     OW  874   0.432   0.536   2.395 -0.2567  0.1507 -0.4339
  292SOL    HW1  875   0.457   0.457   2.452  0.2515  4.3301  1.9135
  292SOL    HW2  876   0.338   0.517   2.353  1.3279  1.2679  0.9224
  293SOL     OW  877   2.520   1.660   0.800 -0.0301 -0.3926  0.0121
  293SOL    HW1  878   2.532   1.725   0.728  1.1665 -3.2584  3.6841
  293SOL    HW2  879   2.510   1.703   0.892  0.9656 -0.9491  1.2681
  294SOL     OW  880   0.670   0.034   2.217  0.1409 -0.0749  0.3372
  294SOL    HW1  881   0.582   0.083   2.200 -2.4732  1.3020 -0.4441
  294SOL    HW2  882   0.709   3.051   2.142  1.6200  1.4436  1.8970
  295SOL     OW  883   1.126   1.685   0.955  0.6250 -0.5212  0.2328
  295SOL    HW1  884   1.169   1.616   1.021 -0.0660 -0.8337  0.5124
  295SOL    HW2  885   1.023   1.686   0.956 -0.0426 -2.0064  0.1705
  296SOL     OW  886   2.327   1.823   0.467  0.2115  0.5684  0.3031
  296SOL    HW1  887   2.294   1.872   0.383  2.3177  0.0250  1.3462
  296SOL    HW2  888   2.355   1.725   0.445  1.1213 -1.1378  2.1457
  297SOL     OW  889   2.481   3.039   2.939  0.5426 -0.0651 -0.3267
  297SOL    HW1  890   2.386   3.009   2.967  0.1257 -0.3863 -1.8613
  297SOL    HW2  891   2.549   2.970   2.964  0.0390 -0.0582  1.8115
  298SOL     OW  892   1.102   0.251   2.670  0.7023  0.6155 -0.5344
  298SOL    HW1  893   1.010   0.294   2.693 -0.0561  1.1143  2.2416
  298SOL    HW2  894   1.147   0.234   2.762 -1.0294 -0.5160 -1.1262
  299SOL     OW  895   0.973   2.701   1.972  0.1663  0.1284  0.6809
  299SOL    HW1  896   0.933   2.760   1.900  1.4619  0.5786 -0.2236
  299SOL    HW2  897   0.955   2.733   2.067  1.1176 -1.1467 -1.8260
  300SOL     OW  898   2.749   2.919   2.003 -0.4328 -0.0788 -0.3036
  300SOL    HW1  899   2.733   2.914   2.103 -1.3458  0.3322  0.6177
  300SOL    HW2  900   2.825   2.980   1.975 -0.8811 -1.3791 -1.3887
  301SOL     OW  901   1.492   0.333   1.676  0.1217  0.3954  0.4886
  301SOL    HW1  902   1.409   0.295   1.628 -0.2691  0.6674 -2.0563
  301SOL    HW2  903   1.582   0.310   1.630  0.7502 -0.2958 -1.4567
  302SOL     OW  904   0.311   2.313   2.989 -0.9645  0.2525 -0.0804
  302SOL    HW1  905   0.377   2.273   3.056 -2.3847 -1.0702  1.5488
  302SOL    HW2  906   0.255   2.384   3.034 -1.9270  0.3824  0.4843
  303SOL     OW  907   1.770   2.450   1.530 -0.2265 -0.2495 -0.2099
  303SOL    HW1  908   1.710   2.371   1.564  1.8935 -4.4400  3.1684
  303SOL    HW2  909   1.859   2.452   1.578  2.3875  0.2193 -0.4910
  304SOL     OW  910   2.801   0.811   1.260 -0.1510  0.1865  0.0551
  304SOL    HW1  911   2.819   0.730   1.205 -2.9585  1.2533  3.1955
  304SOL    HW2  912   2.865   0.889   1.227  2.8230 -0.4081 -1.8171
  305SOL     OW  913   0.416   1.311   0.707 -0.7753  0.5296 -0.5142
  305SOL    HW1  914   0.446   1.401   0.740 -2.1594  0.0738 -4.1943
  305SOL    HW2  915   0.360   1.322   0.625  1.4561 -1.8658  0.0814
  306SOL     OW  916   0.404   1.306   2.891 -0.0876 -0.2482  0.2595
  306SOL    HW1  917   0.450   1.253   2.964 -0.3352 -1.8071 -0.1883
  306SOL    HW2  918   0.391   1.255   2.799  0.4114  0.4203  0.5069
  307SOL     OW  919   1.099   3.034   1.726 -0.2197  0.3670  0.3282
  307SOL    HW1  920   1.189   3.016   1.677  1.8996 -0.5313  1.4654
  307SOL    HW2  921   1.102   3.018   1.823  1.9277 -0.9094 -0.5725
  308SOL     OW  922   0.328   0.885   1.013  0.2062  0.1637 -0.0643
  308SOL    HW1  923   0.356   0.930   1.100  1.4745 -0.9463  0.9241
  308SOL    HW2  924   0.336   0.951   0.934 -3.0004 -1.0059 -1.7617
  309SOL     OW  925   2.418   1.133   0.883  0.2690 -0.7603  0.2203
  309SOL    HW1  926   2.329   1.090   0.858  1.4679 -0.3286 -2.0055
  309SOL    HW2  927   2.411   1.202   0.957  1.8615 -1.6315  0.9574
  310SOL     OW  928   0.437   1.679   2.775 -0.1376 -0.0376  0.2066
  310SOL    HW1  929   0.376   1.619   2.717 -1.2219 -0.0330 -0.9103
  310SOL    HW2  930   0.378   1.740   2.831  1.6376  2.1929  0.5795
  311SOL     OW  931   2.469   2.610   2.450 -0.3416  0.1682  0.6307
  311SOL    HW1  932   2.512   2.639   2.363  1.9078 -1.6634 -1.4426
  311SOL    HW2  933   2.502   2.662   2.532 -1.0536  0.1044  0.2967
  312SOL     OW  934   2.044   2.130   2.949  0.1019 -0.4346 -0.9390
  312SOL    HW1  935   2.011   2.096   3.039  0.9527  1.6091  0.3397
  312SOL    HW2  936   2.133   2.092   2.922 -2.0388  0.2474 -0.5674
  313SOL     OW  937   0.544   0.077   0.444 -0.0291  0.1547 -0.5514
  313SOL    HW1  938   0.639   0.115   0.457 -0.6703  1.1047 -0.7024
  313SOL    HW2  939   0.523   0.013   0.522 -2.6595  1.8993  1.1465
  314SOL     OW  940   2.295   1.271   2.729  0.6399  0.1514 -0.4050
  314SOL    HW1  941   2.251   1.361   2.707  0.3261  2.7593 -0.9249
  314SOL    HW2  942   2.378   1.273   2.792  4.7169 -0.6039  3.4315
  315SOL     OW  943   1.688   0.310   2.407  0.1225 -0.3667 -0.0425
  315SOL    HW1  944   1.716   0.354   2.494  0.5075 -1.3402 -0.2922
  315SOL    HW2  945   1.664   0.378   2.334 -1.4884  0.1193  3.4241
  316SOL     OW  946   0.025   0.781   0.654 -0.1835  0.1309 -0.7544
  316SOL    HW1  947   0.043   0.684   0.637  0.1814 -0.4316 -1.0753
  316SOL    HW2  948   0.005   0.792   0.756  0.3107  1.5851  2.3086
  317SOL     OW  949   0.561   2.839   2.848 -0.1848 -0.3498  0.3869
  317SOL    HW1  950   0.465   2.883   2.857  1.3791  1.9161 -1.0746
  317SOL    HW2  951   0.617   2.885   2.919 -2.4202  3.6979  0.0417
  318SOL     OW  952   2.424   2.642   0.987 -0.1580  0.1823 -0.7720
  318SOL    HW1  953   2.421   2.687   0.895 -0.0133 -2.6340  0.0278
  318SOL    HW2  954   2.518   2.602   0.991  2.9183  1.1977 -0.5599
  319SOL     OW  955   1.045   1.700   3.001 -0.1126  0.2423  0.6489
  319SOL    HW1  956   1.092   1.750   0.007  3.5643  0.3749  1.9168
  319SOL    HW2  957   1.073   1.744   2.917 -1.5575  2.3761 -1.9345
  320SOL     OW  958   0.709   1.817   1.249  0.0233  0.1126 -0.5772
  320SOL    HW1  959   0.661   1.751   1.314  1.4656  0.5166  1.1426
  320SOL    HW2  960   0.649   1.853   1.175  0.1729  0.3306  0.1956
  321SOL     OW  961   1.246   2.663   1.964 -0.1390 -0.0300  0.4564
  321SOL    HW1  962   1.149   2.648   1.985  1.1090  1.1468 -1.4342
  321SOL    HW2  963   1.273   2.762   1.968 -0.1732 -1.4256 -0.2062
  322SOL     OW  964   2.318   1.603   2.216 -0.0211  0.2917 -0.1969
  322SOL    HW1  965   2.395   1.542   2.247 -1.1250  0.9068 -0.4511
  322SOL    HW2  966   2.347   1.697   2.206 -0.2293  0.1630  0.4318
  323SOL     OW  967   2.780   0.212   0.674 -0.3504 -0.4502 -0.1124
  323SOL    HW1  968   2.772   0.301   0.720  0.4650 -1.1361 -0.9757
  323SOL    HW2  969   2.758   0.135   0.734 -0.0573  0.4826 -0.2638
  324SOL     OW  970   3.002   2.611   2.520 -0.6861  0.2369  0.3935
  324SOL    HW1  971   0.007   2.595   2.582 -2.4535 -1.6293 -2.7918
  324SOL    HW2  972   2.980   2.527   2.466  0.3764  2.6899  0.3895
  325SOL     OW  973   1.105   0.526   2.368  0.1133  0.2398  0.0332
  325SOL    HW1  974   1.063   0.437   2.340 -2.3396 -0.7860 -0.4744
  325SOL    HW2  975   1.177   0.506   2.437 -1.4483  0.6671 -2.7545
  326SOL     OW  976   2.144   2.626   1.574 -0.2434  0.6386 -0.6053
  326SOL    HW1  977   2.184   2.680   1.652  1.7050 -1.6787  1.7706
  326SOL    HW2  978   2.089   2.556   1.605  1.0106  1.3526  0.4765
  327SOL     OW  979   2.307   3.058   0.259  0.0430  0.3032  0.5456
  327SOL    HW1  980   2.267   0.078   0.277  0.4911 -0.3023  0.4852
  327SOL    HW2  981   2.276   2.983   0.318  1.2282  0.8829 -2.3175
  328SOL     OW  982   0.108   1.243   1.592  0.0390 -0.1670  0.2222
  328SOL    HW1  983   0.196   1.198   1.620 -0.1731 -0.6446 -0.0041
  328SOL    HW2  984   0.068   1.305   1.664  1.1850  2.0704 -1.5094
  329SOL     OW  985   2.015   0.591   1.531 -0.0298 -0.0133  0.0897
  329SOL    HW1  986   1.920   0.564   1.527  2.7373  1.4810 -1.8839
  329SOL    HW2  987   2.066   0.536   1.605  0.1533 -1.7454 -1.0769
  330SOL     OW  988   0.116   0.792   1.151  0.3162  0.3993 -0.2125
  330SOL    HW1  989   0.054   0.809   1.070 -1.5552  2.0843  0.6138
  330SOL    HW2  990   0.208   0.830   1.132  1.2364  0.5026  1.4383
  331SOL     OW  991   0.728   1.257   1.966  0.1477 -0.2174  0.1449
  331SOL    HW1  992   0.811   1.299   1.918  0.3550 -0.2432  0.5644
  331SOL    HW2  993   0.725   1.289   2.061 -0.4994 -0.6242 -0.0266
  332SOL     OW  994   0.219   2.545   1.535  0.5473 -0.0546 -0.2562
  332SOL    HW1  995   0.123   2.572   1.514 -1.1953  1.1424  0.0316
  332SOL    HW2  996   0.224   2.448   1.542  1.4502  3.8080  0.1112
  333SOL     OW  997   2.886   2.950   0.730  0.3618 -0.0456 -0.3604
  333SOL    HW1  998   2.888   3.026   0.797 -2.8793  0.0789 -2.0549
  333SOL    HW2  999   2.901   2.867   0.787 -0.1905  2.3404  1.8605
  334SOL     OW 1000   0.077   1.235   0.513  0.3305  0.6300  0.0076
  334SOL    HW1 1001   0.148   1.301   0.473  0.9385  1.2197 -3.1562
  334SOL    HW2 1002   0.049   1.279   0.599  0.1077 -0.9869 -2.0221
  335SOL     OW 1003   0.412   2.559   2.737 -0.4224  0.7393 -0.2379
  335SOL    HW1 1004   0.370   2.652   2.745  1.6805 -0.5362  0.9394
  335SOL    HW2 1005   0.500   2.548   2.788  0.5632 -0.8185  3.7161
  336SOL     OW 1006   2.933   2.584   2.176  0.5276  0.4264  0.6228
  336SOL    HW1 1007   2.954   2.521   2.252 -2.6921  0.0780 -0.5940
  336SOL    HW2 1008   2.833   2.585   2.163  2.4304 -1.1141 -1.4888
  337SOL     OW 1009   1.960   2.193   1.771 -0.1605  0.4511  0.0296
  337SOL    HW1 1010   1.888   2.127   1.797  1.1973 -1.5484  2.1264
  337SOL    HW2 1011   2.039   2.162   1.710  2.3235 -0.6021 -0.8503
  338SOL     OW 1012   0.881   0.380   2.743 -0.1425 -0.1980 -0.3722
  338SOL    HW1 1013   0.813   0.333   2.807 -1.3937  1.9718  1.0147
  338SOL    HW2 1014   0.823   0.449   2.689 -1.9205  0.6845 -1.6103
  339SOL     OW 1015   0.343   1.088   2.107  0.0761 -0.0991  0.1185
  339SOL    HW1 1016   0.265   1.108   2.044  0.0038 -1.5139 -1.0654
  339SOL    HW2 1017   0.384   1.171   2.146  0.1355  1.4959  0.7849
  340SOL     OW 1018   2.187   2.911   0.784  0.3024 -0.3118  0.7533
  340SOL    HW1 1019   2.251   2.833   0.758  3.4081  1.6713  0.9980
  340SOL    HW2 1020   2.102   2.889   0.838 -2.7250 -1.0787  1.5796
  341SOL     OW 1021   2.035   1.279   0.869 -0.2038 -0.0725 -0.6321
  341SOL    HW1 1022   2.041   1.183   0.846  2.6785  1.5288  0.5503
  341SOL    HW2 1023   2.109   1.329   0.829  0.5713 -0.8611 -2.3727
  342SOL     OW 1024   2.039   2.569   3.035  0.1583 -0.4132 -0.3303
  342SOL    HW1 1025   2.141   2.551   3.030  1.3928  0.0405  0.6021
  342SOL    HW2 1026   2.012   2.554   0.058  1.5110 -0.6646 -0.5045
  343SOL     OW 1027   0.896   2.060   1.475  0.3912 -0.1128  0.0977
  343SOL    HW1 1028   0.951   2.124   1.529 -0.7444 -2.4480 -1.1617
  343SOL    HW2 1029   0.866   2.096   1.384  3.3322  0.9994 -2.6584
  344SOL     OW 1030   2.289   2.467   1.356  0.4988  0.1493  0.1396
  344SOL    HW1 1031   2.234   2.526   1.417 -2.4810 -0.3942 -0.2470
  344SOL    HW2 1032   2.386   2.503   1.364  1.0409 -2.0588  0.2289
  345SOL     OW 1033   2.631   1.892   3.067  0.2872 -0.3213 -0.1945
  345SOL    HW1 1034   2.693   1.896   2.988 -0.2385 -0.2269 -1.1560
  345SOL    HW2 1035   2.671   1.836   0.075 -4.0291 -0.7480  0.4948
  346SOL     OW 1036   1.796   2.293   1.126 -0.2594 -0.0857  0.0307
  346SOL    HW1 1037   1.885   2.309   1.079 -1.6184 -0.9530  3.2516
  346SOL    HW2 1038   1.718   2.288   1.058 -2.4281  0.0554 -2.0983
  347SOL     OW 1039   1.419   1.872   1.254 -0.3378  0.4923  0.1401
  347SOL    HW1 1040   1.418   1.951   1.195 -2.3017 -2.3121  0.4643
  347SOL    HW2 1041   1.351   1.878   1.328  0.1671 -0.4325  0.6341
  348SOL     OW 1042   0.654   1.700   2.279  0.4625 -0.5742  0.2830
  348SOL    HW1 1043   0.634   1.796   2.306  0.7886  0.9388  0.3158
  348SOL    HW2 1044   0.755   1.690   2.278  1.5316 -3.0763  0.9190
  349SOL     OW 1045   1.935   1.693   0.907  0.0925 -0.0745 -0.2296
  349SOL    HW1 1046   1.880   1.769   0.954  2.3704  0.3580  2.2321
  349SOL    HW2 1047   1.890   1.603   0.909  1.3565  0.6287  0.4494
  350SOL     OW 1048   2.811   2.647   0.473  0.4728 -0.1576  0.0577
  350SOL    HW1 1049   2.789   2.554   0.443 -1.3756 -1.7711  3.3376
  350SOL    HW2 1050   2.847   2.636   0.569  0.4164 -3.2541 -1.2647
  351SOL     OW 1051   0.700   2.831   1.527  0.1812 -0.0666 -0.1037
  351SOL    HW1 1052   0.783   2.891   1.531  1.0500  0.0860  1.2463
  351SOL    HW2 1053   0.667   2.819   1.429 -0.0719  0.4721 -1.8749
  352SOL     OW 1054   0.288   1.662   1.159  0.7518  0.0461 -0.6234
  352SOL    HW1 1055   0.336   1.575   1.134  2.4378 -2.2547 -2.0041
  352SOL    HW2 1056   0.241   1.648   1.251 -1.0800  0.0583 -0.8453
  353SOL     OW 1057   1.041   1.418   2.286 -0.3742 -0.2196  0.4965
  353SOL    HW1 1058   0.955   1.364   2.265 -2.8261 -0.7847  0.9268
  353SOL    HW2 1059   1.124   1.353   2.292 -2.2469 -2.6461 -1.3408
  354SOL     OW 1060   1.383   0.026   1.746  0.3739 -0.6939 -0.1225
  354SOL    HW1 1061   1.326   0.099   1.707 -0.2629 -1.7966 -1.3181
  354SOL    HW2 1062   1.480   0.056   1.735 -2.5752  0.6404 -0.0657
  355SOL     OW 1063   2.346   1.192   0.417  0.0907 -0.2786 -0.4190
  355SOL    HW1 1064   2.403   1.217   0.497  1.0321  1.0646 -0.3657
  355SOL    HW2 1065   2.306   1.272   0.369  2.0900  1.3460 -1.7754
  356SOL     OW 1066   3.015   1.760   1.455 -0.0476 -0.1139 -0.0358
  356SOL    HW1 1067   2.918   1.764   1.484  0.4871 -0.1551 -0.0726
  356SOL    HW2 1068   3.026   1.793   1.360  0.8898 -3.1275 -1.5856
  357SOL     OW 1069   0.379   2.661   1.365 -0.3263  0.4652 -0.3049
  357SOL    HW1 1070   0.319   2.596   1.417  2.6259  2.1192 -0.7579
  357SOL    HW2 1071   0.351   2.758   1.374  1.9212 -0.6170  0.4965
  358SOL     OW 1072   2.691   1.469   1.818 -0.3698 -0.3329  0.2351
  358SOL    HW1 1073   2.666   1.460   1.719  1.2035  0.7649  1.8464
  358SOL    HW2 1074   2.619   1.500   1.881 -0.3261 -0.3971 -2.3896
  359SOL     OW 1075   2.319   2.839   2.705  0.1602  0.3348 -0.6141
  359SOL    HW1 1076   2.258   2.840   2.624  0.3500  3.1709  1.5075
  359SOL    HW2 1077   2.302   2.924   2.758 -1.5811 -0.2203 -1.4937
  360SOL     OW 1078   0.892   0.220   0.961  0.4635 -0.1088 -0.0477
  360SOL    HW1 1079   0.986   0.216   0.995 -1.2080 -0.6139 -0.9567
  360SOL    HW2 1080   0.843   0.144   1.010  0.3979  0.9197 -3.4803
  361SOL     OW 1081   2.051   0.310   0.938  0.1602  0.2241  0.7585
  361SOL    HW1 1082   2.103   0.394   0.919 -1.1732 -2.4029 -2.2596
  361SOL    HW2 1083   2.111   0.241   0.975  1.2907  0.7429  2.2185
  362SOL     OW 1084   1.951   1.197   1.165  0.3582  0.0090  0.1462
  362SOL    HW1 1085   1.998   1.240   1.085 -0.0369 -0.6513 -2.1172
  362SOL    HW2 1086   2.004   1.114   1.196 -0.1894 -0.2759 -2.1844
  363SOL     OW 1087   2.105   1.223   2.369 -0.3114  0.3476  0.0635
  363SOL    HW1 1088   2.043   1.303   2.358  2.1840  1.0951  2.0072
  363SOL    HW2 1089   2.185   1.228   2.304 -1.5085  2.5042 -2.0374
  364SOL     OW 1090   0.320   0.226   1.245 -0.7352 -0.5545  0.3338
  364SOL    HW1 1091   0.258   0.294   1.290  1.2263  0.8957 -0.2609
  364SOL    HW2 1092   0.262   0.151   1.217 -0.5611  3.2863 -0.6732
  365SOL     OW 1093   0.701   0.255   2.892 -0.5681 -0.4924  0.2637
  365SOL    HW1 1094   0.629   0.187   2.857 -0.0261  1.9096  2.1542
  365SOL    HW2 1095   0.778   0.204   2.946  2.5288 -1.2720 -0.3372
  366SOL     OW 1096   1.885   2.483   2.827 -0.5945  0.7884 -0.0599
  366SOL    HW1 1097   1.872   2.547   2.747  1.2906  1.8742  0.7240
  366SOL    HW2 1098   1.946   2.512   2.903 -3.6943  0.5349  1.4337
  367SOL     OW 1099   3.040   2.479   2.861  0.0547 -0.3573  0.4354
  367SOL    HW1 1100   2.999   2.570   2.847 -2.6192 -0.3599  1.1483
  367SOL    HW2 1101   3.068   2.470   2.961  0.0877  0.3059  0.3422
  368SOL     OW 1102   0.090   1.225   1.325  0.4438 -0.0151 -0.3946
  368SOL    HW1 1103   0.066   1.313   1.283  2.2833  0.6113 -2.0419
  368SOL    HW2 1104   0.092   1.236   1.425 -0.5278  0.3352 -1.7903
  369SOL     OW 1105   0.901   3.022   2.758  0.4120  0.6335  0.3066
  369SOL    HW1 1106   0.930   2.923   2.755 -2.6171 -0.2157  0.6424
  369SOL    HW2 1107   0.859   3.046   2.666  0.1489  2.2853 -1.8970
  370SOL     OW 1108   2.751   0.475   0.400  0.4570 -0.6680 -0.2413
  370SOL    HW1 1109   2.656   0.450   0.398  1.7519 -2.4572  2.2811
  370SOL    HW2 1110   2.811   0.393   0.394  0.0741  2.2985  1.9969
  371SOL     OW 1111   1.623   2.014   0.872  0.6064  0.0653  0.4811
  371SOL    HW1 1112   1.552   2.001   0.799  0.2697  0.1832  0.7566
  371SOL    HW2 1113   1.697   2.059   0.822  1.6887 -2.5272 -0.3410
  372SOL     OW 1114   2.888   0.734   2.601 -0.2350 -0.4206  0.0076
  372SOL    HW1 1115   2.974   0.780   2.582 -1.3039  0.6830  0.4582
  372SOL    HW2 1116   2.846   0.766   2.690 -2.5682  1.7071 -1.6133
  373SOL     OW 1117   2.851   1.592   1.084  0.3712  0.0746  0.1269
  373SOL    HW1 1118   2.894   1.658   1.022 -1.0119 -0.3005  3.4456
  373SOL    HW2 1119   2.790   1.535   1.029  0.8663 -0.4062  0.2637
  374SOL     OW 1120   0.672   2.982   0.015  0.4801 -0.7566  0.1376
  374SOL    HW1 1121   0.617   3.029   0.090 -0.1825  0.9550  1.6104
  374SOL    HW2 1122   0.736   3.048   3.051 -1.0338  0.9049  2.1892
  375SOL     OW 1123   0.199   3.013   0.078  0.0007 -0.3956 -0.2459
  375SOL    HW1 1124   0.227   3.040   0.173  0.0079 -0.9864  1.6188
  375SOL    HW2 1125   0.112   3.065   0.059 -0.3044  0.5909 -1.0873
  376SOL     OW 1126   3.036   2.075   1.443  0.0059 -0.4165 -0.2876
  376SOL    HW1 1127   2.997   2.039   1.526 -1.3703 -0.6319 -1.1957
  376SOL    HW2 1128   3.013   2.017   1.361  0.2598 -0.2853  2.5718
  377SOL     OW 1129   1.623   2.401   2.627 -0.8593  0.7203  0.3923
  377SOL    HW1 1130   1.546   2.379   2.693  0.1421  2.0200 -0.8583
  377SOL    HW2 1131   1.709   2.401   2.680  1.9314  0.8449  0.0256
  378SOL     OW 1132   0.531   0.442   3.015 -0.3798 -0.2299  0.5192
  378SOL    HW1 1133   0.524   0.538   2.994  0.5161 -0.3678  2.2890
  378SOL    HW2 1134   0.600   0.396   2.953 -1.6967 -2.4557 -1.8024
  379SOL     OW 1135   0.586   0.888   0.367 -0.0512 -0.1852 -0.7834
  379SOL    HW1 1136   0.652   0.962   0.389  1.7628 -0.8524  0.2040
  379SOL    HW2 1137   0.495   0.927   0.347  0.3361  0.6846  0.4447
  380SOL     OW 1138   3.061   1.826   1.928  0.5880 -0.1795  0.0807
  380SOL    HW1 1139   3.007   1.746   1.903  1.2829 -1.9878 -0.1538
  380SOL    HW2 1140   0.072   1.801   1.978 -3.8217  0.4289 -3.0056
  381SOL     OW 1141   0.320   1.098   1.697  0.1125 -0.2276 -0.0940
  381SOL    HW1 1142   0.384   1.159   1.748 -1.2724 -1.3098 -2.4351
  381SOL    HW2 1143   0.371   1.038   1.630  0.9618 -1.1266 -0.2699
  382SOL     OW 1144   2.465   2.102   0.344 -0.2555 -0.2629 -0.0273
  382SOL    HW1 1145   2.363   2.101   0.358  0.2081 -0.4746 -0.5423
  382SOL    HW2 1146   2.478   2.110   0.244  0.3126  0.9707  1.4455
  383SOL     OW 1147   2.757   1.967   2.835  0.0070 -0.3045  0.1704
  383SOL    HW1 1148   2.840   1.913   2.860 -0.7147  0.6363 -1.4836
  383SOL    HW2 1149   2.784   2.066   2.811 -1.1349  3.6549 -0.7710
  384SOL     OW 1150   0.514   2.241   2.505  0.0035  0.7830  0.1809
  384SOL    HW1 1151   0.479   2.235   2.600 -1.0259 -0.9716 -3.4641
  384SOL    HW2 1152   0.448   2.284   2.440  1.1329 -0.1191  1.3487
  385SOL     OW 1153   2.997   1.089   1.017  0.4239 -0.2970 -0.7504
  385SOL    HW1 1154   2.962   1.073   1.114 -0.6467  0.7783  2.2823
  385SOL    HW2 1155   2.944   1.162   0.967 -2.2675  2.3930 -0.1188
  386SOL     OW 1156   2.097   1.640   1.553 -0.2979 -0.1578  0.1431
  386SOL    HW1 1157   2.141   1.712   1.610 -1.1776  1.9061 -2.2476
  386SOL    HW2 1158   2.093   1.672   1.458  1.1960  0.3348  1.5573
  387SOL     OW 1159   2.727   1.200   1.882  0.2821  0.1924  0.4622
  387SOL    HW1 1160   2.804   1.167   1.823 -1.8806 -1.4846  1.4463
  387SOL    HW2 1161   2.696   1.288   1.849 -0.0784 -1.1064 -1.0212
  388SOL     OW 1162   2.806   1.262   2.134 -0.1611 -0.1979 -0.1421
  388SOL    HW1 1163   2.768   1.174   2.173 -0.3675  0.1981 -1.0496
  388SOL    HW2 1164   2.803   1.253   2.034  1.1228  0.7798  2.0725
  389SOL     OW 1165   2.037   1.239   1.969  0.5041  0.2414  0.2967
  389SOL    HW1 1166   1.994   1.161   2.017 -0.0887  0.8291 -0.3285
  389SOL    HW2 1167   2.132   1.203   1.940 -0.8341 -2.0696  0.2239
  390SOL     OW 1168   1.745   2.662   0.417 -0.1174 -0.0600  0.3967
  390SOL    HW1 1169   1.838   2.658   0.457  1.5270  3.2199 -0.3425
  390SOL    HW2 1170   1.697   2.569   0.420 -0.2242  1.3729  0.2757
  391SOL     OW 1171   2.186   1.787   0.891  0.7618 -0.7112 -0.0105
  391SOL    HW1 1172   2.218   1.844   0.969  0.0688  0.9233  0.6823
  391SOL    HW2 1173   2.086   1.756   0.894 -2.2692 -0.8101  1.3674
  392SOL     OW 1174   2.812   2.432   1.063  0.0940  0.0579  0.1882
  392SOL    HW1 1175   2.884   2.398   0.993 -0.4450 -3.2013 -1.4059
  392SOL    HW2 1176   2.845   2.504   1.125  0.3103 -1.0295 -5.2831
  393SOL     OW 1177   1.735   1.819   2.791 -0.9528  0.2178  0.2789
  393SOL    HW1 1178   1.817   1.814   2.860  1.1739  0.4832 -0.4467
  393SOL    HW2 1179   1.681   1.728   2.792  2.5391 -1.2900  1.5273
  394SOL     OW 1180   0.220   0.203   2.816 -0.2596  0.1092 -0.4001
  394SOL    HW1 1181   0.161   0.121   2.828 -0.4779  1.5335  0.9910
  394SOL    HW2 1182   0.289   0.209   2.893  2.2902 -1.9612  3.5741
  395SOL     OW 1183   0.710   0.854   0.818  0.2486  0.3714  0.4473
  395SOL    HW1 1184   0.805   0.815   0.822 -1.1328  0.5821  0.6933
  395SOL    HW2 1185   0.718   0.954   0.818 -0.3354 -2.8910  0.7965
  396SOL     OW 1186   1.194   1.093   0.753  0.5176 -0.6209  0.3523
  396SOL    HW1 1187   1.224   1.010   0.800  0.1636 -0.3445  0.2967
  396SOL    HW2 1188   1.272   1.119   0.688  2.5341 -1.5434 -0.4564
  397SOL     OW 1189   0.582   0.716   2.075  0.0405  0.3909 -0.1902
  397SOL    HW1 1190   0.480   0.696   2.073 -0.2039 -2.1099  0.4628
  397SOL    HW2 1191   0.600   0.815   2.062 -0.1031 -1.7327  0.1824
  398SOL     OW 1192   1.110   0.151   0.533  0.0847  0.1517  0.2027
  398SOL    HW1 1193   1.171   0.198   0.472 -0.8539  0.3485 -0.2521
  398SOL    HW2 1194   1.162   0.094   0.596 -0.9747  1.6685 -1.5712
  399SOL     OW 1195   1.951   3.039   1.656 -0.1760  0.6075 -0.0569
  399SOL    HW1 1196   1.881   2.970   1.688  1.0447 -0.5901  1.2528
  399SOL    HW2 1197   1.930   0.058   1.693  0.0236  0.1190  0.1557
  400SOL     OW 1198   1.030   1.608   2.083  0.3554 -0.4974  0.2647
  400SOL    HW1 1199   1.092   1.676   2.124 -1.3901 -1.9172 -0.5001
  400SOL    HW2 1200   1.020   1.537   2.156  0.1758  1.9196 -0.9767
  401SOL     OW 1201   0.720   1.134   2.762  0.4240 -0.2737 -0.1648
  401SOL    HW1 1202   0.745   1.080   2.843 -0.1908  1.2364 -0.2335
  401SOL    HW2 1203   0.658   1.211   2.790  2.2283 -0.8301 -0.1080
  402SOL     OW 1204   2.731   1.952   0.914  0.8882  0.6664  0.2127
  402SOL    HW1 1205   2.814   1.897   0.907 -0.1486  0.1498 -1.3376
  402SOL    HW2 1206   2.643   1.910   0.948 -0.0136  0.1919  2.0254
  403SOL     OW 1207   3.038   0.966   2.043 -0.7413  0.1521  0.0353
  403SOL    HW1 1208   3.009   1.014   2.131 -2.2632 -0.6375  1.4643
  403SOL    HW2 1209   0.015   1.031   1.979 -1.5003  1.3463 -0.5416
  404SOL     OW 1210   0.170   2.722   1.788 -0.2228  0.2266 -0.0036
  404SOL    HW1 1211   0.238   2.711   1.861 -0.5805 -0.4532 -0.9383
  404SOL    HW2 1212   0.207   2.676   1.702  0.8666 -0.1856  0.4244
  405SOL     OW 1213   0.439   0.362   2.080 -0.1062 -0.0644 -0.0514
  405SOL    HW1 1214   0.460   0.440   2.140  1.5177  1.1871 -0.7000
  405SOL    HW2 1215   0.423   0.273   2.127  1.6993  1.0893 -0.4138
  406SOL     OW 1216   1.587   1.742   2.343  0.1143  0.0522 -0.6121
  406SOL    HW1 1217   1.551   1.792   2.259 -1.7148 -1.8380  2.2947
  406SOL    HW2 1218   1.626   1.656   2.318 -0.1149  0.9943  1.6005
  407SOL     OW 1219   1.282   1.294   2.217  0.1912  0.0588  0.3109
  407SOL    HW1 1220   1.342   1.303   2.129  0.5481 -2.1141 -2.8080
  407SOL    HW2 1221   1.305   1.205   2.261  3.6182 -0.3957 -0.5422
  408SOL     OW 1222   0.738   0.120   2.460 -0.2364 -0.0242  0.3993
  408SOL    HW1 1223   0.726   0.091   2.364 -0.4640 -0.1856  0.9710
  408SOL    HW2 1224   0.835   0.112   2.490  1.0698 -0.3067 -0.5455
  409SOL     OW 1225   0.406   1.968   0.529 -0.5330  0.8621 -0.2091
  409SOL    HW1 1226   0.457   1.895   0.580  0.3937 -0.6846  2.5939
  409SOL    HW2 1227   0.464   2.008   0.458  3.1447  0.9945 -0.0062
  410SOL     OW 1228   2.748   1.099   0.326 -0.0020 -0.2533 -0.0883
  410SOL    HW1 1229   2.785   1.008   0.288  0.8060  0.0253  1.1524
  410SOL    HW2 1230   2.677   1.132   0.263  0.4340 -1.3888  4.1588
  411SOL     OW 1231   0.140   0.040   1.151 -0.5763 -0.1608  0.1137
  411SOL    HW1 1232   0.145   0.094   1.060 -0.1835  0.5090 -0.6303
  411SOL    HW2 1233   0.038   0.029   1.167 -0.9237 -0.2578 -1.7162
  412SOL     OW 1234   1.517   1.004   1.456 -0.3102  0.3101  0.0307
  412SOL    HW1 1235   1.599   0.979   1.401 -1.3888  0.8413  0.5158
  412SOL    HW2 1236   1.449   0.928   1.467  0.9601  0.3751  3.1628
  413SOL     OW 1237   0.586   0.063   1.550 -0.5371  0.8537  0.6607
  413SOL    HW1 1238   0.610   0.160   1.556 -0.7540 -2.9960 -0.5685
  413SOL    HW2 1239   0.654   0.021   1.492  1.6601  2.9340 -0.2881
  414SOL     OW 1240   2.732   1.484   2.691 -0.5997  0.1015  0.5264
  414SOL    HW1 1241   2.721   1.582   2.709  0.9186  0.4695  2.9052
  414SOL    HW2 1242   2.758   1.430   2.771  0.1850 -0.5561  0.8723
  415SOL     OW 1243   0.673   2.527   2.873  0.0210  0.5027  0.4483
  415SOL    HW1 1244   0.715   2.534   2.778 -0.0402  0.7390  1.1973
  415SOL    HW2 1245   0.726   2.591   2.933 -1.1672  2.2559 -0.2307
  416SOL     OW 1246   2.027   2.927   0.191 -0.2064  0.4027  0.4326
  416SOL    HW1 1247   1.953   2.864   0.159 -2.7826 -2.0202  0.4209
  416SOL    HW2 1248   2.053   2.996   0.116 -0.8667  3.8475 -0.7616
  417SOL     OW 1249   0.308   0.615   0.632  0.4313 -0.6903 -0.1561
  417SOL    HW1 1250   0.399   0.643   0.610 -0.6470 -1.9667  1.5394
  417SOL    HW2 1251   0.293   0.626   0.731 -1.0360 -3.5178 -2.8638
  418SOL     OW 1252   2.493   0.360   1.206 -0.3610 -0.0228 -0.3208
  418SOL    HW1 1253   2.420   0.415   1.159 -0.4635  2.3187  0.4555
  418SOL    HW2 1254   2.475   0.358   1.306 -0.9119 -0.4148 -1.9030
  419SOL     OW 1255   0.062   0.072   0.521  0.1274 -0.5163  0.6475
  419SOL    HW1 1256   0.035   0.155   0.574  0.6495  1.4423  1.6240
  419SOL    HW2 1257   3.055   0.019   0.482 -0.1512 -0.7412 -1.1498
  420SOL     OW 1258   0.270   1.552   1.621 -0.0886 -0.0974 -0.7411
  420SOL    HW1 1259   0.342   1.603   1.671 -1.3661  2.2154 -2.0482
  420SOL    HW2 1260   0.303   1.463   1.587 -0.6500 -0.0713  3.4662
  421SOL     OW 1261   1.143   2.854   0.550  0.0596 -0.3397  0.5709
  421SOL    HW1 1262   1.055   2.902   0.533  3.8374  1.6948 -0.2292
  421SOL    HW2 1263   1.175   2.817   0.459 -0.3422 -0.6767 -1.2501
  422SOL     OW 1264   0.340   0.660   1.512 -0.7571 -0.2530  0.2586
  422SOL    HW1 1265   0.359   0.690   1.608  0.3624  0.8852  0.5590
  422SOL    HW2 1266   0.247   0.692   1.492  1.4360  1.4156  0.6817
  423SOL     OW 1267   1.135   1.345   1.417  0.2617  0.3793  0.3815
  423SOL    HW1 1268   1.143   1.341   1.521  1.5843 -1.2783  0.8525
  423SOL    HW2 1269   1.193   1.271   1.379 -0.7442  0.2402 -0.8811
  424SOL     OW 1270   2.075   1.376   3.004 -0.0355  0.6328 -0.4228
  424SOL    HW1 1271   2.046   1.440   0.004 -2.4636 -1.6452  0.7655
  424SOL    HW2 1272   1.997   1.360   2.938  1.0764 -1.2118  0.4071
  425SOL     OW 1273   0.166   0.146   2.015 -0.5452 -0.6807 -0.1012
  425SOL    HW1 1274   0.102   0.200   2.070  1.5706 -0.7843  0.6319
  425SOL    HW2 1275   0.112   0.087   1.954  0.9695  0.8980 -1.7106
  426SOL     OW 1276   0.354   2.970   2.936 -0.1043 -0.3968 -0.2263
  426SOL    HW1 1277   0.288   2.980   3.015  0.6302 -0.5440 -2.2078
  426SOL    HW2 1278   0.313   2.914   2.867  0.7237  1.9838  1.4040
  427SOL     OW 1279   1.145   0.991   2.755  0.2779 -0.1561 -0.2580
  427SOL    HW1 1280   1.242   1.012   2.745 -2.3850  2.1627 -1.6583
  427SOL    HW2 1281   1.108   1.029   2.843 -1.2101 -2.1296  0.6134
  428SOL     OW 1282   2.521   1.132   1.505  0.3105 -0.3769 -0.0866
  428SOL    HW1 1283   2.428   1.166   1.529  2.1371 -0.7870  0.0222
  428SOL    HW2 1284   2.523   1.129   1.405  0.4386  1.3704  3.6302
  429SOL     OW 1285   2.045   2.590   0.834 -0.0528  0.0136 -0.5399
  429SOL    HW1 1286   2.122   2.526   0.827  0.5808 -2.2752 -0.1626
  429SOL    HW2 1287   2.039   2.630   0.929  0.4751  0.7055 -3.1061
  430SOL     OW 1288   0.801   1.312   2.227  0.1949 -0.0822  0.4123
  430SOL    HW1 1289   0.794   1.216   2.257  1.7223 -0.6248 -0.8033
  430SOL    HW2 1290   0.749   1.378   2.285 -0.5503  1.1672 -0.1268
  431SOL     OW 1291   2.614   1.412   1.569 -0.1789 -0.9247  0.1272
  431SOL    HW1 1292   2.670   1.446   1.491  0.1257 -3.1874  2.5075
  431SOL    HW2 1293   2.587   1.323   1.553  0.4901  3.2080  0.9886
  432SOL     OW 1294   0.961   2.689   2.245 -0.2177  0.9510  0.3103
  432SOL    HW1 1295   0.881   2.737   2.288 -3.0660 -0.2712 -0.0891
  432SOL    HW2 1296   0.972   2.601   2.300 -0.6086 -0.9989  0.8674
  433SOL     OW 1297   1.912   0.213   2.272  0.8412 -0.0773  0.2697
  433SOL    HW1 1298   1.906   0.148   2.195  1.5650 -0.0606  2.5971
  433SOL    HW2 1299   1.823   0.214   2.327 -3.6763  1.6613  1.5494
  434SOL     OW 1300   0.462   2.670   2.460 -0.2801  0.0043 -0.3061
  434SOL    HW1 1301   0.414   2.582   2.472 -3.3679  0.4107  1.5846
  434SOL    HW2 1302   0.536   2.689   2.528  1.2984  0.6831  0.0758
  435SOL     OW 1303   0.324   2.856   0.374  0.0133  0.3247  0.7005
  435SOL    HW1 1304   0.375   2.930   0.327  0.7484  1.4735 -0.0666
  435SOL    HW2 1305   0.228   2.847   0.346  0.6917 -1.0694 -0.6557
  436SOL     OW 1306   0.792   0.577   2.125  0.7461 -0.2030 -0.0751
  436SOL    HW1 1307   0.702   0.618   2.087 -1.2105 -0.3817 -0.0758
  436SOL    HW2 1308   0.784   0.476   2.132  3.0764  2.2958 -1.0800
  437SOL     OW 1309   0.306   2.409   2.418  0.0226  0.1905  0.2970
  437SOL    HW1 1310   0.238   2.374   2.350 -0.1473 -0.3906 -0.6835
  437SOL    HW2 1311   0.267   2.417   2.514 -2.0476  2.6797  3.3453
  438SOL     OW 1312   0.535   1.308   1.762 -0.4172  0.1434  0.0900
  438SOL    HW1 1313   0.507   1.407   1.787 -0.6594  3.5900  0.6260
  438SOL    HW2 1314   0.607   1.279   1.825  2.5654 -0.2811 -1.1078
  439SOL     OW 1315   2.205   0.925   2.167  0.6786  0.1041  1.0744
  439SOL    HW1 1316   2.201   0.857   2.247 -0.5685 -0.1016 -0.7450
  439SOL    HW2 1317   2.202   1.024   2.196  2.7185  0.1465  1.3758
  440SOL     OW 1318   0.372   0.636   0.197  0.7277 -0.0375 -0.4839
  440SOL    HW1 1319   0.402   0.568   0.262  1.0164 -0.9610 -3.1174
  440SOL    HW2 1320   0.451   0.688   0.157 -1.0361 -0.6888 -1.4341
  441SOL     OW 1321   0.970   2.397   1.198  0.3983  0.2751 -0.1909
  441SOL    HW1 1322   0.910   2.451   1.262 -2.5751  2.9597  5.1211
  441SOL    HW2 1323   0.973   2.451   1.113  0.0450 -0.5220  1.2065
  442SOL     OW 1324   2.162   1.334   0.597  0.2723 -0.3252 -0.0054
  442SOL    HW1 1325   2.145   1.435   0.575 -0.2578  1.5634 -0.2380
  442SOL    HW2 1326   2.262   1.303   0.606 -0.5373  1.1604  1.7936
  443SOL     OW 1327   2.645   1.690   2.415  0.1646  0.1680  0.4037
  443SOL    HW1 1328   2.567   1.695   2.348 -1.1319 -1.7976 -1.6727
  443SOL    HW2 1329   2.705   1.615   2.385  0.7590  0.0915 -0.7020
  444SOL     OW 1330   1.631   1.371   3.021  0.1750  0.2948  0.0538
  444SOL    HW1 1331   1.647   1.423   0.035  0.5613  0.5523  2.1286
  444SOL    HW2 1332   1.561   1.293   3.031 -3.0887 -1.1281  1.2608
  445SOL     OW 1333   2.552   2.717   2.201 -0.4270  0.2052 -0.1003
  445SOL    HW1 1334   2.597   2.655   2.136  2.7342 -2.4601 -0.6009
  445SOL    HW2 1335   2.608   2.800   2.217  0.8346  3.3304 -2.1752
  446SOL     OW 1336   0.425   0.965   1.468  0.5597  0.2696 -0.2094
  446SOL    HW1 1337   0.465   0.872   1.463  1.4364 -0.6007  0.9903
  446SOL    HW2 1338   0.500   1.034   1.454 -0.7046  2.0331 -2.6170
  447SOL     OW 1339   0.810   1.335   0.959 -0.2141  0.0426  0.0818
  447SOL    HW1 1340   0.893   1.296   0.995  1.2883  2.9229 -1.8656
  447SOL    HW2 1341   0.760   1.371   1.036  0.0403 -1.7091 -0.5519
  448SOL     OW 1342   1.223   1.007   1.892  0.1920  0.7156  0.3102
  448SOL    HW1 1343   1.279   1.066   1.834  0.9586 -1.4705  0.6325
  448SOL    HW2 1344   1.161   0.949   1.831 -2.1574  0.0012  1.1851
  449SOL     OW 1345   2.968   1.950   2.227  0.0767 -0.3308  0.0614
  449SOL    HW1 1346   3.003   2.035   2.182  1.2533 -0.8694 -1.3429
  449SOL    HW2 1347   3.044   1.898   2.278 -0.5373 -1.3086  0.7334
  450SOL     OW 1348   2.737   1.886   2.072  0.2343  0.0357 -0.0669
  450SOL    HW1 1349   2.714   1.990   2.086 -0.8345  0.2530  1.2513
  450SOL    HW2 1350   2.834   1.873   2.103  0.8516  2.1875  1.5971
  451SOL     OW 1351   2.325   1.119   1.257 -0.5088  0.2021  0.2568
  451SOL    HW1 1352   2.230   1.080   1.235  0.8303  0.2258 -1.2601
  451SOL    HW2 1353   2.391   1.045   1.256 -2.8777  5.3752 -0.5783
  452SOL     OW 1354   0.410   1.399   1.361  0.1619  0.1077 -0.1130
  452SOL    HW1 1355   0.478   1.336   1.408 -1.8416  0.2238  0.7223
  452SOL    HW2 1356   0.329   1.352   1.326  1.8117 -0.1067  1.6841
  453SOL     OW 1357   0.376   1.417   1.053  0.0196 -0.6984  0.4286
  453SOL    HW1 1358   0.288   1.369   1.040 -1.3711  0.7014  0.3050
  453SOL    HW2 1359   0.441   1.346   1.095  0.6674  2.0183 -0.2037
  454SOL     OW 1360   0.405   1.626   0.179 -0.7124  0.1728  0.1288
  454SOL    HW1 1361   0.505   1.642   0.195  0.8802 -1.1368 -2.2118
  454SOL    HW2 1362   0.389   1.533   0.142 -1.2225  0.5852 -0.4961
  455SOL     OW 1363   1.939   0.922   0.973  0.3859  0.3010 -0.7489
  455SOL    HW1 1364   1.963   0.946   1.071  0.7531 -0.4529  0.5208
  455SOL    HW2 1365   1.878   0.844   0.974  1.5363 -0.7050 -1.8202
  456SOL     OW 1366   1.817   2.429   0.764 -0.0680 -0.2837 -0.1796
  456SOL    HW1 1367   1.891   2.495   0.798  1.2764  2.4797  0.8041
  456SOL    HW2 1368   1.828   2.333   0.795  0.4093  1.0906 -0.3559
  457SOL     OW 1369   1.994   2.917   2.680 -0.0788 -0.0075 -0.5268
  457SOL    HW1 1370   1.974   2.998   2.627  1.9471  0.4060  3.5062
  457SOL    HW2 1371   2.018   2.839   2.620 -0.1988 -1.1200  0.7845
  458SOL     OW 1372   2.308   0.300   0.223  0.0030 -0.2972  0.4400
  458SOL    HW1 1373   2.382   0.281   0.161  0.8696  0.7483  0.0641
  458SOL    HW2 1374   2.220   0.319   0.175  1.1728 -1.7950  0.9792
  459SOL     OW 1375   3.045   1.146   2.239  0.1563  0.1225  0.6296
  459SOL    HW1 1376   2.960   1.204   2.214  0.0818 -2.6606  1.2306
  459SOL    HW2 1377   0.056   1.204   2.237 -0.2764 -0.7616 -0.4503
  460SOL     OW 1378   0.158   0.621   0.055  0.7626 -0.0771 -0.2812
  460SOL    HW1 1379   0.165   0.656   3.032  0.3282  0.8429  1.6071
  460SOL    HW2 1380   0.241   0.641   0.111 -3.3404  2.3627 -1.2824
  461SOL     OW 1381   2.743   2.401   0.734 -0.2940 -0.2856  0.0606
  461SOL    HW1 1382   2.708   2.363   0.644  0.0244 -1.2778 -1.1440
  461SOL    HW2 1383   2.833   2.361   0.761  0.3338  0.5500 -0.8232
  462SOL     OW 1384   0.332   3.036   1.560  0.0652  0.6312 -0.5968
  462SOL    HW1 1385   0.424   0.002   1.553  1.3324 -0.7326  0.6635
  462SOL    HW2 1386   0.311   2.972   1.483  2.4899  2.8448  0.1262
  463SOL     OW 1387   2.060   2.213   2.028  0.1150  0.2556 -0.0094
  463SOL    HW1 1388   1.961   2.199   2.045  1.0258  3.4962 -0.5884
  463SOL    HW2 1389   2.079   2.234   1.935 -1.2306 -1.2939  3.2507
  464SOL     OW 1390   0.310   2.941   1.267 -0.1658  0.0715 -0.2599
  464SOL    HW1 1391   0.390   2.995   1.298  0.2682 -0.1959 -0.4721
  464SOL    HW2 1392   0.244   2.996   1.210  0.6937  1.4516  0.1417
  465SOL     OW 1393   0.657   0.318   1.537  0.2409  0.0386 -0.6455
  465SOL    HW1 1394   0.753   0.338   1.512 -0.6964 -0.0171  1.5370
  465SOL    HW2 1395   0.615   0.400   1.581 -0.9055  2.2958 -0.5571
  466SOL     OW 1396   1.514   1.784   1.861 -0.1910  0.5983 -0.4393
  466SOL    HW1 1397   1.580   1.764   1.786 -1.0927 -0.3413  0.2778
  466SOL    HW2 1398   1.424   1.806   1.820  2.2606  1.4229  2.1486
  467SOL     OW 1399   0.180   1.791   0.951  0.2407 -0.0890 -0.3806
  467SOL    HW1 1400   0.217   1.754   1.040  4.2094 -0.0936  0.9839
  467SOL    HW2 1401   0.198   1.733   0.873 -3.5453  2.2054  6.7210
  468SOL     OW 1402   2.304   1.981   2.639 -0.2301  0.0832  0.0653
  468SOL    HW1 1403   2.315   2.048   2.557  1.9545  1.1261 -1.8693
  468SOL    HW2 1404   2.225   1.920   2.616  1.2436  0.1930  0.1960
  469SOL     OW 1405   1.102   2.341   0.515 -0.4086  0.1191  0.5550
  469SOL    HW1 1406   1.040   2.260   0.511 -1.0789 -3.4334  0.7785
  469SOL    HW2 1407   1.142   2.356   0.420 -2.4654  0.5770  0.2825
  470SOL     OW 1408   1.880   1.643   1.241 -0.6873 -0.1185  0.1223
  470SOL    HW1 1409   1.948   1.718   1.258 -4.3020 -0.1677 -2.3914
  470SOL    HW2 1410   1.799   1.652   1.309 -0.7809 -1.0246  1.2842
  471SOL     OW 1411   0.674   2.581   0.134  0.4880 -0.2079  0.0933
  471SOL    HW1 1412   0.590   2.608   0.188 -0.2622 -0.7095 -3.5314
  471SOL    HW2 1413   0.700   2.661   0.070  0.7976  1.4413 -1.5918
  472SOL     OW 1414   2.492   1.819   2.213  0.3068 -0.0251  0.3640
  472SOL    HW1 1415   2.586   1.821   2.175 -3.8897 -2.6342 -1.2429
  472SOL    HW2 1416   2.453   1.909   2.185  0.7852  1.3403 -0.3017
  473SOL     OW 1417   1.263   2.625   0.702  0.2207  0.0013  0.2019
  473SOL    HW1 1418   1.317   2.603   0.621  1.2758 -2.0709  1.5457
  473SOL    HW2 1419   1.222   2.714   0.686  0.6134 -2.2064  1.8398
  474SOL     OW 1420   2.939   0.016   1.197  0.4170  0.2002  0.1245
  474SOL    HW1 1421   2.838   0.022   1.184 -0.4344 -0.1370  1.4974
  474SOL    HW2 1422   2.958   0.060   1.285 -1.9462 -1.6104 -1.8498
  475SOL     OW 1423   1.679   2.740   1.956  0.3483 -0.5352 -0.2251
  475SOL    HW1 1424   1.644   2.802   2.031 -1.3383 -1.9172  1.6999
  475SOL    HW2 1425   1.618   2.661   1.941 -1.9102  2.6816 -0.2810
  476SOL     OW 1426   0.435   0.293   1.005 -0.9112  0.6052  0.1881
  476SOL    HW1 1427   0.471   0.388   1.017  0.1305  0.2902  0.3511
  476SOL    HW2 1428   0.379   0.271   1.084  0.4134  1.7767 -0.8066
  477SOL     OW 1429   0.865   2.119   0.903 -0.1506 -0.0063 -0.3470
  477SOL    HW1 1430   0.860   2.079   0.998  0.0021 -1.1570  2.7272
  477SOL    HW2 1431   0.951   2.176   0.885  2.3799  0.1163 -0.5566
  478SOL     OW 1432   0.677   2.777   2.624  0.4044  0.3576  0.1969
  478SOL    HW1 1433   0.731   2.696   2.642 -2.3874  0.6387  0.6679
  478SOL    HW2 1434   0.631   2.799   2.715  0.6940 -1.8830  1.2197
  479SOL     OW 1435   0.283   0.631   2.019  0.1418 -0.3571 -0.0647
  479SOL    HW1 1436   0.182   0.641   2.035  2.3447 -0.4026  0.5715
  479SOL    HW2 1437   0.306   0.534   2.013  0.1359 -0.1918 -0.5144
  480SOL     OW 1438   0.070   2.077   3.010  0.5449 -0.2231 -0.4624
  480SOL    HW1 1439   0.067   2.051   0.036 -0.5036 -0.1559  0.9144
  480SOL    HW2 1440   0.139   2.147   2.991  0.3890 -5.1300 -0.0883
  481SOL     OW 1441   1.569   2.931   2.128 -0.0577  0.2178 -0.2956
  481SOL    HW1 1442   1.566   2.863   2.203 -0.1583  0.7452 -0.5444
  481SOL    HW2 1443   1.570   3.026   2.172 -0.6089  0.1345 -0.2411
  482SOL     OW 1444   1.664   2.114   2.884  0.2308 -0.4686  0.5134
  482SOL    HW1 1445   1.657   2.014   2.872 -1.3852  0.6490 -0.1317
  482SOL    HW2 1446   1.744   2.157   2.836 -1.3810 -0.2142 -1.4778
  483SOL     OW 1447   0.799   2.539   2.622 -0.3549 -0.0228 -0.5428
  483SOL    HW1 1448   0.776   2.479   2.545  2.7993  1.7862  2.3463
  483SOL    HW2 1449   0.897   2.565   2.620  1.0271 -0.5188 -0.9020
  484SOL     OW 1450   0.413   2.880   0.939 -0.1383 -0.4588 -0.3788
  484SOL    HW1 1451   0.470   2.962   0.965  1.4320  2.2354  0.2449
  484SOL    HW2 1452   0.317   2.904   0.974  2.1550 -0.0041 -1.3975
  485SOL     OW 1453   2.063   0.617   0.913 -0.0143 -0.3007 -0.0964
  485SOL    HW1 1454   1.965   0.617   0.887  0.7095 -0.0972  0.7862
  485SOL    HW2 1455   2.118   0.647   0.833  1.9342  1.9785 -1.5053
  486SOL     OW 1456   1.913   2.610   1.976  0.3356  0.2532  0.3986
  486SOL    HW1 1457   2.011   2.633   1.976 -1.9049  0.0807 -0.1835
  486SOL    HW2 1458   1.859   2.691   1.945 -1.6528 -0.9288  1.4600
  487SOL     OW 1459   1.240   2.042   0.743  0.3982 -0.2904  0.0955
  487SOL    HW1 1460   1.240   2.147   0.744 -1.8339  2.3268 -2.7202
  487SOL    HW2 1461   1.156   2.011   0.697 -1.6247  0.2182  0.2826
  488SOL     OW 1462   1.847   0.475   0.318  0.6107 -0.1553  0.1653
  488SOL    HW1 1463   1.786   0.510   0.393  0.9533 -1.8812 -0.1958
  488SOL    HW2 1464   1.938   0.512   0.331 -1.5882  0.4867 -0.5765
  489SOL     OW 1465   2.171   2.861   0.427  0.0401  0.0077  0.0279
  489SOL    HW1 1466   2.137   2.910   0.509  2.6110  0.6797 -0.2290
  489SOL    HW2 1467   2.112   2.875   0.344  0.9177 -0.2568 -1.7377
  490SOL     OW 1468   1.490   2.764   2.881 -0.0307 -0.1920  0.2832
  490SOL    HW1 1469   1.562   2.778   2.809  1.6999 -1.9896 -1.1951
  490SOL    HW2 1470   1.495   2.827   2.954  0.4207  0.7149 -0.7182
  491SOL     OW 1471   0.769   0.454   1.121  0.2037  0.1654  0.3919
  491SOL    HW1 1472   0.816   0.380   1.074  0.9972  0.8716 -1.3337
  491SOL    HW2 1473   0.714   0.422   1.202 -0.7707  2.2464 -3.1516
  492SOL     OW 1474   1.753   0.196   0.316 -0.6289 -0.5190  0.5570
  492SOL    HW1 1475   1.651   0.174   0.315 -3.7606 -1.8430  0.3811
  492SOL    HW2 1476   1.775   0.292   0.323  2.4621 -1.6448  1.8966
  493SOL     OW 1477   1.879   2.207   2.770 -0.2478  0.4891 -0.2639
  493SOL    HW1 1478   1.901   2.303   2.758 -2.2824 -2.3537 -3.1594
  493SOL    HW2 1479   1.939   2.168   2.843  0.8260  1.7098  1.1776
  494SOL     OW 1480   0.145   1.239   0.949  0.3575  0.0110 -0.3499
  494SOL    HW1 1481   0.226   1.180   0.916  2.0075 -0.5098 -0.4364
  494SOL    HW2 1482   0.075   1.192   1.007 -1.0739 -0.0268  2.6651
  495SOL     OW 1483   2.991   0.154   1.425 -0.0523 -0.2624 -0.2222
  495SOL    HW1 1484   2.969   0.244   1.468  1.1642 -2.8139 -1.1519
  495SOL    HW2 1485   3.072   0.117   1.471 -1.0976  1.0708 -0.4363
  496SOL     OW 1486   2.671   2.528   2.057 -0.4800 -0.0659  0.2934
  496SOL    HW1 1487   2.740   2.503   1.989  1.2543  0.6715 -0.4376
  496SOL    HW2 1488   2.599   2.455   2.061 -0.3791  2.1389  0.4049
  497SOL     OW 1489   1.451   1.667   2.573 -0.5046  0.5972  0.8001
  497SOL    HW1 1490   1.398   1.621   2.497 -0.8815  3.3277 -0.2266
  497SOL    HW2 1491   1.530   1.709   2.523  1.1368 -2.8690 -0.6546
  498SOL     OW 1492   0.463   1.591   0.748  0.3586  0.1252  0.2669
  498SOL    HW1 1493   0.362   1.604   0.742 -2.2316  1.2636 -1.7082
  498SOL    HW2 1494   0.506   1.670   0.697 -0.1153 -0.2141 -0.5085
  499SOL     OW 1495   0.132   1.588   1.394  0.4225 -0.2322  0.4516
  499SOL    HW1 1496   0.197   1.590   1.473  2.0890 -0.7770  0.6595
  499SOL    HW2 1497   0.051   1.649   1.417  0.2733  1.1551  1.1256
  500SOL     OW 1498   1.271   2.396   0.284  0.1104  0.0963  0.6983
  500SOL    HW1 1499   1.359   2.346   0.285  1.4409  2.2383  0.0153
  500SOL    HW2 1500   1.259   2.460   0.204 -0.0573  0.4092 -4.2361
  501SOL     OW 1501   2.039   2.303   1.001  0.1615  0.0037 -0.6440
  501SOL    HW1 1502   2.111   2.361   1.042  1.2717  0.8490 -0.9468
  501SOL    HW2 1503   2.070   2.283   0.907  2.1863  2.4635 -1.8447
  502SOL     OW 1504   0.122   0.881   1.685  0.1480  0.0017 -0.3990
  502SOL    HW1 1505   0.116   0.833   1.595 -0.1652 -0.3187 -0.6834
  502SOL    HW2 1506   0.218   0.897   1.718  1.4610 -1.7881 -0.6663
  503SOL     OW 1507   2.249   0.136   1.718  0.4658 -0.6973  0.7506
  503SOL    HW1 1508   2.248   0.036   1.696 -0.2583  0.9042 -1.0617
  503SOL    HW2 1509   2.340   0.173   1.743 -0.1790 -1.3267  0.2412
  504SOL     OW 1510   1.873   0.774   1.847  0.0332 -0.4163  0.4949
  504SOL    HW1 1511   1.818   0.792   1.935  1.5491 -0.8150  1.8529
  504SOL    HW2 1512   1.973   0.785   1.868  1.1000 -0.9627 -0.6786
  505SOL     OW 1513   1.063   2.891   2.423  0.0647  0.2624 -0.0412
  505SOL    HW1 1514   1.130   2.828   2.472 -0.1927 -0.6941  0.2344
  505SOL    HW2 1515   0.986   2.838   2.379  0.8249  0.0027 -3.7194
  506SOL     OW 1516   0.636   0.331   1.883 -0.0568  0.1319 -0.2454
  506SOL    HW1 1517   0.563   0.317   1.957  1.7706  0.5912 -0.3262
  506SOL    HW2 1518   0.592   0.367   1.798 -0.2076  2.2267 -1.2099
  507SOL     OW 1519   1.558   0.277   2.933  0.5098  0.3245  0.0447
  507SOL    HW1 1520   1.498   0.264   2.852 -2.0984 -0.1384  1.4143
  507SOL    HW2 1521   1.544   0.213   3.012  1.9995 -5.8757 -0.1836
  508SOL     OW 1522   2.310   0.542   2.502 -0.1289  0.4815 -0.2203
  508SOL    HW1 1523   2.256   0.496   2.581 -0.7620  0.0845 -0.3002
  508SOL    HW2 1524   2.403   0.553   2.536 -0.0075 -0.9273 -4.2896
  509SOL     OW 1525   0.968   1.384   1.929 -0.3641  0.5418  0.3998
  509SOL    HW1 1526   1.022   1.305   1.968  0.4939 -1.8736 -1.8151
  509SOL    HW2 1527   0.992   1.474   1.963  0.6384 -0.6413  1.2237
  510SOL     OW 1528   3.058   0.520   0.839  0.3686  0.4404  0.3979
  510SOL    HW1 1529   0.060   0.585   0.856  2.7416  3.1281 -1.2513
  510SOL    HW2 1530   3.042   0.512   0.739  1.9213  2.1696  0.2441
  511SOL     OW 1531   1.548   1.382   0.723  0.1394 -0.2613 -0.1351
  511SOL    HW1 1532   1.467   1.375   0.665 -0.4536 -0.5697 -0.3833
  511SOL    HW2 1533   1.539   1.465   0.783 -1.5443 -0.4067  0.2143
  512SOL     OW 1534   0.735   1.352   0.269 -1.2963 -0.3906  0.1110
  512SOL    HW1 1535   0.642   1.320   0.302  1.2167 -0.2748 -0.1596
  512SOL    HW2 1536   0.798   1.355   0.352  0.6025 -0.8040 -0.2632
  513SOL     OW 1537   0.128   2.444   0.720 -0.2894 -0.0468  0.7584
  513SOL    HW1 1538   0.220   2.445   0.758 -1.9143  1.0510 -1.0330
  513SOL    HW2 1539   0.121   2.430   0.618  0.6178  0.3317 -1.6060
  514SOL     OW 1540   0.343   2.118   0.136  0.1861 -0.3493  0.3549
  514SOL    HW1 1541   0.249   2.103   0.169  1.0258  3.0988 -1.5902
  514SOL    HW2 1542   0.387   2.032   0.101  0.5173 -0.0422 -0.3000
  515SOL     OW 1543   2.724   0.258   0.112  0.1010  0.0780  0.0283
  515SOL    HW1 1544   2.647   0.192   0.132 -1.0446  3.2671 -2.0366
  515SOL    HW2 1545   2.784   0.276   0.191 -0.0530 -0.8126  0.0354
  516SOL     OW 1546   2.013   2.689   1.063 -0.3089 -0.3196 -0.1990
  516SOL    HW1 1547   2.071   2.720   1.139  0.4733  0.3770  0.9218
  516SOL    HW2 1548   1.912   2.692   1.084 -1.3037 -2.3527  0.0921
  517SOL     OW 1549   1.357   1.654   0.111 -0.6056 -0.0001 -0.4513
  517SOL    HW1 1550   1.346   1.565   0.152  1.1144  3.4186 -1.6883
  517SOL    HW2 1551   1.346   1.652   0.008 -0.2286  1.0575  1.2568
  518SOL     OW 1552   1.326   0.792   1.491 -0.0298 -0.1031 -0.2579
  518SOL    HW1 1553   1.306   0.780   1.389 -2.5046  0.6486 -1.4401
  518SOL    HW2 1554   1.243   0.778   1.544  0.2434 -0.7964 -0.3357
  519SOL     OW 1555   3.004   2.027   0.611  0.1405  0.4591  0.0697
  519SOL    HW1 1556   3.061   2.058   0.693  0.9388 -0.8110 -0.0183
  519SOL    HW2 1557   2.907   2.062   0.611 -2.9519  0.6653  2.7021
  520SOL     OW 1558   2.262   2.372   1.796  0.3013 -0.0066  0.0675
  520SOL    HW1 1559   2.326   2.436   1.754 -2.1462 -0.8537 -0.6707
  520SOL    HW2 1560   2.226   2.399   1.887 -0.4901 -1.5517  0.0536
  521SOL     OW 1561   1.339   2.956   2.659 -0.1809 -0.2993  0.4062
  521SOL    HW1 1562   1.329   2.854   2.667  0.8607 -1.4536 -0.9619
  521SOL    HW2 1563   1.326   2.997   2.752  1.8630  1.4719 -1.7834
  522SOL     OW 1564   2.977   0.225   1.892 -0.2493  0.1397  0.4810
  522SOL    HW1 1565   2.968   0.123   1.892 -1.6527  1.5358  1.8160
  522SOL    HW2 1566   2.939   0.263   1.809  0.1886 -0.5564  1.3532
  523SOL     OW 1567   1.196   2.104   1.766  0.0486  0.4778  0.6674
  523SOL    HW1 1568   1.130   2.112   1.843  0.3674  2.5743  1.9493
  523SOL    HW2 1569   1.228   2.010   1.764  1.8869  1.2566 -0.2642
  524SOL     OW 1570   2.163   2.299   0.113 -0.3783 -0.5092  0.5351
  524SOL    HW1 1571   2.208   2.391   0.124 -0.0245  2.0436 -0.1518
  524SOL    HW2 1572   2.180   2.269   0.017 -0.1432  0.2479  0.1091
  525SOL     OW 1573   2.872   0.856   0.195  0.1913 -0.0033 -0.0592
  525SOL    HW1 1574   2.963   0.880   0.234 -3.6422 -0.1752  0.0622
  525SOL    HW2 1575   2.819   0.786   0.249  1.1598  0.3449  1.0016
  526SOL     OW 1576   1.081   0.025   1.079 -0.1887  0.2874 -0.0423
  526SOL    HW1 1577   1.011   3.025   1.076 -2.6686 -0.5173 -1.2963
  526SOL    HW2 1578   1.172   3.057   1.080 -2.3672  0.5623 -3.5481
  527SOL     OW 1579   2.617   1.471   0.619  0.3717  0.4399 -0.0562
  527SOL    HW1 1580   2.592   1.537   0.699 -0.1898 -1.0246 -1.5661
  527SOL    HW2 1581   2.693   1.503   0.559 -0.6766 -2.5619  0.5551
  528SOL     OW 1582   0.442   0.847   2.533 -0.1677 -0.0895 -0.4737
  528SOL    HW1 1583   0.457   0.940   2.493  0.5414 -0.5894 -0.8034
  528SOL    HW2 1584   0.369   0.804   2.473 -0.2026 -1.2216 -1.2076
  529SOL     OW 1585   0.783   1.646   3.011  0.2941 -0.2730  0.6180
  529SOL    HW1 1586   0.886   1.652   3.001 -1.9992  2.7603 -0.4861
  529SOL    HW2 1587   0.727   1.600   2.941  1.4269 -0.3986  0.3867
  530SOL     OW 1588   1.712   1.200   2.004 -0.0663 -0.0278  0.1429
  530SOL    HW1 1589   1.660   1.184   1.918  1.1871  1.8517 -0.2139
  530SOL    HW2 1590   1.803   1.155   1.997 -0.4417 -1.5044  0.3259
  531SOL     OW 1591   0.855   2.222   2.676 -0.0682 -0.3262  0.2600
  531SOL    HW1 1592   0.821   2.294   2.738  0.3266  0.9773  2.1166
  531SOL    HW2 1593   0.861   2.130   2.722 -0.8679 -0.0639  0.7492
  532SOL     OW 1594   2.334   0.607   0.291 -0.2264 -0.7317  0.0284
  532SOL    HW1 1595   2.305   0.665   0.213  0.0610 -1.5221 -0.0619
  532SOL    HW2 1596   2.406   0.538   0.260  1.6092  0.2779  1.6947
  533SOL     OW 1597   0.052   0.526   1.728  0.4130 -0.4472  0.9375
  533SOL    HW1 1598   0.101   0.612   1.756 -0.3610  2.6102 -0.4759
  533SOL    HW2 1599   3.028   0.531   1.759 -0.1448  1.6907 -1.3611
  534SOL     OW 1600   1.736   0.476   2.959  0.1364  0.1646  0.0409
  534SOL    HW1 1601   1.668   0.400   2.954  1.4582  1.4399 -0.7508
  534SOL    HW2 1602   1.820   0.451   3.015 -0.6502 -0.0516  0.5233
  535SOL     OW 1603   0.886   0.345   0.249 -0.0704  0.6858  0.3915
  535SOL    HW1 1604   0.949   0.275   0.207 -1.9673 -1.9170  2.0661
  535SOL    HW2 1605   0.792   0.337   0.209  0.4928  0.2953  1.1594
  536SOL     OW 1606   0.530   1.580   2.064  0.2519 -0.4852 -0.0573
  536SOL    HW1 1607   0.587   1.593   2.150  2.3545  0.7954  0.0177
  536SOL    HW2 1608   0.443   1.537   2.083  3.5155  1.9115  1.5383
  537SOL     OW 1609   0.600   2.303   1.746  0.3724 -0.3681  0.1293
  537SOL    HW1 1610   0.535   2.241   1.701  0.0937  1.2145  0.5286
  537SOL    HW2 1611   0.548   2.380   1.785 -0.0674 -0.2125  2.0998
  538SOL     OW 1612   0.110   1.959   0.179  0.3942 -0.4757 -0.0377
  538SOL    HW1 1613   0.124   1.870   0.135 -0.7979 -2.4376  0.4612
  538SOL    HW2 1614   0.015   1.952   0.222 -4.9409  0.3085  0.6378
  539SOL     OW 1615   2.502   0.425   2.976 -0.4501  0.0304  0.1400
  539SOL    HW1 1616   2.440   0.343   2.997  0.1909 -2.3653  2.4765
  539SOL    HW2 1617   2.584   0.390   2.917  1.9141  0.0765 -2.8917
  540SOL     OW 1618   1.415   0.922   3.022  0.2971  0.4871  0.2150
  540SOL    HW1 1619   1.392   0.944   2.923  0.9658  0.0576 -3.9535
  540SOL    HW2 1620   1.451   1.000   3.072  3.4605 -2.7264  0.9186
  541SOL     OW 1621   0.748   0.588   1.750 -1.1016  0.0062  0.2702
  541SOL    HW1 1622   0.727   0.529   1.832  0.6825 -1.1869  2.6837
  541SOL    HW2 1623   0.693   0.674   1.743  0.0589  1.2709 -2.8566
  542SOL     OW 1624   1.952   2.447   2.320  0.2964  0.6608  0.2689
  542SOL    HW1 1625   1.893   2.387   2.257  1.5896 -3.3682  0.8305
  542SOL    HW2 1626   2.043   2.402   2.321  1.3284 -1.1610  0.1305
  543SOL     OW 1627   0.637   2.826   1.258 -0.5551 -0.3416 -0.0761
  543SOL    HW1 1628   0.586   2.763   1.195  0.4039 -1.1687 -1.0722
  543SOL    HW2 1629   0.614   2.922   1.243 -0.3970  0.7574 -0.8096
  544SOL     OW 1630   2.923   1.494   2.177 -0.8575 -0.4763  0.1087
  544SOL    HW1 1631   2.866   1.411   2.165 -1.8287  0.9790 -0.1972
  544SOL    HW2 1632   2.918   1.531   2.273  0.5264 -0.8798  1.7597
  545SOL     OW 1633   1.817   2.065   1.478  0.2444  0.2203  0.0266
  545SOL    HW1 1634   1.850   2.006   1.552  0.1673 -1.5725 -0.0676
  545SOL    HW2 1635   1.757   2.012   1.411 -3.5468  1.1469 -1.0011
  546SOL     OW 1636   0.196   0.402   2.332 -0.0272 -0.1737  0.0075
  546SOL    HW1 1637   0.128   0.347   2.278  1.1556  3.2544  1.0248
  546SOL    HW2 1638   0.220   0.340   2.408 -0.5302 -3.0884 -0.4766
  547SOL     OW 1639   1.363   0.385   0.653  0.2139 -0.0019 -0.1895
  547SOL    HW1 1640   1.448   0.342   0.682  0.9705 -4.3177  2.0064
  547SOL    HW2 1641   1.286   0.361   0.721 -0.1897  1.1018  2.1721
  548SOL     OW 1642   1.269   2.160   2.699 -0.9505  0.2707 -0.1031
  548SOL    HW1 1643   1.200   2.111   2.761 -3.8620 -1.7118  0.4008
  548SOL    HW2 1644   1.339   2.211   2.758 -0.6749  0.8988  1.0896
  549SOL     OW 1645   2.129   0.743   2.820  0.4501  0.0562 -0.2313
  549SOL    HW1 1646   2.220   0.716   2.860  1.2864 -0.9440  0.8014
  549SOL    HW2 1647   2.140   0.803   2.737 -2.9514 -0.0946  2.0369
  550SOL     OW 1648   2.721   1.964   0.359 -0.3044  0.4216 -0.5469
  550SOL    HW1 1649   2.633   2.006   0.328 -2.2419 -1.3913  1.1415
  550SOL    HW2 1650   2.763   1.907   0.286 -3.9858  2.2256  1.3786
  551SOL     OW 1651   1.131   2.998   2.178 -0.1329  0.4168  0.1689
  551SOL    HW1 1652   1.210   2.945   2.134  1.9216 -2.2674 -1.4272
  551SOL    HW2 1653   1.104   2.954   2.265  0.0175  1.0339  0.0155
  552SOL     OW 1654   2.982   2.017   2.614 -0.6967  0.0390 -0.8306
  552SOL    HW1 1655   2.904   2.000   2.548 -0.6780  0.6122  1.2270
  552SOL    HW2 1656   2.959   2.090   2.683  0.9833 -0.0706 -0.5292
  553SOL     OW 1657   2.933   2.635   1.216  0.0095  0.1250 -0.2443
  553SOL    HW1 1658   3.011   2.695   1.203 -0.1257 -1.0907 -1.1558
  553SOL    HW2 1659   2.926   2.613   1.314 -0.5091  3.2743 -1.1807
  554SOL     OW 1660   2.351   1.819   1.864 -0.3602  0.4127  0.4568
  554SOL    HW1 1661   2.311   1.869   1.944 -2.1765 -0.5122 -0.4338
  554SOL    HW2 1662   2.293   1.846   1.789  0.3820 -1.7275  3.2458
  555SOL     OW 1663   1.469   1.869   2.133 -0.5195  0.7216 -0.0204
  555SOL    HW1 1664   1.479   1.832   2.039 -1.2264 -0.5035  0.4516
  555SOL    HW2 1665   1.484   1.970   2.123 -1.1534 -0.9728 -0.0309
  556SOL     OW 1666   1.438   1.619   1.177 -0.1848  0.3786 -0.6624
  556SOL    HW1 1667   1.454   1.558   1.253 -3.0437  1.6005  0.7511
  556SOL    HW2 1668   1.466   1.713   1.207  4.4707  1.3351  2.9822
  557SOL     OW 1669   1.298   2.905   1.566 -0.0386 -0.2734  0.1308
  557SOL    HW1 1670   1.374   2.951   1.613  2.4996  0.6459  1.0857
  557SOL    HW2 1671   1.325   2.814   1.534  0.6407  0.1853 -3.1480
  558SOL     OW 1672   0.648   2.970   1.776 -0.3420  0.7414 -0.4409
  558SOL    HW1 1673   0.586   2.917   1.837 -1.8366  0.8286 -0.1927
  558SOL    HW2 1674   0.596   3.014   1.698 -3.1797 -0.5026 -1.8642
  559SOL     OW 1675   2.338   2.669   0.352  0.0411 -0.5949 -0.1680
  559SOL    HW1 1676   2.262   2.730   0.390 -2.7965  2.4534  0.7119
  559SOL    HW2 1677   2.388   2.611   0.419  0.5579  0.0289 -1.1386
  560SOL     OW 1678   1.601   2.433   0.454 -0.0601  0.5755  0.6492
  560SOL    HW1 1679   1.571   2.355   0.388 -3.0013 -0.2514 -0.8810
  560SOL    HW2 1680   1.579   2.407   0.549  1.4907 -0.0270 -4.0469
  561SOL     OW 1681   1.220   0.480   2.884 -0.4047 -0.0495 -0.0591
  561SOL    HW1 1682   1.124   0.517   2.891  0.0411 -2.5134 -0.8390
  561SOL    HW2 1683   1.277   0.554   2.838 -0.8387 -0.4217 -1.5094
  562SOL     OW 1684   0.467   1.264   2.307 -0.0019  0.2120  0.0977
  562SOL    HW1 1685   0.517   1.189   2.356 -0.7360 -0.3202 -0.9567
  562SOL    HW2 1686   0.516   1.352   2.339  1.9802 -0.3145  1.2212
  563SOL     OW 1687   1.379   2.065   2.438 -0.0552  0.6208 -0.0649
  563SOL    HW1 1688   1.363   2.121   2.522 -2.0093 -2.2204 -0.2628
  563SOL    HW2 1689   1.476   2.062   2.424 -2.7859 -1.2813 -0.3466
  564SOL     OW 1690   3.048   0.839   0.917 -0.1778  0.7054 -0.2273
  564SOL    HW1 1691   2.953   0.810   0.937 -1.2128  0.2748  0.3270
  564SOL    HW2 1692   3.047   0.941   0.939 -1.1553  1.3180  1.1959
  565SOL     OW 1693   0.489   0.887   0.058  0.0615 -0.2519  0.0513
  565SOL    HW1 1694   0.492   0.820   3.057 -1.0350 -0.5185 -0.1830
  565SOL    HW2 1695   0.575   0.885   0.109 -0.2037 -2.5261 -2.9718
  566SOL     OW 1696   2.578   2.816   2.611  0.2143 -0.1598 -0.0947
  566SOL    HW1 1697   2.582   2.862   2.526 -2.2205 -1.6745  1.6257
  566SOL    HW2 1698   2.494   2.834   2.665 -0.8159  2.1612  2.8921
  567SOL     OW 1699   1.520   1.189   0.986  0.3087  0.2478  0.4771
  567SOL    HW1 1700   1.502   1.241   0.899  1.6881  1.0448  0.8502
  567SOL    HW2 1701   1.589   1.231   1.049 -3.5944  0.0976 -0.8360
  568SOL     OW 1702   1.617   1.559   2.795  0.1180  0.3843  0.4178
  568SOL    HW1 1703   1.613   1.506   2.876 -0.4147  1.6077 -2.4677
  568SOL    HW2 1704   1.522   1.567   2.765  1.4717 -1.1202 -0.1839
  569SOL     OW 1705   2.337   1.308   0.009 -0.2985 -0.4166 -0.2516
  569SOL    HW1 1706   2.412   1.342   3.017 -0.6724  0.9727 -2.8162
  569SOL    HW2 1707   2.245   1.326   3.040 -0.5970 -0.9591  1.4112
  570SOL     OW 1708   0.044   2.239   1.860  0.4806 -0.5682 -0.0065
  570SOL    HW1 1709   0.058   2.335   1.891  0.1165 -0.4099  0.3365
  570SOL    HW2 1710   0.128   2.195   1.825 -1.4814  0.4589 -1.0753
  571SOL     OW 1711   2.784   1.821   1.549  0.2568 -0.4987  0.0301
  571SOL    HW1 1712   2.747   1.891   1.485 -0.4337 -1.7091  2.5010
  571SOL    HW2 1713   2.738   1.827   1.634  0.6727  0.8209 -1.3283
  572SOL     OW 1714   2.007   2.351   0.327 -0.4496 -0.0412  0.0240
  572SOL    HW1 1715   1.937   2.415   0.285 -2.7215 -3.1027 -2.1146
  572SOL    HW2 1716   2.084   2.328   0.262 -0.4613  0.6174 -0.8819
  573SOL     OW 1717   1.570   2.032   0.404  0.0952 -0.0912  0.2524
  573SOL    HW1 1718   1.636   2.112   0.409  1.5689 -0.0674 -1.5979
  573SOL    HW2 1719   1.529   2.006   0.496  1.0353  0.1257  2.1957
  574SOL     OW 1720   1.175   0.076   1.347  0.9233 -0.1062  0.0934
  574SOL    HW1 1721   1.180   3.052   1.378 -0.1778 -0.5481 -0.7805
  574SOL    HW2 1722   1.114   0.096   1.266 -1.7667  0.3839  0.8842
  575SOL     OW 1723   0.593   1.224   1.490 -0.2134 -0.2420  0.0590
  575SOL    HW1 1724   0.597   1.235   1.593 -0.0480 -2.8630  0.6747
  575SOL    HW2 1725   0.678   1.201   1.447 -1.1825  1.6336 -0.5178
  576SOL     OW 1726   2.528   0.594   1.535  0.0601  0.3094 -0.7412
  576SOL    HW1 1727   2.517   0.492   1.537  0.9553  1.1093 -0.4995
  576SOL    HW2 1728   2.623   0.629   1.512 -0.9572  0.0422 -0.5842
  577SOL     OW 1729   1.632   0.998   2.336 -0.2947  0.2617 -0.6158
  577SOL    HW1 1730   1.557   0.953   2.388 -0.1188 -1.7794  1.4380
  577SOL    HW2 1731   1.598   1.049   2.257 -2.1810  2.2487  0.4777
  578SOL     OW 1732   2.095   1.135   2.626 -0.4116  0.1617 -0.3574
  578SOL    HW1 1733   2.164   1.193   2.672 -0.8061 -2.9465 -0.5409
  578SOL    HW2 1734   2.103   1.160   2.530  0.4033 -0.7433  1.7749
  579SOL     OW 1735   1.139   1.932   1.486  0.0296 -0.0391  0.3591
  579SOL    HW1 1736   1.044   1.968   1.503 -2.6912  0.3495 -0.0156
  579SOL    HW2 1737   1.165   1.935   1.388  0.0141 -0.4781 -1.0494
  580SOL     OW 1738   1.508   2.256   0.279  0.0373  0.0286 -0.4134
  580SOL    HW1 1739   1.553   2.241   0.191  1.9064 -0.2956  2.9265
  580SOL    HW2 1740   1.503   2.168   0.330  0.4988 -1.5013 -1.0808
  581SOL     OW 1741   0.974   0.764   2.035  0.2965  0.0514  0.1280
  581SOL    HW1 1742   0.910   0.689   2.063  0.1557  1.9825 -1.9466
  581SOL    HW2 1743   1.056   0.768   2.097  2.8115  2.6137  0.3446
  582SOL     OW 1744   0.878   1.156   1.428  0.5401 -0.1033 -0.5394
  582SOL    HW1 1745   0.902   1.091   1.359  0.6289  0.4843  0.2767
  582SOL    HW2 1746   0.955   1.214   1.446 -3.5328 -1.3292  1.5711
  583SOL     OW 1747   0.890   1.008   2.114 -0.5072  0.0257 -0.2825
  583SOL    HW1 1748   0.924   0.919   2.078  1.0868  0.4472  0.6299
  583SOL    HW2 1749   0.959   1.083   2.082  2.4171 -0.1815 -1.5414
  584SOL     OW 1750   2.292   2.429   0.781  0.2829 -0.5253 -0.1792
  584SOL    HW1 1751   2.375   2.431   0.842  0.1578 -1.4450  1.6219
  584SOL    HW2 1752   2.242   2.343   0.787  0.9315  2.6768  2.3983
  585SOL     OW 1753   1.807   0.161   2.830 -0.1710 -0.7475 -0.4179
  585SOL    HW1 1754   1.750   0.231   2.874 -0.1615 -1.7788 -0.3772
  585SOL    HW2 1755   1.774   0.146   2.733 -1.8767  0.2982  1.9828
  586SOL     OW 1756   0.076   2.047   0.826 -0.2316 -0.3838 -0.0127
  586SOL    HW1 1757   0.113   1.960   0.859 -2.3823  0.3201  0.2479
  586SOL    HW2 1758   0.027   2.097   0.898 -0.9362 -1.0295  1.6246
  587SOL     OW 1759   1.824   2.164   0.285  0.0138 -0.3334 -0.3629
  587SOL    HW1 1760   1.906   2.222   0.310  3.5099  2.5140 -0.2878
  587SOL    HW2 1761   1.788   2.199   0.194 -2.2776  1.8861  1.6900
  588SOL     OW 1762   0.140   0.136   0.902 -0.7996  0.9065 -0.5830
  588SOL    HW1 1763   0.053   0.187   0.878 -0.6202  3.5966  0.9040
  588SOL    HW2 1764   0.217   0.152   0.837  0.3213  1.4393 -1.9310
  589SOL     OW 1765   1.289   1.067   1.091 -0.2360 -0.1575 -0.6174
  589SOL    HW1 1766   1.273   0.980   1.037 -0.7129 -0.3927  0.0841
  589SOL    HW2 1767   1.370   1.114   1.051  0.4704 -2.8402  0.3614
  590SOL     OW 1768   1.465   1.164   0.059  0.1589  0.1992  0.4338
  590SOL    HW1 1769   1.499   1.182   0.154  1.3669 -0.8841 -1.5645
  590SOL    HW2 1770   1.370   1.202   0.044 -1.0102  1.5165 -0.6317
  591SOL     OW 1771   2.524   2.335   2.456  0.0925  0.3062  0.5760
  591SOL    HW1 1772   2.562   2.355   2.551  1.0109  2.1806  2.2169
  591SOL    HW2 1773   2.507   2.424   2.406 -2.3941  1.2688 -1.9703
  592SOL     OW 1774   1.641   2.206   1.624  0.0941 -0.5553  0.8966
  592SOL    HW1 1775   1.555   2.198   1.570  2.2485 -0.2461  0.4238
  592SOL    HW2 1776   1.715   2.162   1.572  0.4511  0.9489 -1.8250
  593SOL     OW 1777   0.766   0.026   1.108  0.0207  0.2706  0.0650
  593SOL    HW1 1778   0.763   0.055   1.206 -2.1630  3.0894  0.3341
  593SOL    HW2 1779   0.796   3.002   1.098 -0.1990 -0.6272 -0.4459
  594SOL     OW 1780   2.815   0.802   2.331  0.0935  0.2062  0.0453
  594SOL    HW1 1781   2.844   0.793   2.433 -1.4507  1.0501  1.8995
  594SOL    HW2 1782   2.837   0.716   2.278 -0.0676  1.3010 -0.2196
  595SOL     OW 1783   0.818   2.619   1.290  0.5474  0.4875 -0.0314
  595SOL    HW1 1784   0.792   2.712   1.262 -1.0730 -0.5453  1.0713
  595SOL    HW2 1785   0.735   2.561   1.291 -0.6700  1.0874  1.1000
  596SOL     OW 1786   0.094   0.753   1.429 -0.3061  0.1846 -0.7037
  596SOL    HW1 1787   0.084   0.818   1.354 -3.0939  0.7740  2.7288
  596SOL    HW2 1788   0.036   0.675   1.410  0.1607  0.6987 -0.8751
  597SOL     OW 1789   1.733   1.892   0.174  0.0339 -0.3469  0.1124
  597SOL    HW1 1790   1.631   1.886   0.181 -1.1639 -0.4592  0.0764
  597SOL    HW2 1791   1.760   1.978   0.221  1.0121 -1.0145  1.7463
  598SOL     OW 1792   0.485   2.755   1.669 -0.0082 -0.7038 -0.0936
  598SOL    HW1 1793   0.572   2.785   1.623 -0.6542 -1.0570  0.2304
  598SOL    HW2 1794   0.409   2.812   1.638  0.8745 -1.1072 -1.6361
  599SOL     OW 1795   2.380   1.647   2.809 -0.2916  0.1177  0.3227
  599SOL    HW1 1796   2.289   1.676   2.775  0.9992  0.2395  3.3489
  599SOL    HW2 1797   2.454   1.663   2.743 -0.8501 -3.4398  1.2448
  600SOL     OW 1798   0.859   1.032   0.199  0.0210 -0.2304  0.2502
  600SOL    HW1 1799   0.818   1.047   0.293 -0.1282 -0.5646  2.1529
  600SOL    HW2 1800   0.846   1.113   0.143  1.1792  0.5696 -0.6863
  601SOL     OW 1801   0.569   0.625   0.785 -0.3041  0.0459 -0.0095
  601SOL    HW1 1802   0.600   0.720   0.790  0.3284 -2.2640  0.9906
  601SOL    HW2 1803   0.515   0.603   0.869 -2.8660  0.7614  1.2060
  602SOL     OW 1804   1.361   0.209   0.938  0.5017  0.3925 -0.6331
  602SOL    HW1 1805   1.285   0.267   0.911  0.7120  0.6253 -1.3947
  602SOL    HW2 1806   1.446   0.234   0.893  0.8282  0.8235  0.2857
  603SOL     OW 1807   0.682   2.813   2.032  0.1951  0.2767  0.1020
  603SOL    HW1 1808   0.766   2.870   2.017 -0.9278 -0.5637 -1.7579
  603SOL    HW2 1809   0.698   2.717   2.001  2.2953  1.9147 -3.0174
  604SOL     OW 1810   2.941   2.873   2.457 -0.1959 -0.3045  0.4548
  604SOL    HW1 1811   3.016   2.918   2.407  1.7602 -5.1114  0.6628
  604SOL    HW2 1812   2.958   2.775   2.474 -0.3084 -3.6594 -1.0818
  605SOL     OW 1813   2.673   1.729   1.239  0.2539 -0.2449 -0.2855
  605SOL    HW1 1814   2.640   1.678   1.322 -1.6180 -1.0954  1.4631
  605SOL    HW2 1815   2.744   1.676   1.190 -2.0002  1.1141 -1.1077
  606SOL     OW 1816   0.619   1.502   2.856  0.1451  0.2150 -0.1923
  606SOL    HW1 1817   0.550   1.565   2.806  0.4057 -1.1621 -0.7107
  606SOL    HW2 1818   0.565   1.428   2.900  2.5050  1.2689 -1.6743
  607SOL     OW 1819   0.855   0.194   0.475  0.2756 -0.5860  0.3746
  607SOL    HW1 1820   0.856   0.245   0.387  0.2479  0.3705 -0.2182
  607SOL    HW2 1821   0.950   0.190   0.516 -0.8762 -2.0742  1.5861
  608SOL     OW 1822   1.733   1.414   2.173 -0.1033 -0.4824  0.4920
  608SOL    HW1 1823   1.748   1.333   2.107  0.0638  0.0259 -0.6633
  608SOL    HW2 1824   1.727   1.502   2.117  0.6504  1.0130  0.8247
  609SOL     OW 1825   2.837   0.057   0.911 -0.3258  0.1948  0.8072
  609SOL    HW1 1826   2.832   3.072   0.993  0.8855 -1.5235  1.5241
  609SOL    HW2 1827   2.897   0.137   0.933 -2.2716 -1.0386  0.4503
  610SOL     OW 1828   0.509   2.705   0.758  0.3590 -0.3709 -0.3032
  610SOL    HW1 1829   0.593   2.740   0.712  1.4316  0.6304  0.4972
  610SOL    HW2 1830   0.465   2.772   0.821 -1.8611  1.3462  0.4379
  611SOL     OW 1831   1.758   0.931   3.032 -0.3933 -0.1443 -0.4585
  611SOL    HW1 1832   1.858   0.957   3.035  0.8519 -0.1083 -1.7989
  611SOL    HW2 1833   1.713   0.947   0.048 -0.3122 -0.2278 -1.2490
  612SOL     OW 1834   0.849   2.031   2.119 -0.2465 -0.2008  0.1439
  612SOL    HW1 1835   0.887   2.003   2.208 -2.0459  1.1130 -0.0981
  612SOL    HW2 1836   0.878   2.127   2.088 -0.0394  2.9231 -0.8526
  613SOL     OW 1837   0.808   2.643   0.388 -0.5081  0.1144  0.3988
  613SOL    HW1 1838   0.862   2.592   0.454 -1.4980  2.8735 -2.6861
  613SOL    HW2 1839   0.760   2.583   0.317  0.0658 -1.8340  0.8046
  614SOL     OW 1840   2.769   2.856   1.512  0.4427 -0.1332  0.1725
  614SOL    HW1 1841   2.843   2.891   1.454 -1.7175  2.1770  1.5910
  614SOL    HW2 1842   2.792   2.787   1.583 -1.8448 -1.6720 -1.1779
  615SOL     OW 1843   2.023   1.327   0.291 -0.4773 -0.4746 -0.0565
  615SOL    HW1 1844   2.008   1.258   0.359  0.1299 -1.1108 -1.0412
  615SOL    HW2 1845   1.941   1.344   0.241 -0.4463  0.5888  0.3440
  616SOL     OW 1846   1.707   0.583   0.548  0.3416 -0.6376  0.2363
  616SOL    HW1 1847   1.612   0.617   0.537  1.5277 -0.0112 -1.5642
  616SOL    HW2 1848   1.705   0.513   0.614  1.3231  1.3667 -2.3247
  617SOL     OW 1849   1.076   1.046   3.024 -0.2071 -1.0046 -0.0022
  617SOL    HW1 1850   1.086   1.019   0.051 -1.6276  1.3444 -2.7524
  617SOL    HW2 1851   0.992   1.006   2.983 -0.8178  2.8707  1.6590
  618SOL     OW 1852   0.805   0.126   1.870  0.4864 -0.0196 -0.2222
  618SOL    HW1 1853   0.735   0.089   1.810 -3.4280 -1.5600 -1.5510
  618SOL    HW2 1854   0.785   0.226   1.890 -0.8278  0.1926 -1.3150
  619SOL     OW 1855   2.959   1.044   1.293  0.0042  0.2019 -0.3797
  619SOL    HW1 1856   3.038   1.103   1.319  3.4318  1.6773 -1.4016
  619SOL    HW2 1857   2.895   1.030   1.373  3.1298 -0.9143  0.0888
  620SOL     OW 1858   2.391   0.992   2.774 -0.1281 -0.2613  0.3316
  620SOL    HW1 1859   2.401   0.921   2.701 -1.4960 -1.2638  3.0597
  620SOL    HW2 1860   2.342   1.076   2.741  0.7229  0.8560 -2.3446
  621SOL     OW 1861   2.549   2.565   1.419 -0.0979 -0.7629  0.1679
  621SOL    HW1 1862   2.585   2.652   1.385 -0.0436  0.3991  2.0764
  621SOL    HW2 1863   2.585   2.484   1.372 -2.5558 -1.1129  1.3173
  622SOL     OW 1864   0.931   0.821   2.710  0.7109  0.0032 -0.4799
  622SOL    HW1 1865   0.923   0.793   2.610 -0.4140  2.2276 -2.2591
  622SOL    HW2 1866   1.023   0.865   2.725  0.0518  1.0503 -0.0266
  623SOL     OW 1867   0.977   0.611   2.904 -0.0259  0.6498 -0.5300
  623SOL    HW1 1868   0.911   0.530   2.901 -3.1531 -0.7854 -0.1054
  623SOL    HW2 1869   0.974   0.661   2.818  0.8589 -0.8000  2.5061
  624SOL     OW 1870   2.040   0.676   0.013  0.8339  0.3771 -0.5146
  624SOL    HW1 1871   2.035   0.711   2.991 -2.5509  1.9962  1.1774
  624SOL    HW2 1872   1.981   0.590   0.013 -1.8879 -2.1880 -0.3682
  625SOL     OW 1873   1.057   1.274   1.079 -0.2885  1.1960 -0.0983
  625SOL    HW1 1874   1.125   1.221   1.027  0.7390  1.4872 -1.8336
  625SOL    HW2 1875   1.107   1.342   1.137  2.6569  0.9429  1.0451
  626SOL     OW 1876   1.658   1.036   2.805 -0.4036  0.3430  0.3736
  626SOL    HW1 1877   1.735   1.044   2.735  2.1062  1.8595  1.9774
  626SOL    HW2 1878   1.704   0.991   2.888  0.9489  0.5419 -0.6758
  627SOL     OW 1879   0.993   0.070   2.495 -0.2218  0.1809  0.1427
  627SOL    HW1 1880   1.016   3.047   2.467 -0.8777 -0.5681 -0.3524
  627SOL    HW2 1881   1.059   0.109   2.565  1.2626  2.1373  0.0710
  628SOL     OW 1882   2.789   0.098   2.235 -0.1749  0.0464  0.3574
  628SOL    HW1 1883   2.763   0.154   2.156 -3.4230 -2.0775  0.6286
  628SOL    HW2 1884   2.811   0.157   2.316  1.0973 -1.6913  0.6530
  629SOL     OW 1885   0.803   0.942   2.946 -0.0670 -0.1777 -0.7398
  629SOL    HW1 1886   0.830   0.880   2.870  0.1454 -0.7409  0.0949
  629SOL    HW2 1887   0.796   0.895   3.034 -1.5928  0.4176 -2.3776
  630SOL     OW 1888   1.033   0.354   1.985 -0.1167 -0.0048 -0.4041
  630SOL    HW1 1889   0.953   0.368   2.048  3.3190 -0.8511  0.5629
  630SOL    HW2 1890   1.094   0.280   2.020 -1.3589 -0.6148  0.5373
  631SOL     OW 1891   3.020   0.534   0.540  0.2593  0.3257  0.3236
  631SOL    HW1 1892   2.929   0.527   0.500  1.8344  1.4466 -0.5726
  631SOL    HW2 1893   0.022   0.497   0.480 -0.6157 -0.7440 -0.3135
  632SOL     OW 1894   2.080   0.987   1.236  0.4975  0.2418 -0.1112
  632SOL    HW1 1895   2.024   0.979   1.324 -0.7805 -0.3750  2.4557
  632SOL    HW2 1896   2.122   0.895   1.201 -0.2275  0.0693 -0.6614
  633SOL     OW 1897   1.295   0.855   0.926  0.2252 -0.8503  0.4474
  633SOL    HW1 1898   1.233   0.772   0.933  0.0486  0.8483  0.6059
  633SOL    HW2 1899   1.394   0.823   0.927  1.9282 -1.1264 -0.0616
  634SOL     OW 1900   1.987   3.033   1.029  0.2387  0.2608  0.1406
  634SOL    HW1 1901   2.061   0.016   0.978 -0.9938 -2.7460  0.8073
  634SOL    HW2 1902   2.026   2.980   1.107 -1.9495  3.6825 -1.4917
  635SOL     OW 1903   1.554   0.826   1.061 -0.7300 -0.1810  0.5593
  635SOL    HW1 1904   1.633   0.774   1.028  2.3171  1.7012 -0.3010
  635SOL    HW2 1905   1.586   0.921   1.057 -1.6463  0.1933  2.0659
  636SOL     OW 1906   0.924   1.052   0.726  0.5484  0.4792 -0.3037
  636SOL    HW1 1907   0.876   1.105   0.792 -2.6088 -2.1691 -1.7758
  636SOL    HW2 1908   1.022   1.066   0.735 -1.0148  4.7748  0.0595
  637SOL     OW 1909   2.464   2.087   0.054  0.4720 -0.0891  0.0251
  637SOL    HW1 1910   2.532   2.013   0.037  1.7656 -0.4874 -1.8084
  637SOL    HW2 1911   2.398   2.092   3.050  0.8565 -1.3518  0.8122
  638SOL     OW 1912   1.342   2.684   2.614  0.0916  0.4661 -0.2127
  638SOL    HW1 1913   1.413   2.642   2.554 -2.0753  0.3247  1.0319
  638SOL    HW2 1914   1.374   2.680   2.711  0.2361  1.1112  0.4913
  639SOL     OW 1915   0.931   2.126   1.185  0.4922  0.2909  0.1290
  639SOL    HW1 1916   0.961   2.226   1.184  0.1271  2.5831  1.1447
  639SOL    HW2 1917   1.014   2.063   1.180  2.2310 -2.0522  4.2052
  640SOL     OW 1918   2.919   2.980   0.468 -0.3908 -0.0899 -0.0537
  640SOL    HW1 1919   2.892   2.991   0.565 -0.8208 -0.2955  0.3845
  640SOL    HW2 1920   2.832   2.972   0.419 -0.3292  0.0767  0.4660
  641SOL     OW 1921   0.628   0.322   0.169 -0.1846 -0.6118  0.2288
  641SOL    HW1 1922   0.597   0.362   0.257  0.2858  0.5621  0.6235
  641SOL    HW2 1923   0.581   0.363   0.082 -1.8037  1.2872 -3.1691
  642SOL     OW 1924   2.892   0.617   1.075  0.7979 -0.0244  0.1958
  642SOL    HW1 1925   2.932   0.619   0.975  0.8680  1.7365 -3.3988
  642SOL    HW2 1926   2.819   0.550   1.085  1.3926  1.1689 -2.8263
  643SOL     OW 1927   0.791   1.874   1.899 -0.2400  0.0096 -0.0698
  643SOL    HW1 1928   0.688   1.862   1.881  0.7888  1.5188  1.4281
  643SOL    HW2 1929   0.803   1.939   1.978  0.1571 -1.4171 -1.0858
  644SOL     OW 1930   1.385   2.855   0.092 -0.1273  0.7634 -0.0436
  644SOL    HW1 1931   1.426   2.934   0.035  1.9308  0.7152 -0.1195
  644SOL    HW2 1932   1.450   2.811   0.153  1.2513  3.3178 -0.6643
  645SOL     OW 1933   1.854   2.172   0.795  0.0039 -0.1583 -0.2705
  645SOL    HW1 1934   1.880   2.139   0.704  0.3741 -0.5026  1.1045
  645SOL    HW2 1935   1.928   2.153   0.862  0.1404  0.5395 -2.6626
  646SOL     OW 1936   1.188   2.842   2.969  0.1682 -0.2582 -0.3152
  646SOL    HW1 1937   1.234   2.924   2.927 -0.4038  0.5413  0.4641
  646SOL    HW2 1938   1.251   2.802   3.036 -1.2865  0.1106  1.0943
  647SOL     OW 1939   0.449   2.519   1.822  0.2200  0.4348 -0.4037
  647SOL    HW1 1940   0.416   2.583   1.897 -1.0140 -2.3594  0.5066
  647SOL    HW2 1941   0.477   2.566   1.738 -0.5144  0.0598  0.4898
  648SOL     OW 1942   1.730   0.920   1.326 -0.0174 -0.7128 -0.3898
  648SOL    HW1 1943   1.779   0.999   1.296  1.2119 -0.5718 -1.0914
  648SOL    HW2 1944   1.775   0.831   1.299 -1.1612  0.1388  1.8582
  649SOL     OW 1945   1.465   2.293   2.852 -0.1814  0.2484 -0.0838
  649SOL    HW1 1946   1.533   2.219   2.880  2.5965 -2.5392  2.1237
  649SOL    HW2 1947   1.459   2.367   2.923  0.0832  0.5586  0.5822
  650SOL     OW 1948   2.316   1.428   1.825  0.2484 -0.3240 -0.6000
  650SOL    HW1 1949   2.390   1.464   1.879 -1.2934  3.1515 -2.4908
  650SOL    HW2 1950   2.223   1.458   1.861 -1.0351  2.2698  0.3964
  651SOL     OW 1951   1.358   2.055   0.029  0.4271 -0.1074  0.1480
  651SOL    HW1 1952   1.409   1.999   0.095 -0.5022 -1.4474  0.6638
  651SOL    HW2 1953   1.413   2.125   3.048 -0.0487 -1.2265  0.2410
  652SOL     OW 1954   0.798   2.735   3.034 -0.0279  0.1066 -0.7820
  652SOL    HW1 1955   0.876   2.735   2.966 -0.4068 -0.3505 -2.0098
  652SOL    HW2 1956   0.761   2.830   3.034 -1.2954 -0.3102  1.7348
  653SOL     OW 1957   2.264   1.963   1.077 -0.4107  0.0525 -0.2682
  653SOL    HW1 1958   2.287   2.059   1.046  3.5658  3.0830  2.8761
  653SOL    HW2 1959   2.202   1.963   1.156  0.0834 -0.8463 -4.3166
  654SOL     OW 1960   2.867   2.473   1.842 -0.2042  0.1229 -0.1394
  654SOL    HW1 1961   2.854   2.567   1.798 -0.6190 -0.3056  1.0800
  654SOL    HW2 1962   2.965   2.474   1.871 -0.6696 -1.0558 -3.5115
  655SOL     OW 1963   2.807   2.040   1.170  0.2436 -0.2302  0.9278
  655SOL    HW1 1964   2.738   2.012   1.101 -1.1433  0.9984  1.3285
  655SOL    HW2 1965   2.768   2.017   1.263  1.8361 -0.7140  0.5738
  656SOL     OW 1966   0.290   2.812   2.688  0.2875 -0.4726  0.5680
  656SOL    HW1 1967   0.294   2.776   2.593  2.3519 -0.4794 -2.0969
  656SOL    HW2 1968   0.197   2.825   2.726 -0.2250  0.8012  2.0507
  657SOL     OW 1969   0.039   0.890   0.304 -0.5980  0.0695 -0.3178
  657SOL    HW1 1970   0.095   0.818   0.353 -0.6863 -1.1795  0.3361
  657SOL    HW2 1971   0.104   0.943   0.245  2.6883 -0.3302  0.9800
  658SOL     OW 1972   1.797   1.881   1.038 -0.0798 -0.6226 -0.4152
  658SOL    HW1 1973   1.777   1.863   1.139  0.1635  2.6421  1.9354
  658SOL    HW2 1974   1.719   1.937   0.997  1.1995 -1.5638  1.0944
  659SOL     OW 1975   1.679   0.498   1.082  0.0773 -0.1856  0.2679
  659SOL    HW1 1976   1.729   0.412   1.061 -1.5498  2.5305 -1.0477
  659SOL    HW2 1977   1.605   0.480   1.152 -0.3414  0.3702  1.6052
  660SOL     OW 1978   1.362   1.449   0.305 -0.2951  0.3984  0.0880
  660SOL    HW1 1979   1.279   1.392   0.309  0.4123  1.4278 -1.2757
  660SOL    HW2 1980   1.384   1.507   0.385  0.9894 -0.1763  0.2635
  661SOL     OW 1981   0.142   1.871   0.506 -0.1187  0.0835 -0.1360
  661SOL    HW1 1982   0.233   1.916   0.501 -1.7710 -0.6869 -2.0472
  661SOL    HW2 1983   0.070   1.932   0.551  0.4430  2.0713  0.4631
  662SOL     OW 1984   0.033   0.710   2.087  0.6849  0.0056 -0.0899
  662SOL    HW1 1985   3.035   0.640   2.063  1.3785 -0.4116 -1.7744
  662SOL    HW2 1986   0.001   0.806   2.092 -0.8229  1.4636  2.7511
  663SOL     OW 1987   2.104   1.454   1.139 -0.2842 -0.0930  0.3055
  663SOL    HW1 1988   2.101   1.439   1.039 -1.0380  0.3292 -2.2934
  663SOL    HW2 1989   2.015   1.495   1.167 -1.5694 -2.6324 -1.1100
  664SOL     OW 1990   0.525   0.569   1.049  0.3317  0.0674 -0.4739
  664SOL    HW1 1991   0.455   0.571   1.121 -0.3922 -2.1173 -3.4567
  664SOL    HW2 1992   0.618   0.535   1.086  3.1646  0.0252  1.0391
  665SOL     OW 1993   1.334   0.022   2.885 -0.5861  0.4921  0.2280
  665SOL    HW1 1994   1.419   0.014   2.942  4.2103  1.3207  4.2279
  665SOL    HW2 1995   1.275   0.103   2.908  0.6328 -0.7710  0.8755
  666SOL     OW 1996   0.091   0.666   2.343 -0.0553 -0.3420 -0.3167
  666SOL    HW1 1997   0.113   0.571   2.337  0.5125  2.4016  1.1913
  666SOL    HW2 1998   0.076   0.704   2.249  0.3382 -0.0582  0.1752
  667SOL     OW 1999   1.921   1.411   2.366  0.3644 -0.1319  0.1255
  667SOL    HW1 2000   1.874   1.418   2.457 -1.0792  1.5870  0.0889
  667SOL    HW2 2001   1.848   1.393   2.295 -0.2129 -1.5236 -3.3850
  668SOL     OW 2002   0.007   1.618   2.917  0.6281  0.3876 -0.2596
  668SOL    HW1 2003   0.054   1.534   2.886 -0.2857  2.3621  1.2766
  668SOL    HW2 2004   2.985   1.596   2.942 -0.9248  0.6194 -0.0944
  669SOL     OW 2005   2.063   2.718   2.505  0.0034 -0.1242  0.0965
  669SOL    HW1 2006   2.075   2.758   2.411 -1.1275 -0.4361  1.3668
  669SOL    HW2 2007   2.109   2.626   2.520 -0.8482 -1.1301  3.5237
  670SOL     OW 2008   2.418   0.882   2.526  0.1024 -0.0046 -0.5348
  670SOL    HW1 2009   2.453   0.824   2.451 -0.6346 -1.5821 -0.2599
  670SOL    HW2 2010   2.313   0.874   2.536 -2.8374 -0.7309  0.9347
  671SOL     OW 2011   2.264   1.413   0.266  0.1404  0.2713 -0.0738
  671SOL    HW1 2012   2.304   1.389   0.175 -1.1800  1.5791 -0.6679
  671SOL    HW2 2013   2.168   1.377   0.273  0.8911 -2.5162  0.1193
  672SOL     OW 2014   2.501   1.136   2.388  0.1131  0.1542 -0.1015
  672SOL    HW1 2015   2.514   1.230   2.435  2.2007  2.1704 -2.1425
  672SOL    HW2 2016   2.456   1.073   2.457 -0.3980 -0.7220 -0.5969
  673SOL     OW 2017   2.782   1.518   1.399 -0.0221 -0.3644 -0.3959
  673SOL    HW1 2018   2.836   1.584   1.456  1.0686 -1.8641 -1.8144
  673SOL    HW2 2019   2.841   1.483   1.328  0.9586 -1.4679  2.3252
  674SOL     OW 2020   1.714   1.703   1.688 -0.2076  0.0866 -0.5502
  674SOL    HW1 2021   1.770   1.788   1.686 -0.1486 -4.3437 -0.3743
  674SOL    HW2 2022   1.775   1.623   1.704  0.1161 -1.2514  0.0609
  675SOL     OW 2023   2.974   0.293   0.986 -0.3699 -0.4404 -1.1235
  675SOL    HW1 2024   3.021   0.347   0.913  0.7681 -0.3027  0.1636
  675SOL    HW2 2025   2.878   0.327   1.008 -3.2022  0.5227  0.2833
  676SOL     OW 2026   2.166   1.003   0.833  0.3338  0.6649  0.0867
  676SOL    HW1 2027   2.159   0.948   0.742  0.4787  0.1348 -0.1118
  676SOL    HW2 2028   2.120   0.953   0.910 -0.7054 -1.9821  0.2183
  677SOL     OW 2029   1.314   1.549   2.355 -0.1593  0.2352 -0.0433
  677SOL    HW1 2030   1.280   1.620   2.298  2.5622 -3.1354  0.6986
  677SOL    HW2 2031   1.321   1.459   2.305 -0.8230 -2.8815 -2.3807
  678SOL     OW 2032   2.635   1.455   0.950 -0.0575  0.1966 -0.2874
  678SOL    HW1 2033   2.614   1.532   0.884 -1.7648 -1.5147  0.5501
  678SOL    HW2 2034   2.552   1.414   0.995 -0.6659 -0.4266 -0.2540
  679SOL     OW 2035   0.097   2.741   0.684  0.4633  0.1342 -0.5654
  679SOL    HW1 2036   0.142   2.826   0.653 -1.9565 -0.9248  2.1480
  679SOL    HW2 2037   0.124   2.666   0.622  2.0111  1.6221 -1.3042
  680SOL     OW 2038   3.030   2.166   1.030 -0.1196  0.9798  0.0598
  680SOL    HW1 2039   0.025   2.148   1.105  0.6243  0.0476 -0.3993
  680SOL    HW2 2040   2.954   2.107   1.058  3.5244  1.2815 -2.1359
  681SOL     OW 2041   0.684   0.971   1.074  0.2271 -0.0365  0.0380
  681SOL    HW1 2042   0.777   1.003   1.088 -1.8589  1.2502 -1.1243
  681SOL    HW2 2043   0.678   0.901   1.004  0.0846  1.4125  0.5454
  682SOL     OW 2044   1.727   2.843   0.655 -0.0585  0.7205 -0.6020
  682SOL    HW1 2045   1.788   2.914   0.696  0.8103 -2.7039 -3.0390
  682SOL    HW2 2046   1.775   2.804   0.577  3.5341 -0.5503 -0.3622
  683SOL     OW 2047   2.281   1.286   1.583  0.3198  0.4586  0.3663
  683SOL    HW1 2048   2.311   1.350   1.647  3.9890 -0.5876 -1.4785
  683SOL    HW2 2049   2.247   1.323   1.495 -0.1109  2.0309  1.6282
  684SOL     OW 2050   0.158   1.843   1.617 -0.1154 -0.4983 -0.0071
  684SOL    HW1 2051   0.066   1.823   1.574 -0.2725 -0.6104 -3.7147
  684SOL    HW2 2052   0.196   1.758   1.657  0.0538 -2.4733 -1.0743
  685SOL     OW 2053   2.203   1.846   0.169 -0.3078 -0.3460  0.2423
  685SOL    HW1 2054   2.169   1.781   0.242  0.4434 -1.0037 -0.1304
  685SOL    HW2 2055   2.276   1.809   0.110 -0.3892 -1.2224 -3.2168
  686SOL     OW 2056   3.042   0.278   0.647  0.2944  0.6536 -0.1801
  686SOL    HW1 2057   3.058   0.368   0.596  1.9600  1.3049 -2.1961
  686SOL    HW2 2058   2.942   0.245   0.643  0.4163 -0.1848 -1.5696
  687SOL     OW 2059   1.545   3.050   3.037  0.5069 -0.7978 -0.5911
  687SOL    HW1 2060   1.531   0.041   0.043  1.2424 -1.2287 -3.1461
  687SOL    HW2 2061   1.642   3.036   3.041 -0.6595 -0.2454  0.2465
  688SOL     OW 2062   1.923   1.847   2.168  0.1924  0.2779  0.2853
  688SOL    HW1 2063   1.957   1.756   2.196  0.5265  2.1377 -0.3909
  688SOL    HW2 2064   1.964   1.929   2.220  0.6436 -0.1869  1.4518
  689SOL     OW 2065   2.626   0.979   1.990  0.0032 -0.1159 -0.6651
  689SOL    HW1 2066   2.640   1.063   1.932 -1.4720 -0.0958  2.2718
  689SOL    HW2 2067   2.651   1.008   2.084  0.7307  1.5036  4.0121
  690SOL     OW 2068   1.840   1.407   0.724  0.4757  0.4379  0.5306
  690SOL    HW1 2069   1.910   1.351   0.772  1.7966 -0.9082 -2.3716
  690SOL    HW2 2070   1.746   1.393   0.754  2.0442  3.0582  0.5424
  691SOL     OW 2071   0.900   1.499   1.360 -0.2116 -0.0316  0.1615
  691SOL    HW1 2072   0.985   1.443   1.363 -0.0238 -1.0699  1.7166
  691SOL    HW2 2073   0.826   1.458   1.298  0.0214  0.0981 -0.3036
  692SOL     OW 2074   1.986   0.036   2.047 -0.1828  0.2201 -0.1713
  692SOL    HW1 2075   2.059   0.108   2.053  1.9115  1.9026 -0.8010
  692SOL    HW2 2076   1.961   0.023   1.951  1.0983  1.4520  2.3956
  693SOL     OW 2077   3.056   1.168   2.762  0.9522 -0.2364  0.1091
  693SOL    HW1 2078   0.034   1.261   2.764  0.0593  1.2706 -0.7551
  693SOL    HW2 2079   3.046   1.134   2.665  1.6504  1.6661  1.9352
  694SOL     OW 2080   2.214   0.098   0.966  0.0007 -0.3968  0.0945
  694SOL    HW1 2081   2.233   0.034   0.890 -0.3974 -0.6301 -1.3369
  694SOL    HW2 2082   2.275   0.097   1.049 -0.3231  4.3483 -1.4194
  695SOL     OW 2083   1.418   1.021   2.721  0.3795 -0.6022 -0.0841
  695SOL    HW1 2084   1.514   1.029   2.757  1.4035  1.7568  3.8005
  695SOL    HW2 2085   1.402   1.113   2.679 -2.2316  2.2418 -0.7096
  696SOL     OW 2086   1.890   0.229   1.716 -0.6241 -0.2304 -0.2150
  696SOL    HW1 2087   1.835   0.250   1.633  0.0645 -2.0091 -0.5895
  696SOL    HW2 2088   1.905   0.313   1.768  0.6792 -0.9167 -3.3380
  697SOL     OW 2089   1.621   0.388   1.944 -0.5090 -0.0899  0.3318
  697SOL    HW1 2090   1.575   0.314   1.996 -2.7397 -0.1686 -1.4404
  697SOL    HW2 2091   1.583   0.400   1.854  3.3375  0.3770  1.6240
  698SOL     OW 2092   1.782   1.412   2.597 -0.0906  0.6953  0.1023
  698SOL    HW1 2093   1.723   1.473   2.656  0.4613 -0.3028  0.6956
  698SOL    HW2 2094   1.722   1.352   2.537 -1.5117  0.3760  0.9239
  699SOL     OW 2095   1.637   1.082   0.623 -0.1169 -0.3410 -0.5759
  699SOL    HW1 2096   1.677   1.144   0.548  1.5196  1.3994 -1.3738
  699SOL    HW2 2097   1.719   1.048   0.672  2.8612 -0.5854 -2.0675
  700SOL     OW 2098   1.569   2.794   0.289  0.3524  0.5154  0.8463
  700SOL    HW1 2099   1.645   2.742   0.333  1.2974 -0.9271  2.6763
  700SOL    HW2 2100   1.539   2.873   0.345  0.9334 -1.3971  0.5441
  701SOL     OW 2101   0.178   0.380   1.399  0.1047  0.2244 -0.2074
  701SOL    HW1 2102   0.125   0.461   1.423  0.1017 -2.2633 -3.1520
  701SOL    HW2 2103   0.156   0.310   1.463 -0.8471  1.4142  1.5306
  702SOL     OW 2104   1.743   0.003   1.416  0.4804 -0.2674  0.8204
  702SOL    HW1 2105   1.815   3.044   1.480 -2.9346  2.0986 -1.6172
  702SOL    HW2 2106   1.658   3.023   1.426  0.9716  2.3029 -2.0324
  703SOL     OW 2107   2.443   0.311   1.803  0.2219  0.3343  0.2115
  703SOL    HW1 2108   2.541   0.295   1.814  0.0565  2.7774 -0.3674
  703SOL    HW2 2109   2.416   0.407   1.820  0.6467  2.3336 -3.7723
  704SOL     OW 2110   1.375   2.168   1.117  0.2012  0.1476 -0.8760
  704SOL    HW1 2111   1.298   2.182   1.187  0.1158  1.1408 -1.3680
  704SOL    HW2 2112   1.345   2.105   1.045 -1.0589  0.6596 -3.8226
  705SOL     OW 2113   0.105   1.788   2.353 -0.4078 -0.6070  0.0447
  705SOL    HW1 2114   0.180   1.844   2.400  0.9666  0.7301 -0.1383
  705SOL    HW2 2115   0.099   1.692   2.390 -1.7706  1.1406  2.1384
  706SOL     OW 2116   2.088   0.231   2.821  0.2499 -0.0044  0.3055
  706SOL    HW1 2117   2.102   0.322   2.782 -2.0657 -2.9339  3.0735
  706SOL    HW2 2118   1.989   0.201   2.822 -1.0873  0.9727 -0.6637
  707SOL     OW 2119   1.589   2.780   2.341 -0.5276  0.0980  0.3222
  707SOL    HW1 2120   1.687   2.770   2.333 -2.2646 -1.1465  0.7854
  707SOL    HW2 2121   1.558   2.697   2.393  2.0080 -0.3669 -3.0167
  708SOL     OW 2122   0.636   2.235   1.205 -0.0989  0.1644  0.0869
  708SOL    HW1 2123   0.621   2.329   1.252  1.1672  3.7605  1.3101
  708SOL    HW2 2124   0.730   2.209   1.214  1.1897 -0.4934 -0.3479
  709SOL     OW 2125   2.605   0.803   1.772  0.4540 -0.0478 -0.3924
  709SOL    HW1 2126   2.616   0.878   1.841  1.0084 -0.9426  1.5811
  709SOL    HW2 2127   2.689   0.787   1.720  0.0281  0.8402  0.7115
  710SOL     OW 2128   2.949   0.390   1.566  0.1839  0.3661  0.1150
  710SOL    HW1 2129   2.919   0.431   1.481  0.3628  0.0476 -0.0390
  710SOL    HW2 2130   3.027   0.432   1.615 -1.0284 -1.1628 -0.7590
  711SOL     OW 2131   2.919   2.633   0.701 -0.5322 -0.4858 -0.2676
  711SOL    HW1 2132   2.898   2.538   0.710  2.4910  0.4123  3.0308
  711SOL    HW2 2133   3.019   2.656   0.695 -2.1675 -1.2727 -1.1688
  712SOL     OW 2134   0.345   2.992   2.369  0.1765  0.3229 -0.0456
  712SOL    HW1 2135   0.399   2.996   2.451  0.3338  0.1609 -2.9499
  712SOL    HW2 2136   0.389   2.923   2.302  2.9144 -1.6679  0.9338
  713SOL     OW 2137   2.110   0.487   0.376  0.0579 -0.3022  0.3149
  713SOL    HW1 2138   2.139   0.432   0.456 -0.5458 -3.2164  3.3243
  713SOL    HW2 2139   2.194   0.528   0.331  1.6524  1.5618  1.2064
  714SOL     OW 2140   1.655   1.619   0.116 -0.2381 -0.5885 -0.3831
  714SOL    HW1 2141   1.699   1.708   0.142  0.8920 -1.9948 -1.8268
  714SOL    HW2 2142   1.555   1.626   0.101 -0.0196  1.6238  2.4441
  715SOL     OW 2143   0.064   0.353   0.340 -0.0289 -0.0970 -0.5635
  715SOL    HW1 2144   0.076   0.342   0.240  0.0490  3.7983  0.2796
  715SOL    HW2 2145   0.153   0.356   0.391 -1.0132  3.4875 -0.4940
  716SOL     OW 2146   0.874   3.013   2.057 -0.0167  0.0478  0.2999
  716SOL    HW1 2147   0.971   3.005   2.073 -4.3990  0.1051 -0.9060
  716SOL    HW2 2148   0.844   0.019   1.994  0.1450  1.2321 -2.9348
  717SOL     OW 2149   0.252   0.635   2.804  0.2724 -0.1305 -0.5390
  717SOL    HW1 2150   0.210   0.684   2.726 -0.1456 -1.7163  0.9491
  717SOL    HW2 2151   0.197   0.546   2.819  0.3041 -1.8521  1.4011
  718SOL     OW 2152   1.364   0.553   0.308  0.0488 -0.0001 -0.4813
  718SOL    HW1 2153   1.457   0.560   0.274 -1.5920  0.3296 -1.0718
  718SOL    HW2 2154   1.341   0.638   0.360 -0.6867  0.7147 -0.8464
  719SOL     OW 2155   2.291   2.025   2.911 -0.0724 -0.4150  0.9105
  719SOL    HW1 2156   2.314   2.011   2.812 -2.0284 -2.2989  0.1674
  719SOL    HW2 2157   2.318   1.945   2.964  2.1507 -0.1659  0.4555
  720SOL     OW 2158   1.092   0.896   1.330  0.0003 -0.2680  0.5585
  720SOL    HW1 2159   1.170   0.961   1.365  1.4274  2.4864 -0.0074
  720SOL    HW2 2160   1.067   0.822   1.392 -1.1231  4.5216 -2.3234
  721SOL     OW 2161   0.114   2.750   1.182  0.0518  0.7748 -0.6290
  721SOL    HW1 2162   0.115   2.797   1.091 -1.9929 -0.8100 -0.5055
  721SOL    HW2 2163   0.207   2.716   1.200 -0.6821 -0.8938  0.5743
  722SOL     OW 2164   1.150   1.744   2.724  0.3439 -0.2325  0.0718
  722SOL    HW1 2165   1.203   1.797   2.654  0.0864  0.1380 -0.2053
  722SOL    HW2 2166   1.052   1.736   2.705  0.7444 -1.3201  2.5131
  723SOL     OW 2167   1.733   0.225   0.595  0.5119 -0.5094  0.5420
  723SOL    HW1 2168   1.740   0.186   0.502  0.2921  0.6306  1.5179
  723SOL    HW2 2169   1.813   0.203   0.645 -1.8912  1.2185 -2.9357
  724SOL     OW 2170   0.617   2.076   2.775  0.7213 -0.3628  0.6118
  724SOL    HW1 2171   0.671   2.145   2.825 -0.3822 -2.0288 -2.4666
  724SOL    HW2 2172   0.521   2.110   2.792  2.0975 -1.0447  1.4458
  725SOL     OW 2173   3.009   0.550   1.327 -0.2971  0.1755 -0.6161
  725SOL    HW1 2174   3.003   0.607   1.243 -1.2266 -0.9262  2.2396
  725SOL    HW2 2175   2.943   0.472   1.316 -0.6711 -2.2367 -0.8054
  726SOL     OW 2176   1.996   0.185   0.700 -0.2362 -0.4011 -0.3914
  726SOL    HW1 2177   2.069   0.195   0.633 -1.9803  0.5479 -0.7815
  726SOL    HW2 2178   2.014   0.248   0.781  1.6862  0.8570 -2.4535
  727SOL     OW 2179   1.907   1.011   2.088  0.6234  0.4847  0.5380
  727SOL    HW1 2180   1.818   0.957   2.079 -3.2971  0.1609 -0.2867
  727SOL    HW2 2181   1.982   0.951   2.128  2.6560 -1.4094  1.0326
  728SOL     OW 2182   1.552   2.895   1.402 -0.1208 -0.5054 -0.1736
  728SOL    HW1 2183   1.483   2.827   1.434 -0.6914 -0.6957  0.7792
  728SOL    HW2 2184   1.536   2.911   1.303  0.5037 -0.8620 -2.7264
  729SOL     OW 2185   1.862   0.484   1.867 -0.3861 -0.0002  0.4125
  729SOL    HW1 2186   1.860   0.579   1.843 -1.2794 -1.8138  0.6409
  729SOL    HW2 2187   1.781   0.447   1.914  1.7812  1.5681  0.2583
  730SOL     OW 2188   0.745   0.828   1.378  0.0648 -0.4126 -0.2005
  730SOL    HW1 2189   0.699   0.744   1.409 -0.5622 -0.2386 -0.7477
  730SOL    HW2 2190   0.760   0.831   1.277 -2.4246  0.1361  1.5361
  731SOL     OW 2191   0.265   0.078   0.323  0.1565  0.1692 -0.0632
  731SOL    HW1 2192   0.203   0.082   0.402  0.9712 -0.8005 -3.0453
  731SOL    HW2 2193   0.357   0.117   0.336  0.1073  1.3982 -0.8334
  732SOL     OW 2194   0.775   0.707   0.455  0.1236 -0.6971 -0.1287
  732SOL    HW1 2195   0.728   0.627   0.495  0.8491  2.1028  0.1482
  732SOL    HW2 2196   0.706   0.780   0.429 -1.2157  3.2050  0.2794
  733SOL     OW 2197   1.659   1.284   2.398  0.0934 -0.6768 -0.3042
  733SOL    HW1 2198   1.678   1.333   2.310  0.0380  1.5113 -0.7431
  733SOL    HW2 2199   1.704   1.199   2.404 -2.8070  1.9241  1.2898
  734SOL     OW 2200   2.993   2.233   2.109  0.0681 -0.2540 -0.6644
  734SOL    HW1 2201   3.020   2.215   2.013 -1.4215 -1.5083 -0.8946
  734SOL    HW2 2202   2.892   2.215   2.126 -1.6218 -0.0287  1.3772
  735SOL     OW 2203   1.788   0.270   0.994  0.2771 -0.0091  0.2668
  735SOL    HW1 2204   1.885   0.300   0.982  0.8510 -0.2019  2.0571
  735SOL    HW2 2205   1.780   0.175   1.035  0.7560 -1.2554 -3.0093
  736SOL     OW 2206   1.059   1.456   0.036 -0.2993 -0.1078  0.0132
  736SOL    HW1 2207   1.037   1.534   3.052  1.3156 -2.8119 -3.0326
  736SOL    HW2 2208   1.042   1.474   0.135 -1.1623  2.2597 -1.3283
  737SOL     OW 2209   2.882   0.239   0.361 -0.4945 -0.3441 -0.5549
  737SOL    HW1 2210   2.983   0.246   0.359  0.5961 -3.1048 -0.4017
  737SOL    HW2 2211   2.856   0.163   0.424  1.4537 -1.5200  1.2813
  738SOL     OW 2212   0.445   2.143   1.580  0.2033 -0.8937  0.1411
  738SOL    HW1 2213   0.381   2.179   1.507  0.7085  1.1041 -1.2011
  738SOL    HW2 2214   0.515   2.099   1.522 -2.3238  0.0897 -0.0652
  739SOL     OW 2215   0.988   2.751   2.810  0.2842  0.2482  0.0407
  739SOL    HW1 2216   1.057   2.800   2.868  0.3459 -1.9098  0.8944
  739SOL    HW2 2217   1.030   2.697   2.735 -1.0568  2.8753  0.0639
  740SOL     OW 2218   1.763   2.733   1.500 -0.2763  0.0058  0.1541
  740SOL    HW1 2219   1.687   2.774   1.446 -1.6659 -0.9587  1.4911
  740SOL    HW2 2220   1.751   2.636   1.513  1.3351  4.2934 -0.3243
  741SOL     OW 2221   2.136   0.740   0.684  0.1887 -0.1087  0.3273
  741SOL    HW1 2222   2.221   0.725   0.627  1.9257  1.7884 -0.5841
  741SOL    HW2 2223   2.053   0.760   0.628 -0.9746  1.3574 -0.9118
  742SOL     OW 2224   0.960   2.443   2.360 -0.1304  0.1070  0.3150
  742SOL    HW1 2225   1.004   2.400   2.441 -1.1044 -1.1724  0.2359
  742SOL    HW2 2226   0.864   2.415   2.362 -0.7391  0.2967 -0.3250
  743SOL     OW 2227   2.323   0.953   1.728 -0.5546 -0.5005 -0.0132
  743SOL    HW1 2228   2.261   0.919   1.656 -0.1194 -0.7837 -2.2808
  743SOL    HW2 2229   2.414   0.904   1.726  1.3231  0.7783 -0.4034
  744SOL     OW 2230   2.486   0.279   0.900  0.4563  0.1811 -0.1347
  744SOL    HW1 2231   2.450   0.336   0.828  1.5379 -2.3186 -0.7035
  744SOL    HW2 2232   2.451   0.300   0.991 -1.1070 -1.6448  0.8985
  745SOL     OW 2233   2.282   1.164   1.905 -0.0833  0.2172 -0.5732
  745SOL    HW1 2234   2.315   1.251   1.867 -0.1670  0.4484 -2.1042
  745SOL    HW2 2235   2.307   1.089   1.835 -1.5744  1.2097 -1.3298
  746SOL     OW 2236   1.360   1.611   0.538 -0.0827  0.5266  0.1089
  746SOL    HW1 2237   1.442   1.657   0.574 -2.5583 -1.1039  0.2374
  746SOL    HW2 2238   1.281   1.617   0.603 -3.6206 -1.4251  1.5755
  747SOL     OW 2239   1.696   1.906   1.310  0.0904 -0.2927  0.2727
  747SOL    HW1 2240   1.600   1.929   1.290 -1.1830  0.6094 -0.8831
  747SOL    HW2 2241   1.700   1.815   1.357 -0.1879 -1.7432  0.6357
  748SOL     OW 2242   0.085   2.761   0.055 -0.2153 -0.4547  0.1445
  748SOL    HW1 2243   3.058   2.770   0.091  0.4545  0.1493  1.3206
  748SOL    HW2 2244   0.137   2.840   0.085 -2.5670 -1.1212 -1.2648
  749SOL     OW 2245   0.199   1.029   2.532  0.0589  0.4637  0.3980
  749SOL    HW1 2246   0.230   0.987   2.444 -0.6349  2.0672 -2.5901
  749SOL    HW2 2247   0.097   1.048   2.530  1.3672  0.5569 -2.8257
  750SOL     OW 2248   1.328   2.937   1.989 -0.2831 -0.4635 -0.3059
  750SOL    HW1 2249   1.410   2.923   2.047  1.5354 -1.7218  0.1543
  750SOL    HW2 2250   1.353   3.004   1.917  1.4230  0.8233  0.4859
  751SOL     OW 2251   2.693   0.723   0.344  0.4276 -0.1254 -0.2734
  751SOL    HW1 2252   2.606   0.720   0.291  0.4008 -1.7427  0.7394
  751SOL    HW2 2253   2.732   0.632   0.342 -1.8399  2.5490 -3.2134
  752SOL     OW 2254   0.306   2.215   0.690 -0.3411 -0.0010 -0.1813
  752SOL    HW1 2255   0.342   2.141   0.633  0.3391  0.3292  2.2703
  752SOL    HW2 2256   0.207   2.211   0.704  0.2294 -0.5345  0.6381
  753SOL     OW 2257   0.906   2.865   1.071 -0.1683 -0.1685  0.2127
  753SOL    HW1 2258   0.996   2.817   1.085  0.6448 -0.7485  0.8109
  753SOL    HW2 2259   0.845   2.790   1.040 -1.7310 -1.5276 -1.1690
  754SOL     OW 2260   0.373   0.130   2.194  0.2254 -0.3545 -0.4058
  754SOL    HW1 2261   0.286   0.136   2.140  0.4980 -2.0910 -3.0615
  754SOL    HW2 2262   0.361   0.048   2.263  0.1069 -4.3343  2.4095
  755SOL     OW 2263   1.810   1.185   0.121 -0.4559  0.0318 -0.2316
  755SOL    HW1 2264   1.729   1.183   0.060  1.2803  0.0225 -0.5504
  755SOL    HW2 2265   1.801   1.129   0.204  1.0929 -1.5205  0.0123
  756SOL     OW 2266   2.324   2.309   2.717  0.2087  0.3204 -0.0988
  756SOL    HW1 2267   2.307   2.208   2.722  1.2278 -1.8853  0.1307
  756SOL    HW2 2268   2.413   2.328   2.756 -1.6835 -1.1432  0.3067
  757SOL     OW 2269   1.921   0.782   0.522 -0.3654  0.3902 -0.1343
  757SOL    HW1 2270   1.959   0.757   0.431 -1.1657  1.1407  1.5078
  757SOL    HW2 2271   1.840   0.729   0.544  0.7396  0.6320  0.0533
  758SOL     OW 2272   2.285   0.464   1.069 -0.2920  0.0674 -0.1468
  758SOL    HW1 2273   2.184   0.476   1.081  0.7857 -0.7206 -1.0289
  758SOL    HW2 2274   2.323   0.537   1.008  1.2015 -1.8573 -2.4384
  759SOL     OW 2275   2.700   0.398   1.039 -0.3837  0.6984  0.3164
  759SOL    HW1 2276   2.611   0.370   1.086 -0.2722  0.0654  0.7903
  759SOL    HW2 2277   2.680   0.406   0.937 -2.8032  3.3151 -1.4727
  760SOL     OW 2278   2.278   1.367   1.322 -0.0445  0.4548 -0.3330
  760SOL    HW1 2279   2.202   1.399   1.268  0.8754  1.3455  2.8333
  760SOL    HW2 2280   2.295   1.268   1.300 -2.0542  1.0870  1.9018
  761SOL     OW 2281   0.481   0.442   0.369 -0.0391 -0.4803  0.2320
  761SOL    HW1 2282   0.546   0.461   0.446 -0.5103  1.3661 -2.0540
  761SOL    HW2 2283   0.409   0.380   0.400  0.1722  0.5974  0.5832
  762SOL     OW 2284   1.143   1.944   1.221  0.8825  0.1138  0.5758
  762SOL    HW1 2285   1.214   1.927   1.146  3.1498  1.1989 -1.8090
  762SOL    HW2 2286   1.084   1.862   1.224 -1.1544 -0.2306 -0.9159
  763SOL     OW 2287   1.370   1.183   1.758 -0.3909 -0.4025  0.3195
  763SOL    HW1 2288   1.360   1.222   1.853  0.1282 -1.2395 -2.5871
  763SOL    HW2 2289   1.466   1.204   1.723 -1.8901  1.5584 -3.2965
  764SOL     OW 2290   2.967   1.709   2.644  0.0013 -0.2738  0.8270
  764SOL    HW1 2291   3.011   1.678   2.729  2.5423 -1.6168  1.0680
  764SOL    HW2 2292   2.952   1.811   2.641 -2.2067  2.5879 -2.5699
  765SOL     OW 2293   1.299   2.556   1.167  0.9279  0.4132  0.6894
  765SOL    HW1 2294   1.359   2.514   1.243  0.3832 -0.3507  2.3111
  765SOL    HW2 2295   1.342   2.543   1.074 -0.0895 -2.2280 -1.7767
  766SOL     OW 2296   2.752   2.196   2.382 -0.3677  0.2560 -0.0121
  766SOL    HW1 2297   2.662   2.232   2.415  4.2136  2.3646 -1.7676
  766SOL    HW2 2298   2.769   2.106   2.419 -0.5859  2.6008  1.3868
  767SOL     OW 2299   1.136   1.148   2.488 -0.6571  0.3336 -0.3490
  767SOL    HW1 2300   1.137   1.075   2.561 -0.2472 -0.4639 -0.2768
  767SOL    HW2 2301   1.216   1.207   2.506  2.8597  1.1220  0.7807
  768SOL     OW 2302   1.156   2.049   2.909 -0.2649 -0.1606  0.3115
  768SOL    HW1 2303   1.228   2.018   2.971 -1.3698 -0.3213 -0.1329
  768SOL    HW2 2304   1.134   2.145   2.927 -2.8407 -1.7280 -0.6331
  769SOL     OW 2305   0.440   2.307   0.917 -0.1855 -0.6033  0.4784
  769SOL    HW1 2306   0.436   2.241   0.995 -2.2927  1.0337 -1.3065
  769SOL    HW2 2307   0.426   2.250   0.833  1.4178 -0.9478  1.5684
  770SOL     OW 2308   1.480   0.821   2.521  0.0455  0.0396  0.5011
  770SOL    HW1 2309   1.523   0.757   2.587  0.4894  1.7623 -4.0117
  770SOL    HW2 2310   1.451   0.905   2.574 -0.3708 -3.0647 -1.6480
  771SOL     OW 2311   3.070   2.827   2.094  0.0071  0.2268 -0.0388
  771SOL    HW1 2312   0.071   2.782   2.045 -1.0762 -2.6438  0.7947
  771SOL    HW2 2313   3.011   2.754   2.134  5.1884  1.3233  0.3462
  772SOL     OW 2314   2.193   2.684   1.983  0.1682  0.3769 -0.3081
  772SOL    HW1 2315   2.214   2.765   2.043 -1.6634 -1.2487  0.8986
  772SOL    HW2 2316   2.234   2.701   1.893 -1.5380  2.1031  1.1837
  773SOL     OW 2317   0.790   1.852   1.616 -0.2597  0.3312  0.5273
  773SOL    HW1 2318   0.829   1.919   1.552  1.3404  2.6083 -0.7917
  773SOL    HW2 2319   0.802   1.884   1.713 -0.8513 -0.6757  1.4058
  774SOL     OW 2320   1.013   0.266   1.740  0.0059 -0.0943 -0.9613
  774SOL    HW1 2321   1.041   0.306   1.833  0.1854  1.7588 -0.2372
  774SOL    HW2 2322   0.941   0.194   1.757  1.5366  0.7493  0.4382
  775SOL     OW 2323   1.822   3.033   3.013  0.3493 -0.0815 -0.1749
  775SOL    HW1 2324   1.819   0.032   2.943  1.9334 -0.6504  2.2757
  775SOL    HW2 2325   1.877   2.953   2.979  0.0151  2.7502  0.0458
  776SOL     OW 2326   2.991   0.452   2.047  0.0327  0.2255 -0.2415
  776SOL    HW1 2327   2.959   0.464   1.955  0.2460  0.4169  1.2460
  776SOL    HW2 2328   3.026   0.358   2.059 -0.8719 -3.3677  1.0287
  777SOL     OW 2329   2.393   2.052   2.126  0.6279  0.4913  0.4908
  777SOL    HW1 2330   2.304   2.035   2.083  1.1980 -1.5283  1.8662
  777SOL    HW2 2331   2.436   2.126   2.069 -0.8646 -0.1522  1.4493
  778SOL     OW 2332   1.711   0.831   2.067  0.1424 -0.1833  0.1897
  778SOL    HW1 2333   1.611   0.834   2.055 -0.9078 -0.5012  0.5964
  778SOL    HW2 2334   1.744   0.761   2.129  1.6842  0.9397 -0.4215
  779SOL     OW 2335   2.465   0.473   0.665  0.8800 -0.3366 -0.0622
  779SOL    HW1 2336   2.484   0.407   0.590  0.5833 -1.2628 -0.7917
  779SOL    HW2 2337   2.430   0.565   0.634  0.3297 -1.3335  0.3995
  780SOL     OW 2338   2.244   0.256   3.026  0.1989 -0.5904 -0.5545
  780SOL    HW1 2339   2.249   0.165   3.062 -1.4539 -1.0698  0.0186
  780SOL    HW2 2340   2.173   0.252   2.951 -2.0931 -3.9965 -1.6313
  781SOL     OW 2341   0.164   2.272   1.461 -0.2237  0.1785 -0.3870
  781SOL    HW1 2342   0.197   2.283   1.366  0.3114  0.1118  2.0603
  781SOL    HW2 2343   0.076   2.224   1.463 -1.5148  1.5399  1.7100
  782SOL     OW 2344   2.528   2.434   2.920 -0.5265 -0.3335 -0.1170
  782SOL    HW1 2345   2.468   2.517   2.920  0.5330  1.0100 -0.0417
  782SOL    HW2 2346   2.538   2.406   3.019 -1.1890 -1.0610 -1.2052
  783SOL     OW 2347   0.583   1.619   1.396 -0.2289 -0.2658 -0.2822
  783SOL    HW1 2348   0.509   1.549   1.386  0.9751 -1.2426 -0.0219
  783SOL    HW2 2349   0.647   1.595   1.470  0.1335 -2.2575 -1.6547
  784SOL     OW 2350   1.331   0.697   2.770 -0.6942 -0.1090  0.0761
  784SOL    HW1 2351   1.432   0.688   2.783 -0.3470  1.4712  0.5466
  784SOL    HW2 2352   1.310   0.791   2.750  0.1942 -5.0701  3.0699
  785SOL     OW 2353   2.477   3.059   0.880 -0.6025  0.5519  0.0994
  785SOL    HW1 2354   2.448   2.997   0.958  1.9449 -0.1636 -2.7341
  785SOL    HW2 2355   2.471   0.084   0.912 -0.6927 -0.0065 -0.2635
  786SOL     OW 2356   1.214   1.995   2.009 -0.2221  1.2186  0.5416
  786SOL    HW1 2357   1.160   1.911   1.998  0.1943  1.5804  1.2594
  786SOL    HW2 2358   1.205   2.028   2.106 -0.9428 -0.7576 -1.7142
  787SOL     OW 2359   1.339   0.754   1.232 -0.2019 -0.0415 -0.3140
  787SOL    HW1 2360   1.264   0.768   1.167  0.9761 -0.8957 -0.4113
  787SOL    HW2 2361   1.429   0.772   1.181  1.2838  0.3298 -1.0781
  788SOL     OW 2362   0.191   0.655   0.394 -0.3418 -0.0836 -0.1277
  788SOL    HW1 2363   0.238   0.661   0.485  0.6802  0.2625 -0.4246
  788SOL    HW2 2364   0.259   0.659   0.320 -0.0881 -1.0413  2.5021
  789SOL     OW 2365   0.169   2.067   1.197  0.3040  0.1763  0.0679
  789SOL    HW1 2366   0.253   2.110   1.164  1.5851  1.4418 -0.3637
  789SOL    HW2 2367   0.195   2.019   1.284  0.8387  1.9719  0.1806
  790SOL     OW 2368   0.927   0.779   2.434 -0.3736  0.0715 -0.2493
  790SOL    HW1 2369   1.000   0.711   2.421  0.1828  1.3614  0.2464
  790SOL    HW2 2370   0.836   0.743   2.403  1.8269  1.5303  0.7170
  791SOL     OW 2371   1.774   0.693   0.901  0.1357  0.4339  0.9158
  791SOL    HW1 2372   1.698   0.748   0.856 -1.5884  0.1313  2.8841
  791SOL    HW2 2373   1.726   0.622   0.956  2.3491  0.1174  0.8543
  792SOL     OW 2374   1.428   2.448   2.179 -0.2064 -0.4778 -0.5003
  792SOL    HW1 2375   1.462   2.468   2.087 -1.2328  2.2892  2.2558
  792SOL    HW2 2376   1.325   2.436   2.174 -1.0080  1.5148 -0.9055
  793SOL     OW 2377   1.260   0.802   0.499 -0.3096 -0.3856  0.2309
  793SOL    HW1 2378   1.292   0.880   0.443  1.1237  1.3960 -0.6757
  793SOL    HW2 2379   1.166   0.818   0.539  0.7309  2.7551  0.8823
  794SOL     OW 2380   0.575   0.988   1.987 -0.1537  0.1297  0.1502
  794SOL    HW1 2381   0.496   1.004   2.046 -0.1392  2.7112  0.1132
  794SOL    HW2 2382   0.648   1.050   2.019  0.5147 -1.3870 -0.6940
  795SOL     OW 2383   0.269   2.026   2.387 -0.0475  0.4487  0.2961
  795SOL    HW1 2384   0.365   2.006   2.370 -1.8859  0.0310 -0.7845
  795SOL    HW2 2385   0.242   2.029   2.487 -2.5114  0.1940 -1.1923
  796SOL     OW 2386   2.426   0.769   2.020  0.1057  0.1809 -0.1121
  796SOL    HW1 2387   2.373   0.823   2.090 -2.7196  1.2204  2.6038
  796SOL    HW2 2388   2.509   0.815   1.983 -1.0727 -0.5525 -1.4213
  797SOL     OW 2389   2.880   2.213   2.762 -0.1862 -0.0783 -0.0860
  797SOL    HW1 2390   2.820   2.273   2.709  0.9443 -3.8141  2.6095
  797SOL    HW2 2391   2.954   2.267   2.804 -0.8766 -0.8743 -2.8115
  798SOL     OW 2392   0.327   2.410   2.071 -0.5774 -0.0370  0.3790
  798SOL    HW1 2393   0.320   2.366   1.978 -1.0535  0.5809 -1.2299
  798SOL    HW2 2394   0.273   2.358   2.137  0.8058  0.8327 -0.7589
  799SOL     OW 2395   0.366   2.179   2.756  0.0428 -0.1882  0.3338
  799SOL    HW1 2396   0.285   2.137   2.714 -0.0213  0.6457  2.8816
  799SOL    HW2 2397   0.345   2.236   2.839  0.5374  1.1389  1.4056
  800SOL     OW 2398   0.678   2.274   2.935  0.6386 -0.1920 -0.3111
  800SOL    HW1 2399   0.678   2.378   2.925  0.1624  1.1128 -1.7073
  800SOL    HW2 2400   0.660   2.246   3.031 -2.8289  0.2072 -2.1653
  801SOL     OW 2401   1.788   1.493   1.028 -0.1140  0.0456 -0.4713
  801SOL    HW1 2402   1.761   1.403   1.062  0.8339 -1.6253  2.5067
  801SOL    HW2 2403   1.833   1.548   1.108  0.0850 -0.3396 -0.5959
  802SOL     OW 2404   2.800   1.090   0.651 -0.3269  0.3923 -0.1779
  802SOL    HW1 2405   2.826   1.140   0.568 -0.1520  1.1225  0.3576
  802SOL    HW2 2406   2.801   0.990   0.634  1.2252 -3.2629  1.5076
  803SOL     OW 2407   1.162   2.095   2.257 -0.3371  0.4079 -0.9804
  803SOL    HW1 2408   1.244   2.101   2.316  1.5458 -1.2180  2.3602
  803SOL    HW2 2409   1.078   2.048   2.295  0.6599 -0.8035 -2.7831
  804SOL     OW 2410   1.527   1.237   0.338 -0.5049 -0.1300  0.0731
  804SOL    HW1 2411   1.457   1.312   0.326 -0.0247 -0.6513 -1.0794
  804SOL    HW2 2412   1.608   1.277   0.389 -0.3735  1.1413  0.6319
  805SOL     OW 2413   2.597   1.481   0.178  0.3548  0.3452  0.8050
  805SOL    HW1 2414   2.572   1.391   0.213  2.7055  2.0828 -0.8233
  805SOL    HW2 2415   2.556   1.494   0.087 -0.0677 -0.8854 -1.1296
  806SOL     OW 2416   0.485   3.046   0.677  0.2338  0.0860 -0.4144
  806SOL    HW1 2417   0.541   3.038   0.762 -2.7843 -2.6581  1.1112
  806SOL    HW2 2418   0.396   2.993   0.673  0.2958  0.8619  1.2636
  807SOL     OW 2419   1.941   1.799   2.955  0.5402 -0.3087 -0.3650
  807SOL    HW1 2420   1.944   1.883   3.017  0.6080 -1.1049 -0.5014
  807SOL    HW2 2421   1.938   1.716   3.014 -0.8717  2.2076 -0.1332
  808SOL     OW 2422   0.590   1.599   0.977  0.1677  0.1218 -0.7653
  808SOL    HW1 2423   0.524   1.537   1.021 -1.0686  0.9767 -1.1411
  808SOL    HW2 2424   0.563   1.594   0.879  3.9149 -0.5468 -0.6636
  809SOL     OW 2425   2.366   0.685   0.543  0.5976 -0.1928  0.2290
  809SOL    HW1 2426   2.442   0.756   0.545  0.2647  1.5854  2.1738
  809SOL    HW2 2427   2.337   0.670   0.448  1.1661  0.1569  2.2225
  810SOL     OW 2428   0.753   1.089   0.458 -0.2719 -0.1933 -0.6559
  810SOL    HW1 2429   0.822   1.165   0.470 -2.0271  2.2340 -0.4055
  810SOL    HW2 2430   0.713   1.060   0.549 -3.1573 -0.3234  0.1360
  811SOL     OW 2431   1.485   2.446   1.336 -0.2771 -0.1218  0.3820
  811SOL    HW1 2432   1.580   2.458   1.296  0.2405 -0.9185 -2.3003
  811SOL    HW2 2433   1.470   2.347   1.356  1.3190 -1.8769  0.9131
  812SOL     OW 2434   1.232   2.594   1.691 -0.2140 -0.3658 -0.2323
  812SOL    HW1 2435   1.236   2.627   1.792 -0.9153 -0.3702 -2.5406
  812SOL    HW2 2436   1.144   2.621   1.649 -1.4868  1.0860 -0.0261
  813SOL     OW 2437   0.897   2.862   1.775 -0.1473 -0.1576 -0.0442
  813SOL    HW1 2438   0.797   2.892   1.765  1.0465 -0.7866 -0.3508
  813SOL    HW2 2439   0.961   2.938   1.752  0.9643 -1.6919 -0.4833
  814SOL     OW 2440   0.701   2.407   2.389 -0.3375  0.7900 -0.2002
  814SOL    HW1 2441   0.661   2.433   2.301  1.2699 -0.0004  2.6933
  814SOL    HW2 2442   0.632   2.350   2.438 -3.2654 -0.4097 -0.0038
  815SOL     OW 2443   0.567   0.315   2.554 -0.3507  0.4293  0.2533
  815SOL    HW1 2444   0.639   0.242   2.522  1.7167 -1.3866  0.0192
  815SOL    HW2 2445   0.608   0.384   2.614  0.9763 -0.7510  0.9614
  816SOL     OW 2446   2.200   3.064   2.800 -0.8323 -0.1833 -0.0253
  816SOL    HW1 2447   2.113   3.014   2.794 -0.9080 -0.1261  0.9686
  816SOL    HW2 2448   2.184   0.096   2.791  0.9708  1.4341 -1.8132
  817SOL     OW 2449   2.210   0.218   1.975  0.0367  0.0821 -0.3971
  817SOL    HW1 2450   2.180   0.196   1.877 -1.7398 -1.5556 -4.2178
  817SOL    HW2 2451   2.261   0.305   1.993 -0.5470 -0.4153  0.9327
  818SOL     OW 2452   1.575   0.565   0.100  0.0222 -0.7617 -0.2017
  818SOL    HW1 2453   1.488   0.609   0.072  0.2531  1.7640 -0.7991
  818SOL    HW2 2454   1.636   0.565   0.020 -1.2785  1.2918  0.7480
  819SOL     OW 2455   2.110   1.464   2.623 -0.8724 -0.2560 -0.2342
  819SOL    HW1 2456   2.018   1.435   2.597  0.7119  0.4751 -2.0583
  819SOL    HW2 2457   2.110   1.566   2.659 -0.5872  0.6012  1.1163
  820SOL     OW 2458   0.096   1.680   0.112 -0.4954  0.3934 -0.1401
  820SOL    HW1 2459   0.099   1.653   0.014  2.3169 -1.0561 -2.6529
  820SOL    HW2 2460   0.191   1.678   0.148  2.4410 -1.6938 -1.0630
  821SOL     OW 2461   0.119   2.866   0.949  0.3902 -0.1235 -0.6832
  821SOL    HW1 2462   0.053   2.941   0.958 -5.5885 -1.1734 -0.6121
  821SOL    HW2 2463   0.113   2.818   0.860  1.4399 -0.9710  0.7757
  822SOL     OW 2464   2.655   2.364   2.685 -0.2389  0.0866 -0.2259
  822SOL    HW1 2465   2.616   2.379   2.778  0.3064 -2.2234  0.8694
  822SOL    HW2 2466   2.691   2.458   2.657  0.0521 -0.3487 -2.1491
  823SOL     OW 2467   1.192   0.179   2.101  0.6059  0.1308 -0.2618
  823SOL    HW1 2468   1.161   0.084   2.110  2.4452 -0.1605 -0.2115
  823SOL    HW2 2469   1.284   0.189   2.053 -2.0264 -0.1466 -1.4978
  824SOL     OW 2470   2.702   2.164   2.122 -0.2419 -0.6302 -0.0812
  824SOL    HW1 2471   2.726   2.177   2.219  1.4686  3.1486 -1.2169
  824SOL    HW2 2472   2.636   2.230   2.083 -1.5844  0.1306 -1.5526
  825SOL     OW 2473   2.799   1.931   2.439 -0.4590 -0.1277 -0.2506
  825SOL    HW1 2474   2.754   1.843   2.456 -0.8546  1.6845  2.7925
  825SOL    HW2 2475   2.852   1.931   2.348  2.2739  2.1239 -1.3849
  826SOL     OW 2476   2.150   0.874   2.586  0.0167 -0.2972 -0.2461
  826SOL    HW1 2477   2.094   0.851   2.500  0.4079 -0.1795 -1.0018
  826SOL    HW2 2478   2.142   0.974   2.605 -0.9503  0.7780 -2.5843
  827SOL     OW 2479   2.486   2.123   1.259 -0.0568 -0.4786 -0.4967
  827SOL    HW1 2480   2.456   2.135   1.164  0.4140  3.0981  4.1559
  827SOL    HW2 2481   2.402   2.133   1.322 -2.1125 -2.0566 -0.0086
  828SOL     OW 2482   0.142   0.156   1.593 -0.0626  0.3058 -0.2907
  828SOL    HW1 2483   0.216   0.089   1.573  0.5635  1.6264 -0.4757
  828SOL    HW2 2484   0.174   0.222   1.669  0.7706  1.2378  3.6528
  829SOL     OW 2485   1.090   2.299   2.556  0.1700 -0.3756  0.4192
  829SOL    HW1 2486   1.155   2.240   2.603 -1.0742  1.0387  1.0499
  829SOL    HW2 2487   0.995   2.259   2.566 -0.5329 -3.5200 -0.3479
  830SOL     OW 2488   0.922   0.671   0.784  0.3532  0.1106  0.7903
  830SOL    HW1 2489   0.856   0.593   0.785  1.2828 -2.3482  1.1357
  830SOL    HW2 2490   0.945   0.697   0.688 -2.0237  1.6316  2.5476
  831SOL     OW 2491   2.857   1.489   3.004  0.2347  0.0198  0.1334
  831SOL    HW1 2492   2.800   1.523   0.010  0.0977  0.7956  0.8086
  831SOL    HW2 2493   2.836   1.390   2.993 -0.0093 -2.0277 -2.4273
  832SOL     OW 2494   1.836   2.158   2.248  0.2784 -0.0737 -0.3274
  832SOL    HW1 2495   1.761   2.123   2.306  1.7696  1.4009 -0.7701
  832SOL    HW2 2496   1.792   2.223   2.184 -3.7172 -0.6626  0.6124
  833SOL     OW 2497   0.799   0.297   2.165  0.5306  0.1715 -0.2010
  833SOL    HW1 2498   0.869   0.291   2.239 -1.2221 -1.1168 -0.3229
  833SOL    HW2 2499   0.734   0.218   2.169 -2.3012  0.7335  1.5936
  834SOL     OW 2500   0.282   0.542   1.196 -0.1815 -0.2918  0.6881
  834SOL    HW1 2501   0.220   0.625   1.184 -2.2494  0.1473 -2.1339
  834SOL    HW2 2502   0.240   0.479   1.264 -0.9687  0.0105  1.2111
  835SOL     OW 2503   2.561   0.491   0.162 -0.0401  0.3253  0.5149
  835SOL    HW1 2504   2.516   0.483   0.070 -2.5385 -1.2807  0.8839
  835SOL    HW2 2505   2.661   0.470   0.150  0.7287 -1.0494  0.2183
  836SOL     OW 2506   1.472   1.888   0.206 -0.3449  0.2551 -0.2622
  836SOL    HW1 2507   1.476   1.929   0.298  0.8949  1.6164 -0.1114
  836SOL    HW2 2508   1.409   1.806   0.205 -0.2921 -1.9589 -0.0632
  837SOL     OW 2509   1.548   1.710   0.704  0.3428 -0.7290 -0.5838
  837SOL    HW1 2510   1.641   1.733   0.661  1.5569  1.9877 -0.9312
  837SOL    HW2 2511   1.566   1.669   0.799  0.7007  0.8622  2.9533
  838SOL     OW 2512   1.443   0.876   2.051  0.3418 -0.0691 -0.3837
  838SOL    HW1 2513   1.386   0.905   1.971  2.2003  0.6101 -3.0783
  838SOL    HW2 2514   1.413   0.912   2.145  0.0091 -0.1494  1.3039
  839SOL     OW 2515   0.856   1.706   2.644  0.3797 -0.1390  0.2246
  839SOL    HW1 2516   0.779   1.771   2.636  0.0798 -0.0584 -2.1506
  839SOL    HW2 2517   0.826   1.611   2.636 -0.1795  0.2660  0.2656
  840SOL     OW 2518   0.695   2.325   0.531 -0.1378 -0.5758  0.1677
  840SOL    HW1 2519   0.775   2.386   0.534  1.0533 -2.1261  1.2262
  840SOL    HW2 2520   0.675   2.278   0.623  2.4352 -0.9923 -2.0725
  841SOL     OW 2521   1.867   2.529   0.176  0.2732 -0.6331 -0.3473
  841SOL    HW1 2522   1.850   2.626   0.205 -1.6229  2.4311 -0.5888
  841SOL    HW2 2523   1.790   2.493   0.117 -2.1414  0.5270  0.5217
  842SOL     OW 2524   0.503   0.722   2.903  0.0319  0.2210  0.1141
  842SOL    HW1 2525   0.565   0.759   2.828  1.4739  1.3002 -0.3893
  842SOL    HW2 2526   0.408   0.689   2.877 -0.6647 -1.5913  1.6683
  843SOL     OW 2527   1.132   0.348   0.818 -0.1079  0.2089 -0.1665
  843SOL    HW1 2528   1.040   0.314   0.793 -0.3389 -0.5646 -2.1717
  843SOL    HW2 2529   1.119   0.447   0.856 -1.1176  1.8821  2.3815
  844SOL     OW 2530   2.892   0.032   2.604  0.4257  0.4543 -0.2268
  844SOL    HW1 2531   2.797   0.042   2.650 -0.2256  2.5561  0.4466
  844SOL    HW2 2532   2.902   3.007   2.566 -0.1948 -2.6972  0.0008
  845SOL     OW 2533   2.679   2.014   1.405  0.1223  0.2290  0.2404
  845SOL    HW1 2534   2.608   2.045   1.340 -2.1003  1.2322  0.1490
  845SOL    HW2 2535   2.663   2.055   1.501 -0.8386 -0.0420  0.0353
  846SOL     OW 2536   2.623   1.445   2.230  0.2394 -0.1240  0.2346
  846SOL    HW1 2537   2.617   1.418   2.329 -1.5229  1.7949  0.4591
  846SOL    HW2 2538   2.676   1.378   2.178  0.5458  1.3605 -1.0116
  847SOL     OW 2539   1.037   0.730   1.534 -0.3342 -0.3736  0.5567
  847SOL    HW1 2540   1.023   0.786   1.617 -0.2284 -0.9083  1.0843
  847SOL    HW2 2541   1.000   0.638   1.540 -0.1515  1.2249 -2.6227
  848SOL     OW 2542   2.718   2.868   2.987  0.3632  0.2766 -0.3602
  848SOL    HW1 2543   2.650   2.824   3.048  0.5669  1.4246 -1.0886
  848SOL    HW2 2544   2.756   2.948   3.035  1.1170  0.8425  0.9224
  849SOL     OW 2545   0.541   0.066   0.187 -0.2630  0.1812  0.1516
  849SOL    HW1 2546   0.543   0.043   0.286  0.4786 -0.0792 -1.2292
  849SOL    HW2 2547   0.586   0.158   0.169 -0.2227  0.5445  1.6114
  850SOL     OW 2548   1.568   2.914   1.120  0.1032 -0.5498 -0.6486
  850SOL    HW1 2549   1.619   3.005   1.108  1.2444 -1.2298  0.4865
  850SOL    HW2 2550   1.630   2.837   1.103 -4.3054  0.9109 -2.6331
  851SOL     OW 2551   2.691   0.252   2.013 -0.0947  1.0989 -0.8500
  851SOL    HW1 2552   2.771   0.234   1.951 -0.3990 -3.3080 -0.2519
  851SOL    HW2 2553   2.658   0.345   2.014  1.2614 -2.1908 -0.6117
  852SOL     OW 2554   1.834   0.619   2.243 -0.1011 -0.2490  0.0675
  852SOL    HW1 2555   1.925   0.570   2.245 -2.3589  0.0539  3.8377
  852SOL    HW2 2556   1.761   0.552   2.230 -0.3849 -0.2164  2.9253
  853SOL     OW 2557   2.821   3.021   0.098  0.0944 -0.0455  0.7086
  853SOL    HW1 2558   2.758   0.010   0.144  1.5825  0.2250 -1.0464
  853SOL    HW2 2559   2.895   0.007   0.060  0.3519 -0.0638 -0.7241
  854SOL     OW 2560   2.293   1.195   2.197  0.1480 -0.1117 -0.5359
  854SOL    HW1 2561   2.376   1.163   2.246 -0.1448 -1.0413 -1.6893
  854SOL    HW2 2562   2.300   1.184   2.096 -0.4301 -1.2591  1.1836
  855SOL     OW 2563   0.830   2.892   0.276 -0.3255 -0.4507 -0.7082
  855SOL    HW1 2564   0.794   2.927   0.189 -0.2202  1.0590  2.0431
  855SOL    HW2 2565   0.800   2.795   0.298  1.4697  1.7561  0.5890
  856SOL     OW 2566   0.009   0.023   2.833 -0.2727 -0.1568  0.0051
  856SOL    HW1 2567   3.011   0.035   2.757 -1.6117  0.7997 -1.1735
  856SOL    HW2 2568   0.048   3.000   2.834 -0.8979 -0.5167 -0.2644
  857SOL     OW 2569   1.387   2.663   1.482  0.7568  0.0695 -0.2704
  857SOL    HW1 2570   1.422   2.578   1.435 -0.3065 -0.0626 -0.2189
  857SOL    HW2 2571   1.331   2.636   1.562 -1.4736 -0.0767  2.6210
  858SOL     OW 2572   2.640   2.359   1.783 -0.1118  0.1243  0.5902
  858SOL    HW1 2573   2.739   2.380   1.792  1.2753 -1.7393 -0.1041
  858SOL    HW2 2574   2.629   2.258   1.778  2.7956 -1.7245 -0.4955
  859SOL     OW 2575   1.658   2.220   1.941 -0.5872 -0.0729 -0.0410
  859SOL    HW1 2576   1.642   2.199   1.844 -0.4402 -2.5049  1.6654
  859SOL    HW2 2577   1.574   2.206   1.995 -1.8314 -0.3464 -2.9032
  860SOL     OW 2578   1.984   2.845   2.953  0.2446 -0.0091  0.2528
  860SOL    HW1 2579   1.991   2.842   2.851  0.7825  0.5569  0.1862
  860SOL    HW2 2580   1.992   2.751   2.987 -1.1532  1.9598 -2.2005
  861SOL     OW 2581   2.389   2.718   0.730 -0.3487 -0.2046 -0.5133
  861SOL    HW1 2582   2.399   2.621   0.697 -1.9972  1.0365 -2.2967
  861SOL    HW2 2583   2.467   2.772   0.686  0.4530  0.0442  0.0240
  862SOL     OW 2584   1.695   0.092   2.591 -0.2245  0.1211  0.1274
  862SOL    HW1 2585   1.630   0.017   2.559 -1.8923 -1.8119 -0.4415
  862SOL    HW2 2586   1.683   0.169   2.522  1.4007  2.0848 -0.2905
  863SOL     OW 2587   0.234   0.617   0.895  0.1359 -0.1208 -0.6289
  863SOL    HW1 2588   0.252   0.556   0.974 -2.3668 -2.7910  1.2482
  863SOL    HW2 2589   0.236   0.717   0.920 -0.6811  1.8837  1.3404
  864SOL     OW 2590   0.303   2.683   2.034 -0.2129  0.2290  0.4104
  864SOL    HW1 2591   0.366   2.743   2.095  2.0430  0.6974  1.6278
  864SOL    HW2 2592   0.306   2.586   2.072  0.7066 -1.7343 -0.8360
  865SOL     OW 2593   0.567   1.152   3.050 -0.6031 -0.4961 -0.2652
  865SOL    HW1 2594   0.667   1.155   0.004  1.8494  0.4667 -2.2833
  865SOL    HW2 2595   0.524   1.064   0.002  0.6429  1.1675  1.7935
  866SOL     OW 2596   3.001   0.563   0.197 -0.1379 -0.2680  0.3444
  866SOL    HW1 2597   3.055   0.636   0.152 -2.7257  1.5233 -1.9715
  866SOL    HW2 2598   3.058   0.528   0.273  0.9906  0.5635 -1.2945
  867SOL     OW 2599   0.040   2.816   2.859  0.2280 -0.0462  0.7321
  867SOL    HW1 2600   0.062   2.774   2.950  1.5075 -0.3344 -0.1060
  867SOL    HW2 2601   3.016   2.793   2.839 -0.1126  1.3417  0.3225
  868SOL     OW 2602   1.495   0.119   0.383 -0.0532  0.2388  0.0459
  868SOL    HW1 2603   1.404   0.169   0.392 -2.3195  1.3321 -0.7680
  868SOL    HW2 2604   1.503   0.031   0.436 -3.1830 -1.3109  1.3791
  869SOL     OW 2605   1.965   1.587   0.556 -0.1391  0.7069  0.8463
  869SOL    HW1 2606   1.961   1.513   0.626 -1.3734  0.8674  1.5413
  869SOL    HW2 2607   1.890   1.653   0.576  2.7510  1.8830  3.4626
  870SOL     OW 2608   1.819   1.778   0.649 -0.4606 -0.1676  0.5106
  870SOL    HW1 2609   1.879   1.749   0.721 -1.2909  1.7461 -0.7734
  870SOL    HW2 2610   1.837   1.870   0.614 -2.2367 -1.6723  0.6307
  871SOL     OW 2611   1.198   1.487   1.184  0.6944 -0.3724  0.5608
  871SOL    HW1 2612   1.175   1.453   1.278  1.9490 -0.3266  0.7133
  871SOL    HW2 2613   1.279   1.546   1.183 -0.3114 -2.4835 -1.2476
  872SOL     OW 2614   1.326   1.556   1.658 -0.3632  0.0969 -0.3451
  872SOL    HW1 2615   1.247   1.494   1.653 -0.0242  1.3511 -0.5315
  872SOL    HW2 2616   1.298   1.657   1.663 -1.4306 -3.3885  0.1122
  873SOL     OW 2617   0.622   1.450   2.401 -0.6103  0.4181 -0.2509
  873SOL    HW1 2618   0.669   1.447   2.497  0.7126 -2.4229  2.6319
  873SOL    HW2 2619   0.625   1.543   2.367 -1.6380 -2.8586 -2.0162
  874SOL     OW 2620   0.686   1.414   1.179  0.2524  0.5438  0.0147
  874SOL    HW1 2621   0.643   1.504   1.200 -1.5004  0.9321  2.4416
  874SOL    HW2 2622   0.612   1.339   1.179 -1.2568 -1.6105  1.9066
  875SOL     OW 2623   2.396   0.111   1.188  0.0140 -0.0424  0.1689
  875SOL    HW1 2624   2.449   0.195   1.210  1.4571 -0.3795 -0.3179
  875SOL    HW2 2625   2.327   0.088   1.261 -0.4020  0.6002  1.9312
  876SOL     OW 2626   0.754   0.819   0.102  0.0136  0.3701  0.0974
  876SOL    HW1 2627   0.803   0.737   0.139  1.1681  1.9631 -0.6713
  876SOL    HW2 2628   0.803   0.904   0.136 -0.3993  0.3722  0.7292
  877SOL     OW 2629   2.792   0.391   1.302 -0.3857 -0.5291  0.2861
  877SOL    HW1 2630   2.737   0.321   1.345  1.7893  0.3920 -0.2026
  877SOL    HW2 2631   2.750   0.400   1.209  0.9328 -0.2086  1.7883
  878SOL     OW 2632   1.660   2.226   0.057  0.4875 -0.0445 -0.1290
  878SOL    HW1 2633   1.647   2.322   0.029  0.1735  1.1327  0.2938
  878SOL    HW2 2634   1.668   2.159   3.053  0.2168 -0.2163  0.9914
  879SOL     OW 2635   2.188   2.172   1.628  0.7238  0.4264  0.4985
  879SOL    HW1 2636   2.211   2.172   1.525  0.9764  1.7408 -4.6687
  879SOL    HW2 2637   2.226   2.252   1.680 -4.0108  3.2609 -1.4448
  880SOL     OW 2638   0.950   2.957   1.500 -0.1771  0.6567  0.1276
  880SOL    HW1 2639   0.986   3.018   1.572 -0.3053 -1.9116 -1.3197
  880SOL    HW2 2640   1.009   2.876   1.492  0.1626 -1.5496 -1.8608
  881SOL     OW 2641   0.933   1.967   2.796 -0.5322  0.4840 -0.0695
  881SOL    HW1 2642   0.942   1.906   2.716 -0.1075 -2.0716 -0.2589
  881SOL    HW2 2643   1.023   1.977   2.850  1.0245 -1.1884  1.6371
  882SOL     OW 2644   2.142   0.829   1.918 -0.0887  0.1196  0.0658
  882SOL    HW1 2645   2.166   0.867   2.011  1.3210  0.4993  0.6349
  882SOL    HW2 2646   2.206   0.859   1.848 -0.5628 -0.9853 -3.4851
  883SOL     OW 2647   1.122   0.552   1.845 -0.1237  0.1589  0.2066
  883SOL    HW1 2648   1.104   0.636   1.901  1.7536 -0.1426 -2.9242
  883SOL    HW2 2649   1.088   0.474   1.900 -1.0696 -1.1640 -1.5252
  884SOL     OW 2650   2.878   0.458   3.051  0.5384  0.0276  0.2271
  884SOL    HW1 2651   2.816   0.388   0.013  0.8251 -0.1538 -0.8020
  884SOL    HW2 2652   2.930   0.515   0.048  1.3338  1.8304  2.2106
  885SOL     OW 2653   0.672   2.103   0.373 -0.6497  0.1781  0.0425
  885SOL    HW1 2654   0.653   2.187   0.427  1.6307  0.2264 -0.4580
  885SOL    HW2 2655   0.671   2.121   0.272 -1.2395 -1.9640 -1.2367
  886SOL     OW 2656   1.873   1.293   2.847  0.3733 -0.8088 -0.1129
  886SOL    HW1 2657   1.856   1.322   2.754 -3.0293  2.0412 -2.0400
  886SOL    HW2 2658   1.789   1.297   2.902 -2.0092  0.0724  0.7644
  887SOL     OW 2659   1.750   0.541   1.456  0.5428 -0.3255  0.7745
  887SOL    HW1 2660   1.659   0.570   1.498 -4.8939  2.4034  0.5498
  887SOL    HW2 2661   1.777   0.607   1.384  0.7865 -2.5062  0.6065
  888SOL     OW 2662   2.771   1.029   1.533 -0.1681  0.2028  0.4831
  888SOL    HW1 2663   2.675   1.055   1.529 -2.1411  2.3284 -1.6885
  888SOL    HW2 2664   2.781   0.928   1.548  1.9537 -3.7193  2.5226
  889SOL     OW 2665   2.889   2.763   0.967  0.8986  0.1030 -0.5905
  889SOL    HW1 2666   2.898   2.705   0.882  2.6461 -0.6421  1.4461
  889SOL    HW2 2667   2.909   2.705   1.053  0.8077 -3.6073  3.2967
  890SOL     OW 2668   0.162   2.500   2.654  0.4327 -0.3310 -0.1982
  890SOL    HW1 2669   0.099   2.480   2.724  0.5952 -0.9131 -1.7582
  890SOL    HW2 2670   0.255   2.508   2.690 -2.2781  2.1818  0.6089
  891SOL     OW 2671   0.662   1.916   2.985 -0.2832 -0.2630 -0.3307
  891SOL    HW1 2672   0.672   1.976   2.902  2.8675  0.9793  0.7468
  891SOL    HW2 2673   0.706   1.823   2.973  0.4444  0.4288 -0.1470
  892SOL     OW 2674   0.314   2.321   1.243 -0.2943  0.0562 -0.0182
  892SOL    HW1 2675   0.358   2.245   1.191 -2.8351  0.2385 -1.4523
  892SOL    HW2 2676   0.382   2.390   1.259 -2.1960 -0.7934 -2.0838
  893SOL     OW 2677   0.531   0.014   1.285  0.2221  0.7477 -0.3427
  893SOL    HW1 2678   0.617   0.016   1.338  1.3809 -0.5037 -0.0720
  893SOL    HW2 2679   0.522   0.104   1.241 -0.8179 -0.7566 -1.2503
  894SOL     OW 2680   2.831   1.272   0.851  0.1130  0.2796  0.5000
  894SOL    HW1 2681   2.823   1.198   0.780  0.8929  2.1882 -1.6777
  894SOL    HW2 2682   2.742   1.318   0.860 -2.3078  0.9375  0.9541
  895SOL     OW 2683   2.465   2.536   1.677 -0.4342  0.0687  0.1053
  895SOL    HW1 2684   2.518   2.467   1.724 -1.3436 -0.0764  1.4573
  895SOL    HW2 2685   2.488   2.542   1.579 -0.7986  1.4720  1.0399
  896SOL     OW 2686   0.920   0.467   1.602 -0.1601  0.1398 -0.0982
  896SOL    HW1 2687   0.966   0.402   1.669  0.8191  1.6144 -0.8000
  896SOL    HW2 2688   0.845   0.516   1.654 -0.7874  0.9192 -0.7632
  897SOL     OW 2689   0.753   1.569   1.599  0.3747 -0.6817 -0.2235
  897SOL    HW1 2690   0.825   1.513   1.554 -0.8617 -4.2267  0.3192
  897SOL    HW2 2691   0.783   1.663   1.628  0.0590 -0.9400  0.1247
  898SOL     OW 2692   1.494   2.532   1.918  0.2211 -0.0980  0.2081
  898SOL    HW1 2693   1.501   2.458   1.849 -2.0520 -0.7502  1.8282
  898SOL    HW2 2694   1.405   2.581   1.926 -1.7047  1.3609 -0.1581
  899SOL     OW 2695   0.888   0.611   0.241  0.4728  0.5465  0.1531
  899SOL    HW1 2696   0.835   0.651   0.322 -0.5007 -0.3224 -1.7458
  899SOL    HW2 2697   0.889   0.511   0.240  1.1479  0.1033  2.4379
  900SOL     OW 2698   1.449   2.130   2.084 -0.4250  0.1754  0.0481
  900SOL    HW1 2699   1.423   2.208   2.143 -0.0628 -0.0962 -1.4063
  900SOL    HW2 2700   1.379   2.108   2.016  0.9703  1.4260 -0.2426
  901SOL     OW 2701   0.928   2.465   0.084  0.5046 -0.2192  0.3987
  901SOL    HW1 2702   0.847   2.523   0.098  2.8387 -4.2046  1.0797
  901SOL    HW2 2703   0.925   2.381   0.143  1.3422 -3.3558 -0.5289
  902SOL     OW 2704   1.733   1.353   0.465 -0.1940  0.0332  0.3351
  902SOL    HW1 2705   1.826   1.317   0.487 -1.7710 -0.2801  0.4959
  902SOL    HW2 2706   1.697   1.396   0.547 -0.7248 -0.0667  1.8864
  903SOL     OW 2707   2.123   1.031   0.319 -0.5079  0.1869  0.7094
  903SOL    HW1 2708   2.203   1.069   0.368 -1.4881  0.2981  0.3594
  903SOL    HW2 2709   2.125   1.039   0.220 -0.3292 -1.8536  3.3567
  904SOL     OW 2710   0.851   1.256   0.039  0.0487 -0.5046  0.1659
  904SOL    HW1 2711   0.920   1.316   3.073 -2.2186 -3.6074  0.0080
  904SOL    HW2 2712   0.808   1.301   0.120 -0.4639 -0.7902  1.0119
  905SOL     OW 2713   2.145   2.931   1.225 -0.2866 -0.0554  0.0981
  905SOL    HW1 2714   2.166   3.006   1.286 -0.3733 -1.6246  1.1938
  905SOL    HW2 2715   2.091   2.861   1.279  2.5771  0.7828  1.5903
  906SOL     OW 2716   2.671   2.348   1.274  0.6174  0.5105 -0.4246
  906SOL    HW1 2717   2.711   2.366   1.180 -1.1464 -0.4932 -3.1278
  906SOL    HW2 2718   2.603   2.273   1.270 -1.3800 -2.3026  1.2892
  907SOL     OW 2719   1.277   1.041   0.349 -0.0565 -0.0976  0.1265
  907SOL    HW1 2720   1.213   1.006   0.277 -3.1776  0.2918  0.8937
  907SOL    HW2 2721   1.372   1.004   0.333 -2.2513 -0.4201 -0.7193
  908SOL     OW 2722   1.892   3.022   0.766 -0.3660 -0.2926  0.2189
  908SOL    HW1 2723   1.926   3.003   0.863  1.6890 -1.7163  1.2032
  908SOL    HW2 2724   1.927   0.040   0.739 -3.6099 -0.7724  1.7598
  909SOL     OW 2725   2.045   1.176   1.676  0.2641  0.2396  1.0716
  909SOL    HW1 2726   2.025   1.180   1.774  0.2369 -0.7133 -0.6742
  909SOL    HW2 2727   2.143   1.203   1.668 -0.4300 -0.6650 -0.0515
  910SOL     OW 2728   1.477   0.169   2.015  0.0608 -0.0189 -0.2025
  910SOL    HW1 2729   1.502   0.138   2.106  1.7059 -0.4360  1.3617
  910SOL    HW2 2730   1.535   0.133   1.938 -0.0979  0.5466 -1.0759
  911SOL     OW 2731   2.546   0.565   2.619  0.2759  0.0994 -1.1764
  911SOL    HW1 2732   2.588   0.642   2.564  3.4744  1.6194 -1.2772
  911SOL    HW2 2733   2.613   0.505   2.664  0.3948  0.1011  2.6173
  912SOL     OW 2734   2.926   1.153   1.709  0.9181  0.0432  0.1844
  912SOL    HW1 2735   3.018   1.132   1.673 -2.8615  1.0608 -3.3382
  912SOL    HW2 2736   2.856   1.127   1.639 -2.0847  1.4982 -2.5071
  913SOL     OW 2737   2.903   2.310   1.427  0.1021  0.6785  0.3570
  913SOL    HW1 2738   2.947   2.220   1.416 -2.9718 -0.0760  0.5385
  913SOL    HW2 2739   2.819   2.315   1.373  0.6809 -0.3081  0.8597
  914SOL     OW 2740   1.639   1.160   1.731 -0.3538 -0.6458  0.5614
  914SOL    HW1 2741   1.679   1.081   1.684  0.2720  0.3977  0.4783
  914SOL    HW2 2742   1.684   1.247   1.706  4.3986 -0.9792  2.6080
  915SOL     OW 2743   2.143   0.736   1.139 -0.3633 -0.3435  0.1801
  915SOL    HW1 2744   2.223   0.712   1.196 -1.8316  1.9249 -3.3389
  915SOL    HW2 2745   2.142   0.694   1.046 -0.2496  0.1418 -0.8928
  916SOL     OW 2746   2.384   2.201   1.017 -0.2821 -0.9639 -0.0294
  916SOL    HW1 2747   2.352   2.296   1.043 -1.8575 -1.0094  0.0577
  916SOL    HW2 2748   2.397   2.186   0.915  1.1771  1.0200  0.5111
  917SOL     OW 2749   1.844   1.985   2.617  0.0353 -0.0154 -0.0475
  917SOL    HW1 2750   1.864   2.072   2.667 -3.6557  0.7781  0.5088
  917SOL    HW2 2751   1.794   1.922   2.680 -0.9262 -0.4216 -0.5593
  918SOL     OW 2752   1.855   2.734   2.302  0.2314 -0.3948 -0.5105
  918SOL    HW1 2753   1.932   2.799   2.287  1.1116  0.7832 -0.9775
  918SOL    HW2 2754   1.885   2.639   2.282  0.6081 -0.9367 -1.0422
  919SOL     OW 2755   1.168   2.783   1.056 -0.0751 -0.0121  0.0103
  919SOL    HW1 2756   1.234   2.862   1.034 -0.0961  1.6769  1.0607
  919SOL    HW2 2757   1.225   2.700   1.086  0.2562 -0.0274  3.1456
  920SOL     OW 2758   0.001   0.216   2.238  0.0975  0.9597 -0.5582
  920SOL    HW1 2759   0.034   0.140   2.295  0.9197  1.0022  0.6000
  920SOL    HW2 2760   2.974   0.227   2.252 -0.3211 -0.5698  1.5785
  921SOL     OW 2761   2.936   0.836   1.764  0.7516  0.0789 -0.0627
  921SOL    HW1 2762   2.889   0.921   1.794 -0.2532 -1.4533  3.6913
  921SOL    HW2 2763   3.036   0.842   1.759 -2.2003 -0.7840 -1.3119
  922SOL     OW 2764   2.197   2.090   0.301 -0.3288 -0.3553  0.2820
  922SOL    HW1 2765   2.172   2.175   0.250 -0.8747 -0.7995 -0.0450
  922SOL    HW2 2766   2.204   2.009   0.235  1.1492 -0.3263 -0.8124
  923SOL     OW 2767   0.744   1.818   0.397 -0.0713  0.0008 -0.3024
  923SOL    HW1 2768   0.730   1.754   0.323  2.0532  1.1169  2.7557
  923SOL    HW2 2769   0.725   1.915   0.367 -2.0964 -1.6922  0.3543
  924SOL     OW 2770   1.076   0.686   0.075  0.5140  0.3873  0.3624
  924SOL    HW1 2771   1.011   0.649   0.142 -0.9895  1.3540 -2.8124
  924SOL    HW2 2772   1.044   0.666   3.050  0.7400 -1.0240 -2.7043
  925SOL     OW 2773   2.719   0.465   0.768 -0.5752  0.4154  0.0693
  925SOL    HW1 2774   2.750   0.561   0.787 -0.6225 -2.0751  0.3511
  925SOL    HW2 2775   2.635   0.469   0.717  1.9602  0.1119 -1.4734
  926SOL     OW 2776   0.569   0.373   1.293 -1.1145 -0.2870  0.0988
  926SOL    HW1 2777   0.471   0.356   1.289  1.1400  0.9234 -0.6559
  926SOL    HW2 2778   0.601   0.338   1.382 -2.5116  3.1559  2.9467
  927SOL     OW 2779   0.085   1.519   2.410  0.1009  0.1763 -0.1836
  927SOL    HW1 2780   3.069   1.488   2.441  2.1414  0.6096 -2.9696
  927SOL    HW2 2781   0.130   1.446   2.356  1.0834  0.6317 -0.1350
  928SOL     OW 2782   2.883   0.259   2.442 -0.0691  0.6278 -0.2234
  928SOL    HW1 2783   2.882   0.174   2.498 -1.3910  0.4039 -1.5150
  928SOL    HW2 2784   2.913   0.338   2.501 -0.8553  2.7721  1.2879
  929SOL     OW 2785   2.657   3.019   1.162 -0.6877  0.0068  0.1958
  929SOL    HW1 2786   2.629   2.932   1.200 -0.8152  0.1621 -1.8181
  929SOL    HW2 2787   2.582   0.008   1.136  0.3287 -1.2646 -2.1680
  930SOL     OW 2788   1.734   0.920   1.652  0.5631  0.2973 -0.2673
  930SOL    HW1 2789   1.676   0.855   1.606 -0.0045  0.2830  3.4665
  930SOL    HW2 2790   1.778   0.867   1.728  0.1144  2.0493 -0.4050
  931SOL     OW 2791   2.227   1.037   0.036 -0.1089 -0.2355 -0.0476
  931SOL    HW1 2792   2.271   1.130   0.047  0.3788 -0.7249  0.1092
  931SOL    HW2 2793   2.149   1.044   3.040  0.6453 -2.3930 -1.9908
  932SOL     OW 2794   1.949   1.184   0.540  0.0067 -0.6978 -0.1547
  932SOL    HW1 2795   2.034   1.225   0.587  1.7099  1.8681  1.2745
  932SOL    HW2 2796   1.916   1.106   0.596 -2.3307  0.4060  0.2497
  933SOL     OW 2797   2.279   1.485   0.843 -0.2167  0.1924  0.2758
  933SOL    HW1 2798   2.326   1.452   0.760  0.7189 -0.5380 -0.1739
  933SOL    HW2 2799   2.263   1.584   0.843  0.6723  1.6875 -0.7428
  934SOL     OW 2800   2.185   0.703   2.344 -0.1938  0.0689 -0.4143
  934SOL    HW1 2801   2.229   0.640   2.413  2.1490 -2.1805 -1.0338
  934SOL    HW2 2802   2.107   0.653   2.302 -0.7484  2.6504  0.7608
  935SOL     OW 2803   0.183   0.990   0.592 -0.3561  0.2747  0.1397
  935SOL    HW1 2804   0.143   1.082   0.573  1.0212 -1.6380 -0.4923
  935SOL    HW2 2805   0.111   0.919   0.603 -1.1577 -0.8713  1.7478
  936SOL     OW 2806   0.375   0.213   0.759 -0.2963 -0.1902  0.6684
  936SOL    HW1 2807   0.433   0.131   0.742 -1.5592  3.9371  3.9859
  936SOL    HW2 2808   0.386   0.251   0.852  0.7785 -0.0384 -1.8999
  937SOL     OW 2809   2.993   3.033   1.916  0.1206 -0.2878  0.0233
  937SOL    HW1 2810   3.009   2.987   2.004 -1.4649 -0.4584 -0.6768
  937SOL    HW2 2811   3.022   2.976   1.832  1.2357 -0.1060 -1.2681
  938SOL     OW 2812   0.047   2.470   0.053  0.1579 -0.1844 -0.3391
  938SOL    HW1 2813   0.075   2.414   0.133  0.5307  0.5659 -2.0004
  938SOL    HW2 2814   0.068   2.570   0.066 -1.6057  2.5805 -2.0071
  939SOL     OW 2815   0.831   1.882   0.765  0.0804 -0.4083  0.4414
  939SOL    HW1 2816   0.856   1.974   0.792  1.0323  0.7997 -3.0305
  939SOL    HW2 2817   0.829   1.820   0.847  3.4380  0.3115  0.9055
  940SOL     OW 2818   0.056   0.447   2.864  0.3442  0.5765  0.3365
  940SOL    HW1 2819   3.065   0.450   2.941 -0.8821  0.9617  2.3477
  940SOL    HW2 2820   0.087   0.351   2.851 -0.9116 -0.5117 -1.9014
  941SOL     OW 2821   1.762   0.466   2.661  0.2079 -0.1537  0.1370
  941SOL    HW1 2822   1.749   0.453   2.760 -0.2366  3.2771 -2.2285
  941SOL    HW2 2823   1.810   0.556   2.650  0.1121  1.0867  2.6857
  942SOL     OW 2824   1.080   0.386   1.215  0.2750  0.0393 -0.3970
  942SOL    HW1 2825   1.176   0.353   1.210 -0.3725  2.0940 -0.0746
  942SOL    HW2 2826   1.073   0.490   1.210  0.3633  1.6517 -1.0621
  943SOL     OW 2827   0.997   0.926   1.753 -0.8136 -0.1552  0.2557
  943SOL    HW1 2828   0.946   0.911   1.837 -2.1559  1.8046 -1.6745
  943SOL    HW2 2829   0.939   0.981   1.694  0.2908  0.8841 -0.3703
  944SOL     OW 2830   1.973   0.990   1.501  0.0795  0.2869 -0.7525
  944SOL    HW1 2831   1.876   0.973   1.534 -0.6365  0.7135 -2.3418
  944SOL    HW2 2832   2.002   1.073   1.563 -0.7625  1.7926  0.2697
  945SOL     OW 2833   2.588   0.047   0.221 -0.5679  0.2234 -0.1064
  945SOL    HW1 2834   2.611   0.022   0.320  1.1860 -0.7437  2.2070
  945SOL    HW2 2835   2.529   3.049   0.177  0.5792 -0.8154  0.1795
  946SOL     OW 2836   2.879   0.569   1.830 -0.2712  0.1422  0.1580
  946SOL    HW1 2837   2.783   0.553   1.867  0.7895  2.2123  0.1845
  946SOL    HW2 2838   2.886   0.670   1.814  1.1493 -1.0744 -0.4277
  947SOL     OW 2839   1.092   2.998   0.126 -0.0948  0.3220  0.2051
  947SOL    HW1 2840   1.104   2.962   0.030 -0.8782  3.6392 -2.6285
  947SOL    HW2 2841   1.079   2.933   0.204  0.6117 -0.5961  3.0942
  948SOL     OW 2842   2.335   1.835   1.376  0.0165 -0.1453  0.6935
  948SOL    HW1 2843   2.411   1.905   1.380  1.1723 -2.0872  0.0633
  948SOL    HW2 2844   2.376   1.743   1.398  1.0801 -0.9103 -0.8102
  949SOL     OW 2845   0.387   1.352   0.131 -0.4384 -0.0520  0.0950
  949SOL    HW1 2846   0.289   1.320   0.132  0.2103  2.5360  0.2352
  949SOL    HW2 2847   0.429   1.314   0.049  0.0015  2.5655  3.2170
  950SOL     OW 2848   0.527   2.563   0.994  0.3390  0.0673 -0.1506
  950SOL    HW1 2849   0.480   2.624   0.928 -2.4115 -1.1476  0.3347
  950SOL    HW2 2850   0.515   2.467   0.968 -1.7353  3.9267 -1.7470
  951SOL     OW 2851   0.581   1.108   2.504 -0.1814 -0.1512 -0.1244
  951SOL    HW1 2852   0.615   1.087   2.596  0.4073  0.8582  1.1794
  951SOL    HW2 2853   0.640   1.067   2.431 -2.9767 -1.5649  1.8427
  952SOL     OW 2854   0.320   1.071   0.812  0.3159 -0.2918 -0.2956
  952SOL    HW1 2855   0.348   1.156   0.773 -0.5052 -3.2204  1.4057
  952SOL    HW2 2856   0.272   1.009   0.743 -0.4105 -1.2060 -1.9192
  953SOL     OW 2857   2.729   2.912   2.277 -0.1073  0.4118 -0.6458
  953SOL    HW1 2858   2.762   3.007   2.268  2.1281 -1.8387 -0.5254
  953SOL    HW2 2859   2.788   2.872   2.351 -1.0146  2.2091 -0.0981
  954SOL     OW 2860   1.384   1.180   0.589 -0.4692  0.3076 -0.0060
  954SOL    HW1 2861   1.373   1.177   0.487 -0.4811 -0.8966 -1.3056
  954SOL    HW2 2862   1.479   1.156   0.620  2.6524  1.4154 -2.0019
  955SOL     OW 2863   0.692   2.128   0.083  0.1651  0.3912  0.1424
  955SOL    HW1 2864   0.786   2.147   0.120 -0.9675  2.7909 -0.5225
  955SOL    HW2 2865   0.687   2.053   0.017 -0.9341  1.3963  1.2962
  956SOL     OW 2866   2.265   0.488   2.053 -0.2550  0.1643  0.2081
  956SOL    HW1 2867   2.316   0.451   2.132 -1.6616  1.5800 -1.4649
  956SOL    HW2 2868   2.293   0.583   2.035  0.7191  3.7171 -1.4974
  957SOL     OW 2869   2.206   2.339   2.335 -0.4869  0.1005  0.5186
  957SOL    HW1 2870   2.234   2.258   2.389 -0.4323 -0.1759 -2.2353
  957SOL    HW2 2871   2.202   2.416   2.400  0.8500  0.2049  2.0617
  958SOL     OW 2872   1.701   1.272   1.163 -0.1223 -0.1308 -0.3465
  958SOL    HW1 2873   1.798   1.240   1.160 -3.2414  2.0754  1.8134
  958SOL    HW2 2874   1.660   1.272   1.256  1.5034 -1.2721 -1.6646
  959SOL     OW 2875   2.064   2.032   2.301  0.3818 -0.0688  0.3477
  959SOL    HW1 2876   2.139   2.095   2.271  1.7138  1.3230 -0.3213
  959SOL    HW2 2877   1.974   2.076   2.311 -2.7474 -2.3512  3.2294
  960SOL     OW 2878   0.361   0.970   2.808 -0.3185  0.4341  0.1350
  960SOL    HW1 2879   0.379   0.962   2.709  2.0266  0.7158  2.8598
  960SOL    HW2 2880   0.421   0.913   2.868 -2.1757  0.7377  0.2293
  961SOL     OW 2881   0.134   1.032   2.942 -0.6289 -0.3599  0.0629
  961SOL    HW1 2882   0.231   1.017   2.906 -0.7164  0.8819  2.1445
  961SOL    HW2 2883   0.075   1.076   2.877  0.3439 -0.0808  0.8213
  962SOL     OW 2884   0.354   1.248   2.593 -0.4593  0.3529  0.1539
  962SOL    HW1 2885   0.271   1.197   2.581  2.1344  0.3106 -1.7226
  962SOL    HW2 2886   0.433   1.219   2.530 -0.3691  0.2813 -0.6681
  963SOL     OW 2887   2.792   2.180   0.081  0.2404  0.9449 -0.4921
  963SOL    HW1 2888   2.732   2.254   0.046 -0.2323  0.3215  2.4467
  963SOL    HW2 2889   2.850   2.128   0.009  0.3329 -4.0013 -3.5106
  964SOL     OW 2890   1.068   2.252   1.537 -0.2492 -0.5533  0.1398
  964SOL    HW1 2891   1.113   2.196   1.612 -0.4632 -3.5003  2.0143
  964SOL    HW2 2892   0.997   2.311   1.580  1.7786  0.0530  2.3524
  965SOL     OW 2893   1.932   2.024   0.571  0.4783  0.3886 -0.7729
  965SOL    HW1 2894   1.950   2.059   0.479  0.3060  2.4632  1.0164
  965SOL    HW2 2895   2.013   1.965   0.600  1.5789  0.5462  0.3259
  966SOL     OW 2896   2.802   1.577   0.457 -0.4387 -0.0635  0.4443
  966SOL    HW1 2897   2.888   1.566   0.403  2.6980  2.7458  0.9778
  966SOL    HW2 2898   2.720   1.591   0.399 -0.1339  2.4994  0.3853
  967SOL     OW 2899   1.745   2.890   1.738  0.3505  0.4804  0.3034
  967SOL    HW1 2900   1.720   2.828   1.661 -1.9819 -0.2954 -1.9865
  967SOL    HW2 2901   1.722   2.835   1.822 -1.9198 -0.6629  1.5982
  968SOL     OW 2902   1.257   0.388   0.115 -0.0780 -0.7196  0.5425
  968SOL    HW1 2903   1.282   0.469   0.166 -0.5945 -4.9134 -1.0512
  968SOL    HW2 2904   1.272   0.417   0.015 -0.5330 -1.0296 -0.3689
  969SOL     OW 2905   0.181   1.311   2.256 -0.5151 -0.2898 -0.0693
  969SOL    HW1 2906   0.279   1.279   2.274  3.2875 -0.4040 -0.5126
  969SOL    HW2 2907   0.190   1.368   2.171 -1.0290  0.6143 -1.1409
  970SOL     OW 2908   1.989   2.095   1.260 -0.3037  0.3365 -0.1149
  970SOL    HW1 2909   1.939   2.083   1.347 -0.9665 -0.5378  1.7824
  970SOL    HW2 2910   1.925   2.140   1.198  1.0513 -2.4732  1.4391
  971SOL     OW 2911   2.533   2.403   0.905  0.3534  0.8287  0.5782
  971SOL    HW1 2912   2.562   2.339   0.977 -0.4740 -1.1218 -1.2932
  971SOL    HW2 2913   2.614   2.425   0.847 -2.0182 -0.3905  1.2654
  972SOL     OW 2914   3.005   1.092   2.530  0.1614  0.2331  0.3589
  972SOL    HW1 2915   3.005   1.125   2.432  1.3670 -0.8611  3.1032
  972SOL    HW2 2916   2.907   1.072   2.543  1.9552 -1.8548  2.1544
  973SOL     OW 2917   0.652   0.501   0.586 -0.3803 -0.1342  0.2533
  973SOL    HW1 2918   0.606   0.554   0.660  1.3105  0.5144  1.7782
  973SOL    HW2 2919   0.705   0.434   0.641 -1.0172  1.5681  3.6745
  974SOL     OW 2920   2.193   0.811   1.515 -0.7927  0.3078 -0.1383
  974SOL    HW1 2921   2.120   0.879   1.517  2.3215 -1.1315 -1.1978
  974SOL    HW2 2922   2.145   0.723   1.519 -1.5897 -0.5414  0.3694
  975SOL     OW 2923   2.916   2.763   0.173  0.2138  1.0133 -0.4083
  975SOL    HW1 2924   2.887   2.860   0.148  2.6772  2.2949  1.4423
  975SOL    HW2 2925   2.967   2.757   0.260 -1.9654 -2.1108 -4.0345
  976SOL     OW 2926   0.482   1.829   1.086  0.6834 -0.4066 -0.2899
  976SOL    HW1 2927   0.391   1.782   1.122 -3.2197 -3.4649  1.2734
  976SOL    HW2 2928   0.544   1.764   1.041  1.0967 -2.2697 -0.9585
  977SOL     OW 2929   1.048   1.927   0.583  0.0963 -0.8582 -0.5382
  977SOL    HW1 2930   1.076   1.867   0.504 -2.2877  1.0296 -1.0064
  977SOL    HW2 2931   0.991   1.876   0.651 -0.7146 -2.7535 -2.5580
  978SOL     OW 2932   0.247   0.981   0.127  0.4829  0.2702  0.2596
  978SOL    HW1 2933   0.334   0.941   0.100 -0.7744 -2.4364  0.5736
  978SOL    HW2 2934   0.181   0.973   0.048 -2.3959  1.4369  0.6371
  979SOL     OW 2935   2.106   1.635   0.342  0.1378 -0.3774 -0.1734
  979SOL    HW1 2936   2.170   1.560   0.335 -0.5826  0.9457 -1.7273
  979SOL    HW2 2937   2.043   1.635   0.427 -4.2050  0.7738 -0.0176
  980SOL     OW 2938   0.606   2.140   2.094 -0.1373 -0.2445  0.2323
  980SOL    HW1 2939   0.689   2.089   2.119  3.2684 -1.3651 -4.1205
  980SOL    HW2 2940   0.621   2.236   2.070 -1.4760 -1.4261  0.3989
  981SOL     OW 2941   2.701   0.993   0.031  0.1986 -0.0876 -0.0172
  981SOL    HW1 2942   2.762   0.936   0.085  1.0466 -1.6227 -1.0344
  981SOL    HW2 2943   2.631   0.933   3.064  3.4893  0.4581 -0.7806
  982SOL     OW 2944   0.048   2.500   1.963  0.3899 -0.1647  0.1680
  982SOL    HW1 2945   3.055   2.537   2.035  0.1673 -0.1444 -1.3619
  982SOL    HW2 2946   0.117   2.569   1.951 -1.7429 -2.2225  0.7453
  983SOL     OW 2947   1.702   0.270   1.514 -0.4238  0.3338 -0.1099
  983SOL    HW1 2948   1.713   0.177   1.477  0.1266  2.5630  0.7589
  983SOL    HW2 2949   1.699   0.346   1.442 -0.0053 -0.5569  0.2379
  984SOL     OW 2950   1.500   3.016   2.457  0.4688 -0.4236 -0.5043
  984SOL    HW1 2951   1.525   2.930   2.408  2.8423 -2.9286 -0.9718
  984SOL    HW2 2952   1.432   2.991   2.528 -2.7723  0.6113 -2.7010
  985SOL     OW 2953   1.484   1.497   1.434 -0.7342  0.4979  0.5008
  985SOL    HW1 2954   1.528   1.403   1.422 -4.0795  1.2449 -1.0533
  985SOL    HW2 2955   1.450   1.522   1.526 -1.1334 -0.1552 -1.8271
  986SOL     OW 2956   2.059   2.905   2.236 -0.4095  0.0642 -0.0307
  986SOL    HW1 2957   2.161   2.911   2.229 -0.0042  1.0915 -0.2950
  986SOL    HW2 2958   2.016   2.978   2.174 -0.3363  1.7418  1.6050
  987SOL     OW 2959   2.633   1.743   2.683  0.0943  0.3480  0.6222
  987SOL    HW1 2960   2.655   1.841   2.699  0.2076  2.6577 -1.5536
  987SOL    HW2 2961   2.617   1.730   2.586 -1.1540 -2.0399  0.9192
  988SOL     OW 2962   2.784   0.741   1.529 -0.1118  0.0639 -0.5411
  988SOL    HW1 2963   2.792   0.743   1.428 -0.5762 -0.5693  0.6407
  988SOL    HW2 2964   2.851   0.680   1.570 -0.6052  0.1539 -1.1167
  989SOL     OW 2965   1.816   1.325   1.589 -0.0820 -0.0666  0.1039
  989SOL    HW1 2966   1.850   1.407   1.635 -1.3613 -0.4715  0.6461
  989SOL    HW2 2967   1.883   1.249   1.582  2.1515  0.3451  0.7812
  990SOL     OW 2968   2.935   0.866   2.991 -0.1051 -0.5877  0.5802
  990SOL    HW1 2969   2.906   0.878   0.015  1.6401  0.9815 -2.6850
  990SOL    HW2 2970   3.034   0.882   2.989  4.0258 -1.6138 -1.0217
  991SOL     OW 2971   0.264   1.841   2.914 -0.2853  0.1845 -0.2435
  991SOL    HW1 2972   0.189   1.908   2.913  0.0037 -0.8764 -0.0641
  991SOL    HW2 2973   0.326   1.875   2.990  2.3370 -0.0011  0.2706
  992SOL     OW 2974   2.618   1.859   1.801  0.4342 -0.0364  0.2329
  992SOL    HW1 2975   2.520   1.841   1.817  2.7446 -2.7703 -0.4499
  992SOL    HW2 2976   2.667   1.870   1.889 -0.3398 -1.6023  0.0123
  993SOL     OW 2977   0.552   0.058   0.961 -0.2246 -0.2168 -0.1650
  993SOL    HW1 2978   0.503   0.150   0.976 -1.4881  2.5778 -2.0461
  993SOL    HW2 2979   0.642   0.049   1.014  0.1360  0.2872 -2.2496
  994SOL     OW 2980   2.689   2.107   1.702 -0.3854  0.2292  0.6793
  994SOL    HW1 2981   2.789   2.090   1.725 -1.6163 -1.1650  0.9451
  994SOL    HW2 2982   2.634   2.020   1.725  0.8990 -5.4597 -0.5022
  995SOL     OW 2983   2.060   1.874   2.516  0.4489 -0.0591 -0.3924
  995SOL    HW1 2984   1.973   1.912   2.561 -3.2903  1.2698  1.2836
  995SOL    HW2 2985   2.081   1.926   2.427  0.3471  1.2968  0.0481
  996SOL     OW 2986   1.984   1.976   0.092  0.6329 -0.2301  0.3399
  996SOL    HW1 2987   1.900   1.937   0.135 -0.2476  1.3240 -0.1608
  996SOL    HW2 2988   2.065   1.923   0.118 -2.8530  0.9023 -3.2799
  997SOL     OW 2989   1.152   1.336   1.693 -0.4605  0.1231  0.1232
  997SOL    HW1 2990   1.080   1.348   1.767 -0.4369  1.6544 -2.2527
  997SOL    HW2 2991   1.234   1.285   1.724 -0.8964  3.1553  1.6442
  998SOL     OW 2992   2.765   2.104   0.690 -0.2911 -0.4766  0.1002
  998SOL    HW1 2993   2.691   2.107   0.614  1.5078 -1.5267 -1.4155
  998SOL    HW2 2994   2.723   2.069   0.778 -1.1484 -1.6944  1.0534
  999SOL     OW 2995   0.034   2.775   0.371  0.1478  0.1613  0.0075
  999SOL    HW1 2996   0.067   2.686   0.412  0.1070  2.2530  1.0924
  999SOL    HW2 2997   3.045   2.823   0.436 -1.7571 -0.3936  0.6923
 1000SOL     OW 2998   1.205   0.228   2.934 -0.2157 -0.7145 -0.0983
 1000SOL    HW1 2999   1.135   0.219   3.005  2.9475 -0.1915 -2.0914
 1000SOL    HW2 3000   1.219   0.331   2.931 -2.8136 -0.0028  2.7162
   3.07306   3.07306   3.07306
