1000 SPC/Fw water molecules t= 349.00000 step= 349000
 3000
    1SOL     OW    1   2.354   0.115   1.352 -0.2372 -0.4732 -0.1921
    1SOL    HW1    2   2.333   0.179   1.432  0.1742  0.5748  2.5741
    1SOL    HW2    3   2.356   0.014   1.377 -1.5773 -0.2125 -0.9917
    2SOL     OW    4   2.802   2.422   1.078 -0.0459 -0.1077  0.4671
    2SOL    HW1    5   2.728   2.486   1.066  1.0074 -1.9217  0.5612
    2SOL    HW2    6   2.774   2.327   1.065 -1.0510  2.5556 -1.0729
    3SOL     OW    7   1.451   2.902   2.899 -0.1992 -0.4142 -0.6794
    3SOL    HW1    8   1.421   2.984   2.850 -0.9594  2.1466  0.1966
    3SOL    HW2    9   1.459   2.915   2.998 -2.0205 -2.1182 -0.3493
    4SOL     OW   10   1.724   2.536   2.363  0.3297  0.4409  0.1377
    4SOL    HW1   11   1.716   2.635   2.343 -2.8094 -1.3309  3.5153
    4SOL    HW2   12   1.823   2.513   2.360 -2.9961 -2.0463  0.3163
    5SOL     OW   13   1.715   0.531   1.905 -0.1265  0.0243 -0.7546
    5SOL    HW1   14   1.779   0.569   1.972 -1.7824  0.6313 -0.7456
    5SOL    HW2   15   1.728   0.588   1.818  0.5223 -0.8692 -1.5382
    6SOL     OW   16   2.263   2.738   0.683  0.0795  0.2489  0.3197
    6SOL    HW1   17   2.233   2.775   0.594  0.1224 -1.1891  2.8667
    6SOL    HW2   18   2.279   2.811   0.753 -1.2611 -1.5731  0.7695
    7SOL     OW   19   1.649   1.132   1.101 -0.3974  0.2355 -0.6949
    7SOL    HW1   20   1.659   1.197   1.180 -0.4608 -0.5673 -0.4560
    7SOL    HW2   21   1.615   1.164   1.012 -0.0489  0.1152  1.7285
    8SOL     OW   22   0.657   1.832   1.243  0.3698  0.7770 -0.1106
    8SOL    HW1   23   0.618   1.736   1.235 -1.7120  1.0507  1.3044
    8SOL    HW2   24   0.757   1.819   1.248  0.7081 -1.0449  0.4662
    9SOL     OW   25   1.170   2.254   1.874  0.0721  0.0122  0.0877
    9SOL    HW1   26   1.098   2.219   1.940 -0.6810 -1.2290  1.3490
    9SOL    HW2   27   1.153   2.232   1.777  2.0104 -0.6527  0.5465
   10SOL     OW   28   0.559   2.076   0.687  0.3644 -0.0357 -0.0296
   10SOL    HW1   29   0.626   2.100   0.760 -1.0207 -0.2775 -1.0445
   10SOL    HW2   30   0.578   2.117   0.598  1.4077 -0.4428  0.4853
   11SOL     OW   31   1.482   2.270   1.532 -0.4940  0.1542 -0.0767
   11SOL    HW1   32   1.501   2.345   1.464 -0.9804  5.1455 -0.7363
   11SOL    HW2   33   1.438   2.197   1.477 -0.6695  0.6380 -2.4714
   12SOL     OW   34   2.470   0.450   2.378  0.1555 -0.8771 -0.3525
   12SOL    HW1   35   2.481   0.366   2.432  0.7160 -0.3425  1.2976
   12SOL    HW2   36   2.526   0.441   2.295 -1.9292 -0.2201  1.3776
   13SOL     OW   37   2.834   2.915   0.709 -0.0883 -0.1891  0.2941
   13SOL    HW1   38   2.890   2.878   0.785 -0.6367  0.4999  1.7848
   13SOL    HW2   39   2.862   3.015   0.706  1.3449  1.8907 -0.9782
   14SOL     OW   40   1.594   1.611   2.833 -0.7611 -0.2744 -0.5815
   14SOL    HW1   41   1.678   1.602   2.776  2.8959  2.1685  1.5356
   14SOL    HW2   42   1.528   1.533   2.820  1.0000  1.3656  0.2173
   15SOL     OW   43   2.483   2.715   1.378  0.2190  0.1230 -0.1046
   15SOL    HW1   44   2.547   2.712   1.462  1.4803 -1.0297  0.9801
   15SOL    HW2   45   2.482   2.627   1.329  1.6811  2.7365  0.5587
   16SOL     OW   46   2.797   2.820   0.454  0.2672  0.0796  0.1732
   16SOL    HW1   47   2.796   2.856   0.550  1.1763 -0.5686 -2.5473
   16SOL    HW2   48   2.888   2.839   0.412 -2.7200 -0.8192 -2.3667
   17SOL     OW   49   0.206   0.614   1.136 -0.2796 -0.0376 -0.1310
   17SOL    HW1   50   0.218   0.718   1.130  0.1520  2.4873 -0.0050
   17SOL    HW2   51   0.289   0.559   1.156 -1.8282 -0.0616 -0.7260
   18SOL     OW   52   1.988   0.288   0.338  0.0979  0.3670  0.7260
   18SOL    HW1   53   1.946   0.293   0.433  0.2227 -1.3422 -0.4957
   18SOL    HW2   54   2.065   0.220   0.341  0.2389 -1.1963 -0.6639
   19SOL     OW   55   1.905   1.680   0.051  0.2837  0.3158 -0.4057
   19SOL    HW1   56   1.843   1.760   0.050 -3.0580  0.8967 -1.2675
   19SOL    HW2   57   1.853   1.595   0.039 -1.3130 -0.4534 -1.5651
   20SOL     OW   58   2.394   1.927   2.315  0.4668 -0.3319 -0.0968
   20SOL    HW1   59   2.384   1.826   2.323 -3.4979 -1.2288 -0.3671
   20SOL    HW2   60   2.475   1.969   2.358 -2.9766  0.7602  0.7618
   21SOL     OW   61   1.730   3.102   0.607 -0.1308  0.1189  0.6123
   21SOL    HW1   62   1.799   3.069   0.680 -2.0001 -0.6108 -0.2944
   21SOL    HW2   63   1.743   3.051   0.520  0.1693 -0.2769  2.0699
   22SOL     OW   64   2.710   0.449   1.590 -0.2118  0.1396  0.1304
   22SOL    HW1   65   2.805   0.429   1.549  0.4307 -1.1768 -0.4838
   22SOL    HW2   66   2.657   0.492   1.520  0.9857  0.2216  4.3413
   23SOL     OW   67   0.296   0.672   2.029  0.1010 -0.3772  0.1649
   23SOL    HW1   68   0.217   0.690   2.093  2.3797 -0.3940  0.9863
   23SOL    HW2   69   0.281   0.588   1.972  0.7986  1.0486 -2.9094
   24SOL     OW   70   2.930   2.566   0.437 -0.5998  0.0452  0.1849
   24SOL    HW1   71   3.029   2.584   0.452 -0.0973  2.0420  0.1945
   24SOL    HW2   72   2.881   2.644   0.483  1.6989 -1.5964 -1.9141
   25SOL     OW   73   0.911   2.649   2.773  0.7717  0.3280  0.0953
   25SOL    HW1   74   0.821   2.682   2.813  0.6165 -1.9400  2.0596
   25SOL    HW2   75   0.960   2.727   2.737 -1.0589 -1.2900 -0.6299
   26SOL     OW   76   1.260   2.770   0.340 -0.2518 -0.3375  0.0061
   26SOL    HW1   77   1.283   2.699   0.408 -0.8454 -3.5021 -1.1570
   26SOL    HW2   78   1.299   2.854   0.379  2.2841  0.5706 -1.9861
   27SOL     OW   79   2.232   0.812   0.458  0.3760  0.0303 -0.0361
   27SOL    HW1   80   2.198   0.861   0.380 -1.0546  1.6480  4.0241
   27SOL    HW2   81   2.305   0.866   0.505 -0.5071 -0.5423  0.9286
   28SOL     OW   82   1.096   1.521   0.783 -0.6437 -0.3519 -0.2522
   28SOL    HW1   83   1.094   1.451   0.710 -0.2648  0.5487 -4.7798
   28SOL    HW2   84   1.166   1.594   0.762  1.4643 -0.4251  0.9768
   29SOL     OW   85   3.028   2.912   1.634  0.9338  0.1010  0.2475
   29SOL    HW1   86   0.008   2.957   1.597  0.3352  0.9530 -0.4890
   29SOL    HW2   87   2.961   2.891   1.562  0.7790  1.8508 -0.6738
   30SOL     OW   88   1.284   0.106   1.348 -0.1793  0.1284 -0.1103
   30SOL    HW1   89   1.271   0.007   1.339  0.6150 -0.7642  0.4453
   30SOL    HW2   90   1.319   0.146   1.258 -0.8645  1.6680 -1.1360
   31SOL     OW   91   2.304   0.016   2.313  0.4125  0.5015 -0.3009
   31SOL    HW1   92   2.219   0.048   2.358 -1.5311  2.3468  0.4045
   31SOL    HW2   93   2.282   3.039   2.253 -0.4766  0.2348  1.8918
   32SOL     OW   94   1.002   1.373   0.290 -0.1539 -0.2088  0.6225
   32SOL    HW1   95   0.950   1.446   0.244 -1.1263  1.7408  2.3746
   32SOL    HW2   96   0.992   1.368   0.390  2.0139 -2.1658  0.2389
   33SOL     OW   97   0.002   1.034   2.513 -0.0647 -0.1499 -0.4460
   33SOL    HW1   98   3.021   0.986   2.471  0.9298 -0.8695 -2.3299
   33SOL    HW2   99   0.078   1.032   2.445 -0.1742 -0.3586  1.9551
   34SOL     OW  100   2.632   0.192   0.728  0.3249 -0.2211  0.0253
   34SOL    HW1  101   2.589   0.103   0.749 -0.8591  1.6260  0.3581
   34SOL    HW2  102   2.563   0.270   0.745 -2.4101 -0.3191  1.1076
   35SOL     OW  103   2.537   2.897   1.932 -0.8702 -0.3832  0.5119
   35SOL    HW1  104   2.561   2.837   2.014 -1.1245 -2.6894  1.0707
   35SOL    HW2  105   2.616   2.909   1.866  1.7922 -0.1094  0.2125
   36SOL     OW  106   2.339   2.003   0.118 -0.5200  0.2612 -0.1631
   36SOL    HW1  107   2.369   2.075   0.056 -0.8611 -1.4982  1.5100
   36SOL    HW2  108   2.271   1.942   0.073 -0.5282 -0.5927 -0.2226
   37SOL     OW  109   1.887   3.079   2.179 -0.7202 -0.4040  0.3708
   37SOL    HW1  110   1.913   0.050   2.239  1.5662 -0.7452  0.6478
   37SOL    HW2  111   1.827   0.011   2.106 -0.7533  1.7152  0.0413
   38SOL     OW  112   0.311   0.579   2.828  0.0030 -0.2126  0.3121
   38SOL    HW1  113   0.256   0.614   2.751  1.4528  0.7392  0.4664
   38SOL    HW2  114   0.260   0.578   2.917  1.0529  1.4821  1.3047
   39SOL     OW  115   1.823   1.223   1.537 -0.1935 -0.0354  0.3388
   39SOL    HW1  116   1.918   1.210   1.501  2.0870 -0.3853 -1.8782
   39SOL    HW2  117   1.821   1.290   1.613  2.8700  1.4219 -1.1395
   40SOL     OW  118   1.358   2.404   0.458  0.5073 -0.6035  0.4243
   40SOL    HW1  119   1.275   2.436   0.405  0.1345  0.8329 -2.1851
   40SOL    HW2  120   1.352   2.305   0.472  2.3921  2.2462  0.8394
   41SOL     OW  121   2.036   1.284   0.846  0.4452 -0.5914  0.1021
   41SOL    HW1  122   1.963   1.345   0.886  1.0155 -1.8703  0.6938
   41SOL    HW2  123   2.128   1.314   0.873  0.2963 -1.2986 -2.0081
   42SOL     OW  124   0.737   0.344   1.240 -0.0237 -0.4434 -0.1236
   42SOL    HW1  125   0.738   0.368   1.139  0.5319  0.4433  3.3173
   42SOL    HW2  126   0.808   0.267   1.257  1.1235  0.7485  0.1163
   43SOL     OW  127   0.117   1.640   2.479  0.0243  0.0918  0.0996
   43SOL    HW1  128   0.095   1.560   2.544 -2.1741 -0.7847  1.5488
   43SOL    HW2  129   0.213   1.665   2.488 -1.0345 -0.1658 -3.1206
   44SOL     OW  130   2.033   2.898   1.465 -0.1918 -0.2066  0.4626
   44SOL    HW1  131   1.975   2.973   1.423 -0.3369 -3.3155  1.1182
   44SOL    HW2  132   2.134   2.916   1.442 -1.0105  1.5916  0.5556
   45SOL     OW  133   1.131   3.035   2.397  0.3309  0.2030  0.0784
   45SOL    HW1  134   1.206   3.021   2.471 -0.0656 -1.1504  3.2805
   45SOL    HW2  135   1.052   2.969   2.400  0.1895  1.3639  0.5720
   46SOL     OW  136   1.081   2.253   2.245  0.3194 -0.3085 -0.1483
   46SOL    HW1  137   1.103   2.163   2.289 -2.7408 -2.5805 -1.0475
   46SOL    HW2  138   1.016   2.300   2.309  1.6736  1.0504  0.5389
   47SOL     OW  139   1.233   1.814   0.563  0.1170  0.3507  0.5869
   47SOL    HW1  140   1.304   1.803   0.491 -0.5256  2.9801 -0.0131
   47SOL    HW2  141   1.267   1.790   0.655 -0.1643 -0.8472 -1.6309
   48SOL     OW  142   1.287   2.453   1.047  0.0138  0.1720 -0.0439
   48SOL    HW1  143   1.291   2.500   0.954  0.6594  2.3161 -0.0001
   48SOL    HW2  144   1.362   2.384   1.062  2.8419  3.6886 -0.3949
   49SOL     OW  145   2.358   0.298   2.874  0.3608  0.4462 -0.2924
   49SOL    HW1  146   2.271   0.271   2.923 -2.3034 -0.2900 -3.1450
   49SOL    HW2  147   2.380   0.397   2.886  2.2952  1.9083 -0.2433
   50SOL     OW  148   1.567   0.125   3.076  0.4638 -0.2181 -0.3682
   50SOL    HW1  149   1.668   0.121   3.078  1.6593  0.2218  1.6004
   50SOL    HW2  150   1.527   0.221   3.069 -0.9046  0.2449  0.3773
   51SOL     OW  151   2.230   0.540   1.460  0.1026 -0.2329  0.5504
   51SOL    HW1  152   2.297   0.602   1.505 -2.2783  0.9088  0.8579
   51SOL    HW2  153   2.251   0.439   1.467 -2.0258  1.2944  2.8838
   52SOL     OW  154   0.839   1.574   0.190  0.0344  0.2328  0.2578
   52SOL    HW1  155   0.829   1.652   0.254 -1.7205  0.9555 -1.1748
   52SOL    HW2  156   0.913   1.583   0.124 -1.2344 -1.9689 -1.5132
   53SOL     OW  157   0.108   1.461   2.717  0.2139  0.0784  0.0143
   53SOL    HW1  158   0.050   1.381   2.693  1.8416  1.4910  0.0590
   53SOL    HW2  159   0.117   1.481   2.815 -2.2132 -1.3911  0.3342
   54SOL     OW  160   2.770   1.131   1.622 -0.2111 -0.5720  0.2506
   54SOL    HW1  161   2.823   1.048   1.634  1.8121  1.8768 -2.3344
   54SOL    HW2  162   2.782   1.192   1.700 -0.8584 -0.9417 -0.6351
   55SOL     OW  163   2.131   1.956   0.531  0.3659 -0.3323 -0.0102
   55SOL    HW1  164   2.142   1.875   0.596  1.1634  0.4413  1.3819
   55SOL    HW2  165   2.093   2.035   0.584  0.0558  2.3712 -1.1714
   56SOL     OW  166   1.665   0.250   1.800  0.2313 -0.1895 -0.2243
   56SOL    HW1  167   1.671   0.349   1.833  0.5022  1.2510 -1.0282
   56SOL    HW2  168   1.575   0.233   1.760 -1.3351 -1.3247  0.1136
   57SOL     OW  169   1.350   1.229   2.562 -0.3643 -0.7068 -0.0593
   57SOL    HW1  170   1.411   1.287   2.505  0.0884  0.9181 -1.8020
   57SOL    HW2  171   1.379   1.130   2.560 -0.7998  3.0798 -0.8025
   58SOL     OW  172   3.078   0.726   1.253  0.5152  0.4338 -0.7749
   58SOL    HW1  173   3.069   0.713   1.352  2.3058 -1.2322 -0.8384
   58SOL    HW2  174   0.038   0.659   1.218 -2.6824 -0.3620  1.5225
   59SOL     OW  175   1.684   2.886   0.124  0.1222  0.4993 -0.5886
   59SOL    HW1  176   1.588   2.924   0.128  1.5663  1.5922 -1.5161
   59SOL    HW2  177   1.718   2.864   0.219 -1.6294 -1.0579 -1.0183
   60SOL     OW  178   2.939   1.978   2.644 -0.1785  0.2904  0.2044
   60SOL    HW1  179   2.977   2.072   2.670 -1.0133  0.6271  0.2472
   60SOL    HW2  180   2.847   1.967   2.690  0.3735  0.1429 -2.0292
   61SOL     OW  181   0.833   2.660   0.885  0.4588 -0.7901  0.7669
   61SOL    HW1  182   0.867   2.737   0.825  1.1811 -1.7996 -1.4773
   61SOL    HW2  183   0.859   2.690   0.979 -1.9455 -0.9678 -0.6360
   62SOL     OW  184   1.853   1.533   2.723  0.1554  0.4936  0.1872
   62SOL    HW1  185   1.876   1.446   2.675 -1.5205  1.3245  1.4919
   62SOL    HW2  186   1.928   1.557   2.786  1.2117  3.0766 -0.3132
   63SOL     OW  187   2.332   1.861   0.351 -0.2195 -0.1625 -0.3445
   63SOL    HW1  188   2.356   1.905   0.265  0.8724  0.4157  1.2558
   63SOL    HW2  189   2.260   1.905   0.410 -2.1155  0.4380  1.5693
   64SOL     OW  190   1.844   0.908   2.930  0.1867 -0.9351 -0.4431
   64SOL    HW1  191   1.798   0.826   2.886 -2.6177  0.3405 -0.2602
   64SOL    HW2  192   1.851   0.987   2.862  0.3207  2.8354 -1.9647
   65SOL     OW  193   2.126   1.911   2.250 -0.2967 -0.1018 -0.0132
   65SOL    HW1  194   2.209   1.956   2.280 -0.5605  0.9363 -0.9744
   65SOL    HW2  195   2.146   1.823   2.198 -1.8609  0.3615 -2.5447
   66SOL     OW  196   0.261   1.042   1.328 -0.0443  0.3302  0.1116
   66SOL    HW1  197   0.173   1.072   1.365  4.1112  0.3057 -1.5128
   66SOL    HW2  198   0.325   1.048   1.403 -0.6440 -1.3779 -1.1310
   67SOL     OW  199   2.206   3.000   2.705 -0.3224 -0.6991  0.5744
   67SOL    HW1  200   2.229   3.095   2.684  2.2164 -2.0453  0.2266
   67SOL    HW2  201   2.109   2.975   2.676 -2.2429 -1.1968  3.3204
   68SOL     OW  202   1.071   2.416   1.584  0.4452 -0.1306  0.1406
   68SOL    HW1  203   1.141   2.459   1.514  0.5578  0.6491 -1.8522
   68SOL    HW2  204   1.087   2.319   1.613  1.6057  0.0334 -1.0712
   69SOL     OW  205   0.884   2.567   0.145  0.0125 -0.3496 -0.0351
   69SOL    HW1  206   0.789   2.572   0.184  2.0156  0.5597  0.7926
   69SOL    HW2  207   0.945   2.511   0.210  2.8230 -1.4520  0.6958
   70SOL     OW  208   0.217   0.630   2.306  0.1666 -0.3510  0.1830
   70SOL    HW1  209   0.134   0.683   2.298  0.2819  0.0181  2.1377
   70SOL    HW2  210   0.254   0.653   2.401 -1.3768  1.2191  5.6314
   71SOL     OW  211   0.582   1.381   2.773 -0.3709 -0.0559 -0.2976
   71SOL    HW1  212   0.682   1.376   2.754  2.3381  2.6430  1.6980
   71SOL    HW2  213   0.528   1.414   2.693  0.0901  1.6244  0.5430
   72SOL     OW  214   2.987   1.466   2.231 -0.0503  0.5356  0.2972
   72SOL    HW1  215   3.069   1.525   2.229 -1.8237  1.4737  2.2880
   72SOL    HW2  216   2.914   1.493   2.163 -3.0819 -2.5109 -1.9581
   73SOL     OW  217   1.683   1.520   0.421 -0.1722 -0.3778 -0.1932
   73SOL    HW1  218   1.782   1.497   0.435 -0.7421  0.6423  0.8011
   73SOL    HW2  219   1.616   1.454   0.463  0.5441  2.8663  1.0083
   74SOL     OW  220   2.582   2.718   2.732 -0.3054  0.0891  0.0202
   74SOL    HW1  221   2.580   2.793   2.662  1.9118  0.9506 -1.0403
   74SOL    HW2  222   2.484   2.703   2.760  1.9357 -3.0780  0.1551
   75SOL     OW  223   1.953   2.260   1.015  0.3139 -0.1067  0.0620
   75SOL    HW1  224   1.927   2.274   1.109  0.2351 -3.3091 -1.3100
   75SOL    HW2  225   2.051   2.229   1.006  1.8514 -0.8972 -1.4309
   76SOL     OW  226   2.811   2.195   2.008 -0.1606  0.9528 -0.0261
   76SOL    HW1  227   2.854   2.098   2.010  2.4050 -1.1188 -0.7561
   76SOL    HW2  228   2.728   2.190   1.950  0.4749  1.2807 -0.5033
   77SOL     OW  229   3.091   0.152   1.960  0.2178 -0.4957  0.1973
   77SOL    HW1  230   3.093   0.096   1.876 -0.1140 -1.3056 -1.3534
   77SOL    HW2  231   3.002   0.198   1.970  0.1778 -0.0350 -0.2817
   78SOL     OW  232   2.368   1.179   2.918 -0.1605  0.4976  0.5067
   78SOL    HW1  233   2.442   1.219   2.864 -2.3178 -1.1464 -1.5755
   78SOL    HW2  234   2.289   1.245   2.923 -1.2364  5.2008 -0.3773
   79SOL     OW  235   2.906   1.401   2.492  0.4679  0.4558 -0.2862
   79SOL    HW1  236   2.871   1.496   2.505  1.8232 -0.8940  1.6928
   79SOL    HW2  237   2.931   1.392   2.392  0.9150  1.1096 -2.6281
   80SOL     OW  238   1.393   1.325   1.398  0.3220 -0.0555 -0.1675
   80SOL    HW1  239   1.411   1.413   1.446  0.6080  1.9174 -1.4993
   80SOL    HW2  240   1.303   1.286   1.437 -1.5982 -1.8770  1.0779
   81SOL     OW  241   1.896   0.885   1.888 -0.8837  0.5778  0.5404
   81SOL    HW1  242   1.883   0.918   1.983 -0.9061 -0.6751 -1.7657
   81SOL    HW2  243   1.997   0.884   1.865 -0.9070 -1.8954  0.0093
   82SOL     OW  244   1.747   1.517   1.606  0.0760 -0.3830  0.4171
   82SOL    HW1  245   1.741   1.452   1.683  0.7499 -1.8481  0.6590
   82SOL    HW2  246   1.785   1.606   1.637  0.1842 -0.1478  0.4934
   83SOL     OW  247   0.162   0.078   0.105 -0.1767 -0.3965  0.2036
   83SOL    HW1  248   0.138   0.013   0.029 -1.1427 -0.1494 -0.7401
   83SOL    HW2  249   0.205   0.161   0.069  1.7013 -4.7759 -1.5037
   84SOL     OW  250   0.369   1.148   0.015  0.0496  0.5801 -0.5681
   84SOL    HW1  251   0.325   1.067   3.072  1.7322  0.3279  1.1248
   84SOL    HW2  252   0.292   1.202   0.065 -1.5591  2.9267  3.0413
   85SOL     OW  253   2.337   2.058   1.187  0.7039 -0.2333  0.2343
   85SOL    HW1  254   2.320   1.972   1.139  0.6388  0.4220 -0.1000
   85SOL    HW2  255   2.435   2.071   1.194 -3.6783  1.5507 -0.3307
   86SOL     OW  256   0.536   2.589   1.218  0.4019 -0.3550 -0.1437
   86SOL    HW1  257   0.586   2.500   1.226  1.9745 -1.8608  0.4989
   86SOL    HW2  258   0.537   2.619   1.120  0.8398 -0.0415  2.7591
   87SOL     OW  259   0.654   2.405   2.486 -0.5938 -0.4736 -0.5116
   87SOL    HW1  260   0.625   2.330   2.423  1.4739  1.5051 -0.1802
   87SOL    HW2  261   0.664   2.378   2.588 -0.1568 -0.9684  2.5931
   88SOL     OW  262   2.888   1.879   0.277 -0.6274 -0.6108 -0.2787
   88SOL    HW1  263   2.860   1.965   0.329 -1.5131 -0.2184  2.4662
   88SOL    HW2  264   2.882   1.898   0.178  0.4458 -0.3176  0.4173
   89SOL     OW  265   0.963   1.003   1.053 -0.0383 -0.4955 -0.2258
   89SOL    HW1  266   1.037   0.939   1.018 -0.8829 -0.6409  3.7093
   89SOL    HW2  267   0.900   0.947   1.111 -0.7429 -1.5029  0.4715
   90SOL     OW  268   0.315   1.382   1.945  0.3608  0.8066 -0.0042
   90SOL    HW1  269   0.217   1.386   1.917  0.6851 -0.8799 -0.7841
   90SOL    HW2  270   0.357   1.468   1.907 -1.8627  0.5523 -1.0307
   91SOL     OW  271   1.151   0.854   0.954 -0.2197  0.4835 -0.4734
   91SOL    HW1  272   1.124   0.774   0.894  1.4093  0.5303 -0.4592
   91SOL    HW2  273   1.249   0.877   0.946 -0.4500  0.4544  0.4596
   92SOL     OW  274   1.874   0.979   1.101 -0.4681 -0.0590  0.0428
   92SOL    HW1  275   1.790   1.038   1.113  1.3963  0.6584 -0.5750
   92SOL    HW2  276   1.954   1.045   1.113 -0.2450  0.7483  0.4261
   93SOL     OW  277   2.671   0.917   2.429 -0.0324 -0.6297 -0.3812
   93SOL    HW1  278   2.646   0.827   2.476  0.6652 -0.8366  0.9177
   93SOL    HW2  279   2.749   0.898   2.367 -1.0807  0.5803 -0.6213
   94SOL     OW  280   2.100   1.830   2.774  0.3144  0.0714 -0.3494
   94SOL    HW1  281   2.131   1.892   2.695 -0.9279  1.8610 -0.3617
   94SOL    HW2  282   2.094   1.891   2.857 -0.1402 -0.8537  0.4153
   95SOL     OW  283   2.734   0.604   1.306 -0.0938 -0.5452 -0.7803
   95SOL    HW1  284   2.797   0.588   1.226 -0.1107  0.3792 -0.1756
   95SOL    HW2  285   2.644   0.562   1.289 -1.9969  0.0983 -2.0954
   96SOL     OW  286   2.296   2.927   1.413  0.3358 -0.1729 -0.9126
   96SOL    HW1  287   2.286   2.933   1.516 -2.3052 -1.0676 -0.1299
   96SOL    HW2  288   2.364   2.853   1.392 -2.7648 -0.4579  3.1726
   97SOL     OW  289   2.508   1.124   1.495 -0.2994 -0.1278 -0.0122
   97SOL    HW1  290   2.526   1.038   1.440 -2.1008 -0.1392  0.9613
   97SOL    HW2  291   2.584   1.133   1.560  0.5970  1.4331 -2.4395
   98SOL     OW  292   1.412   2.522   1.994 -0.3256 -0.0124 -0.2212
   98SOL    HW1  293   1.497   2.583   2.003  2.5568  2.8470 -1.0867
   98SOL    HW2  294   1.425   2.454   1.917  0.6839  1.7383 -1.8028
   99SOL     OW  295   0.371   2.563   1.423  0.2913  0.1519 -0.4301
   99SOL    HW1  296   0.439   2.581   1.353 -1.5914  0.3673  2.9305
   99SOL    HW2  297   0.396   2.621   1.504  5.0346  0.3163 -0.3187
  100SOL     OW  298   1.609   0.520   2.584 -0.5028  0.3346 -1.0016
  100SOL    HW1  299   1.668   0.539   2.665 -2.9430 -0.9230 -1.7555
  100SOL    HW2  300   1.514   0.544   2.619  2.0406  0.1319 -0.5729
  101SOL     OW  301   2.519   0.196   2.459  0.2327  0.1792 -0.3236
  101SOL    HW1  302   2.438   0.149   2.499 -2.5604  0.0264  0.5527
  101SOL    HW2  303   2.588   0.230   2.534  2.5921  1.0679  3.5051
  102SOL     OW  304   0.470   0.772   1.544 -0.3395  0.6845  0.4263
  102SOL    HW1  305   0.413   0.783   1.627  1.8676  0.9994 -2.8649
  102SOL    HW2  306   0.552   0.833   1.537  0.0320 -0.2503 -0.1920
  103SOL     OW  307   0.557   0.942   2.479 -0.0516 -0.3416 -0.0198
  103SOL    HW1  308   0.592   0.848   2.467 -0.1968  1.9656 -0.7534
  103SOL    HW2  309   0.505   0.953   2.568  1.5649 -0.9570  1.0491
  104SOL     OW  310   0.399   0.969   2.687 -0.0729  0.4112 -0.1586
  104SOL    HW1  311   0.306   0.990   2.718  1.4557  0.1992  2.1472
  104SOL    HW2  312   0.458   1.017   2.758 -0.0652  1.4257  1.2328
  105SOL     OW  313   2.074   2.189   1.621  0.1467  0.0390  0.1422
  105SOL    HW1  314   2.095   2.089   1.650  1.0025 -0.5953 -0.2574
  105SOL    HW2  315   2.018   2.189   1.535 -1.2598 -1.8756 -2.3542
  106SOL     OW  316   1.774   2.945   0.399  0.0783 -0.4659 -0.7231
  106SOL    HW1  317   1.777   2.867   0.464 -0.9244 -1.1078 -3.2611
  106SOL    HW2  318   1.870   2.977   0.371  1.9355  3.3975  0.3327
  107SOL     OW  319   2.171   2.100   0.954  0.4283 -0.5128 -0.1832
  107SOL    HW1  320   2.236   2.092   1.029 -2.6164  0.0482 -2.3453
  107SOL    HW2  321   2.110   2.021   0.949 -2.0238  1.8399 -0.9020
  108SOL     OW  322   2.820   2.905   1.454 -0.4371 -0.2081  0.1737
  108SOL    HW1  323   2.774   2.815   1.468 -1.8435  0.1910 -0.4013
  108SOL    HW2  324   2.757   2.987   1.444  0.2450 -0.1171  0.4311
  109SOL     OW  325   2.002   2.485   0.888  0.6875  0.1630  0.4249
  109SOL    HW1  326   1.966   2.398   0.928 -1.9943 -2.3058 -0.1110
  109SOL    HW2  327   2.096   2.471   0.850 -3.0963 -0.9822  2.6194
  110SOL     OW  328   0.962   1.696   2.130  0.2957  0.9503 -0.0862
  110SOL    HW1  329   0.961   1.594   2.130  1.7319 -0.3927  1.5409
  110SOL    HW2  330   0.863   1.725   2.136  0.4267  0.3122 -1.4670
  111SOL     OW  331   1.811   2.091   2.076 -0.3359  0.1902 -0.0040
  111SOL    HW1  332   1.839   2.122   1.980 -0.0532  1.0090 -0.3021
  111SOL    HW2  333   1.713   2.117   2.079 -2.5487 -0.2853  1.2184
  112SOL     OW  334   1.836   1.730   2.527 -0.1888  0.0865  0.7223
  112SOL    HW1  335   1.862   1.646   2.570 -0.5355  3.6987  0.2948
  112SOL    HW2  336   1.924   1.783   2.510  2.4019  2.9304 -0.3020
  113SOL     OW  337   1.643   1.734   1.758  0.4450  0.6196  0.3759
  113SOL    HW1  338   1.685   1.781   1.838  0.9248 -1.4577  0.6369
  113SOL    HW2  339   1.559   1.676   1.789 -2.7243 -1.0361 -0.2254
  114SOL     OW  340   3.098   1.179   1.095  0.6705 -0.2830 -0.2450
  114SOL    HW1  341   3.003   1.198   1.069  1.7005  1.2322  0.4208
  114SOL    HW2  342   0.008   1.094   1.154  0.1343 -2.1641  2.2351
  115SOL     OW  343   0.563   0.424   0.287 -0.0451  0.4410 -0.3745
  115SOL    HW1  344   0.570   0.486   0.368  0.7654  0.4763  0.0378
  115SOL    HW2  345   0.632   0.350   0.295 -1.5325  0.6915 -0.4267
  116SOL     OW  346   2.782   1.820   2.254 -0.6110 -0.3520  0.5066
  116SOL    HW1  347   2.710   1.872   2.310  0.1803  1.1380  1.3626
  116SOL    HW2  348   2.860   1.800   2.319  1.7608  0.8167  0.4967
  117SOL     OW  349   0.082   2.675   0.810  0.2658 -0.1851  0.4729
  117SOL    HW1  350   0.061   2.620   0.724  0.5751  0.0171 -3.4733
  117SOL    HW2  351   0.127   2.610   0.880  0.0088  0.4340  1.6074
  118SOL     OW  352   0.451   1.715   2.792 -0.4273 -0.3517  0.5903
  118SOL    HW1  353   0.503   1.798   2.817  1.2845  1.6343  1.7533
  118SOL    HW2  354   0.468   1.652   2.870  0.8998 -1.0791  1.1569
  119SOL     OW  355   0.401   1.936   0.516  0.4131  0.0102 -1.1253
  119SOL    HW1  356   0.421   1.996   0.593  0.0898  0.2306 -1.2497
  119SOL    HW2  357   0.387   1.991   0.430 -1.1263  1.0609 -0.2676
  120SOL     OW  358   1.413   0.553   0.196 -0.1934  0.4159 -0.1529
  120SOL    HW1  359   1.492   0.490   0.215  0.3779 -1.5005  0.9224
  120SOL    HW2  360   1.411   0.622   0.270  0.3801 -1.2262  0.0167
  121SOL     OW  361   1.479   2.359   0.732  0.2625  0.2662 -0.0694
  121SOL    HW1  362   1.546   2.289   0.765  0.5624 -2.5399  0.6339
  121SOL    HW2  363   1.452   2.332   0.636  0.4734 -0.4174  3.8686
  122SOL     OW  364   2.443   2.517   1.864 -0.2580 -0.9576 -0.6086
  122SOL    HW1  365   2.385   2.547   1.939 -0.3767 -0.0988 -3.3037
  122SOL    HW2  366   2.391   2.462   1.804  5.1445  0.1377  3.9133
  123SOL     OW  367   0.628   1.525   0.750  0.4002 -0.2597  0.1963
  123SOL    HW1  368   0.674   1.450   0.700 -1.1799  2.6322  1.5040
  123SOL    HW2  369   0.667   1.616   0.755 -0.5488 -0.8742  2.1299
  124SOL     OW  370   2.931   0.750   0.330 -0.0450  0.3545 -0.3960
  124SOL    HW1  371   2.870   0.673   0.363 -2.7472 -4.2444  0.2224
  124SOL    HW2  372   2.877   0.830   0.304 -0.1128 -2.2449 -1.2286
  125SOL     OW  373   0.576   0.544   0.515 -0.2029  0.4104 -0.0770
  125SOL    HW1  374   0.499   0.528   0.577  0.7016  0.6580 -0.8952
  125SOL    HW2  375   0.602   0.641   0.528 -0.8789  1.1935  1.7182
  126SOL     OW  376   2.920   1.933   0.730  0.7148  0.4315  0.1196
  126SOL    HW1  377   2.960   1.915   0.822 -0.5411  0.7162 -2.4259
  126SOL    HW2  378   2.932   2.028   0.708  0.7075 -1.6038 -2.7276
  127SOL     OW  379   1.379   2.375   1.759 -0.7283  0.5717  0.1701
  127SOL    HW1  380   1.304   2.318   1.801 -0.3884 -0.8157  0.5224
  127SOL    HW2  381   1.412   2.330   1.672 -0.3462 -0.7369  2.8895
  128SOL     OW  382   0.923   1.116   0.306  0.1896 -0.5245 -0.0186
  128SOL    HW1  383   0.850   1.108   0.379 -0.8108 -2.2972  0.2143
  128SOL    HW2  384   0.947   1.214   0.286 -2.5924 -0.4888  0.8222
  129SOL     OW  385   1.626   1.924   1.548  0.2208 -0.3059 -0.2163
  129SOL    HW1  386   1.626   1.996   1.620 -2.1864 -0.2739  2.1948
  129SOL    HW2  387   1.610   1.831   1.587  2.1712  1.6226  1.7044
  130SOL     OW  388   2.168   1.611   1.509 -0.3903 -0.6617  0.1020
  130SOL    HW1  389   2.078   1.618   1.559 -2.4904  0.1035 -0.2697
  130SOL    HW2  390   2.230   1.553   1.569  1.3390 -3.5857  2.2155
  131SOL     OW  391   2.891   2.835   2.835 -0.1121  0.1033  0.2498
  131SOL    HW1  392   2.831   2.837   2.751 -3.4978  0.6663 -0.5646
  131SOL    HW2  393   2.973   2.776   2.820  0.9464  1.9725  1.6142
  132SOL     OW  394   2.512   1.719   0.720  0.0587  0.1776  0.2169
  132SOL    HW1  395   2.512   1.808   0.673  1.4179  0.1740 -0.7298
  132SOL    HW2  396   2.579   1.724   0.794 -0.3680  2.2222 -0.8983
  133SOL     OW  397   0.575   0.036   1.963 -0.1139  0.2361  0.2653
  133SOL    HW1  398   0.491   0.035   2.024 -0.7253  0.4385  1.6530
  133SOL    HW2  399   0.595   0.136   1.936 -1.7029  2.2751 -1.0185
  134SOL     OW  400   2.982   2.103   3.019 -0.1939 -0.3051  0.3889
  134SOL    HW1  401   2.953   2.006   3.044 -2.6146 -0.6897  1.6582
  134SOL    HW2  402   2.889   2.150   3.012 -0.9319  1.5078 -0.4636
  135SOL     OW  403   1.482   0.518   2.066  0.0175  0.0451  0.0261
  135SOL    HW1  404   1.562   0.547   2.012 -3.1432  0.1750 -1.2322
  135SOL    HW2  405   1.512   0.517   2.162 -0.9776 -0.0334 -2.4484
  136SOL     OW  406   2.579   1.543   0.506  0.0827  0.5575 -0.4905
  136SOL    HW1  407   2.566   1.445   0.530 -1.0394  0.6753 -1.4150
  136SOL    HW2  408   2.574   1.601   0.590 -1.6102  0.7328  1.8062
  137SOL     OW  409   2.723   1.742   0.911 -0.1369 -0.1490 -0.3830
  137SOL    HW1  410   2.712   1.647   0.936  0.7612  1.3959 -0.7204
  137SOL    HW2  411   2.817   1.776   0.928  1.8861 -3.3595 -0.2988
  138SOL     OW  412   2.548   0.884   1.052 -0.0206  0.1736  0.3481
  138SOL    HW1  413   2.496   0.806   1.011 -1.4637  0.5076  3.0399
  138SOL    HW2  414   2.574   0.961   0.989  0.6198 -0.7765  1.3269
  139SOL     OW  415   0.684   2.744   2.903 -0.2101  0.6551  0.2291
  139SOL    HW1  416   0.688   2.762   3.003  1.4249 -0.3473 -0.8963
  139SOL    HW2  417   0.680   2.830   2.851  0.6194 -0.9805  0.4962
  140SOL     OW  418   1.053   1.966   1.024  0.4679  0.3486  0.8340
  140SOL    HW1  419   1.141   2.013   1.002  2.6571  1.2214 -0.9282
  140SOL    HW2  420   1.039   1.877   0.977  0.4419 -0.7102 -1.4162
  141SOL     OW  421   1.385   2.135   0.530 -0.2866  0.4543  0.2644
  141SOL    HW1  422   1.290   2.126   0.567 -2.7564 -0.7358 -1.0206
  141SOL    HW2  423   1.395   2.083   0.445  0.9276 -0.6446  1.9664
  142SOL     OW  424   0.983   0.524   1.022 -0.2152  0.7416  0.4129
  142SOL    HW1  425   1.011   0.584   0.945  0.2093  1.0027  0.0537
  142SOL    HW2  426   0.886   0.498   1.012  1.0507 -0.4498  1.3618
  143SOL     OW  427   0.928   1.300   2.972 -0.1037  0.1976  0.0237
  143SOL    HW1  428   0.874   1.296   2.886  0.0077 -2.5505 -2.8318
  143SOL    HW2  429   0.875   1.258   3.047  0.4951  0.0500  1.4823
  144SOL     OW  430   1.828   2.694   0.818  0.3689 -0.4593 -0.3379
  144SOL    HW1  431   1.738   2.652   0.841 -0.5358  1.4686  0.8801
  144SOL    HW2  432   1.899   2.627   0.842  0.5676 -1.8137 -2.2205
  145SOL     OW  433   2.023   0.755   2.634  0.1945  0.0756  0.0182
  145SOL    HW1  434   2.011   0.657   2.625  1.0465  1.2833 -0.7267
  145SOL    HW2  435   2.098   0.778   2.695 -1.8106 -0.9991  1.2307
  146SOL     OW  436   0.128   3.078   0.345  0.6005 -0.0488 -0.7658
  146SOL    HW1  437   0.083   0.057   0.395  0.2314  1.4057  0.4837
  146SOL    HW2  438   0.142   0.003   0.252 -0.8136 -0.8152 -0.8654
  147SOL     OW  439   1.791   0.412   2.197  0.3977 -0.0297  0.0245
  147SOL    HW1  440   1.697   0.441   2.225  0.8650  0.5152 -1.1179
  147SOL    HW2  441   1.853   0.491   2.180 -1.2839  0.7191  0.2966
  148SOL     OW  442   1.364   0.258   2.004  0.2997  0.0500  0.2109
  148SOL    HW1  443   1.402   0.348   2.034 -2.4707  0.4104  0.0615
  148SOL    HW2  444   1.391   0.184   2.067 -0.9077  0.2150 -1.7112
  149SOL     OW  445   1.494   0.050   2.423  0.4483 -0.2937  0.3086
  149SOL    HW1  446   1.496   0.046   2.321 -0.4471 -1.9698 -0.3773
  149SOL    HW2  447   1.439   3.074   2.458 -1.5220  0.1650 -0.7951
  150SOL     OW  448   2.958   2.948   3.094 -0.3743  0.4909 -0.1194
  150SOL    HW1  449   2.942   2.915   2.996 -1.5205  0.7460  1.3931
  150SOL    HW2  450   2.877   2.964   0.053 -0.5309  1.7482  2.0266
  151SOL     OW  451   0.612   1.144   0.135 -0.2024 -0.7870 -0.3951
  151SOL    HW1  452   0.518   1.131   0.096 -0.7038  3.4079 -1.1223
  151SOL    HW2  453   0.636   1.243   0.119 -1.5035  0.2944  0.5085
  152SOL     OW  454   3.076   0.281   0.681  0.2365 -0.4254 -0.0000
  152SOL    HW1  455   0.071   0.268   0.647 -1.0410 -2.4964 -2.0023
  152SOL    HW2  456   3.067   0.366   0.731  0.0955 -1.4969  0.2137
  153SOL     OW  457   2.501   0.467   1.297 -0.3542 -0.2866 -0.4836
  153SOL    HW1  458   2.424   0.514   1.348  0.0595  0.0440  2.2036
  153SOL    HW2  459   2.530   0.384   1.349 -0.1146  0.9749 -0.0153
  154SOL     OW  460   1.447   0.032   2.162  0.1359 -0.4244 -0.2985
  154SOL    HW1  461   1.532   0.026   2.107  1.7095 -1.1868  1.0949
  154SOL    HW2  462   1.399   3.046   2.168 -1.6853 -1.6739  1.9222
  155SOL     OW  463   2.863   1.762   0.539  0.4469 -0.2232  0.6850
  155SOL    HW1  464   2.876   1.824   0.621  2.4125 -3.3326 -2.4257
  155SOL    HW2  465   2.849   1.812   0.454  3.5243  0.5418  1.7820
  156SOL     OW  466   2.583   1.993   2.975  0.5867  0.1512  0.7552
  156SOL    HW1  467   2.582   1.915   3.043 -2.2423 -2.1022 -1.2025
  156SOL    HW2  468   2.489   1.996   2.929 -2.6418 -1.3205 -2.7373
  157SOL     OW  469   0.823   0.219   0.757 -0.7262  0.6666  0.0709
  157SOL    HW1  470   0.834   0.253   0.661  1.4251 -3.7683 -0.3984
  157SOL    HW2  471   0.892   0.145   0.774 -3.6852 -3.5560 -1.0093
  158SOL     OW  472   2.592   0.377   2.130 -0.0270  0.1150 -0.0429
  158SOL    HW1  473   2.522   0.302   2.115 -1.5362 -2.3263 -1.3085
  158SOL    HW2  474   2.622   0.407   2.038  0.2019 -0.5531 -0.2469
  159SOL     OW  475   0.334   0.268   0.339 -0.2774 -0.0439  0.2409
  159SOL    HW1  476   0.414   0.323   0.308 -1.8613 -1.6899 -0.1052
  159SOL    HW2  477   0.355   0.169   0.325  0.4632  1.3397 -0.5105
  160SOL     OW  478   1.722   1.829   2.023  0.1376  0.8668 -0.4075
  160SOL    HW1  479   1.764   1.924   2.029  0.9616 -0.0552 -2.0889
  160SOL    HW2  480   1.633   1.827   2.080 -3.8523  3.0239  0.1290
  161SOL     OW  481   2.732   0.324   2.607  0.3828  0.5091  0.3049
  161SOL    HW1  482   2.751   0.292   2.703  0.7692  1.3724  0.5447
  161SOL    HW2  483   2.802   0.285   2.544  1.9107 -0.3788 -1.9456
  162SOL     OW  484   1.111   2.816   1.679  0.1501  0.0170  0.1457
  162SOL    HW1  485   1.177   2.734   1.685  1.4558 -0.9434 -0.4507
  162SOL    HW2  486   1.034   2.810   1.743  2.1922  0.8816  0.1672
  163SOL     OW  487   2.728   0.124   2.247 -0.0557  0.6181  0.1465
  163SOL    HW1  488   2.742   0.024   2.256 -2.6028  2.1063  0.1590
  163SOL    HW2  489   2.667   0.151   2.322  1.0760  1.6606 -1.9348
  164SOL     OW  490   2.363   1.602   0.334  0.1362 -0.2091  0.0022
  164SOL    HW1  491   2.331   1.702   0.335 -0.8543  1.5317 -1.1172
  164SOL    HW2  492   2.461   1.597   0.366 -0.5482 -1.2897  0.5559
  165SOL     OW  493   2.959   0.464   1.472 -0.4168 -0.1532 -0.3749
  165SOL    HW1  494   3.025   0.527   1.514 -1.2092  0.4047  2.3353
  165SOL    HW2  495   2.981   0.429   1.378  0.9451 -0.4366 -0.1907
  166SOL     OW  496   2.304   0.731   3.000 -0.1615  0.4101 -0.0905
  166SOL    HW1  497   2.362   0.696   2.921  0.0038  0.0138  1.8523
  166SOL    HW2  498   2.363   0.773   3.077  2.9201  0.7398 -0.4378
  167SOL     OW  499   2.666   0.897   3.099 -0.1046 -0.4280 -0.5358
  167SOL    HW1  500   2.739   0.945   3.049  1.2763 -1.4649  0.5043
  167SOL    HW2  501   2.620   0.946   0.072 -2.3472 -2.3403 -0.8568
  168SOL     OW  502   1.758   2.920   2.835  0.0705 -0.1458  0.2218
  168SOL    HW1  503   1.712   2.835   2.861  1.8667  2.1358  1.4295
  168SOL    HW2  504   1.698   2.997   2.840  0.5150  2.7288  3.1261
  169SOL     OW  505   0.090   1.505   0.952 -0.0563 -0.0223  0.1641
  169SOL    HW1  506   0.013   1.514   0.884 -1.8588 -0.5386 -1.9176
  169SOL    HW2  507   0.149   1.421   0.936  0.8601 -2.4299 -1.3672
  170SOL     OW  508   3.040   1.008   1.340 -0.3637  0.0677 -0.3583
  170SOL    HW1  509   3.084   1.050   1.425  1.5607  0.1989  0.5873
  170SOL    HW2  510   3.050   0.904   1.338 -3.9873 -3.2359  0.8854
  171SOL     OW  511   2.411   2.200   1.958 -0.1729  0.7089  0.3106
  171SOL    HW1  512   2.502   2.216   1.914  3.4246 -0.6165 -1.8534
  171SOL    HW2  513   2.388   2.101   1.939  1.0128 -1.4878  0.2654
  172SOL     OW  514   0.274   2.346   1.555  0.1393  0.4964  0.3625
  172SOL    HW1  515   0.243   2.273   1.493  0.9983  1.2122  1.1801
  172SOL    HW2  516   0.311   2.421   1.502 -0.0115 -1.7106 -1.8473
  173SOL     OW  517   1.188   1.049   3.036  0.1277 -0.3939  0.2937
  173SOL    HW1  518   1.263   0.985   2.998 -2.3908  0.6654 -3.2394
  173SOL    HW2  519   1.120   1.069   2.965  0.3078  0.7727  1.2326
  174SOL     OW  520   1.165   0.430   2.777  0.0550  0.3090  0.0388
  174SOL    HW1  521   1.098   0.501   2.799  3.6713 -2.0563  0.3043
  174SOL    HW2  522   1.259   0.470   2.775 -1.7163  1.0040  3.2078
  175SOL     OW  523   1.568   1.807   1.054 -0.5296 -0.3250  0.0228
  175SOL    HW1  524   1.665   1.793   1.080  0.7752 -0.4441  0.0816
  175SOL    HW2  525   1.501   1.738   1.077 -1.2714  0.3790  1.0065
  176SOL     OW  526   1.493   0.100   0.263  0.2428 -0.3828  0.3642
  176SOL    HW1  527   1.581   0.087   0.307 -1.1922 -1.4547  0.5970
  176SOL    HW2  528   1.503   0.125   0.164 -1.5776  0.8395 -0.1245
  177SOL     OW  529   0.740   0.947   2.838 -0.2023 -0.5176  0.5818
  177SOL    HW1  530   0.735   0.873   2.908  1.5985  2.0334  1.5371
  177SOL    HW2  531   0.693   1.029   2.867  2.6838  0.1358  1.1307
  178SOL     OW  532   2.296   2.330   2.412  0.1373  0.4797  0.7392
  178SOL    HW1  533   2.301   2.321   2.313 -0.2165 -0.6171  0.9383
  178SOL    HW2  534   2.376   2.384   2.448 -0.1218  0.9463  0.2518
  179SOL     OW  535   3.029   0.149   2.664 -0.4391  0.4708 -0.4695
  179SOL    HW1  536   2.953   0.151   2.735 -2.0688  4.4211  0.1922
  179SOL    HW2  537   2.994   0.142   2.571  1.7470 -0.5435  1.9542
  180SOL     OW  538   1.965   1.082   0.686 -0.2741  0.4191  0.3093
  180SOL    HW1  539   1.941   0.999   0.743 -0.9538 -0.4690  0.5840
  180SOL    HW2  540   2.000   1.155   0.749  0.8328 -0.0014  1.2774
  181SOL     OW  541   2.010   1.289   2.458  0.2027  0.0742 -0.1180
  181SOL    HW1  542   2.023   1.383   2.417  0.1334  1.2053 -3.1058
  181SOL    HW2  543   1.911   1.284   2.481  2.5000  0.2222  1.2548
  182SOL     OW  544   2.538   2.586   2.210 -0.2499 -0.5367 -0.5831
  182SOL    HW1  545   2.441   2.572   2.227 -0.4237  1.1769  0.2228
  182SOL    HW2  546   2.592   2.523   2.150  2.8005  0.6829  0.1475
  183SOL     OW  547   1.942   0.640   2.098  0.0584  0.1272  0.5468
  183SOL    HW1  548   1.935   0.743   2.101  0.9564  2.9100  0.7346
  183SOL    HW2  549   2.038   0.606   2.072  3.0408 -2.4550 -0.3927
  184SOL     OW  550   0.071   1.768   1.309 -0.1916  0.3462 -0.1088
  184SOL    HW1  551   0.093   1.752   1.211  0.6818  1.9014  0.1749
  184SOL    HW2  552   0.132   1.837   1.347 -0.3681  1.4172  0.6321
  185SOL     OW  553   1.969   0.244   0.613  0.2027  0.1781  0.1454
  185SOL    HW1  554   1.941   0.306   0.686 -2.2581 -2.2310 -0.9137
  185SOL    HW2  555   2.010   0.162   0.650 -1.5288  2.5235  3.0567
  186SOL     OW  556   3.063   2.681   2.668 -0.1172  0.5891  0.0519
  186SOL    HW1  557   3.032   2.584   2.653  1.0443 -1.8024  0.4289
  186SOL    HW2  558   0.056   2.699   2.640  2.5587  3.5191 -1.1475
  187SOL     OW  559   2.786   1.261   0.426  0.5869 -0.4255  0.1558
  187SOL    HW1  560   2.831   1.352   0.446 -1.2564  0.0329  0.9670
  187SOL    HW2  561   2.699   1.269   0.370 -0.0594 -1.9866  0.6979
  188SOL     OW  562   2.285   1.320   1.070  0.2424 -0.0149 -0.0969
  188SOL    HW1  563   2.339   1.306   1.156 -0.4843 -0.0196 -1.1936
  188SOL    HW2  564   2.333   1.398   1.020 -2.4579 -1.7002 -1.5147
  189SOL     OW  565   2.924   0.236   2.414 -0.2439 -0.0529  0.3072
  189SOL    HW1  566   2.862   0.199   2.344 -1.4052 -1.1606 -0.4704
  189SOL    HW2  567   3.011   0.248   2.368  1.7881 -2.6488  1.6557
  190SOL     OW  568   1.440   1.001   1.572  0.2129 -0.2260 -0.3184
  190SOL    HW1  569   1.467   0.984   1.476 -0.3114  0.0405  0.0145
  190SOL    HW2  570   1.511   1.063   1.613 -0.2162  0.1752 -0.0479
  191SOL     OW  571   0.906   0.376   1.852 -0.2814 -0.4939 -0.4293
  191SOL    HW1  572   0.979   0.311   1.883 -0.9626 -1.4709 -0.6232
  191SOL    HW2  573   0.921   0.472   1.888  0.3671 -0.7731 -1.6217
  192SOL     OW  574   1.622   2.140   1.753  0.0260  0.1276 -0.0970
  192SOL    HW1  575   1.594   2.145   1.852 -3.1921 -0.4984  0.1479
  192SOL    HW2  576   1.572   2.211   1.695 -0.5436  2.1112  0.8452
  193SOL     OW  577   1.741   0.477   1.207  0.3407 -0.6934 -0.2021
  193SOL    HW1  578   1.787   0.415   1.275  0.4211  1.0105  3.6740
  193SOL    HW2  579   1.684   0.553   1.260 -4.6488  3.2672  0.5237
  194SOL     OW  580   0.548   2.094   1.338  0.8447 -0.3109  0.4241
  194SOL    HW1  581   0.465   2.096   1.277  2.0795 -0.9411  2.0585
  194SOL    HW2  582   0.598   2.008   1.317 -1.2730  1.4903 -2.6664
  195SOL     OW  583   1.615   0.392   0.303  0.3892 -0.5352  0.6544
  195SOL    HW1  584   1.688   0.341   0.248 -0.5247 -1.4646 -1.0073
  195SOL    HW2  585   1.607   0.351   0.394  0.9724 -0.4325 -0.2239
  196SOL     OW  586   0.453   1.417   1.404 -0.2131  0.0976  0.6907
  196SOL    HW1  587   0.406   1.500   1.448  1.6538 -0.9534  1.2127
  196SOL    HW2  588   0.440   1.333   1.452 -1.8278  0.7248  0.0422
  197SOL     OW  589   1.094   0.091   1.719 -0.2127 -0.5018 -0.2683
  197SOL    HW1  590   1.098   0.158   1.638  0.1337  1.7831  0.7664
  197SOL    HW2  591   1.106   0.131   1.814  1.0271  1.1530 -1.0889
  198SOL     OW  592   0.815   1.334   1.037  0.0439 -0.0047 -0.2777
  198SOL    HW1  593   0.723   1.367   1.019 -1.6908 -3.4212 -2.8146
  198SOL    HW2  594   0.809   1.274   1.120 -1.6478  1.3105  0.3100
  199SOL     OW  595   0.037   2.493   1.585 -0.1708  0.3556 -0.6983
  199SOL    HW1  596   0.063   2.590   1.599  1.3940  1.6526  0.8494
  199SOL    HW2  597   0.114   2.437   1.602 -3.8972  2.2885 -0.1578
  200SOL     OW  598   1.820   1.343   1.803 -0.6291 -0.0438  0.4369
  200SOL    HW1  599   1.902   1.284   1.826  0.8559  0.1188 -0.4249
  200SOL    HW2  600   1.781   1.381   1.890 -0.6821 -3.7490  1.0487
  201SOL     OW  601   0.706   1.770   2.179  0.2509 -0.8433  0.1686
  201SOL    HW1  602   0.710   1.796   2.278  4.5966 -1.6253 -1.1704
  201SOL    HW2  603   0.617   1.722   2.158  0.1762 -0.5803 -2.1017
  202SOL     OW  604   1.525   0.400   3.024 -0.0899 -0.0362  0.2529
  202SOL    HW1  605   1.629   0.398   3.035  0.9873 -0.6713  2.5669
  202SOL    HW2  606   1.484   0.461   3.090 -1.3739  2.0738 -2.0990
  203SOL     OW  607   1.369   2.706   2.374 -0.2091  0.4240 -0.5701
  203SOL    HW1  608   1.360   2.610   2.336 -1.3033 -0.6913  0.1444
  203SOL    HW2  609   1.366   2.704   2.479  1.8647 -0.5361  1.6407
  204SOL     OW  610   0.664   1.713   1.591 -0.4353  0.4519 -0.1136
  204SOL    HW1  611   0.747   1.751   1.544 -2.0465 -0.6290 -0.7194
  204SOL    HW2  612   0.661   1.619   1.630 -0.1417  3.5475 -2.5687
  205SOL     OW  613   1.904   1.619   1.981  0.3589 -0.4358  0.2327
  205SOL    HW1  614   1.845   1.536   2.004 -2.9353 -1.2410 -1.1116
  205SOL    HW2  615   1.851   1.704   2.000  2.7533 -0.1471  0.5517
  206SOL     OW  616   0.106   1.612   2.191 -0.1240  0.6085 -0.2292
  206SOL    HW1  617   0.202   1.579   2.183 -1.6389  1.0744 -1.5859
  206SOL    HW2  618   0.094   1.647   2.284  0.9502  0.2649 -0.1205
  207SOL     OW  619   0.833   2.858   2.111  0.3881  0.0783 -0.3010
  207SOL    HW1  620   0.816   2.899   2.018 -2.3219  0.0576 -0.5960
  207SOL    HW2  621   0.748   2.852   2.170 -2.5388 -0.4423  0.5830
  208SOL     OW  622   0.504   2.690   1.868  0.0168 -0.2867  0.3696
  208SOL    HW1  623   0.527   2.633   1.953  0.5633  2.3358 -0.6603
  208SOL    HW2  624   0.587   2.699   1.813 -1.2574  0.1662  1.6881
  209SOL     OW  625   1.378   2.990   0.432 -0.3321 -0.2099  0.4248
  209SOL    HW1  626   1.403   2.990   0.532  0.9794 -1.9196 -1.4310
  209SOL    HW2  627   1.446   3.043   0.378 -0.6698 -0.8977 -0.0760
  210SOL     OW  628   2.535   0.729   0.745 -0.3981 -0.4655 -0.2843
  210SOL    HW1  629   2.614   0.669   0.721  2.7885  0.4177 -1.2175
  210SOL    HW2  630   2.528   0.812   0.683 -2.1076  2.1352 -0.0584
  211SOL     OW  631   0.638   0.292   1.855  0.2038  0.3129  0.3057
  211SOL    HW1  632   0.719   0.355   1.859 -0.1370  0.3227 -0.5435
  211SOL    HW2  633   0.582   0.315   1.778  3.6591 -0.6865  1.1638
  212SOL     OW  634   1.328   2.625   1.685  0.0480  0.1453  0.7801
  212SOL    HW1  635   1.310   2.624   1.584 -0.0036  0.2797  3.2862
  212SOL    HW2  636   1.344   2.527   1.716  1.4634 -3.1442 -0.4486
  213SOL     OW  637   3.086   0.286   1.656  0.4591 -0.1016  0.5142
  213SOL    HW1  638   3.057   0.343   1.577  1.9711  0.4514 -1.6670
  213SOL    HW2  639   3.018   0.213   1.670  0.7317 -0.0078  2.6545
  214SOL     OW  640   0.622   2.594   2.097 -0.6242  0.2729  0.1857
  214SOL    HW1  641   0.707   2.558   2.071  0.9825 -0.5865  0.6610
  214SOL    HW2  642   0.628   2.663   2.172  2.3672 -0.2342  1.8491
  215SOL     OW  643   2.563   1.704   1.765 -0.1645  0.0903 -0.1274
  215SOL    HW1  644   2.601   1.631   1.702  0.3947 -1.7881  3.4900
  215SOL    HW2  645   2.531   1.790   1.720  1.6748  0.2793  0.3390
  216SOL     OW  646   0.392   1.059   2.186  0.5811  0.4042  0.1368
  216SOL    HW1  647   0.437   0.999   2.115  1.9887 -1.6596 -0.4798
  216SOL    HW2  648   0.466   1.105   2.237 -0.9709  2.9662  0.1832
  217SOL     OW  649   2.638   0.241   1.359  0.2999 -0.2966  0.3154
  217SOL    HW1  650   2.578   0.168   1.389  2.1243  0.8322 -2.1075
  217SOL    HW2  651   2.634   0.257   1.256  0.9500  0.1568  0.4362
  218SOL     OW  652   1.426   2.026   1.155 -0.4318 -0.4675 -0.2881
  218SOL    HW1  653   1.456   1.931   1.157 -0.3711  1.3466  0.0782
  218SOL    HW2  654   1.382   2.045   1.062 -0.1490  0.9572  1.3477
  219SOL     OW  655   1.782   2.730   0.549  0.3676 -0.1718  0.1425
  219SOL    HW1  656   1.816   2.712   0.643 -1.4433 -1.9429 -3.3223
  219SOL    HW2  657   1.723   2.655   0.513 -0.6558 -0.6689  1.0664
  220SOL     OW  658   1.661   2.565   0.166 -0.0422  0.2550 -0.3968
  220SOL    HW1  659   1.584   2.604   0.110 -0.7687  1.6642  1.4926
  220SOL    HW2  660   1.749   2.614   0.163  0.5525  0.6587  0.8920
  221SOL     OW  661   2.719   1.619   0.256  0.0198 -0.1653 -0.2349
  221SOL    HW1  662   2.792   1.688   0.275  0.6418 -1.5027 -1.3451
  221SOL    HW2  663   2.679   1.581   0.347 -0.6884 -0.1657  0.2811
  222SOL     OW  664   0.889   2.401   0.928  0.4338 -0.5113 -0.4419
  222SOL    HW1  665   0.866   2.499   0.907 -1.0154  2.6933  1.0926
  222SOL    HW2  666   0.935   2.396   1.021 -0.3441  1.1371  1.8384
  223SOL     OW  667   0.898   3.042   0.265 -0.6207 -1.0720  0.2288
  223SOL    HW1  668   0.808   3.032   0.306  0.2911  0.4220 -3.1240
  223SOL    HW2  669   0.958   2.960   0.280  0.9211 -0.4096 -0.5988
  224SOL     OW  670   2.832   1.137   1.065 -0.1341  0.5948 -0.2388
  224SOL    HW1  671   2.743   1.123   1.025  3.3192 -1.3405 -0.7977
  224SOL    HW2  672   2.828   1.141   1.166 -2.1170 -2.5865 -3.4096
  225SOL     OW  673   3.029   1.893   0.963  0.0673 -0.0653  0.1522
  225SOL    HW1  674   2.970   1.912   1.044 -1.5369 -1.3199 -0.1935
  225SOL    HW2  675   0.020   1.863   0.993 -0.3579 -3.2358  0.7783
  226SOL     OW  676   0.812   2.999   1.041  0.2907 -0.5171 -0.0186
  226SOL    HW1  677   0.851   2.944   1.115  0.8132 -0.8420 -0.7325
  226SOL    HW2  678   0.715   3.019   1.044  1.7585 -2.8117 -1.2054
  227SOL     OW  679   1.106   1.561   1.294  0.5148  0.2705 -0.6203
  227SOL    HW1  680   1.115   1.514   1.202  2.0098 -3.4410 -1.3008
  227SOL    HW2  681   1.059   1.504   1.363  2.1061 -0.3929 -2.4435
  228SOL     OW  682   1.091   0.211   1.949  0.1162  0.3250 -0.0793
  228SOL    HW1  683   1.051   0.174   2.035 -1.0904 -0.4065  0.4012
  228SOL    HW2  684   1.174   0.260   1.968 -1.1099 -1.8551 -2.2678
  229SOL     OW  685   2.933   0.893   2.364  0.5516 -0.6223  0.2847
  229SOL    HW1  686   2.925   0.805   2.413 -1.6664  0.0881  3.4824
  229SOL    HW2  687   2.995   0.889   2.287  0.6013  1.3473  2.1384
  230SOL     OW  688   2.999   0.885   0.984  0.0338  0.0374 -0.3369
  230SOL    HW1  689   2.989   0.822   1.064  1.5910 -1.4776  0.2768
  230SOL    HW2  690   2.945   0.966   1.008  1.7230 -0.9741 -1.3180
  231SOL     OW  691   1.346   2.965   2.580  0.6007  0.3640 -0.2725
  231SOL    HW1  692   1.404   2.884   2.591  0.1422  3.0413 -1.1324
  231SOL    HW2  693   1.357   3.034   2.656  3.2308 -1.3655  0.0797
  232SOL     OW  694   0.086   1.629   0.130  0.3200 -0.3100 -0.1468
  232SOL    HW1  695   0.148   1.626   0.214  0.7356 -0.6870  1.6924
  232SOL    HW2  696   0.090   1.725   0.096  2.0639  1.8178  1.2949
  233SOL     OW  697   1.230   2.446   2.944 -0.4386 -0.2931 -0.0904
  233SOL    HW1  698   1.272   2.442   2.853 -1.5712 -0.5045  2.2177
  233SOL    HW2  699   1.131   2.475   2.937 -1.7751 -1.7946 -0.4756
  234SOL     OW  700   0.843   1.267   1.730  0.7503 -0.7594 -0.2979
  234SOL    HW1  701   0.859   1.181   1.675  0.1869 -1.9181 -0.0927
  234SOL    HW2  702   0.870   1.257   1.825 -1.1058  0.5905 -0.8192
  235SOL     OW  703   0.434   2.431   2.212  1.4002  0.8005 -0.5715
  235SOL    HW1  704   0.350   2.429   2.158  1.5186 -0.1754  0.9574
  235SOL    HW2  705   0.500   2.499   2.186  2.2358  0.5980  1.0932
  236SOL     OW  706   1.663   1.893   2.857 -0.2434  0.1268  0.3226
  236SOL    HW1  707   1.623   1.797   2.868 -1.0180 -0.8533  0.6014
  236SOL    HW2  708   1.629   1.943   2.775 -0.4448 -0.1395 -0.9889
  237SOL     OW  709   1.480   0.774   0.338 -0.6125 -0.0539 -0.3269
  237SOL    HW1  710   1.577   0.757   0.307 -1.4220  0.0875 -1.0988
  237SOL    HW2  711   1.455   0.873   0.314 -2.2513  2.7256 -0.1061
  238SOL     OW  712   0.984   2.665   2.217  0.0412  0.2011  0.1328
  238SOL    HW1  713   0.924   2.698   2.143  0.4725  1.9445  0.8551
  238SOL    HW2  714   1.075   2.654   2.173  0.3055 -1.7456  1.1468
  239SOL     OW  715   1.157   2.620   1.961 -0.0586 -0.0226  0.2374
  239SOL    HW1  716   1.097   2.589   1.886 -0.3460  0.4136 -2.4299
  239SOL    HW2  717   1.248   2.590   1.940 -2.9893  1.1160  1.3723
  240SOL     OW  718   1.890   2.977   0.790 -0.1633 -0.8483 -0.1206
  240SOL    HW1  719   1.859   2.883   0.813 -0.2809  3.7742 -0.1107
  240SOL    HW2  720   1.918   3.020   0.880  0.3437 -2.4923 -1.5608
  241SOL     OW  721   1.415   1.383   2.003 -0.1336 -0.0989 -0.1219
  241SOL    HW1  722   1.355   1.318   1.950 -0.1141  0.7922  1.0210
  241SOL    HW2  723   1.365   1.408   2.094 -3.2835 -1.4465  3.2205
  242SOL     OW  724   2.643   0.639   3.035 -0.1091  0.7752  0.0307
  242SOL    HW1  725   2.633   0.732   3.069  2.8839 -3.2839  1.5465
  242SOL    HW2  726   2.592   0.619   2.951 -0.4226  2.1157 -3.6732
  243SOL     OW  727   0.869   0.772   1.161 -0.1659  0.4312 -0.0889
  243SOL    HW1  728   0.935   0.703   1.122  1.1099 -0.7996 -0.4290
  243SOL    HW2  729   0.870   0.756   1.262  0.1831  4.1005  0.2843
  244SOL     OW  730   1.373   0.042   2.791 -0.2241 -0.4632 -0.3633
  244SOL    HW1  731   1.304   0.108   2.829 -0.6706  0.0632  0.4241
  244SOL    HW2  732   1.466   0.060   2.832  1.3274 -2.7191 -1.3567
  245SOL     OW  733   2.083   3.084   3.028 -0.9523 -0.2932  0.0385
  245SOL    HW1  734   2.108   3.013   3.096  1.9832 -0.7118 -0.3256
  245SOL    HW2  735   2.091   3.046   2.934 -0.5085  1.8519  0.8842
  246SOL     OW  736   0.882   0.717   1.425  0.0250  0.1228 -0.3673
  246SOL    HW1  737   0.983   0.732   1.428 -0.1592 -2.1488 -1.5981
  246SOL    HW2  738   0.847   0.652   1.495 -0.0418 -1.5798 -0.5427
  247SOL     OW  739   0.296   0.481   1.830  0.3553 -0.3471  0.4247
  247SOL    HW1  740   0.318   0.385   1.822  0.9949 -2.3374 -1.6022
  247SOL    HW2  741   0.369   0.540   1.784  0.5602  0.2007  0.0641
  248SOL     OW  742   2.893   1.939   2.030 -0.1072 -0.1041  0.3256
  248SOL    HW1  743   2.975   1.887   2.009 -0.0459 -0.7597 -0.1524
  248SOL    HW2  744   2.854   1.903   2.117  0.0301  0.0273 -3.0655
  249SOL     OW  745   2.919   0.139   0.058 -0.3499  0.1718 -0.0682
  249SOL    HW1  746   2.956   0.221   0.007 -1.2437 -1.2882  0.8281
  249SOL    HW2  747   2.968   0.054   0.042 -1.8483 -0.4315  0.7523
  250SOL     OW  748   2.836   0.173   0.317  0.6585 -0.4954 -0.4803
  250SOL    HW1  749   2.841   0.183   0.217  0.0631 -0.5586  2.7909
  250SOL    HW2  750   2.789   0.083   0.338 -2.0622 -2.3448  1.9841
  251SOL     OW  751   0.969   1.496   1.542  0.0921 -0.0362  0.0244
  251SOL    HW1  752   0.966   1.599   1.528  0.9668  2.6387 -0.0644
  251SOL    HW2  753   0.878   1.463   1.510 -1.6017  0.0368 -2.0846
  252SOL     OW  754   1.746   2.668   1.460  0.7542  0.5855 -0.4483
  252SOL    HW1  755   1.826   2.656   1.521 -1.7613  0.3798 -2.8127
  252SOL    HW2  756   1.772   2.687   1.364  0.1111 -1.5363 -2.2986
  253SOL     OW  757   2.209   1.977   2.579 -0.2714  0.9572  0.2540
  253SOL    HW1  758   2.126   2.040   2.579  0.3910  2.1507 -0.7627
  253SOL    HW2  759   2.241   1.959   2.488  1.2209  0.5760  1.7568
  254SOL     OW  760   0.708   1.990   1.996  0.1029 -0.1903  0.1482
  254SOL    HW1  761   0.741   1.913   2.047 -1.3865 -0.5065 -0.3510
  254SOL    HW2  762   0.658   1.965   1.910  0.3591 -0.7135 -1.1643
  255SOL     OW  763   1.074   0.228   1.477 -0.6435  0.8189 -0.4400
  255SOL    HW1  764   1.164   0.197   1.441  1.3421 -0.9233  0.8136
  255SOL    HW2  765   0.997   0.200   1.415  0.0237  0.4080 -0.1260
  256SOL     OW  766   2.185   2.241   1.272  0.6040 -0.0991 -0.1019
  256SOL    HW1  767   2.099   2.197   1.314  0.5071  0.5839  0.7988
  256SOL    HW2  768   2.258   2.169   1.264 -0.5970 -2.2516  0.9583
  257SOL     OW  769   0.629   2.118   3.043 -0.1079  0.1149 -0.7258
  257SOL    HW1  770   0.715   2.152   3.005 -2.1284 -1.2131  0.1769
  257SOL    HW2  771   0.558   2.193   3.041 -0.8342 -0.3992 -0.2229
  258SOL     OW  772   0.451   1.468   2.980 -0.1661 -0.1527 -0.2403
  258SOL    HW1  773   0.511   1.436   2.905 -0.2926  3.2203 -2.9071
  258SOL    HW2  774   0.355   1.469   2.949  0.4791  0.6214 -1.2206
  259SOL     OW  775   0.858   1.352   2.684  0.1424 -0.1515  0.2496
  259SOL    HW1  776   0.932   1.289   2.653  0.7398 -0.4052  2.7878
  259SOL    HW2  777   0.868   1.447   2.644  0.1329  1.7911 -1.6501
  260SOL     OW  778   1.952   0.841   1.334 -0.3431 -0.2398  0.3664
  260SOL    HW1  779   1.883   0.863   1.404  0.9115  0.6444  0.0679
  260SOL    HW2  780   1.924   0.868   1.238 -0.2441  0.1353 -2.2161
  261SOL     OW  781   1.159   0.299   1.009  0.4702 -0.6081  0.2182
  261SOL    HW1  782   1.109   0.211   1.022 -1.3855  0.5538  0.1129
  261SOL    HW2  783   1.098   0.378   0.995 -0.6230  2.1216  0.7222
  262SOL     OW  784   1.987   2.165   2.603  0.3287 -0.3423 -0.0099
  262SOL    HW1  785   2.025   2.256   2.603 -1.7502 -1.7394  0.9166
  262SOL    HW2  786   1.887   2.160   2.599  0.2324  0.9410 -1.3213
  263SOL     OW  787   2.989   1.636   2.999 -0.6424  0.7168  0.0870
  263SOL    HW1  788   3.002   1.652   2.898 -0.4418  0.4073 -2.0024
  263SOL    HW2  789   3.071   1.580   3.036  1.4917 -1.1658  0.9553
  264SOL     OW  790   0.354   1.876   0.925 -0.1763 -0.1894 -0.8163
  264SOL    HW1  791   0.452   1.896   0.915 -0.5696  0.4607  0.2499
  264SOL    HW2  792   0.315   1.872   0.835 -0.2181 -1.9545 -0.0229
  265SOL     OW  793   0.648   0.977   0.794 -0.4238 -1.1820 -0.0364
  265SOL    HW1  794   0.607   1.041   0.727  1.2813 -2.2567  3.2899
  265SOL    HW2  795   0.619   1.007   0.890 -1.5820  0.4381 -0.1403
  266SOL     OW  796   1.485   1.726   3.059  0.0268  0.2382 -0.4029
  266SOL    HW1  797   1.563   1.697   2.995  1.1564  0.3784 -0.3369
  266SOL    HW2  798   1.460   1.827   3.055 -0.5079  1.3680  0.5013
  267SOL     OW  799   0.657   1.120   2.307 -0.7399  0.0993 -0.1704
  267SOL    HW1  800   0.743   1.089   2.261  1.1151  2.2957  1.3950
  267SOL    HW2  801   0.626   1.059   2.378 -1.1695  0.6400 -0.2758
  268SOL     OW  802   0.705   0.863   0.057 -0.6277 -0.0388 -0.3058
  268SOL    HW1  803   0.798   0.859   0.094  1.2623 -0.0939  0.1896
  268SOL    HW2  804   0.675   0.962   0.048  1.7823  0.0937 -0.0892
  269SOL     OW  805   1.953   2.918   2.646 -0.6888  0.4653  0.0213
  269SOL    HW1  806   1.924   2.921   2.547  1.1732 -1.7530 -0.3436
  269SOL    HW2  807   1.883   2.902   2.720  0.7248  1.9093 -0.5113
  270SOL     OW  808   1.079   1.189   2.622  0.1160 -0.2793  0.3212
  270SOL    HW1  809   1.177   1.191   2.598  2.4819  1.2246 -0.8049
  270SOL    HW2  810   1.066   1.139   2.707 -1.1409 -0.0140 -0.7060
  271SOL     OW  811   3.040   0.351   3.044 -0.2616  0.3870  0.2452
  271SOL    HW1  812   3.091   0.347   0.029  0.5679  0.0209  2.6498
  271SOL    HW2  813   3.073   0.431   2.991 -0.7556 -0.8252  1.5628
  272SOL     OW  814   2.418   0.946   2.787 -0.1735 -0.1583 -0.2955
  272SOL    HW1  815   2.398   1.021   2.849 -0.8856 -1.2794  0.8159
  272SOL    HW2  816   2.513   0.953   2.748  1.3173  1.2318 -1.3226
  273SOL     OW  817   0.232   0.230   2.002 -1.1528  0.3269  0.3676
  273SOL    HW1  818   0.133   0.217   1.982  3.1094 -1.1547 -0.0894
  273SOL    HW2  819   0.241   0.298   2.077  0.3808  2.4065 -2.1614
  274SOL     OW  820   0.014   0.508   1.813  0.1574 -0.2934  0.3650
  274SOL    HW1  821   0.108   0.503   1.839 -1.2122  0.9640 -0.8310
  274SOL    HW2  822   3.095   0.427   1.753  2.3987 -0.6947 -3.0454
  275SOL     OW  823   1.654   1.730   0.633 -0.4288 -0.6242 -0.2366
  275SOL    HW1  824   1.667   1.680   0.542  0.3528  0.0764  1.0598
  275SOL    HW2  825   1.681   1.828   0.623  0.4186 -1.5880  2.1188
  276SOL     OW  826   0.601   1.418   2.308 -0.0998  0.0398  0.8271
  276SOL    HW1  827   0.625   1.320   2.289 -2.6469  0.8273  1.2054
  276SOL    HW2  828   0.582   1.426   2.405  0.6465 -2.1328 -1.6287
  277SOL     OW  829   2.064   2.663   2.522 -0.8583 -0.1710 -0.0932
  277SOL    HW1  830   2.036   2.667   2.422  4.1129 -1.3353 -0.1571
  277SOL    HW2  831   2.036   2.741   2.578 -0.3312  0.6535 -0.1598
  278SOL     OW  832   2.120   2.949   1.828 -0.0917  0.7171 -0.2372
  278SOL    HW1  833   2.032   2.910   1.797 -0.2353 -0.8764 -1.2345
  278SOL    HW2  834   2.109   3.040   1.869  0.4767  0.6500  1.3846
  279SOL     OW  835   1.614   1.218   2.984 -0.1963 -0.1326  0.3007
  279SOL    HW1  836   1.577   1.307   3.023 -0.9169  0.9585 -0.1039
  279SOL    HW2  837   1.655   1.155   3.053  0.3277 -2.3270 -1.9792
  280SOL     OW  838   0.659   1.388   0.072 -0.3868 -0.0586 -0.2373
  280SOL    HW1  839   0.717   1.448   0.122 -1.8324 -0.4839 -3.6988
  280SOL    HW2  840   0.641   1.414   3.081 -0.8970 -1.6444 -0.5209
  281SOL     OW  841   0.080   3.018   1.201  0.0864 -0.7811  0.2374
  281SOL    HW1  842   0.179   3.036   1.223  2.4079 -0.1146 -2.3740
  281SOL    HW2  843   0.024   3.092   1.240  1.0900  2.6600  0.6330
  282SOL     OW  844   2.933   2.217   0.749  0.2190 -0.2025  0.6827
  282SOL    HW1  845   3.036   2.200   0.740 -0.2775  0.1617 -2.2294
  282SOL    HW2  846   2.899   2.272   0.668 -1.4627 -1.1366  0.0725
  283SOL     OW  847   1.112   1.813   1.925  0.0604 -0.4141  0.4253
  283SOL    HW1  848   1.146   1.907   1.941  1.1334 -2.9615  0.7281
  283SOL    HW2  849   1.065   1.771   2.008 -0.8437  2.9791  2.3328
  284SOL     OW  850   2.046   3.012   0.305  0.3397 -0.2003  0.1073
  284SOL    HW1  851   2.101   3.096   0.330 -0.0482  0.2518 -0.7087
  284SOL    HW2  852   2.078   2.965   0.219 -0.1053 -0.6166 -1.5010
  285SOL     OW  853   2.972   2.689   2.331  0.3961 -0.5527 -0.1446
  285SOL    HW1  854   2.998   2.789   2.352  1.3021  0.7410 -2.1828
  285SOL    HW2  855   2.893   2.657   2.393 -3.4608 -0.1629  1.5918
  286SOL     OW  856   2.083   2.570   1.347  0.5367 -0.4599 -0.4908
  286SOL    HW1  857   2.045   2.580   1.444  0.7868  0.1313 -1.0185
  286SOL    HW2  858   2.183   2.576   1.362  0.4286  0.6266 -3.3788
  287SOL     OW  859   0.361   1.469   0.704 -0.3324  0.1161 -0.5721
  287SOL    HW1  860   0.318   1.404   0.767  0.1884 -1.8511  0.3690
  287SOL    HW2  861   0.461   1.477   0.727  2.1456 -0.7235  0.7296
  288SOL     OW  862   2.046   2.059   2.924 -0.0336  0.0636  0.1370
  288SOL    HW1  863   1.963   2.100   2.885 -0.6217 -0.1768  2.0486
  288SOL    HW2  864   2.102   2.137   2.958 -1.1135 -1.1196  0.1679
  289SOL     OW  865   0.375   1.693   2.527  0.1425 -0.0051  0.6459
  289SOL    HW1  866   0.405   1.770   2.467 -1.6378 -4.1055  0.9958
  289SOL    HW2  867   0.417   1.705   2.618 -1.6217  2.1573  2.0032
  290SOL     OW  868   0.984   2.143   1.221 -0.1410  0.1920 -0.1859
  290SOL    HW1  869   0.969   2.090   1.311 -0.4296 -3.1737  1.8154
  290SOL    HW2  870   0.997   2.084   1.137  0.6421  0.2512 -0.3668
  291SOL     OW  871   1.749   1.144   2.765 -0.5301 -0.0502 -0.1765
  291SOL    HW1  872   1.845   1.174   2.752  0.7413  1.9504 -0.3159
  291SOL    HW2  873   1.704   1.182   2.849 -1.4539  0.8383  2.2757
  292SOL     OW  874   0.995   1.386   0.578 -0.1758  0.1680  0.6810
  292SOL    HW1  875   0.894   1.372   0.598 -0.8937 -0.4662 -1.6805
  292SOL    HW2  876   1.051   1.308   0.613 -0.8825 -0.2615 -2.7176
  293SOL     OW  877   1.330   2.933   1.299  0.4235 -0.7497 -0.1284
  293SOL    HW1  878   1.410   2.869   1.299 -0.4157 -0.4519 -1.9489
  293SOL    HW2  879   1.302   2.953   1.206 -0.0458 -2.0685 -1.6383
  294SOL     OW  880   2.836   1.016   2.900 -0.0955  0.1678 -0.4070
  294SOL    HW1  881   2.765   1.068   2.847 -1.6611  0.4673  0.1645
  294SOL    HW2  882   2.837   0.914   2.879  2.4401  1.1901 -1.4157
  295SOL     OW  883   1.589   2.102   2.666 -0.3456  0.1323  0.0204
  295SOL    HW1  884   1.632   2.143   2.750 -0.2458 -0.6794  0.0522
  295SOL    HW2  885   1.641   2.127   2.582 -0.4851  0.7683  0.4861
  296SOL     OW  886   1.876   0.905   2.162 -0.1136 -0.7049 -0.4387
  296SOL    HW1  887   1.792   0.956   2.170  0.5651 -0.0321  1.2642
  296SOL    HW2  888   1.912   0.898   2.258  0.1006 -0.5109  0.3554
  297SOL     OW  889   0.034   0.812   2.162 -0.1761 -0.3720  0.1873
  297SOL    HW1  890   3.061   0.771   2.108  0.3911 -0.7307 -0.1039
  297SOL    HW2  891   0.073   0.902   2.133  1.0031 -1.1277  0.7128
  298SOL     OW  892   1.317   2.073   2.040 -0.0291  0.1848  0.8201
  298SOL    HW1  893   1.255   2.146   2.003  0.9636 -1.4307  1.0758
  298SOL    HW2  894   1.294   2.038   2.135  1.4632  1.8824 -0.5565
  299SOL     OW  895   0.576   2.851   2.586 -0.2776  0.1859 -0.2825
  299SOL    HW1  896   0.656   2.890   2.540  0.5668  0.1162  1.7585
  299SOL    HW2  897   0.532   2.773   2.531  1.0117  0.3006  0.9654
  300SOL     OW  898   0.117   0.889   2.727 -0.1221 -0.4900 -0.5062
  300SOL    HW1  899   0.107   0.796   2.686 -0.9571  0.8320  4.0881
  300SOL    HW2  900   0.092   0.958   2.655  0.1491  1.6927 -0.2510
  301SOL     OW  901   1.772   0.949   1.515 -0.4326  0.5599 -0.1541
  301SOL    HW1  902   1.775   0.890   1.599  0.4446 -0.1101 -2.2488
  301SOL    HW2  903   1.783   1.048   1.534 -1.3932  0.8684  1.6501
  302SOL     OW  904   2.659   1.972   2.441  0.3443 -0.3859  0.5707
  302SOL    HW1  905   2.688   1.911   2.513  0.1007  2.0561 -2.0728
  302SOL    HW2  906   2.609   2.053   2.487 -1.3861  0.9258 -2.4622
  303SOL     OW  907   0.168   0.031   2.327 -0.5650 -0.4295 -0.4657
  303SOL    HW1  908   0.258   0.032   2.377  1.8152  1.4676 -1.7814
  303SOL    HW2  909   0.111   0.116   2.346  2.7876  0.9049 -0.9213
  304SOL     OW  910   0.047   1.152   1.529 -0.7803 -0.2469 -0.5012
  304SOL    HW1  911   0.068   1.253   1.526  0.1245  0.2096  0.4841
  304SOL    HW2  912   0.041   1.128   1.624 -0.8169  2.0966 -1.7667
  305SOL     OW  913   3.043   0.109   1.300 -0.1131 -0.5614 -0.3594
  305SOL    HW1  914   3.083   0.199   1.273  0.7915 -0.4015 -1.4446
  305SOL    HW2  915   2.982   0.128   1.380 -0.7792  0.0281 -0.4566
  306SOL     OW  916   2.436   1.293   1.278 -0.5150  0.8049 -0.2275
  306SOL    HW1  917   2.470   1.225   1.345 -3.0151  0.7262 -1.9392
  306SOL    HW2  918   2.470   1.389   1.301 -0.5652 -0.7430  2.1424
  307SOL     OW  919   2.068   0.005   0.972 -0.3062 -0.7291  0.3367
  307SOL    HW1  920   2.108   3.035   1.028 -0.5742  0.6440  0.5999
  307SOL    HW2  921   2.105   0.097   0.990  3.7362 -0.6693  0.9105
  308SOL     OW  922   2.600   2.023   1.194 -0.2300  0.4740  0.3578
  308SOL    HW1  923   2.676   2.058   1.137  0.2331 -0.5442 -1.8271
  308SOL    HW2  924   2.601   1.916   1.203 -0.4250  0.1769  1.0992
  309SOL     OW  925   2.103   1.934   1.671 -0.7232 -0.4271  0.6229
  309SOL    HW1  926   2.128   1.911   1.574  0.4483 -0.5556 -2.2194
  309SOL    HW2  927   2.048   1.854   1.709 -1.0013  0.9665  3.0363
  310SOL     OW  928   2.382   1.535   2.805 -0.4412 -0.2483 -0.0577
  310SOL    HW1  929   2.403   1.577   2.897 -1.5787 -1.1212  1.7224
  310SOL    HW2  930   2.297   1.475   2.815 -1.5363  2.1589  0.1059
  311SOL     OW  931   2.006   1.175   2.707  0.1804  0.8969  0.4644
  311SOL    HW1  932   2.024   1.206   2.612 -1.8709  0.7062  0.0409
  311SOL    HW2  933   2.047   1.085   2.739  2.0291 -1.6860  3.2241
  312SOL     OW  934   1.567   2.179   2.051  0.5181  0.4647  0.2571
  312SOL    HW1  935   1.555   2.245   2.133  1.6448 -0.9911 -0.1174
  312SOL    HW2  936   1.491   2.111   2.040  2.4190  1.3747 -0.5860
  313SOL     OW  937   0.387   2.878   1.058 -0.1860  0.0289 -0.1608
  313SOL    HW1  938   0.338   2.897   0.968  2.0089 -1.7274  0.4494
  313SOL    HW2  939   0.446   2.796   1.051 -3.0977 -0.6582  0.1292
  314SOL     OW  940   0.593   1.566   1.219 -0.1590  0.2073  0.1587
  314SOL    HW1  941   0.535   1.535   1.293  1.4273  0.2634 -2.5421
  314SOL    HW2  942   0.582   1.501   1.145  0.5027  2.6046  4.7689
  315SOL     OW  943   0.620   2.815   2.276 -0.1976  0.0591  0.2002
  315SOL    HW1  944   0.639   2.901   2.327  0.2887  2.7260  1.4764
  315SOL    HW2  945   0.520   2.802   2.261  0.0646 -0.3467  2.0050
  316SOL     OW  946   0.150   2.221   0.983 -0.3156 -0.6729  0.5798
  316SOL    HW1  947   0.069   2.224   1.038 -0.0395  0.3050 -2.3873
  316SOL    HW2  948   0.230   2.173   1.026 -1.7084  1.8234  0.0652
  317SOL     OW  949   1.937   0.694   0.438  0.3927 -0.1548 -0.2197
  317SOL    HW1  950   1.860   0.702   0.366 -3.5333  1.8519 -0.1828
  317SOL    HW2  951   1.978   0.600   0.451  0.6952  2.5366 -0.5037
  318SOL     OW  952   2.955   2.578   3.036  0.4162 -0.0115  0.5667
  318SOL    HW1  953   2.937   2.582   0.037 -1.6896 -0.7332  1.3566
  318SOL    HW2  954   3.054   2.580   3.011  0.0887 -0.0204  0.7097
  319SOL     OW  955   1.599   1.889   0.243  0.6193 -0.2602  0.1052
  319SOL    HW1  956   1.661   1.937   0.311  1.6343  4.1552 -2.1881
  319SOL    HW2  957   1.644   1.898   0.150  1.6762 -0.1690 -1.2571
  320SOL     OW  958   0.644   2.254   2.725 -0.0962  0.1241 -0.1660
  320SOL    HW1  959   0.574   2.177   2.721  0.1041  1.7416  2.4542
  320SOL    HW2  960   0.725   2.218   2.778  1.5609 -0.1372 -1.2500
  321SOL     OW  961   0.991   2.803   0.280 -0.5378 -0.0053  0.0271
  321SOL    HW1  962   0.965   2.791   0.184  0.0686 -0.7588  1.2245
  321SOL    HW2  963   1.094   2.795   0.304  1.9701 -0.2457  1.2202
  322SOL     OW  964   2.201   0.588   2.025 -0.3305 -0.6423  0.0204
  322SOL    HW1  965   2.152   0.568   1.944  2.4393  0.1210  1.0395
  322SOL    HW2  966   2.297   0.607   2.002  2.3991  0.7067 -0.3650
  323SOL     OW  967   2.731   1.087   0.622  0.2558  0.0904  0.0230
  323SOL    HW1  968   2.817   1.036   0.642 -0.9805  1.6113 -1.3737
  323SOL    HW2  969   2.748   1.165   0.554 -0.2621  1.9849 -1.1832
  324SOL     OW  970   0.308   0.397   2.204 -0.4047  0.0055  0.0895
  324SOL    HW1  971   0.280   0.496   2.224 -0.5720 -0.5966 -0.1073
  324SOL    HW2  972   0.406   0.401   2.162  2.0504  2.5733 -1.8804
  325SOL     OW  973   0.760   3.062   2.377  0.1795  0.1687 -0.2410
  325SOL    HW1  974   0.793   0.035   2.316 -2.2547 -1.8471 -2.3813
  325SOL    HW2  975   0.752   0.001   2.475  0.1823  0.0801  1.6676
  326SOL     OW  976   2.616   2.437   0.726  0.2781 -0.0571 -0.2764
  326SOL    HW1  977   2.557   2.367   0.773 -3.6572  1.3715  0.5668
  326SOL    HW2  978   2.653   2.513   0.785  1.4945  2.7242  0.9502
  327SOL     OW  979   1.706   1.055   0.079 -0.4245  0.8002 -0.2761
  327SOL    HW1  980   1.628   1.041   0.146 -1.6451  1.8985 -0.0026
  327SOL    HW2  981   1.742   0.965   0.040 -0.1189  0.7051  1.2341
  328SOL     OW  982   0.304   1.985   2.121 -0.0534  0.8407  0.9583
  328SOL    HW1  983   0.383   2.015   2.173 -2.9454  0.1237  0.5419
  328SOL    HW2  984   0.225   1.982   2.182 -1.1191  1.4028 -1.2877
  329SOL     OW  985   2.743   2.641   1.513 -0.0853 -0.1692 -0.1308
  329SOL    HW1  986   2.748   2.546   1.481  2.0787  1.4269  3.0026
  329SOL    HW2  987   2.718   2.640   1.612  0.0270  0.9303  1.5021
  330SOL     OW  988   2.527   1.315   1.746  0.5158 -0.3219 -0.5931
  330SOL    HW1  989   2.459   1.273   1.807 -0.0213 -0.9807 -0.6079
  330SOL    HW2  990   2.622   1.313   1.786 -0.6567  1.1383  0.8122
  331SOL     OW  991   2.793   2.121   0.992 -0.1465  0.2584  0.1258
  331SOL    HW1  992   2.867   2.164   0.930  3.0554  1.9731 -1.3469
  331SOL    HW2  993   2.719   2.075   0.946  1.6437 -0.7965  1.0121
  332SOL     OW  994   0.593   2.609   0.224  0.0124  0.3188 -0.3832
  332SOL    HW1  995   0.536   2.671   0.162  0.7467  0.3607  4.1674
  332SOL    HW2  996   0.592   2.639   0.320  0.5057 -1.9671 -0.7638
  333SOL     OW  997   1.979   0.175   2.346 -0.1671 -0.1367  0.1577
  333SOL    HW1  998   1.939   0.181   2.438 -0.7733  2.5394  1.1195
  333SOL    HW2  999   1.979   0.260   2.298  0.0152  1.8922  0.7148
  334SOL     OW 1000   0.675   0.794   0.520  0.5289 -0.4277 -0.2510
  334SOL    HW1 1001   0.735   0.841   0.592 -2.2181  1.4877  4.6647
  334SOL    HW2 1002   0.612   0.855   0.470  1.3834 -0.6241  1.7493
  335SOL     OW 1003   0.370   2.740   2.216 -0.0878  0.1114 -0.1680
  335SOL    HW1 1004   0.406   2.659   2.165 -2.1807 -0.8932  3.0661
  335SOL    HW2 1005   0.284   2.774   2.176 -0.2734 -2.4649  3.3540
  336SOL     OW 1006   2.744   2.964   2.302 -0.3090  0.6271  0.5247
  336SOL    HW1 1007   2.722   2.898   2.226  0.9188 -0.6025 -1.9443
  336SOL    HW2 1008   2.821   2.924   2.355  1.1014  1.5918  0.4455
  337SOL     OW 1009   1.327   1.699   0.817 -0.6087  0.1207  0.1213
  337SOL    HW1 1010   1.330   1.705   0.918 -3.0767 -1.4269  0.0927
  337SOL    HW2 1011   1.400   1.632   0.786  1.4975  0.2925  3.3068
  338SOL     OW 1012   0.996   1.689   0.967  0.3504 -0.3172 -0.0754
  338SOL    HW1 1013   1.056   1.632   0.914  0.7728  0.3739  1.9738
  338SOL    HW2 1014   0.899   1.698   0.934 -2.2669  0.7549  2.1192
  339SOL     OW 1015   0.190   1.404   1.574 -0.0252  0.5018 -0.1019
  339SOL    HW1 1016   0.177   1.498   1.546  0.4564 -1.0351  2.0353
  339SOL    HW2 1017   0.155   1.388   1.668  0.4478  0.7773 -2.3462
  340SOL     OW 1018   1.626   2.779   2.265  0.1747  0.4651  0.1441
  340SOL    HW1 1019   1.636   2.749   2.167 -4.8713 -0.4619 -1.6352
  340SOL    HW2 1020   1.533   2.752   2.304 -1.0571 -0.0109  0.9068
  341SOL     OW 1021   1.814   1.428   0.909  0.1925 -0.1181  0.1272
  341SOL    HW1 1022   1.813   1.471   0.997  0.4909 -0.5209  0.5620
  341SOL    HW2 1023   1.721   1.394   0.886 -1.2357 -2.1493 -1.4074
  342SOL     OW 1024   2.973   1.492   0.776  0.1056  0.3767  0.4831
  342SOL    HW1 1025   2.953   1.499   0.674  0.3093  0.8931  0.2578
  342SOL    HW2 1026   2.890   1.502   0.835 -4.2489 -0.6223 -1.0167
  343SOL     OW 1027   2.819   1.157   1.349 -0.2325 -0.1749 -0.3490
  343SOL    HW1 1028   2.769   1.141   1.438  1.1847  0.3134  2.1400
  343SOL    HW2 1029   2.902   1.096   1.344  0.6937 -0.6474  0.3618
  344SOL     OW 1030   1.986   0.489   1.057 -0.5252  0.2471 -0.9402
  344SOL    HW1 1031   1.895   0.504   1.099  0.4927 -1.0147  1.4721
  344SOL    HW2 1032   2.053   0.547   1.110  1.7823 -0.8579 -0.5143
  345SOL     OW 1033   0.442   3.080   2.450  0.6549  0.0308  0.8632
  345SOL    HW1 1034   0.501   3.008   2.487 -0.5861  0.2980 -0.5371
  345SOL    HW2 1035   0.494   0.051   2.401 -1.7168 -2.3397  1.3336
  346SOL     OW 1036   2.345   1.395   0.168 -0.1841 -0.1487  0.7691
  346SOL    HW1 1037   2.365   1.469   0.237  0.9609 -0.1771 -0.6802
  346SOL    HW2 1038   2.257   1.349   0.189 -0.7861 -0.2105  1.1670
  347SOL     OW 1039   1.955   2.842   2.071  0.5302 -0.7167  0.0128
  347SOL    HW1 1040   1.918   2.926   2.114 -0.5741 -2.6437 -0.2706
  347SOL    HW2 1041   1.914   2.839   1.977 -1.1976 -0.2362 -0.6802
  348SOL     OW 1042   0.792   1.144   1.277  0.8645 -0.2009  0.1368
  348SOL    HW1 1043   0.889   1.162   1.300 -0.3122  1.0991 -3.9939
  348SOL    HW2 1044   0.740   1.092   1.350  0.1708 -0.9845 -3.1204
  349SOL     OW 1045   2.441   1.024   1.774  0.1553 -0.2833  0.1995
  349SOL    HW1 1046   2.509   0.970   1.716 -0.3518  0.2143 -1.9982
  349SOL    HW2 1047   2.394   1.097   1.715 -2.3033  1.2601 -0.8651
  350SOL     OW 1048   2.444   2.208   0.325  0.6364 -0.1617 -0.5492
  350SOL    HW1 1049   2.404   2.169   0.238 -0.0842 -0.3053  0.1969
  350SOL    HW2 1050   2.375   2.279   0.362 -0.4177 -2.1836 -0.9865
  351SOL     OW 1051   0.470   0.211   1.542  0.0220 -0.0210 -0.4188
  351SOL    HW1 1052   0.512   0.121   1.575  0.1951 -2.9558 -0.1864
  351SOL    HW2 1053   0.379   0.211   1.582 -0.6950 -0.3912  0.8780
  352SOL     OW 1054   1.866   2.433   2.023 -0.0685  0.6135 -0.2089
  352SOL    HW1 1055   1.912   2.388   2.106  0.2514 -0.8412  2.1365
  352SOL    HW2 1056   1.857   2.364   1.948 -0.2104 -0.1456  1.0763
  353SOL     OW 1057   0.859   1.435   2.244 -0.9009  0.5176 -0.3844
  353SOL    HW1 1058   0.762   1.457   2.268 -0.5956  0.1362  0.8217
  353SOL    HW2 1059   0.873   1.391   2.151 -0.4644  0.7262  1.1537
  354SOL     OW 1060   1.374   1.999   0.286 -0.9889  0.3910 -0.3308
  354SOL    HW1 1061   1.461   1.946   0.258  1.6393 -0.3191  1.9417
  354SOL    HW2 1062   1.290   1.946   0.274  0.6650  2.5546 -2.4523
  355SOL     OW 1063   1.788   0.145   0.902 -0.1455 -0.1142  0.4675
  355SOL    HW1 1064   1.749   0.146   0.807 -3.5624  1.2663 -2.6268
  355SOL    HW2 1065   1.884   0.173   0.905  0.3889  2.1948 -0.3844
  356SOL     OW 1066   2.789   1.353   2.884  0.1061 -0.3189 -0.2530
  356SOL    HW1 1067   2.849   1.269   2.876 -0.0869 -0.9622 -0.4213
  356SOL    HW2 1068   2.805   1.403   2.971  1.6592 -0.5423  1.1074
  357SOL     OW 1069   3.045   3.062   2.194  0.1759  0.0283  0.4159
  357SOL    HW1 1070   0.038   3.072   2.219 -0.1267 -1.5122 -1.5285
  357SOL    HW2 1071   3.035   3.090   2.097  1.0760 -0.2209 -1.9536
  358SOL     OW 1072   0.133   1.184   0.442  0.2612  0.0992  0.4404
  358SOL    HW1 1073   0.169   1.087   0.433 -0.4915 -2.5358 -2.6897
  358SOL    HW2 1074   0.059   1.182   0.514  0.5185  0.2273  1.9018
  359SOL     OW 1075   2.592   3.101   2.657 -0.2576  0.3955 -0.6452
  359SOL    HW1 1076   2.548   3.040   2.583 -1.0533 -2.2426  1.0883
  359SOL    HW2 1077   2.551   3.082   2.748  0.6527 -0.2508  0.8710
  360SOL     OW 1078   1.271   1.048   1.140 -0.6042  0.1520 -0.0045
  360SOL    HW1 1079   1.368   1.082   1.134 -1.3489 -1.6910  0.0653
  360SOL    HW2 1080   1.221   1.064   1.054 -0.5502 -2.5279  1.4461
  361SOL     OW 1081   2.335   2.407   1.132  0.1527 -0.3358  0.2618
  361SOL    HW1 1082   2.426   2.416   1.186  1.7398 -0.1988  1.2006
  361SOL    HW2 1083   2.274   2.350   1.190 -0.0445  0.5119 -2.4302
  362SOL     OW 1084   1.410   0.437   1.252 -0.0663 -0.1565  0.0134
  362SOL    HW1 1085   1.448   0.441   1.346  0.1855  2.3999 -1.8259
  362SOL    HW2 1086   1.429   0.347   1.214  2.9981  1.0002  0.5632
  363SOL     OW 1087   2.031   2.296   0.426 -0.3177  0.1242  0.3152
  363SOL    HW1 1088   2.042   2.247   0.517  1.5582  1.4100  1.1549
  363SOL    HW2 1089   1.993   2.387   0.443 -1.7375 -1.5878  0.7787
  364SOL     OW 1090   0.138   0.451   0.925  0.6887 -0.3940 -0.0843
  364SOL    HW1 1091   0.146   0.352   0.941 -0.9548  1.3694  0.0076
  364SOL    HW2 1092   0.185   0.505   0.997 -0.8562 -1.0914  3.0697
  365SOL     OW 1093   0.486   2.936   0.703  0.2801 -0.2916  0.0559
  365SOL    HW1 1094   0.393   2.913   0.739  0.3498  1.2589  0.1281
  365SOL    HW2 1095   0.510   3.030   0.732 -1.2293  0.6045  1.9323
  366SOL     OW 1096   3.059   1.449   0.273  0.2555 -0.3860 -0.3385
  366SOL    HW1 1097   3.091   1.377   0.208  0.2776 -0.6100 -2.6084
  366SOL    HW2 1098   3.072   1.544   0.238 -1.1041 -2.3062 -1.2815
  367SOL     OW 1099   2.501   2.490   2.493 -0.4532  0.1265  0.1140
  367SOL    HW1 1100   2.433   2.567   2.496  2.5901 -1.7910  1.4697
  367SOL    HW2 1101   2.575   2.497   2.422  1.2427  0.8556 -0.5407
  368SOL     OW 1102   2.215   1.713   0.708 -0.2186 -0.6465  0.2513
  368SOL    HW1 1103   2.182   1.662   0.622  0.1837 -0.9232 -3.1734
  368SOL    HW2 1104   2.317   1.710   0.720  0.1913 -2.2751  0.6468
  369SOL     OW 1105   1.307   0.692   0.003  0.2420 -0.1771 -0.0634
  369SOL    HW1 1106   1.203   0.705   0.007 -2.7316 -0.7626  1.6634
  369SOL    HW2 1107   1.331   0.622   0.074  1.0065  1.0293  4.3222
  370SOL     OW 1108   0.564   3.078   1.087  0.0689 -0.1893  0.0173
  370SOL    HW1 1109   0.541   0.055   1.149 -1.9355  0.1331  2.3893
  370SOL    HW2 1110   0.484   3.013   1.077 -0.0075  0.8592 -1.9103
  371SOL     OW 1111   2.761   1.549   2.697 -0.1899 -0.0463  0.0602
  371SOL    HW1 1112   2.827   1.623   2.696 -0.3551 -0.5981  3.3222
  371SOL    HW2 1113   2.776   1.484   2.775 -1.7788 -1.2310  1.9890
  372SOL     OW 1114   0.510   0.516   2.570 -0.1705  0.5525 -0.5050
  372SOL    HW1 1115   0.575   0.472   2.630  0.7475  0.8687 -2.2870
  372SOL    HW2 1116   0.439   0.443   2.536 -1.6478 -0.3285 -2.1730
  373SOL     OW 1117   0.340   0.282   3.075 -0.0905 -0.1854 -0.5549
  373SOL    HW1 1118   0.406   0.316   3.006 -1.1195  0.1526 -0.6963
  373SOL    HW2 1119   0.379   0.203   0.026  4.3907 -1.6593  0.0002
  374SOL     OW 1120   1.396   1.974   3.037  0.7502  0.5166  0.1323
  374SOL    HW1 1121   1.333   1.993   2.958 -0.5525  0.6307  1.3829
  374SOL    HW2 1122   1.399   2.046   0.005 -0.2302 -2.2058  0.2749
  375SOL     OW 1123   0.850   0.000   1.623 -0.6052  0.1727  0.2877
  375SOL    HW1 1124   0.842   3.065   1.532 -0.4416  1.6014  0.7901
  375SOL    HW2 1125   0.946   0.029   1.644 -1.3314  0.2377  0.5273
  376SOL     OW 1126   0.100   2.679   1.989 -0.3404 -0.2747  0.3183
  376SOL    HW1 1127   0.153   2.591   1.986 -0.5972 -0.1929 -0.5539
  376SOL    HW2 1128   0.166   2.760   1.977  3.7500  1.0066 -1.3135
  377SOL     OW 1129   2.844   2.381   2.846  0.2302 -0.4906 -0.1982
  377SOL    HW1 1130   2.878   2.464   2.894  2.5788  1.2860 -2.0379
  377SOL    HW2 1131   2.800   2.312   2.903  1.0257 -0.6420 -1.3304
  378SOL     OW 1132   2.365   0.365   0.521  0.1600 -0.0921 -0.1279
  378SOL    HW1 1133   2.427   0.369   0.603 -0.5750  1.0899  1.4466
  378SOL    HW2 1134   2.358   0.273   0.480 -1.2876 -0.0170 -0.9402
  379SOL     OW 1135   1.326   0.774   0.558  0.1825 -0.4052 -0.1335
  379SOL    HW1 1136   1.394   0.785   0.477  0.9555  0.4397 -2.4162
  379SOL    HW2 1137   1.235   0.816   0.535  1.9714 -0.8553 -2.8186
  380SOL     OW 1138   2.638   2.210   1.792  0.6441 -0.2122  0.0778
  380SOL    HW1 1139   2.723   2.235   1.740  2.9224  0.2202  1.1868
  380SOL    HW2 1140   2.593   2.135   1.738  0.0857 -2.0980  3.3720
  381SOL     OW 1141   2.780   1.321   1.845  0.4980  0.3995  0.3642
  381SOL    HW1 1142   2.808   1.416   1.819  2.7974 -0.5587  2.5091
  381SOL    HW2 1143   2.798   1.303   1.940 -2.4071  0.4617 -3.4273
  382SOL     OW 1144   2.973   2.405   2.607 -0.4181 -0.7096 -0.2230
  382SOL    HW1 1145   2.911   2.413   2.684  1.2722 -1.2911  0.5086
  382SOL    HW2 1146   2.929   2.360   2.530 -0.5892  1.7380  2.3662
  383SOL     OW 1147   1.325   0.826   2.520 -0.1072  0.2992  0.8604
  383SOL    HW1 1148   1.307   0.796   2.423 -0.1080  0.1721  0.4195
  383SOL    HW2 1149   1.415   0.871   2.523 -0.6818 -0.2678 -0.6197
  384SOL     OW 1150   1.658   1.912   2.430 -0.1236 -0.1055 -0.1054
  384SOL    HW1 1151   1.732   1.854   2.470 -0.9251  2.0033  3.0484
  384SOL    HW2 1152   1.676   2.011   2.428 -0.8988  2.5889 -1.9338
  385SOL     OW 1153   2.578   2.720   0.337 -0.1789  0.2357 -0.3183
  385SOL    HW1 1154   2.534   2.664   0.412 -1.5811  0.9522  0.9027
  385SOL    HW2 1155   2.656   2.765   0.381 -3.8453 -2.6598 -0.2519
  386SOL     OW 1156   1.801   1.196   0.516  0.4383 -0.0504 -1.0045
  386SOL    HW1 1157   1.854   1.130   0.576  3.8663 -1.1301 -0.0061
  386SOL    HW2 1158   1.830   1.293   0.551 -0.3812  2.2335  0.9483
  387SOL     OW 1159   2.672   1.757   1.198 -0.6921 -0.3477 -0.1983
  387SOL    HW1 1160   2.734   1.832   1.226 -0.1767  0.0551  1.4682
  387SOL    HW2 1161   2.724   1.675   1.169  1.6699  0.2544 -2.4687
  388SOL     OW 1162   0.466   1.154   1.491 -0.0171 -0.0256  0.0125
  388SOL    HW1 1163   0.441   1.175   1.589  1.9140 -1.1768 -0.3087
  388SOL    HW2 1164   0.537   1.082   1.485  1.5010  0.5849  0.1515
  389SOL     OW 1165   2.318   0.865   2.534  0.2684  0.3527 -0.0205
  389SOL    HW1 1166   2.346   0.892   2.630 -1.4783 -1.3013  2.7696
  389SOL    HW2 1167   2.278   0.944   2.486 -1.3287 -2.4500 -0.1420
  390SOL     OW 1168   0.986   1.571   3.053 -0.5705 -0.5679 -0.5166
  390SOL    HW1 1169   1.088   1.587   3.030  3.3584 -0.2625 -0.7610
  390SOL    HW2 1170   0.954   1.480   3.023 -0.3628  1.6983  0.1398
  391SOL     OW 1171   1.110   1.917   0.228 -0.0061 -1.2097  0.1918
  391SOL    HW1 1172   1.081   1.824   0.261 -1.5079  0.3517 -0.1134
  391SOL    HW2 1173   1.035   1.951   0.165 -1.2785 -0.0146  1.4161
  392SOL     OW 1174   2.696   2.775   2.106 -0.0030  0.6910  0.2534
  392SOL    HW1 1175   2.767   2.721   2.057 -0.1739 -0.6199 -2.9753
  392SOL    HW2 1176   2.631   2.721   2.164 -0.6281  0.9296 -0.0085
  393SOL     OW 1177   1.661   2.273   0.209  0.1036 -0.1687 -0.2558
  393SOL    HW1 1178   1.666   2.375   0.204  1.0727  1.1033 -0.0827
  393SOL    HW2 1179   1.561   2.245   0.201  2.0458  0.6085 -0.7554
  394SOL     OW 1180   0.812   0.175   2.252  0.1304 -0.3635  0.7185
  394SOL    HW1 1181   0.909   0.192   2.289  2.0078 -1.0720 -0.9812
  394SOL    HW2 1182   0.785   0.252   2.186  2.2421  0.8108 -0.9222
  395SOL     OW 1183   0.258   1.911   1.478 -0.6117 -0.6050  0.1519
  395SOL    HW1 1184   0.210   1.911   1.566 -0.3359  0.1320 -1.6519
  395SOL    HW2 1185   0.295   2.000   1.450  1.2541  1.0490  1.6186
  396SOL     OW 1186   2.179   1.361   2.921 -0.1259  0.8452  0.0795
  396SOL    HW1 1187   2.116   1.303   2.867 -1.5151 -0.4546  1.0449
  396SOL    HW2 1188   2.141   1.452   2.930  2.1597 -3.8207 -0.3660
  397SOL     OW 1189   0.094   0.380   0.157  0.2659 -0.2413 -0.2549
  397SOL    HW1 1190   0.160   0.455   0.184 -1.4966 -1.3244 -1.4711
  397SOL    HW2 1191   0.077   0.309   0.231 -0.3694 -3.1275  3.0674
  398SOL     OW 1192   0.926   2.528   0.486 -0.1320 -0.4620  0.3099
  398SOL    HW1 1193   0.977   2.492   0.404 -0.5974 -0.7690  1.8451
  398SOL    HW2 1194   0.863   2.597   0.447  0.9404 -1.6159  0.4545
  399SOL     OW 1195   1.878   2.423   2.750  0.2800 -0.0816  0.1460
  399SOL    HW1 1196   1.874   2.477   2.834 -1.3741 -0.0851 -4.3420
  399SOL    HW2 1197   1.970   2.414   2.711 -0.1089  0.4686  2.7538
  400SOL     OW 1198   0.025   1.629   1.548  0.1209 -0.1419 -0.2278
  400SOL    HW1 1199   3.030   1.645   1.569 -1.3001 -1.0400  0.6219
  400SOL    HW2 1200   0.049   1.662   1.455 -0.4444  0.8810  1.0794
  401SOL     OW 1201   1.039   0.658   0.797  0.7543 -0.0534 -0.5907
  401SOL    HW1 1202   1.045   0.577   0.733 -0.4049  1.9690 -0.0125
  401SOL    HW2 1203   0.974   0.730   0.766  0.9525  0.8253  1.0474
  402SOL     OW 1204   0.744   0.012   2.639 -0.2519  0.1352 -0.5844
  402SOL    HW1 1205   0.801   3.057   2.704  0.4082  0.3948 -3.0280
  402SOL    HW2 1206   0.693   0.089   2.682 -0.3285 -3.9473 -0.6710
  403SOL     OW 1207   2.897   1.578   1.825  0.1352  0.9478 -0.8393
  403SOL    HW1 1208   2.893   1.608   1.729 -0.5849 -1.0663  1.1304
  403SOL    HW2 1209   2.947   1.648   1.883  0.4462  1.6603  0.0777
  404SOL     OW 1210   2.570   2.119   1.450  0.0409 -0.4270 -0.1170
  404SOL    HW1 1211   2.621   2.207   1.461  0.8838  1.5341  2.1364
  404SOL    HW2 1212   2.556   2.078   1.358 -1.4713  1.0936  1.7553
  405SOL     OW 1213   2.214   0.169   2.669  0.0535  0.0920 -0.1739
  405SOL    HW1 1214   2.113   0.174   2.689 -0.6126  1.5585  1.2522
  405SOL    HW2 1215   2.274   0.231   2.724 -4.6786 -0.6068  1.1073
  406SOL     OW 1216   1.244   1.642   2.989 -0.1795  0.0038  0.0386
  406SOL    HW1 1217   1.332   1.670   3.032 -0.2361 -2.9535 -0.0221
  406SOL    HW2 1218   1.258   1.591   2.904 -1.3008 -0.1838  0.7355
  407SOL     OW 1219   1.834   1.817   0.826  0.0909 -0.5097  0.3012
  407SOL    HW1 1220   1.747   1.771   0.807  1.0728 -0.6598  2.0949
  407SOL    HW2 1221   1.846   1.904   0.771  1.2263  3.6684  2.2603
  408SOL     OW 1222   3.093   0.404   1.232  0.0650  0.5768 -0.1717
  408SOL    HW1 1223   3.034   0.456   1.167  0.3604 -0.0694 -1.7382
  408SOL    HW2 1224   0.086   0.425   1.214 -1.7668 -0.8478 -3.1763
  409SOL     OW 1225   1.878   1.424   0.611 -0.3507  0.5113  0.2620
  409SOL    HW1 1226   1.875   1.446   0.708  0.6915  1.6098 -1.9501
  409SOL    HW2 1227   1.964   1.457   0.562  2.2209  1.5992 -0.0145
  410SOL     OW 1228   2.264   2.397   0.366  0.0268  0.7006 -0.5457
  410SOL    HW1 1229   2.167   2.359   0.391 -1.5338 -2.1454  0.5557
  410SOL    HW2 1230   2.299   2.475   0.427 -0.9323  0.5262 -0.4420
  411SOL     OW 1231   0.397   3.062   0.294 -0.4386  0.0648 -0.0576
  411SOL    HW1 1232   0.410   3.067   0.194 -2.2948 -0.3843 -0.6839
  411SOL    HW2 1233   0.306   3.041   0.324  4.2256 -0.7331 -1.4265
  412SOL     OW 1234   1.474   2.979   0.693 -0.3200  0.1209 -0.3385
  412SOL    HW1 1235   1.474   3.066   0.744  0.6644  4.7042  0.3264
  412SOL    HW2 1236   1.565   2.974   0.647  0.1510  1.3519 -1.4974
  413SOL     OW 1237   1.737   0.061   2.537  0.3986 -0.5199  0.3916
  413SOL    HW1 1238   1.661   0.092   2.479  4.7622  0.3111  0.2929
  413SOL    HW2 1239   1.775   3.075   2.514 -0.4333  0.2254 -2.9843
  414SOL     OW 1240   3.039   0.709   0.584  0.1287 -0.0304 -0.0298
  414SOL    HW1 1241   2.996   0.709   0.491 -0.3885  0.9344 -1.1141
  414SOL    HW2 1242   0.037   0.729   0.576  2.5149 -3.6610  0.7685
  415SOL     OW 1243   0.007   1.392   1.275  0.1211  0.0845  0.3087
  415SOL    HW1 1244   0.013   1.320   1.205  1.0168  1.6238  1.3785
  415SOL    HW2 1245   0.100   1.408   1.315 -0.7217  0.9271  2.5684
  416SOL     OW 1246   0.222   0.937   2.978 -0.2488  0.4749 -0.3125
  416SOL    HW1 1247   0.243   0.856   3.038  0.5128  1.2742  0.2501
  416SOL    HW2 1248   0.185   0.905   2.892 -0.4059  0.6082 -0.2266
  417SOL     OW 1249   2.494   0.416   0.752 -0.1734  0.7138  0.4205
  417SOL    HW1 1250   2.567   0.488   0.735 -1.0871  2.1069  0.7761
  417SOL    HW2 1251   2.422   0.449   0.811  0.7359  0.4654 -1.9973
  418SOL     OW 1252   0.388   0.264   2.512  0.1405 -0.2400 -0.7344
  418SOL    HW1 1253   0.397   0.188   2.580 -0.9866  0.5818 -2.0552
  418SOL    HW2 1254   0.437   0.234   2.430 -2.8249 -1.4164  2.7557
  419SOL     OW 1255   0.300   1.086   0.740  0.0369  0.0337 -0.1800
  419SOL    HW1 1256   0.249   1.122   0.662  0.1024 -0.5778  1.2156
  419SOL    HW2 1257   0.261   1.007   0.791  1.4435  1.0115 -2.2791
  420SOL     OW 1258   2.474   1.601   1.322  0.1313  0.3445  0.9213
  420SOL    HW1 1259   2.463   1.625   1.421  1.3200  1.7726 -1.5325
  420SOL    HW2 1260   2.558   1.646   1.284 -0.2177  2.3191 -0.6630
  421SOL     OW 1261   1.152   1.880   2.901  0.9359  0.0012  0.6360
  421SOL    HW1 1262   1.143   1.878   2.797  0.8014 -0.5235 -2.4513
  421SOL    HW2 1263   1.192   1.792   2.932  3.1331 -2.2010  0.0908
  422SOL     OW 1264   2.485   0.636   2.815  0.0743  0.2274  0.1321
  422SOL    HW1 1265   2.497   0.724   2.766 -0.3299 -0.8381 -1.8257
  422SOL    HW2 1266   2.439   0.565   2.753  0.0236 -4.4643 -2.3288
  423SOL     OW 1267   1.761   1.469   0.171  0.2052  0.1641  0.6992
  423SOL    HW1 1268   1.808   1.382   0.197  2.4921  2.0080  0.3685
  423SOL    HW2 1269   1.738   1.523   0.258  2.1905 -0.4871  1.0064
  424SOL     OW 1270   0.815   0.887   2.040 -0.5892 -0.1248 -0.2366
  424SOL    HW1 1271   0.717   0.874   2.053 -0.3358  0.3122  0.5420
  424SOL    HW2 1272   0.859   0.928   2.125 -1.1475 -1.9695  0.7049
  425SOL     OW 1273   2.942   2.648   2.063 -0.5800  0.4927  0.3251
  425SOL    HW1 1274   3.023   2.677   2.016 -1.5134  0.0867 -1.7702
  425SOL    HW2 1275   2.950   2.678   2.159  1.9407  1.3545 -1.2246
  426SOL     OW 1276   1.998   2.615   0.405 -0.3063  0.3089  0.3883
  426SOL    HW1 1277   2.083   2.670   0.418 -0.2478  0.6401  1.4032
  426SOL    HW2 1278   1.916   2.674   0.437 -3.1364  4.7575  2.2007
  427SOL     OW 1279   0.673   0.572   0.022  0.2983 -0.7248 -0.0913
  427SOL    HW1 1280   0.677   0.518   0.107  2.5500 -1.4441  0.0960
  427SOL    HW2 1281   0.655   0.670   0.040 -3.1857  1.4356 -2.7821
  428SOL     OW 1282   2.537   1.318   2.742 -0.1500  0.2213  0.1909
  428SOL    HW1 1283   2.627   1.339   2.792  0.1273  0.8093 -1.1425
  428SOL    HW2 1284   2.469   1.393   2.735  0.5840  0.7062 -2.8102
  429SOL     OW 1285   2.532   0.355   0.215  0.2980 -0.0976 -0.0817
  429SOL    HW1 1286   2.477   0.440   0.204 -1.8961  2.4033  0.6160
  429SOL    HW2 1287   2.619   0.361   0.166 -2.4657 -0.4803 -0.4295
  430SOL     OW 1288   1.320   2.456   2.263  0.0841  0.1567 -0.6346
  430SOL    HW1 1289   1.235   2.401   2.268 -1.8213  1.7580 -0.8000
  430SOL    HW2 1290   1.335   2.483   2.167  0.1288  0.7696  0.7361
  431SOL     OW 1291   2.915   1.852   1.330 -0.2269  0.7867 -0.5995
  431SOL    HW1 1292   2.901   1.842   1.429 -0.2260 -0.7278 -0.3487
  431SOL    HW2 1293   3.002   1.805   1.297 -0.9296  0.7034 -0.2687
  432SOL     OW 1294   2.250   2.627   2.022  0.1246 -0.7137 -0.4540
  432SOL    HW1 1295   2.268   2.706   2.085  1.4407  0.0118  2.3418
  432SOL    HW2 1296   2.176   2.646   1.952 -1.5065 -2.3046 -1.6131
  433SOL     OW 1297   1.404   2.214   0.140  0.0591  0.0608 -0.4888
  433SOL    HW1 1298   1.383   2.127   0.191  1.7679 -0.4802 -1.7781
  433SOL    HW2 1299   1.316   2.266   0.128 -1.9898 -2.1008 -2.4774
  434SOL     OW 1300   0.213   2.060   2.715 -0.0363 -0.2290 -0.2463
  434SOL    HW1 1301   0.214   1.959   2.739  1.6666 -0.4547 -2.1689
  434SOL    HW2 1302   0.121   2.105   2.740 -1.4921 -0.4962  2.6025
  435SOL     OW 1303   3.094   1.224   0.672  0.2026  0.2175  0.2055
  435SOL    HW1 1304   3.084   1.304   0.729  1.1351  0.5228 -2.1978
  435SOL    HW2 1305   3.027   1.148   0.702  1.1860 -3.7217 -0.5163
  436SOL     OW 1306   0.710   2.745   1.704  0.2174 -0.6866  0.3192
  436SOL    HW1 1307   0.680   2.750   1.606  0.1841 -2.4562 -2.9275
  436SOL    HW2 1308   0.737   2.840   1.741  2.5767  0.9087  2.2264
  437SOL     OW 1309   0.917   2.918   0.811  0.1812 -0.5672  0.1999
  437SOL    HW1 1310   0.875   2.962   0.894  0.5585 -1.4915 -0.1460
  437SOL    HW2 1311   1.004   2.962   0.784  0.4243 -0.1701 -0.3327
  438SOL     OW 1312   0.125   2.153   0.707 -0.1651  0.4601  0.5435
  438SOL    HW1 1313   0.116   2.054   0.692  1.0262  1.6876  0.6322
  438SOL    HW2 1314   0.149   2.173   0.803  0.6949  0.5071  1.7869
  439SOL     OW 1315   0.854   2.420   2.041  0.1848 -0.2293 -0.2093
  439SOL    HW1 1316   0.894   2.459   1.956 -1.3775  0.3089  1.5188
  439SOL    HW2 1317   0.920   2.393   2.106  0.0030  1.4011 -1.5867
  440SOL     OW 1318   2.216   2.912   2.111 -0.1251 -0.4628 -0.5450
  440SOL    HW1 1319   2.249   2.957   2.026  2.4288  1.9848 -2.7295
  440SOL    HW2 1320   2.123   2.872   2.091  2.5358  1.2494  1.5059
  441SOL     OW 1321   0.015   0.750   1.520  0.1028  0.2300 -0.2846
  441SOL    HW1 1322   0.002   0.784   1.614  0.7476  1.1359 -2.3705
  441SOL    HW2 1323   0.111   0.733   1.506 -3.5255  1.0555 -1.1744
  442SOL     OW 1324   1.828   2.353   0.645 -0.4978 -0.1821  0.1304
  442SOL    HW1 1325   1.737   2.395   0.624 -1.7690 -0.3299 -0.9300
  442SOL    HW2 1326   1.863   2.390   0.733 -0.1397  1.0120 -0.0455
  443SOL     OW 1327   2.957   0.635   2.467 -0.2957 -0.0749 -0.0408
  443SOL    HW1 1328   3.046   0.630   2.518 -1.4714  2.3480  1.1811
  443SOL    HW2 1329   2.877   0.627   2.531 -2.5887 -4.2812  0.8082
  444SOL     OW 1330   1.634   1.050   2.094 -0.1476 -0.0488  0.1016
  444SOL    HW1 1331   1.544   1.025   2.046 -3.5317 -2.1445  1.0824
  444SOL    HW2 1332   1.654   1.147   2.077  0.7074 -1.0160  0.9542
  445SOL     OW 1333   3.005   2.530   1.367 -0.0065 -0.5058 -0.7055
  445SOL    HW1 1334   3.051   2.498   1.449 -2.4811 -2.2091 -2.9447
  445SOL    HW2 1335   2.997   2.634   1.365  0.9344  0.2908 -0.8061
  446SOL     OW 1336   2.862   1.523   1.138  0.4089  0.1932  0.2571
  446SOL    HW1 1337   2.878   1.492   1.237 -3.1700 -3.0626  1.6645
  446SOL    HW2 1338   2.952   1.511   1.086 -1.0308 -1.3524  0.1637
  447SOL     OW 1339   0.534   1.114   0.594 -0.4189 -0.2798  0.1853
  447SOL    HW1 1340   0.458   1.112   0.657  3.6819  0.5686 -1.3920
  447SOL    HW2 1341   0.512   1.068   0.509  1.9980 -3.1497 -0.7139
  448SOL     OW 1342   1.420   1.600   1.834  0.0041  0.2962 -0.1191
  448SOL    HW1 1343   1.360   1.647   1.904 -0.9408 -0.7148  0.2463
  448SOL    HW2 1344   1.447   1.513   1.876 -0.9545  1.9369  0.6788
  449SOL     OW 1345   1.341   1.692   0.348  0.1676  0.0261  0.4585
  449SOL    HW1 1346   1.427   1.735   0.309  1.5923 -1.0031 -1.1639
  449SOL    HW2 1347   1.307   1.613   0.291  2.2946 -1.9812  2.0894
  450SOL     OW 1348   2.783   2.897   1.776 -0.1375 -0.0064 -0.3630
  450SOL    HW1 1349   2.766   2.810   1.818 -1.5940  0.1110 -0.9877
  450SOL    HW2 1350   2.855   2.893   1.704 -1.9907 -0.3444 -1.2029
  451SOL     OW 1351   2.287   0.501   2.694  0.0652 -0.2405  0.1141
  451SOL    HW1 1352   2.239   0.508   2.609  1.1653 -1.1216  2.8031
  451SOL    HW2 1353   2.219   0.492   2.772 -0.1502  0.2475  2.6809
  452SOL     OW 1354   1.909   0.390   0.813 -0.2458  0.2147 -0.1685
  452SOL    HW1 1355   1.816   0.418   0.782  1.3040  2.8187 -1.3432
  452SOL    HW2 1356   1.936   0.437   0.901  1.9221  0.2653 -1.8610
  453SOL     OW 1357   1.800   0.734   1.681 -0.3870  0.5681  0.5103
  453SOL    HW1 1358   1.829   0.768   1.772 -2.1728  0.6794 -0.3539
  453SOL    HW2 1359   1.868   0.673   1.637  1.6294 -0.9764  1.2757
  454SOL     OW 1360   2.920   1.510   0.506  0.4706 -0.0334  0.4222
  454SOL    HW1 1361   2.980   1.489   0.424 -0.3128  1.6822 -0.3518
  454SOL    HW2 1362   2.873   1.601   0.506 -0.6384  2.1857  0.3426
  455SOL     OW 1363   2.882   0.078   0.745  0.2316 -0.3389  0.6584
  455SOL    HW1 1364   2.947   0.160   0.751  1.9088  2.6704  0.2927
  455SOL    HW2 1365   2.782   0.107   0.737  1.3498 -1.3708 -0.6430
  456SOL     OW 1366   0.325   3.008   1.295  0.2799 -0.1559  0.3946
  456SOL    HW1 1367   0.340   2.952   1.210  1.3802 -2.8476 -1.1295
  456SOL    HW2 1368   0.377   2.972   1.374 -0.5461  1.2412 -1.1185
  457SOL     OW 1369   1.302   0.172   0.443  0.2363 -0.3410 -0.6347
  457SOL    HW1 1370   1.218   0.112   0.447 -2.4387  0.0694 -0.9084
  457SOL    HW2 1371   1.376   0.150   0.373 -0.5302  0.8878 -2.0411
  458SOL     OW 1372   2.305   2.927   0.868 -0.1594  0.6035 -0.1470
  458SOL    HW1 1373   2.260   2.932   0.961  0.4215 -2.2980  1.1195
  458SOL    HW2 1374   2.400   2.971   0.870  0.6257  2.3589 -0.7757
  459SOL     OW 1375   2.132   0.543   2.904  0.1290 -0.6128 -0.0809
  459SOL    HW1 1376   2.069   0.520   2.981 -1.9841  1.3683 -2.1797
  459SOL    HW2 1377   2.176   0.634   2.926 -1.3040  0.5915  0.3318
  460SOL     OW 1378   2.479   2.887   3.049 -0.2304 -0.2389 -0.6791
  460SOL    HW1 1379   2.427   2.951   2.992 -2.0006 -1.9588 -0.2877
  460SOL    HW2 1380   2.490   2.803   2.996 -0.1680 -0.2684  0.8754
  461SOL     OW 1381   0.837   1.812   0.363 -0.1054  0.0968  0.6909
  461SOL    HW1 1382   0.905   1.740   0.398  0.4973 -1.1955  3.7732
  461SOL    HW2 1383   0.745   1.792   0.404  2.6890  2.1402  0.2995
  462SOL     OW 1384   2.132   2.211   0.690  0.2257 -0.0815 -0.0488
  462SOL    HW1 1385   2.141   2.171   0.785 -0.4798 -0.5855  0.2779
  462SOL    HW2 1386   2.179   2.303   0.689  2.2167  0.2299 -0.0647
  463SOL     OW 1387   2.353   1.079   0.633  0.4260 -0.4682 -0.0193
  463SOL    HW1 1388   2.335   1.078   0.736  0.2531  0.9718  2.3024
  463SOL    HW2 1389   2.433   1.021   0.611 -0.0466  3.5431 -1.5337
  464SOL     OW 1390   0.538   0.186   1.279 -0.3808  0.0210 -0.1346
  464SOL    HW1 1391   0.512   0.200   1.377  0.1376  1.8779 -1.5659
  464SOL    HW2 1392   0.619   0.244   1.252  1.9845 -0.6204 -0.6463
  465SOL     OW 1393   2.428   1.585   3.065  0.2929 -0.4498 -0.5574
  465SOL    HW1 1394   2.342   1.543   3.100  0.4129  0.0121  2.8430
  465SOL    HW2 1395   2.504   1.528   0.000  1.0877 -0.4751  1.2795
  466SOL     OW 1396   1.924   0.246   2.908  0.8105 -0.4349 -0.2547
  466SOL    HW1 1397   2.008   0.215   2.965 -0.1704 -0.0732 -0.5079
  466SOL    HW2 1398   1.875   0.325   2.950 -0.3471 -0.8333  1.5687
  467SOL     OW 1399   1.106   0.487   1.521  0.4815  0.5772  0.1429
  467SOL    HW1 1400   1.081   0.390   1.518  0.1160  0.6006 -3.1657
  467SOL    HW2 1401   1.125   0.513   1.423 -0.4057 -0.8895 -0.7295
  468SOL     OW 1402   0.583   1.164   2.919  0.4713 -0.0436 -0.2476
  468SOL    HW1 1403   0.520   1.180   2.997 -0.6743  2.4119  1.9567
  468SOL    HW2 1404   0.575   1.238   2.848 -1.5354 -1.4269 -1.2063
  469SOL     OW 1405   0.376   2.074   0.291 -0.1248  0.5530  0.4558
  469SOL    HW1 1406   0.287   2.102   0.254 -2.9404 -0.6188 -0.4237
  469SOL    HW2 1407   0.449   2.147   0.284  3.6448 -0.6700 -0.1733
  470SOL     OW 1408   2.425   1.637   2.435 -0.0325  0.6095 -0.4279
  470SOL    HW1 1409   2.483   1.677   2.509 -1.6060 -0.5042  2.9353
  470SOL    HW2 1410   2.449   1.542   2.411 -1.8486  1.3782  0.9390
  471SOL     OW 1411   2.759   1.218   2.118 -0.1124 -0.1309  0.0822
  471SOL    HW1 1412   2.679   1.170   2.085  1.9114 -0.0797 -1.1245
  471SOL    HW2 1413   2.750   1.259   2.212 -1.5522  1.1700  1.0499
  472SOL     OW 1414   0.443   2.682   0.531 -0.3085  0.1349  0.5081
  472SOL    HW1 1415   0.378   2.714   0.460  1.0905  1.8753 -1.2130
  472SOL    HW2 1416   0.480   2.763   0.582  0.0092 -0.6771 -0.3654
  473SOL     OW 1417   0.532   0.126   0.076  0.2977  0.4792  0.2687
  473SOL    HW1 1418   0.594   0.177   0.133 -0.8346 -1.7167  0.1532
  473SOL    HW2 1419   0.593   0.095   3.099  2.5082 -1.4578 -0.5715
  474SOL     OW 1420   1.828   2.947   2.415 -0.0896 -0.0976  0.7724
  474SOL    HW1 1421   1.745   2.896   2.387  2.4708  2.6795  1.1800
  474SOL    HW2 1422   1.854   3.008   2.340 -1.2045 -2.4213  3.8822
  475SOL     OW 1423   1.612   2.523   0.463  0.5516  0.8319  0.1699
  475SOL    HW1 1424   1.516   2.488   0.472 -1.4593 -0.6368  1.8541
  475SOL    HW2 1425   1.636   2.528   0.362 -1.9766  0.6193  0.1113
  476SOL     OW 1426   0.163   0.905   0.857  0.0234 -0.3556  0.4940
  476SOL    HW1 1427   0.067   0.934   0.880  0.8959 -1.2004  1.1903
  476SOL    HW2 1428   0.202   0.866   0.942 -2.2168 -0.7641  0.9245
  477SOL     OW 1429   1.487   2.278   1.132  0.1639 -0.4660  0.4402
  477SOL    HW1 1430   1.474   2.186   1.174 -1.9444 -3.0685  0.0366
  477SOL    HW2 1431   1.552   2.270   1.057 -1.7453 -0.8207  0.3046
  478SOL     OW 1432   0.472   1.900   2.400  0.2348 -0.4798 -0.2811
  478SOL    HW1 1433   0.572   1.891   2.405 -1.7237 -0.5129 -0.3641
  478SOL    HW2 1434   0.444   1.994   2.397  0.0465 -0.8584 -0.8025
  479SOL     OW 1435   2.364   0.394   1.072 -0.2744  0.1469 -0.4054
  479SOL    HW1 1436   2.350   0.476   1.013 -2.2179 -0.8519 -3.9466
  479SOL    HW2 1437   2.423   0.418   1.152 -1.2274  1.7065  1.5612
  480SOL     OW 1438   3.063   2.860   0.355 -0.5532 -0.1460 -0.2796
  480SOL    HW1 1439   0.027   2.937   0.361 -0.6729  1.0719 -0.9150
  480SOL    HW2 1440   3.083   2.801   0.276 -1.8930  1.2934 -0.3989
  481SOL     OW 1441   2.596   2.623   0.962  0.4885  0.5348  0.4275
  481SOL    HW1 1442   2.510   2.667   0.973  2.2825 -0.4299 -1.0027
  481SOL    HW2 1443   2.664   2.672   1.015  0.4539 -0.7237 -3.4893
  482SOL     OW 1444   1.334   2.097   2.579 -0.4138  0.1134  0.1247
  482SOL    HW1 1445   1.433   2.091   2.605 -0.7287  1.5426  1.5210
  482SOL    HW2 1446   1.294   2.178   2.626 -0.0231  0.3879 -0.5014
  483SOL     OW 1447   0.504   2.044   2.793 -0.3820 -0.3063 -0.5326
  483SOL    HW1 1448   0.526   2.089   2.880 -2.0574  0.5383 -1.4820
  483SOL    HW2 1449   0.415   2.073   2.764  0.8992  1.6655 -1.4098
  484SOL     OW 1450   0.929   1.013   1.642 -0.3153  0.0663 -0.2338
  484SOL    HW1 1451   0.918   0.930   1.700 -0.7537 -1.7789  1.7612
  484SOL    HW2 1452   1.029   1.027   1.619  0.4322  2.9848  1.2679
  485SOL     OW 1453   2.332   0.566   0.333 -0.0077  0.0350  0.7681
  485SOL    HW1 1454   2.366   0.496   0.400 -1.0028  2.2220 -1.5644
  485SOL    HW2 1455   2.261   0.627   0.375  0.6274  3.0623 -0.6459
  486SOL     OW 1456   1.778   3.049   1.112 -0.2132 -0.2711  0.0319
  486SOL    HW1 1457   1.689   3.059   1.158  1.2876  0.8353  0.0605
  486SOL    HW2 1458   1.799   0.019   1.044 -0.1472 -1.7010  0.9277
  487SOL     OW 1459   0.579   2.268   1.036  0.1942  0.1075  0.4264
  487SOL    HW1 1460   0.538   2.336   0.974 -3.9957 -0.8505 -0.2422
  487SOL    HW2 1461   0.652   2.310   1.090 -0.8678 -0.0020  0.5556
  488SOL     OW 1462   2.460   1.289   0.540  0.5305  0.0257 -0.3998
  488SOL    HW1 1463   2.480   1.281   0.440 -0.0698  0.4264  3.2965
  488SOL    HW2 1464   2.407   1.206   0.572  0.7364 -2.1169 -2.5876
  489SOL     OW 1465   1.600   0.296   1.014  0.3300 -0.8855  0.1041
  489SOL    HW1 1466   1.616   0.389   1.053  1.1976 -0.6084  2.7835
  489SOL    HW2 1467   1.693   0.255   0.997  0.3474 -0.6968  1.0979
  490SOL     OW 1468   1.256   0.313   0.675 -0.0689 -0.1721  0.6076
  490SOL    HW1 1469   1.177   0.379   0.665  1.4214  1.4971 -2.1904
  490SOL    HW2 1470   1.276   0.256   0.590 -1.5264 -2.6700 -1.3515
  491SOL     OW 1471   0.509   2.397   0.589  0.3976  0.1384 -0.0420
  491SOL    HW1 1472   0.567   2.320   0.547  1.8830 -0.6913 -2.2627
  491SOL    HW2 1473   0.542   2.492   0.570  0.9045  1.4574  2.0276
  492SOL     OW 1474   1.085   1.331   2.352  0.5791  0.1713 -0.9251
  492SOL    HW1 1475   1.074   1.286   2.444  1.3784  1.6006 -1.8570
  492SOL    HW2 1476   0.994   1.368   2.311 -3.4656 -0.2161 -1.1983
  493SOL     OW 1477   0.204   2.482   0.980  0.1462 -0.2482 -0.2929
  493SOL    HW1 1478   0.183   2.381   0.978 -0.1426 -1.1138  1.7284
  493SOL    HW2 1479   0.212   2.514   1.076 -2.4523 -0.5181 -0.7012
  494SOL     OW 1480   2.729   2.211   3.040 -0.6755 -0.4327 -0.2039
  494SOL    HW1 1481   2.686   2.124   3.012  1.9402 -1.8326  1.8236
  494SOL    HW2 1482   2.721   2.219   0.039  4.0905  0.6032  0.5384
  495SOL     OW 1483   2.702   1.921   2.747  0.0276 -0.0157 -0.4837
  495SOL    HW1 1484   2.656   1.966   2.831 -1.7822  1.5230  0.3575
  495SOL    HW2 1485   2.631   1.854   2.712  1.8483  0.4923  2.2710
  496SOL     OW 1486   2.868   0.133   1.496 -0.1412  0.1409 -0.4310
  496SOL    HW1 1487   2.786   0.168   1.450  0.2113 -1.6351 -2.0539
  496SOL    HW2 1488   2.858   0.120   1.598  0.3608  1.2363  1.4675
  497SOL     OW 1489   2.507   0.980   0.217  0.2169 -0.2597 -0.4362
  497SOL    HW1 1490   2.425   0.992   0.162  3.0003  1.9845  1.2127
  497SOL    HW2 1491   2.506   0.893   0.270  1.3468 -0.6864 -0.6240
  498SOL     OW 1492   0.472   2.206   2.366  0.0167  0.5641  0.0568
  498SOL    HW1 1493   0.466   2.292   2.311 -0.0519 -1.6800  0.5380
  498SOL    HW2 1494   0.385   2.194   2.412  3.1094  1.6909  2.3882
  499SOL     OW 1495   1.072   2.392   0.309 -0.1065 -0.1188  0.0485
  499SOL    HW1 1496   1.026   2.314   0.361 -1.5049  2.4828 -0.2164
  499SOL    HW2 1497   1.103   2.364   0.217 -3.6747  0.2528  0.0898
  500SOL     OW 1498   1.416   2.936   0.093  0.3267 -0.0588 -0.1888
  500SOL    HW1 1499   1.361   3.016   0.060 -1.5898  0.8361  1.3282
  500SOL    HW2 1500   1.359   2.891   0.161  1.9807 -0.6646  1.3054
  501SOL     OW 1501   1.688   0.047   1.996  0.2333 -0.1429 -0.1472
  501SOL    HW1 1502   1.644   3.094   1.922  1.8526  1.4889  1.3344
  501SOL    HW2 1503   1.683   0.147   1.982 -0.3096  1.5820  0.8246
  502SOL     OW 1504   2.833   0.611   2.217 -0.0990 -0.3569 -0.3919
  502SOL    HW1 1505   2.894   0.614   2.295 -1.6649 -0.0924 -2.6070
  502SOL    HW2 1506   2.785   0.520   2.215 -2.0518 -1.3069 -0.6666
  503SOL     OW 1507   2.531   2.183   2.551  0.7579  0.0110  0.2196
  503SOL    HW1 1508   2.599   2.262   2.550 -1.4545 -0.2515  0.0215
  503SOL    HW2 1509   2.451   2.206   2.611  1.7209  3.3886  1.4376
  504SOL     OW 1510   1.504   0.391   1.519  0.3554 -0.3688  0.1442
  504SOL    HW1 1511   1.531   0.487   1.546 -0.3326  0.3495  0.3724
  504SOL    HW2 1512   1.474   0.336   1.598 -0.2057 -1.0329 -1.6587
  505SOL     OW 1513   0.920   0.790   1.792 -0.2153 -0.0954  0.2969
  505SOL    HW1 1514   1.018   0.755   1.786  2.0891  3.3364  2.6628
  505SOL    HW2 1515   0.888   0.803   1.886  0.5284 -0.9123 -2.0083
  506SOL     OW 1516   0.355   0.738   2.545  0.1398 -0.8694  0.1165
  506SOL    HW1 1517   0.376   0.818   2.605 -1.2023 -2.8915 -0.9179
  506SOL    HW2 1518   0.423   0.665   2.555 -2.6255  2.4246  0.0268
  507SOL     OW 1519   0.302   2.857   2.995  0.6283  0.4693 -0.3361
  507SOL    HW1 1520   0.213   2.898   2.976 -3.4368 -1.8553 -2.6159
  507SOL    HW2 1521   0.282   2.758   2.983  1.6621 -0.7677  1.3735
  508SOL     OW 1522   1.417   0.774   1.707 -0.5075 -0.4386  0.6968
  508SOL    HW1 1523   1.474   0.723   1.642  0.3476  2.4118 -3.1950
  508SOL    HW2 1524   1.415   0.869   1.668 -3.4883  2.4848 -2.2547
  509SOL     OW 1525   0.917   1.771   1.519 -0.4612 -0.7652 -0.4949
  509SOL    HW1 1526   0.920   1.844   1.587  1.2487  0.1779  0.2741
  509SOL    HW2 1527   0.995   1.783   1.450  0.2848  1.9891 -4.4183
  510SOL     OW 1528   2.349   1.204   2.208  0.2389 -0.3628 -0.3288
  510SOL    HW1 1529   2.388   1.282   2.261  0.8583 -3.2723  1.7204
  510SOL    HW2 1530   2.415   1.165   2.144 -2.3656 -1.9108 -1.1554
  511SOL     OW 1531   0.620   1.944   0.993 -0.1342  0.5044 -0.0910
  511SOL    HW1 1532   0.667   2.034   0.979 -1.6065  1.1412 -3.8195
  511SOL    HW2 1533   0.648   1.904   1.083  2.5320 -1.4794  1.3084
  512SOL     OW 1534   2.688   2.207   0.198  0.0920 -0.0730 -0.4425
  512SOL    HW1 1535   2.595   2.217   0.235  2.4195 -4.3273 -0.9191
  512SOL    HW2 1536   2.747   2.165   0.268 -2.1107  0.5465  0.1111
  513SOL     OW 1537   2.997   1.816   2.412 -0.3113  0.1632 -0.0730
  513SOL    HW1 1538   3.069   1.752   2.451 -1.9082 -2.3680 -1.2540
  513SOL    HW2 1539   2.981   1.888   2.483  0.0441  0.2550  0.2570
  514SOL     OW 1540   0.268   2.656   2.607 -0.3378 -0.1817  0.3516
  514SOL    HW1 1541   0.228   2.575   2.555 -2.7261 -1.9842 -1.8383
  514SOL    HW2 1542   0.368   2.648   2.599 -1.3114 -1.3968 -0.7619
  515SOL     OW 1543   2.119   1.229   1.414  0.4066  0.1035 -0.2700
  515SOL    HW1 1544   2.128   1.325   1.376  1.7288 -0.8687  0.9945
  515SOL    HW2 1545   2.186   1.219   1.489  0.5078 -0.7390 -3.0203
  516SOL     OW 1546   2.563   2.422   2.757 -0.3012  0.5569  0.0091
  516SOL    HW1 1547   2.569   2.478   2.672  0.5566 -0.2431  0.1077
  516SOL    HW2 1548   2.652   2.411   2.806  0.5393  0.5596  1.5102
  517SOL     OW 1549   1.471   0.746   2.895  0.1516 -0.4257  0.1304
  517SOL    HW1 1550   1.481   0.851   2.877  0.0853  1.4783 -0.4482
  517SOL    HW2 1551   1.401   0.727   2.971  1.0452 -0.8742 -0.0469
  518SOL     OW 1552   3.001   2.931   2.420 -0.7338  0.0351 -0.2933
  518SOL    HW1 1553   3.015   2.998   2.343 -0.4246  0.4488  1.7512
  518SOL    HW2 1554   3.095   2.907   2.461  3.0656 -2.4405 -0.8205
  519SOL     OW 1555   1.525   1.798   2.212 -0.2777 -0.4414 -0.3369
  519SOL    HW1 1556   1.449   1.744   2.251 -2.5108  0.3054 -2.1241
  519SOL    HW2 1557   1.573   1.846   2.287 -3.5321 -0.4469 -0.1842
  520SOL     OW 1558   2.769   2.909   2.584  0.2095  0.2067 -0.0633
  520SOL    HW1 1559   2.722   2.999   2.600 -1.0385  0.8237 -1.9659
  520SOL    HW2 1560   2.862   2.939   2.553  0.7316  3.2895  0.2825
  521SOL     OW 1561   0.429   1.602   1.860  0.2255  0.2304 -0.3576
  521SOL    HW1 1562   0.441   1.661   1.941  0.1557 -0.6368 -2.7601
  521SOL    HW2 1563   0.517   1.566   1.822  2.6925  1.2603 -0.0597
  522SOL     OW 1564   1.248   3.022   1.903  0.7605  0.0211 -0.2201
  522SOL    HW1 1565   1.203   3.062   1.820 -2.1465  1.4405  2.1885
  522SOL    HW2 1566   1.190   3.050   1.988 -0.3919  2.8461  2.6688
  523SOL     OW 1567   0.182   2.543   1.239  0.3388 -0.3905  0.0980
  523SOL    HW1 1568   0.104   2.600   1.271 -0.5745  0.6019  1.2452
  523SOL    HW2 1569   0.257   2.545   1.308 -0.1852  0.1044 -3.1741
  524SOL     OW 1570   1.581   2.563   0.875  0.4123 -0.0091 -0.6278
  524SOL    HW1 1571   1.535   2.494   0.816 -2.1811 -1.1522  0.3053
  524SOL    HW2 1572   1.517   2.646   0.890 -1.0359 -1.3310  0.8496
  525SOL     OW 1573   2.345   1.086   0.890 -0.3620  0.0455  0.8912
  525SOL    HW1 1574   2.330   1.180   0.922  0.4522 -0.4912 -0.0402
  525SOL    HW2 1575   2.293   1.019   0.949 -3.6131 -1.6368  0.7790
  526SOL     OW 1576   1.157   2.149   0.692  0.6207  0.0932  0.1804
  526SOL    HW1 1577   1.124   2.246   0.712  0.3874 -2.7964  0.9400
  526SOL    HW2 1578   1.074   2.091   0.659 -2.2934  0.3987 -1.9351
  527SOL     OW 1579   2.538   2.052   0.927  0.4113 -0.4941  0.6240
  527SOL    HW1 1580   2.532   2.014   0.832  1.7035 -1.3370  0.8051
  527SOL    HW2 1581   2.513   1.978   0.992  0.1584 -0.3579  0.0117
  528SOL     OW 1582   2.127   0.440   0.172  0.6245  0.1347 -0.0496
  528SOL    HW1 1583   2.213   0.473   0.223  2.2395  1.6088  3.1207
  528SOL    HW2 1584   2.075   0.376   0.231 -1.6034 -0.0168  1.2140
  529SOL     OW 1585   1.087   1.073   1.957 -0.1276  0.6410 -0.4328
  529SOL    HW1 1586   1.013   1.009   1.953  0.3154  0.4395  2.1799
  529SOL    HW2 1587   1.140   1.054   2.040 -3.2679 -0.4190  0.2328
  530SOL     OW 1588   2.637   1.069   2.677  0.1621 -0.4864 -0.2834
  530SOL    HW1 1589   2.596   1.162   2.677  0.0495  1.7803  0.1804
  530SOL    HW2 1590   2.659   1.034   2.587  0.6111  0.6651  3.0275
  531SOL     OW 1591   0.971   0.950   0.088  0.3913  0.8187  0.6514
  531SOL    HW1 1592   1.035   1.003   0.026  2.3563  0.3725 -0.1398
  531SOL    HW2 1593   0.921   1.004   0.158  0.1188 -0.1818 -1.2373
  532SOL     OW 1594   2.102   0.472   0.530  0.0633  0.1152  0.6579
  532SOL    HW1 1595   2.204   0.464   0.527 -1.2323 -0.4122  1.5732
  532SOL    HW2 1596   2.052   0.392   0.575  0.0177 -1.3150  1.2394
  533SOL     OW 1597   0.561   0.767   2.122  0.4941  0.2435  0.3642
  533SOL    HW1 1598   0.467   0.731   2.095 -1.1552 -1.5321 -2.1341
  533SOL    HW2 1599   0.585   0.749   2.215  2.6132 -0.4536 -3.7148
  534SOL     OW 1600   1.652   0.079   2.793 -0.0441  0.2044  0.0954
  534SOL    HW1 1601   1.691   0.066   2.699  0.0381 -0.2573  1.0117
  534SOL    HW2 1602   1.714   0.134   2.853 -1.2805  0.3369 -1.6236
  535SOL     OW 1603   0.649   3.072   0.380 -0.2109 -0.5357  0.8075
  535SOL    HW1 1604   0.553   3.057   0.348  0.6413  1.2801  0.2612
  535SOL    HW2 1605   0.677   3.011   0.461  1.6101 -2.4746  0.0306
  536SOL     OW 1606   1.056   2.892   1.420 -0.3349 -0.0603 -0.1695
  536SOL    HW1 1607   1.104   2.834   1.352  1.7160 -2.0857 -0.0589
  536SOL    HW2 1608   1.066   2.860   1.516 -1.6320  2.8569  0.1174
  537SOL     OW 1609   1.986   2.676   2.277 -0.1908  1.1732 -0.5089
  537SOL    HW1 1610   1.972   2.745   2.206 -0.6226 -2.4409  1.1015
  537SOL    HW2 1611   2.028   2.594   2.233 -1.1715 -0.4338  0.7608
  538SOL     OW 1612   0.340   2.592   2.917 -0.6552 -0.1925 -0.3901
  538SOL    HW1 1613   0.433   2.563   2.939  0.2783  2.1121  1.3016
  538SOL    HW2 1614   0.328   2.599   2.816  0.1382 -1.0607  0.6201
  539SOL     OW 1615   2.825   1.930   1.737 -0.4127 -0.2989 -0.6449
  539SOL    HW1 1616   2.887   1.980   1.674  0.3020 -1.9014 -0.5236
  539SOL    HW2 1617   2.840   1.958   1.833 -0.2208  0.9653 -1.1884
  540SOL     OW 1618   2.671   2.631   1.779  0.0406  0.2026  0.0370
  540SOL    HW1 1619   2.737   2.553   1.793 -1.9830  1.8831  2.6596
  540SOL    HW2 1620   2.578   2.592   1.797  1.0810  1.3234 -0.0297
  541SOL     OW 1621   0.149   3.047   1.551 -0.4398 -0.0335 -0.0030
  541SOL    HW1 1622   0.120   0.035   1.521  0.7276 -1.6998  0.9353
  541SOL    HW2 1623   0.245   3.024   1.523  0.3308  0.6168  0.6596
  542SOL     OW 1624   2.969   0.710   1.938  0.7017  0.3130 -0.7333
  542SOL    HW1 1625   2.906   0.681   2.015 -2.5267  1.6198  2.8255
  542SOL    HW2 1626   3.026   0.631   1.898  1.6114 -0.3770 -0.5222
  543SOL     OW 1627   0.592   0.769   1.127  0.3050  0.5075  0.2946
  543SOL    HW1 1628   0.690   0.790   1.104 -2.1100  1.7029 -0.5643
  543SOL    HW2 1629   0.584   0.693   1.189 -2.4529 -0.7114 -1.3699
  544SOL     OW 1630   2.080   1.888   1.186  0.6204 -0.4875 -0.3550
  544SOL    HW1 1631   1.984   1.887   1.216  0.8940  0.9734 -0.1983
  544SOL    HW2 1632   2.088   1.858   1.087 -2.2410 -3.3804 -1.8298
  545SOL     OW 1633   1.022   1.655   0.433  0.1282 -0.7984 -0.5915
  545SOL    HW1 1634   1.107   1.711   0.450  1.0813 -1.0589  2.8687
  545SOL    HW2 1635   1.020   1.574   0.498 -0.5593 -1.8460  3.0730
  546SOL     OW 1636   2.831   0.227   2.000 -0.3097 -0.1578 -0.8698
  546SOL    HW1 1637   2.769   0.302   1.969  0.3011 -1.3361  0.5220
  546SOL    HW2 1638   2.783   0.158   2.063  0.0112 -0.9739  1.7334
  547SOL     OW 1639   0.088   0.296   2.334 -0.1058 -0.0063 -0.6168
  547SOL    HW1 1640   0.102   0.348   2.420  1.9763 -1.0851  0.1458
  547SOL    HW2 1641   0.171   0.308   2.274 -0.4779 -0.9628  1.1496
  548SOL     OW 1642   2.309   2.312   2.811  0.1541  0.0215  0.1336
  548SOL    HW1 1643   2.394   2.363   2.805 -0.7255  0.7282 -0.5647
  548SOL    HW2 1644   2.238   2.340   2.750  2.1719 -0.4652  1.0809
  549SOL     OW 1645   2.349   0.603   0.897 -0.2798 -0.1565  0.3224
  549SOL    HW1 1646   2.254   0.626   0.894  3.8040 -0.3021  1.4902
  549SOL    HW2 1647   2.408   0.671   0.845  4.4941  1.0580  0.2945
  550SOL     OW 1648   2.276   1.419   0.741  0.1952 -0.6666 -0.3486
  550SOL    HW1 1649   2.221   1.483   0.686  1.3225 -1.2808  0.4822
  550SOL    HW2 1650   2.344   1.381   0.677  0.9120  1.2276  1.3014
  551SOL     OW 1651   1.375   2.983   1.579 -0.9676 -0.0903  0.4967
  551SOL    HW1 1652   1.310   2.930   1.637  1.4591  1.1415 -1.5713
  551SOL    HW2 1653   1.346   2.967   1.481  1.0702 -0.6632 -3.0356
  552SOL     OW 1654   2.122   2.405   2.607 -0.5757  0.0984  0.7934
  552SOL    HW1 1655   2.102   2.498   2.575 -0.9123  0.2026  0.3012
  552SOL    HW2 1656   2.172   2.349   2.537 -0.3859 -2.8263 -0.7180
  553SOL     OW 1657   0.756   2.907   0.607  0.4599 -0.6053 -0.5588
  553SOL    HW1 1658   0.827   2.903   0.680  0.3444 -2.3366  0.2438
  553SOL    HW2 1659   0.664   2.916   0.652 -0.8887 -1.7881  3.4312
  554SOL     OW 1660   1.674   2.647   1.996 -0.0451  0.3005 -0.3960
  554SOL    HW1 1661   1.747   2.571   1.996  3.7016  1.0506 -2.1668
  554SOL    HW2 1662   1.656   2.682   1.899 -0.0778 -0.9708 -3.0641
  555SOL     OW 1663   2.024   2.370   2.236  0.1177 -0.1095  0.2261
  555SOL    HW1 1664   2.120   2.382   2.197  1.8155  1.6816  0.2222
  555SOL    HW2 1665   2.014   2.281   2.287  1.3795  0.7508  2.5498
  556SOL     OW 1666   1.061   0.092   0.738 -0.0981 -0.2592  0.3704
  556SOL    HW1 1667   1.143   0.150   0.752  0.8794 -1.2697 -2.0133
  556SOL    HW2 1668   1.052   0.077   0.639 -0.5711 -0.3045  3.4612
  557SOL     OW 1669   0.784   2.203   1.708  0.0450  0.1528  0.1387
  557SOL    HW1 1670   0.773   2.290   1.759  0.6877 -1.1241 -1.0926
  557SOL    HW2 1671   0.696   2.167   1.673 -0.2494 -1.8748  1.1059
  558SOL     OW 1672   2.680   1.243   2.417  0.7707  0.1860  0.5843
  558SOL    HW1 1673   2.689   1.147   2.452 -2.7562  0.4077 -0.2988
  558SOL    HW2 1674   2.745   1.301   2.468 -1.9344 -1.4219  0.7184
  559SOL     OW 1675   2.265   2.362   2.120  0.4489 -0.4459 -0.1381
  559SOL    HW1 1676   2.319   2.302   2.058 -1.9140 -0.8637  0.5789
  559SOL    HW2 1677   2.247   2.455   2.087 -0.9354 -0.7633  1.4739
  560SOL     OW 1678   0.569   0.395   2.113 -0.5334 -0.3732 -0.2108
  560SOL    HW1 1679   0.603   0.372   2.019 -0.7363  0.2723  0.0378
  560SOL    HW2 1680   0.637   0.445   2.169 -0.8575 -3.1428 -0.7870
  561SOL     OW 1681   1.200   0.384   0.271  0.1076  0.1222 -0.3292
  561SOL    HW1 1682   1.280   0.424   0.229  0.2948  0.1220  0.1460
  561SOL    HW2 1683   1.232   0.312   0.335 -0.6343  0.1342 -0.4912
  562SOL     OW 1684   1.141   1.302   1.540  0.3518 -0.2894  0.3650
  562SOL    HW1 1685   1.084   1.385   1.550  2.4713  1.8304 -0.3337
  562SOL    HW2 1686   1.100   1.240   1.467  1.4806 -1.0493 -0.7848
  563SOL     OW 1687   1.959   2.534   0.144 -0.2811  0.5152  0.0892
  563SOL    HW1 1688   2.014   2.448   0.148  0.8527  2.6673 -2.7478
  563SOL    HW2 1689   1.965   2.578   0.236 -0.3903  0.3154 -2.0644
  564SOL     OW 1690   2.821   2.108   0.440 -0.5692  0.0328 -0.1120
  564SOL    HW1 1691   2.825   2.204   0.478 -2.4193  2.6525 -0.8664
  564SOL    HW2 1692   2.737   2.065   0.469  3.2905  1.8133  2.2136
  565SOL     OW 1693   0.529   0.170   2.294  0.6618  0.8438  0.1095
  565SOL    HW1 1694   0.632   0.162   2.302 -0.7187 -0.7732  1.3782
  565SOL    HW2 1695   0.499   0.238   2.222  0.2542 -0.4822 -3.4522
  566SOL     OW 1696   1.624   2.498   2.644  0.5116 -0.6135  0.1282
  566SOL    HW1 1697   1.708   2.474   2.700 -0.4907 -1.9714 -1.4258
  566SOL    HW2 1698   1.658   2.504   2.548 -1.5159 -0.3412  0.9825
  567SOL     OW 1699   1.829   1.924   1.379  0.4035 -0.3418  0.2290
  567SOL    HW1 1700   1.808   1.875   1.293  1.2229 -2.5591 -2.0466
  567SOL    HW2 1701   1.742   1.936   1.437 -4.1079 -1.7236  3.5701
  568SOL     OW 1702   2.138   0.950   2.826 -0.0825 -0.2374 -1.0242
  568SOL    HW1 1703   2.098   0.935   2.917 -1.6419  3.5472  0.5591
  568SOL    HW2 1704   2.244   0.934   2.826  1.3494  1.2758 -1.3648
  569SOL     OW 1705   2.534   1.478   2.068 -0.1393  0.3449  0.6120
  569SOL    HW1 1706   2.633   1.513   2.078  2.1914  0.1084  0.6685
  569SOL    HW2 1707   2.473   1.552   2.053  1.8505 -1.9427  1.0964
  570SOL     OW 1708   2.570   3.074   1.522  0.2958  0.1962 -0.8042
  570SOL    HW1 1709   2.494   3.026   1.565  3.6191 -2.0526 -0.5303
  570SOL    HW2 1710   2.599   0.048   1.587  0.2063  1.8421  0.8408
  571SOL     OW 1711   0.201   0.490   1.512 -0.0797 -0.6310  0.2515
  571SOL    HW1 1712   0.222   0.439   1.595 -0.2443 -0.9683  0.0670
  571SOL    HW2 1713   0.283   0.489   1.448  0.5312 -3.1209 -1.4061
  572SOL     OW 1714   0.103   1.893   0.629  0.1418 -0.1431 -0.8217
  572SOL    HW1 1715   0.027   1.849   0.679  2.7605 -1.4402  0.4770
  572SOL    HW2 1716   0.191   1.837   0.645 -0.8083 -0.1596  0.6167
  573SOL     OW 1717   0.988   0.611   0.244 -0.3230  0.3831  0.4395
  573SOL    HW1 1718   0.994   0.653   0.340 -1.7777  0.3198  0.5781
  573SOL    HW2 1719   1.059   0.540   0.232  2.3381  2.4285  1.0435
  574SOL     OW 1720   0.100   3.053   2.992  0.5327 -0.4916 -0.2498
  574SOL    HW1 1721   0.121   3.062   2.897 -2.6959 -0.2739  5.0422
  574SOL    HW2 1722   0.004   3.025   3.010  0.2467 -0.1179  2.6056
  575SOL     OW 1723   1.035   2.392   1.169 -0.4550 -0.4771 -0.3259
  575SOL    HW1 1724   1.024   2.298   1.195  1.2960 -0.6576  0.2315
  575SOL    HW2 1725   1.121   2.407   1.122  0.1166  1.5602  0.7828
  576SOL     OW 1726   3.017   2.795   1.310 -0.2649 -0.2366 -0.1507
  576SOL    HW1 1727   2.939   2.851   1.343  0.3383 -0.3317  2.2132
  576SOL    HW2 1728   3.096   2.852   1.284  0.5132  1.3837  0.0492
  577SOL     OW 1729   2.860   1.709   1.582  0.2121  0.2394  0.1883
  577SOL    HW1 1730   2.800   1.637   1.537  0.8398  1.0770 -0.9773
  577SOL    HW2 1731   2.817   1.775   1.648 -0.8948 -2.8327  0.1865
  578SOL     OW 1732   1.071   2.862   2.654  0.0799  0.5165  0.3068
  578SOL    HW1 1733   1.033   2.861   2.556  1.8288 -0.5860  0.4698
  578SOL    HW2 1734   1.174   2.858   2.662 -0.4991  1.4209  1.7039
  579SOL     OW 1735   2.139   1.659   2.112  0.3015 -0.2457 -0.3144
  579SOL    HW1 1736   2.057   1.625   2.060 -1.0495 -1.0912 -0.4545
  579SOL    HW2 1737   2.221   1.675   2.059 -1.9903 -0.2362 -0.1576
  580SOL     OW 1738   1.921   0.263   2.009 -0.2001 -0.3431  0.3648
  580SOL    HW1 1739   1.854   0.235   1.943  1.3026 -1.7686  0.8544
  580SOL    HW2 1740   1.875   0.329   2.077 -0.1934  2.4368  0.8953
  581SOL     OW 1741   0.970   1.328   2.009  0.0331  0.0588  0.2261
  581SOL    HW1 1742   1.005   1.387   1.939 -0.8850 -0.2364  1.9710
  581SOL    HW2 1743   1.010   1.233   2.007  0.0402  0.0457 -0.0486
  582SOL     OW 1744   0.111   2.729   1.701  0.1130 -0.1737 -0.0914
  582SOL    HW1 1745   0.106   2.680   1.793 -1.4615 -3.1681  2.3900
  582SOL    HW2 1746   0.030   2.790   1.689 -4.0337  0.4075 -1.4700
  583SOL     OW 1747   1.361   1.376   1.143  0.7016  0.0758 -0.2359
  583SOL    HW1 1748   1.377   1.353   1.243 -0.7663 -2.7097 -0.0567
  583SOL    HW2 1749   1.263   1.363   1.116 -0.0441 -0.6320 -0.4391
  584SOL     OW 1750   1.223   1.849   2.616  0.3122 -0.1378 -0.0317
  584SOL    HW1 1751   1.319   1.821   2.601  0.1573 -1.6075  1.7001
  584SOL    HW2 1752   1.209   1.949   2.593 -0.7094  1.1221 -1.2966
  585SOL     OW 1753   0.211   2.458   0.292 -0.2449  0.1797 -0.1485
  585SOL    HW1 1754   0.243   2.410   0.373 -2.1039 -0.5364 -0.9153
  585SOL    HW2 1755   0.126   2.425   0.256  2.2323  0.6339  3.3761
  586SOL     OW 1756   2.079   2.278   0.143  0.2281  0.1740 -0.0297
  586SOL    HW1 1757   2.073   2.262   0.245  0.7630 -1.1076  0.9950
  586SOL    HW2 1758   2.175   2.282   0.117 -0.7368 -2.2940  0.6776
  587SOL     OW 1759   2.469   1.967   0.659  0.0088 -0.3640 -0.3234
  587SOL    HW1 1760   2.373   1.970   0.696  1.3311  0.5798  1.4151
  587SOL    HW2 1761   2.493   2.004   0.568  0.3491 -0.8262 -0.3048
  588SOL     OW 1762   2.130   0.270   1.018  0.0755 -0.1611  0.7967
  588SOL    HW1 1763   2.063   0.347   1.023  1.3568  2.1176  1.0803
  588SOL    HW2 1764   2.227   0.301   1.019 -0.3594 -0.7145  0.3242
  589SOL     OW 1765   0.551   0.721   0.870  0.0642 -0.1570  0.3546
  589SOL    HW1 1766   0.548   0.745   0.967  0.1486  0.6710 -2.5449
  589SOL    HW2 1767   0.577   0.805   0.818 -0.4366 -1.6034 -1.5961
  590SOL     OW 1768   2.882   2.464   0.197 -0.9064 -0.1302 -0.5177
  590SOL    HW1 1769   2.800   2.406   0.186  1.9816  3.2062  1.4970
  590SOL    HW2 1770   2.893   2.495   0.296  0.4094 -3.5975  0.2897
  591SOL     OW 1771   0.373   2.717   1.629 -0.1505 -0.0630 -0.1527
  591SOL    HW1 1772   0.422   2.718   1.716 -2.4724 -0.4942 -1.5583
  591SOL    HW2 1773   0.268   2.726   1.634 -0.9255  2.4125 -1.3951
  592SOL     OW 1774   0.741   1.434   1.402 -0.1657 -0.6985 -0.6252
  592SOL    HW1 1775   0.739   1.513   1.335  0.8462  1.2809 -0.9429
  592SOL    HW2 1776   0.662   1.370   1.383 -4.5956  0.4517 -2.5390
  593SOL     OW 1777   1.003   1.818   1.250 -0.8295 -0.0468  0.5011
  593SOL    HW1 1778   1.059   1.731   1.237  1.1913 -0.2410  0.2513
  593SOL    HW2 1779   1.032   1.894   1.191 -0.3688  0.2774  0.3981
  594SOL     OW 1780   0.195   1.820   2.834  0.0739  0.6032  0.4392
  594SOL    HW1 1781   0.196   1.852   2.936  0.1849  2.4027  3.9847
  594SOL    HW2 1782   0.279   1.768   2.808 -2.8457  0.6271  0.4144
  595SOL     OW 1783   1.445   0.583   1.021  0.1748 -0.2426  0.0271
  595SOL    HW1 1784   1.377   0.592   0.939  0.1635  3.8330  0.5398
  595SOL    HW2 1785   1.408   0.534   1.094  2.9146  3.2326  0.2796
  596SOL     OW 1786   0.285   1.423   0.455  0.1173  0.4600  0.5948
  596SOL    HW1 1787   0.306   1.442   0.554  1.4684  1.5275 -0.4462
  596SOL    HW2 1788   0.232   1.337   0.446 -0.1170  0.1025  0.7330
  597SOL     OW 1789   3.069   2.177   2.760 -0.0142 -0.0217 -0.5034
  597SOL    HW1 1790   3.032   2.271   2.739 -1.3150  2.2905  2.1290
  597SOL    HW2 1791   3.054   2.159   2.859 -0.6362  2.1114  0.7326
  598SOL     OW 1792   1.947   2.102   2.289  0.0377  0.0692  0.3011
  598SOL    HW1 1793   1.886   2.103   2.205 -2.0417  0.4794  0.3075
  598SOL    HW2 1794   2.021   2.033   2.272  1.1198 -0.6334 -1.2614
  599SOL     OW 1795   1.662   0.497   0.743  0.6730  0.3314  0.0307
  599SOL    HW1 1796   1.706   0.579   0.693  1.0153  1.8290 -1.3529
  599SOL    HW2 1797   1.563   0.521   0.763  1.2465 -0.4037  2.1914
  600SOL     OW 1798   0.765   2.719   0.421  0.0672  0.0325  0.2123
  600SOL    HW1 1799   0.748   2.784   0.500  2.3324  0.1751  1.1557
  600SOL    HW2 1800   0.838   2.761   0.361  0.5637 -1.1452  0.0848
  601SOL     OW 1801   0.559   0.567   1.336  0.4697 -0.1568 -0.1851
  601SOL    HW1 1802   0.556   0.579   1.436 -0.7381  1.0939 -0.0803
  601SOL    HW2 1803   0.625   0.496   1.310 -0.1691 -0.3838 -0.0351
  602SOL     OW 1804   0.244   2.910   0.834 -0.5181  0.3033  0.2599
  602SOL    HW1 1805   0.200   2.823   0.823  2.2231  1.3789  0.2951
  602SOL    HW2 1806   0.166   2.976   0.839  0.6574  1.1402 -1.3947
  603SOL     OW 1807   1.154   2.503   2.551  0.0065 -0.5839  0.2415
  603SOL    HW1 1808   1.073   2.461   2.503 -0.1727 -0.9441  1.0611
  603SOL    HW2 1809   1.125   2.564   2.626 -0.4373 -2.6327 -1.1789
  604SOL     OW 1810   0.525   2.957   2.829 -0.1297 -0.0719 -0.0130
  604SOL    HW1 1811   0.519   2.946   2.728  0.5864 -1.2736 -1.6510
  604SOL    HW2 1812   0.452   2.909   2.877  0.5213  2.9251 -0.0284
  605SOL     OW 1813   0.950   0.632   2.064  0.2665  0.0116  0.2376
  605SOL    HW1 1814   1.051   0.649   2.054  1.1498 -1.2305 -1.5703
  605SOL    HW2 1815   0.901   0.721   2.064  1.5284  0.2558  1.2954
  606SOL     OW 1816   1.933   0.220   2.648  0.2192  0.4873 -0.5557
  606SOL    HW1 1817   1.929   0.227   2.749  0.0179  0.0006  0.3962
  606SOL    HW2 1818   1.859   0.153   2.620  0.3003 -1.3083 -2.7491
  607SOL     OW 1819   0.343   1.256   1.179 -0.2440  0.0788  0.1755
  607SOL    HW1 1820   0.376   1.298   1.268 -0.1334  0.0016  0.6325
  607SOL    HW2 1821   0.302   1.164   1.201  0.2274 -0.2443 -1.4560
  608SOL     OW 1822   0.017   2.470   2.269 -0.1261 -0.2161  0.1590
  608SOL    HW1 1823   3.060   2.551   2.271  0.8991 -2.2318 -0.4186
  608SOL    HW2 1824   0.085   2.477   2.338 -1.1224  1.5953 -0.1635
  609SOL     OW 1825   1.730   0.674   0.226  0.0623  0.1995 -0.0229
  609SOL    HW1 1826   1.802   0.681   0.153  0.1759  0.6331  2.2947
  609SOL    HW2 1827   1.714   0.579   0.249  1.8196  0.4026 -2.8019
  610SOL     OW 1828   0.945   2.708   1.133  0.2720  0.3220  0.3305
  610SOL    HW1 1829   1.044   2.693   1.131  0.2082  0.3453 -0.2805
  610SOL    HW2 1830   0.902   2.663   1.212 -3.8130 -0.4992  0.8069
  611SOL     OW 1831   1.012   0.703   0.501 -0.0123 -0.0146  0.5113
  611SOL    HW1 1832   0.912   0.717   0.533  1.9692  0.7905 -0.2393
  611SOL    HW2 1833   1.054   0.794   0.488 -1.7343 -1.5472 -0.7487
  612SOL     OW 1834   1.385   0.594   2.719  0.6870 -0.2638  0.5329
  612SOL    HW1 1835   1.318   0.642   2.663 -3.1532 -1.0549  2.2443
  612SOL    HW2 1836   1.427   0.649   2.797  2.6224  1.7406  2.1613
  613SOL     OW 1837   2.036   0.903   0.278 -0.0873  0.2323  0.4504
  613SOL    HW1 1838   2.071   0.991   0.320 -0.1534  0.2166  2.0124
  613SOL    HW2 1839   2.025   0.828   0.346 -1.3523  0.2791  2.6020
  614SOL     OW 1840   2.068   0.447   1.840 -0.3248 -0.6776  0.2585
  614SOL    HW1 1841   2.057   0.352   1.870  0.7168  0.2294 -0.2171
  614SOL    HW2 1842   2.026   0.465   1.749  0.8537 -0.9243 -1.5177
  615SOL     OW 1843   0.822   2.144   0.896  0.0313 -0.1866 -0.0303
  615SOL    HW1 1844   0.899   2.077   0.886 -1.9417 -1.2043 -0.7425
  615SOL    HW2 1845   0.856   2.242   0.897 -1.5750  2.0894 -2.8717
  616SOL     OW 1846   1.557   1.114   2.337  0.5643  0.0470  0.0587
  616SOL    HW1 1847   1.559   1.217   2.347  1.4051 -0.7673 -1.1656
  616SOL    HW2 1848   1.587   1.087   2.241  1.0751 -0.5158 -2.7890
  617SOL     OW 1849   1.824   0.001   0.032  0.3735 -0.5003 -0.3513
  617SOL    HW1 1850   1.912   3.084   3.088 -3.5894  1.5890 -2.1160
  617SOL    HW2 1851   1.770   3.014   0.033 -1.7547 -4.2741 -3.4503
  618SOL     OW 1852   1.013   1.022   2.837  0.8291 -0.0901 -0.3472
  618SOL    HW1 1853   1.064   0.965   2.768  3.3185  0.7829 -1.6373
  618SOL    HW2 1854   0.920   0.978   2.849  0.2947  1.1577  1.3228
  619SOL     OW 1855   2.423   1.533   0.957  0.0066  0.0743 -0.0982
  619SOL    HW1 1856   2.363   1.518   0.872  2.8285 -1.9316 -1.1927
  619SOL    HW2 1857   2.518   1.505   0.939 -2.1889 -0.0697  2.2948
  620SOL     OW 1858   2.503   2.578   0.066  0.1989  0.0293  0.2295
  620SOL    HW1 1859   2.567   2.583   3.091 -2.0593 -1.0044 -0.1643
  620SOL    HW2 1860   2.546   2.610   0.152 -0.1253 -2.6167 -0.5714
  621SOL     OW 1861   2.115   1.303   0.274  0.1595 -0.1997 -0.3967
  621SOL    HW1 1862   2.032   1.275   0.226  3.9000  0.1891  2.0038
  621SOL    HW2 1863   2.134   1.245   0.353 -2.9576  2.6487 -0.9728
  622SOL     OW 1864   1.349   2.375   2.687 -0.0134  0.1676 -0.3117
  622SOL    HW1 1865   1.276   2.431   2.642  0.4609 -0.2221  0.3724
  622SOL    HW2 1866   1.433   2.421   2.679 -3.1951 -0.6541  0.2432
  623SOL     OW 1867   0.205   1.875   0.042  0.1157 -0.6451 -0.2331
  623SOL    HW1 1868   0.160   1.958   0.081  2.7637  0.6204 -2.0960
  623SOL    HW2 1869   0.299   1.853   0.079  0.7996  0.0257  0.0654
  624SOL     OW 1870   0.323   0.188   2.804 -0.0590 -0.3622 -0.1557
  624SOL    HW1 1871   0.296   0.233   2.894 -1.5048 -0.2281  0.4042
  624SOL    HW2 1872   0.242   0.129   2.772  1.5916  0.6029 -3.3871
  625SOL     OW 1873   0.829   1.995   0.167 -0.1665  0.5517 -0.3908
  625SOL    HW1 1874   0.830   1.927   0.242 -0.4523 -1.5491 -0.6484
  625SOL    HW2 1875   0.734   2.030   0.152  1.2654  0.1824 -1.5943
  626SOL     OW 1876   2.752   0.562   0.358  0.3092  0.7065  0.3407
  626SOL    HW1 1877   2.758   0.510   0.268  0.3747  2.2558 -0.1871
  626SOL    HW2 1878   2.741   0.502   0.437 -1.8093  1.4986  0.9431
  627SOL     OW 1879   1.489   1.029   2.843 -0.4056 -0.1021  0.2664
  627SOL    HW1 1880   1.511   1.121   2.881 -0.5962  4.2310 -1.0700
  627SOL    HW2 1881   1.512   1.039   2.746  0.3476  0.2581  0.2268
  628SOL     OW 1882   1.093   0.849   2.652 -0.0576 -0.4250 -0.8230
  628SOL    HW1 1883   1.173   0.831   2.594 -4.7859  3.4721  2.7746
  628SOL    HW2 1884   1.025   0.897   2.597  1.6207 -0.4573  0.3416
  629SOL     OW 1885   0.225   0.213   1.692 -0.1679  0.5213 -0.3809
  629SOL    HW1 1886   0.129   0.243   1.669 -0.1914 -0.6013 -0.7935
  629SOL    HW2 1887   0.235   0.171   1.782  0.2171  2.6739 -2.2909
  630SOL     OW 1888   2.539   0.863   2.192 -0.0386 -0.0641  0.3400
  630SOL    HW1 1889   2.453   0.810   2.207  1.2320  1.0018 -0.1048
  630SOL    HW2 1890   2.570   0.885   2.287  1.3264  1.8423 -0.3610
  631SOL     OW 1891   1.907   0.860   0.842 -0.7120 -0.2934 -0.4646
  631SOL    HW1 1892   1.902   0.891   0.943 -0.1037  4.0092  1.0380
  631SOL    HW2 1893   1.988   0.805   0.821 -3.2053  0.7221 -1.9807
  632SOL     OW 1894   2.803   0.801   1.473  0.2987  0.2135  0.1909
  632SOL    HW1 1895   2.899   0.821   1.493 -1.5663  0.7146  0.7990
  632SOL    HW2 1896   2.785   0.722   1.407 -2.8425 -0.6586 -2.0471
  633SOL     OW 1897   0.972   3.057   3.090  0.8404  0.6708  0.4089
  633SOL    HW1 1898   0.933   3.001   3.010  0.0310  0.3660 -0.1159
  633SOL    HW2 1899   0.932   3.031   0.079  0.5203  0.3357  0.8551
  634SOL     OW 1900   0.943   2.469   2.965  0.0343 -0.1665 -0.2610
  634SOL    HW1 1901   0.926   2.495   3.062 -1.9729  1.2108  0.2530
  634SOL    HW2 1902   0.923   2.547   2.904  0.5873 -0.6238 -1.5490
  635SOL     OW 1903   3.080   0.206   0.393 -0.6633  0.0513 -0.4228
  635SOL    HW1 1904   3.066   0.241   0.490  1.8537 -0.5461 -1.9639
  635SOL    HW2 1905   2.991   0.177   0.352  1.4740 -0.1221 -1.6699
  636SOL     OW 1906   0.496   0.962   0.376 -0.0520  0.6028  0.4646
  636SOL    HW1 1907   0.525   0.984   0.282 -0.0495 -0.5886 -0.7534
  636SOL    HW2 1908   0.395   0.961   0.387 -1.4963  1.1185  0.6663
  637SOL     OW 1909   0.259   2.721   0.315  0.6990  0.3135  0.3798
  637SOL    HW1 1910   0.257   2.621   0.294 -1.3261  1.7419  0.7218
  637SOL    HW2 1911   0.188   2.761   0.252 -1.1406  0.2057 -4.1520
  638SOL     OW 1912   0.093   2.549   0.559 -0.2248  0.7103  0.1145
  638SOL    HW1 1913   0.128   2.612   0.486  0.7039  0.1189  1.2401
  638SOL    HW2 1914   0.149   2.460   0.559 -2.3277  0.1622 -3.0194
  639SOL     OW 1915   1.344   1.226   0.084  0.4526 -0.0627  0.1230
  639SOL    HW1 1916   1.284   1.181   0.018 -1.3130 -1.0262 -1.0770
  639SOL    HW2 1917   1.410   1.280   0.037  1.0335 -0.0620 -0.6075
  640SOL     OW 1918   1.556   2.488   1.378  0.5049 -0.0610 -0.0731
  640SOL    HW1 1919   1.629   2.546   1.421  1.2526 -1.3667  0.4527
  640SOL    HW2 1920   1.593   2.448   1.291 -1.3943  2.1152  1.5221
  641SOL     OW 1921   3.052   2.327   1.154 -0.3899  0.2057 -0.0282
  641SOL    HW1 1922   3.097   2.407   1.206  0.5224  3.7251 -0.3437
  641SOL    HW2 1923   2.959   2.353   1.127  1.8490  0.1884 -0.4128
  642SOL     OW 1924   0.801   2.982   1.872 -0.4553  0.3888 -0.6127
  642SOL    HW1 1925   0.862   3.018   1.805  0.5004  0.4293  3.2981
  642SOL    HW2 1926   0.732   3.049   1.904  1.9750  0.7574 -0.0232
  643SOL     OW 1927   0.843   2.216   2.906  0.1476 -0.4534  0.2224
  643SOL    HW1 1928   0.885   2.309   2.893  2.4694 -0.6645  0.6484
  643SOL    HW2 1929   0.917   2.164   2.947 -3.8113 -0.0827 -0.2188
  644SOL     OW 1930   1.281   2.538   0.787 -0.0558  0.0449  0.5538
  644SOL    HW1 1931   1.357   2.468   0.779  1.4591 -1.9253 -0.7880
  644SOL    HW2 1932   1.198   2.519   0.727 -2.6781  2.1251 -0.6325
  645SOL     OW 1933   1.254   1.265   1.806 -0.6007  0.6334 -0.1478
  645SOL    HW1 1934   1.213   1.298   1.718  4.0425 -0.5406 -1.1326
  645SOL    HW2 1935   1.201   1.188   1.850 -0.6152  0.2724 -1.6281
  646SOL     OW 1936   0.228   0.946   0.429  0.0320  1.2492 -0.5039
  646SOL    HW1 1937   0.213   0.890   0.512 -0.3812 -1.7293  0.1902
  646SOL    HW2 1938   0.181   0.905   0.350  1.7579 -1.8235  1.1234
  647SOL     OW 1939   1.368   0.542   0.759 -0.1733  0.5603  0.4178
  647SOL    HW1 1940   1.355   0.608   0.684  0.7270 -2.4117  1.4531
  647SOL    HW2 1941   1.313   0.463   0.737  2.5307  0.6754 -0.4168
  648SOL     OW 1942   2.002   2.670   1.089  0.3918 -0.5704 -0.0853
  648SOL    HW1 1943   2.042   2.609   1.157  3.8344  1.3687 -0.7145
  648SOL    HW2 1944   1.996   2.621   1.000 -0.5919  1.8128  0.2307
  649SOL     OW 1945   0.590   1.852   3.077 -0.2405  0.7015  0.7728
  649SOL    HW1 1946   0.594   1.955   3.075 -0.3055  2.7404 -0.0316
  649SOL    HW2 1947   0.553   1.817   0.063 -1.8686 -0.4255 -1.5961
  650SOL     OW 1948   2.336   1.977   1.807  0.4064 -0.1439  0.0151
  650SOL    HW1 1949   2.236   1.988   1.774 -2.4951  1.1970  1.2039
  650SOL    HW2 1950   2.396   1.951   1.727  1.2445 -0.6311  0.1835
  651SOL     OW 1951   0.097   3.057   2.729 -0.3481  0.0170  0.6619
  651SOL    HW1 1952   0.101   2.997   2.647  0.1008  3.0889  1.5140
  651SOL    HW2 1953   0.028   0.024   2.715  4.4991 -1.2219 -0.8596
  652SOL     OW 1954   2.608   1.787   0.048 -0.3158 -0.0786  0.3948
  652SOL    HW1 1955   2.624   1.748   0.142 -0.2475 -0.3058 -1.2672
  652SOL    HW2 1956   2.538   1.739   3.093  2.7422  2.4708 -0.8354
  653SOL     OW 1957   0.173   0.182   0.970  0.1792  0.2278 -0.0682
  653SOL    HW1 1958   0.254   0.185   0.907  2.1430  1.2837  0.0139
  653SOL    HW2 1959   0.103   0.115   0.943  1.4811 -0.6216  0.6016
  654SOL     OW 1960   1.018   0.099   0.471  0.0365 -0.5435 -0.0017
  654SOL    HW1 1961   0.998   0.027   0.400  3.1821  2.4528 -1.4222
  654SOL    HW2 1962   0.941   0.167   0.481  2.4220 -1.4327 -1.5145
  655SOL     OW 1963   0.629   2.771   1.429 -0.1938  0.2340 -0.6345
  655SOL    HW1 1964   0.556   2.843   1.444 -0.3304  1.9056  0.0173
  655SOL    HW2 1965   0.608   2.704   1.354  0.4457 -1.9793  2.1547
  656SOL     OW 1966   0.298   3.099   2.080  0.5395 -0.3808  0.1981
  656SOL    HW1 1967   0.267   3.084   2.176 -1.2057 -1.6352  0.7473
  656SOL    HW2 1968   0.253   0.071   2.033  4.5361 -0.1145 -2.7721
  657SOL     OW 1969   2.020   0.428   2.510  0.0791 -0.0731 -0.1053
  657SOL    HW1 1970   1.981   0.344   2.550  1.4993  2.0552 -1.3577
  657SOL    HW2 1971   2.097   0.416   2.446  1.0837 -0.3925 -0.8652
  658SOL     OW 1972   1.871   1.520   1.190 -0.1259  0.4806  0.0617
  658SOL    HW1 1973   1.799   1.475   1.253 -0.2211  1.6178  2.7257
  658SOL    HW2 1974   1.964   1.488   1.214 -0.2273  1.0644 -0.6920
  659SOL     OW 1975   2.686   2.628   2.967 -0.6002 -0.1458 -0.2159
  659SOL    HW1 1976   2.668   2.659   2.869  0.3184 -1.0919 -2.6128
  659SOL    HW2 1977   2.786   2.627   2.997 -2.0337 -0.2463 -1.3077
  660SOL     OW 1978   1.018   0.699   3.075  0.1916  0.7723 -0.3392
  660SOL    HW1 1979   0.984   0.625   0.031  1.1137  0.4448 -0.0232
  660SOL    HW2 1980   0.977   0.789   0.000 -1.1721  1.7511  0.2713
  661SOL     OW 1981   2.564   3.025   0.815  0.1300  0.4518 -0.3513
  661SOL    HW1 1982   2.626   2.955   0.774  2.2654 -1.8337  1.4515
  661SOL    HW2 1983   2.565   3.020   0.918 -2.3655 -1.9223  3.5257
  662SOL     OW 1984   0.473   0.467   0.891  0.8063 -0.1987 -0.3246
  662SOL    HW1 1985   0.428   0.465   0.982  1.4292  0.1821  1.6091
  662SOL    HW2 1986   0.496   0.566   0.861  1.0062  1.9784 -0.3047
  663SOL     OW 1987   1.571   2.335   2.278 -0.8336 -0.5333 -0.4525
  663SOL    HW1 1988   1.629   2.417   2.310  0.8873 -0.7021 -0.7097
  663SOL    HW2 1989   1.474   2.363   2.280 -0.1692  0.6416  1.5055
  664SOL     OW 1990   0.693   2.337   1.283 -0.1077 -0.1309 -0.6786
  664SOL    HW1 1991   0.749   2.367   1.360 -0.6561 -3.1777 -1.0981
  664SOL    HW2 1992   0.639   2.248   1.303 -2.2676 -2.6587 -0.9911
  665SOL     OW 1993   1.141   2.126   1.621  0.5829  0.8854 -0.4728
  665SOL    HW1 1994   1.070   2.055   1.652  0.3839 -0.1700 -1.8296
  665SOL    HW2 1995   1.175   2.104   1.528 -0.5361  0.6067 -1.0210
  666SOL     OW 1996   0.166   2.896   2.517  0.2502  0.2103 -0.1721
  666SOL    HW1 1997   0.238   2.955   2.481 -2.2422 -2.0179 -0.2406
  666SOL    HW2 1998   0.206   2.806   2.550  0.4944 -0.0101  0.1577
  667SOL     OW 1999   1.337   1.678   1.109  0.5346  0.0255  0.1245
  667SOL    HW1 2000   1.358   1.580   1.136  1.5300 -1.7727  0.4333
  667SOL    HW2 2001   1.320   1.727   1.198  2.1456 -1.9355 -2.2326
  668SOL     OW 2002   1.054   0.199   2.333 -0.3856 -0.1810  0.0043
  668SOL    HW1 2003   1.123   0.266   2.372  0.2620 -0.3096  1.6298
  668SOL    HW2 2004   1.088   0.104   2.342 -0.2398  0.7135  0.9781
  669SOL     OW 2005   2.221   2.334   1.790  0.0558 -0.1566 -0.5698
  669SOL    HW1 2006   2.292   2.268   1.823  0.5510  0.0668  0.1033
  669SOL    HW2 2007   2.157   2.281   1.729 -0.4787  0.3267  1.9249
  670SOL     OW 2008   2.011   1.927   0.302  0.4914  0.1688  0.1731
  670SOL    HW1 2009   2.049   1.944   0.399  0.8004  1.7077  0.9520
  670SOL    HW2 2010   2.078   1.917   0.230  0.2372 -0.0298  0.1055
  671SOL     OW 2011   1.346   1.135   0.853 -0.0236  0.0601  0.1872
  671SOL    HW1 2012   1.379   1.044   0.828 -0.1706 -1.5198  1.5945
  671SOL    HW2 2013   1.420   1.209   0.857  2.3867 -1.0110  1.1217
  672SOL     OW 2014   2.490   1.412   2.325  0.1169  0.3431  0.5606
  672SOL    HW1 2015   2.510   1.433   2.227 -0.3940  1.5977 -0.4430
  672SOL    HW2 2016   2.556   1.344   2.368 -1.1514  2.6488 -0.1889
  673SOL     OW 2017   2.788   1.590   2.098 -0.0288 -0.1400 -0.2958
  673SOL    HW1 2018   2.789   1.600   1.993 -1.3647 -1.4366 -2.2103
  673SOL    HW2 2019   2.780   1.682   2.146 -0.2356  2.3767 -0.0573
  674SOL     OW 2020   0.913   2.448   2.367 -0.3116 -0.6871 -0.7625
  674SOL    HW1 2021   0.936   2.527   2.303 -0.6537 -0.4016 -0.2985
  674SOL    HW2 2022   0.820   2.457   2.413 -1.6949  0.1915  0.7564
  675SOL     OW 2023   0.707   0.962   1.484  0.0224 -0.5965 -0.5304
  675SOL    HW1 2024   0.720   0.876   1.432 -0.2238  2.1585  1.2684
  675SOL    HW2 2025   0.785   0.977   1.548 -1.8440 -0.9370  1.5963
  676SOL     OW 2026   2.081   0.666   0.733 -0.1041 -0.6706 -0.6097
  676SOL    HW1 2027   2.086   0.715   0.642  2.4706 -0.5684 -0.1356
  676SOL    HW2 2028   2.035   0.578   0.727 -0.5981  1.4586  1.1820
  677SOL     OW 2029   2.541   1.723   2.677 -0.0078  0.3477  0.0732
  677SOL    HW1 2030   2.618   1.662   2.677  2.2097 -0.5578  1.4092
  677SOL    HW2 2031   2.472   1.676   2.732 -0.5249 -0.0405 -2.2263
  678SOL     OW 2032   0.020   3.068   0.949 -0.7116 -0.0119  0.4835
  678SOL    HW1 2033   3.051   3.006   0.914 -0.4383 -0.0714 -0.9121
  678SOL    HW2 2034   0.027   3.055   1.049 -1.5368 -0.6657 -3.4737
  679SOL     OW 2035   2.448   0.125   0.351 -0.8188  0.2972 -0.3268
  679SOL    HW1 2036   2.464   0.210   0.302 -1.0365 -1.8787  3.4170
  679SOL    HW2 2037   2.523   0.053   0.352  3.2550 -0.7985 -0.0652
  680SOL     OW 2038   0.205   2.435   2.057 -0.5216  0.4689 -0.3824
  680SOL    HW1 2039   0.205   2.407   1.958  1.9023 -1.8821  0.6477
  680SOL    HW2 2040   0.112   2.438   2.099 -2.9523  0.3673  0.2731
  681SOL     OW 2041   2.208   1.875   1.436  0.1003 -0.4186  0.2328
  681SOL    HW1 2042   2.183   1.905   1.345 -1.0460 -0.7112  4.6624
  681SOL    HW2 2043   2.191   1.777   1.442 -0.2161  3.0143  0.1912
  682SOL     OW 2044   3.000   2.238   2.211 -0.7475  0.0254  0.0393
  682SOL    HW1 2045   2.929   2.232   2.138 -0.3840  0.3497 -0.3258
  682SOL    HW2 2046   3.051   2.327   2.218  2.5166  0.7814  1.9491
  683SOL     OW 2047   3.063   2.108   1.310  0.6832  0.0308 -0.7765
  683SOL    HW1 2048   2.983   2.048   1.287 -0.4511 -1.5798 -1.1276
  683SOL    HW2 2049   3.051   2.201   1.268  0.7404 -0.1199 -0.6841
  684SOL     OW 2050   2.222   1.097   2.437 -0.1246 -0.2398 -0.5934
  684SOL    HW1 2051   2.170   1.180   2.459  0.6830  0.6251  0.0054
  684SOL    HW2 2052   2.293   1.111   2.365  0.1933 -2.4009  1.5264
  685SOL     OW 2053   1.557   1.089   0.519 -0.2173 -0.2419 -0.0560
  685SOL    HW1 2054   1.534   1.049   0.611  1.5788 -2.1494  1.3441
  685SOL    HW2 2055   1.648   1.137   0.512  0.2517  1.9006  2.0377
  686SOL     OW 2056   0.608   0.076   0.814  0.4159  0.6030 -0.0335
  686SOL    HW1 2057   0.600   0.030   0.907  0.7531  0.4771  3.2227
  686SOL    HW2 2058   0.694   0.132   0.808  1.2562 -1.4188  0.4641
  687SOL     OW 2059   1.549   1.406   2.369  0.4109  0.0947 -0.3761
  687SOL    HW1 2060   1.618   1.477   2.345 -0.9554 -0.3027 -0.6740
  687SOL    HW2 2061   1.459   1.432   2.329  1.5551 -1.1378  3.0352
  688SOL     OW 2062   1.310   1.739   1.366 -0.1192  0.2485 -0.8180
  688SOL    HW1 2063   1.236   1.680   1.333 -0.2764  1.3330  1.3628
  688SOL    HW2 2064   1.371   1.685   1.430 -1.9946 -1.4620  0.7152
  689SOL     OW 2065   2.088   0.212   1.299 -0.5824  0.4145  0.1108
  689SOL    HW1 2066   2.102   0.217   1.198 -1.9728  0.9848 -1.0970
  689SOL    HW2 2067   2.168   0.172   1.348  1.4429  3.1381  0.8758
  690SOL     OW 2068   0.150   1.752   1.058 -0.2299  0.2303  0.0607
  690SOL    HW1 2069   0.224   1.804   1.013 -3.7531 -0.0908  1.7901
  690SOL    HW2 2070   0.136   1.667   1.008  0.9969  1.7101 -2.0375
  691SOL     OW 2071   0.565   2.671   0.967 -0.0541 -0.2671  0.5080
  691SOL    HW1 2072   0.660   2.679   0.924  2.6580 -1.5226 -0.4273
  691SOL    HW2 2073   0.510   2.611   0.906 -0.5794  0.7797 -1.3894
  692SOL     OW 2074   2.354   0.389   1.823  0.1917 -0.2143 -0.2600
  692SOL    HW1 2075   2.353   0.387   1.923  0.0618 -1.2415 -0.2900
  692SOL    HW2 2076   2.256   0.397   1.794  0.2639  0.1664  3.0818
  693SOL     OW 2077   0.332   2.092   1.879 -0.3652 -0.1567  0.2388
  693SOL    HW1 2078   0.401   2.033   1.835 -0.6297  0.4828 -2.6086
  693SOL    HW2 2079   0.326   2.078   1.979 -1.4527 -0.2910 -1.1492
  694SOL     OW 2080   1.520   1.190   1.784 -0.4410  0.8867 -0.5308
  694SOL    HW1 2081   1.583   1.254   1.746 -3.3984 -0.6922  4.2576
  694SOL    HW2 2082   1.430   1.227   1.805  3.0869 -1.2297 -3.0745
  695SOL     OW 2083   0.619   1.075   1.061  0.0342  0.1070  0.6291
  695SOL    HW1 2084   0.538   1.126   1.091 -0.1808  1.5990 -0.1342
  695SOL    HW2 2085   0.697   1.082   1.124 -0.8098  0.0824  1.4052
  696SOL     OW 2086   1.460   0.123   0.826 -0.4691  0.3269 -0.2249
  696SOL    HW1 2087   1.416   0.180   0.755 -0.5092  2.4128 -0.1921
  696SOL    HW2 2088   1.520   0.175   0.887 -0.4949 -1.1530  0.1232
  697SOL     OW 2089   1.420   0.212   1.729  0.2209  0.5273  0.1417
  697SOL    HW1 2090   1.385   0.225   1.825 -0.7402 -2.4673 -0.3566
  697SOL    HW2 2091   1.342   0.199   1.665  1.3362  2.4658  0.0460
  698SOL     OW 2092   2.075   1.141   2.138 -0.1055  0.3804 -0.1526
  698SOL    HW1 2093   2.129   1.191   2.207 -0.6306 -0.0012 -2.6867
  698SOL    HW2 2094   2.008   1.079   2.180  0.7814 -2.2019  3.3088
  699SOL     OW 2095   2.274   0.265   1.544 -0.4541 -0.7143  0.2432
  699SOL    HW1 2096   2.365   0.254   1.577  2.9240  1.6125  0.1461
  699SOL    HW2 2097   2.200   0.222   1.598 -0.1328 -0.8764 -0.3951
  700SOL     OW 2098   0.968   2.156   0.403  0.1016 -0.3725 -0.0382
  700SOL    HW1 2099   0.968   2.104   0.315  0.8513 -0.2016  0.7660
  700SOL    HW2 2100   0.961   2.090   0.483 -0.8463  0.7148 -0.0624
  701SOL     OW 2101   2.318   2.783   2.807  0.2945  0.3018  0.0188
  701SOL    HW1 2102   2.270   2.856   2.755  1.2399 -2.7248  2.7200
  701SOL    HW2 2103   2.258   2.731   2.877 -1.8512  0.1267  3.2796
  702SOL     OW 2104   1.057   0.043   1.079  0.5506 -0.4828 -0.0597
  702SOL    HW1 2105   0.972   3.092   1.052 -0.4679  0.9603 -1.5290
  702SOL    HW2 2106   1.146   3.095   1.079  0.2828  0.5164 -1.2977
  703SOL     OW 2107   2.406   0.181   2.087  0.4793  0.0924  0.6711
  703SOL    HW1 2108   2.403   0.121   2.169 -0.4561  0.4552 -1.4956
  703SOL    HW2 2109   2.455   0.142   2.001  1.1431  1.3975 -3.3673
  704SOL     OW 2110   0.114   2.086   0.193  0.1508 -0.1697  0.4731
  704SOL    HW1 2111   0.069   2.075   0.286  0.6972 -0.6415  1.2450
  704SOL    HW2 2112   0.072   2.161   0.143  0.1903  0.8286 -0.5509
  705SOL     OW 2113   2.500   0.051   1.879  0.5691  0.4095  0.4996
  705SOL    HW1 2114   2.457   0.093   1.797  1.7914 -0.1989 -0.3481
  705SOL    HW2 2115   2.491   3.053   1.864 -0.4636  0.1094  0.6109
  706SOL     OW 2116   2.180   2.924   1.137 -0.0020 -0.3556  0.2930
  706SOL    HW1 2117   2.129   2.836   1.132  1.2950 -0.2391  1.3329
  706SOL    HW2 2118   2.231   2.931   1.225  0.2564  0.6376 -1.9505
  707SOL     OW 2119   0.943   2.860   2.411  0.2152  0.1231  0.4749
  707SOL    HW1 2120   0.935   2.775   2.358  1.4053  0.9173 -0.4047
  707SOL    HW2 2121   0.868   2.927   2.397  2.4567 -1.5471  2.7638
  708SOL     OW 2122   2.860   2.289   1.651 -0.6024 -0.3933 -0.1532
  708SOL    HW1 2123   2.891   2.369   1.705  0.6144 -0.8419  0.1319
  708SOL    HW2 2124   2.935   2.219   1.644  1.2744 -1.7145 -0.5126
  709SOL     OW 2125   1.575   0.657   1.528 -0.1572  0.2228 -0.2800
  709SOL    HW1 2126   1.545   0.678   1.430 -0.5339  1.0667  1.2180
  709SOL    HW2 2127   1.673   0.674   1.556 -0.5714 -1.2811 -0.8417
  710SOL     OW 2128   0.925   3.025   2.823 -0.1562 -0.0195  0.1922
  710SOL    HW1 2129   0.991   2.980   2.763  2.7859  1.5631  2.0641
  710SOL    HW2 2130   0.957   0.011   2.856  1.9772  0.4992  1.4729
  711SOL     OW 2131   0.740   1.949   2.702 -0.0932 -0.1864  0.5365
  711SOL    HW1 2132   0.661   1.994   2.747 -2.3314 -2.0114  1.8770
  711SOL    HW2 2133   0.785   1.888   2.771  0.5639 -3.7243 -1.3687
  712SOL     OW 2134   1.009   2.058   3.061 -0.0846  0.2923  0.0090
  712SOL    HW1 2135   0.937   2.025   0.023  0.1550 -0.2408  1.9851
  712SOL    HW2 2136   1.078   1.990   3.019 -0.5400  0.5729 -1.9787
  713SOL     OW 2137   1.993   0.935   2.411 -0.0068 -0.4158 -0.4621
  713SOL    HW1 2138   2.058   1.015   2.413  1.0870  0.7172  1.3032
  713SOL    HW2 2139   2.010   0.871   2.489 -0.0443  0.1747 -2.5791
  714SOL     OW 2140   1.050   1.544   1.831  0.1013  0.2062 -1.0540
  714SOL    HW1 2141   1.076   1.644   1.839  0.3757  1.6392 -1.9769
  714SOL    HW2 2142   1.024   1.525   1.736 -1.5709  0.7257  0.5957
  715SOL     OW 2143   2.148   0.245   3.049 -0.3143  0.3819 -0.0566
  715SOL    HW1 2144   2.155   0.306   0.030 -0.3453  0.4664  0.9747
  715SOL    HW2 2145   2.100   0.160   3.081  1.4863  2.1915  1.3431
  716SOL     OW 2146   2.776   2.379   1.424  0.3308 -0.1017  0.3732
  716SOL    HW1 2147   2.809   2.329   1.509  2.0702 -0.4649 -1.5341
  716SOL    HW2 2148   2.857   2.416   1.373 -0.9521 -0.8368  0.8438
  717SOL     OW 2149   2.620   1.096   0.870 -0.1271  0.4036 -0.2114
  717SOL    HW1 2150   2.519   1.105   0.860  1.3747  0.8039 -1.1302
  717SOL    HW2 2151   2.668   1.107   0.781  2.1772 -1.2477 -0.1918
  718SOL     OW 2152   1.480   1.565   1.520 -0.1038 -0.5440  0.3079
  718SOL    HW1 2153   1.579   1.560   1.520 -5.1758  2.3712 -2.5895
  718SOL    HW2 2154   1.448   1.589   1.618 -0.8085 -0.8678  1.1459
  719SOL     OW 2155   2.761   0.454   0.101  0.2453 -0.1675  0.6508
  719SOL    HW1 2156   2.727   0.536   0.051  0.5687  1.3559  0.6273
  719SOL    HW2 2157   2.847   0.416   0.062 -2.5480  0.8996 -0.4278
  720SOL     OW 2158   0.741   0.415   0.966  0.4594 -0.0311 -0.0402
  720SOL    HW1 2159   0.643   0.438   0.946 -1.3817 -0.9918  0.0564
  720SOL    HW2 2160   0.772   0.351   0.891  0.7228 -3.2283  0.5714
  721SOL     OW 2161   2.548   0.893   0.542 -0.1680  0.1484 -0.2521
  721SOL    HW1 2162   2.555   0.837   0.457 -2.4210 -0.8048  1.5541
  721SOL    HW2 2163   2.623   0.965   0.553 -0.5533 -1.2992 -0.1007
  722SOL     OW 2164   0.501   2.622   2.481  0.5417  0.1920 -0.3745
  722SOL    HW1 2165   0.576   2.550   2.470  1.3173  0.9042 -0.2980
  722SOL    HW2 2166   0.433   2.607   2.406  1.5953 -2.9380  0.6955
  723SOL     OW 2167   1.669   0.285   0.558  0.6543  0.7637 -0.2342
  723SOL    HW1 2168   1.666   0.187   0.587 -0.7907  1.5459  1.0271
  723SOL    HW2 2169   1.649   0.349   0.638  1.4713 -2.3423  0.5459
  724SOL     OW 2170   0.992   1.814   2.384  0.0105  0.1465 -0.3373
  724SOL    HW1 2171   0.919   1.883   2.405  0.8673  0.6558 -3.0971
  724SOL    HW2 2172   0.981   1.776   2.289 -1.7173  2.3647 -0.7734
  725SOL     OW 2173   1.577   3.091   1.298 -0.2309 -0.2865 -0.0418
  725SOL    HW1 2174   1.484   0.022   1.325 -0.7090  0.1710  0.1411
  725SOL    HW2 2175   1.625   3.054   1.381 -0.0714  0.8433  0.6671
  726SOL     OW 2176   2.393   2.889   0.204  0.3486  0.7332 -0.0845
  726SOL    HW1 2177   2.427   2.893   0.103  1.8371  1.1451 -2.2737
  726SOL    HW2 2178   2.444   2.817   0.259  0.4329  0.2236  2.4125
  727SOL     OW 2179   1.313   2.059   0.901  0.2240 -0.7462  0.2794
  727SOL    HW1 2180   1.403   2.049   0.852 -0.7580  1.4741  2.1537
  727SOL    HW2 2181   1.240   2.079   0.831 -1.3661 -1.9060 -1.9063
  728SOL     OW 2182   2.331   2.700   2.480  0.1549  0.5970  0.3488
  728SOL    HW1 2183   2.373   2.792   2.468 -0.3639 -0.4555 -0.5119
  728SOL    HW2 2184   2.230   2.697   2.501 -0.1170 -1.8590 -0.5145
  729SOL     OW 2185   1.951   2.168   1.389 -0.0941  0.1189 -0.0023
  729SOL    HW1 2186   1.901   2.239   1.341  0.6953 -2.5112  3.3567
  729SOL    HW2 2187   1.907   2.078   1.372  0.0456 -0.3814  0.9839
  730SOL     OW 2188   1.712   0.674   2.833 -0.4688  0.2771 -0.4456
  730SOL    HW1 2189   1.619   0.694   2.863  0.2498  1.1249  0.8312
  730SOL    HW2 2190   1.726   0.702   2.735  0.5473 -1.1985 -2.9590
  731SOL     OW 2191   0.876   0.130   1.302  0.1107 -0.4255 -0.0799
  731SOL    HW1 2192   0.937   0.097   1.229  0.7406 -0.6854  3.5426
  731SOL    HW2 2193   0.832   0.044   1.346  1.1576 -2.6338  1.2185
  732SOL     OW 2194   1.374   0.185   1.127  0.5080 -0.1009  0.3069
  732SOL    HW1 2195   1.297   0.237   1.079  1.2426 -0.5673 -1.3663
  732SOL    HW2 2196   1.463   0.202   1.082  0.2849  0.3279 -0.9556
  733SOL     OW 2197   0.953   1.168   0.842 -0.5024  0.1803 -0.1643
  733SOL    HW1 2198   0.960   1.099   0.914  1.1456  2.1627  1.1745
  733SOL    HW2 2199   0.895   1.237   0.879 -2.1658 -0.2639  1.1218
  734SOL     OW 2200   2.754   2.657   2.505 -0.7461  0.0761 -0.4050
  734SOL    HW1 2201   2.703   2.607   2.578  1.7253 -1.1184  2.6670
  734SOL    HW2 2202   2.758   2.757   2.533  1.3707  0.4831  1.0482
  735SOL     OW 2203   0.821   2.989   1.381 -0.2348 -0.1186 -0.1892
  735SOL    HW1 2204   0.919   2.961   1.391 -3.2501 -0.1485  0.2911
  735SOL    HW2 2205   0.760   2.911   1.397  0.6039 -0.0417  0.0629
  736SOL     OW 2206   1.742   1.925   0.016 -0.1326 -0.1115 -0.2458
  736SOL    HW1 2207   1.701   1.909   3.027  1.6035 -1.6800  0.1517
  736SOL    HW2 2208   1.764   2.027   0.025 -1.3847 -1.6193  1.3288
  737SOL     OW 2209   0.216   2.179   1.327  0.0154  0.4852  0.3864
  737SOL    HW1 2210   0.259   2.199   1.237 -3.2459 -1.9230  0.6985
  737SOL    HW2 2211   0.116   2.148   1.309 -2.1916 -1.8329 -0.0223
  738SOL     OW 2212   1.895   2.549   2.987 -0.3770 -0.1376  0.2496
  738SOL    HW1 2213   1.807   2.598   2.983  0.9871  1.8824 -1.2344
  738SOL    HW2 2214   1.917   2.544   3.086  0.0420  2.0923 -2.9194
  739SOL     OW 2215   1.227   2.024   2.312  0.3256  0.1059  0.1125
  739SOL    HW1 2216   1.294   2.044   2.384 -0.7692  0.2253 -1.1385
  739SOL    HW2 2217   1.172   1.944   2.342  2.6731 -2.6175  2.1445
  740SOL     OW 2218   1.227   2.676   1.196 -0.0062 -0.8139  0.0691
  740SOL    HW1 2219   1.255   2.603   1.129 -0.9742 -2.6121 -1.2225
  740SOL    HW2 2220   1.303   2.741   1.214 -1.7986 -1.8444 -1.2685
  741SOL     OW 2221   2.875   1.017   0.315  0.5608  0.1240  0.5109
  741SOL    HW1 2222   2.852   1.094   0.379 -0.8443  1.7070 -0.1259
  741SOL    HW2 2223   2.904   1.056   0.230 -0.3127 -0.3223  1.0257
  742SOL     OW 2224   0.932   1.609   2.603 -0.0137 -0.2456 -0.0960
  742SOL    HW1 2225   0.963   1.672   2.528  0.9223  0.8398 -1.7391
  742SOL    HW2 2226   0.882   1.663   2.673 -0.6944  2.1183 -0.8589
  743SOL     OW 2227   0.906   0.790   2.438  0.0718  0.5333 -0.5782
  743SOL    HW1 2228   0.808   0.789   2.412  1.1919 -0.0074 -1.3706
  743SOL    HW2 2229   0.934   0.700   2.467 -1.7826  0.8532  1.0047
  744SOL     OW 2230   1.971   2.648   1.601 -0.0155 -0.2407  0.1324
  744SOL    HW1 2231   2.004   2.630   1.699  0.0208  1.1007 -0.6430
  744SOL    HW2 2232   1.987   2.747   1.576 -0.8860 -0.5431 -0.7018
  745SOL     OW 2233   1.660   1.287   1.326  0.2315 -0.3348 -0.4347
  745SOL    HW1 2234   1.560   1.293   1.355 -1.9595  1.3583 -2.5807
  745SOL    HW2 2235   1.718   1.263   1.408  0.3360  1.4310 -1.1377
  746SOL     OW 2236   1.622   0.790   0.955 -0.6542  0.7173  0.7453
  746SOL    HW1 2237   1.705   0.785   0.896 -3.1206 -0.9380  0.7449
  746SOL    HW2 2238   1.584   0.694   0.961 -2.4847 -1.4577 -0.7617
  747SOL     OW 2239   2.079   1.833   0.924 -0.1696  0.0909  0.2369
  747SOL    HW1 2240   2.142   1.805   0.854  1.2074 -1.8579  0.7006
  747SOL    HW2 2241   1.980   1.827   0.890  0.4830  0.7624 -2.2030
  748SOL     OW 2242   0.330   1.503   0.119  0.3680  0.3930  0.4104
  748SOL    HW1 2243   0.354   1.592   0.168 -0.3756  1.6863 -0.7925
  748SOL    HW2 2244   0.394   1.484   0.040  2.5730 -1.2098 -1.4952
  749SOL     OW 2245   0.141   2.416   2.505 -0.8235  0.2764  0.3702
  749SOL    HW1 2246   0.165   2.319   2.483 -0.6181  1.3479  0.5975
  749SOL    HW2 2247   0.058   2.420   2.562 -0.1774 -0.7303 -0.0892
  750SOL     OW 2248   2.148   0.674   1.209 -0.4884  0.6069  0.0731
  750SOL    HW1 2249   2.216   0.637   1.275 -1.2886  1.9118  0.6771
  750SOL    HW2 2250   2.063   0.709   1.251 -2.7610  1.3172 -2.0195
  751SOL     OW 2251   2.656   3.054   0.320 -0.2789  0.1165  0.4989
  751SOL    HW1 2252   2.655   3.045   0.219  0.5516  1.0681  1.2951
  751SOL    HW2 2253   2.680   2.970   0.373  1.8869  0.6911  0.6236
  752SOL     OW 2254   2.447   2.579   0.530 -0.1536 -0.0993 -0.4011
  752SOL    HW1 2255   2.392   2.644   0.584  1.5168  0.8683  2.2159
  752SOL    HW2 2256   2.515   2.534   0.590 -0.1705 -0.4615 -2.5974
  753SOL     OW 2257   2.057   1.536   2.342  0.1408 -0.1662  0.4655
  753SOL    HW1 2258   2.107   1.579   2.421  1.1890  1.5694  0.0059
  753SOL    HW2 2259   2.087   1.585   2.258  2.1125  0.0882  2.7387
  754SOL     OW 2260   2.298   2.413   1.472 -0.0093 -0.5231  0.0753
  754SOL    HW1 2261   2.260   2.354   1.396 -0.7409 -1.7104 -1.3001
  754SOL    HW2 2262   2.248   2.397   1.560 -2.1984  1.1344  1.4211
  755SOL     OW 2263   2.153   0.887   1.038  0.2060 -0.5878  0.3790
  755SOL    HW1 2264   2.121   0.974   1.081  2.7337 -1.7267 -1.1322
  755SOL    HW2 2265   2.149   0.811   1.103  0.4073  3.2428  1.3964
  756SOL     OW 2266   1.398   1.430   2.760  0.0084  0.4235 -0.7086
  756SOL    HW1 2267   1.385   1.340   2.706 -1.0011  0.4091 -2.9599
  756SOL    HW2 2268   1.311   1.483   2.758  0.1661 -0.9288  0.3374
  757SOL     OW 2269   1.693   2.532   1.123 -0.0830  0.3431  0.2029
  757SOL    HW1 2270   1.722   2.626   1.134 -1.5056 -1.5968 -1.1976
  757SOL    HW2 2271   1.652   2.520   1.025 -0.2748  1.8632 -3.8041
  758SOL     OW 2272   0.902   2.532   1.367  0.2235 -0.7793 -0.0363
  758SOL    HW1 2273   0.912   2.489   1.458 -1.5308  0.2883 -1.1750
  758SOL    HW2 2274   0.979   2.512   1.302 -0.6426  0.2561 -1.4744
  759SOL     OW 2275   2.095   1.148   1.158  0.3036 -0.4496  0.6791
  759SOL    HW1 2276   2.070   1.179   1.249 -0.3103  2.3611 -2.6458
  759SOL    HW2 2277   2.160   1.213   1.111 -0.4617 -0.8628  2.1268
  760SOL     OW 2278   2.139   0.929   1.506 -0.1478 -0.5663  0.1239
  760SOL    HW1 2279   2.070   0.887   1.442 -0.7857  3.8526  1.6445
  760SOL    HW2 2280   2.157   1.018   1.461 -3.1816 -2.2562 -1.4686
  761SOL     OW 2281   2.198   2.829   0.433  0.2835  0.0159  0.7152
  761SOL    HW1 2282   2.120   2.891   0.407  0.5560  0.4725 -0.5394
  761SOL    HW2 2283   2.275   2.871   0.383  2.6027 -0.7628 -0.7114
  762SOL     OW 2284   2.039   1.590   2.916 -0.2526  0.7710  0.7488
  762SOL    HW1 2285   2.058   1.667   2.848 -0.5837 -1.0563 -2.2858
  762SOL    HW2 2286   2.006   1.625   3.003 -0.4304 -0.3473 -2.2724
  763SOL     OW 2287   0.395   1.682   1.518  0.2023  0.6043 -0.3050
  763SOL    HW1 2288   0.342   1.769   1.497 -3.1293  2.0270 -3.1486
  763SOL    HW2 2289   0.484   1.714   1.565 -1.9520  1.2019 -0.0743
  764SOL     OW 2290   0.129   2.559   3.083 -0.0606 -0.1380 -0.5618
  764SOL    HW1 2291   0.109   2.466   0.018 -3.9186 -0.1627 -0.0789
  764SOL    HW2 2292   0.218   2.567   3.034 -0.7543  0.1961  1.5164
  765SOL     OW 2293   0.587   3.090   1.670 -0.6724  0.0336  0.3873
  765SOL    HW1 2294   0.688   0.011   1.653  3.3427  1.2558 -0.1288
  765SOL    HW2 2295   0.568   3.087   1.767 -0.0053 -0.5933 -0.8997
  766SOL     OW 2296   0.072   2.016   2.281 -0.6017  0.0037  0.4129
  766SOL    HW1 2297   3.100   2.083   2.279 -0.8325  1.3538 -0.4414
  766SOL    HW2 2298   0.034   1.927   2.311  1.5272  0.2724 -0.5804
  767SOL     OW 2299   0.054   1.368   1.893 -0.4427 -0.4607 -0.4093
  767SOL    HW1 2300   0.021   1.289   1.946  1.9654  3.1262 -0.6004
  767SOL    HW2 2301   3.077   1.432   1.888  0.7562  0.5159 -2.4840
  768SOL     OW 2302   0.820   0.344   3.018  0.6330  0.5587  0.2599
  768SOL    HW1 2303   0.890   0.321   3.083 -2.2231  1.0698 -1.9033
  768SOL    HW2 2304   0.770   0.425   3.059  4.8252  1.6767 -0.9344
  769SOL     OW 2305   2.234   2.469   0.741  0.8045  1.1815  0.2026
  769SOL    HW1 2306   2.320   2.440   0.783 -1.4110  0.0610  0.6902
  769SOL    HW2 2307   2.237   2.566   0.713 -0.4496  0.1506  2.7602
  770SOL     OW 2308   2.780   0.156   2.824  0.0242  0.2933  0.4941
  770SOL    HW1 2309   2.736   0.168   2.910 -3.0872 -0.5876 -3.3457
  770SOL    HW2 2310   2.712   0.123   2.753 -1.4937  0.4194 -1.2408
  771SOL     OW 2311   1.870   2.192   1.833 -0.4824  0.7649  0.0397
  771SOL    HW1 2312   1.938   2.189   1.758 -2.9171 -1.9536  0.4320
  771SOL    HW2 2313   1.778   2.171   1.798  2.2615 -0.0826  1.3768
  772SOL     OW 2314   0.925   0.206   2.827 -0.3848 -0.3297  0.0677
  772SOL    HW1 2315   0.866   0.246   2.898 -1.2093 -1.0374 -0.7160
  772SOL    HW2 2316   0.985   0.278   2.790  0.5999  3.8564  2.3528
  773SOL     OW 2317   2.955   0.904   1.717 -0.4048  0.1406  0.2885
  773SOL    HW1 2318   2.929   0.841   1.795 -0.3639  0.4728  0.6956
  773SOL    HW2 2319   3.045   0.945   1.746 -0.7589 -0.3438 -0.1438
  774SOL     OW 2320   1.111   0.965   0.477 -0.0357  0.1747 -0.1515
  774SOL    HW1 2321   1.066   1.005   0.399  0.9729 -0.9242  0.2334
  774SOL    HW2 2322   1.145   1.038   0.542  0.2812 -1.1612  1.9089
  775SOL     OW 2323   2.689   3.012   0.049  0.4475 -0.6891 -0.3898
  775SOL    HW1 2324   2.712   3.087   3.089 -1.9483 -1.4153  0.4709
  775SOL    HW2 2325   2.609   2.958   0.011  1.2385  1.1790  1.7143
  776SOL     OW 2326   2.544   1.092   2.036  0.1061 -0.2817 -0.1209
  776SOL    HW1 2327   2.517   1.068   1.939  0.9498  1.7323 -0.7935
  776SOL    HW2 2328   2.524   1.014   2.099  0.5154 -0.8902  0.3736
  777SOL     OW 2329   3.065   1.267   2.638  0.1157  1.2466 -0.0216
  777SOL    HW1 2330   3.074   1.172   2.601  0.3056 -0.4482  1.6529
  777SOL    HW2 2331   2.988   1.317   2.593 -0.7877  0.0850 -0.3364
  778SOL     OW 2332   0.730   0.200   0.258  0.0852 -0.3751 -0.1498
  778SOL    HW1 2333   0.814   0.184   0.205 -2.8976 -2.5096  1.2673
  778SOL    HW2 2334   0.691   0.111   0.294 -0.4540  1.9610  0.2737
  779SOL     OW 2335   0.518   0.424   2.904 -0.3364 -0.1755 -0.4411
  779SOL    HW1 2336   0.561   0.478   2.972  1.5227 -0.1333 -1.4286
  779SOL    HW2 2337   0.451   0.478   2.847  0.2181 -0.3746  1.7194
  780SOL     OW 2338   1.771   0.805   2.606 -0.0391  0.4019  0.3993
  780SOL    HW1 2339   1.772   0.782   2.507 -0.1614  3.4708 -3.0597
  780SOL    HW2 2340   1.867   0.823   2.628  0.5085  2.3050 -0.4911
  781SOL     OW 2341   0.108   0.995   1.791  0.7068 -0.2304  0.0317
  781SOL    HW1 2342   0.169   0.928   1.752 -4.3132  1.5556 -2.0197
  781SOL    HW2 2343   0.112   1.001   1.891 -0.3882 -0.4412 -0.5398
  782SOL     OW 2344   0.829   1.746   2.897  0.0782 -0.1466 -0.0855
  782SOL    HW1 2345   0.760   1.789   2.954 -0.0701 -0.6175 -0.4583
  782SOL    HW2 2346   0.888   1.685   2.954  0.0027  0.2658 -0.9984
  783SOL     OW 2347   0.952   2.548   1.790 -0.2546 -0.5307 -1.1180
  783SOL    HW1 2348   0.863   2.583   1.757  0.1532  1.3934  0.0796
  783SOL    HW2 2349   0.998   2.497   1.719 -4.2681  1.8956 -1.3099
  784SOL     OW 2350   1.312   0.259   2.925  0.5594 -0.0994 -0.0299
  784SOL    HW1 2351   1.247   0.322   2.871 -0.1328  2.2036 -0.8881
  784SOL    HW2 2352   1.398   0.308   2.949  0.6205  4.0342  0.8514
  785SOL     OW 2353   1.191   0.360   2.493  0.0229  0.1314 -0.4447
  785SOL    HW1 2354   1.180   0.381   2.593  0.1491 -0.1046 -0.1569
  785SOL    HW2 2355   1.287   0.360   2.474 -5.5419  2.4981  0.4710
  786SOL     OW 2356   0.595   1.746   0.487  0.7289 -0.1295  0.1652
  786SOL    HW1 2357   0.560   1.668   0.433 -1.9911  1.8708  0.3182
  786SOL    HW2 2358   0.512   1.811   0.497  0.3303  0.4455  0.4398
  787SOL     OW 2359   1.466   1.020   0.246 -0.4922  0.0934 -0.4961
  787SOL    HW1 2360   1.387   1.065   0.197 -1.5156 -0.2520 -0.0290
  787SOL    HW2 2361   1.467   1.066   0.341  1.0447  4.0929  0.1924
  788SOL     OW 2362   2.135   1.465   1.282 -0.1908  0.0416 -0.2014
  788SOL    HW1 2363   2.163   1.513   1.199 -0.8276 -2.6564 -1.0478
  788SOL    HW2 2364   2.160   1.521   1.367 -1.3319  0.9305  1.2428
  789SOL     OW 2365   3.072   1.728   1.987 -0.8680 -0.8624 -0.2250
  789SOL    HW1 2366   0.043   1.725   1.918  2.2939 -0.0509 -0.4983
  789SOL    HW2 2367   0.004   1.708   2.082  0.9452 -3.2217  1.0528
  790SOL     OW 2368   0.675   2.908   0.045  0.2639  0.0680  0.3745
  790SOL    HW1 2369   0.661   2.991   3.091 -1.1109 -0.6888 -0.2662
  790SOL    HW2 2370   0.582   2.871   0.074 -0.7682 -0.2860  0.9125
  791SOL     OW 2371   0.368   0.518   0.097  0.2659 -0.3931  0.3396
  791SOL    HW1 2372   0.433   0.501   0.168  1.0832  0.9957  1.7190
  791SOL    HW2 2373   0.344   0.432   0.050  0.6622  0.9434 -0.8125
  792SOL     OW 2374   1.839   0.667   2.366  0.0256 -0.2075  0.0438
  792SOL    HW1 2375   1.877   0.577   2.378  0.5491 -1.9217 -1.9918
  792SOL    HW2 2376   1.891   0.714   2.297 -1.3722 -1.0533  1.3870
  793SOL     OW 2377   3.018   0.569   0.823  0.4212  0.2858 -0.0004
  793SOL    HW1 2378   3.023   0.605   0.725 -0.5115 -0.7992 -2.0832
  793SOL    HW2 2379   0.010   0.554   0.855 -3.2399  0.5978 -0.3653
  794SOL     OW 2380   0.555   0.464   1.627 -0.1957 -0.3653  0.2249
  794SOL    HW1 2381   0.653   0.480   1.623  0.4382  1.2115  1.9327
  794SOL    HW2 2382   0.529   0.376   1.590 -0.0500 -0.4390  1.3431
  795SOL     OW 2383   3.068   1.095   0.106  0.3310  0.1995 -0.0085
  795SOL    HW1 2384   0.039   1.157   0.122 -0.2789 -2.7845 -1.8109
  795SOL    HW2 2385   3.023   1.100   0.010 -3.9056  3.0083  0.0948
  796SOL     OW 2386   0.208   0.701   3.094 -0.2827  0.1243  0.0465
  796SOL    HW1 2387   0.259   0.622   0.035 -0.8042  0.2982 -0.0048
  796SOL    HW2 2388   0.156   0.741   0.066  1.0731 -0.2092  0.6138
  797SOL     OW 2389   1.400   2.613   0.005 -0.1927 -0.4318 -0.0574
  797SOL    HW1 2390   1.345   2.693   3.087  0.8546 -0.8794  0.4787
  797SOL    HW2 2391   1.373   2.536   3.044  1.0772 -1.2099 -1.2708
  798SOL     OW 2392   2.849   0.522   1.036 -0.6673 -0.0283 -0.0760
  798SOL    HW1 2393   2.757   0.475   1.032 -0.1386  1.5469 -0.6822
  798SOL    HW2 2394   2.894   0.542   0.946 -1.3576  2.7259  2.0380
  799SOL     OW 2395   2.675   0.686   1.975 -0.0866  0.3533 -0.1525
  799SOL    HW1 2396   2.652   0.762   1.915  0.2771 -0.8854  3.5255
  799SOL    HW2 2397   2.673   0.705   2.075  1.4168  0.2933 -0.2245
  800SOL     OW 2398   3.093   2.039   0.436  0.5069  0.2471 -0.3991
  800SOL    HW1 2399   0.035   1.980   0.507  2.1538 -0.0379  3.1233
  800SOL    HW2 2400   3.005   2.081   0.468 -0.5178 -1.6392 -0.0513
  801SOL     OW 2401   1.583   2.003   0.860  0.3551 -0.0344  0.1207
  801SOL    HW1 2402   1.601   1.975   0.764  0.0693  0.8657 -2.0918
  801SOL    HW2 2403   1.575   1.924   0.922  1.6918  1.7049 -0.5662
  802SOL     OW 2404   1.195   1.611   2.715 -0.2596  0.1032  0.0661
  802SOL    HW1 2405   1.099   1.607   2.677 -0.9133 -3.6060  3.1424
  802SOL    HW2 2406   1.235   1.699   2.693 -1.6286 -1.3184  0.7661
  803SOL     OW 2407   3.016   2.076   1.594  0.4395 -0.1098  0.1873
  803SOL    HW1 2408   3.022   2.107   1.498  1.7199  1.1274  1.4957
  803SOL    HW2 2409   0.001   2.045   1.634 -2.5926 -1.2656  1.4861
  804SOL     OW 2410   1.255   2.525   1.421 -0.3676 -0.1998  0.3387
  804SOL    HW1 2411   1.331   2.468   1.385  3.5755 -0.4476 -0.0999
  804SOL    HW2 2412   1.224   2.595   1.353 -0.9483  2.1380  1.4273
  805SOL     OW 2413   2.354   2.029   2.845  0.7042 -0.3817 -0.4997
  805SOL    HW1 2414   2.350   2.133   2.836  0.8757  2.6618 -0.7212
  805SOL    HW2 2415   2.309   1.989   2.760  0.1263 -0.4775  2.4106
  806SOL     OW 2416   2.109   3.101   0.656  0.0685 -0.2671 -0.0579
  806SOL    HW1 2417   2.199   3.072   0.691  0.9017  0.0538 -1.8298
  806SOL    HW2 2418   2.035   3.051   0.705  0.0996 -0.3606  1.1399
  807SOL     OW 2419   2.839   0.728   2.840  0.1852  0.7112  0.1036
  807SOL    HW1 2420   2.812   0.682   2.754  1.8827  0.4228 -0.2738
  807SOL    HW2 2421   2.792   0.693   2.927 -3.8050  0.5287 -1.4862
  808SOL     OW 2422   0.695   1.319   0.577 -0.0568  0.0826 -0.0741
  808SOL    HW1 2423   0.649   1.388   0.516 -1.7441 -0.3143  1.4018
  808SOL    HW2 2424   0.655   1.228   0.583  3.3668 -0.0018 -1.4209
  809SOL     OW 2425   2.693   0.433   1.882  0.4365  0.7132  0.0768
  809SOL    HW1 2426   2.688   0.531   1.912 -0.5936 -1.6870 -0.4518
  809SOL    HW2 2427   2.710   0.426   1.781 -0.0451  0.7712 -1.5033
  810SOL     OW 2428   1.152   0.557   1.247  0.2578 -0.1488  0.4029
  810SOL    HW1 2429   1.104   0.534   1.161 -0.5648 -3.8253  0.0970
  810SOL    HW2 2430   1.250   0.529   1.246  0.0705 -0.1970  0.8784
  811SOL     OW 2431   2.343   2.912   1.672  0.0018  0.7504  0.0479
  811SOL    HW1 2432   2.273   2.921   1.748  0.0604 -0.5863 -1.0525
  811SOL    HW2 2433   2.409   2.838   1.697  1.2616 -1.7184  0.5652
  812SOL     OW 2434   1.843   2.170   0.031 -0.2133  0.2607  0.1390
  812SOL    HW1 2435   1.776   2.230   0.075  1.7396 -0.9599 -1.0608
  812SOL    HW2 2436   1.941   2.185   0.060 -1.9674 -1.6600 -0.8375
  813SOL     OW 2437   1.169   0.672   1.737 -0.3531 -0.3332 -0.9218
  813SOL    HW1 2438   1.139   0.595   1.680  1.6349  2.7670 -0.6035
  813SOL    HW2 2439   1.260   0.709   1.712 -1.7656  0.2366  1.0852
  814SOL     OW 2440   0.404   0.431   1.163 -0.0062  0.2484  0.3921
  814SOL    HW1 2441   0.458   0.479   1.238 -0.9131  2.7589 -0.4527
  814SOL    HW2 2442   0.360   0.349   1.197  1.8206 -1.7346  0.5778
  815SOL     OW 2443   0.802   0.344   0.505  0.1202 -0.5204  0.0087
  815SOL    HW1 2444   0.807   0.332   0.404 -1.5897  1.6028 -1.0126
  815SOL    HW2 2445   0.729   0.407   0.527  2.7005 -0.7580 -0.6120
  816SOL     OW 2446   2.178   1.660   2.547  0.0850  0.4616 -0.3252
  816SOL    HW1 2447   2.193   1.705   2.638  1.3618  0.0817  2.9134
  816SOL    HW2 2448   2.267   1.647   2.500 -1.5339  1.1719  1.8343
  817SOL     OW 2449   1.390   2.770   0.863  0.4569  0.2723  0.2515
  817SOL    HW1 2450   1.342   2.687   0.824 -1.0978  0.5147 -1.3652
  817SOL    HW2 2451   1.419   2.839   0.792 -0.8009  3.8763 -0.5525
  818SOL     OW 2452   1.808   0.463   2.983  0.2774 -0.6229 -0.0109
  818SOL    HW1 2453   1.868   0.490   3.061  0.8382  0.9403 -3.5745
  818SOL    HW2 2454   1.767   0.548   2.938 -3.5300  0.5274 -0.3777
  819SOL     OW 2455   1.807   0.275   0.140  0.3754  0.4408 -0.0193
  819SOL    HW1 2456   1.826   0.185   0.097  0.3590 -1.0483 -3.7065
  819SOL    HW2 2457   1.875   0.283   0.220  0.8866 -0.3181 -1.3142
  820SOL     OW 2458   1.962   0.627   0.069  0.2095  0.3957 -0.3345
  820SOL    HW1 2459   1.999   0.713   0.026  1.2796  1.3626 -0.7611
  820SOL    HW2 2460   2.038   0.582   0.114 -1.8938  1.1140 -0.5043
  821SOL     OW 2461   2.736   0.535   0.728  0.2815 -0.3339  0.5019
  821SOL    HW1 2462   2.831   0.551   0.765 -0.5873  0.6050  0.5322
  821SOL    HW2 2463   2.739   0.461   0.659 -0.5936  3.4552  0.0495
  822SOL     OW 2464   0.981   2.085   2.016  0.7040  0.0138  0.2231
  822SOL    HW1 2465   1.006   2.104   2.111  0.6378  0.6455 -1.4554
  822SOL    HW2 2466   0.879   2.085   2.006 -0.8296 -1.4446 -0.9605
  823SOL     OW 2467   0.147   1.693   1.781  0.1861 -0.8134  0.1258
  823SOL    HW1 2468   0.244   1.666   1.813  1.4089 -1.6403  1.8786
  823SOL    HW2 2469   0.126   1.665   1.688  2.2839 -0.4947  1.8864
  824SOL     OW 2470   1.428   2.701   2.688 -0.5184 -0.3536 -0.2185
  824SOL    HW1 2471   1.492   2.627   2.661 -1.7904 -0.7289 -1.4438
  824SOL    HW2 2472   1.429   2.712   2.790 -2.7009  0.3056  1.0189
  825SOL     OW 2473   1.756   0.739   0.649  0.6059 -0.7492  0.0776
  825SOL    HW1 2474   1.820   0.737   0.569  0.3565 -2.3537 -0.1565
  825SOL    HW2 2475   1.796   0.790   0.728 -3.0617 -0.7453 -0.6874
  826SOL     OW 2476   2.054   0.898   3.098  0.1070 -0.3857  0.1780
  826SOL    HW1 2477   2.047   0.910   0.094  0.7735  3.6505  0.4709
  826SOL    HW2 2478   1.961   0.897   3.055  0.4332  1.9232 -0.2804
  827SOL     OW 2479   0.443   1.725   2.095  0.2136  0.1037 -0.2046
  827SOL    HW1 2480   0.374   1.799   2.086 -0.6346  1.2177  1.3576
  827SOL    HW2 2481   0.405   1.637   2.134  0.1134 -1.8819 -1.0530
  828SOL     OW 2482   2.315   1.347   1.539 -0.3737 -0.2110 -0.3122
  828SOL    HW1 2483   2.395   1.333   1.597 -0.3904  2.0567  1.5061
  828SOL    HW2 2484   2.344   1.332   1.445 -0.3371 -1.4503  0.1664
  829SOL     OW 2485   0.213   1.679   0.367  0.0801 -0.1933 -0.2513
  829SOL    HW1 2486   0.234   1.593   0.420  1.0897 -3.3467 -0.7931
  829SOL    HW2 2487   0.143   1.736   0.414  1.2082 -1.2057 -1.6136
  830SOL     OW 2488   1.454   0.907   0.745  0.4602 -0.3941 -0.0851
  830SOL    HW1 2489   1.527   0.842   0.780 -1.1749  0.8637  0.2668
  830SOL    HW2 2490   1.390   0.861   0.680 -4.6282  0.6750 -0.3355
  831SOL     OW 2491   2.869   1.880   3.097 -0.4583 -0.0647 -0.3316
  831SOL    HW1 2492   2.932   1.801   3.065  2.8779 -0.7278 -0.4077
  831SOL    HW2 2493   2.767   1.855   3.082 -1.4903 -1.3436 -3.2246
  832SOL     OW 2494   0.972   0.249   0.122 -0.0608 -0.3947 -0.3799
  832SOL    HW1 2495   1.045   0.280   0.183  0.5097  1.8377  0.0697
  832SOL    HW2 2496   1.005   0.187   0.049 -0.6509  1.3285  0.1036
  833SOL     OW 2497   0.658   0.691   2.383  0.1830  0.4361 -0.5966
  833SOL    HW1 2498   0.710   0.617   2.333 -0.4124 -3.0506 -1.9058
  833SOL    HW2 2499   0.629   0.650   2.471 -0.0864 -0.6746 -0.5015
  834SOL     OW 2500   0.212   0.295   0.575 -0.0738 -0.1451 -0.2189
  834SOL    HW1 2501   0.276   0.285   0.654 -2.7386 -0.6402  0.1337
  834SOL    HW2 2502   0.254   0.281   0.481 -2.1006 -1.3250 -2.4840
  835SOL     OW 2503   2.746   2.753   1.146  0.8305  0.1385  0.0823
  835SOL    HW1 2504   2.825   2.751   1.206  0.1295 -1.7205  0.1864
  835SOL    HW2 2505   2.710   2.850   1.158  1.2489  1.2056 -1.3061
  836SOL     OW 2506   0.406   1.810   0.199 -0.1901  0.0788 -0.7009
  836SOL    HW1 2507   0.404   1.907   0.227  0.1549  3.1252  1.9641
  836SOL    HW2 2508   0.340   1.754   0.258  0.0761  0.9167  2.1887
  837SOL     OW 2509   1.753   1.565   2.260  0.0877 -0.4791  0.2101
  837SOL    HW1 2510   1.711   1.651   2.296  1.0282  2.1221  2.2019
  837SOL    HW2 2511   1.850   1.548   2.286 -0.8044  1.8568 -1.6010
  838SOL     OW 2512   0.652   0.883   1.796  0.1250 -0.1322  0.9938
  838SOL    HW1 2513   0.739   0.834   1.791 -1.2773  2.7943  3.6206
  838SOL    HW2 2514   0.664   0.976   1.834 -1.3993  0.1580 -2.1111
  839SOL     OW 2515   0.280   1.311   0.915 -0.3538  0.7925 -0.2177
  839SOL    HW1 2516   0.291   1.305   1.020  0.6451 -0.1825  1.1949
  839SOL    HW2 2517   0.256   1.223   0.864  1.3754 -3.0109  0.0597
  840SOL     OW 2518   2.088   0.138   1.710  0.5976  0.8673 -0.0326
  840SOL    HW1 2519   1.988   0.106   1.698 -0.0664 -2.2676  3.2575
  840SOL    HW2 2520   2.116   0.115   1.805 -2.4375  0.2339 -0.2724
  841SOL     OW 2521   0.649   2.194   0.431  0.2917  0.2140  0.4169
  841SOL    HW1 2522   0.749   2.202   0.425 -2.2023 -2.1980 -1.4053
  841SOL    HW2 2523   0.614   2.246   0.351  0.4728  0.1817 -3.4808
  842SOL     OW 2524   0.374   0.234   0.773  0.7608  0.1581 -0.3137
  842SOL    HW1 2525   0.420   0.315   0.819 -2.9472  1.0559 -1.2536
  842SOL    HW2 2526   0.440   0.160   0.758 -1.8516  1.2114 -1.0887
  843SOL     OW 2527   0.126   1.426   2.986  0.0308  0.1779 -0.5991
  843SOL    HW1 2528   0.127   1.464   3.082  1.5906  1.9262 -0.2490
  843SOL    HW2 2529   0.084   1.334   2.981 -0.3783  0.8109  3.3131
  844SOL     OW 2530   1.155   2.300   0.061  0.5502 -0.9639 -0.4599
  844SOL    HW1 2531   1.120   2.208   0.032 -2.8403 -1.7523 -0.7267
  844SOL    HW2 2532   1.189   2.349   3.083 -1.3778  1.3557 -0.7822
  845SOL     OW 2533   2.494   2.949   2.436 -0.0699 -0.4655 -0.0586
  845SOL    HW1 2534   2.579   2.962   2.377  1.9839 -1.3268  1.9417
  845SOL    HW2 2535   2.423   3.008   2.401  1.1060 -2.1814  0.1916
  846SOL     OW 2536   2.116   1.858   0.003 -0.2212  0.2366  0.0522
  846SOL    HW1 2537   2.096   1.931   3.040  0.5733  0.8401  0.6582
  846SOL    HW2 2538   2.029   1.812   0.032 -0.1600  0.4308 -2.3777
  847SOL     OW 2539   2.580   0.195   3.018 -0.0820  0.2689  0.5114
  847SOL    HW1 2540   2.515   0.241   2.952 -0.9608 -0.0849  0.2821
  847SOL    HW2 2541   2.560   0.219   0.011  0.2787  2.1766  1.4951
  848SOL     OW 2542   0.320   0.534   0.679 -0.1756  0.0181 -0.1247
  848SOL    HW1 2543   0.333   0.499   0.775 -4.0763  0.2961  1.4310
  848SOL    HW2 2544   0.270   0.464   0.627 -0.2297  0.4010 -0.1362
  849SOL     OW 2545   1.324   2.892   2.177 -0.3645 -0.1416 -0.2045
  849SOL    HW1 2546   1.326   2.827   2.256 -0.7140 -1.5717  1.3189
  849SOL    HW2 2547   1.244   2.875   2.117 -0.9319  1.0866 -0.8086
  850SOL     OW 2548   0.529   1.510   0.358  0.0953 -0.0195  0.1887
  850SOL    HW1 2549   0.451   1.455   0.392  2.5840  0.3385  2.5446
  850SOL    HW2 2550   0.552   1.493   0.261 -1.4272  1.1851  2.9044
  851SOL     OW 2551   0.185   1.269   0.175 -0.3824 -0.1388 -0.2414
  851SOL    HW1 2552   0.226   1.363   0.166  0.7288 -0.6739  0.9086
  851SOL    HW2 2553   0.142   1.250   0.264 -0.8028  2.0184  0.2120
  852SOL     OW 2554   1.600   2.757   1.768 -0.3427  0.3332 -0.1777
  852SOL    HW1 2555   1.540   2.705   1.710  5.1952  3.1303 -0.0219
  852SOL    HW2 2556   1.560   2.840   1.803  0.2323 -1.1756 -1.3880
  853SOL     OW 2557   2.772   1.510   0.006  0.6720 -0.4956  0.1940
  853SOL    HW1 2558   2.835   1.578   3.069 -1.3988 -0.2871  0.2266
  853SOL    HW2 2559   2.745   1.540   0.099  3.7258 -0.0058  0.8771
  854SOL     OW 2560   1.684   1.426   2.028  0.4819 -0.7366 -0.6707
  854SOL    HW1 2561   1.683   1.499   2.099 -0.6903  1.2695  2.3136
  854SOL    HW2 2562   1.586   1.399   2.002  0.4873  1.9924  0.4204
  855SOL     OW 2563   0.435   2.321   3.057  0.1349  0.4892 -0.0788
  855SOL    HW1 2564   0.347   2.370   3.076 -3.5520  2.0582 -0.5877
  855SOL    HW2 2565   0.496   2.375   2.990  0.7374 -0.2627 -0.5622
  856SOL     OW 2566   0.358   0.834   1.811  0.0927 -0.1404 -0.4399
  856SOL    HW1 2567   0.335   0.788   1.897 -0.2100  0.7438 -3.1019
  856SOL    HW2 2568   0.457   0.855   1.806 -1.6661 -2.9953 -0.8784
  857SOL     OW 2569   1.204   1.006   2.217 -0.1030 -0.2060  0.4222
  857SOL    HW1 2570   1.261   0.923   2.206  1.2641 -1.9769  0.0039
  857SOL    HW2 2571   1.256   1.087   2.241  1.1096  3.5923  1.2532
  858SOL     OW 2572   0.299   1.227   2.563  0.1538  0.6113 -0.5306
  858SOL    HW1 2573   0.225   1.277   2.616  0.0779 -1.9025 -0.3145
  858SOL    HW2 2574   0.267   1.143   2.510  0.4132 -2.1754 -0.3034
  859SOL     OW 2575   2.642   3.016   1.093  0.1721  0.1312 -0.4888
  859SOL    HW1 2576   2.565   3.078   1.107  0.6171 -1.6773  0.1998
  859SOL    HW2 2577   2.728   3.069   1.068  0.6110  2.2528 -0.3042
  860SOL     OW 2578   2.152   2.887   0.089 -0.4007  0.0005  0.1677
  860SOL    HW1 2579   2.239   2.870   0.137 -1.3494  1.1882  0.8070
  860SOL    HW2 2580   2.146   2.812   0.019 -0.3189 -0.4310 -2.4127
  861SOL     OW 2581   1.039   0.467   0.610 -0.0028  0.3226 -0.2029
  861SOL    HW1 2582   0.959   0.417   0.571  0.8371  0.1040  0.9564
  861SOL    HW2 2583   1.055   0.556   0.554 -1.4264  2.0537 -1.8556
  862SOL     OW 2584   1.455   0.321   2.443 -0.3606  0.5881  0.0414
  862SOL    HW1 2585   1.522   0.363   2.508 -0.1647  1.4008  0.4685
  862SOL    HW2 2586   1.457   0.220   2.442  1.6345 -0.8600 -0.6348
  863SOL     OW 2587   2.415   2.312   0.897 -0.2744  0.0269 -0.1181
  863SOL    HW1 2588   2.384   2.354   0.980  0.9934 -1.8159  0.1217
  863SOL    HW2 2589   2.468   2.220   0.915 -0.3603 -2.7988 -0.0720
  864SOL     OW 2590   2.856   0.100   1.762 -0.8336 -0.1285 -0.1823
  864SOL    HW1 2591   2.859   0.011   1.807  1.5321  1.8431 -2.2705
  864SOL    HW2 2592   2.848   0.171   1.837  0.6762 -1.1377  1.6237
  865SOL     OW 2593   1.252   0.672   2.006  0.5416 -0.3425  0.0977
  865SOL    HW1 2594   1.320   0.601   2.007 -3.9697  1.5547 -2.5434
  865SOL    HW2 2595   1.230   0.691   1.909  0.5732  0.1688  2.8021
  866SOL     OW 2596   1.802   2.796   1.208  0.1487  0.3093  0.2759
  866SOL    HW1 2597   1.896   2.767   1.176 -1.6029 -0.4896 -0.7936
  866SOL    HW2 2598   1.786   2.895   1.177 -0.5175 -2.4334  0.0980
  867SOL     OW 2599   2.803   2.352   0.544 -0.2816 -0.0530 -0.3793
  867SOL    HW1 2600   2.868   2.424   0.511  0.7888  0.9218  0.8632
  867SOL    HW2 2601   2.728   2.390   0.601  1.8578  0.6659 -0.9933
  868SOL     OW 2602   0.532   2.194   1.587  0.3557 -0.1339 -0.0509
  868SOL    HW1 2603   0.440   2.229   1.608  1.2910  0.3255 -0.7041
  868SOL    HW2 2604   0.541   2.179   1.486 -0.6889 -0.2545 -1.2811
  869SOL     OW 2605   2.326   2.309   3.083 -0.3971 -0.0184 -0.2520
  869SOL    HW1 2606   2.336   2.303   2.980 -1.0010 -0.2117  2.1452
  869SOL    HW2 2607   2.379   2.395   0.008  2.2953 -1.4619 -0.5578
  870SOL     OW 2608   1.819   1.775   1.138 -0.4245  0.1535 -0.1078
  870SOL    HW1 2609   1.859   1.798   1.049  0.5762 -0.0559  1.9516
  870SOL    HW2 2610   1.846   1.679   1.167  0.5574 -0.1247  1.1788
  871SOL     OW 2611   0.133   1.962   1.713 -0.0962  0.4294  0.0930
  871SOL    HW1 2612   0.136   1.869   1.756  0.6539 -0.4792  2.9374
  871SOL    HW2 2613   0.190   2.023   1.769  0.4177 -3.0303 -3.3267
  872SOL     OW 2614   0.469   1.435   2.538  0.2268 -0.5301  0.5488
  872SOL    HW1 2615   0.428   1.527   2.517  0.7469  0.1757  1.1659
  872SOL    HW2 2616   0.408   1.355   2.546  1.9588  0.9886 -1.5580
  873SOL     OW 2617   0.925   1.969   1.710 -0.1462  0.2466 -0.1977
  873SOL    HW1 2618   0.951   1.939   1.806 -2.6985  1.3908  3.5055
  873SOL    HW2 2619   0.871   2.054   1.715 -0.6628  0.0728 -0.7923
  874SOL     OW 2620   1.421   0.993   1.936 -0.1370 -0.0572  0.3930
  874SOL    HW1 2621   1.470   1.045   1.865 -1.4590 -1.5939  0.5897
  874SOL    HW2 2622   1.382   0.905   1.896 -1.0400 -0.7742 -0.1701
  875SOL     OW 2623   2.985   2.833   0.899 -0.4402  0.1972 -0.0607
  875SOL    HW1 2624   2.954   2.787   0.985 -1.8134  1.2273  3.7397
  875SOL    HW2 2625   3.063   2.785   0.856  1.6341 -1.1142 -2.6754
  876SOL     OW 2626   1.245   1.479   0.225 -0.4636  0.6106 -0.2786
  876SOL    HW1 2627   1.299   1.410   0.177  2.2829  2.8741  1.7618
  876SOL    HW2 2628   1.156   1.446   0.261 -0.9308  1.8747 -0.3030
  877SOL     OW 2629   2.693   0.309   1.080  0.5090 -0.0201  0.2837
  877SOL    HW1 2630   2.745   0.229   1.054 -1.5006 -0.2049  2.3455
  877SOL    HW2 2631   2.604   0.308   1.040  4.2183 -2.2603 -0.4808
  878SOL     OW 2632   2.153   1.549   0.488 -0.1683 -0.2337 -0.2928
  878SOL    HW1 2633   2.074   1.567   0.425 -0.3948  0.7700 -0.3067
  878SOL    HW2 2634   2.236   1.561   0.428  1.1101  1.9202  1.5733
  879SOL     OW 2635   2.365   1.831   1.038  0.1194  0.6067  0.3026
  879SOL    HW1 2636   2.286   1.823   0.979  1.6024  1.6057  3.1848
  879SOL    HW2 2637   2.390   1.739   1.076  0.8120 -0.9162 -0.5828
  880SOL     OW 2638   0.438   2.460   0.855  0.4810 -0.2655 -0.4783
  880SOL    HW1 2639   0.344   2.490   0.872  1.5042 -1.1316 -2.0451
  880SOL    HW2 2640   0.453   2.427   0.761 -0.0292 -0.3657 -1.0445
  881SOL     OW 2641   1.160   1.181   0.667  0.4871  0.0096  0.1848
  881SOL    HW1 2642   1.085   1.151   0.734  1.1876 -0.8605  3.7220
  881SOL    HW2 2643   1.249   1.169   0.718 -0.6061  0.5592 -0.3150
  882SOL     OW 2644   2.300   1.026   0.034 -0.5539 -0.5665  0.0209
  882SOL    HW1 2645   2.332   1.109   3.082  0.7526 -2.5434 -1.2976
  882SOL    HW2 2646   2.208   0.995   0.006  1.5161 -0.7993  0.1318
  883SOL     OW 2647   1.516   3.034   1.812 -0.2209 -0.0622 -0.1963
  883SOL    HW1 2648   1.428   3.031   1.865  0.6903 -3.3118 -0.2863
  883SOL    HW2 2649   1.496   3.043   1.718 -0.3880  1.9997  0.3735
  884SOL     OW 2650   2.843   0.101   1.030  0.0085  0.0879  0.1735
  884SOL    HW1 2651   2.916   0.096   1.104  0.7337  0.5557  0.3073
  884SOL    HW2 2652   2.879   0.079   0.940 -0.6311  0.6304  0.5419
  885SOL     OW 2653   1.168   0.947   1.561 -0.3107  0.0173  0.6389
  885SOL    HW1 2654   1.245   1.007   1.588 -1.0262  1.5639 -0.4458
  885SOL    HW2 2655   1.185   0.898   1.468 -0.5766 -1.1041 -0.0188
  886SOL     OW 2656   1.567   0.977   2.573 -0.2326 -0.4142  0.4456
  886SOL    HW1 2657   1.565   1.038   2.487 -0.9906  0.2835 -1.8848
  886SOL    HW2 2658   1.648   0.919   2.584 -1.7852 -0.2082  0.7090
  887SOL     OW 2659   1.561   0.704   1.265  0.1889 -0.2500  0.7896
  887SOL    HW1 2660   1.534   0.655   1.181  0.3568 -2.5947  0.0161
  887SOL    HW2 2661   1.547   0.803   1.255 -1.2214 -0.9773  2.0843
  888SOL     OW 2662   2.269   1.551   1.766 -0.2547 -0.2943 -0.0122
  888SOL    HW1 2663   2.262   1.452   1.786 -0.7836 -2.5124 -1.1916
  888SOL    HW2 2664   2.322   1.586   1.845  1.0074  0.0422 -0.1077
  889SOL     OW 2665   1.891   2.053   0.685 -0.2474  0.2570  0.0753
  889SOL    HW1 2666   1.966   2.119   0.667  1.5184 -1.3664  0.9614
  889SOL    HW2 2667   1.801   2.096   0.655 -0.7905  2.6148 -1.4255
  890SOL     OW 2668   0.993   1.964   0.622  0.0665 -0.7665  0.0711
  890SOL    HW1 2669   1.060   1.898   0.582 -0.1124  0.0560  3.1862
  890SOL    HW2 2670   0.922   1.910   0.680  0.9317  2.2815  2.6746
  891SOL     OW 2671   2.743   0.583   2.635  0.2567  0.5108  0.0839
  891SOL    HW1 2672   2.761   0.485   2.610 -1.2740 -0.4843 -0.8029
  891SOL    HW2 2673   2.653   0.613   2.599  0.0515  1.5207  0.3299
  892SOL     OW 2674   0.939   0.501   2.502  0.0656  0.2795  0.3437
  892SOL    HW1 2675   0.875   0.465   2.570  2.1952  1.5574 -0.8217
  892SOL    HW2 2676   1.029   0.454   2.502  1.1939 -3.3740  3.0036
  893SOL     OW 2677   1.674   0.223   1.391  0.9495  0.5542  0.8035
  893SOL    HW1 2678   1.639   0.138   1.346 -1.2755  0.4721  0.5216
  893SOL    HW2 2679   1.606   0.282   1.437 -2.1503  0.7294  2.8327
  894SOL     OW 2680   2.737   0.338   0.517 -0.1135 -0.2789 -0.2930
  894SOL    HW1 2681   2.704   0.272   0.585  0.2351  2.6048 -0.4714
  894SOL    HW2 2682   2.781   0.288   0.442 -4.1176  1.4234 -1.4889
  895SOL     OW 2683   2.154   2.656   3.019 -0.3668  0.2728 -0.3979
  895SOL    HW1 2684   2.058   2.628   2.997 -0.8169  0.0737  2.3397
  895SOL    HW2 2685   2.179   2.624   0.009 -1.3784  0.6038 -0.7795
  896SOL     OW 2686   1.831   0.036   1.689  0.3441  0.4032 -0.0889
  896SOL    HW1 2687   1.767   0.114   1.706 -0.8780  0.0874  1.0911
  896SOL    HW2 2688   1.812   3.098   1.597  1.1253  0.6090 -2.2956
  897SOL     OW 2689   0.220   2.323   1.819 -0.3031  0.7873  0.2876
  897SOL    HW1 2690   0.236   2.356   1.727 -0.4243  0.9375 -0.4345
  897SOL    HW2 2691   0.278   2.241   1.842 -2.5398  0.2952  0.8277
  898SOL     OW 2692   2.377   1.714   1.979  0.6542  0.1034 -0.4020
  898SOL    HW1 2693   2.432   1.734   1.894  0.6665 -0.3230 -1.0948
  898SOL    HW2 2694   2.389   1.790   2.050 -0.1198 -1.3511  1.2505
  899SOL     OW 2695   1.671   2.241   0.917  0.6746  0.9062 -0.0040
  899SOL    HW1 2696   1.770   2.244   0.944 -0.0544 -1.1977  0.1728
  899SOL    HW2 2697   1.644   2.147   0.899 -0.7205 -0.5009  1.8133
  900SOL     OW 2698   0.651   0.032   2.971 -0.2779  0.0134  0.2006
  900SOL    HW1 2699   0.617   3.074   2.898 -0.5855  1.6174  0.6408
  900SOL    HW2 2700   0.697   0.112   2.930  0.1069  1.0246  0.3664
  901SOL     OW 2701   1.319   1.703   2.389  0.2644 -0.3594  0.1601
  901SOL    HW1 2702   1.370   1.712   2.477  2.8046  1.2042  0.2305
  901SOL    HW2 2703   1.223   1.702   2.407 -0.5250 -1.6136 -0.8613
  902SOL     OW 2704   0.062   0.615   2.668 -0.1494 -0.0917  0.9041
  902SOL    HW1 2705   0.029   0.610   2.765 -0.3400 -1.7337  3.0159
  902SOL    HW2 2706   0.082   0.520   2.637  1.9149  0.4010  2.6859
  903SOL     OW 2707   2.205   0.535   2.311 -0.4734  0.7067 -0.4036
  903SOL    HW1 2708   2.302   0.504   2.332  3.5292  0.3992 -0.6523
  903SOL    HW2 2709   2.205   0.581   2.218  0.5945 -0.0315 -1.6955
  904SOL     OW 2710   1.572   0.597   2.299 -0.0556 -0.1669  0.5136
  904SOL    HW1 2711   1.650   0.652   2.341  2.7381  2.3518 -1.2561
  904SOL    HW2 2712   1.535   0.539   2.376  0.3148  1.6618 -0.0374
  905SOL     OW 2713   2.032   2.556   1.840  0.1973  0.0833 -0.5482
  905SOL    HW1 2714   1.966   2.547   1.919 -1.8813 -0.9434  1.1430
  905SOL    HW2 2715   2.087   2.471   1.813  0.8377 -3.3916  1.7365
  906SOL     OW 2716   1.766   2.062   0.366 -0.4368  0.0514 -0.1218
  906SOL    HW1 2717   1.864   2.024   0.363  3.2508 -0.6904 -0.8792
  906SOL    HW2 2718   1.766   2.139   0.299  0.5071 -1.6643  2.4239
  907SOL     OW 2719   1.287   3.014   1.047  0.1569  0.3691  0.3175
  907SOL    HW1 2720   1.338   3.099   1.025 -2.3597  2.4217  0.6573
  907SOL    HW2 2721   1.318   2.928   0.998  0.0795 -1.7943 -1.1538
  908SOL     OW 2722   1.741   2.166   2.440 -0.0372  0.4985  0.2400
  908SOL    HW1 2723   1.669   2.216   2.390 -1.5772 -0.2672  0.4028
  908SOL    HW2 2724   1.828   2.145   2.389 -0.7946 -0.9284  2.1839
  909SOL     OW 2725   2.137   0.095   1.959  0.4034  0.0320 -0.3617
  909SOL    HW1 2726   2.218   0.100   2.015 -0.9202  0.5539  0.5984
  909SOL    HW2 2727   2.075   0.166   1.995  0.8546  0.3667  1.2460
  910SOL     OW 2728   0.996   0.641   2.811 -0.0303 -0.1242 -0.3204
  910SOL    HW1 2729   1.003   0.669   2.908 -1.9934  0.9212  1.2079
  910SOL    HW2 2730   1.039   0.711   2.747  2.7307  2.8600 -0.4898
  911SOL     OW 2731   0.077   0.862   0.218  0.7613 -0.2297 -0.8014
  911SOL    HW1 2732   0.033   0.937   0.173  1.2655 -0.7733  1.6863
  911SOL    HW2 2733   0.001   0.805   0.263 -1.9429 -0.5025  0.4895
  912SOL     OW 2734   0.245   2.332   0.548 -0.4559  0.2773 -0.2299
  912SOL    HW1 2735   0.205   2.264   0.614 -0.2763 -1.9252  1.7800
  912SOL    HW2 2736   0.346   2.344   0.557  0.4830  1.3816  0.1336
  913SOL     OW 2737   2.658   2.418   2.045  1.0392  0.5267  0.1245
  913SOL    HW1 2738   2.699   2.326   2.061  2.3106  0.5517 -0.1461
  913SOL    HW2 2739   2.596   2.414   1.963 -0.8668 -0.4386 -2.4649
  914SOL     OW 2740   1.240   2.029   1.384 -0.6175  0.2488 -0.2567
  914SOL    HW1 2741   1.255   1.934   1.412 -1.0961  0.9604  0.3776
  914SOL    HW2 2742   1.283   2.050   1.295 -2.9215  1.1726  1.1868
  915SOL     OW 2743   0.308   2.846   1.973 -0.1568  0.2492  0.6002
  915SOL    HW1 2744   0.389   2.805   1.930 -0.8342  0.0156  0.0677
  915SOL    HW2 2745   0.322   2.944   2.009 -1.2310 -0.8991 -0.0744
  916SOL     OW 2746   0.831   0.447   1.582  0.4440 -0.8766  0.0180
  916SOL    HW1 2747   0.909   0.452   1.516  0.7942  0.4077  1.5094
  916SOL    HW2 2748   0.850   0.397   1.667 -1.9999  2.1027 -0.2769
  917SOL     OW 2749   2.541   0.736   0.321  0.0436  0.1068 -0.5802
  917SOL    HW1 2750   2.628   0.683   0.333  1.7560  0.6346 -2.2765
  917SOL    HW2 2751   2.461   0.681   0.349 -1.4720  0.5056 -0.8184
  918SOL     OW 2752   1.798   2.183   2.849 -0.1775 -0.1282 -0.1006
  918SOL    HW1 2753   1.831   2.270   2.811  1.1654 -0.7038 -0.0455
  918SOL    HW2 2754   1.785   2.187   2.947  0.5757  0.1250 -1.5059
  919SOL     OW 2755   1.513   2.740   1.250 -0.0978  0.2717  0.3834
  919SOL    HW1 2756   1.600   2.788   1.226 -0.4161  1.5599  1.1937
  919SOL    HW2 2757   1.525   2.644   1.293 -1.7088 -1.4092  0.8015
  920SOL     OW 2758   0.783   0.489   2.710 -0.1678 -0.1414  0.3919
  920SOL    HW1 2759   0.742   0.419   2.771  1.8542  1.7442  1.2651
  920SOL    HW2 2760   0.833   0.562   2.762 -0.6793  2.0737 -0.6168
  921SOL     OW 2761   3.095   0.626   2.932 -0.4506 -0.0304 -0.0056
  921SOL    HW1 2762   3.013   0.684   2.916 -2.5824 -2.9074  0.3240
  921SOL    HW2 2763   0.055   0.669   2.999 -2.4534 -1.8322 -1.1960
  922SOL     OW 2764   0.387   2.102   1.129 -0.4191  0.1281 -0.0776
  922SOL    HW1 2765   0.397   2.008   1.093 -1.4266 -1.2889  1.3591
  922SOL    HW2 2766   0.456   2.159   1.083 -0.6813 -0.7754 -1.8224
  923SOL     OW 2767   0.634   1.463   1.690  0.5973 -0.5902  0.0559
  923SOL    HW1 2768   0.593   1.430   1.600  1.0886  2.3734  0.6400
  923SOL    HW2 2769   0.720   1.419   1.718  0.5861 -0.5954 -0.7126
  924SOL     OW 2770   1.656   2.693   3.008  0.1000 -0.4462 -0.1687
  924SOL    HW1 2771   1.562   2.662   3.029 -1.3041  0.5887  1.8041
  924SOL    HW2 2772   1.675   2.778   3.068  0.1173  1.8682 -0.4831
  925SOL     OW 2773   2.697   1.460   0.926  0.0802 -0.5037  0.5378
  925SOL    HW1 2774   2.678   1.360   0.908  0.8980 -2.8770  0.0365
  925SOL    HW2 2775   2.754   1.470   1.013 -0.1693 -0.0491 -0.6748
  926SOL     OW 2776   1.986   0.529   1.597 -1.0888 -0.2353  0.1827
  926SOL    HW1 2777   2.068   0.559   1.537  1.2286 -0.0729 -1.4084
  926SOL    HW2 2778   1.935   0.454   1.547  1.4147  1.2331  0.7192
  927SOL     OW 2779   1.916   3.099   1.352  0.3851 -0.0954 -0.6403
  927SOL    HW1 2780   1.962   0.086   1.335 -0.2294  1.7383  1.2497
  927SOL    HW2 2781   1.869   3.072   1.266  1.4287 -0.3847  1.3504
  928SOL     OW 2782   0.237   0.968   2.393 -0.6928  0.5916  0.7695
  928SOL    HW1 2783   0.284   0.998   2.310 -0.2390 -1.8486  1.3786
  928SOL    HW2 2784   0.280   0.882   2.430  0.0020 -3.6498 -0.4782
  929SOL     OW 2785   2.402   0.786   1.472 -0.0016 -0.2242 -0.3821
  929SOL    HW1 2786   2.318   0.841   1.481  0.4443 -2.0076 -1.0730
  929SOL    HW2 2787   2.457   0.827   1.400 -1.0314 -0.8076  0.2635
  930SOL     OW 2788   2.882   2.446   1.871  0.2134  0.0374  0.2168
  930SOL    HW1 2789   2.926   2.526   1.918 -0.1516  0.9579 -2.0944
  930SOL    HW2 2790   2.846   2.375   1.935 -1.4201 -0.7600 -0.3686
  931SOL     OW 2791   1.568   0.978   1.306 -0.8047  0.2372 -0.0989
  931SOL    HW1 2792   1.641   0.986   1.382 -0.2115  2.1847  1.4623
  931SOL    HW2 2793   1.600   1.026   1.221  0.8065 -1.2885  0.3255
  932SOL     OW 2794   0.465   1.248   1.759 -0.2168  0.1246 -0.0203
  932SOL    HW1 2795   0.390   1.286   1.814  2.8271 -2.1813 -1.8017
  932SOL    HW2 2796   0.549   1.305   1.766  1.5463  0.5606  0.0530
  933SOL     OW 2797   2.451   1.892   1.575 -0.2211 -0.0163  0.5691
  933SOL    HW1 2798   2.511   1.954   1.517 -1.2341 -0.9855 -1.7592
  933SOL    HW2 2799   2.353   1.886   1.538 -3.0014  0.5119 -0.9241
  934SOL     OW 2800   0.522   1.951   1.727 -0.0730 -0.0376  0.2437
  934SOL    HW1 2801   0.552   1.871   1.671  1.0637 -0.6168  3.0718
  934SOL    HW2 2802   0.541   2.035   1.670  1.2917  1.7036  0.1474
  935SOL     OW 2803   2.676   1.496   1.601  0.4015 -0.1668  0.0066
  935SOL    HW1 2804   2.608   1.436   1.647 -0.0450  3.5406 -0.4276
  935SOL    HW2 2805   2.740   1.446   1.538  0.0530 -1.7348  0.3353
  936SOL     OW 2806   2.873   1.420   1.405  0.0990  0.2198  0.0833
  936SOL    HW1 2807   2.842   1.322   1.398 -2.5205 -0.0140  1.4678
  936SOL    HW2 2808   2.968   1.425   1.378 -2.2749 -0.6683  0.8694
  937SOL     OW 2809   1.900   0.366   1.421 -0.4041 -0.0723  0.4488
  937SOL    HW1 2810   1.971   0.313   1.366  0.3709 -2.3800 -0.3036
  937SOL    HW2 2811   1.817   0.311   1.431  0.8287 -0.4821 -0.3487
  938SOL     OW 2812   0.451   2.805   0.105  0.1491  0.4191 -0.2761
  938SOL    HW1 2813   0.377   2.803   0.177  0.6642 -0.6291  0.3580
  938SOL    HW2 2814   0.409   2.824   0.017  3.3017  2.1198  2.2468
  939SOL     OW 2815   2.814   2.255   2.435  0.1689  0.2562  0.3569
  939SOL    HW1 2816   2.860   2.270   2.343 -1.1356  0.2368 -2.7888
  939SOL    HW2 2817   2.782   2.157   2.443  1.8246 -4.0822  1.1437
  940SOL     OW 2818   1.616   2.032   0.591 -0.2591  0.0961  0.3871
  940SOL    HW1 2819   1.525   2.079   0.579  1.3537 -1.9512  2.5318
  940SOL    HW2 2820   1.664   2.036   0.502  0.6563 -0.9103  0.4226
  941SOL     OW 2821   2.238   2.594   0.156  0.1413 -0.5301 -0.6689
  941SOL    HW1 2822   2.246   2.531   0.236  0.7627 -0.0567  3.4789
  941SOL    HW2 2823   2.328   2.606   0.112 -3.9782 -1.5022 -0.0659
  942SOL     OW 2824   1.883   2.389   1.259 -0.3978 -0.5335 -0.0768
  942SOL    HW1 2825   1.828   2.448   1.195 -2.5142  0.7988 -1.6300
  942SOL    HW2 2826   1.963   2.446   1.290  1.5100 -0.7678  1.8297
  943SOL     OW 2827   2.153   0.956   1.774  0.5270  0.2488  0.4969
  943SOL    HW1 2828   2.136   0.945   1.677 -0.4080 -0.7270  1.3454
  943SOL    HW2 2829   2.254   0.961   1.784 -2.6553  0.6392 -0.5455
  944SOL     OW 2830   1.354   0.781   2.230 -0.1203  0.1572 -0.3969
  944SOL    HW1 2831   1.436   0.730   2.253  1.2958 -0.5631 -0.2047
  944SOL    HW2 2832   1.326   0.750   2.135  2.5508 -0.5647 -1.9834
  945SOL     OW 2833   2.525   2.443   1.331  0.2057 -0.6923 -0.3456
  945SOL    HW1 2834   2.609   2.402   1.372  0.8127  0.0513 -0.0471
  945SOL    HW2 2835   2.446   2.449   1.394  2.3249  0.8578 -1.5428
  946SOL     OW 2836   0.192   0.761   0.628 -0.3131  0.2953 -0.2949
  946SOL    HW1 2837   0.170   0.819   0.711 -0.5866 -1.7511 -2.2493
  946SOL    HW2 2838   0.247   0.681   0.655  2.7546  1.0036 -0.2289
  947SOL     OW 2839   1.841   2.880   1.800 -1.0325 -0.0952 -0.0319
  947SOL    HW1 2840   1.754   2.837   1.794  1.5521  2.5275 -2.4549
  947SOL    HW2 2841   1.847   2.961   1.738  0.5747  0.5904 -1.5373
  948SOL     OW 2842   0.294   1.721   0.669 -0.0202 -0.3263  0.1088
  948SOL    HW1 2843   0.349   1.764   0.600  0.2176 -2.5753  0.2171
  948SOL    HW2 2844   0.326   1.624   0.690 -0.4295  1.9081 -0.9122
  949SOL     OW 2845   1.048   1.130   1.338 -0.3670 -0.2665 -0.1597
  949SOL    HW1 2846   1.113   1.119   1.259  1.2938 -3.2978  0.0041
  949SOL    HW2 2847   1.020   1.039   1.368  0.8297  0.7015  2.9799
  950SOL     OW 2848   0.313   0.865   1.126  0.1027 -0.0299  0.1339
  950SOL    HW1 2849   0.412   0.839   1.121  0.6887 -1.5575  1.0380
  950SOL    HW2 2850   0.292   0.937   1.202 -0.4089  4.3378  1.8257
  951SOL     OW 2851   0.701   2.090   2.262 -0.4395  0.3639  0.1019
  951SOL    HW1 2852   0.611   2.122   2.293  1.5892 -0.5163  0.3978
  951SOL    HW2 2853   0.707   2.087   2.158  1.5122 -0.8022 -1.4003
  952SOL     OW 2854   1.529   1.427   0.046 -0.4336 -0.5072 -0.0513
  952SOL    HW1 2855   1.621   1.432   0.089 -0.8106 -0.3760 -1.0560
  952SOL    HW2 2856   1.490   1.521   0.038 -0.5602  1.0750  0.7253
  953SOL     OW 2857   1.265   0.032   3.097 -0.0762  0.0438 -0.3413
  953SOL    HW1 2858   1.303   0.112   3.048  0.5583  1.7096  1.0389
  953SOL    HW2 2859   1.173   0.005   3.067  2.7172  1.3452 -1.6823
  954SOL     OW 2860   1.857   1.217   0.237  0.4267 -0.2878 -0.0389
  954SOL    HW1 2861   1.807   1.162   0.169  3.2880  0.9073  1.3947
  954SOL    HW2 2862   1.821   1.206   0.332  0.8239  2.1381 -3.6440
  955SOL     OW 2863   0.068   2.771   0.115 -0.7011 -0.4435  0.1938
  955SOL    HW1 2864   3.098   2.813   0.063 -0.1123 -0.9985  2.5343
  955SOL    HW2 2865   0.103   2.687   0.066  0.5779 -2.9276 -1.4448
  956SOL     OW 2866   1.172   0.833   1.314  0.3087  0.0523  0.0274
  956SOL    HW1 2867   1.228   0.889   1.252 -1.0201 -1.0216  2.1663
  956SOL    HW2 2868   1.174   0.737   1.281 -0.1622 -0.7407 -3.5655
  957SOL     OW 2869   1.104   1.391   1.050 -0.8256 -0.2486 -0.3383
  957SOL    HW1 2870   1.005   1.396   1.080 -0.8669  1.0994  2.3530
  957SOL    HW2 2871   1.118   1.426   0.954 -3.3139 -0.4635 -2.0969
  958SOL     OW 2872   0.698   1.814   0.759 -0.2940  0.2786  0.4632
  958SOL    HW1 2873   0.656   1.877   0.827 -1.9504  1.8870 -1.4958
  958SOL    HW2 2874   0.648   1.811   0.669 -1.2044  2.0987 -2.2992
  959SOL     OW 2875   1.513   1.332   0.899 -0.4600 -0.6858  0.2596
  959SOL    HW1 2876   1.509   1.413   0.833  0.0446  2.9305 -2.4676
  959SOL    HW2 2877   1.462   1.356   0.984 -1.6185  0.3391  2.7524
  960SOL     OW 2878   0.058   1.163   2.946  0.4015 -0.0109 -0.0827
  960SOL    HW1 2879   0.041   1.141   2.849 -1.0560  1.2918  2.0788
  960SOL    HW2 2880   0.121   1.091   2.983 -1.7555 -1.5022 -0.2977
  961SOL     OW 2881   0.549   1.435   1.000 -0.5258 -0.3343  0.3859
  961SOL    HW1 2882   0.469   1.372   0.999 -0.8618 -0.2043 -1.7318
  961SOL    HW2 2883   0.557   1.481   0.907  2.2222  0.0988  0.9694
  962SOL     OW 2884   0.872   0.899   0.699  0.0617 -0.4076  0.2704
  962SOL    HW1 2885   0.957   0.953   0.711 -0.6320  0.3604  2.6479
  962SOL    HW2 2886   0.796   0.951   0.743 -1.0877 -1.3411  0.2781
  963SOL     OW 2887   1.465   1.761   2.611  0.5744  0.7119 -0.3523
  963SOL    HW1 2888   1.535   1.819   2.571 -1.4654  1.8109  1.6767
  963SOL    HW2 2889   1.502   1.694   2.678 -0.0286  0.1841 -1.6357
  964SOL     OW 2890   0.593   2.470   2.900 -0.2018 -0.3251 -0.2903
  964SOL    HW1 2891   0.639   2.560   2.885 -1.4823  1.4078 -3.2506
  964SOL    HW2 2892   0.608   2.411   2.820 -0.4898 -1.3200 -1.2099
  965SOL     OW 2893   0.537   2.328   0.222 -0.3440 -0.2738  0.4071
  965SOL    HW1 2894   0.539   2.432   0.238  0.4560 -0.3132 -0.1270
  965SOL    HW2 2895   0.504   2.305   0.129  2.0230  2.1792  0.3821
  966SOL     OW 2896   3.016   1.737   2.731 -0.0274  0.2942  0.0644
  966SOL    HW1 2897   0.012   1.732   2.730  1.3557  0.2870 -0.3717
  966SOL    HW2 2898   2.986   1.834   2.717  0.2898 -1.0210  0.9793
  967SOL     OW 2899   2.409   3.082   2.867 -0.2743 -0.4357 -0.2791
  967SOL    HW1 2900   2.321   3.039   2.831 -0.6300 -1.5281  2.7149
  967SOL    HW2 2901   2.386   0.069   2.912 -1.6885  2.0981  0.3094
  968SOL     OW 2902   2.185   0.103   0.418  0.4732  0.5387 -0.1362
  968SOL    HW1 2903   2.164   0.088   0.518 -0.8759  0.5365 -0.4166
  968SOL    HW2 2904   2.286   0.100   0.393  0.0671  2.0206 -1.9183
  969SOL     OW 2905   0.358   1.497   2.199  0.2203 -0.0870 -0.5452
  969SOL    HW1 2906   0.328   1.432   2.127  1.6843  0.4748 -1.0817
  969SOL    HW2 2907   0.451   1.470   2.239  1.7153  0.6394  1.2110
  970SOL     OW 2908   1.525   1.535   0.727  0.5352  0.3495  0.3799
  970SOL    HW1 2909   1.566   1.624   0.690  0.2759  1.6553 -1.8114
  970SOL    HW2 2910   1.510   1.471   0.650 -0.6209  0.2654  1.3174
  971SOL     OW 2911   2.429   0.130   1.084 -0.1568 -0.0910  0.0358
  971SOL    HW1 2912   2.390   0.108   1.174 -1.0225  4.1596  0.5979
  971SOL    HW2 2913   2.393   0.220   1.045  2.8650 -1.5451 -1.4079
  972SOL     OW 2914   0.431   2.953   1.518 -0.0315 -0.6949  0.7391
  972SOL    HW1 2915   0.382   2.877   1.559  1.7573  1.4277 -1.3237
  972SOL    HW2 2916   0.482   3.007   1.589 -0.3047  1.9705 -1.2589
  973SOL     OW 2917   0.608   0.198   2.752 -0.2473  0.1821  0.1953
  973SOL    HW1 2918   0.625   0.289   2.799 -2.1194 -0.0896  0.0498
  973SOL    HW2 2919   0.510   0.162   2.770 -2.0189  1.4188 -1.7790
  974SOL     OW 2920   2.294   1.301   1.896 -0.2624 -0.3957  0.3303
  974SOL    HW1 2921   2.208   1.251   1.881 -0.8211  0.3445  1.5758
  974SOL    HW2 2922   2.334   1.269   1.982 -1.1318 -1.2821 -0.8030
  975SOL     OW 2923   0.222   0.239   1.221  0.1699  1.0001  0.3095
  975SOL    HW1 2924   0.244   0.157   1.279 -0.2818  1.4207  0.0003
  975SOL    HW2 2925   0.205   0.218   1.119  3.1870 -3.4155 -2.5922
  976SOL     OW 2926   0.732   1.896   2.426 -0.0227 -0.0138  0.1148
  976SOL    HW1 2927   0.738   1.906   2.529  0.9747 -0.3611 -0.9922
  976SOL    HW2 2928   0.731   1.987   2.379  0.4154 -0.9147  1.2153
  977SOL     OW 2929   1.049   2.412   0.705 -0.0019  0.1348  0.2558
  977SOL    HW1 2930   0.987   2.410   0.790  0.5230  0.8833  2.2704
  977SOL    HW2 2931   0.997   2.461   0.631 -0.8423 -1.2255  0.0333
  978SOL     OW 2932   3.017   1.221   2.084  0.0603  0.6433 -0.0368
  978SOL    HW1 2933   2.918   1.196   2.092 -2.6588  0.1663  1.1471
  978SOL    HW2 2934   3.042   1.292   2.150 -1.1008  1.1518  1.0974
  979SOL     OW 2935   1.671   2.973   1.510 -0.4843  0.0896 -0.2014
  979SOL    HW1 2936   1.709   2.881   1.525  0.4883  0.8401 -2.1990
  979SOL    HW2 2937   1.585   2.992   1.555  0.9028  0.6418 -1.8336
  980SOL     OW 2938   1.306   1.441   2.259  0.1037  0.5702  0.3762
  980SOL    HW1 2939   1.221   1.397   2.282  0.0172 -1.6376 -4.1305
  980SOL    HW2 2940   1.301   1.541   2.277 -1.5151 -0.5517 -0.6560
  981SOL     OW 2941   2.524   0.255   1.671  0.0649  0.2730 -0.1938
  981SOL    HW1 2942   2.466   0.309   1.738 -1.1123 -3.2283  1.3347
  981SOL    HW2 2943   2.621   0.290   1.672 -0.3377  0.4843  0.5596
  982SOL     OW 2944   0.127   0.363   2.597  0.9903 -0.6225  0.1016
  982SOL    HW1 2945   0.035   0.317   2.616 -0.9563  1.9273  3.1853
  982SOL    HW2 2946   0.204   0.303   2.616 -0.8683 -1.1149  0.7632
  983SOL     OW 2947   2.523   0.678   2.503 -0.8274 -0.2176  0.4405
  983SOL    HW1 2948   2.440   0.739   2.511  1.7853  0.7512 -3.5225
  983SOL    HW2 2949   2.502   0.592   2.455  0.9674  0.9603  2.4760
  984SOL     OW 2950   1.058   3.037   2.122 -0.7373  0.0408  0.2522
  984SOL    HW1 2951   1.073   3.052   2.220  2.0594  2.8478 -1.8957
  984SOL    HW2 2952   0.973   2.980   2.112 -0.1853  1.8706 -1.1443
  985SOL     OW 2953   2.006   1.685   1.750 -0.0054  0.5942 -0.2082
  985SOL    HW1 2954   1.964   1.658   1.838  1.6629  0.7857  0.2790
  985SOL    HW2 2955   2.107   1.676   1.772  1.4747  0.2812  0.0690
  986SOL     OW 2956   2.597   0.852   1.638 -0.0965  0.0885  0.0445
  986SOL    HW1 2957   2.679   0.817   1.595  2.9435 -1.4213 -0.0212
  986SOL    HW2 2958   2.514   0.823   1.581 -0.9544  2.2834  0.9438
  987SOL     OW 2959   2.566   0.923   1.315 -0.2275  0.2885 -0.5492
  987SOL    HW1 2960   2.650   0.862   1.334 -1.3661 -2.5448  2.0455
  987SOL    HW2 2961   2.541   0.914   1.217  1.7773 -0.5107  0.4693
  988SOL     OW 2962   0.116   1.045   2.075  0.0464  0.0588 -0.3985
  988SOL    HW1 2963   0.038   1.113   2.082  2.5038  3.6375  1.8440
  988SOL    HW2 2964   0.202   1.079   2.122  1.3578  1.0422 -1.1207
  989SOL     OW 2965   1.966   1.653   0.338  0.0241 -0.2628  0.0509
  989SOL    HW1 2966   1.954   1.754   0.347  0.9593  0.5110  1.1174
  989SOL    HW2 2967   1.935   1.621   0.248 -1.0710  0.4696  1.6150
  990SOL     OW 2968   0.784   0.482   2.267 -0.1439 -0.0719 -0.1342
  990SOL    HW1 2969   0.828   0.475   2.355 -0.2635 -1.0380 -1.9362
  990SOL    HW2 2970   0.851   0.508   2.198  3.0509 -0.5205  0.7399
  991SOL     OW 2971   1.473   1.373   0.520  0.3450  0.5674 -0.0048
  991SOL    HW1 2972   1.474   1.271   0.510  0.1517  1.7064 -1.0663
  991SOL    HW2 2973   1.416   1.409   0.443 -1.3564 -1.1525 -4.2956
  992SOL     OW 2974   2.140   1.094   0.460  0.1681  0.4552 -0.0175
  992SOL    HW1 2975   2.227   1.088   0.509 -2.7540 -0.9944 -0.4867
  992SOL    HW2 2976   2.063   1.098   0.526 -0.5503 -2.2458  0.0440
  993SOL     OW 2977   2.933   0.951   0.720  0.4036 -0.0900  0.1660
  993SOL    HW1 2978   2.970   0.919   0.811 -0.3513 -4.0166  1.6693
  993SOL    HW2 2979   2.960   0.883   0.649  0.8010 -1.2296 -1.0809
  994SOL     OW 2980   0.230   2.156   2.463 -0.1648  0.1062  0.2672
  994SOL    HW1 2981   0.163   2.106   2.411  0.4232  1.0993  1.6245
  994SOL    HW2 2982   0.229   2.126   2.560  0.7588 -0.3703 -1.3229
  995SOL     OW 2983   1.741   1.285   2.527 -0.1188  0.1794  0.3171
  995SOL    HW1 2984   1.651   1.309   2.488 -2.7855 -0.7611 -3.6423
  995SOL    HW2 2985   1.722   1.215   2.597 -1.7711  1.0673 -0.9912
  996SOL     OW 2986   2.545   1.243   0.281  0.1245  0.9006 -0.4401
  996SOL    HW1 2987   2.478   1.291   0.222  1.0522  4.3192  0.6599
  996SOL    HW2 2988   2.537   1.137   0.271 -0.1963 -3.2277  1.3469
  997SOL     OW 2989   2.024   1.179   1.873 -0.0472 -0.0124  0.2844
  997SOL    HW1 2990   2.043   1.086   1.831 -1.0526 -0.7158  1.3693
  997SOL    HW2 2991   2.035   1.172   1.971  0.3320  1.6803 -0.5417
  998SOL     OW 2992   2.586   2.005   0.406  0.4883 -0.1564  0.6494
  998SOL    HW1 2993   2.541   2.098   0.396  0.0865  2.3339 -0.0467
  998SOL    HW2 2994   2.522   1.931   0.375 -0.6778  0.2524 -0.0007
  999SOL     OW 2995   3.099   2.313   0.071  0.6306 -0.6417  0.5019
  999SOL    HW1 2996   3.059   2.254   3.097 -1.5527 -2.5768  1.2695
  999SOL    HW2 2997   3.026   2.363   0.125 -0.5945  2.1826  1.0799
 1000SOL     OW 2998   0.933   0.993   2.264  0.1735 -0.5991 -0.2253
 1000SOL    HW1 2999   0.928   0.920   2.339  1.7785 -3.5773  0.9428
 1000SOL    HW2 3000   1.024   1.042   2.271  1.2306 -0.3857  0.5847
   3.10296   3.10296   3.10296
