1000 SPC/Fw water molecules t= 320.00000 step= 320000
 3000
    1SOL     OW    1   2.526   0.070   0.961  0.3255  0.1652 -0.1652
    1SOL    HW1    2   2.458   0.023   0.903 -1.6941 -0.3407 -2.5620
    1SOL    HW2    3   2.624   0.039   0.949 -0.5843 -1.0891 -0.4452
    2SOL     OW    4   2.921   2.466   0.984 -0.4244 -0.4608 -0.5044
    2SOL    HW1    5   2.863   2.401   1.038  0.7564 -1.7129  1.9549
    2SOL    HW2    6   3.009   2.426   0.959 -1.1964  1.6696 -1.1065
    3SOL     OW    7   0.818   2.849   2.917  0.4144 -0.3106 -0.2924
    3SOL    HW1    8   0.829   2.815   3.010  3.4131  1.1528 -0.3477
    3SOL    HW2    9   0.780   2.943   2.921  1.4020 -2.1256  2.0878
    4SOL     OW   10   1.868   2.510   1.978  0.4409 -0.6806  0.3652
    4SOL    HW1   11   1.964   2.500   1.960  2.2581  1.0917  1.4987
    4SOL    HW2   12   1.816   2.544   1.893 -0.0733 -0.3616  1.0261
    5SOL     OW   13   1.977   0.836   1.438  0.3661 -0.3534  0.3763
    5SOL    HW1   14   2.018   0.874   1.354 -2.0252  0.0799 -0.6962
    5SOL    HW2   15   1.875   0.855   1.454 -1.1044  0.3445  1.4086
    6SOL     OW   16   2.235   2.717   0.595  0.4828 -0.5218  0.3766
    6SOL    HW1   17   2.239   2.731   0.699 -0.6165  2.1689  1.5811
    6SOL    HW2   18   2.172   2.785   0.553 -0.5805 -0.4114 -1.1142
    7SOL     OW   19   2.498   1.493   1.120  0.0556 -0.0988 -0.2312
    7SOL    HW1   20   2.581   1.468   1.176 -0.7331  1.5601 -0.2663
    7SOL    HW2   21   2.416   1.435   1.149  0.4987 -1.3648  0.2255
    8SOL     OW   22   1.145   2.004   1.362 -0.0807  0.4761  0.2044
    8SOL    HW1   23   1.060   2.042   1.320 -0.9482 -0.8238 -0.6720
    8SOL    HW2   24   1.197   2.075   1.415  0.2265  0.6275  0.5092
    9SOL     OW   25   1.290   2.680   2.490 -0.0492  0.2408  0.3220
    9SOL    HW1   26   1.241   2.602   2.531 -0.3570  1.5037 -0.9238
    9SOL    HW2   27   1.264   2.690   2.393  1.3411 -0.2222  1.0763
   10SOL     OW   28   0.546   1.896   0.868  0.3679 -0.3745 -0.0936
   10SOL    HW1   29   0.637   1.848   0.845 -1.9060 -2.1057  1.2631
   10SOL    HW2   30   0.558   1.952   0.953 -0.1006  2.4855 -1.4072
   11SOL     OW   31   1.860   1.706   1.077 -0.3166  0.7716 -0.3860
   11SOL    HW1   32   1.890   1.611   1.065  0.8836  0.1568 -0.2568
   11SOL    HW2   33   1.821   1.718   1.171 -2.7910  0.6902  1.0845
   12SOL     OW   34   2.599   2.653   1.943  0.3509  0.2645 -0.2650
   12SOL    HW1   35   2.565   2.662   2.038  0.1622 -0.2015 -0.1676
   12SOL    HW2   36   2.672   2.722   1.921 -1.0443  1.4264 -0.2370
   13SOL     OW   37   2.560   2.923   0.417  0.0993 -0.0362 -0.2013
   13SOL    HW1   38   2.530   2.937   0.513  0.2580 -1.4562  0.1370
   13SOL    HW2   39   2.621   2.993   0.376  1.3252 -2.7328  2.1577
   14SOL     OW   40   1.623   2.297   0.335 -0.1308  0.0905  0.0529
   14SOL    HW1   41   1.542   2.237   0.336  3.5762  0.2490  1.6786
   14SOL    HW2   42   1.704   2.250   0.284  3.8642 -1.6119 -1.0578
   15SOL     OW   43   2.946   2.264   1.750 -0.3253 -0.2211 -0.0477
   15SOL    HW1   44   2.887   2.184   1.782 -0.2091  0.7333 -0.1606
   15SOL    HW2   45   2.915   2.352   1.787 -0.4973  0.3925 -0.9562
   16SOL     OW   46   2.258   2.907   0.285  0.8159  0.0802  0.1744
   16SOL    HW1   47   2.186   2.921   0.354 -0.8228  3.0690 -0.6492
   16SOL    HW2   48   2.346   2.928   0.331 -0.8097  4.4097  1.7301
   17SOL     OW   49   0.438   0.222   1.246  0.0468  0.4934  0.3398
   17SOL    HW1   50   0.499   0.304   1.260 -2.6045 -0.8029 -0.0025
   17SOL    HW2   51   0.477   0.141   1.295 -1.8944 -3.0665  1.1993
   18SOL     OW   52   2.038   0.852   0.369  0.8114  0.5839  0.3320
   18SOL    HW1   53   2.026   0.868   0.269  0.6087  0.5437  1.2977
   18SOL    HW2   54   2.137   0.846   0.394 -1.4002  1.7412  3.9762
   19SOL     OW   55   1.675   2.035   0.686  0.3901 -0.3871 -0.3486
   19SOL    HW1   56   1.707   1.972   0.762 -2.0425  1.0599  1.1448
   19SOL    HW2   57   1.729   2.024   0.601 -0.9736 -0.2928  4.1716
   20SOL     OW   58   2.302   2.088   2.180 -0.0402  0.2625 -0.2264
   20SOL    HW1   59   2.240   2.143   2.241  1.3714 -0.4831 -2.7592
   20SOL    HW2   60   2.373   2.146   2.130 -0.6006  2.3080 -0.6314
   21SOL     OW   61   1.563   0.377   0.688  0.1871 -0.5595  0.1855
   21SOL    HW1   62   1.639   0.318   0.660 -1.8695  0.8589 -1.5725
   21SOL    HW2   63   1.473   0.330   0.681  0.7281  0.2370  1.1064
   22SOL     OW   64   2.531   3.059   1.757 -0.7175  0.3760 -0.2411
   22SOL    HW1   65   2.478   0.031   1.728 -1.8305 -0.0565  0.9386
   22SOL    HW2   66   2.476   3.005   1.824  0.0878 -2.3813 -1.2721
   23SOL     OW   67   3.105   0.539   1.873  0.0913 -0.1909  0.3793
   23SOL    HW1   68   3.086   0.580   1.960  1.3589  0.2738 -1.5827
   23SOL    HW2   69   3.043   0.577   1.796  1.8581  0.3549 -0.4836
   24SOL     OW   70   2.457   2.659   0.237 -0.2524 -0.0915  0.3938
   24SOL    HW1   71   2.529   2.666   0.310  1.0435  0.8856 -1.7499
   24SOL    HW2   72   2.393   2.736   0.251 -0.9015  0.7859  2.1492
   25SOL     OW   73   1.367   3.079   2.338 -0.3433  0.4801 -0.1776
   25SOL    HW1   74   1.396   3.008   2.410 -0.2019 -0.6269 -0.8126
   25SOL    HW2   75   1.443   0.028   2.327 -0.1023 -0.1742  0.8487
   26SOL     OW   76   1.433   2.431   0.501 -0.9752 -0.3030  0.0017
   26SOL    HW1   77   1.502   2.377   0.452  0.7157  2.0117 -1.3747
   26SOL    HW2   78   1.383   2.484   0.429  0.0693 -4.3922 -0.8266
   27SOL     OW   79   2.481   1.356   2.906  0.3180 -0.1210 -0.5255
   27SOL    HW1   80   2.481   1.442   2.963 -0.0803  1.4125  0.3063
   27SOL    HW2   81   2.567   1.339   2.852  1.1311  1.0258  0.9125
   28SOL     OW   82   1.095   1.369   1.191  0.1788 -0.3587  1.0423
   28SOL    HW1   83   1.052   1.283   1.223 -0.1535 -0.7793 -1.4991
   28SOL    HW2   84   1.049   1.456   1.225  1.4118 -0.8438 -0.9433
   29SOL     OW   85   2.756   2.423   1.906 -0.1773  0.0043  0.1606
   29SOL    HW1   86   2.685   2.496   1.904 -0.0661  0.2639 -0.0321
   29SOL    HW2   87   2.827   2.432   1.981  3.3712 -3.7780 -0.1732
   30SOL     OW   88   1.181   0.314   1.026 -0.6705  0.1153  0.8922
   30SOL    HW1   89   1.145   0.311   0.927 -0.8827  0.9699 -2.8591
   30SOL    HW2   90   1.284   0.340   1.032  2.4658  2.5992 -1.2611
   31SOL     OW   91   2.110   2.773   2.084  0.4086  0.2926  0.0578
   31SOL    HW1   92   2.037   2.731   2.140  3.4298 -0.0979 -3.5705
   31SOL    HW2   93   2.132   2.708   2.009 -2.5199  0.0712  1.7663
   32SOL     OW   94   1.080   1.693   0.463 -0.3778 -0.2701  0.2535
   32SOL    HW1   95   1.081   1.704   0.565  0.1461 -0.0714 -0.5300
   32SOL    HW2   96   0.983   1.681   0.430 -1.1162  1.4782  1.1048
   33SOL     OW   97   0.330   0.565   2.402  0.2872 -0.1913 -0.5511
   33SOL    HW1   98   0.418   0.536   2.445  0.6902  1.4368 -0.4856
   33SOL    HW2   99   0.338   0.543   2.304 -1.0023 -0.2795  0.9410
   34SOL     OW  100   2.139   3.014   0.500  0.0991 -0.2400 -0.0998
   34SOL    HW1  101   2.072   3.021   0.576  0.0976 -0.1418  1.8456
   34SOL    HW2  102   2.195   3.097   0.493 -1.8258 -0.4089 -1.6522
   35SOL     OW  103   2.160   2.545   1.644 -0.5187  0.2842 -0.0198
   35SOL    HW1  104   2.178   2.597   1.558 -1.7257 -0.1215  1.1985
   35SOL    HW2  105   2.118   2.455   1.620  0.2750 -2.3457  0.3133
   36SOL     OW  106   1.744   2.431   3.106 -0.0245  0.3329  0.0227
   36SOL    HW1  107   1.764   2.336   3.093  2.5225  3.7859  2.1501
   36SOL    HW2  108   1.660   2.449   3.044 -2.1573 -0.3628 -0.1712
   37SOL     OW  109   1.331   0.628   2.206 -0.4884  0.1372 -0.5856
   37SOL    HW1  110   1.285   0.706   2.247 -1.0628 -0.3761  1.0375
   37SOL    HW2  111   1.363   0.559   2.280 -2.5219  0.3034  3.0367
   38SOL     OW  112   0.332   0.372   2.695 -0.2002  0.6979  0.2233
   38SOL    HW1  113   0.267   0.409   2.628  1.6303 -3.4739  0.3809
   38SOL    HW2  114   0.352   0.274   2.678 -0.5589  0.7775 -1.4144
   39SOL     OW  115   2.572   1.169   1.694  0.2567 -0.0409  0.1027
   39SOL    HW1  116   2.527   1.257   1.683  3.2948  0.2048  0.2820
   39SOL    HW2  117   2.666   1.180   1.733  1.4989 -0.3864  0.4898
   40SOL     OW  118   1.308   2.999   0.374 -0.0987  0.1757 -0.6703
   40SOL    HW1  119   1.248   3.071   0.411  1.1308 -0.0460  2.3253
   40SOL    HW2  120   1.288   2.908   0.417 -0.5491 -1.2497  0.7464
   41SOL     OW  121   2.424   1.486   0.861 -0.3337 -0.4779  0.8103
   41SOL    HW1  122   2.448   1.491   0.960  0.8086 -0.7638 -0.3273
   41SOL    HW2  123   2.450   1.571   0.803  0.4371  0.9251 -1.1557
   42SOL     OW  124   0.773   0.388   1.236  0.1135  0.1955 -0.2204
   42SOL    HW1  125   0.691   0.434   1.278  0.4544 -1.1317  2.1710
   42SOL    HW2  126   0.774   0.289   1.256 -0.7042  1.2000  0.9510
   43SOL     OW  127   3.096   1.809   2.620  0.6655 -0.1406 -0.0455
   43SOL    HW1  128   0.008   1.804   2.724  0.1456  0.4563  2.0900
   43SOL    HW2  129   2.997   1.786   2.604 -0.0352  1.2926 -0.7404
   44SOL     OW  130   2.278   2.957   1.878 -0.1897 -0.3026  0.3781
   44SOL    HW1  131   2.226   2.967   1.964 -0.6031  0.3169 -0.2470
   44SOL    HW2  132   2.229   3.003   1.803  0.4261  0.6346 -0.7510
   45SOL     OW  133   1.227   0.204   2.202  0.3293  0.4969 -0.3871
   45SOL    HW1  134   1.275   0.194   2.112 -0.3770 -2.3796 -1.0286
   45SOL    HW2  135   1.245   0.118   2.250 -1.9057  1.2974 -1.1148
   46SOL     OW  136   1.014   2.910   2.659 -0.3976 -0.1184 -0.2059
   46SOL    HW1  137   0.952   2.829   2.654 -2.7225 -2.2124  0.5359
   46SOL    HW2  138   1.044   2.917   2.756  1.0997  1.5119 -0.6316
   47SOL     OW  139   1.898   1.623   0.727  0.2426 -0.8511 -0.1039
   47SOL    HW1  140   1.968   1.677   0.778  0.4786  1.9571  1.2763
   47SOL    HW2  141   1.941   1.546   0.673 -0.9790  0.8589 -0.8793
   48SOL     OW  142   1.079   2.247   0.562  0.2538 -0.2198 -0.0165
   48SOL    HW1  143   1.102   2.222   0.467  1.7630  2.0472  0.7663
   48SOL    HW2  144   1.045   2.165   0.618  1.1424 -3.2271 -1.3166
   49SOL     OW  145   1.981   2.926   2.563  0.8586 -0.2791 -0.2882
   49SOL    HW1  146   2.046   2.934   2.485  0.1158  0.3180  1.1681
   49SOL    HW2  147   1.959   3.017   2.605 -0.1531 -0.6343  0.6083
   50SOL     OW  148   1.619   3.003   0.179  0.0870 -0.0075  0.0687
   50SOL    HW1  149   1.697   3.019   0.242  2.0786 -0.9957 -0.8463
   50SOL    HW2  150   1.583   3.093   0.155  0.1985 -0.7480 -1.8536
   51SOL     OW  151   2.089   0.639   1.228 -0.2335  0.0999 -0.2367
   51SOL    HW1  152   2.184   0.624   1.267  2.0619  2.8577  0.4810
   51SOL    HW2  153   2.061   0.732   1.248  0.8011 -2.5120 -1.4383
   52SOL     OW  154   1.092   1.537   0.922 -0.0619 -0.3225  0.3057
   52SOL    HW1  155   1.172   1.473   0.928  2.2776 -0.4969 -1.5593
   52SOL    HW2  156   1.103   1.606   0.998 -1.3006  1.1781  0.0166
   53SOL     OW  157   0.636   1.683   2.541  0.2673  0.0505  0.0809
   53SOL    HW1  158   0.560   1.669   2.607  1.3901  2.1173 -1.1810
   53SOL    HW2  159   0.708   1.614   2.559 -1.2269 -0.7326 -1.3258
   54SOL     OW  160   2.862   1.137   1.784  0.6576  0.4042 -0.0728
   54SOL    HW1  161   2.929   1.104   1.716  0.2794 -0.7039 -1.9839
   54SOL    HW2  162   2.839   1.056   1.843  0.4431 -1.2798 -0.7281
   55SOL     OW  163   2.703   1.869   0.630 -0.0728  0.4856  0.3408
   55SOL    HW1  164   2.762   1.788   0.655 -0.8693 -2.9395 -2.6722
   55SOL    HW2  165   2.754   1.949   0.594  1.2910  0.8205 -2.2089
   56SOL     OW  166   1.597   0.107   1.690  0.6294 -0.5654 -0.1519
   56SOL    HW1  167   1.593   0.013   1.723 -0.7907  1.1186  1.9527
   56SOL    HW2  168   1.551   0.179   1.745  1.1502  2.2200 -4.0889
   57SOL     OW  169   1.383   1.524   2.900 -0.4779  0.5219 -0.7247
   57SOL    HW1  170   1.467   1.478   2.873  1.7972 -0.6127  2.1538
   57SOL    HW2  171   1.402   1.582   2.983  0.0065 -0.1951  0.8213
   58SOL     OW  172   0.007   0.829   1.726  0.7623 -0.1919 -0.2311
   58SOL    HW1  173   0.106   0.800   1.714  3.7827 -3.2185  1.8433
   58SOL    HW2  174   3.095   0.916   1.682  0.9654 -0.9525  2.6918
   59SOL     OW  175   1.836   2.736   0.365  0.5234 -0.2181  0.2109
   59SOL    HW1  176   1.803   2.665   0.294 -0.5030 -3.8936 -0.6157
   59SOL    HW2  177   1.852   2.827   0.318 -0.9070 -0.0299 -0.7799
   60SOL     OW  178   2.958   1.747   0.147 -0.3537  0.5759  0.5942
   60SOL    HW1  179   2.967   1.812   0.226  1.1761 -2.1112 -1.6796
   60SOL    HW2  180   3.011   1.783   0.067  2.6361  1.2516 -1.2094
   61SOL     OW  181   0.749   2.722   0.736  0.1971 -0.3509  0.2197
   61SOL    HW1  182   0.731   2.665   0.818 -1.3831 -2.3906  0.7042
   61SOL    HW2  183   0.761   2.666   0.649  2.3568  1.2673  1.9171
   62SOL     OW  184   2.001   1.811   2.723  0.0041 -0.7345  0.2471
   62SOL    HW1  185   2.030   1.821   2.625 -1.2065 -2.6485 -3.5308
   62SOL    HW2  186   2.049   1.877   2.786  1.1333 -0.0437 -0.1587
   63SOL     OW  187   2.268   2.378   0.709  0.0616 -0.0855  0.5148
   63SOL    HW1  188   2.289   2.466   0.655  0.1199  1.8634  0.4372
   63SOL    HW2  189   2.214   2.317   0.645 -0.2121  1.1469  1.0662
   64SOL     OW  190   1.643   0.952   2.876 -0.1294 -0.8646 -0.7528
   64SOL    HW1  191   1.589   0.870   2.844 -3.0927 -1.4725 -0.0902
   64SOL    HW2  192   1.735   0.974   2.836 -1.7130 -1.1222 -1.7854
   65SOL     OW  193   2.047   1.745   2.413 -0.1915 -0.1871 -0.2979
   65SOL    HW1  194   2.130   1.793   2.444 -1.9927 -2.1703 -0.2230
   65SOL    HW2  195   2.006   1.788   2.331 -0.1291 -0.4127 -0.0747
   66SOL     OW  196   0.316   1.059   1.470 -0.1122  0.1092 -0.3665
   66SOL    HW1  197   0.388   1.082   1.403 -0.7459  1.6251  2.3693
   66SOL    HW2  198   0.303   1.131   1.544  1.1834  2.0374  0.7536
   67SOL     OW  199   2.461   2.753   2.675 -0.0822  0.0864  0.3922
   67SOL    HW1  200   2.409   2.791   2.756 -1.1077  0.0320  3.0192
   67SOL    HW2  201   2.494   2.821   2.607 -0.9055  0.2978  0.9422
   68SOL     OW  202   1.119   2.549   1.113  0.4429 -0.1723 -0.5218
   68SOL    HW1  203   1.086   2.630   1.168 -1.3701 -1.8852 -0.8145
   68SOL    HW2  204   1.118   2.566   1.013  0.7152 -0.6558  0.7503
   69SOL     OW  205   0.767   2.607   3.091  0.3294 -0.1418 -0.1791
   69SOL    HW1  206   0.821   2.679   0.024 -0.9110 -1.4315 -3.0721
   69SOL    HW2  207   0.827   2.541   3.039  1.2868 -1.6921 -1.0921
   70SOL     OW  208   2.868   0.346   2.396 -0.4792  0.2575 -0.1826
   70SOL    HW1  209   2.844   0.307   2.489 -2.0230  0.0406  1.6094
   70SOL    HW2  210   2.897   0.443   2.400 -1.4599  2.4070  0.3735
   71SOL     OW  211   0.316   1.467   2.470 -0.3065 -0.7106  0.0016
   71SOL    HW1  212   0.305   1.388   2.531  1.6082  2.1946 -3.3069
   71SOL    HW2  213   0.365   1.545   2.521  3.0951  1.5262  0.4069
   72SOL     OW  214   0.085   1.962   2.843 -0.2116  0.0946  0.0878
   72SOL    HW1  215   0.011   2.032   2.859 -1.0370 -1.5806  1.3552
   72SOL    HW2  216   0.120   1.968   2.745 -1.1873  1.4296 -2.6157
   73SOL     OW  217   1.493   1.460   0.239 -0.5604 -0.1589  0.1339
   73SOL    HW1  218   1.577   1.481   0.287 -2.4216 -0.2005 -1.2043
   73SOL    HW2  219   1.425   1.532   0.255  1.6789  1.1560 -0.7071
   74SOL     OW  220   2.105   2.689   2.830 -0.4560  0.2953  0.6324
   74SOL    HW1  221   2.149   2.778   2.820 -0.5114 -1.1273 -2.1599
   74SOL    HW2  222   2.081   2.664   2.927 -1.2210  2.6658 -0.1049
   75SOL     OW  223   2.038   1.928   1.126  0.0101  0.8911  0.0980
   75SOL    HW1  224   2.135   1.919   1.092  2.2994 -2.2036  1.9152
   75SOL    HW2  225   1.982   1.850   1.099  3.4200 -1.8286 -0.7439
   76SOL     OW  226   2.395   2.455   1.949 -0.3160  0.4793  0.2880
   76SOL    HW1  227   2.481   2.506   1.960  2.5709  1.4639  1.1711
   76SOL    HW2  228   2.399   2.379   2.015  0.0275 -0.9294 -1.3315
   77SOL     OW  229   2.509   3.079   2.172 -0.6391 -0.5955 -0.3594
   77SOL    HW1  230   2.455   0.049   2.153  2.1863  0.1193 -1.3350
   77SOL    HW2  231   2.459   2.991   2.173  1.8211  0.3428 -0.3889
   78SOL     OW  232   1.857   1.261   0.014  0.4262  0.9194  0.3491
   78SOL    HW1  233   1.788   1.220   3.061  1.2896  0.1514 -1.3238
   78SOL    HW2  234   1.951   1.243   3.091 -0.6785  0.7785  0.1292
   79SOL     OW  235   2.583   1.507   2.535 -0.1003 -0.3394 -0.3854
   79SOL    HW1  236   2.634   1.590   2.498 -1.4918  1.3411 -1.4676
   79SOL    HW2  237   2.480   1.518   2.524 -1.2336  0.5669  0.2448
   80SOL     OW  238   1.902   1.593   1.541  0.5511 -0.6572 -0.6737
   80SOL    HW1  239   1.865   1.547   1.626  1.0355 -0.6719  2.4131
   80SOL    HW2  240   1.980   1.654   1.571  0.1752  1.4460 -0.9784
   81SOL     OW  241   2.047   0.565   1.552 -0.3105 -0.3928 -0.4190
   81SOL    HW1  242   2.137   0.540   1.585 -2.3100  1.3362 -0.0739
   81SOL    HW2  243   2.045   0.664   1.529  0.9412 -1.1560 -0.3173
   82SOL     OW  244   2.211   2.238   1.559 -0.0531  0.3306 -0.0276
   82SOL    HW1  245   2.301   2.289   1.565  0.4610  1.4720 -0.6573
   82SOL    HW2  246   2.235   2.137   1.558  0.5713 -2.0177  3.0785
   83SOL     OW  247   2.969   3.046   0.008  0.4795  0.1117  0.4185
   83SOL    HW1  248   2.940   3.107   0.085 -1.5018 -0.3612 -1.8448
   83SOL    HW2  249   2.906   3.065   3.040 -1.2516 -0.5919 -3.4967
   84SOL     OW  250   0.514   1.319   0.111  0.0395  0.1545 -0.1961
   84SOL    HW1  251   0.609   1.290   0.080 -0.1592  0.2269 -0.4910
   84SOL    HW2  252   0.498   1.303   0.213  0.4934  0.2832  1.6500
   85SOL     OW  253   2.708   2.023   1.703  0.5763  0.2732  0.2135
   85SOL    HW1  254   2.667   1.933   1.727 -0.8597 -1.7377  1.9722
   85SOL    HW2  255   2.739   2.020   1.602 -0.9102  0.1785 -0.7714
   86SOL     OW  256   0.360   2.732   1.533 -0.1203  0.5820  0.2554
   86SOL    HW1  257   0.355   2.719   1.433  1.6353  0.2155  1.4003
   86SOL    HW2  258   0.365   2.830   1.556  2.2089 -2.5093 -0.2800
   87SOL     OW  259   0.403   2.648   2.408 -0.0725 -0.4529  0.7753
   87SOL    HW1  260   0.499   2.625   2.378 -0.8312  0.6400  0.3459
   87SOL    HW2  261   0.352   2.561   2.418  0.5177  0.8967 -2.3677
   88SOL     OW  262   0.272   2.029   0.737 -0.1841 -0.3793 -0.2012
   88SOL    HW1  263   0.315   2.120   0.757 -1.3427  0.2806  1.8079
   88SOL    HW2  264   0.351   1.963   0.720  3.6337 -0.1699 -2.8779
   89SOL     OW  265   0.911   0.581   1.436 -0.4645  0.0096 -0.2093
   89SOL    HW1  266   1.013   0.571   1.440  2.2404 -2.7204  0.4641
   89SOL    HW2  267   0.872   0.510   1.372 -0.9878 -1.4201  0.8643
   90SOL     OW  268   0.197   1.213   1.656  0.3788 -0.0894  0.5466
   90SOL    HW1  269   0.212   1.316   1.649 -0.4654  0.7781 -1.5481
   90SOL    HW2  270   0.228   1.177   1.747  0.9133 -2.0615 -0.7785
   91SOL     OW  271   1.117   0.831   0.891  0.2143 -0.4233 -0.0288
   91SOL    HW1  272   1.114   0.876   0.986  3.0421 -0.3960  0.1097
   91SOL    HW2  273   1.211   0.838   0.870 -2.1833 -0.9374  1.4075
   92SOL     OW  274   2.206   1.041   0.630 -0.5157  0.1497 -0.2496
   92SOL    HW1  275   2.286   1.014   0.575 -0.5438  1.2703  0.4910
   92SOL    HW2  276   2.135   1.069   0.561 -1.6446  0.9030 -2.7313
   93SOL     OW  277   2.382   0.781   2.499 -0.4215  0.1831 -0.4182
   93SOL    HW1  278   2.408   0.687   2.462 -0.3928  1.2725 -2.9860
   93SOL    HW2  279   2.288   0.772   2.544 -3.2957 -0.4688 -0.5762
   94SOL     OW  280   2.208   1.958   2.530  0.0501 -0.0696 -0.6040
   94SOL    HW1  281   2.158   2.048   2.505 -1.1313  2.6941 -0.9838
   94SOL    HW2  282   2.240   1.943   2.629 -1.1265 -0.7825  0.1936
   95SOL     OW  283   2.596   0.593   1.198 -0.3875  0.2852  0.3504
   95SOL    HW1  284   2.523   0.545   1.247  0.0851  1.8970  1.1923
   95SOL    HW2  285   2.680   0.529   1.190 -0.0874 -1.5218 -0.1301
   96SOL     OW  286   2.440   2.763   1.739 -0.2418 -1.2159 -0.0752
   96SOL    HW1  287   2.364   2.824   1.781 -1.4156  2.3102  2.2664
   96SOL    HW2  288   2.476   2.710   1.816 -1.0689  1.4811  0.8385
   97SOL     OW  289   2.574   1.047   1.250 -0.1111  0.5610 -0.5768
   97SOL    HW1  290   2.558   1.101   1.168 -1.7909 -0.5297  2.2092
   97SOL    HW2  291   2.506   1.062   1.323 -2.0439 -0.7430 -0.4201
   98SOL     OW  292   1.556   1.901   1.665 -0.0820  0.1643 -0.2144
   98SOL    HW1  293   1.512   1.866   1.753 -0.1484  0.9973 -1.0211
   98SOL    HW2  294   1.503   1.982   1.636  0.2702  0.7227  1.8487
   99SOL     OW  295   0.295   2.274   1.650  0.2080 -0.3334 -0.5644
   99SOL    HW1  296   0.340   2.265   1.562 -0.2733  0.7323  0.9548
   99SOL    HW2  297   0.299   2.372   1.684  0.8362  1.1530 -0.3659
  100SOL     OW  298   1.235   0.578   2.744  0.0377  0.1598 -0.0477
  100SOL    HW1  299   1.176   0.648   2.704 -0.5983 -3.4931  0.5159
  100SOL    HW2  300   1.329   0.609   2.765  0.5163 -3.4842  1.5363
  101SOL     OW  301   2.119   0.269   2.629 -0.0996  0.1452 -0.0945
  101SOL    HW1  302   2.178   0.199   2.580  0.9977 -2.2683 -0.1849
  101SOL    HW2  303   2.176   0.324   2.695  0.6394 -0.4178  0.8010
  102SOL     OW  304   0.443   0.789   1.474 -0.3789  0.3016 -0.2609
  102SOL    HW1  305   0.401   0.880   1.457  1.7300  0.6236 -0.9773
  102SOL    HW2  306   0.544   0.791   1.481 -0.3403 -0.2853  2.0991
  103SOL     OW  307   0.165   0.693   2.752 -0.0175 -0.4224  0.2438
  103SOL    HW1  308   0.186   0.792   2.725 -1.7438  1.9573  0.7461
  103SOL    HW2  309   0.239   0.667   2.825  1.7030  1.5155  1.2149
  104SOL     OW  310   0.882   0.597   2.589 -0.1904  0.7695  0.6025
  104SOL    HW1  311   0.846   0.594   2.493  2.1330 -0.4136 -0.0807
  104SOL    HW2  312   0.873   0.498   2.624  0.0318 -1.1608 -2.8250
  105SOL     OW  313   2.026   1.792   1.690 -0.5687  0.3667 -0.3270
  105SOL    HW1  314   2.022   1.783   1.792 -0.7056  2.4361 -3.2054
  105SOL    HW2  315   2.122   1.816   1.663  0.7206 -1.0457 -0.4209
  106SOL     OW  316   1.824   0.288   0.673 -0.2656  0.0048  0.1923
  106SOL    HW1  317   1.800   0.190   0.663  0.3418  1.5286 -1.2062
  106SOL    HW2  318   1.911   0.297   0.614 -2.0876  1.5055 -0.3763
  107SOL     OW  319   2.880   2.114   1.101 -0.4859 -0.3133 -0.2631
  107SOL    HW1  320   2.810   2.163   1.160 -3.3056  1.2258 -0.5734
  107SOL    HW2  321   2.854   2.135   1.006 -0.0927 -3.5551 -0.1784
  108SOL     OW  322   2.892   2.631   1.549 -0.1880 -0.3168 -0.2616
  108SOL    HW1  323   2.800   2.676   1.536  1.4147  2.7794 -2.3908
  108SOL    HW2  324   2.962   2.703   1.538 -2.2391 -0.0531  1.0150
  109SOL     OW  325   2.263   2.781   0.857 -0.4995 -0.2873  0.3151
  109SOL    HW1  326   2.343   2.778   0.921 -3.0813  1.4430  3.0776
  109SOL    HW2  327   2.186   2.837   0.896 -1.7893 -1.9186  1.6867
  110SOL     OW  328   0.746   1.871   2.393 -0.3431  0.1408 -0.5439
  110SOL    HW1  329   0.695   1.796   2.439  0.6882  3.0261 -0.6604
  110SOL    HW2  330   0.813   1.906   2.463  1.8316 -0.2619  1.6660
  111SOL     OW  331   1.573   2.490   2.181 -0.1854 -0.6998  0.5508
  111SOL    HW1  332   1.660   2.543   2.174 -1.1903  1.0080 -1.3405
  111SOL    HW2  333   1.520   2.508   2.093  1.1526 -1.1319 -0.2019
  112SOL     OW  334   1.877   1.769   0.133  0.1982 -0.1543 -0.7085
  112SOL    HW1  335   1.866   1.826   0.051 -0.9794  1.1828 -0.0375
  112SOL    HW2  336   1.965   1.788   0.175 -0.9296  1.1147  2.3347
  113SOL     OW  337   1.889   1.994   1.469 -0.1537 -0.3722 -0.2412
  113SOL    HW1  338   1.952   1.918   1.455 -1.5203  1.1957  0.4168
  113SOL    HW2  339   1.849   1.994   1.567 -1.0756  3.1280  0.3448
  114SOL     OW  340   3.011   1.126   0.717 -0.0979  0.5381 -0.7039
  114SOL    HW1  341   2.938   1.187   0.687  0.4568 -1.1341 -1.1640
  114SOL    HW2  342   3.045   1.071   0.639  0.2988  0.7216  0.3307
  115SOL     OW  343   0.806   0.806   3.093  0.3546  0.1940  0.0833
  115SOL    HW1  344   0.712   0.838   0.000  0.0537  0.9561  0.8771
  115SOL    HW2  345   0.807   0.782   2.991 -1.6931 -0.7341 -2.3151
  116SOL     OW  346   2.821   1.762   2.568  0.1572  0.2062 -0.3499
  116SOL    HW1  347   2.751   1.815   2.516  0.8201  0.5645  1.4140
  116SOL    HW2  348   2.805   1.760   2.670 -0.4295 -1.0104  0.0768
  117SOL     OW  349   2.892   2.854   0.557 -0.5879 -0.3051 -0.1029
  117SOL    HW1  350   2.863   2.766   0.610  0.6694 -2.7570 -0.9919
  117SOL    HW2  351   2.935   2.829   0.465 -0.6054  0.2442 -2.6343
  118SOL     OW  352   0.800   1.644   2.955  0.4008 -0.0538 -0.7363
  118SOL    HW1  353   0.777   1.714   2.886 -1.5396 -4.0772  4.4603
  118SOL    HW2  354   0.882   1.675   3.003 -1.6024  0.6011  0.5492
  119SOL     OW  355   0.541   2.245   0.154 -0.5852  0.1700 -0.5257
  119SOL    HW1  356   0.552   2.345   0.148 -1.3404 -0.5396 -1.8267
  119SOL    HW2  357   0.473   2.221   0.225  3.2362 -0.9343  2.7363
  120SOL     OW  358   1.212   0.532   3.011 -0.5404  0.5221  0.4687
  120SOL    HW1  359   1.307   0.563   3.022 -0.5109  0.5163  0.3245
  120SOL    HW2  360   1.180   0.546   2.915  0.2873  0.6180 -2.5753
  121SOL     OW  361   1.294   2.742   0.488  0.5982 -0.0580  0.3679
  121SOL    HW1  362   1.334   2.727   0.581  1.8213  1.4772  0.2182
  121SOL    HW2  363   1.349   2.685   0.426  1.9344  0.2718  0.3744
  122SOL     OW  364   2.498   2.409   1.348  0.1906  0.3958  0.0656
  122SOL    HW1  365   2.526   2.500   1.324 -0.4437 -1.4181 -3.9994
  122SOL    HW2  366   2.499   2.391   1.449  1.3187  0.7142  1.4975
  123SOL     OW  367   0.784   1.999   0.554 -0.4105  0.0927  0.0239
  123SOL    HW1  368   0.766   1.983   0.456 -0.3945 -1.5539 -0.6322
  123SOL    HW2  369   0.707   2.054   0.597 -0.9660  0.4680 -0.8841
  124SOL     OW  370   2.782   0.673   0.132 -1.0071  0.1391  0.2898
  124SOL    HW1  371   2.846   0.624   0.199 -0.1148  0.6003 -1.0666
  124SOL    HW2  372   2.718   0.737   0.182  0.8071  2.4116 -0.3537
  125SOL     OW  373   0.450   0.906   0.204 -0.5610  0.1362 -0.3922
  125SOL    HW1  374   0.479   0.892   0.105  0.6872 -1.8393 -1.6340
  125SOL    HW2  375   0.375   0.846   0.225 -0.9197  2.2913 -0.2913
  126SOL     OW  376   0.120   1.992   0.985 -0.2244 -0.3821  0.0279
  126SOL    HW1  377   0.186   2.004   0.906 -1.7973 -1.4862  1.5222
  126SOL    HW2  378   0.027   1.959   0.949 -2.8780  0.6332  0.0186
  127SOL     OW  379   1.441   1.850   1.905  0.2932 -0.0184 -0.2562
  127SOL    HW1  380   1.514   1.895   1.962 -0.6520  0.5315  1.0857
  127SOL    HW2  381   1.354   1.885   1.949  0.9737  3.8960  1.5005
  128SOL     OW  382   1.116   1.085   0.201 -0.4717 -0.1459 -0.4578
  128SOL    HW1  383   1.059   1.081   0.116 -0.3404  0.4723  3.3434
  128SOL    HW2  384   1.212   1.106   0.187  0.6294 -0.6136  2.4313
  129SOL     OW  385   2.014   1.131   1.036 -0.0632 -0.1369  0.1781
  129SOL    HW1  386   2.021   1.059   0.964 -1.4294  0.3917  0.9755
  129SOL    HW2  387   1.949   1.206   1.018 -2.1875  0.0377  0.2086
  130SOL     OW  388   2.493   1.416   1.679 -0.1170  0.1059  0.2236
  130SOL    HW1  389   2.435   1.469   1.614  0.2802  0.9777  1.3416
  130SOL    HW2  390   2.577   1.474   1.684  1.7717 -0.2753 -0.8137
  131SOL     OW  391   3.016   2.719   2.857 -0.2078  0.1967 -0.0073
  131SOL    HW1  392   2.926   2.717   2.902 -2.2746 -1.2153 -2.8699
  131SOL    HW2  393   3.013   2.767   2.768 -1.5011 -1.5192  1.8831
  132SOL     OW  394   0.030   1.571   0.435  0.1461  0.0216  0.0439
  132SOL    HW1  395   3.103   1.524   0.356 -0.9459 -0.9548 -1.0461
  132SOL    HW2  396   0.021   1.524   0.525  1.6818  0.1232  0.7736
  133SOL     OW  397   0.422   0.438   1.580 -0.5032 -0.2648 -0.3053
  133SOL    HW1  398   0.391   0.528   1.618 -1.6288  1.5288 -0.4444
  133SOL    HW2  399   0.433   0.369   1.653 -0.7669  1.5437 -3.5453
  134SOL     OW  400   0.312   1.946   2.993 -0.2653  0.1909  0.5153
  134SOL    HW1  401   0.234   1.921   2.936  2.4635 -0.6347  0.0524
  134SOL    HW2  402   0.387   1.980   2.937  1.0244 -0.5971  1.2250
  135SOL     OW  403   1.694   0.639   1.824  0.0241 -0.0701  0.7654
  135SOL    HW1  404   1.696   0.739   1.814  2.4187 -3.4495 -0.4321
  135SOL    HW2  405   1.669   0.606   1.915 -1.1846 -1.7640 -1.5710
  136SOL     OW  406   2.954   1.043   0.102 -1.2941  0.6006  0.0673
  136SOL    HW1  407   3.039   0.986   0.074  2.9376  1.8312 -2.1325
  136SOL    HW2  408   2.905   1.095   0.028 -3.4635 -1.2942 -0.9574
  137SOL     OW  409   0.307   1.286   1.146  0.3349 -0.5704 -0.9344
  137SOL    HW1  410   0.209   1.291   1.183 -0.5070 -2.0673  4.1284
  137SOL    HW2  411   0.314   1.201   1.091  0.1797  1.4014 -0.2430
  138SOL     OW  412   2.391   0.473   1.319 -0.3727 -0.2865  0.3090
  138SOL    HW1  413   2.413   0.378   1.284 -0.5462  0.3439 -1.8076
  138SOL    HW2  414   2.359   0.474   1.416 -1.4364  1.7472  0.4049
  139SOL     OW  415   1.378   2.586   0.273 -0.1575 -0.2309 -0.4319
  139SOL    HW1  416   1.458   2.617   0.221  1.5016 -0.9154 -2.5309
  139SOL    HW2  417   1.298   2.572   0.210  1.0017  2.5128 -1.6857
  140SOL     OW  418   1.297   1.474   1.339 -0.3276  0.4698  0.2173
  140SOL    HW1  419   1.231   1.423   1.274 -0.0327 -1.5455 -0.9323
  140SOL    HW2  420   1.367   1.534   1.292  1.2561  1.3077 -1.8155
  141SOL     OW  421   1.432   2.120   0.336 -0.4159 -0.2628  0.4727
  141SOL    HW1  422   1.335   2.106   0.306 -0.6656  1.2000  1.1671
  141SOL    HW2  423   1.442   2.105   0.434 -2.2652  1.5527 -1.9931
  142SOL     OW  424   0.761   0.383   0.490 -0.0057  0.3127 -0.2416
  142SOL    HW1  425   0.829   0.305   0.469 -0.1794 -1.2915 -0.6630
  142SOL    HW2  426   0.726   0.429   0.410  2.6419 -1.9992  1.3568
  143SOL     OW  427   0.479   1.995   2.748 -0.1377 -0.7099 -0.3947
  143SOL    HW1  428   0.503   2.076   2.808 -0.2286  2.8653  1.2945
  143SOL    HW2  429   0.390   1.998   2.701  3.0857 -1.9887  0.7616
  144SOL     OW  430   1.585   2.703   0.922  0.0820 -0.2065 -0.7660
  144SOL    HW1  431   1.557   2.804   0.919 -2.6080 -0.8873  0.6136
  144SOL    HW2  432   1.665   2.681   0.863  1.9652  1.8459 -1.0512
  145SOL     OW  433   1.879   0.658   2.797 -0.2456  0.1721 -0.0943
  145SOL    HW1  434   1.869   0.558   2.771  2.3480  0.5110  0.7897
  145SOL    HW2  435   1.828   0.681   2.881  2.7310 -0.4557  0.8660
  146SOL     OW  436   0.102   2.621   0.846 -0.2293  0.2005  0.0412
  146SOL    HW1  437   0.067   2.713   0.827 -0.8521 -0.3050 -1.4091
  146SOL    HW2  438   0.139   2.578   0.757  3.1149 -2.0267 -3.1058
  147SOL     OW  439   2.087   3.042   2.083  0.6282  0.4704 -0.0534
  147SOL    HW1  440   2.092   2.940   2.077  0.3287 -0.1059  0.8825
  147SOL    HW2  441   2.000   3.081   2.048 -1.0597  1.1078  2.5732
  148SOL     OW  442   1.071   0.023   1.913 -0.4364 -0.1187  0.0296
  148SOL    HW1  443   1.024   0.117   1.894  1.7330  0.0727 -0.0381
  148SOL    HW2  444   1.006   3.067   1.951 -1.7962  2.6065  0.0704
  149SOL     OW  445   1.558   0.531   2.040  0.2477 -0.2156  0.2348
  149SOL    HW1  446   1.592   0.468   2.111 -0.4024  0.2039 -2.0202
  149SOL    HW2  447   1.464   0.564   2.066 -1.9318  0.5743  1.0133
  150SOL     OW  448   2.838   0.087   2.945 -0.2138 -0.0989  0.5891
  150SOL    HW1  449   2.889   0.175   2.928  1.6298 -1.9971 -0.9944
  150SOL    HW2  450   2.797   0.063   2.856 -0.0897  2.0321  1.1014
  151SOL     OW  451   0.816   1.638   0.377  0.1508 -0.1735 -0.6923
  151SOL    HW1  452   0.743   1.673   0.445 -3.0329  1.3720  1.6591
  151SOL    HW2  453   0.801   1.681   0.284 -0.2957  0.9556  0.3988
  152SOL     OW  454   2.928   0.529   0.321  0.0013 -0.3753  0.3686
  152SOL    HW1  455   2.866   0.551   0.396 -1.3438  0.3243 -1.3915
  152SOL    HW2  456   3.023   0.543   0.346 -2.1721 -1.7542 -1.3884
  153SOL     OW  457   2.796   0.386   1.507  0.2754  0.2259 -0.1762
  153SOL    HW1  458   2.809   0.482   1.487 -0.3625 -2.7939  1.2355
  153SOL    HW2  459   2.794   0.374   1.610 -0.6923  0.6297  1.1610
  154SOL     OW  460   1.536   3.107   2.044 -0.2460 -0.0309 -0.1641
  154SOL    HW1  461   1.514   3.008   2.045  0.4066 -0.6044 -1.2458
  154SOL    HW2  462   1.467   0.043   1.980 -2.0560  0.0281 -2.6868
  155SOL     OW  463   0.335   1.731   0.846  0.2119 -0.0633  0.5057
  155SOL    HW1  464   0.371   1.659   0.787 -0.7261  1.5343  1.2784
  155SOL    HW2  465   0.404   1.808   0.856  0.0625  1.3109  1.7071
  156SOL     OW  466   2.252   2.271   0.065 -0.6206 -0.3279  0.1777
  156SOL    HW1  467   2.203   2.310   3.098  0.5053 -0.3978 -0.3840
  156SOL    HW2  468   2.197   2.283   0.150 -0.6633 -2.0577 -0.9370
  157SOL     OW  469   1.042   0.438   0.251  0.0189 -0.2195 -0.4162
  157SOL    HW1  470   1.024   0.534   0.220  0.1335  0.8061  0.3606
  157SOL    HW2  471   1.113   0.396   0.193 -0.3003  0.5417  1.0215
  158SOL     OW  472   2.334   0.067   2.791  0.2688  0.2586 -0.3068
  158SOL    HW1  473   2.338   0.163   2.819 -1.4621 -0.9176  0.1337
  158SOL    HW2  474   2.315   0.064   2.691  0.8070  1.5689  0.2775
  159SOL     OW  475   2.962   0.137   0.279  0.4426 -0.2895 -0.1537
  159SOL    HW1  476   3.020   0.204   0.230  1.7909  1.5655 -0.0914
  159SOL    HW2  477   2.996   0.126   0.374 -0.8640 -0.0657  0.3272
  160SOL     OW  478   1.553   1.857   2.484 -0.7455  0.2149  0.5155
  160SOL    HW1  479   1.623   1.783   2.506 -0.2425 -0.6707  0.1756
  160SOL    HW2  480   1.511   1.842   2.393  0.1660  0.1759 -0.2907
  161SOL     OW  481   2.623   0.908   2.649  0.1321  0.4072 -0.1521
  161SOL    HW1  482   2.696   0.839   2.633  1.1816  0.7073  0.6179
  161SOL    HW2  483   2.540   0.868   2.596 -0.8084 -0.2388 -1.5594
  162SOL     OW  484   0.516   2.348   1.484  0.3033 -0.2680 -0.2554
  162SOL    HW1  485   0.550   2.439   1.449  0.0289  1.1310  2.9803
  162SOL    HW2  486   0.566   2.330   1.576  0.1916 -0.6540  3.1196
  163SOL     OW  487   2.069   0.512   2.479 -0.0637  0.1493  0.0295
  163SOL    HW1  488   2.084   0.433   2.543  1.5815  1.2516  2.7451
  163SOL    HW2  489   2.078   0.482   2.379  2.1381  1.2371 -3.7275
  164SOL     OW  490   2.079   1.891   0.442  0.1752  0.3255  0.0984
  164SOL    HW1  491   2.122   1.886   0.347  0.9683  0.0602 -3.0533
  164SOL    HW2  492   2.115   1.817   0.500  1.2986  0.5344 -1.8589
  165SOL     OW  493   3.044   0.255   1.429 -0.4785 -0.2115 -0.2283
  165SOL    HW1  494   2.967   0.324   1.449  0.6557  0.9750 -0.6830
  165SOL    HW2  495   0.017   0.296   1.391 -2.3288  1.6920 -0.6207
  166SOL     OW  496   2.353   1.193   0.023  0.5452 -0.3020 -0.1384
  166SOL    HW1  497   2.395   1.263   3.070  1.7721 -1.2095 -0.0757
  166SOL    HW2  498   2.287   1.239   0.089 -0.5073 -1.3028  1.1319
  167SOL     OW  499   2.851   0.793   3.001 -0.2247  0.0309 -0.0598
  167SOL    HW1  500   2.841   0.750   3.092 -0.0581 -1.3330 -0.7839
  167SOL    HW2  501   2.908   0.738   2.937  0.4349  0.8268 -0.1673
  168SOL     OW  502   1.548   2.804   2.799  0.3508 -0.1060 -0.1022
  168SOL    HW1  503   1.639   2.831   2.776 -1.6750 -0.6540 -0.0949
  168SOL    HW2  504   1.472   2.863   2.779  0.9579 -1.4412  1.5253
  169SOL     OW  505   0.040   1.528   0.728 -0.1097 -0.1068  0.6653
  169SOL    HW1  506   0.067   1.625   0.750 -3.8668  3.3975  0.0559
  169SOL    HW2  507   3.053   1.506   0.751  1.3503 -1.2622 -0.6145
  170SOL     OW  508   0.094   0.456   1.204  0.3639  0.1892  0.2155
  170SOL    HW1  509   0.136   0.507   1.282 -0.5081 -2.2952 -2.1626
  170SOL    HW2  510   3.111   0.487   1.179 -1.2792  1.3566 -0.9610
  171SOL     OW  511   1.816   2.020   2.518  0.2990 -0.3991  0.1561
  171SOL    HW1  512   1.852   1.969   2.433  2.5823 -2.9124 -1.8421
  171SOL    HW2  513   1.721   2.054   2.507 -0.6310  0.8833  1.2262
  172SOL     OW  514   0.039   2.724   1.479  0.0938 -0.0618 -0.8899
  172SOL    HW1  515   0.045   2.818   1.511  0.2550 -2.3589 -2.8038
  172SOL    HW2  516   0.128   2.680   1.489  0.1700  1.2419  2.2345
  173SOL     OW  517   1.180   0.801   0.223 -0.3812 -0.0004 -0.2148
  173SOL    HW1  518   1.150   0.900   0.233  0.1379  0.2236 -0.5279
  173SOL    HW2  519   1.276   0.789   0.184  2.5004 -0.8519 -1.6405
  174SOL     OW  520   1.092   0.183   2.608 -0.1597  0.4582 -0.1126
  174SOL    HW1  521   1.047   0.165   2.699 -0.6056 -0.5483  0.5746
  174SOL    HW2  522   1.090   0.104   2.548  1.2594  0.4690  1.6973
  175SOL     OW  523   2.054   1.856   0.812  0.2629 -0.1832 -0.0886
  175SOL    HW1  524   1.962   1.896   0.829  1.0972  1.4308  1.2030
  175SOL    HW2  525   2.113   1.878   0.894 -0.5216  1.5204  0.6627
  176SOL     OW  526   1.259   0.347   0.120 -0.0333 -0.0669  0.6359
  176SOL    HW1  527   1.295   0.409   0.048  1.0369  1.0619 -1.6146
  176SOL    HW2  528   1.234   0.258   0.078  0.1404 -1.3037  0.6073
  177SOL     OW  529   0.894   1.464   0.148  0.4357 -0.5069 -0.5990
  177SOL    HW1  530   0.897   1.491   0.246  0.3397 -1.9657 -2.6418
  177SOL    HW2  531   0.981   1.489   0.104 -0.7373  0.0966  1.5702
  178SOL     OW  532   2.575   2.333   2.848 -0.0450  0.0257 -0.2608
  178SOL    HW1  533   2.619   2.246   2.876  1.1528 -3.0153  0.7503
  178SOL    HW2  534   2.552   2.380   2.937 -1.3392 -1.0331  2.6065
  179SOL     OW  535   2.679   2.911   2.844  0.4992  0.0741  0.1740
  179SOL    HW1  536   2.650   2.922   2.945 -1.0570 -0.1392  0.9539
  179SOL    HW2  537   2.659   2.823   2.804  0.9103  2.8922  0.6157
  180SOL     OW  538   1.444   1.535   0.747 -0.0298 -0.2244 -0.2834
  180SOL    HW1  539   1.427   1.435   0.726 -0.8262 -1.1095  0.3352
  180SOL    HW2  540   1.410   1.601   0.677 -0.8602  0.4313 -0.2339
  181SOL     OW  541   1.687   1.085   2.561  0.6873 -0.6043  0.6993
  181SOL    HW1  542   1.673   0.988   2.551  0.7597 -0.8469  0.5498
  181SOL    HW2  543   1.782   1.097   2.588 -3.7289  0.0786 -0.5762
  182SOL     OW  544   2.560   2.951   2.522  0.0422 -0.3441  0.1122
  182SOL    HW1  545   2.536   3.027   2.588  0.0513 -1.9762  1.1752
  182SOL    HW2  546   2.614   2.985   2.441  1.7642 -0.6421  1.5316
  183SOL     OW  547   1.786   0.524   2.447 -0.7271 -0.1232  0.9961
  183SOL    HW1  548   1.762   0.587   2.366 -1.3778  1.5970 -1.4742
  183SOL    HW2  549   1.886   0.524   2.458 -0.2896  1.0239 -3.9608
  184SOL     OW  550   0.096   1.332   1.315 -0.6655 -0.5325  0.3328
  184SOL    HW1  551   0.021   1.264   1.315  0.0586  1.1414 -0.4587
  184SOL    HW2  552   0.089   1.408   1.376 -1.6024 -2.8324  0.8101
  185SOL     OW  553   1.723   0.597   0.648  0.0375 -0.3925 -0.2154
  185SOL    HW1  554   1.795   0.583   0.718 -2.1984 -0.3340  4.5780
  185SOL    HW2  555   1.648   0.531   0.661  1.1281  2.9164  1.1326
  186SOL     OW  556   0.305   2.570   2.904 -0.4746 -0.0292 -0.0911
  186SOL    HW1  557   0.234   2.635   2.919  0.8790 -3.2641 -0.9062
  186SOL    HW2  558   0.259   2.484   2.866 -0.1498 -2.6808 -1.9732
  187SOL     OW  559   2.676   0.991   0.166 -0.2579  0.1012 -0.0264
  187SOL    HW1  560   2.759   1.036   0.126  0.2717  1.0471  0.4353
  187SOL    HW2  561   2.608   0.971   0.098  2.7501 -1.2852  3.4553
  188SOL     OW  562   2.921   1.609   1.488  0.4841  0.2317 -0.5180
  188SOL    HW1  563   2.920   1.508   1.509 -0.1884 -0.3271 -3.4058
  188SOL    HW2  564   2.996   1.629   1.424 -0.4092 -0.4213 -2.7855
  189SOL     OW  565   2.441   0.562   2.909 -0.2403 -0.1687 -0.5337
  189SOL    HW1  566   2.468   0.595   2.817 -0.2340  0.1166  2.6472
  189SOL    HW2  567   2.524   0.553   2.977  4.9020 -0.6699  1.1449
  190SOL     OW  568   1.554   1.374   2.213  0.1771 -0.0012 -0.6428
  190SOL    HW1  569   1.530   1.370   2.114  2.5684 -0.5911 -2.8127
  190SOL    HW2  570   1.485   1.422   2.265 -1.0174  1.4162 -0.7032
  191SOL     OW  571   0.647   0.316   2.007 -0.0233 -0.0833  0.3525
  191SOL    HW1  572   0.556   0.316   1.960 -0.2885 -1.3162  2.7271
  191SOL    HW2  573   0.682   0.224   1.993 -0.0759 -0.6087  1.4426
  192SOL     OW  574   1.938   1.403   1.136  0.1602  0.1298 -0.1208
  192SOL    HW1  575   1.842   1.370   1.121  0.2474  0.9343 -0.1356
  192SOL    HW2  576   1.956   1.396   1.238 -1.2475 -0.0394  1.4524
  193SOL     OW  577   1.466   0.615   1.015  0.9110 -0.2546  0.0195
  193SOL    HW1  578   1.567   0.630   1.021  0.3795 -0.8574 -1.9751
  193SOL    HW2  579   1.419   0.683   0.952  2.0408 -1.0223 -2.0007
  194SOL     OW  580   0.897   2.182   1.490 -0.0520  0.2318  0.0415
  194SOL    HW1  581   0.816   2.242   1.463  0.1901  0.1867 -3.6661
  194SOL    HW2  582   0.859   2.088   1.500 -2.6473 -1.1632  0.2054
  195SOL     OW  583   1.854   0.096   2.969  0.2963 -0.1150 -0.0679
  195SOL    HW1  584   1.909   0.028   3.021 -0.6696  0.5418  2.8354
  195SOL    HW2  585   1.875   0.098   2.868 -2.6381  2.5256 -1.7899
  196SOL     OW  586   0.611   1.607   1.734 -0.1237  0.1298  0.1688
  196SOL    HW1  587   0.601   1.550   1.654  0.3113 -0.1276  0.8909
  196SOL    HW2  588   0.674   1.563   1.803  0.8617 -1.6961  1.0859
  197SOL     OW  589   1.031   0.068   1.373 -0.0027  0.1995 -0.1676
  197SOL    HW1  590   1.080   0.055   1.284  1.2497 -1.1164  0.8098
  197SOL    HW2  591   1.075   0.144   1.423 -1.2770 -0.9647 -1.3433
  198SOL     OW  592   0.748   1.094   1.080  0.6252 -0.0391 -0.1259
  198SOL    HW1  593   0.771   1.003   1.115  1.1973  1.6094  3.1839
  198SOL    HW2  594   0.785   1.106   0.985 -0.9030 -0.2687 -0.0004
  199SOL     OW  595   0.289   2.539   1.711  0.4323  0.1194 -0.2943
  199SOL    HW1  596   0.364   2.534   1.781  0.7665 -0.2556 -0.8037
  199SOL    HW2  597   0.312   2.612   1.643 -1.0770  0.8262 -0.2171
  200SOL     OW  598   1.805   1.658   2.041 -0.0771  0.2154  0.6055
  200SOL    HW1  599   1.789   1.619   1.945 -2.4893  0.0774 -2.0945
  200SOL    HW2  600   1.821   1.585   2.113 -0.6076 -1.4841  0.3144
  201SOL     OW  601   0.408   1.740   2.370 -0.0101  0.2529  0.1768
  201SOL    HW1  602   0.324   1.760   2.423 -0.2056 -0.8805  0.8801
  201SOL    HW2  603   0.490   1.732   2.433  4.3398  0.7384 -1.1647
  202SOL     OW  604   1.694   0.561   0.091 -0.0870 -0.2960 -0.1757
  202SOL    HW1  605   1.755   0.484   0.073 -1.7500  2.4553 -1.3746
  202SOL    HW2  606   1.638   0.559   0.178 -2.7794  1.1866 -1.3014
  203SOL     OW  607   1.227   2.567   2.005 -0.4581  0.6551  0.0918
  203SOL    HW1  608   1.160   2.516   2.061  4.1164  3.3015 -0.5575
  203SOL    HW2  609   1.183   2.631   1.944  2.9962 -0.5007  2.6217
  204SOL     OW  610   0.957   1.924   1.767  0.0470 -0.0599 -0.1992
  204SOL    HW1  611   0.938   1.907   1.669 -0.5023  0.9734  0.3889
  204SOL    HW2  612   1.057   1.954   1.776  2.0265 -0.2538 -1.1335
  205SOL     OW  613   1.646   1.893   2.082  0.6917  0.7504  0.0332
  205SOL    HW1  614   1.703   1.819   2.045  0.6959 -1.1524 -2.5240
  205SOL    HW2  615   1.581   1.850   2.148  0.4144  0.6543 -2.7284
  206SOL     OW  616   0.054   1.028   2.440  0.5824  0.6028  0.1465
  206SOL    HW1  617   0.003   0.951   2.395 -0.4632  2.0969  0.4130
  206SOL    HW2  618   0.141   1.049   2.393  0.4848 -0.6557  1.0993
  207SOL     OW  619   0.874   2.948   1.977 -0.0244 -0.1567  0.2538
  207SOL    HW1  620   0.922   2.922   2.060  2.4123 -1.5516 -1.8787
  207SOL    HW2  621   0.788   2.890   1.959 -0.8718 -0.3292  1.1250
  208SOL     OW  622   0.631   2.821   1.965 -0.5697  0.0884 -0.2407
  208SOL    HW1  623   0.686   2.734   1.966  1.8246  2.1217 -1.5815
  208SOL    HW2  624   0.598   2.840   1.874  1.5940 -2.9836  1.3647
  209SOL     OW  625   1.525   0.168   0.143 -0.5968  0.8016  0.6741
  209SOL    HW1  626   1.596   0.189   0.219 -2.4773 -1.4414  0.4817
  209SOL    HW2  627   1.434   0.188   0.182 -0.0784  0.4815  2.4107
  210SOL     OW  628   2.758   0.792   0.812 -0.7408 -0.0942 -0.4176
  210SOL    HW1  629   2.826   0.809   0.887  0.0023 -2.7591  0.8053
  210SOL    HW2  630   2.782   0.835   0.723  0.1518  1.4050 -1.5334
  211SOL     OW  631   0.545   0.481   1.354 -0.3406  0.3443 -0.2363
  211SOL    HW1  632   0.521   0.573   1.316 -0.5683 -0.8779  0.6773
  211SOL    HW2  633   0.513   0.475   1.450  2.3012 -0.5471 -0.6279
  212SOL     OW  634   1.711   1.706   1.321  0.0926  0.0962 -0.1305
  212SOL    HW1  635   1.753   1.675   1.411 -2.0411  0.7928 -0.4848
  212SOL    HW2  636   1.675   1.804   1.327  0.3122  1.9894  2.2481
  213SOL     OW  637   2.336   0.250   1.893 -0.4744  0.0436 -0.2026
  213SOL    HW1  638   2.326   0.196   1.812  0.3450  0.4265 -2.1688
  213SOL    HW2  639   2.400   0.331   1.869  1.9061  0.7660  0.1330
  214SOL     OW  640   0.633   2.553   2.306  0.1843  0.1672  0.0224
  214SOL    HW1  641   0.689   2.576   2.225 -1.9215 -2.9779 -0.2425
  214SOL    HW2  642   0.691   2.497   2.371 -2.3439 -1.8101 -1.7733
  215SOL     OW  643   2.715   1.584   1.692  0.5736  0.2148  0.6002
  215SOL    HW1  644   2.763   1.525   1.760 -2.2784 -2.3495 -0.7007
  215SOL    HW2  645   2.778   1.629   1.624  0.4574  0.1488 -0.7134
  216SOL     OW  646   0.642   0.883   1.741  0.3469  0.7506  0.1923
  216SOL    HW1  647   0.725   0.916   1.789  0.6511 -0.6683 -0.8586
  216SOL    HW2  648   0.582   0.966   1.735  0.0713 -0.3691  4.0352
  217SOL     OW  649   2.744   0.497   0.563  0.2764  0.0049  0.3043
  217SOL    HW1  650   2.833   0.511   0.611 -1.3752  1.4011  0.1745
  217SOL    HW2  651   2.669   0.546   0.614  0.6733 -0.8680 -1.0616
  218SOL     OW  652   1.587   1.980   1.249 -0.4815  0.1664 -0.0366
  218SOL    HW1  653   1.620   2.035   1.167 -0.2268 -1.8878 -1.5153
  218SOL    HW2  654   1.577   2.041   1.329 -0.8342 -2.7568 -0.6508
  219SOL     OW  655   1.806   0.017   0.651  0.2795 -0.0266 -0.1031
  219SOL    HW1  656   1.869   3.055   0.688  0.4703 -1.2417 -0.9576
  219SOL    HW2  657   1.747   3.086   0.579 -1.5768 -0.2627 -2.9409
  220SOL     OW  658   1.831   2.252   0.764 -0.2091  0.0881  0.4008
  220SOL    HW1  659   1.802   2.348   0.786 -0.7333 -1.4243  1.3947
  220SOL    HW2  660   1.765   2.183   0.729 -0.2913 -1.1629 -1.2875
  221SOL     OW  661   2.869   1.325   0.392  0.3793  0.3691 -0.1017
  221SOL    HW1  662   2.769   1.332   0.389 -3.6927 -1.5803 -0.4633
  221SOL    HW2  663   2.916   1.369   0.315  1.4430 -2.7292 -0.7930
  222SOL     OW  664   0.762   2.243   1.077 -0.2223  0.2207 -0.4434
  222SOL    HW1  665   0.848   2.200   1.033  0.3835 -2.8506  0.0131
  222SOL    HW2  666   0.791   2.306   1.152  1.2388  2.6897  2.4593
  223SOL     OW  667   1.385   0.331   0.379  0.6962  0.2857  0.2686
  223SOL    HW1  668   1.450   0.404   0.377 -0.9886 -3.4862  2.9572
  223SOL    HW2  669   1.321   0.339   0.299 -1.5351  0.2807 -1.3825
  224SOL     OW  670   2.760   1.222   1.337  0.5920 -0.0237 -0.1195
  224SOL    HW1  671   2.671   1.170   1.320 -2.0408 -1.2933  0.8707
  224SOL    HW2  672   2.776   1.301   1.276  1.3340  0.1993 -1.4403
  225SOL     OW  673   0.575   1.453   1.524  0.2407  0.7433 -0.1319
  225SOL    HW1  674   0.605   1.357   1.542  1.1546 -0.9380 -0.4247
  225SOL    HW2  675   0.540   1.453   1.427 -0.9478 -0.3991  1.3175
  226SOL     OW  676   0.465   2.943   0.784  0.0393 -0.0056  0.6733
  226SOL    HW1  677   0.427   2.862   0.831  0.3653  1.0198  1.4754
  226SOL    HW2  678   0.479   3.020   0.851 -0.4972 -0.4695 -0.1118
  227SOL     OW  679   1.321   1.593   1.884 -0.4498  0.0555  0.0900
  227SOL    HW1  680   1.308   1.606   1.784 -2.0786  1.8165  2.2847
  227SOL    HW2  681   1.361   1.673   1.927  1.3538 -1.4909 -1.8998
  228SOL     OW  682   0.815   0.118   1.670 -0.0760 -0.4933 -0.4586
  228SOL    HW1  683   0.826   0.220   1.674  1.1891  0.7837  3.6170
  228SOL    HW2  684   0.897   0.075   1.628  0.7952  2.3145 -1.3294
  229SOL     OW  685   2.794   0.701   2.656  0.3281  0.3968  0.0251
  229SOL    HW1  686   2.802   0.671   2.558 -3.1813 -0.5889 -1.2562
  229SOL    HW2  687   2.878   0.675   2.711  1.4957 -2.1775 -0.3439
  230SOL     OW  688   0.355   0.834   1.122 -0.6001  0.1636  0.4060
  230SOL    HW1  689   0.375   0.917   1.064 -2.0036 -0.0196  0.2908
  230SOL    HW2  690   0.288   0.853   1.195 -2.6371 -1.0708 -0.7686
  231SOL     OW  691   1.285   2.932   1.694  0.6460 -0.1151  0.0829
  231SOL    HW1  692   1.255   2.950   1.596 -1.4814  1.3272  1.3385
  231SOL    HW2  693   1.377   2.969   1.702 -3.5075 -1.3842 -0.2725
  232SOL     OW  694   3.004   2.081   0.121  0.0211 -0.3998  0.7506
  232SOL    HW1  695   3.002   2.033   0.211 -1.6165 -1.4436 -2.5307
  232SOL    HW2  696   2.913   2.065   0.080 -0.0290 -0.5587  0.6613
  233SOL     OW  697   1.202   2.487   2.884 -0.3004  0.2557  0.7418
  233SOL    HW1  698   1.212   2.446   2.786 -1.3660 -0.2437 -0.5737
  233SOL    HW2  699   1.261   2.569   2.894 -0.1224 -0.8241 -1.5262
  234SOL     OW  700   0.494   1.116   1.745  0.2065  0.5961  0.0955
  234SOL    HW1  701   0.561   1.158   1.682  0.0222 -2.2344 -0.2579
  234SOL    HW2  702   0.424   1.180   1.780 -0.2740 -0.3462  2.5515
  235SOL     OW  703   3.038   2.470   2.364 -0.2986 -0.2477 -0.5612
  235SOL    HW1  704   0.020   2.438   2.385  2.2104 -1.9050 -3.0304
  235SOL    HW2  705   2.971   2.427   2.431 -2.7341 -1.1737 -0.1454
  236SOL     OW  706   1.731   1.991   2.794  0.3775  0.7308 -0.2286
  236SOL    HW1  707   1.741   1.932   2.714  1.7750  1.9051 -0.2939
  236SOL    HW2  708   1.782   2.078   2.781 -0.1330  2.7638  3.6124
  237SOL     OW  709   1.706   0.961   0.991 -0.1633  0.0006 -0.2549
  237SOL    HW1  710   1.748   1.051   0.966  1.2624 -1.1803 -2.7716
  237SOL    HW2  711   1.675   0.911   0.910 -0.2468  1.6040  4.2561
  238SOL     OW  712   1.227   2.713   2.236  0.0736 -0.0618  0.3359
  238SOL    HW1  713   1.234   2.650   2.159  1.8769  2.1328  1.1735
  238SOL    HW2  714   1.224   2.810   2.193  2.3792  0.7104  0.4771
  239SOL     OW  715   0.958   2.456   1.948  0.5099 -0.5085  0.5954
  239SOL    HW1  716   1.018   2.405   2.009 -1.5416  0.0840 -0.9956
  239SOL    HW2  717   0.947   2.396   1.866 -2.5282  0.6408 -1.0112
  240SOL     OW  718   2.340   0.013   0.725  0.4277 -0.1375  0.0565
  240SOL    HW1  719   2.401   3.043   0.712 -1.5117  1.9207 -1.7562
  240SOL    HW2  720   2.377   0.094   0.678  1.7780 -1.1273  3.1797
  241SOL     OW  721   1.077   1.464   2.821  0.0755 -0.0006  0.1652
  241SOL    HW1  722   1.055   1.550   2.875  0.1529  0.3052  0.5309
  241SOL    HW2  723   1.178   1.455   2.816 -2.7740  1.7954 -1.6687
  242SOL     OW  724   2.679   0.981   2.906 -0.2390  0.3300  0.8850
  242SOL    HW1  725   2.749   0.909   2.938  0.8957 -2.1878 -2.0775
  242SOL    HW2  726   2.653   0.951   2.811  1.0365 -0.5153  2.4364
  243SOL     OW  727   0.858   0.460   1.699  0.4223  0.2831  0.4416
  243SOL    HW1  728   0.817   0.524   1.764  1.6453  1.0437 -2.1110
  243SOL    HW2  729   0.876   0.515   1.613 -0.3975  0.1216 -1.4367
  244SOL     OW  730   1.111   2.969   2.922 -0.2346  0.5432  0.2849
  244SOL    HW1  731   1.103   2.876   2.960  0.0948 -2.1859 -0.4987
  244SOL    HW2  732   1.206   3.009   2.943  0.0668  1.6506 -0.3783
  245SOL     OW  733   1.578   2.759   0.098  0.1732 -0.1158  0.1045
  245SOL    HW1  734   1.622   2.704   0.170 -0.9230  1.9514 -1.0089
  245SOL    HW2  735   1.561   2.854   0.128 -0.8783 -0.7981 -0.8145
  246SOL     OW  736   0.824   1.011   1.904 -0.5195  0.3423 -0.1226
  246SOL    HW1  737   0.764   1.056   1.971  0.9234  1.1188  1.1395
  246SOL    HW2  738   0.901   1.070   1.871 -0.3909 -1.9553 -0.9962
  247SOL     OW  739   3.094   0.527   2.316 -0.1632 -0.8586 -0.0292
  247SOL    HW1  740   0.003   0.455   2.250 -0.8395 -2.1639  1.9772
  247SOL    HW2  741   0.036   0.510   2.404 -0.9173  0.7638  1.2530
  248SOL     OW  742   0.102   1.259   2.120  0.1726  0.4328 -0.5207
  248SOL    HW1  743   0.003   1.231   2.132 -2.7719  0.8899 -4.1269
  248SOL    HW2  744   0.156   1.258   2.205 -1.7270 -1.1038 -0.6576
  249SOL     OW  745   2.986   0.395   0.079  0.9188 -0.4223  0.3969
  249SOL    HW1  746   3.064   0.347   0.119  0.1838  0.8826 -1.3250
  249SOL    HW2  747   2.943   0.448   0.152 -1.5186 -0.6237  0.7410
  250SOL     OW  748   2.703   0.413   2.829 -0.1036  0.2288 -0.3580
  250SOL    HW1  749   2.679   0.447   2.924  1.2889  1.7653  0.0684
  250SOL    HW2  750   2.624   0.430   2.770 -0.7770  0.8257  0.5834
  251SOL     OW  751   0.901   1.732   1.955 -0.1098  0.4544  0.2172
  251SOL    HW1  752   0.822   1.766   2.006  0.3635 -2.3802  0.7248
  251SOL    HW2  753   0.938   1.796   1.886 -2.9175  0.3670 -0.3394
  252SOL     OW  754   2.173   1.569   1.291  0.4507  0.2491 -0.6767
  252SOL    HW1  755   2.195   1.561   1.193 -0.3858 -1.6065 -0.5090
  252SOL    HW2  756   2.103   1.499   1.320  2.0317 -0.5498 -1.1566
  253SOL     OW  757   1.539   2.219   2.279 -0.7317 -0.1659  0.2315
  253SOL    HW1  758   1.566   2.320   2.273  0.9936 -0.7128  0.0731
  253SOL    HW2  759   1.585   2.162   2.204  0.9120 -0.3638 -0.0411
  254SOL     OW  760   0.618   2.334   2.095  0.5932  0.1233  0.2697
  254SOL    HW1  761   0.631   2.239   2.131  3.4679  2.0614 -2.9226
  254SOL    HW2  762   0.702   2.380   2.127 -1.3613 -0.5306  0.5711
  255SOL     OW  763   1.026   0.290   0.783  0.1090  0.1693  0.0638
  255SOL    HW1  764   0.994   0.364   0.719  0.1149 -1.1108  1.0602
  255SOL    HW2  765   0.951   0.218   0.794 -0.7412 -1.2358 -1.1009
  256SOL     OW  766   2.262   1.994   1.450 -0.1081  0.5288 -0.0279
  256SOL    HW1  767   2.317   2.046   1.377  1.8056 -2.6389  1.1796
  256SOL    HW2  768   2.186   1.934   1.411 -0.7647 -0.3770 -0.3013
  257SOL     OW  769   0.603   2.383   2.666  0.0796 -0.1355  0.5346
  257SOL    HW1  770   0.590   2.477   2.703 -0.3840  0.2937  3.6555
  257SOL    HW2  771   0.648   2.327   2.734 -0.1314  1.7390 -0.6614
  258SOL     OW  772   0.353   0.828   2.194  0.1010  0.7581 -0.1316
  258SOL    HW1  773   0.396   0.800   2.281 -0.7870 -3.0770  1.4876
  258SOL    HW2  774   0.405   0.901   2.145  0.1498 -1.7339  0.6282
  259SOL     OW  775   0.716   1.162   2.114 -0.1099  0.1272  0.2774
  259SOL    HW1  776   0.799   1.158   2.173 -0.8412 -2.7021  1.3281
  259SOL    HW2  777   0.666   1.253   2.099 -0.3431 -1.5369  0.2318
  260SOL     OW  778   2.098   0.927   0.841  0.3697  0.5538  0.0218
  260SOL    HW1  779   2.173   0.887   0.898 -1.6252 -1.0524  2.0503
  260SOL    HW2  780   2.133   0.973   0.757  1.4296 -2.2322 -1.9503
  261SOL     OW  781   0.820   0.056   0.794 -0.2069 -0.1379  0.0260
  261SOL    HW1  782   0.744   0.070   0.729 -1.7747  0.1080 -2.4365
  261SOL    HW2  783   0.887   3.109   0.742  0.0310 -2.4300 -1.6805
  262SOL     OW  784   2.007   2.474   2.409 -0.3448 -0.4402 -0.5851
  262SOL    HW1  785   1.968   2.457   2.501  0.4578 -1.1834  0.5330
  262SOL    HW2  786   2.106   2.478   2.412 -3.5392  2.6362 -0.3693
  263SOL     OW  787   0.396   1.726   0.019  0.0333  0.0116  0.0495
  263SOL    HW1  788   0.387   1.817   3.093  1.4170 -5.2474  1.1391
  263SOL    HW2  789   0.409   1.654   3.062  0.0838  1.3739 -1.2081
  264SOL     OW  790   0.376   1.902   1.383  0.2039  0.1439 -0.0796
  264SOL    HW1  791   0.476   1.883   1.363  0.9221  2.2031 -0.1195
  264SOL    HW2  792   0.341   1.980   1.330  1.5945 -1.3018 -0.8355
  265SOL     OW  793   0.918   0.833   0.505 -0.2625 -0.3420 -0.6429
  265SOL    HW1  794   0.824   0.818   0.467  1.3225 -2.1951 -0.6979
  265SOL    HW2  795   0.920   0.816   0.608 -1.3787 -0.8565  3.7096
  266SOL     OW  796   1.331   2.062   3.075  0.3321 -0.8288 -0.0041
  266SOL    HW1  797   1.404   2.117   0.008  1.2441  1.7020 -0.6924
  266SOL    HW2  798   1.374   1.981   3.017  1.2397 -4.3679  0.5295
  267SOL     OW  799   0.380   0.630   2.933  0.1350 -0.2251 -0.6316
  267SOL    HW1  800   0.353   0.536   2.969  2.1915 -0.5072 -1.1928
  267SOL    HW2  801   0.468   0.613   2.881  1.1121  1.4445  0.7688
  268SOL     OW  802   0.817   0.766   2.801  0.6462  0.2805  0.3666
  268SOL    HW1  803   0.833   0.731   2.708  1.0375 -0.3536  3.3047
  268SOL    HW2  804   0.876   0.844   2.819  0.0872  2.3979 -0.2041
  269SOL     OW  805   1.677   0.076   2.529 -0.5387 -0.7100  0.9066
  269SOL    HW1  806   1.635   0.101   2.440 -1.3679  1.8922  0.5618
  269SOL    HW2  807   1.630   0.118   2.607  1.0078 -0.5188 -0.0543
  270SOL     OW  808   0.730   0.959   2.476  0.3815 -0.4387  0.1554
  270SOL    HW1  809   0.754   0.902   2.395  0.0857  1.5215 -1.1126
  270SOL    HW2  810   0.636   0.950   2.511  1.3578 -0.0591 -0.6004
  271SOL     OW  811   0.236   0.712   0.217 -0.1874 -0.4863 -0.2583
  271SOL    HW1  812   0.202   0.764   0.301  1.8158  2.4937  1.6305
  271SOL    HW2  813   0.231   0.611   0.231  0.8655 -1.8204 -2.9980
  272SOL     OW  814   2.296   1.150   2.512  0.7087  0.0745  0.0820
  272SOL    HW1  815   2.208   1.157   2.453 -1.2235 -1.4491 -0.4001
  272SOL    HW2  816   2.367   1.095   2.471 -3.8071  2.0076 -0.8030
  273SOL     OW  817   0.042   0.345   2.155 -0.0800 -0.2150  0.4470
  273SOL    HW1  818   0.126   0.300   2.137 -3.6914  1.5047  0.5614
  273SOL    HW2  819   3.075   0.307   2.097 -2.3276 -0.7130 -0.1448
  274SOL     OW  820   2.940   0.238   2.005 -0.1073 -1.0400 -0.0818
  274SOL    HW1  821   3.013   0.177   1.968  1.6356  0.0025 -0.7717
  274SOL    HW2  822   2.871   0.169   2.040  0.1454 -1.2155  1.2291
  275SOL     OW  823   2.017   1.113   0.445  0.9456  0.0645  0.0911
  275SOL    HW1  824   2.010   1.018   0.414  0.1845  1.2353 -1.5179
  275SOL    HW2  825   1.961   1.180   0.384 -1.7162  2.6125 -2.0672
  276SOL     OW  826   0.332   1.144   2.900 -0.1894  0.1366 -0.8942
  276SOL    HW1  827   0.361   1.046   2.893  0.3505  2.2964  2.0610
  276SOL    HW2  828   0.314   1.177   2.808 -0.1102  1.7857  0.2434
  277SOL     OW  829   1.681   2.807   2.215  0.4910  0.3475 -0.0880
  277SOL    HW1  830   1.724   2.712   2.217  1.9198 -2.4792 -1.2087
  277SOL    HW2  831   1.699   2.865   2.295 -0.3613 -3.0477 -2.4600
  278SOL     OW  832   1.772   0.022   1.506 -0.0427  0.1149  0.1398
  278SOL    HW1  833   1.833   3.070   1.563 -0.5172 -1.4117  0.8382
  278SOL    HW2  834   1.703   0.069   1.568  3.7278 -0.3861  3.2403
  279SOL     OW  835   1.280   1.114   2.836 -0.2758  0.4982 -0.4598
  279SOL    HW1  836   1.364   1.122   2.780 -0.9272  1.4768  1.5423
  279SOL    HW2  837   1.315   1.122   2.935  0.7426 -1.2500 -0.5551
  280SOL     OW  838   0.794   1.243   0.263  0.4539  0.0755 -0.1626
  280SOL    HW1  839   0.841   1.320   0.215  1.0532 -1.2339  1.1819
  280SOL    HW2  840   0.860   1.181   0.308 -1.8015  3.9025 -1.1392
  281SOL     OW  841   0.378   3.047   1.573 -0.0161  0.6017 -0.1854
  281SOL    HW1  842   0.365   3.024   1.673 -2.8088  2.1469  0.5815
  281SOL    HW2  843   0.465   3.094   1.554 -1.8951 -1.3940 -1.4732
  282SOL     OW  844   0.044   2.353   0.873  0.0482 -0.0555 -0.3627
  282SOL    HW1  845   0.057   2.456   0.870 -1.1655  0.4152  0.6790
  282SOL    HW2  846   0.131   2.301   0.858 -0.1372  1.1367  0.3708
  283SOL     OW  847   1.231   2.177   2.013  0.3205  0.0471 -0.6334
  283SOL    HW1  848   1.182   2.250   2.065  1.1914  1.2437 -1.2924
  283SOL    HW2  849   1.316   2.208   1.967 -2.2770 -0.1658 -3.7942
  284SOL     OW  850   2.326   0.817   0.408 -0.4605  0.0917 -0.1693
  284SOL    HW1  851   2.329   0.724   0.453  0.0127 -0.7707  0.6366
  284SOL    HW2  852   2.329   0.805   0.304  0.6325  1.5914 -2.1118
  285SOL     OW  853   2.991   2.793   2.556  0.2550 -0.2383  0.1595
  285SOL    HW1  854   3.012   2.763   2.458 -0.8873 -2.1969 -1.4307
  285SOL    HW2  855   2.990   2.891   2.573  1.6344 -3.9166  0.8886
  286SOL     OW  856   2.248   2.504   1.191  0.1865 -0.4587  0.1381
  286SOL    HW1  857   2.283   2.563   1.269 -0.4826  0.7540 -0.3649
  286SOL    HW2  858   2.160   2.458   1.215  1.9353  0.5069  2.0017
  287SOL     OW  859   0.631   1.346   1.064  0.2352  0.0968  0.3612
  287SOL    HW1  860   0.693   1.405   1.008  2.0361 -0.3562 -0.1837
  287SOL    HW2  861   0.676   1.260   1.090 -1.6156  1.8162  0.2378
  288SOL     OW  862   1.719   2.541   0.231 -0.4908  0.2391  0.7573
  288SOL    HW1  863   1.718   2.466   0.298 -1.3291 -1.2430  0.1689
  288SOL    HW2  864   1.717   2.508   0.133 -0.3398  1.1122  0.8569
  289SOL     OW  865   0.246   2.004   2.605  0.1986 -0.8477  0.0981
  289SOL    HW1  866   0.263   2.106   2.590  1.0180  3.5610  0.7665
  289SOL    HW2  867   0.197   1.959   2.526  1.0532  1.3139 -0.3127
  290SOL     OW  868   1.647   2.104   1.025 -0.0891  0.2514 -0.3006
  290SOL    HW1  869   1.707   2.177   1.063  0.6584 -2.7833 -0.6627
  290SOL    HW2  870   1.565   2.148   0.984 -0.3260  2.4183  1.2185
  291SOL     OW  871   1.545   1.676   3.107  0.5445 -0.4468 -0.1868
  291SOL    HW1  872   1.631   1.616   3.093  3.5427 -1.7756  1.7743
  291SOL    HW2  873   1.524   1.696   0.088 -0.1696 -0.4577 -0.0471
  292SOL     OW  874   1.468   1.624   1.242 -0.6164  0.3963  0.1678
  292SOL    HW1  875   1.451   1.686   1.162 -1.1308 -0.5281 -1.0538
  292SOL    HW2  876   1.559   1.652   1.286 -1.0933 -1.8577 -1.9391
  293SOL     OW  877   1.995   2.927   0.731 -0.7459 -0.3719 -0.4519
  293SOL    HW1  878   2.049   2.972   0.804 -0.2168 -2.7833  0.5572
  293SOL    HW2  879   1.970   2.834   0.758  0.7814  0.0286 -0.6851
  294SOL     OW  880   3.041   1.460   2.723  0.0713 -0.2576  0.0407
  294SOL    HW1  881   2.978   1.492   2.797  0.4777  0.9858 -0.2500
  294SOL    HW2  882   3.039   1.359   2.708 -1.8071 -1.7573 -0.6519
  295SOL     OW  883   1.384   1.796   2.695  0.0288  0.5432 -0.5716
  295SOL    HW1  884   1.445   1.845   2.626 -0.3197  1.8190 -1.2344
  295SOL    HW2  885   1.417   1.812   2.794  0.1019  0.0525  1.2200
  296SOL     OW  886   1.815   1.442   2.220 -0.3770 -0.2336  0.3037
  296SOL    HW1  887   1.860   1.352   2.188 -1.5458  0.6898 -1.9855
  296SOL    HW2  888   1.718   1.425   2.236  0.2532  0.2413  0.8936
  297SOL     OW  889   2.867   0.649   2.405  0.2640 -0.8041  0.1236
  297SOL    HW1  890   2.955   0.619   2.366 -0.0635 -0.5057  0.6541
  297SOL    HW2  891   2.795   0.641   2.329 -1.0841 -1.0255 -1.4409
  298SOL     OW  892   1.097   2.380   2.170  0.2060 -0.0654  0.2735
  298SOL    HW1  893   1.089   2.441   2.252 -1.1571  2.5907  0.6758
  298SOL    HW2  894   1.031   2.300   2.179  1.6936 -1.0262  1.1526
  299SOL     OW  895   0.833   2.691   2.700 -0.0430 -0.0915  0.6901
  299SOL    HW1  896   0.749   2.712   2.639 -0.6765  0.4760  0.3078
  299SOL    HW2  897   0.829   2.753   2.778  2.6028 -1.6653 -2.0130
  300SOL     OW  898   3.028   0.634   2.829  0.7084 -0.1050 -0.5900
  300SOL    HW1  899   3.028   0.545   2.879  0.9892 -1.4909  1.9341
  300SOL    HW2  900   0.010   0.673   2.819 -0.2742  0.5146 -0.9979
  301SOL     OW  901   1.685   0.915   1.508  0.6437 -0.1193  0.0843
  301SOL    HW1  902   1.644   0.821   1.520  0.4987 -0.4166 -2.0354
  301SOL    HW2  903   1.667   0.936   1.409  1.8520 -0.3211  0.2230
  302SOL     OW  904   2.596   1.924   2.726  0.0385  0.1402  0.5593
  302SOL    HW1  905   2.616   1.920   2.624 -0.1556  3.0446 -1.7437
  302SOL    HW2  906   2.667   1.875   2.784  0.6917 -3.6336  3.3080
  303SOL     OW  907   0.091   0.034   2.480 -0.1536  0.1289  0.2313
  303SOL    HW1  908   0.194   0.042   2.455  0.2852 -0.6619 -3.1755
  303SOL    HW2  909   0.061   0.111   2.539 -2.1251  0.3297 -1.7202
  304SOL     OW  910   2.896   0.639   1.399  0.5247  0.0916 -0.2824
  304SOL    HW1  911   2.936   0.580   1.324  0.9179  1.3100 -1.6182
  304SOL    HW2  912   2.836   0.710   1.359 -0.9482 -1.1487  2.9988
  305SOL     OW  913   0.020   0.044   1.924 -0.2177 -0.3066 -0.3018
  305SOL    HW1  914   3.093   3.068   1.955  1.9125  0.3804 -0.2339
  305SOL    HW2  915   0.005   0.063   1.826  1.5272 -0.9571  1.8249
  306SOL     OW  916   2.908   1.344   1.575  0.8424 -0.2682 -0.2455
  306SOL    HW1  917   2.888   1.329   1.672 -1.3946 -0.7526 -0.3692
  306SOL    HW2  918   2.870   1.267   1.522  2.1360 -1.5619  0.0581
  307SOL     OW  919   2.052   0.373   1.337  0.5860  0.1246  0.3099
  307SOL    HW1  920   2.032   0.443   1.407 -1.5885 -0.1910 -1.1185
  307SOL    HW2  921   2.082   0.424   1.253  2.1664  0.3470 -0.9772
  308SOL     OW  922   0.326   2.092   1.170  0.1204 -0.0101  0.2944
  308SOL    HW1  923   0.250   2.062   1.109  0.7832 -0.1622 -1.4462
  308SOL    HW2  924   0.313   2.191   1.196  0.7034  1.5842 -1.0015
  309SOL     OW  925   2.361   1.582   1.513  0.1778 -0.6440  0.0520
  309SOL    HW1  926   2.279   1.578   1.448 -0.5671 -1.3366 -1.3686
  309SOL    HW2  927   2.359   1.677   1.554 -0.8257 -0.2279 -1.4013
  310SOL     OW  928   2.684   1.680   0.076  0.5080  0.2059  0.1045
  310SOL    HW1  929   2.775   1.708   0.111 -2.1946  0.2824  0.5965
  310SOL    HW2  930   2.614   1.759   0.090 -0.1168  3.0832 -0.3013
  311SOL     OW  931   2.320   1.477   2.476 -0.5370 -0.3362 -0.3641
  311SOL    HW1  932   2.307   1.378   2.463 -1.2629 -0.3171 -1.4075
  311SOL    HW2  933   2.250   1.508   2.545 -1.0112 -0.9864  0.8600
  312SOL     OW  934   1.914   2.155   1.247 -0.2493  0.6468 -0.2405
  312SOL    HW1  935   1.893   2.101   1.332  0.9228  2.1530 -1.6443
  312SOL    HW2  936   1.962   2.094   1.185 -2.3285  3.9464  1.4589
  313SOL     OW  937   0.122   2.688   1.106 -0.4427 -0.3497  0.2889
  313SOL    HW1  938   0.116   2.668   1.004  1.0756 -0.3486 -0.9532
  313SOL    HW2  939   0.052   2.633   1.164  0.0888 -2.7792  0.5968
  314SOL     OW  940   1.162   1.812   1.566 -0.7647 -0.6075  0.4473
  314SOL    HW1  941   1.170   1.870   1.484  1.3994 -0.8807  0.4337
  314SOL    HW2  942   1.168   1.866   1.651  1.3391 -0.6030  0.4098
  315SOL     OW  943   0.366   0.000   2.382  0.3774  0.5605  0.0996
  315SOL    HW1  944   0.422   3.037   2.340 -0.5266 -0.1125 -1.6857
  315SOL    HW2  945   0.413   0.087   2.366  3.9234 -0.8871 -0.7159
  316SOL     OW  946   2.989   1.929   0.864  0.2440 -0.3785 -0.6826
  316SOL    HW1  947   3.055   1.882   0.801  1.7134 -0.9194  1.0895
  316SOL    HW2  948   2.940   1.871   0.933 -0.1126  1.0788 -0.4913
  317SOL     OW  949   1.900   0.273   0.275 -0.0379  0.4317 -0.0554
  317SOL    HW1  950   1.800   0.244   0.298 -0.4515  1.3378  0.1261
  317SOL    HW2  951   1.960   0.277   0.358 -1.9961  1.3237  0.1845
  318SOL     OW  952   2.885   2.512   0.100 -0.0328 -0.2290 -0.0948
  318SOL    HW1  953   2.865   2.594   0.036  0.9542  0.8680 -2.2806
  318SOL    HW2  954   2.889   2.546   0.194 -0.6695 -1.5174 -1.4144
  319SOL     OW  955   1.290   1.644   0.289 -0.3019  0.3153 -0.0602
  319SOL    HW1  956   1.208   1.650   0.347  0.2552 -3.6180  3.5326
  319SOL    HW2  957   1.354   1.721   0.317  1.0916 -0.3907  0.4539
  320SOL     OW  958   0.575   2.717   2.625  0.3479  0.0498 -0.6496
  320SOL    HW1  959   0.569   2.658   2.708  1.0443  0.4676  1.4538
  320SOL    HW2  960   0.501   2.691   2.556 -0.3444 -0.3025  1.5747
  321SOL     OW  961   0.901   0.081   0.129  0.6974 -0.1038  0.0066
  321SOL    HW1  962   0.843   0.005   0.164  1.2586 -0.4430 -1.7710
  321SOL    HW2  963   0.995   0.057   0.100  1.1666 -0.4284  0.7326
  322SOL     OW  964   2.402   0.937   2.126  0.1747 -0.1351  0.1752
  322SOL    HW1  965   2.303   0.966   2.106  1.1420  0.2943 -0.7872
  322SOL    HW2  966   2.433   0.980   2.217  1.8167  0.5103  0.5151
  323SOL     OW  967   2.582   0.953   0.426 -0.3076  0.0395 -0.2733
  323SOL    HW1  968   2.507   0.886   0.432  2.1359  2.5365  0.3365
  323SOL    HW2  969   2.627   0.952   0.332  1.8975 -2.1087 -0.8968
  324SOL     OW  970   0.137   0.513   2.557  0.8056  0.3056  0.3297
  324SOL    HW1  971   0.144   0.568   2.639 -1.2080 -1.9183  0.1639
  324SOL    HW2  972   0.220   0.533   2.502 -2.0559  1.3337  0.1336
  325SOL     OW  973   1.204   2.991   2.125  0.0804  0.2084  0.0250
  325SOL    HW1  974   1.201   3.046   2.043  2.9294 -2.5122 -0.7262
  325SOL    HW2  975   1.275   3.022   2.188 -3.4796  1.7446 -0.2380
  326SOL     OW  976   2.374   2.910   1.244 -0.1280 -0.1308 -0.3199
  326SOL    HW1  977   2.421   2.854   1.173  3.0949 -0.4452 -1.3275
  326SOL    HW2  978   2.310   2.979   1.201 -1.5354 -1.1519  0.5103
  327SOL     OW  979   1.777   0.774   3.054  0.3854  0.0783  0.4069
  327SOL    HW1  980   1.710   0.843   3.031  2.2657 -1.5195 -0.9008
  327SOL    HW2  981   1.737   0.691   3.099 -0.0505 -1.8565  0.5596
  328SOL     OW  982   2.832   1.752   2.086 -0.2068  0.4060  0.3017
  328SOL    HW1  983   2.844   1.843   2.047 -0.1000 -0.1066 -1.2721
  328SOL    HW2  984   2.893   1.749   2.166 -0.0913  0.0321 -1.6958
  329SOL     OW  985   1.724   2.650   1.776  0.2563  0.5271 -0.0713
  329SOL    HW1  986   1.636   2.602   1.805  0.8845  1.2024 -0.9019
  329SOL    HW2  987   1.740   2.637   1.675 -2.9319 -2.3438 -1.8677
  330SOL     OW  988   2.290   1.653   1.917  0.1080  0.2363 -0.4214
  330SOL    HW1  989   2.254   1.558   1.901 -1.1054  1.0249  1.1416
  330SOL    HW2  990   2.382   1.657   1.962 -1.6930  1.3477  0.7040
  331SOL     OW  991   2.916   2.176   0.796 -0.0529  0.1376 -0.1406
  331SOL    HW1  992   2.960   2.085   0.809  1.0760 -2.6437 -1.7143
  331SOL    HW2  993   2.992   2.243   0.806 -0.7112  2.7318  0.5025
  332SOL     OW  994   0.271   0.089   0.476  0.4534  0.3066 -0.0079
  332SOL    HW1  995   0.230   0.058   0.567  1.3885  0.6371  1.7273
  332SOL    HW2  996   0.211   0.056   0.403  0.6240  1.2111  0.0759
  333SOL     OW  997   2.177   2.990   2.371 -0.2654 -0.3472  0.4903
  333SOL    HW1  998   2.234   2.905   2.377 -0.6541 -1.2805  0.8628
  333SOL    HW2  999   2.141   3.012   2.278 -0.1103  1.5478  1.2339
  334SOL     OW 1000   0.823   1.486   0.901  0.2913 -0.1323 -0.1448
  334SOL    HW1 1001   0.801   1.477   0.803 -1.0653 -0.2485  0.1233
  334SOL    HW2 1002   0.917   1.518   0.909 -0.4328 -0.4529 -4.4878
  335SOL     OW 1003   3.082   2.735   2.298  0.4273 -0.1809 -0.0665
  335SOL    HW1 1004   0.062   2.774   2.310 -0.8579 -1.5416  0.5072
  335SOL    HW2 1005   3.075   2.636   2.325 -1.7914  0.1455  1.4224
  336SOL     OW 1006   2.831   2.867   1.939  0.1262 -0.6716 -0.3512
  336SOL    HW1 1007   2.832   2.841   2.040 -1.6133 -0.7517  1.4909
  336SOL    HW2 1008   2.839   2.970   1.927 -0.7057 -0.4633  1.9117
  337SOL     OW 1009   1.997   1.375   0.613  0.4782 -0.5184 -0.9035
  337SOL    HW1 1010   2.089   1.354   0.649 -1.1870  0.9556  1.5363
  337SOL    HW2 1011   1.924   1.304   0.615 -2.2861  1.5985 -1.3222
  338SOL     OW 1012   1.159   1.714   1.122  0.2333  0.7885  0.4732
  338SOL    HW1 1013   1.178   1.716   1.224 -0.2362  1.5253  0.2166
  338SOL    HW2 1014   1.238   1.726   1.055 -1.1866 -0.3366  0.7180
  339SOL     OW 1015   2.932   0.860   1.007  0.0508  0.1197 -0.5360
  339SOL    HW1 1016   2.986   0.938   1.051  0.4237  1.9495  0.5714
  339SOL    HW2 1017   2.862   0.818   1.067  0.4920 -1.1677 -4.1959
  340SOL     OW 1018   1.554   2.821   1.994  0.5512  0.2298  0.1869
  340SOL    HW1 1019   1.548   2.727   1.957 -1.0362  2.9186 -0.2745
  340SOL    HW2 1020   1.582   2.822   2.093  0.1626 -0.4216 -0.2689
  341SOL     OW 1021   2.253   1.329   0.681 -0.1785 -0.3657  0.5565
  341SOL    HW1 1022   2.302   1.392   0.743 -0.4518 -2.6895 -1.1489
  341SOL    HW2 1023   2.276   1.234   0.701  1.1815  0.3168  0.3960
  342SOL     OW 1024   0.087   1.791   0.746 -0.2583 -0.5430  0.1645
  342SOL    HW1 1025   0.167   1.769   0.807 -2.1471  1.1476 -2.7429
  342SOL    HW2 1026   0.122   1.823   0.653 -1.7530 -1.5919  0.5656
  343SOL     OW 1027   2.413   1.119   1.479 -0.8976 -0.2145  0.1379
  343SOL    HW1 1028   2.348   1.047   1.502 -0.3439  2.3761  3.0105
  343SOL    HW2 1029   2.487   1.140   1.548  0.3240  1.0330  1.5751
  344SOL     OW 1030   2.105   0.489   0.970 -0.2955  0.0634  0.1331
  344SOL    HW1 1031   2.012   0.459   0.942  1.3443 -1.4549  0.3998
  344SOL    HW2 1032   2.101   0.533   1.061 -1.5790 -1.3573  2.6489
  345SOL     OW 1033   3.104   3.000   2.164  0.2587 -0.3717  0.2599
  345SOL    HW1 1034   0.071   2.996   2.228  0.2351  0.1752  2.0618
  345SOL    HW2 1035   3.027   3.049   2.197  4.0233 -1.9905 -0.4709
  346SOL     OW 1036   3.034   1.468   0.198 -0.7982  0.0478  0.0147
  346SOL    HW1 1037   3.003   1.563   0.168  1.7044  1.3325 -0.1701
  346SOL    HW2 1038   3.057   1.403   0.120  1.6400 -2.6739 -0.0235
  347SOL     OW 1039   1.453   2.510   1.519  0.3788  0.1311 -0.4390
  347SOL    HW1 1040   1.535   2.455   1.535  1.1120  2.6046  0.6253
  347SOL    HW2 1041   1.411   2.481   1.428  1.0622 -1.3750  0.4521
  348SOL     OW 1042   1.029   1.169   1.839  0.0287  0.0282  0.1830
  348SOL    HW1 1043   0.997   1.227   1.757 -1.3462  0.9297 -0.2904
  348SOL    HW2 1044   1.122   1.202   1.873 -0.1851  1.4414  1.2369
  349SOL     OW 1045   2.387   1.596   2.241 -0.6623 -0.2097  0.3656
  349SOL    HW1 1046   2.345   1.557   2.323  1.0511  2.2936  0.0283
  349SOL    HW2 1047   2.411   1.697   2.255 -1.2040  2.3581 -1.3685
  350SOL     OW 1048   2.753   2.296   0.427 -0.3508  0.0340 -0.2273
  350SOL    HW1 1049   2.717   2.312   0.332  0.1410  3.1232  0.2798
  350SOL    HW2 1050   2.853   2.321   0.435  0.9415  1.0958 -0.2047
  351SOL     OW 1051   0.427   0.281   1.821 -0.1904 -0.1338  0.5904
  351SOL    HW1 1052   0.414   0.177   1.830 -0.4243  1.1553 -0.1681
  351SOL    HW2 1053   0.354   0.334   1.873 -2.4148  0.0349  1.0266
  352SOL     OW 1054   1.204   2.477   1.686 -0.1778  0.0687 -0.1604
  352SOL    HW1 1055   1.195   2.532   1.771  0.1062  1.0547  2.0786
  352SOL    HW2 1056   1.287   2.506   1.636 -0.2619 -0.8529 -2.7395
  353SOL     OW 1057   0.951   1.129   2.247 -0.2166  0.3013  0.0544
  353SOL    HW1 1058   0.984   1.099   2.335 -0.3802  0.1525 -0.7185
  353SOL    HW2 1059   0.994   1.215   2.221 -1.9535 -3.7246  1.1671
  354SOL     OW 1060   1.368   1.731   0.594  0.2786  0.2186 -0.3330
  354SOL    HW1 1061   1.403   1.828   0.574  0.9025  1.2766 -2.2358
  354SOL    HW2 1062   1.267   1.731   0.617 -2.7083 -0.4938 -1.0059
  355SOL     OW 1063   1.854   0.446   0.894  0.5603 -0.4018  0.5351
  355SOL    HW1 1064   1.794   0.401   0.962 -0.6908  1.6157 -0.5732
  355SOL    HW2 1065   1.862   0.396   0.806  1.0381  0.8701 -0.1241
  356SOL     OW 1066   3.061   1.303   3.095  0.0431  0.5752  0.0670
  356SOL    HW1 1067   0.022   1.237   0.009 -0.1586  0.8008 -0.5277
  356SOL    HW2 1068   2.988   1.261   3.032 -1.3704 -2.5844  0.5033
  357SOL     OW 1069   0.277   2.993   1.832 -0.6456  0.1675 -0.3411
  357SOL    HW1 1070   0.324   3.037   1.913  0.9107  1.1113  1.0891
  357SOL    HW2 1071   0.196   2.936   1.858 -0.5149  0.1524  0.3376
  358SOL     OW 1072   0.457   1.450   3.013  0.2516  0.2024  0.1470
  358SOL    HW1 1073   0.478   1.390   2.936 -0.5551 -1.2595  0.6044
  358SOL    HW2 1074   0.472   1.404   3.103 -2.4981 -0.2313  0.7392
  359SOL     OW 1075   2.772   2.624   2.568 -0.3394  0.1619  0.1315
  359SOL    HW1 1076   2.739   2.635   2.661  0.6956 -1.8799 -2.2268
  359SOL    HW2 1077   2.862   2.673   2.557  0.9555 -2.3623  1.2907
  360SOL     OW 1078   1.532   1.405   1.065 -0.5328  0.8531  0.0671
  360SOL    HW1 1079   1.583   1.416   0.979 -2.1490  0.1036  3.1642
  360SOL    HW2 1080   1.513   1.494   1.113 -1.3825  0.1546  0.4048
  361SOL     OW 1081   2.074   2.345   1.333  0.2291  0.4181 -0.1600
  361SOL    HW1 1082   2.015   2.278   1.287  3.2997  2.5361  1.4124
  361SOL    HW2 1083   2.137   2.296   1.395  1.6745  1.4172  1.3970
  362SOL     OW 1084   1.695   1.475   0.849  0.0049  0.2624 -0.1213
  362SOL    HW1 1085   1.771   1.532   0.820 -0.8951  0.2809 -1.9006
  362SOL    HW2 1086   1.606   1.507   0.814  2.4564 -1.1277  2.6642
  363SOL     OW 1087   2.647   2.440   0.681 -0.2031 -0.2032 -0.3529
  363SOL    HW1 1088   2.545   2.446   0.695 -2.4452 -1.1397  0.3398
  363SOL    HW2 1089   2.676   2.394   0.593 -0.5017  0.2003  0.2986
  364SOL     OW 1090   2.831   0.052   1.384  0.1051 -0.1085 -0.0143
  364SOL    HW1 1091   2.866   0.145   1.395 -1.3942  0.1600  2.3896
  364SOL    HW2 1092   2.907   3.105   1.349  1.8405 -0.0697  0.1575
  365SOL     OW 1093   0.609   2.808   0.994 -0.2950 -0.1026 -1.0253
  365SOL    HW1 1094   0.550   2.722   0.985 -1.1253 -3.8318 -0.3897
  365SOL    HW2 1095   0.631   2.847   0.901  1.4988 -0.9020 -1.8125
  366SOL     OW 1096   0.594   1.674   0.541  0.3443 -0.0523  0.2739
  366SOL    HW1 1097   0.543   1.678   0.453  0.0158  0.8992 -1.4970
  366SOL    HW2 1098   0.527   1.628   0.611  0.0223 -2.2172  0.0627
  367SOL     OW 1099   2.624   2.604   2.807  0.4837  0.0073 -0.0476
  367SOL    HW1 1100   2.556   2.658   2.757  1.9237 -3.3952  2.9046
  367SOL    HW2 1101   2.613   2.504   2.815 -0.5308  0.3756  0.4647
  368SOL     OW 1102   2.613   1.966   0.883 -0.0208 -0.0559 -0.3815
  368SOL    HW1 1103   2.588   1.910   0.965  1.2247 -3.0393 -0.8507
  368SOL    HW2 1104   2.648   1.911   0.803 -2.0474 -0.7312 -1.0958
  369SOL     OW 1105   0.956   1.079   0.431 -0.6144  0.2335  0.4916
  369SOL    HW1 1106   0.943   0.987   0.474 -1.5491 -0.3816  2.7183
  369SOL    HW2 1107   1.033   1.079   0.365  2.3949  0.7720 -1.1970
  370SOL     OW 1108   0.234   2.870   1.256  0.1793  0.1169 -0.0522
  370SOL    HW1 1109   0.174   2.802   1.205  0.9406  1.0487 -1.5061
  370SOL    HW2 1110   0.190   2.887   1.345  3.9623 -2.9316  0.1019
  371SOL     OW 1111   2.686   1.332   2.752 -0.5687 -0.2312  0.0462
  371SOL    HW1 1112   2.667   1.406   2.685  0.0082 -0.7453 -1.3597
  371SOL    HW2 1113   2.733   1.262   2.700  0.7433  1.6395  0.6034
  372SOL     OW 1114   0.716   0.533   2.371 -0.0497 -0.1303  0.2701
  372SOL    HW1 1115   0.740   0.543   2.274  0.0318  0.0166 -4.2992
  372SOL    HW2 1116   0.670   0.443   2.395 -0.5502 -2.0480  1.1839
  373SOL     OW 1117   0.617   0.565   2.825 -0.0157  0.1469 -0.0632
  373SOL    HW1 1118   0.690   0.637   2.819 -0.4856  0.8390 -2.5352
  373SOL    HW2 1119   0.639   0.490   2.890 -3.5770 -1.0425 -0.5915
  374SOL     OW 1120   1.046   2.313   0.116  0.1719  0.2648  0.5608
  374SOL    HW1 1121   1.078   2.304   0.021 -2.2348 -1.9115  1.8596
  374SOL    HW2 1122   0.960   2.261   0.132  0.4807  4.4257  0.6979
  375SOL     OW 1123   0.759   3.080   1.047 -0.0553 -0.2781  0.5434
  375SOL    HW1 1124   0.758   0.013   0.957  2.2115 -3.1512  0.0731
  375SOL    HW2 1125   0.684   3.013   1.050 -0.5844  0.5251  1.2018
  376SOL     OW 1126   0.468   2.488   1.924  0.0984  0.1539  0.3534
  376SOL    HW1 1127   0.438   2.570   1.974 -2.9558  0.9275  1.1154
  376SOL    HW2 1128   0.515   2.419   1.987 -0.7602 -1.5918  1.5787
  377SOL     OW 1129   2.274   2.015   0.014 -0.0843 -0.2005 -0.1890
  377SOL    HW1 1130   2.277   2.114   0.042 -0.1110 -0.3766  2.1249
  377SOL    HW2 1131   2.215   2.011   3.044 -0.5713  0.2124 -0.0011
  378SOL     OW 1132   2.040   0.314   0.514  0.7244 -0.4438  0.0881
  378SOL    HW1 1133   2.071   0.398   0.566  0.6903 -0.7411  1.1716
  378SOL    HW2 1134   2.113   0.244   0.497  1.4200  0.1310  2.2906
  379SOL     OW 1135   1.390   0.821   0.871  0.1227  0.0771 -0.2928
  379SOL    HW1 1136   1.382   0.912   0.916 -0.5452  0.8844 -2.8492
  379SOL    HW2 1137   1.452   0.821   0.791  1.6477 -0.3591 -2.2688
  380SOL     OW 1138   2.430   2.048   1.839 -0.5547  0.2642  0.3447
  380SOL    HW1 1139   2.498   1.974   1.841  2.2662  1.9616  0.1662
  380SOL    HW2 1140   2.476   2.135   1.803  0.3835  0.2105  1.0069
  381SOL     OW 1141   2.807   1.447   2.159  0.5794  0.0451 -0.3102
  381SOL    HW1 1142   2.846   1.508   2.232 -2.2815  1.7795  1.7284
  381SOL    HW2 1143   2.866   1.366   2.139 -0.3214  0.4432 -2.8619
  382SOL     OW 1144   3.006   2.205   2.854  0.1359  0.2200 -0.5435
  382SOL    HW1 1145   2.979   2.294   2.814 -1.3484  4.2625 -2.2595
  382SOL    HW2 1146   3.064   2.216   2.942  0.2006  1.0273 -2.4039
  383SOL     OW 1147   1.189   0.836   2.277 -0.3704  0.2433 -0.7149
  383SOL    HW1 1148   1.126   0.877   2.210  0.2125  0.1519 -2.2024
  383SOL    HW2 1149   1.143   0.791   2.360 -1.3551 -1.7008 -1.3862
  384SOL     OW 1150   1.170   2.110   2.464 -0.0785  0.1916  0.0543
  384SOL    HW1 1151   1.257   2.090   2.412 -1.6077 -0.3635  1.9186
  384SOL    HW2 1152   1.139   2.028   2.514 -0.8528  0.5729 -2.1552
  385SOL     OW 1153   2.286   2.621   3.092  0.1801 -0.1021  0.0031
  385SOL    HW1 1154   2.308   2.545   3.030 -0.3364 -0.7242  0.4970
  385SOL    HW2 1155   2.346   2.624   0.062 -2.2531 -2.4905  1.3725
  386SOL     OW 1156   1.479   1.277   0.726 -0.2575  0.0887  0.3088
  386SOL    HW1 1157   1.378   1.260   0.725 -1.3997  0.5878 -0.6211
  386SOL    HW2 1158   1.534   1.206   0.681  0.5970  1.8845  0.6115
  387SOL     OW 1159   0.044   1.590   1.796 -0.6042  0.5199  0.1385
  387SOL    HW1 1160   0.069   1.585   1.897  1.1259  1.2746 -1.5217
  387SOL    HW2 1161   0.112   1.540   1.737 -1.3209 -0.4331 -0.9302
  388SOL     OW 1162   0.656   1.186   1.547  0.1980 -0.0970 -0.2644
  388SOL    HW1 1163   0.756   1.162   1.549  1.1639  2.8762  2.6402
  388SOL    HW2 1164   0.614   1.172   1.457  2.0815 -1.1719  0.0835
  389SOL     OW 1165   2.088   0.904   2.357  0.1956 -0.9192 -0.1291
  389SOL    HW1 1166   2.108   0.867   2.446 -0.1292 -0.7674 -0.1648
  389SOL    HW2 1167   2.093   1.010   2.362  0.0614  1.8757  0.9419
  390SOL     OW 1168   1.039   1.883   0.281  0.0788 -1.0430  0.0903
  390SOL    HW1 1169   0.935   1.887   0.276 -2.0524  1.3093  1.3299
  390SOL    HW2 1170   1.075   1.826   0.360  3.2043  0.2312  1.0369
  391SOL     OW 1171   1.022   2.008   0.694 -0.3731  0.0482 -0.0482
  391SOL    HW1 1172   1.061   1.920   0.716 -1.7224  1.2486  0.5085
  391SOL    HW2 1173   0.946   1.990   0.628 -0.5471 -1.7918 -1.3156
  392SOL     OW 1174   2.575   2.645   2.221  0.7039 -0.3662 -0.3901
  392SOL    HW1 1175   2.574   2.613   2.318  1.1630 -4.3692  1.2706
  392SOL    HW2 1176   2.660   2.698   2.207 -0.1072 -0.6319  0.8906
  393SOL     OW 1177   1.534   2.215   0.082  0.0287 -0.0207 -0.0591
  393SOL    HW1 1178   1.532   2.266   0.166  1.0605  3.8260 -3.6896
  393SOL    HW2 1179   1.528   2.285   0.006 -0.7110 -1.3512  1.9604
  394SOL     OW 1180   0.375   0.236   2.260  0.3083  0.4023 -0.0341
  394SOL    HW1 1181   0.384   0.327   2.212  0.6829  0.9851 -2.0759
  394SOL    HW2 1182   0.298   0.185   2.216 -0.4554  1.9815  1.2968
  395SOL     OW 1183   0.034   1.035   1.127  0.3513 -0.0279  0.4436
  395SOL    HW1 1184   0.083   1.039   1.037 -0.7521  0.7670  1.8084
  395SOL    HW2 1185   0.081   0.977   1.196  0.4850 -1.2025  1.5314
  396SOL     OW 1186   2.183   1.582   2.718 -0.1942 -0.3021  0.0208
  396SOL    HW1 1187   2.186   1.483   2.736 -0.9223  2.0863  0.2713
  396SOL    HW2 1188   2.090   1.621   2.712  0.9005 -0.2269  1.0253
  397SOL     OW 1189   0.582   0.974   2.869 -0.0170 -0.3787  0.1385
  397SOL    HW1 1190   0.578   0.958   2.770  2.9949  1.3917 -0.7133
  397SOL    HW2 1191   0.648   1.052   2.896  1.1271  1.3955  3.8230
  398SOL     OW 1192   1.035   2.708   0.371 -0.1577  0.4200  0.2523
  398SOL    HW1 1193   1.120   2.709   0.427  0.2659 -0.3075  1.0285
  398SOL    HW2 1194   0.974   2.789   0.379 -0.8057 -0.6002 -0.1105
  399SOL     OW 1195   1.817   2.584   2.237 -0.0776 -0.0682 -0.3885
  399SOL    HW1 1196   1.860   2.552   2.323 -3.1380 -0.2784  1.6757
  399SOL    HW2 1197   1.838   2.533   2.152 -1.3848  1.9063  0.0109
  400SOL     OW 1198   0.319   1.233   1.910  0.1618 -0.4648 -0.1692
  400SOL    HW1 1199   0.237   1.241   1.967  1.1255 -0.0485 -0.7674
  400SOL    HW2 1200   0.369   1.320   1.927  0.3125  0.2124  2.5110
  401SOL     OW 1201   0.405   0.858   0.595 -0.1172  0.0700 -0.4444
  401SOL    HW1 1202   0.395   0.789   0.673 -0.5146 -3.6956  1.3160
  401SOL    HW2 1203   0.452   0.815   0.515 -0.2246 -0.8804  1.2142
  402SOL     OW 1204   0.843   3.105   2.428 -0.1746 -0.2672  0.6339
  402SOL    HW1 1205   0.945   3.087   2.433  1.4135 -3.3749  0.9192
  402SOL    HW2 1206   0.830   0.053   2.345 -0.4722  1.8508 -0.2744
  403SOL     OW 1207   2.595   1.808   1.809 -0.0943  0.3332 -0.3902
  403SOL    HW1 1208   2.553   1.758   1.887 -0.1192  1.0168 -1.7593
  403SOL    HW2 1209   2.644   1.735   1.759 -3.2948  0.0291  0.3261
  404SOL     OW 1210   2.599   2.265   1.755  0.4747 -0.4581  0.1453
  404SOL    HW1 1211   2.654   2.315   1.823  0.9084  0.7100 -0.4822
  404SOL    HW2 1212   2.645   2.185   1.715 -0.7552  3.3337 -0.0617
  405SOL     OW 1213   1.923   0.113   2.690  0.1779 -0.1766 -0.3201
  405SOL    HW1 1214   1.840   0.099   2.637 -0.1312 -2.4479  3.0475
  405SOL    HW2 1215   2.001   0.177   2.655  0.3050  2.7900  0.4168
  406SOL     OW 1216   1.085   1.954   0.021  0.0315  0.0865  0.2107
  406SOL    HW1 1217   1.171   2.004   0.015  0.5407  0.6763 -0.4992
  406SOL    HW2 1218   1.074   1.911   0.115 -0.5038 -0.0796  2.5235
  407SOL     OW 1219   1.737   1.696   0.529  0.2004 -0.1610  0.3641
  407SOL    HW1 1220   1.651   1.712   0.578  0.1505  1.8256  0.0893
  407SOL    HW2 1221   1.812   1.668   0.591 -2.3586 -0.4992 -1.6090
  408SOL     OW 1222   0.215   0.613   1.416 -0.9818 -0.1562  0.0096
  408SOL    HW1 1223   0.214   0.549   1.496  0.1978 -0.0266  0.6039
  408SOL    HW2 1224   0.305   0.664   1.412  2.4112  1.6993  2.5744
  409SOL     OW 1225   2.706   1.407   0.040 -0.0914  0.4496 -0.3047
  409SOL    HW1 1226   2.691   1.356   0.128 -0.1164 -0.3614  3.9366
  409SOL    HW2 1227   2.708   1.506   0.064  0.7296 -2.5061  1.7539
  410SOL     OW 1228   2.626   2.664   0.448  0.1493  0.1928 -0.1370
  410SOL    HW1 1229   2.631   2.764   0.433 -1.5478 -2.0377  0.4009
  410SOL    HW2 1230   2.663   2.645   0.540 -0.3892  1.1642  0.7094
  411SOL     OW 1231   0.442   0.396   0.146  0.7526 -0.5187  0.2747
  411SOL    HW1 1232   0.470   0.317   0.207 -0.9360 -0.6293 -1.8074
  411SOL    HW2 1233   0.399   0.363   0.058 -3.2006 -0.4437  1.6723
  412SOL     OW 1234   1.586   3.074   0.468  0.0985  0.2536  0.3533
  412SOL    HW1 1235   1.530   3.005   0.416 -2.4582 -2.7681 -3.0124
  412SOL    HW2 1236   1.534   3.103   0.557  0.0223 -0.2607  1.9785
  413SOL     OW 1237   1.710   0.702   2.248  0.6186 -0.4428  0.5827
  413SOL    HW1 1238   1.801   0.737   2.213 -2.5111 -0.2417 -3.2030
  413SOL    HW2 1239   1.639   0.714   2.176 -1.5825  3.2462 -2.3187
  414SOL     OW 1240   0.029   0.572   0.499  0.3664  0.2628  0.1979
  414SOL    HW1 1241   0.039   0.672   0.502 -3.4695 -1.6092  0.2236
  414SOL    HW2 1242   0.109   0.523   0.535 -0.2926 -1.0056  0.0665
  415SOL     OW 1243   2.947   1.047   0.383  0.1082  0.9567  0.7390
  415SOL    HW1 1244   2.920   1.138   0.419 -1.6332  0.5608 -0.2443
  415SOL    HW2 1245   2.945   1.045   0.279 -0.3598 -0.9931 -3.4130
  416SOL     OW 1246   2.559   0.574   2.663 -0.4540 -0.0381 -0.6661
  416SOL    HW1 1247   2.518   0.560   2.571 -0.7537  1.6226 -0.6394
  416SOL    HW2 1248   2.647   0.626   2.663  1.7397 -1.1630 -1.0676
  417SOL     OW 1249   2.459   0.232   0.603 -0.0773 -0.1684 -0.4878
  417SOL    HW1 1250   2.495   0.259   0.697  0.3115  2.6902  0.9302
  417SOL    HW2 1251   2.510   0.286   0.534 -0.7580 -0.3466  1.7588
  418SOL     OW 1252   0.676   3.099   2.908 -0.5022 -0.4378  0.1165
  418SOL    HW1 1253   0.701   0.044   2.989  2.0468 -1.0540 -1.7707
  418SOL    HW2 1254   0.592   3.046   2.916  1.7921  1.5017 -2.6006
  419SOL     OW 1255   0.218   0.632   0.986 -0.4567 -1.2571 -0.2401
  419SOL    HW1 1256   0.256   0.694   1.061 -1.0927  0.5760 -0.0538
  419SOL    HW2 1257   0.251   0.537   1.002 -3.5895  1.7380  0.2957
  420SOL     OW 1258   3.014   1.128   1.350  0.2015  0.2337  0.2614
  420SOL    HW1 1259   3.062   1.087   1.268 -0.7731 -2.5213 -0.3544
  420SOL    HW2 1260   2.918   1.165   1.334 -1.9746  0.4269  0.2364
  421SOL     OW 1261   0.809   2.034   3.058 -0.0351  0.4593 -0.3074
  421SOL    HW1 1262   0.897   2.012   3.102 -0.1714  2.6754  1.5554
  421SOL    HW2 1263   0.786   1.973   2.982  0.9332 -0.8737  0.8518
  422SOL     OW 1264   2.412   0.262   2.329 -0.1747  0.4057 -0.0075
  422SOL    HW1 1265   2.509   0.261   2.292 -0.8019  0.1780 -0.6730
  422SOL    HW2 1266   2.353   0.209   2.266  0.3876  1.7085  1.8890
  423SOL     OW 1267   1.792   1.576   0.292 -0.0367 -0.3839 -0.5666
  423SOL    HW1 1268   1.817   1.639   0.216  0.2283  1.0380 -0.0457
  423SOL    HW2 1269   1.770   1.630   0.375 -1.3495  2.7693 -1.7768
  424SOL     OW 1270   1.267   1.212   2.037 -0.4951  0.1139  0.5597
  424SOL    HW1 1271   1.196   1.250   2.098  0.8880 -0.8634  0.6924
  424SOL    HW2 1272   1.308   1.126   2.071  0.4403  0.5952  1.1540
  425SOL     OW 1273   0.328   2.705   2.059 -0.3799 -0.9348 -0.4712
  425SOL    HW1 1274   0.356   2.777   2.120 -1.7012 -0.3509 -0.5836
  425SOL    HW2 1275   0.233   2.707   2.046  4.3534  2.9849  1.4038
  426SOL     OW 1276   2.480   2.909   0.687  0.5853 -0.0260 -0.0213
  426SOL    HW1 1277   2.556   2.886   0.754  3.3759 -1.1368  0.7084
  426SOL    HW2 1278   2.405   2.839   0.687  2.4630 -0.9211  1.0525
  427SOL     OW 1279   0.480   0.894   2.595 -0.0160  0.1952 -0.3728
  427SOL    HW1 1280   0.383   0.898   2.614  2.2493  1.8647 -0.9430
  427SOL    HW2 1281   0.508   0.794   2.583  1.1198 -1.6843 -3.7277
  428SOL     OW 1282   2.839   1.497   2.905 -0.4399 -0.5626 -0.2889
  428SOL    HW1 1283   2.861   1.480   3.006  0.4827  0.7612  3.3713
  428SOL    HW2 1284   2.770   1.436   2.862  5.7136 -2.6782 -2.9343
  429SOL     OW 1285   2.471   0.468   0.200 -0.0484 -0.3884 -0.0529
  429SOL    HW1 1286   2.504   0.419   0.283 -0.7296 -0.2686  0.2096
  429SOL    HW2 1287   2.442   0.565   0.229 -2.0061  2.2751  2.8084
  430SOL     OW 1288   1.569   2.132   2.546  0.8084 -0.2374  0.1618
  430SOL    HW1 1289   1.531   2.037   2.534  0.9370 -0.8684  0.6227
  430SOL    HW2 1290   1.565   2.181   2.456 -0.3334 -2.6097  0.7519
  431SOL     OW 1291   0.109   1.946   1.766  0.0520 -0.2785  0.1735
  431SOL    HW1 1292   0.041   1.872   1.731  1.3020  0.0873 -3.4673
  431SOL    HW2 1293   0.100   2.031   1.708  0.0933  0.6183  2.3290
  432SOL     OW 1294   1.443   2.268   1.859  0.2850  0.6392  0.2724
  432SOL    HW1 1295   1.521   2.234   1.917  1.1051  2.2977  3.4502
  432SOL    HW2 1296   1.454   2.226   1.769  0.4168 -0.2503  2.9045
  433SOL     OW 1297   1.139   2.140   0.322  0.3054  0.1528  0.7397
  433SOL    HW1 1298   1.110   2.211   0.254 -0.6668 -0.4786 -0.6747
  433SOL    HW2 1299   1.082   2.056   0.299 -1.8494 -0.3749 -1.2178
  434SOL     OW 1300   0.356   2.296   2.606 -0.1473  0.2465  0.3808
  434SOL    HW1 1301   0.457   2.317   2.607  3.7859 -0.7614  0.3794
  434SOL    HW2 1302   0.316   2.328   2.693 -0.9375  0.4839  0.4737
  435SOL     OW 1303   0.090   0.824   0.434 -0.0522 -0.6562  0.1904
  435SOL    HW1 1304   3.109   0.850   0.405 -0.5838  0.4741  0.0871
  435SOL    HW2 1305   0.132   0.896   0.492  0.4371  0.5128  1.3088
  436SOL     OW 1306   0.553   2.845   1.705 -0.1543  0.2276  0.8394
  436SOL    HW1 1307   0.497   2.767   1.670  0.3810 -1.8706  0.4938
  436SOL    HW2 1308   0.624   2.870   1.630  0.6008 -1.2394 -2.6724
  437SOL     OW 1309   0.628   0.170   0.625 -0.8095 -0.0565  0.4030
  437SOL    HW1 1310   0.672   0.248   0.576  0.1723 -0.9559 -0.2191
  437SOL    HW2 1311   0.540   0.141   0.579 -2.5848 -0.7096 -2.3689
  438SOL     OW 1312   0.549   2.110   0.677  0.0165 -0.3249  0.1792
  438SOL    HW1 1313   0.600   2.187   0.717 -0.2643 -1.4033  2.0723
  438SOL    HW2 1314   0.548   2.037   0.746 -0.4888  0.1261  1.9277
  439SOL     OW 1315   0.891   2.775   1.662 -0.5547 -0.1884 -0.5172
  439SOL    HW1 1316   0.846   2.731   1.744 -1.2580 -3.5778  1.3108
  439SOL    HW2 1317   0.952   2.853   1.694  4.3968 -0.4701  0.4476
  440SOL     OW 1318   1.844   2.863   1.917 -0.3641  0.5010  0.7392
  440SOL    HW1 1319   1.815   2.789   1.855  0.3218 -1.1445 -1.6314
  440SOL    HW2 1320   1.786   2.863   2.005 -0.7922 -2.6840  1.0864
  441SOL     OW 1321   2.806   0.399   1.791 -0.3306  0.3542 -0.0906
  441SOL    HW1 1322   2.840   0.355   1.877  2.0273 -0.7378  1.6487
  441SOL    HW2 1323   2.850   0.491   1.777 -2.3134  2.4868 -1.7498
  442SOL     OW 1324   1.823   2.356   1.096  0.4046 -0.4490  0.4293
  442SOL    HW1 1325   1.873   2.345   1.012 -2.1765 -1.3611  3.4598
  442SOL    HW2 1326   1.850   2.285   1.167  0.8884  0.8206  0.3377
  443SOL     OW 1327   2.667   0.588   2.217  0.2326 -0.6311  0.4992
  443SOL    HW1 1328   2.677   0.491   2.186 -1.8291  2.1830  2.6177
  443SOL    HW2 1329   2.632   0.648   2.145 -2.0327 -0.6000  0.2180
  444SOL     OW 1330   2.186   0.941   1.914 -0.6731  0.0907 -0.3668
  444SOL    HW1 1331   2.165   0.841   1.915  0.2220 -0.6436 -2.5529
  444SOL    HW2 1332   2.255   0.952   1.841 -1.2081 -1.5158 -1.9617
  445SOL     OW 1333   0.008   2.358   1.367 -0.4525  0.2603 -0.3199
  445SOL    HW1 1334   3.033   2.326   1.409 -1.8919 -0.4367 -0.2787
  445SOL    HW2 1335   3.107   2.457   1.333  0.4122  1.5433 -2.1018
  446SOL     OW 1336   2.892   1.711   1.008  0.3868 -0.1481 -0.3457
  446SOL    HW1 1337   2.836   1.711   1.093  3.4471  0.1534 -0.5994
  446SOL    HW2 1338   2.978   1.665   1.023 -0.8283  2.4815 -0.2077
  447SOL     OW 1339   0.508   1.073   0.750 -0.1116 -0.4092 -0.0060
  447SOL    HW1 1340   0.459   0.988   0.721  0.6365  4.4478  0.1957
  447SOL    HW2 1341   0.608   1.055   0.763 -1.1892  0.9249 -0.5254
  448SOL     OW 1342   1.472   1.369   1.946  0.2158 -0.0677 -0.5362
  448SOL    HW1 1343   1.417   1.451   1.922 -1.7918 -1.4865 -0.2474
  448SOL    HW2 1344   1.399   1.297   1.973 -0.2771 -0.7132 -1.5487
  449SOL     OW 1345   1.257   1.315   3.065 -0.1592  0.1204 -0.3347
  449SOL    HW1 1346   1.304   1.226   3.086  0.8273 -2.8942 -0.0911
  449SOL    HW2 1347   1.321   1.363   2.999  0.1729 -0.4012 -0.7064
  450SOL     OW 1348   2.782   2.167   2.117  0.0903  0.0848  0.2644
  450SOL    HW1 1349   2.845   2.246   2.130  3.1491 -4.2458 -0.3954
  450SOL    HW2 1350   2.826   2.111   2.046  0.1386  2.1088  0.1187
  451SOL     OW 1351   1.721   2.942   2.458  0.5066  0.1687  0.2312
  451SOL    HW1 1352   1.797   2.897   2.511  0.5104 -0.2535  0.8272
  451SOL    HW2 1353   1.693   3.036   2.492 -0.3757 -2.8756 -1.0639
  452SOL     OW 1354   1.614   2.932   1.378 -0.7697  0.5359 -0.0676
  452SOL    HW1 1355   1.530   2.971   1.339  1.8561 -1.3500  0.4670
  452SOL    HW2 1356   1.678   3.012   1.403  0.5214  0.5499  1.2679
  453SOL     OW 1357   1.726   0.660   1.048  0.8012  0.3462  0.1094
  453SOL    HW1 1358   1.777   0.586   0.998  1.0638  1.6866  2.7201
  453SOL    HW2 1359   1.760   0.752   1.023  1.9606  2.8065 -0.6931
  454SOL     OW 1360   0.198   1.313   0.707  0.0856  0.6475  0.2505
  454SOL    HW1 1361   0.281   1.360   0.679 -0.3435  1.2311 -2.1428
  454SOL    HW2 1362   0.122   1.383   0.733 -2.5611  1.9801  0.1498
  455SOL     OW 1363   2.707   0.040   0.309  0.3599  0.1003 -0.4013
  455SOL    HW1 1364   2.661   0.032   0.219  0.1540 -0.7266  0.8834
  455SOL    HW2 1365   2.800   0.072   0.298 -1.2562 -4.6756 -0.6833
  456SOL     OW 1366   3.041   2.587   1.259 -0.0599 -0.3445  0.2546
  456SOL    HW1 1367   3.035   2.646   1.344  0.9713 -1.5388  2.7565
  456SOL    HW2 1368   2.950   2.557   1.236 -0.2958 -0.4435  2.0227
  457SOL     OW 1369   1.168   0.092   0.461  0.5876 -0.2282 -0.6155
  457SOL    HW1 1370   1.082   0.141   0.428 -2.6419 -1.1238  0.8122
  457SOL    HW2 1371   1.238   0.158   0.489  0.9475 -0.5053  0.5440
  458SOL     OW 1372   2.322   0.594   0.527 -0.1484 -0.2053  0.0074
  458SOL    HW1 1373   2.401   0.550   0.576  1.9023 -0.1470 -1.5169
  458SOL    HW2 1374   2.235   0.576   0.578 -1.5157 -1.5617  1.5084
  459SOL     OW 1375   2.142   0.753   2.606 -0.1618 -0.5559  0.6857
  459SOL    HW1 1376   2.120   0.668   2.552 -4.6068  0.6108 -0.9771
  459SOL    HW2 1377   2.122   0.744   2.704  0.1780 -0.1330 -1.9730
  460SOL     OW 1378   2.772   0.018   2.707  0.2371  0.4929  0.0783
  460SOL    HW1 1379   2.704   3.053   2.733 -1.5681  1.3107 -0.9323
  460SOL    HW2 1380   2.858   3.102   2.671 -3.2094 -1.4590 -0.9189
  461SOL     OW 1381   1.028   1.739   0.729  0.1089  0.1379  0.0554
  461SOL    HW1 1382   1.059   1.663   0.789 -1.9615 -0.2833 -2.1674
  461SOL    HW2 1383   0.928   1.747   0.738  1.3479 -1.2739  0.3961
  462SOL     OW 1384   2.701   2.609   1.326 -0.5507  0.4981 -0.6176
  462SOL    HW1 1385   2.762   2.683   1.292  0.8368  2.3019  0.7463
  462SOL    HW2 1386   2.664   2.636   1.416 -1.4200  2.7587 -0.1600
  463SOL     OW 1387   2.490   1.088   0.634  0.1124 -0.7129 -0.2327
  463SOL    HW1 1388   2.524   1.052   0.545  1.0460 -2.3740  0.1124
  463SOL    HW2 1389   2.511   1.013   0.701  1.3914 -3.8022  1.8443
  464SOL     OW 1390   0.404   2.632   0.982  0.1102  0.6343  0.0379
  464SOL    HW1 1391   0.316   2.654   1.030  0.1841 -0.0102 -0.9488
  464SOL    HW2 1392   0.436   2.537   1.007 -0.8573  0.4691  0.0269
  465SOL     OW 1393   0.145   1.583   3.059  0.1298 -0.6753 -0.6017
  465SOL    HW1 1394   0.110   1.490   3.077 -0.4753 -1.3345 -0.9273
  465SOL    HW2 1395   0.202   1.619   0.022  0.5162 -1.3299 -1.4065
  466SOL     OW 1396   1.559   0.233   2.730  0.0724  0.4005 -0.0435
  466SOL    HW1 1397   1.464   0.226   2.697  2.4869 -0.0337 -0.3219
  466SOL    HW2 1398   1.564   0.228   2.836 -0.1988  3.0623  2.5976
  467SOL     OW 1399   0.995   0.752   1.865  0.2657  0.3016  0.1840
  467SOL    HW1 1400   1.066   0.681   1.883 -1.8771 -2.6795 -0.3530
  467SOL    HW2 1401   1.003   0.830   1.927  0.8525 -0.1503 -0.4419
  468SOL     OW 1402   0.656   1.248   2.476 -0.5583  0.4674 -0.0410
  468SOL    HW1 1403   0.679   1.153   2.458  1.3428  1.8796 -0.1626
  468SOL    HW2 1404   0.569   1.272   2.427  0.7747  1.2834  0.8265
  469SOL     OW 1405   0.049   2.222   3.070 -0.0726  0.1880 -0.2485
  469SOL    HW1 1406   0.071   2.312   3.111  0.9416  0.3839  1.2782
  469SOL    HW2 1407   3.095   2.174   0.017  2.4452 -1.6089 -1.2654
  470SOL     OW 1408   2.308   1.734   2.898 -0.3871  0.6890 -0.0866
  470SOL    HW1 1409   2.255   1.680   2.825 -1.9560 -0.8147 -1.3570
  470SOL    HW2 1410   2.352   1.669   2.965 -0.8762  0.9843  1.0879
  471SOL     OW 1411   2.234   0.728   2.234  0.3876  0.2380 -0.1017
  471SOL    HW1 1412   2.169   0.788   2.285 -3.3910  0.9749 -0.0740
  471SOL    HW2 1413   2.304   0.783   2.185  0.3461  1.1416 -1.7324
  472SOL     OW 1414   0.478   2.505   0.733 -0.1641  0.2474 -0.1105
  472SOL    HW1 1415   0.450   2.545   0.647  1.5123 -0.8495  5.1202
  472SOL    HW2 1416   0.484   2.579   0.807 -0.5483  1.5608  0.7743
  473SOL     OW 1417   0.673   0.086   2.667 -0.0285  0.0355  0.2862
  473SOL    HW1 1418   0.735   0.047   2.598  0.5006 -2.1611 -0.5290
  473SOL    HW2 1419   0.689   0.058   2.763  1.9018  0.4921  1.3702
  474SOL     OW 1420   1.594   0.113   2.275 -0.2926 -0.2252  0.0818
  474SOL    HW1 1421   1.606   0.215   2.260 -0.9924  0.9048  0.7919
  474SOL    HW2 1422   1.588   0.062   2.188 -2.2173  1.8815  5.1024
  475SOL     OW 1423   1.889   2.648   0.829 -0.7823 -0.1271 -0.4484
  475SOL    HW1 1424   1.941   2.575   0.879 -1.8156  0.1892 -1.5406
  475SOL    HW2 1425   1.885   2.627   0.733  0.9069 -0.0041  0.6075
  476SOL     OW 1426   3.066   0.628   0.939  0.1217 -0.7295 -0.0425
  476SOL    HW1 1427   3.037   0.728   0.953  0.9815  0.7517  0.3180
  476SOL    HW2 1428   0.056   0.622   0.944  0.2139 -1.4209  0.9556
  477SOL     OW 1429   1.276   2.360   0.719  0.2883  0.3271 -0.5084
  477SOL    HW1 1430   1.342   2.377   0.644 -0.8566  0.5652 -0.7938
  477SOL    HW2 1431   1.217   2.282   0.684  1.8107 -0.4743 -0.8419
  478SOL     OW 1432   0.203   2.425   2.424 -0.2303 -0.3217  0.0741
  478SOL    HW1 1433   0.255   2.377   2.498 -0.8840  2.3498  0.8480
  478SOL    HW2 1434   0.229   2.386   2.333  1.5322 -0.4794  1.4708
  479SOL     OW 1435   2.363   0.538   0.886  0.3936 -0.1285  0.3288
  479SOL    HW1 1436   2.263   0.519   0.887  2.6419  2.2248 -0.4985
  479SOL    HW2 1437   2.419   0.456   0.904 -1.2355  2.1231  2.5621
  480SOL     OW 1438   0.092   2.959   0.084  0.2811 -0.5710  0.5681
  480SOL    HW1 1439   0.005   2.990   0.035 -0.4773 -1.2010 -0.6517
  480SOL    HW2 1440   0.157   3.042   0.101 -0.2201  4.3311  1.7296
  481SOL     OW 1441   2.855   2.351   1.511 -0.8330 -0.4959 -0.5855
  481SOL    HW1 1442   2.892   2.319   1.598 -3.6238 -0.5357 -0.0261
  481SOL    HW2 1443   2.848   2.453   1.503 -0.3192  1.8694 -1.1192
  482SOL     OW 1444   0.918   2.490   2.893 -0.6377 -0.2206 -0.0759
  482SOL    HW1 1445   1.018   2.497   2.904  0.2974  0.1606  1.3075
  482SOL    HW2 1446   0.890   2.557   2.820 -1.5776  1.5831 -0.8954
  483SOL     OW 1447   0.620   2.117   2.313  0.2052 -0.6264  0.3910
  483SOL    HW1 1448   0.685   2.040   2.314 -0.4896  0.6870  1.8903
  483SOL    HW2 1449   0.524   2.081   2.301 -2.1928  2.5250  0.3473
  484SOL     OW 1450   1.005   0.882   1.611 -0.0203  0.2028 -0.5331
  484SOL    HW1 1451   0.987   0.837   1.702  2.9635 -3.6067  1.2155
  484SOL    HW2 1452   1.102   0.868   1.582 -0.3324  2.0320 -0.2250
  485SOL     OW 1453   2.166   0.987   3.034 -0.2899  0.0096 -0.1532
  485SOL    HW1 1454   2.181   0.898   2.985 -1.1744  1.9623 -0.2814
  485SOL    HW2 1455   2.252   1.025   3.076 -0.1538 -0.2369  1.2536
  486SOL     OW 1456   2.107   3.104   1.195 -0.2350 -0.0721  0.1325
  486SOL    HW1 1457   2.089   3.012   1.230  1.1114  2.8038 -1.9103
  486SOL    HW2 1458   2.024   0.047   1.192  2.0563  0.2004 -0.6338
  487SOL     OW 1459   0.570   2.035   1.094 -0.1640  0.4189  0.6734
  487SOL    HW1 1460   0.636   2.111   1.069  0.4212  0.5145 -2.5061
  487SOL    HW2 1461   0.472   2.058   1.126  0.8487 -4.6514  0.2663
  488SOL     OW 1462   2.482   0.967   3.095 -0.0328  0.4318 -0.2958
  488SOL    HW1 1463   2.442   1.062   3.110  0.5386  2.7719 -0.0358
  488SOL    HW2 1464   2.537   0.956   3.012 -1.6552 -0.4613  2.7925
  489SOL     OW 1465   1.737   0.238   1.069 -0.3390 -0.0229  0.0502
  489SOL    HW1 1466   1.765   0.188   1.149  1.2519  0.5588 -2.5118
  489SOL    HW2 1467   1.639   0.266   1.072  0.1464 -0.2674 -0.2532
  490SOL     OW 1468   0.744   0.641   0.357 -0.7950 -0.0784  0.5092
  490SOL    HW1 1469   0.671   0.663   0.290  0.8924  1.2812 -0.6834
  490SOL    HW2 1470   0.837   0.628   0.309  1.5695 -1.6740  1.1438
  491SOL     OW 1471   0.684   2.318   0.758 -0.7334  0.3208  0.1562
  491SOL    HW1 1472   0.761   2.370   0.720 -0.2653 -0.5622 -1.5904
  491SOL    HW2 1473   0.601   2.380   0.759 -0.0329  1.3777 -0.3292
  492SOL     OW 1474   1.459   1.785   2.244  0.0318 -0.3788  0.0007
  492SOL    HW1 1475   1.447   1.698   2.297 -2.7571  0.9912 -1.3151
  492SOL    HW2 1476   1.373   1.818   2.205  2.7634 -1.4291  3.6685
  493SOL     OW 1477   2.804   2.653   0.700  0.1393  0.2929  0.1065
  493SOL    HW1 1478   2.824   2.692   0.793  1.0879 -0.2439  3.2722
  493SOL    HW2 1479   2.737   2.574   0.719  0.1403 -0.0673  1.8205
  494SOL     OW 1480   2.746   2.023   0.034 -0.1442 -0.8942  0.4038
  494SOL    HW1 1481   2.674   1.955   0.058  0.3546  1.9264  0.2629
  494SOL    HW2 1482   2.727   2.057   3.046  1.5517 -1.2237 -2.1707
  495SOL     OW 1483   2.703   2.101   2.892  0.1637 -0.1140 -0.2842
  495SOL    HW1 1484   2.656   2.033   2.828 -1.0596 -2.4103  0.5940
  495SOL    HW2 1485   2.805   2.116   2.876 -1.0775  0.7025  0.7159
  496SOL     OW 1486   2.792   0.018   1.686 -0.6197  0.0638  0.4619
  496SOL    HW1 1487   2.693   3.109   1.703  4.0215 -0.2505 -0.4413
  496SOL    HW2 1488   2.810   0.039   1.588 -2.0773  1.6462  1.0703
  497SOL     OW 1489   2.788   1.185   3.043  0.3922  0.7053  0.0755
  497SOL    HW1 1490   2.743   1.116   2.981  0.5997  0.0598 -2.4052
  497SOL    HW2 1491   2.743   1.274   3.051 -0.1824 -0.7877  1.8241
  498SOL     OW 1492   3.101   1.781   2.160 -0.4948  0.1378 -0.1220
  498SOL    HW1 1493   0.003   1.878   2.134 -0.3200  0.0144  0.1680
  498SOL    HW2 1494   0.025   1.763   2.251  1.1017 -2.7074  0.0348
  499SOL     OW 1495   0.742   2.280   2.934  0.0793 -0.3704 -0.3629
  499SOL    HW1 1496   0.777   2.195   2.978 -3.6939 -1.2021 -0.8949
  499SOL    HW2 1497   0.820   2.339   2.903  0.4111 -2.7808  3.0477
  500SOL     OW 1498   1.582   0.157   2.985 -0.1009 -0.1477  0.0655
  500SOL    HW1 1499   1.557   0.175   3.086 -1.2881  1.2909  0.7280
  500SOL    HW2 1500   1.682   0.129   2.977  1.7277 -0.0805  2.2487
  501SOL     OW 1501   1.401   3.053   1.253 -0.2602  0.0780 -0.0691
  501SOL    HW1 1502   1.307   3.065   1.220  1.4550 -1.7534  2.0672
  501SOL    HW2 1503   1.422   0.011   1.327  2.2829  1.3163 -2.0357
  502SOL     OW 1504   2.594   0.782   2.047  0.1438  0.3392  0.0268
  502SOL    HW1 1505   2.523   0.845   2.079  0.7933 -0.2828  0.2267
  502SOL    HW2 1506   2.574   0.749   1.954  1.7989 -0.5564  0.1577
  503SOL     OW 1507   2.126   2.173   2.350  0.3907 -0.0133 -0.2044
  503SOL    HW1 1508   2.150   2.261   2.398 -2.3443  1.0428  0.1111
  503SOL    HW2 1509   2.026   2.182   2.320 -2.6022 -1.7544 -1.7328
  504SOL     OW 1510   1.544   0.680   1.524 -0.2461  0.0344  0.4446
  504SOL    HW1 1511   1.485   0.665   1.444  2.2072  1.0094  0.6311
  504SOL    HW2 1512   1.567   0.597   1.579 -0.4643 -1.0568  0.4064
  505SOL     OW 1513   0.748   0.666   1.862  0.2953 -0.1587 -0.1330
  505SOL    HW1 1514   0.690   0.737   1.818 -2.6614 -0.0354  2.9070
  505SOL    HW2 1515   0.843   0.700   1.870 -4.8270 -0.4289 -0.8662
  506SOL     OW 1516   0.571   0.643   2.550  0.6813 -0.0286 -0.9626
  506SOL    HW1 1517   0.586   0.610   2.645 -0.7513 -0.0158  1.6934
  506SOL    HW2 1518   0.654   0.628   2.489  1.4680  1.7656 -0.4251
  507SOL     OW 1519   0.277   0.057   0.102 -0.4235  0.1950 -0.0389
  507SOL    HW1 1520   0.346   0.019   0.165 -1.0218 -0.7647 -1.3087
  507SOL    HW2 1521   0.317   0.091   0.018 -0.9924 -1.5524  0.7657
  508SOL     OW 1522   1.379   0.912   1.328  0.2590 -0.1213  0.5966
  508SOL    HW1 1523   1.342   0.944   1.412  0.6192  0.9064 -2.0735
  508SOL    HW2 1524   1.472   0.946   1.304  1.0410  0.1772 -3.1548
  509SOL     OW 1525   1.659   2.162   1.442  0.0690  0.6530  0.5682
  509SOL    HW1 1526   1.697   2.254   1.454 -0.3510  0.4134 -0.2875
  509SOL    HW2 1527   1.731   2.091   1.453 -3.2510 -0.3025 -0.5177
  510SOL     OW 1528   2.370   1.308   2.186  0.1761  0.2510  0.3839
  510SOL    HW1 1529   2.357   1.407   2.154 -1.0954  1.0300  1.0775
  510SOL    HW2 1530   2.456   1.294   2.243  0.2564 -1.6738  0.1444
  511SOL     OW 1531   0.782   1.925   1.498  0.3781 -0.5633  0.1706
  511SOL    HW1 1532   0.747   1.878   1.415  1.6701 -0.7649  0.2346
  511SOL    HW2 1533   0.713   1.919   1.571 -0.3855  0.2281  0.0806
  512SOL     OW 1534   2.860   2.073   0.519 -0.2899  0.1340  0.3846
  512SOL    HW1 1535   2.806   2.147   0.470 -1.9228  1.9810 -1.0966
  512SOL    HW2 1536   2.890   2.118   0.605  0.5807  0.3842 -1.2527
  513SOL     OW 1537   3.066   1.770   2.997 -0.2551  0.0823  0.4841
  513SOL    HW1 1538   0.013   1.842   2.949 -0.5337  2.8529 -2.4697
  513SOL    HW2 1539   0.017   1.695   3.026 -1.3240 -0.7694 -1.7805
  514SOL     OW 1540   2.963   2.389   2.099 -0.1039  0.0131  0.2476
  514SOL    HW1 1541   2.961   2.470   2.160 -1.4069 -1.1881 -1.3104
  514SOL    HW2 1542   3.059   2.359   2.088  2.0257 -2.5822 -3.1694
  515SOL     OW 1543   2.289   1.257   1.077  0.3595  0.2087  0.8661
  515SOL    HW1 1544   2.202   1.201   1.069  0.8630 -1.8713 -2.1430
  515SOL    HW2 1545   2.290   1.300   1.170 -0.9741 -0.7813  0.1254
  516SOL     OW 1546   2.225   2.153   0.491  0.5665 -0.0724 -0.2134
  516SOL    HW1 1547   2.316   2.124   0.520 -0.1593 -1.4985 -1.6663
  516SOL    HW2 1548   2.171   2.068   0.471 -0.5813  3.3020  0.9136
  517SOL     OW 1549   1.022   1.167   3.067 -0.2039  0.6422  0.6224
  517SOL    HW1 1550   1.105   1.228   3.035  0.8978  0.2787 -0.9934
  517SOL    HW2 1551   0.934   1.212   3.040  0.0922 -2.2402 -4.5128
  518SOL     OW 1552   0.047   2.841   1.950  0.0618 -0.0437  0.0338
  518SOL    HW1 1553   0.019   2.900   2.031 -0.9837  0.2537  4.5622
  518SOL    HW2 1554   3.078   2.789   1.917  1.3844 -0.6072  0.2536
  519SOL     OW 1555   1.703   1.639   2.544  0.2672 -0.3714  0.4889
  519SOL    HW1 1556   1.774   1.581   2.499 -1.0630  0.9458  0.5165
  519SOL    HW2 1557   1.735   1.652   2.639 -0.3241 -0.5256 -1.1527
  520SOL     OW 1558   2.735   3.024   2.314 -0.0348  0.7715 -0.4309
  520SOL    HW1 1559   2.650   3.047   2.263  0.1049 -3.8750  1.6890
  520SOL    HW2 1560   2.798   3.103   2.337  3.2026  0.6953  0.7115
  521SOL     OW 1561   0.041   2.023   2.037 -0.1293 -0.2495  0.5768
  521SOL    HW1 1562   0.076   2.119   2.021  0.6795  2.8325  1.7245
  521SOL    HW2 1563   0.073   1.964   1.961 -0.5213  1.5928 -0.2275
  522SOL     OW 1564   1.143   2.715   1.790 -0.6250  0.6003 -0.6624
  522SOL    HW1 1565   1.072   2.679   1.727 -3.1976 -0.8872  1.1054
  522SOL    HW2 1566   1.191   2.798   1.747  1.0835 -1.4027 -3.2123
  523SOL     OW 1567   0.294   2.326   1.283  0.1481 -0.1773 -1.3210
  523SOL    HW1 1568   0.348   2.363   1.357 -0.3942  0.6140 -3.9800
  523SOL    HW2 1569   0.199   2.317   1.318 -3.4745  0.1667  0.2279
  524SOL     OW 1570   1.381   2.706   0.728 -0.6894 -0.0950  0.4032
  524SOL    HW1 1571   1.476   2.696   0.767  1.2175 -2.7712  1.3911
  524SOL    HW2 1572   1.313   2.642   0.771  0.7697 -1.3873 -1.5318
  525SOL     OW 1573   2.522   1.183   1.007  0.5850  0.0476 -0.0139
  525SOL    HW1 1574   2.569   1.272   1.001 -2.2378 -2.4581 -0.6116
  525SOL    HW2 1575   2.427   1.204   1.026  2.2899 -1.3162 -1.4182
  526SOL     OW 1576   0.919   2.445   0.688 -0.4560  0.4978  0.7031
  526SOL    HW1 1577   0.888   2.504   0.607 -1.1446  2.2749 -0.7990
  526SOL    HW2 1578   0.979   2.365   0.651 -0.8150 -2.0050  0.8417
  527SOL     OW 1579   2.646   2.239   0.942 -0.1342  0.2458  0.1681
  527SOL    HW1 1580   2.695   2.293   0.874 -1.4184  0.9815  0.4091
  527SOL    HW2 1581   2.651   2.138   0.921  1.4709  0.3724 -0.2390
  528SOL     OW 1582   2.100   0.359   3.031 -0.5032  0.2390 -0.0700
  528SOL    HW1 1583   2.001   0.370   3.051  1.0734 -0.2821  0.3001
  528SOL    HW2 1584   2.130   0.260   3.045  1.8833 -2.2892 -3.3576
  529SOL     OW 1585   1.091   1.348   2.190  0.5195 -0.4518 -0.7771
  529SOL    HW1 1586   1.122   1.374   2.282 -1.5906 -1.0712  1.7736
  529SOL    HW2 1587   1.097   1.422   2.120  0.8862  0.4325  0.6823
  530SOL     OW 1588   2.475   0.998   2.379  0.2489 -0.2781 -0.6875
  530SOL    HW1 1589   2.576   1.016   2.378 -0.4408 -1.7499  1.3032
  530SOL    HW2 1590   2.450   0.904   2.416  0.2004 -0.4755 -1.1551
  531SOL     OW 1591   1.057   0.875   3.038 -0.0646 -0.1625  0.4760
  531SOL    HW1 1592   1.065   0.976   3.028  2.5489  0.6461 -0.9134
  531SOL    HW2 1593   0.958   0.847   3.074 -3.5202 -0.1778  1.8754
  532SOL     OW 1594   1.602   1.070   0.600 -0.0259  0.1814 -0.2983
  532SOL    HW1 1595   1.562   0.981   0.625 -1.1046 -0.8621 -4.9267
  532SOL    HW2 1596   1.584   1.087   0.498 -0.9800  1.1816 -1.2214
  533SOL     OW 1597   0.410   0.487   2.129  0.4211 -0.1209 -0.0156
  533SOL    HW1 1598   0.350   0.495   2.048 -0.1100 -0.6032  3.3250
  533SOL    HW2 1599   0.507   0.503   2.104  0.5223 -2.2171  0.9457
  534SOL     OW 1600   1.603   0.379   2.254  0.1790 -0.5778 -0.5852
  534SOL    HW1 1601   1.677   0.420   2.314  1.8866  1.6245 -0.0837
  534SOL    HW2 1602   1.518   0.394   2.305  1.7420  0.2282  2.6506
  535SOL     OW 1603   0.474   0.179   0.327  0.4906  0.1596  0.3865
  535SOL    HW1 1604   0.522   0.087   0.307  0.0064 -2.1308 -1.0053
  535SOL    HW2 1605   0.399   0.160   0.387 -0.1347 -0.4234 -1.0705
  536SOL     OW 1606   1.003   0.499   0.601 -0.3204 -0.1036 -0.0855
  536SOL    HW1 1607   1.066   0.554   0.540  0.6579  0.7521 -2.8874
  536SOL    HW2 1608   0.907   0.494   0.566  1.6357 -0.6268 -2.4301
  537SOL     OW 1609   1.574   2.970   1.758 -0.7960 -0.1739  0.0189
  537SOL    HW1 1610   1.579   2.917   1.849 -0.7387 -0.6806  0.5301
  537SOL    HW2 1611   1.542   2.906   1.681  0.5600 -0.5116 -1.0166
  538SOL     OW 1612   0.392   2.803   0.039  0.3299 -0.1441 -0.4367
  538SOL    HW1 1613   0.304   2.762   0.007  1.2831  0.1759 -1.2147
  538SOL    HW2 1614   0.453   2.812   3.065  3.5153 -3.4074  0.2854
  539SOL     OW 1615   2.883   1.496   1.880 -0.0201 -0.5211  0.1494
  539SOL    HW1 1616   2.971   1.544   1.862  0.9500  0.3739 -0.3091
  539SOL    HW2 1617   2.830   1.538   1.955 -0.6423 -0.5970  2.7107
  540SOL     OW 1618   2.521   2.235   2.065  0.0343  0.0526 -0.0588
  540SOL    HW1 1619   2.618   2.248   2.095 -2.1547  0.2746 -0.4016
  540SOL    HW2 1620   2.519   2.171   1.986 -1.8614 -1.3496  0.3020
  541SOL     OW 1621   0.492   2.824   1.250  0.3975  0.2123 -0.0819
  541SOL    HW1 1622   0.387   2.841   1.242 -3.5793  1.4052  0.2276
  541SOL    HW2 1623   0.539   2.835   1.161  0.0321 -1.9160 -0.4776
  542SOL     OW 1624   2.664   0.273   2.213 -0.4076  0.3664  0.0952
  542SOL    HW1 1625   2.745   0.310   2.268  0.5369  0.4240  1.1167
  542SOL    HW2 1626   2.681   0.182   2.168 -2.3255 -0.6976  0.7311
  543SOL     OW 1627   0.649   0.618   0.877 -0.0977  0.1529 -0.1694
  543SOL    HW1 1628   0.644   0.649   0.973  0.3729 -0.7622  4.0058
  543SOL    HW2 1629   0.677   0.519   0.870  0.0338 -1.0993 -1.7365
  544SOL     OW 1630   2.374   2.181   1.265 -0.5849  0.0493 -0.0501
  544SOL    HW1 1631   2.360   2.205   1.169  0.1382 -1.4633  2.6111
  544SOL    HW2 1632   2.421   2.265   1.306 -1.4483  4.3791 -2.4610
  545SOL     OW 1633   1.275   1.351   0.993  0.0324 -0.3904  0.2558
  545SOL    HW1 1634   1.374   1.369   1.012  2.0929 -1.5840 -1.0230
  545SOL    HW2 1635   1.213   1.361   1.074  0.1279 -0.9111 -1.6924
  546SOL     OW 1636   2.863   0.263   2.666  0.2078 -0.0853  0.3088
  546SOL    HW1 1637   2.817   0.176   2.674  1.9441  1.1835 -0.6539
  546SOL    HW2 1638   2.810   0.334   2.719 -2.6936 -1.9558 -1.2789
  547SOL     OW 1639   2.278   0.379   2.828  0.2604 -0.5278  0.9508
  547SOL    HW1 1640   2.200   0.375   2.894  1.1022 -1.7514 -4.2298
  547SOL    HW2 1641   2.347   0.442   2.856 -1.7700 -5.3875 -0.5509
  548SOL     OW 1642   2.346   1.949   2.760 -0.3855 -0.0046 -0.2660
  548SOL    HW1 1643   2.325   1.869   2.822 -1.8657  1.4951 -2.0311
  548SOL    HW2 1644   2.446   1.949   2.733  1.5335  1.0916 -1.4922
  549SOL     OW 1645   2.108   0.523   0.699 -0.0082  0.1918 -0.2601
  549SOL    HW1 1646   2.116   0.512   0.799  2.4565 -0.7409 -0.2959
  549SOL    HW2 1647   2.055   0.609   0.680  0.3895  2.7418 -1.0473
  550SOL     OW 1648   2.610   1.287   0.277 -0.1361  0.0813 -0.5611
  550SOL    HW1 1649   2.523   1.326   0.306  1.0492 -2.7422  4.1075
  550SOL    HW2 1650   2.598   1.190   0.256  2.0873 -2.8390  1.8367
  551SOL     OW 1651   1.360   2.465   1.259  0.1726  0.0957 -0.5473
  551SOL    HW1 1652   1.271   2.483   1.215  2.6873 -0.6511 -1.5572
  551SOL    HW2 1653   1.436   2.482   1.194 -1.7548 -0.8064  1.7540
  552SOL     OW 1654   2.851   2.367   2.529  0.3653 -0.9766 -0.0496
  552SOL    HW1 1655   2.804   2.282   2.494 -1.9383 -2.3948  1.4458
  552SOL    HW2 1656   2.798   2.457   2.531  0.5497  3.0012  0.3516
  553SOL     OW 1657   0.487   3.007   0.515  0.3554 -0.1039  0.1128
  553SOL    HW1 1658   0.447   3.099   0.514 -1.5353 -2.1229  1.2484
  553SOL    HW2 1659   0.507   2.992   0.615 -2.3748 -0.1920  2.0335
  554SOL     OW 1660   1.795   1.970   1.724  0.1163  0.1396  0.0402
  554SOL    HW1 1661   1.704   1.919   1.712 -1.6313 -0.8618 -2.4508
  554SOL    HW2 1662   1.874   1.913   1.761  0.7278 -0.6055 -0.0986
  555SOL     OW 1663   1.487   2.544   1.888  0.3095 -0.4324  0.0973
  555SOL    HW1 1664   1.492   2.443   1.866  1.9422  0.9736 -0.9888
  555SOL    HW2 1665   1.394   2.570   1.925  3.1268  1.6158 -0.9421
  556SOL     OW 1666   1.527   0.809   0.634 -0.5681 -0.3774  0.7039
  556SOL    HW1 1667   1.621   0.778   0.638 -0.7706  1.1346 -1.3428
  556SOL    HW2 1668   1.467   0.738   0.588  1.3147 -0.5848 -0.1130
  557SOL     OW 1669   1.452   2.137   1.607  0.2100 -0.3707  0.0858
  557SOL    HW1 1670   1.541   2.153   1.556 -0.6882  1.2247 -2.2130
  557SOL    HW2 1671   1.378   2.194   1.566  0.0451  1.4330  3.1845
  558SOL     OW 1672   3.080   1.195   2.627  0.0751 -0.3195 -0.0704
  558SOL    HW1 1673   2.979   1.182   2.630  0.3805  0.9047  0.6330
  558SOL    HW2 1674   0.016   1.120   2.580 -1.1983 -0.8729  2.7987
  559SOL     OW 1675   2.539   2.571   2.467  0.0344  0.0887 -0.0403
  559SOL    HW1 1676   2.625   2.591   2.524  1.4516 -0.1772  1.1827
  559SOL    HW2 1677   2.467   2.626   2.516  1.0983  0.8541 -0.1133
  560SOL     OW 1678   0.412   0.094   2.631 -0.2879  0.1265 -0.2795
  560SOL    HW1 1679   0.398   0.057   2.536  0.7177  0.9388  5.1811
  560SOL    HW2 1680   0.513   0.099   2.661  2.1152  0.5207  1.1160
  561SOL     OW 1681   1.380   0.603   0.544  0.0960  0.2004  0.2044
  561SOL    HW1 1682   1.289   0.644   0.529 -0.1456 -1.8483 -0.7356
  561SOL    HW2 1683   1.390   0.553   0.634  0.9833  1.1614  0.0116
  562SOL     OW 1684   0.593   1.399   2.089  0.2407  0.3912  0.1477
  562SOL    HW1 1685   0.664   1.471   2.111  2.2989  1.7257  3.3676
  562SOL    HW2 1686   0.552   1.410   1.994 -0.2300  1.6607 -0.7598
  563SOL     OW 1687   1.871   2.215   0.241  0.6075 -0.0346 -0.3896
  563SOL    HW1 1688   1.871   2.207   0.139 -1.0841  0.5235 -1.9965
  563SOL    HW2 1689   1.961   2.257   0.271 -0.7470  0.0095  1.3443
  564SOL     OW 1690   0.063   2.128   0.563 -0.4029 -0.1231  0.1499
  564SOL    HW1 1691   0.029   2.042   0.526 -1.3707 -0.7468  0.8907
  564SOL    HW2 1692   0.130   2.111   0.638  1.0118  1.0579  0.6627
  565SOL     OW 1693   0.502   2.864   2.891  0.1417  1.0541 -0.6305
  565SOL    HW1 1694   0.425   2.895   2.833  2.3706 -1.7904 -3.2313
  565SOL    HW2 1695   0.570   2.815   2.834  0.8071 -2.9227 -1.4988
  566SOL     OW 1696   1.432   2.658   3.012  0.8508  0.2092 -0.0915
  566SOL    HW1 1697   1.500   2.681   3.084 -0.2762  0.8343  0.2376
  566SOL    HW2 1698   1.466   2.701   2.920  3.5524  2.1313 -1.4436
  567SOL     OW 1699   2.550   1.849   1.352 -0.4110  0.5557  0.4971
  567SOL    HW1 1700   2.632   1.910   1.376 -1.6761  3.0346  2.3386
  567SOL    HW2 1701   2.488   1.843   1.433 -0.4394  3.1892 -0.1779
  568SOL     OW 1702   1.882   0.993   2.753  0.0890  0.9039 -0.1363
  568SOL    HW1 1703   1.916   0.897   2.746 -0.3261  3.5536  2.5685
  568SOL    HW2 1704   1.959   1.049   2.789  1.4589 -0.8048 -2.0649
  569SOL     OW 1705   2.090   2.042   2.017 -0.2095  0.5996 -0.3856
  569SOL    HW1 1706   2.064   1.942   2.002 -0.0571  0.0252 -1.9326
  569SOL    HW2 1707   2.173   2.048   2.078 -2.8009 -2.7779  0.7957
  570SOL     OW 1708   2.969   2.675   1.820 -0.1179 -0.5363 -0.0828
  570SOL    HW1 1709   2.898   2.747   1.851  0.6948  1.5280  1.5702
  570SOL    HW2 1710   2.955   2.644   1.722 -1.9352  1.2011  0.2716
  571SOL     OW 1711   0.177   0.881   1.334 -0.0203 -0.0887  0.4701
  571SOL    HW1 1712   0.213   0.959   1.392  0.8071 -0.1766 -0.1883
  571SOL    HW2 1713   0.148   0.795   1.386  2.8151 -3.8640  2.1277
  572SOL     OW 1714   0.415   1.516   0.673  0.0922  0.0177 -0.4860
  572SOL    HW1 1715   0.396   1.487   0.772 -0.2618  1.1877  1.8173
  572SOL    HW2 1716   0.450   1.437   0.618 -1.7546 -0.8089 -1.0394
  573SOL     OW 1717   0.948   0.682   0.164  0.6188 -0.4803 -0.1120
  573SOL    HW1 1718   0.878   0.715   0.095 -2.0661  1.1424  1.7569
  573SOL    HW2 1719   1.031   0.738   0.171 -1.7919  2.8491  0.6479
  574SOL     OW 1720   0.096   0.256   0.180 -0.0538  0.5890  0.6549
  574SOL    HW1 1721   0.131   0.335   0.236  1.5332  4.1996  1.6490
  574SOL    HW2 1722   0.163   0.185   0.147  0.3049 -1.4262  1.6393
  575SOL     OW 1723   0.955   2.151   0.922 -0.2097  0.3848 -0.0309
  575SOL    HW1 1724   0.972   2.121   0.826 -0.1471 -0.4689 -3.0390
  575SOL    HW2 1725   1.031   2.214   0.948  0.7478  2.1693 -1.0004
  576SOL     OW 1726   3.050   0.090   1.671 -0.5774 -0.0969 -0.8421
  576SOL    HW1 1727   3.066   0.145   1.587 -1.6397 -2.2764 -1.2192
  576SOL    HW2 1728   2.949   0.075   1.689  0.8074 -0.1023  0.3919
  577SOL     OW 1729   2.565   1.656   2.027  0.4488  0.0429 -0.7345
  577SOL    HW1 1730   2.496   1.633   2.101 -1.6453 -0.3148 -0.0901
  577SOL    HW2 1731   2.655   1.690   2.061 -1.6839  1.9340 -1.0651
  578SOL     OW 1732   1.104   3.064   2.465  0.0149  0.3195 -0.6563
  578SOL    HW1 1733   1.184   3.024   2.415  3.3392 -0.1857 -2.3012
  578SOL    HW2 1734   1.088   3.013   2.548  1.5514 -0.0784  0.2458
  579SOL     OW 1735   1.903   1.931   2.232  0.2112 -0.3303  0.3600
  579SOL    HW1 1736   1.966   2.000   2.195  0.7889  1.1408 -2.1281
  579SOL    HW2 1737   1.810   1.944   2.193 -1.6650  2.4548 -1.1206
  580SOL     OW 1738   1.758   1.001   2.075 -0.5837  0.0418 -0.4830
  580SOL    HW1 1739   1.824   0.929   2.087 -2.9900 -0.2876  1.6494
  580SOL    HW2 1740   1.708   1.026   2.162  0.5599  0.2414  0.6448
  581SOL     OW 1741   1.260   1.100   2.447 -0.2867  0.1002  0.4047
  581SOL    HW1 1742   1.270   1.045   2.358  0.9092 -2.9217 -0.4034
  581SOL    HW2 1743   1.164   1.098   2.482  0.4690 -1.1744 -0.2659
  582SOL     OW 1744   0.074   2.487   1.901 -0.1835  0.3907  0.4647
  582SOL    HW1 1745   0.131   2.506   1.817 -2.9837  2.7132 -0.1246
  582SOL    HW2 1746   3.111   2.553   1.910 -0.9128 -2.9446 -0.8035
  583SOL     OW 1747   1.647   1.248   1.258 -0.3482 -0.1170  0.0267
  583SOL    HW1 1748   1.615   1.310   1.189  3.8792  1.0843 -0.5628
  583SOL    HW2 1749   1.626   1.282   1.353 -2.3952 -2.4480 -1.3132
  584SOL     OW 1750   1.007   2.113   2.753 -0.4685 -0.1585  0.1466
  584SOL    HW1 1751   1.055   2.127   2.845  2.3696  1.9957 -0.2859
  584SOL    HW2 1752   1.003   2.203   2.709  0.1599 -1.7574 -1.1236
  585SOL     OW 1753   0.202   2.338   0.223  0.2460  0.5641 -0.1304
  585SOL    HW1 1754   0.203   2.404   0.145 -0.3591 -0.1884  0.9728
  585SOL    HW2 1755   0.249   2.252   0.194  0.5131 -0.2558 -0.2620
  586SOL     OW 1756   2.044   1.562   0.437  0.3979 -0.4566 -0.0167
  586SOL    HW1 1757   1.957   1.564   0.381 -1.9706 -3.7530  0.4453
  586SOL    HW2 1758   2.048   1.478   0.496 -1.2054 -0.4951  1.0692
  587SOL     OW 1759   2.998   1.941   0.341 -0.2413  0.0590  0.2431
  587SOL    HW1 1760   3.074   1.894   0.393  1.4035 -2.0680 -0.8210
  587SOL    HW2 1761   2.934   1.983   0.410 -0.0716 -0.9675 -1.1401
  588SOL     OW 1762   2.543   0.321   0.860  0.0638  0.4363 -0.2156
  588SOL    HW1 1763   2.638   0.313   0.826  2.2093  0.5659 -0.2590
  588SOL    HW2 1764   2.523   0.237   0.914 -0.7275  0.8495  1.7566
  589SOL     OW 1765   0.881   0.805   0.776  0.8663 -0.6916 -0.2645
  589SOL    HW1 1766   0.971   0.814   0.821 -1.3366 -0.1005 -0.3397
  589SOL    HW2 1767   0.821   0.734   0.814 -0.0968  0.4729 -0.5456
  590SOL     OW 1768   2.514   2.400   0.007  0.2209 -0.2106  0.3620
  590SOL    HW1 1769   2.431   2.364   0.048  0.3799  3.1323  1.1847
  590SOL    HW2 1770   2.584   2.402   0.080 -0.8486  1.0727 -0.4150
  591SOL     OW 1771   0.751   2.586   1.834  0.1256  0.5503 -0.0357
  591SOL    HW1 1772   0.841   2.550   1.878  1.5829  1.7988 -0.2722
  591SOL    HW2 1773   0.709   2.510   1.781 -0.6832 -0.2673  0.8892
  592SOL     OW 1774   0.825   1.469   1.923 -0.4147 -0.3529  0.0554
  592SOL    HW1 1775   0.850   1.563   1.950 -0.2369 -3.5298  1.2002
  592SOL    HW2 1776   0.885   1.434   1.849  2.8326 -0.3715  0.8792
  593SOL     OW 1777   1.310   1.961   1.124  0.0006  0.1599 -0.2798
  593SOL    HW1 1778   1.410   1.936   1.135  1.5312 -1.3580  3.2570
  593SOL    HW2 1779   1.269   2.008   1.210  1.5343  1.0531  1.8437
  594SOL     OW 1780   0.572   1.334   2.744 -0.0203  0.1946  0.1144
  594SOL    HW1 1781   0.625   1.257   2.786  1.1611 -1.6674 -1.8498
  594SOL    HW2 1782   0.584   1.326   2.647 -0.0663  0.4622  3.1260
  595SOL     OW 1783   1.473   0.344   1.066  0.2031 -0.3964  0.5215
  595SOL    HW1 1784   1.464   0.334   1.164  0.6991  2.9080 -0.7176
  595SOL    HW2 1785   1.469   0.441   1.036 -1.2203 -2.6449  2.3375
  596SOL     OW 1786   0.372   1.065   0.987  0.2156 -0.0678  0.1223
  596SOL    HW1 1787   0.449   1.084   0.918  3.7629 -0.4301  0.6489
  596SOL    HW2 1788   0.287   1.054   0.930 -0.1278 -3.3876  1.3100
  597SOL     OW 1789   0.157   2.339   2.808  0.1228 -0.1869 -1.2986
  597SOL    HW1 1790   0.166   2.255   2.870  1.9830 -3.9438  0.8084
  597SOL    HW2 1791   0.064   2.381   2.821 -1.0699 -0.7112  0.8159
  598SOL     OW 1792   2.122   2.071   2.895 -0.2873 -0.1685 -0.2548
  598SOL    HW1 1793   2.051   2.122   2.843  1.5348 -1.9341 -1.9241
  598SOL    HW2 1794   2.213   2.102   2.873  0.9257  0.4099  0.9594
  599SOL     OW 1795   1.578   0.539   0.355  0.1913 -0.0990 -0.6756
  599SOL    HW1 1796   1.504   0.582   0.410 -1.2924  0.8005 -1.9800
  599SOL    HW2 1797   1.669   0.583   0.377  0.4309  0.3240  1.4853
  600SOL     OW 1798   0.938   0.223   0.362 -0.0813  0.2538  0.5168
  600SOL    HW1 1799   0.913   0.168   0.276 -0.4394 -0.9529 -1.8875
  600SOL    HW2 1800   0.977   0.315   0.341 -0.0988  0.4671  0.6795
  601SOL     OW 1801   0.616   0.049   1.496 -0.5868  0.6422  0.3694
  601SOL    HW1 1802   0.677   0.081   1.573 -0.3864 -0.1122  0.3047
  601SOL    HW2 1803   0.663   0.055   1.405  0.0035  0.2977  0.6125
  602SOL     OW 1804   0.003   2.883   0.775  0.8950 -0.0656  0.5859
  602SOL    HW1 1805   3.041   2.935   0.735  1.3922  0.3124 -1.1644
  602SOL    HW2 1806   0.076   2.852   0.708  2.9660 -4.1110 -1.6681
  603SOL     OW 1807   0.623   2.938   2.458  0.3962 -0.3947 -0.1154
  603SOL    HW1 1808   0.708   2.986   2.473 -0.3323 -0.7342  2.0792
  603SOL    HW2 1809   0.607   2.879   2.540 -2.0582  0.2455 -1.7314
  604SOL     OW 1810   1.225   2.753   0.015 -0.5894 -0.2353  0.2283
  604SOL    HW1 1811   1.187   2.678   0.074 -0.0865 -0.3040  1.4627
  604SOL    HW2 1812   1.304   2.726   3.073 -0.7178 -1.2404  2.8248
  605SOL     OW 1813   1.349   0.925   1.599 -0.9348  0.3700  0.3887
  605SOL    HW1 1814   1.442   0.882   1.582  0.3075 -0.1223  0.7190
  605SOL    HW2 1815   1.317   0.926   1.694 -0.2896 -1.6787 -0.3234
  606SOL     OW 1816   1.321   0.331   2.635 -0.0192  0.1790  0.0414
  606SOL    HW1 1817   1.286   0.396   2.702 -0.1238 -2.0312  2.6205
  606SOL    HW2 1818   1.250   0.260   2.606  0.3468  0.9359  0.6893
  607SOL     OW 1819   0.513   1.141   1.298  0.9462 -0.4009 -0.9032
  607SOL    HW1 1820   0.573   1.094   1.234 -0.4722 -1.4667  0.0434
  607SOL    HW2 1821   0.454   1.199   1.242  0.8967 -1.1970  0.5976
  608SOL     OW 1822   2.799   2.133   2.381 -0.0553  0.4512  0.0704
  608SOL    HW1 1823   2.788   2.149   2.282  1.1580 -0.7842 -1.6353
  608SOL    HW2 1824   2.897   2.136   2.408 -0.0819  0.2596  0.4469
  609SOL     OW 1825   2.201   0.113   0.024 -0.1632 -0.7502 -0.5167
  609SOL    HW1 1826   2.163   0.022   3.110 -1.0385 -0.0669  0.6838
  609SOL    HW2 1827   2.180   0.131   0.121  0.1488 -2.3974 -0.3648
  610SOL     OW 1828   0.557   2.583   1.373 -0.2120  0.1087 -0.0405
  610SOL    HW1 1829   0.509   2.636   1.302 -0.9992 -2.7439  0.6389
  610SOL    HW2 1830   0.638   2.629   1.399 -3.3262 -1.7204  1.0908
  611SOL     OW 1831   0.774   1.430   0.626 -0.5848  0.3713 -0.2845
  611SOL    HW1 1832   0.828   1.481   0.555 -0.2669  0.3210  0.8397
  611SOL    HW2 1833   0.689   1.389   0.589 -1.1293 -0.0418  0.8174
  612SOL     OW 1834   0.850   0.141   2.201  0.0174  0.0633  0.0111
  612SOL    HW1 1835   0.761   0.173   2.158 -0.7298  1.4336 -1.3200
  612SOL    HW2 1836   0.930   0.202   2.180 -1.4233  0.4142  0.9695
  613SOL     OW 1837   2.570   1.516   0.510 -0.1459 -0.1442 -0.2752
  613SOL    HW1 1838   2.534   1.591   0.574 -3.4014  3.9725 -0.3007
  613SOL    HW2 1839   2.624   1.446   0.559  0.5244 -0.8662  1.5654
  614SOL     OW 1840   1.843   0.443   1.719  0.4961  0.2637 -0.1694
  614SOL    HW1 1841   1.795   0.511   1.778 -0.4149  1.3972  4.1777
  614SOL    HW2 1842   1.905   0.479   1.650  1.0136 -1.7735  1.3527
  615SOL     OW 1843   0.939   1.876   1.016 -0.1334  0.2088 -0.8286
  615SOL    HW1 1844   1.024   1.834   1.050 -3.2720  0.9509 -0.5353
  615SOL    HW2 1845   0.953   1.964   0.975 -1.1794 -5.5510  0.8616
  616SOL     OW 1846   1.597   1.400   2.779  0.0303 -0.0364  0.3414
  616SOL    HW1 1847   1.650   1.478   2.735 -2.9200 -0.7582  1.5364
  616SOL    HW2 1848   1.545   1.341   2.713 -1.0864  1.0586  2.1304
  617SOL     OW 1849   1.846   2.569   0.572 -0.1420 -0.6323 -0.2090
  617SOL    HW1 1850   1.851   2.640   0.497 -0.8645  0.7599 -0.0543
  617SOL    HW2 1851   1.872   2.476   0.543 -1.0334 -0.9724 -0.6005
  618SOL     OW 1852   0.785   1.149   2.893  0.0750  0.5463 -0.2685
  618SOL    HW1 1853   0.873   1.148   2.838 -5.0937 -0.7014  2.4964
  618SOL    HW2 1854   0.773   1.231   2.953 -0.3879 -0.3260 -1.2659
  619SOL     OW 1855   2.868   1.396   0.657 -0.2894  0.1743 -0.1548
  619SOL    HW1 1856   2.881   1.391   0.557 -2.0221 -0.2938 -0.5589
  619SOL    HW2 1857   2.774   1.355   0.677 -0.0045  1.2505  2.2425
  620SOL     OW 1858   2.213   2.870   0.015  0.5999 -0.3691  0.2308
  620SOL    HW1 1859   2.236   2.773   3.103 -4.0279 -0.3641  1.7512
  620SOL    HW2 1860   2.215   2.882   0.118  0.2508  0.8738  1.2663
  621SOL     OW 1861   2.166   1.323   0.188 -0.3099  0.2286 -0.0125
  621SOL    HW1 1862   2.230   1.337   0.266 -0.1454 -0.5947  0.3151
  621SOL    HW2 1863   2.070   1.325   0.224 -0.1712 -0.8036  0.3793
  622SOL     OW 1864   1.004   2.297   2.509 -0.0318  0.3549 -0.1608
  622SOL    HW1 1865   0.905   2.286   2.474  0.9573 -0.7533 -3.0091
  622SOL    HW2 1866   1.065   2.216   2.493  0.7244  0.6403  3.6938
  623SOL     OW 1867   0.678   1.760   0.062  0.0488  0.4186  0.3075
  623SOL    HW1 1868   0.733   1.700   3.111  1.3747  0.9672 -2.8940
  623SOL    HW2 1869   0.580   1.742   0.056  3.2668  3.1970 -1.6420
  624SOL     OW 1870   0.317   3.014   2.788 -0.4632 -0.1935 -0.1404
  624SOL    HW1 1871   0.355   3.090   2.728 -0.5241  0.8320 -1.2715
  624SOL    HW2 1872   0.239   3.050   2.838 -0.9097 -2.5869  2.2169
  625SOL     OW 1873   0.788   1.924   0.259 -0.1365  0.0209 -0.2402
  625SOL    HW1 1874   0.790   2.023   0.255 -0.4658 -4.0706 -0.3913
  625SOL    HW2 1875   0.733   1.881   0.185 -0.0307  0.3921 -0.5972
  626SOL     OW 1876   2.465   0.232   3.108  0.0158 -0.3201  0.5209
  626SOL    HW1 1877   2.370   0.217   3.073 -1.3136 -1.1990  0.3049
  626SOL    HW2 1878   2.460   0.299   0.070 -1.9938 -1.6399 -0.8446
  627SOL     OW 1879   1.462   1.224   2.615  0.0014  0.5209  0.4644
  627SOL    HW1 1880   1.382   1.197   2.550 -0.6962 -2.2460  0.5533
  627SOL    HW2 1881   1.533   1.156   2.599 -1.7397 -1.8149 -1.8490
  628SOL     OW 1882   0.764   0.891   2.217  0.6165  0.6917 -0.1603
  628SOL    HW1 1883   0.740   0.982   2.176  2.2377 -0.5007 -0.5759
  628SOL    HW2 1884   0.782   0.819   2.143 -1.4667 -2.0419 -1.1353
  629SOL     OW 1885   0.467   0.004   2.024  0.4972 -0.2491 -0.7382
  629SOL    HW1 1886   0.478   3.051   2.099 -0.4255  0.0901 -0.3567
  629SOL    HW2 1887   0.558   0.026   1.987 -7.2661  0.2924 -0.4841
  630SOL     OW 1888   2.553   0.736   1.780  0.6178  0.1852 -0.0595
  630SOL    HW1 1889   2.514   0.831   1.788  0.0542  0.4687  0.6119
  630SOL    HW2 1890   2.626   0.728   1.707  2.1920 -0.3578 -2.1460
  631SOL     OW 1891   2.356   1.341   0.401 -0.3070 -0.0488  0.2476
  631SOL    HW1 1892   2.295   1.296   0.473  1.3096  0.8795 -0.6579
  631SOL    HW2 1893   2.420   1.402   0.452 -1.2776  1.2914 -0.7576
  632SOL     OW 1894   2.128   0.411   1.940  0.1346 -0.2648 -0.5139
  632SOL    HW1 1895   2.199   0.347   1.908 -1.9431 -0.1232  0.5085
  632SOL    HW2 1896   2.045   0.409   1.882  3.1515 -1.7260  0.4519
  633SOL     OW 1897   0.733   3.004   0.258 -0.4743  0.3168 -0.0659
  633SOL    HW1 1898   0.635   3.011   0.229 -0.7108  2.2917 -0.2156
  633SOL    HW2 1899   0.758   2.974   0.354  0.8445 -0.2647  1.3192
  634SOL     OW 1900   1.376   3.074   2.991 -0.0662 -0.3251  0.2224
  634SOL    HW1 1901   1.451   0.018   2.953  0.0982 -0.2436 -1.4469
  634SOL    HW2 1902   1.402   3.008   3.064 -1.4163  2.2847  0.8466
  635SOL     OW 1903   2.643   0.510   3.080  0.5647  0.3077 -0.7751
  635SOL    HW1 1904   2.697   0.579   0.024  0.0408  0.1803 -0.9086
  635SOL    HW2 1905   2.610   0.436   0.037  1.3059  0.3846  0.3220
  636SOL     OW 1906   0.750   1.694   1.083  0.2685  0.1034 -0.1665
  636SOL    HW1 1907   0.813   1.770   1.069 -1.9820 -4.4322  0.1304
  636SOL    HW2 1908   0.769   1.614   1.024  0.4583  2.5904  1.8025
  637SOL     OW 1909   0.176   2.813   0.561 -0.0846  0.8916  0.4943
  637SOL    HW1 1910   0.280   2.811   0.555 -0.5735  0.3959 -0.7699
  637SOL    HW2 1911   0.139   2.717   0.547  0.1091 -1.3041  2.9737
  638SOL     OW 1912   0.087   3.014   0.373  0.3623 -0.2571  0.0520
  638SOL    HW1 1913   0.044   2.972   0.288 -1.2631 -1.1349 -2.4650
  638SOL    HW2 1914   0.102   2.943   0.451 -0.4416 -0.1125 -0.4583
  639SOL     OW 1915   1.162   1.543   0.080 -0.2780  0.0990  0.1948
  639SOL    HW1 1916   1.197   1.453   0.038  2.2810 -3.6727 -0.9017
  639SOL    HW2 1917   1.221   1.575   0.159  2.7197 -0.4636  2.1387
  640SOL     OW 1918   1.107   2.571   0.839 -0.4695 -0.1792 -0.2278
  640SOL    HW1 1919   1.172   2.498   0.824 -0.9138  1.8059 -2.5671
  640SOL    HW2 1920   1.023   2.547   0.790  1.2175 -0.0233 -1.0428
  641SOL     OW 1921   2.835   2.702   0.949  0.0399  0.1699  0.8612
  641SOL    HW1 1922   2.844   2.602   0.973 -0.9147  0.6903 -0.6638
  641SOL    HW2 1923   2.908   2.748   0.999 -0.2766  2.6623 -0.6180
  642SOL     OW 1924   1.004   3.030   1.667 -0.2207  0.4019  0.0915
  642SOL    HW1 1925   1.076   2.992   1.608  1.4005 -0.8825 -0.3290
  642SOL    HW2 1926   1.048   3.053   1.753 -0.7277 -1.2507 -2.0080
  643SOL     OW 1927   0.922   2.152   2.092 -0.0347 -0.1533  0.4506
  643SOL    HW1 1928   0.855   2.155   2.014  0.9360 -3.0560  5.2991
  643SOL    HW2 1929   0.947   2.059   2.113 -2.6350  2.8478 -0.2030
  644SOL     OW 1930   0.818   2.927   0.504 -0.2274  0.1486  0.1399
  644SOL    HW1 1931   0.889   2.997   0.543  1.1569  2.5560  4.2854
  644SOL    HW2 1932   0.772   2.881   0.581 -0.8023  0.6992 -1.4672
  645SOL     OW 1933   1.445   1.570   2.424 -0.0792  0.1900 -0.4066
  645SOL    HW1 1934   1.355   1.561   2.471  0.5004 -1.9166 -0.3445
  645SOL    HW2 1935   1.523   1.581   2.489  0.0956  0.3367 -2.6859
  646SOL     OW 1936   0.550   1.143   0.312 -0.1894 -0.2443  0.4721
  646SOL    HW1 1937   0.542   1.047   0.293 -0.4904  3.4554  2.2641
  646SOL    HW2 1938   0.639   1.186   0.278  4.5564  1.5651 -1.5116
  647SOL     OW 1939   1.467   0.049   0.681  0.2029 -0.4244 -0.0461
  647SOL    HW1 1940   1.385   0.108   0.669 -0.0697  0.6087  0.7504
  647SOL    HW2 1941   1.522   0.081   0.764  0.9547 -0.1803 -0.4063
  648SOL     OW 1942   2.628   2.752   1.543  0.3613 -0.5298  0.0101
  648SOL    HW1 1943   2.553   2.757   1.616  0.4192 -0.9562  3.8688
  648SOL    HW2 1944   2.620   2.827   1.472 -2.6102 -1.4508 -1.5348
  649SOL     OW 1945   0.771   2.195   0.273 -0.1833  0.1427 -0.1747
  649SOL    HW1 1946   0.685   2.203   0.223  0.3629 -2.8580 -0.2076
  649SOL    HW2 1947   0.799   2.280   0.319 -1.3744 -2.1359 -0.6771
  650SOL     OW 1948   3.031   1.965   1.484  0.8245  0.4540  0.6311
  650SOL    HW1 1949   3.093   2.041   1.516 -0.4247 -0.6174  1.6581
  650SOL    HW2 1950   3.060   1.946   1.389 -0.9863  1.7842  2.1577
  651SOL     OW 1951   0.076   3.110   2.906 -0.3856  0.4189 -0.1011
  651SOL    HW1 1952   0.011   3.067   2.974 -0.3363 -2.3497 -0.9877
  651SOL    HW2 1953   0.075   0.097   2.919  0.3693 -3.7724  1.9098
  652SOL     OW 1954   2.497   1.862   0.112 -0.1694 -0.5900  0.5375
  652SOL    HW1 1955   2.420   1.918   0.064 -1.0992  0.0170 -1.9116
  652SOL    HW2 1956   2.482   1.868   0.214 -1.6064  2.0585  0.7889
  653SOL     OW 1957   0.360   0.361   1.012  0.6055 -0.1162 -0.2125
  653SOL    HW1 1958   0.444   0.360   0.955 -2.5791 -1.0431  1.0002
  653SOL    HW2 1959   0.382   0.319   1.106 -0.7561  1.2821  1.8256
  654SOL     OW 1960   1.113   2.960   0.170 -0.0767  0.2897  0.4724
  654SOL    HW1 1961   1.188   2.990   0.237  0.1566 -1.3573 -1.1074
  654SOL    HW2 1962   1.142   2.875   0.123  0.7354 -0.9848 -0.9433
  655SOL     OW 1963   0.756   2.531   0.966  0.2247 -0.1365  0.1081
  655SOL    HW1 1964   0.776   2.574   1.059  0.4167  1.8315  0.8355
  655SOL    HW2 1965   0.769   2.428   0.970 -0.4748 -1.1718  0.4520
  656SOL     OW 1966   0.521   2.909   2.209  0.6029  0.2692  0.4034
  656SOL    HW1 1967   0.576   2.855   2.136 -1.4937 -0.2221 -2.6054
  656SOL    HW2 1968   0.573   2.911   2.297  1.6716 -0.0166 -1.3894
  657SOL     OW 1969   1.667   0.812   2.506 -0.4595  0.3028 -0.0592
  657SOL    HW1 1970   1.681   0.782   2.406 -1.3342 -1.5008 -2.2092
  657SOL    HW2 1971   1.712   0.746   2.573  0.9776  0.1340  2.2959
  658SOL     OW 1972   2.479   1.801   1.091 -0.0369 -0.4760 -0.1255
  658SOL    HW1 1973   2.486   1.827   1.189  0.9991 -1.3163  1.0130
  658SOL    HW2 1974   2.501   1.701   1.072  0.4254 -1.5187 -1.7259
  659SOL     OW 1975   2.615   2.837   0.021  0.0708  0.5103  0.1469
  659SOL    HW1 1976   2.596   2.933   0.037  0.1937  2.6726  0.4208
  659SOL    HW2 1977   2.582   2.779   0.101  2.1120  1.2961  1.4566
  660SOL     OW 1978   1.132   0.866   2.778  0.0613 -0.3651  0.7132
  660SOL    HW1 1979   1.201   0.937   2.768 -0.6371 -2.3353  3.1817
  660SOL    HW2 1980   1.105   0.860   2.875 -1.4562  0.0757 -3.1067
  661SOL     OW 1981   2.470   2.500   1.013  0.2106  0.1639  0.0433
  661SOL    HW1 1982   2.390   2.491   1.071  0.0319  1.1737  1.2988
  661SOL    HW2 1983   2.541   2.439   1.053 -0.6893 -0.4380 -0.8383
  662SOL     OW 1984   0.582   0.628   0.129 -0.1979  0.2786 -0.0456
  662SOL    HW1 1985   0.508   0.562   0.148  0.9151 -1.1118 -1.2780
  662SOL    HW2 1986   0.550   0.702   0.069  0.5644 -2.9072  0.5651
  663SOL     OW 1987   1.251   2.431   2.609 -0.7765  0.0945  0.0962
  663SOL    HW1 1988   1.339   2.395   2.569  1.9596  0.5505 -0.1099
  663SOL    HW2 1989   1.168   2.395   2.559 -2.1438 -2.1721 -0.5618
  664SOL     OW 1990   0.862   2.426   1.258  0.5360  0.2201  0.1707
  664SOL    HW1 1991   0.859   2.502   1.330  3.1918 -0.7900  1.7346
  664SOL    HW2 1992   0.954   2.422   1.219 -2.3443  0.0979 -0.4631
  665SOL     OW 1993   1.548   1.627   1.612  0.0401 -0.0375 -0.8046
  665SOL    HW1 1994   1.556   1.728   1.593  0.3676  1.7724 -0.6206
  665SOL    HW2 1995   1.450   1.606   1.623  1.3043 -0.7462 -0.6357
  666SOL     OW 1996   0.538   2.579   0.138  0.0816  0.7299  0.2949
  666SOL    HW1 1997   0.620   2.581   0.077  1.6785  0.4674  1.1740
  666SOL    HW2 1998   0.480   2.654   0.103  0.2749 -2.1879 -0.9251
  667SOL     OW 1999   2.014   1.371   1.390  0.2464  0.3602 -0.1945
  667SOL    HW1 2000   2.060   1.305   1.451  1.1390  2.1994 -4.0421
  667SOL    HW2 2001   1.963   1.441   1.443 -2.7380 -0.6249 -0.4717
  668SOL     OW 2002   0.215   0.133   2.073  0.5480  0.3176 -0.6913
  668SOL    HW1 2003   0.307   0.104   2.044  0.4152  1.5806  1.3715
  668SOL    HW2 2004   0.140   0.084   2.026  0.3769  1.4189 -2.1898
  669SOL     OW 2005   1.904   2.283   2.226 -0.5444  0.3467 -0.4185
  669SOL    HW1 2006   1.932   2.360   2.287 -1.4010 -2.5632 -0.7222
  669SOL    HW2 2007   1.929   2.303   2.127  2.5894 -1.9394  0.1195
  670SOL     OW 2008   2.436   1.999   0.602  0.4149 -0.3409 -0.0754
  670SOL    HW1 2009   2.430   2.019   0.703 -0.1665  0.1764  3.0839
  670SOL    HW2 2010   2.527   1.966   0.576  1.2602 -0.9984  2.4027
  671SOL     OW 2011   0.919   1.125   1.521  0.0322  0.3008 -0.2143
  671SOL    HW1 2012   0.953   1.111   1.423 -0.2786 -1.2310 -1.8595
  671SOL    HW2 2013   0.946   1.048   1.581  0.1156  0.9379 -0.6799
  672SOL     OW 2014   2.612   1.320   2.309 -0.4042 -0.4711  0.0058
  672SOL    HW1 2015   2.602   1.381   2.395 -1.1972 -0.3118 -1.0265
  672SOL    HW2 2016   2.675   1.365   2.244 -1.2789 -2.5756  0.8449
  673SOL     OW 2017   2.931   1.619   2.347 -0.2261 -0.3611 -0.1036
  673SOL    HW1 2018   2.868   1.650   2.419  1.1273 -0.9468  4.1518
  673SOL    HW2 2019   3.013   1.567   2.388  0.4648 -0.3338  0.9073
  674SOL     OW 2020   0.977   2.874   2.209  0.1274  0.0311 -0.1379
  674SOL    HW1 2021   1.057   2.928   2.204  0.2050 -3.3625  1.2305
  674SOL    HW2 2022   0.965   2.842   2.303  1.9536  0.8290 -0.6005
  675SOL     OW 2023   0.727   0.779   1.464 -0.0929  0.1399  0.3877
  675SOL    HW1 2024   0.802   0.707   1.458  3.6384 -1.1272  3.9810
  675SOL    HW2 2025   0.729   0.815   1.559 -1.5639  0.2394 -0.1928
  676SOL     OW 2026   1.814   0.686   0.394 -0.4020 -0.1345  0.1095
  676SOL    HW1 2027   1.821   0.645   0.486 -0.1659 -2.0541 -2.3169
  676SOL    HW2 2028   1.895   0.745   0.372 -1.5690 -3.6339 -1.0293
  677SOL     OW 2029   2.819   1.794   2.850  0.5578  0.2328 -0.2657
  677SOL    HW1 2030   2.786   1.707   2.889  1.4546 -1.1120  1.0973
  677SOL    HW2 2031   2.899   1.830   2.899 -1.2460  1.9255  1.5536
  678SOL     OW 2032   3.081   3.102   1.294 -0.1197  0.0794 -0.7239
  678SOL    HW1 2033   0.018   0.078   1.279  1.4814 -2.2595 -1.8448
  678SOL    HW2 2034   0.016   3.040   1.358 -1.8977 -0.6928 -0.7805
  679SOL     OW 2035   2.249   0.130   0.421  0.2025 -0.7647  0.5138
  679SOL    HW1 2036   2.348   0.127   0.438 -0.3886 -0.1430  0.5353
  679SOL    HW2 2037   2.239   0.204   0.350 -1.5063 -0.7064 -0.8393
  680SOL     OW 2038   0.351   2.310   2.229  0.2072  0.0602 -0.0002
  680SOL    HW1 2039   0.354   2.208   2.245 -1.3692 -2.2959 -0.8676
  680SOL    HW2 2040   0.441   2.329   2.183  2.4217 -1.9822  0.7340
  681SOL     OW 2041   0.292   1.643   1.366  0.2841 -0.0473  0.8961
  681SOL    HW1 2042   0.373   1.592   1.326  1.9795  0.3537 -3.0944
  681SOL    HW2 2043   0.313   1.743   1.377  0.6390  1.0215 -3.3699
  682SOL     OW 2044   0.645   2.338   1.734  0.1735 -0.2320  0.0255
  682SOL    HW1 2045   0.679   2.248   1.766 -1.0896  2.2072 -2.3392
  682SOL    HW2 2046   0.570   2.372   1.797 -0.8376 -2.5147  0.9451
  683SOL     OW 2047   2.983   1.789   1.729  0.3663 -0.4250 -0.6508
  683SOL    HW1 2048   2.994   1.821   1.637  0.3743 -1.9888  0.6781
  683SOL    HW2 2049   3.036   1.704   1.743  0.2394  1.0608  0.8448
  684SOL     OW 2050   2.457   1.580   3.066  0.1929 -0.0888 -0.1457
  684SOL    HW1 2051   2.407   1.575   0.044  2.2384  2.6533  0.7962
  684SOL    HW2 2052   2.549   1.621   3.080  1.4299  0.8405 -0.2862
  685SOL     OW 2053   1.546   1.096   0.338  0.1300 -0.3086 -0.3260
  685SOL    HW1 2054   1.587   1.011   0.298  0.2391 -0.2260  1.9124
  685SOL    HW2 2055   1.540   1.169   0.271  0.5753  0.2349  1.2162
  686SOL     OW 2056   0.165   0.039   0.727 -0.0479 -0.3282 -0.3822
  686SOL    HW1 2057   0.171   3.084   0.802  1.4031 -0.1445  2.1812
  686SOL    HW2 2058   0.189   0.133   0.761  1.1674  0.8448 -0.1585
  687SOL     OW 2059   0.982   1.103   2.508  0.0162 -0.0323 -0.0346
  687SOL    HW1 2060   0.992   1.150   2.596 -0.7396 -0.5779 -3.2141
  687SOL    HW2 2061   0.891   1.058   2.508  3.5149  3.4213  0.5275
  688SOL     OW 2062   1.287   1.587   1.616 -0.2146  0.7095 -0.4897
  688SOL    HW1 2063   1.283   1.507   1.552 -1.9952 -0.8779 -2.3226
  688SOL    HW2 2064   1.241   1.667   1.576 -1.6007 -0.9734  1.4309
  689SOL     OW 2065   2.483   0.197   1.238 -0.4567  0.1227 -0.4699
  689SOL    HW1 2066   2.456   0.159   1.144 -1.9316 -1.3040 -3.2696
  689SOL    HW2 2067   2.412   0.164   1.304  1.0946 -2.4544  1.2464
  690SOL     OW 2068   3.103   1.562   1.055  0.0025  0.5216 -0.4440
  690SOL    HW1 2069   0.009   1.574   1.154 -0.1147  1.4068 -3.6919
  690SOL    HW2 2070   0.068   1.510   1.015 -0.7596  0.8038 -2.2154
  691SOL     OW 2071   0.475   2.376   1.040  0.1071 -0.0305 -0.7370
  691SOL    HW1 2072   0.571   2.342   1.050 -3.1609 -0.8143 -1.9571
  691SOL    HW2 2073   0.422   2.371   1.129  1.2464 -0.1066  1.1824
  692SOL     OW 2074   2.311   0.114   1.649  0.0937 -0.3212 -0.2703
  692SOL    HW1 2075   2.331   0.143   1.556  1.8053  0.2596  1.4615
  692SOL    HW2 2076   2.232   0.050   1.648 -1.8584  0.8760 -0.0951
  693SOL     OW 2077   0.141   1.843   2.405  0.4042  0.2747 -0.5771
  693SOL    HW1 2078   0.077   1.805   2.471  2.9407 -1.2153 -0.8316
  693SOL    HW2 2079   0.105   1.928   2.366  0.3391  1.1821 -0.5594
  694SOL     OW 2080   1.802   1.115   1.633  0.2759 -0.3549 -0.1389
  694SOL    HW1 2081   1.751   1.200   1.659  0.8325 -0.4290  0.6911
  694SOL    HW2 2082   1.755   1.051   1.567  2.2847 -0.1272  0.7356
  695SOL     OW 2083   0.816   0.851   1.191 -0.1219 -0.0651  0.2627
  695SOL    HW1 2084   0.807   0.860   1.291  1.8546 -2.7910  1.7610
  695SOL    HW2 2085   0.885   0.780   1.169 -0.1841  0.1999  3.0951
  696SOL     OW 2086   1.656   0.072   0.870 -0.1519  0.0924  0.1115
  696SOL    HW1 2087   1.702   0.134   0.935 -0.0228 -0.3861 -1.4008
  696SOL    HW2 2088   1.726   0.033   0.806 -1.7249 -2.2367 -2.1897
  697SOL     OW 2089   1.100   0.440   1.254  0.6496  0.0541 -0.2226
  697SOL    HW1 2090   1.085   0.365   1.320 -0.7045 -0.9260  0.3096
  697SOL    HW2 2091   1.133   0.402   1.164  0.9460  0.4577 -1.5562
  698SOL     OW 2092   1.393   0.976   2.136  0.2443 -0.3065 -0.0287
  698SOL    HW1 2093   1.327   0.906   2.169  0.2009  1.5952 -2.0331
  698SOL    HW2 2094   1.472   0.986   2.199 -1.2205  0.1863 -0.8637
  699SOL     OW 2095   1.781   0.533   1.270 -0.1666  0.2096  0.2405
  699SOL    HW1 2096   1.874   0.572   1.277 -2.1979  0.0612 -1.7883
  699SOL    HW2 2097   1.727   0.575   1.188 -2.8382 -0.7750  1.5284
  700SOL     OW 2098   1.122   2.566   0.169  0.2184  0.8229 -0.3448
  700SOL    HW1 2099   1.067   2.621   0.233  1.1373 -0.1264  0.6695
  700SOL    HW2 2100   1.118   2.464   0.182  2.6768 -0.3328  0.9794
  701SOL     OW 2101   2.151   2.357   2.925 -0.0788  0.2645 -0.1528
  701SOL    HW1 2102   2.068   2.387   2.879 -1.5610  1.5911 -2.1359
  701SOL    HW2 2103   2.210   2.309   2.860 -1.6367  1.1644  1.0323
  702SOL     OW 2104   0.600   0.300   0.872 -0.1753  0.6340  0.3986
  702SOL    HW1 2105   0.697   0.317   0.890  0.4149  0.2959  2.5441
  702SOL    HW2 2106   0.580   0.254   0.779 -1.6516  1.0404 -1.3900
  703SOL     OW 2107   2.292   0.094   2.522 -0.0652  0.1694 -0.6129
  703SOL    HW1 2108   2.263   0.012   2.461 -1.6049 -0.5983 -1.7891
  703SOL    HW2 2109   2.343   0.163   2.465 -0.3271  2.6486  0.1218
  704SOL     OW 2110   3.041   2.346   0.409 -0.1051  0.0089  1.1599
  704SOL    HW1 2111   3.111   2.364   0.330 -0.4387 -1.7519 -3.3978
  704SOL    HW2 2112   3.068   2.256   0.447 -0.8237 -4.0144  0.4553
  705SOL     OW 2113   2.821   2.796   2.186 -0.0983 -0.8430  0.1002
  705SOL    HW1 2114   2.907   2.765   2.237  1.8499  0.2731 -0.2537
  705SOL    HW2 2115   2.784   2.885   2.227 -1.6131  0.7913  0.3738
  706SOL     OW 2116   2.069   2.860   1.296 -0.6451  0.3354  0.5719
  706SOL    HW1 2117   1.980   2.824   1.328  1.1729  0.6442  1.0471
  706SOL    HW2 2118   2.147   2.818   1.350  2.2263 -0.8911 -0.3002
  707SOL     OW 2119   0.830   2.603   2.136  0.1629  0.3305  0.2939
  707SOL    HW1 2120   0.871   2.540   2.072 -1.9068  0.4510  2.6204
  707SOL    HW2 2121   0.882   2.688   2.153  1.0087 -2.4477 -1.5918
  708SOL     OW 2122   0.109   2.331   2.109 -0.2416  0.7181  0.1175
  708SOL    HW1 2123   0.092   2.379   2.020 -3.3203  3.2076 -0.2232
  708SOL    HW2 2124   0.208   2.337   2.139  0.4448  2.0518 -2.1184
  709SOL     OW 2125   1.924   0.152   1.732 -0.0129 -0.3849  0.2537
  709SOL    HW1 2126   1.857   0.226   1.705 -3.8252  1.2753 -1.7138
  709SOL    HW2 2127   1.903   0.107   1.821 -1.2580 -1.6200  0.5774
  710SOL     OW 2128   1.476   0.708   2.790 -0.0362 -0.4057 -0.3705
  710SOL    HW1 2129   1.536   0.645   2.734  0.0669 -3.6135 -1.7769
  710SOL    HW2 2130   1.444   0.776   2.721  1.0036  1.7469  1.7840
  711SOL     OW 2131   0.918   1.911   2.614  0.7385 -0.2730 -0.4751
  711SOL    HW1 2132   0.949   1.998   2.660 -3.3169  2.8712 -2.8775
  711SOL    HW2 2133   0.985   1.838   2.624 -1.1742  0.9692  2.6561
  712SOL     OW 2134   0.752   2.304   2.440  0.4354 -0.1289 -0.2744
  712SOL    HW1 2135   0.706   2.322   2.534 -2.5617  1.7652  4.8856
  712SOL    HW2 2136   0.695   2.242   2.384 -0.1807 -2.7776  1.3295
  713SOL     OW 2137   1.951   1.274   2.606 -0.6042  0.0822 -0.4434
  713SOL    HW1 2138   1.986   1.278   2.703  0.4556  4.8776 -1.1362
  713SOL    HW2 2139   1.936   1.365   2.567  1.5748 -0.3995 -2.6699
  714SOL     OW 2140   1.109   1.564   2.043  0.7193 -0.2376  0.4919
  714SOL    HW1 2141   1.038   1.630   2.004 -0.5215  0.6541  0.9396
  714SOL    HW2 2142   1.189   1.554   1.979 -1.3426  0.4665 -0.3147
  715SOL     OW 2143   1.806   0.377   2.788  0.7255 -0.1994 -0.1458
  715SOL    HW1 2144   1.860   0.294   2.775  0.3947 -0.5130 -0.7828
  715SOL    HW2 2145   1.707   0.361   2.774 -1.2311 -0.8055  2.2279
  716SOL     OW 2146   0.059   2.147   1.624  0.3743 -0.2840  0.1860
  716SOL    HW1 2147   3.094   2.200   1.674 -1.9989 -0.0201  2.2329
  716SOL    HW2 2148   0.144   2.205   1.620  2.5390 -1.1563 -1.2465
  717SOL     OW 2149   2.631   1.309   0.726  0.2140 -0.1868 -0.0566
  717SOL    HW1 2150   2.567   1.374   0.766 -2.2791 -1.1910 -2.7280
  717SOL    HW2 2151   2.572   1.230   0.690 -4.5747  0.1709 -1.5524
  718SOL     OW 2152   1.247   1.905   2.090 -0.0188 -0.0078  0.1349
  718SOL    HW1 2153   1.240   2.001   2.071  3.0329 -3.4270  0.3190
  718SOL    HW2 2154   1.159   1.866   2.118 -0.5128 -0.1985  0.6957
  719SOL     OW 2155   2.103   0.749   2.879 -0.3981  0.5179 -0.5128
  719SOL    HW1 2156   2.008   0.716   2.858  1.1537 -0.9135 -0.1618
  719SOL    HW2 2157   2.163   0.703   2.949 -0.6514  0.2862 -3.1107
  720SOL     OW 2158   0.843   0.399   0.976  0.2195  0.3662 -0.3579
  720SOL    HW1 2159   0.810   0.413   1.073 -3.6003 -0.2194  1.7237
  720SOL    HW2 2160   0.944   0.419   0.975  2.9481  0.2699  1.8081
  721SOL     OW 2161   2.817   0.869   0.551  0.6762  0.0947 -0.0354
  721SOL    HW1 2162   2.884   0.925   0.497  0.0148  0.7304 -0.4814
  721SOL    HW2 2163   2.719   0.896   0.524 -1.4319  0.7879  1.1970
  722SOL     OW 2164   0.019   0.266   2.605  0.8723  0.1513 -0.7000
  722SOL    HW1 2165   3.033   0.259   2.628  0.6214 -3.5470 -1.8091
  722SOL    HW2 2166   0.041   0.365   2.585  0.2287 -0.9412 -2.5693
  723SOL     OW 2167   1.668   0.202   0.380 -0.0242  0.0752 -0.2363
  723SOL    HW1 2168   1.674   0.286   0.438 -2.5945  2.0244 -0.5646
  723SOL    HW2 2169   1.656   0.113   0.431  0.6744  1.2364  1.2437
  724SOL     OW 2170   0.740   1.865   2.120 -0.3545 -0.3020 -0.1308
  724SOL    HW1 2171   0.652   1.884   2.071 -0.2802 -0.5121 -0.7949
  724SOL    HW2 2172   0.720   1.870   2.219 -0.0020  1.9476 -1.8128
  725SOL     OW 2173   1.505   2.950   1.016 -0.1881  0.0463 -0.2951
  725SOL    HW1 2174   1.470   2.977   1.104  1.2544 -0.6747 -0.6938
  725SOL    HW2 2175   1.571   3.018   0.980 -1.3084  0.2984  1.8430
  726SOL     OW 2176   1.962   2.594   3.060  0.5063  0.3807 -0.0222
  726SOL    HW1 2177   1.893   2.517   3.063  0.9018  0.0956  0.4861
  726SOL    HW2 2178   2.042   2.576   0.007 -1.0778  3.3718 -1.1763
  727SOL     OW 2179   1.412   1.703   0.968 -0.2603 -0.1140 -0.5898
  727SOL    HW1 2180   1.428   1.793   0.921  1.5544  2.1572 -0.9814
  727SOL    HW2 2181   1.413   1.619   0.908  0.5104 -0.9656 -0.0428
  728SOL     OW 2182   2.140   2.551   1.916 -0.0744  0.0426  0.2059
  728SOL    HW1 2183   2.140   2.582   1.813  1.4039 -0.4649 -0.3960
  728SOL    HW2 2184   2.228   2.502   1.932 -0.6930 -1.8173 -1.8589
  729SOL     OW 2185   2.092   1.835   1.361  0.3676  0.2056 -0.4281
  729SOL    HW1 2186   2.103   1.735   1.343  0.7526 -0.7605  2.2973
  729SOL    HW2 2187   2.073   1.880   1.269 -0.8285  0.6176  0.9433
  730SOL     OW 2188   1.485   0.591   3.053  0.1827  0.3045  0.4173
  730SOL    HW1 2189   1.506   0.643   2.965 -0.7434  0.7680  1.3320
  730SOL    HW2 2190   1.570   0.576   3.103 -2.8473  0.0578 -2.8983
  731SOL     OW 2191   0.463   0.022   0.958 -0.1628  0.5456  0.0617
  731SOL    HW1 2192   0.366   0.015   0.977 -0.3148  1.5389 -2.8077
  731SOL    HW2 2193   0.495   0.118   0.945 -1.0600  0.3806  1.1057
  732SOL     OW 2194   1.291   0.258   0.636 -0.3981 -0.1559 -0.0126
  732SOL    HW1 2195   1.321   0.305   0.550 -0.6519 -1.1737  0.0687
  732SOL    HW2 2196   1.191   0.274   0.652 -1.7107  0.1435  0.0691
  733SOL     OW 2197   0.920   1.560   1.274 -0.6603  0.6560 -1.1047
  733SOL    HW1 2198   0.921   1.581   1.376  2.2093 -0.0256 -0.6125
  733SOL    HW2 2199   0.865   1.628   1.226  1.7965 -2.9115  0.9741
  734SOL     OW 2200   2.806   2.675   3.006  0.1519 -0.3673  0.3685
  734SOL    HW1 2201   2.754   2.753   3.045  1.3938 -1.1583 -3.2545
  734SOL    HW2 2202   2.751   2.632   2.934  0.6405  1.1360 -1.2996
  735SOL     OW 2203   1.114   2.804   1.219  0.2243  0.5424 -0.3529
  735SOL    HW1 2204   1.024   2.850   1.234  2.6891 -2.1618 -0.3236
  735SOL    HW2 2205   1.151   2.833   1.127 -1.3061 -1.9759  0.0216
  736SOL     OW 2206   1.846   2.028   0.468 -0.5074 -0.1066 -0.1040
  736SOL    HW1 2207   1.817   2.073   0.383 -1.2062 -0.1259  1.8284
  736SOL    HW2 2208   1.939   1.983   0.455 -0.6229 -1.6692  1.5064
  737SOL     OW 2209   0.026   1.657   1.312  0.3412 -0.6694 -0.1239
  737SOL    HW1 2210   0.126   1.656   1.324 -1.4730  1.3099 -0.6236
  737SOL    HW2 2211   3.109   1.754   1.292 -0.5432  0.6381 -3.0488
  738SOL     OW 2212   1.938   2.177   2.734  0.4064  0.4749  0.4017
  738SOL    HW1 2213   1.942   2.272   2.701  1.2708 -1.0343  2.4354
  738SOL    HW2 2214   1.933   2.113   2.656 -0.0802 -1.2579 -0.2801
  739SOL     OW 2215   1.124   1.736   2.703 -0.5466  0.3259 -0.3980
  739SOL    HW1 2216   1.216   1.776   2.690  0.4407 -0.9078 -0.5607
  739SOL    HW2 2217   1.102   1.716   2.799 -0.1159  0.4557 -0.0827
  740SOL     OW 2218   1.223   2.920   0.977  0.5271 -0.2205  0.0121
  740SOL    HW1 2219   1.322   2.932   0.984  0.9022 -2.2648  1.9512
  740SOL    HW2 2220   1.200   2.881   0.889 -0.3873  0.9509 -1.6597
  741SOL     OW 2221   0.194   1.017   0.563 -0.6665  0.4621  0.7040
  741SOL    HW1 2222   0.209   1.092   0.631 -1.8530 -1.0719  0.1322
  741SOL    HW2 2223   0.271   0.946   0.572  1.5643 -0.7601 -1.5888
  742SOL     OW 2224   1.154   1.531   2.510  0.2895  0.0975  0.0533
  742SOL    HW1 2225   1.156   1.591   2.588  0.4055 -1.3509  0.3000
  742SOL    HW2 2226   1.070   1.477   2.516  0.2375  0.0522  3.2544
  743SOL     OW 2227   1.061   0.957   2.061 -0.1137  0.1307 -0.4446
  743SOL    HW1 2228   0.996   1.022   2.107  0.4321 -1.8882 -0.7689
  743SOL    HW2 2229   1.087   1.005   1.975 -1.1140  0.9496  1.6563
  744SOL     OW 2230   2.094   3.064   1.694  0.4465 -0.0593  0.2509
  744SOL    HW1 2231   2.035   0.032   1.702  0.9563 -0.9125 -2.8814
  744SOL    HW2 2232   2.038   2.976   1.682 -2.2740 -1.1815 -2.3227
  745SOL     OW 2233   2.076   1.215   1.627 -0.2976  0.2118  0.1120
  745SOL    HW1 2234   2.092   1.273   1.706  0.4202 -1.6377 -1.0292
  745SOL    HW2 2235   1.987   1.169   1.646  1.7802  0.8055 -1.1417
  746SOL     OW 2236   1.847   1.125   0.648  0.0697 -0.4444  0.1703
  746SOL    HW1 2237   1.917   1.118   0.574 -0.8547  0.9075  2.0025
  746SOL    HW2 2238   1.752   1.100   0.619 -1.8965 -0.0773  0.0346
  747SOL     OW 2239   2.477   1.691   0.677 -0.3333 -0.3554 -0.2788
  747SOL    HW1 2240   2.530   1.776   0.684 -2.9662  1.3729 -0.0314
  747SOL    HW2 2241   2.377   1.707   0.678  2.4164 -2.2057  2.1075
  748SOL     OW 2242   0.314   1.916   0.356 -0.2110 -0.2160  0.7527
  748SOL    HW1 2243   0.308   1.956   0.262  1.7229  1.0238 -0.3617
  748SOL    HW2 2244   0.368   1.829   0.361 -1.5059  0.8115  0.2804
  749SOL     OW 2245   2.985   2.458   2.774  0.5298 -0.4191 -0.8184
  749SOL    HW1 2246   2.952   2.436   2.676 -1.3651 -0.9936 -0.9843
  749SOL    HW2 2247   2.992   2.558   2.790  2.3148  0.8345  0.4597
  750SOL     OW 2248   1.973   0.782   0.653  0.2294  0.5703 -0.0902
  750SOL    HW1 2249   1.997   0.831   0.570 -1.7880  0.3909  2.6033
  750SOL    HW2 2250   2.001   0.832   0.732  5.4840 -1.1743 -2.3242
  751SOL     OW 2251   2.624   0.015   0.045 -0.3121 -0.0472 -0.1406
  751SOL    HW1 2252   2.555   0.093   0.041 -1.4332  1.8590  0.8416
  751SOL    HW2 2253   2.687   0.023   3.077  0.0269  1.0375 -1.5649
  752SOL     OW 2254   2.663   2.890   0.894  0.1658 -0.6191 -0.0391
  752SOL    HW1 2255   2.728   2.964   0.882 -0.9125  0.1847 -1.3123
  752SOL    HW2 2256   2.708   2.806   0.929  0.3652  0.0356  1.7439
  753SOL     OW 2257   1.636   1.116   2.296 -0.2327 -0.2981  0.4883
  753SOL    HW1 2258   1.668   1.114   2.394  1.1612  0.7197 -1.3438
  753SOL    HW2 2259   1.597   1.207   2.275 -1.7343 -0.0276  1.7011
  754SOL     OW 2260   1.909   2.180   1.867 -0.0468  0.0831  0.1785
  754SOL    HW1 2261   1.866   2.136   1.786  0.1991 -0.7522  1.6055
  754SOL    HW2 2262   1.977   2.122   1.920 -0.8354 -1.4942 -1.8558
  755SOL     OW 2263   2.527   0.954   0.860 -0.0820 -0.7073 -0.2010
  755SOL    HW1 2264   2.611   0.899   0.855 -0.6065 -2.4295 -1.0810
  755SOL    HW2 2265   2.540   1.041   0.912 -0.6015 -1.4179 -0.0931
  756SOL     OW 2266   0.755   1.369   3.045 -0.3056  0.4850  0.0661
  756SOL    HW1 2267   0.801   1.399   0.021 -1.1230 -0.2930 -3.0106
  756SOL    HW2 2268   0.741   1.452   2.986 -1.6190  1.8057  0.1092
  757SOL     OW 2269   1.868   2.656   1.124  0.6302 -0.6649  0.4460
  757SOL    HW1 2270   1.920   2.714   1.052  0.3184 -1.9197 -0.2908
  757SOL    HW2 2271   1.880   2.559   1.108 -0.3354  1.0675 -0.0670
  758SOL     OW 2272   1.253   2.280   1.455  0.0669  0.0585  0.2027
  758SOL    HW1 2273   1.263   2.350   1.380  0.7213  1.3044 -0.4530
  758SOL    HW2 2274   1.220   2.321   1.538  0.7907 -3.1586 -0.9693
  759SOL     OW 2275   2.832   1.442   1.168  0.1002  0.0761 -0.8345
  759SOL    HW1 2276   2.804   1.536   1.202 -0.8243 -0.8886 -1.0404
  759SOL    HW2 2277   2.918   1.449   1.119 -1.7721  0.6925 -0.6794
  760SOL     OW 2278   2.199   0.956   1.547  0.4763 -0.0812 -0.4290
  760SOL    HW1 2279   2.119   0.911   1.502 -1.8054  0.6210 -0.9325
  760SOL    HW2 2280   2.170   1.049   1.578 -1.6639  0.6256 -0.7089
  761SOL     OW 2281   1.884   2.995   0.286 -0.2463  0.1617 -0.3081
  761SOL    HW1 2282   1.952   2.996   0.359 -0.7378  2.3966  1.0300
  761SOL    HW2 2283   1.926   3.029   0.199 -0.6132  1.6556 -2.5015
  762SOL     OW 2284   1.903   1.935   3.009  0.1902 -0.5021  0.0621
  762SOL    HW1 2285   1.838   1.930   2.933  1.0993  0.8811 -1.4114
  762SOL    HW2 2286   1.995   1.958   2.970  0.2284 -2.2059 -1.3353
  763SOL     OW 2287   0.575   1.887   1.664  0.3259 -0.7696 -0.0326
  763SOL    HW1 2288   0.580   1.788   1.684 -1.3256  2.2017  1.3999
  763SOL    HW2 2289   0.477   1.917   1.657 -1.9609  1.4256 -2.5477
  764SOL     OW 2290   0.043   2.484   0.054  0.1000 -0.0676 -0.4497
  764SOL    HW1 2291   3.053   2.473   0.062 -1.0317 -1.1411 -0.6958
  764SOL    HW2 2292   0.068   2.573   0.019 -2.5651  0.0197  1.6285
  765SOL     OW 2293   0.780   0.114   1.288 -0.7928  0.1035 -0.0694
  765SOL    HW1 2294   0.880   0.106   1.313  0.8159  1.4342 -2.2918
  765SOL    HW2 2295   0.770   0.074   1.194  1.6687  1.6391  0.6057
  766SOL     OW 2296   2.887   2.018   1.918  0.0513  0.4159  0.4952
  766SOL    HW1 2297   2.951   1.941   1.896  2.0664  0.8607  1.5436
  766SOL    HW2 2298   2.819   2.035   1.845  1.3892  0.0940  1.3091
  767SOL     OW 2299   2.827   0.915   1.921 -0.4186 -0.0255 -0.2801
  767SOL    HW1 2300   2.762   0.846   1.961  1.1236  0.0261  1.9269
  767SOL    HW2 2301   2.920   0.898   1.965  0.2248 -1.5369  2.2004
  768SOL     OW 2302   0.869   0.333   2.600 -0.1702 -0.2290  0.3721
  768SOL    HW1 2303   0.967   0.312   2.583  0.6321  2.2613  0.3392
  768SOL    HW2 2304   0.815   0.279   2.535  0.6929  1.8918 -1.7936
  769SOL     OW 2305   2.473   2.786   1.034 -0.0151 -0.0346 -1.0157
  769SOL    HW1 2306   2.541   2.835   0.977 -1.9348 -1.1336  0.7487
  769SOL    HW2 2307   2.502   2.690   1.051 -2.0563  1.1679 -3.0132
  770SOL     OW 2308   3.031   3.060   2.664 -0.4984 -0.3896 -0.2003
  770SOL    HW1 2309   3.091   3.058   2.580  0.9050 -0.1192  0.6678
  770SOL    HW2 2310   3.090   3.098   2.742 -0.8183  2.7284  0.4551
  771SOL     OW 2311   1.657   2.167   2.010  0.0903 -0.4681  0.3272
  771SOL    HW1 2312   1.735   2.204   1.959 -2.0807 -3.1756 -0.0932
  771SOL    HW2 2313   1.670   2.070   2.030 -0.6717  2.4303  0.5567
  772SOL     OW 2314   1.157   0.129   0.002  0.0858  0.0524  0.2415
  772SOL    HW1 2315   1.083   0.127   3.044 -0.9771  1.6798  0.7768
  772SOL    HW2 2316   1.227   0.056   3.101  1.4660 -0.9280 -1.5930
  773SOL     OW 2317   2.535   0.460   1.811 -0.1647  1.0015  0.3050
  773SOL    HW1 2318   2.627   0.428   1.777 -2.1328  0.2807  1.1997
  773SOL    HW2 2319   2.527   0.559   1.806 -0.6662 -2.8682 -0.9277
  774SOL     OW 2320   0.966   1.126   1.252  0.1911 -0.0146 -0.2017
  774SOL    HW1 2321   1.021   1.046   1.227 -0.3525 -0.9788 -2.0414
  774SOL    HW2 2322   0.889   1.154   1.190  0.9276  1.5766 -1.3239
  775SOL     OW 2323   2.362   2.914   2.899 -0.6091  0.1256 -0.0503
  775SOL    HW1 2324   2.364   3.010   2.875  0.7389 -1.6406  0.2987
  775SOL    HW2 2325   2.315   2.894   2.988 -1.5507 -0.3661  0.3107
  776SOL     OW 2326   2.441   0.990   1.829 -0.2294 -0.4298  0.0419
  776SOL    HW1 2327   2.427   1.008   1.928 -0.8038  0.6932 -0.7734
  776SOL    HW2 2328   2.505   1.064   1.795  2.9011  4.0996  0.2896
  777SOL     OW 2329   0.295   1.089   2.314  0.0580  0.7453  0.2429
  777SOL    HW1 2330   0.312   1.052   2.219 -0.1152  0.2899  0.7533
  777SOL    HW2 2331   0.355   1.175   2.322  0.6683  0.1406  0.0708
  778SOL     OW 2332   0.495   0.828   3.081 -0.3390  0.7122  0.0726
  778SOL    HW1 2333   0.530   0.891   3.005 -0.2057 -0.3083  0.4326
  778SOL    HW2 2334   0.419   0.769   3.037 -1.1136  0.5780  1.0068
  779SOL     OW 2335   0.574   0.315   2.445 -0.5926  0.0654  0.0623
  779SOL    HW1 2336   0.555   0.253   2.522  1.7746 -0.0636 -1.2341
  779SOL    HW2 2337   0.519   0.288   2.361 -1.9617  0.0979 -0.4784
  780SOL     OW 2338   2.264   1.314   2.725 -0.1749 -0.4842 -0.0591
  780SOL    HW1 2339   2.344   1.331   2.787 -0.4620  0.0468  0.1064
  780SOL    HW2 2340   2.287   1.254   2.647 -0.7538  2.5637  1.0024
  781SOL     OW 2341   2.951   1.198   2.086  0.1063 -0.2602  0.2645
  781SOL    HW1 2342   2.909   1.227   1.996  2.0650 -0.2145  1.5982
  781SOL    HW2 2343   2.970   1.098   2.085 -1.2769 -1.2816  0.4043
  782SOL     OW 2344   0.420   1.593   2.689 -0.0237 -0.0936  0.0170
  782SOL    HW1 2345   0.469   1.524   2.742 -0.8018  0.1810 -0.4274
  782SOL    HW2 2346   0.328   1.614   2.728  0.9302  0.2971  1.2029
  783SOL     OW 2347   1.162   2.297   1.004  0.0355  0.3086  0.2508
  783SOL    HW1 2348   1.170   2.384   1.053 -0.4177  0.5900  1.4221
  783SOL    HW2 2349   1.252   2.246   1.003 -1.7812 -1.5108  0.5411
  784SOL     OW 2350   1.592   0.486   2.633 -0.1218  0.2794  0.1815
  784SOL    HW1 2351   1.577   0.385   2.629 -0.4167  3.2332  0.6958
  784SOL    HW2 2352   1.674   0.518   2.574  2.3301 -1.6721  0.1215
  785SOL     OW 2353   0.718   0.066   1.940 -0.4071  0.2536  0.4090
  785SOL    HW1 2354   0.777   3.089   1.949  0.6603 -0.1761 -0.8014
  785SOL    HW2 2355   0.738   0.115   1.851  1.6057  1.7539 -1.0355
  786SOL     OW 2356   0.439   2.139   0.432 -0.1739 -0.0030 -0.2287
  786SOL    HW1 2357   0.374   2.069   0.412  0.7399  2.0657  2.4857
  786SOL    HW2 2358   0.497   2.121   0.517  3.4419 -2.0475  1.2763
  787SOL     OW 2359   1.150   0.690   0.454 -0.4676 -0.0722  0.2613
  787SOL    HW1 2360   1.178   0.715   0.359  1.6331 -3.2825  2.1941
  787SOL    HW2 2361   1.071   0.748   0.485 -2.3203  0.4041 -0.7042
  788SOL     OW 2362   2.764   1.703   1.269 -0.4789  0.9510  0.6060
  788SOL    HW1 2363   2.826   1.692   1.348 -2.4100 -1.4366 -1.7272
  788SOL    HW2 2364   2.684   1.765   1.292  1.8307 -1.4598 -2.3823
  789SOL     OW 2365   2.778   1.123   2.332  0.0070  0.0861  0.3643
  789SOL    HW1 2366   2.843   1.122   2.256 -2.2007  0.7732 -1.6256
  789SOL    HW2 2367   2.703   1.193   2.323 -1.1681 -0.0101  1.3369
  790SOL     OW 2368   0.684   0.157   3.092  0.1690  0.3255 -0.6023
  790SOL    HW1 2369   0.747   0.135   0.061 -0.6336  0.4613  2.9275
  790SOL    HW2 2370   0.671   0.257   3.070  0.4999 -1.6179  0.0304
  791SOL     OW 2371   2.964   0.378   2.938  0.4895  0.2715  0.3818
  791SOL    HW1 2372   2.864   0.374   2.909 -1.4904 -0.3944  1.1074
  791SOL    HW2 2373   2.970   0.385   3.042  0.8726 -0.1376 -3.3291
  792SOL     OW 2374   1.436   0.911   2.615  0.5188  0.2955 -0.0629
  792SOL    HW1 2375   1.353   0.944   2.566 -0.3464  2.1783  0.4620
  792SOL    HW2 2376   1.510   0.877   2.554  2.1531 -0.0546  1.6105
  793SOL     OW 2377   3.067   0.290   0.860  0.5204 -0.1156  0.4124
  793SOL    HW1 2378   3.032   0.360   0.800 -0.7376 -1.0303  0.0796
  793SOL    HW2 2379   3.006   0.291   0.943 -2.1249 -1.9448 -3.0261
  794SOL     OW 2380   0.270   0.514   1.909  0.1856 -0.4570 -0.2624
  794SOL    HW1 2381   0.316   0.564   1.837 -1.7655  0.5871  1.1160
  794SOL    HW2 2382   0.171   0.508   1.895  2.1200 -1.7416  0.8893
  795SOL     OW 2383   0.283   1.194   0.343  0.1072  0.1985  0.4009
  795SOL    HW1 2384   0.369   1.153   0.304  2.3272  0.1321 -2.6566
  795SOL    HW2 2385   0.227   1.131   0.395 -0.2476  0.2835 -2.3692
  796SOL     OW 2386   0.112   0.967   0.070  0.0418 -0.1281  0.4179
  796SOL    HW1 2387   0.181   0.903   0.111 -0.6138  2.0440 -0.8210
  796SOL    HW2 2388   0.160   1.057   0.057  3.0146  1.3048 -1.1507
  797SOL     OW 2389   1.719   2.527   2.623 -0.6339  0.0449 -0.1326
  797SOL    HW1 2390   1.751   2.618   2.658 -0.9817 -0.5774 -0.1030
  797SOL    HW2 2391   1.644   2.532   2.557  0.9595 -1.7114  2.7912
  798SOL     OW 2392   0.162   0.189   1.193 -0.3746 -0.1615  0.0774
  798SOL    HW1 2393   0.125   0.285   1.191 -2.1618 -1.4641  1.0407
  798SOL    HW2 2394   0.263   0.180   1.196 -0.2137 -1.5978  0.7903
  799SOL     OW 2395   2.173   0.681   1.970 -0.3277 -0.6810 -0.2249
  799SOL    HW1 2396   2.197   0.693   2.065 -1.1256  2.2019 -2.0316
  799SOL    HW2 2397   2.146   0.588   1.938 -2.1407  1.5627 -1.2745
  800SOL     OW 2398   0.090   1.833   0.482 -0.6515 -0.1683 -0.1921
  800SOL    HW1 2399   0.179   1.874   0.457  0.5638 -2.1681  0.8131
  800SOL    HW2 2400   0.073   1.740   0.441 -0.5620  1.3227  1.7315
  801SOL     OW 2401   1.426   2.012   0.599  0.5126  0.7533  0.1309
  801SOL    HW1 2402   1.365   2.018   0.681  1.7981  1.7371  0.6476
  801SOL    HW2 2403   1.521   2.007   0.635  0.4217 -2.5723  0.3667
  802SOL     OW 2404   1.651   1.209   2.952 -0.2663 -0.1056 -0.4769
  802SOL    HW1 2405   1.635   1.283   2.882 -3.2542  0.1909 -0.1748
  802SOL    HW2 2406   1.649   1.114   2.914 -2.1063  0.8396  1.8416
  803SOL     OW 2407   0.369   2.035   1.779  0.0222  0.2260 -0.0389
  803SOL    HW1 2408   0.361   2.134   1.755 -2.0845 -1.7352 -2.1476
  803SOL    HW2 2409   0.282   2.001   1.820 -1.2238  1.6655  1.4917
  804SOL     OW 2410   1.554   2.465   1.064 -0.4366 -0.5111 -0.1455
  804SOL    HW1 2411   1.649   2.441   1.085 -0.2241  1.4723 -0.1466
  804SOL    HW2 2412   1.550   2.561   1.021 -2.7044  3.5984 -0.0388
  805SOL     OW 2413   2.342   2.240   2.731 -0.1131 -0.1957 -0.2708
  805SOL    HW1 2414   2.426   2.284   2.768  0.4767  0.3351 -2.5577
  805SOL    HW2 2415   2.363   2.143   2.739 -1.1458 -0.4066  0.0696
  806SOL     OW 2416   2.870   3.085   0.692 -0.6084 -0.0610  0.1256
  806SOL    HW1 2417   2.935   0.042   0.649  0.5907  1.8055 -0.0240
  806SOL    HW2 2418   2.854   3.010   0.622 -1.8641 -1.7602 -1.3695
  807SOL     OW 2419   0.214   1.311   2.674  0.4953  0.6093  0.0676
  807SOL    HW1 2420   0.125   1.264   2.647 -1.0795 -0.4777 -1.8479
  807SOL    HW2 2421   0.201   1.390   2.730  2.5461 -1.3343  0.4777
  808SOL     OW 2422   0.754   1.788   0.735 -0.2258 -0.1746  0.1512
  808SOL    HW1 2423   0.700   1.733   0.673  0.7254  1.0241  1.7882
  808SOL    HW2 2424   0.765   1.884   0.698 -1.9312  2.7902  1.5010
  809SOL     OW 2425   2.737   0.034   2.024  0.1123 -0.6192 -0.3550
  809SOL    HW1 2426   2.737   0.034   1.922 -2.1120  1.0233 -2.0018
  809SOL    HW2 2427   2.651   3.097   2.056 -1.6524 -0.8990 -0.9408
  810SOL     OW 2428   1.397   0.645   1.270  0.4440 -0.0088  0.5193
  810SOL    HW1 2429   1.409   0.625   1.169  0.8465 -2.0278 -1.1353
  810SOL    HW2 2430   1.362   0.737   1.291 -1.0612 -2.4842  0.1152
  811SOL     OW 2431   1.799   0.012   1.948  0.3862  0.0661  0.0623
  811SOL    HW1 2432   1.828   3.028   1.918  0.2670 -2.8608 -0.6744
  811SOL    HW2 2433   1.705   0.023   1.954  4.6677 -0.9836  0.3218
  812SOL     OW 2434   2.009   2.294   0.583  0.4109 -0.0887  0.1893
  812SOL    HW1 2435   1.945   2.268   0.655  2.9036  0.7348 -1.6420
  812SOL    HW2 2436   2.066   2.211   0.552  2.2920 -1.6763 -4.9517
  813SOL     OW 2437   1.186   0.447   1.765  0.0633  0.6959  0.1850
  813SOL    HW1 2438   1.116   0.395   1.821 -1.6461 -2.0184  1.5898
  813SOL    HW2 2439   1.218   0.530   1.817 -2.9229 -1.4478  0.9226
  814SOL     OW 2440   0.214   3.063   1.057  0.3043 -0.1802  0.5736
  814SOL    HW1 2441   0.244   2.996   1.118 -1.6873  4.6168 -1.8807
  814SOL    HW2 2442   0.175   0.035   1.103 -1.4797  2.1178 -0.9881
  815SOL     OW 2443   3.058   0.085   0.556  0.2945  0.3485  0.2487
  815SOL    HW1 2444   3.084   0.016   0.485  0.8536  0.5462  0.1977
  815SOL    HW2 2445   0.023   0.082   0.625 -0.4119 -1.4963 -1.7592
  816SOL     OW 2446   2.387   1.887   2.334  0.2189 -0.0481 -1.0232
  816SOL    HW1 2447   2.352   1.945   2.257 -0.1256 -1.1140  1.1787
  816SOL    HW2 2448   2.334   1.917   2.417 -0.8155  2.0739  2.6193
  817SOL     OW 2449   0.997   3.065   0.639 -0.4981 -0.3670  0.1177
  817SOL    HW1 2450   1.069   0.011   0.596  1.1944  0.9046  0.4345
  817SOL    HW2 2451   1.040   2.982   0.682 -1.7103  0.7785  1.4900
  818SOL     OW 2452   1.848   0.338   0.007  0.5174  0.1360  0.5975
  818SOL    HW1 2453   1.833   0.254   3.061 -1.4576  1.9882 -2.2526
  818SOL    HW2 2454   1.885   0.307   0.097 -1.7742  0.6793  0.4559
  819SOL     OW 2455   1.982   3.019   0.003  0.3832  0.1565 -0.5158
  819SOL    HW1 2456   2.074   2.976   3.109 -2.8927 -1.2750 -0.3646
  819SOL    HW2 2457   1.911   2.952   3.078  0.4546  3.0011  1.8426
  820SOL     OW 2458   2.068   1.182   2.863  0.5530  0.3514 -0.5215
  820SOL    HW1 2459   2.108   1.118   2.938 -1.7491 -1.8677 -0.8704
  820SOL    HW2 2460   2.144   1.216   2.798  0.3285  1.1452 -1.7215
  821SOL     OW 2461   2.936   0.531   1.145 -0.4491  0.2129  0.4646
  821SOL    HW1 2462   2.904   0.433   1.133 -0.2830  1.3702 -0.8020
  821SOL    HW2 2463   2.964   0.574   1.056 -0.2089 -1.0963  0.8919
  822SOL     OW 2464   0.983   2.568   2.478  0.5387  0.5852 -0.2136
  822SOL    HW1 2465   0.975   2.467   2.493 -0.2690 -0.8832 -0.7304
  822SOL    HW2 2466   0.951   2.619   2.556 -1.0004  2.0899  1.8907
  823SOL     OW 2467   0.418   1.504   1.881  0.2316  0.3499  0.0268
  823SOL    HW1 2468   0.491   1.558   1.825  2.1358 -0.2697  0.7123
  823SOL    HW2 2469   0.374   1.565   1.954  1.9093  2.8393 -0.9546
  824SOL     OW 2470   1.516   2.520   2.456 -0.1153 -0.0879 -0.1525
  824SOL    HW1 2471   1.539   2.494   2.361  2.2455 -0.0820  0.3354
  824SOL    HW2 2472   1.446   2.589   2.466 -0.0558  0.1148  0.7499
  825SOL     OW 2473   1.683   0.865   0.242 -0.9758 -0.2148  0.0304
  825SOL    HW1 2474   1.759   0.907   0.191 -0.2830 -0.3949  1.3859
  825SOL    HW2 2475   1.717   0.776   0.281 -1.5559  1.7550 -1.2211
  826SOL     OW 2476   1.980   0.894   0.093  0.1213 -0.0962 -0.3095
  826SOL    HW1 2477   1.936   0.823   0.035  0.0956 -1.0749 -0.6889
  826SOL    HW2 2478   2.034   0.956   0.035 -0.7000  2.6397 -0.5333
  827SOL     OW 2479   0.710   1.846   2.797  0.1560  0.1145  0.0233
  827SOL    HW1 2480   0.615   1.875   2.775  2.8335  1.4346  1.5450
  827SOL    HW2 2481   0.774   1.878   2.723 -0.0050  1.8567 -0.4646
  828SOL     OW 2482   2.384   1.328   1.322  0.0896 -0.1681  0.1448
  828SOL    HW1 2483   2.386   1.414   1.372 -0.9047 -1.9807  3.3453
  828SOL    HW2 2484   2.397   1.246   1.385 -0.2141  0.1745 -0.9804
  829SOL     OW 2485   0.365   1.462   0.941  0.0478  0.5897  0.6889
  829SOL    HW1 2486   0.440   1.512   0.981 -0.7769 -1.7403  1.0812
  829SOL    HW2 2487   0.325   1.400   1.012  1.8754  1.3771  0.8668
  830SOL     OW 2488   1.198   0.956   1.137  0.2930 -0.1964 -0.1317
  830SOL    HW1 2489   1.254   1.010   1.072 -0.1272  1.8135  1.2366
  830SOL    HW2 2490   1.254   0.931   1.220 -0.4817  0.6913 -0.1375
  831SOL     OW 2491   0.264   2.054   0.116 -0.0683 -0.3322  0.1556
  831SOL    HW1 2492   0.166   2.073   0.100  0.4803  0.8067  0.9264
  831SOL    HW2 2493   0.298   2.011   0.029 -0.7614 -0.7953 -0.1228
  832SOL     OW 2494   0.690   0.428   3.056  0.3558  0.4364 -0.3969
  832SOL    HW1 2495   0.674   0.487   0.022 -0.0811 -0.4968 -3.7002
  832SOL    HW2 2496   0.793   0.416   3.046  0.5716  2.0481  0.9659
  833SOL     OW 2497   0.767   0.546   2.105 -0.1780  0.0988 -0.3673
  833SOL    HW1 2498   0.758   0.603   2.020 -3.3270  1.0150 -1.9795
  833SOL    HW2 2499   0.748   0.451   2.081  0.2445 -2.2875  0.8199
  834SOL     OW 2500   0.213   0.284   0.802 -0.4001 -0.0207  0.1658
  834SOL    HW1 2501   0.115   0.288   0.830  1.2593 -0.2593  0.9096
  834SOL    HW2 2502   0.269   0.318   0.881  1.8345  0.7856  1.6650
  835SOL     OW 2503   2.816   0.037   0.942 -0.0129  0.1186 -0.1348
  835SOL    HW1 2504   2.836   0.019   0.839  2.5430  1.2009 -2.3641
  835SOL    HW2 2505   2.890   3.106   0.996 -0.8867  0.0756 -1.5403
  836SOL     OW 2506   0.498   2.182   2.966  0.3568  0.2454 -0.0431
  836SOL    HW1 2507   0.597   2.217   2.949  1.1212  0.3222 -0.2808
  836SOL    HW2 2508   0.492   2.144   3.064  0.0030  0.1969  1.7286
  837SOL     OW 2509   1.791   1.652   2.789 -0.4790 -0.2089 -0.2445
  837SOL    HW1 2510   1.874   1.711   2.802 -2.5096  1.7700 -2.7110
  837SOL    HW2 2511   1.792   1.575   2.861  0.6043 -1.6820  1.3258
  838SOL     OW 2512   3.054   1.065   1.608 -0.2527  0.0565  0.2020
  838SOL    HW1 2513   3.036   1.072   1.510 -0.2002  0.0049  0.7662
  838SOL    HW2 2514   0.017   1.126   1.632 -1.1593 -2.4096 -1.6201
  839SOL     OW 2515   0.773   1.044   0.810  0.3923  0.5112  0.1371
  839SOL    HW1 2516   0.833   1.106   0.754  1.1367  2.1373 -1.0985
  839SOL    HW2 2517   0.803   0.949   0.799 -2.3100  0.3441  1.6450
  840SOL     OW 2518   1.533   2.782   1.577  1.0999  0.1555 -0.6224
  840SOL    HW1 2519   1.488   2.693   1.559 -0.8019  1.1005 -1.2351
  840SOL    HW2 2520   1.554   2.834   1.495  0.8240 -1.9652 -2.8930
  841SOL     OW 2521   0.577   2.459   0.398  0.2981  0.6752  0.0434
  841SOL    HW1 2522   0.543   2.481   0.302 -0.3847 -0.4914 -1.6677
  841SOL    HW2 2523   0.512   2.402   0.453 -0.5268  0.2467  1.2286
  842SOL     OW 2524   0.397   0.659   0.790 -0.0826  0.3078 -0.2405
  842SOL    HW1 2525   0.323   0.654   0.861 -0.3275 -1.6102  0.7446
  842SOL    HW2 2526   0.485   0.658   0.840 -0.8824 -1.9858  0.9486
  843SOL     OW 2527   0.815   1.487   2.215  0.2367  0.1692 -0.0858
  843SOL    HW1 2528   0.830   1.470   2.313 -1.8544 -0.0484 -4.7311
  843SOL    HW2 2529   0.886   1.441   2.153  3.5726 -1.2549 -1.9405
  844SOL     OW 2530   1.142   2.240   2.973  0.8944  0.0795 -0.0977
  844SOL    HW1 2531   1.217   2.174   2.993  0.4047  1.3763 -0.8189
  844SOL    HW2 2532   1.172   2.334   2.948  0.5296 -0.6396  1.8502
  845SOL     OW 2533   2.279   2.398   2.480  0.2460  0.3590  0.1105
  845SOL    HW1 2534   2.379   2.425   2.458  0.0424 -0.8732 -0.6728
  845SOL    HW2 2535   2.277   2.349   2.570 -1.5402  1.8821 -4.0254
  846SOL     OW 2536   1.781   2.164   3.077  0.7421  0.0451 -0.0979
  846SOL    HW1 2537   1.681   2.151   3.096 -2.9735 -2.9219 -0.6195
  846SOL    HW2 2538   1.830   2.075   3.076 -1.3385  0.6534  0.2594
  847SOL     OW 2539   1.815   2.772   2.741 -0.2909  0.1313  0.0901
  847SOL    HW1 2540   1.882   2.810   2.676 -0.2736 -1.1652 -0.5164
  847SOL    HW2 2541   1.847   2.784   2.833 -0.9868 -0.5632  1.6627
  848SOL     OW 2542   0.290   0.479   0.613  0.1718 -0.6144 -0.3038
  848SOL    HW1 2543   0.334   0.544   0.678  0.7447 -1.0481  0.4720
  848SOL    HW2 2544   0.256   0.395   0.658 -1.1610  1.5271 -0.6224
  849SOL     OW 2545   1.155   2.947   1.449 -0.2727 -0.2965  0.2899
  849SOL    HW1 2546   1.082   3.013   1.427 -1.2094 -0.6218 -2.0821
  849SOL    HW2 2547   1.181   2.892   1.363  3.8049 -0.0272 -1.4195
  850SOL     OW 2548   0.448   1.662   0.315  0.2403  0.4337  0.0371
  850SOL    HW1 2549   0.389   1.582   0.343 -0.7195 -1.4722  1.7111
  850SOL    HW2 2550   0.486   1.635   0.222  0.4109 -0.7816 -0.7162
  851SOL     OW 2551   0.109   1.078   0.874  0.5066  0.1641 -0.1254
  851SOL    HW1 2552   0.020   1.091   0.824 -0.1446  2.6660 -0.1489
  851SOL    HW2 2553   0.179   1.141   0.829 -1.4149  0.9050 -1.3077
  852SOL     OW 2554   1.961   2.338   1.632  0.3131 -0.0160 -0.2379
  852SOL    HW1 2555   1.927   2.315   1.725 -1.9161  1.2075 -0.9281
  852SOL    HW2 2556   2.036   2.284   1.597 -2.3578 -1.5402 -0.4898
  853SOL     OW 2557   0.297   1.462   0.379  0.3345  0.0839  0.2580
  853SOL    HW1 2558   0.212   1.517   0.398 -0.7894  2.7199 -0.7157
  853SOL    HW2 2559   0.276   1.361   0.373  0.7586  1.8613  0.7183
  854SOL     OW 2560   1.712   1.307   1.847 -0.2497 -0.7704  0.4483
  854SOL    HW1 2561   1.751   1.237   1.916 -0.6061 -1.0960 -0.0146
  854SOL    HW2 2562   1.618   1.327   1.874  2.4008  0.4457  0.6328
  855SOL     OW 2563   0.579   2.570   2.859 -0.2078  0.3593  0.2478
  855SOL    HW1 2564   0.484   2.566   2.896 -1.6099 -0.7090 -0.1589
  855SOL    HW2 2565   0.648   2.589   2.930 -0.6715  2.3086 -1.3267
  856SOL     OW 2566   2.941   0.648   1.692  0.5628 -0.2375  0.4369
  856SOL    HW1 2567   3.005   0.728   1.711  0.6651  0.0456  0.0603
  856SOL    HW2 2568   2.923   0.647   1.595 -3.7202 -1.0017  2.5632
  857SOL     OW 2569   0.461   1.054   2.072 -0.0423  0.5092  0.0212
  857SOL    HW1 2570   0.431   1.120   2.001  1.4713  2.7189  0.9749
  857SOL    HW2 2571   0.554   1.079   2.101 -0.9524  1.9699  1.8617
  858SOL     OW 2572   0.445   1.323   2.290  0.0407  0.0220 -0.0255
  858SOL    HW1 2573   0.395   1.394   2.345 -1.8793 -1.1476  0.2397
  858SOL    HW2 2574   0.499   1.360   2.214 -0.7120 -0.0200 -1.3521
  859SOL     OW 2575   2.614   0.318   0.381 -0.5205 -0.3358 -0.1181
  859SOL    HW1 2576   2.697   0.368   0.423  2.6893  1.3389  3.2597
  859SOL    HW2 2577   2.628   0.220   0.375  2.9650 -0.0356 -0.7627
  860SOL     OW 2578   1.821   2.817   3.028  0.1606  0.0642 -0.6077
  860SOL    HW1 2579   1.731   2.823   3.085 -3.4003 -0.5425 -2.1093
  860SOL    HW2 2580   1.871   2.727   3.046  0.6227  2.3201 -1.7528
  861SOL     OW 2581   0.272   0.475   0.329 -0.5311  0.0734  0.6829
  861SOL    HW1 2582   0.350   0.438   0.268  2.1905 -1.7834 -1.6771
  861SOL    HW2 2583   0.286   0.484   0.433 -0.8684  0.7461  0.3080
  862SOL     OW 2584   1.311   0.151   1.943  0.6123 -0.3806 -0.2142
  862SOL    HW1 2585   1.346   0.214   1.873 -0.1462  0.2029  3.1518
  862SOL    HW2 2586   1.226   0.104   1.921  0.1352  2.5297 -2.1251
  863SOL     OW 2587   2.725   2.266   1.281  0.9012 -0.0196 -0.1968
  863SOL    HW1 2588   2.643   2.331   1.282 -1.7937  0.2176 -1.6182
  863SOL    HW2 2589   2.788   2.283   1.364  0.7626  0.3875  1.4929
  864SOL     OW 2590   2.369   2.831   2.198 -0.2327 -0.2915  0.1449
  864SOL    HW1 2591   2.284   2.785   2.162 -1.0356  1.1012 -2.1429
  864SOL    HW2 2592   2.450   2.773   2.217 -3.7283 -0.6461  3.3495
  865SOL     OW 2593   1.187   0.258   1.503 -0.4682 -0.3364  0.8543
  865SOL    HW1 2594   1.284   0.237   1.487 -2.8665 -0.7429 -0.6705
  865SOL    HW2 2595   1.176   0.322   1.580  0.3608  0.2397 -1.9814
  866SOL     OW 2596   2.141   3.039   0.926  0.1274 -0.0347  0.4012
  866SOL    HW1 2597   2.216   3.095   0.882  1.9041  0.9583  1.7148
  866SOL    HW2 2598   2.119   3.083   1.013  0.7129 -0.6037 -1.7656
  867SOL     OW 2599   2.890   2.579   0.365  0.1219  0.1899  0.0430
  867SOL    HW1 2600   2.953   2.502   0.399 -1.1733 -1.0561  1.0381
  867SOL    HW2 2601   2.797   2.583   0.414 -1.5295 -1.4661 -0.6259
  868SOL     OW 2602   1.230   2.026   1.771  0.1681 -0.7357  0.3838
  868SOL    HW1 2603   1.315   2.055   1.727 -2.0448  2.8295 -1.2424
  868SOL    HW2 2604   1.179   2.104   1.817 -1.0052 -0.1578  1.0964
  869SOL     OW 2605   2.124   2.312   0.290 -0.1195 -0.0205  0.1207
  869SOL    HW1 2606   2.169   2.247   0.357  0.7158 -0.1535 -0.4499
  869SOL    HW2 2607   2.159   2.408   0.314  1.2127  2.3075  2.8727
  870SOL     OW 2608   2.370   2.200   0.938 -0.2008 -0.0410 -0.4265
  870SOL    HW1 2609   2.332   2.264   0.874 -2.1486 -1.8880  2.2497
  870SOL    HW2 2610   2.470   2.219   0.954 -0.3135  2.0390 -2.3858
  871SOL     OW 2611   0.254   1.484   1.644  1.0593 -0.4390  0.0762
  871SOL    HW1 2612   0.259   1.530   1.554  0.7263 -0.4816  1.7942
  871SOL    HW2 2613   0.323   1.520   1.705 -2.8252  0.2907 -2.1471
  872SOL     OW 2614   0.851   1.438   2.524  0.3693 -0.5930 -0.0449
  872SOL    HW1 2615   0.857   1.460   2.623  0.2950  1.7649  0.9175
  872SOL    HW2 2616   0.779   1.366   2.506  0.2053  0.7538 -0.8911
  873SOL     OW 2617   0.840   2.634   1.413  0.0430  0.1033 -0.0577
  873SOL    HW1 2618   0.834   2.680   1.505 -0.1554  0.2967  1.7177
  873SOL    HW2 2619   0.870   2.698   1.341 -2.3301  2.2655 -0.9628
  874SOL     OW 2620   1.394   0.851   1.903  0.1447 -0.2137  0.0397
  874SOL    HW1 2621   1.391   0.922   1.978  0.9655  2.0314  0.8856
  874SOL    HW2 2622   1.492   0.845   1.874 -0.8537 -1.8647 -1.3961
  875SOL     OW 2623   2.858   2.826   1.297 -0.8583 -0.2181 -0.0099
  875SOL    HW1 2624   2.801   2.908   1.331 -1.4047  2.1768  2.0503
  875SOL    HW2 2625   2.915   2.852   1.211  0.3922  0.4156 -0.5042
  876SOL     OW 2626   0.958   1.194   0.688  0.0409 -0.5363 -0.2112
  876SOL    HW1 2627   0.944   1.163   0.593 -2.2535 -3.6088  2.1091
  876SOL    HW2 2628   0.924   1.290   0.703 -1.9241 -0.6330  0.9778
  877SOL     OW 2629   2.875   0.260   1.082 -0.4879  0.1621  0.4167
  877SOL    HW1 2630   2.799   0.260   1.149  1.9391  0.7363  1.5722
  877SOL    HW2 2631   2.856   0.194   1.006 -0.4393 -2.1478  0.3832
  878SOL     OW 2632   2.303   1.598   0.175  0.2476 -0.1893  0.6847
  878SOL    HW1 2633   2.355   1.614   0.259  2.0622 -0.6278 -1.2682
  878SOL    HW2 2634   2.244   1.515   0.179 -1.5629  0.2260  2.9431
  879SOL     OW 2635   2.747   2.026   1.420  0.3835 -0.0452 -0.0736
  879SOL    HW1 2636   2.844   1.995   1.418 -0.5214  1.5783 -2.2103
  879SOL    HW2 2637   2.732   2.118   1.378  0.7432  0.1026 -2.7122
  880SOL     OW 2638   0.315   2.282   0.837 -0.3919  0.1446  0.2194
  880SOL    HW1 2639   0.378   2.284   0.918 -0.8677 -3.5952  0.1758
  880SOL    HW2 2640   0.343   2.348   0.767 -1.9351  0.7284  1.3871
  881SOL     OW 2641   1.395   1.078   0.928  0.4474  0.1999 -0.4428
  881SOL    HW1 2642   1.472   1.140   0.925 -0.9459 -2.5230  1.7533
  881SOL    HW2 2643   1.332   1.101   0.849  2.3371 -0.0894  0.3917
  882SOL     OW 2644   2.802   1.138   2.609  0.2008  0.2916  0.2295
  882SOL    HW1 2645   2.810   1.134   2.507 -0.2347 -0.5114  1.5457
  882SOL    HW2 2646   2.737   1.064   2.642  1.0325 -1.2203  0.3120
  883SOL     OW 2647   1.174   0.023   1.138 -0.2346  0.2701  0.0142
  883SOL    HW1 2648   1.154   3.078   1.057 -1.5377 -0.8925 -0.1662
  883SOL    HW2 2649   1.199   0.119   1.108  2.3285  2.1190  0.0747
  884SOL     OW 2650   2.994   2.958   1.079 -0.8210 -0.1011  0.1356
  884SOL    HW1 2651   3.033   3.013   1.156  1.7937  0.9121  2.5834
  884SOL    HW2 2652   3.064   2.936   1.008 -1.4326  2.0793 -0.0497
  885SOL     OW 2653   1.623   0.994   1.254 -0.2300  0.2015  0.1974
  885SOL    HW1 2654   1.630   1.096   1.258 -1.3762 -0.5291  1.9573
  885SOL    HW2 2655   1.649   0.967   1.157  0.2831 -2.0168 -1.6290
  886SOL     OW 2656   1.356   1.059   3.087  0.6669  0.2013 -0.2934
  886SOL    HW1 2657   1.326   0.963   3.101 -1.0347  4.2913 -1.6325
  886SOL    HW2 2658   1.441   1.074   0.032  1.0327 -0.9510 -0.1512
  887SOL     OW 2659   1.445   0.368   1.345 -0.4902 -0.3921 -0.6282
  887SOL    HW1 2660   1.522   0.381   1.408  1.2460  0.6266  1.6219
  887SOL    HW2 2661   1.413   0.460   1.316  1.2121  0.2184  0.6557
  888SOL     OW 2662   2.183   1.186   2.014  0.3751  0.0215  0.0914
  888SOL    HW1 2663   2.262   1.202   2.081  1.4225  0.0895  2.5444
  888SOL    HW2 2664   2.183   1.091   1.969  1.1719 -1.4284  0.6257
  889SOL     OW 2665   2.276   1.938   0.991 -0.1876  0.5779  0.1862
  889SOL    HW1 2666   2.359   1.887   1.018 -3.6514  3.2773 -3.7020
  889SOL    HW2 2667   2.299   2.034   0.961 -0.4916 -1.6684 -0.6190
  890SOL     OW 2668   1.333   2.019   0.868 -0.0037  0.2224  0.3758
  890SOL    HW1 2669   1.384   2.103   0.888 -2.0973  0.3476  1.1517
  890SOL    HW2 2670   1.276   1.995   0.946 -0.2367  0.6358 -3.4296
  891SOL     OW 2671   2.474   0.538   2.406  0.1291  0.0624  0.0076
  891SOL    HW1 2672   2.527   0.556   2.319  0.6823  1.7177  1.2790
  891SOL    HW2 2673   2.435   0.446   2.408  3.7907  0.1046  1.3231
  892SOL     OW 2674   0.993   0.385   2.171 -0.3445  0.8262  0.4606
  892SOL    HW1 2675   1.095   0.356   2.172  0.2336  1.6714 -1.5280
  892SOL    HW2 2676   0.974   0.459   2.240 -1.1422  3.1078  3.0871
  893SOL     OW 2677   1.458   0.118   1.455  0.3369 -0.1092 -0.2253
  893SOL    HW1 2678   1.519   0.130   1.537 -1.3968 -1.0787 -1.6633
  893SOL    HW2 2679   1.459   0.203   1.395 -0.5079  0.4179  0.3665
  894SOL     OW 2680   2.546   0.631   0.718 -0.0654  0.1856  0.9708
  894SOL    HW1 2681   2.474   0.589   0.780 -1.9786  0.6703 -1.2687
  894SOL    HW2 2682   2.605   0.698   0.760 -0.3454  2.8728 -1.5005
  895SOL     OW 2683   1.992   2.441   2.700 -0.1274  0.0560 -0.5133
  895SOL    HW1 2684   2.046   2.526   2.727  2.3518  2.4936  1.4598
  895SOL    HW2 2685   1.892   2.451   2.721  0.8789 -2.3288 -1.7543
  896SOL     OW 2686   1.876   2.895   1.634  0.1841 -0.5001 -0.3137
  896SOL    HW1 2687   1.790   2.901   1.688  2.1993  1.9338  0.0925
  896SOL    HW2 2688   1.872   2.835   1.552 -0.1281  0.1215 -0.2999
  897SOL     OW 2689   0.489   1.868   2.017  0.5297  0.6991 -0.4732
  897SOL    HW1 2690   0.415   1.799   2.047 -1.0537 -2.1668 -1.3770
  897SOL    HW2 2691   0.463   1.924   1.936  0.1297  0.8038  0.5568
  898SOL     OW 2692   2.061   1.778   1.956 -1.0187  0.4049  0.4249
  898SOL    HW1 2693   1.991   1.706   1.979  0.6501  1.3667  0.5229
  898SOL    HW2 2694   2.160   1.749   1.940  1.8707 -1.0879 -0.7349
  899SOL     OW 2695   2.055   2.452   0.946 -0.3514 -0.5431  0.0685
  899SOL    HW1 2696   2.098   2.404   0.867  2.4195  1.9020  0.7133
  899SOL    HW2 2697   2.129   2.482   1.012  3.1711 -0.2539 -0.7197
  900SOL     OW 2698   0.944   0.122   2.919  0.4576 -0.0020  0.0253
  900SOL    HW1 2699   0.972   0.032   2.879 -0.8256 -0.5279  1.7980
  900SOL    HW2 2700   0.848   0.117   2.956 -2.4937  0.2822  1.6143
  901SOL     OW 2701   1.028   1.801   2.236  0.0138 -0.4246 -0.0059
  901SOL    HW1 2702   0.937   1.797   2.191  0.4366  1.9990  1.4923
  901SOL    HW2 2703   1.064   1.710   2.254 -1.1413  0.6814 -0.6629
  902SOL     OW 2704   2.244   0.591   3.100  0.2927 -0.0241 -0.2523
  902SOL    HW1 2705   2.316   0.577   3.030  0.0921  2.4233  0.8187
  902SOL    HW2 2706   2.180   0.513   3.100  1.6171  1.7445  2.3793
  903SOL     OW 2707   1.934   0.798   2.150  0.1814  0.1950  0.4369
  903SOL    HW1 2708   1.992   0.754   2.080  0.4866 -1.1989  2.5952
  903SOL    HW2 2709   1.988   0.836   2.229 -0.2895 -1.2491 -0.5670
  904SOL     OW 2710   1.698   0.894   1.824  0.5086  0.4591  0.2902
  904SOL    HW1 2711   1.724   0.946   1.739 -1.2865  4.1988 -0.4394
  904SOL    HW2 2712   1.716   0.960   1.899  0.7770 -4.0557 -2.0086
  905SOL     OW 2713   2.249   0.168   1.363 -0.4224 -0.0744  0.4383
  905SOL    HW1 2714   2.197   0.097   1.313 -0.7914  5.9052 -1.0969
  905SOL    HW2 2715   2.189   0.248   1.374  1.3384 -2.7242 -0.3936
  906SOL     OW 2716   2.218   1.706   0.624 -0.3636  0.3278 -0.3990
  906SOL    HW1 2717   2.159   1.772   0.676  1.9651 -2.4724 -0.9753
  906SOL    HW2 2718   2.166   1.627   0.589 -0.2591  0.8199 -1.7146
  907SOL     OW 2719   1.017   2.812   0.753  0.1636 -0.1748 -0.0138
  907SOL    HW1 2720   1.063   2.723   0.777  2.3104  2.0275  0.9516
  907SOL    HW2 2721   0.919   2.801   0.756  0.1806  0.3031 -1.3559
  908SOL     OW 2722   1.558   2.341   2.732 -0.2807 -0.7195 -0.2764
  908SOL    HW1 2723   1.551   2.264   2.663 -0.7474 -0.1777  1.2826
  908SOL    HW2 2724   1.633   2.410   2.703 -0.1282 -1.6521  0.5876
  909SOL     OW 2725   2.109   0.496   2.209 -0.1623 -0.1990  0.8671
  909SOL    HW1 2726   2.159   0.583   2.228 -0.1801  1.1884 -0.8710
  909SOL    HW2 2727   2.116   0.462   2.108 -0.2006  0.3995 -3.2202
  910SOL     OW 2728   1.075   0.765   2.522  0.4291  0.5365  0.8771
  910SOL    HW1 2729   1.093   0.829   2.598  2.9478 -1.8708 -1.1346
  910SOL    HW2 2730   1.003   0.703   2.552 -0.1855  1.4280 -2.1533
  911SOL     OW 2731   0.058   0.977   2.902 -0.1382 -0.0459 -0.0098
  911SOL    HW1 2732   0.102   0.979   2.994  1.3717  0.0691  0.3228
  911SOL    HW2 2733   3.077   0.942   2.911  4.2631 -1.2027 -0.1186
  912SOL     OW 2734   0.100   2.537   0.563  0.2836 -0.1821  0.0598
  912SOL    HW1 2735   0.189   2.491   0.536  2.3145  0.4707  0.4785
  912SOL    HW2 2736   0.019   2.480   0.535  1.3166  0.0989 -0.1883
  913SOL     OW 2737   2.633   1.915   2.463 -0.0307  0.2516  0.0396
  913SOL    HW1 2738   2.550   1.915   2.412  3.1752 -2.8937  2.6557
  913SOL    HW2 2739   2.689   1.994   2.429 -0.6460 -0.4245  1.3684
  914SOL     OW 2740   1.780   1.210   0.894  0.4598  0.2313  0.2216
  914SOL    HW1 2741   1.820   1.171   0.806  1.4048 -0.5707  0.2043
  914SOL    HW2 2742   1.738   1.305   0.879 -0.4293 -0.8588  1.8393
  915SOL     OW 2743   0.213   2.867   2.357  0.0965 -0.4716 -0.6293
  915SOL    HW1 2744   0.269   2.945   2.322 -2.0618 -0.3343 -2.8423
  915SOL    HW2 2745   0.276   2.792   2.390  1.1342  0.5482 -1.2464
  916SOL     OW 2746   0.841   2.866   1.240  0.2927 -0.0358  0.4713
  916SOL    HW1 2747   0.806   2.936   1.177  1.0237 -1.4415  0.2586
  916SOL    HW2 2748   0.783   2.864   1.325  0.7682  2.1035  0.9795
  917SOL     OW 2749   2.389   0.772   0.144  0.1949 -0.0919 -0.1441
  917SOL    HW1 2750   2.451   0.830   0.087  0.7578 -0.7819 -2.1602
  917SOL    HW2 2751   2.326   0.716   0.090  0.7678  0.6802  3.0836
  918SOL     OW 2752   1.491   2.397   2.988  0.1643  0.0896  0.7177
  918SOL    HW1 2753   1.451   2.492   2.979 -1.7211  2.6446  0.9233
  918SOL    HW2 2754   1.529   2.355   2.906 -1.3203 -0.7595  0.3298
  919SOL     OW 2755   1.805   2.714   1.381  0.1245 -0.1878  0.2679
  919SOL    HW1 2756   1.725   2.779   1.372 -1.8549  1.6925 -0.0537
  919SOL    HW2 2757   1.826   2.665   1.297  1.7658  0.4462  1.8711
  920SOL     OW 2758   1.376   0.406   2.365  0.1933 -0.0381 -0.0142
  920SOL    HW1 2759   1.367   0.383   2.464 -0.0555  1.9913 -0.5460
  920SOL    HW2 2760   1.302   0.363   2.309  1.0946 -2.2533 -0.7403
  921SOL     OW 2761   0.203   0.942   2.667  0.0987 -0.6545  0.2073
  921SOL    HW1 2762   0.159   0.981   2.585 -0.5257 -1.9318  1.1866
  921SOL    HW2 2763   0.160   0.971   2.757  2.7318  0.4795  4.1588
  922SOL     OW 2764   3.063   1.915   1.210  0.1856 -0.4325 -0.6804
  922SOL    HW1 2765   2.989   1.978   1.183  2.4518 -1.9041  3.6516
  922SOL    HW2 2766   0.035   1.928   1.160 -1.5299  1.2073  0.1954
  923SOL     OW 2767   0.327   1.677   2.092  0.1670 -0.1791 -0.1127
  923SOL    HW1 2768   0.353   1.672   2.194  2.3878  0.6205  1.5962
  923SOL    HW2 2769   0.238   1.631   2.074  0.1917 -1.8650 -1.1657
  924SOL     OW 2770   1.451   2.890   2.504  0.1449 -0.0012  0.1927
  924SOL    HW1 2771   1.406   2.798   2.513 -1.0545 -0.5362  1.5456
  924SOL    HW2 2772   1.553   2.889   2.486  1.1800  0.1256  1.7426
  925SOL     OW 2773   2.835   1.676   0.742 -0.0933  0.8953 -0.2439
  925SOL    HW1 2774   2.857   1.586   0.706 -2.2050 -1.4690 -3.2489
  925SOL    HW2 2775   2.857   1.682   0.841  0.1981 -0.4091  0.6591
  926SOL     OW 2776   2.332   0.798   0.935 -0.6600  0.2313  0.1565
  926SOL    HW1 2777   2.332   0.694   0.926 -0.4009 -0.1838 -0.1334
  926SOL    HW2 2778   2.415   0.835   0.887  1.0134  0.1185 -0.7842
  927SOL     OW 2779   1.885   0.135   1.277 -0.4331  0.2470  0.5670
  927SOL    HW1 2780   1.916   0.232   1.282  1.4066 -2.7890  0.5627
  927SOL    HW2 2781   1.847   0.089   1.363 -0.1466 -2.5355  4.1353
  928SOL     OW 2782   0.087   0.771   2.244  0.1086 -0.2149 -0.0881
  928SOL    HW1 2783   0.189   0.780   2.249  0.3647 -1.5139  0.5017
  928SOL    HW2 2784   0.049   0.683   2.279  0.4330 -0.7529  2.4231
  929SOL     OW 2785   2.343   0.846   1.204  0.4589 -0.0253  0.1945
  929SOL    HW1 2786   2.322   0.828   1.107  0.7219 -0.8985  1.3409
  929SOL    HW2 2787   2.435   0.884   1.216  1.4192 -3.4695  0.5610
  930SOL     OW 2788   2.403   2.422   1.632 -0.3507 -0.1789  0.1157
  930SOL    HW1 2789   2.461   2.368   1.696 -3.0790  1.4520  0.6179
  930SOL    HW2 2790   2.323   2.463   1.683 -0.0199  0.5053  0.6968
  931SOL     OW 2791   2.084   0.941   1.227  0.3028 -0.1736 -0.1756
  931SOL    HW1 2792   2.184   0.929   1.206  2.4257  0.2924  0.2283
  931SOL    HW2 2793   2.041   1.017   1.171 -1.0553  1.0840  1.6018
  932SOL     OW 2794   0.344   0.662   1.683  0.1537 -0.2421  0.2615
  932SOL    HW1 2795   0.363   0.717   1.601 -0.2550 -1.3160 -1.0212
  932SOL    HW2 2796   0.347   0.721   1.767 -0.5838  1.2839 -2.0869
  933SOL     OW 2797   2.336   1.823   1.635 -0.2557 -0.0051 -0.0512
  933SOL    HW1 2798   2.306   1.899   1.576  0.4330 -1.0908 -0.2039
  933SOL    HW2 2799   2.397   1.860   1.707  0.4437 -2.1388  0.0129
  934SOL     OW 2800   1.015   2.290   1.727 -0.1666 -0.2717  0.1504
  934SOL    HW1 2801   1.098   2.352   1.707  0.5425  1.1482 -0.4630
  934SOL    HW2 2802   0.969   2.256   1.640  0.2225  1.7245 -0.8268
  935SOL     OW 2803   0.115   1.538   2.076 -0.2221  0.2931  0.1452
  935SOL    HW1 2804   0.096   1.438   2.085 -0.4514  0.1463 -0.0462
  935SOL    HW2 2805   0.032   1.595   2.097 -1.9920  0.7089 -0.5349
  936SOL     OW 2806   2.741   0.808   1.190  0.0638 -0.0002  0.0406
  936SOL    HW1 2807   2.700   0.893   1.229 -0.2304  3.9460  0.1408
  936SOL    HW2 2808   2.675   0.733   1.207  3.0233  3.5611 -2.3481
  937SOL     OW 2809   1.639   0.412   1.529 -1.1404  0.2745 -0.8333
  937SOL    HW1 2810   1.720   0.425   1.468  0.8406  0.7425  1.5295
  937SOL    HW2 2811   1.679   0.400   1.624 -0.9444 -0.0169  2.3856
  938SOL     OW 2812   0.451   2.725   0.555  0.1471  0.0053  0.3996
  938SOL    HW1 2813   0.506   2.698   0.474 -0.2744 -0.9064  2.1083
  938SOL    HW2 2814   0.464   2.825   0.564 -0.6930  0.0924  2.5892
  939SOL     OW 2815   3.033   2.099   2.529 -0.7193 -0.1626 -0.0102
  939SOL    HW1 2816   3.041   2.001   2.557  0.8115  1.9999 -0.9036
  939SOL    HW2 2817   3.007   2.162   2.607 -0.5391  0.0983  0.7566
  940SOL     OW 2818   1.514   1.818   0.284  0.5201  0.6160  0.5907
  940SOL    HW1 2819   1.593   1.795   0.338 -0.5201  1.3194 -0.2299
  940SOL    HW2 2820   1.505   1.916   0.266  0.3597 -2.6078 -1.5678
  941SOL     OW 2821   2.216   2.548   0.346 -0.7227 -0.0922 -0.2325
  941SOL    HW1 2822   2.314   2.545   0.319 -2.7183 -1.1595 -0.4394
  941SOL    HW2 2823   2.203   2.584   0.440  1.1377 -2.6977 -0.0156
  942SOL     OW 2824   1.786   1.913   0.892 -0.3685 -0.2359 -0.2502
  942SOL    HW1 2825   1.765   1.992   0.953 -0.2341  0.9955  0.7566
  942SOL    HW2 2826   1.796   1.825   0.943 -0.5972  0.9127 -2.3715
  943SOL     OW 2827   2.360   0.769   1.455  0.2067 -0.2934  0.2539
  943SOL    HW1 2828   2.359   0.773   1.352 -1.7531 -1.7347  2.3153
  943SOL    HW2 2829   2.313   0.849   1.496  0.6951  1.6712 -2.6406
  944SOL     OW 2830   1.227   0.641   1.951  0.3639 -0.2766 -0.4685
  944SOL    HW1 2831   1.255   0.620   2.048 -0.8331  1.4890  0.7057
  944SOL    HW2 2832   1.255   0.740   1.935 -0.4859  0.7696 -0.5427
  945SOL     OW 2833   2.270   2.723   1.439  0.3536 -0.0324 -0.0350
  945SOL    HW1 2834   2.317   2.740   1.523 -3.2877 -2.9314 -0.5945
  945SOL    HW2 2835   2.301   2.793   1.368 -0.0479  0.5055 -0.4043
  946SOL     OW 2836   0.539   1.289   0.562  0.3395 -0.0784 -0.1855
  946SOL    HW1 2837   0.542   1.227   0.644 -1.1899  0.2832 -0.2335
  946SOL    HW2 2838   0.507   1.241   0.477  0.2856  0.0214 -2.4363
  947SOL     OW 2839   1.443   2.271   0.919  0.4413  0.0895 -0.1357
  947SOL    HW1 2840   1.492   2.349   0.963 -1.7681  1.4955 -0.5756
  947SOL    HW2 2841   1.383   2.300   0.841  0.3590  1.1008 -1.9121
  948SOL     OW 2842   0.471   1.465   1.265 -0.2282  0.0545  0.4108
  948SOL    HW1 2843   0.552   1.444   1.209 -0.6101 -1.1734  1.1453
  948SOL    HW2 2844   0.400   1.402   1.233 -1.0945  1.4002 -0.6575
  949SOL     OW 2845   0.957   1.370   1.652  0.1499 -0.0171  0.0737
  949SOL    HW1 2846   0.950   1.465   1.614 -1.9005 -1.6584  0.7029
  949SOL    HW2 2847   0.947   1.298   1.579  1.6395 -0.7348 -0.8719
  950SOL     OW 2848   0.585   0.699   1.167 -0.4164 -0.1046 -0.2485
  950SOL    HW1 2849   0.672   0.734   1.209  2.5824 -0.4632  0.5224
  950SOL    HW2 2850   0.502   0.761   1.166  1.3998  1.0229  1.1141
  951SOL     OW 2851   0.730   2.085   1.831 -0.3156  0.0992  0.1734
  951SOL    HW1 2852   0.641   2.054   1.797  0.5327  0.5162 -2.2947
  951SOL    HW2 2853   0.802   2.038   1.772  2.3535 -0.4803  1.1659
  952SOL     OW 2854   1.055   1.723   3.009 -0.1402  0.4128 -0.2953
  952SOL    HW1 2855   1.048   1.822   3.031  0.9517 -2.8411 -0.6265
  952SOL    HW2 2856   1.104   1.676   3.087  1.3110 -0.1272  2.7588
  953SOL     OW 2857   0.865   2.829   0.078 -0.3242 -0.2277 -0.6875
  953SOL    HW1 2858   0.796   2.855   0.149  1.8784  0.0745 -0.5808
  953SOL    HW2 2859   0.950   2.888   0.101  1.5947 -0.2490 -0.7805
  954SOL     OW 2860   1.529   1.241   0.076 -0.3741 -0.7850 -0.1103
  954SOL    HW1 2861   1.579   1.259   3.101 -0.1805 -1.1057  0.8248
  954SOL    HW2 2862   1.489   1.330   0.115 -1.5715  4.0458  1.2307
  955SOL     OW 2863   0.121   2.732   3.033  0.1116  0.0643 -0.1144
  955SOL    HW1 2864   0.108   2.815   3.094 -2.4095 -2.4440 -1.5514
  955SOL    HW2 2865   0.047   2.740   2.962 -3.2209 -0.5965 -0.6115
  956SOL     OW 2866   1.000   0.671   1.131  0.1123  0.2177 -0.4090
  956SOL    HW1 2867   1.029   0.684   1.036  2.7462  0.7218  2.3061
  956SOL    HW2 2868   1.050   0.589   1.175  3.3569  0.6792 -0.7743
  957SOL     OW 2869   1.776   1.558   1.787 -0.2697  0.1710  0.5990
  957SOL    HW1 2870   1.688   1.595   1.747 -1.4684 -0.5386  0.9862
  957SOL    HW2 2871   1.764   1.465   1.828  0.6427  0.6720  1.1862
  958SOL     OW 2872   0.643   1.829   1.295  0.6934  0.0788 -0.3781
  958SOL    HW1 2873   0.670   1.747   1.241  0.2189  2.1353  1.3129
  958SOL    HW2 2874   0.604   1.900   1.229 -1.2159  0.4675 -0.7947
  959SOL     OW 2875   1.557   1.408   1.457 -0.0674  0.6392  0.4569
  959SOL    HW1 2876   1.587   1.485   1.512  0.5451  0.2698  1.9388
  959SOL    HW2 2877   1.462   1.409   1.423 -1.5357 -1.0387 -0.1624
  960SOL     OW 2878   0.231   1.192   0.024 -0.2729 -0.2292  0.2762
  960SOL    HW1 2879   0.295   1.248   0.083 -0.1431  0.1267  0.2538
  960SOL    HW2 2880   0.275   1.171   3.044 -2.0888 -0.5675 -3.8396
  961SOL     OW 2881   0.949   1.650   1.534  0.3771  0.8810 -0.5149
  961SOL    HW1 2882   1.036   1.703   1.536 -1.6552 -0.0482 -0.1244
  961SOL    HW2 2883   0.869   1.700   1.574 -1.1959  1.4451  1.1479
  962SOL     OW 2884   1.224   1.213   0.764 -0.0297  0.0999 -0.3841
  962SOL    HW1 2885   1.219   1.272   0.848  3.5972  0.5169  0.9901
  962SOL    HW2 2886   1.134   1.173   0.738  1.2645 -2.7581 -1.1369
  963SOL     OW 2887   1.479   1.873   2.940  0.3120 -0.3007 -0.2923
  963SOL    HW1 2888   1.561   1.924   2.915  0.1025  0.9564  1.6676
  963SOL    HW2 2889   1.495   1.802   3.012 -1.9497 -1.3610 -0.1264
  964SOL     OW 2890   0.462   3.008   0.218 -0.1768  0.6893 -0.2263
  964SOL    HW1 2891   0.441   2.981   0.314  2.9592  0.3181  0.8550
  964SOL    HW2 2892   0.438   2.931   0.158 -2.0427 -1.4323  2.4042
  965SOL     OW 2893   0.312   2.377   0.467 -0.3799 -0.6633  0.0585
  965SOL    HW1 2894   0.347   2.283   0.487 -0.6300  1.5285  1.7947
  965SOL    HW2 2895   0.245   2.373   0.392  0.3770 -1.4926  0.4659
  966SOL     OW 2896   0.172   1.581   2.789  0.8444  0.3084  0.4794
  966SOL    HW1 2897   0.081   1.563   2.742  0.7802 -2.4580 -0.3759
  966SOL    HW2 2898   0.164   1.576   2.890 -2.0509 -1.7096 -1.6857
  967SOL     OW 2899   2.960   0.090   2.364 -0.5597 -0.1520  0.3707
  967SOL    HW1 2900   3.060   0.095   2.387  1.8063  2.8942 -1.9933
  967SOL    HW2 2901   2.934   0.189   2.355  0.6880 -1.0805 -0.6134
  968SOL     OW 2902   2.211   0.342   0.238  0.2935 -0.5511  0.9177
  968SOL    HW1 2903   2.121   0.370   0.190 -1.9039  0.4197 -0.7655
  968SOL    HW2 2904   2.292   0.388   0.201 -0.5209 -0.7257  3.5920
  969SOL     OW 2905   0.313   0.837   1.907 -0.0784  0.1341  0.6926
  969SOL    HW1 2906   0.370   0.918   1.907 -2.0050 -2.8559 -1.8381
  969SOL    HW2 2907   0.261   0.836   1.995  0.5807 -0.0145 -0.4608
  970SOL     OW 2908   2.166   1.527   1.029 -0.6443  0.0463  0.4866
  970SOL    HW1 2909   2.241   1.483   0.976  1.8863 -0.6563 -0.6692
  970SOL    HW2 2910   2.098   1.460   1.063 -0.7144  0.3920  1.1803
  971SOL     OW 2911   2.625   2.962   1.359 -0.2697 -0.9847 -0.5079
  971SOL    HW1 2912   2.536   2.971   1.317 -0.0649  0.3438  0.9482
  971SOL    HW2 2913   2.660   3.056   1.369 -1.1593 -3.6669  0.2547
  972SOL     OW 2914   0.668   2.885   1.459  0.2475  0.1527  0.1051
  972SOL    HW1 2915   0.674   2.976   1.489 -0.2309 -3.4935 -3.0052
  972SOL    HW2 2916   0.579   2.863   1.418  1.0993  0.7677 -0.6921
  973SOL     OW 2917   0.350   0.321   3.011  0.0810  0.1013 -0.2567
  973SOL    HW1 2918   0.420   0.333   2.937  1.2792 -0.9462  0.1534
  973SOL    HW2 2919   0.258   0.311   2.971 -0.7709  0.0234 -1.6282
  974SOL     OW 2920   1.942   1.508   2.456  0.4726 -1.1977  0.0896
  974SOL    HW1 2921   1.912   1.497   2.358 -0.4443  1.0015  1.0186
  974SOL    HW2 2922   2.000   1.586   2.469 -3.5280  0.0917 -1.0878
  975SOL     OW 2923   0.121   2.985   1.519 -0.1412  0.1198  0.1981
  975SOL    HW1 2924   0.220   3.010   1.538  1.8520  1.6043  0.5421
  975SOL    HW2 2925   0.055   3.040   1.573 -2.0364 -0.9827  1.2518
  976SOL     OW 2926   0.351   2.034   2.259 -0.2993 -0.2284  0.1644
  976SOL    HW1 2927   0.256   2.042   2.290  2.4611 -2.6394  0.3596
  976SOL    HW2 2928   0.378   1.938   2.265 -1.2843  2.5077 -0.7593
  977SOL     OW 2929   0.797   2.591   0.491 -0.5191 -0.2045  0.0712
  977SOL    HW1 2930   0.729   2.541   0.436 -2.1052 -2.8029 -1.5518
  977SOL    HW2 2931   0.871   2.634   0.434  1.2574 -2.5455 -1.9845
  978SOL     OW 2932   0.043   1.520   2.441 -0.6392 -0.5432  0.0207
  978SOL    HW1 2933   0.144   1.519   2.424  1.0302  2.3268  0.6559
  978SOL    HW2 2934   0.017   1.496   2.537 -1.0655 -0.5503  0.5967
  979SOL     OW 2935   1.724   2.414   1.501 -0.2756  0.6512 -0.3085
  979SOL    HW1 2936   1.723   2.504   1.461  0.5567 -2.4287 -0.8538
  979SOL    HW2 2937   1.816   2.394   1.534 -0.6174 -0.2892 -1.2009
  980SOL     OW 2938   1.035   1.208   2.764  0.1515  0.1480  0.3059
  980SOL    HW1 2939   1.122   1.150   2.770  1.5520 -4.0318 -2.0937
  980SOL    HW2 2940   1.050   1.313   2.778  2.7645  3.6701 -1.6466
  981SOL     OW 2941   2.281   0.121   2.144 -0.5071 -0.8323  0.2606
  981SOL    HW1 2942   2.210   0.052   2.128 -0.1890  1.3187  0.4455
  981SOL    HW2 2943   2.272   0.189   2.071  2.2638  1.0890  1.0788
  982SOL     OW 2944   0.106   0.275   2.887  0.6433  0.4335 -0.2181
  982SOL    HW1 2945   0.023   0.333   2.913 -1.4831  2.9853  2.0275
  982SOL    HW2 2946   0.122   0.280   2.789 -1.5208  0.2285  0.5971
  983SOL     OW 2947   2.046   1.170   2.368 -0.2153  0.5976  0.6579
  983SOL    HW1 2948   2.000   1.203   2.453 -1.6201  2.0691  0.6181
  983SOL    HW2 2949   1.987   1.197   2.291 -1.0651  1.7633  0.7794
  984SOL     OW 2950   1.450   0.341   1.799  0.2162  0.3719 -0.2646
  984SOL    HW1 2951   1.364   0.376   1.759  1.3916 -2.6799 -0.8102
  984SOL    HW2 2952   1.489   0.400   1.870  0.5820 -2.4331 -1.1257
  985SOL     OW 2953   1.925   1.217   2.107 -0.5026  0.1001  0.3029
  985SOL    HW1 2954   1.884   1.132   2.076 -0.5215  0.2247 -0.1600
  985SOL    HW2 2955   2.023   1.221   2.071 -1.6165 -1.9281 -1.2903
  986SOL     OW 2956   2.336   0.529   1.610  0.4324 -0.2357  0.1079
  986SOL    HW1 2957   2.411   0.484   1.663  1.9357 -3.3789 -0.3832
  986SOL    HW2 2958   2.355   0.617   1.574 -1.2665 -1.3295  0.6397
  987SOL     OW 2959   2.698   0.312   1.264 -0.3310  0.4180 -0.7952
  987SOL    HW1 2960   2.721   0.322   1.362  1.3554  1.2695  0.2711
  987SOL    HW2 2961   2.611   0.258   1.254  0.0858 -0.5645  2.7836
  988SOL     OW 2962   3.084   0.894   2.020  0.0783  0.4405  0.0130
  988SOL    HW1 2963   0.013   0.853   1.932  0.5132 -1.8425  0.3228
  988SOL    HW2 2964   0.021   0.858   2.101  0.1004 -0.1417 -0.3323
  989SOL     OW 2965   2.143   1.829   0.174 -0.4759 -0.2654  0.3105
  989SOL    HW1 2966   2.175   1.913   0.124 -0.6463 -0.6474 -0.4512
  989SOL    HW2 2967   2.213   1.757   0.173 -1.7980  2.7616  0.7301
  990SOL     OW 2968   0.966   0.385   3.030  0.2672  0.6607  0.0193
  990SOL    HW1 2969   0.971   0.316   2.953  0.4426 -1.1011 -0.0962
  990SOL    HW2 2970   1.054   0.434   3.046 -3.4839  0.9567  1.7153
  991SOL     OW 2971   1.424   0.785   0.110 -0.1249 -0.2576  0.0112
  991SOL    HW1 2972   1.521   0.802   0.139  2.0566 -0.5317  0.9981
  991SOL    HW2 2973   1.415   0.696   0.066 -0.4201  3.0822  3.4452
  992SOL     OW 2974   1.871   1.296   0.296  0.2320  0.1495  0.1284
  992SOL    HW1 2975   1.822   1.381   0.323 -0.2571  1.3292 -0.3676
  992SOL    HW2 2976   1.847   1.273   0.199 -1.1139  1.6119  1.2474
  993SOL     OW 2977   2.976   0.517   0.712 -0.6314  0.6761  0.0494
  993SOL    HW1 2978   3.037   0.519   0.633  1.5544 -2.5583 -0.4826
  993SOL    HW2 2979   3.012   0.572   0.792  0.2491  0.6034 -0.1454
  994SOL     OW 2980   0.102   2.112   2.339 -0.4739  0.1241  0.4042
  994SOL    HW1 2981   0.028   2.152   2.387  2.7708 -3.2059 -0.0544
  994SOL    HW2 2982   0.111   2.159   2.251  1.4054 -0.9755 -1.2339
  995SOL     OW 2983   1.811   1.526   3.065  0.8792  0.1300  0.4827
  995SOL    HW1 2984   1.906   1.554   3.045 -0.9955 -1.3916 -1.5001
  995SOL    HW2 2985   1.809   1.440   0.008 -1.4107  0.2012 -0.0129
  996SOL     OW 2986   2.077   1.582   3.025  0.4523 -0.1996  0.3351
  996SOL    HW1 2987   2.124   1.673   3.036 -0.2147 -0.2000 -0.2049
  996SOL    HW2 2988   2.146   1.509   3.032 -0.2775 -0.0228 -0.2410
  997SOL     OW 2989   2.243   1.395   1.849  0.3557 -0.3994  0.4079
  997SOL    HW1 2990   2.324   1.363   1.791  0.7091  2.3726 -3.3876
  997SOL    HW2 2991   2.208   1.318   1.906  2.2205 -0.2420  2.1969
  998SOL     OW 2992   2.457   1.772   0.383  0.0412  0.1573 -0.1033
  998SOL    HW1 2993   2.524   1.694   0.377  2.5432 -0.3195 -0.1511
  998SOL    HW2 2994   2.399   1.780   0.463  2.0146 -2.1333 -2.3212
  999SOL     OW 2995   2.722   2.294   0.163 -0.1317 -0.4025  0.0820
  999SOL    HW1 2996   2.770   2.208   0.135  0.0839 -1.4499 -1.5136
  999SOL    HW2 2997   2.767   2.379   0.132 -1.3479  0.4614  0.0641
 1000SOL     OW 2998   0.992   0.312   1.905  0.4851 -0.0549 -0.3893
 1000SOL    HW1 2999   0.983   0.353   2.003 -1.6320  0.5870 -0.6585
 1000SOL    HW2 3000   0.936   0.371   1.845 -1.4278  0.9741 -0.5596
   3.11175   3.11175   3.11175
