1000 SPC/Fw water molecules t= 214.00000 step= 214000
 3000
    1SOL     OW    1   3.005   2.749   0.850 -0.2172 -0.6369  0.2447
    1SOL    HW1    2   3.088   2.740   0.908  0.5760 -1.0000  0.4752
    1SOL    HW2    3   2.989   2.848   0.833  0.8420 -0.0126 -0.8862
    2SOL     OW    4   1.769   1.626   2.044  0.2817  0.3964  0.0133
    2SOL    HW1    5   1.861   1.670   2.066 -2.0114  0.7349 -0.7653
    2SOL    HW2    6   1.769   1.529   2.079 -0.8957  0.6906  0.4076
    3SOL     OW    7   1.852   2.370   2.194 -0.5519  0.4276 -0.0701
    3SOL    HW1    8   1.845   2.447   2.259 -0.5105  0.7344  2.0383
    3SOL    HW2    9   1.932   2.312   2.212 -3.2803  3.1774  1.8043
    4SOL     OW   10   2.028   1.855   2.380 -0.1453  0.1692  0.2875
    4SOL    HW1   11   2.089   1.780   2.354 -0.2943  2.8256  1.4718
    4SOL    HW2   12   1.936   1.819   2.407 -1.9387  0.0411 -2.0528
    5SOL     OW   13   1.272   0.523   1.741 -0.3167 -0.4278  0.0522
    5SOL    HW1   14   1.360   0.472   1.737 -0.9005 -0.1447  1.5861
    5SOL    HW2   15   1.193   0.457   1.737 -1.0580 -3.3739 -2.2406
    6SOL     OW   16   2.701   0.559   2.866  0.4557  0.0090  0.5111
    6SOL    HW1   17   2.746   0.480   2.914 -2.0780 -0.6703  0.4996
    6SOL    HW2   18   2.642   0.522   2.791  0.3848  0.8738  0.9095
    7SOL     OW   19   0.591   1.491   1.415 -0.5342  0.0244 -0.6090
    7SOL    HW1   20   0.621   1.408   1.366 -0.9340  2.7948 -0.4673
    7SOL    HW2   21   0.599   1.571   1.354  0.5476  2.4402 -1.2102
    8SOL     OW   22   1.327   0.563   0.869  0.0847  0.2923 -0.0552
    8SOL    HW1   23   1.282   0.511   0.795  0.9456  2.0214  1.1585
    8SOL    HW2   24   1.317   0.512   0.959  0.4885  0.2008 -1.0082
    9SOL     OW   25   1.101   0.625   2.588 -0.3608  0.3407 -0.4591
    9SOL    HW1   26   1.135   0.677   2.508  3.2053 -0.3383 -0.1890
    9SOL    HW2   27   1.140   0.528   2.589  1.9969 -2.3352 -0.6160
   10SOL     OW   28   0.636   2.541   0.239  0.4768 -0.0784  0.2794
   10SOL    HW1   29   0.715   2.484   0.213 -0.6276  0.1280 -0.6243
   10SOL    HW2   30   0.635   2.623   0.179 -0.5939 -2.1529  0.7413
   11SOL     OW   31   0.673   1.265   0.011 -0.6194 -0.1665  0.2092
   11SOL    HW1   32   0.624   1.178   0.015  1.1020 -1.2983  1.1855
   11SOL    HW2   33   0.706   1.288   0.107 -2.7938 -0.2337 -0.4488
   12SOL     OW   34   0.328   0.391   1.561 -0.1840 -0.4360 -0.8904
   12SOL    HW1   35   0.296   0.311   1.506  1.1322  1.1104 -0.3990
   12SOL    HW2   36   0.362   0.368   1.654 -1.1192  2.3389 -4.2591
   13SOL     OW   37   0.950   0.008   0.354 -0.3097 -0.0210 -0.3999
   13SOL    HW1   38   1.022   0.033   0.287 -1.1356  0.3205 -4.1398
   13SOL    HW2   39   0.984   0.009   0.453  3.4048 -0.0794  0.3159
   14SOL     OW   40   0.978   2.327   1.199 -0.1436  0.5147 -0.4418
   14SOL    HW1   41   0.948   2.351   1.103 -1.3069  0.3394  0.4895
   14SOL    HW2   42   1.080   2.308   1.206 -2.0788 -2.7970 -1.7760
   15SOL     OW   43   2.751   1.250   1.867  0.3414  0.3404  0.3199
   15SOL    HW1   44   2.763   1.192   1.784  1.2930  0.8886 -1.4742
   15SOL    HW2   45   2.834   1.293   1.898 -2.3440  0.5715 -0.3178
   16SOL     OW   46   1.420   2.949   3.005  0.0512  0.1818  0.0231
   16SOL    HW1   47   1.385   3.040   3.031 -1.0990 -1.8319  0.0157
   16SOL    HW2   48   1.512   2.930   3.052  2.1363 -0.3940 -1.8938
   17SOL     OW   49   0.776   0.250   1.364 -0.4071  0.1746 -0.4802
   17SOL    HW1   50   0.717   0.198   1.306  3.1141 -0.9757  1.5742
   17SOL    HW2   51   0.751   0.345   1.368 -0.3109 -3.1655 -1.3003
   18SOL     OW   52   1.201   0.735   0.036 -0.4081 -0.3413 -0.1504
   18SOL    HW1   53   1.254   0.670   0.093 -1.8319  2.2459  0.4814
   18SOL    HW2   54   1.153   0.803   0.092  0.7770 -0.7383 -1.4605
   19SOL     OW   55   2.186   1.779   2.982 -0.0906 -0.4679  0.0666
   19SOL    HW1   56   2.150   1.864   3.025  0.9672 -1.4117  0.2400
   19SOL    HW2   57   2.116   1.705   2.994  2.3330  0.1882  0.8519
   20SOL     OW   58   2.007   1.585   1.692  0.4053  0.2506  0.0823
   20SOL    HW1   59   2.020   1.682   1.675 -0.5419  0.4880 -0.4724
   20SOL    HW2   60   1.921   1.544   1.659  1.4240  0.4677 -1.9611
   21SOL     OW   61   0.926   1.135   0.006 -0.1419 -0.2655 -0.1328
   21SOL    HW1   62   1.017   1.155   3.075  0.2679 -2.1887  1.7222
   21SOL    HW2   63   0.872   1.219   0.025 -1.3259 -1.7707  0.1060
   22SOL     OW   64   2.207   3.089   1.316  0.0747 -0.3645  0.2489
   22SOL    HW1   65   2.108   3.096   1.304  3.9642 -1.4309 -0.4280
   22SOL    HW2   66   2.253   3.035   1.239 -1.7126 -0.9777  0.0675
   23SOL     OW   67   3.019   0.840   1.654 -0.1292  0.0830  0.2721
   23SOL    HW1   68   3.100   0.862   1.708  0.9824 -1.9594 -2.8172
   23SOL    HW2   69   3.021   0.873   1.560  2.1916 -0.5156 -1.2447
   24SOL     OW   70   2.382   2.551   1.247  0.3139 -0.2546  0.1955
   24SOL    HW1   71   2.347   2.555   1.151  2.7437 -1.2811  0.2410
   24SOL    HW2   72   2.483   2.532   1.242  1.9612  0.9016 -0.6945
   25SOL     OW   73   1.778   2.795   2.661  0.2893  0.1710  0.3310
   25SOL    HW1   74   1.681   2.761   2.664  1.1569 -0.1173 -2.0959
   25SOL    HW2   75   1.829   2.786   2.570 -0.8178 -0.4865 -3.1940
   26SOL     OW   76   1.396   2.765   0.458  0.6282  0.0367  0.5378
   26SOL    HW1   77   1.475   2.698   0.463  0.3222  2.9346 -0.5070
   26SOL    HW2   78   1.350   2.762   0.365 -1.2117  1.4338  0.1736
   27SOL     OW   79   0.402   1.643   2.720 -0.6020  0.0791  0.3250
   27SOL    HW1   80   0.337   1.716   2.681 -1.4838  0.6181 -0.5650
   27SOL    HW2   81   0.485   1.631   2.662 -0.8851 -1.6356  2.6204
   28SOL     OW   82   2.981   1.192   1.483  0.4371 -0.0135  0.3912
   28SOL    HW1   83   2.983   1.283   1.438  0.0251  0.2629 -1.3111
   28SOL    HW2   84   3.051   1.206   1.556  0.5308 -0.0315  0.1842
   29SOL     OW   85   2.702   2.426   2.115 -0.4102  0.8863  0.1009
   29SOL    HW1   86   2.736   2.377   2.197  0.8568  1.1996  2.7834
   29SOL    HW2   87   2.695   2.354   2.039 -0.0095 -0.6608 -1.9586
   30SOL     OW   88   1.401   0.065   0.083 -0.2426  0.3398  0.4406
   30SOL    HW1   89   1.394   0.134   0.004  0.0650  0.0526  1.3493
   30SOL    HW2   90   1.453   0.102   0.156 -4.3659 -0.9033 -1.0914
   31SOL     OW   91   2.916   2.601   1.923  0.3822 -0.7594 -0.0240
   31SOL    HW1   92   2.823   2.602   1.967 -2.3614  0.6281 -2.0670
   31SOL    HW2   93   2.924   2.518   1.870 -0.7292  1.5429  1.7927
   32SOL     OW   94   1.289   1.509   1.363 -0.6315  0.4551 -0.2367
   32SOL    HW1   95   1.314   1.410   1.345  0.0031  1.5582 -0.0321
   32SOL    HW2   96   1.364   1.574   1.346 -1.7866  0.0492  2.6960
   33SOL     OW   97   0.095   2.565   2.754  0.2057  0.5705  0.2266
   33SOL    HW1   98   0.108   2.600   2.658  1.0785  0.4398 -1.3983
   33SOL    HW2   99   0.004   2.519   2.760  0.6208 -0.4082  0.7665
   34SOL     OW  100   1.822   0.275   0.881 -0.1843  0.2951  0.0071
   34SOL    HW1  101   1.896   0.249   0.814 -1.8624  0.5210  1.8302
   34SOL    HW2  102   1.752   0.331   0.833  0.9990 -0.3956  2.9598
   35SOL     OW  103   2.371   0.163   0.823 -0.4437 -0.2754  0.2288
   35SOL    HW1  104   2.353   0.071   0.784  0.4451  4.9327  0.1014
   35SOL    HW2  105   2.467   0.175   0.841 -0.5032  0.6887  0.3391
   36SOL     OW  106   1.945   2.809   2.432  0.3829 -0.3956 -0.2126
   36SOL    HW1  107   2.040   2.773   2.451  0.6263 -1.6866 -0.3342
   36SOL    HW2  108   1.959   2.912   2.424  0.1543  0.4806  0.0471
   37SOL     OW  109   1.134   2.526   2.404  0.0673 -0.6694 -0.2560
   37SOL    HW1  110   1.085   2.464   2.463  0.0007  0.2804 -0.6714
   37SOL    HW2  111   1.233   2.537   2.431  2.1077 -0.2002  2.3168
   38SOL     OW  112   2.632   0.084   2.637 -0.4052  0.1655  0.3997
   38SOL    HW1  113   2.642   3.085   2.644 -2.0230 -1.6889 -1.9876
   38SOL    HW2  114   2.534   0.115   2.613 -1.5419 -0.3240 -3.0374
   39SOL     OW  115   2.211   1.422   1.731 -0.0983  0.0753  0.0418
   39SOL    HW1  116   2.290   1.466   1.780  2.0129  0.3145 -0.8153
   39SOL    HW2  117   2.138   1.493   1.722  0.5174 -1.0291 -0.2981
   40SOL     OW  118   0.110   3.025   2.788  0.1755 -0.2013 -0.2059
   40SOL    HW1  119   0.178   3.095   2.818 -0.4937  1.2042 -2.0999
   40SOL    HW2  120   0.123   2.936   2.841  3.2904  2.9780 -0.1763
   41SOL     OW  121   1.695   0.638   0.814 -0.0105 -0.2474  0.1820
   41SOL    HW1  122   1.632   0.684   0.890  0.4733  0.5094 -1.0844
   41SOL    HW2  123   1.789   0.639   0.852  1.9388  1.2458  1.0213
   42SOL     OW  124   0.561   0.791   1.471  0.4117  0.0576  0.0629
   42SOL    HW1  125   0.496   0.723   1.431  0.6629 -1.1302 -1.5864
   42SOL    HW2  126   0.606   0.750   1.558 -2.3239 -0.0295 -2.1387
   43SOL     OW  127   2.846   1.291   2.768 -0.3154 -0.7720  0.8817
   43SOL    HW1  128   2.801   1.234   2.696 -0.9163 -1.8584  1.8622
   43SOL    HW2  129   2.816   1.272   2.861 -0.9630  0.8340 -1.7058
   44SOL     OW  130   3.076   2.827   0.491 -0.4285 -0.1677 -0.2057
   44SOL    HW1  131   0.006   2.916   0.527  0.3125 -1.2328  1.6315
   44SOL    HW2  132   0.022   2.746   0.512 -2.8036  2.4013 -1.2566
   45SOL     OW  133   0.108   2.471   1.996  0.7939  0.0733  0.6999
   45SOL    HW1  134   0.073   2.561   1.971  2.4503  0.5599  0.6372
   45SOL    HW2  135   0.145   2.417   1.915 -0.0806  0.2943  1.4208
   46SOL     OW  136   2.296   2.501   2.308 -0.2017 -0.2131  0.4510
   46SOL    HW1  137   2.338   2.446   2.377  0.6556 -0.0765 -4.1916
   46SOL    HW2  138   2.360   2.524   2.229  1.3016 -0.1418 -2.0525
   47SOL     OW  139   2.224   1.939   1.562 -0.0406 -0.8564 -0.6314
   47SOL    HW1  140   2.289   1.969   1.636 -1.6194  0.7939  1.3414
   47SOL    HW2  141   2.142   1.907   1.612  0.7723  0.2712 -3.4755
   48SOL     OW  142   0.700   1.609   0.384  0.2127  0.6597  0.1023
   48SOL    HW1  143   0.622   1.626   0.317 -1.3667 -1.7805 -1.5641
   48SOL    HW2  144   0.794   1.618   0.346  1.1369 -0.4550 -0.5959
   49SOL     OW  145   2.532   0.457   2.682  0.2293  0.0744 -0.0848
   49SOL    HW1  146   2.491   0.366   2.665 -0.0936  0.3233 -0.3443
   49SOL    HW2  147   2.486   0.529   2.622  0.2383  4.3997 -0.6923
   50SOL     OW  148   2.322   1.091   0.286  0.1607 -0.1030 -0.0272
   50SOL    HW1  149   2.222   1.118   0.294 -0.8347  1.7458  0.8201
   50SOL    HW2  150   2.318   0.988   0.289 -0.2816 -0.2927 -2.7622
   51SOL     OW  151   1.960   0.647   1.141 -0.2025 -0.4022  0.5561
   51SOL    HW1  152   1.890   0.575   1.144  1.2192  0.8882  0.1650
   51SOL    HW2  153   2.044   0.622   1.198  0.3339 -1.1997  1.5169
   52SOL     OW  154   1.225   1.173   3.004 -0.3302 -0.1175  0.0089
   52SOL    HW1  155   1.268   1.216   3.087 -1.8600 -1.2574  0.5232
   52SOL    HW2  156   1.266   1.079   2.986 -1.1870 -2.9358  1.4004
   53SOL     OW  157   0.997   1.641   1.995 -0.1426 -0.3666 -0.1201
   53SOL    HW1  158   0.915   1.604   2.041  0.9200  2.1461  0.3512
   53SOL    HW2  159   1.011   1.597   1.901  1.1052 -0.1904 -0.1132
   54SOL     OW  160   2.081   0.283   1.187 -0.0483 -0.1233  0.0860
   54SOL    HW1  161   1.997   0.252   1.153  3.8152  0.2336  1.7633
   54SOL    HW2  162   2.148   0.247   1.122 -0.6290  0.3977  0.9408
   55SOL     OW  163   2.588   2.547   0.870 -0.4078 -0.9446  0.8501
   55SOL    HW1  164   2.494   2.571   0.899  2.3706  0.1628  0.7463
   55SOL    HW2  165   2.649   2.631   0.870  1.6948  2.3295 -1.3864
   56SOL     OW  166   0.689   2.827   1.479  0.0152 -0.3989 -0.3368
   56SOL    HW1  167   0.738   2.753   1.423  0.2129  0.1051  1.5348
   56SOL    HW2  168   0.759   2.876   1.527 -1.4567 -1.7832 -0.1481
   57SOL     OW  169   1.550   1.319   0.324  0.4594 -0.8339  0.1493
   57SOL    HW1  170   1.507   1.300   0.416 -0.9288  2.8940  0.9188
   57SOL    HW2  171   1.633   1.377   0.336 -0.4130  0.0224  0.8859
   58SOL     OW  172   2.950   0.576   2.386 -0.2481  0.5539 -0.4583
   58SOL    HW1  173   2.924   0.635   2.302  0.7650  0.5088 -1.7196
   58SOL    HW2  174   2.868   0.545   2.435  0.1017  0.8205  1.3196
   59SOL     OW  175   1.117   2.666   2.694  0.4246  0.0667 -0.0646
   59SOL    HW1  176   1.205   2.648   2.746  1.9841  1.2417 -0.0572
   59SOL    HW2  177   1.068   2.575   2.676  0.6824 -2.9551  2.4739
   60SOL     OW  178   2.251   2.617   0.706 -0.2769  0.6633 -0.4437
   60SOL    HW1  179   2.256   2.571   0.613  0.9699  0.6654 -1.8338
   60SOL    HW2  180   2.229   2.716   0.690  1.6518  2.4029  1.6059
   61SOL     OW  181   1.202   2.300   0.853 -0.1933  0.3825 -0.1698
   61SOL    HW1  182   1.184   2.400   0.866 -2.1295 -0.9204 -0.7222
   61SOL    HW2  183   1.210   2.251   0.940 -1.1528  1.6328 -1.1539
   62SOL     OW  184   2.557   2.205   2.687  0.3701  0.2220  0.1995
   62SOL    HW1  185   2.470   2.155   2.699 -0.8991  0.6607  1.3189
   62SOL    HW2  186   2.633   2.143   2.714 -2.8358  3.0357 -1.3121
   63SOL     OW  187   2.389   0.531   2.895  0.4382 -0.4128  0.2057
   63SOL    HW1  188   2.443   0.496   2.813 -0.3418 -1.4143 -1.0007
   63SOL    HW2  189   2.397   0.467   2.973 -1.4621  0.7995  0.9851
   64SOL     OW  190   1.134   0.907   2.704 -0.1027  0.1648  0.0704
   64SOL    HW1  191   1.066   0.961   2.755  0.1863 -3.0904  1.0732
   64SOL    HW2  192   1.094   0.821   2.676 -0.1225 -1.9205  0.6788
   65SOL     OW  193   1.231   2.075   0.385 -0.2415 -0.2673  0.0253
   65SOL    HW1  194   1.213   2.133   0.468  0.2194  2.4295  0.0364
   65SOL    HW2  195   1.297   2.120   0.325  0.4097 -1.1517  0.6379
   66SOL     OW  196   0.201   1.222   1.851 -0.0270  0.3440  0.0161
   66SOL    HW1  197   0.237   1.271   1.934  0.4589 -0.3140  0.6335
   66SOL    HW2  198   0.281   1.165   1.819  0.4322 -1.7002 -0.9659
   67SOL     OW  199   2.383   0.030   2.469 -0.6058  0.2387  0.4102
   67SOL    HW1  200   2.478   0.075   2.444  2.7572  2.8294 -1.1469
   67SOL    HW2  201   2.319   0.040   2.391  0.3627  2.5526 -0.1474
   68SOL     OW  202   0.481   2.282   1.172 -0.1844  0.2555 -0.0549
   68SOL    HW1  203   0.544   2.301   1.251  0.2119  1.4958  2.6098
   68SOL    HW2  204   0.389   2.243   1.194 -0.9294 -0.7013 -2.5705
   69SOL     OW  205   0.971   2.682   0.547 -0.4740 -0.5566 -0.1820
   69SOL    HW1  206   0.961   2.708   0.448 -0.7181  1.5031 -1.6654
   69SOL    HW2  207   0.980   2.768   0.603 -0.7152  1.8781 -0.3017
   70SOL     OW  208   3.051   1.034   2.871  0.1716  0.0622  0.1232
   70SOL    HW1  209   3.084   1.128   2.889 -0.4292  0.5963  0.4538
   70SOL    HW2  210   3.006   1.026   2.779 -2.3758 -0.7351 -0.6487
   71SOL     OW  211   0.099   1.517   2.693 -0.1589  0.6716 -0.0416
   71SOL    HW1  212   0.182   1.477   2.646 -0.7314 -2.4109  1.1152
   71SOL    HW2  213   0.054   1.581   2.626 -0.3169  0.1677  3.0730
   72SOL     OW  214   3.029   2.172   0.367 -0.2453  0.4424  0.0716
   72SOL    HW1  215   3.025   2.081   0.317 -0.0275  1.9748 -3.0764
   72SOL    HW2  216   3.036   2.156   0.464 -0.8887 -2.3649 -1.0412
   73SOL     OW  217   0.884   1.388   0.174 -0.0150  0.0895  0.3998
   73SOL    HW1  218   0.933   1.324   0.235 -0.4172 -0.6668 -2.7963
   73SOL    HW2  219   0.915   1.483   0.193  0.8616  1.3343 -1.3178
   74SOL     OW  220   0.100   0.490   0.053  0.4011  0.2060  0.6086
   74SOL    HW1  221   0.162   0.425   0.101 -0.0458  1.6230 -0.6583
   74SOL    HW2  222   0.140   0.508   3.071 -0.6505 -1.2842 -1.4851
   75SOL     OW  223   2.036   1.434   1.982 -0.2372  0.0320  0.3211
   75SOL    HW1  224   2.070   1.433   1.887 -0.2091  2.1844  1.7355
   75SOL    HW2  225   2.053   1.520   2.024 -0.1579 -3.0136 -0.5889
   76SOL     OW  226   2.084   2.739   1.593 -0.4182  0.0520 -0.2167
   76SOL    HW1  227   2.153   2.675   1.556 -2.8359  0.1424 -0.2506
   76SOL    HW2  228   2.024   2.679   1.660 -4.0152 -0.4627  1.3888
   77SOL     OW  229   2.654   0.360   1.164 -0.2487  0.2673  0.0760
   77SOL    HW1  230   2.726   0.291   1.184 -0.0003  1.1917  0.9771
   77SOL    HW2  231   2.692   0.446   1.203 -1.2760 -0.5659 -0.7903
   78SOL     OW  232   1.674   1.016   0.014 -0.7155 -0.7313  0.2586
   78SOL    HW1  233   1.634   0.924   0.032 -0.9016 -0.9734  2.6261
   78SOL    HW2  234   1.611   1.069   3.060  1.4377  2.3752 -1.8364
   79SOL     OW  235   0.582   1.889   1.852  0.2039 -0.4098  0.6199
   79SOL    HW1  236   0.617   1.973   1.894 -1.2158  0.5935  0.2866
   79SOL    HW2  237   0.658   1.822   1.846 -1.3156 -1.5706  2.0074
   80SOL     OW  238   1.605   1.106   0.977  0.0300 -0.1360 -0.3311
   80SOL    HW1  239   1.600   1.140   1.073  3.1135 -0.1998  1.4319
   80SOL    HW2  240   1.691   1.137   0.926 -0.2821 -1.1585  1.1443
   81SOL     OW  241   0.309   0.351   1.108  0.4844  0.1515  0.0107
   81SOL    HW1  242   0.217   0.339   1.065 -1.4483  0.0429  0.0599
   81SOL    HW2  243   0.369   0.398   1.044  2.3752  0.5051 -3.0554
   82SOL     OW  244   1.545   2.368   1.733  0.0698 -0.2819  0.1088
   82SOL    HW1  245   1.496   2.396   1.813 -0.5354 -0.8810 -2.5578
   82SOL    HW2  246   1.580   2.276   1.742  0.0708  3.3022 -0.0001
   83SOL     OW  247   0.559   2.926   1.272 -0.2862 -0.0955  0.4285
   83SOL    HW1  248   0.463   2.910   1.290  1.2724  0.2417  0.5135
   83SOL    HW2  249   0.618   2.882   1.345  0.5743  1.9867  1.1078
   84SOL     OW  250   0.377   0.943   2.890  0.1245 -0.0691 -0.4437
   84SOL    HW1  251   0.285   0.902   2.910  0.3746 -0.0170  0.0278
   84SOL    HW2  252   0.420   0.885   2.821 -1.0053 -1.4233  0.4181
   85SOL     OW  253   2.939   2.398   1.706  0.5881  0.0240 -0.2997
   85SOL    HW1  254   2.948   2.419   1.604 -2.3509 -2.1820 -0.4706
   85SOL    HW2  255   2.837   2.393   1.728  0.1761  0.8539 -1.8004
   86SOL     OW  256   2.956   2.740   1.663 -0.1671 -0.1173 -0.6267
   86SOL    HW1  257   2.929   2.676   1.742 -0.6958 -3.4501  4.3461
   86SOL    HW2  258   3.052   2.770   1.674 -3.4512  0.7240  2.0463
   87SOL     OW  259   2.969   2.454   2.804 -0.4691 -0.2557  0.0281
   87SOL    HW1  260   2.896   2.407   2.850  0.1149 -1.5390  1.9489
   87SOL    HW2  261   2.929   2.514   2.728 -1.8458  1.4580 -1.8660
   88SOL     OW  262   0.267   1.836   1.323 -0.3543 -0.1732  0.2254
   88SOL    HW1  263   0.252   1.936   1.318  1.4832  3.0136  0.9233
   88SOL    HW2  264   0.322   1.802   1.242  0.6725  0.5143 -0.4938
   89SOL     OW  265   0.849   0.166   1.815  0.3966  0.1412  0.4410
   89SOL    HW1  266   0.792   0.130   1.736  0.4890 -1.4944 -1.3257
   89SOL    HW2  267   0.922   0.106   1.853 -0.5220  0.4085 -2.6532
   90SOL     OW  268   0.276   1.870   1.873  0.3091 -0.3203 -0.7048
   90SOL    HW1  269   0.247   1.906   1.781  0.4040 -1.9992 -1.9852
   90SOL    HW2  270   0.372   1.830   1.868  1.3559 -0.1243  1.2956
   91SOL     OW  271   1.146   1.799   0.391  0.1747  0.1303 -0.1915
   91SOL    HW1  272   1.220   1.739   0.417 -0.0323  1.2624 -2.0736
   91SOL    HW2  273   1.164   1.896   0.427  0.6715  0.2441 -1.4237
   92SOL     OW  274   2.632   0.064   1.089  0.0047  0.8431 -0.2321
   92SOL    HW1  275   2.665   0.121   1.011 -1.3363  2.9219 -0.0576
   92SOL    HW2  276   2.573   0.126   1.143  0.7746 -0.1873 -1.4866
   93SOL     OW  277   2.650   1.496   3.024 -0.2075  0.5884 -0.8369
   93SOL    HW1  278   2.735   1.529   2.984  0.3561  0.6524  4.1691
   93SOL    HW2  279   2.573   1.563   3.011  1.2599 -0.5897  0.5853
   94SOL     OW  280   2.528   2.381   2.431 -0.0390  0.7288 -0.3916
   94SOL    HW1  281   2.526   2.335   2.524  1.4795 -1.0378  1.9253
   94SOL    HW2  282   2.582   2.332   2.361 -0.5248  1.8129  1.3627
   95SOL     OW  283   1.770   0.450   1.093 -0.1945  0.4472 -0.5254
   95SOL    HW1  284   1.672   0.474   1.069 -2.0046 -1.9454 -1.6043
   95SOL    HW2  285   1.803   0.391   1.021 -1.5000  0.1129  1.8575
   96SOL     OW  286   2.743   2.905   1.744  0.2634  0.0936  0.4315
   96SOL    HW1  287   2.819   2.850   1.702 -0.0470  0.9629 -0.1364
   96SOL    HW2  288   2.707   2.982   1.684  1.6816 -0.1330 -2.3600
   97SOL     OW  289   2.424   0.159   1.244 -0.1478 -0.0524  0.0351
   97SOL    HW1  290   2.323   0.144   1.260 -0.4376  0.7152  1.1774
   97SOL    HW2  291   2.465   0.231   1.294  0.0624 -1.3111 -2.1001
   98SOL     OW  292   1.473   2.263   1.314 -0.2051 -1.0593 -0.1192
   98SOL    HW1  293   1.563   2.221   1.332 -1.2399 -0.3802 -1.2610
   98SOL    HW2  294   1.423   2.283   1.398 -2.2768  1.0377 -0.7388
   99SOL     OW  295   2.736   3.057   1.961 -0.1708 -0.6844 -0.4188
   99SOL    HW1  296   2.737   2.992   1.884 -1.6563  2.1974 -0.4468
   99SOL    HW2  297   2.645   3.057   2.004 -0.4193  0.6837 -0.6126
  100SOL     OW  298   0.102   1.030   2.488 -0.0581 -0.2135 -0.5866
  100SOL    HW1  299   0.095   1.114   2.432 -0.6637 -1.2768  0.8187
  100SOL    HW2  300   0.190   1.037   2.538  0.6283 -0.0356  0.7758
  101SOL     OW  301   1.880   0.673   0.059 -1.2441  0.6421  0.4027
  101SOL    HW1  302   1.908   0.573   0.032 -1.1777 -0.5576 -1.8727
  101SOL    HW2  303   1.947   0.713   0.132  0.1599 -0.7969  3.2074
  102SOL     OW  304   0.140   0.580   1.173 -0.0668 -0.3607 -0.3487
  102SOL    HW1  305   0.190   0.491   1.173  1.6421  0.0420 -0.1580
  102SOL    HW2  306   0.112   0.601   1.081 -0.7580 -0.4182  2.0930
  103SOL     OW  307   2.639   0.902   1.925 -0.3661 -0.2612  0.0425
  103SOL    HW1  308   2.710   0.833   1.950  1.3119  0.6710 -0.2181
  103SOL    HW2  309   2.633   0.974   2.003  2.1621  0.7915  0.8124
  104SOL     OW  310   0.283   0.386   2.626 -0.0806  0.0016  0.5042
  104SOL    HW1  311   0.235   0.323   2.563  2.0304  0.3367  2.2976
  104SOL    HW2  312   0.377   0.347   2.646  2.2778 -1.9933 -0.3865
  105SOL     OW  313   2.089   1.250   1.544  0.1227 -0.3116 -0.3619
  105SOL    HW1  314   1.996   1.219   1.561  2.0289 -0.9597 -0.4744
  105SOL    HW2  315   2.124   1.312   1.618 -0.2729 -0.6684 -2.3297
  106SOL     OW  316   1.075   0.025   0.590 -0.4897 -0.5866  0.3411
  106SOL    HW1  317   1.144   0.085   0.638 -1.7900  1.1385 -2.0308
  106SOL    HW2  318   1.069   3.042   0.638 -1.1556  2.0395 -2.8291
  107SOL     OW  319   0.310   1.591   1.464 -0.4387 -0.5027  0.0040
  107SOL    HW1  320   0.409   1.573   1.481 -0.3515 -0.1208  1.4596
  107SOL    HW2  321   0.291   1.684   1.426 -1.2934 -2.3171 -0.9374
  108SOL     OW  322   0.006   2.905   2.409  0.2341 -0.1297  0.5130
  108SOL    HW1  323   0.101   2.914   2.446 -1.4619  1.6345 -0.3464
  108SOL    HW2  324   3.044   2.952   2.468  2.7367 -0.1480  1.0978
  109SOL     OW  325   1.626   0.191   0.232 -0.2947 -0.2692 -0.0114
  109SOL    HW1  326   1.571   0.278   0.242 -0.5152  1.2801 -0.2042
  109SOL    HW2  327   1.694   0.201   0.158  0.6126 -0.9690  0.8546
  110SOL     OW  328   0.483   2.077   2.734  0.3067  0.1654  0.2997
  110SOL    HW1  329   0.483   2.170   2.695 -1.6616 -0.9248 -0.6969
  110SOL    HW2  330   0.569   2.066   2.782  0.6483  1.2092  0.9974
  111SOL     OW  331   1.369   2.741   2.015  0.2589  0.1470  0.0786
  111SOL    HW1  332   1.334   2.762   2.110 -1.9422 -0.7519  3.0581
  111SOL    HW2  333   1.292   2.732   1.950  2.0954  0.8403  0.5440
  112SOL     OW  334   1.788   2.465   2.622 -0.5402 -0.3607 -0.0106
  112SOL    HW1  335   1.709   2.466   2.683  3.0880  0.9197  1.8324
  112SOL    HW2  336   1.873   2.508   2.659 -3.5361  0.4995 -0.4578
  113SOL     OW  337   2.077   2.696   1.926 -0.3098  0.2444  0.1392
  113SOL    HW1  338   2.069   2.667   2.022 -0.8051 -0.7126 -0.7001
  113SOL    HW2  339   2.102   2.618   1.865  1.1376 -0.3188 -1.9146
  114SOL     OW  340   2.924   0.862   0.620  0.1054  0.1090  0.0522
  114SOL    HW1  341   2.888   0.868   0.716 -1.8662 -0.9849 -1.1671
  114SOL    HW2  342   2.917   0.952   0.573 -1.1888  1.7644  1.3404
  115SOL     OW  343   0.284   1.181   2.919  0.0171  0.1416  0.1318
  115SOL    HW1  344   0.329   1.241   2.850 -0.3494  1.5949  0.3652
  115SOL    HW2  345   0.331   1.089   2.916  2.9927 -1.6468 -0.6271
  116SOL     OW  346   0.308   1.357   2.056 -0.1260 -0.1186 -0.5925
  116SOL    HW1  347   0.368   1.425   2.013 -0.1702 -1.8785  1.5335
  116SOL    HW2  348   0.222   1.409   2.076  0.1989  0.8783 -0.5578
  117SOL     OW  349   2.793   0.093   0.685  0.1479  0.3083  0.2829
  117SOL    HW1  350   2.881   0.115   0.642 -3.5787 -5.2537 -0.5545
  117SOL    HW2  351   2.728   0.115   0.611  0.9867 -0.1478  0.6264
  118SOL     OW  352   1.244   1.857   1.751  0.1428  0.5293  0.2482
  118SOL    HW1  353   1.305   1.775   1.767 -0.7021 -0.4423 -2.5387
  118SOL    HW2  354   1.192   1.890   1.833  0.5921  1.5942 -3.2091
  119SOL     OW  355   1.161   2.374   0.240 -0.1596 -0.4975 -0.2097
  119SOL    HW1  356   1.097   2.361   0.315  3.3282  0.0967 -0.4340
  119SOL    HW2  357   1.251   2.324   0.255  0.4079  0.8122 -1.2403
  120SOL     OW  358   0.361   1.071   2.579  0.6241 -0.2406  0.7109
  120SOL    HW1  359   0.397   1.163   2.576  0.0181 -0.7696  1.1827
  120SOL    HW2  360   0.428   0.995   2.606  0.5805 -1.4170  1.2993
  121SOL     OW  361   2.076   2.793   1.111 -0.5395 -0.5071 -0.1806
  121SOL    HW1  362   2.015   2.867   1.081  0.2116 -2.5994  2.1778
  121SOL    HW2  363   2.177   2.824   1.112  1.7506  2.6147 -0.1308
  122SOL     OW  364   2.427   2.182   1.996 -0.3769 -0.4632 -0.2049
  122SOL    HW1  365   2.408   2.129   2.083  1.0869 -0.0935  1.1716
  122SOL    HW2  366   2.385   2.275   2.008  1.4862  0.8251 -0.2197
  123SOL     OW  367   0.041   3.066   0.612  0.2209 -0.3606 -0.0094
  123SOL    HW1  368   3.104   0.050   0.624  2.2401 -0.3380  2.2740
  123SOL    HW2  369   0.144   3.076   0.607 -0.4312 -0.9476 -1.2818
  124SOL     OW  370   1.793   0.787   2.437 -0.4048  0.6263 -0.2109
  124SOL    HW1  371   1.707   0.793   2.382 -1.2765  0.0064 -2.0345
  124SOL    HW2  372   1.874   0.761   2.378  1.1753  1.7016  0.3356
  125SOL     OW  373   0.431   1.438   0.583 -0.0489 -0.0925  0.1763
  125SOL    HW1  374   0.503   1.383   0.540  4.3241  0.0374  0.5325
  125SOL    HW2  375   0.475   1.498   0.655  1.0434 -1.0033 -0.3042
  126SOL     OW  376   2.529   1.604   0.533 -0.2536  0.4945  0.3095
  126SOL    HW1  377   2.538   1.501   0.544  1.1012 -0.8290  1.1271
  126SOL    HW2  378   2.568   1.652   0.615  1.3943 -1.5668 -1.4028
  127SOL     OW  379   0.112   2.003   1.654  0.2416 -0.0786  0.1262
  127SOL    HW1  380   0.055   2.012   1.565 -2.8669  1.0863 -1.7780
  127SOL    HW2  381   0.091   2.082   1.709  0.6765 -0.1171  1.9399
  128SOL     OW  382   0.821   0.557   2.660 -0.0855 -0.6299  0.3314
  128SOL    HW1  383   0.922   0.585   2.669  3.3507  0.8485  0.7752
  128SOL    HW2  384   0.801   0.473   2.607  2.5830  0.4770  1.2673
  129SOL     OW  385   2.540   0.979   0.910 -0.2881 -0.1584  0.6849
  129SOL    HW1  386   2.485   0.966   0.825 -3.1088  1.9784 -3.3538
  129SOL    HW2  387   2.481   1.008   0.990 -2.5209  1.5315 -2.1955
  130SOL     OW  388   2.466   1.514   1.396 -0.1857  0.0785  0.6668
  130SOL    HW1  389   2.470   1.423   1.436  0.3294  3.6954 -2.7841
  130SOL    HW2  390   2.472   1.593   1.465  1.0303 -0.1545  1.9685
  131SOL     OW  391   2.707   0.796   2.996 -0.0405 -0.0514  0.0831
  131SOL    HW1  392   2.804   0.835   3.006  1.4447  0.1572 -0.6142
  131SOL    HW2  393   2.706   0.698   2.962  0.8079 -1.2703 -2.7771
  132SOL     OW  394   2.705   2.199   1.981 -0.1354  0.0623 -0.1567
  132SOL    HW1  395   2.602   2.189   1.981 -0.5101 -2.0802 -0.5114
  132SOL    HW2  396   2.751   2.133   2.046  0.1682  1.8311 -0.7962
  133SOL     OW  397   0.388   1.183   0.917 -0.0266 -0.2153  1.0819
  133SOL    HW1  398   0.323   1.225   0.848 -1.5884 -0.9750 -0.4235
  133SOL    HW2  399   0.430   1.255   0.974  0.2163 -0.9027  1.6781
  134SOL     OW  400   0.265   1.289   0.061 -0.0471 -0.2961  0.2605
  134SOL    HW1  401   0.165   1.309   0.063  1.4314 -0.3357  2.3744
  134SOL    HW2  402   0.283   1.251   3.073 -0.2904 -1.9585  4.3762
  135SOL     OW  403   2.087   1.673   1.244  0.5215 -0.1797 -0.1263
  135SOL    HW1  404   2.114   1.585   1.289 -0.3576 -0.1114  0.8167
  135SOL    HW2  405   2.010   1.649   1.181 -0.0572  0.9377  3.3592
  136SOL     OW  406   2.426   0.958   0.665  0.1295  0.1144 -0.0621
  136SOL    HW1  407   2.452   0.923   0.574 -0.4987  0.3820  3.1037
  136SOL    HW2  408   2.329   0.998   0.666  2.3158  0.8870 -1.8219
  137SOL     OW  409   2.693   1.711   1.029 -0.1335 -0.3086  0.1874
  137SOL    HW1  410   2.660   1.805   1.047  1.0688 -1.4688 -2.6628
  137SOL    HW2  411   2.622   1.646   1.059  0.1271  1.7111 -2.6713
  138SOL     OW  412   1.692   0.505   1.354 -0.1792 -0.0862  0.1625
  138SOL    HW1  413   1.755   0.464   1.286  1.3662 -0.2516 -2.6127
  138SOL    HW2  414   1.717   0.474   1.448  3.7167  0.3254 -0.0689
  139SOL     OW  415   2.189   0.144   2.842  0.8809 -0.3874  0.1947
  139SOL    HW1  416   2.166   0.238   2.874  1.2041 -0.5648 -1.1508
  139SOL    HW2  417   2.246   0.089   2.907 -1.0638 -1.5324  2.5182
  140SOL     OW  418   1.693   1.841   2.197  0.1314  0.3320  0.0719
  140SOL    HW1  419   1.766   1.914   2.199  0.2187 -0.4316  0.0877
  140SOL    HW2  420   1.727   1.770   2.131  1.1823 -1.3316  0.1501
  141SOL     OW  421   1.849   1.985   0.986 -0.3110  0.0932  0.5244
  141SOL    HW1  422   1.942   2.006   1.022 -1.4714  3.1684 -0.0947
  141SOL    HW2  423   1.796   1.926   1.049  0.2882 -1.6433  0.2155
  142SOL     OW  424   3.090   0.742   0.126  0.3305 -0.0339  0.3329
  142SOL    HW1  425   0.027   0.649   0.103  1.1945  0.8619 -4.1768
  142SOL    HW2  426   3.098   0.766   0.223  2.4212 -0.7059 -2.6591
  143SOL     OW  427   0.253   2.138   2.868  0.4441  0.4646 -0.1180
  143SOL    HW1  428   0.238   2.110   2.967 -4.2156  1.9632 -0.2667
  143SOL    HW2  429   0.341   2.105   2.829 -2.3119  0.9283  2.9511
  144SOL     OW  430   0.816   2.922   1.851  0.2703 -0.2765 -0.1778
  144SOL    HW1  431   0.828   2.939   1.749  1.1531  1.6461 -0.9789
  144SOL    HW2  432   0.839   2.827   1.875  0.4047 -1.0805 -0.4051
  145SOL     OW  433   2.184   1.405   0.288  0.6559  0.0383  0.2461
  145SOL    HW1  434   2.110   1.471   0.291  1.1670 -0.4612  1.7313
  145SOL    HW2  435   2.271   1.436   0.245  1.3162  0.3562  2.2403
  146SOL     OW  436   2.563   2.646   3.034  0.1763  0.0388  0.8262
  146SOL    HW1  437   2.664   2.646   3.044 -0.0686  0.2390  0.0882
  146SOL    HW2  438   2.539   2.578   2.961 -1.0395 -2.3580  2.3589
  147SOL     OW  439   2.819   2.722   1.064  0.1690 -0.0701  0.4345
  147SOL    HW1  440   2.735   2.779   1.081 -1.0551 -0.1275  0.1708
  147SOL    HW2  441   2.862   2.723   0.967  0.5863  0.4132 -1.2033
  148SOL     OW  442   1.524   2.948   2.455 -0.5681  0.4546 -0.9207
  148SOL    HW1  443   1.438   2.925   2.408  0.6791 -1.5841  0.6376
  148SOL    HW2  444   1.511   2.972   2.553 -0.8979 -2.2294 -1.5568
  149SOL     OW  445   1.180   0.352   2.552  0.2657  0.1316 -0.6797
  149SOL    HW1  446   1.257   0.296   2.514 -2.2565  2.8565  0.8655
  149SOL    HW2  447   1.101   0.339   2.486 -0.9995  0.1877  1.6570
  150SOL     OW  448   1.019   2.900   0.726  0.3554 -0.0824 -0.8564
  150SOL    HW1  449   0.923   2.917   0.766 -0.7239  0.3988 -0.6074
  150SOL    HW2  450   1.092   2.906   0.795 -1.9602  0.7263 -0.8483
  151SOL     OW  451   2.897   1.763   0.184 -0.2805  0.3748  0.3577
  151SOL    HW1  452   2.818   1.705   0.157  0.6727  1.0110  0.7238
  151SOL    HW2  453   2.978   1.745   0.124  1.7213  1.0143 -1.0187
  152SOL     OW  454   0.065   1.083   0.665 -0.2886 -0.2857 -0.0861
  152SOL    HW1  455   0.101   1.173   0.682  0.8157 -1.9509 -0.4019
  152SOL    HW2  456   0.133   1.009   0.654 -0.2712  1.3166  0.4684
  153SOL     OW  457   2.242   3.019   0.449  0.2324 -0.1912  0.5153
  153SOL    HW1  458   2.279   0.006   0.468  0.4610 -1.3323  1.3679
  153SOL    HW2  459   2.176   3.013   0.370  2.6926  0.5262  0.5191
  154SOL     OW  460   0.849   0.718   1.454 -0.2009 -0.0850  0.1042
  154SOL    HW1  461   0.886   0.808   1.417  0.0600 -0.7726  1.1587
  154SOL    HW2  462   0.781   0.736   1.529  1.5160  0.8958 -1.2681
  155SOL     OW  463   2.996   1.901   1.037  0.0450  0.2433 -0.0064
  155SOL    HW1  464   2.966   1.805   1.018 -0.6590 -0.7375 -1.2960
  155SOL    HW2  465   2.990   1.961   0.954 -2.7445  0.8883  1.0726
  156SOL     OW  466   2.253   2.209   0.139  0.3196 -1.0307 -0.7007
  156SOL    HW1  467   2.298   2.159   0.215 -0.4233 -0.1709 -1.0967
  156SOL    HW2  468   2.324   2.249   0.082  0.7877 -0.1071  1.2768
  157SOL     OW  469   0.981   2.852   1.071  0.2506  0.0039  0.0573
  157SOL    HW1  470   0.894   2.809   1.032 -0.0564  1.2598 -2.3755
  157SOL    HW2  471   1.045   2.779   1.110 -1.5771 -0.8810  0.9304
  158SOL     OW  472   2.479   0.647   2.469 -0.4529  0.0833  0.5270
  158SOL    HW1  473   2.385   0.672   2.501 -0.5995 -1.9413 -0.3452
  158SOL    HW2  474   2.533   0.733   2.466 -1.8368  0.1128 -1.0403
  159SOL     OW  475   0.654   0.253   0.069 -0.2504 -0.1037 -0.1004
  159SOL    HW1  476   0.592   0.332   0.057  1.3419  0.2189 -1.7841
  159SOL    HW2  477   0.706   0.225   3.086  3.3902  1.2474 -2.5308
  160SOL     OW  478   1.121   1.979   0.136  0.0541 -0.2313  0.2955
  160SOL    HW1  479   1.202   2.000   0.078 -0.5905  0.0124  0.4695
  160SOL    HW2  480   1.147   1.970   0.234 -0.6725 -1.5311 -0.8983
  161SOL     OW  481   3.044   1.895   2.820 -0.2176  0.2879  0.1155
  161SOL    HW1  482   3.080   1.959   2.752 -1.0920 -1.3989  1.3234
  161SOL    HW2  483   2.993   1.946   2.889 -1.5732  0.7224  0.3379
  162SOL     OW  484   0.295   2.896   1.329 -0.0561  0.4955 -0.1101
  162SOL    HW1  485   0.299   2.795   1.311 -3.0513 -0.9861  1.2782
  162SOL    HW2  486   0.200   2.928   1.311 -0.1687 -1.6570 -0.7086
  163SOL     OW  487   2.133   0.412   2.853  0.2266  0.4073 -0.6295
  163SOL    HW1  488   2.217   0.467   2.867  1.0181 -1.6255 -1.2986
  163SOL    HW2  489   2.129   0.411   2.753 -0.1705 -2.1505 -2.7007
  164SOL     OW  490   2.971   2.057   0.823  0.4304 -0.0749  0.2585
  164SOL    HW1  491   3.032   2.052   0.743 -0.9476 -2.0196  1.6598
  164SOL    HW2  492   2.926   2.150   0.827  1.1310 -1.1624 -0.2785
  165SOL     OW  493   2.735   3.085   1.532  0.6787  0.0658 -0.4133
  165SOL    HW1  494   2.736   0.077   1.571  0.5240  0.7730  2.2109
  165SOL    HW2  495   2.674   3.072   1.452 -0.1333 -0.0556 -0.9454
  166SOL     OW  496   2.263   0.348   0.628 -0.0458  0.0504 -0.3556
  166SOL    HW1  497   2.236   0.439   0.661  0.7165  0.0697  0.7529
  166SOL    HW2  498   2.321   0.298   0.693 -1.0003  0.7891 -0.6382
  167SOL     OW  499   0.498   0.461   0.949  0.4738  0.0605  0.0953
  167SOL    HW1  500   0.574   0.504   1.000  0.0328 -0.4787 -2.7128
  167SOL    HW2  501   0.529   0.424   0.857  0.2371 -0.9937 -0.2720
  168SOL     OW  502   1.995   2.954   1.900  0.0272 -0.1282 -0.0488
  168SOL    HW1  503   1.925   2.954   1.983 -3.1521  1.0811  0.9647
  168SOL    HW2  504   2.037   2.865   1.884 -1.9189  4.0218 -0.9974
  169SOL     OW  505   0.255   1.336   0.736 -0.2230  0.6094 -0.3685
  169SOL    HW1  506   0.326   1.355   0.665  0.2487  0.5447  0.9195
  169SOL    HW2  507   0.185   1.409   0.719 -1.6993 -1.3332  0.5075
  170SOL     OW  508   2.525   0.840   1.207  0.6815  0.1005  0.3247
  170SOL    HW1  509   2.477   0.792   1.129  0.2507 -3.7711  0.3455
  170SOL    HW2  510   2.457   0.905   1.247  1.9254 -1.1177 -0.0185
  171SOL     OW  511   1.153   2.491   1.611  0.0970  0.2132 -0.0954
  171SOL    HW1  512   1.235   2.440   1.573  1.5892 -0.5388  0.8783
  171SOL    HW2  513   1.089   2.511   1.538 -0.4514  1.7886  0.5716
  172SOL     OW  514   0.281   2.625   1.316 -0.3541  0.3793  0.3750
  172SOL    HW1  515   0.339   2.556   1.366 -0.0212  0.2970  0.5753
  172SOL    HW2  516   0.192   2.624   1.369  0.0099 -3.0791  2.6237
  173SOL     OW  517   1.374   0.219   2.974  0.0165  0.2988  0.6716
  173SOL    HW1  518   1.367   0.205   2.873  0.5483 -0.3211 -0.9642
  173SOL    HW2  519   1.404   0.317   2.983 -4.4792 -1.2089 -0.3190
  174SOL     OW  520   1.375   2.892   2.752 -0.3115  0.2055 -0.2245
  174SOL    HW1  521   1.300   2.936   2.703 -0.0936  0.6751 -1.0660
  174SOL    HW2  522   1.375   2.914   2.850 -1.8090 -1.8881 -1.2310
  175SOL     OW  523   1.679   2.674   3.072 -0.2970 -0.9799 -0.6975
  175SOL    HW1  524   1.675   2.774   3.087 -0.5322 -1.7423 -0.1920
  175SOL    HW2  525   1.601   2.622   0.004 -0.8121 -1.4311  0.1090
  176SOL     OW  526   1.664   0.174   2.738 -0.2959 -0.2870 -0.4963
  176SOL    HW1  527   1.726   0.095   2.758  0.2737 -1.9385  1.2909
  176SOL    HW2  528   1.569   0.143   2.727  2.2958  0.4887  2.5510
  177SOL     OW  529   1.046   1.482   0.509 -0.2702  0.0929 -0.3391
  177SOL    HW1  530   0.967   1.499   0.446 -2.0297 -0.0965  0.4417
  177SOL    HW2  531   1.075   1.568   0.558 -0.8028  0.8501  0.7535
  178SOL     OW  532   2.896   1.589   2.359  0.4643 -0.4068  0.1388
  178SOL    HW1  533   2.804   1.577   2.324  1.8876  0.9060 -2.4392
  178SOL    HW2  534   2.921   1.497   2.405  1.7567 -0.1054  1.3344
  179SOL     OW  535   0.759   2.533   2.810 -0.2618 -0.1991 -0.8405
  179SOL    HW1  536   0.755   2.475   2.725 -0.1094  0.9900  0.4716
  179SOL    HW2  537   0.806   2.622   2.792 -0.3825 -0.3594 -0.5248
  180SOL     OW  538   1.981   1.857   1.721 -0.1497  0.2359 -0.4586
  180SOL    HW1  539   2.008   1.849   1.820  3.3083  2.5092  2.0181
  180SOL    HW2  540   1.880   1.862   1.708 -0.4327  1.3212  1.3301
  181SOL     OW  541   1.207   1.202   2.310 -0.3438  0.3647  0.2090
  181SOL    HW1  542   1.244   1.169   2.397  1.3056 -0.1328 -0.8507
  181SOL    HW2  543   1.207   1.305   2.313 -1.0217 -0.2264 -0.9710
  182SOL     OW  544   2.864   0.217   2.558  0.2481  0.0678  0.5976
  182SOL    HW1  545   2.782   0.152   2.583 -1.8839 -2.3232  1.2440
  182SOL    HW2  546   2.953   0.176   2.591 -1.5230 -0.8474  1.5039
  183SOL     OW  547   1.209   0.448   2.813  0.1294  0.5838 -0.2208
  183SOL    HW1  548   1.213   0.401   2.722  1.1019  2.1799  0.5638
  183SOL    HW2  549   1.291   0.485   2.855 -2.9359 -0.9018 -0.8014
  184SOL     OW  550   0.965   1.242   1.391  0.4433  0.2687  0.0527
  184SOL    HW1  551   0.947   1.140   1.378  0.3824  0.3414 -1.6987
  184SOL    HW2  552   0.937   1.295   1.306 -0.5394 -1.0890 -0.2739
  185SOL     OW  553   2.688   1.247   1.247 -0.4070 -0.3268  0.2129
  185SOL    HW1  554   2.728   1.153   1.239 -0.2406  1.6383 -2.6937
  185SOL    HW2  555   2.642   1.258   1.335 -1.1722 -0.9713 -0.3870
  186SOL     OW  556   0.855   1.600   2.584 -0.1709  0.0511 -0.5621
  186SOL    HW1  557   0.843   1.500   2.605 -0.8656 -1.9616  1.1331
  186SOL    HW2  558   0.774   1.656   2.562  0.9843 -0.4027 -1.2608
  187SOL     OW  559   2.480   1.468   0.199  0.0843 -0.4046  0.2336
  187SOL    HW1  560   2.442   1.453   0.110  0.3877  1.7137 -1.0117
  187SOL    HW2  561   2.567   1.416   0.211  0.5691 -0.4240  0.0546
  188SOL     OW  562   0.033   2.055   0.593 -0.5787 -0.5378 -0.0945
  188SOL    HW1  563   0.127   2.098   0.592  0.3690 -1.2992 -3.5992
  188SOL    HW2  564   0.039   1.952   0.594 -2.8156 -1.6324  0.6005
  189SOL     OW  565   2.602   0.741   0.175 -0.0098  0.0679  0.1124
  189SOL    HW1  566   2.660   0.754   0.093 -2.0104  1.6637  0.3011
  189SOL    HW2  567   2.558   0.652   0.170  2.0733  1.2746  0.0706
  190SOL     OW  568   1.168   1.486   2.300  0.2963  0.1160 -0.3135
  190SOL    HW1  569   1.264   1.493   2.278 -4.8612  1.4303 -0.5703
  190SOL    HW2  570   1.137   1.550   2.373 -0.1400 -1.6350 -0.5799
  191SOL     OW  571   2.234   0.215   1.940  0.4853 -0.0804  0.2575
  191SOL    HW1  572   2.308   0.280   1.910  1.7291  1.2354  0.0044
  191SOL    HW2  573   2.228   0.134   1.878 -0.6039  1.1651  4.2178
  192SOL     OW  574   1.718   0.495   1.628 -0.4083  0.4410  0.0379
  192SOL    HW1  575   1.772   0.542   1.702 -2.3773  1.6219 -1.1789
  192SOL    HW2  576   1.639   0.446   1.671  0.0700  2.3119 -0.2406
  193SOL     OW  577   0.721   0.636   0.609 -0.2401  0.0736  0.0287
  193SOL    HW1  578   0.697   0.682   0.694  2.1559  1.4891 -0.5478
  193SOL    HW2  579   0.778   0.698   0.560 -2.5467 -1.4462  0.9027
  194SOL     OW  580   1.488   2.935   1.031  0.1543 -0.2919  0.5083
  194SOL    HW1  581   1.515   2.859   0.965  1.4462 -0.8203  0.8399
  194SOL    HW2  582   1.466   2.900   1.127  0.6117 -0.3520  0.9178
  195SOL     OW  583   2.339   0.820   0.299  0.1171 -0.7102 -0.6777
  195SOL    HW1  584   2.277   0.746   0.269 -0.9316  0.4275  2.5095
  195SOL    HW2  585   2.437   0.807   0.268  1.5478 -0.9034 -1.2096
  196SOL     OW  586   1.165   1.657   1.575 -0.2144 -0.1562 -0.4752
  196SOL    HW1  587   1.234   1.632   1.508 -0.1662  0.8043  2.1769
  196SOL    HW2  588   1.184   1.748   1.618 -1.8899 -2.8931  0.3108
  197SOL     OW  589   0.272   2.970   0.084 -0.0805  0.0670  0.3625
  197SOL    HW1  590   0.183   2.944   0.044  0.5441  0.9909  2.1759
  197SOL    HW2  591   0.325   2.887   0.109  1.4864 -0.2853  0.3977
  198SOL     OW  592   1.045   1.321   0.775  0.2017  0.3378  0.7001
  198SOL    HW1  593   1.059   1.391   0.696  3.0809  0.7615 -1.0006
  198SOL    HW2  594   0.947   1.296   0.775 -1.5739 -2.0303 -0.2347
  199SOL     OW  595   3.052   0.468   1.875 -0.1323 -0.2700 -0.6042
  199SOL    HW1  596   2.958   0.477   1.831 -2.2836  0.0328  2.5549
  199SOL    HW2  597   0.022   0.503   1.823 -0.5166  0.1004  0.5249
  200SOL     OW  598   2.295   2.139   2.713  0.1240 -0.1006 -0.4211
  200SOL    HW1  599   2.243   2.053   2.726  3.0339  0.8597 -0.5991
  200SOL    HW2  600   2.270   2.211   2.778 -1.2401 -0.1315 -1.1808
  201SOL     OW  601   2.598   2.960   0.638 -0.1716  0.0804 -0.5727
  201SOL    HW1  602   2.630   3.047   0.592 -1.4158  0.3486 -2.0822
  201SOL    HW2  603   2.625   2.882   0.578  1.5479 -1.3800 -0.4813
  202SOL     OW  604   2.939   0.400   0.086 -0.6316 -0.3136 -0.1706
  202SOL    HW1  605   3.035   0.426   0.100 -4.0002 -0.0781  1.3061
  202SOL    HW2  606   2.914   0.390   3.098  2.4494 -0.0754  2.0564
  203SOL     OW  607   1.422   1.449   2.197  0.5003  0.0008  0.2832
  203SOL    HW1  608   1.438   1.391   2.111 -2.5495 -3.0950 -1.5656
  203SOL    HW2  609   1.448   1.394   2.275  0.9788  4.5556 -0.2237
  204SOL     OW  610   0.738   1.580   2.101 -0.4119  0.0323  0.8046
  204SOL    HW1  611   0.764   1.496   2.151  0.4035 -1.6868 -2.2699
  204SOL    HW2  612   0.641   1.610   2.125 -3.0360  2.1935  1.8623
  205SOL     OW  613   1.300   1.989   1.534 -0.2765  0.2919  0.0863
  205SOL    HW1  614   1.272   1.938   1.616 -2.4107  0.3905  0.0809
  205SOL    HW2  615   1.375   1.937   1.490  0.2874 -2.2352 -0.7064
  206SOL     OW  616   0.009   0.354   2.785 -0.2462 -0.1014 -0.1080
  206SOL    HW1  617   0.048   0.264   2.768  0.0999  2.9843 -0.2491
  206SOL    HW2  618   3.077   0.387   2.694 -0.4054  0.9937 -1.8899
  207SOL     OW  619   1.837   2.885   2.163 -0.2064 -0.3165  0.0377
  207SOL    HW1  620   1.782   2.802   2.136 -0.9439  0.5873  1.5445
  207SOL    HW2  621   1.900   2.866   2.243 -0.0881  1.1301  3.4623
  208SOL     OW  622   0.239   2.348   1.781 -0.2566 -0.2919 -0.1921
  208SOL    HW1  623   0.292   2.310   1.702  0.5263  3.0490  0.2834
  208SOL    HW2  624   0.270   2.445   1.790 -0.1254  1.2897  1.3772
  209SOL     OW  625   1.904   0.915   2.796  0.3281 -0.3851  0.0881
  209SOL    HW1  626   1.824   0.976   2.778 -2.0120 -2.2333  1.6907
  209SOL    HW2  627   1.869   0.842   2.852 -3.1706 -0.3084  0.3466
  210SOL     OW  628   2.524   0.490   0.520 -0.0331  0.0165  0.2743
  210SOL    HW1  629   2.575   0.574   0.516  1.7407 -2.4138 -1.0289
  210SOL    HW2  630   2.451   0.494   0.590  1.6303 -1.5130  1.1343
  211SOL     OW  631   0.670   0.713   0.865 -0.1901  0.3935  0.2995
  211SOL    HW1  632   0.731   0.791   0.894  0.6771  1.6270 -0.3694
  211SOL    HW2  633   0.690   0.635   0.924 -1.3244  1.2910  0.2121
  212SOL     OW  634   1.314   1.574   0.398 -0.0859 -0.5428  0.5438
  212SOL    HW1  635   1.284   1.512   0.324 -0.8232 -0.5573  0.6930
  212SOL    HW2  636   1.369   1.653   0.365 -0.3536 -2.9778  2.2010
  213SOL     OW  637   1.239   2.899   1.609  0.8134 -0.1693 -0.3469
  213SOL    HW1  638   1.224   2.996   1.584 -0.4544  0.6644  0.4181
  213SOL    HW2  639   1.228   2.880   1.711  1.6548 -2.2332 -0.1366
  214SOL     OW  640   1.513   1.304   2.413  0.2191 -0.4717  0.0567
  214SOL    HW1  641   1.468   1.250   2.486 -0.2679  2.3279 -0.6212
  214SOL    HW2  642   1.607   1.334   2.438  3.0698  1.9292  1.8260
  215SOL     OW  643   0.417   1.739   1.137 -0.1143  0.4740 -0.7315
  215SOL    HW1  644   0.402   1.636   1.139 -1.0878 -1.5198  0.1410
  215SOL    HW2  645   0.413   1.771   1.039  0.0510 -2.1966  2.9022
  216SOL     OW  646   0.508   2.865   2.435 -0.2153 -0.5222  0.3486
  216SOL    HW1  647   0.513   2.909   2.342  0.9473  0.9934  3.6215
  216SOL    HW2  648   0.568   2.912   2.505 -0.3996  0.7189  0.5746
  217SOL     OW  649   2.416   0.778   2.999 -0.5752  0.2635  0.3757
  217SOL    HW1  650   2.413   0.693   2.949 -1.8832  1.3881  2.1211
  217SOL    HW2  651   2.510   0.791   3.034  1.9600  1.0315 -1.7190
  218SOL     OW  652   2.031   1.674   2.116 -0.1829 -0.1232 -0.1882
  218SOL    HW1  653   2.098   1.636   2.184 -0.0878  1.2498 -1.1474
  218SOL    HW2  654   2.070   1.763   2.081 -0.3480  0.3185 -1.1931
  219SOL     OW  655   1.680   1.063   0.359  0.1571 -0.1313 -0.0754
  219SOL    HW1  656   1.730   1.062   0.270  0.3598 -2.5045  2.3620
  219SOL    HW2  657   1.626   1.147   0.371 -0.8474  2.0172  1.2773
  220SOL     OW  658   1.503   1.801   1.085  0.3878  0.9734 -0.3786
  220SOL    HW1  659   1.482   1.885   1.032 -1.1940  2.1497  0.1531
  220SOL    HW2  660   1.436   1.725   1.065  2.5389 -0.2438  1.1429
  221SOL     OW  661   0.206   0.530   2.899 -0.3977  0.6789  0.5343
  221SOL    HW1  662   0.276   0.527   2.826  0.1686 -0.1556 -2.5202
  221SOL    HW2  663   0.130   0.460   2.878 -1.6323 -1.4622  0.6181
  222SOL     OW  664   1.359   2.287   1.550 -0.0413  0.5907  0.4250
  222SOL    HW1  665   1.354   2.184   1.564  1.1873 -1.5789 -1.5123
  222SOL    HW2  666   1.428   2.333   1.613  1.8269 -0.0720 -0.5529
  223SOL     OW  667   1.535   2.683   2.663  0.3482 -0.2880  0.3419
  223SOL    HW1  668   1.563   2.623   2.741 -0.1144  0.6685 -1.5112
  223SOL    HW2  669   1.476   2.759   2.698 -1.2953  1.4038 -1.7523
  224SOL     OW  670   2.548   1.268   1.016 -0.0503 -0.0923 -0.5448
  224SOL    HW1  671   2.600   1.257   1.102 -3.0080  2.5429 -0.1496
  224SOL    HW2  672   2.546   1.181   0.963 -0.2947 -1.3422  0.4102
  225SOL     OW  673   1.234   1.210   1.314 -0.1613 -0.3373 -0.2865
  225SOL    HW1  674   1.140   1.230   1.347 -1.7427 -0.5167  0.3766
  225SOL    HW2  675   1.295   1.184   1.387  0.3079  1.1802  1.0175
  226SOL     OW  676   1.635   2.509   2.846  0.4378 -0.5995 -0.5055
  226SOL    HW1  677   1.664   2.558   2.935  0.5360  2.1971  0.7919
  226SOL    HW2  678   1.665   2.407   2.845 -0.2763  0.5140 -1.0832
  227SOL     OW  679   0.849   2.102   0.936 -0.9851  0.2454 -0.1321
  227SOL    HW1  680   0.750   2.107   0.943  0.8032  1.1790  1.0260
  227SOL    HW2  681   0.880   2.197   0.940 -1.0392  0.4792  0.1290
  228SOL     OW  682   0.232   2.103   1.278 -0.6657 -0.1093 -0.4443
  228SOL    HW1  683   0.158   2.143   1.341  0.0248  1.4955  3.4476
  228SOL    HW2  684   0.194   2.102   1.182  0.2727 -0.9655  2.7511
  229SOL     OW  685   2.152   0.806   0.007  0.5491  0.2578 -0.2072
  229SOL    HW1  686   2.253   0.809   3.090  4.0769  0.4135 -0.1787
  229SOL    HW2  687   2.145   0.743   0.092 -1.3939 -1.7212  1.0028
  230SOL     OW  688   0.949   0.938   2.010 -0.1465  0.0304 -0.7341
  230SOL    HW1  689   0.863   0.963   2.068 -3.9678 -0.1444 -0.5444
  230SOL    HW2  690   1.038   0.952   2.059  2.9128 -1.3213  0.2511
  231SOL     OW  691   1.525   2.045   2.111 -0.4870 -0.3123  0.3085
  231SOL    HW1  692   1.582   1.958   2.127  0.0536  3.0798  3.4282
  231SOL    HW2  693   1.427   2.030   2.134  0.4931 -1.1434  0.1933
  232SOL     OW  694   2.061   2.220   1.389  0.1459  0.5090  0.0866
  232SOL    HW1  695   2.046   2.211   1.490  1.0505  1.5312 -2.0773
  232SOL    HW2  696   2.021   2.313   1.360 -0.8632  4.7608  0.3286
  233SOL     OW  697   1.801   2.574   2.369 -0.1385 -0.0797  0.0059
  233SOL    HW1  698   1.807   2.516   2.454  2.0000  2.1415 -1.4149
  233SOL    HW2  699   1.833   2.671   2.389  0.1203  1.1466 -0.5433
  234SOL     OW  700   1.148   3.095   2.791 -0.1153  0.3576  0.8617
  234SOL    HW1  701   1.128   3.035   2.709  0.7363 -0.0407  1.3322
  234SOL    HW2  702   1.101   3.052   2.873  0.0172  1.0262  3.8371
  235SOL     OW  703   2.360   2.819   0.034  0.0926  0.1107 -0.3855
  235SOL    HW1  704   2.429   2.763   3.091  0.6971  0.4670 -0.6379
  235SOL    HW2  705   2.376   2.829   0.137  2.0192 -0.2347  2.4586
  236SOL     OW  706   2.188   2.741   2.502  0.0462  0.4118  0.0081
  236SOL    HW1  707   2.250   2.700   2.432  4.3180 -0.8091  1.8899
  236SOL    HW2  708   2.238   2.802   2.565  0.9284 -2.0301  0.1035
  237SOL     OW  709   1.403   0.987   1.707  0.1117 -0.4028  0.7574
  237SOL    HW1  710   1.405   0.884   1.687  1.5621 -2.6558 -3.0788
  237SOL    HW2  711   1.406   1.040   1.623 -0.8579 -0.4112  1.2797
  238SOL     OW  712   2.114   0.025   2.158  0.0207 -0.1232  0.3378
  238SOL    HW1  713   2.154   0.116   2.132  1.4589  3.0493 -1.4405
  238SOL    HW2  714   2.183   3.056   2.124  1.3085 -0.3336 -2.9932
  239SOL     OW  715   0.467   1.669   2.160  0.5063  0.5773  0.0163
  239SOL    HW1  716   0.416   1.639   2.078 -0.9858 -1.3652 -0.4978
  239SOL    HW2  717   0.470   1.771   2.168 -0.2564  1.4810 -0.8082
  240SOL     OW  718   0.115   2.592   0.590  0.1351 -0.1816  0.1527
  240SOL    HW1  719   0.169   2.512   0.617 -0.5129 -0.4609 -0.7668
  240SOL    HW2  720   0.017   2.576   0.609  3.1495 -1.6033  1.8645
  241SOL     OW  721   1.679   2.100   0.817 -0.0699 -0.1519 -0.2381
  241SOL    HW1  722   1.746   2.041   0.867 -0.3845  0.5104  0.4801
  241SOL    HW2  723   1.712   2.113   0.724 -0.1046 -0.2559  2.0954
  242SOL     OW  724   1.314   1.765   2.970  0.2276 -0.3628 -0.4240
  242SOL    HW1  725   1.416   1.749   2.996 -1.0678 -0.8376 -0.7350
  242SOL    HW2  726   1.286   1.861   2.993 -1.0156 -0.5313  0.0241
  243SOL     OW  727   0.971   2.657   2.244  0.1816  0.1547  0.3315
  243SOL    HW1  728   0.879   2.629   2.278 -0.8735  0.3319  1.9732
  243SOL    HW2  729   1.039   2.602   2.303  1.1506 -2.6031  0.2098
  244SOL     OW  730   1.852   3.055   2.716  0.3772  0.5700  0.1770
  244SOL    HW1  731   1.787   2.991   2.665 -1.3215  0.5908  0.7643
  244SOL    HW2  732   1.907   0.003   2.653  1.5827  0.5113 -1.9761
  245SOL     OW  733   1.264   2.723   0.693  0.1075  0.2430 -0.1075
  245SOL    HW1  734   1.306   2.731   0.595  1.6288 -1.7267 -0.7052
  245SOL    HW2  735   1.245   2.814   0.731 -2.2500  0.5144 -0.0904
  246SOL     OW  736   1.018   3.026   3.013 -0.0021 -0.8350  0.4022
  246SOL    HW1  737   0.917   3.021   3.011 -0.5156 -0.7126 -1.1953
  246SOL    HW2  738   1.049   3.066   3.100 -0.1673 -0.2156 -2.5130
  247SOL     OW  739   0.124   0.542   2.087  0.4605 -0.2130 -0.5730
  247SOL    HW1  740   0.039   0.533   2.030  2.9746 -3.3696  0.1737
  247SOL    HW2  741   0.204   0.516   2.025  1.5505 -1.3754 -0.7407
  248SOL     OW  742   0.734   1.048   2.142 -0.7200  0.1104  0.3395
  248SOL    HW1  743   0.754   1.028   2.240  3.7159 -2.0826  0.0261
  248SOL    HW2  744   0.645   1.092   2.123 -1.4957  1.1251 -2.7916
  249SOL     OW  745   2.230   0.514   0.202  0.4950  0.2596 -0.4248
  249SOL    HW1  746   2.190   0.443   0.139 -1.2534 -0.3239 -2.0834
  249SOL    HW2  747   2.155   0.562   0.257 -0.2640 -1.7435  1.5242
  250SOL     OW  748   0.577   0.167   0.535 -0.1307 -0.3442 -0.3355
  250SOL    HW1  749   0.583   0.065   0.537 -0.2493  1.2939 -0.4283
  250SOL    HW2  750   0.639   0.204   0.465 -0.1625 -1.3041 -3.6339
  251SOL     OW  751   1.392   0.111   2.715 -0.0807 -0.0995 -0.5303
  251SOL    HW1  752   1.327   0.034   2.731  0.4395  0.6562 -0.7137
  251SOL    HW2  753   1.394   0.151   2.620 -1.0572 -1.1465 -0.0585
  252SOL     OW  754   1.776   1.398   2.454  0.1074 -0.6311 -0.3474
  252SOL    HW1  755   1.844   1.345   2.507 -2.1865 -0.2753  0.0331
  252SOL    HW2  756   1.787   1.384   2.352 -0.6894 -0.4950 -0.3310
  253SOL     OW  757   2.251   2.392   2.026 -0.2957  0.2199 -0.4254
  253SOL    HW1  758   2.318   2.458   2.052 -1.4479 -3.0188  0.8982
  253SOL    HW2  759   2.232   2.397   1.924 -0.5203 -0.1710 -1.3620
  254SOL     OW  760   0.974   2.257   1.667 -0.1797  0.2363  0.3331
  254SOL    HW1  761   0.891   2.257   1.612  3.2556 -3.7489  0.9368
  254SOL    HW2  762   1.030   2.335   1.651 -1.1477  0.3585  0.1767
  255SOL     OW  763   1.085   1.061   0.899 -0.1688  0.0895  0.0744
  255SOL    HW1  764   1.164   1.074   0.963  1.6950 -0.2295 -0.1472
  255SOL    HW2  765   1.071   1.153   0.853  0.1376  0.1465 -1.6582
  256SOL     OW  766   1.902   2.014   2.214  0.4651  0.0824  0.8356
  256SOL    HW1  767   1.946   2.056   2.130 -2.2817  3.5709 -1.2169
  256SOL    HW2  768   1.974   1.967   2.270 -0.6725  0.6296 -0.1569
  257SOL     OW  769   0.617   2.380   2.977  0.2382  0.1832  0.2845
  257SOL    HW1  770   0.671   2.439   2.913 -0.0995  2.9103  0.1716
  257SOL    HW2  771   0.515   2.382   2.960 -1.9844  2.8360  2.7630
  258SOL     OW  772   0.660   0.103   2.096 -0.0333 -0.6264  0.9695
  258SOL    HW1  773   0.749   0.113   2.142 -0.1914  0.7740 -1.6949
  258SOL    HW2  774   0.663   0.126   1.997  0.2223  0.0322 -0.4044
  259SOL     OW  775   0.946   0.094   2.197  0.1299 -0.0629 -0.1482
  259SOL    HW1  776   0.966   0.079   2.100 -2.2857  1.3872  1.9249
  259SOL    HW2  777   0.989   0.183   2.227 -0.4431 -0.9375 -3.2437
  260SOL     OW  778   1.519   0.809   0.981  0.5724  0.3553  0.6060
  260SOL    HW1  779   1.554   0.891   1.025 -2.0237 -1.2278 -2.2511
  260SOL    HW2  780   1.446   0.838   0.916 -1.9428 -2.2635 -0.3635
  261SOL     OW  781   0.556   0.010   2.785  0.2133  0.2375 -0.0468
  261SOL    HW1  782   0.530   3.103   2.882  1.3601  0.4293 -1.7669
  261SOL    HW2  783   0.559   0.113   2.766  0.8728 -0.0450 -2.6997
  262SOL     OW  784   2.414   2.863   2.302  0.0493 -0.0471 -0.1360
  262SOL    HW1  785   2.424   2.952   2.354 -1.7232 -1.5793  1.8935
  262SOL    HW2  786   2.479   2.793   2.331  0.4197  2.5874  0.5527
  263SOL     OW  787   0.441   1.940   2.494 -0.1557  0.3196  0.4375
  263SOL    HW1  788   0.462   1.991   2.583 -1.5580  2.4935 -1.9164
  263SOL    HW2  789   0.350   1.894   2.508  0.3758 -0.5217 -0.1277
  264SOL     OW  790   0.887   1.313   1.086  0.3644 -0.2217  0.7006
  264SOL    HW1  791   0.936   1.404   1.091  0.5514  4.6354 -2.4914
  264SOL    HW2  792   0.857   1.295   0.990  2.7796  1.3996 -1.8337
  265SOL     OW  793   0.381   1.945   3.101  0.2418  0.5844 -0.7508
  265SOL    HW1  794   0.380   1.855   3.050 -0.4379 -2.6346  0.0302
  265SOL    HW2  795   0.464   1.991   3.074 -1.8017 -1.4521 -1.2660
  266SOL     OW  796   1.236   1.084   0.421 -0.2001  0.5163 -0.2337
  266SOL    HW1  797   1.315   1.138   0.460  0.3908  1.1624 -0.5199
  266SOL    HW2  798   1.206   1.013   0.488 -0.8498  0.2238 -0.7060
  267SOL     OW  799   2.737   1.046   0.173  0.4324 -0.0803 -0.8290
  267SOL    HW1  800   2.826   1.045   0.215 -1.4756  0.6580 -0.5805
  267SOL    HW2  801   2.742   1.042   0.074  1.8168  0.7356  1.0832
  268SOL     OW  802   2.385   0.221   2.665 -0.2061 -0.2195 -0.4168
  268SOL    HW1  803   2.351   0.165   2.588 -3.2613  2.3357  0.4509
  268SOL    HW2  804   2.322   0.190   2.738 -2.3236 -1.9835  0.0460
  269SOL     OW  805   1.569   0.493   2.546 -0.0355 -0.2945  0.2741
  269SOL    HW1  806   1.601   0.425   2.481  1.9445 -0.0745  1.4788
  269SOL    HW2  807   1.503   0.558   2.508 -1.5568 -0.9951  1.0728
  270SOL     OW  808   0.924   1.312   2.661 -0.0266 -0.4688 -0.1427
  270SOL    HW1  809   0.867   1.288   2.740  1.3701 -1.3599 -1.1688
  270SOL    HW2  810   1.023   1.307   2.689 -0.9308 -0.6256 -1.3312
  271SOL     OW  811   2.695   1.318   0.229 -0.0892 -0.7354 -0.4387
  271SOL    HW1  812   2.701   1.224   0.185  0.7362 -2.5732 -1.7487
  271SOL    HW2  813   2.748   1.328   0.316 -0.1824 -0.6748  1.6218
  272SOL     OW  814   2.893   1.531   2.900  0.1218  0.1182  0.1008
  272SOL    HW1  815   2.898   1.456   2.830  1.3625 -1.9881  0.6392
  272SOL    HW2  816   2.976   1.584   2.903 -0.4904 -1.6834 -0.6964
  273SOL     OW  817   2.054   0.179   0.405 -0.6986  0.3891 -0.2643
  273SOL    HW1  818   2.142   0.229   0.388  1.0321 -0.2940  1.1795
  273SOL    HW2  819   2.028   0.113   0.333 -4.7534 -0.7608 -0.0011
  274SOL     OW  820   0.402   2.540   1.072  0.0098 -0.0190  0.2312
  274SOL    HW1  821   0.476   2.472   1.085 -0.9053 -0.3955 -1.4367
  274SOL    HW2  822   0.369   2.590   1.154  1.1077 -2.5192 -1.0853
  275SOL     OW  823   2.242   1.588   0.546 -0.1106 -0.5472  0.0377
  275SOL    HW1  824   2.214   1.675   0.500 -1.4013 -0.4702  0.5881
  275SOL    HW2  825   2.343   1.595   0.558  0.1814 -0.3873  0.3354
  276SOL     OW  826   0.166   1.258   2.319  0.4427  0.1677  0.1536
  276SOL    HW1  827   0.089   1.312   2.273 -0.3749  0.8810 -2.8769
  276SOL    HW2  828   0.230   1.212   2.254 -0.6685 -1.7044  1.1586
  277SOL     OW  829   1.926   2.724   1.359  0.2602  0.3516  0.2321
  277SOL    HW1  830   1.989   2.722   1.440  0.9694 -0.3405  1.8651
  277SOL    HW2  831   1.975   2.744   1.274  0.5560 -0.8251  1.2735
  278SOL     OW  832   1.017   3.091   1.933 -0.0561 -0.4046 -0.2785
  278SOL    HW1  833   0.945   3.018   1.937 -1.5437 -1.3666 -3.8135
  278SOL    HW2  834   1.110   3.051   1.929  0.2979 -0.0339 -0.2411
  279SOL     OW  835   1.751   1.686   0.572  0.1965 -0.0894 -0.4898
  279SOL    HW1  836   1.690   1.699   0.653 -2.6927  0.8583 -1.7908
  279SOL    HW2  837   1.827   1.747   0.572 -2.1385 -2.0424  0.4251
  280SOL     OW  838   0.508   1.660   0.738  0.1785  0.1947  0.0589
  280SOL    HW1  839   0.579   1.701   0.682 -1.3466  2.4679 -1.0490
  280SOL    HW2  840   0.442   1.729   0.769  2.5502 -2.4177  2.1549
  281SOL     OW  841   2.779   0.466   2.583  0.3099  0.1246  0.6324
  281SOL    HW1  842   2.686   0.465   2.617  1.8372  2.7181 -1.1646
  281SOL    HW2  843   2.813   0.371   2.567  1.6368 -0.6362  1.2993
  282SOL     OW  844   0.453   1.084   0.675  0.2536 -0.0404  0.2797
  282SOL    HW1  845   0.385   1.021   0.633 -0.7387 -0.0550 -0.5765
  282SOL    HW2  846   0.426   1.108   0.771 -0.7028  0.2771 -2.4867
  283SOL     OW  847   2.010   1.851   0.260  0.1077  0.1114 -0.0054
  283SOL    HW1  848   1.915   1.861   0.279  2.3547 -0.8819  0.3352
  283SOL    HW2  849   2.031   1.897   0.173 -0.4583 -0.7720  0.6039
  284SOL     OW  850   1.375   1.041   0.183 -0.7170  0.0293  0.1964
  284SOL    HW1  851   1.316   1.029   0.263  0.9689 -1.6091  0.3301
  284SOL    HW2  852   1.389   1.135   0.149 -0.1143 -2.3477 -0.8843
  285SOL     OW  853   2.225   0.699   2.574  0.4972 -0.3498 -0.0302
  285SOL    HW1  854   2.210   0.760   2.661 -0.3732  1.3929  1.5517
  285SOL    HW2  855   2.136   0.692   2.519 -1.2777 -1.5986  0.2508
  286SOL     OW  856   1.613   2.648   1.330 -0.0668 -0.2805  0.2018
  286SOL    HW1  857   1.626   2.632   1.432 -0.4443  0.4820 -0.5674
  286SOL    HW2  858   1.704   2.638   1.284 -1.5489 -1.7498 -2.4929
  287SOL     OW  859   1.285   1.086   1.070  0.5663 -0.1390  0.0312
  287SOL    HW1  860   1.280   0.986   1.099 -0.1784 -0.4146 -1.8146
  287SOL    HW2  861   1.293   1.137   1.157  0.7322 -2.8319 -0.4498
  288SOL     OW  862   0.995   2.737   3.002  0.2254 -0.1325  0.1014
  288SOL    HW1  863   0.998   2.743   2.900  0.6892  1.4560 -0.4064
  288SOL    HW2  864   1.078   2.783   3.035 -2.4228  0.1190  1.2136
  289SOL     OW  865   0.398   1.561   1.895  0.2861 -0.3485  0.1413
  289SOL    HW1  866   0.469   1.538   1.826  0.4412 -2.0532  1.3055
  289SOL    HW2  867   0.311   1.590   1.848 -0.5194  0.4490 -0.6508
  290SOL     OW  868   1.748   2.266   1.051  0.4486 -0.5240  0.0910
  290SOL    HW1  869   1.742   2.224   0.952  0.2716 -2.5672 -1.2973
  290SOL    HW2  870   1.831   2.329   1.062 -0.5263 -1.8807  2.2963
  291SOL     OW  871   1.967   2.360   2.956 -0.1170  0.5056  0.4917
  291SOL    HW1  872   1.941   2.439   3.011 -0.9765  2.4968  0.2667
  291SOL    HW2  873   2.066   2.358   2.942 -1.7222 -1.6861 -0.4801
  292SOL     OW  874   0.933   0.805   1.779 -0.2199  0.3695  0.4217
  292SOL    HW1  875   0.938   0.847   1.871 -1.0270  0.4023  1.3595
  292SOL    HW2  876   0.997   0.857   1.716  3.0401 -0.8789 -0.5491
  293SOL     OW  877   1.967   2.649   0.913 -0.0904  0.1358  0.2508
  293SOL    HW1  878   1.893   2.708   0.874  2.7631  0.4220 -1.9098
  293SOL    HW2  879   2.024   2.697   0.981 -1.4148 -0.7441  1.0009
  294SOL     OW  880   0.600   0.630   2.441  0.0090 -0.2379  0.0218
  294SOL    HW1  881   0.496   0.642   2.433  1.4702 -0.4412  0.3782
  294SOL    HW2  882   0.616   0.536   2.476 -1.8415  0.1881 -0.4917
  295SOL     OW  883   1.386   1.447   0.677 -0.4200  0.3576  0.2119
  295SOL    HW1  884   1.298   1.454   0.726 -1.0176  0.6177  1.9375
  295SOL    HW2  885   1.388   1.516   0.604  1.3550  0.2380  0.7795
  296SOL     OW  886   2.415   2.082   0.348  0.2861  0.0841  0.1374
  296SOL    HW1  887   2.487   2.121   0.286  2.7036 -1.5648 -2.1023
  296SOL    HW2  888   2.435   1.991   0.386 -0.4409  2.4674  0.6402
  297SOL     OW  889   2.136   0.010   0.012 -0.3324 -0.2084  0.4304
  297SOL    HW1  890   2.222   0.062   0.024 -1.8508  1.2769 -3.3883
  297SOL    HW2  891   2.087   0.001   0.102 -1.1071  0.9323  0.4139
  298SOL     OW  892   1.476   2.280   2.502 -0.4593  0.2712  0.5112
  298SOL    HW1  893   1.577   2.266   2.477  0.4993  1.3362  0.7766
  298SOL    HW2  894   1.467   2.378   2.518  1.5126  0.7618  0.6507
  299SOL     OW  895   1.382   2.578   2.446 -0.3159 -0.1409 -0.8128
  299SOL    HW1  896   1.448   2.621   2.514 -2.5632  1.8391  1.8748
  299SOL    HW2  897   1.433   2.558   2.363  0.3539  0.6561  2.8473
  300SOL     OW  898   2.033   0.122   2.626  0.2247 -0.3048  0.2069
  300SOL    HW1  899   1.991   0.215   2.613  0.7596 -0.1843 -1.2890
  300SOL    HW2  900   2.089   0.114   2.709  0.7049  0.7288 -1.8051
  301SOL     OW  901   1.359   0.913   1.970 -0.1432  0.1508 -0.0589
  301SOL    HW1  902   1.451   0.879   1.992 -3.9699 -0.8119  0.8616
  301SOL    HW2  903   1.363   0.962   1.882  1.0665  0.2534  0.4318
  302SOL     OW  904   2.782   2.330   2.976 -0.0425  0.0375  0.7311
  302SOL    HW1  905   2.782   2.420   3.025  0.0125 -1.3489  0.4037
  302SOL    HW2  906   2.856   2.268   3.004  0.3978 -0.1752 -0.1068
  303SOL     OW  907   2.789   2.279   2.311 -0.1162 -0.6829  0.7424
  303SOL    HW1  908   2.840   2.288   2.400  1.2535 -0.9848  0.9648
  303SOL    HW2  909   2.797   2.188   2.257 -2.1358  0.3613 -2.2978
  304SOL     OW  910   2.842   0.623   1.721 -0.6653  0.4377  0.1255
  304SOL    HW1  911   2.877   0.703   1.677 -2.6214 -0.8028  2.0483
  304SOL    HW2  912   2.834   0.628   1.823 -0.3594 -2.4731  0.6141
  305SOL     OW  913   0.707   2.138   1.904  0.1759 -0.1512 -0.6242
  305SOL    HW1  914   0.773   2.216   1.907 -1.2086 -0.5830  1.1192
  305SOL    HW2  915   0.609   2.167   1.878 -3.0236  1.2366 -1.2735
  306SOL     OW  916   2.634   0.882   1.648  0.6707 -0.3288  0.0927
  306SOL    HW1  917   2.556   0.815   1.643  2.2992  1.3764 -1.2008
  306SOL    HW2  918   2.635   0.922   1.744 -0.7142 -0.8111 -1.6999
  307SOL     OW  919   1.603   0.816   1.950 -0.6199  0.7571  0.1273
  307SOL    HW1  920   1.693   0.775   1.966  0.3096 -0.6316  1.2579
  307SOL    HW2  921   1.550   0.763   1.877  0.3214 -2.1226  0.4103
  308SOL     OW  922   2.947   1.643   0.987  0.4423 -0.1950 -0.0536
  308SOL    HW1  923   2.950   1.549   0.943  1.6739 -2.1423 -1.3797
  308SOL    HW2  924   2.849   1.660   1.015  2.0906 -0.2332 -3.3796
  309SOL     OW  925   2.507   1.517   1.104 -0.2577  0.2755 -0.2907
  309SOL    HW1  926   2.486   1.518   1.204  2.9533 -0.9120  0.5594
  309SOL    HW2  927   2.548   1.428   1.081  0.3224  3.1494  3.2374
  310SOL     OW  928   2.799   1.862   2.586  0.1807 -0.1765 -0.4749
  310SOL    HW1  929   2.746   1.796   2.642 -0.6829  0.6506 -1.0497
  310SOL    HW2  930   2.808   1.947   2.644 -1.6040 -1.3360 -0.3839
  311SOL     OW  931   0.145   2.560   0.167  0.5095 -0.1269 -0.0905
  311SOL    HW1  932   0.071   2.608   0.214 -0.2444  0.8557  0.3199
  311SOL    HW2  933   0.146   2.457   0.190  1.4480 -1.7562 -0.8918
  312SOL     OW  934   2.100   1.517   0.777 -0.5026 -0.1041 -0.4045
  312SOL    HW1  935   2.028   1.586   0.785  0.3742  0.3197  1.7011
  312SOL    HW2  936   2.164   1.529   0.700  0.9331  2.8500 -0.1900
  313SOL     OW  937   2.627   0.212   0.853 -0.0245 -0.4702 -0.2937
  313SOL    HW1  938   2.656   0.303   0.880  0.9463 -1.6068  2.4611
  313SOL    HW2  939   2.703   0.162   0.802 -1.4330  0.3167 -2.5238
  314SOL     OW  940   1.423   1.782   0.193 -0.0305  0.4406  0.2003
  314SOL    HW1  941   1.493   1.735   0.140 -2.3484  1.8601 -2.9092
  314SOL    HW2  942   1.346   1.809   0.132 -0.0109  0.5324  0.1437
  315SOL     OW  943   1.235   2.231   2.109  0.3597 -0.3670  0.3435
  315SOL    HW1  944   1.294   2.307   2.084 -1.9743 -0.8978 -2.7676
  315SOL    HW2  945   1.170   2.213   2.034 -0.3465 -0.8618 -0.6562
  316SOL     OW  946   2.971   1.074   0.471  0.3055 -0.0561 -0.1685
  316SOL    HW1  947   2.990   1.075   0.370  0.2326  0.2650 -2.8820
  316SOL    HW2  948   3.063   1.083   0.514 -0.3764 -1.4337 -0.9328
  317SOL     OW  949   0.618   2.999   0.588  0.0022  0.1402 -0.0052
  317SOL    HW1  950   0.616   2.906   0.542 -0.1868 -0.5003 -1.7239
  317SOL    HW2  951   0.683   2.987   0.666 -2.6723  2.4198 -1.1396
  318SOL     OW  952   2.810   2.303   0.360 -0.2450  0.8591 -0.3221
  318SOL    HW1  953   2.753   2.246   0.419  0.5042  1.2054 -2.1764
  318SOL    HW2  954   2.903   2.259   0.352  1.5648 -1.2336  0.5607
  319SOL     OW  955   0.677   1.285   2.825  0.0318  0.5825  0.3522
  319SOL    HW1  956   0.592   1.315   2.780  1.6951 -0.1714  1.2253
  319SOL    HW2  957   0.664   1.274   2.924  0.8264  1.9583 -0.3780
  320SOL     OW  958   0.639   2.460   1.773  0.1919 -0.3249 -0.4103
  320SOL    HW1  959   0.628   2.561   1.760 -1.2321  2.3014  0.1945
  320SOL    HW2  960   0.725   2.446   1.830  0.3982  2.0805  0.5879
  321SOL     OW  961   1.554   2.248   3.096  0.1634  0.2680  0.1467
  321SOL    HW1  962   1.641   2.249   0.046 -1.5736  0.7634 -0.2517
  321SOL    HW2  963   1.583   2.240   2.997  0.7122 -0.2013  0.1694
  322SOL     OW  964   2.835   1.334   2.133  0.3348 -0.0940  0.1119
  322SOL    HW1  965   2.862   1.254   2.192  1.3704  0.4127  0.8360
  322SOL    HW2  966   2.906   1.342   2.057 -0.1339 -0.4520 -2.5002
  323SOL     OW  967   2.508   1.281   0.481  0.8512 -0.8392 -0.3710
  323SOL    HW1  968   2.426   1.227   0.445  1.1168 -2.2132 -1.0343
  323SOL    HW2  969   2.551   1.328   0.403 -2.0523  2.0732 -0.5246
  324SOL     OW  970   0.192   2.769   2.895 -0.0216  0.2614  0.1027
  324SOL    HW1  971   0.117   2.776   2.962 -0.6812 -0.3799  1.5023
  324SOL    HW2  972   0.174   2.689   2.835  0.0101 -1.5977 -0.3746
  325SOL     OW  973   1.633   0.246   2.360 -0.0661  0.2747  0.2973
  325SOL    HW1  974   1.676   0.319   2.301 -0.6886 -1.0103 -0.1056
  325SOL    HW2  975   1.681   0.160   2.343  1.2023  0.6484 -2.6262
  326SOL     OW  976   2.268   2.563   1.500 -0.1297 -0.2303  0.3422
  326SOL    HW1  977   2.360   2.553   1.543 -1.3232  1.3409  1.2212
  326SOL    HW2  978   2.268   2.573   1.399 -2.8755 -1.1579 -0.2777
  327SOL     OW  979   1.793   0.207   0.019  0.1824  0.4013  0.2367
  327SOL    HW1  980   1.853   0.124   3.104 -1.3796 -1.3127 -3.9438
  327SOL    HW2  981   1.734   0.212   3.047 -0.2669  0.2412  3.0811
  328SOL     OW  982   2.878   0.774   2.212 -0.6018  0.0918 -0.1946
  328SOL    HW1  983   2.970   0.824   2.198  2.9294  0.7336 -0.2441
  328SOL    HW2  984   2.814   0.827   2.276 -0.2916  0.1588  1.3774
  329SOL     OW  985   1.260   2.997   1.869  0.5097 -0.5726 -0.2101
  329SOL    HW1  986   1.289   3.094   1.851  3.0501 -0.3797  1.9414
  329SOL    HW2  987   1.304   2.962   1.952  1.2318 -0.9675 -1.1547
  330SOL     OW  988   2.799   1.846   1.299  0.0295  0.4682  0.7888
  330SOL    HW1  989   2.899   1.831   1.299 -0.7452 -0.7742 -1.7881
  330SOL    HW2  990   2.748   1.762   1.291 -0.9649 -1.3017  0.3845
  331SOL     OW  991   0.513   1.538   2.416 -0.0302  0.0342 -0.1842
  331SOL    HW1  992   0.597   1.474   2.405  3.6618  0.4293 -0.9852
  331SOL    HW2  993   0.492   1.579   2.326  3.0964 -0.8122 -1.4252
  332SOL     OW  994   0.115   3.093   1.695 -0.2151  0.1495 -0.5823
  332SOL    HW1  995   0.213   0.005   1.712 -3.1884  0.5979  0.0829
  332SOL    HW2  996   0.061   0.065   1.734  1.1362 -0.0928  0.5261
  333SOL     OW  997   2.539   2.566   1.621  0.1860  0.1600 -0.2105
  333SOL    HW1  998   2.600   2.506   1.674 -0.9279 -2.1200  1.3487
  333SOL    HW2  999   2.594   2.616   1.554 -1.2339  0.4873 -0.0355
  334SOL     OW 1000   1.030   2.089   0.729 -0.8003 -0.2298  0.0931
  334SOL    HW1 1001   0.952   2.088   0.794  0.8377 -0.8351 -2.8775
  334SOL    HW2 1002   1.064   2.188   0.728  0.2691 -1.3256  1.0515
  335SOL     OW 1003   0.685   2.178   0.045 -0.2149  0.1465  0.2616
  335SOL    HW1 1004   0.667   2.245   3.080  0.6976 -1.7821  1.8150
  335SOL    HW2 1005   0.736   2.231   0.118 -1.6848  0.5889  0.3716
  336SOL     OW 1006   0.286   0.102   2.009  0.0571  0.0375  0.4015
  336SOL    HW1 1007   0.209   0.168   2.011  0.5562  1.4185 -0.8799
  336SOL    HW2 1008   0.306   0.086   1.909 -2.5259 -1.8255  2.2462
  337SOL     OW 1009   2.901   2.057   2.976 -0.1007  0.0823  0.5799
  337SOL    HW1 1010   2.829   2.021   3.039  0.6241 -2.1140  0.2417
  337SOL    HW2 1011   2.970   2.109   3.021 -0.4018 -3.6037 -0.8001
  338SOL     OW 1012   1.160   1.802   1.089  0.3111  0.2335  0.3806
  338SOL    HW1 1013   1.187   1.869   1.160 -1.6786 -3.0632  0.4353
  338SOL    HW2 1014   1.060   1.804   1.075 -0.1634  0.0671  0.1846
  339SOL     OW 1015   0.046   0.242   2.004  0.2020 -0.3035 -0.3023
  339SOL    HW1 1016   0.022   0.325   1.948 -2.1461 -1.5523  2.7469
  339SOL    HW2 1017   0.015   0.260   2.102 -3.2754  1.3158 -1.9104
  340SOL     OW 1018   1.633   2.629   0.486 -0.0035  0.3550  0.3887
  340SOL    HW1 1019   1.673   2.593   0.403 -2.0659  1.6001  0.7448
  340SOL    HW2 1020   1.621   2.554   0.558  2.7248  0.9874 -0.8125
  341SOL     OW 1021   1.915   1.615   1.040  0.2653  0.0062 -0.4009
  341SOL    HW1 1022   1.859   1.534   1.024  2.9024  3.1576  0.7905
  341SOL    HW2 1023   1.938   1.656   0.949 -2.1963  0.5658  2.2099
  342SOL     OW 1024   0.078   1.791   0.575  0.2289 -0.4413  0.2455
  342SOL    HW1 1025   0.000   1.802   0.511 -0.9732  1.0662  0.2618
  342SOL    HW2 1026   0.159   1.748   0.537  0.9579 -1.3997  0.4211
  343SOL     OW 1027   1.456   2.529   1.164  0.5119  0.1018 -0.2132
  343SOL    HW1 1028   1.505   2.577   1.238 -1.0194 -3.2156 -3.7221
  343SOL    HW2 1029   1.441   2.430   1.186  0.8038 -0.5211 -3.4199
  344SOL     OW 1030   2.390   2.990   0.799 -0.3108  0.1334 -0.1083
  344SOL    HW1 1031   2.311   2.932   0.769 -1.1604 -1.2179 -0.8765
  344SOL    HW2 1032   2.473   2.979   0.737 -0.1086 -0.4539  0.8734
  345SOL     OW 1033   2.807   2.073   2.727 -0.1739 -0.2239 -0.1761
  345SOL    HW1 1034   2.853   2.094   2.814  1.3271 -1.9622 -0.8699
  345SOL    HW2 1035   2.836   2.152   2.666  1.5461  3.4892  2.6469
  346SOL     OW 1036   0.344   1.816   0.870 -0.2600  0.5391 -0.0632
  346SOL    HW1 1037   0.253   1.759   0.872 -0.9130 -2.2361 -1.2913
  346SOL    HW2 1038   0.328   1.920   0.877  3.3117  0.6794 -0.5806
  347SOL     OW 1039   1.979   2.449   1.309  0.0855  0.4332  0.4452
  347SOL    HW1 1040   1.976   2.548   1.331 -1.2270 -0.0599  0.7801
  347SOL    HW2 1041   1.975   2.432   1.208 -0.4032  0.1692 -1.5437
  348SOL     OW 1042   1.344   1.543   2.791  0.1310 -0.2438 -0.0830
  348SOL    HW1 1043   1.335   1.623   2.859 -0.5682  1.0565  0.3063
  348SOL    HW2 1044   1.353   1.583   2.699 -4.0298  3.1350 -1.2185
  349SOL     OW 1045   2.431   1.012   2.285 -0.1324 -0.2938  0.5352
  349SOL    HW1 1046   2.393   1.093   2.336 -2.1055  1.9033 -0.4201
  349SOL    HW2 1047   2.353   0.947   2.270 -1.0583  1.3120  0.0111
  350SOL     OW 1048   3.043   2.464   1.427 -0.4009 -0.3149  0.3009
  350SOL    HW1 1049   3.102   2.547   1.448  1.1041 -0.2428  0.0883
  350SOL    HW2 1050   3.000   2.482   1.333  0.7480 -0.6097 -2.6724
  351SOL     OW 1051   0.527   0.280   2.795  0.1712  0.2973  0.0428
  351SOL    HW1 1052   0.578   0.316   2.717 -1.7364  1.4178 -0.7990
  351SOL    HW2 1053   0.597   0.264   2.866 -0.9915  0.9829 -2.1732
  352SOL     OW 1054   0.665   2.439   1.357 -0.0715  0.5325  0.5804
  352SOL    HW1 1055   0.729   2.390   1.417  1.3760  1.8712 -2.0508
  352SOL    HW2 1056   0.579   2.460   1.412  0.1196  2.6136  1.0295
  353SOL     OW 1057   0.919   1.236   2.391 -0.2518 -0.3866  0.0127
  353SOL    HW1 1058   0.932   1.270   2.486  3.9832  1.0642 -1.9228
  353SOL    HW2 1059   1.000   1.262   2.334  0.3012 -2.7242 -0.6541
  354SOL     OW 1060   1.723   0.999   0.618 -0.6206 -0.0086 -0.6825
  354SOL    HW1 1061   1.647   1.019   0.683 -2.3270  1.0363  1.4650
  354SOL    HW2 1062   1.699   1.040   0.532  2.3315 -3.1776 -0.1855
  355SOL     OW 1063   2.951   0.373   0.360 -0.6341 -0.2253  0.4014
  355SOL    HW1 1064   2.949   0.380   0.258  2.1722 -1.4037 -1.6138
  355SOL    HW2 1065   2.942   0.468   0.391 -1.9467  2.1904 -2.3283
  356SOL     OW 1066   2.730   1.092   2.617 -0.1571  0.0446  0.5450
  356SOL    HW1 1067   2.807   1.029   2.606  0.6577  2.1764  1.5394
  356SOL    HW2 1068   2.675   1.073   2.695  0.1922  2.0476 -1.3824
  357SOL     OW 1069   0.557   2.724   1.727 -0.3629 -0.6511 -0.0924
  357SOL    HW1 1070   0.600   2.779   1.651  0.7811  1.5033  0.5512
  357SOL    HW2 1071   0.516   2.789   1.795  0.5565 -0.8631  1.6174
  358SOL     OW 1072   2.253   1.283   2.121  0.0753  0.3291  0.2925
  358SOL    HW1 1073   2.215   1.366   2.072  0.9790 -1.1158 -1.2468
  358SOL    HW2 1074   2.356   1.280   2.105 -1.2788  2.0147  0.0760
  359SOL     OW 1075   2.203   2.389   2.844  0.2821  0.3104 -0.2799
  359SOL    HW1 1076   2.134   2.438   2.791  0.8947 -0.6858  0.8289
  359SOL    HW2 1077   2.292   2.440   2.848  1.2133  1.8701  0.7771
  360SOL     OW 1078   2.233   0.618   0.745  0.4920 -0.0434 -0.2365
  360SOL    HW1 1079   2.281   0.658   0.831 -0.7039  0.7485  2.9373
  360SOL    HW2 1080   2.224   0.685   0.668 -0.9831  1.8661  0.9568
  361SOL     OW 1081   1.959   2.989   0.957 -0.2725 -0.2698  0.0744
  361SOL    HW1 1082   1.930   3.086   0.991 -0.9199  2.0360 -0.3601
  361SOL    HW2 1083   1.896   2.942   0.894 -2.1216  2.5453  1.6705
  362SOL     OW 1084   1.427   1.213   0.555 -0.0965  0.1650  0.1414
  362SOL    HW1 1085   1.396   1.306   0.584 -1.0491 -0.5674 -0.0246
  362SOL    HW2 1086   1.452   1.147   0.629 -1.8912 -0.9630 -0.0087
  363SOL     OW 1087   2.477   1.644   2.387 -0.3098 -0.2360  0.2179
  363SOL    HW1 1088   2.536   1.582   2.330 -2.1568 -0.5567  0.5692
  363SOL    HW2 1089   2.493   1.621   2.485 -0.2010  1.6950  0.6166
  364SOL     OW 1090   1.237   0.682   1.522 -0.0211  0.6313  0.2314
  364SOL    HW1 1091   1.241   0.625   1.606  1.3749 -0.1288 -0.4746
  364SOL    HW2 1092   1.146   0.664   1.482 -2.9718 -0.7218  1.2803
  365SOL     OW 1093   0.055   0.017   1.013  0.1335  0.3084  0.1321
  365SOL    HW1 1094   0.149   0.013   0.974  0.1304 -1.8043  0.5506
  365SOL    HW2 1095   3.094   3.066   0.957 -0.5926 -2.6761  0.7356
  366SOL     OW 1096   2.839   1.345   0.458  0.4413  0.2603  0.3467
  366SOL    HW1 1097   2.867   1.429   0.506 -1.1316 -0.4220 -1.9414
  366SOL    HW2 1098   2.880   1.262   0.492 -1.8131 -1.2110 -1.9252
  367SOL     OW 1099   3.013   2.245   0.021  0.0072 -0.0558  0.2225
  367SOL    HW1 1100   3.041   2.342   0.000 -3.2263 -0.3759  1.2364
  367SOL    HW2 1101   3.030   2.223   0.119  1.0817 -0.5493  3.5486
  368SOL     OW 1102   3.094   2.405   0.988 -0.2689  0.0501 -0.1274
  368SOL    HW1 1103   0.067   2.435   0.933  0.3108 -0.7440  0.7734
  368SOL    HW2 1104   3.015   2.383   0.927 -2.5585  0.7657 -2.0679
  369SOL     OW 1105   0.347   0.366   0.460  0.3211 -0.8840  0.1135
  369SOL    HW1 1106   0.277   0.421   0.518  0.6445  4.0602  0.4722
  369SOL    HW2 1107   0.386   0.284   0.510 -1.3987  2.6678 -0.2881
  370SOL     OW 1108   0.278   0.859   1.591 -0.8088  0.1738  0.3483
  370SOL    HW1 1109   0.320   0.947   1.614 -1.4804 -2.8145  0.2872
  370SOL    HW2 1110   0.232   0.867   1.497 -0.4898 -2.5660 -0.9872
  371SOL     OW 1111   2.224   2.304   1.027 -0.4577  0.2651 -0.3352
  371SOL    HW1 1112   2.177   2.238   1.092 -0.9284 -0.1220 -0.0767
  371SOL    HW2 1113   2.324   2.276   1.006  6.8015 -0.2645  1.2321
  372SOL     OW 1114   2.978   0.963   2.619  0.4684  0.0256  0.1125
  372SOL    HW1 1115   2.951   0.867   2.632  0.1864  2.5442 -0.3633
  372SOL    HW2 1116   3.066   0.973   2.561 -0.4824  2.3828  0.3695
  373SOL     OW 1117   2.921   1.556   0.607 -0.0215 -0.4064  0.1684
  373SOL    HW1 1118   2.939   1.651   0.569  1.2528  1.0400  1.6494
  373SOL    HW2 1119   2.831   1.564   0.653 -1.8303  0.6772  0.8889
  374SOL     OW 1120   0.392   2.456   0.314  0.0555 -0.0188  0.3374
  374SOL    HW1 1121   0.482   2.495   0.287  0.4287 -1.2034  1.2798
  374SOL    HW2 1122   0.320   2.495   0.251 -0.0466  1.0298 -0.3527
  375SOL     OW 1123   0.737   0.176   0.318  0.4431 -0.5459 -0.2039
  375SOL    HW1 1124   0.828   0.132   0.314  0.3819 -0.2190 -0.0156
  375SOL    HW2 1125   0.702   0.211   0.226 -0.9941  0.0665 -0.3055
  376SOL     OW 1126   0.205   3.105   2.242  0.2007  0.0728  0.1535
  376SOL    HW1 1127   0.240   0.044   2.158 -1.1417 -1.6575  0.7719
  376SOL    HW2 1128   0.135   3.035   2.215  1.2612 -1.0676 -1.8978
  377SOL     OW 1129   1.000   2.251   2.284  0.2844 -1.1019 -0.0337
  377SOL    HW1 1130   1.086   2.241   2.230 -0.4285  0.5680 -1.6122
  377SOL    HW2 1131   1.013   2.250   2.388  0.3048 -2.1721  1.1652
  378SOL     OW 1132   1.094   0.970   0.621  0.0509  0.1606  0.1784
  378SOL    HW1 1133   1.090   1.040   0.692  0.8200  0.4138  0.1171
  378SOL    HW2 1134   1.008   0.919   0.612  1.1331  0.7915  0.9283
  379SOL     OW 1135   1.082   1.653   3.020  0.0004 -0.3084 -0.5145
  379SOL    HW1 1136   1.093   1.584   3.094 -2.5511  0.9183  0.8351
  379SOL    HW2 1137   1.174   1.684   2.996 -0.8396  0.6702  3.9658
  380SOL     OW 1138   3.079   1.753   1.731  0.1575 -0.1411 -0.0227
  380SOL    HW1 1139   3.017   1.763   1.812  0.5453  0.4768  1.5690
  380SOL    HW2 1140   0.030   1.840   1.715  0.2174  2.3070 -1.4874
  381SOL     OW 1141   3.034   1.057   1.900  0.0930 -0.5459 -0.1895
  381SOL    HW1 1142   0.013   1.008   1.875  0.9958 -1.6067  0.4930
  381SOL    HW2 1143   2.970   1.041   1.827  3.8517 -0.6412  0.3961
  382SOL     OW 1144   2.519   2.287   3.045 -0.3590  0.5581 -0.0712
  382SOL    HW1 1145   2.478   2.364   2.988  1.5049  0.5964  2.5227
  382SOL    HW2 1146   2.601   2.253   2.999 -3.1899 -0.3050 -0.8751
  383SOL     OW 1147   2.371   2.068   2.227  0.0575  0.1764  0.1533
  383SOL    HW1 1148   2.442   1.997   2.235  0.5148 -0.3176 -0.5836
  383SOL    HW2 1149   2.336   2.086   2.319  1.3198  1.1265 -3.5796
  384SOL     OW 1150   0.787   2.318   2.147 -0.1444  0.0672  0.5866
  384SOL    HW1 1151   0.871   2.300   2.201 -0.8365 -1.7479  2.2076
  384SOL    HW2 1152   0.708   2.269   2.188 -0.6688 -0.5537 -1.8131
  385SOL     OW 1153   2.736   2.234   0.991  0.1355 -0.2324 -0.5724
  385SOL    HW1 1154   2.680   2.308   1.028  0.0909 -2.5688 -0.6733
  385SOL    HW2 1155   2.686   2.145   0.995 -0.4365  1.4905  0.1809
  386SOL     OW 1156   1.807   0.676   2.907  0.0186  0.1130 -0.0705
  386SOL    HW1 1157   1.746   0.597   2.885  0.3521 -0.2807 -1.4481
  386SOL    HW2 1158   1.820   0.682   3.011 -1.6246  0.2005  1.1135
  387SOL     OW 1159   0.349   0.506   1.950  0.4129 -0.7708  0.1322
  387SOL    HW1 1160   0.374   0.602   1.920 -0.9186  2.9447  4.8289
  387SOL    HW2 1161   0.387   0.441   1.885 -1.4429  3.0137  1.0907
  388SOL     OW 1162   2.751   1.127   1.612  0.0263  0.3818 -0.1601
  388SOL    HW1 1163   2.737   1.026   1.617  0.9534  2.3007  2.3265
  388SOL    HW2 1164   2.839   1.139   1.558  1.6134 -2.2206  2.6702
  389SOL     OW 1165   1.584   0.819   2.248  0.2657 -0.0562 -0.8436
  389SOL    HW1 1166   1.620   0.906   2.299 -0.3268 -0.4600  0.5128
  389SOL    HW2 1167   1.587   0.839   2.149 -1.1293  1.6318 -1.0091
  390SOL     OW 1168   2.034   2.248   0.523  0.5528  0.1324 -0.1639
  390SOL    HW1 1169   2.137   2.248   0.529 -2.3808 -0.4900 -1.2357
  390SOL    HW2 1170   1.979   2.299   0.595 -0.6698  2.3040  1.7282
  391SOL     OW 1171   1.790   2.817   0.828  0.7729  0.0601 -0.1156
  391SOL    HW1 1172   1.798   2.850   0.735 -0.7267 -0.4890  0.9116
  391SOL    HW2 1173   1.693   2.779   0.836 -2.3215 -1.6737 -1.0994
  392SOL     OW 1174   2.741   2.668   1.461 -0.5171  0.7123 -0.0287
  392SOL    HW1 1175   2.732   2.747   1.396  4.2821  1.0077  0.0447
  392SOL    HW2 1176   2.829   2.681   1.506  0.4521 -3.5790  2.4164
  393SOL     OW 1177   1.839   1.787   2.929  0.0430 -0.4070 -0.0543
  393SOL    HW1 1178   1.875   1.872   2.959  0.0930 -1.1398 -1.0860
  393SOL    HW2 1179   1.890   1.711   2.974  1.3824 -0.8162  1.1069
  394SOL     OW 1180   0.446   2.661   2.953 -0.1850 -0.2213  0.1156
  394SOL    HW1 1181   0.420   2.565   2.926 -0.5492  1.5344  0.2400
  394SOL    HW2 1182   0.355   2.709   2.941  1.6533  2.6031 -2.3747
  395SOL     OW 1183   1.232   1.369   0.983  0.6035  0.1439  0.1375
  395SOL    HW1 1184   1.153   1.372   0.915 -4.1389 -2.7730 -1.3284
  395SOL    HW2 1185   1.244   1.272   1.024 -2.0702  1.4828  1.7116
  396SOL     OW 1186   2.159   0.873   2.773 -0.6604  0.0183 -0.0891
  396SOL    HW1 1187   2.059   0.892   2.786 -2.8600  1.2406  1.2181
  396SOL    HW2 1188   2.193   0.818   2.857  0.9653  0.5726  1.7963
  397SOL     OW 1189   0.105   0.765   2.398  0.1886  0.3389 -0.1884
  397SOL    HW1 1190   0.018   0.720   2.385 -0.4956  0.2708  1.8396
  397SOL    HW2 1191   0.099   0.861   2.427  1.1222  1.4267  1.2818
  398SOL     OW 1192   1.247   0.530   0.224  0.1808 -0.1624 -0.2087
  398SOL    HW1 1193   1.341   0.490   0.209  3.0224  1.6814 -0.3386
  398SOL    HW2 1194   1.168   0.478   0.184  1.3889 -1.3083  1.7809
  399SOL     OW 1195   1.683   2.968   1.874 -0.1826 -0.0856 -0.0549
  399SOL    HW1 1196   1.777   3.005   1.859  0.5317  0.2261 -0.7013
  399SOL    HW2 1197   1.658   2.919   1.790 -0.5571 -3.4067 -0.1645
  400SOL     OW 1198   0.042   1.893   2.304 -0.1522 -0.2611 -0.2835
  400SOL    HW1 1199   0.058   1.807   2.251  1.6497  0.6050  0.7697
  400SOL    HW2 1200   0.007   1.868   2.392  2.6576  2.8541 -0.3363
  401SOL     OW 1201   0.603   3.056   0.188  0.1634  0.2754 -0.2310
  401SOL    HW1 1202   0.630   0.040   0.229 -1.0947 -0.9453 -2.0375
  401SOL    HW2 1203   0.544   3.000   0.250  2.8062  0.7751 -0.1590
  402SOL     OW 1204   0.408   2.424   1.468  0.1193 -0.0452 -0.8094
  402SOL    HW1 1205   0.413   2.332   1.506 -0.5841 -0.8140  1.5056
  402SOL    HW2 1206   0.370   2.491   1.537  0.5990 -0.7184  0.9280
  403SOL     OW 1207   0.293   1.442   1.229 -0.2886 -0.0814  0.0679
  403SOL    HW1 1208   0.203   1.412   1.194  2.1772 -2.0048 -3.2492
  403SOL    HW2 1209   0.297   1.470   1.329  0.4640  1.6582  0.5591
  404SOL     OW 1210   0.011   2.780   1.942 -0.4435 -0.4272 -0.4056
  404SOL    HW1 1211   3.036   2.718   1.939 -2.3412  0.7291 -0.9962
  404SOL    HW2 1212   3.093   2.855   2.011 -1.0016  0.5813  0.4910
  405SOL     OW 1213   2.703   0.409   2.110  0.0237 -0.5528 -0.3177
  405SOL    HW1 1214   2.611   0.425   2.147 -0.2622  2.0393  1.1620
  405SOL    HW2 1215   2.768   0.377   2.182  0.3333  0.7108  2.0625
  406SOL     OW 1216   2.052   2.578   0.190  0.3881  0.0279 -0.0620
  406SOL    HW1 1217   2.063   2.476   0.197  1.4050  0.3111  0.5227
  406SOL    HW2 1218   2.008   2.604   0.281 -2.7652  1.0288  2.0777
  407SOL     OW 1219   1.959   1.763   0.834  0.0590 -0.1815  0.1838
  407SOL    HW1 1220   1.898   1.820   0.893  0.9683  1.5258  0.7580
  407SOL    HW2 1221   1.990   1.811   0.748  0.0615 -0.9594 -1.1498
  408SOL     OW 1222   0.666   0.345   2.238  0.1408  0.5260 -0.1422
  408SOL    HW1 1223   0.741   0.405   2.202  1.2345  4.7502 -1.0088
  408SOL    HW2 1224   0.628   0.283   2.162 -1.1503 -1.3804 -0.1722
  409SOL     OW 1225   2.623   1.772   0.741  0.2920 -0.0640  0.5514
  409SOL    HW1 1226   2.658   1.704   0.813  3.7700  0.3742  2.8561
  409SOL    HW2 1227   2.535   1.826   0.761 -2.9820  2.3010  0.3933
  410SOL     OW 1228   2.366   1.506   0.870 -0.6377  0.4423  0.3057
  410SOL    HW1 1229   2.268   1.540   0.862 -1.6033 -1.2987 -0.9955
  410SOL    HW2 1230   2.403   1.522   0.962 -1.0925  0.9140  2.0408
  411SOL     OW 1231   3.083   0.798   0.381 -0.5457  0.2570 -0.6150
  411SOL    HW1 1232   0.074   0.768   0.406  0.5612 -4.0144 -1.1515
  411SOL    HW2 1233   3.038   0.839   0.465  0.9591  0.8138  2.5819
  412SOL     OW 1234   1.524   0.431   0.267 -0.2911  0.1072  0.8828
  412SOL    HW1 1235   1.586   0.479   0.199 -0.0726 -2.3669 -1.6587
  412SOL    HW2 1236   1.506   0.497   0.344 -1.4307  1.3142  1.5821
  413SOL     OW 1237   0.863   0.839   1.150 -0.4279  0.3129  0.2439
  413SOL    HW1 1238   0.773   0.790   1.155 -0.6245 -1.0159 -0.1666
  413SOL    HW2 1239   0.870   0.898   1.067 -0.2312 -1.4554 -0.2814
  414SOL     OW 1240   0.050   1.307   2.858 -0.0554 -0.3721  0.2489
  414SOL    HW1 1241   0.058   1.384   2.790  2.2691  0.7607 -1.1540
  414SOL    HW2 1242   0.137   1.255   2.862 -0.6061  2.1090 -1.1409
  415SOL     OW 1243   0.335   1.704   2.984 -0.1595  0.0594 -0.2353
  415SOL    HW1 1244   0.382   1.666   2.900 -1.0576 -0.8596 -2.4423
  415SOL    HW2 1245   0.235   1.715   2.973 -0.4254  0.0853 -1.6594
  416SOL     OW 1246   1.519   0.814   0.233 -0.0589  0.5063 -1.0601
  416SOL    HW1 1247   1.568   0.849   0.317  0.9783 -0.6819 -2.5572
  416SOL    HW2 1248   1.456   0.888   0.206  2.2649 -2.4876  0.3896
  417SOL     OW 1249   0.067   0.608   0.914 -0.4858  0.2793 -0.1425
  417SOL    HW1 1250   0.154   0.645   0.875 -0.2888 -2.7985 -0.8252
  417SOL    HW2 1251   0.000   0.600   0.835  1.8377  0.2896 -1.2025
  418SOL     OW 1252   2.347   1.067   2.697 -0.1371  0.4269  0.3960
  418SOL    HW1 1253   2.276   1.003   2.727  0.9988  1.5837 -0.1888
  418SOL    HW2 1254   2.430   1.061   2.751 -0.3077  1.6614  0.1819
  419SOL     OW 1255   0.507   0.578   0.398  0.2428 -0.1901 -0.0356
  419SOL    HW1 1256   0.585   0.592   0.459 -1.7078 -2.5867 -0.7325
  419SOL    HW2 1257   0.458   0.492   0.423 -0.0327 -0.6775 -1.3538
  420SOL     OW 1258   0.661   1.471   0.875  0.4549  0.0503  0.1746
  420SOL    HW1 1259   0.612   1.420   0.953  0.7953 -1.1204 -0.5356
  420SOL    HW2 1260   0.594   1.544   0.834 -1.3470  3.5134  0.1606
  421SOL     OW 1261   0.262   1.973   0.248 -0.1396 -0.3284 -0.4326
  421SOL    HW1 1262   0.317   1.941   0.171 -2.3811 -1.1802  1.8808
  421SOL    HW2 1263   0.301   1.954   0.338 -1.9774 -1.9276 -1.3464
  422SOL     OW 1264   2.540   0.319   1.435 -0.3371 -0.5114 -0.0564
  422SOL    HW1 1265   2.596   0.405   1.402  2.9536  1.1571 -0.2194
  422SOL    HW2 1266   2.592   0.276   1.513  1.8730  1.8957 -0.9280
  423SOL     OW 1267   2.059   1.288   0.935 -0.2747 -0.0392 -0.6375
  423SOL    HW1 1268   2.078   1.368   0.875 -1.9517 -2.6349 -1.0092
  423SOL    HW2 1269   2.138   1.265   1.000 -1.6772 -0.5668  2.5988
  424SOL     OW 1270   1.866   1.166   0.092  0.6337  0.4447  0.2664
  424SOL    HW1 1271   1.937   1.158   0.025 -0.5326 -0.1590 -0.6811
  424SOL    HW2 1272   1.793   1.100   0.071 -0.6612 -0.9403 -2.7675
  425SOL     OW 1273   3.073   2.957   2.159  0.3822  0.1046 -0.3944
  425SOL    HW1 1274   3.066   2.941   2.263 -1.7790 -0.5786  1.6648
  425SOL    HW2 1275   2.995   3.021   2.139  0.8883  0.7823 -0.0277
  426SOL     OW 1276   2.466   2.690   2.672  0.0534  0.2155  0.3678
  426SOL    HW1 1277   2.422   2.780   2.692  2.9479 -0.5787  2.5839
  426SOL    HW2 1278   2.498   2.686   2.574 -0.2404 -0.0054  0.1494
  427SOL     OW 1279   0.839   0.751   2.344  0.4955 -0.5216 -0.4300
  427SOL    HW1 1280   0.759   0.704   2.390 -0.6646 -0.4902  1.5392
  427SOL    HW2 1281   0.837   0.850   2.373  1.4877  1.8706 -0.1611
  428SOL     OW 1282   2.208   0.833   2.169  0.1334 -0.3593 -0.0115
  428SOL    HW1 1283   2.270   0.824   2.087  0.1833  1.3690 -0.4192
  428SOL    HW2 1284   2.142   0.913   2.156  1.0883 -1.0868 -0.6881
  429SOL     OW 1285   2.353   0.175   0.430  0.4218  0.2679  0.3192
  429SOL    HW1 1286   2.451   0.176   0.434 -1.0999  2.2355 -0.8853
  429SOL    HW2 1287   2.305   0.219   0.510 -3.3956  0.1238  0.1448
  430SOL     OW 1288   1.840   1.078   2.134  0.5932 -0.0427  0.0693
  430SOL    HW1 1289   1.931   1.083   2.179 -0.0180 -1.9293  0.7905
  430SOL    HW2 1290   1.851   1.061   2.034 -1.0646  0.8912 -1.2652
  431SOL     OW 1291   2.777   2.078   1.451  0.2372  0.0435 -0.0253
  431SOL    HW1 1292   2.754   1.982   1.440 -3.1646  1.8879 -0.1290
  431SOL    HW2 1293   2.843   2.096   1.376  2.0080 -0.2964 -2.3953
  432SOL     OW 1294   1.166   2.614   1.850  0.1710 -0.3747  0.2798
  432SOL    HW1 1295   1.071   2.639   1.876  0.0669 -3.8055 -0.6694
  432SOL    HW2 1296   1.163   2.566   1.763  2.5400 -1.0908 -2.6503
  433SOL     OW 1297   1.474   0.012   1.408  0.2919  0.1461  0.3629
  433SOL    HW1 1298   1.527   0.065   1.335  0.9903 -0.9599  0.2938
  433SOL    HW2 1299   1.462   3.022   1.377  1.3394  0.6031  1.9211
  434SOL     OW 1300   0.122   2.321   2.228  0.1388 -0.1121 -0.2804
  434SOL    HW1 1301   0.127   2.393   2.156  1.2696 -0.7906 -2.4251
  434SOL    HW2 1302   0.183   2.341   2.306 -0.1466  0.2983  0.4798
  435SOL     OW 1303   0.276   1.558   0.223  0.4371 -0.3547  0.2569
  435SOL    HW1 1304   0.358   1.605   0.186  0.9044 -0.5466  0.0293
  435SOL    HW2 1305   0.264   1.471   0.169 -0.9520  0.3247 -3.8588
  436SOL     OW 1306   0.439   1.074   1.703  0.1310 -0.2436 -0.2185
  436SOL    HW1 1307   0.505   1.141   1.661 -0.9836  0.9364 -2.0288
  436SOL    HW2 1308   0.487   1.025   1.777 -0.3194  0.6557 -0.3617
  437SOL     OW 1309   1.014   0.607   2.972  0.0503 -0.9296  0.5515
  437SOL    HW1 1310   1.068   0.632   3.053 -2.3757 -1.5378  0.1220
  437SOL    HW2 1311   1.071   0.551   2.909  0.2723 -0.9881 -2.0841
  438SOL     OW 1312   0.581   2.034   1.607 -0.3272 -0.1997  0.2517
  438SOL    HW1 1313   0.604   1.980   1.527 -0.4072  1.9988  0.5948
  438SOL    HW2 1314   0.584   1.972   1.689 -0.4788 -0.3575  0.3465
  439SOL     OW 1315   1.986   1.599   3.050  0.2472  0.0512 -0.2904
  439SOL    HW1 1316   2.004   1.502   3.023  1.0611 -0.5032 -0.5290
  439SOL    HW2 1317   1.956   1.606   0.043  0.4952 -2.9235  0.3726
  440SOL     OW 1318   1.362   0.572   0.499  0.3404 -0.3292  0.3167
  440SOL    HW1 1319   1.341   0.487   0.547 -1.4327 -1.0066 -0.7658
  440SOL    HW2 1320   1.293   0.590   0.427 -0.3871  0.7793  2.3040
  441SOL     OW 1321   0.331   2.604   1.666 -0.1301  0.0881  0.0763
  441SOL    HW1 1322   0.417   2.647   1.694 -0.9137 -1.1154 -0.8350
  441SOL    HW2 1323   0.270   2.683   1.650  0.3503  1.3487 -1.0651
  442SOL     OW 1324   2.314   2.552   0.954  0.4108 -0.2988 -0.0759
  442SOL    HW1 1325   2.280   2.464   0.984  1.6093  1.5385  0.2862
  442SOL    HW2 1326   2.280   2.573   0.858 -1.2584  2.7493 -1.1571
  443SOL     OW 1327   2.572   1.307   2.482 -0.1895 -0.2900  0.1365
  443SOL    HW1 1328   2.468   1.291   2.473 -0.4781 -0.0929  0.3967
  443SOL    HW2 1329   2.617   1.230   2.535 -3.5041  0.4290  1.1284
  444SOL     OW 1330   1.386   0.732   2.419  0.5988  0.6169 -0.4673
  444SOL    HW1 1331   1.446   0.769   2.344 -0.5632  1.0354 -1.4104
  444SOL    HW2 1332   1.296   0.702   2.374 -1.0167 -1.5285 -0.2439
  445SOL     OW 1333   2.680   2.363   1.757 -0.2328 -0.1965 -0.4872
  445SOL    HW1 1334   2.647   2.311   1.674  0.5189 -0.1348  1.3618
  445SOL    HW2 1335   2.686   2.302   1.841 -1.1771 -1.0496  1.8147
  446SOL     OW 1336   0.023   1.445   0.295 -0.2691 -0.2321 -0.0057
  446SOL    HW1 1337   0.093   1.502   0.334 -0.7514  0.9044  0.1269
  446SOL    HW2 1338   3.050   1.499   0.265 -0.2581 -1.1396  1.2105
  447SOL     OW 1339   0.906   2.367   0.950 -0.6935 -0.2811  0.0909
  447SOL    HW1 1340   0.825   2.372   0.890  3.4503 -2.1525 -0.1192
  447SOL    HW2 1341   0.974   2.440   0.933 -0.9232  0.9279 -0.4896
  448SOL     OW 1342   1.656   1.608   1.774  0.2944  0.1768  0.1821
  448SOL    HW1 1343   1.699   1.607   1.864 -1.5063  2.3373 -1.5118
  448SOL    HW2 1344   1.711   1.545   1.710  1.8360  0.8443 -3.0479
  449SOL     OW 1345   0.706   1.845   2.837  0.8521  0.5105 -0.0201
  449SOL    HW1 1346   0.678   1.838   2.937  1.4941  0.5268  0.9025
  449SOL    HW2 1347   0.802   1.820   2.827  1.1400  0.3438 -1.2767
  450SOL     OW 1348   3.073   1.708   2.551  0.1406 -0.4537  0.4252
  450SOL    HW1 1349   3.008   1.664   2.484  2.3402 -1.1606 -0.2406
  450SOL    HW2 1350   3.037   1.781   2.613  1.4626  1.2835  2.3897
  451SOL     OW 1351   1.988   0.561   1.473 -0.5513 -0.2994 -0.5349
  451SOL    HW1 1352   2.001   0.462   1.455  0.6345  2.3527  1.8323
  451SOL    HW2 1353   1.973   0.572   1.572 -0.9598 -1.0202  0.6243
  452SOL     OW 1354   1.012   2.549   1.366 -0.3589  0.0913 -0.1099
  452SOL    HW1 1355   1.018   2.464   1.302  1.3728 -2.6999 -2.8570
  452SOL    HW2 1356   0.933   2.608   1.337 -0.6503 -0.7004  1.5991
  453SOL     OW 1357   1.237   1.916   0.757  0.2447 -0.1713  0.2226
  453SOL    HW1 1358   1.290   1.954   0.838  0.7577  0.9342  1.8340
  453SOL    HW2 1359   1.170   1.989   0.727 -0.0717  0.1748  1.1641
  454SOL     OW 1360   2.934   1.147   0.779 -0.2005  0.0841  0.4562
  454SOL    HW1 1361   3.008   1.128   0.713 -1.8375  1.9670 -1.9105
  454SOL    HW2 1362   2.846   1.165   0.732  0.2667  1.5857 -1.4498
  455SOL     OW 1363   0.720   1.124   0.587  0.2484  0.1422 -0.0209
  455SOL    HW1 1364   0.712   1.204   0.529  0.3613 -0.6810  1.9259
  455SOL    HW2 1365   0.625   1.093   0.614 -3.0556 -1.0080  0.0097
  456SOL     OW 1366   1.982   2.408   1.056  0.2627 -0.1739 -0.1089
  456SOL    HW1 1367   2.074   2.372   1.033 -0.6769  0.5967  2.5315
  456SOL    HW2 1368   1.952   2.481   0.990 -2.2122 -1.4816 -1.1805
  457SOL     OW 1369   1.488   2.499   0.046 -0.1806  0.7415 -0.1234
  457SOL    HW1 1370   1.404   2.512   3.091 -3.2644  0.2960 -0.5337
  457SOL    HW2 1371   1.527   2.404   0.024  0.1203  0.5904  0.6420
  458SOL     OW 1372   2.694   0.155   2.916 -0.2551 -0.1349  0.1580
  458SOL    HW1 1373   2.670   0.115   2.829 -1.8970 -2.4421  2.2187
  458SOL    HW2 1374   2.681   0.090   2.992  0.8791 -1.4662 -2.1154
  459SOL     OW 1375   2.151   0.019   1.759  0.2401  0.3299 -0.5245
  459SOL    HW1 1376   2.182   3.093   1.664 -1.1380 -0.9586  0.4462
  459SOL    HW2 1377   2.102   3.050   1.805  1.6464 -0.1911  1.1429
  460SOL     OW 1378   2.869   0.359   2.942 -0.4525  0.1128 -1.0068
  460SOL    HW1 1379   2.939   0.386   2.875 -1.6922 -0.0012 -0.4782
  460SOL    HW2 1380   2.823   0.273   2.923  1.5322 -0.0978  0.3454
  461SOL     OW 1381   0.099   2.147   1.050 -0.0789 -0.3583  0.4601
  461SOL    HW1 1382   0.032   2.079   1.010  1.5297  0.8506 -2.9094
  461SOL    HW2 1383   0.064   2.247   1.048  0.0818  2.5252  1.9783
  462SOL     OW 1384   2.966   3.013   0.805 -0.1565  0.8296  0.2432
  462SOL    HW1 1385   3.049   3.023   0.741  2.5797 -0.0473 -1.7433
  462SOL    HW2 1386   2.882   3.057   0.771  1.7637  1.2338 -0.2210
  463SOL     OW 1387   2.335   1.347   3.105 -0.4449  0.0607 -0.5559
  463SOL    HW1 1388   2.358   1.248   0.017 -1.0758 -1.3556  1.7618
  463SOL    HW2 1389   2.335   1.368   3.006 -2.2334  0.3254 -1.2285
  464SOL     OW 1390   0.657   0.065   1.200 -0.2070  0.1460  0.0123
  464SOL    HW1 1391   0.606   3.091   1.237  2.2916 -0.4153  0.7438
  464SOL    HW2 1392   0.760   0.047   1.186 -1.8044  0.6750  0.8768
  465SOL     OW 1393   1.041   0.626   1.144 -0.0073  0.3568  0.0399
  465SOL    HW1 1394   0.962   0.691   1.144  0.4209  0.9778 -2.1959
  465SOL    HW2 1395   1.021   0.540   1.094 -1.3711  1.4947  0.5933
  466SOL     OW 1396   1.369   2.472   1.950 -0.3403 -0.2936  0.3147
  466SOL    HW1 1397   1.293   2.509   1.887 -2.4921  4.5973 -4.7698
  466SOL    HW2 1398   1.415   2.541   2.005 -0.4225 -0.0440 -1.3453
  467SOL     OW 1399   0.554   2.957   1.894  0.1528  0.1923  0.0962
  467SOL    HW1 1400   0.522   2.970   1.991  1.0596  2.1572 -0.9169
  467SOL    HW2 1401   0.658   2.941   1.903  0.5965 -1.6615  1.7554
  468SOL     OW 1402   0.045   1.460   2.109 -0.2506  0.0692  0.0525
  468SOL    HW1 1403   0.007   1.411   2.035  1.9572  1.8620  1.4283
  468SOL    HW2 1404   0.035   1.560   2.090  1.0041 -1.3563  1.9173
  469SOL     OW 1405   1.206   2.265   0.582 -0.2170  0.8654 -0.2928
  469SOL    HW1 1406   1.138   2.324   0.531 -1.0604 -1.1235 -1.4935
  469SOL    HW2 1407   1.225   2.287   0.678  1.0204  0.1785  1.3607
  470SOL     OW 1408   2.083   1.084   2.223 -0.0009 -0.0630 -0.5225
  470SOL    HW1 1409   2.140   1.166   2.206 -0.2819 -2.9985 -0.4192
  470SOL    HW2 1410   2.069   1.063   2.320  0.0938  1.3352  0.3196
  471SOL     OW 1411   0.821   2.317   0.220 -0.6075 -0.3101  0.5365
  471SOL    HW1 1412   0.847   2.290   0.314  1.3271 -2.3993  0.0645
  471SOL    HW2 1413   0.900   2.355   0.171  1.5197 -1.7287  1.0827
  472SOL     OW 1414   2.989   2.648   2.384  0.0984  0.2397 -0.0533
  472SOL    HW1 1415   3.077   2.597   2.393  0.6231  0.9851 -0.2909
  472SOL    HW2 1416   3.013   2.750   2.390  2.2745  1.2454 -0.4609
  473SOL     OW 1417   0.728   3.073   3.037 -0.5678 -0.6931 -0.1905
  473SOL    HW1 1418   0.728   2.982   3.002  1.0421  2.1133  1.2218
  473SOL    HW2 1419   0.687   3.077   0.026 -0.8938  0.8254 -1.3961
  474SOL     OW 1420   1.590   0.390   0.762 -0.0637 -0.2331  0.0796
  474SOL    HW1 1421   1.607   0.359   0.664  0.3996  1.1284 -0.0163
  474SOL    HW2 1422   1.612   0.491   0.774  0.9447  2.0560 -0.8936
  475SOL     OW 1423   1.380   0.235   1.497  0.4399  0.0367  0.0120
  475SOL    HW1 1424   1.314   0.280   1.437  0.8975 -1.1514  0.3961
  475SOL    HW2 1425   1.407   0.140   1.468 -1.0616  0.7214  0.0354
  476SOL     OW 1426   0.119   1.057   1.150  0.3070  0.4195  0.4504
  476SOL    HW1 1427   0.149   0.992   1.224  2.0912  0.2222  0.6469
  476SOL    HW2 1428   0.206   1.094   1.110 -1.1167 -0.0579  1.0796
  477SOL     OW 1429   0.891   1.994   0.525  0.5179  0.2871 -0.0085
  477SOL    HW1 1430   0.940   1.966   0.442 -3.4913 -0.8460  2.5136
  477SOL    HW2 1431   0.950   2.018   0.603 -1.9635  0.5684 -0.4997
  478SOL     OW 1432   0.147   2.606   2.474  0.0028  0.4362 -0.6125
  478SOL    HW1 1433   0.214   2.537   2.445 -1.0315 -0.9075  1.7835
  478SOL    HW2 1434   0.201   2.692   2.477  2.5913 -1.9988  0.3769
  479SOL     OW 1435   2.933   0.415   1.578 -0.0288 -0.5425  0.1565
  479SOL    HW1 1436   2.917   0.501   1.633  0.5862 -0.8089  0.8562
  479SOL    HW2 1437   3.025   0.408   1.540  1.7929 -1.3171  1.7106
  480SOL     OW 1438   2.841   2.574   3.072  0.2882 -0.0450  0.0316
  480SOL    HW1 1439   2.934   2.541   3.048 -2.2387 -2.2317  0.5150
  480SOL    HW2 1440   2.844   2.642   0.044 -2.1619 -0.6590 -1.4670
  481SOL     OW 1441   2.462   2.050   1.710  0.1456  0.2418 -0.1536
  481SOL    HW1 1442   2.477   2.133   1.655  1.1884 -1.1047 -2.4491
  481SOL    HW2 1443   2.445   2.082   1.806 -0.1514  1.1712  2.3162
  482SOL     OW 1444   1.810   1.741   2.464  0.2019  0.1296  0.1685
  482SOL    HW1 1445   1.757   1.680   2.399 -0.7960 -0.7650 -1.2613
  482SOL    HW2 1446   1.741   1.779   2.531 -1.2510 -0.0711 -0.3158
  483SOL     OW 1447   0.984   1.548   1.730  0.1215 -0.3290 -0.2307
  483SOL    HW1 1448   1.067   1.578   1.678 -0.9870 -1.2068  1.7877
  483SOL    HW2 1449   0.955   1.448   1.716  0.8403 -1.2894 -1.0562
  484SOL     OW 1450   0.427   0.555   1.373  0.0646 -0.2094 -0.1431
  484SOL    HW1 1451   0.391   0.527   1.280 -0.7086 -2.1001 -3.1240
  484SOL    HW2 1452   0.393   0.487   1.445  0.6978 -0.7799  1.9547
  485SOL     OW 1453   2.423   1.083   0.020  0.3995  0.7839  0.2392
  485SOL    HW1 1454   2.402   1.001   3.075  1.2004 -0.2236 -1.9011
  485SOL    HW2 1455   2.426   1.066   0.121  1.6752 -1.7761 -2.4657
  486SOL     OW 1456   1.171   0.052   1.587 -0.3297 -0.4776  0.4962
  486SOL    HW1 1457   1.245   0.123   1.577  0.4552  0.1791 -1.0461
  486SOL    HW2 1458   1.100   0.072   1.515  0.8823  1.3376  1.8537
  487SOL     OW 1459   0.724   2.261   1.555  0.6825  0.0052  0.0662
  487SOL    HW1 1460   0.694   2.323   1.627 -1.6967  3.5295  0.6113
  487SOL    HW2 1461   0.689   2.171   1.567 -1.1772 -0.8900  1.7140
  488SOL     OW 1462   2.675   1.858   2.873 -0.0088  0.7149  0.4262
  488SOL    HW1 1463   2.692   1.940   2.813 -1.0735 -1.6108  0.0617
  488SOL    HW2 1464   2.760   1.799   2.878 -0.0032 -0.4736 -1.3141
  489SOL     OW 1465   2.164   2.889   0.685  0.3867 -0.0562 -0.0974
  489SOL    HW1 1466   2.072   2.917   0.724 -1.5403  0.4094 -0.5428
  489SOL    HW2 1467   2.181   2.938   0.589  1.2380  0.1770 -2.0366
  490SOL     OW 1468   1.091   2.362   3.067  1.6287 -0.9281  0.0525
  490SOL    HW1 1469   1.005   2.423   3.055 -1.5422  0.0159 -2.6331
  490SOL    HW2 1470   1.118   2.369   0.058  1.5125  0.9787 -0.8370
  491SOL     OW 1471   0.637   1.226   1.605  0.9299 -0.5641  0.4558
  491SOL    HW1 1472   0.609   1.322   1.592 -0.9616 -1.4576 -0.1644
  491SOL    HW2 1473   0.734   1.219   1.634 -2.4258  0.6737  0.8910
  492SOL     OW 1474   0.995   0.584   1.932  0.0504  0.9657 -0.3590
  492SOL    HW1 1475   0.972   0.655   1.855 -0.8377  1.6971 -2.4033
  492SOL    HW2 1476   1.055   0.625   2.002  0.5260  0.2471 -1.7432
  493SOL     OW 1477   2.352   1.914   0.804  0.1953  0.1487 -0.0466
  493SOL    HW1 1478   2.292   1.876   0.731 -0.6846 -1.6851 -1.5774
  493SOL    HW2 1479   2.331   1.869   0.890 -1.2546  0.9709 -1.7864
  494SOL     OW 1480   0.917   1.597   0.855  0.0861 -0.1284  0.0543
  494SOL    HW1 1481   0.925   1.613   0.954  0.5775  0.8193 -1.0903
  494SOL    HW2 1482   0.819   1.565   0.832 -3.5186  0.0433  0.2238
  495SOL     OW 1483   2.257   2.522   0.451  0.4224 -0.2469 -0.0832
  495SOL    HW1 1484   2.341   2.550   0.401 -0.8147 -1.8646 -0.2424
  495SOL    HW2 1485   2.258   2.421   0.469 -0.9362  0.4735 -0.2612
  496SOL     OW 1486   2.710   2.860   1.289  0.2355 -0.0805 -0.7850
  496SOL    HW1 1487   2.791   2.925   1.289  2.5796  2.6410  0.8112
  496SOL    HW2 1488   2.624   2.907   1.316 -1.8568 -0.1462 -1.7305
  497SOL     OW 1489   2.331   1.212   2.452  0.5814 -0.0867  0.2640
  497SOL    HW1 1490   2.286   1.301   2.451  0.0535  0.4274 -1.1371
  497SOL    HW2 1491   2.319   1.159   2.538  0.8219  3.0436 -1.3569
  498SOL     OW 1492   3.105   2.173   1.402 -0.2114  0.0572  0.2741
  498SOL    HW1 1493   3.058   2.137   1.324  1.8190  2.8832  2.2160
  498SOL    HW2 1494   3.077   2.267   1.433 -1.5818 -0.7159  0.2675
  499SOL     OW 1495   0.866   2.420   1.922 -0.3783 -0.2903  0.6699
  499SOL    HW1 1496   0.826   2.387   2.014 -1.7433 -1.4647  2.6369
  499SOL    HW2 1497   0.942   2.355   1.908 -2.3994 -1.4984  2.0406
  500SOL     OW 1498   0.542   2.206   0.335  0.1092  0.1301  0.0204
  500SOL    HW1 1499   0.517   2.138   0.260 -2.0157 -1.1775 -1.6796
  500SOL    HW2 1500   0.472   2.285   0.331 -3.2913  0.3188  2.4730
  501SOL     OW 1501   1.939   0.022   1.330  0.3597  0.6420 -0.1627
  501SOL    HW1 1502   1.909   0.073   1.245 -0.8324 -0.3053 -1.6016
  501SOL    HW2 1503   1.856   3.093   1.380 -1.1271  1.0445 -1.2692
  502SOL     OW 1504   2.568   0.546   1.648 -0.5275 -0.4576  0.5515
  502SOL    HW1 1505   2.509   0.627   1.619 -0.6012  0.3020 -2.0743
  502SOL    HW2 1506   2.665   0.577   1.666 -0.8903  1.0691 -1.8619
  503SOL     OW 1507   2.504   1.299   1.993 -0.1634  0.4958 -0.4170
  503SOL    HW1 1508   2.468   1.389   1.977  0.0554 -1.3048  2.0312
  503SOL    HW2 1509   2.559   1.261   1.919 -1.3699  2.1523  2.6089
  504SOL     OW 1510   1.472   0.719   1.739 -0.2327 -0.0464 -0.0302
  504SOL    HW1 1511   1.389   0.666   1.730  1.3995  1.4966  0.5341
  504SOL    HW2 1512   1.527   0.714   1.654 -1.0522  0.4389  0.0013
  505SOL     OW 1513   0.380   0.036   1.752  0.5524  0.0926  0.3416
  505SOL    HW1 1514   0.441   3.077   1.801 -0.7014 -1.2956  1.4211
  505SOL    HW2 1515   0.390   0.031   1.651  3.3146  0.2203 -0.1176
  506SOL     OW 1516   0.246   0.311   0.181 -0.0114  0.0883 -0.3369
  506SOL    HW1 1517   0.315   0.291   0.109  0.0957  2.1400 -0.4765
  506SOL    HW2 1518   0.288   0.350   0.271  1.4718  3.1648  3.3312
  507SOL     OW 1519   2.370   0.108   0.121 -0.1443  0.3300  0.0091
  507SOL    HW1 1520   2.458   0.053   0.113  0.5542  1.9919 -0.7589
  507SOL    HW2 1521   2.365   0.151   0.211 -0.1655  0.1453  1.3993
  508SOL     OW 1522   1.311   0.164   1.916 -0.4067  0.4620 -0.1040
  508SOL    HW1 1523   1.271   0.221   1.843 -0.1673 -1.6973  0.2617
  508SOL    HW2 1524   1.411   0.178   1.920 -0.2242  0.4307  1.1229
  509SOL     OW 1525   1.758   1.796   1.185 -0.1349 -0.0003 -0.0837
  509SOL    HW1 1526   1.664   1.793   1.153  0.4481 -1.8435  0.2830
  509SOL    HW2 1527   1.821   1.726   1.143  0.2147 -1.4036 -1.8949
  510SOL     OW 1528   2.534   1.245   1.495 -0.4056  0.3527 -0.4082
  510SOL    HW1 1529   2.613   1.206   1.554 -0.2145  0.8217  2.4496
  510SOL    HW2 1530   2.463   1.173   1.474 -1.9533  1.2111 -2.2959
  511SOL     OW 1531   1.656   1.942   1.395 -0.1385  0.3717  0.0965
  511SOL    HW1 1532   1.717   1.875   1.345  0.8699 -0.2628  1.3131
  511SOL    HW2 1533   1.681   2.036   1.372 -1.1294  0.8574 -0.6441
  512SOL     OW 1534   0.077   1.534   0.671  0.3349  0.3675 -0.4658
  512SOL    HW1 1535   0.110   1.616   0.617  0.2797  2.7241 -0.6799
  512SOL    HW2 1536   3.093   1.504   0.633  2.1308  2.0797  1.9222
  513SOL     OW 1537   0.030   1.709   0.077  0.6413  0.3271 -0.0749
  513SOL    HW1 1538   0.026   1.695   3.082  1.3289 -0.1959  2.2885
  513SOL    HW2 1539   0.101   1.651   0.118  0.1501  1.8135 -0.2927
  514SOL     OW 1540   2.816   1.848   2.332 -0.6391 -0.3865  0.9365
  514SOL    HW1 1541   2.811   1.875   2.429 -0.8806  1.1264 -3.6080
  514SOL    HW2 1542   2.849   1.751   2.320 -0.0239  0.6133 -0.8314
  515SOL     OW 1543   2.190   1.063   0.673  0.1304 -0.0149 -0.2618
  515SOL    HW1 1544   2.190   1.163   0.660 -1.6998 -0.0892  0.7880
  515SOL    HW2 1545   2.096   1.027   0.667  1.8342 -0.3355 -0.4402
  516SOL     OW 1546   2.125   2.858   0.176 -0.5645  0.0140  0.4673
  516SOL    HW1 1547   2.097   2.765   0.200 -0.1354  2.7893  2.1226
  516SOL    HW2 1548   2.196   2.853   0.100 -0.1739 -3.1159  1.1088
  517SOL     OW 1549   1.102   1.956   2.462  0.4008  0.2717  0.2500
  517SOL    HW1 1550   1.164   2.028   2.419 -1.3966  0.5119 -0.8775
  517SOL    HW2 1551   1.011   1.961   2.416  1.5696 -0.7423  0.1913
  518SOL     OW 1552   0.166   0.210   2.425 -0.0345  0.3161  0.0668
  518SOL    HW1 1553   0.186   0.135   2.357 -0.2541  1.1747  1.8500
  518SOL    HW2 1554   0.118   0.283   2.370 -3.5041 -1.1774  1.1204
  519SOL     OW 1555   0.485   1.469   3.103  0.1959 -0.0794 -0.9924
  519SOL    HW1 1556   0.416   1.395   0.009 -1.1830 -0.5228  1.1158
  519SOL    HW2 1557   0.577   1.431   3.083  1.8945 -0.9624 -1.8633
  520SOL     OW 1558   2.836   2.058   2.167  0.1402  0.2177  0.0252
  520SOL    HW1 1559   2.839   1.980   2.235 -0.3549 -1.4707  1.2031
  520SOL    HW2 1560   2.930   2.073   2.133  1.6189  0.1623 -0.3010
  521SOL     OW 1561   0.714   2.426   2.575  0.1200  0.3724 -0.1251
  521SOL    HW1 1562   0.733   2.334   2.537 -3.0397  2.1878  1.4738
  521SOL    HW2 1563   0.669   2.492   2.512  0.5982  0.1607  1.9265
  522SOL     OW 1564   1.670   2.732   2.006 -0.1259  0.2402  0.5965
  522SOL    HW1 1565   1.573   2.718   2.029 -0.4873 -2.1671  0.9434
  522SOL    HW2 1566   1.678   2.818   1.953 -3.0037 -3.2215 -0.4844
  523SOL     OW 1567   2.132   1.867   1.974 -0.6122 -0.4086  0.0658
  523SOL    HW1 1568   2.234   1.864   1.994  1.7916  0.4962 -0.0538
  523SOL    HW2 1569   2.100   1.964   1.958 -1.0263  1.4147 -2.2201
  524SOL     OW 1570   0.617   2.730   0.450  0.3729 -0.4035  0.6249
  524SOL    HW1 1571   0.558   2.799   0.402 -1.3289  2.9809 -1.0455
  524SOL    HW2 1572   0.642   2.658   0.380 -1.1876 -0.8089  1.1603
  525SOL     OW 1573   0.232   0.704   0.447 -0.1424  0.2424  0.2712
  525SOL    HW1 1574   0.325   0.691   0.401  1.4128 -0.0171 -0.5736
  525SOL    HW2 1575   0.203   0.617   0.500  0.1546 -1.9175 -0.6254
  526SOL     OW 1576   0.763   2.994   0.818  0.1600  0.3018 -0.2003
  526SOL    HW1 1577   0.703   2.952   0.890  0.9980  1.5137  1.2230
  526SOL    HW2 1578   0.769   3.093   0.838 -0.4068  0.4624 -2.6377
  527SOL     OW 1579   2.188   1.772   0.990  0.1794 -0.2357 -0.6229
  527SOL    HW1 1580   2.097   1.749   0.951  0.4598  2.9679 -2.4356
  527SOL    HW2 1581   2.186   1.793   1.092 -1.0985 -1.2639  0.7860
  528SOL     OW 1582   2.818   2.618   2.612  0.4030 -0.4192  0.0576
  528SOL    HW1 1583   2.720   2.617   2.581 -0.5165  1.0509 -0.9835
  528SOL    HW2 1584   2.880   2.604   2.534 -1.4163  2.3114 -1.5978
  529SOL     OW 1585   1.459   1.711   2.248  0.3547  0.0859 -0.7564
  529SOL    HW1 1586   1.448   1.617   2.209  2.3489  3.1677 -0.5270
  529SOL    HW2 1587   1.552   1.750   2.233 -2.6012 -1.8816  1.2258
  530SOL     OW 1588   1.565   1.314   2.974  0.1718  0.0538  0.3214
  530SOL    HW1 1589   1.576   1.387   2.902  2.1817  1.1358 -1.3594
  530SOL    HW2 1590   1.555   1.226   2.925 -1.7499  0.2717 -0.3222
  531SOL     OW 1591   0.549   1.023   3.086 -0.6977 -0.1455  0.2388
  531SOL    HW1 1592   0.506   0.991   2.999  0.3886 -0.8580 -0.5157
  531SOL    HW2 1593   0.609   0.949   0.014 -4.4011  0.5251  0.2149
  532SOL     OW 1594   1.773   1.460   0.420 -0.0331  0.9448  0.1379
  532SOL    HW1 1595   1.829   1.395   0.478  2.1997  0.2979 -0.0474
  532SOL    HW2 1596   1.779   1.555   0.469  3.0898  3.6360 -0.1568
  533SOL     OW 1597   0.656   0.327   2.540 -0.0146 -0.4162 -0.0845
  533SOL    HW1 1598   0.654   0.317   2.441  0.8223 -1.5887 -1.1365
  533SOL    HW2 1599   0.745   0.279   2.566  0.0972 -2.1870 -0.9700
  534SOL     OW 1600   0.881   2.519   0.026 -0.2749  0.4043 -0.6032
  534SOL    HW1 1601   0.803   2.491   3.070 -2.1212  1.5314 -3.0951
  534SOL    HW2 1602   0.919   2.608   3.103  1.8178 -1.4960  0.6305
  535SOL     OW 1603   0.037   0.125   0.135  0.6483  0.5100  0.3936
  535SOL    HW1 1604   0.062   0.036   0.168  2.0786  4.6367  2.7353
  535SOL    HW2 1605   0.121   0.185   0.140 -1.7219 -1.9162  1.3290
  536SOL     OW 1606   3.094   0.952   2.157  0.2852  0.1034  0.0384
  536SOL    HW1 1607   3.061   1.001   2.071 -2.1001  2.5649 -2.6232
  536SOL    HW2 1608   0.091   0.949   2.159 -0.0165  0.1589 -1.6033
  537SOL     OW 1609   1.043   0.162   1.376  0.4504  0.0302  0.3449
  537SOL    HW1 1610   0.947   0.195   1.352 -1.4717  0.1694 -0.7187
  537SOL    HW2 1611   1.112   0.234   1.358 -4.2722 -1.8887  0.3170
  538SOL     OW 1612   0.286   1.652   0.470  0.0514  0.2801  0.4121
  538SOL    HW1 1613   0.291   1.623   0.369  1.7653  0.3972 -3.2471
  538SOL    HW2 1614   0.336   1.586   0.531 -2.2073  1.1844  1.1364
  539SOL     OW 1615   2.641   1.085   2.141 -0.0283  0.1972 -0.1307
  539SOL    HW1 1616   2.553   1.053   2.184 -1.5428  0.6913  1.5629
  539SOL    HW2 1617   2.637   1.177   2.095  0.2206  0.2193  1.3077
  540SOL     OW 1618   1.804   1.369   2.164 -0.3822 -0.4447  0.5542
  540SOL    HW1 1619   1.774   1.275   2.135  1.6658 -3.2870 -0.8105
  540SOL    HW2 1620   1.893   1.390   2.116 -2.0090 -1.3449 -0.4937
  541SOL     OW 1621   0.911   1.268   1.671  0.2950 -0.1229 -0.0963
  541SOL    HW1 1622   0.969   1.211   1.733 -0.9942  2.4913  0.2668
  541SOL    HW2 1623   0.955   1.273   1.575 -0.4436  1.1330 -2.6811
  542SOL     OW 1624   1.781   0.432   2.181  0.2431  0.3967 -1.0789
  542SOL    HW1 1625   1.875   0.440   2.214 -2.1914 -0.2230 -1.3117
  542SOL    HW2 1626   1.766   0.353   2.122  0.1340 -0.4772  1.0829
  543SOL     OW 1627   0.878   0.238   0.570 -0.3093 -0.6422 -0.0003
  543SOL    HW1 1628   0.933   0.152   0.567 -1.3439 -1.2196 -1.5082
  543SOL    HW2 1629   0.825   0.237   0.482  0.4383 -0.0943 -0.7299
  544SOL     OW 1630   2.546   1.874   2.237 -0.3018 -0.6166 -0.4315
  544SOL    HW1 1631   2.513   1.800   2.298  1.4386  0.2559 -0.0852
  544SOL    HW2 1632   2.644   1.882   2.258 -0.2382  1.9851  0.1029
  545SOL     OW 1633   2.049   2.115   1.977 -0.3600  0.5732 -0.2271
  545SOL    HW1 1634   2.086   2.169   2.061  0.6960  0.9424  2.0340
  545SOL    HW2 1635   1.996   2.178   1.917 -2.2386  0.1879 -1.1258
  546SOL     OW 1636   0.418   0.055   3.080  0.0796 -0.3585 -0.0263
  546SOL    HW1 1637   0.488   0.096   0.036 -0.0552  0.1459 -0.6826
  546SOL    HW2 1638   0.354   3.095   0.025 -1.0556  1.4918 -0.2021
  547SOL     OW 1639   2.059   0.723   0.296 -0.2416  0.5579 -0.3752
  547SOL    HW1 1640   1.987   0.679   0.355  2.1451 -0.4577  1.0917
  547SOL    HW2 1641   2.073   0.816   0.336  2.3995 -0.7541  2.1584
  548SOL     OW 1642   2.225   1.609   2.295  0.4537 -0.4016 -0.4736
  548SOL    HW1 1643   2.206   1.536   2.368  0.5122 -0.1812  1.3740
  548SOL    HW2 1644   2.317   1.651   2.302  0.4594 -1.4607  2.0366
  549SOL     OW 1645   1.908   0.437   0.634  0.4456 -0.1847  0.3037
  549SOL    HW1 1646   1.906   0.478   0.723  1.2761 -2.0845 -4.2613
  549SOL    HW2 1647   1.951   0.345   0.640 -0.3162 -0.7719  1.3952
  550SOL     OW 1648   2.499   2.288   0.721  0.3708  0.0611 -0.0327
  550SOL    HW1 1649   2.496   2.227   0.804 -0.6372 -0.4734  0.4570
  550SOL    HW2 1650   2.542   2.374   0.751 -3.1750 -2.0345 -0.7471
  551SOL     OW 1651   0.890   2.982   1.599 -0.1127  0.8319  0.2592
  551SOL    HW1 1652   0.988   3.008   1.591  1.1492  2.3024 -1.6235
  551SOL    HW2 1653   0.828   3.061   1.582 -1.8682 -0.9160 -1.0374
  552SOL     OW 1654   2.923   2.275   2.600  0.0257  0.7092 -0.2506
  552SOL    HW1 1655   2.959   2.338   2.675  1.1198 -0.8962  2.1789
  552SOL    HW2 1656   3.001   2.246   2.538  0.7625 -1.3439 -0.5055
  553SOL     OW 1657   0.341   3.022   0.574 -0.1682  0.0625  0.4323
  553SOL    HW1 1658   0.431   3.056   0.616 -0.1130 -1.5312 -0.0746
  553SOL    HW2 1659   0.330   2.920   0.589  0.1776  0.5257  1.4365
  554SOL     OW 1660   2.154   2.385   1.713 -0.4575 -0.3171  0.3231
  554SOL    HW1 1661   2.129   2.282   1.710  0.7907 -2.8997 -0.3610
  554SOL    HW2 1662   2.183   2.418   1.620 -0.0274 -1.0543 -1.8336
  555SOL     OW 1663   1.037   2.139   1.922 -0.3337  0.1828  0.0958
  555SOL    HW1 1664   1.021   2.153   1.821 -1.7373 -0.7899 -0.9355
  555SOL    HW2 1665   1.044   2.038   1.950 -1.3938  0.9070 -0.6836
  556SOL     OW 1666   1.500   1.679   1.326 -0.0805  0.0148 -0.2016
  556SOL    HW1 1667   1.496   1.721   1.231  0.8973 -2.2701 -1.9153
  556SOL    HW2 1668   1.530   1.743   1.400  1.4384 -2.2102 -0.1285
  557SOL     OW 1669   2.105   2.255   2.197  0.1136  1.6014 -0.7052
  557SOL    HW1 1670   2.159   2.306   2.130 -3.3006 -0.3003 -0.1140
  557SOL    HW2 1671   2.161   2.234   2.282  1.8661 -0.2357  0.6832
  558SOL     OW 1672   0.502   3.007   2.176  0.1109 -0.1449  0.1286
  558SOL    HW1 1673   0.408   3.041   2.174  2.3734 -3.8070  1.7028
  558SOL    HW2 1674   0.561   3.081   2.142 -2.2454 -1.1021 -0.9087
  559SOL     OW 1675   2.310   2.932   1.090 -0.0413 -0.4978 -0.1864
  559SOL    HW1 1676   2.404   2.895   1.084  2.9718  1.1163 -2.1320
  559SOL    HW2 1677   2.274   2.969   1.001  1.4322 -1.7201 -1.3067
  560SOL     OW 1678   0.998   2.417   0.477  0.6255  0.1964  0.4370
  560SOL    HW1 1679   0.999   2.513   0.509 -1.8452  1.6855  0.0681
  560SOL    HW2 1680   0.913   2.375   0.512  0.5900  0.6955 -1.9396
  561SOL     OW 1681   1.057   0.365   0.138 -0.2108  0.4641  0.0588
  561SOL    HW1 1682   1.009   0.343   0.052 -0.1991  0.7329 -3.3925
  561SOL    HW2 1683   0.986   0.399   0.206 -4.3176  1.2368 -3.0810
  562SOL     OW 1684   0.757   0.211   2.930 -0.1851  0.3738 -0.4421
  562SOL    HW1 1685   0.750   0.109   2.953 -1.4600 -0.3821  1.5244
  562SOL    HW2 1686   0.848   0.240   2.893  1.8370 -1.5652 -0.1772
  563SOL     OW 1687   1.576   1.773   2.875 -0.4084  0.3638  0.8091
  563SOL    HW1 1688   1.552   1.773   2.773 -0.5796 -1.3838 -1.6652
  563SOL    HW2 1689   1.669   1.806   2.886 -0.0428 -0.6885 -2.5745
  564SOL     OW 1690   2.661   1.153   0.696  0.1730  0.5994 -0.2742
  564SOL    HW1 1691   2.614   1.085   0.755 -1.2369 -2.7161  2.3590
  564SOL    HW2 1692   2.600   1.184   0.617  1.5944  0.6591 -2.1448
  565SOL     OW 1693   1.023   0.254   2.865 -0.3057  0.1739  0.3555
  565SOL    HW1 1694   1.073   0.169   2.873  0.7219 -2.9884 -2.8106
  565SOL    HW2 1695   1.087   0.331   2.851 -1.3598 -0.2960 -0.6174
  566SOL     OW 1696   1.319   0.046   2.182  0.1997  0.0042 -0.3961
  566SOL    HW1 1697   1.277   0.100   2.108 -2.3125 -0.4384  1.8312
  566SOL    HW2 1698   1.404   3.104   2.156  1.2118  1.0289  2.5935
  567SOL     OW 1699   2.161   1.333   0.559  0.2804 -0.1917  0.6016
  567SOL    HW1 1700   2.148   1.310   0.461  0.3106  0.1528  0.0927
  567SOL    HW2 1701   2.204   1.428   0.551  2.5389 -0.7899 -1.9387
  568SOL     OW 1702   1.982   1.879   0.592 -0.5349 -0.3903  0.4667
  568SOL    HW1 1703   2.072   1.875   0.545 -0.7071  1.2030  0.3460
  568SOL    HW2 1704   1.921   1.949   0.553  0.3730 -1.4360  1.3775
  569SOL     OW 1705   2.060   1.334   3.039 -1.0162  0.2832 -0.1616
  569SOL    HW1 1706   2.079   1.235   3.041 -1.0900 -2.0075 -0.4107
  569SOL    HW2 1707   2.142   1.373   3.085  2.4132  1.5364 -2.1953
  570SOL     OW 1708   0.144   2.831   1.713 -0.3978 -0.0281 -0.3298
  570SOL    HW1 1709   0.096   2.801   1.804  2.1985  0.5657  0.4530
  570SOL    HW2 1710   0.134   2.926   1.682  1.8353 -4.3296  0.1817
  571SOL     OW 1711   0.011   0.382   2.273  0.3284  0.5156 -1.0050
  571SOL    HW1 1712   0.066   0.433   2.204  0.8160 -2.9761 -0.4240
  571SOL    HW2 1713   3.044   0.440   2.312  2.1236 -0.1814 -1.0324
  572SOL     OW 1714   1.111   1.696   0.673 -0.2784  0.3451 -0.1834
  572SOL    HW1 1715   1.042   1.662   0.738 -1.5697  0.8502  0.9706
  572SOL    HW2 1716   1.164   1.773   0.714  0.8160 -1.4534  2.2456
  573SOL     OW 1717   1.416   2.210   0.231  0.5467  0.3606  0.4759
  573SOL    HW1 1718   1.434   2.239   0.135  3.1182 -3.2095  0.7364
  573SOL    HW2 1719   1.491   2.158   0.271  0.7524  1.1589  0.2575
  574SOL     OW 1720   1.015   0.157   0.953  0.0370 -0.2236  0.2026
  574SOL    HW1 1721   1.004   0.110   1.040 -1.5579  4.4872 -0.5227
  574SOL    HW2 1722   0.929   0.145   0.897  0.1059 -1.5869  0.7669
  575SOL     OW 1723   2.988   0.937   1.398  0.2918 -0.0051 -0.0968
  575SOL    HW1 1724   2.900   0.914   1.353  0.1980 -0.3758 -0.5734
  575SOL    HW2 1725   2.993   1.037   1.406  1.8939 -1.8388  0.1274
  576SOL     OW 1726   1.520   0.018   1.678  0.1456 -0.0313 -0.0094
  576SOL    HW1 1727   1.533   3.023   1.681  0.5011 -0.7666 -2.5292
  576SOL    HW2 1728   1.521   0.039   1.579  2.3148  2.0152  3.9008
  577SOL     OW 1729   0.589   0.914   1.926 -0.4127 -0.1058  0.8027
  577SOL    HW1 1730   0.645   0.999   1.919  1.1836 -1.8260  0.5386
  577SOL    HW2 1731   0.596   0.883   2.019 -1.6233 -1.6235 -1.1163
  578SOL     OW 1732   1.889   0.362   2.556  0.1372  0.3156 -0.0016
  578SOL    HW1 1733   1.873   0.450   2.602 -0.1114 -0.2976  0.1007
  578SOL    HW2 1734   1.807   0.300   2.566  0.5277 -0.8846  1.5646
  579SOL     OW 1735   2.415   1.860   1.969  0.0734 -0.1115 -0.3813
  579SOL    HW1 1736   2.484   1.833   1.898  1.2469  0.2181 -0.8757
  579SOL    HW2 1737   2.459   1.887   2.058 -1.7061  0.0751  1.5231
  580SOL     OW 1738   1.969   1.255   2.591  0.7201  0.2211 -0.2220
  580SOL    HW1 1739   1.952   1.258   2.691  2.4175 -2.6956  0.5223
  580SOL    HW2 1740   2.014   1.168   2.560  1.6212 -0.2348 -1.0772
  581SOL     OW 1741   1.514   1.050   2.893 -0.0299 -0.0196  0.1177
  581SOL    HW1 1742   1.439   0.980   2.904 -0.0592  1.4379  2.0618
  581SOL    HW2 1743   1.582   1.026   2.819 -2.1549  0.7007 -0.1727
  582SOL     OW 1744   0.922   1.625   1.444 -0.6813 -0.2336  0.0157
  582SOL    HW1 1745   0.864   1.628   1.526 -0.0589 -0.8815 -0.2216
  582SOL    HW2 1746   1.021   1.643   1.477  1.8411 -0.2282 -1.1265
  583SOL     OW 1747   1.671   1.207   1.362 -0.2668 -0.2586 -0.1327
  583SOL    HW1 1748   1.726   1.161   1.291 -0.7809  0.1785  0.0923
  583SOL    HW2 1749   1.663   1.305   1.337 -0.5461 -0.9800  2.0341
  584SOL     OW 1750   1.946   2.453   0.673 -0.3769 -0.4663 -0.0503
  584SOL    HW1 1751   1.844   2.458   0.680 -1.2355  0.2755 -3.3880
  584SOL    HW2 1752   2.007   2.487   0.753 -0.3514  0.0854  1.3194
  585SOL     OW 1753   2.003   2.816   2.863 -0.1367 -0.1918  0.7445
  585SOL    HW1 1754   1.925   2.828   2.799 -2.2218 -0.9081 -1.1829
  585SOL    HW2 1755   1.967   2.766   2.941 -1.3970 -0.6328 -3.7017
  586SOL     OW 1756   2.906   2.332   0.787 -1.3744  0.8592  0.5143
  586SOL    HW1 1757   2.924   2.423   0.746  0.3037 -2.6854  1.4195
  586SOL    HW2 1758   2.817   2.329   0.835  0.1603  0.2987 -1.2866
  587SOL     OW 1759   0.914   1.819   0.049 -0.3020  0.0921  0.2414
  587SOL    HW1 1760   0.971   1.886   0.103  2.0532  4.5149  2.8053
  587SOL    HW2 1761   0.969   1.781   3.078 -2.7039  1.7382  0.6899
  588SOL     OW 1762   0.537   0.167   0.976  0.4902  0.7224 -0.0007
  588SOL    HW1 1763   0.560   0.126   1.067 -0.1184 -0.9708 -0.6838
  588SOL    HW2 1764   0.535   0.267   0.971  1.5507 -0.2673  5.2169
  589SOL     OW 1765   1.296   0.835   0.791  0.1959 -0.5144 -0.5901
  589SOL    HW1 1766   1.302   0.733   0.803  0.1158 -1.4244 -2.1284
  589SOL    HW2 1767   1.208   0.857   0.743  1.1282 -1.3776  0.8758
  590SOL     OW 1768   1.941   2.601   3.066  0.0695  0.0849 -0.7342
  590SOL    HW1 1769   1.984   2.607   0.056 -1.8137  0.5810  3.2617
  590SOL    HW2 1770   1.844   2.626   3.079  1.6261 -1.0215 -3.0338
  591SOL     OW 1771   0.442   2.319   2.626 -0.1407  0.2334  0.3891
  591SOL    HW1 1772   0.539   2.350   2.630  0.4146  0.6680 -0.2140
  591SOL    HW2 1773   0.399   2.372   2.552  2.3145  0.5527  0.7796
  592SOL     OW 1774   2.740   1.584   1.984  0.1463 -0.0958 -0.0932
  592SOL    HW1 1775   2.748   1.517   2.057 -0.5782 -1.2757 -0.3299
  592SOL    HW2 1776   2.713   1.536   1.900  1.7356  0.7934  3.6824
  593SOL     OW 1777   1.788   1.464   1.561 -0.1721 -0.1027  0.0634
  593SOL    HW1 1778   1.831   1.373   1.554  1.2474 -0.9421 -0.1935
  593SOL    HW2 1779   1.745   1.485   1.471  1.0113  1.2092 -3.0201
  594SOL     OW 1780   2.664   1.198   3.016  0.8969  0.0861 -0.3326
  594SOL    HW1 1781   2.637   1.295   2.996  3.1041 -0.3321  1.1057
  594SOL    HW2 1782   2.603   1.157   3.087 -1.6410 -0.4003 -0.6519
  595SOL     OW 1783   0.844   0.878   0.510  0.2222  0.3040 -0.8202
  595SOL    HW1 1784   0.802   0.965   0.540 -1.7100  2.2143  0.1028
  595SOL    HW2 1785   0.830   0.847   0.414 -0.8953 -0.6336 -0.8192
  596SOL     OW 1786   2.977   1.413   1.334  0.4297 -0.3030 -0.0911
  596SOL    HW1 1787   3.045   1.410   1.256  1.2307 -1.6335  2.2837
  596SOL    HW2 1788   2.985   1.494   1.392 -0.4701 -2.3108 -2.6670
  597SOL     OW 1789   0.898   2.033   1.341 -0.1615 -0.2669 -0.2628
  597SOL    HW1 1790   0.882   2.121   1.296 -2.3334 -1.5036 -1.7727
  597SOL    HW2 1791   0.870   2.042   1.440 -2.9203  0.3296 -0.0815
  598SOL     OW 1792   2.673   2.745   1.973  0.4736 -0.0957 -0.1822
  598SOL    HW1 1793   2.718   2.807   1.906 -1.6230  0.2216 -0.1247
  598SOL    HW2 1794   2.585   2.725   1.929  1.3561  2.2141  0.2093
  599SOL     OW 1795   0.424   1.373   2.756 -0.3020 -0.4851  0.0069
  599SOL    HW1 1796   0.432   1.470   2.785 -1.9396 -1.2061 -0.6974
  599SOL    HW2 1797   0.396   1.375   2.655 -1.4666  0.4080  1.0039
  600SOL     OW 1798   0.685   0.724   0.010  0.2831 -0.4217 -0.0832
  600SOL    HW1 1799   0.735   0.693   3.031  0.5566 -0.1902 -2.1125
  600SOL    HW2 1800   0.604   0.667   0.030  3.5589  1.2077 -2.3770
  601SOL     OW 1801   0.693   0.700   1.680  0.1355 -0.0125  0.2426
  601SOL    HW1 1802   0.782   0.733   1.718 -0.7975 -2.6601  1.8920
  601SOL    HW2 1803   0.626   0.665   1.751 -2.7628  1.0686  4.5023
  602SOL     OW 1804   0.449   2.911   0.345 -0.1083 -0.9104  0.0573
  602SOL    HW1 1805   0.384   2.941   0.419  1.3683 -2.0627  1.4316
  602SOL    HW2 1806   0.403   2.847   0.280 -2.0847 -2.1405 -1.8829
  603SOL     OW 1807   1.263   2.752   2.272 -0.2590  0.4644  0.2694
  603SOL    HW1 1808   1.331   2.702   2.333 -1.2310  2.8339  0.1833
  603SOL    HW2 1809   1.177   2.702   2.267  4.5209 -2.2590  1.0433
  604SOL     OW 1810   0.343   2.399   2.889  0.3526  0.5359 -0.2192
  604SOL    HW1 1811   0.284   2.324   2.920 -4.3801  0.3775  1.6522
  604SOL    HW2 1812   0.360   2.386   2.790  1.6894  2.1048 -1.5608
  605SOL     OW 1813   2.073   1.030   1.380 -0.3834  0.1984 -0.4133
  605SOL    HW1 1814   2.021   0.961   1.430 -0.2998  0.3286 -0.2310
  605SOL    HW2 1815   2.097   1.106   1.443  0.2391 -3.1222 -3.1171
  606SOL     OW 1816   0.711   1.031   2.651 -0.4337 -0.4373 -0.4906
  606SOL    HW1 1817   0.697   1.100   2.725  0.8855 -0.2395 -0.1430
  606SOL    HW2 1818   0.703   0.933   2.688  0.6077  0.2210 -1.0879
  607SOL     OW 1819   0.749   0.530   1.047  0.7301  0.5853  0.1540
  607SOL    HW1 1820   0.749   0.521   1.150 -2.2863  0.2273  0.6738
  607SOL    HW2 1821   0.834   0.492   1.009  0.7647 -0.5845  0.8182
  608SOL     OW 1822   2.922   1.812   2.025 -0.1376 -0.1120  0.0030
  608SOL    HW1 1823   2.868   1.725   2.030 -1.5313 -2.8697  0.7274
  608SOL    HW2 1824   2.864   1.894   2.053 -1.2301  1.8863 -3.1252
  609SOL     OW 1825   2.479   0.477   0.252  0.3064  0.1156  0.7569
  609SOL    HW1 1826   2.493   0.484   0.352 -0.6592 -0.1263 -0.4669
  609SOL    HW2 1827   2.380   0.481   0.227  1.2084 -0.6666 -1.0817
  610SOL     OW 1828   0.061   2.703   1.467 -0.1008  0.0905 -0.2476
  610SOL    HW1 1829   0.100   2.732   1.557  2.2683 -0.8297  0.5330
  610SOL    HW2 1830   0.008   2.773   1.418 -0.7820 -2.5668  0.1911
  611SOL     OW 1831   1.768   2.233   0.170  0.0807 -0.8031 -0.0972
  611SOL    HW1 1832   1.864   2.251   0.204 -2.4043 -0.9721  0.7629
  611SOL    HW2 1833   1.714   2.170   0.235  0.4638 -3.4944  1.0638
  612SOL     OW 1834   0.664   0.330   1.913 -0.1549 -0.4193 -0.0579
  612SOL    HW1 1835   0.744   0.272   1.891  0.4860 -1.0263 -0.9327
  612SOL    HW2 1836   0.694   0.416   1.962  1.0780 -0.8494  2.0075
  613SOL     OW 1837   0.304   2.094   0.866 -0.0208 -0.1473  0.2813
  613SOL    HW1 1838   0.233   2.136   0.924 -0.7797  0.7508  0.5764
  613SOL    HW2 1839   0.297   2.129   0.774  1.2676 -1.3328  3.7604
  614SOL     OW 1840   1.595   0.175   1.896 -1.2711  0.0281  0.5741
  614SOL    HW1 1841   1.673   0.172   1.972  0.4662 -0.8467  2.4331
  614SOL    HW2 1842   1.587   0.086   1.843 -0.4040  0.5652 -1.3439
  615SOL     OW 1843   1.665   1.390   0.771 -0.0666 -0.1613 -0.3746
  615SOL    HW1 1844   1.716   1.364   0.688 -3.1808  2.4524 -1.4209
  615SOL    HW2 1845   1.565   1.399   0.746  0.6799 -0.5684 -0.2182
  616SOL     OW 1846   1.963   1.592   0.240 -0.1395  0.4042 -0.3711
  616SOL    HW1 1847   1.880   1.544   0.275  0.0783  1.2491 -1.3843
  616SOL    HW2 1848   1.969   1.690   0.268 -1.5984 -2.3019 -0.6576
  617SOL     OW 1849   1.631   0.614   0.092 -0.0062 -0.3501 -0.1751
  617SOL    HW1 1850   1.595   0.692   0.149 -2.9197  0.2195  2.3169
  617SOL    HW2 1851   1.723   0.641   0.069 -3.5177  1.4871  1.6521
  618SOL     OW 1852   0.532   0.803   2.179  0.1351 -0.0618 -0.2472
  618SOL    HW1 1853   0.571   0.856   2.255 -1.0943 -1.2805 -0.8432
  618SOL    HW2 1854   0.520   0.702   2.195 -3.1582  1.9935  1.2079
  619SOL     OW 1855   3.053   1.614   1.482 -0.0441 -0.5288  0.3164
  619SOL    HW1 1856   3.060   1.658   1.574 -0.4425  3.6578  2.8965
  619SOL    HW2 1857   3.073   1.686   1.408 -2.0197  2.3809 -1.8756
  620SOL     OW 1858   2.332   2.923   2.630  0.2751 -0.4505 -0.7707
  620SOL    HW1 1859   2.333   3.015   2.583 -0.2126  1.9924  0.2539
  620SOL    HW2 1860   2.315   2.931   2.730  0.9597  1.8657  1.5411
  621SOL     OW 1861   2.668   2.004   0.047  0.1992 -0.2085  0.0321
  621SOL    HW1 1862   2.666   1.918   0.098 -1.9180  2.8668 -1.1478
  621SOL    HW2 1863   2.628   2.080   0.099 -1.5104  1.3471 -1.5597
  622SOL     OW 1864   1.382   0.201   2.425 -0.1978 -0.1719 -0.0754
  622SOL    HW1 1865   1.351   0.158   2.339 -1.3713  1.1945  0.1677
  622SOL    HW2 1866   1.480   0.222   2.415 -2.3897 -1.2481 -0.7798
  623SOL     OW 1867   0.588   1.872   1.374  0.0108  0.7475 -0.2640
  623SOL    HW1 1868   0.632   1.788   1.347 -3.1979  0.7912  2.7485
  623SOL    HW2 1869   0.516   1.906   1.309 -0.7487 -0.5971  1.1317
  624SOL     OW 1870   2.787   2.976   2.994  0.4596 -0.0813 -0.8813
  624SOL    HW1 1871   2.767   2.950   2.899  1.9744  0.0937  2.3779
  624SOL    HW2 1872   2.881   3.012   3.001  1.2373 -1.7201  0.5547
  625SOL     OW 1873   0.769   2.212   0.491 -0.4480  0.0988 -0.1861
  625SOL    HW1 1874   0.815   2.123   0.485  1.7533  1.0984 -1.4597
  625SOL    HW2 1875   0.685   2.207   0.439  3.4822  0.8713  1.3212
  626SOL     OW 1876   2.911   0.708   2.702  0.2361 -0.0877 -0.2577
  626SOL    HW1 1877   2.875   0.637   2.640  1.6202  1.1262  2.7642
  626SOL    HW2 1878   2.871   0.686   2.795 -1.8351 -0.1693 -1.4403
  627SOL     OW 1879   1.291   2.028   2.974 -0.6795 -0.3249 -0.2719
  627SOL    HW1 1880   1.371   2.091   2.993  0.2192 -1.3616 -1.6695
  627SOL    HW2 1881   1.258   2.030   2.878 -0.1502  1.5950  0.9425
  628SOL     OW 1882   0.016   2.488   3.049 -0.0482 -0.0154  0.3681
  628SOL    HW1 1883   0.070   2.499   2.963 -1.2928  3.3176 -0.6706
  628SOL    HW2 1884   0.070   2.527   0.017  0.1119 -1.5764 -2.3813
  629SOL     OW 1885   0.859   2.761   2.729 -0.1898 -0.1209 -0.0727
  629SOL    HW1 1886   0.949   2.735   2.695 -2.4728 -0.1684 -0.1818
  629SOL    HW2 1887   0.811   2.825   2.657 -0.2714  1.9515 -0.9048
  630SOL     OW 1888   1.075   0.342   1.778  0.0559  0.0921 -0.3063
  630SOL    HW1 1889   1.008   0.267   1.757  0.9990  2.3707 -0.1260
  630SOL    HW2 1890   1.049   0.398   1.853  1.5886  0.8933 -2.5183
  631SOL     OW 1891   2.005   0.957   0.411  0.8944 -0.3296 -0.1045
  631SOL    HW1 1892   2.028   1.055   0.386 -1.0467 -3.8638  1.7356
  631SOL    HW2 1893   1.909   0.939   0.378  0.0102  0.7792 -1.0073
  632SOL     OW 1894   2.512   0.369   1.846  0.5060 -0.7689 -0.2953
  632SOL    HW1 1895   2.525   0.441   1.771  2.2779 -0.5893  0.3983
  632SOL    HW2 1896   2.595   0.305   1.852  2.0155 -0.1653  0.5910
  633SOL     OW 1897   1.095   1.290   0.322  0.3338  0.1952 -0.3330
  633SOL    HW1 1898   1.096   1.360   0.393  0.0478 -1.5564 -4.2406
  633SOL    HW2 1899   1.156   1.212   0.350  0.2616 -2.6049  1.5448
  634SOL     OW 1900   2.604   2.650   2.431  0.3977 -0.0692  0.0702
  634SOL    HW1 1901   2.574   2.552   2.426 -1.3383 -2.5302 -0.9496
  634SOL    HW2 1902   2.672   2.677   2.355  2.8217  2.0011 -4.3937
  635SOL     OW 1903   1.861   0.651   0.463 -0.0412  0.1510 -0.2839
  635SOL    HW1 1904   1.760   0.655   0.482 -0.9360  0.8715 -0.0789
  635SOL    HW2 1905   1.902   0.578   0.523 -0.8938 -1.2003  0.1546
  636SOL     OW 1906   0.772   1.227   0.818  0.3213  0.2257  0.1430
  636SOL    HW1 1907   0.714   1.312   0.818 -0.9537  3.3653  1.6031
  636SOL    HW2 1908   0.753   1.161   0.741  0.5875 -1.2659  0.6839
  637SOL     OW 1909   2.579   2.217   0.189 -1.1232  0.4756 -0.5455
  637SOL    HW1 1910   2.663   2.251   0.241  2.7764  0.2334 -0.8686
  637SOL    HW2 1911   2.578   2.258   0.098 -1.0335 -1.3434  0.8959
  638SOL     OW 1912   1.555   2.565   2.244  0.1751  0.2574 -0.0254
  638SOL    HW1 1913   1.557   2.466   2.219  1.2773  1.0830 -0.1920
  638SOL    HW2 1914   1.643   2.596   2.289  0.1109  1.6599  2.4784
  639SOL     OW 1915   1.490   1.981   0.584  0.5854 -0.1737 -0.7383
  639SOL    HW1 1916   1.396   1.943   0.571 -1.5351  0.1602 -2.0399
  639SOL    HW2 1917   1.556   1.916   0.623 -1.8598 -0.2758  0.8884
  640SOL     OW 1918   2.000   0.182   0.672 -0.5752 -0.0708  0.0685
  640SOL    HW1 1919   1.983   0.084   0.684  0.8027  1.3209 -0.3638
  640SOL    HW2 1920   2.018   0.188   0.571 -0.2934  1.3679 -1.4283
  641SOL     OW 1921   2.840   0.083   0.153 -0.1139 -0.5666 -0.3866
  641SOL    HW1 1922   2.937   0.116   0.160  0.9784  1.3318  1.7995
  641SOL    HW2 1923   2.769   0.154   0.142 -0.2735  0.6725  0.4200
  642SOL     OW 1924   0.579   0.817   1.187  0.0450 -0.1875  0.1644
  642SOL    HW1 1925   0.506   0.859   1.129  0.8503  0.0244  1.2330
  642SOL    HW2 1926   0.561   0.837   1.284  1.0839 -1.3449 -2.2331
  643SOL     OW 1927   0.726   1.357   2.279  1.2863  0.5109 -0.5693
  643SOL    HW1 1928   0.808   1.335   2.329 -1.3086 -1.2667  0.5265
  643SOL    HW2 1929   0.691   1.276   2.221  2.5781  1.0024 -2.5311
  644SOL     OW 1930   1.476   2.266   0.625  0.0219 -0.0501  0.3680
  644SOL    HW1 1931   1.497   2.168   0.649  3.1885  0.1743 -2.4317
  644SOL    HW2 1932   1.382   2.275   0.587  1.8239  0.3497 -2.2819
  645SOL     OW 1933   1.622   2.053   0.344  0.5437 -0.0493 -0.3713
  645SOL    HW1 1934   1.646   1.953   0.329  3.1296 -2.0185  0.9068
  645SOL    HW2 1935   1.577   2.048   0.433 -0.0996 -0.4496 -1.8617
  646SOL     OW 1936   0.072   1.673   2.916 -0.8991  0.4050 -0.5379
  646SOL    HW1 1937   0.068   1.747   2.846 -1.7447 -0.3505 -0.2950
  646SOL    HW2 1938   0.099   1.590   2.873  0.0972  3.8656 -0.4963
  647SOL     OW 1939   0.977   0.420   0.977 -0.0910  0.0338 -0.3609
  647SOL    HW1 1940   1.025   0.331   0.990  2.0279 -2.3612 -3.8995
  647SOL    HW2 1941   0.957   0.437   0.879 -1.0332 -1.0120 -1.5165
  648SOL     OW 1942   1.521   0.560   1.128  0.3785  0.1715  0.0125
  648SOL    HW1 1943   1.521   0.656   1.096 -1.1651 -0.7735 -0.9312
  648SOL    HW2 1944   1.573   0.561   1.218  1.3583 -0.7551 -1.3146
  649SOL     OW 1945   0.947   1.627   0.253 -0.0277 -0.2537 -0.0779
  649SOL    HW1 1946   0.920   1.688   0.173 -1.2791  0.0052 -1.8489
  649SOL    HW2 1947   1.028   1.669   0.299  0.1350  0.6871 -0.6588
  650SOL     OW 1948   2.404   1.528   1.898  0.5999  0.6272 -0.1284
  650SOL    HW1 1949   2.419   1.621   1.931 -0.9314  0.9762  0.6518
  650SOL    HW2 1950   2.482   1.503   1.840 -2.5825  0.6637  0.1696
  651SOL     OW 1951   1.678   2.228   2.839 -0.0014 -0.0588  0.4041
  651SOL    HW1 1952   1.763   2.190   2.795  2.5899 -1.1941 -0.7348
  651SOL    HW2 1953   1.587   2.194   2.801 -1.9110  1.9445 -3.7255
  652SOL     OW 1954   2.573   1.739   0.135 -0.6326 -0.3780  0.3448
  652SOL    HW1 1955   2.525   1.729   0.046 -0.5338  2.4619  3.2363
  652SOL    HW2 1956   2.607   1.647   0.174  0.6755 -1.2557  0.3134
  653SOL     OW 1957   0.189   0.307   0.816  0.0836  0.3609  0.3091
  653SOL    HW1 1958   0.088   0.290   0.806 -1.1116 -0.5812 -0.1121
  653SOL    HW2 1959   0.241   0.217   0.823  1.1727  0.0766  2.2227
  654SOL     OW 1960   2.516   0.010   2.136  0.1036 -0.1976  0.3318
  654SOL    HW1 1961   2.494   0.093   2.192  0.0404 -0.5671 -0.2862
  654SOL    HW2 1962   2.444   3.093   2.067 -1.9186  2.8313  0.9159
  655SOL     OW 1963   0.565   2.870   0.990 -0.4191  0.2010  0.1493
  655SOL    HW1 1964   0.476   2.901   0.955  0.3668 -0.9359  1.6017
  655SOL    HW2 1965   0.575   2.893   1.090  1.4404  0.2525  0.7135
  656SOL     OW 1966   2.884   3.035   2.511 -0.9430 -0.1609 -0.3598
  656SOL    HW1 1967   2.814   3.008   2.450  1.2968 -0.9602  2.7306
  656SOL    HW2 1968   2.919   0.024   2.490  1.0642 -1.4534 -1.8033
  657SOL     OW 1969   2.932   0.882   3.067  0.1058  0.2005 -0.2628
  657SOL    HW1 1970   2.983   0.924   2.992 -1.8808 -2.2741  1.7318
  657SOL    HW2 1971   2.989   0.816   0.017  1.6119  1.6742 -2.6216
  658SOL     OW 1972   2.425   2.045   1.201  0.0162 -0.2653 -0.0847
  658SOL    HW1 1973   2.415   2.125   1.261 -1.9261 -3.5211 -2.1167
  658SOL    HW2 1974   2.345   1.980   1.211 -0.4953 -0.6014 -1.2107
  659SOL     OW 1975   1.804   2.827   0.410  0.4054 -0.0793 -0.1648
  659SOL    HW1 1976   1.893   2.776   0.395  1.7956 -2.5131  2.8545
  659SOL    HW2 1977   1.730   2.762   0.431 -0.4988  1.2393  1.0558
  660SOL     OW 1978   1.660   0.988   2.674  0.8074  0.6369 -0.5935
  660SOL    HW1 1979   1.711   0.987   2.589 -0.2125 -1.0971  0.1775
  660SOL    HW2 1980   1.565   0.948   2.658  0.5513  0.6556 -0.5664
  661SOL     OW 1981   2.927   2.129   1.184  0.7292 -0.0175 -0.0139
  661SOL    HW1 1982   2.848   2.158   1.126  1.5884 -0.8996  2.1516
  661SOL    HW2 1983   2.962   2.044   1.142 -1.3948  3.1720 -1.4843
  662SOL     OW 1984   0.438   0.632   0.123  0.0648 -0.1447  0.1713
  662SOL    HW1 1985   0.394   0.726   0.107  0.3987  0.0211  1.5648
  662SOL    HW2 1986   0.461   0.627   0.222 -1.1483 -0.1038 -1.8486
  663SOL     OW 1987   2.080   2.083   1.143  0.3586 -0.1433  0.2863
  663SOL    HW1 1988   2.022   2.106   1.220  0.4094  0.9893 -1.0354
  663SOL    HW2 1989   2.155   2.023   1.170 -0.6273  1.0391  0.0899
  664SOL     OW 1990   1.011   1.560   1.141 -0.1719  0.0480  0.3214
  664SOL    HW1 1991   1.100   1.605   1.141 -0.0668  0.1756  1.7717
  664SOL    HW2 1992   0.963   1.581   1.231  0.5853  0.1677  1.4712
  665SOL     OW 1993   1.813   2.495   1.959 -0.9699  0.5761 -0.6610
  665SOL    HW1 1994   1.745   2.566   1.983 -0.4463 -1.5312  1.2515
  665SOL    HW2 1995   1.841   2.441   2.048  0.6036  0.8771  0.4397
  666SOL     OW 1996   3.041   2.730   0.258 -0.4125  0.1025  0.7409
  666SOL    HW1 1997   2.948   2.762   0.225 -1.9093  1.2056  1.6140
  666SOL    HW2 1998   3.058   2.754   0.353  0.1666  1.1138 -0.8876
  667SOL     OW 1999   2.619   1.481   1.743  0.4278  0.2681 -0.4359
  667SOL    HW1 2000   2.662   1.549   1.684 -0.8444 -1.0586 -1.2556
  667SOL    HW2 2001   2.672   1.394   1.746  0.1955 -1.0458 -0.3158
  668SOL     OW 2002   0.340   0.647   2.525 -0.2595 -0.7466  0.1673
  668SOL    HW1 2003   0.330   0.546   2.528 -0.0526 -0.8311 -2.2137
  668SOL    HW2 2004   0.269   0.694   2.468 -0.5974  0.5053  0.2816
  669SOL     OW 2005   2.168   1.916   2.753  0.0623  0.2826  0.1262
  669SOL    HW1 2006   2.088   1.872   2.704 -1.2878 -1.5785  0.0294
  669SOL    HW2 2007   2.194   1.863   2.839 -0.4026  1.4782 -1.9041
  670SOL     OW 2008   2.651   1.477   2.272 -0.0031  0.2387 -0.5861
  670SOL    HW1 2009   2.612   1.419   2.349  1.2137  1.9443 -1.6462
  670SOL    HW2 2010   2.712   1.418   2.214  1.2164 -0.3737  1.3067
  671SOL     OW 2011   0.092   1.694   0.909 -0.4016  0.2823 -0.5123
  671SOL    HW1 2012   0.013   1.681   0.974 -0.5290  2.4623  1.3615
  671SOL    HW2 2013   0.089   1.636   0.830  1.7288 -0.1639  2.0888
  672SOL     OW 2014   2.386   0.813   1.954 -0.2130 -0.1914 -0.2585
  672SOL    HW1 2015   2.320   0.809   1.877 -0.9097  0.2446 -1.1265
  672SOL    HW2 2016   2.473   0.868   1.933  2.9373  0.9189 -0.1388
  673SOL     OW 2017   2.448   2.549   2.092  0.0799  0.3571 -0.0074
  673SOL    HW1 2018   2.546   2.510   2.098 -0.0646 -1.2196  2.2179
  673SOL    HW2 2019   2.438   2.638   2.037  0.9517  0.7292  0.2033
  674SOL     OW 2020   1.672   2.613   1.612  0.0248 -0.0288  0.0850
  674SOL    HW1 2021   1.627   2.540   1.666  3.0584 -1.9195  0.8916
  674SOL    HW2 2022   1.770   2.619   1.631 -0.9781  2.3379  3.5351
  675SOL     OW 2023   0.454   0.923   0.960  0.3107 -0.0302  0.0795
  675SOL    HW1 2024   0.448   1.030   0.956  1.7749  0.6249  0.2412
  675SOL    HW2 2025   0.498   0.886   0.876  2.3899  2.0263 -2.7245
  676SOL     OW 2026   1.905   1.293   0.619  0.5128 -0.0294  0.4173
  676SOL    HW1 2027   1.860   1.207   0.650  0.0005 -1.4083  2.5754
  676SOL    HW2 2028   2.004   1.301   0.644  1.9566 -0.2604  0.5566
  677SOL     OW 2029   2.965   1.372   2.506 -0.5189 -0.7022  0.2936
  677SOL    HW1 2030   2.968   1.350   2.601  1.3589 -0.5145 -1.3143
  677SOL    HW2 2031   2.950   1.289   2.456  0.3182  0.2678  2.7988
  678SOL     OW 2032   2.666   1.979   1.112  0.3469 -0.3729  0.3934
  678SOL    HW1 2033   2.737   1.937   1.175  2.3616 -2.4053  3.3095
  678SOL    HW2 2034   2.585   2.015   1.159  1.9497 -0.9444 -1.2423
  679SOL     OW 2035   2.004   2.632   0.454  0.1060  0.2271  0.4552
  679SOL    HW1 2036   2.107   2.630   0.446  5.4169 -1.2603 -0.0542
  679SOL    HW2 2037   1.973   2.574   0.533  1.9062  0.7694  0.3932
  680SOL     OW 2038   3.077   2.129   2.085  0.1450  0.3337 -0.0311
  680SOL    HW1 2039   3.085   2.134   1.982  2.0656 -2.3138  0.2633
  680SOL    HW2 2040   0.017   2.202   2.137  3.2654  0.4928  0.7422
  681SOL     OW 2041   0.033   1.324   1.683 -0.1155  0.0583  0.1677
  681SOL    HW1 2042   0.103   1.267   1.730 -1.0225  1.0904 -0.5060
  681SOL    HW2 2043   0.071   1.414   1.667 -0.3669 -2.1591  0.3143
  682SOL     OW 2044   1.124   2.571   0.903 -0.3784 -0.4034  1.4434
  682SOL    HW1 2045   1.151   2.621   0.992  4.3915  2.4939  3.1486
  682SOL    HW2 2046   1.160   2.625   0.821  0.1099  0.9406 -1.0909
  683SOL     OW 2047   2.270   1.241   1.122  0.6599 -0.0087 -0.3145
  683SOL    HW1 2048   2.343   1.285   1.070 -1.4989 -0.0430  0.5435
  683SOL    HW2 2049   2.236   1.296   1.200  0.1587 -3.0857  6.0817
  684SOL     OW 2050   0.638   1.758   2.587  0.2985  0.1205  0.2046
  684SOL    HW1 2051   0.652   1.799   2.680  2.2522 -1.4767 -0.4463
  684SOL    HW2 2052   0.571   1.815   2.534  0.3305 -2.0078  1.5787
  685SOL     OW 2053   1.631   1.651   0.059  0.1871  0.3267  0.0919
  685SOL    HW1 2054   1.682   1.561   0.070 -1.6499 -2.8862 -1.1230
  685SOL    HW2 2055   1.634   1.685   3.063  0.3489  1.7606 -3.7709
  686SOL     OW 2056   2.812   0.534   1.274 -0.1820  0.1513  0.0478
  686SOL    HW1 2057   2.796   0.614   1.332 -0.6244 -0.1657 -2.0949
  686SOL    HW2 2058   2.850   0.562   1.182  0.9670  0.6697 -0.3331
  687SOL     OW 2059   1.013   2.224   2.837 -0.1835 -0.2947 -0.5664
  687SOL    HW1 2060   1.062   2.238   2.928  0.0945 -0.8090  1.1451
  687SOL    HW2 2061   1.064   2.147   2.788  4.3866  0.2249  0.7914
  688SOL     OW 2062   0.242   2.045   2.070 -0.1151 -0.4022 -0.1801
  688SOL    HW1 2063   0.255   1.972   2.000 -1.6733 -1.3931  0.0055
  688SOL    HW2 2064   0.143   2.048   2.096 -2.0856 -0.7020 -1.1992
  689SOL     OW 2065   1.900   0.581   1.809  0.4633 -0.2236  0.1216
  689SOL    HW1 2066   1.883   0.618   1.903  1.8669  0.2848 -1.9201
  689SOL    HW2 2067   1.958   0.497   1.812  0.2753 -0.1728  1.8894
  690SOL     OW 2068   2.344   0.729   0.983 -0.4246  0.5809  0.0992
  690SOL    HW1 2069   2.282   0.680   1.048  0.8158  0.3373 -1.6877
  690SOL    HW2 2070   2.309   0.823   0.972  1.1425 -1.4132 -1.9121
  691SOL     OW 2071   0.772   1.698   1.841  0.1980 -0.0881  0.1785
  691SOL    HW1 2072   0.854   1.667   1.793 -1.1538 -0.2638  2.3261
  691SOL    HW2 2073   0.759   1.651   1.932  1.1149  0.1298 -0.9474
  692SOL     OW 2074   2.036   0.293   1.448 -0.3050 -0.1514  0.4087
  692SOL    HW1 2075   2.053   0.196   1.469  0.7089 -0.1201  0.4304
  692SOL    HW2 2076   2.049   0.312   1.347  0.5592  0.2830 -0.1803
  693SOL     OW 2077   0.320   1.023   2.237 -0.6780  0.1467  0.3341
  693SOL    HW1 2078   0.348   1.015   2.340  0.3466  0.9141  1.2354
  693SOL    HW2 2079   0.292   0.934   2.192 -0.5269 -0.7210 -0.7990
  694SOL     OW 2080   1.603   0.069   1.136  0.0486 -0.2701  0.2385
  694SOL    HW1 2081   1.569   0.138   1.072 -0.1825 -1.9197  1.0594
  694SOL    HW2 2082   1.568   3.083   1.104  2.1591  0.8031  0.3149
  695SOL     OW 2083   1.094   1.123   1.830  0.4743  0.2214  0.2961
  695SOL    HW1 2084   1.119   1.051   1.763 -0.3786  2.1453  1.1803
  695SOL    HW2 2085   1.059   1.082   1.918  0.9834  0.0046  1.2442
  696SOL     OW 2086   1.329   3.019   0.527 -0.4510  0.4437  0.2052
  696SOL    HW1 2087   1.362   2.926   0.496 -0.8521 -0.0794 -3.2607
  696SOL    HW2 2088   1.228   3.029   0.523 -0.7826 -0.8862 -0.2517
  697SOL     OW 2089   0.903   0.458   0.733  0.8106 -1.1101 -0.0880
  697SOL    HW1 2090   0.842   0.537   0.700 -0.3594  2.9673 -0.9765
  697SOL    HW2 2091   0.880   0.375   0.672  0.4590 -2.2330 -1.6816
  698SOL     OW 2092   1.337   1.179   2.582 -0.7722  0.0700  0.1431
  698SOL    HW1 2093   1.299   1.234   2.654 -1.1887 -0.5009 -2.4090
  698SOL    HW2 2094   1.360   1.086   2.617  0.1582 -0.2873 -2.9178
  699SOL     OW 2095   1.701   1.471   1.305 -0.4779 -0.4184 -0.3063
  699SOL    HW1 2096   1.625   1.543   1.307  0.3275  0.1902  1.8743
  699SOL    HW2 2097   1.733   1.451   1.210  0.5694 -1.6450 -0.9765
  700SOL     OW 2098   1.437   0.173   0.530  0.2277  0.2196  0.4270
  700SOL    HW1 2099   1.420   0.072   0.545 -2.3201 -0.0582  1.1076
  700SOL    HW2 2100   1.533   0.192   0.505 -1.7492 -0.8357  0.9786
  701SOL     OW 2101   2.815   0.230   2.274 -0.2761 -0.7395 -0.0441
  701SOL    HW1 2102   2.865   0.158   2.218  1.3071 -3.5395 -1.9859
  701SOL    HW2 2103   2.843   0.240   2.373  1.5686  1.1481 -0.7266
  702SOL     OW 2104   1.126   0.082   0.142  0.1675  0.1315  0.0338
  702SOL    HW1 2105   1.118   0.182   0.158  1.1936  1.5106  0.6176
  702SOL    HW2 2106   1.225   0.055   0.127 -1.4674 -0.4112  0.2300
  703SOL     OW 2107   2.241   2.891   2.056  0.3209 -0.0951 -0.8028
  703SOL    HW1 2108   2.151   2.839   2.046  0.1993 -3.7496 -2.6303
  703SOL    HW2 2109   2.282   2.873   2.147 -1.1214 -0.5394 -2.1047
  704SOL     OW 2110   0.563   2.166   0.909 -0.6977 -0.0550  0.6827
  704SOL    HW1 2111   0.475   2.130   0.871 -1.7722  2.0413 -0.5498
  704SOL    HW2 2112   0.543   2.205   1.005 -0.4010  1.7073 -0.7598
  705SOL     OW 2113   2.734   0.220   1.901 -0.3469  0.0960  0.1608
  705SOL    HW1 2114   2.760   0.280   1.979  1.3474  0.5987  1.8499
  705SOL    HW2 2115   2.743   0.122   1.918 -0.6906  4.3308 -2.2842
  706SOL     OW 2116   1.708   0.282   0.524  0.4037 -0.1498 -0.4741
  706SOL    HW1 2117   1.784   0.345   0.550 -2.0720 -2.4820  0.1144
  706SOL    HW2 2118   1.716   0.265   0.423 -0.0327 -2.2943 -5.0713
  707SOL     OW 2119   1.293   1.905   2.197 -0.1638 -0.0966  0.4385
  707SOL    HW1 2120   1.345   1.818   2.217  2.0899  0.5650  0.7259
  707SOL    HW2 2121   1.258   1.952   2.281  1.8555 -2.0723 -1.4896
  708SOL     OW 2122   0.001   2.215   1.801  0.6066  0.3362  0.0607
  708SOL    HW1 2123   0.103   2.240   1.803 -0.2337 -0.7722 -0.4006
  708SOL    HW2 2124   3.054   2.293   1.765 -3.1138  0.9152  2.3148
  709SOL     OW 2125   1.805   0.135   2.083  0.1269  0.5282  0.3931
  709SOL    HW1 2126   1.780   0.078   2.163  1.7202  0.9971 -2.8133
  709SOL    HW2 2127   1.903   0.141   2.060 -0.3048 -1.1562 -1.1439
  710SOL     OW 2128   2.317   0.476   1.435 -0.1919  0.1601 -0.0182
  710SOL    HW1 2129   2.237   0.444   1.484  0.3248 -1.1933 -1.1817
  710SOL    HW2 2130   2.390   0.403   1.429  1.1013  2.0021 -1.1415
  711SOL     OW 2131   0.413   1.912   0.529 -0.1433  0.2799  0.0611
  711SOL    HW1 2132   0.373   1.819   0.506  1.6696  1.1455  0.1311
  711SOL    HW2 2133   0.514   1.896   0.515  1.4969 -1.1484  0.3906
  712SOL     OW 2134   0.561   2.574   2.424  0.4659 -0.4855  0.3823
  712SOL    HW1 2135   0.604   2.572   2.330  0.9594  0.5347 -1.1620
  712SOL    HW2 2136   0.533   2.669   2.445 -2.5601  1.1618 -1.0558
  713SOL     OW 2137   2.040   1.059   3.016  0.2321 -0.1130  0.2903
  713SOL    HW1 2138   2.003   1.039   2.923  0.1146 -1.7165  2.8154
  713SOL    HW2 2139   2.040   0.972   3.074 -1.4391 -2.6383  0.7591
  714SOL     OW 2140   0.854   1.883   1.122 -0.0625 -0.4678 -0.0535
  714SOL    HW1 2141   0.840   1.928   1.032  2.2311  1.6639 -1.3924
  714SOL    HW2 2142   0.876   1.951   1.199  2.0289  0.1646  3.8585
  715SOL     OW 2143   1.895   3.072   2.996  0.0327 -0.3047 -0.1722
  715SOL    HW1 2144   1.990   3.068   3.034  2.2112 -2.1137 -1.9883
  715SOL    HW2 2145   1.895   3.071   2.897  1.5120  0.4046  1.2986
  716SOL     OW 2146   3.032   0.171   1.751 -0.4798  0.2263 -0.1845
  716SOL    HW1 2147   2.964   0.218   1.693  2.2618 -0.0472  1.6286
  716SOL    HW2 2148   3.052   0.218   1.840  1.2038 -1.0951  0.6429
  717SOL     OW 2149   0.300   1.048   0.207  0.4934  0.4672 -0.1345
  717SOL    HW1 2150   0.269   0.959   0.165  1.6941 -3.3386 -0.4148
  717SOL    HW2 2151   0.294   1.122   0.143 -1.0600 -2.7503  0.2546
  718SOL     OW 2152   1.384   0.918   2.614 -0.1622 -0.6997  0.7449
  718SOL    HW1 2153   1.293   0.909   2.663 -0.2817 -0.7872  1.8564
  718SOL    HW2 2154   1.390   0.852   2.533  1.8634  1.4862  0.5765
  719SOL     OW 2155   2.885   1.461   0.111 -0.3233 -0.5387 -0.9509
  719SOL    HW1 2156   2.811   1.410   0.159 -0.7467 -1.9867 -0.0500
  719SOL    HW2 2157   2.859   1.487   0.017  0.6018 -0.0583  0.6329
  720SOL     OW 2158   1.218   0.810   1.067  0.0474  0.1295 -0.1242
  720SOL    HW1 2159   1.152   0.743   1.106 -0.0519  1.6116 -1.6811
  720SOL    HW2 2160   1.203   0.811   0.966 -1.0279  1.9467  0.5737
  721SOL     OW 2161   2.608   0.952   0.406  0.2216 -0.0281  0.4798
  721SOL    HW1 2162   2.622   0.967   0.306  0.2222 -0.0076  0.3180
  721SOL    HW2 2163   2.636   1.029   0.463  4.7825  0.4456  1.6984
  722SOL     OW 2164   1.275   0.919   2.961  0.7078  0.6613  0.3866
  722SOL    HW1 2165   1.268   0.848   3.032 -2.5120  1.0545 -0.4885
  722SOL    HW2 2166   1.193   0.906   2.894 -2.6871 -0.8636 -2.8374
  723SOL     OW 2167   0.114   1.175   0.374  0.1572  0.5551  0.3412
  723SOL    HW1 2168   0.066   1.263   0.355 -1.7625  2.3170 -0.9576
  723SOL    HW2 2169   0.187   1.151   0.313 -0.7532  1.6721  2.7250
  724SOL     OW 2170   0.747   1.971   2.126  0.2335  0.4477  0.5034
  724SOL    HW1 2171   0.650   1.977   2.156 -1.3700  0.3064 -0.5474
  724SOL    HW2 2172   0.768   2.041   2.053  0.1982 -0.1684  2.4427
  725SOL     OW 2173   2.359   1.010   1.407 -0.4066  0.1038 -0.1984
  725SOL    HW1 2174   2.271   1.025   1.363  0.4626  0.5054 -1.9100
  725SOL    HW2 2175   2.357   0.963   1.496  2.9877 -0.0261 -0.2339
  726SOL     OW 2176   1.877   2.991   0.631  0.3958 -0.0351 -0.4297
  726SOL    HW1 2177   1.864   2.954   0.538  0.3075 -0.0899  2.6562
  726SOL    HW2 2178   1.801   3.054   0.660  0.3618 -0.4734 -0.5914
  727SOL     OW 2179   1.177   0.985   2.154 -0.0492 -0.3340 -0.2333
  727SOL    HW1 2180   1.212   1.056   2.219 -1.5761 -1.1302  0.2220
  727SOL    HW2 2181   1.255   0.966   2.087  2.6417 -0.0909  2.8845
  728SOL     OW 2182   1.197   2.701   1.134  0.5739 -0.1956 -0.3334
  728SOL    HW1 2183   1.292   2.676   1.105 -0.8047  1.9106 -0.7479
  728SOL    HW2 2184   1.202   2.716   1.236 -2.8301 -0.8275 -2.2523
  729SOL     OW 2185   1.939   0.889   1.029 -0.0211  0.1357  0.3328
  729SOL    HW1 2186   1.915   0.864   0.931 -0.7461 -1.2212 -1.1649
  729SOL    HW2 2187   1.948   0.803   1.084  1.4290 -2.0619  1.5840
  730SOL     OW 2188   0.839   1.907   2.396 -0.5445 -0.6217  0.2657
  730SOL    HW1 2189   0.813   1.923   2.295 -1.1304  1.1159 -0.2913
  730SOL    HW2 2190   0.823   1.817   2.436  1.2768  0.1631  1.5797
  731SOL     OW 2191   0.587   0.395   0.682 -0.1246  0.0355  0.2617
  731SOL    HW1 2192   0.580   0.302   0.636 -1.9726 -0.5845  2.6765
  731SOL    HW2 2193   0.643   0.462   0.630  0.0586 -0.7915 -0.4208
  732SOL     OW 2194   0.827   0.812   0.214  0.2642  0.1793  0.1192
  732SOL    HW1 2195   0.774   0.791   0.128 -0.5255 -0.5771  2.1720
  732SOL    HW2 2196   0.906   0.871   0.187 -0.4610 -1.8037 -0.6939
  733SOL     OW 2197   0.706   2.334   0.751 -0.5315 -0.3219 -0.3644
  733SOL    HW1 2198   0.708   2.293   0.657  0.8553  0.2097  0.7191
  733SOL    HW2 2199   0.662   2.267   0.815  1.7001  0.8832  2.4469
  734SOL     OW 2200   0.090   2.069   2.666 -0.3938 -0.5610 -0.2753
  734SOL    HW1 2201   0.086   2.121   2.575  2.0678 -2.3147  0.2303
  734SOL    HW2 2202   0.154   2.107   2.735 -1.0755  1.2976 -2.0595
  735SOL     OW 2203   0.923   3.074   1.214  0.1862  0.0603  0.3459
  735SOL    HW1 2204   0.996   0.021   1.263 -1.5782 -2.3284 -0.8252
  735SOL    HW2 2205   0.967   3.002   1.156  0.5750  0.0047 -0.0323
  736SOL     OW 2206   1.691   2.940   0.015  0.0111  0.4620  0.2499
  736SOL    HW1 2207   1.699   2.974   0.109  3.1109 -0.6420 -1.7790
  736SOL    HW2 2208   1.772   2.972   3.067  1.0101 -0.1952 -3.4508
  737SOL     OW 2209   3.024   0.210   0.579  0.0576 -0.8068  0.2693
  737SOL    HW1 2210   3.013   0.249   0.482 -1.4305 -1.3168 -0.7183
  737SOL    HW2 2211   3.019   0.288   0.651  0.3571 -0.5059  1.1055
  738SOL     OW 2212   2.588   2.914   1.009 -0.0149 -0.0242  0.5465
  738SOL    HW1 2213   2.581   3.007   1.055  0.6708  1.8608  2.4470
  738SOL    HW2 2214   2.559   2.917   0.910 -0.7612  1.9730 -1.0243
  739SOL     OW 2215   1.693   2.486   0.253 -0.3220  0.8095 -0.0303
  739SOL    HW1 2216   1.732   2.400   0.216 -0.8037  0.7195 -0.5236
  739SOL    HW2 2217   1.608   2.501   0.205  1.1140 -0.3434  0.7505
  740SOL     OW 2218   1.483   0.202   0.916 -0.2708 -0.2435  0.0022
  740SOL    HW1 2219   1.411   0.160   0.851 -0.4014 -1.6174 -1.1286
  740SOL    HW2 2220   1.533   0.281   0.874 -0.7905  1.5116  0.6470
  741SOL     OW 2221   2.198   0.796   0.557  0.0586  0.1708  0.2706
  741SOL    HW1 2222   2.176   0.877   0.609 -0.1648 -0.3237 -3.8089
  741SOL    HW2 2223   2.239   0.827   0.467 -3.6261  2.8533 -3.3161
  742SOL     OW 2224   1.273   2.131   2.354 -1.2582 -0.6331  0.6282
  742SOL    HW1 2225   1.333   2.192   2.411 -0.0209  0.5965 -1.6855
  742SOL    HW2 2226   1.269   2.164   2.259 -0.9451 -0.1757 -1.1050
  743SOL     OW 2227   2.027   0.355   1.804 -0.4591  0.6369  0.4821
  743SOL    HW1 2228   1.993   0.305   1.719 -4.7711 -0.3278 -1.5305
  743SOL    HW2 2229   2.092   0.300   1.861 -0.0502  1.6137  1.3863
  744SOL     OW 2230   2.343   0.364   1.020 -0.1602  0.7910 -0.0032
  744SOL    HW1 2231   2.336   0.297   0.938  0.9333 -3.4792 -4.2029
  744SOL    HW2 2232   2.414   0.338   1.085  1.1931  2.3428 -1.4645
  745SOL     OW 2233   1.842   1.193   1.576  0.3672  0.1021  0.4951
  745SOL    HW1 2234   1.784   1.208   1.664 -0.7770  2.4494  1.6331
  745SOL    HW2 2235   1.782   1.146   1.504 -0.5526  0.6048  1.1854
  746SOL     OW 2236   1.788   1.383   1.014 -0.1314 -0.0568 -0.0194
  746SOL    HW1 2237   1.784   1.377   0.917  0.9178  1.2165  2.3254
  746SOL    HW2 2238   1.825   1.294   1.046  0.8797  1.1155  1.6605
  747SOL     OW 2239   1.871   1.095   1.189  0.4004 -0.2405  0.5025
  747SOL    HW1 2240   1.944   1.085   1.259  2.1156  0.1477  1.0159
  747SOL    HW2 2241   1.877   1.031   1.110 -0.7876 -1.2639 -1.1510
  748SOL     OW 2242   0.216   2.459   0.851  0.2240  0.0618 -0.0406
  748SOL    HW1 2243   0.285   2.509   0.907 -0.8485 -1.3677  0.0712
  748SOL    HW2 2244   0.257   2.410   0.769  0.7329 -1.4450  2.7240
  749SOL     OW 2245   2.735   3.016   2.277 -0.1372 -0.3685  0.1998
  749SOL    HW1 2246   2.676   3.052   2.203 -0.2187 -1.0955 -1.0219
  749SOL    HW2 2247   2.750   2.916   2.261 -1.9341 -0.5527 -1.0778
  750SOL     OW 2248   2.602   0.610   0.920  0.1978  0.0910  0.4302
  750SOL    HW1 2249   2.564   0.579   1.010 -1.1500 -0.2684  0.1881
  750SOL    HW2 2250   2.543   0.681   0.880  0.2459 -0.7757  1.3933
  751SOL     OW 2251   2.673   0.301   0.135 -0.1410 -0.7412 -0.0041
  751SOL    HW1 2252   2.757   0.357   0.122  0.1807 -0.4905  0.1844
  751SOL    HW2 2253   2.596   0.364   0.149 -1.0203  1.4060  0.3505
  752SOL     OW 2254   0.303   2.880   0.880 -0.1827  0.5611 -0.1730
  752SOL    HW1 2255   0.246   2.808   0.930 -2.0979 -1.8352 -0.5960
  752SOL    HW2 2256   0.313   2.849   0.784 -0.3295  1.6090  1.7457
  753SOL     OW 2257   1.277   0.647   1.989 -0.5758 -0.5248 -0.5751
  753SOL    HW1 2258   1.321   0.741   1.989 -0.1175  2.7722 -0.9740
  753SOL    HW2 2259   1.278   0.609   1.897  1.5787  3.7215  2.7668
  754SOL     OW 2260   1.849   2.248   1.854  0.1591  0.4934 -0.2390
  754SOL    HW1 2261   1.842   2.344   1.884 -0.1506  0.0265 -2.3448
  754SOL    HW2 2262   1.755   2.203   1.845 -2.5550  1.5392 -1.3311
  755SOL     OW 2263   2.689   0.705   0.510  0.0936  0.1229 -0.0316
  755SOL    HW1 2264   2.777   0.737   0.556  1.1785 -0.6775 -0.9245
  755SOL    HW2 2265   2.646   0.785   0.458 -1.4037  1.1622  1.5804
  756SOL     OW 2266   1.679   1.455   2.754 -0.3606 -0.0108 -0.0380
  756SOL    HW1 2267   1.610   1.528   2.755 -0.5795 -0.3648  0.0027
  756SOL    HW2 2268   1.714   1.437   2.657  0.1792  0.1383 -1.5394
  757SOL     OW 2269   1.678   0.067   0.714 -0.4835 -0.0519  0.3572
  757SOL    HW1 2270   1.697   0.112   0.802  0.0128 -1.7303  2.2514
  757SOL    HW2 2271   1.657   0.134   0.638 -2.2377 -1.7503  2.6826
  758SOL     OW 2272   0.265   0.194   1.378  0.3954 -0.3305  0.3959
  758SOL    HW1 2273   0.213   0.106   1.360 -2.0495  0.9053 -0.1262
  758SOL    HW2 2274   0.300   0.236   1.291  0.4669  5.5899  0.9373
  759SOL     OW 2275   0.160   0.875   1.350  0.2524  0.1022  0.0958
  759SOL    HW1 2276   0.170   0.787   1.297 -0.1232  1.6418  2.2079
  759SOL    HW2 2277   0.060   0.897   1.363  2.4780  2.3030  0.4570
  760SOL     OW 2278   2.233   0.964   0.972 -0.4186  0.0211  0.3917
  760SOL    HW1 2279   2.196   1.001   0.884  0.0662 -0.3960 -1.4231
  760SOL    HW2 2280   2.182   1.001   1.052  0.2988 -1.0375  1.9102
  761SOL     OW 2281   1.475   1.037   0.743 -0.6168  0.1107  0.2505
  761SOL    HW1 2282   1.406   0.969   0.757 -0.3904  0.5704 -0.4504
  761SOL    HW2 2283   1.514   1.070   0.833 -0.5418  2.8258 -0.7144
  762SOL     OW 2284   2.352   2.257   1.341 -0.2913  0.2370 -0.5439
  762SOL    HW1 2285   2.249   2.253   1.345 -0.1997 -2.9637  3.2171
  762SOL    HW2 2286   2.379   2.355   1.358 -0.0272  1.3918  0.1565
  763SOL     OW 2287   1.483   1.302   1.979  0.2268  0.1492  0.1457
  763SOL    HW1 2288   1.517   1.211   1.942 -0.3997 -2.5280 -0.9396
  763SOL    HW2 2289   1.395   1.320   1.927  1.6345  3.2236  0.4500
  764SOL     OW 2290   0.210   1.821   2.584  0.2241 -0.6609  0.2125
  764SOL    HW1 2291   0.134   1.762   2.545 -1.5728  0.1303  1.0604
  764SOL    HW2 2292   0.170   1.915   2.604  0.1623  1.0953  1.1597
  765SOL     OW 2293   0.783   2.666   1.280 -0.0584 -0.3249  0.7221
  765SOL    HW1 2294   0.749   2.572   1.290  1.5819 -0.1480  0.7090
  765SOL    HW2 2295   0.798   2.696   1.184 -1.3047 -0.2949  0.3380
  766SOL     OW 2296   0.739   2.164   2.514 -0.1265 -0.2456  0.1565
  766SOL    HW1 2297   0.783   2.085   2.468 -0.2159  0.3780 -0.3336
  766SOL    HW2 2298   0.735   2.146   2.614  1.6987 -0.9332 -3.9183
  767SOL     OW 2299   2.040   0.437   2.317  0.0288  0.1510  0.2933
  767SOL    HW1 2300   2.110   0.370   2.279  0.4097 -2.5081  1.1814
  767SOL    HW2 2301   2.002   0.404   2.404  3.3072 -0.3108 -0.0729
  768SOL     OW 2302   1.259   2.562   2.953 -0.5270  0.1304  0.0370
  768SOL    HW1 2303   1.195   2.485   2.970  1.2626  1.8899  0.2620
  768SOL    HW2 2304   1.254   2.632   3.029  0.0414 -2.9490 -1.5421
  769SOL     OW 2305   0.120   2.749   1.045 -0.3075  0.5759 -0.2227
  769SOL    HW1 2306   0.063   2.814   1.100 -3.2945 -2.8301 -0.1797
  769SOL    HW2 2307   0.146   2.673   1.104 -1.7348 -0.7049 -0.3379
  770SOL     OW 2308   0.677   2.807   2.956  0.0882  0.1091  0.2220
  770SOL    HW1 2309   0.594   2.755   2.961  3.9377 -0.8673 -1.7209
  770SOL    HW2 2310   0.717   2.793   2.861  0.1429 -0.2511 -0.0813
  771SOL     OW 2311   0.984   2.397   2.611  0.6481 -0.0489 -0.6471
  771SOL    HW1 2312   0.999   2.327   2.688  2.7401 -0.2484 -2.0741
  771SOL    HW2 2313   0.884   2.423   2.598 -0.2401  1.3392  1.1684
  772SOL     OW 2314   2.390   3.066   1.916  0.3759  0.1864  0.0097
  772SOL    HW1 2315   2.317   2.999   1.937  0.2378 -1.2772 -0.0948
  772SOL    HW2 2316   2.370   0.014   1.834  0.4630  1.0095  1.4196
  773SOL     OW 2317   0.898   2.679   1.982  0.3470 -0.3707 -0.1089
  773SOL    HW1 2318   0.891   2.578   1.964  1.2193 -2.5687  0.7305
  773SOL    HW2 2319   0.949   2.687   2.067 -0.8717 -0.4718 -3.5697
  774SOL     OW 2320   1.290   0.435   2.199 -0.1043  0.4799 -0.1313
  774SOL    HW1 2321   1.372   0.454   2.259 -2.0470 -0.6124 -1.0214
  774SOL    HW2 2322   1.295   0.490   2.110 -1.6001  0.2341  0.3796
  775SOL     OW 2323   1.995   3.087   0.242  0.4096 -0.0891  0.4982
  775SOL    HW1 2324   2.038   2.995   0.233  1.4622 -0.3223  0.8999
  775SOL    HW2 2325   1.893   3.076   0.232  1.5455 -2.1908 -0.0191
  776SOL     OW 2326   2.237   0.920   1.732  0.9011  0.4164 -0.2771
  776SOL    HW1 2327   2.148   0.877   1.713 -0.1714  0.5033  3.6821
  776SOL    HW2 2328   2.227   1.018   1.768 -2.0724 -2.5365  0.3911
  777SOL     OW 2329   2.908   1.121   2.269  0.4525  0.0666 -0.1240
  777SOL    HW1 2330   2.988   1.091   2.212 -0.7743 -1.6304 -1.8889
  777SOL    HW2 2331   2.818   1.079   2.245 -0.9199 -1.4589  2.4640
  778SOL     OW 2332   2.414   0.550   2.046 -0.2385  0.3648  0.2271
  778SOL    HW1 2333   2.394   0.641   2.003 -0.9618 -2.3859  0.3895
  778SOL    HW2 2334   2.446   0.488   1.972  1.5666  0.0222 -2.3530
  779SOL     OW 2335   3.063   3.078   3.012 -0.2741  0.1164 -0.0805
  779SOL    HW1 2336   0.005   3.102   2.928  0.1273  1.5513  2.1686
  779SOL    HW2 2337   3.058   0.061   3.068 -0.4366 -0.0268 -0.7673
  780SOL     OW 2338   1.983   3.063   2.382  0.2823  0.0857 -0.5325
  780SOL    HW1 2339   2.018   0.000   2.295 -0.9356  1.3713 -0.0300
  780SOL    HW2 2340   1.997   0.020   2.463  0.2363  1.0750  0.7641
  781SOL     OW 2341   0.129   0.877   1.836  0.4295  0.5940 -0.2100
  781SOL    HW1 2342   0.205   0.851   1.768  0.0486 -0.3912  1.3789
  781SOL    HW2 2343   0.160   0.849   1.929  2.4456 -0.5057 -2.5857
  782SOL     OW 2344   2.016   2.291   0.238  0.2830  0.1468  0.0320
  782SOL    HW1 2345   2.103   2.252   0.207 -0.4990 -1.0353  0.5817
  782SOL    HW2 2346   2.010   2.303   0.336  0.5518  0.2511 -3.4596
  783SOL     OW 2347   0.741   1.675   1.274  0.0044  0.4456  0.1221
  783SOL    HW1 2348   0.774   1.742   1.207  1.1573 -1.2639  0.9152
  783SOL    HW2 2349   0.818   1.663   1.342 -0.2575  2.3453 -1.1748
  784SOL     OW 2350   2.019   0.704   2.302 -0.5181 -0.3081 -0.3473
  784SOL    HW1 2351   2.021   0.604   2.290 -0.6105 -2.5652  1.3268
  784SOL    HW2 2352   2.099   0.747   2.256  2.1928 -1.7768 -1.6698
  785SOL     OW 2353   3.106   0.289   1.068 -0.0813  0.0821 -0.0257
  785SOL    HW1 2354   3.071   0.316   1.157  1.4256 -1.3985 -3.5581
  785SOL    HW2 2355   0.031   0.189   1.076  0.2751 -0.3228 -0.9500
  786SOL     OW 2356   1.740   3.050   0.263 -0.4456 -0.2069 -0.0250
  786SOL    HW1 2357   1.668   0.014   0.280  1.4428 -0.6751 -0.2358
  786SOL    HW2 2358   1.736   2.976   0.336 -0.2644  1.2605  1.9059
  787SOL     OW 2359   1.241   0.154   0.798  0.0614 -0.3440 -0.1906
  787SOL    HW1 2360   1.233   0.243   0.746 -0.8236 -0.7372 -0.1836
  787SOL    HW2 2361   1.177   0.153   0.877  0.0095 -0.0554 -0.1343
  788SOL     OW 2362   3.090   1.808   1.289  0.0314 -0.8867  0.4199
  788SOL    HW1 2363   3.065   1.845   1.197  1.2489 -2.7026 -0.1070
  788SOL    HW2 2364   0.083   1.815   1.301 -1.1221 -0.6983 -0.7404
  789SOL     OW 2365   2.766   0.651   1.997 -0.1778  0.4001  0.4844
  789SOL    HW1 2366   2.728   0.555   2.015  0.8891 -2.3457 -1.2036
  789SOL    HW2 2367   2.802   0.696   2.084 -0.7008 -0.9228  1.3762
  790SOL     OW 2368   0.748   0.791   2.755 -0.2827  0.4234 -0.6516
  790SOL    HW1 2369   0.774   0.692   2.740 -0.0265 -3.4002 -0.1983
  790SOL    HW2 2370   0.808   0.838   2.821  1.6747 -1.1937 -1.0335
  791SOL     OW 2371   2.460   0.294   3.038 -0.0106  0.3665 -0.2290
  791SOL    HW1 2372   2.417   0.232   0.000 -3.1930 -1.5215 -0.4250
  791SOL    HW2 2373   2.554   0.268   3.013  1.1539 -1.9954 -1.2408
  792SOL     OW 2374   1.375   0.829   1.346  0.0859 -0.5013  0.1239
  792SOL    HW1 2375   1.343   0.806   1.252  0.0719  2.1337 -1.7897
  792SOL    HW2 2376   1.329   0.781   1.422 -1.7612 -0.5494  0.8368
  793SOL     OW 2377   2.706   0.246   1.616  0.2864 -0.6035 -0.2578
  793SOL    HW1 2378   2.711   0.234   1.718  0.3064  1.6460 -3.9902
  793SOL    HW2 2379   2.773   0.314   1.594 -1.7866 -3.2242 -2.0761
  794SOL     OW 2380   2.931   0.074   2.097  0.6179  0.3123  0.6711
  794SOL    HW1 2381   3.012   0.099   2.042  2.0552  0.8809  1.7129
  794SOL    HW2 2382   2.860   0.027   2.036  2.2750 -0.0239  0.4411
  795SOL     OW 2383   0.758   2.109   2.790 -0.4664  0.1618  0.2844
  795SOL    HW1 2384   0.841   2.149   2.838  0.9543 -1.4420 -0.1367
  795SOL    HW2 2385   0.752   2.009   2.809 -0.6469 -2.2417  0.4863
  796SOL     OW 2386   1.873   0.614   2.641 -0.1627  0.1897  0.1104
  796SOL    HW1 2387   1.838   0.678   2.566  0.0402 -1.5518 -3.7230
  796SOL    HW2 2388   1.856   0.648   2.736 -0.8139  2.5379 -1.3340
  797SOL     OW 2389   2.414   2.021   2.981  0.6542 -0.0608 -0.3818
  797SOL    HW1 2390   2.413   2.122   2.988  0.3424  2.1554  0.3016
  797SOL    HW2 2391   2.502   1.979   2.999 -1.7369 -1.1750 -0.3691
  798SOL     OW 2392   3.088   0.559   1.395  0.1923 -0.0407 -0.5211
  798SOL    HW1 2393   0.043   0.576   1.314 -0.7938  1.5799  0.7353
  798SOL    HW2 2394   2.994   0.592   1.388  0.9201 -0.2822  1.0489
  799SOL     OW 2395   0.431   0.313   1.786  0.4018 -0.4228 -0.2219
  799SOL    HW1 2396   0.524   0.323   1.830  0.6810 -0.8835 -0.9001
  799SOL    HW2 2397   0.413   0.212   1.780  1.7660 -0.2370  2.0992
  800SOL     OW 2398   0.147   2.304   0.264  0.5473  0.2150  0.1494
  800SOL    HW1 2399   0.066   2.258   0.311  0.5875  1.1831 -2.6668
  800SOL    HW2 2400   0.235   2.263   0.283 -0.9805 -1.0956 -0.5742
  801SOL     OW 2401   1.539   1.748   0.759  0.2637 -0.5561 -0.0015
  801SOL    HW1 2402   1.518   1.656   0.794 -0.9469 -1.4119 -2.2424
  801SOL    HW2 2403   1.467   1.813   0.785  1.7549 -0.2880 -0.7115
  802SOL     OW 2404   0.806   0.489   0.271  0.9473 -0.5624 -0.3544
  802SOL    HW1 2405   0.709   0.483   0.300 -0.7320 -0.3438  2.2770
  802SOL    HW2 2406   0.830   0.579   0.218  2.3968  1.3177  0.9641
  803SOL     OW 2407   1.218   1.411   1.880 -0.0809  0.2541 -0.2709
  803SOL    HW1 2408   1.197   1.450   1.972 -1.4965  0.2019 -1.5208
  803SOL    HW2 2409   1.192   1.312   1.871 -2.8797 -4.7952  0.2203
  804SOL     OW 2410   1.782   2.175   1.316  0.4178  0.0046 -0.4648
  804SOL    HW1 2411   1.866   2.209   1.356  0.7092  1.1455 -1.6501
  804SOL    HW2 2412   1.775   2.207   1.217  0.2076 -0.2375 -0.9349
  805SOL     OW 2413   0.030   2.146   2.409  0.1020  0.2509 -0.2646
  805SOL    HW1 2414   0.041   2.050   2.368 -0.8599  1.5311  1.3391
  805SOL    HW2 2415   0.057   2.217   2.345  0.8451  0.2811  3.1682
  806SOL     OW 2416   0.942   2.766   0.297  0.4847  0.4784  0.0476
  806SOL    HW1 2417   0.859   2.730   0.254  1.4856 -0.8284  1.4205
  806SOL    HW2 2418   0.951   2.866   0.302  0.1827  0.1630 -3.1195
  807SOL     OW 2419   2.596   1.015   2.830 -0.5817  0.0270  0.1518
  807SOL    HW1 2420   2.597   1.091   2.899 -0.1132 -0.9522  0.4418
  807SOL    HW2 2421   2.635   0.930   2.871 -0.7306 -0.1535 -1.2008
  808SOL     OW 2422   1.436   2.010   0.918 -0.0610 -0.2178 -0.1565
  808SOL    HW1 2423   1.524   2.050   0.873  3.8942 -1.4484 -4.5658
  808SOL    HW2 2424   1.402   2.084   0.979  1.2699 -0.8410  2.3386
  809SOL     OW 2425   0.158   0.488   0.615 -0.0809 -0.2206 -0.9624
  809SOL    HW1 2426   0.075   0.543   0.642 -0.4242 -0.5952 -0.9720
  809SOL    HW2 2427   0.179   0.433   0.699 -1.2284 -1.3215 -0.0122
  810SOL     OW 2428   1.402   1.302   0.097  0.4859 -0.4143 -0.0563
  810SOL    HW1 2429   1.464   1.304   0.018  0.4689 -0.4738 -2.3319
  810SOL    HW2 2430   1.452   1.306   0.189  3.2647 -3.6063  3.5526
  811SOL     OW 2431   1.450   2.862   1.296 -0.0592  0.4243  0.2608
  811SOL    HW1 2432   1.514   2.782   1.305  0.8646  0.9428 -2.3630
  811SOL    HW2 2433   1.356   2.843   1.324  0.3800 -1.3566  4.5157
  812SOL     OW 2434   1.169   0.410   0.688 -0.2218 -0.1026 -0.1415
  812SOL    HW1 2435   1.186   0.368   0.595 -1.8918 -1.9129 -1.7917
  812SOL    HW2 2436   1.069   0.436   0.695 -1.5775  1.6658  1.2700
  813SOL     OW 2437   1.152   2.979   2.319 -0.5602  0.1771  0.3678
  813SOL    HW1 2438   1.212   2.903   2.293 -2.4008 -1.9001  0.0133
  813SOL    HW2 2439   1.163   3.052   2.257  2.6920  0.8576 -0.5339
  814SOL     OW 2440   1.210   2.739   1.402  0.1754  0.1925 -0.3337
  814SOL    HW1 2441   1.133   2.671   1.406 -0.7020 -1.0497 -2.5792
  814SOL    HW2 2442   1.202   2.808   1.476 -0.8258 -0.6388 -2.3880
  815SOL     OW 2443   0.021   2.819   0.014 -0.3032  0.0504 -0.4698
  815SOL    HW1 2444   3.058   2.890   3.103  0.7845  1.8149 -3.2033
  815SOL    HW2 2445   0.005   2.770   0.103  2.3538  3.2959 -1.3556
  816SOL     OW 2446   2.295   1.353   2.829 -0.1103  0.0299 -0.3867
  816SOL    HW1 2447   2.277   1.443   2.781 -0.0240  1.1209 -1.4119
  816SOL    HW2 2448   2.292   1.272   2.767  0.1453  0.0704 -2.9045
  817SOL     OW 2449   2.202   2.101   2.446 -0.7043  0.4073  0.5338
  817SOL    HW1 2450   2.160   2.008   2.438  2.3670 -0.3880 -0.9614
  817SOL    HW2 2451   2.236   2.122   2.538 -0.7824 -1.9894 -1.5407
  818SOL     OW 2452   1.059   0.965   0.173  0.1815  0.3852  0.3514
  818SOL    HW1 2453   1.093   1.011   0.261 -2.3326  2.6937  0.2489
  818SOL    HW2 2454   0.996   1.034   0.122 -1.5619  1.6132 -2.4090
  819SOL     OW 2455   1.739   1.397   0.056 -0.1423 -0.1687  0.1836
  819SOL    HW1 2456   1.677   1.373   3.083 -0.1621  1.5479 -1.3273
  819SOL    HW2 2457   1.798   1.316   0.082  0.7500  1.1218 -1.5066
  820SOL     OW 2458   0.255   0.890   0.634  0.5329 -0.2552  0.8915
  820SOL    HW1 2459   0.276   0.835   0.716  0.5222  2.2273 -1.4574
  820SOL    HW2 2460   0.245   0.829   0.552  1.8284 -3.8324 -0.6607
  821SOL     OW 2461   0.472   0.039   1.470 -0.5022 -0.2860  0.0590
  821SOL    HW1 2462   0.420   0.114   1.427  1.0916 -2.5757  0.3509
  821SOL    HW2 2463   0.433   3.057   1.441  0.3245  1.9639  0.3540
  822SOL     OW 2464   1.947   2.075   2.940  0.4126  0.2492 -0.2141
  822SOL    HW1 2465   1.967   2.169   2.965  0.5563 -1.3647 -2.3184
  822SOL    HW2 2466   1.947   2.075   2.838 -0.2234  0.3517  2.6856
  823SOL     OW 2467   0.838   0.526   2.150  0.5414 -0.2858  0.4035
  823SOL    HW1 2468   0.877   0.557   2.064  1.4408 -0.7540  1.0301
  823SOL    HW2 2469   0.844   0.602   2.217  0.2486 -1.2579 -0.7780
  824SOL     OW 2470   2.512   3.023   1.374  0.3237 -0.1786 -0.3483
  824SOL    HW1 2471   2.507   3.091   1.301  0.2267  0.8259 -0.7147
  824SOL    HW2 2472   2.416   3.005   1.405  0.9705  3.8250 -0.4013
  825SOL     OW 2473   0.293   1.403   2.526 -0.0182 -0.2137  0.1508
  825SOL    HW1 2474   0.356   1.474   2.487 -1.3468 -0.3984  2.2804
  825SOL    HW2 2475   0.241   1.360   2.451  2.2997  1.0540  0.5883
  826SOL     OW 2476   1.662   0.467   2.807  0.1257 -0.0205  0.2156
  826SOL    HW1 2477   1.628   0.522   2.726 -1.7665  1.1423  0.4009
  826SOL    HW2 2478   1.654   0.368   2.787 -0.1046 -2.0788  0.1041
  827SOL     OW 2479   0.354   2.403   2.386 -0.2042 -0.2335  0.3685
  827SOL    HW1 2480   0.394   2.328   2.323  0.1409 -3.0658 -1.0797
  827SOL    HW2 2481   0.427   2.474   2.394  2.3320 -0.3339 -1.9696
  828SOL     OW 2482   3.041   3.075   1.494  0.4726  0.3430  0.3261
  828SOL    HW1 2483   3.092   0.007   1.569 -0.5337 -1.4632 -0.7717
  828SOL    HW2 2484   2.951   3.041   1.528 -1.8821 -0.0726 -3.5866
  829SOL     OW 2485   1.364   1.611   1.771  0.0238 -0.2846  0.3418
  829SOL    HW1 2486   1.447   1.589   1.824  1.5848  0.3013  0.8379
  829SOL    HW2 2487   1.290   1.554   1.814 -0.2899 -0.4016  1.0754
  830SOL     OW 2488   0.902   0.965   1.371  0.3977 -0.3276 -0.7909
  830SOL    HW1 2489   0.915   0.918   1.281  2.9161  1.4963 -0.8501
  830SOL    HW2 2490   0.806   1.000   1.384 -1.2759  1.9608  2.6360
  831SOL     OW 2491   2.940   1.818   0.468 -0.0034 -0.6201  0.4844
  831SOL    HW1 2492   2.910   1.815   0.366 -0.2276 -0.0868 -1.6844
  831SOL    HW2 2493   2.878   1.884   0.511  4.5166 -2.4922  0.7058
  832SOL     OW 2494   1.196   2.682   0.270  0.4245 -0.6571 -0.0745
  832SOL    HW1 2495   1.095   2.711   0.271 -2.4666  1.8129 -0.4960
  832SOL    HW2 2496   1.203   2.581   0.268  0.3775  2.2930 -0.0806
  833SOL     OW 2497   0.119   0.525   1.674 -0.2400 -0.2351 -0.3460
  833SOL    HW1 2498   0.206   0.486   1.636 -0.5387 -1.8007 -1.2956
  833SOL    HW2 2499   0.056   0.545   1.594 -2.3226  1.9684 -0.7078
  834SOL     OW 2500   2.932   0.624   1.045  0.1324  0.3400 -0.6098
  834SOL    HW1 2501   3.022   0.610   1.002 -0.6677  1.3121  0.5629
  834SOL    HW2 2502   2.872   0.685   0.986  3.1751  1.8880 -2.2737
  835SOL     OW 2503   2.636   0.161   0.463  0.3639  0.1003 -0.4073
  835SOL    HW1 2504   2.630   0.261   0.444 -2.7307  0.4101  1.7648
  835SOL    HW2 2505   2.689   0.114   0.391 -1.0536  0.7292  1.3432
  836SOL     OW 2506   1.137   1.994   2.730 -0.3681 -0.4820  0.1738
  836SOL    HW1 2507   1.090   1.918   2.780  0.4294  0.3510  0.4665
  836SOL    HW2 2508   1.129   1.981   2.629  1.1649  0.1011  0.7299
  837SOL     OW 2509   1.713   1.794   0.275  0.0568  0.5038  0.1329
  837SOL    HW1 2510   1.710   1.730   0.353 -0.6216 -0.9802 -1.7570
  837SOL    HW2 2511   1.668   1.754   0.193 -1.2914 -2.2817  0.7078
  838SOL     OW 2512   2.629   0.869   2.461  0.6338  0.1329 -0.1458
  838SOL    HW1 2513   2.651   0.919   2.549  0.4116  1.3519  2.8788
  838SOL    HW2 2514   2.579   0.927   2.397 -0.8775 -1.0984  1.1745
  839SOL     OW 2515   0.785   1.014   2.402  0.7138  0.0353  0.3613
  839SOL    HW1 2516   0.845   1.094   2.378  1.5987 -0.9761 -2.3159
  839SOL    HW2 2517   0.757   1.021   2.500  0.3212 -0.5599 -2.0640
  840SOL     OW 2518   0.943   0.908   2.922  0.3582  0.0628  0.6612
  840SOL    HW1 2519   0.938   0.987   2.986  1.8192 -2.5646  0.9970
  840SOL    HW2 2520   0.972   0.820   2.964 -1.0109  2.8512 -1.0428
  841SOL     OW 2521   0.829   2.570   0.747 -0.4304  0.7648  0.3676
  841SOL    HW1 2522   0.895   2.595   0.671 -0.5301 -1.0197 -0.7850
  841SOL    HW2 2523   0.798   2.474   0.751  0.3071  1.2557 -1.7617
  842SOL     OW 2524   0.306   0.725   0.860  0.4531 -0.5184  0.0890
  842SOL    HW1 2525   0.339   0.807   0.910  0.4827 -1.8129  0.7350
  842SOL    HW2 2526   0.360   0.641   0.889 -1.6548 -0.2545 -1.7241
  843SOL     OW 2527   0.650   1.047   1.413  0.6563  0.9643 -0.3963
  843SOL    HW1 2528   0.601   0.959   1.439 -1.4568 -1.8481 -2.2895
  843SOL    HW2 2529   0.625   1.123   1.477  0.7665  1.3166 -2.0075
  844SOL     OW 2530   2.054   2.592   2.684 -0.3403  0.3860 -0.2835
  844SOL    HW1 2531   2.037   2.652   2.763  1.4682 -2.7431 -1.5367
  844SOL    HW2 2532   2.114   2.640   2.612  3.6605  2.1915 -0.3737
  845SOL     OW 2533   2.224   2.966   1.553 -0.2618  0.1237 -0.0319
  845SOL    HW1 2534   2.192   3.018   1.467 -0.6903  0.3897 -0.7172
  845SOL    HW2 2535   2.172   2.882   1.572  0.1164  1.0563 -2.2473
  846SOL     OW 2536   2.010   0.990   2.492  0.2348  0.2641 -0.5059
  846SOL    HW1 2537   1.938   0.939   2.443 -0.6253 -1.8373 -2.8131
  846SOL    HW2 2538   2.027   0.935   2.578 -0.2976 -1.7908 -0.7441
  847SOL     OW 2539   2.444   2.694   1.842 -0.2756 -0.5720  0.2994
  847SOL    HW1 2540   2.384   2.765   1.805 -2.2326 -0.3703  1.3738
  847SOL    HW2 2541   2.457   2.627   1.767 -1.4485  0.7582 -0.3607
  848SOL     OW 2542   2.831   2.840   0.128  0.3066  0.1911  0.6763
  848SOL    HW1 2543   2.788   2.900   0.197  0.5411  0.2539  0.4358
  848SOL    HW2 2544   2.818   2.875   0.032  1.3907  0.7929 -1.8331
  849SOL     OW 2545   0.293   0.042   0.883 -0.0527 -0.0596  0.2035
  849SOL    HW1 2546   0.308   3.047   0.884 -0.6916  3.7606 -2.3752
  849SOL    HW2 2547   0.379   0.093   0.899 -0.3247  0.8185  1.9574
  850SOL     OW 2548   0.286   2.157   0.604 -0.3490 -0.0404  0.3494
  850SOL    HW1 2549   0.336   2.249   0.617 -0.4535  2.8433 -1.6531
  850SOL    HW2 2550   0.352   2.085   0.582 -0.8994  1.5914  2.8306
  851SOL     OW 2551   1.992   0.434   3.087 -0.3550 -0.2215  0.6869
  851SOL    HW1 2552   2.023   0.438   2.989  0.6822  0.7038  0.1964
  851SOL    HW2 2553   1.947   0.343   0.001  0.5759  0.9832  1.2709
  852SOL     OW 2554   1.850   2.109   2.643 -0.0486 -0.1868 -0.4973
  852SOL    HW1 2555   1.779   2.118   2.570  0.6410  0.9485  1.9513
  852SOL    HW2 2556   1.937   2.150   2.621 -3.0299 -0.8582  1.8084
  853SOL     OW 2557   3.090   1.965   0.214  0.7210  0.7292  0.4973
  853SOL    HW1 2558   3.057   1.870   0.200 -1.4269  0.4226  3.5574
  853SOL    HW2 2559   0.087   1.974   0.213  0.3404 -3.0477 -1.1026
  854SOL     OW 2560   1.843   0.677   2.055 -0.0367  0.4636 -0.0072
  854SOL    HW1 2561   1.793   0.592   2.096 -1.6841 -0.7422 -1.3998
  854SOL    HW2 2562   1.905   0.714   2.124 -3.2897  1.2331  1.6790
  855SOL     OW 2563   0.365   2.715   0.111 -0.0275 -0.2916 -0.8741
  855SOL    HW1 2564   0.424   2.676   0.038 -3.5928 -0.6547 -1.6385
  855SOL    HW2 2565   0.269   2.680   0.106 -1.3287  1.0417 -2.0523
  856SOL     OW 2566   0.251   2.851   2.509  0.3091 -0.3253 -0.3282
  856SOL    HW1 2567   0.252   2.885   2.606 -2.1261  1.3065  4.2488
  856SOL    HW2 2568   0.347   2.855   2.476  2.6032 -0.9564 -0.4345
  857SOL     OW 2569   0.712   0.085   1.586  0.7116 -0.0315  0.4450
  857SOL    HW1 2570   0.748   0.154   1.519 -0.2447  1.1970 -1.2191
  857SOL    HW2 2571   0.614   0.056   1.553 -0.5100 -0.1163  0.7913
  858SOL     OW 2572   0.438   2.191   1.924 -0.0044  0.2329 -0.4053
  858SOL    HW1 2573   0.373   2.148   1.994 -0.5320 -0.3644 -0.1165
  858SOL    HW2 2574   0.395   2.269   1.874  0.8248  1.7775  1.2345
  859SOL     OW 2575   1.928   2.542   1.705 -0.2991  0.5719  0.4498
  859SOL    HW1 2576   1.883   2.530   1.794  1.6932 -0.0486 -4.5356
  859SOL    HW2 2577   1.999   2.469   1.699  1.2975 -0.8818  1.5944
  860SOL     OW 2578   1.605   0.654   0.542  0.0326  0.2155 -0.2258
  860SOL    HW1 2579   1.507   0.632   0.537  2.6452  0.7821 -0.4320
  860SOL    HW2 2580   1.630   0.681   0.635  2.4217 -1.4549 -2.0477
  861SOL     OW 2581   3.014   0.611   0.689 -0.3083  0.3311 -0.7397
  861SOL    HW1 2582   2.974   0.698   0.672 -2.1870 -1.6585  0.0061
  861SOL    HW2 2583   2.931   0.548   0.695 -1.2898 -1.8752  1.2752
  862SOL     OW 2584   1.888   0.831   1.468  0.0749 -0.2654 -0.0490
  862SOL    HW1 2585   1.792   0.819   1.498 -0.7131 -0.0395  0.0310
  862SOL    HW2 2586   1.912   0.762   1.394 -0.9880  0.5966 -0.9718
  863SOL     OW 2587   0.681   1.275   1.246 -0.4588 -0.0816  0.3118
  863SOL    HW1 2588   0.669   1.185   1.295  0.3456 -0.2315  1.2470
  863SOL    HW2 2589   0.760   1.271   1.183  0.2117 -2.1326  0.0341
  864SOL     OW 2590   2.759   2.751   2.229 -0.0849  0.0876 -0.1026
  864SOL    HW1 2591   2.844   2.694   2.215  1.8501  0.2604  1.4980
  864SOL    HW2 2592   2.701   2.743   2.145 -2.6267  0.9813 -0.2048
  865SOL     OW 2593   1.052   0.354   2.278 -0.0698  0.2938  1.0622
  865SOL    HW1 2594   0.980   0.423   2.255 -0.2092  3.0121 -1.9802
  865SOL    HW2 2595   1.140   0.374   2.234 -0.5107  0.2297 -0.8787
  866SOL     OW 2596   2.428   2.892   0.298  0.9024  0.0223  0.5339
  866SOL    HW1 2597   2.358   2.912   0.373  0.1606  1.6977 -0.2880
  866SOL    HW2 2598   2.508   2.957   0.304 -1.9232  0.0780  2.5132
  867SOL     OW 2599   2.811   2.811   0.449 -0.5152  0.4700 -0.4634
  867SOL    HW1 2600   2.782   2.714   0.432  0.6000 -2.4392 -0.7542
  867SOL    HW2 2601   2.911   2.818   0.484  1.0497 -0.8038  0.2324
  868SOL     OW 2602   1.879   1.288   2.837  0.4732  0.0033  0.3607
  868SOL    HW1 2603   1.928   1.318   2.920 -2.0372  0.9815 -0.8575
  868SOL    HW2 2604   1.807   1.355   2.815 -2.0106  0.3221  0.5102
  869SOL     OW 2605   2.735   2.558   0.456  0.7797  0.1570 -0.0535
  869SOL    HW1 2606   2.779   2.468   0.426  0.1169 -1.3421 -1.2308
  869SOL    HW2 2607   2.640   2.576   0.407 -1.9786 -0.2958 -2.6632
  870SOL     OW 2608   2.650   2.167   0.526 -0.9255  0.2458 -0.1272
  870SOL    HW1 2609   2.597   2.210   0.598 -0.0085 -0.4251  0.1570
  870SOL    HW2 2610   2.713   2.100   0.574  1.8801 -0.9521  2.0004
  871SOL     OW 2611   0.505   1.379   1.067 -0.4707  0.1929 -0.4245
  871SOL    HW1 2612   0.587   1.352   1.121  0.4659 -1.2243  0.7979
  871SOL    HW2 2613   0.424   1.394   1.129 -0.4393 -1.4340 -2.1996
  872SOL     OW 2614   1.352   1.650   2.526 -0.0173 -0.2657  0.6008
  872SOL    HW1 2615   1.252   1.639   2.524 -0.9804 -1.5331 -0.5603
  872SOL    HW2 2616   1.381   1.652   2.428  3.1878  0.6769 -0.4848
  873SOL     OW 2617   0.700   2.588   2.192 -0.2887  0.2501 -0.5684
  873SOL    HW1 2618   0.711   2.630   2.100  1.2928 -3.3791 -1.3747
  873SOL    HW2 2619   0.721   2.486   2.177  0.5473  0.8720 -4.1890
  874SOL     OW 2620   0.716   0.531   1.315 -0.3505 -0.3543  0.8979
  874SOL    HW1 2621   0.619   0.557   1.333 -1.3953 -4.0455 -3.4402
  874SOL    HW2 2622   0.775   0.611   1.338  0.1408 -1.8086 -1.6155
  875SOL     OW 2623   2.855   0.224   1.326 -0.4690  0.0494  0.3408
  875SOL    HW1 2624   2.869   0.327   1.327 -0.1395  0.5848 -0.4282
  875SOL    HW2 2625   2.877   0.183   1.413 -0.6719  0.4031 -0.3271
  876SOL     OW 2626   0.576   1.124   0.256 -0.2314  0.0925  0.1151
  876SOL    HW1 2627   0.481   1.097   0.273  0.8300  1.7417 -0.1278
  876SOL    HW2 2628   0.616   1.042   0.210 -0.5237  0.0864 -0.4911
  877SOL     OW 2629   1.090   0.954   1.609  0.1802  0.1984  0.5705
  877SOL    HW1 2630   1.177   0.923   1.563  4.7354 -0.6027 -1.0164
  877SOL    HW2 2631   1.015   0.957   1.538  0.1157 -0.4222 -0.8041
  878SOL     OW 2632   2.299   2.267   0.526  0.0710 -0.0325 -0.7028
  878SOL    HW1 2633   2.338   2.211   0.451 -1.0974 -1.6628  0.0709
  878SOL    HW2 2634   2.369   2.282   0.600  0.4709  0.4181  2.8454
  879SOL     OW 2635   2.787   1.650   1.570 -0.8460  0.1878 -0.3719
  879SOL    HW1 2636   2.882   1.680   1.558 -2.3493 -0.0664 -0.9919
  879SOL    HW2 2637   2.754   1.617   1.479 -0.5038 -0.6365  0.2047
  880SOL     OW 2638   1.668   2.432   0.683 -0.2830  0.3417  0.1843
  880SOL    HW1 2639   1.625   2.446   0.775 -3.9961 -0.3860 -2.1909
  880SOL    HW2 2640   1.607   2.367   0.632  1.3432  1.4828  0.1862
  881SOL     OW 2641   0.383   2.429   0.615  0.0765  0.2764  0.0073
  881SOL    HW1 2642   0.365   2.445   0.516 -0.9189 -0.1261 -2.5058
  881SOL    HW2 2643   0.452   2.493   0.653 -2.9884  1.3833 -0.0741
  882SOL     OW 2644   1.978   0.583   0.867  0.3718  0.0871  0.2045
  882SOL    HW1 2645   2.072   0.572   0.835 -1.4361  0.9486  0.9936
  882SOL    HW2 2646   1.975   0.631   0.955  0.3092  0.0800 -2.1919
  883SOL     OW 2647   1.599   0.750   1.487 -0.0929 -0.0262 -0.7384
  883SOL    HW1 2648   1.629   0.656   1.453  0.7493 -2.8539 -2.1058
  883SOL    HW2 2649   1.531   0.789   1.419 -2.9800  0.1476 -1.4504
  884SOL     OW 2650   2.559   3.029   0.046 -1.0189  0.0138 -0.3710
  884SOL    HW1 2651   2.475   2.981   0.018  1.1662 -0.2752  1.4625
  884SOL    HW2 2652   2.637   3.000   3.091  1.6468 -1.7147  3.1615
  885SOL     OW 2653   1.173   1.315   2.778 -0.1471 -0.4864  0.9379
  885SOL    HW1 2654   1.190   1.289   2.877 -0.9653 -0.4130 -0.6067
  885SOL    HW2 2655   1.241   1.391   2.754 -2.0878  0.5194  1.3848
  886SOL     OW 2656   1.568   1.816   2.604 -0.3855  0.4043 -0.1075
  886SOL    HW1 2657   1.500   1.761   2.549 -2.2066 -0.2853 -0.1610
  886SOL    HW2 2658   1.527   1.911   2.613 -2.0253  0.8547 -1.1383
  887SOL     OW 2659   1.199   0.397   1.291  0.1367 -0.6084  0.0518
  887SOL    HW1 2660   1.261   0.388   1.212  0.0670  1.0249 -2.6683
  887SOL    HW2 2661   1.143   0.483   1.284 -0.9312  0.9525  1.0159
  888SOL     OW 2662   2.403   0.751   1.572  0.1120  0.1021  0.0918
  888SOL    HW1 2663   2.342   0.811   1.627  0.0441  2.8936  2.0054
  888SOL    HW2 2664   2.344   0.689   1.515  0.6077  0.0607  2.3207
  889SOL     OW 2665   0.324   2.756   0.622  0.4890  0.3412  0.8212
  889SOL    HW1 2666   0.409   2.707   0.658  1.7372 -0.3657 -0.7567
  889SOL    HW2 2667   0.245   2.686   0.602  1.3265  0.5930 -0.1932
  890SOL     OW 2668   1.802   2.095   0.564  0.3672  0.4709  0.5232
  890SOL    HW1 2669   1.885   2.151   0.538 -1.1915 -0.1307  0.0570
  890SOL    HW2 2670   1.732   2.102   0.488 -2.5610  0.2046 -1.3868
  891SOL     OW 2671   0.146   0.830   2.916 -0.4266 -0.0823 -0.0662
  891SOL    HW1 2672   0.125   0.744   2.863 -0.9018 -0.2989 -1.6105
  891SOL    HW2 2673   0.076   0.898   2.900  3.0500 -3.6073  2.4974
  892SOL     OW 2674   2.956   2.521   1.192 -0.2616  0.0617 -0.3980
  892SOL    HW1 2675   3.004   2.467   1.118 -0.2802  3.0440  1.5286
  892SOL    HW2 2676   2.896   2.581   1.138  0.6870 -2.2214 -1.2058
  893SOL     OW 2677   1.348   0.375   1.074 -0.2436 -0.3134 -0.0653
  893SOL    HW1 2678   1.381   0.300   1.012 -1.6196 -1.0040 -1.9340
  893SOL    HW2 2679   1.414   0.453   1.087 -0.3511  2.4872 -2.2980
  894SOL     OW 2680   2.733   0.445   0.741  0.4273  0.1485  0.0755
  894SOL    HW1 2681   2.679   0.429   0.659  0.2283  0.5465  2.1079
  894SOL    HW2 2682   2.678   0.511   0.801 -0.3765  0.7863  0.6582
  895SOL     OW 2683   1.661   1.056   2.315 -0.3164  0.1517 -0.0556
  895SOL    HW1 2684   1.620   1.143   2.327 -1.0978 -0.4285 -0.9688
  895SOL    HW2 2685   1.726   1.053   2.235  1.3822 -2.1762 -1.3363
  896SOL     OW 2686   1.485   0.364   1.724  0.7903  0.0608  0.5509
  896SOL    HW1 2687   1.537   0.309   1.792 -0.3131 -1.3611  1.6166
  896SOL    HW2 2688   1.439   0.307   1.654  1.4155  3.6548  0.3949
  897SOL     OW 2689   0.595   1.533   1.689 -0.0375  0.6871 -0.1511
  897SOL    HW1 2690   0.591   1.535   1.587 -0.7582 -1.2408  0.8748
  897SOL    HW2 2691   0.662   1.601   1.728 -0.9269  2.7508  1.2432
  898SOL     OW 2692   2.086   2.670   2.185  0.4495  0.1487  0.0602
  898SOL    HW1 2693   2.164   2.609   2.210 -1.7619  0.1711  0.6868
  898SOL    HW2 2694   2.006   2.637   2.235 -1.6282 -0.3145 -1.9836
  899SOL     OW 2695   1.333   1.614   1.033 -0.3495 -0.3865 -0.4936
  899SOL    HW1 2696   1.299   1.521   1.029 -0.5322  1.8823 -0.4088
  899SOL    HW2 2697   1.262   1.691   1.030 -0.7449  1.9683  0.9539
  900SOL     OW 2698   1.429   2.064   2.689 -0.4729  0.9282 -0.4829
  900SOL    HW1 2699   1.346   2.011   2.718 -1.4319  0.6761  3.3457
  900SOL    HW2 2700   1.399   2.139   2.630 -1.8347  4.3080  1.9270
  901SOL     OW 2701   1.089   1.659   2.492  0.1820 -0.0990 -0.1752
  901SOL    HW1 2702   1.086   1.758   2.503 -0.3084 -0.4738 -0.8771
  901SOL    HW2 2703   1.002   1.622   2.528  4.3403 -0.3266 -0.5734
  902SOL     OW 2704   2.467   1.816   0.411  0.3868  0.1142  0.5097
  902SOL    HW1 2705   2.502   1.830   0.319 -0.5150 -1.4268  2.0822
  902SOL    HW2 2706   2.485   1.718   0.445  0.0702 -1.4711  1.2769
  903SOL     OW 2707   2.201   1.850   0.445 -0.0297  0.9418 -0.6997
  903SOL    HW1 2708   2.138   1.856   0.364  0.4660  3.3404  1.1207
  903SOL    HW2 2709   2.299   1.844   0.421 -2.4084  2.0301 -3.2057
  904SOL     OW 2710   1.108   0.764   2.296  0.1435 -0.8515  0.3206
  904SOL    HW1 2711   1.140   0.855   2.263  3.9297  1.8999 -0.2386
  904SOL    HW2 2712   1.013   0.766   2.329 -2.1532  0.2644  0.1047
  905SOL     OW 2713   3.009   0.339   0.820 -0.0717 -0.3442 -0.1480
  905SOL    HW1 2714   2.923   0.384   0.844  1.0733 -0.4454 -3.9196
  905SOL    HW2 2715   3.057   0.337   0.910 -0.8080 -2.9956  0.6935
  906SOL     OW 2716   2.768   1.963   0.656 -0.2875 -0.5448 -0.2874
  906SOL    HW1 2717   2.825   1.987   0.736  1.1199  4.2062  0.2785
  906SOL    HW2 2718   2.705   1.889   0.678  1.1222  1.7160 -0.8024
  907SOL     OW 2719   1.236   0.300   0.444 -0.4296  0.3022  0.1093
  907SOL    HW1 2720   1.310   0.237   0.481 -1.4104 -2.4209  1.5925
  907SOL    HW2 2721   1.262   0.337   0.355 -1.0446 -1.8151 -0.0509
  908SOL     OW 2722   1.768   2.941   1.428 -0.0480 -0.4091  0.0080
  908SOL    HW1 2723   1.823   2.864   1.387  1.8025  0.6659 -0.6436
  908SOL    HW2 2724   1.674   2.911   1.453  0.7758 -0.0768 -1.1007
  909SOL     OW 2725   2.710   0.747   1.409  0.0881  0.6967  0.5853
  909SOL    HW1 2726   2.688   0.797   1.494  0.1336  1.4412 -0.6690
  909SOL    HW2 2727   2.647   0.784   1.338 -0.7475  0.2775  3.2180
  910SOL     OW 2728   1.132   2.910   2.576  0.2573  0.3578  0.1506
  910SOL    HW1 2729   1.131   2.807   2.598  0.5694 -5.0949 -0.9958
  910SOL    HW2 2730   1.121   2.928   2.475 -3.0103  0.7692 -0.7433
  911SOL     OW 2731   2.189   1.158   1.842  0.0396 -0.4087 -0.0526
  911SOL    HW1 2732   2.182   1.150   1.942 -0.7614 -2.3263 -0.2264
  911SOL    HW2 2733   2.234   1.247   1.804  0.8378  1.1599 -0.6451
  912SOL     OW 2734   2.566   2.225   1.537  0.1776  0.2402 -0.0544
  912SOL    HW1 2735   2.648   2.163   1.523  0.2476  0.5354  0.3797
  912SOL    HW2 2736   2.517   2.242   1.446 -0.7555  1.1779 -1.7130
  913SOL     OW 2737   2.652   2.483   1.300 -0.1392  0.0763 -0.4119
  913SOL    HW1 2738   2.684   2.563   1.358 -0.1123  3.2896 -0.1476
  913SOL    HW2 2739   2.728   2.446   1.240  0.5844 -0.2057 -0.8804
  914SOL     OW 2740   2.215   1.905   1.288 -0.3898 -0.0136  0.2137
  914SOL    HW1 2741   2.167   1.814   1.271 -0.9799 -3.6188  0.0622
  914SOL    HW2 2742   2.219   1.923   1.388 -0.4465 -1.7739 -3.1365
  915SOL     OW 2743   1.162   1.994   1.293 -0.8436  0.4135  0.4253
  915SOL    HW1 2744   1.056   2.001   1.294  1.6519 -0.5998  2.4083
  915SOL    HW2 2745   1.200   2.009   1.387  2.8375  0.9128 -2.8719
  916SOL     OW 2746   3.012   2.840   1.247  0.1752  0.6895  0.1542
  916SOL    HW1 2747   2.982   2.935   1.228 -0.3484 -0.4039 -0.7524
  916SOL    HW2 2748   2.945   2.774   1.209 -3.0482 -2.1649 -1.7136
  917SOL     OW 2749   2.551   1.553   2.637 -0.1395 -0.0227 -0.0145
  917SOL    HW1 2750   2.594   1.464   2.610  0.6290  0.9705  0.5951
  917SOL    HW2 2751   2.527   1.558   2.732 -0.8153 -2.0351  0.8871
  918SOL     OW 2752   1.682   2.127   2.389  0.0335 -0.1047 -0.2844
  918SOL    HW1 2753   1.646   2.171   2.305  1.6444 -0.7080 -0.2970
  918SOL    HW2 2754   1.725   2.042   2.356  1.4742 -2.0857 -2.5375
  919SOL     OW 2755   1.633   2.097   1.826 -0.3792 -0.4690  0.1389
  919SOL    HW1 2756   1.601   2.076   1.919 -0.8250 -3.0389  0.3374
  919SOL    HW2 2757   1.642   2.014   1.771  0.6987  1.7682  1.0762
  920SOL     OW 2758   0.255   0.132   2.883 -0.0248  0.4827 -0.1920
  920SOL    HW1 2759   0.312   0.205   2.845  1.9549 -1.2477  0.6317
  920SOL    HW2 2760   0.299   0.088   2.964 -2.0146  1.9159  0.8137
  921SOL     OW 2761   2.566   0.200   2.346 -0.4145  0.2141 -0.5588
  921SOL    HW1 2762   2.664   0.202   2.312  3.5810 -0.2024 -1.0223
  921SOL    HW2 2763   2.526   0.296   2.353 -0.3195  0.4574 -1.9219
  922SOL     OW 2764   2.466   1.725   1.564  0.4600 -0.1039  0.2315
  922SOL    HW1 2765   2.523   1.753   1.643 -2.3117  3.2716  1.5473
  922SOL    HW2 2766   2.411   1.802   1.528 -2.4507 -1.0814 -0.3700
  923SOL     OW 2767   0.676   1.806   0.576 -0.0095 -0.1383  0.1355
  923SOL    HW1 2768   0.699   1.741   0.503 -1.2072  3.2493 -2.7044
  923SOL    HW2 2769   0.755   1.867   0.592 -1.8493 -1.2492 -1.2406
  924SOL     OW 2770   1.440   0.509   2.947  0.1194 -0.0762 -0.3536
  924SOL    HW1 2771   1.449   0.573   3.024  0.1529  2.4356 -1.5192
  924SOL    HW2 2772   1.526   0.502   2.899 -1.0091  0.0851  3.7956
  925SOL     OW 2773   2.610   1.450   0.775 -0.2006 -0.1860  0.2163
  925SOL    HW1 2774   2.521   1.483   0.817 -1.2540 -2.0487  0.4914
  925SOL    HW2 2775   2.625   1.352   0.785 -3.5685  1.3315 -0.9964
  926SOL     OW 2776   2.821   0.895   0.868  1.1240  0.2539  0.5330
  926SOL    HW1 2777   2.725   0.937   0.882 -5.3858  0.6777 -1.5000
  926SOL    HW2 2778   2.893   0.941   0.929 -0.5421  2.8558 -2.4169
  927SOL     OW 2779   0.647   1.336   0.436  0.0810 -0.3276 -0.0814
  927SOL    HW1 2780   0.613   1.282   0.355 -0.2001 -3.6978 -0.2754
  927SOL    HW2 2781   0.681   1.427   0.412 -2.7267  0.8168  2.8560
  928SOL     OW 2782   0.012   0.112   2.626 -0.1031  0.2971 -0.7908
  928SOL    HW1 2783   0.032   0.022   2.676 -1.3514 -1.4899 -0.8307
  928SOL    HW2 2784   0.085   0.133   2.561 -2.8114  1.7077  0.7660
  929SOL     OW 2785   2.866   3.068   1.215 -0.3369 -0.2204 -0.1602
  929SOL    HW1 2786   2.804   3.065   1.136 -0.3081  1.9721  0.5809
  929SOL    HW2 2787   2.861   0.051   1.265  1.2470  0.0814  0.2832
  930SOL     OW 2788   2.008   2.151   1.661  0.0770 -0.0982  0.4640
  930SOL    HW1 2789   1.930   2.183   1.716  1.2732  1.3127  0.7389
  930SOL    HW2 2790   2.011   2.051   1.657 -0.6793  1.8887 -1.8437
  931SOL     OW 2791   1.840   1.121   0.873 -0.4078  0.1263 -0.0056
  931SOL    HW1 2792   1.911   1.192   0.892 -0.7784  0.5213  1.1579
  931SOL    HW2 2793   1.879   1.047   0.809 -1.6105 -0.9321  0.9772
  932SOL     OW 2794   2.774   1.006   1.178 -0.1357  0.6814 -0.1351
  932SOL    HW1 2795   2.733   0.915   1.148 -1.6063 -5.1624  2.1704
  932SOL    HW2 2796   2.854   1.042   1.124  2.1943 -1.0033 -0.2218
  933SOL     OW 2797   2.625   1.826   1.787  0.4455  0.5014  0.0869
  933SOL    HW1 2798   2.619   1.922   1.754  0.5745  0.0906 -1.9185
  933SOL    HW2 2799   2.714   1.782   1.772  2.0476 -2.6281 -1.9408
  934SOL     OW 2800   1.871   0.126   1.087 -0.2447  0.3117  0.1863
  934SOL    HW1 2801   1.774   0.105   1.105  2.1286  0.8675 -2.3344
  934SOL    HW2 2802   1.867   0.198   1.016  0.5940 -0.4723  0.9490
  935SOL     OW 2803   0.063   1.340   1.134  0.3092  0.1736 -0.6787
  935SOL    HW1 2804   0.010   1.383   1.054 -1.9195  0.0863 -0.0322
  935SOL    HW2 2805   0.046   1.237   1.140 -0.4510 -2.3594 -0.0364
  936SOL     OW 2806   2.990   1.028   1.020 -0.5539 -0.6305 -1.0773
  936SOL    HW1 2807   2.993   1.086   0.936 -0.1834  1.1696 -0.8140
  936SOL    HW2 2808   3.088   1.027   1.060  1.7314  0.1066  1.5823
  937SOL     OW 2809   1.505   2.720   0.856  1.1604  0.4024  0.2413
  937SOL    HW1 2810   1.422   2.714   0.796  0.5468  0.4197 -0.5845
  937SOL    HW2 2811   1.555   2.632   0.869  2.7583 -0.7634  1.0356
  938SOL     OW 2812   2.946   2.555   0.653 -0.3790  0.2038  0.2820
  938SOL    HW1 2813   2.880   2.561   0.575 -2.5092 -0.9153 -0.4658
  938SOL    HW2 2814   2.945   2.632   0.721 -0.6637  2.0868  0.8311
  939SOL     OW 2815   0.678   1.920   3.096 -0.0608  0.0051  0.5925
  939SOL    HW1 2816   0.777   1.893   0.019  1.4765  0.3002 -0.6956
  939SOL    HW2 2817   0.658   2.018   0.027 -2.5461  3.1516  0.4074
  940SOL     OW 2818   2.739   2.925   2.722 -0.0688 -0.2393  0.5931
  940SOL    HW1 2819   2.802   2.942   2.642 -0.7543 -1.2485 -0.5402
  940SOL    HW2 2820   2.686   2.842   2.703 -0.0842  0.1642 -1.1753
  941SOL     OW 2821   1.239   2.772   0.001  0.4293 -0.6691 -0.2928
  941SOL    HW1 2822   1.267   2.752   0.102  1.8035 -2.9553  3.1608
  941SOL    HW2 2823   1.311   2.831   3.057  0.7680  0.5878 -0.8981
  942SOL     OW 2824   1.671   1.866   1.667 -0.0461 -1.3053 -0.1155
  942SOL    HW1 2825   1.648   1.767   1.683  2.6255 -1.1709 -0.8513
  942SOL    HW2 2826   1.645   1.897   1.569 -1.3823  0.3445 -2.5015
  943SOL     OW 2827   2.201   1.425   1.312  0.1178  0.1145 -0.2043
  943SOL    HW1 2828   2.297   1.450   1.332  2.5348 -0.1717  0.3501
  943SOL    HW2 2829   2.154   1.395   1.399 -1.1780 -0.4881 -0.0765
  944SOL     OW 2830   1.968   0.833   1.725  0.5412 -1.1398 -0.0784
  944SOL    HW1 2831   1.930   0.854   1.631  1.7675 -2.0515 -1.7972
  944SOL    HW2 2832   1.943   0.739   1.761  0.4441 -1.7132  0.5998
  945SOL     OW 2833   0.105   3.101   1.272  0.3157 -0.0131  0.3375
  945SOL    HW1 2834   0.026   3.083   1.334 -0.4455 -0.0034  0.7887
  945SOL    HW2 2835   0.073   3.085   1.172 -1.5730 -1.8297 -2.1385
  946SOL     OW 2836   0.447   0.718   1.820  0.0876 -0.0647 -0.0394
  946SOL    HW1 2837   0.388   0.728   1.737  0.5479 -4.0339  0.2012
  946SOL    HW2 2838   0.492   0.805   1.851  1.6599  2.5162 -0.5000
  947SOL     OW 2839   0.554   2.622   0.682 -0.0674 -0.4662  0.0824
  947SOL    HW1 2840   0.580   2.656   0.589  0.9715 -1.6277  2.8942
  947SOL    HW2 2841   0.634   2.584   0.731 -2.0294 -0.7333 -2.5059
  948SOL     OW 2842   3.011   1.318   1.915  0.0564 -0.1559 -0.0131
  948SOL    HW1 2843   3.018   1.366   1.829  1.0379  2.1588 -0.2311
  948SOL    HW2 2844   3.058   1.226   1.912  2.3815 -1.0881 -0.4092
  949SOL     OW 2845   0.273   0.795   2.059 -0.1685 -0.0892 -0.7165
  949SOL    HW1 2846   0.374   0.790   2.080 -2.1850  0.4472  3.9022
  949SOL    HW2 2847   0.220   0.718   2.104 -3.1857  0.6402 -1.6260
  950SOL     OW 2848   0.854   0.925   0.911 -0.1774 -0.2710  0.0678
  950SOL    HW1 2849   0.946   0.947   0.888 -3.5468  0.5887  1.1651
  950SOL    HW2 2850   0.810   1.013   0.891  0.8052  1.4605 -0.0789
  951SOL     OW 2851   1.103   1.905   1.986 -0.0716 -0.6056  0.3829
  951SOL    HW1 2852   1.182   1.920   2.052  3.2133  0.1752  2.3613
  951SOL    HW2 2853   1.048   1.823   2.002  0.7896 -0.2525 -2.1582
  952SOL     OW 2854   0.975   1.779   2.808 -0.1206 -0.0285 -0.2786
  952SOL    HW1 2855   1.027   1.717   2.869  0.7234 -0.4962  0.2231
  952SOL    HW2 2856   0.924   1.730   2.735 -0.1926  2.1830  1.8742
  953SOL     OW 2857   1.543   3.031   2.114  0.0430 -0.1784  0.2931
  953SOL    HW1 2858   1.610   3.024   2.191 -2.4156  1.0167 -2.8820
  953SOL    HW2 2859   1.586   2.998   2.031  1.7639  3.0623  1.5114
  954SOL     OW 2860   2.048   1.181   0.282  0.7893  1.3393 -0.0040
  954SOL    HW1 2861   2.112   1.260   0.272 -1.0002 -1.6187  0.0505
  954SOL    HW2 2862   1.978   1.185   0.207  1.3072 -1.1357 -0.7191
  955SOL     OW 2863   0.512   2.237   2.188 -0.2313  0.4151  0.5584
  955SOL    HW1 2864   0.503   2.137   2.207 -1.2570  0.3299  0.2998
  955SOL    HW2 2865   0.480   2.260   2.094  0.0103  2.6112 -1.0455
  956SOL     OW 2866   1.438   1.085   1.442 -0.0539  0.3067 -0.0494
  956SOL    HW1 2867   1.429   0.984   1.405 -0.0168 -3.1944  0.1319
  956SOL    HW2 2868   1.522   1.130   1.407 -1.0975 -0.5711 -0.9980
  957SOL     OW 2869   2.196   1.438   2.506 -0.1540 -0.1956  0.0663
  957SOL    HW1 2870   2.206   1.521   2.566  2.2566  0.6149 -1.6618
  957SOL    HW2 2871   2.102   1.395   2.525 -0.7524  0.3612  1.2166
  958SOL     OW 2872   1.604   2.485   0.955 -0.7326  0.3493  0.0326
  958SOL    HW1 2873   1.556   2.537   1.027 -1.1499 -1.8923 -2.0595
  958SOL    HW2 2874   1.641   2.400   0.999 -1.3469  2.9960  0.3694
  959SOL     OW 2875   1.956   1.742   2.687  0.0950  0.1801  0.1931
  959SOL    HW1 2876   1.907   1.735   2.596  1.2930  0.2452 -1.6438
  959SOL    HW2 2877   1.898   1.775   2.760  0.8533 -2.7407 -1.0216
  960SOL     OW 2878   0.440   0.415   3.084 -0.0325 -0.0027 -0.1262
  960SOL    HW1 2879   0.424   0.497   0.043  0.5859 -0.2371 -1.6094
  960SOL    HW2 2880   0.409   0.435   2.989  0.9764  1.9547 -3.0908
  961SOL     OW 2881   0.477   0.548   2.191 -0.3818  0.6009  0.2222
  961SOL    HW1 2882   0.396   0.500   2.149  0.4843 -2.4962  0.7871
  961SOL    HW2 2883   0.544   0.479   2.216 -1.3136 -1.2321  0.9061
  962SOL     OW 2884   1.186   1.483   0.108 -0.0401 -0.3260  0.4066
  962SOL    HW1 2885   1.252   1.414   0.078 -1.6151  0.0080  2.7090
  962SOL    HW2 2886   1.128   1.439   0.178 -1.1863 -0.0673  2.6001
  963SOL     OW 2887   2.085   1.991   0.046 -0.2996  0.2014 -0.4955
  963SOL    HW1 2888   2.024   2.022   3.073 -0.2747 -3.6080 -0.5299
  963SOL    HW2 2889   2.171   2.045   0.056  0.4888 -1.1080  0.1249
  964SOL     OW 2890   1.275   2.964   0.845 -0.1850 -0.2109  0.1948
  964SOL    HW1 2891   1.268   3.068   0.837 -1.3430  3.7310  0.6565
  964SOL    HW2 2892   1.347   2.934   0.903 -2.3691 -3.4377 -1.9775
  965SOL     OW 2893   0.768   2.701   0.994  0.1696  0.8171  0.2039
  965SOL    HW1 2894   0.791   2.657   0.902  1.4311  0.4077 -2.1621
  965SOL    HW2 2895   0.687   2.764   0.991  2.0487 -0.5382  0.3502
  966SOL     OW 2896   3.097   1.306   0.016  0.1443 -0.3895 -0.1419
  966SOL    HW1 2897   3.103   1.301   3.024 -0.8501 -0.7023  2.0519
  966SOL    HW2 2898   3.008   1.349   0.045  1.4006 -0.8017 -0.4413
  967SOL     OW 2899   1.545   2.854   1.621 -0.0867 -0.4457 -0.1545
  967SOL    HW1 2900   1.588   2.760   1.613 -1.4807 -1.3978 -0.6766
  967SOL    HW2 2901   1.448   2.850   1.604  0.6180 -0.3455  0.4194
  968SOL     OW 2902   1.950   0.883   0.722 -0.0819  0.2469 -0.2835
  968SOL    HW1 2903   1.868   0.927   0.680 -0.2698 -2.0276 -1.3641
  968SOL    HW2 2904   1.982   0.806   0.666 -2.0383 -2.1979 -2.2282
  969SOL     OW 2905   0.485   1.976   2.231  0.3122 -0.1850 -0.2102
  969SOL    HW1 2906   0.391   1.990   2.204 -0.9631  1.8463 -0.5534
  969SOL    HW2 2907   0.489   1.983   2.333  2.0652  1.3753  0.3516
  970SOL     OW 2908   2.714   1.583   1.328  0.1435 -0.0357 -0.0881
  970SOL    HW1 2909   2.769   1.514   1.278 -1.0877  0.8979  0.6449
  970SOL    HW2 2910   2.622   1.545   1.347 -1.7869 -2.0157  0.2218
  971SOL     OW 2911   1.006   0.517   1.545  0.8054  0.1771 -0.8704
  971SOL    HW1 2912   0.997   0.454   1.621  1.0126  1.7986  0.1444
  971SOL    HW2 2913   0.921   0.557   1.505  2.0246  0.8053  0.5468
  972SOL     OW 2914   0.872   0.188   2.627  0.4918  0.1546  0.6162
  972SOL    HW1 2915   0.931   0.215   2.705 -1.3203  1.3201  0.9078
  972SOL    HW2 2916   0.908   0.099   2.586  0.7204 -1.7811  1.3400
  973SOL     OW 2917   3.032   1.397   0.898  0.0667 -0.5962  0.3572
  973SOL    HW1 2918   2.965   1.324   0.868 -0.6075  2.8957  0.6654
  973SOL    HW2 2919   3.090   1.429   0.814  1.5888 -0.3862 -1.7293
  974SOL     OW 2920   1.911   1.046   1.880 -0.1196 -0.2226 -0.0021
  974SOL    HW1 2921   1.948   1.131   1.841 -2.5456 -1.3605  2.6837
  974SOL    HW2 2922   1.937   0.963   1.832  0.5525  0.2874 -0.4393
  975SOL     OW 2923   2.678   3.026   0.319 -0.5546 -0.3480 -0.3724
  975SOL    HW1 2924   2.745   2.967   0.367  0.4804 -2.9235  0.5224
  975SOL    HW2 2925   2.725   3.081   0.245  0.5762  0.0981 -4.2605
  976SOL     OW 2926   0.190   1.561   1.717  0.2193  0.2990  0.2514
  976SOL    HW1 2927   0.243   1.574   1.627 -0.7272 -0.7956 -1.3562
  976SOL    HW2 2928   0.132   1.645   1.732  0.8182  0.7632 -0.7635
  977SOL     OW 2929   0.708   2.795   0.134  0.0944  0.1331  0.4286
  977SOL    HW1 2930   0.664   2.888   0.151 -1.2226  0.3895  1.5314
  977SOL    HW2 2931   0.719   2.779   0.033  1.4141 -0.8237  1.4127
  978SOL     OW 2932   0.524   1.660   0.173 -0.4891 -0.1654  0.4041
  978SOL    HW1 2933   0.512   1.575   0.115 -0.5876 -0.7451 -0.5535
  978SOL    HW2 2934   0.544   1.741   0.118 -0.5862  0.5480  5.5014
  979SOL     OW 2935   1.278   2.173   1.117 -0.3895  0.1714  0.4608
  979SOL    HW1 2936   1.250   2.084   1.154  1.5534 -2.4056  0.5836
  979SOL    HW2 2937   1.353   2.216   1.172 -0.2699 -2.7628 -1.9227
  980SOL     OW 2938   0.495   1.158   2.093  0.0806 -0.4836 -0.2638
  980SOL    HW1 2939   0.438   1.093   2.147  0.7339  0.1892 -1.7343
  980SOL    HW2 2940   0.434   1.238   2.072 -0.4087  2.5901  0.0755
  981SOL     OW 2941   3.008   1.070   0.203 -0.7254 -0.1223  0.2019
  981SOL    HW1 2942   3.093   1.007   0.204  2.0997 -0.3999  0.8007
  981SOL    HW2 2943   3.040   1.160   0.170  1.3951  0.5856  2.6286
  982SOL     OW 2944   2.262   2.890   2.895  0.0597 -0.5273 -0.1206
  982SOL    HW1 2945   2.277   2.876   2.995  0.3146  0.5589 -1.4522
  982SOL    HW2 2946   2.167   2.865   2.872  0.2486 -1.3584  0.2869
  983SOL     OW 2947   2.223   0.569   1.184  0.1382  0.5530 -0.6433
  983SOL    HW1 2948   2.275   0.540   1.269 -0.6152  1.5649  2.5743
  983SOL    HW2 2949   2.226   0.497   1.108 -1.1594 -4.6730 -0.6065
  984SOL     OW 2950   0.894   3.087   2.443  0.3371 -0.0892 -0.1500
  984SOL    HW1 2951   0.877   0.021   2.352  1.3409 -1.5645 -2.6952
  984SOL    HW2 2952   0.989   3.052   2.436 -1.5302  0.7416  0.9732
  985SOL     OW 2953   1.575   2.299   2.180  0.2097  0.5237  0.3325
  985SOL    HW1 2954   1.559   2.204   2.141 -0.9961  0.0099 -0.4174
  985SOL    HW2 2955   1.670   2.330   2.163  0.2465  1.5203  2.4809
  986SOL     OW 2956   1.713   3.089   2.312 -0.1369  0.0178 -0.8497
  986SOL    HW1 2957   1.659   3.034   2.382 -2.5856 -2.3271 -2.0421
  986SOL    HW2 2958   1.812   3.057   2.315  3.0491 -1.6626  0.9316
  987SOL     OW 2959   2.255   0.307   2.192 -0.4705  0.7054  0.5987
  987SOL    HW1 2960   2.246   0.307   2.091  0.6946 -1.3153  2.4953
  987SOL    HW2 2961   2.334   0.360   2.226 -1.9374 -0.4837 -1.3508
  988SOL     OW 2962   2.473   0.445   2.292  0.1927  0.3085  0.5575
  988SOL    HW1 2963   2.484   0.492   2.381  0.5573 -2.3159 -1.5766
  988SOL    HW2 2964   2.443   0.518   2.224 -1.9898  2.7470 -2.6299
  989SOL     OW 2965   2.467   2.441   2.801  0.0214 -0.2863 -0.3169
  989SOL    HW1 2966   2.470   2.527   2.746  1.7068  0.0162 -1.6267
  989SOL    HW2 2967   2.523   2.362   2.768  1.7881  2.7686 -0.7529
  990SOL     OW 2968   0.238   0.835   0.063  0.0443 -0.2550  0.3874
  990SOL    HW1 2969   0.141   0.822   0.100  0.5159  1.1490  0.8634
  990SOL    HW2 2970   0.236   0.834   3.066  1.4007 -0.3841  1.3893
  991SOL     OW 2971   0.478   0.829   2.683  0.0690  0.1775 -0.6119
  991SOL    HW1 2972   0.408   0.787   2.621 -1.9888  0.3720 -1.2424
  991SOL    HW2 2973   0.567   0.784   2.691 -4.9108  0.0699  0.0483
  992SOL     OW 2974   0.070   1.726   2.040 -0.3333 -0.0725  0.2556
  992SOL    HW1 2975   0.144   1.778   1.995  1.1800  1.3337 -2.5499
  992SOL    HW2 2976   3.081   1.761   2.032  2.3711  1.8898 -0.2766
  993SOL     OW 2977   0.782   0.175   0.837 -0.3300 -0.1795 -0.0247
  993SOL    HW1 2978   0.782   0.201   0.739 -1.0503 -2.7986 -1.2984
  993SOL    HW2 2979   0.691   0.183   0.883  2.1587 -1.7465  0.1303
  994SOL     OW 2980   0.371   2.202   1.603  0.1549  0.3536 -0.3666
  994SOL    HW1 2981   0.302   2.134   1.563 -1.3358 -3.1941 -0.3227
  994SOL    HW2 2982   0.463   2.161   1.607 -1.0099  1.5891 -0.6630
  995SOL     OW 2983   2.463   1.706   3.004  0.2862 -0.1751  0.3804
  995SOL    HW1 2984   2.512   1.765   2.940 -0.4861  0.5782 -0.2782
  995SOL    HW2 2985   2.373   1.743   3.025  1.2850 -2.6291  0.1910
  996SOL     OW 2986   2.226   1.607   2.731  0.3216  0.0047  0.5590
  996SOL    HW1 2987   2.130   1.646   2.712  1.0423 -0.8621  0.8016
  996SOL    HW2 2988   2.282   1.675   2.780 -1.9452  2.6893  0.0999
  997SOL     OW 2989   1.626   1.133   1.799 -0.3116 -0.1921 -0.4761
  997SOL    HW1 2990   1.699   1.074   1.833 -2.6821  2.4090 -2.1437
  997SOL    HW2 2991   1.546   1.076   1.757 -1.1660 -1.5490 -0.3561
  998SOL     OW 2992   2.450   2.134   0.948  0.0567  0.1831 -0.1916
  998SOL    HW1 2993   2.463   2.099   1.043 -0.7354  0.7452  0.7345
  998SOL    HW2 2994   2.413   2.050   0.901  0.5213  0.4088  3.0508
  999SOL     OW 2995   2.488   2.635   0.331  0.6145 -0.0358  0.0137
  999SOL    HW1 2996   2.475   2.736   0.341  0.8122  0.5618  0.0114
  999SOL    HW2 2997   2.512   2.620   0.234  0.4791  3.7692  1.0255
 1000SOL     OW 2998   0.704   2.960   2.600  0.2644  0.2785 -0.7488
 1000SOL    HW1 2999   0.677   3.022   2.679  3.6802  1.3149  3.5508
 1000SOL    HW2 3000   0.765   3.010   2.535 -1.6036 -2.2762  0.7239
   3.10610   3.10610   3.10610
