1000 SPC/Fw water molecules t= 222.00000 step= 222000
 3000
    1SOL     OW    1   3.048   2.920   0.902  0.2756  0.2360  0.0857
    1SOL    HW1    2   0.040   2.876   0.946  1.2331  1.5328  0.0846
    1SOL    HW2    3   3.040   3.011   0.945  0.6455 -3.2802 -1.2163
    2SOL     OW    4   1.923   1.741   1.876 -0.2535  0.5309 -0.4428
    2SOL    HW1    5   1.889   1.831   1.903  2.1366 -1.9669 -1.6728
    2SOL    HW2    6   1.937   1.691   1.966 -3.2638 -0.2611  0.5270
    3SOL     OW    7   1.649   2.203   2.366  0.3905  0.0705  0.0022
    3SOL    HW1    8   1.641   2.212   2.466  0.4699 -2.2237 -0.2682
    3SOL    HW2    9   1.690   2.108   2.353  1.3539 -1.1113 -1.9959
    4SOL     OW   10   2.095   2.012   2.215  0.2255  0.3209  0.0752
    4SOL    HW1   11   2.035   2.016   2.294  1.2922 -2.0950 -0.5649
    4SOL    HW2   12   2.194   2.024   2.233 -2.3178 -2.8329 -2.5966
    5SOL     OW   13   1.501   0.970   1.693  0.4985 -0.1720  0.4730
    5SOL    HW1   14   1.492   0.965   1.593 -0.1042  0.1394  2.0259
    5SOL    HW2   15   1.427   0.914   1.736 -0.4449 -2.6054  0.0167
    6SOL     OW   16   2.890   0.322   0.065  0.1840 -0.2490  0.4205
    6SOL    HW1   17   2.912   0.231   0.108  0.2761 -1.4681  0.3393
    6SOL    HW2   18   2.837   0.319   3.065 -0.7367 -2.1670  0.6364
    7SOL     OW   19   0.295   1.792   1.370 -0.0205  0.0930  0.8665
    7SOL    HW1   20   0.331   1.698   1.355  2.1059 -0.5349 -3.6667
    7SOL    HW2   21   0.362   1.869   1.367 -0.1979  0.0957  2.6883
    8SOL     OW   22   0.961   0.483   0.922  0.3072 -0.1983 -0.3298
    8SOL    HW1   23   1.057   0.475   0.964 -1.6418 -1.3153  0.2982
    8SOL    HW2   24   0.897   0.504   0.997  0.4135  2.1091 -2.1118
    9SOL     OW   25   1.386   0.482   2.529  0.5080 -0.0044  0.4225
    9SOL    HW1   26   1.406   0.565   2.470 -1.2377 -1.4291  0.6571
    9SOL    HW2   27   1.455   0.410   2.506  0.7416 -1.1091  1.2888
   10SOL     OW   28   0.675   2.454   3.072  0.3757  0.0357 -0.5222
   10SOL    HW1   29   0.761   2.406   3.042  1.3625 -1.4950  0.0006
   10SOL    HW2   30   0.685   2.554   0.008  1.5487  2.9932 -0.0614
   11SOL     OW   31   0.777   1.183   3.020 -0.2782 -0.9435  0.2902
   11SOL    HW1   32   0.848   1.192   2.944 -0.7385 -2.3142  1.6331
   11SOL    HW2   33   0.683   1.169   2.993  6.5424  2.8292  0.3581
   12SOL     OW   34   0.111   0.355   1.637 -0.1841 -0.1594 -1.1545
   12SOL    HW1   35   0.192   0.405   1.604 -5.0094 -1.5076  0.0595
   12SOL    HW2   36   0.146   0.282   1.694  1.0590  1.8924 -1.5412
   13SOL     OW   37   1.218   0.029   0.332 -0.1504  0.0371  1.2032
   13SOL    HW1   38   1.264   0.000   0.247  0.4285 -0.5246  0.7198
   13SOL    HW2   39   1.266   0.111   0.373  1.0984 -2.3716  4.0041
   14SOL     OW   40   1.154   2.600   1.165 -0.4444 -0.1064  0.3206
   14SOL    HW1   41   1.173   2.531   1.093 -0.7311  0.0257  0.8564
   14SOL    HW2   42   1.208   2.586   1.248  1.0322  1.0418 -0.6406
   15SOL     OW   43   2.701   1.187   1.878  0.1106 -0.6000 -0.2209
   15SOL    HW1   44   2.701   1.172   1.982  0.8701 -0.7665  5.1829
   15SOL    HW2   45   2.777   1.138   1.834  0.6392 -0.0485 -1.8898
   16SOL     OW   46   1.840   3.062   3.077  0.4121  0.2895 -0.5539
   16SOL    HW1   47   1.938   3.080   3.069 -0.7164  2.4095  1.1899
   16SOL    HW2   48   1.815   3.038   0.086 -1.1942  1.1558 -1.3120
   17SOL     OW   49   0.751   0.056   1.371  0.3598  0.0384  0.0503
   17SOL    HW1   50   0.653   0.065   1.410 -0.3222  0.4186  2.3052
   17SOL    HW2   51   0.755   3.049   1.331  0.4127 -0.3074  2.0646
   18SOL     OW   52   1.185   0.600   0.099 -0.8726 -0.0808 -0.8624
   18SOL    HW1   53   1.227   0.525   0.154 -0.4450  0.4741 -0.0525
   18SOL    HW2   54   1.208   0.689   0.146  0.4614  1.2737  1.9827
   19SOL     OW   55   2.180   1.880   0.129 -0.4651 -0.5271 -0.4132
   19SOL    HW1   56   2.229   1.972   0.124 -0.8265  0.1194  0.2514
   19SOL    HW2   57   2.154   1.854   0.224  1.9432 -1.3199  0.5906
   20SOL     OW   58   2.068   1.685   1.653  0.0433  0.1302  0.2423
   20SOL    HW1   59   2.013   1.693   1.566 -0.4890 -2.4049  2.0343
   20SOL    HW2   60   2.011   1.715   1.732 -1.5904 -2.2512  3.5498
   21SOL     OW   61   0.934   1.217   2.795 -0.7729 -0.3112 -0.2808
   21SOL    HW1   62   0.889   1.158   2.729 -0.8291  0.7921  1.5751
   21SOL    HW2   63   1.014   1.253   2.750 -0.5277 -1.9277  0.7528
   22SOL     OW   64   2.014   0.009   1.363 -0.8387 -0.2023  0.2222
   22SOL    HW1   65   1.934   3.043   1.326 -2.9672 -2.1117 -2.6908
   22SOL    HW2   66   2.097   3.047   1.324  1.4594 -1.1185  0.1659
   23SOL     OW   67   2.979   0.549   1.655 -0.0583  0.4941 -0.4604
   23SOL    HW1   68   2.994   0.640   1.611 -2.0710 -0.0300  1.2754
   23SOL    HW2   69   3.057   0.485   1.651 -1.2819  0.6522 -0.7509
   24SOL     OW   70   2.203   2.502   1.166 -0.0469 -0.0548  0.6635
   24SOL    HW1   71   2.301   2.500   1.184  0.3076  0.7902 -0.5865
   24SOL    HW2   72   2.161   2.586   1.205  1.3677  0.9734 -1.5109
   25SOL     OW   73   1.684   2.804   2.484 -0.4372 -0.1869 -0.3385
   25SOL    HW1   74   1.758   2.746   2.520  0.0953 -0.7093  3.4012
   25SOL    HW2   75   1.626   2.765   2.413 -0.4014  3.2552  0.8590
   26SOL     OW   76   1.577   2.808   0.169  0.0940 -0.2877 -0.3299
   26SOL    HW1   77   1.634   2.725   0.185 -1.1813  1.4760 -1.2286
   26SOL    HW2   78   1.479   2.782   0.146 -0.9849 -0.8338 -1.1730
   27SOL     OW   79   0.318   1.586   2.355  1.0813  0.0687  0.4724
   27SOL    HW1   80   0.237   1.611   2.293 -2.1503  2.0821 -4.3093
   27SOL    HW2   81   0.401   1.605   2.299  1.0889  1.2774 -5.1226
   28SOL     OW   82   2.823   1.168   1.503  0.1585  0.3577 -0.0281
   28SOL    HW1   83   2.819   1.243   1.431  0.2181  1.1876  0.6086
   28SOL    HW2   84   2.840   1.211   1.594  0.2738  1.4340  0.7697
   29SOL     OW   85   2.731   2.458   2.084  0.3224 -0.3888 -0.2563
   29SOL    HW1   86   2.808   2.420   2.139  0.6589 -1.8009  3.2155
   29SOL    HW2   87   2.767   2.503   1.997 -1.9042  0.7429 -1.5662
   30SOL     OW   88   1.625   0.145   0.209 -0.0551  0.1736 -0.2780
   30SOL    HW1   89   1.549   0.115   0.147  0.1466  1.4623 -0.5695
   30SOL    HW2   90   1.669   0.226   0.165  0.7141  0.4367 -1.3210
   31SOL     OW   91   2.775   2.581   1.834 -0.2710 -0.2137 -0.1201
   31SOL    HW1   92   2.874   2.599   1.822 -0.9743 -0.1774 -0.5546
   31SOL    HW2   93   2.725   2.635   1.765  1.4383 -1.0417  3.2233
   32SOL     OW   94   1.251   1.366   1.441  0.9115  0.3954  0.0947
   32SOL    HW1   95   1.325   1.387   1.377  0.3895  1.3660 -0.5969
   32SOL    HW2   96   1.191   1.290   1.409  2.8406  0.0253  0.1115
   33SOL     OW   97   0.362   2.622   2.538 -0.1309 -0.4777 -0.5905
   33SOL    HW1   98   0.372   2.567   2.455 -0.6839 -1.6858  0.7412
   33SOL    HW2   99   0.279   2.593   2.593 -0.5434 -1.6988  0.9517
   34SOL     OW  100   1.775   3.016   0.954 -0.0376 -0.2042  0.5825
   34SOL    HW1  101   1.746   2.935   0.894  1.4506 -0.8202  1.9229
   34SOL    HW2  102   1.854   3.064   0.920 -5.3483 -0.4908 -0.6859
   35SOL     OW  103   2.057   0.046   0.811 -0.6786  0.4976 -0.0811
   35SOL    HW1  104   2.072   0.029   0.710  1.8801 -1.0102  1.8282
   35SOL    HW2  105   2.140   0.082   0.860  1.8100  1.2151  0.1903
   36SOL     OW  106   2.007   2.814   2.304  0.1588 -0.1016 -0.5302
   36SOL    HW1  107   2.086   2.808   2.244  0.1985  0.9511 -0.0145
   36SOL    HW2  108   1.963   2.727   2.334 -1.4248  1.8721  0.2668
   37SOL     OW  109   1.137   2.893   2.121 -0.1444 -0.0863  0.0645
   37SOL    HW1  110   1.066   2.873   2.050  1.0832  0.1298 -1.6936
   37SOL    HW2  111   1.119   2.833   2.203  2.8835 -0.0650 -0.1260
   38SOL     OW  112   2.837   3.012   2.772  0.1272 -0.0142 -0.0173
   38SOL    HW1  113   2.827   2.916   2.739  1.7522  1.7027  0.4248
   38SOL    HW2  114   2.926   3.024   2.818 -3.1100 -1.9464 -0.1365
   39SOL     OW  115   2.341   1.340   1.881  0.2582 -0.1521  0.1645
   39SOL    HW1  116   2.395   1.414   1.829  0.6017  1.8969 -1.5040
   39SOL    HW2  117   2.277   1.390   1.947 -2.2704 -1.0537  0.6292
   40SOL     OW  118   0.250   2.924   2.639 -0.1547  0.0245 -0.1503
   40SOL    HW1  119   0.329   2.971   2.689  0.0837  3.7494  1.1069
   40SOL    HW2  120   0.278   2.888   2.546  0.1049  0.3691 -2.3659
   41SOL     OW  121   1.625   0.557   0.704 -0.2000  0.2248  0.2815
   41SOL    HW1  122   1.553   0.595   0.765 -1.9536  0.8830 -2.1691
   41SOL    HW2  123   1.708   0.620   0.693  2.6690  1.0798 -0.0633
   42SOL     OW  124   0.433   0.936   1.397 -0.0274 -0.2811  0.3632
   42SOL    HW1  125   0.502   0.991   1.344  2.4193 -0.8824 -1.4742
   42SOL    HW2  126   0.413   0.858   1.338 -1.1832  1.6800 -0.3090
   43SOL     OW  127   2.730   1.585   2.804 -0.1513 -0.6407  0.0622
   43SOL    HW1  128   2.657   1.545   2.746  1.7925 -2.6058  0.3247
   43SOL    HW2  129   2.717   1.685   2.826  1.1611 -1.6484  0.3976
   44SOL     OW  130   0.137   2.684   0.462  0.2663  0.1041 -0.6220
   44SOL    HW1  131   0.071   2.755   0.494  0.2910 -1.7540  4.0304
   44SOL    HW2  132   0.157   2.621   0.534 -0.8054  0.1894 -1.2911
   45SOL     OW  133   0.469   2.646   1.651 -0.1972 -0.3321  0.0896
   45SOL    HW1  134   0.373   2.619   1.662  2.0049  0.5307  1.5157
   45SOL    HW2  135   0.504   2.664   1.745  0.8265  0.5656 -0.9089
   46SOL     OW  136   2.312   2.443   2.370 -0.1325  0.2976  0.3457
   46SOL    HW1  137   2.360   2.379   2.432 -3.5041  1.2723  0.8863
   46SOL    HW2  138   2.326   2.427   2.268 -1.4139 -1.2340 -1.8176
   47SOL     OW  139   2.255   2.076   1.478  0.1847 -0.4197 -0.0301
   47SOL    HW1  140   2.273   2.176   1.470 -2.7414  2.1090  0.4082
   47SOL    HW2  141   2.160   2.057   1.514  0.9563 -0.7359 -1.4172
   48SOL     OW  142   0.616   1.501   0.157  0.1868  0.1977 -0.1740
   48SOL    HW1  143   0.698   1.437   0.149 -0.9469 -2.5493  1.2145
   48SOL    HW2  144   0.536   1.441   0.131 -1.7331 -1.4648 -1.4218
   49SOL     OW  145   2.707   0.306   2.906  0.0236 -0.7400 -0.5251
   49SOL    HW1  146   2.752   0.335   2.819  1.6669 -2.0049  0.4500
   49SOL    HW2  147   2.613   0.350   2.912  0.3500  1.2620 -0.7028
   50SOL     OW  148   2.310   0.821   0.296  0.2561  0.0048  0.6565
   50SOL    HW1  149   2.225   0.865   0.331 -0.0042  2.2200  0.5598
   50SOL    HW2  150   2.299   0.718   0.296 -0.0329  0.2279 -1.2430
   51SOL     OW  151   1.900   0.675   1.079  0.1716 -0.1241  0.1034
   51SOL    HW1  152   1.956   0.687   0.998 -0.2206 -1.7854  0.3099
   51SOL    HW2  153   1.849   0.588   1.066  0.8369 -0.6978  1.2966
   52SOL     OW  154   1.208   1.253   2.754 -0.0289  0.3331  0.0906
   52SOL    HW1  155   1.286   1.309   2.789  2.8194 -0.5181  3.3283
   52SOL    HW2  156   1.217   1.154   2.777 -0.2027  0.5770 -2.4640
   53SOL     OW  157   0.908   1.595   1.812  0.1440 -0.0021 -0.0330
   53SOL    HW1  158   0.814   1.586   1.852  3.1254 -0.1796  1.4702
   53SOL    HW2  159   0.899   1.607   1.710 -0.2543  1.1516  0.9298
   54SOL     OW  160   1.892   0.251   0.842  0.0292  0.6880  0.0421
   54SOL    HW1  161   1.959   0.171   0.826  0.7431 -0.8299  0.0061
   54SOL    HW2  162   1.900   0.313   0.761 -1.3875 -0.0114  1.2857
   55SOL     OW  163   2.541   2.246   1.313  0.8563 -0.0423  0.2831
   55SOL    HW1  164   2.558   2.320   1.245 -1.3998 -0.0792 -1.8185
   55SOL    HW2  165   2.594   2.164   1.293  1.8047  0.9711  0.5547
   56SOL     OW  166   0.915   2.849   1.573  0.1645 -0.0374  0.2550
   56SOL    HW1  167   0.960   2.837   1.480 -0.7247 -1.5103  0.9595
   56SOL    HW2  168   0.984   2.863   1.647 -0.1625 -0.3392 -0.0394
   57SOL     OW  169   1.626   1.389   0.262 -0.3705 -0.2184 -0.0668
   57SOL    HW1  170   1.715   1.340   0.271 -2.3308  4.4375 -2.0888
   57SOL    HW2  171   1.643   1.490   0.255 -0.6126 -1.3213 -1.4228
   58SOL     OW  172   3.073   0.519   2.577  0.3355  0.3840 -0.5146
   58SOL    HW1  173   0.017   0.472   2.490  1.4641 -0.4935  1.0204
   58SOL    HW2  174   3.037   0.611   2.553  3.1241 -2.1120 -0.5323
   59SOL     OW  175   1.136   2.724   2.341  0.2809 -0.0387  0.4612
   59SOL    HW1  176   1.222   2.744   2.391  1.5037 -1.1923  2.4913
   59SOL    HW2  177   1.099   2.631   2.369  2.4372  1.1355  1.0239
   60SOL     OW  178   2.549   2.604   0.746 -0.1810  0.6191 -0.1165
   60SOL    HW1  179   2.514   2.562   0.832 -0.7854  0.8033 -0.5344
   60SOL    HW2  180   2.509   2.567   0.662  0.0287  3.3471 -1.2671
   61SOL     OW  181   1.352   2.229   0.726  0.0436  0.2088  0.3790
   61SOL    HW1  182   1.318   2.244   0.823 -0.6860  1.3829  4.2815
   61SOL    HW2  183   1.428   2.167   0.735 -0.8289  0.2859 -1.9038
   62SOL     OW  184   2.499   2.029   2.598  0.3162 -0.2923  0.3875
   62SOL    HW1  185   2.406   2.002   2.638 -0.4523  1.8732  2.3373
   62SOL    HW2  186   2.572   1.964   2.619 -1.7020  0.9128 -0.9536
   63SOL     OW  187   2.278   0.226   2.979 -0.0146  0.1414  0.0050
   63SOL    HW1  188   2.292   0.313   2.926  1.6515  1.6185 -0.9699
   63SOL    HW2  189   2.337   0.154   2.943 -1.1372  0.1389 -1.7473
   64SOL     OW  190   1.063   0.946   2.627 -0.0190 -0.6884  0.0503
   64SOL    HW1  191   0.990   0.922   2.561  0.1622 -1.3319 -0.5100
   64SOL    HW2  192   1.038   0.925   2.724 -3.0284  2.1344  0.7824
   65SOL     OW  193   1.263   2.035   0.349 -0.1666  0.1452 -0.4456
   65SOL    HW1  194   1.193   2.047   0.425  0.1159 -1.5212 -1.7239
   65SOL    HW2  195   1.279   2.119   0.295 -1.4259  2.0655  0.7758
   66SOL     OW  196   0.239   1.155   1.767  0.1133 -0.1199  0.2756
   66SOL    HW1  197   0.207   1.162   1.864  0.6771  0.7158 -0.1230
   66SOL    HW2  198   0.323   1.094   1.755  0.7853  0.1752 -0.7930
   67SOL     OW  199   2.435   0.229   2.584 -0.3036 -0.0005 -0.1730
   67SOL    HW1  200   2.521   0.283   2.586 -0.5078  0.0064 -0.3554
   67SOL    HW2  201   2.398   0.222   2.491  0.1930  1.0912  0.3278
   68SOL     OW  202   0.495   2.369   1.033  0.6518  0.1490  0.1162
   68SOL    HW1  203   0.555   2.380   1.113  0.1881  0.3400 -1.1575
   68SOL    HW2  204   0.408   2.312   1.051 -2.1717  0.1562  2.2602
   69SOL     OW  205   0.745   2.646   0.270 -0.1421 -0.1400 -0.4786
   69SOL    HW1  206   0.735   2.698   0.181 -1.8065  0.8408  0.7009
   69SOL    HW2  207   0.819   2.690   0.322 -0.2490  0.9620 -1.5081
   70SOL     OW  208   2.899   1.029   2.835 -0.1079 -0.0991 -0.3873
   70SOL    HW1  209   2.963   1.040   2.912 -1.6671 -2.6671 -3.4249
   70SOL    HW2  210   2.893   0.930   2.810 -0.9189 -1.1972 -0.5856
   71SOL     OW  211   0.288   1.123   2.599 -0.0484 -0.1931  0.4245
   71SOL    HW1  212   0.236   1.206   2.568  0.3969  0.4040 -2.6172
   71SOL    HW2  213   0.229   1.042   2.602  1.1741 -0.3303 -2.4302
   72SOL     OW  214   3.029   2.217   0.450 -0.0185  0.3292  0.3095
   72SOL    HW1  215   2.947   2.154   0.449 -2.8859 -0.5724  1.5557
   72SOL    HW2  216   3.011   2.298   0.390  0.7768  0.4591 -0.7363
   73SOL     OW  217   0.725   1.251   0.205 -0.1341  0.0885  0.5274
   73SOL    HW1  218   0.817   1.282   0.242 -3.6201 -0.7277 -3.1064
   73SOL    HW2  219   0.753   1.217   0.113  2.0541 -0.7493  1.1539
   74SOL     OW  220   3.046   0.153   0.309 -0.1424  0.0365  0.0600
   74SOL    HW1  221   2.977   0.119   0.244 -0.2294 -1.3347 -0.2221
   74SOL    HW2  222   0.052   0.172   0.274 -0.5270 -1.4898  3.1019
   75SOL     OW  223   2.431   1.641   2.325 -0.4237  0.1161  0.1187
   75SOL    HW1  224   2.522   1.653   2.286 -0.6158  1.7417 -1.2247
   75SOL    HW2  225   2.369   1.719   2.299 -2.3300  3.0504  1.3999
   76SOL     OW  226   2.110   2.664   1.529  0.0594 -0.0735  1.0168
   76SOL    HW1  227   2.207   2.657   1.561 -0.2923 -2.2632 -0.3177
   76SOL    HW2  228   2.098   2.704   1.434 -0.1912 -0.6075 -1.2763
   77SOL     OW  229   2.589   0.437   1.321 -0.1755  0.1373 -0.2804
   77SOL    HW1  230   2.620   0.510   1.257 -2.8614  0.0934  1.5782
   77SOL    HW2  231   2.554   0.491   1.399  0.1177  0.6202  0.0506
   78SOL     OW  232   1.826   1.196   3.061 -0.3239 -0.4955  0.3336
   78SOL    HW1  233   1.857   1.262   2.990  0.1147 -0.1801  1.9193
   78SOL    HW2  234   1.837   1.237   0.065 -1.1076  1.7762 -1.6268
   79SOL     OW  235   0.774   1.879   2.010  0.3119  0.8533 -0.0622
   79SOL    HW1  236   0.833   1.906   1.932 -1.9727 -1.5983 -0.2999
   79SOL    HW2  237   0.752   1.779   2.008 -0.8284 -0.3142 -3.4125
   80SOL     OW  238   1.432   0.922   0.932  0.0793 -0.2938 -0.1416
   80SOL    HW1  239   1.398   0.993   0.867  0.4475 -1.7732  0.4634
   80SOL    HW2  240   1.521   0.955   0.970 -0.9676  2.4949  0.3423
   81SOL     OW  241   0.504   0.411   1.215  0.3230  0.5582  0.0665
   81SOL    HW1  242   0.405   0.436   1.200 -1.5408  0.2846 -1.7006
   81SOL    HW2  243   0.528   0.356   1.136  0.2580  2.6951  0.2840
   82SOL     OW  244   1.438   2.402   1.626  0.1007 -0.3238 -0.4209
   82SOL    HW1  245   1.392   2.316   1.666 -2.9055 -4.1855  0.2999
   82SOL    HW2  246   1.469   2.386   1.531 -1.4279 -0.9225  2.9247
   83SOL     OW  247   0.519   2.922   1.082 -0.8893  0.3725  0.2238
   83SOL    HW1  248   0.491   3.019   1.085  0.0645 -2.0680 -0.9982
   83SOL    HW2  249   0.544   2.897   0.985 -1.2784 -2.8596  1.3515
   84SOL     OW  250   0.206   0.746   3.014  0.3106  0.0406  0.9251
   84SOL    HW1  251   0.228   0.841   2.989  0.2273 -2.5839  1.6628
   84SOL    HW2  252   0.173   0.694   2.934 -0.8199 -0.3434  1.7378
   85SOL     OW  253   2.897   2.341   1.503  0.0653  0.5617 -0.3302
   85SOL    HW1  254   2.842   2.406   1.446  3.3634  0.7265  0.2130
   85SOL    HW2  255   2.845   2.324   1.590 -2.3208  0.7840  2.1834
   86SOL     OW  256   3.078   2.537   1.596  0.0967  0.2578 -0.7735
   86SOL    HW1  257   3.040   2.448   1.562  0.9574 -1.1954 -0.2921
   86SOL    HW2  258   3.047   2.613   1.533  0.6548  2.5471 -0.1584
   87SOL     OW  259   2.984   2.649   2.791 -0.5688 -0.5765 -0.7734
   87SOL    HW1  260   2.909   2.693   2.737 -0.9444  0.4294  3.2783
   87SOL    HW2  261   2.938   2.625   2.879 -1.5386 -1.5955  2.1264
   88SOL     OW  262   0.096   2.031   1.263  0.0395 -0.1809 -0.5093
   88SOL    HW1  263   0.022   2.072   1.202 -1.2203  2.0626  1.6106
   88SOL    HW2  264   0.174   1.991   1.206  1.9533 -0.4733 -3.9793
   89SOL     OW  265   1.042   0.668   1.780  0.2325 -0.6131  0.5225
   89SOL    HW1  266   0.950   0.695   1.737  0.9215  1.1230 -3.9282
   89SOL    HW2  267   1.083   0.597   1.716 -0.9198 -1.5034  0.5126
   90SOL     OW  268   3.063   1.522   1.810 -0.5296  0.5003 -0.0201
   90SOL    HW1  269   2.968   1.515   1.850  1.5000  0.1813  1.0728
   90SOL    HW2  270   3.080   1.610   1.764 -0.4193 -1.7697  0.7285
   91SOL     OW  271   1.006   1.826   0.546  0.2769  0.0872  1.1097
   91SOL    HW1  272   1.058   1.914   0.540 -0.1228  1.4902 -0.4557
   91SOL    HW2  273   1.075   1.753   0.560  1.3730  0.5338  1.9745
   92SOL     OW  274   2.308   0.421   1.046  0.1981  0.0761 -0.0453
   92SOL    HW1  275   2.409   0.400   1.054 -0.7582 -0.4908 -2.5556
   92SOL    HW2  276   2.268   0.491   1.113 -0.1491  1.7622  1.7091
   93SOL     OW  277   2.501   1.533   0.035  0.0985 -0.1823  0.4323
   93SOL    HW1  278   2.497   1.481   3.037  0.7973  1.2379  3.1850
   93SOL    HW2  279   2.472   1.631   0.013 -0.1456 -0.2053 -0.3084
   94SOL     OW  280   2.475   2.295   2.532 -0.1680  0.4670  0.0770
   94SOL    HW1  281   2.494   2.199   2.558  0.2214  0.7292 -1.6875
   94SOL    HW2  282   2.566   2.337   2.511  3.1290 -0.9751  2.3002
   95SOL     OW  283   1.727   0.456   0.966 -0.4152 -0.1769  0.1643
   95SOL    HW1  284   1.684   0.500   0.882 -2.0256  2.4861 -0.2224
   95SOL    HW2  285   1.789   0.375   0.947  0.7071 -0.0242 -1.4871
   96SOL     OW  286   2.830   3.043   1.717 -0.3223 -0.3248  1.4793
   96SOL    HW1  287   2.868   2.989   1.790  0.5214  0.4080 -0.8847
   96SOL    HW2  288   2.893   0.041   1.704  0.9943  1.9739  0.5585
   97SOL     OW  289   2.175   0.228   1.258 -0.3462  0.0608  0.3264
   97SOL    HW1  290   2.147   0.313   1.205 -0.7234  1.7726  1.7603
   97SOL    HW2  291   2.182   0.243   1.358 -0.1626  2.4064 -2.7883
   98SOL     OW  292   1.523   2.334   1.375 -0.2144 -0.8118  0.2816
   98SOL    HW1  293   1.557   2.348   1.278 -2.2946 -1.5911 -0.5684
   98SOL    HW2  294   1.544   2.240   1.409 -2.0939  2.9370 -0.8156
   99SOL     OW  295   3.040   2.643   1.860  0.3772 -0.5372 -0.0454
   99SOL    HW1  296   3.081   2.584   1.788 -2.3215 -0.7022  1.0967
   99SOL    HW2  297   0.012   2.647   1.946 -0.3831  0.9630 -0.1176
  100SOL     OW  298   0.181   0.799   2.630  0.0509 -0.0748  0.0450
  100SOL    HW1  299   0.120   0.764   2.703  1.3523  1.8960 -0.0442
  100SOL    HW2  300   0.271   0.746   2.620  0.7356 -1.6607  1.1366
  101SOL     OW  301   1.715   0.967   0.085 -0.0569  0.6862 -0.2574
  101SOL    HW1  302   1.778   0.907   0.144  2.3873 -1.9878  1.9725
  101SOL    HW2  303   1.767   1.034   0.037 -2.0119 -3.3037  0.7183
  102SOL     OW  304   0.208   0.589   1.357 -0.0466 -0.2437 -0.1810
  102SOL    HW1  305   0.249   0.565   1.450 -0.7489 -1.8241  2.0129
  102SOL    HW2  306   0.269   0.654   1.303  0.2588  0.4148 -1.9849
  103SOL     OW  307   2.586   0.792   1.954  0.1024 -0.7093 -0.1728
  103SOL    HW1  308   2.632   0.762   2.038  1.5097 -1.3388 -0.8582
  103SOL    HW2  309   2.538   0.883   1.971 -1.7790 -2.7068  0.7332
  104SOL     OW  310   0.383   0.191   2.770 -0.2275  0.5064  0.4248
  104SOL    HW1  311   0.367   0.249   2.690 -0.9948 -2.4220  2.0817
  104SOL    HW2  312   0.420   0.099   2.744  0.5561  0.6867  0.1444
  105SOL     OW  313   2.277   1.701   1.830  0.4794 -0.2772 -0.2129
  105SOL    HW1  314   2.203   1.688   1.759 -1.4560  0.1390 -0.6854
  105SOL    HW2  315   2.246   1.671   1.920  1.9149  0.6978  2.2108
  106SOL     OW  316   1.342   0.240   0.438  0.5914  0.5442 -0.1065
  106SOL    HW1  317   1.403   0.192   0.498 -1.3634  1.6273 -3.8217
  106SOL    HW2  318   1.313   0.323   0.478  2.2306 -0.4929 -0.4347
  107SOL     OW  319   0.032   1.801   1.414  0.3305  0.0794 -0.1661
  107SOL    HW1  320   0.131   1.782   1.394 -1.0602 -1.5227  0.6036
  107SOL    HW2  321   0.002   1.882   1.359 -2.8526  2.9970  1.9507
  108SOL     OW  322   0.114   2.661   2.174 -0.1265 -0.2442  0.0182
  108SOL    HW1  323   0.191   2.632   2.234 -3.7636 -1.7841  0.0858
  108SOL    HW2  324   0.067   2.731   2.227 -0.3834 -3.5125  2.0060
  109SOL     OW  325   1.721   0.370   0.099  0.2922 -0.1797  0.2109
  109SOL    HW1  326   1.681   0.457   0.134 -0.1806  1.2397 -0.1106
  109SOL    HW2  327   1.718   0.368   3.083  1.9343 -2.0537  1.2402
  110SOL     OW  328   0.347   2.270   2.496  0.4318  0.1378 -0.0934
  110SOL    HW1  329   0.442   2.297   2.483 -0.5850 -2.0793 -1.8327
  110SOL    HW2  330   0.318   2.273   2.597 -0.4420 -0.1712 -0.1188
  111SOL     OW  331   1.517   2.625   2.034 -0.1102  0.0579 -0.0458
  111SOL    HW1  332   1.609   2.586   2.032 -1.1419 -1.9547 -0.2195
  111SOL    HW2  333   1.475   2.623   1.944  2.0888 -1.8973  2.3904
  112SOL     OW  334   1.883   2.655   2.612 -0.1276 -0.6060  0.1905
  112SOL    HW1  335   1.815   2.600   2.662  2.1354 -1.1936 -2.4042
  112SOL    HW2  336   1.910   2.742   2.654 -3.6862  1.1241 -2.3893
  113SOL     OW  337   1.873   2.546   1.716 -0.4601 -0.0648  0.0903
  113SOL    HW1  338   1.898   2.643   1.717  1.9468 -1.0508  0.7794
  113SOL    HW2  339   1.928   2.503   1.640 -0.5549  0.5146  1.6848
  114SOL     OW  340   2.893   0.663   0.606  0.0486  0.2244  0.3440
  114SOL    HW1  341   2.889   0.612   0.516  2.7758  0.2689 -0.5275
  114SOL    HW2  342   2.805   0.716   0.614 -1.3744 -1.8645 -0.7093
  115SOL     OW  343   0.262   1.017   2.908 -0.5394 -0.0300 -0.3778
  115SOL    HW1  344   0.196   1.059   2.841  2.8269  0.9241 -0.1206
  115SOL    HW2  345   0.356   1.005   2.867  0.4549 -1.4448  0.0624
  116SOL     OW  346   0.173   1.217   2.047  0.0962  0.6505  0.0395
  116SOL    HW1  347   0.193   1.306   1.998 -0.8885 -1.0437  0.5950
  116SOL    HW2  348   0.220   1.223   2.139 -0.1764 -0.2064 -0.1980
  117SOL     OW  349   2.445   0.169   0.787  0.4369  0.3742  0.0011
  117SOL    HW1  350   2.523   0.107   0.779 -0.5513  0.4790 -1.3870
  117SOL    HW2  351   2.427   0.209   0.695 -2.0947  1.0704  0.7679
  118SOL     OW  352   1.279   1.824   1.622  0.1039  0.0702 -0.5112
  118SOL    HW1  353   1.379   1.801   1.633  0.6718 -1.0156  0.9663
  118SOL    HW2  354   1.225   1.798   1.707  0.1220 -0.4863  0.4877
  119SOL     OW  355   1.046   2.260   0.099 -0.0676 -0.3437  0.4179
  119SOL    HW1  356   1.112   2.277   0.177 -0.6968 -2.1623  1.1824
  119SOL    HW2  357   0.972   2.200   0.133  0.0319 -4.1266 -1.3215
  120SOL     OW  358   0.539   0.988   2.792 -0.0747  0.2108  0.7943
  120SOL    HW1  359   0.538   1.003   2.690  0.8388  1.7926 -1.0189
  120SOL    HW2  360   0.605   0.913   2.823  0.3636  0.1961  0.9791
  121SOL     OW  361   2.097   2.784   1.260 -0.1254 -0.0399 -0.0923
  121SOL    HW1  362   2.022   2.779   1.193  1.7164 -1.1903  0.9252
  121SOL    HW2  363   2.173   2.853   1.237 -0.1120 -0.6483  0.0250
  122SOL     OW  364   2.535   2.201   2.148 -0.3345 -0.6637  0.3795
  122SOL    HW1  365   2.601   2.200   2.226  1.6624  1.3151  0.1962
  122SOL    HW2  366   2.498   2.299   2.139 -3.9664  1.7755 -2.0470
  123SOL     OW  367   0.299   2.973   0.520  0.0964  0.1891 -0.3564
  123SOL    HW1  368   0.329   3.061   0.552 -1.1637 -3.3932  1.9917
  123SOL    HW2  369   0.202   2.960   0.543  0.4851 -1.3461 -2.3139
  124SOL     OW  370   2.017   0.651   2.443  0.0986 -0.0723  0.3233
  124SOL    HW1  371   1.997   0.753   2.428 -0.6332  0.7119 -1.8560
  124SOL    HW2  372   2.088   0.616   2.380  0.0459  0.3554  2.7463
  125SOL     OW  373   0.390   1.478   0.708 -0.2139 -0.0856  0.1499
  125SOL    HW1  374   0.461   1.484   0.635 -0.3138 -0.2808 -1.3869
  125SOL    HW2  375   0.342   1.572   0.711 -1.0485  0.4807  1.4354
  126SOL     OW  376   2.467   1.717   1.082  0.2560  0.2306 -0.1107
  126SOL    HW1  377   2.472   1.638   1.148  0.2726  0.0155  1.4848
  126SOL    HW2  378   2.453   1.804   1.127 -2.1835 -2.3664 -0.9149
  127SOL     OW  379   0.236   2.228   1.665 -0.6456 -0.1718 -0.5784
  127SOL    HW1  380   0.173   2.213   1.584 -2.0328  0.1303 -0.7141
  127SOL    HW2  381   0.269   2.327   1.678  0.1210  0.9722  1.8570
  128SOL     OW  382   0.747   0.681   2.421 -0.3486  0.2130  0.6264
  128SOL    HW1  383   0.729   0.631   2.510 -2.5665  1.5401 -2.4251
  128SOL    HW2  384   0.801   0.766   2.445 -0.9527 -0.1048 -0.2976
  129SOL     OW  385   2.423   1.285   0.986 -0.3820  0.1869  0.3100
  129SOL    HW1  386   2.495   1.234   1.041 -0.5307 -0.2113  1.5502
  129SOL    HW2  387   2.471   1.323   0.899  1.8430  2.1165 -4.4142
  130SOL     OW  388   2.612   1.319   1.658  0.3769 -0.1572  0.4019
  130SOL    HW1  389   2.629   1.260   1.740 -0.7464  0.1878 -1.0556
  130SOL    HW2  390   2.561   1.402   1.690  1.0246 -1.8203 -1.2793
  131SOL     OW  391   2.643   0.416   0.121 -0.2498 -0.2441 -0.1686
  131SOL    HW1  392   2.641   0.512   0.162 -0.7456  0.6834  0.3138
  131SOL    HW2  393   2.740   0.380   0.119  1.1065  0.2509 -2.1186
  132SOL     OW  394   2.848   2.144   1.994  0.5403  0.4295 -0.3696
  132SOL    HW1  395   2.762   2.096   2.023  1.0945  2.9494 -0.0443
  132SOL    HW2  396   2.873   2.229   2.053  1.1450  1.2662  2.5265
  133SOL     OW  397   0.398   1.197   1.058  0.2456 -0.6809  0.6638
  133SOL    HW1  398   0.369   1.224   0.962 -3.9827  2.4058  0.6585
  133SOL    HW2  399   0.498   1.200   1.065  0.2565 -1.1817  0.3827
  134SOL     OW  400   0.249   1.195   0.024  0.2839 -0.2507  0.3819
  134SOL    HW1  401   0.249   1.121   3.041 -0.8986 -0.4922  1.1811
  134SOL    HW2  402   0.156   1.244   0.021 -0.9119 -2.3344  0.2265
  135SOL     OW  403   2.131   1.418   1.514  0.7478  0.0048  0.0886
  135SOL    HW1  404   2.160   1.333   1.566  1.0502 -0.4741  0.8199
  135SOL    HW2  405   2.129   1.494   1.577  1.1028 -2.5640 -3.4034
  136SOL     OW  406   2.644   0.788   0.666  0.0099  0.1807 -0.3853
  136SOL    HW1  407   2.581   0.785   0.585  1.1920  2.3490 -1.6350
  136SOL    HW2  408   2.598   0.748   0.748 -1.5265 -0.1869  3.6160
  137SOL     OW  409   2.498   1.491   1.247  0.0745  0.3067  0.2923
  137SOL    HW1  410   2.548   1.447   1.172  0.7804 -1.5997  0.2445
  137SOL    HW2  411   2.477   1.420   1.320 -1.8240 -1.1811  1.8410
  138SOL     OW  412   1.646   0.825   1.329 -0.3940  0.0701  0.5957
  138SOL    HW1  413   1.707   0.849   1.247 -1.4658 -1.6135  0.6437
  138SOL    HW2  414   1.669   0.734   1.366 -2.1397  0.5373 -0.1170
  139SOL     OW  415   2.092   0.056   3.050  0.4110  0.0186  0.0769
  139SOL    HW1  416   2.168   0.121   3.034  0.1524  0.0686  0.5465
  139SOL    HW2  417   2.122   0.001   0.043  1.9551 -0.5529  0.4529
  140SOL     OW  418   1.511   1.669   2.093 -0.1453  0.1506  0.1594
  140SOL    HW1  419   1.605   1.676   2.133  0.5599 -0.1592 -1.1189
  140SOL    HW2  420   1.504   1.612   2.011 -1.1513  0.0051  1.1973
  141SOL     OW  421   2.143   1.898   1.023 -0.0458  0.5345 -0.6531
  141SOL    HW1  422   2.213   1.960   1.057 -4.4508 -0.4445 -2.2396
  141SOL    HW2  423   2.116   1.835   1.104 -0.1456 -0.3924 -0.3354
  142SOL     OW  424   3.040   0.806   0.086 -0.3628 -0.1786 -0.1320
  142SOL    HW1  425   0.039   0.769   0.037  3.3547 -1.0241 -0.5865
  142SOL    HW2  426   3.050   0.787   0.185 -2.0030 -0.9351  0.0162
  143SOL     OW  427   0.240   2.140   2.740  0.2221  0.4793  0.6314
  143SOL    HW1  428   0.328   2.094   2.742  0.7083  3.7627 -0.1507
  143SOL    HW2  429   0.181   2.109   2.663 -1.0018  0.9775  0.2291
  144SOL     OW  430   0.976   0.097   1.785 -0.2252 -0.0305 -0.3170
  144SOL    HW1  431   0.943   0.137   1.696 -1.6733  1.2087 -0.6368
  144SOL    HW2  432   1.008   0.003   1.767 -1.6963  1.8285  0.5079
  145SOL     OW  433   2.600   1.094   0.456 -0.4276  0.4636  0.0854
  145SOL    HW1  434   2.652   1.067   0.539 -0.6659 -2.9127 -1.9487
  145SOL    HW2  435   2.514   1.144   0.482 -0.7081 -0.1820 -0.0016
  146SOL     OW  436   2.535   2.591   0.068  0.2770 -0.5311 -0.3436
  146SOL    HW1  437   2.456   2.530   0.074  1.3902  1.9120  1.2979
  146SOL    HW2  438   2.524   2.644   3.073  0.4950 -2.5880  1.5310
  147SOL     OW  439   2.501   2.910   1.222  0.8402 -0.0890 -0.0353
  147SOL    HW1  440   2.566   2.919   1.296 -5.2592 -2.2931 -3.5492
  147SOL    HW2  441   2.545   2.919   1.133 -0.4069  0.6808  1.7472
  148SOL     OW  442   1.687   3.053   2.379  0.1299 -0.1767 -0.1640
  148SOL    HW1  443   1.608   0.019   2.413  0.1362 -1.5997 -0.5956
  148SOL    HW2  444   1.683   2.962   2.418  0.6641  1.6017  2.4854
  149SOL     OW  445   1.118   0.590   2.627 -0.1414  0.1739 -0.3116
  149SOL    HW1  446   1.214   0.555   2.615  1.1116  0.8238  0.0105
  149SOL    HW2  447   1.118   0.672   2.687 -1.5932  1.7053  0.5272
  150SOL     OW  448   0.960   2.771   0.410 -0.3250  0.1211  0.5696
  150SOL    HW1  449   0.892   2.816   0.467  0.5826 -0.9808  0.5641
  150SOL    HW2  450   1.041   2.735   0.463  0.8171 -1.1695  0.1640
  151SOL     OW  451   0.064   1.670   0.180  0.2523 -0.1732 -0.2151
  151SOL    HW1  452   3.070   1.658   0.121  0.0112 -0.0961  0.4033
  151SOL    HW2  453   0.146   1.676   0.122 -1.3649  0.2228 -0.1118
  152SOL     OW  454   0.193   0.924   0.441  0.1990  0.1546 -0.0173
  152SOL    HW1  455   0.220   1.003   0.390 -1.1166 -2.9431  1.8963
  152SOL    HW2  456   0.131   0.867   0.382 -1.6399  2.4914 -0.0988
  153SOL     OW  457   2.377   3.014   0.579  0.3325 -0.2170  0.1412
  153SOL    HW1  458   2.422   0.016   0.605  3.0975  0.6887 -0.2005
  153SOL    HW2  459   2.363   2.955   0.663 -2.4873 -2.9824  1.6289
  154SOL     OW  460   0.785   0.693   1.705 -0.3663 -0.0912  0.1873
  154SOL    HW1  461   0.799   0.607   1.657  1.1855  3.7844 -2.4494
  154SOL    HW2  462   0.691   0.730   1.693  1.3417 -0.8324 -1.6081
  155SOL     OW  463   3.020   1.702   0.771  0.0409  0.1915  0.4006
  155SOL    HW1  464   3.027   1.612   0.714  0.5170 -2.3587  1.1266
  155SOL    HW2  465   2.940   1.757   0.739 -0.2266 -1.2525  2.0731
  156SOL     OW  466   2.268   2.162   0.351  0.1931 -0.3306 -0.4731
  156SOL    HW1  467   2.300   2.074   0.394 -3.4398  0.4638  0.9784
  156SOL    HW2  468   2.298   2.171   0.255  2.0072  1.9813 -0.0091
  157SOL     OW  469   1.005   2.898   0.922  0.2082 -0.3139  0.1514
  157SOL    HW1  470   0.942   2.836   0.871  1.3993  2.3529  0.4465
  157SOL    HW2  471   1.092   2.908   0.867  3.5301  0.6842 -2.5961
  158SOL     OW  472   2.423   0.388   2.835 -0.2695 -1.2386 -0.0203
  158SOL    HW1  473   2.390   0.489   2.823 -1.4801  2.5694  0.7673
  158SOL    HW2  474   2.418   0.343   2.743  0.5367 -0.5671  0.3033
  159SOL     OW  475   0.676   0.025   3.067  0.4731 -0.7552  0.4565
  159SOL    HW1  476   0.648   0.029   0.079  0.6944  1.2817  0.2449
  159SOL    HW2  477   0.605   3.068   3.014  3.5319  2.2399 -1.6295
  160SOL     OW  478   1.272   1.788   0.220 -0.0270 -0.1714  0.1340
  160SOL    HW1  479   1.313   1.802   0.125 -0.2215  2.2793 -1.8027
  160SOL    HW2  480   1.267   1.879   0.269  0.3477  0.3193  0.3779
  161SOL     OW  481   2.789   2.023   2.757  0.4121  0.6557 -0.0930
  161SOL    HW1  482   2.884   2.034   2.789 -0.2844  0.5760 -1.0568
  161SOL    HW2  483   2.746   2.110   2.754  0.6548 -2.3523 -1.0083
  162SOL     OW  484   0.264   2.886   0.944  0.7689  0.6559  1.1083
  162SOL    HW1  485   0.263   2.792   0.973  0.0477  0.3098 -1.5950
  162SOL    HW2  486   0.346   2.933   0.973 -2.3699  0.5761  2.7233
  163SOL     OW  487   2.038   0.339   2.916 -0.3778 -0.5069  0.3587
  163SOL    HW1  488   2.130   0.293   2.926 -1.4359  1.1750 -0.6017
  163SOL    HW2  489   2.006   0.319   2.825 -0.3534 -3.3709  0.1715
  164SOL     OW  490   2.805   1.919   0.741 -0.4995 -0.3183 -0.2063
  164SOL    HW1  491   2.722   1.867   0.723 -0.9175 -0.3617  0.1151
  164SOL    HW2  492   2.779   2.006   0.789 -0.8461 -0.0039 -0.1679
  165SOL     OW  493   2.556   3.083   1.757 -0.0317 -0.3963  0.0937
  165SOL    HW1  494   2.648   3.076   1.720 -2.5361 -2.9916 -0.2759
  165SOL    HW2  495   2.488   3.055   1.683 -1.5679  2.6215 -1.5025
  166SOL     OW  496   2.199   0.450   0.798 -0.4081  0.1610 -0.4367
  166SOL    HW1  497   2.146   0.378   0.752  1.8943 -0.7938  0.0313
  166SOL    HW2  498   2.251   0.430   0.885  2.0612 -1.1275 -0.7772
  167SOL     OW  499   0.575   0.266   1.001 -0.0583 -0.1953 -0.6810
  167SOL    HW1  500   0.671   0.268   1.040  0.7535  0.7005 -0.1358
  167SOL    HW2  501   0.564   0.345   0.935  0.9980 -0.0527 -2.4419
  168SOL     OW  502   1.962   2.956   1.930 -0.8618  0.3422 -0.7347
  168SOL    HW1  503   1.934   2.991   2.026  0.7295  2.2930  0.6115
  168SOL    HW2  504   2.049   2.899   1.932 -0.0633 -2.1962 -0.7460
  169SOL     OW  505   0.301   1.248   0.805 -0.5184 -0.3089  0.2533
  169SOL    HW1  506   0.341   1.328   0.756  0.7366 -0.0260  0.0902
  169SOL    HW2  507   0.209   1.242   0.761  1.8213  0.3525  2.0703
  170SOL     OW  508   2.617   0.708   1.272  0.4127 -0.2582  0.2358
  170SOL    HW1  509   2.555   0.755   1.209  2.3407  1.0758  3.6746
  170SOL    HW2  510   2.573   0.674   1.363 -2.2785 -4.2521  1.8498
  171SOL     OW  511   0.833   2.588   1.540  0.1535  0.4589  0.1808
  171SOL    HW1  512   0.918   2.541   1.508  2.3641  0.0472 -0.9491
  171SOL    HW2  513   0.846   2.684   1.563 -1.8750 -1.0062  2.0131
  172SOL     OW  514   0.148   2.566   1.249  0.1190 -0.1136 -0.0951
  172SOL    HW1  515   0.201   2.486   1.284 -0.5013 -1.1478  0.8031
  172SOL    HW2  516   0.137   2.632   1.326  1.2425  1.1147 -0.1891
  173SOL     OW  517   1.384   0.125   0.064 -0.0414 -0.5833 -0.4555
  173SOL    HW1  518   1.284   0.137   0.077 -0.3546  1.3850  1.2328
  173SOL    HW2  519   1.414   0.198   0.004  0.2468  0.8074  0.3146
  174SOL     OW  520   1.498   0.097   2.763 -0.0060 -0.0217 -0.3344
  174SOL    HW1  521   1.401   0.129   2.765  0.7345  1.2132 -0.9398
  174SOL    HW2  522   1.527   0.114   2.662 -1.1234  0.3392 -2.6824
  175SOL     OW  523   1.752   2.499   2.961  0.3186  0.4815  0.1792
  175SOL    HW1  524   1.686   2.517   2.880 -3.9296  2.3486  1.0808
  175SOL    HW2  525   1.817   2.579   2.963 -1.1242 -1.1676  0.4670
  176SOL     OW  526   1.737   0.152   2.868 -0.2302 -0.1798  0.1921
  176SOL    HW1  527   1.769   0.095   2.947 -3.4387 -2.0161 -2.1500
  176SOL    HW2  528   1.648   0.118   2.831  1.0958 -0.2684  1.2339
  177SOL     OW  529   0.866   1.506   0.574 -0.3478 -0.5801  0.4656
  177SOL    HW1  530   0.862   1.567   0.491  0.7141  2.9174  0.1644
  177SOL    HW2  531   0.886   1.559   0.661 -0.1653  1.7459  3.0240
  178SOL     OW  532   0.073   1.813   2.402 -0.0812  0.9557 -0.0615
  178SOL    HW1  533   0.074   1.832   2.302 -0.0920  2.5988  1.0709
  178SOL    HW2  534   0.036   1.717   2.415 -1.6638 -1.5060  0.0352
  179SOL     OW  535   0.646   2.499   2.740 -0.8039 -0.3689 -0.3958
  179SOL    HW1  536   0.744   2.509   2.709 -1.1503  1.8009 -1.4211
  179SOL    HW2  537   0.605   2.590   2.720  2.5258 -3.2265  1.4967
  180SOL     OW  538   2.014   2.012   1.591 -0.7549  0.5494 -0.4365
  180SOL    HW1  539   2.035   2.004   1.689 -1.5733 -3.0344  0.6648
  180SOL    HW2  540   1.975   1.919   1.567 -0.7362 -1.2788 -0.0780
  181SOL     OW  541   1.493   1.100   2.233  0.1810  0.5106  0.5857
  181SOL    HW1  542   1.569   1.035   2.217  1.8968  0.0739  0.4653
  181SOL    HW2  543   1.457   1.084   2.326 -0.0915  0.3457 -1.4269
  182SOL     OW  544   2.912   0.147   2.605  0.4624 -0.3037 -0.6570
  182SOL    HW1  545   2.845   0.084   2.652  0.0203  0.5660  0.5417
  182SOL    HW2  546   2.987   0.091   2.560  1.1764 -1.1880 -1.3364
  183SOL     OW  547   1.365   0.540   2.798 -0.2737  0.0422  0.0919
  183SOL    HW1  548   1.389   0.510   2.700 -1.9469 -1.8670 -0.7022
  183SOL    HW2  549   1.373   0.466   2.868  0.0111  1.4817 -0.8904
  184SOL     OW  550   0.647   1.042   1.262  0.2076 -0.4067  0.1073
  184SOL    HW1  551   0.710   1.105   1.313 -1.2757  0.2583 -0.7756
  184SOL    HW2  552   0.651   1.057   1.161 -1.2153  2.6127 -0.6342
  185SOL     OW  553   2.445   1.002   1.287 -0.4819 -0.1465  0.0447
  185SOL    HW1  554   2.507   0.949   1.350 -3.8998 -0.1551 -1.1465
  185SOL    HW2  555   2.496   1.048   1.214  1.3042 -0.4446  1.0944
  186SOL     OW  556   0.601   1.656   2.489  0.3407  0.7749  0.5621
  186SOL    HW1  557   0.673   1.715   2.449 -0.7475 -0.5038 -1.3138
  186SOL    HW2  558   0.550   1.704   2.566  1.2538  0.0585  1.7860
  187SOL     OW  559   2.356   1.425   0.274 -0.6437  0.3606 -0.5223
  187SOL    HW1  560   2.273   1.369   0.253 -0.7042 -2.2612 -2.1715
  187SOL    HW2  561   2.408   1.440   0.188 -2.1862 -2.6139 -1.6011
  188SOL     OW  562   0.107   1.934   0.553 -0.0928 -0.1668  0.2792
  188SOL    HW1  563   0.076   1.954   0.648 -0.5174 -2.0674 -0.1287
  188SOL    HW2  564   0.186   1.994   0.522 -0.2420  1.2398 -0.9058
  189SOL     OW  565   2.476   0.521   0.413 -0.1007  0.5683  0.1799
  189SOL    HW1  566   2.402   0.505   0.344 -2.7326  3.6172  1.1477
  189SOL    HW2  567   2.565   0.481   0.384 -1.9714 -1.2933  0.1209
  190SOL     OW  568   1.178   1.249   2.286 -0.3134  0.3997 -0.3232
  190SOL    HW1  569   1.164   1.336   2.235  2.0129 -0.0207  1.1220
  190SOL    HW2  570   1.115   1.180   2.243 -0.6350  1.2022 -0.8493
  191SOL     OW  571   2.196   0.164   2.009 -0.3545 -0.2233  0.1337
  191SOL    HW1  572   2.287   0.212   1.993  3.4850 -0.9228 -2.9750
  191SOL    HW2  573   2.145   0.146   1.923 -0.8751  3.7636 -1.2713
  192SOL     OW  574   1.878   0.971   1.507  0.2693 -0.7019  0.1383
  192SOL    HW1  575   1.832   0.960   1.597  0.1970 -0.2821 -2.9090
  192SOL    HW2  576   1.830   0.921   1.433  2.0068 -1.8441 -0.4299
  193SOL     OW  577   0.743   0.549   0.716 -0.1070  0.1960 -0.5484
  193SOL    HW1  578   0.767   0.647   0.700 -1.0590 -0.4640  0.5115
  193SOL    HW2  579   0.823   0.499   0.751  1.7515 -1.3490 -1.9124
  194SOL     OW  580   1.320   2.626   0.769 -0.1655 -0.3841 -0.2983
  194SOL    HW1  581   1.376   2.658   0.690  0.7195  2.6140 -1.3440
  194SOL    HW2  582   1.372   2.648   0.857  1.6096  1.5582  0.8014
  195SOL     OW  583   2.396   0.600   0.676  0.4563  0.0449 -0.1582
  195SOL    HW1  584   2.438   0.580   0.583  0.7840 -1.0030 -0.5977
  195SOL    HW2  585   2.320   0.535   0.703 -1.2893  2.4119 -0.5828
  196SOL     OW  586   1.114   1.763   1.430 -0.4056  0.3212 -0.3162
  196SOL    HW1  587   1.113   1.850   1.378  1.2560 -1.8017 -0.0896
  196SOL    HW2  588   1.182   1.772   1.507  0.0357  0.9293  1.5599
  197SOL     OW  589   0.255   2.892   0.207 -0.4365 -0.5117  0.0260
  197SOL    HW1  590   0.233   2.909   0.304 -2.0237 -2.9005  1.0798
  197SOL    HW2  591   0.324   2.818   0.214 -2.5335 -1.4519 -0.6775
  198SOL     OW  592   0.876   1.268   0.672  0.0300 -0.3710 -0.4245
  198SOL    HW1  593   0.828   1.198   0.616 -0.9976  1.2184 -0.2548
  198SOL    HW2  594   0.874   1.361   0.632  2.5846  0.3805  1.8610
  199SOL     OW  595   0.169   3.027   1.657  0.6718 -0.2758 -0.0397
  199SOL    HW1  596   0.200   0.021   1.708 -1.5436  0.2847  1.5044
  199SOL    HW2  597   0.083   3.043   1.596 -0.4295  1.1051 -1.5084
  200SOL     OW  598   2.256   1.990   2.750 -0.4439  0.1758  0.0030
  200SOL    HW1  599   2.181   1.942   2.806  0.5719 -0.3446  0.2210
  200SOL    HW2  600   2.223   2.081   2.715  0.0397 -1.8248 -1.0628
  201SOL     OW  601   2.608   2.855   0.962  0.4322 -0.1038 -0.3784
  201SOL    HW1  602   2.517   2.846   0.918  0.5244 -0.6783  0.3310
  201SOL    HW2  603   2.686   2.851   0.896 -1.8146 -1.3453 -0.9967
  202SOL     OW  604   2.872   0.506   0.391 -0.1103 -0.3092 -0.0634
  202SOL    HW1  605   2.830   0.573   0.320 -0.7950  0.5131 -0.5614
  202SOL    HW2  606   2.801   0.435   0.415  2.7038  0.1876 -1.0901
  203SOL     OW  607   1.138   1.483   2.156  0.1618 -0.5717  0.1883
  203SOL    HW1  608   1.152   1.512   2.060  1.2161 -2.9933  0.8240
  203SOL    HW2  609   1.170   1.550   2.221  0.0423 -2.4225 -2.1639
  204SOL     OW  610   0.888   1.354   2.195  0.6804 -0.4395  0.2865
  204SOL    HW1  611   0.970   1.397   2.157  0.0503 -2.7072  1.0972
  204SOL    HW2  612   0.912   1.255   2.204 -0.1806 -0.0065 -0.6005
  205SOL     OW  613   1.112   2.094   1.564 -0.6989 -0.0846  0.0084
  205SOL    HW1  614   1.165   2.013   1.524 -1.4851 -2.1839 -3.0749
  205SOL    HW2  615   1.014   2.079   1.546  0.0919 -0.7456  0.2931
  206SOL     OW  616   0.129   0.195   2.872 -0.1735 -0.4085 -0.0781
  206SOL    HW1  617   0.220   0.184   2.825  0.8125 -0.7279  1.7782
  206SOL    HW2  618   0.070   0.257   2.823 -0.1879 -2.7347  0.3680
  207SOL     OW  619   1.903   3.042   2.170 -0.0069 -0.1362  0.1333
  207SOL    HW1  620   1.803   3.036   2.178 -0.5724 -0.6212  2.1004
  207SOL    HW2  621   1.940   2.968   2.229 -1.3282  0.0765 -1.1610
  208SOL     OW  622   0.647   2.238   1.873 -0.5109  0.2686 -0.0766
  208SOL    HW1  623   0.652   2.146   1.832  0.6370  1.3467  1.9263
  208SOL    HW2  624   0.695   2.301   1.810  0.7089 -0.9726 -1.5890
  209SOL     OW  625   1.823   1.143   2.721 -0.2307 -0.3619 -0.0543
  209SOL    HW1  626   1.766   1.148   2.636  1.6374 -1.3316  1.6562
  209SOL    HW2  627   1.778   1.077   2.789 -0.9474  0.4064 -1.1186
  210SOL     OW  628   2.943   0.431   0.752  0.4119  0.4177 -0.0599
  210SOL    HW1  629   2.964   0.506   0.688 -4.0607  0.5111  0.4137
  210SOL    HW2  630   2.863   0.456   0.809 -1.6076 -3.0462  1.1770
  211SOL     OW  631   0.684   1.244   1.011  0.6311  0.3101 -0.5535
  211SOL    HW1  632   0.660   1.331   0.963  0.1150  2.2680  3.0991
  211SOL    HW2  633   0.764   1.188   0.976  0.3509  0.1234 -2.9068
  212SOL     OW  634   1.179   1.620   0.532 -0.0881  0.2172  0.4643
  212SOL    HW1  635   1.193   1.578   0.623  0.7837  2.0216 -0.4835
  212SOL    HW2  636   1.181   1.558   0.449 -0.2334  0.5874 -1.4815
  213SOL     OW  637   1.487   0.042   1.659 -0.8100  0.0975 -0.2302
  213SOL    HW1  638   1.585   0.049   1.629  0.9646 -0.2035  1.6113
  213SOL    HW2  639   1.424   0.034   1.587  1.9518 -1.5567  2.9030
  214SOL     OW  640   1.523   1.566   2.422 -0.1172  0.1967  0.9199
  214SOL    HW1  641   1.449   1.532   2.479  0.2844  0.6212 -3.1313
  214SOL    HW2  642   1.539   1.668   2.429 -4.4385 -0.5344  1.3842
  215SOL     OW  643   0.298   1.939   1.104 -0.0636  0.2934 -0.0796
  215SOL    HW1  644   0.314   1.843   1.079  0.1475 -0.8526  2.2822
  215SOL    HW2  645   0.294   1.997   1.022 -0.8247  1.3048 -0.3631
  216SOL     OW  646   0.810   2.993   2.180  0.3475  0.3018  0.0110
  216SOL    HW1  647   0.801   3.076   2.120 -0.0322  3.9394  2.4527
  216SOL    HW2  648   0.874   3.024   2.252 -1.7836  0.2191 -1.5136
  217SOL     OW  649   2.340   0.365   0.128  0.0229 -0.3682 -0.5250
  217SOL    HW1  650   2.316   0.312   0.049  2.0505  2.4248 -1.2118
  217SOL    HW2  651   2.438   0.379   0.122  0.6046 -2.3723 -0.9795
  218SOL     OW  652   2.110   1.755   2.150  0.7451  0.2926  0.4032
  218SOL    HW1  653   2.106   1.735   2.247 -0.1877  0.5672 -0.9861
  218SOL    HW2  654   2.108   1.857   2.140  0.0629 -0.3858 -0.1886
  219SOL     OW  655   1.538   1.110   0.315 -0.2708 -0.3767  0.0625
  219SOL    HW1  656   1.539   1.211   0.317  0.7133  2.1891  1.1468
  219SOL    HW2  657   1.535   1.073   0.223 -1.3638 -0.2434  2.8182
  220SOL     OW  658   1.354   1.789   1.071 -0.6821  0.5721  0.1983
  220SOL    HW1  659   1.399   1.864   1.126 -0.7047  0.9554  1.7945
  220SOL    HW2  660   1.288   1.744   1.129 -0.9116 -0.3711  0.4832
  221SOL     OW  661   0.170   0.365   3.074  0.1485 -0.4732  0.0216
  221SOL    HW1  662   0.240   0.396   3.009  0.3368 -1.1007 -2.5109
  221SOL    HW2  663   0.120   0.293   3.025  1.4859 -0.0938  1.8394
  222SOL     OW  664   1.111   2.519   1.524  0.3220  0.1956  0.4042
  222SOL    HW1  665   1.080   2.428   1.488 -0.2970  0.9512  1.8283
  222SOL    HW2  666   1.202   2.550   1.483  4.6871 -0.3119  1.0886
  223SOL     OW  667   1.464   2.735   2.743 -0.3651 -0.0355 -0.6253
  223SOL    HW1  668   1.508   2.817   2.782 -1.3974 -2.2777 -4.6402
  223SOL    HW2  669   1.377   2.706   2.789 -2.4098  0.6098 -2.0365
  224SOL     OW  670   2.464   1.264   1.415 -0.2009 -0.8048 -0.4522
  224SOL    HW1  671   2.522   1.262   1.501 -0.4568 -1.1134 -0.7131
  224SOL    HW2  672   2.438   1.174   1.384  1.7422  1.4209  0.1749
  225SOL     OW  673   0.818   1.181   1.424  0.3012  0.0339 -0.2016
  225SOL    HW1  674   0.811   1.124   1.505 -1.8956  1.1494  0.9042
  225SOL    HW2  675   0.917   1.182   1.399  0.5918 -0.1147  1.5035
  226SOL     OW  676   1.663   2.534   2.718  0.4806  0.0078  0.0693
  226SOL    HW1  677   1.602   2.617   2.706 -2.0528  1.0477 -0.8472
  226SOL    HW2  678   1.612   2.452   2.679 -2.8933  1.3443 -0.0074
  227SOL     OW  679   0.821   2.093   0.975  0.9384  0.0379  0.4644
  227SOL    HW1  680   0.739   2.070   0.922  1.3834 -0.3374  3.4940
  227SOL    HW2  681   0.819   2.184   1.029 -1.1518  0.3876 -0.1620
  228SOL     OW  682   0.245   2.252   1.075 -0.7741  0.1261 -0.0860
  228SOL    HW1  683   0.255   2.279   1.173  0.7512 -1.2363 -0.6050
  228SOL    HW2  684   0.157   2.207   1.057  0.2083 -0.1816 -0.0363
  229SOL     OW  685   2.109   1.316   0.177 -0.0775  0.1435 -0.3332
  229SOL    HW1  686   2.092   1.410   0.154  2.3785 -6.3730 -0.5901
  229SOL    HW2  687   2.152   1.266   0.100  0.1816  1.0943  1.1794
  230SOL     OW  688   0.985   1.079   2.167 -0.0601 -0.2619 -0.3007
  230SOL    HW1  689   0.899   1.020   2.172  1.2495  1.2575 -0.8545
  230SOL    HW2  690   1.060   1.015   2.160 -2.1953 -2.3282 -2.1848
  231SOL     OW  691   1.552   2.040   1.749 -0.1011 -0.3879  0.7575
  231SOL    HW1  692   1.608   2.064   1.830  1.6304  1.7755  1.6051
  231SOL    HW2  693   1.549   1.939   1.743 -0.1264  0.7263  2.0922
  232SOL     OW  694   1.947   2.318   1.212  0.4242  0.2130  0.4215
  232SOL    HW1  695   1.931   2.264   1.297  0.9717  3.0630  0.2909
  232SOL    HW2  696   1.919   2.414   1.223  0.0307 -0.4190  0.4728
  233SOL     OW  697   1.738   2.463   2.326 -0.6951 -0.0864 -0.3565
  233SOL    HW1  698   1.823   2.498   2.367  0.6916 -0.5994 -2.5796
  233SOL    HW2  699   1.726   2.366   2.337 -0.2420  2.0155 -1.1059
  234SOL     OW  700   1.137   2.944   2.729 -0.2246 -0.1989  0.1348
  234SOL    HW1  701   1.224   2.997   2.721  1.6925  1.4220 -0.0822
  234SOL    HW2  702   1.104   2.920   2.636  1.0417  1.8710 -1.9499
  235SOL     OW  703   2.725   2.656   2.942 -0.5172 -0.4605 -0.5932
  235SOL    HW1  704   2.741   2.604   3.032  0.8172  1.0993  2.6372
  235SOL    HW2  705   2.669   2.602   2.877  3.7770  0.0202  3.0990
  236SOL     OW  706   2.029   2.536   2.421  0.2130 -0.0305 -0.2245
  236SOL    HW1  707   2.081   2.462   2.468  0.6760  3.0662 -1.4899
  236SOL    HW2  708   1.975   2.588   2.488  0.3801 -0.9638 -0.0475
  237SOL     OW  709   1.565   1.332   1.468  0.4199 -0.2116 -0.0018
  237SOL    HW1  710   1.530   1.256   1.408  1.6508 -0.7276  1.2143
  237SOL    HW2  711   1.519   1.332   1.558  1.2300 -0.3433 -3.5593
  238SOL     OW  712   2.378   0.118   2.347 -0.2287 -0.1613 -0.3242
  238SOL    HW1  713   2.461   0.056   2.349  2.1042  1.2469 -2.9555
  238SOL    HW2  714   2.305   0.075   2.294  0.9126  1.7749  0.2933
  239SOL     OW  715   0.663   1.623   1.912 -0.1071 -0.2404 -0.2857
  239SOL    HW1  716   0.638   1.550   1.842 -1.6393 -1.9643 -0.1857
  239SOL    HW2  717   0.620   1.598   2.000  4.1066 -0.2239 -2.2927
  240SOL     OW  718   3.081   2.255   0.706  0.0536  0.7730 -0.0602
  240SOL    HW1  719   3.054   2.332   0.769 -1.7962 -1.0498 -1.0373
  240SOL    HW2  720   3.040   2.267   0.611  0.1571  2.1808 -3.3040
  241SOL     OW  721   1.929   2.015   0.895  0.1642  0.0572  0.3786
  241SOL    HW1  722   2.009   1.969   0.932 -3.5114  0.0412 -1.8265
  241SOL    HW2  723   1.921   1.994   0.795 -0.8675  0.4230  0.8942
  242SOL     OW  724   1.368   1.437   2.884  0.3134 -0.0016  0.3046
  242SOL    HW1  725   1.417   1.366   2.941  0.1194 -0.8712  1.4989
  242SOL    HW2  726   1.435   1.503   2.852  0.3631 -1.1789  0.8001
  243SOL     OW  727   0.891   2.833   1.971  0.0585 -0.2007  0.8100
  243SOL    HW1  728   0.845   2.915   2.015  1.8343  0.3018 -0.2827
  243SOL    HW2  729   0.823   2.774   1.921 -0.1181  1.3536  1.7452
  244SOL     OW  730   1.841   2.951   2.692 -0.6385 -0.5862  0.1242
  244SOL    HW1  731   1.775   2.961   2.772 -1.7923 -0.0214  1.4939
  244SOL    HW2  732   1.796   2.928   2.604  1.0182 -0.2449 -0.9896
  245SOL     OW  733   1.325   2.945   0.526  0.2347 -0.2738 -0.5094
  245SOL    HW1  734   1.420   2.981   0.544  0.9414 -0.3819  0.5351
  245SOL    HW2  735   1.278   3.005   0.457  2.1600  1.5935 -0.2805
  246SOL     OW  736   1.315   2.969   3.037  0.1720  0.5151 -0.4879
  246SOL    HW1  737   1.225   3.023   3.042 -2.1706 -0.8586 -1.0222
  246SOL    HW2  738   1.385   3.016   0.010 -0.0384  0.1330  1.0102
  247SOL     OW  739   2.996   0.584   1.920  0.0804  0.5067 -0.4333
  247SOL    HW1  740   2.908   0.557   1.959  1.8029  0.6237 -3.2652
  247SOL    HW2  741   3.004   0.550   1.823  0.4076  1.5520  0.5776
  248SOL     OW  742   0.746   0.972   2.190 -0.6549  0.7079 -0.3023
  248SOL    HW1  743   0.696   1.049   2.150  0.0089  1.7987 -0.8902
  248SOL    HW2  744   0.715   0.883   2.153  0.8276 -0.1644 -2.1255
  249SOL     OW  745   2.226   0.543   0.282 -0.1138 -0.5782  0.6290
  249SOL    HW1  746   2.123   0.535   0.298  0.0640  1.6631  0.5593
  249SOL    HW2  747   2.254   0.477   0.216 -1.5195 -0.0707 -1.9032
  250SOL     OW  748   0.670   0.070   0.280 -0.1506  0.3074  0.4395
  250SOL    HW1  749   0.652   3.084   0.342  1.5037  2.8678 -2.9489
  250SOL    HW2  750   0.759   0.115   0.294  1.4134  1.1650 -1.0254
  251SOL     OW  751   1.130   0.162   2.616 -0.0996  0.4012  0.2257
  251SOL    HW1  752   1.178   0.183   2.703 -0.4823  0.6087 -4.1760
  251SOL    HW2  753   1.199   0.121   2.556 -0.8154  2.2901  0.0021
  252SOL     OW  754   1.763   1.757   2.162 -0.0846  0.0222 -0.0353
  252SOL    HW1  755   1.806   1.846   2.126  0.6306  0.4439  0.9538
  252SOL    HW2  756   1.830   1.696   2.214 -1.1504 -0.5680 -1.0441
  253SOL     OW  757   2.165   2.262   2.048 -0.1372  0.2377  0.3646
  253SOL    HW1  758   2.227   2.190   2.090  0.8742 -1.3014 -0.2001
  253SOL    HW2  759   2.182   2.275   1.952 -1.3142 -2.7111  3.4487
  254SOL     OW  760   1.033   2.244   1.902  0.2762  0.1477  0.2803
  254SOL    HW1  761   1.128   2.235   1.863 -0.0057 -0.5657 -0.4288
  254SOL    HW2  762   1.004   2.342   1.901 -1.8678  1.3418 -1.6487
  255SOL     OW  763   0.895   1.125   0.897  0.0802  0.0041 -0.5017
  255SOL    HW1  764   0.945   1.175   0.975  1.3276 -0.3644 -2.4326
  255SOL    HW2  765   0.902   1.191   0.819 -2.0049 -0.2249  2.7186
  256SOL     OW  766   1.881   1.971   2.035 -0.1972  0.1526  0.0340
  256SOL    HW1  767   1.840   2.056   1.991  0.9864  0.4208 -0.3060
  256SOL    HW2  768   1.932   1.990   2.119 -0.3396 -0.7963  0.6106
  257SOL     OW  769   0.509   2.277   2.786 -0.2710 -0.1606 -0.7918
  257SOL    HW1  770   0.560   2.363   2.783  2.8743 -2.0591 -1.9485
  257SOL    HW2  771   0.441   2.276   2.862  0.5362  3.1284 -0.4968
  258SOL     OW  772   0.691   0.338   2.144 -0.6158  0.0871  0.4984
  258SOL    HW1  773   0.736   0.410   2.206  1.6035  0.1921  0.9308
  258SOL    HW2  774   0.764   0.273   2.107  5.1149  0.2554 -0.2391
  259SOL     OW  775   0.864   0.546   2.237 -0.6304  0.0702 -0.6237
  259SOL    HW1  776   0.827   0.600   2.321 -2.5479 -0.2820  1.1268
  259SOL    HW2  777   0.923   0.605   2.180  0.1231  1.6703 -1.8533
  260SOL     OW  778   1.379   0.707   0.756  0.0707 -0.4295  0.1917
  260SOL    HW1  779   1.416   0.781   0.810 -0.2602 -1.6605 -0.6638
  260SOL    HW2  780   1.279   0.691   0.778  0.8605 -0.7059  1.3013
  261SOL     OW  781   0.739   3.069   2.600  0.2898  0.5270 -0.4168
  261SOL    HW1  782   0.828   3.022   2.614 -2.1972  0.3865  0.4259
  261SOL    HW2  783   0.751   0.072   2.550  0.8862 -1.2690  2.1952
  262SOL     OW  784   2.500   3.068   2.675  0.1077  0.3283 -0.4880
  262SOL    HW1  785   2.478   3.061   2.773  3.3138 -2.0347 -3.3646
  262SOL    HW2  786   2.506   0.075   2.639  2.1844  0.0179 -1.9580
  263SOL     OW  787   0.356   1.876   2.407  0.0269 -0.2281 -0.4866
  263SOL    HW1  788   0.262   1.857   2.393  5.1259  0.1187 -0.4190
  263SOL    HW2  789   0.388   1.819   2.486 -1.4279 -2.0686  3.6798
  264SOL     OW  790   0.584   1.547   1.207 -0.1719  0.6119  0.5506
  264SOL    HW1  791   0.630   1.636   1.228  0.1004  1.2363  0.4493
  264SOL    HW2  792   0.591   1.513   1.110 -0.3194 -1.5397 -1.5348
  265SOL     OW  793   0.485   1.843   2.995 -0.3140  0.3189 -0.1901
  265SOL    HW1  794   0.413   1.766   3.002 -2.0149 -4.4382  1.3390
  265SOL    HW2  795   0.578   1.802   3.025 -0.3040 -2.0307 -3.2679
  266SOL     OW  796   1.187   1.178   0.379 -0.4946 -0.5869 -0.0937
  266SOL    HW1  797   1.280   1.226   0.370  4.9245  0.7526 -2.9747
  266SOL    HW2  798   1.161   1.140   0.469  0.1279 -2.3879  0.3972
  267SOL     OW  799   2.353   0.950   0.077  0.2001  0.3546 -0.0324
  267SOL    HW1  800   2.406   0.893   0.013 -0.1038  0.3439 -0.3485
  267SOL    HW2  801   2.336   0.905   0.170 -1.3385 -1.6926  0.7008
  268SOL     OW  802   2.707   0.062   2.956  0.3121  0.2948 -0.0977
  268SOL    HW1  803   2.721   0.163   2.947  0.7576 -2.2306 -0.7830
  268SOL    HW2  804   2.739   0.013   2.869 -3.2251 -0.7672 -0.5005
  269SOL     OW  805   1.740   0.620   2.654  0.2668 -0.3976 -0.1887
  269SOL    HW1  806   1.770   0.551   2.586 -1.8229 -0.0929 -1.1583
  269SOL    HW2  807   1.723   0.709   2.616  0.3645 -0.3474 -1.8100
  270SOL     OW  808   0.834   1.229   2.540  0.0854  0.2884  0.0444
  270SOL    HW1  809   0.751   1.277   2.510  2.3304 -0.6654  1.6462
  270SOL    HW2  810   0.921   1.287   2.530 -0.4807  2.1806  2.4089
  271SOL     OW  811   2.581   1.105   0.196  0.0465 -0.3227  0.3527
  271SOL    HW1  812   2.504   1.049   0.166  3.0857  1.2724 -0.8226
  271SOL    HW2  813   2.610   1.074   0.290  0.9850  1.2819  1.7694
  272SOL     OW  814   2.672   1.840   2.893  0.1475 -0.2357  0.0051
  272SOL    HW1  815   2.646   1.869   2.989  0.1844 -0.5020 -0.0678
  272SOL    HW2  816   2.712   1.910   2.829  0.8782 -0.5310  3.2138
  273SOL     OW  817   1.966   0.567   0.270  0.0134  0.4862 -0.2857
  273SOL    HW1  818   1.873   0.595   0.316 -0.0257  1.1125 -1.3952
  273SOL    HW2  819   1.951   0.546   0.169  0.0454 -0.6189 -3.2803
  274SOL     OW  820   0.322   2.620   1.043 -0.1671  0.1042  0.0806
  274SOL    HW1  821   0.395   2.550   1.034 -0.1503 -0.4179 -1.8033
  274SOL    HW2  822   0.253   2.601   1.115  0.0982  1.3045  0.8874
  275SOL     OW  823   2.394   1.617   0.709  0.2498 -0.3603  0.2501
  275SOL    HW1  824   2.423   1.523   0.729  4.0628  0.2985  0.5081
  275SOL    HW2  825   2.313   1.640   0.765  0.8276 -0.5563  1.2017
  276SOL     OW  826   0.198   0.930   2.317 -0.1247 -0.1501  0.2252
  276SOL    HW1  827   0.197   0.955   2.419  0.5093 -0.9527  5.5257
  276SOL    HW2  828   0.134   0.973   2.253  1.4136 -3.5321  0.0474
  277SOL     OW  829   1.650   2.360   1.143 -0.1046  0.0652 -0.6625
  277SOL    HW1  830   1.729   2.416   1.178  1.9384  0.1196 -1.6208
  277SOL    HW2  831   1.683   2.268   1.126 -0.5943  2.3911  3.1094
  278SOL     OW  832   1.128   0.418   1.685 -0.1010  0.2822  0.1401
  278SOL    HW1  833   1.111   0.384   1.779 -0.5195  0.7403  0.2317
  278SOL    HW2  834   1.230   0.405   1.671  1.2372 -0.2169  2.1454
  279SOL     OW  835   1.617   1.666   0.388  0.3234  0.1706 -0.4611
  279SOL    HW1  836   1.545   1.678   0.462 -0.9884  1.9767  0.0845
  279SOL    HW2  837   1.620   1.744   0.324 -2.6711  1.3421 -0.6264
  280SOL     OW  838   0.633   1.982   0.822 -0.2665  0.1432 -0.2565
  280SOL    HW1  839   0.679   1.985   0.732 -0.4553 -0.3058  0.8778
  280SOL    HW2  840   0.532   1.981   0.814 -0.1734 -0.5019  1.3454
  281SOL     OW  841   3.003   0.343   2.740 -0.1262  0.1314 -0.4945
  281SOL    HW1  842   3.020   0.427   2.682 -1.7449  1.4281  0.6239
  281SOL    HW2  843   2.968   0.264   2.690 -1.1517  2.3793  0.3360
  282SOL     OW  844   0.485   1.004   0.732 -0.8049  0.0547  0.7330
  282SOL    HW1  845   0.434   0.924   0.705  0.7955 -0.3965  0.4159
  282SOL    HW2  846   0.425   1.088   0.724  0.2195  3.0724 -0.2670
  283SOL     OW  847   1.941   1.972   0.375 -0.4946  0.0960 -0.1408
  283SOL    HW1  848   1.963   2.076   0.378  1.6571  0.7804 -0.1466
  283SOL    HW2  849   1.868   1.950   0.305 -1.1851  0.2206  1.1287
  284SOL     OW  850   1.152   1.016   0.179 -0.3561  0.4663  0.1959
  284SOL    HW1  851   1.167   1.078   0.260  0.6065  0.1921  1.6440
  284SOL    HW2  852   1.198   1.059   0.097  0.3961  1.1449 -2.3924
  285SOL     OW  853   2.331   0.639   2.802 -0.2968 -0.1343 -0.2398
  285SOL    HW1  854   2.386   0.687   2.874  1.0077  1.2232  0.2630
  285SOL    HW2  855   2.236   0.680   2.800 -0.2351 -1.2013 -0.5774
  286SOL     OW  856   1.419   2.813   1.318  0.2859  0.7150  0.2565
  286SOL    HW1  857   1.384   2.875   1.390  0.1912  2.7866  0.4148
  286SOL    HW2  858   1.495   2.860   1.266 -1.2094 -0.8742  1.0966
  287SOL     OW  859   1.044   1.262   1.061  0.2003 -0.0825 -0.2761
  287SOL    HW1  860   1.136   1.279   1.018 -2.2726 -3.3121  1.2378
  287SOL    HW2  861   1.019   1.329   1.133 -2.1995  0.1471  0.8100
  288SOL     OW  862   1.633   2.923   2.847  0.3825 -0.2730 -0.4706
  288SOL    HW1  863   1.633   2.916   2.949 -1.0015  2.7269 -2.3545
  288SOL    HW2  864   1.574   3.006   2.824 -1.1485  2.4431  1.1014
  289SOL     OW  865   0.210   1.433   1.886  0.5118 -0.4040 -0.2889
  289SOL    HW1  866   0.264   1.408   1.806  2.0229  0.9691  0.7112
  289SOL    HW2  867   0.120   1.477   1.858 -0.8221 -1.7928 -1.1485
  290SOL     OW  868   1.929   2.285   0.935  0.1289  0.1846 -0.0123
  290SOL    HW1  869   1.941   2.299   1.036 -0.2083  0.0110 -0.5547
  290SOL    HW2  870   1.939   2.185   0.915 -0.6755 -0.5222  0.1126
  291SOL     OW  871   2.317   2.354   0.020 -0.5068 -1.1277  0.4224
  291SOL    HW1  872   2.230   2.414   0.028 -2.0800  0.9295 -1.9185
  291SOL    HW2  873   2.359   2.377   3.017  1.2503  0.4178 -3.3876
  292SOL     OW  874   0.772   0.750   1.968 -0.1990  0.6909 -0.4466
  292SOL    HW1  875   0.866   0.766   1.994  1.0759  0.8329  0.9896
  292SOL    HW2  876   0.759   0.744   1.866 -0.4289  0.1153  0.3167
  293SOL     OW  877   2.032   2.847   0.881  0.1540  0.2138  0.2552
  293SOL    HW1  878   2.034   2.947   0.871  1.8938 -3.0701 -0.0123
  293SOL    HW2  879   2.105   2.804   0.826 -1.1323 -0.4535  1.2475
  294SOL     OW  880   0.359   0.393   2.518 -0.3290  0.6699 -0.5591
  294SOL    HW1  881   0.355   0.492   2.512  0.8964 -2.8638  1.8599
  294SOL    HW2  882   0.427   0.369   2.444  1.0883  2.6998  0.6795
  295SOL     OW  883   1.433   1.740   0.584 -0.0344  0.1118 -0.0874
  295SOL    HW1  884   1.442   1.742   0.687 -0.2495  2.3133 -0.5462
  295SOL    HW2  885   1.342   1.705   0.561 -0.8393  2.2758  0.6501
  296SOL     OW  886   2.378   1.922   0.435  0.6742 -0.2631  0.8134
  296SOL    HW1  887   2.475   1.910   0.456 -2.7703 -1.3962 -1.6144
  296SOL    HW2  888   2.332   1.832   0.440  0.5730  0.3179 -2.5983
  297SOL     OW  889   1.966   0.254   0.151  0.0872  0.7103  0.0634
  297SOL    HW1  890   1.874   0.296   0.133  0.9850  0.8240  2.1638
  297SOL    HW2  891   2.001   0.219   0.064  0.1223 -0.1099  2.1744
  298SOL     OW  892   1.173   2.307   2.269  0.1318 -0.4424 -0.3620
  298SOL    HW1  893   1.144   2.223   2.213 -2.0784 -2.8823  0.1996
  298SOL    HW2  894   1.208   2.375   2.207  2.7531 -2.7877  3.1443
  299SOL     OW  895   1.382   2.787   2.476  0.2303 -0.3910  0.2568
  299SOL    HW1  896   1.416   2.775   2.571 -1.5506 -1.0546  0.1611
  299SOL    HW2  897   1.431   2.717   2.414  1.2555 -3.1816 -0.3686
  300SOL     OW  898   2.191   0.040   2.599 -0.5800  0.1797 -0.6157
  300SOL    HW1  899   2.117   0.068   2.537  1.6676  0.1030  4.4180
  300SOL    HW2  900   2.276   0.083   2.579 -3.9264 -0.1254  0.0857
  301SOL     OW  901   1.460   1.265   1.716  0.2608  0.3000  0.1069
  301SOL    HW1  902   1.474   1.163   1.726 -0.0653 -1.3961 -1.2568
  301SOL    HW2  903   1.359   1.289   1.709 -1.2107 -0.5357  0.8417
  302SOL     OW  904   2.600   2.459   0.296 -0.0691  0.3925  0.0225
  302SOL    HW1  905   2.688   2.489   0.329 -1.8033  0.5670 -4.2598
  302SOL    HW2  906   2.581   2.510   0.209 -2.4090 -0.0587  0.4151
  303SOL     OW  907   2.741   2.372   2.473  0.6445 -0.4950  0.0680
  303SOL    HW1  908   2.759   2.463   2.431  0.6805  0.2909  1.2013
  303SOL    HW2  909   2.753   2.294   2.405  1.7055 -1.5115 -1.1458
  304SOL     OW  910   2.759   0.398   1.787  0.3645  0.1187 -0.0180
  304SOL    HW1  911   2.796   0.469   1.725 -1.3641  2.7250 -0.0761
  304SOL    HW2  912   2.763   0.429   1.886 -1.6727  1.1296 -0.4231
  305SOL     OW  913   0.950   1.969   1.807  0.0042  0.0103 -0.4581
  305SOL    HW1  914   1.030   1.913   1.832  1.2878 -0.2753  0.5524
  305SOL    HW2  915   0.958   2.069   1.837  1.5770  0.0081 -0.1998
  306SOL     OW  916   2.705   0.811   1.700 -0.3696 -0.0367  0.7632
  306SOL    HW1  917   2.787   0.868   1.709 -0.6527 -2.8902 -1.9446
  306SOL    HW2  918   2.669   0.777   1.788 -0.5542  1.3704 -1.4156
  307SOL     OW  919   1.709   1.114   1.970  0.2110 -1.0678  0.2971
  307SOL    HW1  920   1.687   1.044   2.038  0.2698  1.4034 -1.3778
  307SOL    HW2  921   1.716   1.074   1.876 -0.3401 -2.5890 -1.1869
  308SOL     OW  922   2.681   1.603   0.938  0.6373  0.3655 -0.5697
  308SOL    HW1  923   2.604   1.656   0.982 -0.6692  0.9605  0.3290
  308SOL    HW2  924   2.685   1.624   0.836 -2.6085 -0.0455 -0.5259
  309SOL     OW  925   2.287   1.592   1.385  0.0653  0.2622 -0.1484
  309SOL    HW1  926   2.354   1.537   1.334 -1.2749 -0.3929  1.2812
  309SOL    HW2  927   2.226   1.535   1.450  0.1043  0.8079  1.3111
  310SOL     OW  928   2.854   1.794   2.501 -0.2876  0.0457 -0.0864
  310SOL    HW1  929   2.918   1.719   2.508  1.4794 -1.8485  0.4903
  310SOL    HW2  930   2.875   1.869   2.568  0.3209  0.1309 -0.8248
  311SOL     OW  931   0.121   2.314   0.084 -0.0780 -0.5099  0.0880
  311SOL    HW1  932   0.152   2.381   0.155 -1.3916  0.6506 -1.6721
  311SOL    HW2  933   0.109   2.226   0.126 -1.3233 -0.2631 -1.0263
  312SOL     OW  934   2.231   1.483   1.061 -0.6234  0.5578  0.0563
  312SOL    HW1  935   2.235   1.586   1.064 -1.5622 -1.6359 -0.5482
  312SOL    HW2  936   2.328   1.446   1.059  2.4804 -0.8694  1.2758
  313SOL     OW  937   2.645   0.080   1.073  0.2999 -0.0277 -0.2197
  313SOL    HW1  938   2.632   0.178   1.050  1.6561  0.7197  1.5104
  313SOL    HW2  939   2.673   0.014   1.001 -1.4074  1.2190  1.7400
  314SOL     OW  940   1.256   1.523   0.266  0.7544  0.4059 -0.0036
  314SOL    HW1  941   1.228   1.480   0.184  0.9043 -0.9414  2.4547
  314SOL    HW2  942   1.287   1.614   0.252  1.6275 -3.0304  0.7107
  315SOL     OW  943   1.242   2.551   2.146 -0.5785  0.6543 -0.2321
  315SOL    HW1  944   1.239   2.632   2.206  0.1292 -0.7819  0.1723
  315SOL    HW2  945   1.336   2.503   2.140 -0.4816 -1.6626 -1.0993
  316SOL     OW  946   2.919   1.136   0.244  0.6586  0.0918  0.1029
  316SOL    HW1  947   2.825   1.174   0.236  0.2906 -0.9755  1.1780
  316SOL    HW2  948   2.949   1.137   0.338  2.2884 -1.8109 -0.0186
  317SOL     OW  949   0.941   0.021   0.372  0.5527 -0.2979  0.5211
  317SOL    HW1  950   1.040   0.025   0.375 -3.2709 -0.7697  1.4501
  317SOL    HW2  951   0.901   3.041   0.441  1.7181 -3.8911 -2.0312
  318SOL     OW  952   2.854   2.595   0.388  0.2029  0.4537 -0.2013
  318SOL    HW1  953   2.886   2.691   0.392 -0.1853 -0.2172  1.2525
  318SOL    HW2  954   2.913   2.527   0.337  0.6779 -1.2493 -0.2074
  319SOL     OW  955   0.608   1.368   2.515 -0.2707 -0.0143 -0.1762
  319SOL    HW1  956   0.559   1.379   2.599  0.5161 -0.5789 -1.4583
  319SOL    HW2  957   0.614   1.461   2.474  0.3366 -0.1388 -1.0807
  320SOL     OW  958   0.673   2.415   1.659  0.2879 -0.0505  0.2914
  320SOL    HW1  959   0.729   2.459   1.587 -0.2804 -2.1705 -0.5614
  320SOL    HW2  960   0.593   2.478   1.685 -1.3254  2.4676  0.8643
  321SOL     OW  961   1.444   2.251   2.960  0.1734 -0.5442 -0.2957
  321SOL    HW1  962   1.433   2.346   2.998  0.2566  0.8081 -1.1620
  321SOL    HW2  963   1.353   2.196   2.960 -1.0592  0.4849  0.7233
  322SOL     OW  964   2.733   1.154   2.130 -0.2450 -0.4734 -0.1094
  322SOL    HW1  965   2.670   1.188   2.194  1.3231  0.5266 -0.4871
  322SOL    HW2  966   2.826   1.144   2.171 -2.6878 -1.0414 -0.8986
  323SOL     OW  967   2.171   0.840   0.612 -0.2123 -0.6495 -0.0308
  323SOL    HW1  968   2.247   0.769   0.618 -0.6090 -3.1414 -0.6955
  323SOL    HW2  969   2.117   0.830   0.525  4.7880 -0.8997 -0.6791
  324SOL     OW  970   0.168   2.636   3.069  0.5308  0.2404 -0.5603
  324SOL    HW1  971   0.246   2.590   3.027  1.2475  0.0386  0.2548
  324SOL    HW2  972   0.112   2.686   3.006 -0.8351  2.5849  1.3405
  325SOL     OW  973   1.496   0.362   2.299 -0.4122  0.2049 -0.7125
  325SOL    HW1  974   1.587   0.380   2.253  3.0024  1.7266 -0.4985
  325SOL    HW2  975   1.420   0.352   2.236  1.0231 -0.8420  1.4222
  326SOL     OW  976   2.471   2.596   1.532 -0.6175  0.2253 -0.4587
  326SOL    HW1  977   2.504   2.685   1.576  0.3906  2.1332 -1.0754
  326SOL    HW2  978   2.424   2.532   1.596 -1.4240  0.1179  0.7515
  327SOL     OW  979   1.968   0.555   3.068  0.3830  0.3873  0.1912
  327SOL    HW1  980   1.925   0.628   3.006  1.6550 -1.1931 -1.5438
  327SOL    HW2  981   1.985   0.469   3.015  1.1977  0.4034  0.3987
  328SOL     OW  982   2.701   0.704   2.185 -0.6218  0.3068  0.6601
  328SOL    HW1  983   2.791   0.664   2.214 -1.0203  0.0229 -1.0452
  328SOL    HW2  984   2.643   0.727   2.261  2.0051 -1.8298 -1.6203
  329SOL     OW  985   1.482   0.168   1.925  0.1599  0.4698 -0.1720
  329SOL    HW1  986   1.540   0.100   1.976 -0.6289  1.0116 -2.7271
  329SOL    HW2  987   1.471   0.130   1.832 -0.1293 -0.2682  2.4496
  330SOL     OW  988   2.853   1.740   1.406  0.0684 -0.0576 -0.2034
  330SOL    HW1  989   2.951   1.736   1.385  2.0445 -0.4977 -0.6205
  330SOL    HW2  990   2.811   1.654   1.431 -0.3784 -0.0091  0.4914
  331SOL     OW  991   0.629   1.238   2.118  0.0810 -0.2297 -0.3489
  331SOL    HW1  992   0.549   1.295   2.087  1.5072 -3.5910  1.5989
  331SOL    HW2  993   0.712   1.290   2.141  1.5267 -1.2476 -2.9308
  332SOL     OW  994   0.150   2.768   1.462  0.0275 -0.0609  0.0084
  332SOL    HW1  995   0.187   2.831   1.531 -1.5458 -0.6787  0.8695
  332SOL    HW2  996   0.050   2.782   1.459  2.0612 -1.5052  1.2750
  333SOL     OW  997   2.453   2.672   1.939 -0.0917  0.0736  0.2190
  333SOL    HW1  998   2.529   2.735   1.981  2.5236  2.9417  2.2080
  333SOL    HW2  999   2.470   2.651   1.844 -0.9575 -0.5762  0.6709
  334SOL     OW 1000   1.046   1.990   0.880 -0.5513 -0.3092  0.6133
  334SOL    HW1 1001   0.954   2.018   0.914 -0.8162  0.2139  0.2875
  334SOL    HW2 1002   1.121   2.029   0.937 -0.0695  0.3080 -0.8994
  335SOL     OW 1003   0.811   2.219   2.795 -0.1335  0.5651 -0.4016
  335SOL    HW1 1004   0.709   2.224   2.791 -0.7960 -0.4504 -0.8242
  335SOL    HW2 1005   0.853   2.300   2.840 -1.2050  0.3801 -0.7972
  336SOL     OW 1006   0.084   0.139   2.047  0.7565 -0.2982  0.5168
  336SOL    HW1 1007   0.098   0.240   2.034  2.0027  2.3678  0.3263
  336SOL    HW2 1008   0.170   0.086   2.049 -0.7905 -2.1333 -1.4452
  337SOL     OW 1009   2.786   2.186   0.048  0.1822 -0.1343  0.6326
  337SOL    HW1 1010   2.737   2.165   0.140 -0.7022 -1.5118  0.9598
  337SOL    HW2 1011   2.865   2.125   0.032 -1.5647  2.9128 -1.4475
  338SOL     OW 1012   1.103   1.952   1.224  0.3659 -0.1063 -0.1895
  338SOL    HW1 1013   1.141   1.979   1.130 -1.2991 -0.1768 -4.0305
  338SOL    HW2 1014   1.040   2.026   1.268 -2.5167  1.6125  1.5362
  339SOL     OW 1015   3.045   0.167   2.319  0.1089 -0.2757  0.1827
  339SOL    HW1 1016   2.972   0.239   2.302  1.4691  3.2417 -1.3223
  339SOL    HW2 1017   3.062   0.124   2.232  2.4172  1.1937 -0.8994
  340SOL     OW 1018   1.617   2.584   0.381  0.6738  0.5100  0.3208
  340SOL    HW1 1019   1.639   2.539   0.292  2.1504  0.5404 -1.7002
  340SOL    HW2 1020   1.627   2.522   0.461  0.3188  0.1797  2.2113
  341SOL     OW 1021   1.648   1.608   1.159 -0.1928 -0.1052 -1.1140
  341SOL    HW1 1022   1.698   1.532   1.204 -1.4666 -1.3019 -1.0539
  341SOL    HW2 1023   1.612   1.575   1.071 -0.1923  0.4831  2.3471
  342SOL     OW 1024   0.237   1.714   0.485  0.4437 -0.7630  0.3102
  342SOL    HW1 1025   0.219   1.811   0.492  0.7407 -0.4391 -1.9947
  342SOL    HW2 1026   0.312   1.689   0.418  1.9517 -1.3577 -0.9324
  343SOL     OW 1027   1.340   2.554   1.365  0.4311 -0.7602  0.3495
  343SOL    HW1 1028   1.425   2.504   1.382 -0.6969  0.2520 -0.4973
  343SOL    HW2 1029   1.361   2.653   1.350 -1.1982 -0.4104 -0.0781
  344SOL     OW 1030   2.349   2.876   0.843  0.0139 -0.1155  0.5025
  344SOL    HW1 1031   2.313   2.792   0.806  0.7376 -0.0923  0.9632
  344SOL    HW2 1032   2.284   2.913   0.914 -1.6171 -0.6646  1.7738
  345SOL     OW 1033   2.811   2.343   2.742  0.4750 -0.4336 -0.4808
  345SOL    HW1 1034   2.805   2.365   2.645 -1.8005 -1.6325  1.1133
  345SOL    HW2 1035   2.906   2.368   2.782 -0.3420  0.6962  0.8473
  346SOL     OW 1036   0.349   2.005   0.822 -0.7246  0.7328 -0.2430
  346SOL    HW1 1037   0.289   1.926   0.802  2.6237 -1.7512  0.1794
  346SOL    HW2 1038   0.316   2.089   0.773 -1.5876 -0.0934 -0.5100
  347SOL     OW 1039   1.812   2.548   1.236 -0.0370  0.5581  0.5761
  347SOL    HW1 1040   1.786   2.596   1.321  2.0734  0.2726 -0.4119
  347SOL    HW2 1041   1.833   2.614   1.161 -3.1936  0.2575 -1.5544
  348SOL     OW 1042   1.288   1.546   2.597 -0.1061 -0.1439 -0.1557
  348SOL    HW1 1043   1.230   1.465   2.573  2.4368  0.6218 -0.3439
  348SOL    HW2 1044   1.237   1.629   2.566 -0.8547  1.0060  0.5413
  349SOL     OW 1045   2.206   0.806   2.157  0.2314 -0.0146 -0.4438
  349SOL    HW1 1046   2.164   0.853   2.080  1.7879 -0.2025  2.7241
  349SOL    HW2 1047   2.279   0.863   2.202 -0.1205 -1.5166  2.6589
  350SOL     OW 1048   2.733   2.574   1.432  1.0738 -0.2731  0.8052
  350SOL    HW1 1049   2.699   2.592   1.335 -2.0499  0.0440 -2.0606
  350SOL    HW2 1050   2.650   2.575   1.487 -2.5719  3.2015 -2.5581
  351SOL     OW 1051   0.651   0.323   2.780  0.1445 -0.1427 -0.2441
  351SOL    HW1 1052   0.597   0.241   2.783 -0.5496 -0.3785 -2.5617
  351SOL    HW2 1053   0.748   0.304   2.795 -0.1662 -1.5172  1.8314
  352SOL     OW 1054   0.600   2.397   1.275  0.0960 -0.0983  0.1171
  352SOL    HW1 1055   0.568   2.337   1.348 -2.8705  1.4558 -4.3014
  352SOL    HW2 1056   0.551   2.485   1.297 -1.1346  2.4888  0.2798
  353SOL     OW 1057   0.845   0.960   2.443  0.1635 -0.1915 -0.3899
  353SOL    HW1 1058   0.850   1.054   2.489  0.4424  2.9702  1.7529
  353SOL    HW2 1059   0.810   0.963   2.347 -2.9463 -1.9652 -2.4106
  354SOL     OW 1060   1.552   0.939   0.547 -0.7632 -0.0396  0.1777
  354SOL    HW1 1061   1.481   0.876   0.515 -3.1924  2.9708  0.2202
  354SOL    HW2 1062   1.559   1.011   0.479 -2.9787 -2.0859  2.5873
  355SOL     OW 1063   2.689   0.289   0.452 -0.0951 -0.0360 -0.6437
  355SOL    HW1 1064   2.620   0.221   0.412  0.5657  0.2402 -0.3281
  355SOL    HW2 1065   2.713   0.258   0.548  2.0803 -0.0104  0.5710
  356SOL     OW 1066   2.825   0.824   2.628 -0.7258 -0.1025 -0.1265
  356SOL    HW1 1067   2.915   0.787   2.585  2.5238  0.6190  1.9667
  356SOL    HW2 1068   2.812   0.925   2.629 -1.3544  1.9489 -2.3405
  357SOL     OW 1069   0.641   2.876   1.581 -0.4369  0.4417  0.2697
  357SOL    HW1 1070   0.743   2.882   1.605  1.1857 -1.6811  2.1931
  357SOL    HW2 1071   0.618   2.776   1.558 -0.3782  1.4676 -2.6911
  358SOL     OW 1072   2.419   1.404   2.444 -0.0664 -0.1809 -0.1126
  358SOL    HW1 1073   2.423   1.501   2.406  2.9220 -0.1641 -0.5579
  358SOL    HW2 1074   2.327   1.355   2.433 -4.7267 -0.2272  0.7875
  359SOL     OW 1075   2.575   2.514   2.765  0.0662  0.4894  0.3922
  359SOL    HW1 1076   2.552   2.565   2.679  1.7328 -0.7053  2.3330
  359SOL    HW2 1077   2.649   2.445   2.751 -0.1748 -2.4262 -1.0989
  360SOL     OW 1078   2.058   0.700   0.846 -0.3074  0.4189 -0.1985
  360SOL    HW1 1079   2.105   0.613   0.834  0.1654  2.9511  2.1039
  360SOL    HW2 1080   2.097   0.772   0.783  0.5296  0.5883 -0.1682
  361SOL     OW 1081   1.874   2.766   1.090 -0.0742 -0.0928  0.4970
  361SOL    HW1 1082   1.789   2.821   1.105 -2.0315  0.1449  1.1340
  361SOL    HW2 1083   1.919   2.792   0.996 -0.8649  0.7356 -1.8848
  362SOL     OW 1084   1.419   1.124   0.739 -0.4513 -0.1236 -0.4571
  362SOL    HW1 1085   1.458   1.059   0.673  0.6152  1.5853  0.5735
  362SOL    HW2 1086   1.441   1.220   0.713  1.3352 -1.5151 -2.3201
  363SOL     OW 1087   3.027   1.572   2.421 -0.1140 -0.2798 -0.1008
  363SOL    HW1 1088   3.031   1.510   2.339  1.0307  2.6573 -0.6910
  363SOL    HW2 1089   2.999   1.522   2.505 -2.2082  0.1535 -0.8559
  364SOL     OW 1090   1.172   0.633   1.503 -0.6868  0.9365 -0.3915
  364SOL    HW1 1091   1.178   0.539   1.535  2.4115  3.1499 -0.5945
  364SOL    HW2 1092   1.264   0.678   1.486 -0.9528  0.7992 -1.1258
  365SOL     OW 1093   2.936   2.899   1.233  0.3840 -0.6872  0.3880
  365SOL    HW1 1094   3.036   2.911   1.213 -0.1563  0.7331 -0.3144
  365SOL    HW2 1095   2.887   2.990   1.219  1.6908 -0.1274 -0.1105
  366SOL     OW 1096   2.802   1.390   0.340 -0.4114  0.1915  0.6613
  366SOL    HW1 1097   2.753   1.474   0.376 -1.0407 -1.2059 -1.1332
  366SOL    HW2 1098   2.855   1.412   0.255  1.1010 -2.3045 -0.5156
  367SOL     OW 1099   3.003   1.994   0.060 -1.0194 -0.1158  0.1573
  367SOL    HW1 1100   3.063   2.026   0.134  0.8275  1.7666  1.9657
  367SOL    HW2 1101   2.979   1.897   0.068  2.5944  0.3936 -1.4436
  368SOL     OW 1102   2.844   2.332   1.062 -0.5032  0.1356 -0.1419
  368SOL    HW1 1103   2.744   2.351   1.062 -1.7844  0.0131 -1.0931
  368SOL    HW2 1104   2.896   2.416   1.077  1.7160  0.7790  1.9040
  369SOL     OW 1105   0.449   0.264   0.340 -0.0305 -0.1585 -0.0900
  369SOL    HW1 1106   0.469   0.317   0.260  0.4360 -4.8785 -1.8494
  369SOL    HW2 1107   0.516   0.189   0.347 -2.4986  1.3999  0.8652
  370SOL     OW 1108   0.201   0.931   1.545 -0.3075 -0.0302  0.0065
  370SOL    HW1 1109   0.184   1.031   1.564  0.3168  3.4842 -0.5340
  370SOL    HW2 1110   0.283   0.924   1.480 -0.1609  0.4937  0.7091
  371SOL     OW 1111   2.216   2.174   0.783  0.5186 -0.7403  0.1495
  371SOL    HW1 1112   2.190   2.218   0.869 -2.0636 -0.2290 -2.0583
  371SOL    HW2 1113   2.256   2.084   0.793 -1.9489  0.2151 -0.9860
  372SOL     OW 1114   3.026   0.763   2.478  0.3964 -0.1717  0.1133
  372SOL    HW1 1115   0.025   0.798   2.513 -0.2106 -0.9607  1.4573
  372SOL    HW2 1116   3.028   0.779   2.376  2.4535  0.0889 -0.1112
  373SOL     OW 1117   2.986   1.471   0.624  0.4693 -0.6692 -0.0999
  373SOL    HW1 1118   3.027   1.437   0.539  1.2066  0.0704  2.4099
  373SOL    HW2 1119   2.889   1.440   0.622  2.6580 -1.3887  0.5102
  374SOL     OW 1120   0.590   2.239   0.128  0.3649  0.4168 -0.0637
  374SOL    HW1 1121   0.624   2.320   0.080  1.7455 -0.1231  1.1698
  374SOL    HW2 1122   0.653   2.160   0.108 -1.4046  0.4145 -0.6167
  375SOL     OW 1123   0.733   0.283   0.046  0.0209 -0.1661 -0.1415
  375SOL    HW1 1124   0.829   0.311   0.023 -0.2501 -0.7588 -0.1886
  375SOL    HW2 1125   0.707   0.192   3.086  0.6839  0.1411 -2.1959
  376SOL     OW 1126   0.345   0.003   2.012  0.4383 -0.0550 -0.5562
  376SOL    HW1 1127   0.318   3.003   1.966  0.6743 -0.5426  1.1125
  376SOL    HW2 1128   0.412   3.077   2.090  0.8581 -0.6918 -0.2249
  377SOL     OW 1129   0.763   1.803   2.344 -0.7878 -0.1585 -0.1492
  377SOL    HW1 1130   0.754   1.889   2.393 -1.9664  0.0220  0.3137
  377SOL    HW2 1131   0.761   1.811   2.244 -0.3138 -3.0352 -0.1103
  378SOL     OW 1132   1.106   0.954   0.541  0.1290  0.3503  0.1438
  378SOL    HW1 1133   1.072   0.976   0.631  2.0349  1.6498 -0.3369
  378SOL    HW2 1134   1.025   0.930   0.483 -1.9157 -2.4156  0.6656
  379SOL     OW 1135   1.103   1.490   2.867 -0.1466 -0.1022 -0.6083
  379SOL    HW1 1136   1.070   1.406   2.908 -0.6744  2.9011  1.6290
  379SOL    HW2 1137   1.204   1.485   2.875 -2.7817 -2.6919  4.2555
  380SOL     OW 1138   0.110   2.058   1.868  0.4610  0.0293  0.1989
  380SOL    HW1 1139   0.024   2.005   1.854 -0.7725 -1.8713 -2.3392
  380SOL    HW2 1140   0.150   2.108   1.788 -0.2163  0.8535  0.5616
  381SOL     OW 1141   3.082   0.827   1.972  0.3627 -0.0318  0.3192
  381SOL    HW1 1142   0.086   0.813   1.923 -0.1323 -3.0819 -2.4005
  381SOL    HW2 1143   3.026   0.745   1.959 -2.1060 -0.1807  1.6146
  382SOL     OW 1144   2.627   2.255   2.905 -0.2226 -0.1870  0.1118
  382SOL    HW1 1145   2.709   2.288   2.851 -1.5778  1.4768 -1.1300
  382SOL    HW2 1146   2.661   2.248   3.000  0.4754  0.1240  2.6519
  383SOL     OW 1147   2.343   1.927   2.316 -0.1913  0.2107 -0.0470
  383SOL    HW1 1148   2.440   1.950   2.332 -2.1945  0.0018  0.5126
  383SOL    HW2 1149   2.298   1.896   2.403  1.2947 -0.5277  0.6212
  384SOL     OW 1150   0.766   2.492   1.999  0.2318  0.1041  0.1494
  384SOL    HW1 1151   0.723   2.411   1.961 -2.4014  1.1864  1.3959
  384SOL    HW2 1152   0.721   2.577   1.968  0.4333 -1.3803  3.6150
  385SOL     OW 1153   2.619   2.014   1.069  0.3609 -0.7977  0.1468
  385SOL    HW1 1154   2.691   2.079   1.041  1.8536  1.0056  0.5409
  385SOL    HW2 1155   2.652   1.952   1.144  0.3169 -2.7240  0.0653
  386SOL     OW 1156   1.682   0.970   2.870  0.6008  0.2854  0.1340
  386SOL    HW1 1157   1.680   0.996   2.969  1.2089 -1.2463  0.8080
  386SOL    HW2 1158   1.596   0.921   2.838 -2.9708 -1.8421 -1.1271
  387SOL     OW 1159   0.231   0.825   1.808  0.1772  0.0535 -0.2735
  387SOL    HW1 1160   0.202   0.852   1.717  0.4075  1.2437  1.3217
  387SOL    HW2 1161   0.287   0.901   1.850 -1.5956 -1.2790  5.0513
  388SOL     OW 1162   2.628   0.984   1.505 -0.3718  0.0657 -0.4717
  388SOL    HW1 1163   2.640   0.922   1.582 -1.0773  0.0803  0.4130
  388SOL    HW2 1164   2.685   1.072   1.510  0.7666  1.0782  2.1080
  389SOL     OW 1165   1.738   0.863   2.541 -0.4666  0.2255  0.7859
  389SOL    HW1 1166   1.840   0.866   2.545 -0.1208 -0.3582  0.4136
  389SOL    HW2 1167   1.700   0.955   2.532  1.1715  1.9983  0.3423
  390SOL     OW 1168   2.002   2.306   0.656  0.4146 -0.0764  0.2155
  390SOL    HW1 1169   2.094   2.262   0.675  0.7778  1.9045  0.2815
  390SOL    HW2 1170   1.931   2.287   0.722  1.5211 -1.4020 -2.0476
  391SOL     OW 1171   1.725   2.829   0.748 -0.2042 -0.1720  0.1161
  391SOL    HW1 1172   1.801   2.830   0.679  1.7217 -1.0941 -1.7191
  391SOL    HW2 1173   1.711   2.728   0.783  0.7027 -0.2762  0.6510
  392SOL     OW 1174   2.638   2.769   1.672 -0.1917  0.8248  1.0585
  392SOL    HW1 1175   2.650   2.817   1.583  1.1045 -1.4922  0.9708
  392SOL    HW2 1176   2.672   2.818   1.753 -0.9603 -1.3710 -1.0312
  393SOL     OW 1177   1.895   1.819   2.831  0.2093  0.8124 -0.0135
  393SOL    HW1 1178   1.844   1.883   2.896 -1.5334  1.9269  1.5285
  393SOL    HW2 1179   1.991   1.803   2.860 -0.0656  0.5111 -1.3862
  394SOL     OW 1180   0.503   2.762   2.765 -0.3930 -0.0632 -0.2727
  394SOL    HW1 1181   0.450   2.788   2.849  2.4189 -0.2332 -1.6287
  394SOL    HW2 1182   0.445   2.717   2.697  2.7659  0.2136 -0.4493
  395SOL     OW 1183   0.894   1.523   1.111  0.2573  0.3298 -0.2866
  395SOL    HW1 1184   0.890   1.568   1.019  1.3708  1.6470  0.8205
  395SOL    HW2 1185   0.841   1.437   1.113  0.3737  3.4774 -2.5148
  396SOL     OW 1186   1.848   0.742   2.893 -0.1060 -0.1723 -0.5481
  396SOL    HW1 1187   1.812   0.689   2.816 -0.5059  2.0368 -1.7596
  396SOL    HW2 1188   1.800   0.830   2.893 -1.8637 -2.3245  2.4112
  397SOL     OW 1189   0.038   0.645   2.829  0.1339  0.1031 -0.5361
  397SOL    HW1 1190   0.027   0.582   2.751 -1.7588 -0.1365 -0.1420
  397SOL    HW2 1191   3.053   0.622   2.897  0.6076 -2.6245 -0.0951
  398SOL     OW 1192   0.989   0.594   0.510  0.0172 -0.5426 -0.1251
  398SOL    HW1 1193   0.920   0.673   0.505 -2.0480 -1.4021  1.1126
  398SOL    HW2 1194   0.974   0.529   0.432 -1.0669 -1.5868  0.9255
  399SOL     OW 1195   1.843   0.095   1.828  0.2100  0.2911 -0.4304
  399SOL    HW1 1196   1.803   0.064   1.741 -2.1464 -1.9342 -0.6472
  399SOL    HW2 1197   1.873   0.006   1.878 -2.1699  0.3439  2.4383
  400SOL     OW 1198   3.000   2.085   2.280 -0.0443  0.6009  0.4190
  400SOL    HW1 1199   3.017   2.067   2.378 -1.4206  0.2365  0.5092
  400SOL    HW2 1200   3.036   1.999   2.237  0.8004 -0.0488  1.8469
  401SOL     OW 1201   0.906   3.051   0.109  0.0999 -0.0796  0.0264
  401SOL    HW1 1202   0.813   3.059   0.059 -2.2981  3.2475  0.2038
  401SOL    HW2 1203   0.897   3.079   0.209 -1.0420  0.4865  2.2391
  402SOL     OW 1204   0.253   2.322   1.343 -0.5923  0.1051 -0.0909
  402SOL    HW1 1205   0.347   2.300   1.373 -0.9231 -1.5076  0.0824
  402SOL    HW2 1206   0.179   2.282   1.398  1.6913 -1.4268  1.1516
  403SOL     OW 1207   0.041   1.133   1.264 -0.0556 -0.4171 -0.2633
  403SOL    HW1 1208   3.039   1.180   1.279 -1.3439  0.4824 -1.8830
  403SOL    HW2 1209   0.035   1.038   1.300 -0.0189 -1.2253 -2.0627
  404SOL     OW 1210   0.178   2.478   1.972  0.3021  0.0470 -0.1005
  404SOL    HW1 1211   0.195   2.385   2.010 -1.0407  2.5516  0.7980
  404SOL    HW2 1212   0.158   2.540   2.051  0.8479 -0.3119  0.0631
  405SOL     OW 1213   2.817   0.299   2.266 -0.1115 -0.5901  0.2163
  405SOL    HW1 1214   2.787   0.210   2.230 -0.2985  1.1573 -0.1930
  405SOL    HW2 1215   2.745   0.357   2.305  2.4220 -1.3092  0.5110
  406SOL     OW 1216   1.930   2.497   0.305  0.0348  0.7596 -0.3220
  406SOL    HW1 1217   1.965   2.398   0.314 -1.7168 -1.2077 -0.0527
  406SOL    HW2 1218   1.955   2.559   0.386 -0.5982  1.2658  0.6280
  407SOL     OW 1219   1.977   1.533   0.703  0.2277 -0.0611  0.5276
  407SOL    HW1 1220   1.979   1.436   0.736  1.0182  0.1840  0.1823
  407SOL    HW2 1221   1.928   1.550   0.616  1.8455  2.3101  2.1571
  408SOL     OW 1222   0.518   0.256   2.351  0.0891 -0.2904  0.5268
  408SOL    HW1 1223   0.474   0.166   2.364 -1.3897  1.8627  2.0164
  408SOL    HW2 1224   0.581   0.262   2.273  0.1935 -3.1333 -0.5889
  409SOL     OW 1225   2.645   1.698   0.646 -0.0551 -0.0548 -0.2329
  409SOL    HW1 1226   2.556   1.656   0.684 -2.5660 -1.3276  1.0996
  409SOL    HW2 1227   2.666   1.665   0.549 -0.8090 -0.6659 -2.6628
  410SOL     OW 1228   2.113   1.322   1.261  0.0929  0.2105 -0.3082
  410SOL    HW1 1229   2.149   1.402   1.204  1.5436 -1.1101 -1.0581
  410SOL    HW2 1230   2.129   1.342   1.361  2.0633  0.9724  2.9407
  411SOL     OW 1231   3.023   0.787   0.362  0.0085 -0.2914 -0.0117
  411SOL    HW1 1232   3.078   0.714   0.400 -2.4828  1.6478  1.2234
  411SOL    HW2 1233   2.948   0.820   0.426 -0.1565 -1.0310 -4.0454
  412SOL     OW 1234   1.561   0.614   0.167 -0.1873 -0.2671 -0.0140
  412SOL    HW1 1235   1.510   0.688   0.113  1.3414 -0.1699 -0.9884
  412SOL    HW2 1236   1.640   0.652   0.227  3.1250  2.4168 -0.0884
  413SOL     OW 1237   0.549   0.833   1.648  0.1342  0.1506  0.6872
  413SOL    HW1 1238   0.511   0.870   1.736 -2.0162  1.1469 -1.8740
  413SOL    HW2 1239   0.477   0.839   1.577  1.9696 -0.6207  4.4914
  414SOL     OW 1240   0.033   1.136   2.716  0.6996 -0.3939  0.5734
  414SOL    HW1 1241   3.024   1.104   2.732 -1.2853  3.0319 -2.7021
  414SOL    HW2 1242   0.031   1.228   2.761  0.4753  0.3845  0.1564
  415SOL     OW 1243   0.263   1.588   2.946  0.4782  0.0883 -0.5608
  415SOL    HW1 1244   0.328   1.528   2.900 -1.2969  3.2667  1.5182
  415SOL    HW2 1245   0.174   1.595   2.892 -2.5527  1.7889 -0.1686
  416SOL     OW 1246   1.310   0.815   0.240 -0.7580  0.1536 -0.1348
  416SOL    HW1 1247   1.297   0.783   0.336  0.4609  0.9025 -1.6419
  416SOL    HW2 1248   1.266   0.911   0.232  0.8370  0.6275 -2.2411
  417SOL     OW 1249   0.511   0.495   0.843  0.4952 -0.2306  0.0516
  417SOL    HW1 1250   0.420   0.515   0.807  0.8035 -0.4470  1.1674
  417SOL    HW2 1251   0.587   0.526   0.785 -0.9032 -2.5406 -0.4786
  418SOL     OW 1252   2.222   0.986   2.831  0.2988 -0.0700  0.1898
  418SOL    HW1 1253   2.182   0.889   2.841  1.2688 -1.1510 -0.7722
  418SOL    HW2 1254   2.323   0.987   2.823  2.7635 -3.6510 -2.6451
  419SOL     OW 1255   0.519   0.407   0.116  0.0609 -0.5368  0.2119
  419SOL    HW1 1256   0.463   0.429   0.034 -0.3700 -1.7439  0.3751
  419SOL    HW2 1257   0.603   0.358   0.087  0.7972  0.9617 -0.9727
  420SOL     OW 1258   0.383   1.693   0.965  0.0876  0.0104  0.1370
  420SOL    HW1 1259   0.333   1.613   1.003 -0.5989  1.4615 -1.0706
  420SOL    HW2 1260   0.321   1.724   0.890  1.7726 -0.6509 -1.1814
  421SOL     OW 1261   0.406   2.028   0.118 -0.0088  0.0392  0.1828
  421SOL    HW1 1262   0.446   2.118   0.121  0.9438  0.7155 -2.7320
  421SOL    HW2 1263   0.412   1.982   0.028  0.9371  1.2416 -0.4625
  422SOL     OW 1264   2.221   0.249   1.539 -0.7536 -0.1502  0.0639
  422SOL    HW1 1265   2.295   0.312   1.562 -2.2239 -1.9606  1.1113
  422SOL    HW2 1266   2.162   0.235   1.618  1.5497 -1.9265 -1.3575
  423SOL     OW 1267   2.036   1.353   0.916  0.0369  0.7944 -0.2537
  423SOL    HW1 1268   2.098   1.404   0.976 -0.9698 -0.0153 -2.1467
  423SOL    HW2 1269   2.075   1.261   0.899 -1.3781  1.9283 -0.7738
  424SOL     OW 1270   2.042   1.581   0.129  0.1083  0.4203 -0.8753
  424SOL    HW1 1271   2.079   1.601   0.036  0.1292 -0.2031  0.7483
  424SOL    HW2 1272   2.035   1.660   0.195 -2.4962 -0.5816 -2.1774
  425SOL     OW 1273   0.443   2.850   2.431  0.0676  0.1832 -0.0949
  425SOL    HW1 1274   0.500   2.827   2.348  0.3551 -1.9196  1.1212
  425SOL    HW2 1275   0.433   2.763   2.491  0.5074 -1.6376  1.7367
  426SOL     OW 1276   2.515   2.773   2.608 -0.9126  0.0126  0.0330
  426SOL    HW1 1277   2.506   2.864   2.644  0.3752 -3.9404 -1.4319
  426SOL    HW2 1278   2.433   2.750   2.553  0.1292  1.9827  0.7071
  427SOL     OW 1279   0.434   0.924   2.114 -0.2825  0.8277  0.7764
  427SOL    HW1 1280   0.496   0.854   2.152 -0.3306 -2.4263  0.4028
  427SOL    HW2 1281   0.358   0.941   2.177  1.5009 -2.5278  3.8803
  428SOL     OW 1282   2.056   1.068   2.212 -0.6227  0.8816 -0.5208
  428SOL    HW1 1283   2.004   1.028   2.134 -0.3303 -0.7558  1.2616
  428SOL    HW2 1284   2.106   1.151   2.181  0.0906 -0.8233  0.1508
  429SOL     OW 1285   2.364   0.236   0.545 -0.2818 -0.7519  0.3123
  429SOL    HW1 1286   2.323   0.191   0.466  0.9235 -1.4020 -3.2544
  429SOL    HW2 1287   2.373   0.333   0.522 -0.6682 -2.8323  3.2968
  430SOL     OW 1288   1.727   1.356   2.095 -0.4958  0.5129 -0.4256
  430SOL    HW1 1289   1.731   1.261   2.050  1.1532 -1.7511 -1.3636
  430SOL    HW2 1290   1.637   1.396   2.079 -2.8883 -3.2813  0.3831
  431SOL     OW 1291   2.762   1.899   1.621  0.4388 -0.2712 -0.1060
  431SOL    HW1 1292   2.804   1.844   1.544  0.0395 -0.1613 -4.6267
  431SOL    HW2 1293   2.663   1.919   1.604 -2.5053  2.6022  0.1805
  432SOL     OW 1294   1.131   2.666   1.764 -0.3000  0.8177  0.0472
  432SOL    HW1 1295   1.109   2.603   1.686  0.1427 -0.4077  2.3945
  432SOL    HW2 1296   1.101   2.614   1.845  0.7817 -0.8472 -1.3495
  433SOL     OW 1297   1.609   2.901   1.144  0.0597 -0.4940 -0.1807
  433SOL    HW1 1298   1.633   2.996   1.118  3.2344 -0.5646  0.4354
  433SOL    HW2 1299   1.533   2.875   1.080 -0.8139 -1.8486  0.4286
  434SOL     OW 1300   0.548   2.264   2.146  0.0241  0.0990  0.1310
  434SOL    HW1 1301   0.580   2.218   2.061 -1.4119  0.1204  0.8243
  434SOL    HW2 1302   0.488   2.210   2.199  0.8383  1.4551 -0.2929
  435SOL     OW 1303   0.328   1.452   0.095 -0.4701  0.0649  0.5696
  435SOL    HW1 1304   0.298   1.517   0.024 -2.9879  0.3350 -0.3843
  435SOL    HW2 1305   0.284   1.364   0.074 -0.3772  0.1277 -2.4636
  436SOL     OW 1306   0.684   1.220   1.839  0.4040  0.0227  0.1858
  436SOL    HW1 1307   0.690   1.308   1.786  3.6443  0.9350  0.1078
  436SOL    HW2 1308   0.690   1.244   1.941  1.3171 -0.9700 -0.3517
  437SOL     OW 1309   1.135   0.634   2.910 -0.0680  0.1286  0.2768
  437SOL    HW1 1310   1.153   0.636   3.010  0.2758 -1.8734  0.1427
  437SOL    HW2 1311   1.218   0.586   2.870 -1.4223 -0.6712  0.2586
  438SOL     OW 1312   0.536   1.996   1.572  0.1676 -0.3411 -0.0325
  438SOL    HW1 1313   0.503   1.994   1.471  0.8326 -1.3171  0.7349
  438SOL    HW2 1314   0.617   1.936   1.588 -1.3037 -0.5891 -1.9400
  439SOL     OW 1315   2.131   1.790   2.959  0.2858  0.0975 -0.2519
  439SOL    HW1 1316   2.138   1.815   3.057 -0.7487  3.0062 -1.8336
  439SOL    HW2 1317   2.154   1.691   2.950  1.0977 -0.0428 -1.1731
  440SOL     OW 1318   1.290   0.464   0.580 -0.6954  0.4630 -0.1918
  440SOL    HW1 1319   1.319   0.434   0.675 -0.2186 -0.1628 -1.2594
  440SOL    HW2 1320   1.195   0.493   0.579  0.6593 -0.0660 -0.8864
  441SOL     OW 1321   0.490   2.618   1.364  0.2002 -0.1656  0.4605
  441SOL    HW1 1322   0.489   2.622   1.464 -1.6343 -0.5481 -1.0522
  441SOL    HW2 1323   0.431   2.694   1.329  2.0634  0.1880  0.3781
  442SOL     OW 1324   2.406   2.411   0.890 -0.1538  0.0262  0.2240
  442SOL    HW1 1325   2.308   2.423   0.899  2.8612 -1.5346  0.4057
  442SOL    HW2 1326   2.429   2.353   0.806 -2.8685 -1.2967 -1.3978
  443SOL     OW 1327   2.381   0.743   2.564 -0.4038 -0.4649 -0.8596
  443SOL    HW1 1328   2.340   0.836   2.561 -0.5094  0.9569 -1.6625
  443SOL    HW2 1329   2.353   0.688   2.642  0.2262  2.0687 -2.4362
  444SOL     OW 1330   1.488   0.709   2.410  0.0883 -0.2623 -0.0740
  444SOL    HW1 1331   1.569   0.723   2.471  0.9048 -0.8733  2.7369
  444SOL    HW2 1332   1.511   0.703   2.312 -0.4193  1.2982  0.0842
  445SOL     OW 1333   2.796   2.314   1.755 -0.1306 -0.0377 -0.0246
  445SOL    HW1 1334   2.824   2.247   1.825 -0.9447  3.2400  0.7359
  445SOL    HW2 1335   2.763   2.401   1.791 -2.0793 -1.6636  0.5211
  446SOL     OW 1336   0.103   1.484   0.404  0.1436  0.2271  0.3903
  446SOL    HW1 1337   0.162   1.535   0.476  0.8462  0.3521 -0.0829
  446SOL    HW2 1338   0.070   1.547   0.330  1.8770  1.6769 -2.7255
  447SOL     OW 1339   0.973   2.364   0.791  0.1480 -0.1855  0.3076
  447SOL    HW1 1340   0.920   2.424   0.849  0.9200 -0.8983  0.9618
  447SOL    HW2 1341   0.916   2.289   0.757  0.3893 -0.9122  1.7574
  448SOL     OW 1342   1.672   1.602   1.532  0.2083  0.3767  0.0349
  448SOL    HW1 1343   1.710   1.539   1.603  0.9788 -0.1205  1.4658
  448SOL    HW2 1344   1.597   1.554   1.483  1.6529 -1.7637  1.7482
  449SOL     OW 1345   0.774   1.859   2.709  0.5948  0.1454 -0.1128
  449SOL    HW1 1346   0.781   1.893   2.800  0.9466 -0.5106 -2.5275
  449SOL    HW2 1347   0.826   1.772   2.704  1.2349  1.8993  0.5720
  450SOL     OW 1348   0.068   1.915   2.125 -0.1993 -0.8916  0.1281
  450SOL    HW1 1349   0.130   1.846   2.082  0.3791  0.4129 -2.4071
  450SOL    HW2 1350   0.056   1.995   2.063  0.9204 -0.2933  0.0981
  451SOL     OW 1351   1.870   0.451   1.640 -0.8796  0.1450  0.0360
  451SOL    HW1 1352   1.886   0.383   1.564  1.1254  0.7460  1.6123
  451SOL    HW2 1353   1.928   0.534   1.630  2.0427  2.2734 -0.3360
  452SOL     OW 1354   0.973   2.801   1.311 -0.0095 -0.1237 -0.3896
  452SOL    HW1 1355   1.012   2.706   1.290  2.5027  0.2677 -0.6778
  452SOL    HW2 1356   0.883   2.818   1.263  1.0575  1.8391  0.1532
  453SOL     OW 1357   1.128   1.741   0.858  0.8920 -0.5200 -0.3923
  453SOL    HW1 1358   1.221   1.730   0.905  3.5917 -0.7639  2.3854
  453SOL    HW2 1359   1.100   1.839   0.875  0.8361  1.7669  2.1159
  454SOL     OW 1360   3.050   1.024   0.588  0.3232  0.6471  0.4602
  454SOL    HW1 1361   0.049   0.976   0.560 -2.2007  1.0355 -0.6173
  454SOL    HW2 1362   3.072   1.117   0.633 -1.1573 -0.4659 -0.1707
  455SOL     OW 1363   0.678   1.090   0.557 -0.0700 -0.1010 -0.4789
  455SOL    HW1 1364   0.613   1.134   0.493  1.5931 -0.2557  1.2954
  455SOL    HW2 1365   0.634   1.042   0.629  2.7985 -1.4142 -2.2819
  456SOL     OW 1366   2.136   2.466   0.904 -0.2708 -0.5540 -0.3452
  456SOL    HW1 1367   2.173   2.477   0.999  0.4835 -1.9763 -1.7523
  456SOL    HW2 1368   2.055   2.406   0.907 -4.3999 -2.3670 -0.1193
  457SOL     OW 1369   1.412   2.469   0.056 -0.5043  0.3836 -0.0534
  457SOL    HW1 1370   1.355   2.534   0.113  0.5350  2.2406  0.4015
  457SOL    HW2 1371   1.512   2.455   0.100  1.7067 -0.9281  1.2595
  458SOL     OW 1372   2.916   0.051   0.096 -0.1835 -0.4721  0.0808
  458SOL    HW1 1373   2.827   0.001   0.095 -2.1687 -0.6366  0.7522
  458SOL    HW2 1374   2.961   0.042   0.001 -1.8602 -1.2550 -3.6945
  459SOL     OW 1375   2.096   0.132   1.743 -0.3237  0.0297 -0.0122
  459SOL    HW1 1376   2.106   0.043   1.693  2.9081 -1.6620  0.8882
  459SOL    HW2 1377   2.000   0.147   1.774  0.1316  0.1438 -3.2683
  460SOL     OW 1378   0.025   0.502   0.155 -0.1204 -0.0436 -0.3204
  460SOL    HW1 1379   0.081   0.470   0.078 -0.3300  1.8547  0.6491
  460SOL    HW2 1380   3.036   0.439   0.168  2.2456  1.0348  3.0342
  461SOL     OW 1381   3.067   2.127   1.050  0.6114  0.0458  0.5581
  461SOL    HW1 1382   3.072   2.085   0.954  0.4127 -0.5578 -2.6141
  461SOL    HW2 1383   2.995   2.196   1.057  2.7865 -3.0153  1.3288
  462SOL     OW 1384   3.029   0.102   0.976 -0.0012 -0.4703  0.1395
  462SOL    HW1 1385   0.028   0.153   0.963  2.4387  0.6039  0.1601
  462SOL    HW2 1386   2.994   0.123   1.067 -1.6053  0.2272 -1.1486
  463SOL     OW 1387   2.349   1.379   2.939 -0.0985  0.3775  0.1065
  463SOL    HW1 1388   2.324   1.296   2.994  1.0438  1.2648 -0.4902
  463SOL    HW2 1389   2.425   1.362   2.875  0.6288 -0.8098 -1.1651
  464SOL     OW 1390   0.711   2.789   1.222 -0.4360 -0.3274 -0.0716
  464SOL    HW1 1391   0.618   2.819   1.185 -1.4101 -1.0650  2.9980
  464SOL    HW2 1392   0.701   2.693   1.244 -1.3539  1.2089  1.4662
  465SOL     OW 1393   0.781   0.553   1.128 -0.1732  0.0095  0.3020
  465SOL    HW1 1394   0.790   0.517   1.221  0.8119 -2.1820 -1.0247
  465SOL    HW2 1395   0.690   0.595   1.117  2.3282 -1.0157  0.0466
  466SOL     OW 1396   1.494   2.355   2.151 -0.3595 -0.5524  0.2069
  466SOL    HW1 1397   1.569   2.404   2.103 -1.7216 -1.2309 -0.0594
  466SOL    HW2 1398   1.531   2.304   2.232  0.2377  0.0233 -1.1931
  467SOL     OW 1399   0.877   0.209   2.015  0.2727 -0.2364 -0.1640
  467SOL    HW1 1400   0.954   0.256   2.062  0.8777  3.1521  3.5005
  467SOL    HW2 1401   0.902   0.189   1.919  2.0777 -0.6025  0.4921
  468SOL     OW 1402   3.001   1.070   2.428  0.3940 -0.0999  0.0424
  468SOL    HW1 1403   2.995   1.060   2.328 -1.3158 -1.6959  1.1437
  468SOL    HW2 1404   0.008   1.088   2.459 -1.9402  0.9029 -1.0528
  469SOL     OW 1405   1.121   2.535   0.373  0.1959  0.3789  0.0931
  469SOL    HW1 1406   1.128   2.440   0.340  3.5010  2.3317 -2.5959
  469SOL    HW2 1407   1.110   2.548   0.475  0.4948  1.1468 -1.2312
  470SOL     OW 1408   2.185   1.283   2.240 -0.0140 -0.0928  0.0954
  470SOL    HW1 1409   2.214   1.358   2.179 -1.3903 -2.5680  0.1045
  470SOL    HW2 1410   2.161   1.318   2.338 -2.6148  0.0114  2.3326
  471SOL     OW 1411   0.931   2.400   2.950 -0.5974 -0.5603  0.0319
  471SOL    HW1 1412   0.991   2.341   3.001  0.5951  1.3787 -2.5175
  471SOL    HW2 1413   0.977   2.492   2.927  1.9909  0.3834 -2.5447
  472SOL     OW 1414   0.452   2.496   1.997  0.6357 -0.2792 -0.2062
  472SOL    HW1 1415   0.494   2.418   2.025 -2.9051  3.4290 -0.2831
  472SOL    HW2 1416   0.354   2.474   1.986 -0.6307 -0.2100 -0.6881
  473SOL     OW 1417   0.928   3.022   2.866  0.7341 -0.0164 -0.2675
  473SOL    HW1 1418   1.009   2.979   2.822 -0.0058  0.6030  1.7893
  473SOL    HW2 1419   0.929   3.014   2.967 -1.6024 -0.7048 -0.5863
  474SOL     OW 1420   1.602   0.257   0.723 -0.6053 -0.0713 -0.3463
  474SOL    HW1 1421   1.614   0.237   0.623  0.4809  1.2560 -3.0030
  474SOL    HW2 1422   1.690   0.254   0.777  3.2025  1.2052  0.6876
  475SOL     OW 1423   1.440   0.357   1.317 -0.0688  0.5101  0.1965
  475SOL    HW1 1424   1.375   0.402   1.254  0.4305  0.5728  0.4244
  475SOL    HW2 1425   1.535   0.362   1.285 -1.3926  1.6274  1.0869
  476SOL     OW 1426   0.193   0.958   1.022 -0.0313  0.2591  0.2118
  476SOL    HW1 1427   0.116   0.999   1.073  2.1847 -0.7121 -0.1748
  476SOL    HW2 1428   0.249   1.034   0.984 -1.4545  0.4324  0.5723
  477SOL     OW 1429   1.130   2.085   0.591  0.8990 -0.1531  0.2135
  477SOL    HW1 1430   1.221   2.132   0.603  0.7517  1.2154 -0.1358
  477SOL    HW2 1431   1.082   2.060   0.678  0.4259  2.4402  0.2918
  478SOL     OW 1432   0.345   2.489   2.273 -0.4601  0.1392  0.2014
  478SOL    HW1 1433   0.353   2.409   2.334 -0.6417  0.3465  2.1554
  478SOL    HW2 1434   0.397   2.471   2.184  0.1476 -0.8737 -0.3188
  479SOL     OW 1435   2.884   0.359   1.361 -0.4266  0.4563 -0.1147
  479SOL    HW1 1436   2.791   0.386   1.330  0.8764  0.2481 -0.7003
  479SOL    HW2 1437   2.940   0.441   1.367  0.9907  4.0895  1.1195
  480SOL     OW 1438   2.971   2.400   0.215 -0.0321  0.0931 -0.0498
  480SOL    HW1 1439   3.043   2.348   0.165 -0.2071 -0.5198 -3.0187
  480SOL    HW2 1440   2.929   2.470   0.155 -1.6236  0.0754 -0.2626
  481SOL     OW 1441   2.616   2.013   1.993  1.0362 -0.4867 -0.2285
  481SOL    HW1 1442   2.562   1.997   1.907 -0.6054 -1.7859  1.1433
  481SOL    HW2 1443   2.578   2.095   2.044 -2.5171  1.1391 -1.2172
  482SOL     OW 1444   1.494   1.892   2.422 -0.6440  0.1611 -0.0314
  482SOL    HW1 1445   1.418   1.848   2.372  3.1232 -0.2173  1.2465
  482SOL    HW2 1446   1.464   1.943   2.507  1.3385  0.2851 -0.7066
  483SOL     OW 1447   0.901   1.615   1.553 -0.0851  0.6803  0.0920
  483SOL    HW1 1448   0.983   1.635   1.496 -0.1991 -0.6888 -1.8457
  483SOL    HW2 1449   0.844   1.544   1.505 -2.7265 -3.6076 -1.3284
  484SOL     OW 1450   0.332   0.498   1.593 -0.4488 -0.3408 -0.4748
  484SOL    HW1 1451   0.420   0.452   1.571 -0.7465 -0.3108  0.4808
  484SOL    HW2 1452   0.333   0.533   1.688  0.3977 -2.6534  0.7455
  485SOL     OW 1453   2.216   1.164   3.043  0.4558 -0.8271 -0.1406
  485SOL    HW1 1454   2.167   1.119   2.962 -0.6452 -0.5189 -1.3537
  485SOL    HW2 1455   2.264   1.093   0.009  1.2171 -0.1304 -4.4153
  486SOL     OW 1456   1.392   0.019   1.379  0.3061 -0.4476 -0.4200
  486SOL    HW1 1457   1.292   0.028   1.378  1.2287  2.5946  2.2523
  486SOL    HW2 1458   1.432   0.104   1.339 -2.1608 -2.2298 -1.2669
  487SOL     OW 1459   0.500   2.254   1.496  0.3110 -0.0536 -0.2618
  487SOL    HW1 1460   0.543   2.330   1.548  0.0775  0.2624  0.4297
  487SOL    HW2 1461   0.517   2.164   1.543  1.0292  0.9077  0.6395
  488SOL     OW 1462   2.461   2.023   2.926  0.6936  0.3055  0.1185
  488SOL    HW1 1463   2.381   1.998   2.865  2.4133  1.2505 -0.8963
  488SOL    HW2 1464   2.493   2.116   2.905  0.3653 -1.4452  3.4930
  489SOL     OW 1465   2.109   0.007   0.558  0.4585  0.1644 -0.3182
  489SOL    HW1 1466   2.055   3.019   0.525 -0.7210  1.1284 -0.6933
  489SOL    HW2 1467   2.208   3.075   0.553 -0.1819  0.3748  0.3495
  490SOL     OW 1468   1.214   2.145   2.995  0.5006  0.2319 -0.5369
  490SOL    HW1 1469   1.175   2.051   2.991  1.1659 -0.2395 -1.2600
  490SOL    HW2 1470   1.154   2.206   3.049 -2.6401 -0.6452 -1.9737
  491SOL     OW 1471   0.614   1.429   1.681 -0.6016  0.1479  0.3579
  491SOL    HW1 1472   0.516   1.453   1.679  1.2692  0.3927 -0.8234
  491SOL    HW2 1473   0.661   1.429   1.587  0.6305  0.3791 -3.1447
  492SOL     OW 1474   1.216   1.025   1.901  0.3848  0.5483 -0.3992
  492SOL    HW1 1475   1.121   1.041   1.865 -0.4471 -0.0943 -2.4222
  492SOL    HW2 1476   1.267   1.112   1.910 -0.0037  1.3270 -1.4876
  493SOL     OW 1477   2.161   1.687   0.838 -0.5059 -0.0733  0.9548
  493SOL    HW1 1478   2.125   1.764   0.895 -1.5885 -0.5612 -2.4491
  493SOL    HW2 1479   2.083   1.627   0.809  1.8091 -1.0113  0.1099
  494SOL     OW 1480   0.654   1.759   0.955  0.6192  0.0841  0.3239
  494SOL    HW1 1481   0.559   1.738   0.979 -0.8291 -0.7218 -0.4574
  494SOL    HW2 1482   0.667   1.843   0.893  1.9069  1.7494 -0.2419
  495SOL     OW 1483   2.212   2.676   0.742  0.7727  0.1239  0.3356
  495SOL    HW1 1484   2.258   2.631   0.663  0.7001  0.2805  0.5799
  495SOL    HW2 1485   2.164   2.596   0.789  2.6384 -0.3126 -3.1721
  496SOL     OW 1486   2.635   2.948   1.465  0.0003 -0.2663 -0.4557
  496SOL    HW1 1487   2.679   3.041   1.478  1.5117 -0.5153  1.0230
  496SOL    HW2 1488   2.537   2.964   1.478  1.5143  0.9098  2.3738
  497SOL     OW 1489   2.361   1.016   2.546  0.6773  0.2577 -0.1421
  497SOL    HW1 1490   2.385   1.025   2.448 -0.7012  1.6148  1.6090
  497SOL    HW2 1491   2.278   1.069   2.574  2.4622  1.5978  0.7349
  498SOL     OW 1492   0.036   2.220   1.488 -0.3502  0.3474 -0.4068
  498SOL    HW1 1493   0.036   2.145   1.419  3.7277 -0.5691 -0.6575
  498SOL    HW2 1494   3.026   2.259   1.493 -2.9771 -0.0198  0.2453
  499SOL     OW 1495   1.051   2.510   1.974  0.3598 -0.2209 -0.3107
  499SOL    HW1 1496   0.954   2.522   2.004  0.3878 -0.5006 -0.3811
  499SOL    HW2 1497   1.117   2.529   2.048 -0.1249 -0.5138 -0.7589
  500SOL     OW 1498   1.035   2.248   0.405  0.2877 -0.2068  0.1755
  500SOL    HW1 1499   0.949   2.299   0.410  1.9203 -1.5582  2.8347
  500SOL    HW2 1500   1.063   2.217   0.498 -0.2636 -0.8964  0.8604
  501SOL     OW 1501   1.792   2.917   1.338  0.3928  0.6963  0.0044
  501SOL    HW1 1502   1.716   2.906   1.269  0.4140 -0.4678 -2.2310
  501SOL    HW2 1503   1.811   2.828   1.383 -1.9630  0.1821  0.7003
  502SOL     OW 1504   2.401   0.443   1.641  0.3953  0.1117 -0.0212
  502SOL    HW1 1505   2.312   0.458   1.691  0.7587 -0.5175  2.1234
  502SOL    HW2 1506   2.458   0.369   1.686 -2.4139 -2.1792 -0.2961
  503SOL     OW 1507   2.617   1.227   2.364  0.4899  0.5569 -0.5831
  503SOL    HW1 1508   2.566   1.309   2.395 -2.9819 -1.5211  0.7331
  503SOL    HW2 1509   2.551   1.150   2.344  0.4077 -2.1743 -0.6331
  504SOL     OW 1510   1.499   1.072   1.345  0.1680 -0.0676  0.3190
  504SOL    HW1 1511   1.558   0.997   1.323  1.7933  4.4615 -0.9884
  504SOL    HW2 1512   1.423   1.085   1.280  0.8623 -0.2326  2.5069
  505SOL     OW 1513   0.483   3.053   1.470  0.4574  0.0899  0.9375
  505SOL    HW1 1514   0.549   2.995   1.524  2.4488 -2.4972 -0.2125
  505SOL    HW2 1515   0.418   2.989   1.418  1.7162 -0.9241 -1.7641
  506SOL     OW 1516   0.191   0.229   0.212 -0.2420  0.7578 -0.2959
  506SOL    HW1 1517   0.172   0.290   0.130  0.0489  2.4897 -0.2388
  506SOL    HW2 1518   0.280   0.255   0.249 -0.1659  0.7841 -1.5123
  507SOL     OW 1519   2.665   2.906   0.255 -0.1855  0.0187  0.5563
  507SOL    HW1 1520   2.748   2.862   0.299  2.0811  1.7330  1.6041
  507SOL    HW2 1521   2.680   2.901   0.151  0.6393 -0.8313 -1.4000
  508SOL     OW 1522   1.081   0.436   1.968 -0.2655 -0.2647  0.1822
  508SOL    HW1 1523   1.067   0.408   2.064  0.5959  0.2410 -1.9551
  508SOL    HW2 1524   1.030   0.522   1.949 -0.9177  1.5247  2.5400
  509SOL     OW 1525   1.688   1.863   1.263  0.1537  0.5406  0.7007
  509SOL    HW1 1526   1.604   1.888   1.316 -1.0760  0.3788 -0.5033
  509SOL    HW2 1527   1.667   1.782   1.202 -0.8954 -1.6498 -0.6194
  510SOL     OW 1528   2.326   0.948   1.596 -0.2234  0.0829  0.2112
  510SOL    HW1 1529   2.428   0.937   1.597  3.5139 -1.8462  1.1710
  510SOL    HW2 1530   2.280   0.903   1.514 -0.3101 -1.7846 -1.1504
  511SOL     OW 1531   1.398   1.952   1.306 -0.2835  0.5868  0.1109
  511SOL    HW1 1532   1.449   1.992   1.387  1.2308 -0.8889  0.2930
  511SOL    HW2 1533   1.318   2.002   1.280  2.3426 -1.4599  1.1951
  512SOL     OW 1534   0.059   1.246   0.685 -0.2169 -0.4744 -0.1020
  512SOL    HW1 1535   0.114   1.237   0.597  0.3419  0.1502 -1.9361
  512SOL    HW2 1536   0.015   1.338   0.692 -0.9043  1.7988 -0.7580
  513SOL     OW 1537   0.000   1.390   3.003  0.1338  0.6186  0.2118
  513SOL    HW1 1538   0.023   1.412   2.905 -0.6130 -1.9293 -2.6033
  513SOL    HW2 1539   3.002   1.442   3.035  1.6516  3.3661  0.1905
  514SOL     OW 1540   2.740   2.156   2.312 -0.4302 -0.4129 -0.4431
  514SOL    HW1 1541   2.835   2.133   2.290  1.3642  1.7170 -1.0649
  514SOL    HW2 1542   2.701   2.071   2.336 -1.4514  3.4487 -2.4543
  515SOL     OW 1543   2.165   1.118   0.656 -0.3911 -0.2496 -0.6072
  515SOL    HW1 1544   2.182   1.138   0.755 -2.7358 -2.2023  3.3516
  515SOL    HW2 1545   2.182   1.017   0.636  1.5010 -4.5870  1.1264
  516SOL     OW 1546   2.393   2.877   0.044 -0.5272  0.2009  0.1971
  516SOL    HW1 1547   2.486   2.877   0.086  1.9865  0.3915  2.4405
  516SOL    HW2 1548   2.389   2.807   3.062 -1.5912  2.1629  3.4870
  517SOL     OW 1549   1.108   1.922   2.663  0.0925 -0.7826 -0.3665
  517SOL    HW1 1550   1.045   1.994   2.636  0.2694 -2.4330 -0.3743
  517SOL    HW2 1551   1.078   1.840   2.609 -2.3113 -1.5329  0.5322
  518SOL     OW 1552   0.390   0.024   2.357 -0.0521 -0.3137 -0.1722
  518SOL    HW1 1553   0.427   3.019   2.385 -1.6684 -1.6466  1.2899
  518SOL    HW2 1554   0.305   0.053   2.403 -0.9728  1.5368 -1.1255
  519SOL     OW 1555   0.710   1.484   2.795 -0.1377  0.5118  0.6245
  519SOL    HW1 1556   0.787   1.527   2.748 -3.9085 -1.8286  0.7824
  519SOL    HW2 1557   0.741   1.416   2.863  0.0664 -0.9136  0.9050
  520SOL     OW 1558   2.986   2.345   2.158 -0.0004  0.0274  0.2772
  520SOL    HW1 1559   3.010   2.265   2.214 -0.4958 -0.5115  0.3760
  520SOL    HW2 1560   3.069   2.407   2.138 -0.5095 -1.7826  0.7594
  521SOL     OW 1561   0.796   2.178   2.297  0.1340  0.4440  0.2474
  521SOL    HW1 1562   0.741   2.140   2.375  2.9628  0.0878 -2.2676
  521SOL    HW2 1563   0.735   2.222   2.226 -1.8167  3.3812  0.9970
  522SOL     OW 1564   1.841   2.821   1.703  0.2816  0.8259 -0.2045
  522SOL    HW1 1565   1.875   2.878   1.777 -2.9914 -1.1194 -0.5502
  522SOL    HW2 1566   1.740   2.838   1.693  0.2400  0.8372 -0.6818
  523SOL     OW 1567   2.091   2.012   1.856 -0.4941 -0.1298  0.5729
  523SOL    HW1 1568   2.177   2.008   1.916 -0.8212  0.8264  0.6775
  523SOL    HW2 1569   2.006   1.979   1.904  0.8732 -0.1192 -2.3315
  524SOL     OW 1570   0.448   2.681   0.308 -0.0620  0.0654 -0.5424
  524SOL    HW1 1571   0.457   2.606   0.237 -0.7137 -0.9080  2.1288
  524SOL    HW2 1572   0.472   2.639   0.399 -0.4834  1.4367  1.0756
  525SOL     OW 1573   0.167   0.625   0.343  0.4721  0.0987 -0.8088
  525SOL    HW1 1574   0.099   0.579   0.278 -2.4915  0.0814  0.9652
  525SOL    HW2 1575   0.192   0.556   0.413  0.3043 -2.0951  0.6984
  526SOL     OW 1576   0.796   2.972   0.563  0.1685  0.2521  0.7749
  526SOL    HW1 1577   0.699   2.940   0.535 -2.7045 -3.7397 -1.8763
  526SOL    HW2 1578   0.799   3.006   0.660 -0.1514 -2.3491 -1.9745
  527SOL     OW 1579   2.080   1.721   1.242 -0.0735 -0.2098  0.7073
  527SOL    HW1 1580   2.004   1.745   1.307 -1.1099 -0.6962  1.2596
  527SOL    HW2 1581   2.152   1.664   1.281 -1.6533  0.8335 -0.1020
  528SOL     OW 1582   2.843   2.693   2.350 -0.1983  0.1677  0.0635
  528SOL    HW1 1583   2.754   2.729   2.318 -0.6449  0.3199  0.5123
  528SOL    HW2 1584   2.927   2.739   2.322 -2.3232  0.0309  1.8126
  529SOL     OW 1585   1.330   1.748   2.254 -0.6485  0.3061  0.0710
  529SOL    HW1 1586   1.282   1.829   2.219  2.0293 -2.5431  1.6309
  529SOL    HW2 1587   1.404   1.716   2.183  3.5339 -1.2543 -2.4102
  530SOL     OW 1588   1.300   1.134   3.084  0.8905  0.7543  0.0990
  530SOL    HW1 1589   1.375   1.202   0.004 -0.8516 -2.1498 -1.6863
  530SOL    HW2 1590   1.312   1.073   3.001 -2.6015  1.5978  1.2291
  531SOL     OW 1591   0.518   1.215   2.939 -0.2776  0.4207 -0.2409
  531SOL    HW1 1592   0.449   1.217   3.009  2.2721  2.3655  0.6077
  531SOL    HW2 1593   0.502   1.140   2.877 -0.5099 -0.0931  2.3662
  532SOL     OW 1594   1.716   1.336   0.566 -0.0127  0.2778  0.1087
  532SOL    HW1 1595   1.771   1.249   0.560 -1.1290 -0.9187 -0.6954
  532SOL    HW2 1596   1.767   1.417   0.529  0.4797 -1.7201  2.4749
  533SOL     OW 1597   0.765   0.210   2.474 -0.0211  0.0706 -0.0559
  533SOL    HW1 1598   0.676   0.251   2.456  4.0870 -0.3077  1.6936
  533SOL    HW2 1599   0.832   0.290   2.483 -0.8290  1.1598  0.0027
  534SOL     OW 1600   1.016   2.629   2.820 -0.0560 -0.6893 -0.2526
  534SOL    HW1 1601   0.942   2.695   2.836 -1.1106 -2.3124 -0.2222
  534SOL    HW2 1602   1.099   2.670   2.864  1.7252 -1.2484  1.6769
  535SOL     OW 1603   0.351   3.085   0.046  1.1160 -0.2663 -0.1990
  535SOL    HW1 1604   0.330   3.015   0.118 -1.4616  1.2052  0.7356
  535SOL    HW2 1605   0.308   0.088   0.070 -1.7959  0.5007 -0.1178
  536SOL     OW 1606   2.979   0.675   2.216  0.3217  0.4831  0.2187
  536SOL    HW1 1607   3.030   0.721   2.140 -0.3023  0.0901  0.0241
  536SOL    HW2 1608   3.031   0.590   2.250 -0.3406 -1.4031 -0.0107
  537SOL     OW 1609   1.106   0.096   1.309  0.1090 -0.3823  0.2273
  537SOL    HW1 1610   1.136   0.022   1.241  1.4301 -3.6008 -0.8500
  537SOL    HW2 1611   1.073   0.178   1.260 -3.0442 -1.4860  1.9894
  538SOL     OW 1612   0.429   1.631   0.310 -0.1989  0.2765  0.4398
  538SOL    HW1 1613   0.399   1.559   0.243  1.6138 -0.8502 -0.3825
  538SOL    HW2 1614   0.520   1.618   0.351  0.4687  1.2531 -2.1522
  539SOL     OW 1615   2.446   1.017   1.989 -0.1576 -0.3208 -0.1397
  539SOL    HW1 1616   2.381   0.963   1.936  0.2744  0.8227  1.4795
  539SOL    HW2 1617   2.486   1.094   1.934 -0.8942  3.0088  3.2011
  540SOL     OW 1618   2.207   1.501   2.049  0.4235  0.0945  0.3730
  540SOL    HW1 1619   2.115   1.471   2.023  0.5771  2.0613 -1.1189
  540SOL    HW2 1620   2.209   1.593   2.086 -0.7212 -1.0283 -3.2283
  541SOL     OW 1621   0.721   1.437   1.432 -0.8298  0.1502 -0.0218
  541SOL    HW1 1622   0.759   1.344   1.407 -1.2207  1.1274 -0.5982
  541SOL    HW2 1623   0.652   1.474   1.363 -2.0957 -2.8822  0.0072
  542SOL     OW 1624   1.741   0.456   2.224 -0.0502  0.2816  0.1644
  542SOL    HW1 1625   1.782   0.443   2.314 -0.6472  0.0935 -1.3679
  542SOL    HW2 1626   1.784   0.399   2.156 -1.1779  0.1037  0.9170
  543SOL     OW 1627   0.812   0.218   0.532  0.1348  0.2080 -0.6059
  543SOL    HW1 1628   0.856   0.242   0.622 -1.8992 -2.2174  0.5151
  543SOL    HW2 1629   0.859   0.142   0.488  1.5002 -0.7821 -0.3462
  544SOL     OW 1630   2.659   1.895   2.314  0.5115 -0.4105  0.8935
  544SOL    HW1 1631   2.666   1.845   2.227 -0.9502  1.2929 -1.4873
  544SOL    HW2 1632   2.731   1.872   2.379 -0.1714  1.1600  0.2099
  545SOL     OW 1633   1.800   2.209   1.952 -0.5030  0.2381  0.6736
  545SOL    HW1 1634   1.850   2.280   1.999  0.5895  0.3807 -1.3175
  545SOL    HW2 1635   1.761   2.251   1.865  0.8766 -0.8626 -0.5357
  546SOL     OW 1636   0.408   2.844   3.000  0.8674  0.5401 -0.0447
  546SOL    HW1 1637   0.340   2.800   3.061 -1.9674  1.2496 -1.1903
  546SOL    HW2 1638   0.408   2.944   3.017 -1.1609  0.2920 -2.3721
  547SOL     OW 1639   2.024   0.813   0.388  0.2474  0.1167 -0.9321
  547SOL    HW1 1640   2.010   0.725   0.335 -0.7863 -2.0667  0.4902
  547SOL    HW2 1641   1.950   0.880   0.385 -3.0368 -1.9919  0.2575
  548SOL     OW 1642   2.251   1.832   2.546  0.3518  0.2708 -0.6881
  548SOL    HW1 1643   2.238   1.895   2.629 -0.0102  1.9399 -1.2280
  548SOL    HW2 1644   2.319   1.756   2.562 -2.0735  2.6075 -1.5495
  549SOL     OW 1645   1.960   0.424   0.632  0.1326 -0.4849  0.0986
  549SOL    HW1 1646   1.948   0.363   0.551 -0.8175  0.0880  1.7173
  549SOL    HW2 1647   1.907   0.509   0.620  1.3000  0.3904  2.8005
  550SOL     OW 1648   2.543   2.183   0.718 -0.1380 -0.1236  0.4511
  550SOL    HW1 1649   2.490   2.098   0.727  0.4513  0.9696  1.5461
  550SOL    HW2 1650   2.530   2.227   0.622  0.3638  1.3549 -1.7193
  551SOL     OW 1651   0.949   0.182   1.525 -0.2625 -0.0936  0.8054
  551SOL    HW1 1652   1.029   0.178   1.460 -1.0812 -2.0971 -1.8823
  551SOL    HW2 1653   0.876   0.125   1.486  1.0825  0.5286  0.6930
  552SOL     OW 1654   0.117   2.527   2.676 -0.6936  0.4942 -0.4964
  552SOL    HW1 1655   0.041   2.570   2.731  1.2129 -2.8919 -0.3626
  552SOL    HW2 1656   0.081   2.478   2.595  0.1433  0.5399 -2.1058
  553SOL     OW 1657   0.562   2.915   0.438 -0.4001  0.6196 -0.3139
  553SOL    HW1 1658   0.472   2.937   0.480  0.1841 -1.2797 -0.2920
  553SOL    HW2 1659   0.542   2.840   0.373 -1.2071 -1.0900 -2.0950
  554SOL     OW 1660   2.122   2.276   1.770  0.0635 -0.1970  0.1607
  554SOL    HW1 1661   2.088   2.185   1.801 -0.7853 -0.6272  2.0029
  554SOL    HW2 1662   2.072   2.305   1.686 -0.7055  0.7381 -1.6409
  555SOL     OW 1663   1.301   2.184   1.733 -0.0606 -0.7047  0.4819
  555SOL    HW1 1664   1.229   2.154   1.669  1.1407  1.9790 -0.5120
  555SOL    HW2 1665   1.365   2.108   1.747 -1.9873  1.6335  0.2889
  556SOL     OW 1666   1.393   1.476   1.228 -0.0059 -0.4019  0.3432
  556SOL    HW1 1667   1.313   1.537   1.227  1.5830 -0.3835  0.1067
  556SOL    HW2 1668   1.475   1.527   1.191  0.4222  1.9223 -0.7092
  557SOL     OW 1669   1.949   2.277   2.216  0.4608  0.2526  0.0898
  557SOL    HW1 1670   2.029   2.272   2.151  1.4660  0.9520 -0.3848
  557SOL    HW2 1671   1.974   2.232   2.302  0.5579 -0.3159 -1.8618
  558SOL     OW 1672   0.611   0.138   1.936 -0.3644 -0.1477  0.3185
  558SOL    HW1 1673   0.547   0.175   2.003  1.0364 -2.3633 -0.1977
  558SOL    HW2 1674   0.669   0.213   1.911 -1.5005  2.2385  0.7271
  559SOL     OW 1675   2.245   2.983   1.179 -0.2827 -0.1240  0.2638
  559SOL    HW1 1676   2.342   2.957   1.192 -0.1016 -2.1837 -1.7703
  559SOL    HW2 1677   2.237   3.061   1.119  2.3808 -1.2950  0.1021
  560SOL     OW 1678   0.790   2.385   0.358 -0.1155 -0.2061  0.5454
  560SOL    HW1 1679   0.771   2.470   0.302 -1.3677  2.0414 -2.5014
  560SOL    HW2 1680   0.693   2.357   0.391 -2.3122  1.4871 -1.5930
  561SOL     OW 1681   1.039   0.346   0.041 -0.0595 -0.7180 -0.1964
  561SOL    HW1 1682   1.085   0.426   0.005  0.5108  2.1699 -0.1069
  561SOL    HW2 1683   0.989   0.381   0.122 -1.3694  2.8928  0.6235
  562SOL     OW 1684   0.906   0.214   2.802  0.2724 -0.2673 -0.5183
  562SOL    HW1 1685   0.884   0.140   2.864 -0.7820  0.8878  1.0987
  562SOL    HW2 1686   0.953   0.177   2.722 -0.8585 -0.3146  0.3857
  563SOL     OW 1687   1.501   1.944   2.849  0.2347 -0.0130 -0.0914
  563SOL    HW1 1688   1.584   2.005   2.871 -1.0040  1.0765  0.7670
  563SOL    HW2 1689   1.434   1.986   2.786 -2.0101  1.6313 -1.7940
  564SOL     OW 1690   2.790   1.039   0.652  0.2435  0.3239  0.6537
  564SOL    HW1 1691   2.750   0.947   0.668 -0.7751 -0.5452  0.2877
  564SOL    HW2 1692   2.887   1.037   0.616  0.3156 -2.7368 -0.3341
  565SOL     OW 1693   1.248   0.191   2.855  0.2908  0.0574 -0.2181
  565SOL    HW1 1694   1.191   0.146   2.928  0.4781 -2.0724  1.0265
  565SOL    HW2 1695   1.301   0.267   2.894  0.1610  0.1729 -0.3930
  566SOL     OW 1696   1.319   0.336   2.077 -0.4611  0.2652 -0.1403
  566SOL    HW1 1697   1.230   0.367   2.044 -1.6310 -1.1845  0.7431
  566SOL    HW2 1698   1.370   0.273   2.014  0.8366 -0.0094  0.2472
  567SOL     OW 1699   2.535   1.368   0.723  0.1722 -0.1451 -0.8524
  567SOL    HW1 1700   2.494   1.292   0.673 -0.6848 -0.6605 -2.5321
  567SOL    HW2 1701   2.630   1.378   0.692 -0.4530 -0.7862  1.8446
  568SOL     OW 1702   1.828   1.928   0.647 -0.0288 -0.0353 -0.1390
  568SOL    HW1 1703   1.896   1.929   0.573  0.0255  0.0714 -0.2003
  568SOL    HW2 1704   1.737   1.889   0.618 -0.1997 -0.8661 -2.2383
  569SOL     OW 1705   2.132   1.520   2.921 -0.2598 -0.3158  0.2121
  569SOL    HW1 1706   2.060   1.448   2.916 -1.5034 -0.0598 -2.7041
  569SOL    HW2 1707   2.229   1.482   2.923 -0.4772  0.3473  0.4034
  570SOL     OW 1708   0.314   2.856   1.851  0.3971 -0.5021 -0.2391
  570SOL    HW1 1709   0.411   2.886   1.838 -1.9873  0.9391  0.5230
  570SOL    HW2 1710   0.260   2.884   1.774  1.3752 -0.2629  1.3788
  571SOL     OW 1711   0.173   0.169   2.476 -0.1637 -0.7372 -0.2707
  571SOL    HW1 1712   0.090   0.181   2.414 -1.1604 -1.2546 -0.8418
  571SOL    HW2 1713   0.208   0.258   2.503 -0.9153 -2.1290 -0.8154
  572SOL     OW 1714   0.886   1.612   0.835  0.4645  0.0734 -0.4612
  572SOL    HW1 1715   0.816   1.683   0.860 -1.9198  1.3129  0.4341
  572SOL    HW2 1716   0.980   1.649   0.845 -0.0468  0.1674  0.3954
  573SOL     OW 1717   1.279   2.288   0.249 -0.1682  0.2295  0.4020
  573SOL    HW1 1718   1.318   2.303   0.156  0.5151  0.7451 -0.2300
  573SOL    HW2 1719   1.326   2.339   0.329  0.6536  0.1944  1.5661
  574SOL     OW 1720   0.864   0.047   0.924  0.4215  0.1948 -0.1616
  574SOL    HW1 1721   0.839   0.080   1.017 -1.7330  2.1676  2.0730
  574SOL    HW2 1722   0.923   3.054   0.929 -2.8200 -0.1315 -1.3839
  575SOL     OW 1723   2.932   0.951   1.368  0.4564 -0.4475 -0.4337
  575SOL    HW1 1724   2.882   0.929   1.280 -0.2647  0.2795  0.8955
  575SOL    HW2 1725   2.894   1.025   1.424  0.3595 -0.0535  0.0816
  576SOL     OW 1726   1.779   0.041   1.584 -0.3956  0.0941  0.2748
  576SOL    HW1 1727   1.807   0.119   1.523  1.6063 -1.7016 -1.1113
  576SOL    HW2 1728   1.779   3.041   1.528 -1.9560 -0.7011  1.0798
  577SOL     OW 1729   3.056   1.030   2.153 -0.4364 -0.5434 -0.2316
  577SOL    HW1 1730   3.057   0.952   2.084  1.2316 -2.0642 -2.2922
  577SOL    HW2 1731   0.026   1.106   2.115  0.2920 -1.5376 -0.3994
  578SOL     OW 1732   1.919   0.219   2.675  0.7704  0.0614 -0.0493
  578SOL    HW1 1733   1.855   0.188   2.752 -1.1591 -2.1097 -1.9521
  578SOL    HW2 1734   1.921   0.155   2.594  0.6189  3.4222 -0.2639
  579SOL     OW 1735   2.312   1.985   2.007 -0.4500 -0.3719 -0.0952
  579SOL    HW1 1736   2.326   1.903   1.954 -0.7011  2.6464  2.5550
  579SOL    HW2 1737   2.385   2.002   2.077  2.2841  0.8365  1.2149
  580SOL     OW 1738   1.917   1.344   2.851 -0.2889 -0.6906 -0.7811
  580SOL    HW1 1739   1.845   1.412   2.838  1.8059 -0.0542  1.9416
  580SOL    HW2 1740   1.892   1.257   2.801 -0.2204 -0.3465 -3.9654
  581SOL     OW 1741   1.288   0.985   2.835 -0.0039  0.2008  0.1663
  581SOL    HW1 1742   1.356   0.909   2.856  0.4451 -2.3757  1.2095
  581SOL    HW2 1743   1.228   0.943   2.764  2.2667 -0.7506  1.6028
  582SOL     OW 1744   0.881   2.059   1.402  0.6914 -0.3079 -0.3479
  582SOL    HW1 1745   0.814   2.052   1.326  1.1903 -0.2867 -2.3321
  582SOL    HW2 1746   0.847   2.000   1.481 -0.4023 -0.8254  0.1679
  583SOL     OW 1747   1.321   1.101   1.138 -0.2495 -0.6814  0.0642
  583SOL    HW1 1748   1.310   1.022   1.083 -0.1903  1.2017  2.8081
  583SOL    HW2 1749   1.335   1.192   1.093  0.8183  2.3741 -2.8428
  584SOL     OW 1750   1.649   2.455   0.608 -0.0899  0.6140  0.1950
  584SOL    HW1 1751   1.678   2.352   0.609  1.4352 -5.3492 -0.3191
  584SOL    HW2 1752   1.676   2.508   0.692 -0.8950  3.3011 -0.6929
  585SOL     OW 1753   2.381   2.694   2.938 -0.6547 -0.6278  0.7791
  585SOL    HW1 1754   2.444   2.645   2.875 -0.4727  1.9307 -0.5467
  585SOL    HW2 1755   2.296   2.723   2.886  0.7207  1.9422 -0.3281
  586SOL     OW 1756   2.777   2.157   0.858  0.0343 -0.6094 -0.0314
  586SOL    HW1 1757   2.705   2.173   0.793  0.8369  0.4703 -0.0082
  586SOL    HW2 1758   2.795   2.234   0.921 -0.6955  1.5428  0.3713
  587SOL     OW 1759   0.985   1.650   3.085  0.1963  0.0365  0.2190
  587SOL    HW1 1760   1.017   1.704   3.005 -0.5753 -0.1820 -0.6559
  587SOL    HW2 1761   1.037   1.566   0.014 -1.0470 -0.4128  0.1847
  588SOL     OW 1762   0.412   0.074   1.074 -0.2232 -0.4955  0.2704
  588SOL    HW1 1763   0.351   0.096   1.152  2.6652  0.4936 -2.2560
  588SOL    HW2 1764   0.465   0.159   1.050 -0.7891 -1.3303  0.1732
  589SOL     OW 1765   1.100   0.682   0.750 -0.3104  0.6750  0.3930
  589SOL    HW1 1766   1.061   0.627   0.829  0.6289  1.5934  0.5676
  589SOL    HW2 1767   1.049   0.661   0.661  0.5584  0.7149 -1.9592
  590SOL     OW 1768   2.079   2.467   0.045 -0.4323  0.1499 -0.4347
  590SOL    HW1 1769   1.997   2.449   0.100 -1.6395 -1.5567  1.5536
  590SOL    HW2 1770   2.059   2.520   3.046 -1.1228  0.8460  0.9707
  591SOL     OW 1771   0.592   2.371   2.473  0.3705  0.8778  0.0724
  591SOL    HW1 1772   0.636   2.396   2.563  0.1302 -1.8143 -0.1527
  591SOL    HW2 1773   0.661   2.400   2.403  0.6166 -0.5839 -1.7127
  592SOL     OW 1774   3.059   1.407   2.136  0.1927 -0.5952 -0.7662
  592SOL    HW1 1775   0.004   1.318   2.094  0.2764 -2.6136 -0.6569
  592SOL    HW2 1776   2.963   1.432   2.103 -3.4488 -1.7120 -0.5595
  593SOL     OW 1777   1.794   1.386   1.284 -0.2950 -0.2123  0.6552
  593SOL    HW1 1778   1.885   1.381   1.326  1.1910  1.6515 -3.2289
  593SOL    HW2 1779   1.717   1.367   1.343 -1.8137  1.0266 -1.6963
  594SOL     OW 1780   2.662   1.209   2.856 -0.5366  0.6455 -0.3120
  594SOL    HW1 1781   2.657   1.250   2.948  2.1530  1.0923  2.8148
  594SOL    HW2 1782   2.754   1.175   2.825  1.9307  1.0925 -0.9405
  595SOL     OW 1783   0.881   0.932   0.374  0.5192 -0.2735  0.7337
  595SOL    HW1 1784   0.812   0.991   0.423  1.2190 -1.0270  1.0442
  595SOL    HW2 1785   0.830   0.873   0.305 -2.9492 -0.2803 -2.5742
  596SOL     OW 1786   2.839   1.311   1.271  0.4475  0.0551  0.3365
  596SOL    HW1 1787   2.807   1.311   1.174 -0.0480  0.2555 -1.7569
  596SOL    HW2 1788   2.897   1.392   1.281  2.1052  0.1510 -1.9530
  597SOL     OW 1789   1.004   2.309   1.372  0.4535  0.3382  0.0467
  597SOL    HW1 1790   0.974   2.337   1.278  0.5382  0.7534 -0.1658
  597SOL    HW2 1791   0.945   2.235   1.408 -2.0130  1.5203  0.5311
  598SOL     OW 1792   2.346   2.431   1.704 -0.2032  0.0855 -0.2439
  598SOL    HW1 1793   2.251   2.405   1.734 -2.0381  1.2713  2.2067
  598SOL    HW2 1794   2.406   2.349   1.710 -1.0997 -1.5316 -3.6756
  599SOL     OW 1795   0.456   1.452   2.770  0.1905  0.7827 -0.0467
  599SOL    HW1 1796   0.545   1.503   2.760 -0.6715  0.1212  2.9382
  599SOL    HW2 1797   0.472   1.379   2.839 -1.6159 -1.0973  2.3620
  600SOL     OW 1798   0.683   0.594   3.009 -0.0978  0.2205  0.3813
  600SOL    HW1 1799   0.769   0.548   2.971  0.5798  0.9784  0.6308
  600SOL    HW2 1800   0.667   0.563   0.018 -0.6390 -1.6005  1.3101
  601SOL     OW 1801   0.342   0.566   1.868  0.6069 -0.3552 -0.0123
  601SOL    HW1 1802   0.300   0.655   1.858 -0.5144  0.3433  0.0216
  601SOL    HW2 1803   0.418   0.569   1.932  0.8433 -0.0852 -1.2494
  602SOL     OW 1804   0.279   2.384   0.458 -0.2092  0.7341 -0.0214
  602SOL    HW1 1805   0.243   2.430   0.542 -0.4907  0.1406 -0.9363
  602SOL    HW2 1806   0.266   2.443   0.376 -2.1056 -1.1511  2.0149
  603SOL     OW 1807   1.405   2.884   2.013  0.6045 -0.4873 -0.6011
  603SOL    HW1 1808   1.300   2.881   2.032 -2.0410  2.4442 -2.0847
  603SOL    HW2 1809   1.455   2.802   2.049  0.1733  2.8771 -0.1641
  604SOL     OW 1810   0.312   2.243   2.982 -0.1381 -0.1421 -0.9036
  604SOL    HW1 1811   0.258   2.214   2.898  1.0618 -0.0816  0.9885
  604SOL    HW2 1812   0.264   2.250   3.068 -0.6578 -0.6946 -0.1550
  605SOL     OW 1813   1.975   1.183   1.781  0.2412  0.5083 -0.5993
  605SOL    HW1 1814   1.894   1.193   1.719  1.8759 -0.5672  1.0930
  605SOL    HW2 1815   2.061   1.211   1.730 -0.4422  0.1367 -0.0023
  606SOL     OW 1816   0.720   0.794   2.844 -0.2848 -0.1818 -0.1165
  606SOL    HW1 1817   0.682   0.732   2.916 -2.6418  1.0157 -3.1904
  606SOL    HW2 1818   0.809   0.838   2.872  0.6262  5.2107 -0.7218
  607SOL     OW 1819   0.824   0.841   1.377 -0.1974  0.0808  0.0007
  607SOL    HW1 1820   0.788   0.750   1.398  0.5506 -1.1460  0.2869
  607SOL    HW2 1821   0.753   0.906   1.339 -0.9925  2.5881  1.7203
  608SOL     OW 1822   2.941   1.954   1.814  0.5233 -0.5745 -0.1284
  608SOL    HW1 1823   2.911   2.023   1.879 -0.2286 -1.0254 -1.1723
  608SOL    HW2 1824   2.880   1.950   1.729 -0.8326  0.8229  0.1250
  609SOL     OW 1825   2.288   0.143   0.310 -0.1656 -0.1866 -0.1262
  609SOL    HW1 1826   2.306   0.228   0.252  0.8330  2.7600 -2.0158
  609SOL    HW2 1827   2.258   0.058   0.263  2.7822  1.0880  0.2783
  610SOL     OW 1828   2.957   2.737   1.466  0.1401  0.3316  0.0247
  610SOL    HW1 1829   2.957   2.816   1.407 -3.4401 -0.2040  2.9245
  610SOL    HW2 1830   2.870   2.686   1.453  1.2850  1.2359 -0.0297
  611SOL     OW 1831   1.726   2.176   0.097  0.3541  0.5354 -0.5865
  611SOL    HW1 1832   1.726   2.103   0.165  2.3466  2.1075 -2.0884
  611SOL    HW2 1833   1.755   2.151   0.003 -0.7432 -1.8831 -0.2661
  612SOL     OW 1834   0.483   0.192   1.639  0.1486  0.2781  0.2309
  612SOL    HW1 1835   0.439   0.107   1.601 -0.9992 -0.4060 -0.0417
  612SOL    HW2 1836   0.514   0.252   1.561  0.5455  1.6997 -4.3670
  613SOL     OW 1837   3.068   2.020   0.802 -0.0736  0.2934  0.5589
  613SOL    HW1 1838   3.064   2.114   0.757  1.5583  0.2721  1.0782
  613SOL    HW2 1839   2.982   1.964   0.786  1.6174 -4.7578 -1.5813
  614SOL     OW 1840   1.607   0.392   1.785  0.1805  0.0630  0.2221
  614SOL    HW1 1841   1.683   0.360   1.720  3.5564 -0.1046 -4.3466
  614SOL    HW2 1842   1.570   0.310   1.832  2.3799 -0.3517  0.1647
  615SOL     OW 1843   1.469   1.379   0.680 -0.1031  0.5066  0.5252
  615SOL    HW1 1844   1.570   1.381   0.655 -0.3685 -2.0200  0.5226
  615SOL    HW2 1845   1.411   1.388   0.596  0.0955 -0.2332 -1.9673
  616SOL     OW 1846   1.858   1.553   0.433  0.0156 -0.2077 -0.7236
  616SOL    HW1 1847   1.773   1.609   0.420  0.6743 -1.7346 -0.1548
  616SOL    HW2 1848   1.938   1.607   0.398  0.7022 -0.6560  0.2557
  617SOL     OW 1849   1.481   0.823   0.042  0.2547  0.7805  0.1643
  617SOL    HW1 1850   1.418   0.840   0.124 -2.4036  2.1132  2.8402
  617SOL    HW2 1851   1.566   0.877   0.049 -1.5158 -0.6657 -0.2256
  618SOL     OW 1852   0.542   0.701   2.217  0.0596 -0.2340  0.9308
  618SOL    HW1 1853   0.574   0.644   2.142 -0.6910  3.1102  1.2885
  618SOL    HW2 1854   0.610   0.700   2.291 -1.7153  0.9331 -1.1485
  619SOL     OW 1855   3.012   1.503   1.243  0.4135 -0.6197 -0.4502
  619SOL    HW1 1856   0.016   1.543   1.277  3.3129  0.9201  1.0087
  619SOL    HW2 1857   3.014   1.495   1.142 -4.3993  1.7873 -2.2919
  620SOL     OW 1858   2.181   2.728   2.759  0.2966  0.1178 -0.5997
  620SOL    HW1 1859   2.185   2.743   2.659  1.9687 -1.0352 -3.0713
  620SOL    HW2 1860   2.129   2.803   2.809 -3.3657  1.9094  4.1411
  621SOL     OW 1861   2.910   1.727   0.067  0.4348  0.4773  0.5199
  621SOL    HW1 1862   2.880   1.645   0.019 -3.2583  2.3532 -1.5707
  621SOL    HW2 1863   2.830   1.773   0.112  1.3001 -0.9410  0.3128
  622SOL     OW 1864   1.506   0.149   2.481 -0.3266 -0.3754 -0.0000
  622SOL    HW1 1865   1.431   0.084   2.491 -0.4408  2.8834 -0.6153
  622SOL    HW2 1866   1.475   0.225   2.418 -1.0810  0.0441 -1.3253
  623SOL     OW 1867   0.825   2.327   1.148  0.5090  0.7863  0.3310
  623SOL    HW1 1868   0.734   2.353   1.189 -2.2939 -0.6233 -0.3130
  623SOL    HW2 1869   0.868   2.405   1.094  4.1369  1.6451 -0.0897
  624SOL     OW 1870   0.096   2.836   2.852 -0.6194  0.3193 -0.5955
  624SOL    HW1 1871   0.038   2.760   2.823  2.4378  0.5864  2.1986
  624SOL    HW2 1872   0.166   2.863   2.781 -1.8668  1.4006 -1.0569
  625SOL     OW 1873   0.760   1.913   0.576 -0.2983 -0.0558  0.1481
  625SOL    HW1 1874   0.855   1.882   0.564  0.6689  0.6673 -0.5960
  625SOL    HW2 1875   0.708   1.894   0.491  1.9643 -0.6215  0.5418
  626SOL     OW 1876   2.872   0.569   3.002 -0.4413  0.6737  0.2943
  626SOL    HW1 1877   2.889   0.484   3.054 -1.4461  0.6155  1.5801
  626SOL    HW2 1878   2.808   0.561   2.923 -0.6966  0.2433 -2.6195
  627SOL     OW 1879   1.362   1.823   3.057 -0.1026 -0.4102  0.4766
  627SOL    HW1 1880   1.425   1.864   2.990  1.3626  0.4711  0.4036
  627SOL    HW2 1881   1.268   1.839   3.025 -0.4866 -1.8277  0.4699
  628SOL     OW 1882   0.001   2.312   2.888 -0.2670 -0.0791  0.4240
  628SOL    HW1 1883   0.046   2.350   2.967  0.4918  1.8935 -2.5114
  628SOL    HW2 1884   0.067   2.323   2.806  2.0263  1.6026 -1.7019
  629SOL     OW 1885   0.988   2.928   2.501  0.1170 -0.5216  0.4946
  629SOL    HW1 1886   1.008   2.856   2.432 -5.6511 -0.5962  0.0917
  629SOL    HW2 1887   0.997   3.026   2.468  0.3959  2.3165 -3.3077
  630SOL     OW 1888   1.317   0.784   1.820 -0.0460  0.6120  0.0469
  630SOL    HW1 1889   1.241   0.730   1.785  0.5302  2.3893  1.9521
  630SOL    HW2 1890   1.286   0.880   1.848  0.6035  0.7140  1.4991
  631SOL     OW 1891   1.788   0.981   0.373 -0.2295  0.6431 -0.2985
  631SOL    HW1 1892   1.829   1.012   0.460 -0.2010 -0.2181 -1.4678
  631SOL    HW2 1893   1.696   1.019   0.355 -1.1698 -0.2617  0.6631
  632SOL     OW 1894   2.539   0.263   1.786 -0.2317 -0.1782  0.5043
  632SOL    HW1 1895   2.632   0.294   1.822  3.1280  3.1640 -1.1922
  632SOL    HW2 1896   2.534   0.161   1.788 -0.3446  1.8169  0.0902
  633SOL     OW 1897   0.969   1.336   0.283 -0.2675  0.1530 -0.0951
  633SOL    HW1 1898   0.953   1.428   0.319  0.9095  0.5053  2.0433
  633SOL    HW2 1899   1.050   1.289   0.324 -2.5327 -0.1158 -0.6777
  634SOL     OW 1900   2.327   2.715   2.396  0.1144  0.4573  0.2352
  634SOL    HW1 1901   2.314   2.618   2.374 -1.8230  2.0479  1.9505
  634SOL    HW2 1902   2.246   2.749   2.448 -1.9970 -0.7707  0.6060
  635SOL     OW 1903   1.742   0.672   0.377 -0.0728  0.4180  0.0938
  635SOL    HW1 1904   1.665   0.620   0.427 -1.2508  1.0661  1.9984
  635SOL    HW2 1905   1.734   0.773   0.390 -1.6630  0.4552 -0.0187
  636SOL     OW 1906   0.596   1.486   0.939 -0.2093 -0.0331 -0.1165
  636SOL    HW1 1907   0.511   1.478   0.879  0.0152 -3.8267 -2.5223
  636SOL    HW2 1908   0.627   1.582   0.932 -1.2493  0.2085  0.7985
  637SOL     OW 1909   2.681   2.104   0.287 -0.0249  0.0877 -0.3552
  637SOL    HW1 1910   2.736   2.064   0.363  2.6258  0.7040 -1.4281
  637SOL    HW2 1911   2.634   2.188   0.320 -0.1141 -2.5052 -0.3726
  638SOL     OW 1912   1.526   2.650   2.302 -0.1071  0.0991 -0.1130
  638SOL    HW1 1913   1.515   2.666   2.199 -4.4643 -1.2204 -0.9021
  638SOL    HW2 1914   1.588   2.571   2.321  1.0313  1.4775 -0.0629
  639SOL     OW 1915   1.497   2.003   0.474 -0.1131  0.6062 -0.3708
  639SOL    HW1 1916   1.413   2.032   0.423  0.6728 -0.4081 -3.1022
  639SOL    HW2 1917   1.472   1.925   0.531 -2.2704 -0.5602 -0.0777
  640SOL     OW 1918   1.942   0.200   0.434 -0.2800 -0.2983  0.0532
  640SOL    HW1 1919   2.018   0.138   0.467  0.2973 -0.0425  0.7653
  640SOL    HW2 1920   1.959   0.215   0.335 -1.4805  0.7980 -0.4404
  641SOL     OW 1921   2.953   0.037   0.525  0.0494 -0.2811 -0.0509
  641SOL    HW1 1922   2.937   0.103   0.602  1.2374  0.0117 -1.1626
  641SOL    HW2 1923   2.991   0.084   0.441 -0.0119 -0.5101  2.9625
  642SOL     OW 1924   0.562   0.402   1.476  0.4741 -0.0834 -0.0746
  642SOL    HW1 1925   0.654   0.432   1.508  0.6474 -0.2405  0.0985
  642SOL    HW2 1926   0.550   0.426   1.378  1.3704  2.1531 -0.3657
  643SOL     OW 1927   0.491   1.157   2.369  0.3670 -0.3727 -0.1345
  643SOL    HW1 1928   0.526   1.237   2.421 -0.2977  0.7138  1.4743
  643SOL    HW2 1929   0.527   1.170   2.274  2.1948  0.8295  1.9103
  644SOL     OW 1930   1.394   2.391   0.487  0.2934 -0.1424  0.2246
  644SOL    HW1 1931   1.326   2.466   0.513 -0.3854  0.8238  3.3577
  644SOL    HW2 1932   1.472   2.386   0.554  1.3191 -2.1155 -0.1297
  645SOL     OW 1933   1.692   1.933   0.263  0.2760  0.2535  0.0158
  645SOL    HW1 1934   1.655   1.881   0.177 -0.5810 -2.6183  1.1942
  645SOL    HW2 1935   1.611   1.957   0.321  1.0451  1.7120  2.5445
  646SOL     OW 1936   0.054   1.457   2.756  0.2488  0.0480  0.0524
  646SOL    HW1 1937   0.136   1.438   2.695  3.6094  0.6139 -0.8383
  646SOL    HW2 1938   3.060   1.463   2.700  2.3826 -2.3776  1.8091
  647SOL     OW 1939   0.815   0.210   1.150 -0.0373 -0.4724  0.9937
  647SOL    HW1 1940   0.789   0.166   1.238  1.8913 -0.7806  0.7095
  647SOL    HW2 1941   0.906   0.261   1.159  0.5843  0.7029  0.8586
  648SOL     OW 1942   1.401   0.709   1.361  0.1794  0.3206 -0.7079
  648SOL    HW1 1943   1.350   0.727   1.279  1.3902 -1.9693  2.3677
  648SOL    HW2 1944   1.491   0.755   1.367 -2.3420 -1.1537 -0.4127
  649SOL     OW 1945   0.905   1.626   0.330 -0.1866 -0.6720  0.1045
  649SOL    HW1 1946   0.891   1.673   0.241 -0.4146 -1.2840  0.7446
  649SOL    HW2 1947   0.930   1.697   0.395  1.2917  0.0651 -1.9714
  650SOL     OW 1948   2.705   1.623   2.240 -0.1907 -0.2995  0.1579
  650SOL    HW1 1949   2.739   1.677   2.160  1.4193 -1.5688 -0.6655
  650SOL    HW2 1950   2.756   1.641   2.326 -1.5911  2.4143  1.9740
  651SOL     OW 1951   1.516   2.321   2.656 -0.1242  0.4405 -0.0040
  651SOL    HW1 1952   1.498   2.285   2.747  3.1464 -0.7556  0.0363
  651SOL    HW2 1953   1.432   2.312   2.596  0.3296  0.8958 -1.0803
  652SOL     OW 1954   2.667   1.827   0.176  0.6526  0.5991 -0.5046
  652SOL    HW1 1955   2.572   1.825   0.142  1.6869  0.1155  1.2400
  652SOL    HW2 1956   2.681   1.915   0.213  0.3691 -3.5591  0.0319
  653SOL     OW 1957   0.185   0.210   0.973  0.0835 -0.5238 -0.0346
  653SOL    HW1 1958   0.257   0.138   0.981 -0.2312 -0.0008 -0.0846
  653SOL    HW2 1959   0.200   0.287   1.040 -1.3694  3.6829 -0.7597
  654SOL     OW 1960   2.737   0.063   2.175  0.4425  0.2189 -0.4763
  654SOL    HW1 1961   2.707   0.035   2.266  2.7223 -0.1420  0.8866
  654SOL    HW2 1962   2.661   0.058   2.109  0.3823  0.0373  1.1508
  655SOL     OW 1963   0.570   2.842   0.841  0.3455 -0.4201 -0.0600
  655SOL    HW1 1964   0.493   2.803   0.788  3.7518  0.5645 -2.0116
  655SOL    HW2 1965   0.591   2.937   0.804 -0.3434  1.0136  2.8248
  656SOL     OW 1966   3.056   2.871   2.277 -0.0572 -0.1446  0.1575
  656SOL    HW1 1967   3.035   2.933   2.200 -0.5310 -0.5329  0.2466
  656SOL    HW2 1968   3.063   2.917   2.368 -0.7490 -0.8856 -0.6756
  657SOL     OW 1969   2.520   0.791   2.962 -0.0167  0.0134 -0.4393
  657SOL    HW1 1970   2.530   0.851   2.882  1.2773 -0.2396 -1.1190
  657SOL    HW2 1971   2.612   0.787   3.010  1.3285  1.3336 -0.6966
  658SOL     OW 1972   2.351   2.027   1.167 -0.5123  0.0836  0.1229
  658SOL    HW1 1973   2.369   2.020   1.266  1.5423 -0.4178 -2.1330
  658SOL    HW2 1974   2.438   2.045   1.120 -1.6580 -0.2278 -0.3933
  659SOL     OW 1975   2.187   2.753   0.322 -0.5342  0.3843  0.1692
  659SOL    HW1 1976   2.156   2.673   0.380 -0.7633  0.5106  2.4688
  659SOL    HW2 1977   2.287   2.736   0.305  0.8775  0.3682  2.0057
  660SOL     OW 1978   1.657   1.155   2.509  0.5849 -0.2571 -0.3135
  660SOL    HW1 1979   1.704   1.238   2.469 -0.4791  1.8676  0.1881
  660SOL    HW2 1980   1.559   1.173   2.509 -2.5634 -0.9018 -0.9101
  661SOL     OW 1981   2.535   2.197   1.620  0.8318  0.0154 -0.0356
  661SOL    HW1 1982   2.514   2.239   1.531  3.2021  2.4064  2.8592
  661SOL    HW2 1983   2.629   2.223   1.649 -4.2673  2.5527  2.2892
  662SOL     OW 1984   0.531   0.653   0.227 -0.5842  0.6233 -0.2288
  662SOL    HW1 1985   0.433   0.680   0.216 -0.0819  0.3917 -1.6486
  662SOL    HW2 1986   0.541   0.550   0.224  1.0601 -0.0865  0.8789
  663SOL     OW 1987   2.188   2.204   1.048 -0.0216  0.3355  0.4973
  663SOL    HW1 1988   2.131   2.239   1.123 -0.5353 -2.0106 -3.1255
  663SOL    HW2 1989   2.260   2.142   1.086  0.8259 -0.7196 -1.3526
  664SOL     OW 1990   0.764   1.735   1.266 -0.0832  0.2004 -0.1554
  664SOL    HW1 1991   0.817   1.683   1.191  3.0461 -0.0024  0.3640
  664SOL    HW2 1992   0.821   1.798   1.330  2.8279  1.7233  2.0734
  665SOL     OW 1993   1.757   2.506   2.045 -0.3373 -0.4409 -0.0627
  665SOL    HW1 1994   1.850   2.515   2.016  0.0250 -0.3936  0.7576
  665SOL    HW2 1995   1.756   2.493   2.142 -3.6113  0.1559 -3.1296
  666SOL     OW 1996   2.901   2.687   0.107 -0.5698  0.4439 -0.0943
  666SOL    HW1 1997   2.852   2.761   0.054  0.2980  0.4511 -1.2675
  666SOL    HW2 1998   2.987   2.725   0.144 -0.1347 -1.2996 -0.7858
  667SOL     OW 1999   2.847   1.498   1.975 -0.1720 -0.6925  0.3333
  667SOL    HW1 2000   2.802   1.580   1.933  1.2462  0.1949 -3.4224
  667SOL    HW2 2001   2.788   1.413   1.958 -0.8443 -2.1188  0.7526
  668SOL     OW 2002   0.438   0.649   2.565 -0.2959  0.6393 -0.4292
  668SOL    HW1 2003   0.456   0.734   2.518 -1.2589 -1.4097 -1.2188
  668SOL    HW2 2004   0.510   0.622   2.633 -0.4873 -3.5362  0.0670
  669SOL     OW 2005   1.903   2.260   2.956  0.8547 -0.5941 -0.3717
  669SOL    HW1 2006   1.998   2.292   2.974 -0.7077 -1.1304 -3.1381
  669SOL    HW2 2007   1.848   2.345   2.960  0.6715 -0.2516  0.9912
  670SOL     OW 2008   2.332   1.601   2.682 -0.0589 -0.2529  0.3670
  670SOL    HW1 2009   2.243   1.564   2.718  0.8726  0.6471  2.9839
  670SOL    HW2 2010   2.377   1.531   2.626 -0.5443 -1.2774  2.1582
  671SOL     OW 2011   0.221   1.769   0.768 -0.3081  0.2419 -0.5284
  671SOL    HW1 2012   0.230   1.780   0.667  0.9440  0.1560  2.2374
  671SOL    HW2 2013   0.122   1.751   0.786 -1.3278  2.2166  0.9608
  672SOL     OW 2014   2.380   0.633   2.012 -0.1323  0.2025 -0.0159
  672SOL    HW1 2015   2.305   0.697   2.047 -2.1054  1.6432  0.4129
  672SOL    HW2 2016   2.458   0.686   1.974 -1.3591  3.8436 -3.1017
  673SOL     OW 2017   2.472   2.464   2.120  0.5988  0.5939  0.3090
  673SOL    HW1 2018   2.575   2.458   2.119 -0.0307  2.8327 -0.0107
  673SOL    HW2 2019   2.443   2.514   2.037  0.1819 -2.5830 -0.6467
  674SOL     OW 2020   1.400   2.625   1.772 -0.3865 -0.1843  0.0546
  674SOL    HW1 2021   1.400   2.532   1.724 -1.4772 -0.0516  0.7808
  674SOL    HW2 2022   1.303   2.658   1.773 -1.8733  0.9577 -2.1525
  675SOL     OW 2023   0.688   0.944   0.903 -0.3153 -0.3102  0.7219
  675SOL    HW1 2024   0.607   0.971   0.847 -1.7818  1.4149  0.5657
  675SOL    HW2 2025   0.765   1.014   0.898  3.6917  1.0985 -0.1242
  676SOL     OW 2026   1.915   1.118   0.573 -0.4900  0.0054 -0.3370
  676SOL    HW1 2027   1.879   1.053   0.640  1.0151  0.2015 -1.8767
  676SOL    HW2 2028   2.011   1.141   0.591 -2.8829 -1.4053  0.3605
  677SOL     OW 2029   2.898   1.442   2.629  0.3044 -0.2415 -0.3820
  677SOL    HW1 2030   2.844   1.494   2.692  0.4049 -0.4450 -1.9214
  677SOL    HW2 2031   2.876   1.342   2.622  0.2090 -0.1893 -3.0692
  678SOL     OW 2032   2.668   1.903   1.333 -0.0957  0.2104  0.1428
  678SOL    HW1 2033   2.743   1.836   1.348  0.9485 -0.0963 -1.5917
  678SOL    HW2 2034   2.575   1.869   1.365 -2.1746 -1.2928 -0.3221
  679SOL     OW 2035   1.946   2.595   0.563 -0.0358 -0.2358 -0.6539
  679SOL    HW1 2036   2.003   2.519   0.600  1.4097 -0.0107 -0.7624
  679SOL    HW2 2037   1.847   2.563   0.552 -3.4145  0.1349  1.3057
  680SOL     OW 2038   0.245   2.233   2.045  0.3473 -0.1003 -0.0066
  680SOL    HW1 2039   0.183   2.167   1.995 -3.0743  0.7698  0.3227
  680SOL    HW2 2040   0.287   2.193   2.130 -0.3652  0.0458  3.3369
  681SOL     OW 2041   3.045   1.234   1.746  0.3645  0.6369  0.2973
  681SOL    HW1 2042   0.056   1.214   1.723 -0.9915 -1.9065  1.7169
  681SOL    HW2 2043   3.029   1.335   1.767  1.3737  3.3199  0.1710
  682SOL     OW 2044   1.219   2.437   0.941  0.1302  0.1270  0.1981
  682SOL    HW1 2045   1.127   2.393   0.923  0.8066  1.2958  0.6562
  682SOL    HW2 2046   1.247   2.502   0.869  0.6757 -1.1526 -0.1344
  683SOL     OW 2047   2.114   1.058   1.200  0.1593 -0.3709 -0.2123
  683SOL    HW1 2048   2.113   1.160   1.216 -0.2683  3.0904  1.9644
  683SOL    HW2 2049   2.184   1.012   1.254 -1.5198  0.0191 -4.4816
  684SOL     OW 2050   0.406   1.754   2.674  0.1157  0.4224  0.4448
  684SOL    HW1 2051   0.355   1.696   2.742 -0.9499  0.1512  0.1925
  684SOL    HW2 2052   0.413   1.857   2.699  0.8298  4.7524  1.5348
  685SOL     OW 2053   1.516   1.284   0.009 -0.0051  0.3029  0.1639
  685SOL    HW1 2054   1.598   1.231   3.072 -1.3830  0.5921  1.3639
  685SOL    HW2 2055   1.533   1.345   0.085  0.4909 -3.3499 -0.7627
  686SOL     OW 2056   2.930   0.694   1.061  0.4448 -0.2922  0.5973
  686SOL    HW1 2057   2.967   0.660   1.146 -1.3608 -1.5571 -3.6561
  686SOL    HW2 2058   3.007   0.725   1.005  1.5522 -1.3020  2.3218
  687SOL     OW 2059   0.974   2.169   2.584  0.1888  0.6393 -0.4430
  687SOL    HW1 2060   0.912   2.201   2.661 -1.5458  0.1800 -0.4346
  687SOL    HW2 2061   0.937   2.197   2.495  1.7338 -0.2650 -2.0622
  688SOL     OW 2062   0.285   1.761   1.698 -0.1166  0.6601  0.4310
  688SOL    HW1 2063   0.324   1.850   1.683 -1.6202 -2.4924 -0.5423
  688SOL    HW2 2064   0.184   1.761   1.677 -1.2093  1.6708  1.1021
  689SOL     OW 2065   1.764   0.941   1.750 -0.5947  0.6929 -0.0820
  689SOL    HW1 2066   1.666   0.922   1.726 -0.9886 -0.8966  0.0459
  689SOL    HW2 2067   1.804   0.862   1.799  0.2297  1.7921 -0.3820
  690SOL     OW 2068   2.364   0.776   1.095 -0.3340 -0.3033  0.4485
  690SOL    HW1 2069   2.274   0.729   1.116  0.4687 -2.1862  0.4264
  690SOL    HW2 2070   2.372   0.873   1.131  0.1997  2.8575  1.4251
  691SOL     OW 2071   0.802   1.880   1.595  0.1192  0.1303 -0.0388
  691SOL    HW1 2072   0.827   1.779   1.593  1.2360 -2.1050 -2.1601
  691SOL    HW2 2073   0.849   1.920   1.678 -2.0926  0.8283  2.0339
  692SOL     OW 2074   1.895   0.242   1.420  0.3630 -0.0922  0.1512
  692SOL    HW1 2075   1.842   0.271   1.338  1.9243  1.2054  0.3721
  692SOL    HW2 2076   1.942   0.157   1.394  1.3735  0.6702  0.2685
  693SOL     OW 2077   0.279   0.666   2.256  0.1328  0.8309 -0.0994
  693SOL    HW1 2078   0.378   0.685   2.227  2.5184 -0.0439 -0.5561
  693SOL    HW2 2079   0.247   0.763   2.287 -0.5335  2.5448  2.4559
  694SOL     OW 2080   1.738   0.314   1.210 -0.1248  0.3359  0.1350
  694SOL    HW1 2081   1.730   0.378   1.130 -0.3223  2.0950  0.4517
  694SOL    HW2 2082   1.690   0.223   1.196 -1.9691  0.0577  1.0040
  695SOL     OW 2083   1.186   1.328   1.689 -0.6802  0.0380  0.6029
  695SOL    HW1 2084   1.224   1.363   1.596  4.1180 -0.4806 -0.7682
  695SOL    HW2 2085   1.147   1.235   1.682  0.6753  2.7796 -1.5184
  696SOL     OW 2086   1.747   3.000   0.299  0.2746  0.4318 -0.1680
  696SOL    HW1 2087   1.673   2.930   0.281 -0.1638 -1.2035 -1.3206
  696SOL    HW2 2088   1.723   0.005   0.271 -0.9070 -4.6054 -0.5895
  697SOL     OW 2089   0.715   0.432   0.435 -0.0564 -0.4756 -0.3761
  697SOL    HW1 2090   0.710   0.491   0.519 -2.0841  2.3517  0.1208
  697SOL    HW2 2091   0.741   0.336   0.460 -0.7651 -0.7530  1.0040
  698SOL     OW 2092   1.375   1.196   2.496 -0.0676  0.6771  0.5772
  698SOL    HW1 2093   1.357   1.252   2.414  1.4357 -0.3496 -0.4214
  698SOL    HW2 2094   1.322   1.110   2.485  0.9612  0.8193  1.0986
  699SOL     OW 2095   1.306   1.357   0.971  0.2328 -0.1736 -0.5734
  699SOL    HW1 2096   1.318   1.414   1.053  3.1348 -3.8646  0.7153
  699SOL    HW2 2097   1.353   1.388   0.890  1.0363 -1.4187  1.4793
  700SOL     OW 2098   1.543   3.062   0.588 -0.1038 -0.2546 -0.2336
  700SOL    HW1 2099   1.603   3.021   0.660  0.6568  1.3139 -0.3981
  700SOL    HW2 2100   1.597   0.049   0.548 -0.2454 -1.0190 -0.4864
  701SOL     OW 2101   2.611   3.047   2.385  0.3220  0.1592  0.2725
  701SOL    HW1 2102   2.599   2.955   2.338  0.3671  3.1081  2.7169
  701SOL    HW2 2103   2.619   3.037   2.487  2.0895  0.8791  2.8650
  702SOL     OW 2104   1.121   0.101   0.019  0.4616 -0.2207  0.3456
  702SOL    HW1 2105   1.103   0.201   0.036 -0.1198 -0.3221  2.1261
  702SOL    HW2 2106   1.040   0.053   0.051  3.5871 -0.0214 -0.8750
  703SOL     OW 2107   2.130   2.865   2.547 -0.0555  0.7264 -0.3363
  703SOL    HW1 2108   2.052   2.877   2.480 -1.1564  1.1516  1.6309
  703SOL    HW2 2109   2.158   2.959   2.576 -1.9654 -1.3827 -2.8509
  704SOL     OW 2110   0.531   2.322   0.739  0.0650 -0.4132 -0.1084
  704SOL    HW1 2111   0.434   2.291   0.727 -0.9056  2.4784 -0.6822
  704SOL    HW2 2112   0.544   2.358   0.832  0.1609  0.5450 -0.8551
  705SOL     OW 2113   2.503   0.042   2.019  0.5832 -0.2809 -0.2728
  705SOL    HW1 2114   2.486   0.017   1.925 -0.9383 -0.2854  0.9622
  705SOL    HW2 2115   2.435   0.004   2.087 -0.5229  0.1109 -1.0809
  706SOL     OW 2116   1.658   0.180   0.472 -0.2809 -0.6077 -0.2387
  706SOL    HW1 2117   1.760   0.185   0.475  2.6248  2.2301  0.2313
  706SOL    HW2 2118   1.630   0.173   0.376  0.5489 -0.0554  3.0194
  707SOL     OW 2119   1.202   1.930   2.131  0.1097  0.6856  1.2687
  707SOL    HW1 2120   1.264   1.992   2.076  0.6330 -0.7714 -0.4981
  707SOL    HW2 2121   1.113   1.982   2.151  0.0792  0.1671 -0.7812
  708SOL     OW 2122   0.232   2.498   1.720 -0.3740 -0.0413 -0.0726
  708SOL    HW1 2123   0.215   2.503   1.823 -0.8153  1.6507  0.8713
  708SOL    HW2 2124   0.150   2.531   1.666 -0.5780  1.8866 -1.6944
  709SOL     OW 2125   1.846   0.275   2.052  0.0772  0.1479  0.0460
  709SOL    HW1 2126   1.910   0.243   2.126  1.3151  2.5723  1.5351
  709SOL    HW2 2127   1.829   0.200   1.988  1.7007  1.1688  2.5224
  710SOL     OW 2128   1.963   0.502   1.906  0.0016  0.4045 -0.1603
  710SOL    HW1 2129   1.920   0.495   1.815  0.2237 -1.8225  1.0883
  710SOL    HW2 2130   1.934   0.415   1.954  1.5226 -1.4270  1.2258
  711SOL     OW 2131   0.725   2.002   0.111 -0.0246  0.6373 -0.5958
  711SOL    HW1 2132   0.676   1.909   0.107 -0.7947 -2.4330 -0.2788
  711SOL    HW2 2133   0.785   2.001   0.195  2.8693  0.3637  3.4051
  712SOL     OW 2134   0.601   2.700   1.932 -0.7713  0.2908  0.5841
  712SOL    HW1 2135   0.533   2.630   1.958 -0.7764  0.1243 -1.3588
  712SOL    HW2 2136   0.563   2.790   1.915  0.7950  2.8012 -0.4667
  713SOL     OW 2137   1.852   1.256   0.244 -0.1562 -0.7267 -0.3197
  713SOL    HW1 2138   1.866   1.180   0.306 -2.2935 -0.2720  0.4945
  713SOL    HW2 2139   1.942   1.302   0.231 -1.4729  0.6651 -0.7074
  714SOL     OW 2140   0.701   1.971   1.178 -0.3570 -0.3487 -0.9358
  714SOL    HW1 2141   0.707   1.871   1.203  0.1218  0.8771 -0.0149
  714SOL    HW2 2142   0.729   1.984   1.083 -1.2459 -3.3543  0.3133
  715SOL     OW 2143   2.066   2.935   2.863  0.0251 -0.5590  0.0792
  715SOL    HW1 2144   2.112   3.020   2.900  2.6969  2.1904 -1.7800
  715SOL    HW2 2145   2.002   2.960   2.784  0.4364  0.3288 -3.9690
  716SOL     OW 2146   2.877   2.856   1.902 -0.3985 -0.5808 -0.2694
  716SOL    HW1 2147   2.930   2.778   1.860  0.2401 -0.7971 -0.2172
  716SOL    HW2 2148   2.936   2.909   1.966  1.1379  0.6818  0.1690
  717SOL     OW 2149   0.345   1.066   0.233 -0.5543  0.2407 -0.8205
  717SOL    HW1 2150   0.353   0.963   0.213  0.4947 -1.6096 -1.2294
  717SOL    HW2 2151   0.302   1.117   0.160  0.7683  1.5510  0.5061
  718SOL     OW 2152   1.246   0.929   2.444  0.1668  0.1943  0.2882
  718SOL    HW1 2153   1.191   0.948   2.531 -2.0094  2.8742 -0.9263
  718SOL    HW2 2154   1.288   0.835   2.448  0.5312 -2.0195 -0.5636
  719SOL     OW 2155   2.631   1.307   0.035  0.0276 -0.5750  1.1624
  719SOL    HW1 2156   2.617   1.236   0.105 -1.6556  0.1823 -0.8002
  719SOL    HW2 2157   2.591   1.396   0.068  0.4718  0.3963 -1.3416
  720SOL     OW 2158   1.012   0.898   1.141  0.5190  0.2848  0.2345
  720SOL    HW1 2159   0.932   0.889   1.204 -1.2638  0.9885 -0.1346
  720SOL    HW2 2160   0.981   0.943   1.052 -1.4449  0.2715  0.6874
  721SOL     OW 2161   2.722   0.653   0.232 -0.5796 -0.2278 -0.0463
  721SOL    HW1 2162   2.785   0.700   0.167  3.6223 -1.5109  0.7464
  721SOL    HW2 2163   2.667   0.720   0.278  0.7735 -2.6158  0.1196
  722SOL     OW 2164   1.450   0.782   2.870 -0.7670 -0.2797 -0.2246
  722SOL    HW1 2165   1.454   0.778   2.970 -3.4074 -1.1961  0.3710
  722SOL    HW2 2166   1.423   0.687   2.841 -1.4973  0.4967  1.3518
  723SOL     OW 2167   0.213   1.244   0.469  0.3684  0.3992 -0.2251
  723SOL    HW1 2168   0.164   1.323   0.426 -0.3689 -0.2240 -0.7590
  723SOL    HW2 2169   0.309   1.244   0.447  0.2335  0.1156 -0.5552
  724SOL     OW 2170   0.449   1.423   2.061 -0.0158  0.2584  0.8762
  724SOL    HW1 2171   0.364   1.416   2.009 -1.4194  1.4464  1.3614
  724SOL    HW2 2172   0.459   1.502   2.118  1.5326 -1.2319 -0.7578
  725SOL     OW 2173   2.052   0.651   1.594  0.0817  0.0519 -0.2396
  725SOL    HW1 2174   2.073   0.730   1.538 -1.7403  0.7976  1.2630
  725SOL    HW2 2175   2.120   0.637   1.670  1.9970 -2.1575 -0.6534
  726SOL     OW 2176   1.893   2.856   0.524 -0.5709 -0.3771 -1.0414
  726SOL    HW1 2177   1.820   2.892   0.460 -0.2629 -0.0068  1.7791
  726SOL    HW2 2178   1.910   2.760   0.516 -1.7127  1.6102 -1.3224
  727SOL     OW 2179   1.347   1.238   2.014  0.3244 -0.2615 -0.3099
  727SOL    HW1 2180   1.427   1.184   2.044  0.4907  2.7809  0.2331
  727SOL    HW2 2181   1.313   1.282   2.101 -0.9560  1.3255 -1.8028
  728SOL     OW 2182   1.495   2.530   1.003  0.0101  0.1575  0.6004
  728SOL    HW1 2183   1.401   2.488   0.996  1.2413  2.0955  2.9078
  728SOL    HW2 2184   1.559   2.468   1.048 -1.4583  2.4193 -0.2366
  729SOL     OW 2185   1.875   0.922   1.198 -0.3309 -0.1453 -0.2432
  729SOL    HW1 2186   1.964   0.969   1.187 -0.6123  1.0878 -2.8436
  729SOL    HW2 2187   1.877   0.828   1.156  4.0824  0.9020 -0.3056
  730SOL     OW 2188   0.520   1.662   2.151  0.2414 -0.8356  0.2267
  730SOL    HW1 2189   0.573   1.679   2.230 -2.4666  2.4870  0.6740
  730SOL    HW2 2190   0.495   1.752   2.104  0.5374  2.7559  0.7688
  731SOL     OW 2191   0.421   0.513   0.539  0.0785  0.4231  0.2402
  731SOL    HW1 2192   0.379   0.445   0.603  0.3274  1.3612  0.7794
  731SOL    HW2 2193   0.485   0.468   0.477 -0.3621  0.2539  0.6237
  732SOL     OW 2194   0.794   0.735   0.192 -0.2916 -0.2861  0.0795
  732SOL    HW1 2195   0.690   0.727   0.196 -1.5610 -1.1594  2.6454
  732SOL    HW2 2196   0.824   0.802   0.119 -2.3007  1.4947 -1.0514
  733SOL     OW 2197   0.775   2.202   0.685  0.3846 -0.2335 -0.2662
  733SOL    HW1 2198   0.784   2.134   0.612 -0.7000  1.1836 -1.1801
  733SOL    HW2 2199   0.684   2.248   0.693 -0.6785  4.0682 -0.5566
  734SOL     OW 2200   3.040   2.029   2.847 -0.5023  0.3645 -0.1381
  734SOL    HW1 2201   3.063   2.124   2.873  0.2533  3.9129  0.7174
  734SOL    HW2 2202   3.025   1.974   2.929 -1.4331  1.4348 -0.2624
  735SOL     OW 2203   0.939   0.518   1.373 -0.0860 -0.2440  0.2150
  735SOL    HW1 2204   0.889   0.473   1.450  1.4277 -3.5261 -2.1864
  735SOL    HW2 2205   0.994   0.601   1.400  0.0600 -0.1001  0.5392
  736SOL     OW 2206   1.941   2.719   3.004  0.1394 -0.6373  0.2753
  736SOL    HW1 2207   1.911   2.765   0.002  1.0477  0.2122 -1.3275
  736SOL    HW2 2208   1.992   2.774   2.940 -1.5562 -1.1723 -1.0398
  737SOL     OW 2209   0.244   0.369   0.690  0.1301  0.2589 -0.3143
  737SOL    HW1 2210   0.171   0.391   0.625  0.3509 -1.2742 -0.5506
  737SOL    HW2 2211   0.215   0.392   0.785  3.8264  4.4402  0.9870
  738SOL     OW 2212   2.251   0.121   0.978  0.5264 -0.1943 -1.0794
  738SOL    HW1 2213   2.254   0.203   1.042 -0.0922  5.1291  0.5472
  738SOL    HW2 2214   2.317   0.135   0.903 -1.1830 -0.7419 -3.1509
  739SOL     OW 2215   1.659   2.456   0.144 -0.2347 -0.2605  0.0417
  739SOL    HW1 2216   1.669   2.357   0.159  0.5512 -0.9974  2.7757
  739SOL    HW2 2217   1.705   2.479   0.055 -0.4657 -2.1154 -2.1669
  740SOL     OW 2218   1.377   0.356   0.854  0.0654 -0.3724  0.0567
  740SOL    HW1 2219   1.321   0.270   0.855 -0.9172  2.5607  2.0652
  740SOL    HW2 2220   1.470   0.345   0.814 -2.1284  0.1109  0.3973
  741SOL     OW 2221   2.509   0.705   0.888  0.1429  0.3743 -0.0161
  741SOL    HW1 2222   2.447   0.739   0.962  0.0616  0.5333 -0.3938
  741SOL    HW2 2223   2.460   0.664   0.806 -0.8521  1.4254 -0.9728
  742SOL     OW 2224   1.024   2.118   2.138 -0.1337 -0.4579 -0.0435
  742SOL    HW1 2225   0.949   2.136   2.205 -1.0830 -1.6114  1.0553
  742SOL    HW2 2226   1.020   2.188   2.064 -0.2253  0.1512 -0.7430
  743SOL     OW 2227   1.830   0.755   1.932  0.3191  0.3870 -0.3615
  743SOL    HW1 2228   1.888   0.674   1.951 -2.2999  1.2736  0.3983
  743SOL    HW2 2229   1.729   0.732   1.936 -1.2407  0.4339 -0.9165
  744SOL     OW 2230   2.145   0.668   1.217 -0.9499 -0.7567 -1.0760
  744SOL    HW1 2231   2.053   0.679   1.186  0.8244 -0.6686  0.7641
  744SOL    HW2 2232   2.156   0.598   1.292 -0.6916 -2.0130  0.9300
  745SOL     OW 2233   1.803   1.264   1.589 -0.1162 -0.4274  0.7368
  745SOL    HW1 2234   1.860   1.190   1.540 -1.1590 -1.8888  1.7158
  745SOL    HW2 2235   1.709   1.266   1.550 -1.0140  0.1194 -1.3326
  746SOL     OW 2236   1.592   1.472   0.912  0.0476 -0.2073 -0.1587
  746SOL    HW1 2237   1.541   1.440   0.830 -1.6502  1.2521  0.6822
  746SOL    HW2 2238   1.684   1.430   0.922 -4.7907  1.3242  1.3202
  747SOL     OW 2239   1.797   1.302   1.036 -0.2661  0.2969 -0.1861
  747SOL    HW1 2240   1.884   1.336   0.996  0.6757 -0.9379 -1.3671
  747SOL    HW2 2241   1.792   1.321   1.137  0.1508  0.6504  1.6322
  748SOL     OW 2242   0.276   2.240   0.698  0.1715 -0.1709  0.0198
  748SOL    HW1 2243   0.198   2.273   0.757 -1.1089 -0.0328  2.8282
  748SOL    HW2 2244   0.269   2.277   0.604  0.5593 -0.4851  3.5642
  749SOL     OW 2245   2.592   2.793   2.286 -0.5823  0.0316  0.3091
  749SOL    HW1 2246   2.496   2.757   2.305  2.4342  0.2780  1.7736
  749SOL    HW2 2247   2.604   2.815   2.188  2.6636  0.2318  1.2970
  750SOL     OW 2248   2.564   0.344   0.990  0.2396 -0.6470  0.3681
  750SOL    HW1 2249   2.534   0.293   0.912  1.9616  2.5391  0.1637
  750SOL    HW2 2250   2.624   0.422   0.960  1.5032  0.7192 -2.0733
  751SOL     OW 2251   2.560   0.079   0.336  0.3857  0.2392  0.2046
  751SOL    HW1 2252   2.592   3.071   0.326 -0.2798  0.1700  1.1255
  751SOL    HW2 2253   2.457   0.090   0.325  0.3058 -0.1396  0.5829
  752SOL     OW 2254   0.385   2.754   0.679  0.4734  0.2345  1.0167
  752SOL    HW1 2255   0.454   2.703   0.628  1.0178 -1.4140  1.6563
  752SOL    HW2 2256   0.340   2.826   0.623  3.8837 -2.4387 -0.0036
  753SOL     OW 2257   1.582   0.667   1.886  0.3476 -0.3692 -0.4488
  753SOL    HW1 2258   1.491   0.709   1.874  4.2512 -0.6270 -1.2746
  753SOL    HW2 2259   1.593   0.577   1.833  1.0931 -3.7396 -1.7803
  754SOL     OW 2260   1.706   2.337   1.739 -0.0597 -0.0102  0.1580
  754SOL    HW1 2261   1.779   2.416   1.734  2.1099  1.7437  0.5909
  754SOL    HW2 2262   1.620   2.355   1.692  1.5458  0.3595  0.4626
  755SOL     OW 2263   0.045   0.404   0.514 -0.1827  0.3546  0.2000
  755SOL    HW1 2264   3.051   0.464   0.484 -1.9047  0.1226 -3.1235
  755SOL    HW2 2265   0.025   0.306   0.478  2.0305 -2.0617 -0.8508
  756SOL     OW 2266   1.495   1.698   2.727  0.1890  0.4257 -0.1401
  756SOL    HW1 2267   1.409   1.664   2.681 -4.4725 -2.7101 -1.2705
  756SOL    HW2 2268   1.489   1.798   2.749 -1.9227 -2.0254 -0.8876
  757SOL     OW 2269   1.380   0.099   1.051 -0.0884  0.1556  0.1242
  757SOL    HW1 2270   1.356   0.044   1.132 -1.9056 -2.1249 -0.2975
  757SOL    HW2 2271   1.298   0.114   0.991 -0.3466 -0.0497 -0.7619
  758SOL     OW 2272   0.256   0.058   1.315  0.3618 -0.1930 -0.4155
  758SOL    HW1 2273   0.172   0.113   1.344  1.7662  0.0121 -1.7263
  758SOL    HW2 2274   0.316   0.037   1.394  0.2249  1.3500 -0.6791
  759SOL     OW 2275   0.348   0.748   1.193 -0.8739  0.5113 -0.3595
  759SOL    HW1 2276   0.424   0.724   1.133 -0.3642  0.7081  0.8228
  759SOL    HW2 2277   0.296   0.824   1.153  1.8082  1.5547 -0.1911
  760SOL     OW 2278   2.215   1.132   0.902 -0.3867  0.4598 -0.6697
  760SOL    HW1 2279   2.290   1.191   0.938 -0.1866 -1.5194 -2.2003
  760SOL    HW2 2280   2.168   1.098   0.982  1.9980  1.3152 -1.7861
  761SOL     OW 2281   1.301   0.771   0.505 -0.0738  0.1095 -0.3589
  761SOL    HW1 2282   1.342   0.731   0.592 -1.2056  0.0886 -0.0701
  761SOL    HW2 2283   1.238   0.847   0.534  0.7743  0.2568  0.6560
  762SOL     OW 2284   2.269   2.324   1.357  0.4662 -0.6143 -0.2602
  762SOL    HW1 2285   2.220   2.358   1.274 -0.7773 -0.0776  1.7734
  762SOL    HW2 2286   2.364   2.311   1.330 -0.6196 -3.1513 -0.5337
  763SOL     OW 2287   1.515   1.516   1.868 -0.0174  0.1235  0.3784
  763SOL    HW1 2288   1.606   1.492   1.830 -0.8408  1.9576  4.4214
  763SOL    HW2 2289   1.457   1.432   1.883 -1.2287 -0.5791  0.1553
  764SOL     OW 2290   0.032   2.038   2.565  0.7665 -0.2363  0.5984
  764SOL    HW1 2291   0.068   1.952   2.525  2.3205  3.1593  0.9322
  764SOL    HW2 2292   3.067   2.026   2.654 -2.4143  0.8826 -1.2447
  765SOL     OW 2293   0.914   2.542   1.016 -0.2193 -0.1258  0.0804
  765SOL    HW1 2294   0.978   2.607   1.064 -0.0572  0.2754 -0.0261
  765SOL    HW2 2295   0.848   2.592   0.959 -1.4191 -4.0440  0.4543
  766SOL     OW 2296   0.657   2.016   2.492  0.7048  0.1283 -0.2488
  766SOL    HW1 2297   0.701   1.967   2.566  0.5477 -0.8795 -2.5753
  766SOL    HW2 2298   0.556   2.007   2.491 -2.5219 -0.9524 -1.6103
  767SOL     OW 2299   1.866   0.432   2.481 -0.1700 -0.1215  0.1215
  767SOL    HW1 2300   1.930   0.512   2.484  0.9817 -0.5735  0.9828
  767SOL    HW2 2301   1.889   0.360   2.550 -1.2703  0.5365  1.5815
  768SOL     OW 2302   0.881   2.501   2.627 -0.3308  0.1883 -0.1756
  768SOL    HW1 2303   0.932   2.513   2.540  0.4677 -0.8693  0.0769
  768SOL    HW2 2304   0.947   2.523   2.704  0.1210 -0.8056  0.5249
  769SOL     OW 2305   2.990   2.543   1.116  0.1527 -0.2251 -0.0399
  769SOL    HW1 2306   2.906   2.592   1.155 -3.2901  2.1629 -2.5529
  769SOL    HW2 2307   3.078   2.578   1.152 -1.6152  1.1740 -2.3192
  770SOL     OW 2308   0.777   2.791   2.832  0.5206 -0.1291  0.1722
  770SOL    HW1 2309   0.692   2.774   2.770 -1.8722  0.2913 -1.1780
  770SOL    HW2 2310   0.808   2.886   2.824  0.7801 -0.3927  1.4409
  771SOL     OW 2311   0.997   2.470   2.403  0.4762  0.0233  0.1849
  771SOL    HW1 2312   1.055   2.410   2.350  0.7419  1.3283  1.1259
  771SOL    HW2 2313   0.905   2.484   2.358 -2.2406 -0.8657  0.1963
  772SOL     OW 2314   2.280   3.026   2.144 -0.1971 -0.2477 -0.4215
  772SOL    HW1 2315   2.218   3.080   2.091 -1.2697 -1.6451  1.9206
  772SOL    HW2 2316   2.240   2.930   2.139 -1.0121 -1.7312  0.8300
  773SOL     OW 2317   1.110   2.935   1.744  0.3087 -0.5269 -0.5135
  773SOL    HW1 2318   1.206   2.964   1.730 -1.5842 -0.4369 -0.7090
  773SOL    HW2 2319   1.110   2.838   1.776 -1.2370  1.7636  0.2321
  774SOL     OW 2320   1.596   0.684   2.156 -0.2820  0.0585  0.0493
  774SOL    HW1 2321   1.569   0.681   2.056 -0.2632 -1.5146  2.0352
  774SOL    HW2 2322   1.641   0.598   2.180 -1.3029  2.4719 -2.5342
  775SOL     OW 2323   2.204   3.016   0.172  0.1040 -0.1680 -0.1979
  775SOL    HW1 2324   2.285   2.980   0.116  2.2006 -0.2510 -1.1060
  775SOL    HW2 2325   2.140   2.942   0.194 -1.3940 -1.1257  0.1027
  776SOL     OW 2326   2.205   0.861   1.875  0.0912  0.4405 -0.2856
  776SOL    HW1 2327   2.117   0.906   1.899  1.2864  0.0441 -0.4768
  776SOL    HW2 2328   2.217   0.846   1.776  0.9876  1.5600 -0.5718
  777SOL     OW 2329   2.806   1.176   2.571 -0.2734 -0.1364 -0.2784
  777SOL    HW1 2330   2.881   1.137   2.516  1.6627 -0.4526  3.1457
  777SOL    HW2 2331   2.729   1.201   2.516  0.2375 -2.2596  0.6847
  778SOL     OW 2332   2.389   0.375   1.966  0.3190 -0.0388 -0.1112
  778SOL    HW1 2333   2.379   0.473   1.978 -1.0982  3.4903  0.6728
  778SOL    HW2 2334   2.459   0.347   1.896  2.5913  2.3639  0.5125
  779SOL     OW 2335   3.050   3.086   2.942  0.3835 -0.5559  0.2279
  779SOL    HW1 2336   0.025   0.072   2.910 -0.4232 -2.9238  2.7341
  779SOL    HW2 2337   0.005   2.995   2.911 -0.2080 -1.0753  1.1849
  780SOL     OW 2338   1.936   0.085   2.450  0.5551 -0.2582  0.3097
  780SOL    HW1 2339   1.846   0.047   2.416 -0.6357  3.0915 -0.7483
  780SOL    HW2 2340   1.974   0.148   2.381  2.6776 -2.2393  2.1293
  781SOL     OW 2341   3.027   0.821   1.568  0.3161 -0.3632  0.4402
  781SOL    HW1 2342   2.985   0.858   1.482 -0.6827 -1.8282 -0.3902
  781SOL    HW2 2343   0.021   0.880   1.593  1.3130  0.5292 -0.5092
  782SOL     OW 2344   2.019   2.248   0.388 -0.3396  0.6004  0.1291
  782SOL    HW1 2345   2.120   2.233   0.364 -0.9488 -0.4853 -0.1436
  782SOL    HW2 2346   2.004   2.264   0.486 -0.6616 -2.2954 -0.9373
  783SOL     OW 2347   0.450   1.987   1.310 -0.0295  0.3785  0.3274
  783SOL    HW1 2348   0.376   1.999   1.241 -1.6731 -0.8857 -1.1794
  783SOL    HW2 2349   0.546   2.008   1.273  0.4567 -0.2412  0.1115
  784SOL     OW 2350   2.171   0.540   2.261 -0.5041  0.3362  0.9236
  784SOL    HW1 2351   2.265   0.493   2.259  1.1761  0.4824 -4.4447
  784SOL    HW2 2352   2.166   0.627   2.207  3.2363  0.6574 -1.1150
  785SOL     OW 2353   0.210   0.431   1.129  0.4058 -0.1221  0.0959
  785SOL    HW1 2354   0.153   0.468   1.053 -0.9840 -0.6471  0.1492
  785SOL    HW2 2355   0.198   0.481   1.217  1.2827 -3.3677 -0.7598
  786SOL     OW 2356   1.949   2.866   0.199 -0.4262  0.4088 -0.1670
  786SOL    HW1 2357   1.892   2.915   0.268 -0.7948  1.1144 -1.9778
  786SOL    HW2 2358   2.003   2.792   0.245  0.7587  1.3274 -2.1981
  787SOL     OW 2359   1.168   0.125   0.882  0.7090 -0.0349 -0.0741
  787SOL    HW1 2360   1.156   0.024   0.858 -0.2165 -2.7153  1.4979
  787SOL    HW2 2361   1.084   0.181   0.860 -0.6538  0.7842 -0.8060
  788SOL     OW 2362   3.064   1.506   0.961  0.1929  0.3092 -0.5123
  788SOL    HW1 2363   3.038   1.574   0.893 -0.2219  0.9595  0.6637
  788SOL    HW2 2364   0.079   1.506   0.980  3.9363 -1.0563 -0.0592
  789SOL     OW 2365   2.787   0.474   2.060 -0.3053  0.6019  0.0605
  789SOL    HW1 2366   2.823   0.419   2.140 -0.7664  1.4535 -0.8262
  789SOL    HW2 2367   2.720   0.542   2.098 -1.2673 -0.7238  2.0775
  790SOL     OW 2368   0.912   0.466   2.874  0.4233  0.0099 -0.0485
  790SOL    HW1 2369   0.949   0.376   2.844  2.3937  2.9917  0.0047
  790SOL    HW2 2370   0.985   0.530   2.865 -1.6453 -0.5620 -1.5107
  791SOL     OW 2371   2.437   3.078   2.956  0.4918  0.2484 -0.1176
  791SOL    HW1 2372   2.525   0.034   2.984  0.3203  0.1818 -1.1501
  791SOL    HW2 2373   2.420   3.004   3.024 -0.6502 -2.3767  1.3033
  792SOL     OW 2374   1.085   0.901   1.464  0.6257 -0.3023  0.6907
  792SOL    HW1 2375   1.138   0.818   1.490  2.4007 -1.9336 -1.5564
  792SOL    HW2 2376   0.992   0.877   1.423  1.5953 -1.0764  0.9720
  793SOL     OW 2377   2.718   0.124   1.492 -0.0614 -0.3389 -0.0088
  793SOL    HW1 2378   2.780   0.162   1.558 -0.1088 -0.4971 -0.2118
  793SOL    HW2 2379   2.622   0.165   1.500 -2.2609 -1.4259  2.0670
  794SOL     OW 2380   2.966   3.047   2.079 -0.4105 -0.3294 -0.1300
  794SOL    HW1 2381   2.882   0.008   2.112 -2.8588  0.0740  1.9222
  794SOL    HW2 2382   3.044   0.024   2.066  1.5309  2.2033 -1.6975
  795SOL     OW 2383   0.468   2.013   2.766  0.3750  0.3378  0.4923
  795SOL    HW1 2384   0.503   2.111   2.757 -0.4869 -0.6415 -1.9181
  795SOL    HW2 2385   0.480   1.979   2.866  0.0399 -1.0318  5.3485
  796SOL     OW 2386   2.063   0.769   2.725 -0.1552 -0.2297  0.5056
  796SOL    HW1 2387   2.049   0.711   2.637 -0.3367  0.2594 -1.9952
  796SOL    HW2 2388   1.998   0.747   2.795  2.6807  0.3645 -0.5493
  797SOL     OW 2389   2.306   2.098   0.070 -0.0505  0.3752  0.1596
  797SOL    HW1 2390   2.362   2.066   3.078 -1.1070 -1.6143  1.6320
  797SOL    HW2 2391   2.302   2.198   0.077 -0.2083  0.1866  1.1575
  798SOL     OW 2392   3.016   0.613   1.316 -0.2923 -0.1454  0.3277
  798SOL    HW1 2393   2.973   0.673   1.381 -0.1603 -1.0412 -0.8059
  798SOL    HW2 2394   0.033   0.623   1.314  0.5018 -0.3878  1.2308
  799SOL     OW 2395   0.262   0.165   1.780  0.1876  0.4179 -1.2477
  799SOL    HW1 2396   0.339   0.190   1.722  1.2874 -2.9338  0.6995
  799SOL    HW2 2397   0.294   0.134   1.872 -1.6056  1.1957 -0.4796
  800SOL     OW 2398   0.106   2.080   0.244  0.3868 -0.5095 -0.1408
  800SOL    HW1 2399   0.095   2.118   0.337  0.0697 -0.0865  1.7420
  800SOL    HW2 2400   0.172   2.007   0.247 -0.4845 -0.3642  0.4284
  801SOL     OW 2401   1.483   1.724   0.849  0.4031 -0.1632 -0.2596
  801SOL    HW1 2402   1.429   1.753   0.933 -0.2762  1.1492 -0.3369
  801SOL    HW2 2403   1.530   1.636   0.869 -1.2754 -2.2221  0.3582
  802SOL     OW 2404   0.907   0.475   0.255 -0.1919  0.5663  0.4066
  802SOL    HW1 2405   0.840   0.438   0.323  0.4690  1.3294  3.0289
  802SOL    HW2 2406   0.887   0.573   0.244  1.0466  1.1276 -2.8349
  803SOL     OW 2407   1.143   1.533   1.893 -0.9448  0.6722 -0.0193
  803SOL    HW1 2408   1.055   1.543   1.847  0.6222 -1.6155  1.8927
  803SOL    HW2 2409   1.199   1.464   1.833  0.2631  0.1023 -3.7898
  804SOL     OW 2410   1.709   2.090   1.098  0.3556  0.0128  0.1805
  804SOL    HW1 2411   1.724   2.022   1.167 -0.5762  2.1752  1.5079
  804SOL    HW2 2412   1.781   2.081   1.032 -3.0914 -1.1947  0.8608
  805SOL     OW 2413   0.085   2.322   2.460 -0.0835 -0.9896 -0.4077
  805SOL    HW1 2414   0.038   2.232   2.464 -1.3313  1.0261 -1.4923
  805SOL    HW2 2415   0.184   2.309   2.445  0.9959 -1.0254  2.4058
  806SOL     OW 2416   1.031   2.808   0.154 -0.1241 -0.0771  1.1433
  806SOL    HW1 2417   0.973   2.894   0.140  0.4458  2.9340 -0.5664
  806SOL    HW2 2418   1.008   2.771   0.250 -0.7583 -0.9518  0.6616
  807SOL     OW 2419   2.521   0.990   2.781  0.1511  0.0600 -0.3163
  807SOL    HW1 2420   2.594   1.055   2.803 -2.1267  1.0058  2.2872
  807SOL    HW2 2421   2.470   1.015   2.698 -1.0355 -0.6648  0.8516
  808SOL     OW 2422   1.474   2.035   0.945  0.1789 -0.3660  0.2862
  808SOL    HW1 2423   1.558   2.083   0.977 -0.6203  1.5743  1.5730
  808SOL    HW2 2424   1.486   1.944   0.907 -0.0555 -2.0086 -2.9534
  809SOL     OW 2425   0.394   0.142   0.585 -0.0278  0.1569 -0.4824
  809SOL    HW1 2426   0.393   0.178   0.492 -2.2239 -1.8773  0.0016
  809SOL    HW2 2427   0.375   0.220   0.650  1.3118  1.6944  1.0895
  810SOL     OW 2428   1.395   1.380   0.421 -0.3570  0.4936  0.7344
  810SOL    HW1 2429   1.332   1.434   0.363 -1.2532  0.5851  1.5741
  810SOL    HW2 2430   1.492   1.403   0.403  2.7224 -0.9463  2.9971
  811SOL     OW 2431   1.370   2.789   1.006 -0.0522 -0.3651  0.3106
  811SOL    HW1 2432   1.416   2.704   1.029 -0.1316  0.3658 -0.4913
  811SOL    HW2 2433   1.319   2.832   1.087  0.5293  4.1945  4.0712
  812SOL     OW 2434   0.916   0.275   0.780  0.2744  0.3032  0.2150
  812SOL    HW1 2435   0.920   0.367   0.825 -0.5558 -1.2855  1.0952
  812SOL    HW2 2436   0.877   0.202   0.841  2.7446 -0.1415 -1.0804
  813SOL     OW 2437   1.269   0.028   2.214  0.2348 -0.4686  0.3768
  813SOL    HW1 2438   1.214   3.037   2.175 -1.5956  1.1220  4.0497
  813SOL    HW2 2439   1.305   0.086   2.138 -0.2192  0.5507 -0.0914
  814SOL     OW 2440   1.153   2.930   1.151 -0.7912  0.0719  0.2472
  814SOL    HW1 2441   1.076   2.880   1.194 -2.0955 -1.7511  0.5623
  814SOL    HW2 2442   1.133   2.945   1.049  0.0334  2.0609 -0.1906
  815SOL     OW 2443   0.180   2.536   0.235 -0.0028  0.2100 -0.2805
  815SOL    HW1 2444   0.179   2.586   0.144 -0.3668  0.0744  2.5226
  815SOL    HW2 2445   0.151   2.593   0.318  0.8907  1.2662  3.0544
  816SOL     OW 2446   2.078   1.095   2.626  0.1753  0.5443 -0.1661
  816SOL    HW1 2447   2.130   1.055   2.704 -0.8780 -0.8006 -0.6552
  816SOL    HW2 2448   1.978   1.098   2.648  3.2720  0.7608 -2.0682
  817SOL     OW 2449   2.015   2.143   2.438  0.0959  0.0458 -0.5177
  817SOL    HW1 2450   1.921   2.103   2.458 -0.9893  1.6500 -1.1642
  817SOL    HW2 2451   2.067   2.159   2.522  0.9754 -3.1913 -1.8118
  818SOL     OW 2452   0.943   0.965   0.021 -0.0239 -0.0056 -0.0603
  818SOL    HW1 2453   0.891   1.054   0.013 -1.3126 -4.0340 -0.9916
  818SOL    HW2 2454   1.014   0.970   0.093 -3.4661  0.3216 -2.8161
  819SOL     OW 2455   1.771   1.565   3.055  0.2468 -0.3010  0.3407
  819SOL    HW1 2456   1.793   1.596   2.961  1.7418 -0.3431 -1.2320
  819SOL    HW2 2457   1.851   1.578   0.034  1.5197  0.3066 -2.3038
  820SOL     OW 2458   0.587   0.806   0.464  0.0041 -0.4305  0.0974
  820SOL    HW1 2459   0.499   0.795   0.508  0.4919 -2.1092 -2.8096
  820SOL    HW2 2460   0.573   0.754   0.378 -0.9758 -1.6449 -2.6681
  821SOL     OW 2461   0.378   2.853   1.306  0.4880 -0.3314  0.5505
  821SOL    HW1 2462   0.274   2.846   1.307 -0.3371 -3.3184  1.4346
  821SOL    HW2 2463   0.410   2.855   1.213 -2.9790 -3.6478 -2.1221
  822SOL     OW 2464   2.076   2.215   2.697 -0.2452  0.2097 -0.5997
  822SOL    HW1 2465   2.090   2.292   2.760  0.5056 -1.2350 -1.2370
  822SOL    HW2 2466   1.974   2.197   2.682 -1.8841 -0.0551 -0.3210
  823SOL     OW 2467   0.591   0.552   1.998 -0.1602 -0.2000  0.6378
  823SOL    HW1 2468   0.667   0.618   1.982 -0.1267 -1.2659 -1.2981
  823SOL    HW2 2469   0.616   0.486   2.071 -1.2068  2.4681 -2.2428
  824SOL     OW 2470   2.398   3.056   1.549 -0.6031 -0.5114  0.8542
  824SOL    HW1 2471   2.409   0.058   1.506 -1.7062  3.1958  0.9400
  824SOL    HW2 2472   2.300   3.030   1.560  0.6252 -2.0444  0.4322
  825SOL     OW 2473   0.263   1.449   2.576 -0.3228  0.0742 -0.2234
  825SOL    HW1 2474   0.276   1.512   2.503  0.8543  0.1632  0.5617
  825SOL    HW2 2475   0.347   1.452   2.633 -1.1686 -0.2637 -1.7049
  826SOL     OW 2476   1.671   0.409   2.900  0.1362  0.7200 -0.3456
  826SOL    HW1 2477   1.705   0.476   2.832  3.1739  0.4013 -1.8166
  826SOL    HW2 2478   1.700   0.313   2.872  1.9692 -1.8227  0.2810
  827SOL     OW 2479   0.740   2.512   2.295  0.0752 -0.3198 -0.1027
  827SOL    HW1 2480   0.674   2.587   2.309 -1.2785  0.1717  2.5149
  827SOL    HW2 2481   0.748   2.492   2.194 -0.4188 -0.1087 -3.4084
  828SOL     OW 2482   3.046   3.058   1.490  0.4208  0.6887  0.0037
  828SOL    HW1 2483   2.947   3.042   1.475 -0.2788 -0.1279  0.0600
  828SOL    HW2 2484   3.079   0.049   1.449  0.0862 -4.1206  4.7200
  829SOL     OW 2485   1.540   1.760   1.709 -0.2498  0.6034 -0.1882
  829SOL    HW1 2486   1.517   1.692   1.779 -0.9623  1.0937 -0.3413
  829SOL    HW2 2487   1.612   1.722   1.647 -1.2281  1.7416  0.0278
  830SOL     OW 2488   0.781   1.038   1.659  0.3810  0.2400  0.2412
  830SOL    HW1 2489   0.717   0.961   1.639 -0.6093  2.4507  1.9310
  830SOL    HW2 2490   0.755   1.096   1.736 -0.0131 -1.4811  0.5974
  831SOL     OW 2491   2.744   1.638   0.366  0.0838  0.4000  0.2200
  831SOL    HW1 2492   2.682   1.677   0.298  2.0036 -2.5760  2.5153
  831SOL    HW2 2493   2.834   1.687   0.368  0.8600  0.8770 -1.2253
  832SOL     OW 2494   1.269   2.663   0.182  0.2853  0.2799 -0.5638
  832SOL    HW1 2495   1.204   2.734   0.150  0.8862  0.6611 -2.4821
  832SOL    HW2 2496   1.226   2.614   0.261  0.3601  0.0943  0.7314
  833SOL     OW 2497   2.948   0.226   1.661 -0.2121 -0.0249 -0.0458
  833SOL    HW1 2498   3.034   0.274   1.627  0.4536  1.0733 -0.9006
  833SOL    HW2 2499   2.890   0.296   1.712  0.3761  1.1196  1.0894
  834SOL     OW 2500   0.170   0.751   0.838  0.3314 -0.2090  0.4236
  834SOL    HW1 2501   0.165   0.834   0.901 -0.9734  0.3950  1.5031
  834SOL    HW2 2502   0.223   0.762   0.751  1.2739  1.6739  2.4243
  835SOL     OW 2503   2.666   0.034   0.777 -0.3048 -0.3974 -0.2847
  835SOL    HW1 2504   2.744   0.101   0.765  0.5084 -0.8203  1.9790
  835SOL    HW2 2505   2.702   3.025   0.760 -0.2281 -0.5065 -0.4184
  836SOL     OW 2506   1.121   1.899   2.945  0.3484 -0.2652 -0.1963
  836SOL    HW1 2507   1.025   1.929   2.946  2.8370 -1.5495  0.8882
  836SOL    HW2 2508   1.141   1.882   2.842  1.1593 -0.1568 -0.7360
  837SOL     OW 2509   1.639   1.782   0.054 -0.2191 -0.2034  0.5162
  837SOL    HW1 2510   1.690   1.700   0.012  0.8918 -0.8019  0.9783
  837SOL    HW2 2511   1.548   1.786   0.017  2.4530 -1.6766  0.7250
  838SOL     OW 2512   2.611   0.695   2.465  0.0510 -0.2298 -0.2246
  838SOL    HW1 2513   2.687   0.729   2.523 -1.7868  0.0459 -2.0362
  838SOL    HW2 2514   2.516   0.714   2.506 -1.6262  0.6756  1.8023
  839SOL     OW 2515   0.537   0.898   2.494 -0.1218 -0.3088 -0.0337
  839SOL    HW1 2516   0.497   0.988   2.461  2.2305  1.2850 -0.2258
  839SOL    HW2 2517   0.639   0.902   2.490  0.2000  3.1061 -0.5758
  840SOL     OW 2518   0.997   0.850   2.877  0.6703 -0.0742 -0.3343
  840SOL    HW1 2519   0.983   0.906   2.964  1.8002  1.1865 -1.2200
  840SOL    HW2 2520   1.032   0.754   2.894  0.1657  4.4153  2.0533
  841SOL     OW 2521   0.835   2.581   0.573  0.1066  0.2805 -0.2467
  841SOL    HW1 2522   0.932   2.583   0.602  0.8884  0.8686  0.6942
  841SOL    HW2 2523   0.829   2.551   0.475 -0.3129 -2.2147 -0.2030
  842SOL     OW 2524   0.813   0.797   0.650  0.4803  0.5203 -0.2083
  842SOL    HW1 2525   0.835   0.853   0.733 -1.6848 -0.5517 -0.4108
  842SOL    HW2 2526   0.741   0.835   0.592  0.2254  2.0986  2.0279
  843SOL     OW 2527   0.249   1.310   1.240  0.4606  0.5882 -0.6763
  843SOL    HW1 2528   0.330   1.275   1.186  1.3354 -0.5479  1.3810
  843SOL    HW2 2529   0.175   1.236   1.247 -1.1762 -1.2076 -1.3362
  844SOL     OW 2530   2.153   2.453   2.828 -0.7975 -0.2160  0.3346
  844SOL    HW1 2531   2.158   2.552   2.795 -0.5435  0.9863  1.7634
  844SOL    HW2 2532   2.239   2.402   2.814  2.3541 -1.7363 -0.5305
  845SOL     OW 2533   2.130   2.981   1.579  0.0858 -0.3182  0.3957
  845SOL    HW1 2534   2.075   3.038   1.516  0.9645 -2.2531 -0.0732
  845SOL    HW2 2535   2.113   2.884   1.551 -0.4695 -1.2078 -0.6205
  846SOL     OW 2536   1.986   0.924   2.437  0.1105  0.2062 -0.1413
  846SOL    HW1 2537   2.010   0.967   2.344  0.0946 -0.3525 -0.6185
  846SOL    HW2 2538   2.042   0.954   2.516 -2.2964  2.6355 -0.3964
  847SOL     OW 2539   2.204   2.759   2.044  0.5946 -0.2844  0.0951
  847SOL    HW1 2540   2.147   2.677   2.057 -1.8369  1.5077 -1.0256
  847SOL    HW2 2541   2.286   2.731   2.005 -1.4665  0.5985 -0.2532
  848SOL     OW 2542   0.000   2.902   0.136 -0.3762  0.1578  0.2420
  848SOL    HW1 2543   0.097   2.863   0.136 -1.2805 -1.0928 -0.9513
  848SOL    HW2 2544   3.078   2.992   0.096  0.4711  2.1504  0.4049
  849SOL     OW 2545   0.118   2.955   1.169 -0.7434 -0.4856 -0.6876
  849SOL    HW1 2546   0.160   2.939   1.078 -2.1904 -0.2849  1.2961
  849SOL    HW2 2547   0.152   3.041   1.214  0.0637  1.0463  0.6465
  850SOL     OW 2548   0.390   2.027   0.506 -0.4795 -0.2712 -0.4278
  850SOL    HW1 2549   0.418   2.119   0.528  0.5968 -0.8083 -1.1663
  850SOL    HW2 2550   0.457   1.982   0.440 -0.2657 -1.3695  1.4036
  851SOL     OW 2551   2.127   0.774   3.036 -0.4994 -0.3719  0.9204
  851SOL    HW1 2552   2.103   0.695   0.001  0.4161 -0.6121  0.2842
  851SOL    HW2 2553   2.173   0.852   3.084  0.7439 -0.1526 -1.3281
  852SOL     OW 2554   1.819   2.105   2.637  0.2369 -0.2855  0.1683
  852SOL    HW1 2555   1.779   2.029   2.575 -1.4687  2.6731  0.0512
  852SOL    HW2 2556   1.768   2.102   2.725  0.9802  0.8018 -0.9306
  853SOL     OW 2557   0.519   1.894   0.323  0.4408  0.5474  0.1788
  853SOL    HW1 2558   0.506   1.943   0.234  2.0360 -0.7776  1.4737
  853SOL    HW2 2559   0.485   1.796   0.319 -0.0322 -0.2774  2.7777
  854SOL     OW 2560   1.696   0.922   2.212 -0.3576 -0.6688 -0.5884
  854SOL    HW1 2561   1.651   0.832   2.188 -1.3742  1.2154 -0.8099
  854SOL    HW2 2562   1.789   0.906   2.251 -0.1037 -3.0657 -1.0036
  855SOL     OW 2563   0.383   2.505   2.968  0.0517  0.2675 -0.3639
  855SOL    HW1 2564   0.485   2.490   2.976 -0.5364  1.5535  1.6504
  855SOL    HW2 2565   0.335   2.419   2.991  0.1124 -0.3976  1.8977
  856SOL     OW 2566   0.630   2.795   2.213  0.0081  0.4506 -0.1747
  856SOL    HW1 2567   0.615   2.745   2.125  1.6315 -1.8235  0.0735
  856SOL    HW2 2568   0.693   2.869   2.204 -0.1097 -0.7832  2.2522
  857SOL     OW 2569   0.623   0.394   1.780 -0.1931  0.0399  0.0898
  857SOL    HW1 2570   0.584   0.458   1.845  0.3172  0.0941 -1.2488
  857SOL    HW2 2571   0.557   0.318   1.752 -0.5524 -4.7919  0.7841
  858SOL     OW 2572   0.462   1.896   2.004 -0.6409  0.3487 -0.7029
  858SOL    HW1 2573   0.554   1.919   2.024 -3.6040 -0.9276  2.5177
  858SOL    HW2 2574   0.416   1.947   1.929  0.0918 -0.9933 -0.3308
  859SOL     OW 2575   2.045   2.414   1.520 -0.0942 -0.2065 -0.6499
  859SOL    HW1 2576   2.115   2.363   1.467  0.0655 -1.3502  0.5174
  859SOL    HW2 2577   2.058   2.516   1.507 -0.0493  1.5298 -2.2112
  860SOL     OW 2578   1.502   0.562   0.458  0.4573 -0.6160 -0.0187
  860SOL    HW1 2579   1.558   0.540   0.544 -0.0491  0.3276  1.9456
  860SOL    HW2 2580   1.403   0.568   0.486  0.0796 -0.6097  1.8060
  861SOL     OW 2581   0.072   0.505   0.895  0.1965  0.2113 -0.1088
  861SOL    HW1 2582   0.094   0.602   0.868  0.7378  2.2300 -0.2618
  861SOL    HW2 2583   3.079   0.465   0.851  0.4813 -1.8438  2.2067
  862SOL     OW 2584   2.123   0.869   1.417 -0.0353  0.3740  0.4075
  862SOL    HW1 2585   2.049   0.938   1.419  1.8594 -1.7433  0.4885
  862SOL    HW2 2586   2.121   0.811   1.336 -0.8054  1.4485  0.2470
  863SOL     OW 2587   0.376   1.535   1.358  0.0684  0.4873 -0.7786
  863SOL    HW1 2588   0.313   1.466   1.312 -1.5593 -2.5184 -2.9298
  863SOL    HW2 2589   0.455   1.542   1.294  1.2679  1.5491 -0.9897
  864SOL     OW 2590   2.637   2.845   2.022 -0.3079 -0.5270  0.5795
  864SOL    HW1 2591   2.726   2.816   1.986 -1.0861 -1.1914  2.3244
  864SOL    HW2 2592   2.628   2.947   1.996 -0.0234  2.0994 -2.9372
  865SOL     OW 2593   1.019   0.739   2.053  0.1788 -0.0393  0.3005
  865SOL    HW1 2594   1.088   0.811   2.079  0.0888  0.3853 -0.4394
  865SOL    HW2 2595   1.052   0.702   1.966  0.6961 -0.8536  1.4424
  866SOL     OW 2596   2.473   2.768   0.430 -0.1062 -0.1282 -0.1830
  866SOL    HW1 2597   2.444   2.831   0.505 -1.1368  0.1166 -2.2271
  866SOL    HW2 2598   2.525   2.818   0.362 -1.8376 -1.2898 -2.1958
  867SOL     OW 2599   2.820   2.872   0.767  0.4325 -0.2709 -0.1792
  867SOL    HW1 2600   2.825   2.784   0.713  1.3395 -0.2772  0.5006
  867SOL    HW2 2601   2.909   2.898   0.812  1.2234 -0.7281 -1.5724
  868SOL     OW 2602   1.779   1.600   2.767  0.0620  1.0857  0.1330
  868SOL    HW1 2603   1.824   1.697   2.779  1.4506  3.5195 -1.1437
  868SOL    HW2 2604   1.680   1.603   2.739 -1.4649  0.7788 -1.1497
  869SOL     OW 2605   2.809   2.623   0.671  0.5405 -0.6692 -0.6887
  869SOL    HW1 2606   2.827   2.582   0.579  0.4378  0.8733 -1.7030
  869SOL    HW2 2607   2.713   2.611   0.697  1.3915 -1.0797 -2.9387
  870SOL     OW 2608   2.830   2.003   0.483  0.2768  0.0954  0.5099
  870SOL    HW1 2609   2.820   1.972   0.578 -0.9829 -1.5589 -1.5984
  870SOL    HW2 2610   2.894   1.937   0.440 -5.0104  3.1106 -0.2936
  871SOL     OW 2611   0.236   1.451   1.002  0.7399  0.1375  0.1753
  871SOL    HW1 2612   0.219   1.399   1.087  0.7646 -1.5365 -1.6814
  871SOL    HW2 2613   0.240   1.391   0.917 -0.5061 -2.6868 -2.5662
  872SOL     OW 2614   1.102   1.714   2.485 -0.1813  0.2298 -0.0519
  872SOL    HW1 2615   1.032   1.649   2.460 -0.0434 -0.6322  1.3631
  872SOL    HW2 2616   1.154   1.757   2.408  1.8480  0.9757  0.7430
  873SOL     OW 2617   0.570   2.965   1.835 -0.2856 -0.0833 -0.7689
  873SOL    HW1 2618   0.606   3.059   1.866  2.1348  0.5072  3.5228
  873SOL    HW2 2619   0.593   2.950   1.739 -2.4356  0.1290  0.5337
  874SOL     OW 2620   0.827   0.420   1.597 -0.1164 -1.0326  0.7712
  874SOL    HW1 2621   0.761   0.412   1.674 -1.7592  0.3251  0.5148
  874SOL    HW2 2622   0.897   0.346   1.598 -3.8981  1.0903 -2.0911
  875SOL     OW 2623   2.884   0.096   1.213  0.2406 -0.7762  0.1596
  875SOL    HW1 2624   2.855   0.163   1.286 -3.0862 -2.9305 -0.5314
  875SOL    HW2 2625   2.802   0.071   1.157 -2.1028 -0.6068 -3.0192
  876SOL     OW 2626   0.517   1.242   0.372  0.2142  0.1715  0.2684
  876SOL    HW1 2627   0.446   1.175   0.333 -0.1213 -3.2425 -1.9311
  876SOL    HW2 2628   0.596   1.234   0.309  0.2931 -1.9478 -0.4387
  877SOL     OW 2629   1.054   1.085   1.673 -0.7082  0.3585 -0.4987
  877SOL    HW1 2630   1.063   1.008   1.601  2.9901 -4.9234 -1.3505
  877SOL    HW2 2631   0.957   1.083   1.708  0.9985 -0.3971 -0.6016
  878SOL     OW 2632   2.460   2.330   0.493  0.3895 -0.2169  0.8092
  878SOL    HW1 2633   2.375   2.279   0.468  2.1045 -0.0753 -0.9484
  878SOL    HW2 2634   2.502   2.379   0.411  1.1517  2.7988 -1.4551
  879SOL     OW 2635   2.774   1.650   1.750  0.0887  0.0401  0.7528
  879SOL    HW1 2636   2.781   1.603   1.658  2.9613 -0.3543  1.3614
  879SOL    HW2 2637   2.765   1.749   1.741 -1.1154  0.9423  0.3498
  880SOL     OW 2638   1.083   2.555   0.639  0.1446 -0.6563 -0.3822
  880SOL    HW1 2639   1.059   2.469   0.691  1.4238  2.0411  1.5841
  880SOL    HW2 2640   1.162   2.602   0.691  2.3058 -0.0515  1.9576
  881SOL     OW 2641   0.542   2.302   0.397 -0.1297 -0.2742 -0.4494
  881SOL    HW1 2642   0.563   2.283   0.298  1.0176  1.0733 -0.7782
  881SOL    HW2 2643   0.441   2.322   0.412 -4.3054  0.3517 -0.2489
  882SOL     OW 2644   1.832   0.718   0.720  0.1099  0.5052  0.1090
  882SOL    HW1 2645   1.823   0.817   0.729 -0.3212  0.0090 -0.3799
  882SOL    HW2 2646   1.913   0.681   0.771  1.1356  1.4745  0.7100
  883SOL     OW 2647   1.257   0.755   1.088 -0.0362 -0.0691  0.0431
  883SOL    HW1 2648   1.171   0.807   1.114 -0.7252 -0.1094  0.8993
  883SOL    HW2 2649   1.311   0.809   1.016 -0.3546  0.0349  1.3616
  884SOL     OW 2650   2.916   2.863   0.399  0.0523  0.0243  0.5644
  884SOL    HW1 2651   2.986   2.909   0.343 -1.2738 -1.0025  1.8582
  884SOL    HW2 2652   2.882   2.916   0.481 -0.5763  0.5976 -0.7394
  885SOL     OW 2653   1.091   1.314   2.535  0.1875 -0.1611 -0.1842
  885SOL    HW1 2654   1.156   1.289   2.612 -1.7111  0.1637  1.5731
  885SOL    HW2 2655   1.125   1.279   2.446 -2.3807  2.4531 -0.0278
  886SOL     OW 2656   1.366   2.006   2.629 -0.0947 -0.8770 -0.0913
  886SOL    HW1 2657   1.274   1.975   2.655 -0.8872 -1.1814 -0.6655
  886SOL    HW2 2658   1.358   2.092   2.577 -2.0172  0.8755  1.0658
  887SOL     OW 2659   1.049   0.343   1.208 -0.2704 -0.7882 -0.3400
  887SOL    HW1 2660   1.128   0.384   1.158 -0.4965  1.5314  0.5946
  887SOL    HW2 2661   1.005   0.423   1.259 -1.7846  0.1939  1.3919
  888SOL     OW 2662   2.206   0.574   1.812 -0.6861 -0.5782  0.6292
  888SOL    HW1 2663   2.292   0.579   1.874 -1.9840 -1.5364  1.3417
  888SOL    HW2 2664   2.122   0.552   1.866  0.1067 -0.2455  1.3686
  889SOL     OW 2665   0.204   2.542   0.682 -0.1534 -0.1074 -0.1436
  889SOL    HW1 2666   0.291   2.596   0.701  1.2795  0.8204 -1.8171
  889SOL    HW2 2667   0.134   2.555   0.755  2.1672  1.6807  0.5903
  890SOL     OW 2668   1.669   2.187   0.589  0.4987  0.5821 -0.0841
  890SOL    HW1 2669   1.737   2.117   0.625  1.5346  0.3317 -1.1687
  890SOL    HW2 2670   1.596   2.137   0.540 -2.3368 -0.0576 -0.4026
  891SOL     OW 2671   3.033   1.055   3.080 -0.4336  0.0224  0.2285
  891SOL    HW1 2672   3.058   0.957   0.002 -1.8011  0.6079  0.9891
  891SOL    HW2 2673   3.000   1.082   0.086  0.2173 -3.2539  0.9472
  892SOL     OW 2674   2.572   2.418   1.099  0.1530 -0.1498 -0.1906
  892SOL    HW1 2675   2.523   2.406   1.010 -0.3347  2.5394  1.4278
  892SOL    HW2 2676   2.565   2.514   1.127 -1.6663 -2.8840 -1.2802
  893SOL     OW 2677   1.224   0.503   1.053  0.1178 -0.2655 -0.4076
  893SOL    HW1 2678   1.295   0.458   1.001 -2.2300  2.9004  2.3648
  893SOL    HW2 2679   1.243   0.601   1.070  0.6436 -1.7167  3.4696
  894SOL     OW 2680   2.722   0.555   0.925 -0.6188  0.2052 -0.1148
  894SOL    HW1 2681   2.651   0.626   0.902 -1.0953 -0.0001  0.1010
  894SOL    HW2 2682   2.794   0.603   0.974 -0.6957 -1.6741 -1.3716
  895SOL     OW 2683   1.717   1.384   2.387  0.3393  0.5297  0.6531
  895SOL    HW1 2684   1.646   1.454   2.405  0.1766  1.7497 -1.1699
  895SOL    HW2 2685   1.724   1.384   2.287 -3.1640 -1.6932  1.9191
  896SOL     OW 2686   1.726   0.573   1.425  0.3765  0.4141 -0.4762
  896SOL    HW1 2687   1.655   0.501   1.406  1.3153  1.2515 -3.1847
  896SOL    HW2 2688   1.777   0.556   1.514  3.0801  0.5243  0.1919
  897SOL     OW 2689   0.351   1.521   1.633  0.6784  0.1081  0.4904
  897SOL    HW1 2690   0.309   1.609   1.667 -0.0992  0.9110 -1.8403
  897SOL    HW2 2691   0.368   1.542   1.537  0.9116  0.3958  3.0414
  898SOL     OW 2692   2.058   2.544   2.143  0.2645  0.0389  0.0680
  898SOL    HW1 2693   2.092   2.454   2.103  0.2627 -0.6155  0.0466
  898SOL    HW2 2694   2.057   2.535   2.247 -1.2275 -0.5647 -0.9680
  899SOL     OW 2695   1.176   1.640   1.196 -0.0702  0.7169 -0.6221
  899SOL    HW1 2696   1.091   1.611   1.152  0.5335  0.5350  0.1985
  899SOL    HW2 2697   1.153   1.685   1.288 -0.9751  2.1377  3.2533
  900SOL     OW 2698   1.288   2.243   2.518  0.2033 -0.0906  0.0311
  900SOL    HW1 2699   1.202   2.249   2.570  2.2373  0.1268 -0.3380
  900SOL    HW2 2700   1.272   2.273   2.420 -2.0457 -1.0798  0.4447
  901SOL     OW 2701   0.904   1.555   2.417  0.4892 -0.1424  0.2523
  901SOL    HW1 2702   0.896   1.479   2.349 -0.8184  1.3212  1.0695
  901SOL    HW2 2703   0.847   1.636   2.385 -1.0599  0.0708 -0.2515
  902SOL     OW 2704   2.273   1.668   0.453 -0.1494  0.2774  0.1669
  902SOL    HW1 2705   2.297   1.588   0.390  0.0867 -1.2591 -1.0588
  902SOL    HW2 2706   2.309   1.650   0.547 -3.6051 -0.3062 -2.4618
  903SOL     OW 2707   2.041   1.734   0.350 -0.3345  0.3055  0.2228
  903SOL    HW1 2708   2.129   1.714   0.398  1.4472  0.8546 -1.2969
  903SOL    HW2 2709   2.000   1.824   0.379 -0.6991 -0.4812 -1.1351
  904SOL     OW 2710   1.211   0.926   2.167  0.7013 -0.4584 -0.5030
  904SOL    HW1 2711   1.280   0.983   2.114 -0.8672 -0.3462 -1.0144
  904SOL    HW2 2712   1.222   0.931   2.270  1.6792 -0.9127  0.3739
  905SOL     OW 2713   2.908   0.176   0.757 -0.1909 -0.0078 -0.2489
  905SOL    HW1 2714   2.930   0.278   0.745  0.3075  0.4071  1.5188
  905SOL    HW2 2715   2.962   0.135   0.834 -0.3278  1.1735  0.1862
  906SOL     OW 2716   3.003   1.806   0.374  0.2192 -0.2693 -0.4150
  906SOL    HW1 2717   3.053   1.756   0.299  0.0521 -1.9292  0.3680
  906SOL    HW2 2718   3.073   1.839   0.445  3.0558 -1.9502  0.8408
  907SOL     OW 2719   1.352   0.419   0.195  0.1232 -0.2109  0.2858
  907SOL    HW1 2720   1.434   0.479   0.206 -1.9404 -2.5741 -0.8406
  907SOL    HW2 2721   1.341   0.349   0.271 -1.5682 -0.6152  1.1668
  908SOL     OW 2722   1.709   2.684   1.465 -0.0257 -0.2722  0.0369
  908SOL    HW1 2723   1.748   2.669   1.558 -0.4450 -3.6809  1.3754
  908SOL    HW2 2724   1.619   2.735   1.468 -2.0322  0.8239 -0.7092
  909SOL     OW 2725   2.550   0.630   1.524  0.4834 -0.5289  0.3243
  909SOL    HW1 2726   2.497   0.568   1.584  0.7114 -0.3071  4.2664
  909SOL    HW2 2727   2.622   0.683   1.573  0.1532 -0.0127 -0.0696
  910SOL     OW 2728   1.291   3.076   2.488  0.1608 -0.7101  0.1730
  910SOL    HW1 2729   1.330   2.981   2.487 -1.6057  2.9821 -1.7563
  910SOL    HW2 2730   1.265   0.015   2.392  0.9206 -1.5155 -0.4663
  911SOL     OW 2731   2.399   1.041   2.254 -0.3729 -0.2535  0.2030
  911SOL    HW1 2732   2.449   1.013   2.170 -2.0344 -1.8712  2.7560
  911SOL    HW2 2733   2.326   1.108   2.232 -3.6361  1.8041 -0.6120
  912SOL     OW 2734   2.476   1.984   1.757  0.9692 -0.2811  0.1118
  912SOL    HW1 2735   2.510   2.063   1.698  0.7318 -2.7124  0.1986
  912SOL    HW2 2736   2.376   1.966   1.744 -2.3781 -1.7838 -2.0867
  913SOL     OW 2737   2.449   2.620   1.255  0.1105 -0.2821 -0.9400
  913SOL    HW1 2738   2.443   2.615   1.356 -0.0680 -0.4441  1.4940
  913SOL    HW2 2739   2.446   2.719   1.231 -0.7754  2.4105  2.9348
  914SOL     OW 2740   2.415   1.853   1.404 -0.1427  0.2502 -0.1788
  914SOL    HW1 2741   2.382   1.761   1.414  0.5407  0.6879  2.3047
  914SOL    HW2 2742   2.368   1.913   1.469 -0.1288 -0.5189 -3.2377
  915SOL     OW 2743   1.271   2.236   1.273 -0.1356  0.7019  0.2293
  915SOL    HW1 2744   1.199   2.262   1.341  0.2206  0.0696  0.9938
  915SOL    HW2 2745   1.367   2.270   1.300  1.4220  1.3626 -0.6470
  916SOL     OW 2746   2.751   2.706   1.147 -0.0771 -0.2813  1.2002
  916SOL    HW1 2747   2.806   2.781   1.184 -4.5706 -3.0207 -4.1701
  916SOL    HW2 2748   2.686   2.738   1.073  0.1495 -1.7732 -0.5831
  917SOL     OW 2749   2.544   1.403   2.718 -0.1299  0.4909 -0.0021
  917SOL    HW1 2750   2.596   1.324   2.752 -2.0911  0.3841 -1.9292
  917SOL    HW2 2751   2.516   1.380   2.625  0.8272 -0.0737  0.3772
  918SOL     OW 2752   1.765   1.962   2.424 -0.7590 -0.0127 -0.1752
  918SOL    HW1 2753   1.676   1.918   2.403  2.2904  1.5689 -0.4173
  918SOL    HW2 2754   1.837   1.895   2.393 -2.3424 -1.1812 -0.7993
  919SOL     OW 2755   1.586   2.076   1.486  0.5960 -0.3685 -0.2781
  919SOL    HW1 2756   1.561   2.070   1.585 -0.6851  0.5575  0.7533
  919SOL    HW2 2757   1.679   2.108   1.476 -3.0818  0.4575 -1.0884
  920SOL     OW 2758   0.479   3.026   2.723  0.1128 -0.0214  0.0910
  920SOL    HW1 2759   0.555   3.071   2.670 -2.7198  1.3595 -0.7460
  920SOL    HW2 2760   0.496   2.930   2.749 -2.2455  1.4448 -2.2598
  921SOL     OW 2761   2.698   0.329   2.592  0.0971  0.2154 -0.0850
  921SOL    HW1 2762   2.776   0.265   2.575  1.1623 -1.1626  1.9351
  921SOL    HW2 2763   2.682   0.401   2.519 -1.2899  0.7919  0.4643
  922SOL     OW 2764   2.477   1.557   1.749 -0.0446 -0.3875  0.3835
  922SOL    HW1 2765   2.567   1.600   1.746 -1.2162 -2.3059  0.8741
  922SOL    HW2 2766   2.406   1.623   1.774 -0.6177 -1.2642  0.7480
  923SOL     OW 2767   0.941   2.024   0.278  0.0533  0.1031  0.7073
  923SOL    HW1 2768   0.957   2.108   0.337 -1.6276 -0.9215  1.1827
  923SOL    HW2 2769   1.028   1.991   0.235  2.1083 -1.8261  2.1521
  924SOL     OW 2770   1.417   0.354   3.024 -0.4476  0.2901 -0.7069
  924SOL    HW1 2771   1.395   0.397   0.030  0.3604 -1.9911  0.5500
  924SOL    HW2 2772   1.513   0.382   2.995  0.5623 -0.0030  1.5131
  925SOL     OW 2773   2.567   0.848   0.387 -0.0825  0.4493 -0.2442
  925SOL    HW1 2774   2.588   0.940   0.424 -0.4050 -0.7922 -1.4237
  925SOL    HW2 2775   2.475   0.845   0.347  1.1001 -1.9278 -1.0054
  926SOL     OW 2776   0.349   0.768   0.602  0.0693 -0.0770 -0.2516
  926SOL    HW1 2777   0.358   0.670   0.588  0.0882  2.6823 -0.0265
  926SOL    HW2 2778   0.284   0.807   0.530 -0.5286 -1.4828 -0.6464
  927SOL     OW 2779   0.582   1.486   0.501 -0.3820 -0.2513 -0.4412
  927SOL    HW1 2780   0.575   1.403   0.449  0.1141  1.8601  1.4239
  927SOL    HW2 2781   0.675   1.505   0.535 -1.2365 -1.0846 -3.1945
  928SOL     OW 2782   0.042   3.013   2.500  0.1742  0.0539  0.1407
  928SOL    HW1 2783   0.085   2.968   2.581 -1.6303 -3.1863 -1.4772
  928SOL    HW2 2784   0.094   0.010   2.481  1.2791  0.1890  2.6824
  929SOL     OW 2785   2.467   0.197   1.365 -0.2811 -0.1537  0.5205
  929SOL    HW1 2786   2.419   0.159   1.286 -0.7659  1.7700  0.0054
  929SOL    HW2 2787   2.531   0.265   1.339  0.1130 -1.6138 -1.3144
  930SOL     OW 2788   1.846   2.193   1.438  0.0767  0.2145 -0.1306
  930SOL    HW1 2789   1.840   2.278   1.492 -2.9016 -1.8488 -0.2508
  930SOL    HW2 2790   1.902   2.120   1.482 -0.8949 -0.9023 -0.5778
  931SOL     OW 2791   1.697   1.040   1.011 -0.0841 -0.3357  0.4158
  931SOL    HW1 2792   1.778   0.992   1.046 -0.6656  2.0444 -0.5283
  931SOL    HW2 2793   1.712   1.140   1.029  0.9269 -0.2051 -0.8249
  932SOL     OW 2794   2.775   0.915   1.147  0.7616 -0.4781  0.0912
  932SOL    HW1 2795   2.744   0.835   1.206 -1.7453 -0.6093 -1.7607
  932SOL    HW2 2796   2.803   0.870   1.060 -0.2621 -1.2392 -0.8195
  933SOL     OW 2797   2.769   1.784   2.021 -0.3698 -0.0448 -0.1857
  933SOL    HW1 2798   2.863   1.801   1.979  0.3191 -1.7062  0.4264
  933SOL    HW2 2799   2.703   1.864   2.025 -0.7487 -1.3962  1.6347
  934SOL     OW 2800   1.628   0.101   1.091 -0.1321 -0.0245  0.0510
  934SOL    HW1 2801   1.538   0.091   1.051  0.3732  0.1046  0.8764
  934SOL    HW2 2802   1.700   0.057   1.034 -1.8373  1.3608 -0.7998
  935SOL     OW 2803   2.616   1.150   1.115  0.0402 -0.5546  0.2760
  935SOL    HW1 2804   2.697   1.091   1.143  0.1782 -0.0210 -2.3093
  935SOL    HW2 2805   2.663   1.221   1.056  0.3397  0.9258 -0.5113
  936SOL     OW 2806   2.777   1.366   1.000 -0.9530 -0.2758  0.2455
  936SOL    HW1 2807   2.852   1.332   0.940  0.0839  2.2947 -0.7103
  936SOL    HW2 2808   2.762   1.465   0.990  0.8177 -1.3633  1.9573
  937SOL     OW 2809   1.381   2.688   0.494 -0.1155  0.1113  0.1952
  937SOL    HW1 2810   1.348   2.783   0.516 -0.7638  0.8005  1.4573
  937SOL    HW2 2811   1.463   2.687   0.432 -0.7992 -2.4477  0.7911
  938SOL     OW 2812   3.036   2.505   0.832  0.0318  0.8665 -0.2234
  938SOL    HW1 2813   2.964   2.531   0.767  2.6560 -0.6998 -0.5188
  938SOL    HW2 2814   3.012   2.538   0.925  1.3165  0.5324 -3.4451
  939SOL     OW 2815   0.857   1.971   2.942 -0.2300  0.4756  0.1663
  939SOL    HW1 2816   0.812   1.983   3.031  3.8510 -3.1140 -1.1554
  939SOL    HW2 2817   0.837   2.051   2.881  0.8748 -0.7126 -0.8419
  940SOL     OW 2818   2.792   2.795   2.621 -0.5630 -0.2606  0.5521
  940SOL    HW1 2819   2.854   2.754   2.552 -0.1983 -1.5713  1.8780
  940SOL    HW2 2820   2.693   2.803   2.587  3.7385  2.0474 -1.5434
  941SOL     OW 2821   1.251   2.712   2.969 -0.0383 -0.2937 -0.6877
  941SOL    HW1 2822   1.279   2.810   2.980 -0.0167 -1.3032  2.5588
  941SOL    HW2 2823   1.274   2.661   3.055 -0.4602 -0.4481 -0.1613
  942SOL     OW 2824   1.883   1.766   1.427 -0.6769  0.3310  0.1612
  942SOL    HW1 2825   1.818   1.698   1.464  1.6432 -0.3287  0.3016
  942SOL    HW2 2826   1.830   1.832   1.371 -0.0073  0.7736  1.0433
  943SOL     OW 2827   2.230   1.207   1.682  0.3279  0.4948  0.0090
  943SOL    HW1 2828   2.263   1.118   1.640  3.1176 -2.8678  0.0364
  943SOL    HW2 2829   2.273   1.237   1.770  0.0948  1.2269  0.8187
  944SOL     OW 2830   1.987   0.983   1.967 -0.2304  0.1410  0.0197
  944SOL    HW1 2831   1.967   1.051   1.893 -0.2252  2.4752 -0.1352
  944SOL    HW2 2832   1.925   0.905   1.963 -1.5145 -1.7438 -1.3030
  945SOL     OW 2833   0.040   0.210   1.393 -0.2862 -0.2612  0.8363
  945SOL    HW1 2834   3.042   0.253   1.347 -0.5981  0.5172  1.6809
  945SOL    HW2 2835   0.062   0.259   1.481 -0.0830 -1.3236  2.1805
  946SOL     OW 2836   0.482   1.001   1.852  0.0377  0.3097  0.4310
  946SOL    HW1 2837   0.544   1.076   1.841 -2.1025  0.0421  0.4695
  946SOL    HW2 2838   0.503   0.964   1.941  1.0317  2.6287 -3.4289
  947SOL     OW 2839   0.550   2.577   0.565 -0.2482 -0.1028  0.1239
  947SOL    HW1 2840   0.651   2.604   0.559  0.9264 -1.2552 -2.2653
  947SOL    HW2 2841   0.546   2.479   0.594 -1.1768  2.3960 -2.3996
  948SOL     OW 2842   2.907   0.993   1.839  0.5262 -0.4504  0.6447
  948SOL    HW1 2843   2.956   1.076   1.811  1.9227 -0.1328 -3.4385
  948SOL    HW2 2844   2.967   0.926   1.879 -1.5717 -0.9222 -3.6454
  949SOL     OW 2845   0.074   0.487   2.287  0.6931 -0.2459 -0.1314
  949SOL    HW1 2846   0.146   0.560   2.283 -1.3083  0.1022  2.1244
  949SOL    HW2 2847   0.082   0.425   2.211 -0.6855 -0.1102  3.1160
  950SOL     OW 2848   0.564   0.722   1.014 -0.9224  0.0478 -0.2033
  950SOL    HW1 2849   0.633   0.786   0.972 -1.1314  1.5795 -2.0377
  950SOL    HW2 2850   0.545   0.647   0.950  0.2757 -1.8044  0.7897
  951SOL     OW 2851   1.163   1.808   1.881 -0.2378  0.1626 -0.7234
  951SOL    HW1 2852   1.179   1.842   1.979  1.9782  0.7597  1.4556
  951SOL    HW2 2853   1.147   1.705   1.887 -1.6726 -1.3939 -1.0676
  952SOL     OW 2854   0.923   1.633   2.702 -0.2074  0.2233  0.6765
  952SOL    HW1 2855   0.979   1.588   2.772  0.4604  2.2639  2.5286
  952SOL    HW2 2856   0.962   1.609   2.611  0.7115  0.6021  0.2692
  953SOL     OW 2857   1.617   3.054   2.105 -0.1902 -0.2773 -0.0642
  953SOL    HW1 2858   1.536   2.996   2.079 -2.7610 -0.8667 -1.0784
  953SOL    HW2 2859   1.643   3.053   2.198 -0.1029  1.9406 -1.9771
  954SOL     OW 2860   2.376   1.268   0.484  1.2250  0.5426 -0.3660
  954SOL    HW1 2861   2.364   1.334   0.405  0.9673  1.3221 -0.4032
  954SOL    HW2 2862   2.285   1.257   0.532 -2.3032  0.4002  1.0668
  955SOL     OW 2863   0.355   2.123   2.282 -0.3662 -0.5236 -0.1930
  955SOL    HW1 2864   0.344   2.174   2.371  1.8260 -0.6044  1.3510
  955SOL    HW2 2865   0.356   2.022   2.306 -1.4082  1.5597  0.3343
  956SOL     OW 2866   1.108   1.145   1.337 -0.4357  0.3819  0.2644
  956SOL    HW1 2867   1.106   1.060   1.388  2.5918  1.3553  0.4955
  956SOL    HW2 2868   1.160   1.133   1.253 -0.1010  0.6894 -3.2184
  957SOL     OW 2869   2.143   1.345   2.500 -0.1373  0.3908 -0.2127
  957SOL    HW1 2870   2.080   1.423   2.514  1.2123 -1.4608  0.0460
  957SOL    HW2 2871   2.111   1.255   2.539 -0.1070 -1.1028 -0.5940
  958SOL     OW 2872   1.726   2.565   0.852 -0.2156  0.0362  0.2244
  958SOL    HW1 2873   1.659   2.547   0.921  1.2316 -0.0134 -2.5947
  958SOL    HW2 2874   1.821   2.543   0.881 -0.5505  0.5881 -0.1411
  959SOL     OW 2875   1.982   1.742   2.426 -0.0961 -0.1621  0.3361
  959SOL    HW1 2876   2.065   1.776   2.480  1.5350 -0.7139 -1.4771
  959SOL    HW2 2877   1.957   1.648   2.450  0.9597  3.0269 -2.0763
  960SOL     OW 2878   0.411   0.453   2.963 -0.7371  0.1733  0.0302
  960SOL    HW1 2879   0.491   0.514   2.957  2.4914 -2.3213 -3.0218
  960SOL    HW2 2880   0.421   0.381   2.894  0.5980 -0.7034 -0.4988
  961SOL     OW 2881   0.119   0.420   2.010  0.1637  0.1697 -0.0200
  961SOL    HW1 2882   0.040   0.472   1.969 -0.8886 -2.0008  1.0778
  961SOL    HW2 2883   0.203   0.445   1.963 -1.2964 -0.1599  2.8431
  962SOL     OW 2884   1.140   1.377   0.067 -0.2788 -0.3774  0.0159
  962SOL    HW1 2885   1.171   1.294   0.022  0.4629  0.5231  0.8238
  962SOL    HW2 2886   1.054   1.357   0.116  0.0652 -0.5298 -0.0558
  963SOL     OW 2887   1.697   2.103   2.871 -0.4939  0.1374 -0.3912
  963SOL    HW1 2888   1.778   2.156   2.901 -0.5450 -2.8195 -3.0401
  963SOL    HW2 2889   1.616   2.147   2.914  0.1112  2.1336 -3.3011
  964SOL     OW 2890   1.227   2.946   0.809 -0.0983  0.2132 -0.3726
  964SOL    HW1 2891   1.282   2.960   0.723 -0.6170  1.2855 -0.1632
  964SOL    HW2 2892   1.287   2.899   0.874 -0.8863  4.2119 -0.0438
  965SOL     OW 2893   0.776   2.671   0.845  0.0597  0.1394  0.0216
  965SOL    HW1 2894   0.784   2.622   0.754 -0.8268 -0.6346  0.5695
  965SOL    HW2 2895   0.696   2.736   0.846 -0.4595 -0.7815  1.6768
  966SOL     OW 2896   2.835   1.489   3.043  0.1383  0.0425  0.3469
  966SOL    HW1 2897   2.806   1.543   2.958  2.4182  0.3460 -2.0513
  966SOL    HW2 2898   2.775   1.414   3.071 -0.7330 -0.1468 -0.1315
  967SOL     OW 2899   1.568   2.842   1.655 -0.5922  0.1637  0.0087
  967SOL    HW1 2900   1.502   2.772   1.687 -1.4323 -0.7916  2.3888
  967SOL    HW2 2901   1.542   2.931   1.697 -1.1479 -0.1637 -0.0201
  968SOL     OW 2902   1.749   0.963   0.744  0.5612 -0.2081 -0.4538
  968SOL    HW1 2903   1.669   0.952   0.678 -3.7165  1.2990 -3.5178
  968SOL    HW2 2904   1.715   0.993   0.835  0.0437 -1.1600 -0.3335
  969SOL     OW 2905   0.234   1.751   1.990 -0.0597 -0.1558 -0.4623
  969SOL    HW1 2906   0.229   1.707   1.898 -0.0841  1.3960  1.2527
  969SOL    HW2 2907   0.324   1.801   2.005  0.7823  0.8496  0.4125
  970SOL     OW 2908   2.746   1.483   1.481 -0.5402 -0.1496  0.4486
  970SOL    HW1 2909   2.738   1.438   1.390  2.0352  1.7721 -2.2907
  970SOL    HW2 2910   2.710   1.425   1.560 -1.8868 -1.1336  0.3913
  971SOL     OW 2911   1.383   0.391   1.592 -0.0889  0.2504 -0.0641
  971SOL    HW1 2912   1.397   0.376   1.496 -0.4141  1.5724  2.7450
  971SOL    HW2 2913   1.467   0.374   1.652 -0.9477 -1.0996  3.3518
  972SOL     OW 2914   0.996   0.375   2.509  0.0689  0.4070 -0.8239
  972SOL    HW1 2915   1.041   0.289   2.542  0.7409 -2.3375  0.4060
  972SOL    HW2 2916   1.032   0.455   2.554 -1.8155 -1.6668  1.3510
  973SOL     OW 2917   2.766   1.313   0.594  0.3577  0.0165 -0.4893
  973SOL    HW1 2918   2.763   1.298   0.494  0.2549  0.0145  1.7229
  973SOL    HW2 2919   2.775   1.225   0.640  1.8355  1.7351 -0.9903
  974SOL     OW 2920   1.973   1.382   1.952 -0.1088  0.5927  0.2465
  974SOL    HW1 2921   1.895   1.384   2.016  3.3648  0.9342 -0.3424
  974SOL    HW2 2922   1.969   1.295   1.894 -1.1439 -0.0343 -0.0696
  975SOL     OW 2923   0.039   2.920   0.628  0.3592 -0.1407  0.0910
  975SOL    HW1 2924   0.034   2.914   0.733 -3.0269  0.1269  0.5831
  975SOL    HW2 2925   3.063   2.991   0.590  2.5993  1.6448  1.1455
  976SOL     OW 2926   0.008   1.751   1.681  0.0674 -0.2570  0.4942
  976SOL    HW1 2927   0.000   1.766   1.581  1.3524  1.9802  0.8597
  976SOL    HW2 2928   3.048   1.827   1.729 -0.5847 -0.7211 -1.5686
  977SOL     OW 2929   0.794   2.730   0.009  0.1290 -0.2823 -0.7507
  977SOL    HW1 2930   0.888   2.722   0.051  0.9260 -1.7857 -2.7837
  977SOL    HW2 2931   0.798   2.741   2.999  0.0801  0.5662  4.1220
  978SOL     OW 2932   0.691   1.746   0.035 -0.1839  0.5340 -0.3106
  978SOL    HW1 2933   0.643   1.664   0.079 -0.8364  0.5365 -2.1978
  978SOL    HW2 2934   0.779   1.727   3.082  0.3326  4.6336 -1.1769
  979SOL     OW 2935   1.249   2.103   1.048  0.2141 -0.3830  0.0346
  979SOL    HW1 2936   1.335   2.093   0.997 -2.6542  1.3640 -0.5489
  979SOL    HW2 2937   1.254   2.161   1.130 -1.3305  2.4175 -0.9262
  980SOL     OW 2938   0.209   1.252   2.323  0.4228 -0.0232 -0.6666
  980SOL    HW1 2939   0.171   1.342   2.349  1.3717  0.8647 -0.1223
  980SOL    HW2 2940   0.308   1.247   2.353  2.8028  1.2390  0.8352
  981SOL     OW 2941   2.770   0.806   3.077  0.4870  0.4512 -0.8502
  981SOL    HW1 2942   2.784   0.898   3.043 -0.0914  0.0814 -1.7441
  981SOL    HW2 2943   2.858   0.759   0.001 -2.0745  1.8939  0.1711
  982SOL     OW 2944   2.715   2.888   3.071  0.2509 -0.5021 -0.4902
  982SOL    HW1 2945   2.699   2.812   3.010 -1.9628  2.2404  3.0300
  982SOL    HW2 2946   2.720   2.978   3.022  0.7077  1.7685 -0.9365
  983SOL     OW 2947   2.089   0.485   1.404 -0.0410  0.0505 -0.6603
  983SOL    HW1 2948   2.091   0.554   1.483  0.1882  1.4098  0.6215
  983SOL    HW2 2949   2.052   0.392   1.427  2.9831  0.6146  0.2920
  984SOL     OW 2950   1.045   0.344   2.221  0.1347  0.3800  0.5543
  984SOL    HW1 2951   0.984   0.408   2.267 -0.4599 -1.2665 -0.9265
  984SOL    HW2 2952   1.133   0.335   2.262 -1.1437 -0.2983 -5.5658
  985SOL     OW 2953   1.331   2.159   2.037  0.5198 -0.0956 -0.4362
  985SOL    HW1 2954   1.332   2.159   1.935 -0.2745 -0.0441 -0.9017
  985SOL    HW2 2955   1.395   2.234   2.074 -0.5324 -0.5351  0.4832
  986SOL     OW 2956   2.059   0.241   2.237  0.0955  0.0073 -0.1397
  986SOL    HW1 2957   2.099   0.329   2.258 -0.3868  2.2534 -2.8303
  986SOL    HW2 2958   2.112   0.205   2.158  1.1262 -0.4611 -1.0719
  987SOL     OW 2959   2.409   0.384   2.233 -0.1189 -0.0231  0.1912
  987SOL    HW1 2960   2.387   0.288   2.262 -3.3086 -2.3352 -2.3038
  987SOL    HW2 2961   2.404   0.387   2.130 -1.4396 -2.5329  0.0396
  988SOL     OW 2962   2.635   0.457   2.363 -0.2111  0.1753 -0.2524
  988SOL    HW1 2963   2.637   0.561   2.383 -1.1857 -0.0187 -1.4127
  988SOL    HW2 2964   2.549   0.434   2.318  0.0104  0.4361 -0.0078
  989SOL     OW 2965   2.373   2.310   2.790  0.0544 -0.0828  0.4702
  989SOL    HW1 2966   2.462   2.305   2.842  2.7234 -0.7423  1.3313
  989SOL    HW2 2967   2.391   2.296   2.688  1.3136  0.4902  0.1639
  990SOL     OW 2968   0.301   0.796   0.175 -0.3631 -0.5381  0.7965
  990SOL    HW1 2969   0.250   0.740   0.243  0.1009  2.0198 -0.1753
  990SOL    HW2 2970   0.288   0.763   0.081  1.4132 -2.1000  0.9584
  991SOL     OW 2971   0.693   0.580   2.665  0.1414  0.3104  0.1524
  991SOL    HW1 2972   0.703   0.488   2.708 -1.1446 -0.2174  0.2482
  991SOL    HW2 2973   0.713   0.655   2.732 -1.1670  2.0572  4.4362
  992SOL     OW 2974   0.101   1.626   2.178 -0.0632 -0.2434 -0.9519
  992SOL    HW1 2975   0.149   1.659   2.093  0.4730  1.0623 -0.0682
  992SOL    HW2 2976   0.039   1.546   2.158 -2.8545 -2.8196  3.1888
  993SOL     OW 2977   0.593   3.086   0.763 -0.4321  0.5494 -0.0905
  993SOL    HW1 2978   0.523   0.044   0.710  1.6487 -3.5501  1.0883
  993SOL    HW2 2979   0.657   0.070   0.801 -1.1787  0.1261 -0.6034
  994SOL     OW 2980   0.406   2.049   1.791  0.3034 -0.3608 -0.1837
  994SOL    HW1 2981   0.350   2.128   1.770 -1.0404 -2.0943  0.2374
  994SOL    HW2 2982   0.442   2.009   1.707  2.6962  0.0387  0.2857
  995SOL     OW 2983   2.417   1.788   0.041 -0.0495  0.2319 -0.4528
  995SOL    HW1 2984   2.438   1.841   3.044 -0.1865  1.2328 -0.0605
  995SOL    HW2 2985   2.321   1.807   0.070  3.2077 -0.4581  0.0214
  996SOL     OW 2986   1.926   1.513   2.516  0.5677  0.5651 -0.0155
  996SOL    HW1 2987   1.874   1.535   2.602 -0.4215  0.8949 -0.9529
  996SOL    HW2 2988   1.865   1.452   2.461  0.6969 -0.7152  0.9223
  997SOL     OW 2989   1.763   1.465   1.754  0.3316 -0.3673  0.5567
  997SOL    HW1 2990   1.842   1.481   1.819 -0.5091  0.7724  0.8955
  997SOL    HW2 2991   1.776   1.379   1.699 -0.2180 -0.9329  0.5350
  998SOL     OW 2992   2.404   1.938   0.781 -0.3325 -0.1816  0.1403
  998SOL    HW1 2993   2.425   1.891   0.869 -1.5654  0.8146 -3.6760
  998SOL    HW2 2994   2.383   1.871   0.707  1.8219 -0.1762  0.8102
  999SOL     OW 2995   2.347   2.566   0.534  0.2443  0.4371  0.2369
  999SOL    HW1 2996   2.412   2.631   0.495  1.7694 -2.7351 -0.5244
  999SOL    HW2 2997   2.384   2.469   0.531  1.2190 -1.2126  2.7708
 1000SOL     OW 2998   0.971   0.083   2.346  0.4928  0.0305  0.5987
 1000SOL    HW1 2999   0.911   0.132   2.409  5.5343 -0.7914  0.9025
 1000SOL    HW2 3000   1.011   0.152   2.282  0.0371 -1.6182  0.8975
   3.08695   3.08695   3.08695
