1000 SPC/Fw water molecules t= 406.00000 step= 406000
 3000
    1SOL     OW    1   0.091   3.072   1.588  0.0858  0.2109 -0.0457
    1SOL    HW1    2   0.035   0.028   1.662 -1.8640 -1.4543 -1.2124
    1SOL    HW2    3   0.081   0.035   1.498 -0.6126  0.8253 -2.1649
    2SOL     OW    4   2.501   2.654   0.451  0.3161 -0.4312 -0.2842
    2SOL    HW1    5   2.508   2.617   0.357  1.4852 -0.3690 -2.9826
    2SOL    HW2    6   2.456   2.745   0.446 -0.8868  0.1280 -0.3115
    3SOL     OW    7   1.515   2.534   0.131  0.3572  0.1809 -0.8295
    3SOL    HW1    8   1.568   2.597   0.077 -2.7506  0.1438 -0.0085
    3SOL    HW2    9   1.420   2.567   0.128  1.7179  1.1483 -1.3095
    4SOL     OW   10   1.017   2.950   2.293  0.0956  0.6305 -0.5996
    4SOL    HW1   11   0.984   2.997   2.211  0.2789 -0.7064 -0.4020
    4SOL    HW2   12   1.102   2.901   2.272 -2.1660  0.9599 -1.4159
    5SOL     OW   13   1.997   0.055   1.773 -0.1643 -0.2949  0.0146
    5SOL    HW1   14   2.057   0.047   1.855  1.8846 -0.4310  3.6584
    5SOL    HW2   15   2.051   0.032   1.688 -0.7105  0.8862 -2.4284
    6SOL     OW   16   2.376   1.799   0.899  0.2838 -0.2466 -0.2862
    6SOL    HW1   17   2.295   1.846   0.858  0.6323 -0.9703 -2.0150
    6SOL    HW2   18   2.416   1.731   0.829  0.8207 -0.9492 -1.4273
    7SOL     OW   19   2.261   1.002   0.641 -0.0639  0.0813  0.4052
    7SOL    HW1   20   2.322   1.070   0.689  0.6591  0.4828  0.2100
    7SOL    HW2   21   2.298   0.995   0.545  0.0690 -1.9074 -0.0146
    8SOL     OW   22   0.589   1.339   0.886  0.2258 -0.2469  0.1110
    8SOL    HW1   23   0.632   1.319   0.978  2.4534  0.9068 -2.0508
    8SOL    HW2   24   0.664   1.358   0.822 -0.3558 -0.2017 -3.5368
    9SOL     OW   25   0.201   2.824   1.616 -0.1378  0.2701 -0.1140
    9SOL    HW1   26   0.158   2.916   1.618  0.8211 -0.4044 -0.7643
    9SOL    HW2   27   0.156   2.763   1.549  3.7545  2.5587  1.1429
   10SOL     OW   28   1.160   2.323   0.488  0.6406  0.2681 -0.1185
   10SOL    HW1   29   1.087   2.277   0.544  0.0487  0.3095 -1.7142
   10SOL    HW2   30   1.159   2.424   0.499 -2.6258 -1.3968 -1.4859
   11SOL     OW   31   1.615   1.904   1.001 -0.2372 -0.5682  0.0285
   11SOL    HW1   32   1.704   1.925   0.962  2.0960  0.4847 -0.3836
   11SOL    HW2   33   1.588   1.977   1.065  0.4247  1.7111 -0.7553
   12SOL     OW   34   2.644   0.564   2.163 -0.2070 -0.1350  0.4348
   12SOL    HW1   35   2.690   0.625   2.228 -1.7482 -3.8537 -2.5664
   12SOL    HW2   36   2.578   0.504   2.214  0.3505 -0.8196  0.8249
   13SOL     OW   37   2.726   2.837   0.142 -0.4357  0.8601  0.3037
   13SOL    HW1   38   2.751   2.751   0.099  2.5847  2.6074 -1.6479
   13SOL    HW2   39   2.630   2.860   0.126 -1.8533 -0.0133  2.2440
   14SOL     OW   40   1.776   1.598   2.934 -0.4087 -0.0704  0.1001
   14SOL    HW1   41   1.750   1.500   2.921 -3.3559  0.1894  0.0539
   14SOL    HW2   42   1.742   1.635   3.023  1.7376  0.3351  1.3068
   15SOL     OW   43   2.769   2.703   1.727 -0.5486  0.1942  0.0233
   15SOL    HW1   44   2.781   2.628   1.800  1.3901 -0.8565  0.4565
   15SOL    HW2   45   2.851   2.768   1.719  3.7287  3.0289 -1.4059
   16SOL     OW   46   2.963   3.046   1.078  0.0118 -0.0129  0.3226
   16SOL    HW1   47   2.974   0.035   1.022  2.1723 -0.4320  2.8394
   16SOL    HW2   48   2.889   2.983   1.051 -1.8204  0.1926  1.6748
   17SOL     OW   49   1.179   0.122   0.674  0.2644  0.2472  0.8010
   17SOL    HW1   50   1.251   0.171   0.724  1.4667 -2.8413  0.6890
   17SOL    HW2   51   1.088   0.148   0.703  1.0597  0.6777 -1.9432
   18SOL     OW   52   1.533   0.066   0.934  0.3525  0.4049  0.3109
   18SOL    HW1   53   1.482   3.074   0.899 -3.9812  1.2208 -1.4236
   18SOL    HW2   54   1.612   0.043   0.991  0.9896  0.1066 -0.5076
   19SOL     OW   55   2.283   1.188   0.282 -0.0016  0.3212  0.0711
   19SOL    HW1   56   2.185   1.203   0.248 -4.0320 -0.4020  1.4874
   19SOL    HW2   57   2.321   1.260   0.344  1.4662 -1.2613  1.5743
   20SOL     OW   58   2.474   1.520   2.541 -0.2089 -0.5495 -0.8431
   20SOL    HW1   59   2.491   1.596   2.475  1.1286 -1.7324  1.2652
   20SOL    HW2   60   2.425   1.549   2.627  1.8999 -2.3809  0.1855
   21SOL     OW   61   1.550   2.861   0.243  0.1506 -0.2446 -0.5582
   21SOL    HW1   62   1.621   2.928   0.266 -2.3019  0.9664 -2.2109
   21SOL    HW2   63   1.465   2.873   0.300 -2.7884  1.6528  1.2953
   22SOL     OW   64   2.877   0.982   0.950  0.0747  0.0113 -0.1992
   22SOL    HW1   65   2.882   1.070   0.998 -2.1189 -1.6515 -0.9850
   22SOL    HW2   66   2.783   0.950   0.927 -1.9027 -1.1026 -0.8240
   23SOL     OW   67   0.631   0.097   2.023  0.4466 -0.1219  0.2789
   23SOL    HW1   68   0.686   0.124   1.943  2.1583 -0.9570  1.3097
   23SOL    HW2   69   0.544   0.148   2.038  0.6685  0.4094 -0.9311
   24SOL     OW   70   2.372   2.558   0.776 -0.5981  0.2302 -0.8125
   24SOL    HW1   71   2.460   2.533   0.725  3.1470  1.0679  0.5977
   24SOL    HW2   72   2.360   2.496   0.862  0.6589 -1.7036  3.2089
   25SOL     OW   73   1.799   3.019   2.746 -0.3412  0.2133 -0.0399
   25SOL    HW1   74   1.854   0.013   2.759 -1.4479 -1.8098  0.3605
   25SOL    HW2   75   1.698   3.042   2.738 -1.4411 -0.7154 -2.0476
   26SOL     OW   76   1.480   2.262   0.139  0.2385  0.9073 -0.3255
   26SOL    HW1   77   1.545   2.211   0.198 -0.4591 -1.1174  0.1367
   26SOL    HW2   78   1.518   2.355   0.124  1.4973  3.1220 -1.3636
   27SOL     OW   79   1.588   0.475   1.191  0.1886 -0.0648 -0.0130
   27SOL    HW1   80   1.495   0.438   1.196  4.3580 -2.7173 -1.3707
   27SOL    HW2   81   1.582   0.571   1.158  1.5816 -0.5638  0.9951
   28SOL     OW   82   1.157   1.343   0.391 -0.2070  0.3374 -0.1500
   28SOL    HW1   83   1.196   1.254   0.414  1.4320  1.0831 -1.1161
   28SOL    HW2   84   1.203   1.415   0.449  1.7003 -1.2448 -0.7835
   29SOL     OW   85   2.579   0.402   1.589  0.5137 -0.4920  0.4234
   29SOL    HW1   86   2.610   0.363   1.677 -0.4027 -2.4372 -1.1865
   29SOL    HW2   87   2.493   0.456   1.589 -3.9646  0.5045 -1.5171
   30SOL     OW   88   1.233   2.633   1.343 -0.2790 -0.3943  0.4848
   30SOL    HW1   89   1.282   2.672   1.427  1.1882  0.6054  1.6720
   30SOL    HW2   90   1.294   2.565   1.302 -0.0574 -1.1075  0.1333
   31SOL     OW   91   1.905   2.944   1.294  0.1271 -0.2777  0.6157
   31SOL    HW1   92   1.811   2.965   1.333 -1.6531 -2.1164  0.0275
   31SOL    HW2   93   1.967   2.927   1.370 -3.2675 -0.1857 -2.5718
   32SOL     OW   94   1.846   1.428   2.595  0.2651  0.1210  0.5812
   32SOL    HW1   95   1.797   1.421   2.685  2.8390  2.4532  0.8402
   32SOL    HW2   96   1.783   1.429   2.511 -1.7017  0.1812 -3.0394
   33SOL     OW   97   2.311   0.627   2.431 -0.5328 -0.2411  0.0756
   33SOL    HW1   98   2.232   0.601   2.486  0.9783  1.4977 -2.0173
   33SOL    HW2   99   2.286   0.681   2.345 -1.6198  2.4030 -0.9265
   34SOL     OW  100   1.735   0.334   0.170  0.8529 -0.3509 -0.9108
   34SOL    HW1  101   1.774   0.397   0.102 -0.3156 -1.7331  2.5501
   34SOL    HW2  102   1.802   0.314   0.240 -0.5471 -1.7387 -3.0704
   35SOL     OW  103   0.011   2.056   2.071 -0.0489 -0.3853  0.1168
   35SOL    HW1  104   3.006   2.030   2.093 -0.5188 -2.4001 -1.4347
   35SOL    HW2  105   0.081   2.018   2.140  0.2296 -1.9841 -0.4337
   36SOL     OW  106   2.527   1.836   0.056 -0.5139 -0.1020 -0.3951
   36SOL    HW1  107   2.487   1.833   3.050  1.0742  0.7138  3.2635
   36SOL    HW2  108   2.612   1.892   0.048 -0.1492 -0.3976 -1.4300
   37SOL     OW  109   1.888   0.278   1.661 -0.1577  0.6614  0.5342
   37SOL    HW1  110   1.899   0.351   1.732  1.4815 -2.6826 -0.3950
   37SOL    HW2  111   1.933   0.190   1.683 -0.7012  2.3873 -1.9850
   38SOL     OW  112   0.237   0.728   2.626 -0.3488 -0.1350  0.0730
   38SOL    HW1  113   0.282   0.693   2.713 -0.1698  0.2850  1.3933
   38SOL    HW2  114   0.312   0.763   2.566 -0.4928 -0.1653  1.2414
   39SOL     OW  115   1.930   0.929   1.293 -0.1919 -0.6850 -0.5162
   39SOL    HW1  116   1.843   0.884   1.269  0.1186  0.2140  0.1776
   39SOL    HW2  117   2.006   0.869   1.272 -0.4547  1.0750  1.4857
   40SOL     OW  118   1.035   2.090   0.866  0.2648  0.0835  0.8621
   40SOL    HW1  119   0.972   2.143   0.922  1.8836 -1.9275  1.7685
   40SOL    HW2  120   1.071   2.011   0.917 -2.4158  2.9247 -2.1230
   41SOL     OW  121   1.824   2.285   0.910 -0.2223 -0.2132 -0.1415
   41SOL    HW1  122   1.822   2.187   0.875 -2.2634  2.0088 -1.7369
   41SOL    HW2  123   1.818   2.287   1.014 -0.8677 -0.9027  1.2788
   42SOL     OW  124   2.495   0.804   1.175 -0.5819 -0.5873  0.6155
   42SOL    HW1  125   2.579   0.748   1.172 -2.1337  1.4953  2.5537
   42SOL    HW2  126   2.470   0.829   1.271  0.7103 -2.4121 -1.1832
   43SOL     OW  127   0.848   1.496   2.369 -0.0203  0.0289  0.4636
   43SOL    HW1  128   0.940   1.453   2.356  0.1064  1.8015  1.1676
   43SOL    HW2  129   0.846   1.570   2.438  0.6094  0.7810 -0.1811
   44SOL     OW  130   1.641   2.362   1.390  0.0955  0.4043  0.4087
   44SOL    HW1  131   1.707   2.440   1.408  1.1144 -0.4350 -2.8491
   44SOL    HW2  132   1.556   2.402   1.347 -0.1692 -0.5403  0.0267
   45SOL     OW  133   0.808   2.937   2.455 -0.6555 -0.1178  0.4400
   45SOL    HW1  134   0.896   2.936   2.404 -0.7384  1.1736  0.1810
   45SOL    HW2  135   0.775   2.845   2.470  1.7043  2.5091 -0.9440
   46SOL     OW  136   0.932   2.648   2.130 -0.4699  0.1627 -0.0411
   46SOL    HW1  137   0.953   2.552   2.097 -0.5110 -1.0834 -0.2275
   46SOL    HW2  138   0.832   2.658   2.145  1.4376  2.6793  0.3772
   47SOL     OW  139   0.874   2.156   1.086  0.0692 -0.4254  0.0703
   47SOL    HW1  140   0.822   2.239   1.058 -2.0579  0.3309  0.2259
   47SOL    HW2  141   0.813   2.077   1.106 -2.6927  0.8456 -0.5844
   48SOL     OW  142   0.690   2.406   1.419 -0.0877 -0.1230  0.4074
   48SOL    HW1  143   0.620   2.444   1.352 -2.1484  0.0343  0.2130
   48SOL    HW2  144   0.782   2.433   1.389 -2.1714 -2.8764 -0.2763
   49SOL     OW  145   2.384   3.084   3.037 -0.1251 -0.6324  0.1676
   49SOL    HW1  146   2.436   0.067   3.081 -0.3765 -0.9133  1.5936
   49SOL    HW2  147   2.445   3.045   2.966 -0.7836  0.1289 -0.9635
   50SOL     OW  148   1.640   0.826   0.423 -0.0726  0.2173  0.4535
   50SOL    HW1  149   1.679   0.832   0.331 -2.6107  0.3107  3.7147
   50SOL    HW2  150   1.624   0.918   0.469  0.4211 -1.3531 -0.7629
   51SOL     OW  151   2.218   0.560   0.924 -0.0258 -0.0328 -1.3299
   51SOL    HW1  152   2.125   0.561   0.972 -0.4150  2.4784 -0.4139
   51SOL    HW2  153   2.212   0.556   0.821  0.9701 -2.3710  1.2286
   52SOL     OW  154   0.754   1.451   0.229 -0.0085  0.2444 -0.0079
   52SOL    HW1  155   0.723   1.504   0.145 -0.5967  2.2267  0.6974
   52SOL    HW2  156   0.737   1.351   0.223  0.1933  0.1207 -0.8580
   53SOL     OW  157   0.445   1.143   3.036  0.0490 -0.1234 -0.8447
   53SOL    HW1  158   0.358   1.088   3.027 -1.1229  0.5874  0.5276
   53SOL    HW2  159   0.520   1.093   3.086  0.8474 -1.4600  1.5768
   54SOL     OW  160   1.929   1.428   2.149 -0.4007  0.1162 -0.0690
   54SOL    HW1  161   1.996   1.401   2.220 -0.4538  1.2664 -0.6383
   54SOL    HW2  162   1.957   1.511   2.100 -0.1190 -2.0814 -1.3878
   55SOL     OW  163   2.592   2.182   0.965 -0.0018  0.3746 -0.3367
   55SOL    HW1  164   2.632   2.257   1.021 -0.6322 -3.7500 -2.3602
   55SOL    HW2  165   2.523   2.128   1.015 -1.5976  1.4809 -1.9107
   56SOL     OW  166   1.969   2.910   1.036  0.7171  0.3203 -0.8725
   56SOL    HW1  167   1.949   2.952   1.128  0.0255  2.1291 -4.1468
   56SOL    HW2  168   1.886   2.899   0.980  4.6683  0.3053 -2.7358
   57SOL     OW  169   1.840   1.309   0.451 -0.5046 -0.0797  0.5902
   57SOL    HW1  170   1.882   1.376   0.512 -0.3684 -0.8430  0.2602
   57SOL    HW2  171   1.900   1.225   0.448 -3.1227 -1.3424 -0.4070
   58SOL     OW  172   2.354   0.095   1.398  0.7511  0.0956 -0.0731
   58SOL    HW1  173   2.345   0.029   1.316 -1.8465 -3.0076 -1.2729
   58SOL    HW2  174   2.440   0.151   1.394 -2.7446  2.3270 -1.4833
   59SOL     OW  175   1.300   2.769   2.624  0.4714  0.2358  0.3603
   59SOL    HW1  176   1.391   2.806   2.601  1.8490  0.8139  1.3665
   59SOL    HW2  177   1.241   2.841   2.671  0.5895  1.8616 -1.3378
   60SOL     OW  178   3.067   2.597   2.715 -0.6722 -0.2634 -0.4082
   60SOL    HW1  179   3.064   2.643   2.803  0.3456  0.3622 -2.6386
   60SOL    HW2  180   2.974   2.611   2.680  5.1555  1.7699  1.5734
   61SOL     OW  181   0.748   2.375   1.030  0.2406 -0.0399  0.4008
   61SOL    HW1  182   0.797   2.464   1.055  0.9339  0.9422  1.8610
   61SOL    HW2  183   0.647   2.390   1.039  0.3442 -0.4033  1.1809
   62SOL     OW  184   1.458   1.904   1.932  0.3335 -0.1391  0.3928
   62SOL    HW1  185   1.474   1.916   2.036  0.4475  0.3514  1.1802
   62SOL    HW2  186   1.525   1.853   1.884  1.4305  2.6263  0.6956
   63SOL     OW  187   1.919   1.767   0.299  0.0214  0.1339 -0.6767
   63SOL    HW1  188   1.989   1.695   0.288 -0.4132  2.3409  1.7221
   63SOL    HW2  189   1.969   1.855   0.301 -1.0596 -2.1561  0.8597
   64SOL     OW  190   1.729   1.413   0.171  0.5479 -0.3388  0.3753
   64SOL    HW1  191   1.787   1.422   0.251  1.3323  1.2067 -0.1431
   64SOL    HW2  192   1.688   1.322   0.167 -0.0821  0.1364  0.5503
   65SOL     OW  193   1.652   2.286   2.337  0.5427  0.5363 -0.1212
   65SOL    HW1  194   1.636   2.205   2.399  1.6758  1.1348  0.4257
   65SOL    HW2  195   1.617   2.275   2.240 -0.1500 -2.1773 -4.6620
   66SOL     OW  196   0.252   1.032   1.484  0.2256 -0.3188 -0.1532
   66SOL    HW1  197   0.342   0.992   1.516  3.2941 -1.6343  1.4598
   66SOL    HW2  198   0.252   1.063   1.386 -1.2887  0.2023 -0.4079
   67SOL     OW  199   2.160   2.780   0.392 -0.1788 -0.4441  0.0141
   67SOL    HW1  200   2.256   2.821   0.392  1.8340  0.2383  0.7004
   67SOL    HW2  201   2.100   2.835   0.453  0.6598  0.1063  1.5149
   68SOL     OW  202   2.060   2.309   1.207 -0.0857 -0.3593 -0.1265
   68SOL    HW1  203   2.080   2.263   1.120 -0.4372  1.8117  0.7348
   68SOL    HW2  204   2.112   2.265   1.283  2.1464 -0.4778  0.8796
   69SOL     OW  205   2.733   1.997   3.067 -0.2641  0.1041 -0.1457
   69SOL    HW1  206   2.737   1.978   2.968  1.5691 -3.8014  1.0275
   69SOL    HW2  207   2.818   2.044   0.008  2.1503  0.4474  1.6495
   70SOL     OW  208   0.191   1.116   2.226  0.1325 -0.5175 -0.2815
   70SOL    HW1  209   0.273   1.126   2.173 -0.7778 -1.5032 -0.1892
   70SOL    HW2  210   0.178   1.190   2.296 -0.9706  1.1491 -1.3062
   71SOL     OW  211   0.841   1.105   2.418  0.4840  0.2665  0.3191
   71SOL    HW1  212   0.767   1.177   2.415  0.0467  3.8067  1.7418
   71SOL    HW2  213   0.803   1.012   2.443  0.8904 -0.1383 -0.6436
   72SOL     OW  214   2.493   1.608   1.930 -0.2943 -0.4101 -0.2539
   72SOL    HW1  215   2.411   1.553   1.911  1.2693  2.5171 -0.2394
   72SOL    HW2  216   2.581   1.566   1.889  0.6556  0.1274  1.5868
   73SOL     OW  217   1.203   1.971   2.647 -0.5700  0.5739  0.0811
   73SOL    HW1  218   1.161   1.979   2.738  0.9971 -0.1866  1.1467
   73SOL    HW2  219   1.291   1.916   2.658 -0.7659 -3.9724 -0.3847
   74SOL     OW  220   2.067   2.852   2.556 -0.6472 -0.2888  0.1929
   74SOL    HW1  221   1.976   2.890   2.524  1.7467 -2.5670 -1.6003
   74SOL    HW2  222   2.105   2.911   2.631  0.5143 -0.1381  1.8193
   75SOL     OW  223   1.586   2.411   0.833  0.5259 -0.0027 -0.0008
   75SOL    HW1  224   1.673   2.367   0.864 -0.0143 -1.2725 -0.4623
   75SOL    HW2  225   1.533   2.340   0.784  1.0092  1.5204 -0.5880
   76SOL     OW  226   2.899   1.730   2.932  0.1546 -0.4420 -0.1552
   76SOL    HW1  227   2.855   1.654   2.892 -0.2045  0.5934  0.0048
   76SOL    HW2  228   2.896   1.729   3.035 -1.2393 -2.3836  0.4562
   77SOL     OW  229   3.090   2.633   1.479 -0.0063  0.2319 -0.2305
   77SOL    HW1  230   0.002   2.592   1.387  1.9486  1.4725  0.1052
   77SOL    HW2  231   3.079   2.559   1.548  0.2144  2.3001  0.4808
   78SOL     OW  232   2.611   0.717   2.949 -0.1097 -0.5617 -0.0595
   78SOL    HW1  233   2.645   0.755   3.036 -0.5729  0.0800  1.3191
   78SOL    HW2  234   2.517   0.750   2.937  1.5486 -2.8696  0.4448
   79SOL     OW  235   0.246   1.700   2.439  0.4991  0.2378 -0.2299
   79SOL    HW1  236   0.288   1.640   2.366  0.6628  2.7971 -0.3969
   79SOL    HW2  237   0.181   1.650   2.500 -1.3636  1.4065  0.2981
   80SOL     OW  238   1.737   1.403   1.787  0.3800 -0.3153 -0.3058
   80SOL    HW1  239   1.837   1.389   1.787  0.1884  1.5139 -0.7133
   80SOL    HW2  240   1.687   1.320   1.821 -0.8572  0.8676  2.2789
   81SOL     OW  241   2.145   1.203   2.115 -0.1084  0.5531  0.2780
   81SOL    HW1  242   2.057   1.151   2.127  1.2719  1.8643 -1.8712
   81SOL    HW2  243   2.161   1.272   2.192 -1.1974  2.4579 -0.8810
   82SOL     OW  244   1.270   1.444   1.699 -0.5019 -0.0891  0.4962
   82SOL    HW1  245   1.318   1.530   1.666  0.8327  3.6521  1.9404
   82SOL    HW2  246   1.341   1.378   1.732 -2.6633 -1.7821 -2.6342
   83SOL     OW  247   0.072   0.286   0.030  0.1653 -0.3348 -0.0817
   83SOL    HW1  248   0.109   0.300   0.121  1.3193 -1.2260 -4.3388
   83SOL    HW2  249   3.081   0.338   0.012  2.3213  1.1211 -0.1812
   84SOL     OW  250   2.959   0.838   0.091 -0.0650  0.1769  0.1861
   84SOL    HW1  251   2.928   0.751   0.131 -1.0425  3.3739 -0.9385
   84SOL    HW2  252   3.059   0.845   0.108 -0.4338  1.8407 -0.3055
   85SOL     OW  253   2.183   1.967   1.853 -0.1670  0.0188 -0.3244
   85SOL    HW1  254   2.281   1.936   1.853  1.4919 -0.1733  2.1501
   85SOL    HW2  255   2.183   2.069   1.867 -1.5324 -0.5944  0.3005
   86SOL     OW  256   0.633   0.545   1.151 -0.0728  0.3498  0.3564
   86SOL    HW1  257   0.619   0.578   1.054 -2.1756  0.4207 -0.8988
   86SOL    HW2  258   0.646   0.445   1.153  0.1535 -0.1070  0.4116
   87SOL     OW  259   2.802   2.013   2.100  0.3165 -0.6255  0.6045
   87SOL    HW1  260   2.703   2.029   2.087 -1.5503  1.8011  0.6738
   87SOL    HW2  261   2.824   2.011   2.199 -0.4177  0.3884 -0.7181
   88SOL     OW  262   0.466   1.991   0.106  0.9524  0.4091  0.1754
   88SOL    HW1  263   0.524   1.980   0.189 -0.0540 -1.4658 -1.9747
   88SOL    HW2  264   0.503   1.925   0.039  2.9834  1.5081  1.5394
   89SOL     OW  265   1.444   0.823   0.049 -0.1224  0.2281 -0.1255
   89SOL    HW1  266   1.383   0.881   0.107  1.0989 -1.9731  2.9216
   89SOL    HW2  267   1.521   0.800   0.107 -0.0502 -0.2033 -1.6306
   90SOL     OW  268   3.083   1.543   2.309  0.7801 -0.2529 -0.0923
   90SOL    HW1  269   2.985   1.522   2.334 -3.2056 -0.8542  1.3078
   90SOL    HW2  270   3.077   1.628   2.258 -3.3525 -0.1904  0.9471
   91SOL     OW  271   2.191   3.037   0.966  0.3516 -0.2057  0.2166
   91SOL    HW1  272   2.105   2.990   0.977  3.3031  0.0202  1.4520
   91SOL    HW2  273   2.242   3.028   0.882  0.6626  2.8050  0.3449
   92SOL     OW  274   2.168   1.462   1.472 -0.4304  0.0032  0.2193
   92SOL    HW1  275   2.229   1.416   1.402 -0.4000  1.8247  0.6115
   92SOL    HW2  276   2.221   1.510   1.545  2.0975 -0.1528  5.2929
   93SOL     OW  277   3.058   1.187   0.195 -0.4370  0.2121 -0.2583
   93SOL    HW1  278   3.070   1.151   0.291  0.7498 -1.2813  3.2758
   93SOL    HW2  279   0.045   1.249   0.172  2.3558 -2.8652  0.3307
   94SOL     OW  280   1.274   2.315   2.062  0.5329 -0.9425 -0.2898
   94SOL    HW1  281   1.286   2.215   2.070 -0.2474 -1.0836  1.3411
   94SOL    HW2  282   1.312   2.355   2.146  0.8095 -1.7605  2.9377
   95SOL     OW  283   0.044   0.461   0.942  0.2068  0.3240 -0.1995
   95SOL    HW1  284   0.113   0.441   1.019 -1.4946 -0.8438  1.5745
   95SOL    HW2  285   0.088   0.533   0.885 -0.8465 -1.0447  0.6292
   96SOL     OW  286   2.987   2.846   1.679  0.2745  0.3465 -0.1327
   96SOL    HW1  287   3.024   2.939   1.662 -0.3935  0.9697  0.2627
   96SOL    HW2  288   3.023   2.772   1.621 -0.6860  1.7567 -2.8932
   97SOL     OW  289   2.406   0.621   1.550  0.3384 -0.0124 -0.1970
   97SOL    HW1  290   2.357   0.687   1.492  1.3161 -0.7980  0.3094
   97SOL    HW2  291   2.350   0.590   1.630  0.4172 -1.2485 -1.8253
   98SOL     OW  292   2.312   2.480   1.371 -0.2890 -0.3616  0.1383
   98SOL    HW1  293   2.306   2.384   1.402  2.5896  1.5960 -0.8602
   98SOL    HW2  294   2.294   2.496   1.272  0.6211 -0.2053 -0.3689
   99SOL     OW  295   0.295   0.316   1.879 -0.3443 -0.1272  0.4372
   99SOL    HW1  296   0.284   0.416   1.911  1.6633  1.6738  1.5879
   99SOL    HW2  297   0.299   0.311   1.777 -1.2627  1.8527 -1.1751
  100SOL     OW  298   1.964   0.213   2.439  0.1197  0.3584  0.0976
  100SOL    HW1  299   1.973   0.148   2.360 -4.0241  0.1406 -0.1715
  100SOL    HW2  300   1.908   0.296   2.414  0.1057  0.8486  0.9964
  101SOL     OW  301   0.006   0.077   2.421  0.1762  0.2383 -0.7425
  101SOL    HW1  302   0.091   0.107   2.368 -0.8787 -1.3559 -2.0686
  101SOL    HW2  303   3.085   0.141   2.502  0.1851  2.9806  1.9387
  102SOL     OW  304   0.612   0.378   1.637 -0.2739 -0.0683  0.9282
  102SOL    HW1  305   0.512   0.381   1.621  1.9636  0.8642 -0.8213
  102SOL    HW2  306   0.653   0.469   1.624  1.7941 -1.4137  1.4087
  103SOL     OW  307   0.776   0.906   2.769 -0.0901 -0.1140  0.0354
  103SOL    HW1  308   0.858   0.958   2.785 -2.3013  1.7209  0.6560
  103SOL    HW2  309   0.775   0.836   2.839 -0.5710  0.5620 -3.7146
  104SOL     OW  310   0.096   0.604   2.207 -0.1292  0.4039  0.0232
  104SOL    HW1  311   0.159   0.680   2.225  0.1941  2.1918 -1.1913
  104SOL    HW2  312   0.001   0.640   2.221 -0.1972  0.3935 -0.1128
  105SOL     OW  313   2.243   1.993   1.317 -0.6933 -0.3604 -0.0230
  105SOL    HW1  314   2.232   2.072   1.377 -0.1384  1.8621  1.2610
  105SOL    HW2  315   2.284   1.918   1.372  1.9308 -2.6613  1.2060
  106SOL     OW  316   1.614   0.034   0.603  0.1393 -0.8987 -0.4657
  106SOL    HW1  317   1.678   0.035   0.685 -0.5682  0.3130  3.7210
  106SOL    HW2  318   1.595   0.130   0.571 -1.3907 -1.8695 -0.1617
  107SOL     OW  319   2.123   2.209   0.950 -0.1130  0.2040 -0.1787
  107SOL    HW1  320   2.057   2.268   0.904 -0.9915 -1.1032  3.4531
  107SOL    HW2  321   2.127   2.114   0.902  1.2398 -0.9950 -0.3995
  108SOL     OW  322   3.052   2.472   1.246 -0.3024  0.0225 -0.1510
  108SOL    HW1  323   2.982   2.525   1.197  0.4474 -1.2759 -1.2963
  108SOL    HW2  324   3.043   2.374   1.214 -2.5323 -2.2815  3.1428
  109SOL     OW  325   1.874   2.505   0.767 -0.7068 -0.6002  0.3215
  109SOL    HW1  326   1.959   2.556   0.795  0.1162 -0.6472 -0.9707
  109SOL    HW2  327   1.871   2.419   0.825  2.2341  0.3766  1.4369
  110SOL     OW  328   1.752   1.560   1.586 -0.0980 -0.0344  0.2793
  110SOL    HW1  329   1.811   1.493   1.535  0.9615  0.8871 -1.9277
  110SOL    HW2  330   1.730   1.525   1.680  1.2919 -0.6813 -1.7288
  111SOL     OW  331   1.602   2.264   2.065  0.0435 -0.0387 -0.2945
  111SOL    HW1  332   1.639   2.208   1.992 -0.1243  0.9626 -3.7321
  111SOL    HW2  333   1.595   2.360   2.034 -0.0118  0.6290  1.9944
  112SOL     OW  334   2.125   2.138   2.993  0.0541 -0.1439 -0.4685
  112SOL    HW1  335   2.049   2.089   3.044  0.2250 -1.2101 -0.8778
  112SOL    HW2  336   2.218   2.122   3.034  1.5841 -0.5498  0.1386
  113SOL     OW  337   1.958   1.895   1.734  0.3108  0.3664 -0.2040
  113SOL    HW1  338   2.046   1.939   1.768  2.0772  2.5955  1.1992
  113SOL    HW2  339   1.965   1.791   1.733 -1.2047 -0.7655  2.1151
  114SOL     OW  340   2.998   1.552   1.751  0.3883  0.0484  0.1355
  114SOL    HW1  341   2.916   1.489   1.748 -0.6847 -1.1159  0.6747
  114SOL    HW2  342   3.024   1.556   1.850 -0.4022 -1.2239  0.9967
  115SOL     OW  343   0.143   0.850   0.194  0.1938  0.2691  0.0391
  115SOL    HW1  344   0.128   0.777   0.262  0.7469  3.2271 -1.0889
  115SOL    HW2  345   0.204   0.913   0.243  3.0695 -0.2020  0.3904
  116SOL     OW  346   2.593   1.018   2.885 -0.3430  0.0901 -0.2296
  116SOL    HW1  347   2.556   1.108   2.918 -0.5311  2.0873 -0.4742
  116SOL    HW2  348   2.525   0.951   2.845  0.4706 -1.5938  0.8900
  117SOL     OW  349   2.983   2.525   0.125 -0.2827 -0.4578 -0.7416
  117SOL    HW1  350   2.948   2.437   0.168 -1.1782 -1.8736  2.6508
  117SOL    HW2  351   2.939   2.551   0.041  2.6843 -1.0205  0.5672
  118SOL     OW  352   0.820   2.057   2.893  0.2464  0.6865 -0.2022
  118SOL    HW1  353   0.916   2.034   2.869  0.4957  0.0932 -0.9544
  118SOL    HW2  354   0.751   1.999   2.839  1.5504  0.5888 -0.9650
  119SOL     OW  355   0.489   2.396   0.672 -0.2562  0.3796 -0.0160
  119SOL    HW1  356   0.577   2.374   0.722  0.6363 -2.2024 -0.2342
  119SOL    HW2  357   0.417   2.409   0.739  1.1617 -0.7776 -1.9694
  120SOL     OW  358   1.393   0.537   0.277  0.9016  0.2926  0.4016
  120SOL    HW1  359   1.440   0.452   0.248 -1.2822  2.8742  2.8607
  120SOL    HW2  360   1.295   0.536   0.245  1.6576  0.6940  1.6347
  121SOL     OW  361   1.575   2.579   1.055 -0.3405 -0.5298 -0.0324
  121SOL    HW1  362   1.515   2.662   1.046  1.6859 -0.6650  2.0120
  121SOL    HW2  363   1.569   2.521   0.970 -0.8140 -1.7794  0.0192
  122SOL     OW  364   2.484   1.732   2.373 -0.0920  0.1585  0.2596
  122SOL    HW1  365   2.557   1.736   2.304 -0.2217  0.4071  0.0621
  122SOL    HW2  366   2.401   1.690   2.328 -0.0509 -1.1779 -0.0978
  123SOL     OW  367   1.191   1.495   1.043 -0.1710 -0.1112 -0.2478
  123SOL    HW1  368   1.140   1.512   1.133 -0.0228 -1.3092  0.3905
  123SOL    HW2  369   1.220   1.584   0.999  0.8969  2.3190  0.9905
  124SOL     OW  370   0.304   0.481   2.847  0.0754  0.5336  0.6191
  124SOL    HW1  371   0.293   0.379   2.829  1.1148 -1.8683  0.2730
  124SOL    HW2  372   0.396   0.514   2.820  0.7163  0.8192 -0.2821
  125SOL     OW  373   0.513   0.393   3.081 -0.4046 -0.7512 -0.0018
  125SOL    HW1  374   0.448   0.470   0.016 -0.1198  3.1016  0.9801
  125SOL    HW2  375   0.460   0.304   3.076  1.4657  0.9396  0.1353
  126SOL     OW  376   0.444   1.672   0.625 -0.3060 -0.1329 -0.3013
  126SOL    HW1  377   0.522   1.651   0.562 -0.3835  0.5236 -0.6434
  126SOL    HW2  378   0.414   1.594   0.681  1.3089 -0.2649 -1.0396
  127SOL     OW  379   1.012   2.636   1.635 -0.3580  0.5351  0.0946
  127SOL    HW1  380   0.999   2.732   1.620  1.7327 -3.0263  3.0879
  127SOL    HW2  381   1.002   2.578   1.550  0.5725 -0.3271 -0.1704
  128SOL     OW  382   1.382   1.748   0.091  0.5646 -0.1953 -0.0017
  128SOL    HW1  383   1.278   1.734   0.099 -2.6952 -3.8346 -2.1046
  128SOL    HW2  384   1.415   1.715   0.001 -0.8150  0.6770  1.6767
  129SOL     OW  385   1.685   1.946   1.702  0.2015  0.1671 -0.9758
  129SOL    HW1  386   1.666   1.898   1.611 -1.8485  0.3763 -0.2567
  129SOL    HW2  387   1.782   1.936   1.727  0.9509 -1.1766 -1.5247
  130SOL     OW  388   1.684   2.166   1.838  0.0770  0.0593  0.0063
  130SOL    HW1  389   1.682   2.075   1.791 -2.7804 -0.5120 -2.7576
  130SOL    HW2  390   1.633   2.230   1.780 -1.8151 -1.5843  0.1275
  131SOL     OW  391   2.925   2.341   2.074 -0.1754  0.0255  0.1339
  131SOL    HW1  392   2.910   2.255   2.025  0.6678  1.0525 -0.0137
  131SOL    HW2  393   2.938   2.317   2.170  0.9686  1.7010 -1.7561
  132SOL     OW  394   2.802   1.861   0.798  0.1483  0.5806 -0.2932
  132SOL    HW1  395   2.862   1.785   0.766  0.0432  0.7288  2.4142
  132SOL    HW2  396   2.820   1.875   0.895 -1.3414 -0.0929  0.1345
  133SOL     OW  397   0.729   0.617   1.885  0.3688  0.4096 -0.1680
  133SOL    HW1  398   0.761   0.580   1.798  0.7173  0.1579  1.7841
  133SOL    HW2  399   0.816   0.641   1.940  1.0785  2.7557 -0.6147
  134SOL     OW  400   2.679   1.594   0.058 -1.0117  0.1808  0.2304
  134SOL    HW1  401   2.748   1.660   0.097 -0.7562 -0.6238 -1.1348
  134SOL    HW2  402   2.590   1.642   0.042  0.0650 -1.3965  0.2889
  135SOL     OW  403   1.848   0.987   2.636 -0.0595  0.1019  0.2978
  135SOL    HW1  404   1.877   0.891   2.639 -0.5828 -0.0014 -0.0256
  135SOL    HW2  405   1.759   0.992   2.590 -2.3365  3.7721 -2.9072
  136SOL     OW  406   2.375   1.631   1.105 -0.3418  0.4565 -0.3603
  136SOL    HW1  407   2.384   1.705   1.035 -0.6524  3.2512 -0.6948
  136SOL    HW2  408   2.372   1.659   1.204  0.7885 -0.5482 -0.4690
  137SOL     OW  409   2.361   1.554   0.746 -0.5523  0.4087  0.2599
  137SOL    HW1  410   2.432   1.484   0.768 -0.1010 -0.7909  0.2974
  137SOL    HW2  411   2.340   1.571   0.651  0.2388 -1.3071 -0.7052
  138SOL     OW  412   2.694   0.456   0.872 -0.2693  0.5477 -0.0129
  138SOL    HW1  413   2.765   0.481   0.938 -2.2380 -0.3433  0.4106
  138SOL    HW2  414   2.613   0.510   0.893  2.9193 -1.9742 -0.4513
  139SOL     OW  415   3.022   2.730   2.943  0.0208  0.3249  0.0208
  139SOL    HW1  416   2.972   2.820   2.936  2.9596 -1.3129  1.6962
  139SOL    HW2  417   0.026   2.759   2.975 -1.1424  4.6869 -0.1250
  140SOL     OW  418   0.731   1.448   1.422  0.5684  0.2754  0.4676
  140SOL    HW1  419   0.786   1.358   1.418  0.7384 -1.0456  0.0365
  140SOL    HW2  420   0.645   1.438   1.369  1.7450  0.6302 -3.5715
  141SOL     OW  421   1.164   1.885   0.962 -0.3161  0.5412  0.4259
  141SOL    HW1  422   1.181   1.887   1.065  1.9749 -0.5590 -0.4600
  141SOL    HW2  423   1.253   1.887   0.908  0.6972 -1.1629 -0.6538
  142SOL     OW  424   0.980   0.597   0.981  0.4747  0.1610 -0.5448
  142SOL    HW1  425   0.957   0.510   1.023 -0.8729  1.3805  1.4565
  142SOL    HW2  426   1.036   0.652   1.046  0.6870 -0.4628 -4.2922
  143SOL     OW  427   0.636   1.299   2.348  0.5394 -0.7152 -0.2113
  143SOL    HW1  428   0.554   1.323   2.404  0.3895  0.4779  0.6186
  143SOL    HW2  429   0.700   1.377   2.350 -1.2808 -1.7250 -0.5242
  144SOL     OW  430   2.310   3.000   0.711 -0.2902 -0.2305  0.1550
  144SOL    HW1  431   2.343   3.087   0.669 -2.6571  0.8917 -1.4181
  144SOL    HW2  432   2.391   2.942   0.740  1.7962  3.3138 -0.4239
  145SOL     OW  433   1.970   0.152   2.741 -0.3735 -0.1949 -0.1025
  145SOL    HW1  434   2.041   0.076   2.730  0.6046  1.6942 -1.8886
  145SOL    HW2  435   1.942   0.202   2.655 -1.2928 -2.0291 -0.6915
  146SOL     OW  436   3.080   2.859   0.388 -0.3500 -0.1382  0.1292
  146SOL    HW1  437   0.007   2.905   0.298 -1.3876  2.1956 -1.3136
  146SOL    HW2  438   3.049   2.934   0.445  0.0142 -3.2742 -0.6299
  147SOL     OW  439   0.982   1.214   2.630 -0.1940 -0.2963  0.3234
  147SOL    HW1  440   0.961   1.181   2.537 -1.0381  0.8920  0.8660
  147SOL    HW2  441   1.055   1.285   2.632 -1.6533 -0.8286 -1.1288
  148SOL     OW  442   1.539   0.013   2.735  0.4028 -0.7826  0.2843
  148SOL    HW1  443   1.485   0.091   2.773 -1.3540  0.8653  2.3538
  148SOL    HW2  444   1.508   3.019   2.779  0.1350 -0.6934 -2.4194
  149SOL     OW  445   1.421   0.138   2.030  0.3878  0.0686 -0.0262
  149SOL    HW1  446   1.339   0.168   2.071  1.0482  0.9525  0.4756
  149SOL    HW2  447   1.495   0.146   2.095 -0.8126 -3.8520 -4.7447
  150SOL     OW  448   2.380   2.605   0.081  0.1744  0.0340 -0.0938
  150SOL    HW1  449   2.357   2.609   3.077  0.3567 -0.9009  1.6247
  150SOL    HW2  450   2.425   2.515   0.107  4.2681  0.1254 -1.1384
  151SOL     OW  451   0.695   1.543   3.057 -0.2667 -0.2796 -0.2551
  151SOL    HW1  452   0.608   1.489   3.035  1.0297 -0.1743  1.4284
  151SOL    HW2  453   0.765   1.534   2.982  2.8239  1.2126 -0.9168
  152SOL     OW  454   0.389   0.063   1.629 -0.2656 -0.2727  0.0446
  152SOL    HW1  455   0.311   0.059   1.560  2.1608 -0.6042 -2.2040
  152SOL    HW2  456   0.365   0.030   1.722  0.6573  1.9753 -0.5273
  153SOL     OW  457   2.392   3.043   1.819 -0.0588 -0.1594  0.5266
  153SOL    HW1  458   2.487   3.075   1.815 -1.4504  0.8777  1.3159
  153SOL    HW2  459   2.371   3.005   1.911  1.9881  0.4374  0.4840
  154SOL     OW  460   2.451   3.042   2.642 -0.1786 -0.4168 -0.4315
  154SOL    HW1  461   2.365   0.001   2.664  0.2421 -0.8611  1.5121
  154SOL    HW2  462   2.519   0.017   2.599 -0.5539 -0.3610 -0.2487
  155SOL     OW  463   3.073   1.110   0.466 -0.6845  0.0165 -0.3513
  155SOL    HW1  464   0.085   1.135   0.467 -0.2771  1.7835  2.5060
  155SOL    HW2  465   3.015   1.191   0.501 -1.4198  6.0612  1.2428
  156SOL     OW  466   2.940   1.573   0.466  0.8254  0.0173  0.1787
  156SOL    HW1  467   2.965   1.600   0.565  0.1010  3.7142  3.5228
  156SOL    HW2  468   2.924   1.658   0.415 -1.8318 -0.2712  0.8451
  157SOL     OW  469   0.832   0.498   0.558 -0.1521 -0.2431  0.1174
  157SOL    HW1  470   0.844   0.399   0.548  0.1144  2.0496 -0.2592
  157SOL    HW2  471   0.894   0.553   0.498 -1.5119  0.0159  0.6029
  158SOL     OW  472   1.728   1.080   1.066 -0.2079  0.1895 -0.2403
  158SOL    HW1  473   1.816   1.038   1.078 -4.1383  0.0028  1.6149
  158SOL    HW2  474   1.709   1.155   1.137 -3.2206  2.2746 -2.1396
  159SOL     OW  475   0.164   0.439   0.256  0.1476 -0.0753  0.1178
  159SOL    HW1  476   0.111   0.517   0.291  3.7167 -1.2851  0.0897
  159SOL    HW2  477   0.165   0.371   0.330 -1.2011  1.9313 -0.5713
  160SOL     OW  478   2.159   2.237   1.953  0.5428 -0.1302  0.1094
  160SOL    HW1  479   2.184   2.247   2.056 -0.4247  1.3186  2.8274
  160SOL    HW2  480   2.064   2.273   1.938 -1.2041  0.4536 -1.7189
  161SOL     OW  481   0.238   0.967   3.049  0.1155  0.0972 -0.4954
  161SOL    HW1  482   0.174   0.953   2.969  0.5261 -0.9299 -2.6248
  161SOL    HW2  483   0.195   0.947   0.052 -1.4506 -0.0935  1.3462
  162SOL     OW  484   0.741   0.181   1.760 -0.4121 -0.2185  0.1405
  162SOL    HW1  485   0.846   0.188   1.768  2.6791 -0.0533  0.4422
  162SOL    HW2  486   0.689   0.255   1.716 -1.2263  1.8470 -2.0881
  163SOL     OW  487   2.721   2.879   2.499  0.6318  0.3608  0.3099
  163SOL    HW1  488   2.680   2.973   2.481 -1.4826 -0.3508 -1.7147
  163SOL    HW2  489   2.655   2.804   2.473  0.8836 -1.4309  2.4093
  164SOL     OW  490   2.277   1.834   0.463  0.2723 -0.6218 -0.2134
  164SOL    HW1  491   2.318   1.767   0.401  0.4993  3.5005  2.0311
  164SOL    HW2  492   2.347   1.906   0.492  1.7847  4.0214  0.5364
  165SOL     OW  493   0.343   0.194   1.322 -0.8075  0.0083 -0.0841
  165SOL    HW1  494   0.256   0.167   1.282  1.4037 -0.8977 -1.8757
  165SOL    HW2  495   0.400   0.111   1.313  0.8846  0.2106 -2.3479
  166SOL     OW  496   2.210   0.569   0.641  0.3454  0.6319 -0.8807
  166SOL    HW1  497   2.181   0.509   0.565 -0.7746  0.3934 -0.2765
  166SOL    HW2  498   2.156   0.651   0.654  0.7237 -4.0985 -1.4245
  167SOL     OW  499   2.323   0.752   0.175 -0.4707  0.3597 -0.5904
  167SOL    HW1  500   2.288   0.658   0.150  0.6468 -0.7740  1.3793
  167SOL    HW2  501   2.419   0.762   0.145  0.8598  0.4478  2.2014
  168SOL     OW  502   1.494   0.127   2.503 -0.0953 -0.3179  0.3119
  168SOL    HW1  503   1.511   0.069   2.588  1.7350  0.6167 -0.9026
  168SOL    HW2  504   1.526   0.221   2.514  0.8163 -2.0515  0.0363
  169SOL     OW  505   0.775   1.868   0.839  0.3026 -0.5662  0.3703
  169SOL    HW1  506   0.680   1.884   0.807  1.9159 -0.3042 -0.0426
  169SOL    HW2  507   0.775   1.897   0.935 -1.0092 -0.8761 -3.1388
  170SOL     OW  508   2.875   0.903   1.324  0.1736  0.3316 -0.0271
  170SOL    HW1  509   2.918   0.855   1.245 -3.4015 -2.0839 -0.2638
  170SOL    HW2  510   2.948   0.940   1.386  1.6395 -1.5866 -1.9396
  171SOL     OW  511   2.824   1.496   2.341  0.0550 -0.2484  0.7011
  171SOL    HW1  512   2.757   1.425   2.375 -4.1912  2.0968  1.5471
  171SOL    HW2  513   2.779   1.573   2.294 -2.0009 -0.6732 -1.9127
  172SOL     OW  514   0.771   1.708   1.371  1.2030  0.2063 -0.4587
  172SOL    HW1  515   0.679   1.724   1.419 -3.1450 -0.5662  0.3342
  172SOL    HW2  516   0.780   1.611   1.359 -0.9199  0.3004 -1.4992
  173SOL     OW  517   2.141   1.824   2.993  0.3249 -0.4790  0.2588
  173SOL    HW1  518   2.054   1.881   3.014 -0.8016  1.2737  2.0563
  173SOL    HW2  519   2.192   1.854   2.907  0.6652  1.4471 -1.1852
  174SOL     OW  520   1.698   0.621   2.751  0.1395 -0.2151  0.1223
  174SOL    HW1  521   1.673   0.532   2.785  0.8082  5.7480 -0.6327
  174SOL    HW2  522   1.675   0.694   2.821  1.3431  0.2011  0.4275
  175SOL     OW  523   1.081   1.568   1.270  0.8869  0.2643 -0.4774
  175SOL    HW1  524   1.056   1.653   1.326 -3.9254  2.9496  0.9464
  175SOL    HW2  525   1.070   1.488   1.335  1.5405  1.3896 -1.8019
  176SOL     OW  526   1.380   0.073   0.271 -0.2492  0.4116  0.4952
  176SOL    HW1  527   1.386   3.066   0.304  1.5903 -0.3205  0.6600
  176SOL    HW2  528   1.318   0.124   0.325  2.6196 -1.5167 -1.3411
  177SOL     OW  529   0.174   1.353   0.074 -0.6508 -0.3867  0.3701
  177SOL    HW1  530   0.246   1.310   0.133 -2.2422 -0.1809  0.0740
  177SOL    HW2  531   0.138   1.283   0.008  0.3098  0.6822  0.7051
  178SOL     OW  532   2.905   2.263   2.654 -0.1496  0.2390  1.2484
  178SOL    HW1  533   2.888   2.289   2.751  0.0835  1.4970  0.7636
  178SOL    HW2  534   3.007   2.249   2.648  0.0064  1.7191 -1.3822
  179SOL     OW  535   2.684   2.464   2.537 -0.1242 -0.1183  0.1456
  179SOL    HW1  536   2.646   2.520   2.466  1.1336 -2.9531  1.2632
  179SOL    HW2  537   2.752   2.517   2.593  0.1272  0.3720  0.7161
  180SOL     OW  538   2.141   0.794   1.218  0.6737 -0.2570 -0.5668
  180SOL    HW1  539   2.134   0.706   1.264  0.5548  2.5749  1.4206
  180SOL    HW2  540   2.236   0.819   1.190 -0.7188 -1.7309  1.1124
  181SOL     OW  541   2.124   0.511   2.593  0.3210  0.1987 -0.2886
  181SOL    HW1  542   2.152   0.486   2.686 -0.1013 -1.1754 -0.5356
  181SOL    HW2  543   2.132   0.429   2.536 -0.8140 -0.8832  0.3259
  182SOL     OW  544   2.671   2.384   2.258 -0.2519 -0.7821  0.0416
  182SOL    HW1  545   2.695   2.473   2.220  0.3637  2.5170  2.6702
  182SOL    HW2  546   2.735   2.348   2.329 -5.8114 -0.7529 -0.3119
  183SOL     OW  547   2.034   0.900   1.835  0.1244 -0.4806 -0.5542
  183SOL    HW1  548   2.137   0.907   1.829  0.0318 -0.2087 -1.1906
  183SOL    HW2  549   2.006   0.851   1.749  3.0223 -2.6584 -0.3722
  184SOL     OW  550   0.210   1.628   0.886 -0.2553 -0.2516  0.1033
  184SOL    HW1  551   0.267   1.549   0.858 -5.0732 -1.1111  2.8883
  184SOL    HW2  552   0.195   1.689   0.805 -0.2988 -1.1983 -1.4965
  185SOL     OW  553   2.890   0.216   0.672 -0.1737 -0.4514  0.1390
  185SOL    HW1  554   2.796   0.219   0.712 -0.6171  0.2877 -0.9555
  185SOL    HW2  555   2.926   0.307   0.641 -1.2908  0.9024 -0.9829
  186SOL     OW  556   2.299   2.459   2.514  0.5871  0.2245  0.4235
  186SOL    HW1  557   2.211   2.405   2.518 -1.6890 -1.5623  1.5878
  186SOL    HW2  558   2.288   2.543   2.575  0.4138  1.6759 -0.4148
  187SOL     OW  559   0.823   1.374   0.712  0.1477  0.2156 -0.4981
  187SOL    HW1  560   0.889   1.331   0.780  2.7317  1.8965 -2.1739
  187SOL    HW2  561   0.847   1.472   0.697 -0.6371 -0.2120 -1.2421
  188SOL     OW  562   2.300   1.234   1.029  0.1801  0.6899  0.2398
  188SOL    HW1  563   2.390   1.185   1.024  0.8900  2.2192 -0.2032
  188SOL    HW2  564   2.286   1.285   0.943 -0.9217 -0.9880  0.5241
  189SOL     OW  565   0.105   1.555   2.911 -0.4606 -0.2215 -0.2377
  189SOL    HW1  566   0.098   1.613   2.996  1.8711  1.2572 -1.6809
  189SOL    HW2  567   0.077   1.458   2.925 -1.3019  0.2267  0.2092
  190SOL     OW  568   2.346   0.220   2.000  0.7352 -0.3559 -0.2669
  190SOL    HW1  569   2.269   0.154   1.989 -2.3171  0.8695 -0.8667
  190SOL    HW2  570   2.374   0.235   2.101  0.3711  2.1074  2.1515
  191SOL     OW  571   0.942   0.469   2.228  0.9502 -0.1679  0.3786
  191SOL    HW1  572   0.992   0.476   2.139  0.0497 -1.3176  2.2658
  191SOL    HW2  573   0.861   0.402   2.229 -1.2647 -1.5659 -0.6306
  192SOL     OW  574   0.990   1.509   1.735  0.1454 -0.1768 -0.3886
  192SOL    HW1  575   1.090   1.502   1.740  0.8037  2.8684  0.3761
  192SOL    HW2  576   0.966   1.599   1.699  0.1233 -1.8015 -0.7700
  193SOL     OW  577   1.112   2.732   0.818  0.2068 -0.4365 -0.1938
  193SOL    HW1  578   1.139   2.775   0.911  1.0032  3.0184 -2.3722
  193SOL    HW2  579   1.124   2.631   0.806 -0.3530  0.6370 -0.5189
  194SOL     OW  580   0.487   1.829   1.905 -0.3905  0.3039 -0.5533
  194SOL    HW1  581   0.470   1.926   1.916  0.3593 -1.6772  0.2832
  194SOL    HW2  582   0.568   1.813   1.839  4.3737 -1.8499 -1.3958
  195SOL     OW  583   1.594   0.532   0.729  0.5091 -0.1029  0.3685
  195SOL    HW1  584   1.550   0.570   0.636 -2.0476  3.3101 -1.8666
  195SOL    HW2  585   1.587   0.605   0.802 -1.7699 -3.0681 -1.2553
  196SOL     OW  586   1.143   1.415   1.990  0.0952  0.2540 -0.0933
  196SOL    HW1  587   1.183   1.329   1.948  3.0263  1.1096  0.2899
  196SOL    HW2  588   1.056   1.404   2.043  2.1751  1.8312  0.2757
  197SOL     OW  589   3.072   0.482   1.786 -0.1754  0.4741  0.1668
  197SOL    HW1  590   3.064   0.430   1.878  1.0942 -3.0242 -0.0626
  197SOL    HW2  591   3.061   0.583   1.802 -1.8691 -0.6236 -0.7357
  198SOL     OW  592   0.549   0.788   1.253  0.1479 -0.4346  0.0023
  198SOL    HW1  593   0.578   0.858   1.187 -3.5483 -0.3479  0.3968
  198SOL    HW2  594   0.585   0.695   1.231 -0.4310 -2.3421 -1.1412
  199SOL     OW  595   0.213   2.619   1.238  0.4627  0.5757 -0.1921
  199SOL    HW1  596   0.161   2.703   1.272 -1.3947 -0.0141 -0.9889
  199SOL    HW2  597   0.151   2.545   1.205 -0.3258  2.2634  1.8513
  200SOL     OW  598   1.565   1.591   2.658 -0.0799 -0.6737 -0.1797
  200SOL    HW1  599   1.568   1.515   2.595  0.2757 -0.1775  1.8971
  200SOL    HW2  600   1.656   1.636   2.670 -1.1379  3.1687  0.5358
  201SOL     OW  601   0.435   2.514   1.809 -0.0257 -0.2685  0.0936
  201SOL    HW1  602   0.511   2.539   1.746  0.2662 -0.0834  2.6610
  201SOL    HW2  603   0.348   2.497   1.754 -3.1647 -2.2422  0.3442
  202SOL     OW  604   1.264   2.883   3.011  0.3259  0.0053 -0.6352
  202SOL    HW1  605   1.216   2.915   2.930  0.8800  0.6733  2.1953
  202SOL    HW2  606   1.308   2.960   3.054 -1.5155  1.1935  0.1742
  203SOL     OW  607   1.509   0.666   2.313 -0.0265  0.2999  0.4251
  203SOL    HW1  608   1.463   0.575   2.293  0.8738 -2.1617  0.0795
  203SOL    HW2  609   1.594   0.653   2.370  0.3684 -0.6489 -1.4457
  204SOL     OW  610   0.703   1.058   1.595 -0.0645 -0.1427  0.4956
  204SOL    HW1  611   0.668   1.113   1.669  0.4140 -2.8638 -3.7080
  204SOL    HW2  612   0.621   1.017   1.552 -0.8626  0.9810  0.9219
  205SOL     OW  613   2.170   0.897   2.721 -0.3546  0.1732 -0.3275
  205SOL    HW1  614   2.091   0.829   2.737 -3.3420 -2.7189  1.5924
  205SOL    HW2  615   2.198   0.900   2.624 -0.3424 -0.3770  1.6509
  206SOL     OW  616   0.481   1.774   2.936  0.1731 -0.0718  0.0487
  206SOL    HW1  617   0.528   1.701   2.885 -0.4802 -0.5582 -0.8246
  206SOL    HW2  618   0.494   1.861   2.889 -2.7108 -0.7783 -0.2019
  207SOL     OW  619   0.408   0.236   2.100  0.0343  0.4036  0.5992
  207SOL    HW1  620   0.424   0.328   2.138 -1.2194 -0.0755 -0.8782
  207SOL    HW2  621   0.367   0.242   2.005 -1.1934  1.8316 -0.9718
  208SOL     OW  622   0.619   2.594   1.606 -0.0130  0.1116  0.1604
  208SOL    HW1  623   0.552   2.648   1.553  0.5517  0.1172  0.3553
  208SOL    HW2  624   0.665   2.520   1.548 -0.6692 -4.0026  1.6119
  209SOL     OW  625   1.279   2.660   0.107  0.2876  0.5189  0.3804
  209SOL    HW1  626   1.209   2.681   0.174  2.5076 -2.6390 -0.7014
  209SOL    HW2  627   1.288   2.729   0.034 -0.8828 -1.3219 -1.2452
  210SOL     OW  628   2.761   1.448   1.722 -0.0483 -0.0220 -0.4260
  210SOL    HW1  629   2.753   1.446   1.624  0.6393 -0.6671  0.3418
  210SOL    HW2  630   2.685   1.395   1.765 -1.4919 -0.0319 -0.4553
  211SOL     OW  631   1.186   0.267   1.639 -0.1998  0.4804 -0.1720
  211SOL    HW1  632   1.129   0.322   1.581  1.4208 -1.9762  3.6844
  211SOL    HW2  633   1.287   0.282   1.621  2.7531 -0.5346 -0.0047
  212SOL     OW  634   1.102   2.223   1.701  0.3119 -0.3957  0.1079
  212SOL    HW1  635   1.018   2.280   1.721 -1.6120  0.1642 -0.6180
  212SOL    HW2  636   1.184   2.278   1.710  0.5352 -4.6244 -1.2947
  213SOL     OW  637   2.584   0.234   1.848 -0.6683 -0.7321 -0.4017
  213SOL    HW1  638   2.486   0.221   1.890 -0.3833 -1.2445  1.3339
  213SOL    HW2  639   2.634   0.145   1.839  0.2098  0.1873 -0.7820
  214SOL     OW  640   0.710   1.864   1.737  0.6256  0.4490 -0.4115
  214SOL    HW1  641   0.795   1.811   1.721 -4.2710 -1.8446  0.5969
  214SOL    HW2  642   0.731   1.962   1.744  0.3785  0.2836 -0.7940
  215SOL     OW  643   2.714   1.799   1.250  0.2808 -0.0119  0.0030
  215SOL    HW1  644   2.694   1.704   1.279  0.7440  1.2504 -1.1578
  215SOL    HW2  645   2.648   1.863   1.302 -1.3828  3.4008 -0.1527
  216SOL     OW  646   3.077   0.970   1.489  0.0497 -0.1935  0.6898
  216SOL    HW1  647   0.081   1.010   1.489  0.8511  0.0902 -0.7061
  216SOL    HW2  648   3.085   0.867   1.494 -1.1922  0.4379 -0.6662
  217SOL     OW  649   2.598   0.265   1.363  0.1623  0.1630 -0.2009
  217SOL    HW1  650   2.689   0.264   1.317  1.8867 -1.1063  2.3307
  217SOL    HW2  651   2.596   0.319   1.451 -0.9284  2.0291 -2.8276
  218SOL     OW  652   1.330   2.202   1.159 -0.1551  0.0826  0.3608
  218SOL    HW1  653   1.416   2.154   1.167  0.3772  0.2886  0.5431
  218SOL    HW2  654   1.324   2.243   1.064 -1.6386 -0.2430 -1.7697
  219SOL     OW  655   1.690   2.204   0.291  0.0704  0.0862 -0.4700
  219SOL    HW1  656   1.777   2.229   0.254 -3.8706  0.0901  1.7480
  219SOL    HW2  657   1.693   2.208   0.395  1.5922  0.9709 -1.6922
  220SOL     OW  658   1.931   2.332   0.186 -0.9120  0.5260  0.1800
  220SOL    HW1  659   1.881   2.418   0.208  0.3678  4.2972 -3.4325
  220SOL    HW2  660   2.027   2.344   0.222  0.2599 -2.5189 -0.7494
  221SOL     OW  661   2.908   1.933   1.067  0.1653 -0.0115  0.4413
  221SOL    HW1  662   2.990   1.878   1.053 -0.9444  0.7541 -0.6149
  221SOL    HW2  663   2.842   1.872   1.120  0.2927  2.1616 -0.4134
  222SOL     OW  664   1.285   2.236   0.880  0.4597 -0.0144 -0.0593
  222SOL    HW1  665   1.362   2.217   0.819 -0.3469 -0.5945 -0.4595
  222SOL    HW2  666   1.214   2.158   0.880  0.5835 -1.5103 -0.8936
  223SOL     OW  667   0.824   2.657   2.463 -0.0405 -0.1908 -0.0145
  223SOL    HW1  668   0.816   2.561   2.497 -0.5236 -0.5271 -0.9994
  223SOL    HW2  669   0.916   2.661   2.420 -2.2468 -0.5817  3.2367
  224SOL     OW  670   2.846   1.470   1.061 -0.3331  0.1249 -0.0108
  224SOL    HW1  671   2.746   1.476   1.060  4.5050  2.5315 -1.2817
  224SOL    HW2  672   2.882   1.504   1.154 -2.3728 -0.4049 -1.7957
  225SOL     OW  673   2.120   1.581   1.010 -0.1445 -0.0016  0.0881
  225SOL    HW1  674   2.212   1.581   1.046 -2.0520  2.4046 -0.8012
  225SOL    HW2  675   2.117   1.501   0.945 -1.4943 -0.8832  0.6721
  226SOL     OW  676   1.208   2.613   0.540  0.7569 -0.1517 -0.3778
  226SOL    HW1  677   1.274   2.638   0.613  0.6318 -2.2239 -3.4944
  226SOL    HW2  678   1.139   2.683   0.526  0.7116  0.7744  0.2331
  227SOL     OW  679   1.217   1.082   1.492  0.2031  0.1119  0.8448
  227SOL    HW1  680   1.159   1.106   1.407  0.4394  0.6794  2.2649
  227SOL    HW2  681   1.305   1.129   1.501  2.0750 -0.6156  0.9812
  228SOL     OW  682   1.233   0.705   2.056  0.9838 -0.1949 -0.0836
  228SOL    HW1  683   1.176   0.743   1.978 -0.2571  2.1872 -0.5030
  228SOL    HW2  684   1.279   0.618   2.037 -1.0845  3.8064 -2.6165
  229SOL     OW  685   2.714   0.725   2.701 -0.2750 -0.0418  0.0103
  229SOL    HW1  686   2.808   0.717   2.658  1.3999  0.9206 -0.9483
  229SOL    HW2  687   2.711   0.696   2.796  0.7710  0.5102  1.2010
  230SOL     OW  688   1.098   1.060   0.820  0.0483  0.0472 -0.2135
  230SOL    HW1  689   1.171   0.993   0.803  0.3542  1.7757 -0.5998
  230SOL    HW2  690   1.134   1.135   0.874  1.0132 -0.7670  1.4279
  231SOL     OW  691   2.394   2.971   2.075 -0.7029 -0.2273  0.1950
  231SOL    HW1  692   2.454   2.891   2.046  1.8212 -1.3050 -1.4823
  231SOL    HW2  693   2.417   2.998   2.172 -2.3500  1.5076 -1.2553
  232SOL     OW  694   0.666   1.960   0.274 -0.1968  0.1958 -0.3975
  232SOL    HW1  695   0.718   1.926   0.356 -2.3607  0.8698 -2.9929
  232SOL    HW2  696   0.727   2.022   0.219  0.6337  1.4242 -1.0833
  233SOL     OW  697   1.364   2.443   2.310  0.0482 -0.0224  0.3273
  233SOL    HW1  698   1.364   2.367   2.374  3.1442  0.3129 -0.9765
  233SOL    HW2  699   1.317   2.523   2.345 -1.1600 -0.2705  2.8539
  234SOL     OW  700   0.933   1.256   1.789  0.4530 -0.7372  0.1938
  234SOL    HW1  701   0.954   1.355   1.775 -2.6563  4.0994 -2.8709
  234SOL    HW2  702   0.866   1.246   1.863  0.2435  0.7263  0.8119
  235SOL     OW  703   0.555   1.764   1.531  0.2750  0.4722  0.4245
  235SOL    HW1  704   0.598   1.781   1.621 -1.1248  0.0794 -0.5251
  235SOL    HW2  705   0.508   1.849   1.492 -0.5800 -0.1781 -0.3267
  236SOL     OW  706   1.779   2.886   2.516 -0.1946 -0.3126  0.0448
  236SOL    HW1  707   1.693   2.835   2.521  1.9567 -0.9489 -0.8147
  236SOL    HW2  708   1.780   2.940   2.598  1.1171 -2.4316  0.3069
  237SOL     OW  709   1.155   2.922   0.616 -0.3000  0.1952  0.6498
  237SOL    HW1  710   1.144   2.837   0.665  2.4609  3.0076 -0.3033
  237SOL    HW2  711   1.163   3.004   0.674  3.4008 -1.5035 -3.5372
  238SOL     OW  712   1.293   0.712   2.695  0.4114 -0.1648 -0.3853
  238SOL    HW1  713   1.293   0.766   2.609  0.1036 -0.5488 -0.1078
  238SOL    HW2  714   1.238   0.628   2.685 -0.3151  0.2922  1.2778
  239SOL     OW  715   0.603   0.502   2.099 -0.2873 -0.0299  0.7074
  239SOL    HW1  716   0.652   0.556   2.168  1.2707  0.0120 -4.2855
  239SOL    HW2  717   0.633   0.535   2.009  0.2964  1.7513 -1.4637
  240SOL     OW  718   2.107   2.655   0.797 -0.5627 -0.6342  0.2223
  240SOL    HW1  719   2.196   2.606   0.770  1.7096 -0.3084  2.7740
  240SOL    HW2  720   2.108   2.674   0.898  2.1374  0.5081  0.9873
  241SOL     OW  721   1.337   1.341   1.368 -1.0193 -0.8390 -0.3536
  241SOL    HW1  722   1.267   1.351   1.441  0.3965 -0.1528  0.1715
  241SOL    HW2  723   1.362   1.438   1.339  1.1308  1.5153 -1.5444
  242SOL     OW  724   0.155   0.646   0.776 -0.5973 -0.2369  0.6129
  242SOL    HW1  725   0.092   0.725   0.764 -0.1849 -0.5289  0.7533
  242SOL    HW2  726   0.209   0.640   0.687 -0.1378  0.3617  0.7656
  243SOL     OW  727   0.456   0.635   1.585 -0.0502 -0.1477 -0.6003
  243SOL    HW1  728   0.365   0.645   1.630  0.7392 -2.1057 -2.0923
  243SOL    HW2  729   0.440   0.570   1.512  0.3186  2.2415  1.3723
  244SOL     OW  730   1.034   0.561   2.924 -0.1075 -0.1320  0.0796
  244SOL    HW1  731   0.998   0.507   3.007 -2.2412 -1.8058  3.8316
  244SOL    HW2  732   1.123   0.607   2.947 -1.1857  2.4636  1.4497
  245SOL     OW  733   2.142   0.908   3.088  0.0106 -0.0150 -0.5117
  245SOL    HW1  734   2.212   0.905   0.071  0.2984 -3.3912  2.5031
  245SOL    HW2  735   2.140   0.998   3.038 -2.4087  0.5065  1.9314
  246SOL     OW  736   0.032   1.009   1.889  0.0410 -0.2441  0.2875
  246SOL    HW1  737   3.068   1.051   1.811 -0.5384  2.1372 -0.7487
  246SOL    HW2  738   0.108   0.948   1.856  1.4911 -0.4849 -2.5279
  247SOL     OW  739   0.594   2.975   2.180  0.0805  0.4293 -0.1159
  247SOL    HW1  740   0.607   3.024   2.092  0.1839  1.1937  0.7751
  247SOL    HW2  741   0.636   3.023   2.258  0.3254 -1.8864 -0.7300
  248SOL     OW  742   0.367   1.565   2.225 -0.3986 -0.7798  0.4846
  248SOL    HW1  743   0.451   1.624   2.210 -0.6731 -1.3407  0.8374
  248SOL    HW2  744   0.356   1.507   2.143 -0.4426 -0.3953 -0.6050
  249SOL     OW  745   0.349   0.192   2.729  0.2793  0.1944 -0.2670
  249SOL    HW1  746   0.419   0.188   2.802 -1.5284  1.8219 -0.3757
  249SOL    HW2  747   0.321   0.099   2.706 -0.3354  1.2600  1.1106
  250SOL     OW  748   0.036   3.023   2.751  0.4819  0.3631  0.2647
  250SOL    HW1  749   0.130   3.016   2.722 -4.1430  1.3337 -0.0327
  250SOL    HW2  750   3.067   3.002   2.671 -0.0982  1.0167  1.9416
  251SOL     OW  751   0.371   1.443   0.753  0.5421  0.1642 -0.5343
  251SOL    HW1  752   0.347   1.375   0.685  0.0761  2.2033 -2.3762
  251SOL    HW2  753   0.445   1.411   0.819  0.8163  2.1890 -0.1626
  252SOL     OW  754   1.584   2.752   2.097  0.0704  0.3107 -0.2681
  252SOL    HW1  755   1.492   2.782   2.071  3.5054  0.5125  0.0127
  252SOL    HW2  756   1.583   2.676   2.169 -1.9291 -0.9573 -0.3196
  253SOL     OW  757   1.945   1.942   2.634 -0.0239  0.8215 -0.0659
  253SOL    HW1  758   1.929   1.966   2.535 -2.9302 -0.1441 -1.1890
  253SOL    HW2  759   1.871   1.882   2.664  1.6246  1.7709 -2.2238
  254SOL     OW  760   0.390   1.487   1.750 -0.0419  0.2518  0.0213
  254SOL    HW1  761   0.346   1.400   1.715 -0.8481 -0.4402 -1.0842
  254SOL    HW2  762   0.495   1.500   1.726  0.4268  1.4337  0.9353
  255SOL     OW  763   1.023   0.164   1.818  0.6222  0.0581 -0.5217
  255SOL    HW1  764   1.061   0.081   1.857 -2.2645  0.4824  1.5764
  255SOL    HW2  765   1.086   0.203   1.750  0.8214 -1.5407 -1.4415
  256SOL     OW  766   2.988   2.190   1.163  0.1116 -0.5054 -0.3057
  256SOL    HW1  767   2.900   2.204   1.215 -2.7452  1.8997 -1.7835
  256SOL    HW2  768   2.989   2.097   1.114  0.2225 -2.7289 -2.4244
  257SOL     OW  769   0.319   2.794   0.280  0.1075 -0.1809 -0.2601
  257SOL    HW1  770   0.354   2.798   0.373 -1.1347  1.0245 -0.7625
  257SOL    HW2  771   0.236   2.732   0.271 -0.4288  3.2801 -1.9069
  258SOL     OW  772   0.931   2.013   2.063 -0.7464 -0.1279 -0.8764
  258SOL    HW1  773   0.997   1.934   2.056  0.8702 -1.2256  0.1727
  258SOL    HW2  774   0.940   2.063   1.973 -0.0053 -1.3485 -1.8708
  259SOL     OW  775   1.058   1.869   2.405  0.3572  0.2809  0.1345
  259SOL    HW1  776   0.993   1.946   2.406 -0.7640  1.9064  0.7385
  259SOL    HW2  777   1.145   1.897   2.451  0.4128 -0.4071 -0.2805
  260SOL     OW  778   2.260   0.798   2.204 -0.9832  0.1719 -0.0623
  260SOL    HW1  779   2.180   0.815   2.151  0.9186  0.1077  1.1480
  260SOL    HW2  780   2.347   0.791   2.147 -2.1654 -1.0785 -0.7747
  261SOL     OW  781   1.310   0.671   0.920 -0.3836 -0.0527  0.1689
  261SOL    HW1  782   1.293   0.570   0.939 -1.2377 -0.2026  4.2263
  261SOL    HW2  783   1.242   0.730   0.967  1.1774  1.0979  1.3440
  262SOL     OW  784   2.064   2.328   2.523  0.4949 -0.0567 -0.4354
  262SOL    HW1  785   2.009   2.285   2.446  2.2660 -0.2110  1.5270
  262SOL    HW2  786   2.037   2.297   2.616 -3.2235  1.4939 -0.1655
  263SOL     OW  787   0.532   2.331   0.412 -0.2198 -0.4768 -0.3129
  263SOL    HW1  788   0.510   2.344   0.509  1.1322  1.5876 -1.2500
  263SOL    HW2  789   0.632   2.332   0.410 -0.1817 -0.8050  0.9447
  264SOL     OW  790   0.138   2.288   0.549 -0.7319  0.2330  0.1037
  264SOL    HW1  791   0.235   2.287   0.515  1.6585  2.7099 -0.4922
  264SOL    HW2  792   0.074   2.283   0.468  1.4662  0.7012  1.4835
  265SOL     OW  793   0.660   1.166   0.313 -0.3697 -0.5886 -0.3559
  265SOL    HW1  794   0.647   1.189   0.411 -0.2266 -0.0784  1.5066
  265SOL    HW2  795   0.763   1.154   0.299 -0.4962  2.4923 -0.4458
  266SOL     OW  796   0.724   1.906   2.214  0.6999 -0.4454 -0.1079
  266SOL    HW1  797   0.724   1.938   2.311 -0.2159  1.1639 -1.9766
  266SOL    HW2  798   0.804   1.945   2.168  3.1227 -2.1404  2.6139
  267SOL     OW  799   1.712   0.617   2.487  0.5270  0.1397  1.1905
  267SOL    HW1  800   1.699   0.604   2.589 -0.5367 -0.9050  0.8525
  267SOL    HW2  801   1.800   0.670   2.466 -0.3150  2.4327  0.6443
  268SOL     OW  802   0.640   1.005   0.094 -0.2205  0.0534 -0.2073
  268SOL    HW1  803   0.562   0.938   0.100 -1.9868  2.4050 -2.2776
  268SOL    HW2  804   0.647   1.060   0.177 -0.4628 -1.2352  1.6114
  269SOL     OW  805   2.503   2.219   2.395  0.3480 -0.7741 -0.2268
  269SOL    HW1  806   2.559   2.134   2.393  0.6166  0.5017  2.5796
  269SOL    HW2  807   2.547   2.304   2.360 -1.2681 -1.2847 -2.5400
  270SOL     OW  808   1.761   1.775   2.726 -0.3251 -0.1174 -0.3332
  270SOL    HW1  809   1.712   1.855   2.766  2.2418 -1.0014 -0.9187
  270SOL    HW2  810   1.766   1.703   2.796  0.0194  4.3790  3.2223
  271SOL     OW  811   0.366   0.174   0.045  0.2086 -0.3486 -0.2192
  271SOL    HW1  812   0.424   0.098   0.017  1.1968  1.1567  2.5772
  271SOL    HW2  813   0.275   0.171   3.088 -1.1977 -0.2208  0.2379
  272SOL     OW  814   2.704   0.467   0.372  0.4813 -0.3898 -0.3465
  272SOL    HW1  815   2.718   0.479   0.471 -0.5859  0.4735  1.8221
  272SOL    HW2  816   2.601   0.456   0.349 -1.0499 -0.5945 -0.7435
  273SOL     OW  817   0.350   3.050   1.870  0.4242 -0.0553  0.1664
  273SOL    HW1  818   0.412   3.075   1.946 -0.1137  1.0791  0.1139
  273SOL    HW2  819   0.324   2.953   1.869 -1.9252  0.4977  2.5391
  274SOL     OW  820   3.045   0.681   1.527  0.0990 -0.2064  0.3117
  274SOL    HW1  821   3.011   0.708   1.621 -0.5241  3.2365 -0.6420
  274SOL    HW2  822   2.974   0.625   1.472  2.9177 -3.2616 -0.6496
  275SOL     OW  823   0.938   1.624   0.758 -0.6530  0.0540 -0.3293
  275SOL    HW1  824   1.026   1.668   0.732  0.3378  0.6516 -0.9043
  275SOL    HW2  825   0.874   1.697   0.781 -1.1483 -3.3555 -1.4229
  276SOL     OW  826   0.535   0.823   2.199  0.7475  0.2036  0.7919
  276SOL    HW1  827   0.545   0.922   2.209  3.1655  0.1155 -1.4299
  276SOL    HW2  828   0.623   0.780   2.225 -0.2775  0.7582 -1.9031
  277SOL     OW  829   1.233   2.648   1.783  0.1907  0.1128 -0.2356
  277SOL    HW1  830   1.142   2.649   1.734 -2.4505 -1.9626 -3.4403
  277SOL    HW2  831   1.265   2.550   1.780  0.5628 -0.3779 -3.0654
  278SOL     OW  832   1.767   2.781   1.891  0.2213 -0.4641 -0.3846
  278SOL    HW1  833   1.711   2.755   1.974  0.1295  2.0779 -1.4088
  278SOL    HW2  834   1.775   2.884   1.892  0.1138 -2.1468  1.2516
  279SOL     OW  835   1.500   1.562   0.291 -0.5115 -0.5036 -0.1772
  279SOL    HW1  836   1.457   1.638   0.234 -1.3312  0.1005 -0.1688
  279SOL    HW2  837   1.537   1.484   0.234 -0.2343 -0.7879 -1.3772
  280SOL     OW  838   1.247   1.241   0.145 -0.4896  0.1738 -0.0316
  280SOL    HW1  839   1.169   1.276   0.099 -0.4066  0.6888  0.3691
  280SOL    HW2  840   1.269   1.292   0.226 -1.4016 -1.6486 -0.1367
  281SOL     OW  841   0.301   0.343   1.607 -0.1724  0.0103  0.1880
  281SOL    HW1  842   0.303   0.382   1.513  1.1115 -0.7723  1.3081
  281SOL    HW2  843   0.333   0.246   1.604  0.7805  1.8756  0.7093
  282SOL     OW  844   0.044   2.553   0.617  0.4316 -0.3692  0.5316
  282SOL    HW1  845   3.078   2.570   0.533  0.5956 -0.2958 -1.0745
  282SOL    HW2  846   0.078   2.459   0.613 -0.1944  1.2257  1.0571
  283SOL     OW  847   1.230   2.066   2.196  0.7953  0.3550 -0.6252
  283SOL    HW1  848   1.217   1.992   2.131  1.3513 -3.2793  1.0846
  283SOL    HW2  849   1.307   2.039   2.260  1.1677  1.8627  1.4430
  284SOL     OW  850   2.789   2.789   1.067  0.0067  0.6127  0.2204
  284SOL    HW1  851   2.700   2.830   1.043  1.7669 -1.2414  1.8029
  284SOL    HW2  852   2.805   2.791   1.169  0.9203  1.5583  0.3377
  285SOL     OW  853   0.425   2.193   2.418  0.8878  0.0860 -0.0795
  285SOL    HW1  854   0.414   2.244   2.332  0.6413  0.9892 -2.3635
  285SOL    HW2  855   0.482   2.245   2.491 -1.8683  1.2210  1.6453
  286SOL     OW  856   0.166   2.998   0.647  0.5809 -0.1154 -0.3277
  286SOL    HW1  857   0.240   3.067   0.633  1.0030 -0.0687 -0.7266
  286SOL    HW2  858   0.074   3.032   0.620 -0.5301 -3.1345  0.5335
  287SOL     OW  859   0.712   0.903   0.508  0.1640  0.5473 -0.0662
  287SOL    HW1  860   0.800   0.885   0.559 -2.1800 -0.8564  0.7698
  287SOL    HW2  861   0.695   1.006   0.518  1.3392  2.8707  0.5541
  288SOL     OW  862   2.209   1.929   2.716  0.3040 -0.2071  0.1417
  288SOL    HW1  863   2.245   2.015   2.679 -0.0378 -0.6481  0.3869
  288SOL    HW2  864   2.122   1.913   2.670 -0.2430  1.1170  3.9872
  289SOL     OW  865   0.154   1.963   2.831 -0.7530 -0.2603 -0.4860
  289SOL    HW1  866   0.238   1.946   2.778 -1.3819  0.5705  0.5994
  289SOL    HW2  867   0.077   1.907   2.793  1.8338  1.5644 -2.4549
  290SOL     OW  868   1.350   1.622   1.335 -0.1375  0.2700 -0.1961
  290SOL    HW1  869   1.254   1.626   1.303  0.2533 -1.2526  1.0338
  290SOL    HW2  870   1.418   1.670   1.278  0.9306  1.0184  0.7410
  291SOL     OW  871   1.460   1.292   2.861 -0.3087  0.2614 -0.9806
  291SOL    HW1  872   1.449   1.376   2.918 -0.4330  1.6314  2.0743
  291SOL    HW2  873   1.434   1.204   2.905  0.5949 -1.0691  0.4900
  292SOL     OW  874   0.996   1.551   0.332 -0.1582 -0.2326 -0.2546
  292SOL    HW1  875   1.052   1.471   0.357  0.8384  2.2812 -1.6960
  292SOL    HW2  876   0.909   1.528   0.291  2.1843  1.9839 -2.6061
  293SOL     OW  877   1.416   2.794   1.025 -0.1840  0.3163  0.8159
  293SOL    HW1  878   1.332   2.805   1.082 -4.9176  0.9516 -0.1073
  293SOL    HW2  879   1.415   2.850   0.938 -0.3243 -1.6648 -0.2823
  294SOL     OW  880   1.963   1.176   2.465  0.9002 -0.1712  0.6136
  294SOL    HW1  881   1.929   1.097   2.521  0.6735  1.3757  0.5319
  294SOL    HW2  882   1.996   1.258   2.519  1.6375  0.7524  1.3916
  295SOL     OW  883   1.930   1.971   3.089 -0.2332 -0.2444  0.5146
  295SOL    HW1  884   1.830   1.974   0.016 -0.8934  0.4325  0.6997
  295SOL    HW2  885   1.981   1.974   0.090  1.4687 -1.0845 -0.7222
  296SOL     OW  886   1.293   0.590   1.692 -0.1996  0.4627  0.9367
  296SOL    HW1  887   1.388   0.559   1.694 -1.7385  0.3985 -2.5938
  296SOL    HW2  888   1.284   0.681   1.638 -0.2391  2.1183 -2.3847
  297SOL     OW  889   2.968   0.814   2.154  0.0325 -0.1477 -0.3372
  297SOL    HW1  890   2.882   0.848   2.111  1.3070 -0.8241  0.3424
  297SOL    HW2  891   3.005   0.881   2.220 -1.7126 -0.8023  0.0073
  298SOL     OW  892   0.946   1.758   1.659 -0.4012 -0.2648 -0.1268
  298SOL    HW1  893   1.000   1.835   1.696  3.0753  1.7721  1.6544
  298SOL    HW2  894   0.944   1.766   1.555  0.7534 -0.1498  0.4918
  299SOL     OW  895   1.079   0.106   2.496  0.4928 -0.3125  0.2775
  299SOL    HW1  896   1.156   0.160   2.458  1.3474 -2.3530  0.4724
  299SOL    HW2  897   1.054   0.037   2.425  5.0222 -0.3925  1.6711
  300SOL     OW  898   2.896   1.017   2.955  0.1186 -0.1996  0.0775
  300SOL    HW1  899   2.796   1.034   2.937  0.1647 -0.4739 -1.0019
  300SOL    HW2  900   2.903   0.955   3.034  0.0302  0.0918 -0.9584
  301SOL     OW  901   1.939   0.728   2.384 -0.1356  0.0398 -0.0635
  301SOL    HW1  902   1.950   0.736   2.280  0.4425 -0.6321  1.7653
  301SOL    HW2  903   1.977   0.811   2.430 -1.6509  0.3068  1.1195
  302SOL     OW  904   2.425   1.820   2.877  0.1605  0.0193  0.6352
  302SOL    HW1  905   2.355   1.875   2.824  1.3532  0.9394  0.7344
  302SOL    HW2  906   2.515   1.814   2.832 -1.0715  0.3992  2.3889
  303SOL     OW  907   0.425   2.392   2.841 -0.0267  0.3427  0.0206
  303SOL    HW1  908   0.421   2.496   2.852  3.2422  3.4192  1.9489
  303SOL    HW2  909   0.410   2.346   2.932  0.4048  0.5165 -1.9515
  304SOL     OW  910   0.091   1.665   1.378  0.0460 -0.6650  0.1645
  304SOL    HW1  911   0.106   1.757   1.422 -0.6696 -2.5000  0.1749
  304SOL    HW2  912   0.138   1.598   1.434 -1.9286  2.6052 -1.7061
  305SOL     OW  913   2.448   0.721   2.008 -0.8786 -0.4397  0.1345
  305SOL    HW1  914   2.360   0.678   2.003 -1.5883  1.1602 -0.6151
  305SOL    HW2  915   2.525   0.657   2.038  1.1624  0.1232 -1.7860
  306SOL     OW  916   1.893   1.332   1.467 -0.0268  0.3773  0.0192
  306SOL    HW1  917   1.868   1.233   1.490 -1.5435 -2.3760 -0.7609
  306SOL    HW2  918   1.990   1.354   1.465 -0.3926 -0.3759  0.3670
  307SOL     OW  919   3.045   0.195   0.908  0.8051  0.2662 -0.3324
  307SOL    HW1  920   2.987   0.183   0.821 -0.1083  1.9167  2.9610
  307SOL    HW2  921   3.061   0.295   0.928  0.3614 -1.9880 -0.1887
  308SOL     OW  922   2.940   1.740   1.573  0.0153  0.5599  0.1830
  308SOL    HW1  923   3.019   1.776   1.518 -0.3450 -0.7064  0.6172
  308SOL    HW2  924   2.971   1.668   1.631 -1.1253  0.2874  0.3285
  309SOL     OW  925   2.330   2.392   1.834 -0.2416 -0.0235 -0.1469
  309SOL    HW1  926   2.334   2.489   1.873 -0.7034  1.4307  0.3959
  309SOL    HW2  927   2.257   2.333   1.871  1.6960  0.9885  1.7328
  310SOL     OW  928   2.271   1.278   2.550  0.1437 -0.1342 -0.1164
  310SOL    HW1  929   2.322   1.364   2.576 -0.1842  3.0043  1.2123
  310SOL    HW2  930   2.200   1.255   2.616  1.0466  0.5675  1.8783
  311SOL     OW  931   1.730   1.347   2.864  0.1468 -0.4570 -0.1364
  311SOL    HW1  932   1.632   1.318   2.869 -1.2562  0.0864 -0.5682
  311SOL    HW2  933   1.787   1.270   2.890 -0.3560 -0.1734  2.0634
  312SOL     OW  934   1.038   2.178   2.338  0.5316  0.1299  0.7405
  312SOL    HW1  935   1.082   2.122   2.268 -0.0294  1.0627  2.8335
  312SOL    HW2  936   1.106   2.219   2.401 -1.2243 -0.0744 -0.7792
  313SOL     OW  937   0.235   0.214   0.951 -0.2160  0.1405 -0.1039
  313SOL    HW1  938   0.133   0.208   0.944 -1.2917  1.2736 -0.7826
  313SOL    HW2  939   0.258   0.279   1.027  0.3583  2.1970  0.3769
  314SOL     OW  940   0.475   1.957   1.218  0.1720  0.3702  0.1706
  314SOL    HW1  941   0.486   1.970   1.320  1.1274 -1.1270 -1.4465
  314SOL    HW2  942   0.414   1.876   1.196  0.5675 -2.2523 -0.8433
  315SOL     OW  943   0.380   2.095   1.981  0.5623 -0.2793 -0.3022
  315SOL    HW1  944   0.304   2.160   1.976  1.5006  0.3755 -0.8071
  315SOL    HW2  945   0.391   2.053   2.073  0.0519 -0.9587  1.0948
  316SOL     OW  946   0.315   2.494   0.865 -0.1063 -0.2637  0.1773
  316SOL    HW1  947   0.241   2.423   0.867  1.6890 -1.2431 -2.6862
  316SOL    HW2  948   0.276   2.587   0.883 -1.5537 -2.5623  2.1157
  317SOL     OW  949   2.638   0.020   1.568  0.0924  0.0343 -0.1240
  317SOL    HW1  950   2.640   0.103   1.511  2.1859 -0.7902 -1.2852
  317SOL    HW2  951   2.579   3.046   1.518 -1.0599  2.1822 -0.2487
  318SOL     OW  952   2.204   2.379   0.257 -0.8030 -0.2478  0.6227
  318SOL    HW1  953   2.306   2.402   0.241  0.1072 -1.8259 -0.6117
  318SOL    HW2  954   2.165   2.443   0.324  2.7270 -0.0419  1.2682
  319SOL     OW  955   1.506   1.221   2.604  0.0647  0.1540 -0.0172
  319SOL    HW1  956   1.494   1.250   2.708  1.7570  1.6819  5.5010
  319SOL    HW2  957   1.546   1.128   2.603 -0.3233  1.7143  1.8503
  320SOL     OW  958   0.317   2.391   2.244 -0.5216  0.3209  0.5409
  320SOL    HW1  959   0.237   2.456   2.248 -1.0576 -0.4419 -0.4263
  320SOL    HW2  960   0.384   2.408   2.168  0.0817  2.3352  3.1630
  321SOL     OW  961   0.900   2.341   0.119  0.1980 -0.3401  0.5205
  321SOL    HW1  962   0.995   2.385   0.110  1.1686  1.5118  1.3141
  321SOL    HW2  963   0.823   2.406   0.088  0.0841  3.1449  2.2698
  322SOL     OW  964   2.502   0.444   2.329  0.1215  0.0926  0.6095
  322SOL    HW1  965   2.476   0.347   2.327  0.7859  0.4512 -1.3763
  322SOL    HW2  966   2.436   0.500   2.384  0.3945  0.6789 -0.4180
  323SOL     OW  967   2.894   1.346   0.826 -0.4247 -0.0436  0.1225
  323SOL    HW1  968   2.870   1.408   0.904 -1.7301 -2.3381 -3.8784
  323SOL    HW2  969   2.939   1.262   0.854  0.8715  1.4631  2.0462
  324SOL     OW  970   0.208   0.644   1.717  0.3482  0.2618  0.2597
  324SOL    HW1  971   0.248   0.583   1.793 -0.1347 -0.9013  1.4302
  324SOL    HW2  972   0.122   0.603   1.682  0.3080  1.0899 -1.7534
  325SOL     OW  973   0.097   0.138   1.987 -0.8345 -0.7830 -0.2535
  325SOL    HW1  974   0.039   0.083   1.929  3.7719  1.7350 -0.0770
  325SOL    HW2  975   0.177   0.180   1.941  1.0239 -3.7292 -0.3987
  326SOL     OW  976   2.021   2.684   0.125 -0.1442  0.0586  0.4592
  326SOL    HW1  977   2.056   2.734   0.207  0.1992  0.0041 -1.5251
  326SOL    HW2  978   1.945   2.619   0.149  0.1435 -1.0402 -2.0728
  327SOL     OW  979   1.988   1.529   0.577 -0.6603 -0.3057  0.6815
  327SOL    HW1  980   2.007   1.634   0.580  0.0834  1.9843  1.7737
  327SOL    HW2  981   2.032   1.487   0.494 -1.4926 -1.1229  1.3791
  328SOL     OW  982   0.031   1.958   2.470  0.3398 -0.6969 -0.1203
  328SOL    HW1  983   3.081   1.921   2.557 -0.5601  0.8363  0.6448
  328SOL    HW2  984   0.081   2.046   2.490  2.0293  1.4729 -0.2911
  329SOL     OW  985   0.231   2.388   1.684 -0.1031  0.2957 -0.1764
  329SOL    HW1  986   0.281   2.332   1.612 -0.1180 -0.1623 -0.8768
  329SOL    HW2  987   0.207   2.331   1.763 -0.0159 -1.1509 -0.7046
  330SOL     OW  988   2.433   1.061   2.407 -0.2906  0.3779  0.1641
  330SOL    HW1  989   2.471   0.974   2.442 -1.8972 -2.1432  0.4234
  330SOL    HW2  990   2.402   1.119   2.488 -0.0607  2.1891 -1.2641
  331SOL     OW  991   2.676   2.377   1.142 -0.0141  0.5025 -0.3137
  331SOL    HW1  992   2.690   2.305   1.217 -2.3786 -3.9569  1.7218
  331SOL    HW2  993   2.615   2.455   1.170 -0.3244 -1.0388 -0.4276
  332SOL     OW  994   0.580   2.977   0.887  0.2181 -0.2029  0.2429
  332SOL    HW1  995   0.482   2.988   0.908 -1.9256  2.6514 -1.8134
  332SOL    HW2  996   0.606   2.880   0.916  0.7804  0.8533  2.2065
  333SOL     OW  997   2.293   2.138   2.533 -0.0948  0.0557 -0.5716
  333SOL    HW1  998   2.232   2.218   2.541  4.2622 -3.1437 -0.8414
  333SOL    HW2  999   2.385   2.168   2.501 -2.5338  0.0933  0.3752
  334SOL     OW 1000   0.669   1.206   0.566  0.0733  0.1677 -0.0990
  334SOL    HW1 1001   0.611   1.153   0.631 -1.5215 -0.2952  0.6744
  334SOL    HW2 1002   0.723   1.280   0.612 -1.3343  0.1485 -0.5700
  335SOL     OW 1003   2.871   2.009   2.361  0.2703  0.4079  0.0691
  335SOL    HW1 1004   2.963   1.993   2.403 -1.0693  0.2421  3.3381
  335SOL    HW2 1005   2.791   1.963   2.411 -1.5568  0.6928  0.0197
  336SOL     OW 1006   2.385   3.004   2.348  0.5147  0.2130  0.5823
  336SOL    HW1 1007   2.428   2.993   2.438  3.6007 -0.7316 -0.1260
  336SOL    HW2 1008   2.284   2.981   2.339 -0.0631  0.2939 -0.6051
  337SOL     OW 1009   0.803   0.786   0.893 -0.0898 -0.2181 -0.0451
  337SOL    HW1 1010   0.864   0.707   0.912 -0.8736 -2.0222 -2.8744
  337SOL    HW2 1011   0.844   0.840   0.814 -1.9232  0.0294 -1.5093
  338SOL     OW 1012   1.246   1.908   1.248 -0.0241  0.0063 -0.2625
  338SOL    HW1 1013   1.165   1.886   1.307  0.6556 -0.5788 -1.6445
  338SOL    HW2 1014   1.314   1.962   1.299  1.7545  1.5992 -0.1795
  339SOL     OW 1015   0.079   1.888   1.498  0.2848 -0.1593  0.3236
  339SOL    HW1 1016   0.077   1.975   1.448  1.7397  0.8773 -0.1601
  339SOL    HW2 1017   0.090   1.906   1.600 -0.8835 -2.6330  0.2402
  340SOL     OW 1018   1.389   2.710   1.552 -0.8276 -0.5897  0.3089
  340SOL    HW1 1019   1.464   2.646   1.567 -1.5373  0.5546  0.7728
  340SOL    HW2 1020   1.333   2.705   1.633  1.8125 -1.0876 -1.2103
  341SOL     OW 1021   1.548   1.432   1.106  0.2026  0.2240  0.3911
  341SOL    HW1 1022   1.453   1.405   1.083 -1.9532 -1.1054  1.4621
  341SOL    HW2 1023   1.557   1.535   1.102 -1.2498  1.3438  0.2205
  342SOL     OW 1024   2.587   1.452   1.071  0.4997 -0.5011  0.3706
  342SOL    HW1 1025   2.504   1.510   1.078  0.3816 -0.9906  0.1797
  342SOL    HW2 1026   2.588   1.381   0.997  1.9034 -1.7991 -1.6971
  343SOL     OW 1027   2.349   0.513   1.166  0.2178 -0.5642 -0.2207
  343SOL    HW1 1028   2.390   0.600   1.194 -1.5746 -2.1176  2.1221
  343SOL    HW2 1029   2.331   0.506   1.063  1.1770  0.4715 -1.5742
  344SOL     OW 1030   1.924   0.179   0.620  0.6451 -0.1717  0.4806
  344SOL    HW1 1031   2.016   0.197   0.652  0.7950 -1.5567  0.7156
  344SOL    HW2 1032   1.873   0.118   0.682  0.2338  0.6690 -0.3349
  345SOL     OW 1033   0.943   2.852   1.955  0.2749  0.2203 -0.3747
  345SOL    HW1 1034   0.943   2.785   2.036 -1.1383 -1.3152  2.6698
  345SOL    HW2 1035   0.876   2.814   1.886 -0.1450 -1.5598 -2.6020
  346SOL     OW 1036   2.758   2.120   0.770  0.5334 -0.5475 -0.2300
  346SOL    HW1 1037   2.789   2.023   0.780  0.4301  1.0230 -0.2634
  346SOL    HW2 1038   2.701   2.152   0.847  0.5787 -1.8934  3.1865
  347SOL     OW 1039   2.348   2.955   1.188 -0.1566 -0.5014  0.0886
  347SOL    HW1 1040   2.309   2.875   1.235 -1.2116 -1.5456  1.3835
  347SOL    HW2 1041   2.279   3.006   1.131  1.3175 -1.5785  1.1301
  348SOL     OW 1042   1.044   1.138   1.252 -0.2755  0.0507 -0.2052
  348SOL    HW1 1043   1.134   1.123   1.207 -2.6621 -1.6906  0.9241
  348SOL    HW2 1044   0.991   1.053   1.248  2.3437 -2.8470 -0.8984
  349SOL     OW 1045   2.279   0.502   2.031  0.6653 -0.6166 -0.5777
  349SOL    HW1 1046   2.190   0.512   2.079  0.3839 -0.2131 -0.7669
  349SOL    HW2 1047   2.295   0.410   1.990  1.7161 -2.8209  0.2782
  350SOL     OW 1048   2.074   2.537   0.458  0.2842  0.0281  0.5124
  350SOL    HW1 1049   2.114   2.626   0.436  0.3160 -2.7212  0.5475
  350SOL    HW2 1050   2.132   2.490   0.527  0.1987  2.0718  1.1513
  351SOL     OW 1051   1.103   0.466   2.674 -0.2480 -0.3143 -0.0930
  351SOL    HW1 1052   1.117   0.369   2.695  0.7910  2.5213  1.2803
  351SOL    HW2 1053   1.083   0.514   2.758  0.1057 -0.8166 -1.4679
  352SOL     OW 1054   2.078   2.650   2.215  0.2290 -0.5378  0.3751
  352SOL    HW1 1055   2.028   2.603   2.291  2.5188  0.6883  4.3769
  352SOL    HW2 1056   2.043   2.639   2.122 -0.7538 -2.3846 -0.6053
  353SOL     OW 1057   0.343   1.080   2.509 -0.3195  0.0672  0.0738
  353SOL    HW1 1058   0.374   1.150   2.441  1.5353 -2.1256 -2.2947
  353SOL    HW2 1059   0.385   0.988   2.491 -1.0296  2.3745 -2.1142
  354SOL     OW 1060   0.408   2.770   2.601  0.5411  0.8051  0.1276
  354SOL    HW1 1061   0.367   2.697   2.543  1.8492 -0.5322 -0.2888
  354SOL    HW2 1062   0.446   2.727   2.686  1.0442 -0.2376 -1.6126
  355SOL     OW 1063   2.282   2.776   1.382  0.4376  0.2805  0.0961
  355SOL    HW1 1064   2.305   2.674   1.384  0.4029 -0.7267 -0.7254
  355SOL    HW2 1065   2.201   2.797   1.440  2.2301  2.8388 -1.8527
  356SOL     OW 1066   2.426   0.438   0.382  0.4583 -0.0248 -0.3602
  356SOL    HW1 1067   2.448   0.532   0.411 -0.0364  2.6753  2.2861
  356SOL    HW2 1068   2.329   0.409   0.401 -0.0132  0.8993  0.8145
  357SOL     OW 1069   3.015   0.032   1.800 -0.9514  0.5656  0.4749
  357SOL    HW1 1070   2.986   0.114   1.745  1.0900  1.2350 -1.2974
  357SOL    HW2 1071   2.929   3.077   1.840 -4.0872 -0.3594  2.1576
  358SOL     OW 1072   2.925   1.550   1.306  0.2847  0.2976  0.2714
  358SOL    HW1 1073   3.005   1.612   1.318  1.6153  4.2570  0.2014
  358SOL    HW2 1074   2.847   1.575   1.366  0.3807 -1.6920  1.1521
  359SOL     OW 1075   2.543   2.930   2.870  0.2516 -0.2047 -0.0678
  359SOL    HW1 1076   2.524   2.973   2.781 -1.4072 -0.7029  2.5530
  359SOL    HW2 1077   2.645   2.919   2.876  2.2933  0.9344  0.8837
  360SOL     OW 1078   1.201   0.618   1.341 -0.3875 -0.5798 -0.6141
  360SOL    HW1 1079   1.148   0.558   1.402  3.7970  0.5976 -0.4489
  360SOL    HW2 1080   1.260   0.693   1.387 -1.0126  1.7343  0.8770
  361SOL     OW 1081   2.669   2.628   1.477 -0.8112 -0.7612 -0.1424
  361SOL    HW1 1082   2.686   2.673   1.569  0.3999 -0.9806  0.7637
  361SOL    HW2 1083   2.692   2.526   1.478  2.1496 -1.9762 -2.6558
  362SOL     OW 1084   1.406   0.283   0.800 -0.1217 -0.4078 -0.0045
  362SOL    HW1 1085   1.473   0.355   0.767 -1.4099  5.0943 -0.1489
  362SOL    HW2 1086   1.448   0.200   0.841  0.1810  1.5713  0.1320
  363SOL     OW 1087   1.842   1.406   1.004 -0.1332 -0.3098 -0.1776
  363SOL    HW1 1088   1.874   1.473   0.933 -0.2098 -0.9115  1.1943
  363SOL    HW2 1089   1.743   1.421   1.029 -0.8464  0.8409  0.2339
  364SOL     OW 1090   0.278   0.887   1.825 -0.3334 -0.0989 -0.7743
  364SOL    HW1 1091   0.365   0.855   1.866 -0.6266 -1.2655 -0.6137
  364SOL    HW2 1092   0.237   0.810   1.768 -1.0838 -1.0921 -1.6636
  365SOL     OW 1093   2.894   0.534   1.030  0.2835  0.1070  0.5477
  365SOL    HW1 1094   2.987   0.513   0.993  0.7710  1.5798  0.8651
  365SOL    HW2 1095   2.895   0.627   1.072 -3.1665 -0.8668  1.0049
  366SOL     OW 1096   2.801   0.958   0.270  0.1131  0.0293 -0.3955
  366SOL    HW1 1097   2.875   0.917   0.211  0.3719  0.8542 -1.9227
  366SOL    HW2 1098   2.765   1.041   0.229  0.4266 -0.5546 -0.7510
  367SOL     OW 1099   2.240   2.015   2.308 -0.0480 -0.0165  0.0992
  367SOL    HW1 1100   2.208   2.097   2.253  1.3167 -0.1828 -0.2476
  367SOL    HW2 1101   2.258   2.045   2.405 -0.5919 -0.8295  0.1621
  368SOL     OW 1102   2.387   2.049   1.064  0.0414  0.6515  0.8946
  368SOL    HW1 1103   2.320   2.028   1.136  1.5561  1.0257 -0.2579
  368SOL    HW2 1104   2.425   1.964   1.022  1.1024  3.8006  0.4948
  369SOL     OW 1105   2.169   3.034   2.790  0.5120  0.7758  0.1278
  369SOL    HW1 1106   2.146   2.984   2.872  1.3706  0.9526 -1.4876
  369SOL    HW2 1107   2.247   3.089   2.816  0.6109 -0.1501  0.6731
  370SOL     OW 1108   0.980   0.374   1.128  0.1584  0.3027  0.3394
  370SOL    HW1 1109   0.932   0.287   1.101 -0.6335 -1.2245  1.0244
  370SOL    HW2 1110   0.930   0.417   1.204  1.0393  0.2782 -0.4537
  371SOL     OW 1111   0.360   1.544   0.326  0.1826  0.2436  0.3848
  371SOL    HW1 1112   0.363   1.580   0.228  0.5213 -1.2706 -0.3598
  371SOL    HW2 1113   0.452   1.553   0.370 -1.2005  1.8994 -3.0025
  372SOL     OW 1114   0.443   0.814   2.496 -0.3024 -0.6982 -0.6951
  372SOL    HW1 1115   0.461   0.794   2.397 -1.2189  2.9120  0.1606
  372SOL    HW2 1116   0.531   0.833   2.549  2.1803 -1.7358  2.4908
  373SOL     OW 1117   1.138   2.946   2.802  0.6421 -0.3822  0.0796
  373SOL    HW1 1118   1.050   2.898   2.826 -1.2466 -2.4633  1.1444
  373SOL    HW2 1119   1.129   3.046   2.785 -1.8396 -0.7442 -0.5388
  374SOL     OW 1120   1.008   1.794   0.457  0.2302  0.0514  0.4796
  374SOL    HW1 1121   1.072   1.796   0.533 -1.2914 -0.6335 -1.0817
  374SOL    HW2 1122   1.016   1.701   0.417  0.8366  0.8584 -0.1988
  375SOL     OW 1123   0.489   0.731   1.960  0.2314 -0.2699  0.4283
  375SOL    HW1 1124   0.504   0.781   2.043 -0.3472  1.7319 -3.2818
  375SOL    HW2 1125   0.579   0.694   1.923  3.3732 -0.6845 -0.7789
  376SOL     OW 1126   3.050   2.448   1.689 -0.2671 -0.4080 -0.6131
  376SOL    HW1 1127   0.062   2.441   1.669  3.4210  0.9711 -0.1229
  376SOL    HW2 1128   3.045   2.492   1.784 -0.3599 -1.9478  0.2966
  377SOL     OW 1129   2.788   1.542   2.756 -0.0860  0.2401 -0.2148
  377SOL    HW1 1130   2.700   1.561   2.708 -1.3103 -0.1820 -2.2735
  377SOL    HW2 1131   2.854   1.482   2.707  0.0576  1.6123 -1.3345
  378SOL     OW 1132   2.109   2.845   3.019 -0.0510  0.5436 -0.2795
  378SOL    HW1 1133   2.098   2.778   0.005  2.7383  2.0788  2.6415
  378SOL    HW2 1134   2.014   2.870   2.981 -1.2511  2.5877 -0.1256
  379SOL     OW 1135   1.831   0.406   0.523 -0.3179 -0.3909  0.3386
  379SOL    HW1 1136   1.888   0.321   0.542  1.1107  1.8362 -0.6813
  379SOL    HW2 1137   1.804   0.461   0.604  1.6549 -2.1011  0.6944
  380SOL     OW 1138   2.586   2.062   1.790 -0.6145  0.1869 -0.1611
  380SOL    HW1 1139   2.547   1.978   1.837  0.4400 -0.0607  1.3613
  380SOL    HW2 1140   2.677   2.043   1.744 -1.2814  0.1224 -2.0761
  381SOL     OW 1141   2.168   1.368   2.311  0.0952 -0.7049  0.3622
  381SOL    HW1 1142   2.197   1.469   2.300  0.5517  2.2734  0.2964
  381SOL    HW2 1143   2.205   1.333   2.401  1.1614 -1.2016 -0.3488
  382SOL     OW 1144   2.816   2.663   2.658  0.0115 -0.4380  0.2122
  382SOL    HW1 1145   2.744   2.678   2.726  0.3278 -0.2421  1.5155
  382SOL    HW2 1146   2.820   2.745   2.593 -0.4462  0.3362  0.9900
  383SOL     OW 1147   1.026   1.364   0.004  0.5572  0.1418  0.3651
  383SOL    HW1 1148   0.957   1.290   0.010  1.0893  2.9970  3.0265
  383SOL    HW2 1149   0.990   1.443   3.039 -2.6792  2.6821 -1.4320
  384SOL     OW 1150   1.376   1.926   1.668 -0.7666  0.4416  0.1727
  384SOL    HW1 1151   1.276   1.909   1.684  1.0599  3.2895 -1.2980
  384SOL    HW2 1152   1.430   1.946   1.755  1.7064 -4.4518  1.1485
  385SOL     OW 1153   1.679   2.679   0.658  0.1113 -0.0166  0.2418
  385SOL    HW1 1154   1.719   2.597   0.707 -1.4703 -1.6186 -0.7621
  385SOL    HW2 1155   1.761   2.730   0.625  0.5698  0.9884  0.4095
  386SOL     OW 1156   1.859   1.597   0.807 -0.1001 -0.0428  0.0718
  386SOL    HW1 1157   1.890   1.666   0.876 -0.2457 -0.9675 -0.3828
  386SOL    HW2 1158   1.923   1.591   0.730 -3.3005 -0.5043 -0.9507
  387SOL     OW 1159   2.782   2.224   1.334 -0.1347 -0.2521 -0.2264
  387SOL    HW1 1160   2.780   2.292   1.412  1.9490  0.2546  0.1386
  387SOL    HW2 1161   2.763   2.132   1.366 -1.3933  1.0610 -0.0579
  388SOL     OW 1162   2.969   1.121   1.683  0.3800  0.2246 -0.0734
  388SOL    HW1 1163   2.957   1.218   1.646  2.3641  0.0020 -0.5347
  388SOL    HW2 1164   2.996   1.060   1.608 -2.4032  0.4020  2.4871
  389SOL     OW 1165   1.888   0.496   0.022 -0.2668 -0.8125  0.8510
  389SOL    HW1 1166   1.909   0.520   0.119 -0.5649 -2.3457  1.0445
  389SOL    HW2 1167   1.954   0.427   3.074  3.3052 -0.0996  3.2092
  390SOL     OW 1168   1.205   1.680   2.873  0.5768  0.0687 -0.3219
  390SOL    HW1 1169   1.276   1.730   2.815  3.1177  2.0587  1.1598
  390SOL    HW2 1170   1.132   1.630   2.823 -3.7436 -1.9181 -1.1055
  391SOL     OW 1171   1.370   2.162   2.988 -0.0151  0.6234  0.5095
  391SOL    HW1 1172   1.412   2.208   3.065 -1.9001 -1.8769 -1.7969
  391SOL    HW2 1173   1.363   2.062   3.001 -1.2863 -0.9142 -0.0433
  392SOL     OW 1174   3.051   2.573   1.925 -0.1603 -0.0018 -0.5685
  392SOL    HW1 1175   0.007   2.648   1.975  0.2484 -2.5410 -0.3743
  392SOL    HW2 1176   2.960   2.554   1.959  0.9301  3.2265  0.0462
  393SOL     OW 1177   1.250   2.157   0.244 -0.0605 -0.4803  0.6011
  393SOL    HW1 1178   1.227   2.186   0.339 -0.6736 -0.6965 -1.8751
  393SOL    HW2 1179   1.340   2.200   0.212  3.2372  2.4439  0.2251
  394SOL     OW 1180   0.506   0.504   2.400 -0.1780 -0.0820  0.1628
  394SOL    HW1 1181   0.405   0.516   2.410 -0.6021 -0.4506 -0.6600
  394SOL    HW2 1182   0.539   0.409   2.426  1.1422 -3.0226 -1.1926
  395SOL     OW 1183   0.417   1.140   0.998 -0.8982  0.2745 -0.2671
  395SOL    HW1 1184   0.485   1.197   0.950  0.9138  0.8732  0.3930
  395SOL    HW2 1185   0.364   1.080   0.938 -1.3366  3.6642 -2.7990
  396SOL     OW 1186   1.919   1.069   2.202 -0.3266  0.3610 -0.2954
  396SOL    HW1 1187   1.839   1.005   2.216  1.0552 -0.0208 -0.3366
  396SOL    HW2 1188   1.928   1.126   2.287 -0.8647  0.8407  2.4427
  397SOL     OW 1189   0.738   0.550   0.102 -0.1277  0.0129 -0.4577
  397SOL    HW1 1190   0.647   0.509   0.075  1.0069  0.5756 -3.9831
  397SOL    HW2 1191   0.728   0.624   0.171 -0.0863 -1.1494 -2.5438
  398SOL     OW 1192   1.152   2.318   2.948  0.2309 -0.0034 -0.3205
  398SOL    HW1 1193   1.234   2.254   2.954 -0.5823 -1.8786  1.0565
  398SOL    HW2 1194   1.164   2.363   3.038  1.7103 -0.6076 -3.3502
  399SOL     OW 1195   1.415   1.917   2.397 -0.4804 -0.4691  0.4448
  399SOL    HW1 1196   1.381   1.822   2.403  0.5456 -0.4117  2.1843
  399SOL    HW2 1197   1.467   1.934   2.308  1.3251  3.1993  1.2984
  400SOL     OW 1198   2.071   1.704   1.390 -0.0963  0.3348 -0.0696
  400SOL    HW1 1199   1.994   1.669   1.329 -3.1495 -0.7331 -1.6032
  400SOL    HW2 1200   2.096   1.634   1.456 -0.8612 -0.9396  1.4092
  401SOL     OW 1201   1.264   1.278   0.889  0.3845  0.1953 -0.4482
  401SOL    HW1 1202   1.240   1.361   0.947  0.6431  0.5257  0.1785
  401SOL    HW2 1203   1.338   1.305   0.824 -0.5439 -0.6929 -0.0350
  402SOL     OW 1204   0.168   2.626   2.251 -0.5092  0.3095 -0.2752
  402SOL    HW1 1205   0.126   2.685   2.181  0.0757 -1.3299  3.5065
  402SOL    HW2 1206   0.153   2.673   2.342 -0.7056  0.8972 -1.6039
  403SOL     OW 1207   2.816   1.994   1.616 -0.0585 -0.0066  0.2464
  403SOL    HW1 1208   2.878   2.060   1.660 -1.2706 -2.0107 -1.0964
  403SOL    HW2 1209   2.867   1.913   1.584 -0.4224 -0.3575  5.4773
  404SOL     OW 1210   1.945   1.930   1.182 -0.0767 -0.0328  0.2897
  404SOL    HW1 1211   2.039   1.947   1.222 -0.4854  1.5137 -0.8765
  404SOL    HW2 1212   1.873   1.964   1.249  1.1004  0.1860 -0.0455
  405SOL     OW 1213   2.589   0.206   2.814  0.1878  0.1628  0.0038
  405SOL    HW1 1214   2.671   0.182   2.874  3.3460  0.0165  1.2475
  405SOL    HW2 1215   2.621   0.231   2.721  1.5696  1.6473 -0.1360
  406SOL     OW 1216   0.859   1.719   2.527 -0.2064 -0.0982 -0.1219
  406SOL    HW1 1217   0.764   1.750   2.548 -2.0935 -1.8228 -0.4166
  406SOL    HW2 1218   0.910   1.794   2.483 -2.3125 -0.4021 -0.5899
  407SOL     OW 1219   1.792   2.567   0.251 -0.2807 -0.2766 -0.3908
  407SOL    HW1 1220   1.806   2.555   0.352 -0.0985  0.7907  1.1835
  407SOL    HW2 1221   1.689   2.558   0.231 -2.8312  0.2073 -1.0975
  408SOL     OW 1222   0.330   3.043   1.027  0.1483  0.5511 -0.5650
  408SOL    HW1 1223   0.307   0.050   1.011 -1.1645 -0.2861 -0.4991
  408SOL    HW2 1224   0.248   2.980   1.006 -3.7586  1.2898  1.4394
  409SOL     OW 1225   2.141   1.999   0.806 -0.5104  0.4705 -0.4153
  409SOL    HW1 1226   2.075   1.951   0.750  4.2162  2.2467  1.8211
  409SOL    HW2 1227   2.216   2.030   0.745 -1.0442  1.6679 -0.6912
  410SOL     OW 1228   2.372   2.099   0.021  0.3425  0.0502 -0.1216
  410SOL    HW1 1229   2.455   2.040   0.019  1.5641  3.8602 -0.9162
  410SOL    HW2 1230   2.383   2.187   3.059  0.5307  1.0580  1.5061
  411SOL     OW 1231   0.142   0.245   0.460  0.3741  0.2767 -0.4495
  411SOL    HW1 1232   0.181   0.176   0.399 -0.1939  0.8980 -0.0017
  411SOL    HW2 1233   0.189   0.242   0.551 -2.1903  1.0812  0.8413
  412SOL     OW 1234   1.530   2.500   0.467  0.2718 -0.5238  0.1137
  412SOL    HW1 1235   1.534   2.506   0.365 -2.0742  0.5056 -0.9496
  412SOL    HW2 1236   1.450   2.545   0.504 -0.0596  0.0226 -1.4448
  413SOL     OW 1237   1.956   0.504   2.070 -0.4027  0.0382 -0.3321
  413SOL    HW1 1238   1.911   0.472   1.986  1.9166 -0.5020  1.1268
  413SOL    HW2 1239   1.909   0.476   2.154  1.5400  0.4332 -4.2095
  414SOL     OW 1240   3.069   0.450   0.591 -0.4070 -0.0903  0.3689
  414SOL    HW1 1241   0.039   0.506   0.655 -0.3024  0.5595  1.0649
  414SOL    HW2 1242   0.026   0.373   0.548  1.3684  0.5291 -2.1912
  415SOL     OW 1243   0.322   1.744   1.180  0.0114  0.8413  0.0783
  415SOL    HW1 1244   0.311   1.684   1.260  0.1344  0.3047 -0.4961
  415SOL    HW2 1245   0.343   1.694   1.094  0.0019  0.9935  1.1386
  416SOL     OW 1246   0.182   2.846   3.015  0.7696  0.0185  0.1974
  416SOL    HW1 1247   0.202   2.945   3.030 -2.1215 -1.3530 -0.3846
  416SOL    HW2 1248   0.270   2.800   2.999 -1.2771 -0.0563 -1.8979
  417SOL     OW 1249   2.559   2.940   1.008 -0.3892 -0.1439  0.1012
  417SOL    HW1 1250   2.485   2.941   1.081  0.7671  0.2588  0.5159
  417SOL    HW2 1251   2.622   3.020   1.006  3.0302  1.8783 -1.6221
  418SOL     OW 1252   0.561   0.257   2.515 -0.7633  0.3031  0.2186
  418SOL    HW1 1253   0.660   0.262   2.526 -0.6699 -1.0670 -2.8009
  418SOL    HW2 1254   0.513   0.247   2.602 -1.0967 -0.2898  0.5655
  419SOL     OW 1255   0.498   1.038   0.728 -0.4561  0.1108 -0.1855
  419SOL    HW1 1256   0.475   0.973   0.654  2.1302  1.7174  1.8246
  419SOL    HW2 1257   0.409   1.067   0.767  0.7467 -0.8277  3.3580
  420SOL     OW 1258   1.838   2.016   0.841  0.5983  0.5736  0.1487
  420SOL    HW1 1259   1.861   2.004   0.740  2.5856 -0.2654 -0.8507
  420SOL    HW2 1260   1.903   1.960   0.891 -0.9382  0.6731 -1.9050
  421SOL     OW 1261   1.836   1.988   2.374  0.1793  0.2573 -0.0629
  421SOL    HW1 1262   1.809   1.906   2.315  0.7921 -0.9537  0.1027
  421SOL    HW2 1263   1.751   2.014   2.424  0.5583  2.1078 -0.5846
  422SOL     OW 1264   2.950   0.456   3.072 -0.0897  0.2073 -0.3535
  422SOL    HW1 1265   3.019   0.510   3.019 -1.4840 -0.5774  0.1734
  422SOL    HW2 1266   2.918   0.520   0.053 -1.9670  0.7524  0.9160
  423SOL     OW 1267   1.404   1.752   0.866  0.1011 -0.3422 -0.2429
  423SOL    HW1 1268   1.443   1.818   0.931 -0.7665 -1.2566  0.2925
  423SOL    HW2 1269   1.470   1.695   0.816 -0.4140  3.6431 -1.4665
  424SOL     OW 1270   0.344   1.584   1.504 -0.3144  0.2926 -0.2556
  424SOL    HW1 1271   0.350   1.536   1.592 -0.5674 -0.8451  1.0507
  424SOL    HW2 1272   0.415   1.651   1.505 -1.1787  0.2658 -1.0423
  425SOL     OW 1273   2.614   2.793   1.952  0.6658 -0.1095 -0.1357
  425SOL    HW1 1274   2.659   2.766   1.867 -0.5562  3.6104  0.6839
  425SOL    HW2 1275   2.673   2.791   2.033 -3.5251 -0.9783 -0.3514
  426SOL     OW 1276   1.897   2.798   0.565 -0.5139 -0.1427 -0.0658
  426SOL    HW1 1277   1.940   2.708   0.577  0.2726  0.1659 -1.6044
  426SOL    HW2 1278   1.965   2.874   0.576  0.5275 -0.0898 -0.9003
  427SOL     OW 1279   0.497   0.856   2.909 -0.1514  0.3951  0.1391
  427SOL    HW1 1280   0.511   0.934   2.847  1.0910  0.2595  1.0446
  427SOL    HW2 1281   0.436   0.873   2.989 -0.0139 -0.1753 -1.7104
  428SOL     OW 1282   2.020   1.254   0.191  0.6274 -0.0838 -0.8893
  428SOL    HW1 1283   1.949   1.183   0.185 -0.2847  1.0551  0.1543
  428SOL    HW2 1284   2.038   1.298   0.101  0.3015 -0.5246 -2.4421
  429SOL     OW 1285   2.924   0.059   0.302 -0.1184  0.1663  0.2924
  429SOL    HW1 1286   2.869   3.078   0.350  0.0278  1.1582 -0.8881
  429SOL    HW2 1287   2.979   0.119   0.364  2.8328  0.6610 -0.8975
  430SOL     OW 1288   0.878   0.015   2.075 -1.0898 -0.3283  0.7210
  430SOL    HW1 1289   0.791   0.063   2.057 -1.0077 -0.7526  1.3260
  430SOL    HW2 1290   0.887   3.019   2.014  0.6986 -1.9302 -1.4674
  431SOL     OW 1291   2.925   1.296   1.422  0.5950  0.1606 -0.3431
  431SOL    HW1 1292   2.897   1.391   1.395  0.8012  0.4772 -2.7201
  431SOL    HW2 1293   3.019   1.306   1.456  0.5295  0.1918 -0.4197
  432SOL     OW 1294   2.156   2.667   1.773 -0.0772  0.8113  0.1791
  432SOL    HW1 1295   2.255   2.689   1.776  0.9816 -0.8648  1.9556
  432SOL    HW2 1296   2.123   2.617   1.861 -3.7262 -2.8036 -0.4095
  433SOL     OW 1297   1.120   1.712   0.070  0.3041  0.0987  0.3879
  433SOL    HW1 1298   1.030   1.694   0.117 -2.5990  1.2207 -0.3093
  433SOL    HW2 1299   1.117   1.658   3.074 -3.2584 -0.5134  2.3992
  434SOL     OW 1300   0.194   2.159   2.526 -0.0793  0.0552  0.4916
  434SOL    HW1 1301   0.280   2.179   2.471  1.3293 -0.4267 -1.4341
  434SOL    HW2 1302   0.161   2.247   2.569 -1.2177 -0.6302  0.7007
  435SOL     OW 1303   0.299   0.649   0.540 -0.2260 -0.2145 -0.7423
  435SOL    HW1 1304   0.369   0.578   0.531  0.3459  2.5540 -0.0008
  435SOL    HW2 1305   0.357   0.736   0.534  0.6465 -3.5632 -1.5447
  436SOL     OW 1306   0.306   2.757   1.857 -0.6890 -0.2316 -0.6707
  436SOL    HW1 1307   0.364   2.675   1.841 -1.5373 -0.2977  0.0837
  436SOL    HW2 1308   0.269   2.790   1.772  1.3129 -0.8237  2.3897
  437SOL     OW 1309   0.996   2.058   1.475 -0.0630 -0.3658  0.1163
  437SOL    HW1 1310   1.018   2.090   1.570  0.5428  0.5435  1.9324
  437SOL    HW2 1311   1.026   2.137   1.414  0.8069 -0.6449 -0.3591
  438SOL     OW 1312   0.095   2.065   0.726  0.3329 -0.1389  0.0126
  438SOL    HW1 1313   0.131   2.049   0.822  1.1302 -0.1337 -1.2060
  438SOL    HW2 1314   0.126   2.157   0.690  0.9921  0.2236  0.9002
  439SOL     OW 1315   0.245   0.450   1.112 -0.0936  0.1680  0.6673
  439SOL    HW1 1316   0.208   0.451   1.203  1.6092 -0.9055 -0.9600
  439SOL    HW2 1317   0.317   0.523   1.110 -0.2280 -1.0419 -1.6092
  440SOL     OW 1318   2.776   2.740   2.212  0.1494  0.4024  0.0249
  440SOL    HW1 1319   2.818   2.834   2.218  1.8592  1.6951  0.3895
  440SOL    HW2 1320   2.849   2.670   2.218  1.8243 -1.8138  1.6182
  441SOL     OW 1321   3.001   0.762   1.795  1.1265  0.3768  0.0925
  441SOL    HW1 1322   2.911   0.721   1.822 -1.7829  0.5990 -2.2710
  441SOL    HW2 1323   3.028   0.851   1.839 -1.9234 -0.0927 -3.1622
  442SOL     OW 1324   1.815   2.378   3.038  0.6787  0.4348 -0.0702
  442SOL    HW1 1325   1.767   2.295   3.000  0.6792 -0.2225  0.0706
  442SOL    HW2 1326   1.845   2.355   0.043 -1.7573  0.0974 -0.1704
  443SOL     OW 1327   0.455   0.819   0.116  0.4833 -0.6036 -0.6210
  443SOL    HW1 1328   0.394   0.757   0.058  0.7348  0.9541 -3.2647
  443SOL    HW2 1329   0.527   0.763   0.157 -0.8562 -1.3331 -2.4685
  444SOL     OW 1330   1.370   1.572   2.025  0.2108  0.3788 -0.3539
  444SOL    HW1 1331   1.435   1.574   1.940 -1.4836 -2.0954  0.6300
  444SOL    HW2 1332   1.300   1.504   2.000  1.0833  1.2254  0.7517
  445SOL     OW 1333   0.101   2.889   0.986 -0.5701  0.0014  0.0918
  445SOL    HW1 1334   0.089   2.809   0.923  2.0316 -2.2133  0.5376
  445SOL    HW2 1335   0.007   2.937   0.994 -3.7291  1.6744 -0.5084
  446SOL     OW 1336   2.152   1.095   1.388  0.6588  0.4404 -0.1506
  446SOL    HW1 1337   2.078   1.069   1.324  2.0596 -1.8517 -2.8776
  446SOL    HW2 1338   2.184   1.185   1.358 -2.6025 -1.2912 -0.5923
  447SOL     OW 1339   0.320   0.574   0.036  0.1598 -0.1454  0.4095
  447SOL    HW1 1340   0.238   0.553   0.086  2.7179  0.3912  1.8806
  447SOL    HW2 1341   0.306   0.548   3.030  1.0415  0.0394  1.0633
  448SOL     OW 1342   1.310   2.370   1.800  0.4527 -0.3872  0.3640
  448SOL    HW1 1343   1.401   2.357   1.751 -0.2714  0.7142 -1.5402
  448SOL    HW2 1344   1.313   2.364   1.903 -1.7888  0.1902  0.8714
  449SOL     OW 1345   1.334   1.510   0.535  0.1076  0.6956 -0.3679
  449SOL    HW1 1346   1.385   1.451   0.599 -1.3155  0.0631 -0.4988
  449SOL    HW2 1347   1.400   1.552   0.467  2.0092  0.4368 -1.4163
  450SOL     OW 1348   2.451   1.877   1.937 -0.3313  0.7085 -0.0982
  450SOL    HW1 1349   2.463   1.922   2.028 -1.7707  1.4998  0.8486
  450SOL    HW2 1350   2.469   1.775   1.941 -0.4829  0.0658  0.5285
  451SOL     OW 1351   2.989   1.364   2.662  0.0675 -0.4545 -0.8784
  451SOL    HW1 1352   3.016   1.346   2.764  0.8570  1.8782  2.4954
  451SOL    HW2 1353   2.981   1.273   2.612  2.3329 -1.1853  0.1531
  452SOL     OW 1354   1.504   0.969   1.163 -0.0968 -0.3105 -0.0799
  452SOL    HW1 1355   1.415   1.016   1.133  2.1074  0.5544 -0.2783
  452SOL    HW2 1356   1.588   1.007   1.123 -0.9314 -0.8289 -0.9445
  453SOL     OW 1357   2.011   0.915   0.994  0.3173  0.5621  0.2916
  453SOL    HW1 1358   2.059   0.870   1.073  1.7749  0.6943  3.8647
  453SOL    HW2 1359   2.017   1.019   0.985 -1.3596  1.6984 -0.0786
  454SOL     OW 1360   3.007   0.861   0.548  0.1014 -0.0741 -0.5963
  454SOL    HW1 1361   2.904   0.854   0.551 -0.4672  1.9009 -0.1926
  454SOL    HW2 1362   3.032   0.952   0.510  0.2635  1.5089  0.9001
  455SOL     OW 1363   2.855   2.537   1.028 -0.6684 -0.2468  1.0054
  455SOL    HW1 1364   2.836   2.640   1.032  0.4152 -0.3560 -0.9424
  455SOL    HW2 1365   2.775   2.481   1.066 -2.3928 -1.6834  2.7329
  456SOL     OW 1366   0.800   0.016   1.182  0.1685 -0.3072 -0.7124
  456SOL    HW1 1367   0.783   3.006   1.189  0.4417 -0.8596  0.3562
  456SOL    HW2 1368   0.832   0.051   1.271  1.7368  1.4835  1.4514
  457SOL     OW 1369   1.728   2.879   0.877 -0.1709  0.2822 -0.1235
  457SOL    HW1 1370   1.676   2.887   0.965  0.6586 -0.7490  2.1100
  457SOL    HW2 1371   1.680   2.822   0.806 -0.5618 -0.4951 -2.6165
  458SOL     OW 1372   2.628   0.213   0.818 -0.0288  0.2765 -0.0673
  458SOL    HW1 1373   2.638   0.168   0.910 -0.5339  0.1060  0.0252
  458SOL    HW2 1374   2.656   0.313   0.828 -0.1946 -0.1625 -0.2836
  459SOL     OW 1375   1.900   0.809   3.026  0.2003  0.9766  0.4368
  459SOL    HW1 1376   1.990   0.843   3.057  0.4355 -0.8126  2.1422
  459SOL    HW2 1377   1.904   0.708   3.008  0.3246 -3.1770 -0.2887
  460SOL     OW 1378   2.874   2.308   2.939  0.4834  0.1064  0.0931
  460SOL    HW1 1379   2.854   2.397   2.985  0.2967 -1.3149  2.5134
  460SOL    HW2 1380   2.900   2.242   3.009 -0.3120  3.5512 -1.4870
  461SOL     OW 1381   0.623   1.617   0.415  0.1265  0.0646 -0.1823
  461SOL    HW1 1382   0.669   1.705   0.439  1.8944  1.4845 -0.4044
  461SOL    HW2 1383   0.681   1.560   0.358 -1.7653  1.5829 -1.2186
  462SOL     OW 1384   2.581   2.482   0.647  0.7278 -0.0162  0.1089
  462SOL    HW1 1385   2.684   2.472   0.640 -2.3044  1.9881 -0.6720
  462SOL    HW2 1386   2.543   2.547   0.577 -3.5019 -2.0173  1.6973
  463SOL     OW 1387   2.790   0.570   0.650 -0.6334 -0.4002  0.0790
  463SOL    HW1 1388   2.753   0.519   0.727  1.5980  3.5234 -2.0404
  463SOL    HW2 1389   2.889   0.551   0.637  1.1087 -0.4411  0.0588
  464SOL     OW 1390   1.081   2.757   0.271 -0.0524 -0.0089 -0.6805
  464SOL    HW1 1391   1.043   2.777   0.178 -1.4726  0.6974 -0.3253
  464SOL    HW2 1392   1.008   2.747   0.342 -0.6139 -1.1615 -1.2329
  465SOL     OW 1393   2.428   0.706   0.491  0.8610 -0.1702  0.3270
  465SOL    HW1 1394   2.370   0.664   0.565  2.1786 -1.6422  2.0097
  465SOL    HW2 1395   2.387   0.794   0.454 -1.9265  2.0101 -1.8277
  466SOL     OW 1396   2.432   2.858   0.107 -0.0835  0.9301  0.4633
  466SOL    HW1 1397   2.392   2.931   0.052  0.0858  0.0337  0.6911
  466SOL    HW2 1398   2.389   2.766   0.081 -1.0465  1.2173 -3.3005
  467SOL     OW 1399   1.032   0.552   1.778 -0.6045  0.1038  0.8424
  467SOL    HW1 1400   1.006   0.646   1.809 -0.1927  1.7336  4.4185
  467SOL    HW2 1401   1.137   0.546   1.767  1.7229 -0.6626  3.3494
  468SOL     OW 1402   0.226   0.503   2.437 -0.7442  0.3000  0.3323
  468SOL    HW1 1403   0.211   0.576   2.507  1.0436  0.3186 -0.3419
  468SOL    HW2 1404   0.184   0.531   2.351  2.6959 -1.7450  0.5410
  469SOL     OW 1405   0.646   2.974   2.665  0.7518  0.2797 -0.1907
  469SOL    HW1 1406   0.580   2.898   2.646 -0.8293  1.4332  0.8859
  469SOL    HW2 1407   0.722   2.964   2.595 -1.5421 -2.0540  0.5631
  470SOL     OW 1408   1.651   1.424   2.176 -0.6793 -0.3889 -0.3803
  470SOL    HW1 1409   1.605   1.505   2.132 -1.5797 -0.0391 -1.3293
  470SOL    HW2 1410   1.747   1.412   2.141  0.6369 -0.6908 -1.2349
  471SOL     OW 1411   2.746   1.096   2.627  0.4542  0.0924 -0.1409
  471SOL    HW1 1412   2.702   1.184   2.602  1.3059 -0.9728  0.5447
  471SOL    HW2 1413   2.685   1.052   2.704 -2.9850 -2.3868  2.9904
  472SOL     OW 1414   0.438   2.491   0.205  0.1949 -0.2099  0.2921
  472SOL    HW1 1415   0.337   2.508   0.212  1.4972 -2.4697 -2.1412
  472SOL    HW2 1416   0.473   2.431   0.279  1.4438 -0.0012 -0.9259
  473SOL     OW 1417   0.705   0.009   2.886 -0.2713 -0.1465  0.0885
  473SOL    HW1 1418   0.670   3.041   2.806 -0.1132  1.3082 -0.7215
  473SOL    HW2 1419   0.628   0.018   2.954 -0.4049  0.2931  0.6727
  474SOL     OW 1420   1.668   0.382   2.119 -0.0837  0.0381  0.1445
  474SOL    HW1 1421   1.611   0.393   2.038  1.2921  0.3245  1.0643
  474SOL    HW2 1422   1.652   0.289   2.160 -1.9907  3.7381  0.1228
  475SOL     OW 1423   0.745   2.754   0.161  0.3090 -0.2871 -0.1068
  475SOL    HW1 1424   0.747   2.797   0.256 -2.0560  1.1506  2.2212
  475SOL    HW2 1425   0.834   2.782   0.118  2.5009  0.9291  2.4915
  476SOL     OW 1426   0.142   0.872   1.099 -0.1926  0.0985 -0.0833
  476SOL    HW1 1427   0.166   0.954   1.148 -3.6414 -1.3002 -4.7432
  476SOL    HW2 1428   0.224   0.818   1.076  1.2166 -1.0705  1.0730
  477SOL     OW 1429   1.577   2.075   1.206 -0.8775 -0.2439  0.0636
  477SOL    HW1 1430   1.665   2.124   1.208  0.6920  0.2343 -1.0152
  477SOL    HW2 1431   1.541   2.050   1.300  0.1242 -0.1631  1.9140
  478SOL     OW 1432   0.866   1.363   2.090  0.2428 -0.5040  0.9782
  478SOL    HW1 1433   0.836   1.268   2.078  2.0748  0.6274 -1.8646
  478SOL    HW2 1434   0.802   1.413   2.150 -0.7952  0.7273  0.0793
  479SOL     OW 1435   0.701   0.268   1.120  0.2683 -0.9681 -0.1198
  479SOL    HW1 1436   0.687   0.272   1.220 -0.1544 -0.9927 -2.0555
  479SOL    HW2 1437   0.713   0.169   1.099  1.0661  0.8569  0.5173
  480SOL     OW 1438   2.474   2.371   0.264  0.0988  0.2737  0.8990
  480SOL    HW1 1439   2.511   2.335   0.355 -0.7576  0.7782 -0.0764
  480SOL    HW2 1440   2.496   2.308   0.185  0.9333 -1.3531  1.3827
  481SOL     OW 1441   2.810   0.299   1.190 -0.2493 -0.5651 -0.3381
  481SOL    HW1 1442   2.821   0.379   1.125  1.6035 -0.7865  1.6999
  481SOL    HW2 1443   2.881   0.298   1.259 -2.6793 -2.1383  0.0078
  482SOL     OW 1444   1.569   2.513   1.939 -0.5562 -0.0404 -0.3866
  482SOL    HW1 1445   1.517   2.585   1.981  0.3167 -2.5877 -2.0509
  482SOL    HW2 1446   1.621   2.543   1.856 -1.1269 -0.5387  0.4660
  483SOL     OW 1447   0.459   1.457   2.700  0.0066 -0.5733  0.1266
  483SOL    HW1 1448   0.485   1.360   2.705 -0.3453  0.2611  0.8616
  483SOL    HW2 1449   0.425   1.481   2.609  0.6174  1.6717  0.3675
  484SOL     OW 1450   1.039   1.667   2.028 -0.2665 -0.5021  0.0225
  484SOL    HW1 1451   1.100   1.588   2.011 -0.5243  0.0380 -2.1945
  484SOL    HW2 1452   0.966   1.664   1.956  0.6068 -0.8931 -0.0164
  485SOL     OW 1453   2.819   0.226   2.961 -0.7164  0.0136 -0.5168
  485SOL    HW1 1454   2.865   0.310   2.990  2.4187 -2.4712  1.0306
  485SOL    HW2 1455   2.833   0.143   3.018  0.1820 -0.7957 -0.1942
  486SOL     OW 1456   1.439   2.949   0.790 -0.4245 -0.1611  0.7621
  486SOL    HW1 1457   1.482   3.001   0.710 -1.4794 -0.6920 -1.3596
  486SOL    HW2 1458   1.412   2.862   0.746  1.1234  0.4418  0.1121
  487SOL     OW 1459   1.137   2.470   0.898  0.9335 -0.0695  0.5063
  487SOL    HW1 1460   1.174   2.378   0.887  0.4562  2.3594  0.4631
  487SOL    HW2 1461   1.036   2.469   0.908 -0.0309  2.7108 -1.0570
  488SOL     OW 1462   2.333   0.944   0.377 -0.1431  0.3140 -0.2929
  488SOL    HW1 1463   2.330   1.035   0.328 -1.7099  0.5787 -1.7850
  488SOL    HW2 1464   2.321   0.873   0.302  1.3665  1.1942  1.3977
  489SOL     OW 1465   1.081   2.837   1.305 -0.2821 -0.1116 -0.2866
  489SOL    HW1 1466   1.145   2.760   1.320  1.4126  0.5333  1.5729
  489SOL    HW2 1467   1.097   2.909   1.377  2.3023 -2.3171 -0.3706
  490SOL     OW 1468   1.050   0.902   0.303 -0.4508 -0.3080 -0.6017
  490SOL    HW1 1469   1.057   0.823   0.368 -1.8926 -0.1281  0.7843
  490SOL    HW2 1470   1.038   0.867   0.209  0.2778 -0.1097 -0.2541
  491SOL     OW 1471   1.307   2.904   0.372  0.4865 -0.4008  0.1475
  491SOL    HW1 1472   1.258   2.934   0.455  1.5554  0.9333  0.5576
  491SOL    HW2 1473   1.262   2.827   0.323  1.0229 -2.2141 -0.9874
  492SOL     OW 1474   1.260   1.190   2.153  0.2281  0.2274 -0.3056
  492SOL    HW1 1475   1.235   1.190   2.057 -3.1234  1.2468 -0.3283
  492SOL    HW2 1476   1.180   1.142   2.209 -0.9811 -1.9416 -0.4671
  493SOL     OW 1477   0.200   2.070   0.207  0.2209 -0.0189 -0.0131
  493SOL    HW1 1478   0.185   1.973   0.234 -2.0406 -1.6534 -0.7349
  493SOL    HW2 1479   0.301   2.077   0.182 -0.8074  1.3346  0.4818
  494SOL     OW 1480   2.089   1.471   0.345 -0.1330 -0.0984 -0.2258
  494SOL    HW1 1481   2.120   1.539   0.275  0.1025 -0.2146 -1.5017
  494SOL    HW2 1482   2.043   1.391   0.305  0.0993  2.3571 -1.3581
  495SOL     OW 1483   0.034   0.927   2.886 -0.5154  0.2130  0.1918
  495SOL    HW1 1484   0.023   0.839   2.832 -0.4581  0.3280  0.3870
  495SOL    HW2 1485   3.036   0.969   2.904 -0.2935  0.8168 -0.5343
  496SOL     OW 1486   2.948   2.979   2.227  0.3199 -0.0878 -0.2304
  496SOL    HW1 1487   3.052   3.002   2.210 -0.7659 -0.8142  1.0035
  496SOL    HW2 1488   2.891   3.068   2.223  0.5062  3.6213 -1.1082
  497SOL     OW 1489   2.601   0.923   0.811  0.0791 -0.3037  0.1745
  497SOL    HW1 1490   2.548   0.842   0.847 -0.7007  2.0560  0.3697
  497SOL    HW2 1491   2.638   0.903   0.718  0.8900  0.9154  2.6042
  498SOL     OW 1492   0.391   2.227   3.073 -0.5974 -0.0154  0.2557
  498SOL    HW1 1493   0.429   2.140   0.025  2.4370 -1.4818 -0.4191
  498SOL    HW2 1494   0.401   2.308   0.047 -2.7980  0.0571  1.7210
  499SOL     OW 1495   0.745   2.340   0.747  0.0847 -0.0148 -0.0198
  499SOL    HW1 1496   0.739   2.358   0.847  0.5141 -1.0582 -3.2622
  499SOL    HW2 1497   0.826   2.281   0.724  0.5493  0.0209  2.4274
  500SOL     OW 1498   0.830   0.253   2.507 -0.1469 -0.5027 -0.1041
  500SOL    HW1 1499   0.927   0.218   2.524  1.6275 -0.4351  2.1291
  500SOL    HW2 1500   0.803   0.271   2.409 -0.8468 -1.0443 -3.9060
  501SOL     OW 1501   0.933   0.087   1.465  0.3860 -0.1888 -0.0481
  501SOL    HW1 1502   0.988   0.007   1.494  1.5653  0.5240 -2.5790
  501SOL    HW2 1503   0.976   0.180   1.467 -2.4951 -1.8758 -1.5452
  502SOL     OW 1504   3.080   0.380   2.052 -1.1440  0.1415  0.4931
  502SOL    HW1 1505   0.032   0.287   2.043 -1.3876 -3.2638  0.1135
  502SOL    HW2 1506   0.044   0.435   2.120  1.1500  0.7215 -0.4478
  503SOL     OW 1507   1.931   2.245   2.309  0.3987  0.3747 -0.0776
  503SOL    HW1 1508   1.847   2.301   2.326  0.3690 -1.1740 -0.4889
  503SOL    HW2 1509   1.910   2.146   2.321  0.7181  1.5828 -0.1960
  504SOL     OW 1510   1.861   0.518   1.818 -0.3838 -0.3834 -0.2608
  504SOL    HW1 1511   1.790   0.587   1.840 -1.1527 -1.4170 -1.5057
  504SOL    HW2 1512   1.924   0.564   1.746  1.3440  2.0371  0.6602
  505SOL     OW 1513   2.715   1.072   1.775  0.2020  0.4343  0.4280
  505SOL    HW1 1514   2.813   1.082   1.752  0.8644 -0.1249 -1.0675
  505SOL    HW2 1515   2.662   1.040   1.693 -0.3428  1.5523 -0.3579
  506SOL     OW 1516   0.372   1.359   2.421  0.1784 -0.6110  0.7465
  506SOL    HW1 1517   0.277   1.333   2.454 -1.4792  0.0191 -0.6235
  506SOL    HW2 1518   0.371   1.426   2.343 -0.9933  0.4692 -2.0511
  507SOL     OW 1519   0.336   3.004   2.315  0.6745 -0.1962 -0.3652
  507SOL    HW1 1520   0.409   3.053   2.261  1.3291  0.3371 -2.7652
  507SOL    HW2 1521   0.370   2.908   2.321 -0.8713 -1.8239 -3.1589
  508SOL     OW 1522   1.332   0.816   1.491  0.5338  0.8507  0.0943
  508SOL    HW1 1523   1.287   0.898   1.457 -0.1823  0.0297  1.7508
  508SOL    HW2 1524   1.415   0.850   1.539  0.6132 -0.2807  1.6880
  509SOL     OW 1525   1.009   1.814   1.385 -0.1724 -0.2251  0.0805
  509SOL    HW1 1526   1.005   1.914   1.419  0.6632  0.8610 -0.9426
  509SOL    HW2 1527   0.914   1.785   1.360  1.7795  2.9254  0.3856
  510SOL     OW 1528   2.511   0.792   2.545  0.1121  0.2159  0.3060
  510SOL    HW1 1529   2.569   0.752   2.614 -3.6890 -1.0680  0.4680
  510SOL    HW2 1530   2.434   0.729   2.511 -0.6643 -0.9889 -1.7660
  511SOL     OW 1531   0.485   1.423   1.312  0.3726  0.2706  0.3493
  511SOL    HW1 1532   0.423   1.466   1.377  2.2775 -1.3100 -1.2724
  511SOL    HW2 1533   0.437   1.391   1.225  2.6209  1.4051 -2.0711
  512SOL     OW 1534   2.939   2.342   0.820  0.1193  0.1373  0.3350
  512SOL    HW1 1535   2.887   2.257   0.838 -0.2840 -1.2000  0.4526
  512SOL    HW2 1536   2.903   2.410   0.887 -1.8702  0.9502 -0.8181
  513SOL     OW 1537   0.431   1.417   3.012 -0.0139  0.1695 -0.4084
  513SOL    HW1 1538   0.433   1.316   3.034  1.7081  0.2671  3.6109
  513SOL    HW2 1539   0.417   1.440   2.915  1.2420  0.2317  1.8333
  514SOL     OW 1540   0.132   2.493   3.068  0.1578 -0.0878 -0.4968
  514SOL    HW1 1541   0.032   2.511   3.045 -1.0224  1.0433  2.2897
  514SOL    HW2 1542   0.158   2.395   3.049 -0.4063  0.1873 -0.8279
  515SOL     OW 1543   1.649   0.983   2.345 -0.0659  0.6310 -0.2259
  515SOL    HW1 1544   1.592   1.058   2.301 -2.0729  3.7956 -0.3135
  515SOL    HW2 1545   1.608   0.962   2.435  0.5788  3.0728 -2.2436
  516SOL     OW 1546   2.355   2.162   0.703  0.0043  0.1256  0.1350
  516SOL    HW1 1547   2.424   2.163   0.774 -0.6600 -0.8674 -1.3601
  516SOL    HW2 1548   2.398   2.143   0.608  2.0682 -2.6351 -2.1807
  517SOL     OW 1549   1.589   1.177   0.444  0.0815 -0.0522  0.3461
  517SOL    HW1 1550   1.527   1.137   0.515 -3.1149  0.6019  0.9366
  517SOL    HW2 1551   1.662   1.226   0.492 -1.1464 -2.0872  0.3527
  518SOL     OW 1552   2.341   2.558   2.263 -0.5091 -0.4107  1.0426
  518SOL    HW1 1553   2.250   2.589   2.236 -1.3886  2.0564 -1.4283
  518SOL    HW2 1554   2.339   2.551   2.363  0.8800  1.9748 -1.1355
  519SOL     OW 1555   1.799   2.256   1.190 -0.3941 -0.6122  0.6954
  519SOL    HW1 1556   1.899   2.288   1.193  4.7159  1.8814 -0.6341
  519SOL    HW2 1557   1.743   2.292   1.268 -1.2907 -0.4690 -2.2332
  520SOL     OW 1558   2.497   2.353   2.727  0.0645  0.4474  0.0005
  520SOL    HW1 1559   2.564   2.388   2.660 -0.6599 -1.2331 -1.4701
  520SOL    HW2 1560   2.405   2.345   2.687  1.1955  0.7166  0.0086
  521SOL     OW 1561   0.305   1.441   2.004 -0.2765 -0.7967  0.1241
  521SOL    HW1 1562   0.343   1.466   1.910 -1.2541 -0.1113  0.7344
  521SOL    HW2 1563   0.199   1.443   2.012 -1.5746  1.7000  1.7606
  522SOL     OW 1564   1.110   0.413   1.998 -0.1859 -0.5246  0.5215
  522SOL    HW1 1565   1.059   0.448   1.915 -0.8944  0.3459 -0.2324
  522SOL    HW2 1566   1.106   0.313   2.001  0.5882 -1.5772 -0.4796
  523SOL     OW 1567   0.477   2.371   1.066 -0.2894 -0.5066 -0.4985
  523SOL    HW1 1568   0.479   2.274   1.048  1.3950  1.7493  2.4314
  523SOL    HW2 1569   0.418   2.414   0.995  1.1528  1.9718  0.9996
  524SOL     OW 1570   1.421   2.675   0.730  0.2310  0.3608 -0.0723
  524SOL    HW1 1571   1.503   2.673   0.667  1.0235 -2.4110  0.1247
  524SOL    HW2 1572   1.439   2.615   0.810  0.8224 -1.8149 -1.7700
  525SOL     OW 1573   2.353   0.888   1.420 -0.0037  0.0035  0.1662
  525SOL    HW1 1574   2.278   0.957   1.411  2.0932  1.7321  1.7262
  525SOL    HW2 1575   2.428   0.923   1.478 -1.7732  0.9838 -3.1606
  526SOL     OW 1576   0.846   2.708   0.798 -0.0299  0.2926 -0.4670
  526SOL    HW1 1577   0.803   2.682   0.708 -1.6601  0.4139 -0.0415
  526SOL    HW2 1578   0.937   2.754   0.787 -1.5206  0.6624 -0.5436
  527SOL     OW 1579   2.853   2.108   0.523 -0.1685  0.9037  0.0590
  527SOL    HW1 1580   2.814   2.120   0.617  0.7367 -1.3602  2.0303
  527SOL    HW2 1581   2.945   2.062   0.535  0.2275 -1.1847  2.4073
  528SOL     OW 1582   1.920   0.189   0.298 -0.5129 -0.2625 -0.2417
  528SOL    HW1 1583   1.992   0.134   0.252  1.8217  0.1431  0.8733
  528SOL    HW2 1584   1.902   0.149   0.389 -2.4831  0.8271 -1.6952
  529SOL     OW 1585   1.523   1.673   2.217  0.5206 -0.5120  0.6405
  529SOL    HW1 1586   1.484   1.644   2.308  1.9962  0.5493  2.6634
  529SOL    HW2 1587   1.461   1.640   2.143  0.8279 -0.1085 -0.3683
  530SOL     OW 1588   2.481   0.485   2.932 -0.0563 -0.1332 -0.1953
  530SOL    HW1 1589   2.524   0.410   2.877  1.6174 -0.8953  1.1094
  530SOL    HW2 1590   2.524   0.578   2.911  1.7273  2.8581  0.1616
  531SOL     OW 1591   1.360   1.105   3.026  0.2122 -0.2295  0.3929
  531SOL    HW1 1592   1.309   1.160   0.005 -2.2298 -1.7095 -3.0645
  531SOL    HW2 1593   1.302   1.022   3.000 -2.0231 -0.6796 -1.4172
  532SOL     OW 1594   1.697   0.370   0.983 -0.4608  0.2323  0.5730
  532SOL    HW1 1595   1.641   0.424   1.051  1.1243  0.4452  1.7901
  532SOL    HW2 1596   1.696   0.415   0.890  1.1815 -0.5791  1.5763
  533SOL     OW 1597   0.977   0.996   2.055  0.0143 -0.0641 -0.6786
  533SOL    HW1 1598   1.029   1.019   2.141  1.0588  0.0243  1.3949
  533SOL    HW2 1599   1.031   0.929   1.999  1.7574  2.0580  1.6632
  534SOL     OW 1600   1.589   0.367   2.538 -0.5197  0.0828  0.0510
  534SOL    HW1 1601   1.629   0.453   2.497 -2.5116  1.1490  0.8681
  534SOL    HW2 1602   1.618   0.353   2.633 -1.0568  1.4286  1.4283
  535SOL     OW 1603   0.441   0.521   0.339 -0.7066  0.1659 -0.4761
  535SOL    HW1 1604   0.357   0.511   0.283 -0.9646  1.5904  0.7647
  535SOL    HW2 1605   0.491   0.428   0.341  0.1657 -0.0937  1.0137
  536SOL     OW 1606   1.013   3.077   0.431  0.3749 -0.0491  0.4462
  536SOL    HW1 1607   1.059   0.064   0.379  1.5058  1.5445 -1.7844
  536SOL    HW2 1608   1.060   3.036   0.514  0.3488 -1.7061  1.0032
  537SOL     OW 1609   1.660   1.172   0.814  0.6046  0.0951 -0.2370
  537SOL    HW1 1610   1.701   1.154   0.905 -0.5844 -0.0967 -0.4968
  537SOL    HW2 1611   1.704   1.118   0.740 -1.7296 -1.1073  2.9516
  538SOL     OW 1612   3.000   2.108   0.023 -0.1048 -0.2913 -0.3657
  538SOL    HW1 1613   3.008   2.011   0.056  0.7938 -0.7389  2.1829
  538SOL    HW2 1614   0.004   2.143   3.083  2.4425  2.9793 -1.6891
  539SOL     OW 1615   2.406   1.690   0.254 -0.0290 -0.5775  0.0072
  539SOL    HW1 1616   2.463   1.747   0.190  1.1854 -1.1890  2.2086
  539SOL    HW2 1617   2.466   1.632   0.313 -0.7629  1.8620 -3.8994
  540SOL     OW 1618   0.436   2.731   1.465 -0.3226 -0.4776 -0.0946
  540SOL    HW1 1619   0.420   2.665   1.392  1.2382  2.4284  4.2373
  540SOL    HW2 1620   0.355   2.774   1.500 -1.1120 -2.5488 -0.9542
  541SOL     OW 1621   1.982   0.025   2.241 -0.4056 -0.3864 -0.5368
  541SOL    HW1 1622   2.059   3.052   2.269 -1.6018 -2.4094 -0.9919
  541SOL    HW2 1623   1.893   3.064   2.237 -3.7350  0.5770  0.0133
  542SOL     OW 1624   2.699   0.269   2.582 -0.1051 -0.2998 -0.5472
  542SOL    HW1 1625   2.794   0.259   2.618  0.0543 -0.1840 -0.9343
  542SOL    HW2 1626   2.688   0.355   2.531 -2.0532 -0.0458 -0.5412
  543SOL     OW 1627   0.328   0.704   0.977  0.1717 -0.6378  0.0332
  543SOL    HW1 1628   0.426   0.678   0.959  2.3447 -0.3275 -1.3717
  543SOL    HW2 1629   0.266   0.690   0.896  0.0388  1.9392 -0.4455
  544SOL     OW 1630   2.879   3.086   1.369 -0.0073 -0.3562 -0.2101
  544SOL    HW1 1631   2.906   3.046   1.278 -0.0163  1.3321 -2.1099
  544SOL    HW2 1632   2.868   3.015   1.440  0.7958 -1.5221  1.0576
  545SOL     OW 1633   1.517   2.099   0.733  0.0602  0.0596  0.4353
  545SOL    HW1 1634   1.528   2.077   0.632  1.7008 -0.3297 -3.5372
  545SOL    HW2 1635   1.536   2.022   0.795  0.4163 -0.4507 -0.1363
  546SOL     OW 1636   1.782   3.061   1.921  0.2867  0.5529 -0.1675
  546SOL    HW1 1637   1.862   0.019   1.884 -0.2396 -0.6054  0.7292
  546SOL    HW2 1638   1.771   3.076   2.018  2.3531 -1.3929 -1.4228
  547SOL     OW 1639   0.184   0.269   2.306 -0.4189 -0.1046 -0.0571
  547SOL    HW1 1640   0.264   0.251   2.249 -0.7385  3.2410  1.3671
  547SOL    HW2 1641   0.218   0.331   2.378  0.3702 -0.8290  0.0218
  548SOL     OW 1642   2.039   1.531   2.753 -0.1450  0.2287 -0.1791
  548SOL    HW1 1643   2.007   1.617   2.805  2.3683  0.5026  3.0671
  548SOL    HW2 1644   1.977   1.503   2.677  3.5087 -0.9108  1.6229
  549SOL     OW 1645   3.071   0.858   0.794 -0.2153 -0.5742 -0.6113
  549SOL    HW1 1646   3.045   0.866   0.697 -0.6611  2.7069  1.5601
  549SOL    HW2 1647   2.999   0.874   0.866  2.7467  0.3442  1.1854
  550SOL     OW 1648   1.866   1.996   0.574  0.5984 -0.8578 -0.1173
  550SOL    HW1 1649   1.770   1.991   0.539  1.1216  1.5074 -0.6527
  550SOL    HW2 1650   1.906   2.087   0.552 -1.0366  0.9092 -1.2159
  551SOL     OW 1651   1.260   0.416   0.979  0.0652  0.1246  0.0142
  551SOL    HW1 1652   1.163   0.388   0.995  0.6881 -0.8592 -0.0616
  551SOL    HW2 1653   1.311   0.352   0.920 -1.0291 -0.9676 -1.6592
  552SOL     OW 1654   2.567   2.679   2.379  0.2563 -0.5360 -0.5422
  552SOL    HW1 1655   2.650   2.690   2.324  1.7094 -1.3522 -0.0244
  552SOL    HW2 1656   2.497   2.633   2.324 -0.2187  1.1897 -2.1381
  553SOL     OW 1657   3.000   2.946   2.520  0.1176 -0.4794  0.1403
  553SOL    HW1 1658   3.028   3.031   2.464  3.8053  1.8647 -1.0535
  553SOL    HW2 1659   2.905   2.920   2.489 -3.5785 -0.3946  0.1534
  554SOL     OW 1660   0.793   2.844   1.237 -0.1436  0.2778 -0.0110
  554SOL    HW1 1661   0.730   2.846   1.317 -0.3934  0.6129 -0.9706
  554SOL    HW2 1662   0.890   2.822   1.260  1.3794  1.8522  1.0907
  555SOL     OW 1663   2.394   2.613   1.991  0.0726 -0.0700 -0.5532
  555SOL    HW1 1664   2.456   2.689   1.983 -0.9018  0.1580  1.2991
  555SOL    HW2 1665   2.384   2.595   2.095  0.2082  0.3804  1.6938
  556SOL     OW 1666   1.115   0.183   2.746 -0.3342  0.2294 -0.1810
  556SOL    HW1 1667   1.205   0.184   2.796  2.5106  0.8345  2.0637
  556SOL    HW2 1668   1.117   0.132   2.654 -0.0326  1.7941  2.4542
  557SOL     OW 1669   0.189   1.944   2.262  0.5506  0.2375  0.0630
  557SOL    HW1 1670   0.138   1.939   2.352 -1.0143  1.3805  2.1192
  557SOL    HW2 1671   0.292   1.942   2.270  1.5437 -1.6363 -2.9678
  558SOL     OW 1672   2.145   0.961   2.454  0.4707 -0.7250 -0.0196
  558SOL    HW1 1673   2.220   0.969   2.385  2.2308 -0.5142 -4.2822
  558SOL    HW2 1674   2.100   1.055   2.460 -0.3246  0.9853  0.6516
  559SOL     OW 1675   2.545   2.227   2.085  0.1806  0.3026 -0.2333
  559SOL    HW1 1676   2.607   2.284   2.145 -1.3150  0.4725 -1.9318
  559SOL    HW2 1677   2.483   2.287   2.031  0.3899 -1.9003 -1.7726
  560SOL     OW 1678   2.716   0.785   2.362  0.0577  0.3484  0.3258
  560SOL    HW1 1679   2.639   0.781   2.431 -0.6307 -0.3195  0.1114
  560SOL    HW2 1680   2.720   0.877   2.313 -3.1321  2.6746  2.0038
  561SOL     OW 1681   0.573   0.582   0.621 -0.2487 -0.4363  0.5230
  561SOL    HW1 1682   0.664   0.555   0.595 -0.9573  1.2973  1.4459
  561SOL    HW2 1683   0.558   0.682   0.609 -2.0309 -0.4058  2.1996
  562SOL     OW 1684   1.063   1.406   1.467  1.0593 -0.1356  0.5200
  562SOL    HW1 1685   1.071   1.447   1.562 -1.5038 -3.3955  1.4159
  562SOL    HW2 1686   0.978   1.344   1.467 -1.0544 -1.4605 -1.1990
  563SOL     OW 1687   1.649   2.772   0.020 -0.3757  0.1991 -0.1316
  563SOL    HW1 1688   1.617   2.795   0.113 -0.8632  4.9171 -0.0647
  563SOL    HW2 1689   1.589   2.814   3.042  1.5308 -0.0706  0.5445
  564SOL     OW 1690   0.188   2.024   0.985  0.0192 -0.0372 -0.2771
  564SOL    HW1 1691   0.182   1.977   1.075  1.9602 -0.6387 -0.1357
  564SOL    HW2 1692   0.283   2.059   0.970 -0.5277  0.4813 -0.4922
  565SOL     OW 1693   0.643   2.220   2.053  0.4861  0.0222  0.4312
  565SOL    HW1 1694   0.570   2.167   2.005 -3.4094 -1.4695  2.1888
  565SOL    HW2 1695   0.618   2.321   2.051  1.3734  3.2137  1.3115
  566SOL     OW 1696   1.172   2.620   2.446 -0.0465  0.4953  0.5553
  566SOL    HW1 1697   1.214   2.683   2.511  0.5049  0.5756 -0.2034
  566SOL    HW2 1698   1.160   2.667   2.357  0.4672  0.7833  0.1798
  567SOL     OW 1699   2.349   2.358   0.951  0.2942  0.1353  0.8508
  567SOL    HW1 1700   2.437   2.309   0.972  2.4422  2.5943 -0.0445
  567SOL    HW2 1701   2.275   2.289   0.942 -0.9533  0.6745  0.1372
  568SOL     OW 1702   1.943   0.611   0.302  0.2142  0.4729  0.0873
  568SOL    HW1 1703   1.992   0.695   0.339 -1.2367  1.1053 -0.8829
  568SOL    HW2 1704   1.899   0.553   0.370  0.3464 -2.9776 -2.7409
  569SOL     OW 1705   0.080   1.581   2.635  0.3002  0.2336 -0.6288
  569SOL    HW1 1706   0.013   1.503   2.630  0.0380 -0.3501  0.5142
  569SOL    HW2 1707   0.116   1.594   2.732 -1.6195 -0.7894  0.2695
  570SOL     OW 1708   0.094   0.051   1.297 -0.0202  0.1339  0.6078
  570SOL    HW1 1709   0.006   0.087   1.252 -1.4991 -1.7219 -1.8740
  570SOL    HW2 1710   0.107   3.042   1.282 -1.3066  2.8639  0.1762
  571SOL     OW 1711   0.152   0.508   1.411 -0.0463  0.2574 -0.8315
  571SOL    HW1 1712   0.206   0.584   1.369  0.2750 -0.7366 -2.8665
  571SOL    HW2 1713   0.090   0.545   1.483  1.3113 -2.6458  0.8782
  572SOL     OW 1714   3.068   2.690   0.845  0.1034 -0.1828 -0.4992
  572SOL    HW1 1715   2.999   2.649   0.904 -0.7351 -0.9854 -2.3963
  572SOL    HW2 1716   3.083   2.637   0.760  0.0667  1.4718 -0.6472
  573SOL     OW 1717   0.798   0.823   3.072  0.2059  0.3313  0.4226
  573SOL    HW1 1718   0.775   0.725   0.002 -0.8838 -1.2244 -1.1960
  573SOL    HW2 1719   0.723   0.886   0.006  1.7862  0.7471 -0.8791
  574SOL     OW 1720   2.810   2.574   3.002 -0.1899  0.0534 -0.5080
  574SOL    HW1 1721   2.724   2.623   2.970 -1.2982  1.3497 -0.6082
  574SOL    HW2 1722   2.893   2.625   2.977 -2.7148 -0.9481 -0.0201
  575SOL     OW 1723   1.091   2.213   1.270 -0.0450  0.7534 -0.0989
  575SOL    HW1 1724   1.020   2.185   1.201 -2.1181 -1.2891  1.1655
  575SOL    HW2 1725   1.182   2.204   1.221  3.0409 -0.5227 -2.7441
  576SOL     OW 1726   0.433   3.020   1.294 -0.5370 -0.0831  0.8741
  576SOL    HW1 1727   0.515   3.007   1.346 -3.8664 -0.2960 -4.5313
  576SOL    HW2 1728   0.447   3.010   1.189  3.2017  2.1088 -1.8449
  577SOL     OW 1729   1.876   1.615   1.205 -0.1005  0.0249  0.4594
  577SOL    HW1 1730   1.837   1.661   1.123  2.5824  0.9072  1.1497
  577SOL    HW2 1731   1.916   1.524   1.183  0.5711 -2.5915  0.6469
  578SOL     OW 1732   1.614   0.285   0.473 -0.0598  0.2810 -0.3780
  578SOL    HW1 1733   1.596   0.275   0.374  0.7978 -0.4711 -0.7609
  578SOL    HW2 1734   1.699   0.339   0.482  0.7055 -1.2021 -1.1821
  579SOL     OW 1735   2.631   1.317   2.449 -0.2304 -0.0677 -0.7761
  579SOL    HW1 1736   2.580   1.396   2.484  1.0810 -1.4564  1.5438
  579SOL    HW2 1737   2.566   1.250   2.406  0.6938 -0.0867 -0.8904
  580SOL     OW 1738   1.591   0.790   1.625  0.4217  0.6310 -0.0889
  580SOL    HW1 1739   1.657   0.819   1.697  0.3366  0.2100  2.4045
  580SOL    HW2 1740   1.565   0.692   1.638 -2.1088 -0.0100  0.0523
  581SOL     OW 1741   0.867   1.209   1.440  0.0997 -0.4929 -0.3137
  581SOL    HW1 1742   0.817   1.152   1.508 -2.1767  1.6107 -0.5832
  581SOL    HW2 1743   0.918   1.158   1.372  0.5328  1.6249  1.2775
  582SOL     OW 1744   2.746   0.089   2.172  0.3530  0.1984 -0.2583
  582SOL    HW1 1745   2.732   0.057   2.077  0.1038  1.6590  2.2411
  582SOL    HW2 1746   2.764   0.188   2.173 -2.4968 -0.7615  2.3333
  583SOL     OW 1747   2.264   0.525   1.758  0.1570 -0.7960 -0.1825
  583SOL    HW1 1748   2.265   0.545   1.859 -0.5821  0.0870 -1.5833
  583SOL    HW2 1749   2.268   0.428   1.736 -0.3623 -2.0363  0.3195
  584SOL     OW 1750   1.390   1.811   2.734 -0.0698  0.0776  0.1239
  584SOL    HW1 1751   1.448   1.888   2.762 -3.0676  1.6914  1.4716
  584SOL    HW2 1752   1.445   1.729   2.695 -1.0899 -2.1593 -0.6184
  585SOL     OW 1753   0.299   0.074   0.294 -0.2266  0.2836  0.7484
  585SOL    HW1 1754   0.259   3.071   0.298 -0.2875 -1.3086 -1.9894
  585SOL    HW2 1755   0.336   0.086   0.204 -1.0926  1.4792  3.5890
  586SOL     OW 1756   1.591   2.077   2.510 -0.2043 -0.4368  0.2075
  586SOL    HW1 1757   1.570   2.124   2.600 -0.3946 -2.6239  2.4279
  586SOL    HW2 1758   1.529   1.998   2.496 -1.0670  0.4095  1.3980
  587SOL     OW 1759   2.628   2.252   0.499  0.0091 -0.0317  0.3095
  587SOL    HW1 1760   2.617   2.319   0.574  0.1728  1.2552  3.4767
  587SOL    HW2 1761   2.717   2.205   0.498 -1.9826  0.8714  2.3044
  588SOL     OW 1762   2.658   0.103   1.085  0.1869 -0.0361 -0.1826
  588SOL    HW1 1763   2.711   0.178   1.125 -0.7150 -1.1653 -2.7772
  588SOL    HW2 1764   2.556   0.132   1.085 -3.3970  1.3880 -2.4511
  589SOL     OW 1765   0.576   0.621   0.900  0.2097  0.2682 -1.1187
  589SOL    HW1 1766   0.659   0.679   0.893 -0.0103 -1.8736  1.6459
  589SOL    HW2 1767   0.564   0.568   0.814 -1.0492  4.2293  2.7940
  590SOL     OW 1768   2.179   1.377   0.800 -0.5971 -0.2717  0.3938
  590SOL    HW1 1769   2.239   1.455   0.780  1.6823 -2.5366 -0.5414
  590SOL    HW2 1770   2.123   1.342   0.724 -2.7468  0.1421 -0.1217
  591SOL     OW 1771   0.452   2.505   1.301 -0.4369 -0.4305  0.0662
  591SOL    HW1 1772   0.496   2.455   1.216  1.0827 -1.0666 -1.9929
  591SOL    HW2 1773   0.365   2.550   1.277  3.4047  2.7679  0.0832
  592SOL     OW 1774   1.119   0.782   1.149 -0.0134 -0.1093  0.4819
  592SOL    HW1 1775   1.158   0.718   1.216 -1.1931  0.1071  1.8624
  592SOL    HW2 1776   1.055   0.847   1.194 -0.8791 -1.1322 -1.9273
  593SOL     OW 1777   0.725   1.284   1.124  0.5018 -0.4160  0.1463
  593SOL    HW1 1778   0.816   1.247   1.131  0.4765  0.4986 -2.3690
  593SOL    HW2 1779   0.687   1.286   1.217  1.3332 -0.6975 -0.8532
  594SOL     OW 1780   0.926   2.050   0.343 -0.0466  0.3168 -0.3603
  594SOL    HW1 1781   0.919   2.074   0.242  1.1326  0.9554 -0.3210
  594SOL    HW2 1782   0.965   1.956   0.361 -0.3731  0.4844  0.1074
  595SOL     OW 1783   1.463   0.160   1.214  0.2290  0.0534  0.3023
  595SOL    HW1 1784   1.455   0.129   1.114 -2.2408 -0.4649 -0.6671
  595SOL    HW2 1785   1.429   0.256   1.220 -2.8691  1.8739 -0.8490
  596SOL     OW 1786   2.976   1.648   0.724 -0.5525  0.3033  0.0931
  596SOL    HW1 1787   2.982   1.575   0.796  0.7161  0.0039 -1.4258
  596SOL    HW2 1788   3.059   1.704   0.725 -2.8217  0.2251  0.6745
  597SOL     OW 1789   0.129   2.370   2.688 -0.9314  0.1743  0.4124
  597SOL    HW1 1790   0.122   2.326   2.778  0.1377 -0.2435 -1.1914
  597SOL    HW2 1791   0.080   2.460   2.687 -1.0160  0.3518  0.5467
  598SOL     OW 1792   2.788   2.506   1.909 -0.2899  0.1597  0.3673
  598SOL    HW1 1793   2.840   2.467   1.988  3.2986  1.8675 -0.2174
  598SOL    HW2 1794   2.706   2.449   1.879  0.8908  0.8612 -1.1685
  599SOL     OW 1795   0.941   0.397   0.038 -0.0528 -0.1783 -0.1891
  599SOL    HW1 1796   0.855   0.431   0.081  0.3952 -0.1440  0.7478
  599SOL    HW2 1797   0.918   0.311   3.080  0.9878  0.7339  1.5334
  600SOL     OW 1798   0.688   2.510   0.056  0.8896  0.4528  0.4118
  600SOL    HW1 1799   0.718   2.600   0.094  0.7093  1.7400 -1.4716
  600SOL    HW2 1800   0.588   2.498   0.081 -2.1384 -1.5674  0.0245
  601SOL     OW 1801   0.505   0.905   1.498  0.0413  0.2448  0.0354
  601SOL    HW1 1802   0.523   0.863   1.404  1.2027 -1.3794 -1.7042
  601SOL    HW2 1803   0.477   0.829   1.560 -0.6263 -0.2904  1.9144
  602SOL     OW 1804   0.547   2.705   0.931 -0.5513  0.7139 -0.3043
  602SOL    HW1 1805   0.522   2.692   0.836  0.6520 -1.1772 -0.3457
  602SOL    HW2 1806   0.615   2.629   0.959  2.3341 -3.7747 -0.9176
  603SOL     OW 1807   0.736   0.299   2.246  0.1516 -0.3047 -0.5070
  603SOL    HW1 1808   0.696   0.206   2.247 -1.1544  2.5362 -0.9417
  603SOL    HW2 1809   0.672   0.362   2.195  1.4643  1.0296  0.7820
  604SOL     OW 1810   0.747   2.788   1.780  0.2892 -0.4638  0.0051
  604SOL    HW1 1811   0.698   2.873   1.757 -0.6402 -2.4279  2.4286
  604SOL    HW2 1812   0.716   2.715   1.719 -1.2037  1.4096 -0.4084
  605SOL     OW 1813   1.751   0.814   1.849  0.4075  0.6464  0.1502
  605SOL    HW1 1814   1.836   0.862   1.871 -1.7396 -3.0539 -3.8746
  605SOL    HW2 1815   1.675   0.835   1.913  1.1213  0.3960  0.1923
  606SOL     OW 1816   2.339   2.732   2.937 -0.5326 -0.0768 -0.6076
  606SOL    HW1 1817   2.243   2.770   2.938 -0.1798 -2.1120 -0.3023
  606SOL    HW2 1818   2.403   2.809   2.951  1.6581  0.0394 -1.6674
  607SOL     OW 1819   0.878   0.919   1.254  0.2891  0.3751  0.3389
  607SOL    HW1 1820   0.801   0.919   1.187  2.0736 -0.2358 -3.0086
  607SOL    HW2 1821   0.854   0.895   1.349  0.4382  2.0703  1.4326
  608SOL     OW 1822   0.333   1.912   2.602 -0.1470  0.3984 -0.0718
  608SOL    HW1 1823   0.293   2.008   2.610 -1.5759  1.8500 -0.7718
  608SOL    HW2 1824   0.283   1.847   2.539 -0.3853 -0.5500  0.4311
  609SOL     OW 1825   1.591   1.160   0.171 -0.3470 -0.0154  0.1607
  609SOL    HW1 1826   1.577   1.141   0.273  3.6355 -1.3902  1.2050
  609SOL    HW2 1827   1.508   1.159   0.111 -0.7928  3.7110  1.3309
  610SOL     OW 1828   0.441   0.450   1.377  0.6352  0.3088 -0.0131
  610SOL    HW1 1829   0.406   0.355   1.350  0.7070 -1.6257 -0.9227
  610SOL    HW2 1830   0.489   0.483   1.292  0.0337 -0.7437 -0.7410
  611SOL     OW 1831   1.548   0.728   1.033 -0.3316 -0.1027  0.0589
  611SOL    HW1 1832   1.450   0.719   0.997 -3.1255  1.2988  0.1542
  611SOL    HW2 1833   1.558   0.796   1.106 -0.3076 -0.4484 -0.5030
  612SOL     OW 1834   1.844   1.050   0.113  0.2256  0.1620 -0.1020
  612SOL    HW1 1835   1.753   1.097   0.134 -2.1970  2.9329 -1.6234
  612SOL    HW2 1836   1.849   0.955   0.151  3.5622 -0.6509 -1.6387
  613SOL     OW 1837   2.173   0.401   0.411 -0.0316 -0.1168 -0.0947
  613SOL    HW1 1838   2.104   0.456   0.357 -0.7792  0.3439 -1.7615
  613SOL    HW2 1839   2.146   0.302   0.406 -1.5768 -2.3532 -1.0881
  614SOL     OW 1840   2.649   0.052   2.442 -0.0728  0.1375  0.2492
  614SOL    HW1 1841   2.668   0.070   2.345  0.6406  1.3921  2.0106
  614SOL    HW2 1842   2.653   0.136   2.500 -0.0992  3.0876  0.2602
  615SOL     OW 1843   0.734   1.907   1.131  0.5082 -0.0337  0.3235
  615SOL    HW1 1844   0.803   1.847   1.172  0.7069  0.2041  2.0366
  615SOL    HW2 1845   0.640   1.901   1.165  0.0403 -1.1607 -2.9766
  616SOL     OW 1846   1.614   1.456   2.441  0.0414  0.2344 -0.0157
  616SOL    HW1 1847   1.629   1.452   2.341 -2.9386 -1.3584 -0.8075
  616SOL    HW2 1848   1.567   1.365   2.463  0.4643 -1.7788  2.0284
  617SOL     OW 1849   1.369   0.185   2.884  0.1528 -0.3335 -0.0023
  617SOL    HW1 1850   1.386   0.284   2.917  0.6744  1.9812 -1.6432
  617SOL    HW2 1851   1.400   0.123   2.962  1.8546 -0.0836  2.1824
  618SOL     OW 1852   1.225   2.213   2.527  0.0261 -0.1769 -0.3276
  618SOL    HW1 1853   1.244   2.129   2.580 -0.4998  0.0626 -0.7788
  618SOL    HW2 1854   1.255   2.297   2.576 -0.0545  0.1102 -0.2274
  619SOL     OW 1855   2.578   1.355   0.809 -0.3477 -0.0898 -0.3651
  619SOL    HW1 1856   2.684   1.357   0.808  0.1730 -1.6097 -0.5767
  619SOL    HW2 1857   2.556   1.290   0.734 -2.8634  0.8407 -1.6435
  620SOL     OW 1858   2.127   2.901   2.302 -0.3854  0.2234 -0.1521
  620SOL    HW1 1859   2.112   2.872   2.398 -2.2846  1.7881 -1.2594
  620SOL    HW2 1860   2.115   2.823   2.241  0.0412  0.9373  1.2631
  621SOL     OW 1861   2.911   1.304   0.566  0.1439  0.1788  0.3313
  621SOL    HW1 1862   2.895   1.315   0.666 -0.2864 -1.2681  0.4281
  621SOL    HW2 1863   2.917   1.394   0.522 -1.1854 -2.3640  3.2770
  622SOL     OW 1864   1.332   1.670   2.436  0.3210  0.6261  0.3147
  622SOL    HW1 1865   1.264   1.658   2.360  1.9333  0.2137  0.8212
  622SOL    HW2 1866   1.313   1.613   2.512 -0.1012  3.6757 -0.6782
  623SOL     OW 1867   0.285   2.529   2.523 -0.3595 -0.2370 -0.0511
  623SOL    HW1 1868   0.293   2.500   2.425 -0.6887  0.5857 -1.0502
  623SOL    HW2 1869   0.240   2.459   2.578  1.9893  3.4765 -0.6693
  624SOL     OW 1870   0.782   2.578   2.895  0.0386  0.1363 -0.1263
  624SOL    HW1 1871   0.806   2.504   2.828  1.4856 -0.1929 -0.0304
  624SOL    HW2 1872   0.746   2.547   2.986 -1.9507 -1.5808  0.9694
  625SOL     OW 1873   0.150   2.246   1.938  0.1693  0.8261  0.3832
  625SOL    HW1 1874   0.113   2.339   1.956 -1.5380 -1.2672  1.3328
  625SOL    HW2 1875   0.092   2.177   1.986 -0.7267  0.5007  0.1760
  626SOL     OW 1876   0.138   0.031   2.987  0.0446 -0.1463  0.1643
  626SOL    HW1 1877   0.095   0.116   3.022 -1.0465 -1.8594 -0.6057
  626SOL    HW2 1878   0.107   0.007   2.892 -0.2910 -2.0404 -2.1778
  627SOL     OW 1879   2.168   1.650   0.140  0.2648 -0.2977  0.6302
  627SOL    HW1 1880   2.264   1.655   0.179 -0.7388 -1.8659  3.2455
  627SOL    HW2 1881   2.164   1.721   0.061 -0.2745  1.1919 -2.9585
  628SOL     OW 1882   1.666   1.945   0.045 -0.1252  0.4600  0.1399
  628SOL    HW1 1883   1.673   1.842   0.054 -1.4061  0.5526 -2.3732
  628SOL    HW2 1884   1.600   1.971   0.121  0.1769  0.0163 -3.2264
  629SOL     OW 1885   0.014   0.268   1.617  0.3767 -0.0133 -0.3554
  629SOL    HW1 1886   3.061   0.347   1.665 -0.3791  0.7301 -1.2163
  629SOL    HW2 1887   0.113   0.283   1.609 -2.5880  2.6714 -0.6690
  630SOL     OW 1888   2.185   1.183   1.652  0.3532  0.7659 -0.3310
  630SOL    HW1 1889   2.199   1.140   1.562 -0.7569  3.4164  0.1197
  630SOL    HW2 1890   2.201   1.112   1.719  0.3840 -0.3284 -1.1350
  631SOL     OW 1891   1.786   0.031   0.804 -0.3494 -0.0231  0.0203
  631SOL    HW1 1892   1.779   3.018   0.800 -0.1187 -2.5397  2.8956
  631SOL    HW2 1893   1.810   0.065   0.896  0.5009 -0.1238  0.0948
  632SOL     OW 1894   2.729   0.945   2.034 -0.2426 -0.5011  0.2848
  632SOL    HW1 1895   2.730   0.983   1.942  1.7264  3.2789  0.6900
  632SOL    HW2 1896   2.667   1.004   2.090  0.2873  0.2450 -1.6593
  633SOL     OW 1897   0.779   0.594   2.660  0.1346 -0.0383 -0.2325
  633SOL    HW1 1898   0.854   0.607   2.729  2.1355 -1.2320 -1.0227
  633SOL    HW2 1899   0.741   0.500   2.669 -0.5411 -0.2877 -2.4838
  634SOL     OW 1900   0.574   2.708   2.809  0.2116  0.2994 -0.1041
  634SOL    HW1 1901   0.658   2.659   2.816 -3.1931  1.7402 -0.1820
  634SOL    HW2 1902   0.518   2.695   2.892  1.4769  1.1933  0.0212
  635SOL     OW 1903   0.079   1.352   1.124  0.1712 -0.2067 -0.0971
  635SOL    HW1 1904   0.054   1.451   1.114 -0.8923 -0.6784  0.1135
  635SOL    HW2 1905   0.001   1.288   1.115 -0.8995  0.0109 -1.4868
  636SOL     OW 1906   0.097   1.612   0.126  0.3093 -0.5668 -0.2823
  636SOL    HW1 1907   0.110   1.514   0.107  2.4792  1.9485  0.7425
  636SOL    HW2 1908   0.183   1.661   0.104 -1.1203  0.4398  2.5497
  637SOL     OW 1909   0.177   2.539   0.255  0.8459 -0.0767  0.0145
  637SOL    HW1 1910   0.138   2.504   0.164  0.7766  0.1393 -2.3559
  637SOL    HW2 1911   0.133   2.509   0.339  3.4884  1.1215 -1.3865
  638SOL     OW 1912   2.843   2.471   0.604  0.9208  0.4186  0.1181
  638SOL    HW1 1913   2.896   2.513   0.529  1.6463  0.1671 -1.6561
  638SOL    HW2 1914   2.902   2.422   0.668 -0.9992 -0.6303  0.9237
  639SOL     OW 1915   1.305   0.988   0.219  0.4810  0.3015  0.2062
  639SOL    HW1 1916   1.299   1.088   0.202  2.3811  1.6468  0.6815
  639SOL    HW2 1917   1.222   0.949   0.265  0.8300 -0.4522 -1.6503
  640SOL     OW 1918   1.916   2.310   1.840 -0.7986  0.2436  0.7344
  640SOL    HW1 1919   1.827   2.277   1.885 -3.0516 -1.5367  2.5101
  640SOL    HW2 1920   1.936   2.263   1.754 -1.5242  1.6963 -0.9853
  641SOL     OW 1921   2.981   3.073   0.580 -0.5542 -0.2251 -0.7830
  641SOL    HW1 1922   2.958   2.998   0.644  2.2341 -0.7172 -2.3054
  641SOL    HW2 1923   2.947   0.075   0.614 -2.4740  1.2650  2.1340
  642SOL     OW 1924   1.140   0.839   1.855  0.2668 -0.6302  0.4889
  642SOL    HW1 1925   1.235   0.875   1.863  0.7177  0.1861  0.1401
  642SOL    HW2 1926   1.091   0.892   1.779 -2.2515  0.4414 -3.5541
  643SOL     OW 1927   0.735   2.012   2.470 -0.5772 -0.0291  0.0500
  643SOL    HW1 1928   0.748   2.099   2.426 -0.7963 -2.1249  2.7636
  643SOL    HW2 1929   0.681   2.029   2.554  0.2261  0.8247  1.5420
  644SOL     OW 1930   1.284   2.422   2.696  0.2595 -0.0440 -0.0036
  644SOL    HW1 1931   1.249   2.405   2.791 -3.2910  0.0471 -0.8975
  644SOL    HW2 1932   1.220   2.487   2.645 -1.2087 -2.0905 -2.1867
  645SOL     OW 1933   1.443   1.240   1.751  0.3598  0.6911 -0.0712
  645SOL    HW1 1934   1.515   1.231   1.821  0.8495 -0.5528  3.5840
  645SOL    HW2 1935   1.469   1.193   1.659  0.1560  0.1323 -1.7557
  646SOL     OW 1936   0.879   2.849   2.862 -0.1586  0.1711 -0.4834
  646SOL    HW1 1937   0.861   2.751   2.859 -0.8785 -0.3602 -1.3022
  646SOL    HW2 1938   0.796   2.902   2.847  2.8375  0.2924  0.0307
  647SOL     OW 1939   0.776   2.908   0.380  0.2101  0.0807 -0.0120
  647SOL    HW1 1940   0.732   2.904   0.472  0.7435  1.5524 -0.6790
  647SOL    HW2 1941   0.855   2.965   0.377 -3.6616  2.4601  1.6883
  648SOL     OW 1942   2.518   2.889   1.440 -0.0002  0.1542  0.3132
  648SOL    HW1 1943   2.423   2.861   1.417  1.0933  1.1543  0.1658
  648SOL    HW2 1944   2.583   2.821   1.396 -0.9320 -3.0113 -0.0161
  649SOL     OW 1945   0.905   2.321   2.805  0.0700 -0.7206 -0.3566
  649SOL    HW1 1946   0.988   2.336   2.856 -1.8950  0.0863 -0.2246
  649SOL    HW2 1947   0.863   2.231   2.828  0.9405 -1.4474  1.8287
  650SOL     OW 1948   2.465   1.988   2.175 -0.1798  0.5467  0.2384
  650SOL    HW1 1949   2.382   1.981   2.233 -0.3883 -1.8744 -1.3513
  650SOL    HW2 1950   2.490   2.086   2.154 -0.5709  3.3217 -1.2491
  651SOL     OW 1951   2.966   2.547   2.307  0.4447  0.4663  0.6367
  651SOL    HW1 1952   3.065   2.571   2.302 -0.2369  0.0643  0.2562
  651SOL    HW2 1953   2.950   2.454   2.342 -1.4576  0.0088 -1.9502
  652SOL     OW 1954   2.640   1.807   0.568  0.4020 -0.7176  0.1036
  652SOL    HW1 1955   2.687   1.855   0.642 -0.8242 -1.1027 -0.7513
  652SOL    HW2 1956   2.555   1.852   0.541 -1.7222 -0.8624  1.2188
  653SOL     OW 1957   2.557   1.094   1.042  0.5543 -0.0172  0.8791
  653SOL    HW1 1958   2.588   1.077   0.949  0.4337  2.0521  0.4136
  653SOL    HW2 1959   2.572   1.021   1.114 -1.6508 -0.1187  2.2260
  654SOL     OW 1960   0.919   0.180   2.946  0.0404  0.3631  0.2939
  654SOL    HW1 1961   0.982   0.180   2.867 -2.7510 -0.6283  1.8465
  654SOL    HW2 1962   0.842   0.122   2.933  1.7547  1.5398  1.9839
  655SOL     OW 1963   1.175   0.169   1.290 -0.2242 -0.1588 -0.2087
  655SOL    HW1 1964   1.231   0.253   1.281 -0.2766 -2.1336 -0.0616
  655SOL    HW2 1965   1.227   0.084   1.311  1.6780  2.6440  0.2464
  656SOL     OW 1966   0.094   2.792   2.036 -0.3380 -0.0236  0.8259
  656SOL    HW1 1967   0.177   2.759   1.982  1.0971  1.2782 -3.0999
  656SOL    HW2 1968   0.110   2.881   2.086  3.1606  0.2979 -0.2271
  657SOL     OW 1969   2.275   0.485   0.100  0.0446 -0.1615 -0.0864
  657SOL    HW1 1970   2.306   0.455   0.192 -0.6878 -0.5948  0.1247
  657SOL    HW2 1971   2.323   0.429   0.031  0.1333 -0.3210 -2.1238
  658SOL     OW 1972   1.960   1.789   0.969 -0.1145 -0.1543  0.4325
  658SOL    HW1 1973   1.957   1.836   1.060 -2.3362 -0.0873 -0.8447
  658SOL    HW2 1974   2.018   1.701   0.968 -0.9677 -1.6624  0.2218
  659SOL     OW 1975   2.664   2.122   2.738 -0.0368 -0.3371 -0.1769
  659SOL    HW1 1976   2.584   2.190   2.730  1.9285  1.5625 -1.6401
  659SOL    HW2 1977   2.746   2.150   2.682  0.4158 -0.9167 -1.8826
  660SOL     OW 1978   1.422   0.019   0.005  0.0138  0.0596  0.0482
  660SOL    HW1 1979   1.397   0.050   0.097  0.6537  2.2541  0.3800
  660SOL    HW2 1980   1.520   0.014   3.087 -2.9144 -2.2120 -0.1155
  661SOL     OW 1981   2.151   0.070   0.116  0.1563  0.3522 -0.5688
  661SOL    HW1 1982   2.088   3.078   0.110  0.5918 -1.4922  0.5423
  661SOL    HW2 1983   2.230   0.052   0.059 -4.3718 -0.1087 -0.4040
  662SOL     OW 1984   0.698   0.118   0.791 -0.1864  0.1380  0.1789
  662SOL    HW1 1985   0.619   0.162   0.750  0.7584 -0.9152 -3.4121
  662SOL    HW2 1986   0.661   0.032   0.825  0.4347  0.1718 -1.2362
  663SOL     OW 1987   1.353   0.468   2.262 -0.8668 -0.2531  0.3415
  663SOL    HW1 1988   1.362   0.453   2.162 -0.5037 -0.5375 -2.1322
  663SOL    HW2 1989   1.266   0.517   2.287  0.9333  0.4618 -0.9490
  664SOL     OW 1990   0.654   2.892   1.467  0.5848  0.1781  0.0767
  664SOL    HW1 1991   0.570   2.832   1.476 -1.6278 -0.1737 -1.4137
  664SOL    HW2 1992   0.659   2.953   1.551  0.7923  0.0691 -0.4689
  665SOL     OW 1993   0.947   2.419   1.788 -0.0267  0.4226 -0.5107
  665SOL    HW1 1994   0.960   2.510   1.747  1.6671 -0.4939 -0.3210
  665SOL    HW2 1995   0.951   2.422   1.890 -1.5934 -2.2476  1.3684
  666SOL     OW 1996   0.288   3.023   2.588 -0.0984 -0.3151 -0.0996
  666SOL    HW1 1997   0.324   2.934   2.622  1.7961  0.7738 -0.9753
  666SOL    HW2 1998   0.299   3.028   2.487  0.6518  1.0739  0.1703
  667SOL     OW 1999   1.717   1.795   1.435 -0.0889 -0.1696  0.0124
  667SOL    HW1 2000   1.728   1.701   1.474  2.0512 -0.6362 -0.7487
  667SOL    HW2 2001   1.800   1.845   1.456 -2.6158  0.7794 -0.7277
  668SOL     OW 2002   1.538   0.483   1.735 -0.5915 -0.0438  0.4121
  668SOL    HW1 2003   1.606   0.486   1.656  0.6190 -0.6143  1.5898
  668SOL    HW2 2004   1.524   0.385   1.760 -0.6549  0.3553 -0.5359
  669SOL     OW 2005   2.554   2.608   1.220 -0.1480  0.1032  0.6173
  669SOL    HW1 2006   2.459   2.605   1.178 -1.7762 -1.3267 -0.1800
  669SOL    HW2 2007   2.549   2.626   1.317 -1.1786 -1.4646 -2.9969
  670SOL     OW 2008   1.548   2.216   2.750  0.2567  0.0117 -0.1515
  670SOL    HW1 2009   1.453   2.238   2.768  1.7107  0.4304 -0.0865
  670SOL    HW2 2010   1.609   2.297   2.770  1.9485 -1.5471 -0.2336
  671SOL     OW 2011   1.256   1.108   0.459 -0.2408 -0.0878 -0.1261
  671SOL    HW1 2012   1.324   1.107   0.537  0.5665 -0.4568  1.3599
  671SOL    HW2 2013   1.260   1.019   0.404 -2.4393 -0.3744  0.9816
  672SOL     OW 2014   2.966   1.133   2.496 -0.2614 -0.0769  0.6935
  672SOL    HW1 2015   2.880   1.121   2.548 -1.3898  1.6725 -0.1863
  672SOL    HW2 2016   3.013   1.044   2.472 -1.7902  0.6800 -0.0856
  673SOL     OW 2017   2.581   1.968   1.475 -0.6955  0.0578  0.1971
  673SOL    HW1 2018   2.675   1.987   1.519  0.0632  1.3712  0.3002
  673SOL    HW2 2019   2.517   2.046   1.474  1.6002  1.2828  0.1549
  674SOL     OW 2020   0.524   2.477   2.074  0.8944  0.1431 -0.8238
  674SOL    HW1 2021   0.481   2.500   1.985  1.6616 -0.3183 -0.7791
  674SOL    HW2 2022   0.575   2.556   2.120 -1.8477 -0.7627 -0.7159
  675SOL     OW 2023   0.872   0.865   1.542 -0.8069  0.0713  0.4272
  675SOL    HW1 2024   0.944   0.894   1.606  1.4168 -0.5914 -0.3970
  675SOL    HW2 2025   0.791   0.926   1.548 -1.2321 -0.3822 -0.2223
  676SOL     OW 2026   2.391   0.239   1.055  0.4584  0.0193  0.2636
  676SOL    HW1 2027   2.297   0.202   1.040  0.0644 -0.2154 -1.2416
  676SOL    HW2 2028   2.393   0.323   1.112 -1.0179 -0.0024 -2.8654
  677SOL     OW 2029   2.281   1.417   2.977 -0.5272 -0.0685  0.7573
  677SOL    HW1 2030   2.196   1.446   3.029 -2.1513  0.6223  2.1546
  677SOL    HW2 2031   2.287   1.470   2.885  1.3574  1.5788 -4.2200
  678SOL     OW 2032   2.916   1.218   1.124  0.5085 -0.5137  0.5491
  678SOL    HW1 2033   2.916   1.206   1.224  1.5665 -0.9528  1.9073
  678SOL    HW2 2034   2.874   1.308   1.098 -2.0137 -0.0011  0.5877
  679SOL     OW 2035   2.481   0.217   0.045 -0.3329  0.1485  0.0044
  679SOL    HW1 2036   2.563   0.197   0.102 -2.7824 -1.9835  2.1695
  679SOL    HW2 2037   2.490   0.305   3.089  0.3347 -0.8920 -1.5239
  680SOL     OW 2038   0.112   1.932   1.766  0.1402  0.0590 -0.3132
  680SOL    HW1 2039   0.072   1.984   1.843  2.7842  1.6826  0.3104
  680SOL    HW2 2040   0.154   1.843   1.797 -0.5334  2.9798 -0.6467
  681SOL     OW 2041   1.930   2.220   1.544 -0.1109 -0.3236 -0.1695
  681SOL    HW1 2042   1.915   2.123   1.517  0.3296 -1.8404 -2.2573
  681SOL    HW2 2043   1.850   2.277   1.552  1.4981  0.1092 -1.8498
  682SOL     OW 2044   0.371   1.648   0.057 -0.4909 -0.2391  0.9478
  682SOL    HW1 2045   0.415   1.712   3.077  1.9877  1.4192 -1.2370
  682SOL    HW2 2046   0.362   1.551   0.017  1.6117 -2.5827  2.2213
  683SOL     OW 2047   0.038   2.188   1.417 -0.0160  0.0902 -0.2412
  683SOL    HW1 2048   0.121   2.241   1.433 -0.8960 -0.4131 -0.6410
  683SOL    HW2 2049   0.000   2.197   1.323 -0.4302  1.5537  1.9594
  684SOL     OW 2050   2.932   1.327   2.002 -0.1471  0.0556 -0.1412
  684SOL    HW1 2051   2.847   1.302   2.046  1.6063 -2.2296 -2.2596
  684SOL    HW2 2052   2.995   1.246   2.000 -0.0777  0.2972 -2.7689
  685SOL     OW 2053   1.447   1.080   0.663 -0.0898 -0.0378  0.4832
  685SOL    HW1 2054   1.512   1.124   0.726 -0.1005 -2.9832 -1.7146
  685SOL    HW2 2055   1.423   0.983   0.687 -2.6078  0.4269 -1.9100
  686SOL     OW 2056   0.537   0.290   0.632  0.1573 -0.3028  0.3701
  686SOL    HW1 2057   0.541   0.389   0.656 -1.7035 -0.5075 -1.2831
  686SOL    HW2 2058   0.563   0.279   0.534  1.1657  0.5400  0.0990
  687SOL     OW 2059   1.075   2.046   2.885 -0.7096 -0.3442 -0.2343
  687SOL    HW1 2060   1.109   2.021   2.977 -1.1916 -2.1866  0.0034
  687SOL    HW2 2061   1.085   2.148   2.872 -0.1880  0.2255 -0.1666
  688SOL     OW 2062   1.672   0.806   1.301 -0.1627 -0.2230 -0.6375
  688SOL    HW1 2063   1.606   0.866   1.254  0.9874 -1.9771 -0.6712
  688SOL    HW2 2064   1.643   0.780   1.393  2.0890 -1.0864  1.0495
  689SOL     OW 2065   1.798   0.139   1.059  0.4287  0.1262 -0.1245
  689SOL    HW1 2066   1.864   0.161   1.131  0.2149 -2.6964 -1.7285
  689SOL    HW2 2067   1.757   0.227   1.020  0.0836  3.5406 -2.0109
  690SOL     OW 2068   0.162   1.283   0.604 -0.6530  0.4966  0.1809
  690SOL    HW1 2069   0.117   1.323   0.682 -0.6031 -0.5600 -0.9763
  690SOL    HW2 2070   0.130   1.331   0.517 -0.8889  1.2813  0.1854
  691SOL     OW 2071   0.297   2.277   1.437 -0.1535 -0.1488 -0.7201
  691SOL    HW1 2072   0.304   2.196   1.375 -2.0422  0.8489  0.0261
  691SOL    HW2 2073   0.356   2.353   1.403 -0.9468 -0.2106  1.2692
  692SOL     OW 2074   1.795   0.081   1.508 -0.4289  0.8528 -0.2498
  692SOL    HW1 2075   1.802   0.176   1.547 -0.1726  1.0999  0.0742
  692SOL    HW2 2076   1.881   0.050   1.469 -1.0907  0.6883  1.5408
  693SOL     OW 2077   0.602   1.693   2.120  0.3238 -0.9740  0.6005
  693SOL    HW1 2078   0.543   1.751   2.061  1.4082  0.9000  0.5383
  693SOL    HW2 2079   0.663   1.757   2.173 -1.3010  0.7695 -0.4580
  694SOL     OW 2080   2.006   1.185   0.995  0.1162 -0.0531  0.1803
  694SOL    HW1 2081   1.960   1.276   1.001 -1.7019  0.3935 -0.7452
  694SOL    HW2 2082   2.105   1.192   1.018  0.0583  0.4265  1.2264
  695SOL     OW 2083   1.352   0.816   0.680 -0.1151  0.3545  0.1539
  695SOL    HW1 2084   1.382   0.758   0.600 -2.3375 -0.8416  1.7347
  695SOL    HW2 2085   1.350   0.754   0.760 -1.8012  2.7502 -3.7198
  696SOL     OW 2086   0.570   0.258   0.348 -0.1301 -0.3700 -0.3149
  696SOL    HW1 2087   0.526   0.171   0.346 -1.5010  2.0070 -1.0339
  696SOL    HW2 2088   0.671   0.243   0.334 -1.6469  0.5895  0.1752
  697SOL     OW 2089   1.939   0.552   0.962  0.2942 -0.5636  0.3168
  697SOL    HW1 2090   1.882   0.475   0.995 -0.4377  3.6983  2.2276
  697SOL    HW2 2091   1.889   0.640   0.945  2.1800 -0.3408  1.0339
  698SOL     OW 2092   1.519   1.194   2.203 -0.3184  0.5459  0.0700
  698SOL    HW1 2093   1.418   1.198   2.199 -0.4364  0.3228 -1.9554
  698SOL    HW2 2094   1.557   1.288   2.200  0.2692 -0.1830  2.7662
  699SOL     OW 2095   2.765   0.614   1.900 -0.1657 -0.4998  0.3138
  699SOL    HW1 2096   2.766   0.672   1.982 -1.8292 -1.8923 -3.3767
  699SOL    HW2 2097   2.766   0.519   1.936  1.2588 -0.5745  0.5535
  700SOL     OW 2098   1.768   2.397   0.528  0.0558  0.4991  0.0539
  700SOL    HW1 2099   1.806   2.451   0.604 -0.2778 -0.0862 -1.7927
  700SOL    HW2 2100   1.675   2.424   0.507  0.5450  1.0074 -1.0137
  701SOL     OW 2101   2.645   1.915   2.483  0.0117 -0.2634  0.3098
  701SOL    HW1 2102   2.574   1.854   2.444 -1.7455  0.5328 -2.2040
  701SOL    HW2 2103   2.665   1.891   2.581 -0.8770 -1.8521 -0.0016
  702SOL     OW 2104   0.680   2.895   0.626  0.2548 -0.2290  0.3100
  702SOL    HW1 2105   0.650   2.961   0.700 -2.6217 -0.3799 -1.8122
  702SOL    HW2 2106   0.633   2.805   0.640  1.3443 -1.3885 -0.8527
  703SOL     OW 2107   1.734   2.992   2.243  0.3244 -0.7509 -0.1522
  703SOL    HW1 2108   1.683   2.935   2.183  0.3256 -1.2209  0.8327
  703SOL    HW2 2109   1.750   2.956   2.333  1.0391 -2.3650 -1.9308
  704SOL     OW 2110   2.847   2.304   0.239 -0.0633  0.2654 -0.9489
  704SOL    HW1 2111   2.767   2.348   0.278  0.2190 -0.3343  2.3524
  704SOL    HW2 2112   2.827   2.209   0.214 -1.8404 -0.2287  0.9317
  705SOL     OW 2113   2.906   2.278   2.383 -0.3540  0.3425  0.1232
  705SOL    HW1 2114   2.903   2.181   2.354  2.5168  4.4904  2.1491
  705SOL    HW2 2115   2.915   2.276   2.482 -2.1277 -1.0870 -1.7318
  706SOL     OW 2116   2.529   0.076   0.396 -0.1271  0.4559 -0.1174
  706SOL    HW1 2117   2.558   0.159   0.341 -0.6370  0.9951  2.1453
  706SOL    HW2 2118   2.614   0.019   0.412  0.5845 -2.0865 -1.2680
  707SOL     OW 2119   1.123   0.555   2.404 -0.3187 -0.3809  0.3084
  707SOL    HW1 2120   1.052   0.503   2.357  1.3811  0.4418  2.1851
  707SOL    HW2 2121   1.128   0.524   2.497  0.5389  0.1863 -1.2939
  708SOL     OW 2122   0.333   2.061   1.702 -0.2273 -0.0120  0.2421
  708SOL    HW1 2123   0.245   2.011   1.702 -0.2475 -0.7230 -1.5540
  708SOL    HW2 2124   0.352   2.091   1.796  0.2192 -0.0908 -0.2586
  709SOL     OW 2125   1.400   3.030   1.843  0.2069  0.5051  0.1007
  709SOL    HW1 2126   1.408   0.009   1.915 -0.4899  0.9164 -0.0809
  709SOL    HW2 2127   1.483   3.042   1.783 -3.3370  3.0765 -0.4551
  710SOL     OW 2128   1.516   2.603   2.718 -0.5721  0.3333 -0.5072
  710SOL    HW1 2129   1.427   2.550   2.715 -0.1077  0.4356 -0.3773
  710SOL    HW2 2130   1.591   2.542   2.745 -1.1713  0.5750  1.4949
  711SOL     OW 2131   0.818   2.416   2.542 -0.0304  0.0820  0.3015
  711SOL    HW1 2132   0.837   2.356   2.462  1.8309 -1.0935  0.2598
  711SOL    HW2 2133   0.846   2.371   2.628 -1.7926  0.8257 -0.4194
  712SOL     OW 2134   1.174   1.982   0.046 -0.0569 -0.5832 -0.4186
  712SOL    HW1 2135   1.167   1.882   0.069  2.2798  0.2421 -2.5487
  712SOL    HW2 2136   1.194   2.040   0.128  3.3103 -2.2231  2.2923
  713SOL     OW 2137   1.998   1.347   1.780 -0.1295 -0.2698 -0.3406
  713SOL    HW1 2138   2.062   1.303   1.713  0.9174  2.1201 -0.0851
  713SOL    HW2 2139   1.952   1.286   1.843  0.8973 -1.5448 -0.7903
  714SOL     OW 2140   0.751   1.125   1.995 -0.3525 -0.5400 -0.1434
  714SOL    HW1 2141   0.691   1.106   2.077 -0.3572  2.0082  0.0785
  714SOL    HW2 2142   0.842   1.077   2.002 -1.9599  1.4516 -0.9549
  715SOL     OW 2143   2.699   0.215   0.238 -0.8922  0.1617  0.2372
  715SOL    HW1 2144   2.784   0.156   0.252  2.5195 -0.2133  0.4028
  715SOL    HW2 2145   2.699   0.298   0.296 -0.2980 -3.3437  1.4265
  716SOL     OW 2146   0.168   2.901   1.249 -0.3171 -0.0544  0.0392
  716SOL    HW1 2147   0.168   2.890   1.149  3.7477  0.1085 -0.6235
  716SOL    HW2 2148   0.264   2.913   1.280  2.6522 -0.8682 -0.6232
  717SOL     OW 2149   2.437   0.746   0.909 -0.0382  0.0235 -0.6599
  717SOL    HW1 2150   2.373   0.663   0.898  1.2607 -1.0081 -0.5380
  717SOL    HW2 2151   2.444   0.779   1.006 -1.0592  2.7043  2.2975
  718SOL     OW 2152   1.484   1.155   1.476  0.0003 -0.4201  0.3997
  718SOL    HW1 2153   1.447   1.235   1.427  2.1511 -0.5402  0.6441
  718SOL    HW2 2154   1.577   1.130   1.440  1.0602 -1.0125  0.9804
  719SOL     OW 2155   2.589   2.609   2.850  0.1654  0.0025 -0.5680
  719SOL    HW1 2156   2.490   2.648   2.859 -2.8691 -1.8430  2.1522
  719SOL    HW2 2157   2.593   2.507   2.847  0.4917 -1.2773 -0.4496
  720SOL     OW 2158   1.042   0.406   0.708 -0.3127 -0.0472  0.1315
  720SOL    HW1 2159   0.955   0.440   0.675 -2.2529 -1.2434 -1.7061
  720SOL    HW2 2160   1.021   0.332   0.773 -0.5810  0.4692 -0.8209
  721SOL     OW 2161   2.103   0.201   0.991  0.2362  0.0451  0.4620
  721SOL    HW1 2162   2.109   0.101   0.989  0.0235  3.3720  1.4764
  721SOL    HW2 2163   2.121   0.248   0.905 -0.1539 -0.2946  1.7957
  722SOL     OW 2164   0.777   2.115   1.836 -0.6348  0.1053  0.1320
  722SOL    HW1 2165   0.751   2.144   1.929  3.0371  0.4969  0.3867
  722SOL    HW2 2166   0.795   2.197   1.777  0.4130  2.0666 -1.1751
  723SOL     OW 2167   1.121   2.996   1.527 -0.4029 -0.2455  0.2763
  723SOL    HW1 2168   1.218   3.006   1.499  0.9558  0.1852  1.8806
  723SOL    HW2 2169   1.115   2.982   1.625  1.4304  1.2814 -4.4345
  724SOL     OW 2170   1.477   1.961   1.413  0.5987  0.3427  0.3615
  724SOL    HW1 2171   1.442   1.955   1.513  2.4199  1.0453  2.2315
  724SOL    HW2 2172   1.562   1.906   1.403  2.7034  0.1490  0.4480
  725SOL     OW 2173   1.429   2.448   1.232  0.2754 -0.4061 -0.0312
  725SOL    HW1 2174   1.400   2.351   1.227 -0.8103  1.4672  0.9690
  725SOL    HW2 2175   1.477   2.478   1.146 -0.4181 -1.5531 -0.3973
  726SOL     OW 2176   1.465   0.293   0.151 -0.2222  0.2236 -0.1240
  726SOL    HW1 2177   1.440   0.198   0.184 -0.6953 -1.8874 -0.2874
  726SOL    HW2 2178   1.564   0.312   0.158 -1.7902  2.5484  2.1025
  727SOL     OW 2179   1.675   1.714   0.474  0.1730 -0.3815 -0.1404
  727SOL    HW1 2180   1.635   1.637   0.417  0.7574 -1.3617  3.9362
  727SOL    HW2 2181   1.764   1.742   0.442 -2.2445 -0.1538  1.2877
  728SOL     OW 2182   1.968   2.578   1.977 -0.2321 -0.7832 -0.6446
  728SOL    HW1 2183   1.954   2.486   1.931  0.2484  1.2455  1.5298
  728SOL    HW2 2184   1.911   2.654   1.933  0.2511 -0.8862 -3.1727
  729SOL     OW 2185   2.068   2.591   1.531  0.3586 -0.3044 -0.0337
  729SOL    HW1 2186   2.116   2.615   1.620 -1.6522 -0.8595  0.5725
  729SOL    HW2 2187   2.127   2.530   1.473 -0.9972 -3.3498 -0.7515
  730SOL     OW 2188   1.569   0.956   2.621  0.4363  0.2701 -0.1017
  730SOL    HW1 2189   1.597   0.895   2.697 -2.1118  0.3209 -0.4368
  730SOL    HW2 2190   1.480   0.922   2.587  1.5584  0.9889 -0.0678
  731SOL     OW 2191   0.697   0.214   1.413 -0.2747 -1.0745  0.4476
  731SOL    HW1 2192   0.631   0.218   1.487 -2.2427  0.6617  0.8055
  731SOL    HW2 2193   0.766   0.144   1.433  1.6660  2.5976 -1.1447
  732SOL     OW 2194   1.164   2.877   1.046  0.0846 -0.0993 -0.6511
  732SOL    HW1 2195   1.136   2.848   1.137  1.0304  3.2908  1.2881
  732SOL    HW2 2196   1.120   2.970   1.029  0.0222 -0.0571 -3.8449
  733SOL     OW 2197   1.298   1.155   1.148  0.2528 -0.0716 -0.2516
  733SOL    HW1 2198   1.278   1.191   1.057 -2.0347  1.7387  1.8935
  733SOL    HW2 2199   1.322   1.227   1.210 -0.8895 -1.5155 -1.6176
  734SOL     OW 2200   2.460   2.033   0.473 -0.2047 -0.5896 -0.0712
  734SOL    HW1 2201   2.390   2.052   0.397 -0.1176  1.0876 -1.6172
  734SOL    HW2 2202   2.538   2.103   0.468  2.8808  1.5921 -1.5977
  735SOL     OW 2203   0.835   0.213   0.559 -0.5082 -0.6947 -0.1898
  735SOL    HW1 2204   0.885   0.141   0.510  3.0447  5.4117 -0.7777
  735SOL    HW2 2205   0.809   0.189   0.655 -2.8832  0.4611  1.7247
  736SOL     OW 2206   2.016   2.168   2.763 -0.1343 -0.7210  0.3370
  736SOL    HW1 2207   2.063   2.154   2.850  0.8309  1.2849 -0.5555
  736SOL    HW2 2208   1.984   2.077   2.725 -1.1627  0.2896 -3.2701
  737SOL     OW 2209   0.832   2.632   1.066 -0.1041  0.2211 -0.5932
  737SOL    HW1 2210   0.859   2.676   0.978  1.4074 -0.9546 -1.5624
  737SOL    HW2 2211   0.797   2.708   1.127 -3.0014 -1.1157 -0.6702
  738SOL     OW 2212   1.601   0.149   2.244 -0.7388 -0.1687 -0.7690
  738SOL    HW1 2213   1.596   0.152   2.347  1.7677  1.6718 -1.4200
  738SOL    HW2 2214   1.641   0.064   2.215 -1.9821  1.3791 -0.2574
  739SOL     OW 2215   1.006   2.394   2.086 -0.3784 -0.0957  0.5248
  739SOL    HW1 2216   1.111   2.383   2.069  1.1482  0.6766 -0.1098
  739SOL    HW2 2217   0.972   2.322   2.153 -1.6449 -1.7258  1.1589
  740SOL     OW 2218   1.546   2.349   1.644 -0.2783  0.1036  0.1415
  740SOL    HW1 2219   1.594   2.431   1.674  1.6096 -0.7544  1.6657
  740SOL    HW2 2220   1.555   2.332   1.543  2.1041 -4.6386  0.2105
  741SOL     OW 2221   2.507   1.242   2.964  0.1967  0.6266  0.3869
  741SOL    HW1 2222   2.593   1.296   2.966  0.0725 -1.4478 -0.2001
  741SOL    HW2 2223   2.428   1.304   2.973  1.3428 -0.2601 -2.0519
  742SOL     OW 2224   0.756   1.575   1.933 -0.7240  0.5052  0.5046
  742SOL    HW1 2225   0.697   1.619   2.007 -1.8822 -1.1010  3.4559
  742SOL    HW2 2226   0.832   1.514   1.963  1.3015 -2.1083  0.3525
  743SOL     OW 2227   0.004   0.891   2.426 -0.1282  0.0727 -0.0025
  743SOL    HW1 2228   0.102   0.894   2.438  0.2980  1.7646 -0.9705
  743SOL    HW2 2229   3.047   0.810   2.457  0.9212  0.8058  0.8466
  744SOL     OW 2230   2.195   2.234   1.454 -0.3669  0.7781  0.9045
  744SOL    HW1 2231   2.107   2.235   1.505  0.4958 -0.8767 -0.5443
  744SOL    HW2 2232   2.272   2.217   1.513  0.3478 -1.5775  0.5182
  745SOL     OW 2233   2.344   1.710   1.354  0.2791  0.1112  0.4056
  745SOL    HW1 2234   2.241   1.687   1.339 -2.9569 -2.5873 -1.3841
  745SOL    HW2 2235   2.372   1.671   1.443 -2.2933 -0.1836  0.1375
  746SOL     OW 2236   2.702   0.882   0.526  0.2641 -0.1664  0.2953
  746SOL    HW1 2237   2.639   0.802   0.495 -0.9542 -1.3231  0.5647
  746SOL    HW2 2238   2.749   0.916   0.438  2.6182  0.3877 -1.7824
  747SOL     OW 2239   1.966   2.217   0.469  0.3698 -0.2707 -0.2672
  747SOL    HW1 2240   2.055   2.274   0.459  1.0221  0.8219  1.1327
  747SOL    HW2 2241   1.886   2.280   0.493 -2.2475 -0.3136 -0.5695
  748SOL     OW 2242   0.964   2.189   0.618  0.3644 -0.1441 -0.1151
  748SOL    HW1 2243   0.979   2.134   0.533 -0.2244 -0.7824  3.3120
  748SOL    HW2 2244   1.014   2.151   0.698 -1.1083  2.0707  0.2021
  749SOL     OW 2245   2.885   0.443   2.410  0.3447  0.4344 -0.1061
  749SOL    HW1 2246   2.880   0.396   2.324  0.0951  4.0942  2.3804
  749SOL    HW2 2247   2.897   0.375   2.484 -3.0512  1.1926  2.5672
  750SOL     OW 2248   1.616   3.064   1.343  0.8862  0.0769  0.5252
  750SOL    HW1 2249   1.673   0.017   1.416 -0.8231 -0.3808  0.5612
  750SOL    HW2 2250   1.569   0.053   1.288  0.7536  3.6727 -2.4433
  751SOL     OW 2251   1.706   2.406   2.808  0.7725 -0.0872 -0.9163
  751SOL    HW1 2252   1.742   2.438   2.903  0.2469 -0.1243  2.4834
  751SOL    HW2 2253   1.775   2.404   2.735 -3.1310  0.4957  2.8057
  752SOL     OW 2254   2.046   1.990   0.255  0.1868 -0.5131  1.1556
  752SOL    HW1 2255   1.996   2.057   0.313 -2.6006  0.8682 -1.5238
  752SOL    HW2 2256   2.145   2.005   0.257 -1.8592 -0.4992 -1.8537
  753SOL     OW 2257   1.574   0.827   2.097  0.4505  0.2941  0.3882
  753SOL    HW1 2258   1.593   0.895   2.167  2.6089  0.6584  1.9502
  753SOL    HW2 2259   1.527   0.746   2.145 -2.2251 -2.2123 -0.7206
  754SOL     OW 2260   0.274   2.750   0.623 -0.0237 -0.2479  0.1706
  754SOL    HW1 2261   0.193   2.693   0.620 -2.3165 -1.6679 -5.6754
  754SOL    HW2 2262   0.238   2.847   0.644 -0.0982  0.6275  0.9794
  755SOL     OW 2263   1.981   0.232   1.249  0.0843  0.0434  0.4438
  755SOL    HW1 2264   2.044   0.262   1.325  0.4393 -0.2646  2.1596
  755SOL    HW2 2265   2.037   0.217   1.162  4.5664 -2.2388  0.6258
  756SOL     OW 2266   1.233   1.373   2.568  0.4775  0.1416  0.1872
  756SOL    HW1 2267   1.322   1.325   2.576  0.1123 -2.1547 -1.3475
  756SOL    HW2 2268   1.203   1.378   2.476 -0.4748 -2.4662  3.2019
  757SOL     OW 2269   2.871   2.766   1.349  0.0130 -0.0979 -0.4055
  757SOL    HW1 2270   2.964   2.757   1.394  1.4515  0.1827 -0.4092
  757SOL    HW2 2271   2.795   2.715   1.402 -2.8797 -0.7939 -0.5123
  758SOL     OW 2272   0.629   3.028   1.690  0.1430 -0.5270  0.0808
  758SOL    HW1 2273   0.544   3.082   1.689  0.9915  0.0969 -1.8432
  758SOL    HW2 2274   0.708   3.087   1.724  1.0459  0.4783  2.7534
  759SOL     OW 2275   2.532   1.153   0.599  0.1870  0.2841  0.0639
  759SOL    HW1 2276   2.525   1.176   0.500 -3.2421 -0.4510  1.2542
  759SOL    HW2 2277   2.557   1.055   0.611 -0.9680  2.4147 -2.4687
  760SOL     OW 2278   2.074   0.591   1.358  0.3964  0.5791  0.0896
  760SOL    HW1 2279   1.975   0.566   1.340 -2.7680  3.4784 -1.7672
  760SOL    HW2 2280   2.141   0.508   1.351  1.3249 -2.3201  1.3155
  761SOL     OW 2281   1.921   3.031   0.155  0.1101 -0.0119 -0.3022
  761SOL    HW1 2282   1.873   3.040   0.246 -1.6556 -1.1070  3.5946
  761SOL    HW2 2283   1.906   2.937   0.115 -0.2774  1.7344  1.3863
  762SOL     OW 2284   2.288   2.121   0.284 -0.0964 -0.2707  0.0961
  762SOL    HW1 2285   2.264   2.220   0.295 -0.1164  1.0878  0.5032
  762SOL    HW2 2286   2.299   2.100   0.183  2.2610  3.0096 -1.0784
  763SOL     OW 2287   0.663   0.951   1.060 -0.0374  0.2805 -0.7498
  763SOL    HW1 2288   0.730   0.901   0.998  0.8903  0.0356  0.3259
  763SOL    HW2 2289   0.651   1.044   1.028 -1.9918 -2.4792  1.6775
  764SOL     OW 2290   2.645   2.257   0.010 -0.5033 -0.7304  0.1625
  764SOL    HW1 2291   2.715   2.234   3.026  0.7312 -0.5217 -0.4935
  764SOL    HW2 2292   2.558   2.299   3.066  3.6983  2.7809  2.7818
  765SOL     OW 2293   0.736   0.633   2.355  0.1229  0.0174 -0.1870
  765SOL    HW1 2294   0.667   0.580   2.407  0.8679 -0.3522  0.1146
  765SOL    HW2 2295   0.817   0.578   2.346  1.6193  2.4498  0.4083
  766SOL     OW 2296   0.107   1.312   2.396 -0.0224  0.2557  0.4927
  766SOL    HW1 2297   0.040   1.262   2.450 -0.7959  1.7172  0.8263
  766SOL    HW2 2298   0.072   1.407   2.373 -1.1350  0.7147  0.9839
  767SOL     OW 2299   0.090   1.762   2.092  0.1047  0.2954  0.1962
  767SOL    HW1 2300   0.152   1.744   2.013 -1.3972 -1.1306  0.7784
  767SOL    HW2 2301   0.145   1.796   2.170  2.0240 -0.3699 -1.8360
  768SOL     OW 2302   1.002   1.047   2.823  0.0459 -0.7049 -0.1551
  768SOL    HW1 2303   0.959   1.097   2.904  3.2314 -1.9828  1.0360
  768SOL    HW2 2304   1.015   1.108   2.738 -0.7115  0.0875 -2.7300
  769SOL     OW 2305   1.833   2.795   2.907  0.2655 -0.1017 -0.8308
  769SOL    HW1 2306   1.774   2.755   2.981 -1.6021  0.0102 -1.6375
  769SOL    HW2 2307   1.787   2.877   2.872  1.3153 -0.6474  1.1053
  770SOL     OW 2308   2.908   0.683   2.521 -0.1586  0.4766  0.0678
  770SOL    HW1 2309   2.926   0.589   2.486  0.1003  0.0317 -0.2439
  770SOL    HW2 2310   2.838   0.723   2.454  1.2155  1.5920 -2.0922
  771SOL     OW 2311   0.731   2.153   1.501  0.3646 -0.3832  0.1315
  771SOL    HW1 2312   0.816   2.112   1.467 -0.4531  1.4417 -1.4317
  771SOL    HW2 2313   0.725   2.243   1.461 -0.5765 -2.4482 -1.2518
  772SOL     OW 2314   0.503   0.638   2.755  0.7286 -0.0433 -0.2022
  772SOL    HW1 2315   0.581   0.632   2.688  0.3264 -0.2768 -0.9522
  772SOL    HW2 2316   0.525   0.708   2.825  0.5929  0.4087 -1.6599
  773SOL     OW 2317   2.402   1.413   1.668 -0.3287  0.2177 -0.1569
  773SOL    HW1 2318   2.448   1.366   1.744 -1.8799  0.7370  0.0019
  773SOL    HW2 2319   2.329   1.355   1.638 -0.4521  2.3140  1.8660
  774SOL     OW 2320   1.023   0.654   0.421  0.0781 -0.0314  0.6427
  774SOL    HW1 2321   1.042   0.635   0.319 -1.9144  0.0107 -2.9178
  774SOL    HW2 2322   1.094   0.609   0.479  0.9520 -2.5245 -1.0415
  775SOL     OW 2323   2.148   2.463   3.018 -0.1100  0.1503  0.4589
  775SOL    HW1 2324   2.143   2.526   0.007  0.7394  1.0495 -1.4118
  775SOL    HW2 2325   2.057   2.460   2.967 -1.0342  0.0589  0.6197
  776SOL     OW 2326   2.144   0.035   1.996 -0.2063  0.1435 -0.3227
  776SOL    HW1 2327   2.097   0.072   2.081 -1.3128  1.3821  0.5593
  776SOL    HW2 2328   2.217   3.065   2.030  0.6621  2.2929  0.1899
  777SOL     OW 2329   0.501   1.186   2.753  0.1944 -0.2278 -0.3980
  777SOL    HW1 2330   0.439   1.125   2.698 -0.8035  2.6942  3.5051
  777SOL    HW2 2331   0.465   1.187   2.850 -0.7322  1.1736 -0.5054
  778SOL     OW 2332   0.776   0.026   0.174  0.7436 -0.0463  0.7069
  778SOL    HW1 2333   0.876   0.041   0.154 -1.2596  1.4522  0.3227
  778SOL    HW2 2334   0.765   3.047   0.249 -1.6364 -1.3744  0.7414
  779SOL     OW 2335   0.014   1.281   2.921  0.0902  0.1523  0.2509
  779SOL    HW1 2336   3.047   1.212   2.965 -1.6340  1.1791 -1.5220
  779SOL    HW2 2337   0.057   1.233   2.833  1.7125 -5.8620 -2.8567
  780SOL     OW 2338   1.971   0.722   2.685 -0.4503  0.0270  0.1958
  780SOL    HW1 2339   1.999   0.649   2.621  2.4008  1.2792 -2.1606
  780SOL    HW2 2340   1.880   0.712   2.726 -0.2908  0.1746 -3.4296
  781SOL     OW 2341   2.261   1.480   1.981 -0.1262 -0.2745  0.7983
  781SOL    HW1 2342   2.235   1.382   1.998 -0.3282 -0.3071  2.2327
  781SOL    HW2 2343   2.232   1.513   1.893  0.6373 -1.1681  1.0078
  782SOL     OW 2344   1.117   1.629   2.284  0.3272 -0.0519 -0.1014
  782SOL    HW1 2345   1.076   1.619   2.189  1.7874  0.4938  2.8945
  782SOL    HW2 2346   1.068   1.705   2.331 -2.4017 -0.5975  1.3988
  783SOL     OW 2347   1.046   0.043   1.064  0.1397  0.4217 -0.0838
  783SOL    HW1 2348   1.088   0.103   1.138 -0.3341 -0.3577 -1.2059
  783SOL    HW2 2349   0.949   0.027   1.088 -0.7077  2.9566 -0.8808
  784SOL     OW 2350   1.332   0.645   2.945  0.0187 -0.0244 -0.1142
  784SOL    HW1 2351   1.366   0.663   2.852 -1.4203 -0.9172  4.2621
  784SOL    HW2 2352   1.360   0.718   3.016  2.3546 -0.9159  0.7763
  785SOL     OW 2353   1.427   0.406   2.998  0.1346 -0.2562  0.4737
  785SOL    HW1 2354   1.391   0.496   2.979  1.2834 -0.3801  1.9959
  785SOL    HW2 2355   1.438   0.392   0.006 -0.4919  1.8916 -1.5165
  786SOL     OW 2356   0.089   1.458   0.411  0.0779  0.2724 -0.3338
  786SOL    HW1 2357   3.081   1.499   0.417  0.2967  1.9714 -0.5189
  786SOL    HW2 2358   0.145   1.530   0.364  0.9197  1.1786  1.5077
  787SOL     OW 2359   1.748   1.675   0.101  0.4313 -0.5801  0.1166
  787SOL    HW1 2360   1.806   1.723   0.167 -1.6738 -1.1776 -1.4805
  787SOL    HW2 2361   1.730   1.582   0.128  0.0529  2.2770 -2.8883
  788SOL     OW 2362   1.594   1.728   1.191 -0.5789 -0.5512  0.1580
  788SOL    HW1 2363   1.661   1.731   1.268 -2.5140  0.4379 -3.2489
  788SOL    HW2 2364   1.614   1.794   1.117  0.8367  1.4179 -1.2934
  789SOL     OW 2365   0.045   1.496   2.010 -0.0546  0.1589  0.6417
  789SOL    HW1 2366   0.014   1.575   2.070 -3.1966 -0.4103  1.3238
  789SOL    HW2 2367   3.064   1.420   2.013  1.2672 -0.3839  0.1757
  790SOL     OW 2368   0.549   3.077   0.003  0.0413 -0.4411  0.0152
  790SOL    HW1 2369   0.528   2.979   0.011 -1.3002 -0.7117  0.2017
  790SOL    HW2 2370   0.628   0.010   0.063  0.6604 -0.4578  1.3940
  791SOL     OW 2371   0.660   0.071   2.352  0.1292 -0.7559 -0.0494
  791SOL    HW1 2372   0.598   0.119   2.422 -1.1397  0.9250  2.8667
  791SOL    HW2 2373   0.734   0.020   2.396  0.1729  1.0632 -2.1184
  792SOL     OW 2374   1.828   0.449   2.319  0.2816  0.0365  0.2617
  792SOL    HW1 2375   1.788   0.519   2.384 -2.3621  2.2971  2.2200
  792SOL    HW2 2376   1.757   0.433   2.245 -2.5151 -0.5520  2.4217
  793SOL     OW 2377   2.729   0.676   1.233  0.1613  0.0370 -0.3992
  793SOL    HW1 2378   2.774   0.597   1.278 -2.2635  1.7786  0.4317
  793SOL    HW2 2379   2.763   0.756   1.289 -3.4364  0.9841  3.3846
  794SOL     OW 2380   0.257   0.552   1.984 -0.0062  0.4809  0.3890
  794SOL    HW1 2381   0.185   0.577   2.051  0.7365  1.2729 -1.8635
  794SOL    HW2 2382   0.344   0.599   2.008  0.2449 -0.5892 -1.6263
  795SOL     OW 2383   2.778   1.236   0.110  0.3550  0.3530  0.3301
  795SOL    HW1 2384   2.780   1.258   0.010 -0.9631  0.5897 -2.9502
  795SOL    HW2 2385   2.872   1.223   0.143 -0.2376  0.8664 -0.7001
  796SOL     OW 2386   3.006   2.586   0.392  0.4356 -0.1306  0.7932
  796SOL    HW1 2387   3.036   2.684   0.389  4.4617  0.9884  0.5573
  796SOL    HW2 2388   3.006   2.555   0.294  0.2880 -2.2887 -1.2260
  797SOL     OW 2389   1.942   2.551   2.433 -0.2956  0.5096  0.2257
  797SOL    HW1 2390   1.988   2.475   2.482 -0.7595  2.4435 -0.0888
  797SOL    HW2 2391   1.972   2.636   2.480  0.9714  1.2587  0.8475
  798SOL     OW 2392   0.221   1.047   0.793  0.3285  1.0744  0.7676
  798SOL    HW1 2393   0.158   0.987   0.843  1.3805  1.5877 -1.2320
  798SOL    HW2 2394   0.176   1.109   0.731  1.7165 -1.1412  0.0352
  799SOL     OW 2395   0.071   0.568   2.929  0.1511  0.1900  0.0920
  799SOL    HW1 2396   0.020   0.609   2.853  3.2080  1.9498  5.0563
  799SOL    HW2 2397   0.155   0.532   2.893 -0.8619 -1.8434 -0.8956
  800SOL     OW 2398   2.879   1.829   0.380  0.1436 -0.1524  0.2665
  800SOL    HW1 2399   2.948   1.895   0.412  0.2661 -0.4486  0.7607
  800SOL    HW2 2400   2.796   1.852   0.430 -0.5634  2.0892 -1.7475
  801SOL     OW 2401   1.690   1.278   1.249  0.5414 -0.4951  0.5648
  801SOL    HW1 2402   1.758   1.339   1.294 -1.6606 -1.5255 -0.3459
  801SOL    HW2 2403   1.621   1.340   1.209 -1.0766 -1.1269 -0.0558
  802SOL     OW 2404   1.119   1.951   1.755 -0.1535 -0.0789  0.5617
  802SOL    HW1 2405   1.157   1.918   1.845  0.7540  0.3658 -0.0595
  802SOL    HW2 2406   1.095   2.050   1.765  0.8049  1.8978  1.8864
  803SOL     OW 2407   0.140   1.786   0.685  0.3578 -0.5101 -0.0334
  803SOL    HW1 2408   0.197   1.793   0.603  2.3823  2.1492 -0.5664
  803SOL    HW2 2409   0.102   1.878   0.717  0.1189  0.9679  0.4027
  804SOL     OW 2410   0.972   2.477   1.388 -0.7428 -0.5299 -0.4411
  804SOL    HW1 2411   0.990   2.380   1.373 -0.6770 -1.1033  1.4828
  804SOL    HW2 2412   1.036   2.535   1.336  0.2631  0.0216 -2.0542
  805SOL     OW 2413   2.006   1.452   3.089 -0.8725 -0.2380 -0.6104
  805SOL    HW1 2414   2.056   1.522   0.046  3.5040 -2.7579  1.6658
  805SOL    HW2 2415   1.941   1.485   3.017  2.1073 -1.1253 -2.4035
  806SOL     OW 2416   1.627   2.897   1.129 -0.0826 -0.3665 -0.1818
  806SOL    HW1 2417   1.631   2.962   1.207  0.4382  1.5408  1.4341
  806SOL    HW2 2418   1.539   2.849   1.113 -2.0871 -2.1174 -1.6562
  807SOL     OW 2419   2.316   0.172   2.783  0.1356  0.1334 -0.4438
  807SOL    HW1 2420   2.267   0.260   2.799  0.3867 -0.6421  0.4348
  807SOL    HW2 2421   2.412   0.176   2.820  2.9011  0.2405 -3.0022
  808SOL     OW 2422   0.348   0.991   0.313 -0.4420 -0.5860 -0.3283
  808SOL    HW1 2423   0.393   0.939   0.236 -3.5409  0.9219  2.2222
  808SOL    HW2 2424   0.329   1.087   0.289  1.1545  0.2572  2.8525
  809SOL     OW 2425   2.815   1.188   2.246 -0.1433  0.0585  0.0552
  809SOL    HW1 2426   2.901   1.143   2.214 -0.6788 -1.4559  0.9952
  809SOL    HW2 2427   2.833   1.255   2.320 -0.0419 -0.2238 -1.3713
  810SOL     OW 2428   1.726   0.501   1.542  0.0531  0.1336 -0.0123
  810SOL    HW1 2429   1.796   0.446   1.590  0.4569  1.7950 -0.5820
  810SOL    HW2 2430   1.752   0.517   1.440  1.2878 -0.5936 -3.5878
  811SOL     OW 2431   2.036   2.892   1.544 -0.0156  0.1158 -0.6326
  811SOL    HW1 2432   1.992   2.835   1.616  3.9623 -0.5711  0.6627
  811SOL    HW2 2433   2.102   2.956   1.588 -0.5505 -1.3121 -1.6900
  812SOL     OW 2434   1.700   0.063   0.036  0.2546 -0.2508  0.1056
  812SOL    HW1 2435   1.789   0.025   0.047 -3.0358  0.8722 -3.0051
  812SOL    HW2 2436   1.710   0.159   0.067  1.0294  0.7100  2.7206
  813SOL     OW 2437   1.898   1.123   1.927  0.1647  1.2071 -0.0101
  813SOL    HW1 2438   1.913   1.098   2.023 -0.3536  1.9492 -1.2795
  813SOL    HW2 2439   1.944   1.041   1.878  0.4097 -0.5117  0.9581
  814SOL     OW 2440   1.641   1.151   1.927  0.4530  0.5119 -0.8679
  814SOL    HW1 2441   1.743   1.139   1.920  2.3179  0.5449  0.8859
  814SOL    HW2 2442   1.616   1.151   2.025 -0.3116  0.2781 -0.4391
  815SOL     OW 2443   0.645   0.728   0.294  0.0695  0.0983 -0.3915
  815SOL    HW1 2444   0.687   0.805   0.356  2.3712  1.9259  2.2090
  815SOL    HW2 2445   0.575   0.662   0.337 -1.6287 -0.7148 -1.3830
  816SOL     OW 2446   2.324   1.572   2.765  0.0513  0.0838 -0.1609
  816SOL    HW1 2447   2.225   1.570   2.735  0.0091  0.5624 -2.0789
  816SOL    HW2 2448   2.343   1.645   2.834  0.1038  0.2205  1.8985
  817SOL     OW 2449   0.526   2.678   0.647  0.3618  0.1680  0.4258
  817SOL    HW1 2450   0.507   2.578   0.645  1.1635 -1.4699  1.6415
  817SOL    HW2 2451   0.433   2.717   0.623 -1.4578 -1.7991  1.6656
  818SOL     OW 2452   1.657   0.362   2.831 -0.2481  0.3868  0.2180
  818SOL    HW1 2453   1.717   0.298   2.883 -0.8221  0.7941  0.0551
  818SOL    HW2 2454   1.574   0.384   2.888  0.0172 -0.8390  2.2680
  819SOL     OW 2455   1.475   0.640   0.518 -0.2477  0.4938 -0.1048
  819SOL    HW1 2456   1.432   0.593   0.442 -1.2008 -0.5822 -0.1090
  819SOL    HW2 2457   1.543   0.703   0.478  3.6770 -0.8921  2.9982
  820SOL     OW 2458   1.792   0.962   0.665 -0.0483  0.0589  0.1418
  820SOL    HW1 2459   1.767   0.899   0.745  0.6220 -1.1573  3.3699
  820SOL    HW2 2460   1.764   0.916   0.579 -1.1347  1.0894 -0.0434
  821SOL     OW 2461   2.408   2.910   0.381  0.6951  0.7578 -0.3033
  821SOL    HW1 2462   2.449   2.989   0.421  0.2491 -0.3730  0.8343
  821SOL    HW2 2463   2.412   2.892   0.281 -1.0424 -3.0412  4.0234
  822SOL     OW 2464   0.110   3.035   2.170  0.4232  0.1079 -0.6547
  822SOL    HW1 2465   0.183   3.032   2.243  1.2110 -1.1572  2.8686
  822SOL    HW2 2466   0.126   0.020   2.106  1.6311  1.4379  0.6280
  823SOL     OW 2467   2.606   2.316   1.789 -0.1825 -0.2802 -0.0625
  823SOL    HW1 2468   2.509   2.354   1.783  1.0644  0.1801 -1.4797
  823SOL    HW2 2469   2.597   2.215   1.811 -1.6581 -0.8507  1.3869
  824SOL     OW 2470   1.175   2.754   2.194 -0.3796 -0.2547  0.1696
  824SOL    HW1 2471   1.087   2.709   2.170 -1.9952  3.4876 -0.5228
  824SOL    HW2 2472   1.238   2.762   2.113  1.2290 -0.7719 -0.8495
  825SOL     OW 2473   1.596   1.615   0.713 -0.4454 -0.0477 -0.5459
  825SOL    HW1 2474   1.683   1.602   0.769 -0.1757 -0.1904  0.2915
  825SOL    HW2 2475   1.612   1.666   0.628  0.7022  1.8128  0.6599
  826SOL     OW 2476   1.787   0.784   0.175 -0.1126  0.0769  0.0018
  826SOL    HW1 2477   1.863   0.726   0.218  3.2087 -0.3501  1.5476
  826SOL    HW2 2478   1.804   0.793   0.076 -1.2623  0.2197 -1.7344
  827SOL     OW 2479   0.251   1.126   1.226 -0.3850  0.0897 -0.4200
  827SOL    HW1 2480   0.192   1.209   1.227 -0.6140  1.8468  1.3819
  827SOL    HW2 2481   0.321   1.135   1.151 -0.5201 -2.2783 -0.3417
  828SOL     OW 2482   2.045   1.620   1.774 -0.1711 -0.2523 -0.1113
  828SOL    HW1 2483   2.035   1.521   1.764 -1.1864  2.2465 -1.7309
  828SOL    HW2 2484   2.137   1.645   1.727  1.9029 -3.2995 -0.8045
  829SOL     OW 2485   0.300   1.879   0.445  0.0822 -0.4164  0.1076
  829SOL    HW1 2486   0.366   1.805   0.425  0.7803 -1.2737  0.1528
  829SOL    HW2 2487   0.345   1.971   0.452 -1.2444  0.4671  1.0975
  830SOL     OW 2488   1.221   0.492   0.530  0.4710 -0.1334 -0.2592
  830SOL    HW1 2489   1.317   0.497   0.563 -0.6725 -0.5696  0.1193
  830SOL    HW2 2490   1.154   0.474   0.608  0.5674  1.4184  1.2518
  831SOL     OW 2491   2.734   1.380   2.956  0.2653 -0.2722 -0.2442
  831SOL    HW1 2492   2.753   1.440   2.874 -1.4859  0.4008 -0.2046
  831SOL    HW2 2493   2.710   1.445   3.034 -1.2766  2.6888 -0.1689
  832SOL     OW 2494   0.957   2.849   0.030 -0.1749  0.1792 -0.5165
  832SOL    HW1 2495   0.918   2.852   3.025  1.1499  1.6855 -2.1252
  832SOL    HW2 2496   1.025   2.928   0.044  3.0734 -1.5727 -1.7962
  833SOL     OW 2497   0.933   0.692   2.031  0.1357 -0.2812  0.0800
  833SOL    HW1 2498   0.988   0.640   2.101 -1.1670  0.4575 -1.1477
  833SOL    HW2 2499   0.918   0.794   2.046  0.1441  3.8261  1.1005
  834SOL     OW 2500   0.286   0.720   1.323 -0.1531  0.7700 -0.4630
  834SOL    HW1 2501   0.224   0.763   1.258 -0.9933 -0.5297  2.2887
  834SOL    HW2 2502   0.383   0.742   1.302 -1.0678 -2.9339 -0.0961
  835SOL     OW 2503   2.853   0.511   1.447 -0.0307  0.3747 -0.1844
  835SOL    HW1 2504   2.780   0.539   1.516 -1.1592 -0.5019  0.6781
  835SOL    HW2 2505   2.871   0.411   1.459  0.3548  0.7901  1.1741
  836SOL     OW 2506   0.498   2.062   0.473  0.0850  0.0980  0.0318
  836SOL    HW1 2507   0.484   2.156   0.426 -0.2679  1.3893 -0.7260
  836SOL    HW2 2508   0.575   2.019   0.425  2.2967 -0.0254  0.5026
  837SOL     OW 2509   2.125   1.858   2.128  1.0576  0.3230 -0.1737
  837SOL    HW1 2510   2.171   1.898   2.047 -0.3831 -0.2584 -1.0478
  837SOL    HW2 2511   2.142   1.917   2.213 -2.0517 -0.5226  0.6642
  838SOL     OW 2512   0.075   1.353   1.600  0.2764 -0.6090 -0.2234
  838SOL    HW1 2513   0.134   1.295   1.656 -2.6283  0.3885 -2.0982
  838SOL    HW2 2514   0.026   1.426   1.650 -0.1462  0.3424 -3.7413
  839SOL     OW 2515   0.293   0.172   0.677 -0.0700  0.0450  0.4877
  839SOL    HW1 2516   0.259   0.194   0.773 -0.0573 -0.1498 -1.6297
  839SOL    HW2 2517   0.395   0.192   0.668 -0.6206 -0.9328 -1.4309
  840SOL     OW 2518   2.931   0.270   2.708 -0.6031 -0.2237 -0.0455
  840SOL    HW1 2519   3.031   0.285   2.688 -0.5135 -0.2159  0.7581
  840SOL    HW2 2520   2.905   0.221   2.797  1.2575 -1.3474  4.1838
  841SOL     OW 2521   0.503   2.818   0.083  0.1042  0.2185  0.1477
  841SOL    HW1 2522   0.432   2.801   0.154 -1.2164 -0.0906 -0.5966
  841SOL    HW2 2523   0.595   2.794   0.120  0.9556  1.9288  0.9731
  842SOL     OW 2524   0.967   0.170   0.846  0.0963  0.3565  0.0962
  842SOL    HW1 2525   0.871   0.144   0.826  0.8849  1.3457  0.2703
  842SOL    HW2 2526   1.011   0.119   0.921  0.6730 -0.5947 -0.7499
  843SOL     OW 2527   0.164   1.125   2.745  0.0019  0.2829 -0.2356
  843SOL    HW1 2528   0.121   1.056   2.802  0.9271 -2.3329 -3.8192
  843SOL    HW2 2529   0.194   1.088   2.652  0.2594  0.9179  0.4328
  844SOL     OW 2530   0.787   2.251   2.307 -0.5043  0.0330  0.4676
  844SOL    HW1 2531   0.743   2.264   2.213  0.0438 -1.0695  0.0911
  844SOL    HW2 2532   0.882   2.222   2.305 -1.2829 -0.2379 -0.3838
  845SOL     OW 2533   2.230   2.657   2.675 -0.8526  0.2871  0.2648
  845SOL    HW1 2534   2.289   2.691   2.752  0.4995 -0.8702  0.0274
  845SOL    HW2 2535   2.199   2.731   2.612  0.8775 -0.6533 -1.0592
  846SOL     OW 2536   1.744   1.813   2.168  0.3256 -0.3438 -0.0993
  846SOL    HW1 2537   1.810   1.770   2.104 -2.2804  0.0702  2.2755
  846SOL    HW2 2538   1.661   1.754   2.185 -0.3020 -1.9559 -1.8836
  847SOL     OW 2539   2.896   2.993   2.890 -0.7780  0.3271 -0.0743
  847SOL    HW1 2540   2.976   3.040   2.840 -0.9722  2.2410  1.0362
  847SOL    HW2 2541   2.883   3.046   2.975 -0.6007  1.7976  0.6457
  848SOL     OW 2542   0.077   0.682   0.391  0.2751  0.3220  0.5815
  848SOL    HW1 2543   0.015   0.751   0.428 -0.0379 -1.6833  1.2662
  848SOL    HW2 2544   0.155   0.662   0.454 -0.5860  1.6499 -1.6807
  849SOL     OW 2545   1.154   0.164   2.119 -0.5633 -0.2709 -0.6051
  849SOL    HW1 2546   1.057   0.136   2.124  3.1502 -0.7133  2.4923
  849SOL    HW2 2547   1.189   0.197   2.212 -1.0279 -0.7882 -0.4048
  850SOL     OW 2548   0.454   0.859   0.514  0.7354  0.2544  0.0663
  850SOL    HW1 2549   0.401   0.916   0.446 -2.0016  1.6457 -0.1175
  850SOL    HW2 2550   0.552   0.856   0.491 -2.6755 -3.2923 -0.6547
  851SOL     OW 2551   0.388   1.268   0.259  0.0999 -0.4035  0.6137
  851SOL    HW1 2552   0.350   1.353   0.300  0.9537 -0.9963  0.2250
  851SOL    HW2 2553   0.487   1.256   0.288  3.5513  2.5630  2.4951
  852SOL     OW 2554   1.427   0.958   1.901  0.3765  0.0676  0.1758
  852SOL    HW1 2555   1.467   1.051   1.888  1.5593 -0.3670 -3.2317
  852SOL    HW2 2556   1.461   0.911   1.983 -1.2119 -0.5810 -3.6223
  853SOL     OW 2557   2.691   1.327   0.395  0.0863  0.2549 -0.1694
  853SOL    HW1 2558   2.769   1.299   0.454  0.4725 -0.7841  0.4072
  853SOL    HW2 2559   2.713   1.310   0.293 -0.0941  0.1246 -0.7668
  854SOL     OW 2560   1.078   1.086   2.288 -0.0959  0.4121 -0.2035
  854SOL    HW1 2561   0.996   1.105   2.344  2.5565 -0.6579  3.1046
  854SOL    HW2 2562   1.108   0.994   2.307 -0.7354  2.1527  2.4125
  855SOL     OW 2563   0.379   2.624   3.008 -0.1626  0.1314 -0.2616
  855SOL    HW1 2564   0.432   2.676   3.078 -1.8831  2.7101 -1.5440
  855SOL    HW2 2565   0.290   2.581   3.044 -0.0621 -3.6967  0.7205
  856SOL     OW 2566   1.140   0.817   2.280 -0.5174  0.3615 -0.0050
  856SOL    HW1 2567   1.188   0.780   2.197 -1.5204  0.5477 -0.5665
  856SOL    HW2 2568   1.129   0.742   2.348 -0.0418 -3.8467  3.3314
  857SOL     OW 2569   1.359   0.838   2.470 -0.6913 -0.2002 -0.6776
  857SOL    HW1 2570   1.409   0.771   2.415 -1.5508 -1.5625  2.5301
  857SOL    HW2 2571   1.279   0.874   2.420 -1.7443 -2.1498  1.0435
  858SOL     OW 2572   3.037   1.086   2.119 -0.3339 -0.1849 -0.5171
  858SOL    HW1 2573   3.069   1.040   2.034  1.2716  0.4651  0.2438
  858SOL    HW2 2574   0.025   1.113   2.178  2.8129  0.7779  2.8115
  859SOL     OW 2575   2.418   0.148   0.645  0.7247  0.0286 -0.2003
  859SOL    HW1 2576   2.477   0.177   0.722 -1.6293 -4.4880 -0.3749
  859SOL    HW2 2577   2.467   0.139   0.557 -1.4349  1.2997  2.2875
  860SOL     OW 2578   1.740   2.981   0.422 -0.3876 -0.1703 -0.2663
  860SOL    HW1 2579   1.687   3.033   0.493  1.9723  2.4856 -0.6841
  860SOL    HW2 2580   1.801   2.927   0.476 -2.5936 -0.9540 -2.7622
  861SOL     OW 2581   1.329   0.403   1.221 -0.6874 -0.1801 -0.2378
  861SOL    HW1 2582   1.276   0.471   1.274 -1.6468  0.4090  0.6709
  861SOL    HW2 2583   1.318   0.416   1.120  0.6329 -0.1969 -1.7950
  862SOL     OW 2584   1.281   0.227   2.370 -0.7681  0.2669 -0.4969
  862SOL    HW1 2585   1.356   0.180   2.418 -0.9750 -1.2298 -2.3697
  862SOL    HW2 2586   1.308   0.319   2.334 -0.7086 -1.6256  0.3109
  863SOL     OW 2587   2.899   2.902   0.785 -0.2393  0.8755 -0.4285
  863SOL    HW1 2588   2.824   2.867   0.726  0.6646  2.9731 -1.0272
  863SOL    HW2 2589   2.953   2.819   0.820  0.4337 -0.6097 -1.0096
  864SOL     OW 2590   2.332   0.190   2.266  0.6698  0.1920 -0.7244
  864SOL    HW1 2591   2.398   0.112   2.264  0.7296  2.3611  2.0383
  864SOL    HW2 2592   2.279   0.187   2.356 -0.7950 -0.1080  1.3895
  865SOL     OW 2593   1.217   1.177   1.878 -0.0989  0.1004  0.0058
  865SOL    HW1 2594   1.153   1.117   1.825  1.0952  0.4498 -0.0364
  865SOL    HW2 2595   1.303   1.185   1.827  0.1158 -1.2710  0.7226
  866SOL     OW 2596   2.052   2.658   1.085 -0.7403  0.5492  0.0271
  866SOL    HW1 2597   2.037   2.750   1.038 -0.2860  0.0983 -0.3013
  866SOL    HW2 2598   1.970   2.641   1.141 -0.5597  2.1884  0.3588
  867SOL     OW 2599   2.073   2.985   0.573  0.0811 -0.5059 -0.0201
  867SOL    HW1 2600   2.161   2.971   0.624 -0.2811 -0.1495 -1.5572
  867SOL    HW2 2601   2.081   3.072   0.525  0.0988  1.3041  1.5834
  868SOL     OW 2602   3.005   2.176   1.654  0.4419 -0.2087 -0.3878
  868SOL    HW1 2603   3.048   2.179   1.562 -0.8550 -1.3461  1.8547
  868SOL    HW2 2604   3.028   2.260   1.707  0.8626 -0.3853 -1.1976
  869SOL     OW 2605   2.176   2.259   2.210 -0.3769  0.1577  0.1790
  869SOL    HW1 2606   2.078   2.271   2.232  2.3279  2.5952 -0.8645
  869SOL    HW2 2607   2.228   2.347   2.234 -0.6584  1.4938 -0.1379
  870SOL     OW 2608   1.479   1.373   0.755  0.3902  0.0752  0.4140
  870SOL    HW1 2609   1.524   1.462   0.741 -0.1684  0.8631  0.4832
  870SOL    HW2 2610   1.560   1.311   0.774 -0.8310  2.5498 -0.0145
  871SOL     OW 2611   2.898   1.755   2.044 -0.6346  0.4130 -0.0652
  871SOL    HW1 2612   2.862   1.845   2.078  3.1168 -0.6973  1.1979
  871SOL    HW2 2613   3.000   1.745   2.063 -0.6470  1.4603 -1.7887
  872SOL     OW 2614   1.046   1.552   2.647  0.4304  0.5856 -0.0629
  872SOL    HW1 2615   1.009   1.625   2.590  3.3464 -1.6297  0.9169
  872SOL    HW2 2616   1.118   1.497   2.599  1.3321  0.9020  0.8768
  873SOL     OW 2617   0.576   1.213   1.812 -0.3402 -0.3368 -0.3564
  873SOL    HW1 2618   0.607   1.308   1.787  1.0953  2.6111 -0.1040
  873SOL    HW2 2619   0.637   1.177   1.886 -0.2635 -0.1519  0.1505
  874SOL     OW 2620   1.841   1.056   1.522  0.0334  0.1398 -0.3200
  874SOL    HW1 2621   1.895   1.010   1.448 -1.8606  1.7277  0.5907
  874SOL    HW2 2622   1.772   0.993   1.567 -2.5608 -0.4753 -0.4826
  875SOL     OW 2623   2.847   3.088   0.040 -0.3581  0.5354  0.1281
  875SOL    HW1 2624   2.813   2.993   0.062 -2.0526 -0.4858  2.7990
  875SOL    HW2 2625   2.903   0.035   0.116  1.4734  1.2933 -0.5088
  876SOL     OW 2626   0.924   1.145   0.313  0.1277 -0.2057 -0.5557
  876SOL    HW1 2627   0.969   1.053   0.307  1.4569  1.1100 -0.1015
  876SOL    HW2 2628   0.984   1.213   0.359  0.2157 -1.2041  0.5926
  877SOL     OW 2629   2.706   2.801   0.609 -0.0667  0.5545  0.6600
  877SOL    HW1 2630   2.620   2.789   0.664 -1.9282 -1.4015  1.0665
  877SOL    HW2 2631   2.749   2.715   0.580  2.5273  0.7581 -0.3566
  878SOL     OW 2632   2.040   1.793   0.582 -0.1102  0.6094  0.4476
  878SOL    HW1 2633   2.130   1.826   0.543  0.1799  2.5338 -1.1308
  878SOL    HW2 2634   1.968   1.851   0.540 -0.7078  1.7405 -1.0151
  879SOL     OW 2635   2.739   1.726   1.800  0.6028 -0.0210  0.7524
  879SOL    HW1 2636   2.811   1.716   1.728 -0.4052 -1.0994  2.7773
  879SOL    HW2 2637   2.779   1.711   1.890 -0.7338  0.9213  2.6010
  880SOL     OW 2638   0.473   2.065   0.964  0.1628 -0.0476 -0.4265
  880SOL    HW1 2639   0.507   2.010   1.047  2.2680 -2.5715  1.4382
  880SOL    HW2 2640   0.492   2.017   0.879  1.2707 -0.5957  0.5073
  881SOL     OW 2641   0.834   0.449   1.370 -0.1480  0.4154 -0.2177
  881SOL    HW1 2642   0.786   0.524   1.414  0.0565 -1.6562  1.6783
  881SOL    HW2 2643   0.785   0.362   1.393  0.1886  1.7856  1.2039
  882SOL     OW 2644   2.306   1.311   1.286 -0.2584 -0.6300  0.3188
  882SOL    HW1 2645   2.299   1.291   1.186  0.1671  1.6078  3.8669
  882SOL    HW2 2646   2.400   1.300   1.315 -1.2349  1.9562 -0.0776
  883SOL     OW 2647   1.432   0.237   1.747 -0.5982 -0.1758  0.3632
  883SOL    HW1 2648   1.369   0.221   1.824 -0.1840 -0.3844 -0.4431
  883SOL    HW2 2649   1.464   0.153   1.700 -0.2323 -1.3949 -0.8887
  884SOL     OW 2650   2.832   0.349   2.156 -0.4770 -0.2402 -0.0762
  884SOL    HW1 2651   2.766   0.426   2.147 -0.9594  0.3408 -0.9392
  884SOL    HW2 2652   2.900   0.353   2.079  0.0463  1.8054  0.5453
  885SOL     OW 2653   1.454   1.587   2.939 -0.7591 -0.1676  0.6331
  885SOL    HW1 2654   1.351   1.604   2.931  0.8231 -1.7097 -2.7737
  885SOL    HW2 2655   1.507   1.618   2.857 -1.0776  0.3228 -0.2029
  886SOL     OW 2656   1.983   0.252   3.017  1.1517  0.1325  0.0680
  886SOL    HW1 2657   2.010   0.180   3.083 -0.5088  1.9960 -0.5549
  886SOL    HW2 2658   1.995   0.220   2.921  0.1566 -1.3917  0.6893
  887SOL     OW 2659   1.378   2.958   1.422  0.8332  0.2653  0.1756
  887SOL    HW1 2660   1.457   2.968   1.364 -5.6395  0.0806  1.9871
  887SOL    HW2 2661   1.371   2.867   1.469 -2.2535 -0.9346 -1.6960
  888SOL     OW 2662   1.941   1.692   2.038  0.4545  0.2642  0.1859
  888SOL    HW1 2663   1.980   1.683   1.948 -2.7914 -1.4092 -0.0892
  888SOL    HW2 2664   1.997   1.755   2.088 -3.2803 -1.9361  0.0116
  889SOL     OW 2665   2.234   2.391   0.601  0.3343  0.2363 -0.6442
  889SOL    HW1 2666   2.253   2.300   0.643 -0.3022 -0.0586 -0.3245
  889SOL    HW2 2667   2.287   2.462   0.653  0.6419  2.5796  3.2074
  890SOL     OW 2668   1.601   1.983   0.483 -0.4769  0.1913  0.0752
  890SOL    HW1 2669   1.573   1.999   0.389 -0.7686  1.6558  4.0175
  890SOL    HW2 2670   1.601   1.878   0.497  0.3030 -2.0381 -1.7191
  891SOL     OW 2671   2.583   0.862   0.123  0.0834 -0.2304  0.0097
  891SOL    HW1 2672   2.542   0.955   0.101 -1.2707 -1.6419  0.4616
  891SOL    HW2 2673   2.638   0.874   0.208 -3.9219  0.4554  0.0859
  892SOL     OW 2674   2.193   1.142   2.956 -0.2230 -0.6217 -0.6199
  892SOL    HW1 2675   2.225   1.238   2.976  1.8247 -0.7171  1.2283
  892SOL    HW2 2676   2.175   1.123   2.858 -3.9180  0.8909  0.6119
  893SOL     OW 2677   1.819   2.552   1.443 -0.9211  0.2868  0.0633
  893SOL    HW1 2678   1.824   2.619   1.362  0.8195 -1.9506  0.1728
  893SOL    HW2 2679   1.910   2.558   1.492  1.6022  0.0997  0.5627
  894SOL     OW 2680   2.721   2.964   0.391 -0.3632 -0.1615 -0.3054
  894SOL    HW1 2681   2.747   2.919   0.307 -4.0202  5.4472  1.1056
  894SOL    HW2 2682   2.699   2.904   0.469  2.0585 -0.0837 -4.4702
  895SOL     OW 2683   2.402   2.325   2.978  0.2664  0.4322  0.2529
  895SOL    HW1 2684   2.429   2.335   2.880 -0.0082  1.2750 -0.4335
  895SOL    HW2 2685   2.315   2.379   2.993 -0.2892 -1.9043  2.1273
  896SOL     OW 2686   2.221   0.234   2.525 -0.4077 -0.7104 -0.3018
  896SOL    HW1 2687   2.240   0.199   2.620  0.7572 -0.7043  0.2915
  896SOL    HW2 2688   2.123   0.223   2.494  1.0010 -0.1310 -1.5551
  897SOL     OW 2689   0.250   1.723   1.847 -0.4962  0.0355  0.3288
  897SOL    HW1 2690   0.282   1.634   1.817 -0.6210  1.7517  0.4506
  897SOL    HW2 2691   0.327   1.785   1.873 -0.4945 -1.5606  1.4983
  898SOL     OW 2692   2.574   1.720   1.581  0.3037 -0.4583  0.3875
  898SOL    HW1 2693   2.625   1.723   1.668 -0.4017 -2.6763 -0.8898
  898SOL    HW2 2694   2.569   1.818   1.547 -0.4611  2.4768 -0.3205
  899SOL     OW 2695   1.800   2.686   1.213  0.1118 -0.3548 -0.6392
  899SOL    HW1 2696   1.722   2.640   1.167  2.8448  1.6890 -0.6106
  899SOL    HW2 2697   1.808   2.788   1.194 -0.9997  0.3043 -1.2201
  900SOL     OW 2698   1.063   0.784   0.047  0.2853  0.4364  0.2907
  900SOL    HW1 2699   1.121   0.834   3.070  0.4904 -0.1256 -1.6144
  900SOL    HW2 2700   0.963   0.776   0.015  2.1695  2.3844 -2.7407
  901SOL     OW 2701   1.142   1.370   2.319 -0.2231 -0.4627 -0.4779
  901SOL    HW1 2702   1.160   1.313   2.233  0.8991  0.7266 -0.9739
  901SOL    HW2 2703   1.165   1.466   2.286  0.3603 -0.2294  0.8466
  902SOL     OW 2704   3.088   2.248   0.331 -0.7030 -0.3279  0.4836
  902SOL    HW1 2705   0.038   2.180   0.269 -0.3807  0.3385 -2.5473
  902SOL    HW2 2706   2.998   2.278   0.291  0.4893  0.6570 -0.4540
  903SOL     OW 2707   2.299   0.958   1.792  0.0888 -0.1324  0.5250
  903SOL    HW1 2708   2.380   0.913   1.748  0.9409 -2.6247  2.1471
  903SOL    HW2 2709   2.322   1.012   1.874 -0.0914 -2.0327  1.4494
  904SOL     OW 2710   1.631   0.865   2.890 -0.6521 -0.3929 -0.5821
  904SOL    HW1 2711   1.560   0.906   2.951  1.3324 -1.5683 -0.4009
  904SOL    HW2 2712   1.724   0.871   2.928  1.3255  1.3129  1.8603
  905SOL     OW 2713   2.295   2.571   1.109  0.3183 -0.5672 -0.0953
  905SOL    HW1 2714   2.197   2.603   1.100 -0.5099  1.0485  1.0410
  905SOL    HW2 2715   2.316   2.496   1.046 -0.5351  0.9475 -1.9810
  906SOL     OW 2716   1.582   1.967   2.870  0.3120 -0.4263  0.1162
  906SOL    HW1 2717   1.622   1.969   2.965  0.7997  0.3259 -1.0377
  906SOL    HW2 2718   1.581   2.066   2.842 -3.5646  0.3176  1.0275
  907SOL     OW 2719   0.796   2.569   0.540  0.0160 -0.4062 -0.3028
  907SOL    HW1 2720   0.701   2.597   0.569  0.0516 -0.3790 -2.9463
  907SOL    HW2 2721   0.800   2.478   0.496 -0.7214  0.5833  1.4529
  908SOL     OW 2722   1.356   2.799   1.964  0.4712  0.5225 -0.5712
  908SOL    HW1 2723   1.305   2.742   1.897 -0.1520  1.1242  0.2835
  908SOL    HW2 2724   1.377   2.893   1.923 -0.5516  0.3625  0.5862
  909SOL     OW 2725   1.832   0.451   1.306  0.1696 -0.3236  1.2497
  909SOL    HW1 2726   1.891   0.371   1.293 -0.3649  3.5480  2.2106
  909SOL    HW2 2727   1.742   0.449   1.257  1.2867 -0.3073  0.6316
  910SOL     OW 2728   1.200   0.901   2.931 -0.2223  0.2372 -0.3705
  910SOL    HW1 2729   1.122   0.954   2.892 -1.7687 -0.8565 -0.5079
  910SOL    HW2 2730   1.235   0.841   2.860  1.1629 -0.1623  2.2333
  911SOL     OW 2731   2.779   0.651   0.182 -0.4432 -0.0629  0.2189
  911SOL    HW1 2732   2.692   0.697   0.165  1.2642 -1.9020 -0.1457
  911SOL    HW2 2733   2.771   0.580   0.255 -0.2706  1.7741  1.7543
  912SOL     OW 2734   0.166   2.218   2.922  0.1388  0.0305 -0.4941
  912SOL    HW1 2735   0.156   2.124   2.880  0.7487 -0.1075 -0.3154
  912SOL    HW2 2736   0.248   2.210   2.980 -0.9800 -0.6270  2.8583
  913SOL     OW 2737   2.694   1.871   2.755 -0.1278  0.0071  0.1011
  913SOL    HW1 2738   2.696   1.976   2.731  0.6536  0.8570 -4.2323
  913SOL    HW2 2739   2.790   1.829   2.764  2.2075 -1.5758  1.4575
  914SOL     OW 2740   1.382   1.651   1.604 -0.1471 -0.3471  0.3115
  914SOL    HW1 2741   1.387   1.645   1.503 -1.3714  0.9548 -0.6330
  914SOL    HW2 2742   1.397   1.745   1.632  0.7062  0.4587  0.0206
  915SOL     OW 2743   0.667   2.705   2.207  0.1482 -0.0156 -0.5541
  915SOL    HW1 2744   0.637   2.797   2.186 -0.0598  0.4014 -0.5646
  915SOL    HW2 2745   0.670   2.683   2.306  1.8448 -1.7628 -0.6356
  916SOL     OW 2746   0.304   1.228   1.669 -0.1235 -0.1987 -0.2662
  916SOL    HW1 2747   0.381   1.197   1.728 -0.7944 -1.7969 -0.8897
  916SOL    HW2 2748   0.291   1.169   1.588 -2.6261  0.7336  2.2637
  917SOL     OW 2749   2.176   0.104   0.426 -0.5985  0.0946 -0.1984
  917SOL    HW1 2750   2.180   0.045   0.342 -0.7442  1.9841 -1.6124
  917SOL    HW2 2751   2.269   0.108   0.468 -1.2598 -1.1112 -2.0873
  918SOL     OW 2752   1.637   2.579   2.288  0.1290 -0.1953 -0.3750
  918SOL    HW1 2753   1.738   2.585   2.296  0.2487 -3.9068  0.9131
  918SOL    HW2 2754   1.605   2.482   2.304  1.3489 -0.2369 -2.2401
  919SOL     OW 2755   1.685   2.605   1.683  0.6612 -0.8423 -0.6637
  919SOL    HW1 2756   1.715   2.695   1.724 -0.3108  0.1381  0.2746
  919SOL    HW2 2757   1.723   2.596   1.589 -2.6773 -0.2381  0.7848
  920SOL     OW 2758   0.845   1.158   3.065 -0.7258 -0.6626 -0.2892
  920SOL    HW1 2759   0.802   1.198   2.980  1.0476 -3.2373 -2.2471
  920SOL    HW2 2760   0.781   1.089   0.021 -0.6752 -2.6602  2.2921
  921SOL     OW 2761   3.078   0.711   2.723  0.2275  0.4140 -0.0157
  921SOL    HW1 2762   3.005   0.702   2.654 -0.2185 -1.3233  0.5718
  921SOL    HW2 2763   0.076   0.739   2.683  0.4597  0.8173  0.2952
  922SOL     OW 2764   0.752   1.845   0.515 -0.1215  0.0390 -0.1697
  922SOL    HW1 2765   0.850   1.815   0.508 -0.3783  0.2146  0.4250
  922SOL    HW2 2766   0.743   1.900   0.600  2.4355 -0.5798 -1.3362
  923SOL     OW 2767   0.371   1.144   2.027 -0.5197  0.5154  0.0972
  923SOL    HW1 2768   0.372   1.116   1.929 -0.9373 -1.7657 -1.1165
  923SOL    HW2 2769   0.376   1.244   2.034 -1.2422 -1.8052  2.5757
  924SOL     OW 2770   1.497   2.851   2.844 -0.0309 -0.0727 -0.0752
  924SOL    HW1 2771   1.502   2.770   2.787  0.7997  2.8376 -0.6274
  924SOL    HW2 2772   1.407   2.853   2.891 -1.2028  1.7228 -0.0524
  925SOL     OW 2773   2.693   1.503   1.464 -0.5153 -0.1071  0.1681
  925SOL    HW1 2774   2.647   1.575   1.517 -0.3036 -2.4943 -2.1543
  925SOL    HW2 2775   2.627   1.428   1.435  1.1448 -1.1316 -1.2556
  926SOL     OW 2776   2.032   0.619   1.647  0.7421 -0.2798  0.1842
  926SOL    HW1 2777   2.035   0.634   1.546  1.6639 -1.2298  0.5062
  926SOL    HW2 2778   2.123   0.619   1.692 -0.9329 -0.3250 -0.4470
  927SOL     OW 2779   2.399   2.821   1.684 -0.1666  0.4816 -0.4092
  927SOL    HW1 2780   2.382   2.911   1.730  1.1139  1.0077 -0.7695
  927SOL    HW2 2781   2.457   2.836   1.604  1.7121 -0.2116 -1.5933
  928SOL     OW 2782   0.267   0.820   2.249  0.0337 -0.0017  0.5372
  928SOL    HW1 2783   0.212   0.885   2.196  1.1262 -0.0141 -0.5950
  928SOL    HW2 2784   0.360   0.803   2.208 -1.2145 -0.9613 -1.0287
  929SOL     OW 2785   2.185   0.263   0.723  0.2059 -0.5748 -0.6514
  929SOL    HW1 2786   2.262   0.204   0.708 -1.6480  1.9172  0.2955
  929SOL    HW2 2787   2.214   0.357   0.709 -0.0660 -2.2055 -1.3292
  930SOL     OW 2788   2.892   2.925   1.954 -0.0710  0.1969  0.2728
  930SOL    HW1 2789   2.937   2.938   2.046 -2.7312  3.1583 -2.2011
  930SOL    HW2 2790   2.959   2.873   1.892 -1.5293 -0.2042  0.5502
  931SOL     OW 2791   2.022   0.845   0.416  0.1246  0.5063  0.0415
  931SOL    HW1 2792   2.040   0.834   0.511 -2.8168  0.6637 -1.4987
  931SOL    HW2 2793   2.072   0.920   0.375 -2.6771  1.4929  0.6675
  932SOL     OW 2794   2.571   1.295   1.847  0.4295 -0.9498 -0.0158
  932SOL    HW1 2795   2.488   1.256   1.895  2.1960 -3.7298 -0.2567
  932SOL    HW2 2796   2.652   1.234   1.859  0.2453  0.7906 -1.1950
  933SOL     OW 2797   2.773   2.336   1.580 -0.5434 -0.4336 -0.4253
  933SOL    HW1 2798   2.709   2.333   1.657  0.7038  0.5391  1.5240
  933SOL    HW2 2799   2.865   2.325   1.616  1.0738  3.6542  0.3635
  934SOL     OW 2800   0.477   2.021   1.483  0.0608  0.0560  0.0407
  934SOL    HW1 2801   0.568   2.059   1.499  1.8786  0.6870  1.4607
  934SOL    HW2 2802   0.416   2.031   1.564  1.3562  0.7547 -0.7041
  935SOL     OW 2803   2.663   1.659   2.152  0.5706 -0.3019 -0.3519
  935SOL    HW1 2804   2.748   1.689   2.106 -2.4062  1.6922 -1.2796
  935SOL    HW2 2805   2.585   1.657   2.085 -2.0490 -1.4973 -1.4213
  936SOL     OW 2806   2.288   1.619   2.216  0.2483 -0.1108 -0.0393
  936SOL    HW1 2807   2.273   1.570   2.129  0.7242 -0.6221 -0.7273
  936SOL    HW2 2808   2.235   1.705   2.229 -0.5776  1.9295  2.7952
  937SOL     OW 2809   2.304   1.681   1.669  0.9510  0.0757 -0.5099
  937SOL    HW1 2810   2.357   1.596   1.668 -2.1347 -2.4629 -0.3034
  937SOL    HW2 2811   2.360   1.762   1.679 -1.3914 -0.8347  1.3104
  938SOL     OW 2812   0.565   2.269   2.624  0.0818 -0.3004  0.0399
  938SOL    HW1 2813   0.631   2.333   2.582 -1.0421 -1.6092  0.9914
  938SOL    HW2 2814   0.529   2.314   2.709  3.5814  0.3962 -1.6540
  939SOL     OW 2815   2.360   0.816   2.915 -0.8854  0.1750 -0.4166
  939SOL    HW1 2816   2.309   0.836   2.830 -1.2387  2.1773 -0.6790
  939SOL    HW2 2817   2.303   0.847   2.993 -1.2368  0.1263 -1.6267
  940SOL     OW 2818   1.189   1.687   0.667 -0.0796 -0.0185 -0.3157
  940SOL    HW1 2819   1.239   1.613   0.621 -0.7944  2.2226  0.5494
  940SOL    HW2 2820   1.238   1.725   0.744 -0.7665  0.0048  0.5647
  941SOL     OW 2821   1.551   2.753   2.492 -0.1333  0.0315  0.2257
  941SOL    HW1 2822   1.549   2.695   2.578 -0.1056  1.7664  1.5738
  941SOL    HW2 2823   1.557   2.698   2.406  1.3577 -1.7166 -1.0168
  942SOL     OW 2824   0.812   2.330   0.403 -0.1649  0.1928  0.1989
  942SOL    HW1 2825   0.838   2.350   0.303 -1.0484 -1.9171  0.1039
  942SOL    HW2 2826   0.887   2.269   0.433  0.3482  1.0422 -3.7212
  943SOL     OW 2827   1.624   0.035   1.714 -0.3487 -0.1194 -0.8151
  943SOL    HW1 2828   1.675   0.002   1.791 -0.0569  0.5698 -2.6287
  943SOL    HW2 2829   1.684   0.060   1.637 -0.8489 -1.6742  1.4032
  944SOL     OW 2830   0.888   1.500   2.867  0.0260 -0.0424  0.3412
  944SOL    HW1 2831   0.950   1.528   2.795 -2.5488 -2.3590  1.4063
  944SOL    HW2 2832   0.839   1.417   2.836  0.3705  1.3472 -2.5883
  945SOL     OW 2833   0.112   2.294   0.884  0.0317  0.1813 -0.7750
  945SOL    HW1 2834   0.012   2.314   0.858 -2.2616  0.8926 -0.7606
  945SOL    HW2 2835   0.117   2.206   0.935  1.5720 -2.2415  1.5730
  946SOL     OW 2836   0.774   1.257   2.810  0.1383  0.7300  0.4097
  946SOL    HW1 2837   0.839   1.242   2.733  0.4489  1.6151 -1.8690
  946SOL    HW2 2838   0.681   1.224   2.787 -1.1498  0.8141 -1.4327
  947SOL     OW 2839   2.718   3.076   1.832 -0.5870  0.3032  0.1804
  947SOL    HW1 2840   2.782   3.007   1.876 -1.1546  0.4033  0.1174
  947SOL    HW2 2841   2.701   3.056   1.734  0.8468 -1.2440 -1.1676
  948SOL     OW 2842   0.037   1.739   1.067  0.0733  0.1480  0.5523
  948SOL    HW1 2843   0.096   1.710   0.989 -0.7074  0.8454  1.5080
  948SOL    HW2 2844   0.073   1.718   1.157 -1.4623  0.1715  2.6551
  949SOL     OW 2845   1.050   1.043   1.702  0.3411  0.0532 -0.5551
  949SOL    HW1 2846   1.098   1.073   1.620 -0.6036 -0.6536  2.8947
  949SOL    HW2 2847   0.995   1.119   1.738  0.5702  1.1762 -1.8620
  950SOL     OW 2848   2.981   0.776   1.099  0.1049  0.1638 -0.5687
  950SOL    HW1 2849   2.927   0.836   1.042  1.8609  1.4600  2.0156
  950SOL    HW2 2850   3.079   0.798   1.091 -2.6944 -2.2291  1.5305
  951SOL     OW 2851   0.454   1.994   2.231  0.1904  0.4263 -0.6313
  951SOL    HW1 2852   0.552   1.966   2.218  1.7643 -1.4411 -0.0357
  951SOL    HW2 2853   0.442   2.075   2.297 -1.5455  1.8093  3.3079
  952SOL     OW 2854   1.464   1.961   0.253 -0.3675 -0.3156 -0.0834
  952SOL    HW1 2855   1.379   2.016   0.278 -0.7010  1.0436  0.0994
  952SOL    HW2 2856   1.441   1.882   0.194  0.1875  1.5052  1.3464
  953SOL     OW 2857   1.127   0.559   0.176  0.3413 -0.1875  0.4608
  953SOL    HW1 2858   1.079   0.481   0.131  1.8911  0.2181 -2.0909
  953SOL    HW2 2859   1.109   0.644   0.117 -1.1855  1.9566 -2.1803
  954SOL     OW 2860   2.086   0.792   0.677 -0.3677 -0.0346  0.0258
  954SOL    HW1 2861   2.159   0.856   0.653 -0.5162 -0.2732  1.3204
  954SOL    HW2 2862   2.038   0.815   0.767 -0.0444 -0.5096  0.9634
  955SOL     OW 2863   2.314   1.392   0.474  0.2621 -0.1541  0.0018
  955SOL    HW1 2864   2.236   1.440   0.435  2.7932 -2.3284  0.9583
  955SOL    HW2 2865   2.402   1.447   0.458 -1.3191  2.3604 -1.5511
  956SOL     OW 2866   0.732   0.645   1.585  0.2363 -0.0214  0.6193
  956SOL    HW1 2867   0.632   0.671   1.579 -1.9539 -1.9149  1.9054
  956SOL    HW2 2868   0.793   0.724   1.559  1.0225  1.1944 -1.8843
  957SOL     OW 2869   1.798   0.790   0.893 -0.4678 -0.4407  0.3147
  957SOL    HW1 2870   1.856   0.858   0.939 -1.4046  0.8874 -0.3017
  957SOL    HW2 2871   1.716   0.773   0.952 -3.5305 -0.7013  0.1009
  958SOL     OW 2872   0.506   1.925   0.724 -0.2344 -0.5058 -0.3198
  958SOL    HW1 2873   0.467   1.831   0.710 -1.5307 -0.6466  0.4080
  958SOL    HW2 2874   0.519   1.974   0.637 -1.8748  1.8264  2.2662
  959SOL     OW 2875   1.970   1.953   1.472  0.0305 -0.5032  0.5807
  959SOL    HW1 2876   1.964   1.939   1.574 -1.2684  2.2190 -2.0059
  959SOL    HW2 2877   2.014   1.872   1.432  0.0412 -0.6621 -0.1416
  960SOL     OW 2878   3.045   1.812   2.723 -0.6855 -0.8886 -0.3784
  960SOL    HW1 2879   3.012   1.796   2.816  0.4584 -1.9107 -0.7865
  960SOL    HW2 2880   3.077   1.723   2.682  1.7829 -1.3809 -0.4864
  961SOL     OW 2881   0.981   1.332   0.929 -0.7554  0.1209 -0.3312
  961SOL    HW1 2882   0.995   1.432   0.948 -1.1945  1.2930  0.3716
  961SOL    HW2 2883   1.070   1.287   0.902  3.0839 -1.0039 -0.2736
  962SOL     OW 2884   0.931   0.882   0.663 -0.0721 -0.0502 -0.7028
  962SOL    HW1 2885   0.980   0.962   0.706  2.7274 -1.1504 -0.0663
  962SOL    HW2 2886   0.998   0.823   0.615 -0.8266 -0.1856 -0.5691
  963SOL     OW 2887   1.190   1.881   2.009  0.0500  0.1092 -0.5047
  963SOL    HW1 2888   1.144   1.793   2.031  0.4684  2.6081 -1.1783
  963SOL    HW2 2889   1.294   1.871   2.000  0.6515 -1.9349  1.0729
  964SOL     OW 2890   0.098   2.760   2.478 -0.1396 -0.1927  0.0395
  964SOL    HW1 2891   0.116   2.725   2.572  0.1589  1.2112  1.3176
  964SOL    HW2 2892   0.033   2.835   2.476 -0.0092 -1.2176 -2.6171
  965SOL     OW 2893   0.829   2.081   0.093 -0.2234  0.1677 -0.2039
  965SOL    HW1 2894   0.864   2.175   0.102 -3.3620  0.5928 -0.3038
  965SOL    HW2 2895   0.803   2.061   3.085 -0.5878  3.2628  1.0657
  966SOL     OW 2896   2.911   1.705   0.119  0.1475 -0.0669 -0.0950
  966SOL    HW1 2897   2.915   1.745   0.211 -1.8524  0.5949 -1.2555
  966SOL    HW2 2898   2.974   1.629   0.108  0.0380  0.6903  1.0704
  967SOL     OW 2899   1.959   2.565   2.787 -0.2684  0.4665 -0.1481
  967SOL    HW1 2900   2.059   2.582   2.787  1.7688 -0.2424 -1.4606
  967SOL    HW2 2901   1.905   2.640   2.828  0.9186 -1.0571  1.2604
  968SOL     OW 2902   2.498   2.807   0.776 -0.0327  0.4733  0.2631
  968SOL    HW1 2903   2.532   2.836   0.867 -0.9755  1.9940  2.3443
  968SOL    HW2 2904   2.453   2.716   0.785 -1.1914  1.8365  3.6512
  969SOL     OW 2905   0.591   1.087   2.203  0.1003  0.4488  0.2083
  969SOL    HW1 2906   0.611   1.169   2.261 -2.8568  2.0339 -0.8174
  969SOL    HW2 2907   0.508   1.102   2.144 -1.4659 -1.3115  0.0954
  970SOL     OW 2908   2.020   1.105   0.549  0.3928 -0.0883 -0.7207
  970SOL    HW1 2909   1.938   1.067   0.605 -2.9916  0.5487 -0.8713
  970SOL    HW2 2910   2.107   1.062   0.588  2.6992 -0.6377  1.4018
  971SOL     OW 2911   2.218   3.088   1.613  0.2208 -0.1745 -0.3290
  971SOL    HW1 2912   2.283   3.066   1.691 -0.6065 -1.1048 -1.0090
  971SOL    HW2 2913   2.270   0.032   1.531 -0.5024 -0.7158  1.5076
  972SOL     OW 2914   2.900   0.247   1.447  0.4710 -0.4919  0.4111
  972SOL    HW1 2915   2.885   0.150   1.405 -0.7054 -2.8086 -2.2705
  972SOL    HW2 2916   2.970   0.242   1.521 -1.4388  1.9906 -0.3963
  973SOL     OW 2917   0.111   0.317   2.627  0.0289  0.1424  0.3430
  973SOL    HW1 2918   0.191   0.263   2.663 -0.8920  0.4565 -0.9246
  973SOL    HW2 2919   0.146   0.395   2.574 -0.4146  0.2336  1.2988
  974SOL     OW 2920   2.374   1.151   1.984  0.2240  0.4813 -0.4836
  974SOL    HW1 2921   2.280   1.160   2.022 -2.4071  1.6159  0.4093
  974SOL    HW2 2922   2.441   1.138   2.062 -0.1020 -0.9771  0.4878
  975SOL     OW 2923   1.029   0.453   1.526  0.0822 -0.3097  0.3133
  975SOL    HW1 2924   0.945   0.457   1.465 -3.5003  1.8375  0.1948
  975SOL    HW2 2925   1.022   0.497   1.623  2.3235 -1.5856  3.1918
  976SOL     OW 2926   0.652   1.471   1.709 -0.0605 -0.1356 -0.5935
  976SOL    HW1 2927   0.702   1.516   1.791 -0.1033  2.0331  0.0911
  976SOL    HW2 2928   0.706   1.483   1.627  2.4917 -0.9359 -0.3685
  977SOL     OW 2929   1.067   0.043   0.024  0.6626  0.1105  0.3180
  977SOL    HW1 2930   1.006   0.098   3.052  1.6302  0.0715 -1.8835
  977SOL    HW2 2931   1.110   0.105   0.089  1.9566 -1.0445 -3.2236
  978SOL     OW 2932   2.567   1.122   2.176  0.2968  0.1637 -0.7788
  978SOL    HW1 2933   2.514   1.102   2.260  1.2918  1.8654  1.0964
  978SOL    HW2 2934   2.665   1.143   2.203 -3.3306  0.5976  0.3728
  979SOL     OW 2935   1.394   0.475   1.980  0.5753 -0.3719  0.3621
  979SOL    HW1 2936   1.303   0.456   1.941  0.2582  1.0377  2.4563
  979SOL    HW2 2937   1.458   0.507   1.904  2.3094  2.8796 -1.5758
  980SOL     OW 2938   1.530   1.573   1.820  0.1317  0.2686  0.1141
  980SOL    HW1 2939   1.491   1.613   1.730 -1.8245  2.0026 -1.6352
  980SOL    HW2 2940   1.612   1.508   1.807  0.6013  1.1181  1.1311
  981SOL     OW 2941   2.597   0.943   1.566 -0.1812 -0.1051  0.2170
  981SOL    HW1 2942   2.635   0.997   1.490 -0.2615 -2.4787  2.2515
  981SOL    HW2 2943   2.659   0.861   1.569  2.0831  0.8522  0.3314
  982SOL     OW 2944   0.617   0.254   2.820  0.2810  0.0588  0.3514
  982SOL    HW1 2945   0.674   0.332   2.846 -1.7197  0.1971 -1.1910
  982SOL    HW2 2946   0.664   0.163   2.820  1.1401 -3.1486  0.0551
  983SOL     OW 2947   2.218   0.441   2.848  0.1371 -0.0310 -0.4189
  983SOL    HW1 2948   2.302   0.497   2.841 -1.6634 -1.7516  0.3109
  983SOL    HW2 2949   2.165   0.476   2.924 -2.3520  1.7619 -0.8278
  984SOL     OW 2950   1.131   2.978   1.804  0.0820 -0.1483 -0.0715
  984SOL    HW1 2951   1.233   2.998   1.818  0.5556 -0.7142  1.5431
  984SOL    HW2 2952   1.092   2.923   1.879  1.7812  2.0758 -0.9933
  985SOL     OW 2953   1.537   1.999   2.175 -0.0209  0.4569  0.1128
  985SOL    HW1 2954   1.608   1.926   2.182  0.9167  1.6133  0.4819
  985SOL    HW2 2955   1.586   2.086   2.154  1.7822  1.9907  1.9620
  986SOL     OW 2956   2.215   0.347   1.362  0.0884 -0.0034  0.4798
  986SOL    HW1 2957   2.278   0.410   1.311 -1.0351  2.7239 -2.3684
  986SOL    HW2 2958   2.258   0.259   1.375  1.2979  0.1966  0.0745
  987SOL     OW 2959   2.567   1.334   1.305  0.9970 -0.2455  1.1472
  987SOL    HW1 2960   2.584   1.382   1.212 -0.8701  1.7358  1.2417
  987SOL    HW2 2961   2.628   1.254   1.306 -0.6452  1.2219 -0.6077
  988SOL     OW 2962   2.375   2.164   1.650 -0.1611  0.2123  0.0108
  988SOL    HW1 2963   2.358   2.236   1.718 -1.2583  0.7396 -1.5344
  988SOL    HW2 2964   2.440   2.101   1.695 -2.7944 -1.4512 -1.5865
  989SOL     OW 2965   1.156   2.387   0.105  0.6270 -0.2713  0.5036
  989SOL    HW1 2966   1.206   2.467   0.135 -1.8295  0.6015  1.5318
  989SOL    HW2 2967   1.170   2.300   0.159  0.4872  0.4283  0.0781
  990SOL     OW 2968   1.850   1.109   2.920  0.5985 -0.3102 -0.6625
  990SOL    HW1 2969   1.873   1.099   3.022  0.5762  0.4295 -0.0162
  990SOL    HW2 2970   1.840   1.025   2.867  1.4199 -1.6631 -0.4875
  991SOL     OW 2971   1.197   0.214   0.407  0.1519  0.0910  0.3005
  991SOL    HW1 2972   1.196   0.179   0.502  3.1597  0.1774 -1.0087
  991SOL    HW2 2973   1.198   0.313   0.399 -2.4348 -0.8852  1.8305
  992SOL     OW 2974   2.732   1.111   1.375  0.4262 -0.4175 -0.1443
  992SOL    HW1 2975   2.767   1.033   1.320  0.0095  0.2920  2.3053
  992SOL    HW2 2976   2.805   1.153   1.424  0.2316  0.3042 -0.2913
  993SOL     OW 2977   2.697   0.692   1.616 -0.1955  0.2869 -0.3657
  993SOL    HW1 2978   2.607   0.663   1.577  2.1724 -0.0281  2.3562
  993SOL    HW2 2979   2.718   0.641   1.698  0.6115  1.7589  2.8447
  994SOL     OW 2980   0.574   2.002   2.692 -0.4562  0.2083  0.1343
  994SOL    HW1 2981   0.561   2.100   2.678  2.8834 -1.4474  1.5417
  994SOL    HW2 2982   0.489   1.956   2.652  0.3914  2.5874 -1.0889
  995SOL     OW 2983   2.054   1.246   2.742  0.0480 -0.8553  0.6923
  995SOL    HW1 2984   1.989   1.201   2.802  0.4115  0.7108  0.2361
  995SOL    HW2 2985   2.042   1.348   2.752  1.0130 -2.3153  0.6582
  996SOL     OW 2986   2.539   1.543   0.430 -0.1451 -0.0139 -0.0302
  996SOL    HW1 2987   2.611   1.591   0.487  0.1493 -1.6366  0.5169
  996SOL    HW2 2988   2.574   1.450   0.414  0.1931  1.5659  0.0993
  997SOL     OW 2989   1.979   0.758   2.119 -0.5134  0.6856 -0.1177
  997SOL    HW1 2990   1.981   0.811   2.032 -1.5028  0.7199  2.8042
  997SOL    HW2 2991   1.965   0.660   2.093 -0.8678 -1.5478  0.0512
  998SOL     OW 2992   2.472   1.103   0.105  0.2864  0.2466 -0.4538
  998SOL    HW1 2993   2.412   1.166   0.153  2.2670 -4.3832  0.3920
  998SOL    HW2 2994   2.489   1.134   0.012  0.3891 -0.2031 -1.6567
  999SOL     OW 2995   0.043   1.978   0.476  0.2871  0.1202  0.8349
  999SOL    HW1 2996   0.119   1.914   0.454  0.4149  2.0520  0.3100
  999SOL    HW2 2997   0.064   2.039   0.557 -3.6971 -1.0769  0.2690
 1000SOL     OW 2998   0.725   0.884   2.503 -0.5226  0.1099 -0.5468
 1000SOL    HW1 2999   0.750   0.885   2.604 -3.9586 -0.7131  2.7004
 1000SOL    HW2 3000   0.747   0.792   2.468  0.7938 -1.3740 -1.3088
   3.08970   3.08970   3.08970
