1000 SPC/Fw water molecules t=  50.00000 step= 50000
 3000
    1SOL     OW    1   2.127   2.787   0.770 -0.2599  0.5695  0.3323
    1SOL    HW1    2   2.059   2.831   0.709  0.4341  0.0820  1.8132
    1SOL    HW2    3   2.149   2.848   0.848 -1.3212  0.5529 -1.4613
    2SOL     OW    4   1.319   0.903   2.406  0.5285  0.2978  0.4115
    2SOL    HW1    5   1.377   0.822   2.431  0.5480 -0.7171 -0.9591
    2SOL    HW2    6   1.311   0.974   2.481  0.0894 -1.1674  0.5513
    3SOL     OW    7   0.996   2.693   2.756 -0.4181  0.0923  0.5366
    3SOL    HW1    8   1.095   2.688   2.797  1.1532 -2.2499  0.6602
    3SOL    HW2    9   0.937   2.642   2.821  0.6965  0.5260  1.8368
    4SOL     OW   10   1.195   1.435   2.888 -0.0879  0.5334 -0.0229
    4SOL    HW1   11   1.245   1.353   2.913  1.6076  1.1215  0.7722
    4SOL    HW2   12   1.256   1.518   2.900 -1.5703  1.9719 -0.2379
    5SOL     OW   13   0.951   0.923   1.984  0.1045  0.7060  0.0221
    5SOL    HW1   14   0.945   0.826   2.025  2.1386 -3.8519  1.5168
    5SOL    HW2   15   0.954   0.991   2.056 -0.3315 -1.4101 -1.8324
    6SOL     OW   16   2.116   0.596   2.335  0.0093 -0.2691 -0.2266
    6SOL    HW1   17   2.195   0.544   2.294  1.9609 -1.8719 -0.7120
    6SOL    HW2   18   2.152   0.656   2.410 -1.2699 -1.3117  1.5104
    7SOL     OW   19   0.399   0.879   1.669 -0.8344 -0.1270 -0.2195
    7SOL    HW1   20   0.473   0.876   1.605  2.5149  0.4773  1.0118
    7SOL    HW2   21   0.380   0.781   1.706 -1.6113 -2.4206 -0.8467
    8SOL     OW   22   1.889   2.877   1.840  0.0232  0.0238  0.2104
    8SOL    HW1   23   1.788   2.897   1.820 -3.3780  0.7032 -0.6042
    8SOL    HW2   24   1.946   2.955   1.811  0.6589  0.8047 -2.3329
    9SOL     OW   25   0.254   2.936   0.575 -0.0614  0.3151 -0.0271
    9SOL    HW1   26   0.290   2.848   0.533 -0.1709  0.7483 -0.8598
    9SOL    HW2   27   0.251   3.010   0.508 -0.1903  0.2929  0.0434
   10SOL     OW   28   0.214   2.373   2.423  0.2412  0.2669 -0.1771
   10SOL    HW1   29   0.165   2.287   2.444  4.3804  0.0335 -1.2130
   10SOL    HW2   30   0.254   2.414   2.510  1.3350  0.3906  2.8891
   11SOL     OW   31   0.693   1.543   2.833  0.2652 -0.1881  0.2186
   11SOL    HW1   32   0.639   1.487   2.771  2.4972  1.7302  1.0930
   11SOL    HW2   33   0.765   1.484   2.879  1.3386  0.0856  2.2611
   12SOL     OW   34   2.509   2.432   1.358  0.7486  0.3377  0.0213
   12SOL    HW1   35   2.424   2.400   1.315  2.2182  0.3273 -0.2939
   12SOL    HW2   36   2.486   2.458   1.454  2.5206 -1.2955 -3.1410
   13SOL     OW   37   0.563   2.833   2.958 -0.0313  0.2610 -0.1539
   13SOL    HW1   38   0.609   2.918   2.993  1.5712  3.0185  1.1416
   13SOL    HW2   39   0.560   2.766   3.037 -1.1231  0.4757 -1.2663
   14SOL     OW   40   1.301   1.649   1.437  0.1938  0.2742  0.0517
   14SOL    HW1   41   1.219   1.685   1.488 -2.7058  1.0044 -1.5772
   14SOL    HW2   42   1.383   1.647   1.490 -3.4410  2.3551 -1.8043
   15SOL     OW   43   0.273   1.622   2.387 -0.2883 -0.4040 -0.1047
   15SOL    HW1   44   0.337   1.574   2.321  2.4453 -2.4115 -0.2894
   15SOL    HW2   45   0.256   1.718   2.359 -0.6841 -1.1391  0.2955
   16SOL     OW   46   1.660   0.585   2.744 -0.4008 -0.5389 -0.4805
   16SOL    HW1   47   1.562   0.559   2.761  0.2278  0.3285 -0.5589
   16SOL    HW2   48   1.672   0.686   2.741 -1.1615 -2.7279  1.0219
   17SOL     OW   49   3.030   2.828   2.527 -0.3132  0.1896 -0.5955
   17SOL    HW1   50   2.984   2.751   2.564  2.1648  2.2252 -0.8656
   17SOL    HW2   51   0.067   2.810   2.512 -0.6037 -0.8776  3.9153
   18SOL     OW   52   1.106   1.081   0.623 -0.2462 -0.1236  0.2977
   18SOL    HW1   53   1.153   1.169   0.610 -1.0999  0.6305  0.8041
   18SOL    HW2   54   1.006   1.093   0.600  1.6395 -2.0292 -1.2508
   19SOL     OW   55   2.900   1.861   2.343 -0.6720 -0.3634 -0.0610
   19SOL    HW1   56   2.945   1.934   2.291  3.1939 -1.3469 -0.7237
   19SOL    HW2   57   2.825   1.895   2.405  2.4208  0.3261  1.0920
   20SOL     OW   58   2.383   2.292   2.420 -0.1884  0.3820  0.5122
   20SOL    HW1   59   2.483   2.284   2.386 -2.5628 -0.8607  0.0516
   20SOL    HW2   60   2.320   2.214   2.389  0.8760  0.7606  5.0132
   21SOL     OW   61   1.805   1.913   0.523  0.1201 -0.0714 -0.2466
   21SOL    HW1   62   1.744   1.994   0.533 -0.5444 -0.3783 -0.7949
   21SOL    HW2   63   1.868   1.893   0.597  1.1340 -0.7994 -1.4460
   22SOL     OW   64   2.343   2.067   1.157 -0.0161 -0.3309 -0.0683
   22SOL    HW1   65   2.427   2.018   1.134  0.3855  2.9513  0.4876
   22SOL    HW2   66   2.274   2.033   1.094  0.4609  2.0339  1.0887
   23SOL     OW   67   3.038   1.131   1.329 -0.1977 -0.0648 -0.5353
   23SOL    HW1   68   3.004   1.156   1.238  0.7216 -0.3382  1.5335
   23SOL    HW2   69   0.078   1.119   1.322  0.5153  0.3911 -1.2767
   24SOL     OW   70   2.234   1.152   1.967 -0.1796 -0.6147  0.8487
   24SOL    HW1   71   2.328   1.173   1.994 -0.6985 -1.9232 -1.0417
   24SOL    HW2   72   2.188   1.108   2.044  0.8306  0.0864 -0.1304
   25SOL     OW   73   1.933   0.040   2.389 -0.0444 -0.5339  0.4407
   25SOL    HW1   74   1.936   3.033   2.459  0.9976  0.9856  0.2065
   25SOL    HW2   75   1.971   3.061   2.303  2.4694 -1.1115  3.9778
   26SOL     OW   76   0.831   0.282   0.207  0.3678  0.2098  0.0558
   26SOL    HW1   77   0.770   0.201   0.200  1.8124 -0.8860  0.3479
   26SOL    HW2   78   0.805   0.348   0.137  0.8412 -0.4096  0.4137
   27SOL     OW   79   0.661   1.401   0.782 -0.8540 -0.2569 -0.0613
   27SOL    HW1   80   0.653   1.449   0.690 -0.6686  0.0240 -1.0896
   27SOL    HW2   81   0.604   1.451   0.848  1.6537  0.8106  0.9747
   28SOL     OW   82   2.186   2.354   0.973 -0.0479 -0.2670  0.3043
   28SOL    HW1   83   2.213   2.346   1.071  0.7862 -2.4050 -0.7734
   28SOL    HW2   84   2.234   2.422   0.914 -1.9976  2.3331 -2.4943
   29SOL     OW   85   2.149   3.001   1.939 -1.3221 -0.1089  0.1912
   29SOL    HW1   86   2.112   3.026   1.849  0.9636  2.6268  3.1395
   29SOL    HW2   87   2.252   2.990   1.924  2.9692 -1.1461 -0.2316
   30SOL     OW   88   0.446   2.896   1.396  0.6172 -0.4017  0.3611
   30SOL    HW1   89   0.387   2.937   1.468  1.6036 -0.7114  1.1266
   30SOL    HW2   90   0.403   2.906   1.304 -0.9689 -0.6720  0.6213
   31SOL     OW   91   0.080   1.980   2.062  0.2749  0.8064  0.0690
   31SOL    HW1   92   0.151   2.029   2.010 -1.1707 -0.4439 -0.2752
   31SOL    HW2   93   0.061   1.888   2.023 -1.3132  0.7011 -0.7181
   32SOL     OW   94   1.460   2.266   2.196 -0.1343  0.4248 -0.2014
   32SOL    HW1   95   1.439   2.365   2.192  0.6123 -1.6489  0.0173
   32SOL    HW2   96   1.524   2.247   2.276  0.7095  0.8608  0.6903
   33SOL     OW   97   0.383   0.224   2.805  0.2680  0.4275 -0.3645
   33SOL    HW1   98   0.463   0.195   2.742 -2.3703 -0.4357 -2.3471
   33SOL    HW2   99   0.297   0.161   2.805 -0.8046 -2.1460  0.9472
   34SOL     OW  100   2.462   0.075   0.287 -0.0383  0.1321 -0.1965
   34SOL    HW1  101   2.554   0.109   0.324  0.2153 -1.7616  0.0129
   34SOL    HW2  102   2.445   0.135   0.204 -0.9268  1.3199 -0.4971
   35SOL     OW  103   2.790   0.139   1.639  0.1254  0.7293  0.1382
   35SOL    HW1  104   2.782   0.236   1.612 -0.6137 -2.5712  0.6494
   35SOL    HW2  105   2.886   0.108   1.621  0.1458  0.9748  0.5062
   36SOL     OW  106   2.469   3.001   2.410  0.6186 -0.4336  0.5460
   36SOL    HW1  107   2.560   3.053   2.424  1.6637  1.2783 -1.9288
   36SOL    HW2  108   2.392   3.050   2.367  2.2342  0.9294 -2.3802
   37SOL     OW  109   1.343   2.946   3.013 -0.0246  0.2258  0.2888
   37SOL    HW1  110   1.417   2.973   0.016 -0.0630 -1.4908 -1.0071
   37SOL    HW2  111   1.252   2.939   0.001 -2.3992 -0.1081  1.1777
   38SOL     OW  112   0.007   0.758   3.046  0.2829 -0.2365 -0.9483
   38SOL    HW1  113   0.011   0.663   3.008  2.5936 -0.4422  1.0474
   38SOL    HW2  114   0.086   0.815   3.019  1.5713  1.0333  1.3977
   39SOL     OW  115   1.398   1.702   1.967  0.0348  0.0158  0.1502
   39SOL    HW1  116   1.436   1.772   1.903  0.3499  0.2450 -0.0642
   39SOL    HW2  117   1.368   1.756   2.046  0.8096  0.1066 -1.4802
   40SOL     OW  118   0.273   0.520   2.497 -0.3281 -0.2610 -0.3145
   40SOL    HW1  119   0.371   0.553   2.507  1.9911 -1.3478 -0.2113
   40SOL    HW2  120   0.273   0.420   2.479  0.1176  4.1693  1.2512
   41SOL     OW  121   1.529   1.002   2.093 -0.6228  0.1017 -0.1915
   41SOL    HW1  122   1.593   0.934   2.058 -0.6674 -1.2882  1.5808
   41SOL    HW2  123   1.553   1.031   2.189 -0.6609 -0.5794  0.7533
   42SOL     OW  124   0.000   0.220   1.536  0.7984 -0.2005  0.4170
   42SOL    HW1  125   0.003   0.311   1.491  0.9781 -0.6297 -1.2741
   42SOL    HW2  126   0.051   0.214   1.624 -2.3046  0.6880 -1.1047
   43SOL     OW  127   1.291   1.298   1.738  0.4686 -0.3613 -0.0719
   43SOL    HW1  128   1.394   1.294   1.756  1.4348  0.0775  0.2106
   43SOL    HW2  129   1.254   1.215   1.786 -2.1469  0.6695  0.4263
   44SOL     OW  130   2.975   0.206   2.855  0.2576  0.2312  0.0483
   44SOL    HW1  131   3.050   0.231   2.922  0.7817 -0.1092  1.7820
   44SOL    HW2  132   2.969   0.106   2.856  1.5121 -2.3854 -2.0133
   45SOL     OW  133   0.371   2.078   1.499  0.0225  0.4355  0.0759
   45SOL    HW1  134   0.386   2.113   1.408  0.7672 -1.3172  0.8777
   45SOL    HW2  135   0.432   1.994   1.509  0.5715 -3.3731 -1.7702
   46SOL     OW  136   2.405   2.907   1.875  0.1501  0.2588  0.5327
   46SOL    HW1  137   2.459   2.982   1.918  1.3737  0.3770 -1.6207
   46SOL    HW2  138   2.434   2.875   1.786 -2.1256 -0.0945  1.6902
   47SOL     OW  139   0.348   1.780   1.129 -0.2083 -0.1865  0.0868
   47SOL    HW1  140   0.298   1.728   1.059  4.2400  2.5546  1.1584
   47SOL    HW2  141   0.342   1.735   1.220 -1.8743 -0.1063  0.7220
   48SOL     OW  142   0.554   2.625   0.066  0.4672  0.6475  0.4809
   48SOL    HW1  143   0.533   2.569   3.047  0.0289  1.4294 -0.7055
   48SOL    HW2  144   0.565   2.571   0.153 -2.9461  1.1485 -1.5893
   49SOL     OW  145   2.915   1.636   1.787  0.5423  0.2120  0.1300
   49SOL    HW1  146   2.968   1.663   1.872 -4.2535 -0.3781 -1.0670
   49SOL    HW2  147   2.835   1.571   1.810  0.6835 -1.2865  2.9840
   50SOL     OW  148   1.576   0.002   0.839 -0.1925  0.3379  0.0651
   50SOL    HW1  149   1.616   0.014   0.746 -1.2040  0.1279 -0.3323
   50SOL    HW2  150   1.650   3.032   0.900  0.4934  0.8493 -0.9749
   51SOL     OW  151   1.033   0.104   1.206 -0.1809 -0.7115 -0.1404
   51SOL    HW1  152   0.958   0.108   1.271  0.1872  0.8459  0.2831
   51SOL    HW2  153   1.027   0.167   1.128  0.7550 -0.0066 -3.3460
   52SOL     OW  154   0.535   1.173   0.462  0.2409 -0.0911 -0.0623
   52SOL    HW1  155   0.480   1.184   0.377  1.5455 -0.3317 -1.0551
   52SOL    HW2  156   0.601   1.101   0.439  2.3273 -0.4776 -2.7009
   53SOL     OW  157   1.467   0.059   2.470 -0.4697 -0.5577 -0.3324
   53SOL    HW1  158   1.529   0.033   2.396 -0.5940  2.4163  0.9096
   53SOL    HW2  159   1.465   3.052   2.545 -0.5323  0.2579 -1.4994
   54SOL     OW  160   1.741   0.581   1.697  0.4814 -1.0727 -0.1959
   54SOL    HW1  161   1.788   0.653   1.640  3.0982  2.8856 -0.7854
   54SOL    HW2  162   1.802   0.507   1.725  0.9342  2.2839 -0.4392
   55SOL     OW  163   2.956   2.486   0.637  0.5517  0.0160  0.1307
   55SOL    HW1  164   3.000   2.577   0.633 -0.4076 -1.9885 -2.4252
   55SOL    HW2  165   2.988   2.424   0.560  1.8104 -3.7856 -0.0150
   56SOL     OW  166   0.975   2.819   1.725 -0.1725  0.4874 -0.4379
   56SOL    HW1  167   0.937   2.897   1.780 -1.6418  0.0147 -0.8086
   56SOL    HW2  168   0.904   2.748   1.715 -0.4331 -0.2630  0.5275
   57SOL     OW  169   1.876   0.764   2.337 -0.6681  0.0666 -0.0468
   57SOL    HW1  170   1.943   0.689   2.360  0.6269 -0.0649 -0.0636
   57SOL    HW2  171   1.825   0.740   2.250 -1.2659 -0.2754 -0.4318
   58SOL     OW  172   0.379   0.933   2.099 -0.0682  0.3833  0.0844
   58SOL    HW1  173   0.293   0.886   2.087  3.2588  1.4498 -0.1020
   58SOL    HW2  174   0.384   1.010   2.032  0.4257  2.4493 -1.9088
   59SOL     OW  175   0.755   2.591   1.926 -0.1493  0.6053 -0.4656
   59SOL    HW1  176   0.683   2.648   1.888  1.8435 -1.9053  1.5261
   59SOL    HW2  177   0.830   2.568   1.856 -0.6690  1.0894 -2.4767
   60SOL     OW  178   2.300   2.480   0.275  0.0994 -0.2014 -0.2686
   60SOL    HW1  179   2.373   2.541   0.314 -0.7816 -0.2064  0.1286
   60SOL    HW2  180   2.284   2.491   0.176  0.6665 -0.6396 -0.1205
   61SOL     OW  181   1.205   2.423   0.779 -0.0399  0.1374 -0.3934
   61SOL    HW1  182   1.194   2.435   0.882  1.3422 -0.7877  3.5808
   61SOL    HW2  183   1.243   2.509   0.742  0.2427 -0.7364  1.3884
   62SOL     OW  184   1.564   2.821   2.912  0.1333 -0.1054 -0.0765
   62SOL    HW1  185   1.599   2.729   2.937  0.8625 -1.0652  0.3782
   62SOL    HW2  186   1.488   2.859   2.965 -1.4165 -0.1911 -1.1577
   63SOL     OW  187   2.272   0.682   2.886 -0.0321  0.3486  0.9974
   63SOL    HW1  188   2.248   0.743   2.961 -0.4156  1.2915 -0.0732
   63SOL    HW2  189   2.372   0.673   2.885  0.1341 -0.4577 -1.6850
   64SOL     OW  190   1.190   1.081   3.041  0.0340  0.1810 -0.3528
   64SOL    HW1  191   1.126   0.999   3.028  0.5898  0.5502 -0.1881
   64SOL    HW2  192   1.256   1.073   0.060  0.7882 -1.3771  1.4135
   65SOL     OW  193   0.694   2.869   1.475  0.1452  0.3288 -0.1938
   65SOL    HW1  194   0.728   2.775   1.461 -0.8442  1.7265 -0.4561
   65SOL    HW2  195   0.597   2.879   1.441  0.3314  0.6488 -0.0920
   66SOL     OW  196   0.907   1.122   1.383  0.0094  0.0301 -0.7449
   66SOL    HW1  197   0.969   1.153   1.307 -0.2363  2.4823  2.5701
   66SOL    HW2  198   0.941   1.029   1.417  2.4291 -0.0853  0.4362
   67SOL     OW  199   2.188   2.067   1.855  0.4383 -0.2383  0.4478
   67SOL    HW1  200   2.216   2.139   1.921  0.9762 -0.3741 -1.4798
   67SOL    HW2  201   2.201   2.105   1.759  0.3466  2.0665  1.0659
   68SOL     OW  202   0.894   1.275   2.065  0.5897  0.2793 -0.2488
   68SOL    HW1  203   0.817   1.208   2.069 -0.9094 -0.9862  1.6680
   68SOL    HW2  204   0.894   1.314   1.975 -2.5730 -0.8177  1.7328
   69SOL     OW  205   2.658   2.664   0.234  0.1645 -0.2080  0.1032
   69SOL    HW1  206   2.758   2.678   0.256  0.8511 -0.9914 -1.6004
   69SOL    HW2  207   2.606   2.750   0.232 -2.6364 -2.1383  1.2757
   70SOL     OW  208   2.468   0.851   2.254 -0.3299 -0.1769  0.0030
   70SOL    HW1  209   2.461   0.896   2.348  1.8293 -0.1292  1.5231
   70SOL    HW2  210   2.506   0.755   2.260  0.5858  1.0587  0.8419
   71SOL     OW  211   0.353   1.854   0.761  0.1479 -0.1347  0.2258
   71SOL    HW1  212   0.295   1.808   0.688 -0.2810 -0.2792 -1.9785
   71SOL    HW2  213   0.295   1.922   0.809  1.4847  1.5013 -0.6259
   72SOL     OW  214   2.533   1.824   0.484 -0.4684 -0.7277  0.0466
   72SOL    HW1  215   2.460   1.881   0.438  3.0707  0.1269 -1.3116
   72SOL    HW2  216   2.622   1.828   0.433  0.7197 -1.7006  0.2773
   73SOL     OW  217   1.142   0.447   0.465 -0.2622  0.3447 -0.5494
   73SOL    HW1  218   1.107   0.502   0.390  0.5085  2.0874  0.8476
   73SOL    HW2  219   1.147   0.505   0.549  0.6897 -0.4988  2.7771
   74SOL     OW  220   2.581   2.284   1.881 -0.0266  0.2128 -0.3681
   74SOL    HW1  221   2.505   2.219   1.873 -0.8899  0.7484 -1.8032
   74SOL    HW2  222   2.558   2.379   1.904  0.5970  0.2740  2.0553
   75SOL     OW  223   1.611   1.565   1.840  0.1697  0.4252 -0.6727
   75SOL    HW1  224   1.550   1.616   1.906  4.5088  0.2453 -2.0464
   75SOL    HW2  225   1.607   1.471   1.841  0.9842  5.3400  0.1871
   76SOL     OW  226   1.077   1.734   1.056 -0.0155  0.2682 -0.2709
   76SOL    HW1  227   1.175   1.728   1.090  2.4247  1.6143  0.7585
   76SOL    HW2  228   1.013   1.682   1.113  0.4131  0.3132 -1.3182
   77SOL     OW  229   2.742   1.421   1.859 -0.2732 -0.1840  0.1619
   77SOL    HW1  230   2.762   1.413   1.961  0.0815  1.0471 -0.2234
   77SOL    HW2  231   2.776   1.333   1.813 -0.0272 -1.5923  2.1841
   78SOL     OW  232   1.810   0.705   0.310 -0.0178  0.4601  0.2251
   78SOL    HW1  233   1.751   0.626   0.287  1.6524  1.6375  1.1073
   78SOL    HW2  234   1.773   0.767   0.381 -0.2850 -2.1824  3.0114
   79SOL     OW  235   1.549   1.304   2.077  0.3078 -0.4031 -0.3308
   79SOL    HW1  236   1.638   1.339   2.104 -1.5355 -1.0468 -1.2287
   79SOL    HW2  237   1.545   1.198   2.073  1.2828 -1.3248 -1.1896
   80SOL     OW  238   0.986   0.445   1.643 -0.0278 -0.1378 -0.1074
   80SOL    HW1  239   1.070   0.425   1.589 -1.5273 -0.6408  2.4108
   80SOL    HW2  240   1.009   0.489   1.730 -0.7561 -0.6671  1.3911
   81SOL     OW  241   0.733   2.504   0.635  0.3160 -0.3452 -0.0681
   81SOL    HW1  242   0.786   2.585   0.609 -0.6527 -3.1509 -0.0588
   81SOL    HW2  243   0.792   2.447   0.697 -0.8616 -0.3686 -0.1917
   82SOL     OW  244   1.371   0.252   1.822  0.0733 -0.1595 -0.0108
   82SOL    HW1  245   1.421   0.321   1.760  0.5582  1.6180 -3.1846
   82SOL    HW2  246   1.416   0.255   1.919  0.9480 -0.9602  0.7727
   83SOL     OW  247   0.227   2.291   0.612 -0.0657 -0.0751 -0.6430
   83SOL    HW1  248   0.309   2.351   0.622  0.4689  2.2827 -1.1716
   83SOL    HW2  249   0.203   2.253   0.703 -1.6492 -0.3327  1.2055
   84SOL     OW  250   2.636   1.360   0.163 -0.2724  0.2366  0.6291
   84SOL    HW1  251   2.645   1.341   0.264 -1.5281  1.3167 -2.5688
   84SOL    HW2  252   2.675   1.450   0.139 -4.9709 -1.3345  0.0667
   85SOL     OW  253   2.351   1.984   1.433  0.2589 -0.3588 -0.1624
   85SOL    HW1  254   2.353   2.035   1.347 -0.7066 -0.2477 -1.5675
   85SOL    HW2  255   2.449   1.965   1.460 -2.0470 -1.3045 -0.9551
   86SOL     OW  256   1.421   2.339   1.069 -0.5723  0.2765  0.4506
   86SOL    HW1  257   1.485   2.351   0.991 -2.4926  0.5982  4.3630
   86SOL    HW2  258   1.341   2.404   1.072  1.2597 -0.4969 -1.5892
   87SOL     OW  259   2.393   1.406   0.479  0.0566 -0.4519  0.6569
   87SOL    HW1  260   2.301   1.402   0.523  1.7987  1.7529 -0.5898
   87SOL    HW2  261   2.374   1.392   0.377 -2.9525 -0.1591  0.0536
   88SOL     OW  262   0.841   0.002   0.913 -0.6618  0.4886 -0.0135
   88SOL    HW1  263   0.938   3.038   0.889 -2.4126  0.8015  2.6687
   88SOL    HW2  264   0.823   0.102   0.909  1.5273  0.7627 -3.3751
   89SOL     OW  265   0.673   0.104   1.871 -0.0300 -0.0460 -0.4788
   89SOL    HW1  266   0.672   0.189   1.816 -0.1348  0.0711 -0.6671
   89SOL    HW2  267   0.599   0.109   1.944 -1.5711  2.1320 -1.4143
   90SOL     OW  268   0.065   1.978   0.876  0.5249  0.0385 -0.0381
   90SOL    HW1  269   0.052   2.032   0.787  1.9185  0.5050 -3.1982
   90SOL    HW2  270   0.059   1.876   0.863  1.4248 -0.8163  1.8398
   91SOL     OW  271   0.895   1.609   1.204  0.1922  0.2967  0.0919
   91SOL    HW1  272   0.796   1.619   1.185  0.4762  0.3034 -0.9748
   91SOL    HW2  273   0.932   1.535   1.145 -0.8974 -0.2822  2.3629
   92SOL     OW  274   2.499   2.888   1.606  0.1281 -0.1759 -0.1102
   92SOL    HW1  275   2.518   2.986   1.625  2.1458  0.8975  0.2730
   92SOL    HW2  276   2.580   2.841   1.564 -0.2815 -0.8641  2.0792
   93SOL     OW  277   0.341   1.083   2.768 -0.6112 -0.0156  0.4224
   93SOL    HW1  278   0.424   1.138   2.788  1.0058 -3.2171 -1.2066
   93SOL    HW2  279   0.295   1.116   2.684  0.3435  0.1686  0.1124
   94SOL     OW  280   2.524   0.064   1.941 -0.1422  0.0908 -0.0337
   94SOL    HW1  281   2.506   0.164   1.941 -0.7028  1.0269  2.0685
   94SOL    HW2  282   2.624   0.045   1.929  0.1109  1.0332  0.1579
   95SOL     OW  283   1.730   0.735   2.103  0.4693  0.1048  0.3755
   95SOL    HW1  284   1.659   0.666   2.132  1.2118 -3.1834  2.0820
   95SOL    HW2  285   1.733   0.745   2.001 -0.1785 -0.5265  0.8496
   96SOL     OW  286   2.929   0.608   1.781  0.8309 -0.4200  0.4176
   96SOL    HW1  287   2.841   0.588   1.826  2.6610 -1.8078 -0.4286
   96SOL    HW2  288   2.922   0.691   1.718  0.5716  0.6039  2.3051
   97SOL     OW  289   1.967   2.802   1.511 -1.0831 -0.1289 -0.3899
   97SOL    HW1  290   1.990   2.727   1.574  1.0201  2.8238  0.8618
   97SOL    HW2  291   2.002   2.789   1.418  0.1820  3.2773  0.6289
   98SOL     OW  292   2.006   2.505   1.626  0.8899  0.1949 -0.0963
   98SOL    HW1  293   1.981   2.404   1.639 -2.9507 -2.2103  1.1927
   98SOL    HW2  294   2.010   2.556   1.716 -0.6886 -0.5938  3.1951
   99SOL     OW  295   2.768   0.551   1.192 -0.0726  0.7718 -0.0790
   99SOL    HW1  296   2.782   0.454   1.153 -1.2596 -1.9208 -0.6112
   99SOL    HW2  297   2.840   0.617   1.167 -1.0017  0.4053  0.8544
  100SOL     OW  298   2.529   1.813   1.755 -0.1786 -0.1011  0.3016
  100SOL    HW1  299   2.447   1.833   1.814 -2.0476 -1.9535  1.2541
  100SOL    HW2  300   2.523   1.869   1.668 -2.4063  2.5094 -0.3926
  101SOL     OW  301   2.187   3.039   0.158 -0.1133 -0.1883  0.8395
  101SOL    HW1  302   2.091   3.053   0.131 -0.7069  1.1659  1.8537
  101SOL    HW2  303   2.243   0.006   0.081 -1.4550 -0.6302 -1.4903
  102SOL     OW  304   0.648   0.426   1.297 -0.1626 -0.1165  0.0716
  102SOL    HW1  305   0.689   0.362   1.363  0.9607 -0.9317 -2.2538
  102SOL    HW2  306   0.559   0.392   1.265 -1.2269  0.2564  0.9264
  103SOL     OW  307   2.965   0.012   2.444 -0.8489 -0.3986  0.3055
  103SOL    HW1  308   2.969   2.980   2.490  0.7749  0.0389  2.9943
  103SOL    HW2  309   3.022   0.014   2.361  0.9144  1.0584 -1.7170
  104SOL     OW  310   0.381   2.208   1.270  0.1433  0.2286  0.4001
  104SOL    HW1  311   0.384   2.138   1.194  0.0555 -3.6509 -4.9739
  104SOL    HW2  312   0.429   2.297   1.243  0.3784 -0.1148  1.2391
  105SOL     OW  313   0.751   1.598   1.945 -0.3082  0.0586  0.0208
  105SOL    HW1  314   0.816   1.532   1.895 -2.2646 -2.0607 -0.6971
  105SOL    HW2  315   0.702   1.654   1.873 -0.8082  0.6765 -0.2728
  106SOL     OW  316   1.883   0.516   0.679  0.0010 -0.3040  0.0182
  106SOL    HW1  317   1.912   0.614   0.684 -2.4820  1.7714  0.6940
  106SOL    HW2  318   1.795   0.523   0.628  0.3405 -1.1081 -0.9398
  107SOL     OW  319   0.669   1.079   1.243  0.5351 -0.3762 -0.4678
  107SOL    HW1  320   0.759   1.085   1.285 -0.4052 -2.5871 -1.4065
  107SOL    HW2  321   0.635   1.171   1.209 -1.2900  1.3659 -0.1096
  108SOL     OW  322   3.024   0.767   2.156  0.3166 -0.1143  0.4072
  108SOL    HW1  323   0.021   0.720   2.087 -2.5787 -1.0439 -0.0308
  108SOL    HW2  324   2.926   0.744   2.153 -1.1934  0.4123 -1.4742
  109SOL     OW  325   1.801   2.923   2.827  0.4517 -0.5698  0.2317
  109SOL    HW1  326   1.876   2.897   2.886  2.4497  0.0630  0.0462
  109SOL    HW2  327   1.708   2.895   2.864 -2.0659 -2.0742 -0.4972
  110SOL     OW  328   0.226   1.961   2.972  0.7661  0.1812 -0.1858
  110SOL    HW1  329   0.159   2.012   3.024  0.0511 -0.1000 -0.5646
  110SOL    HW2  330   0.313   1.968   3.020 -1.2605 -1.5562  0.4910
  111SOL     OW  331   2.767   0.649   2.142 -0.0803  0.4605  0.2336
  111SOL    HW1  332   2.687   0.631   2.206  0.2526 -1.2221  3.0762
  111SOL    HW2  333   2.790   0.562   2.097  2.5434  2.4918  1.5250
  112SOL     OW  334   2.718   2.487   1.168  0.1172  0.4517  0.0202
  112SOL    HW1  335   2.635   2.470   1.223 -0.5424  0.9757 -1.3269
  112SOL    HW2  336   2.721   2.420   1.096 -0.1130 -1.5467 -1.2686
  113SOL     OW  337   1.916   1.986   1.824 -0.6533 -0.1396  0.6124
  113SOL    HW1  338   1.851   2.004   1.898 -0.2352 -1.2941  2.0390
  113SOL    HW2  339   2.009   1.975   1.861 -1.7064 -0.7997  2.3641
  114SOL     OW  340   0.149   0.294   0.253  0.4252 -0.4196  0.4886
  114SOL    HW1  341   0.072   0.334   0.309  0.7379 -1.7275  1.9066
  114SOL    HW2  342   0.237   0.341   0.261 -0.1979 -0.9639  0.4593
  115SOL     OW  343   2.721   1.580   0.033  0.5892 -0.3108 -0.4454
  115SOL    HW1  344   2.780   1.652   3.051 -0.3220  0.7792 -2.1371
  115SOL    HW2  345   2.720   1.505   3.029  1.5196  2.7427 -0.2571
  116SOL     OW  346   0.052   1.182   1.701 -0.4110  0.0206 -0.0913
  116SOL    HW1  347   0.102   1.252   1.758  1.1451  1.4614 -0.7904
  116SOL    HW2  348   3.037   1.232   1.657  0.8193 -2.6930  0.2694
  117SOL     OW  349   2.247   0.069   1.403 -0.1033 -0.3910 -0.5159
  117SOL    HW1  350   2.160   0.052   1.354  0.4803  0.0319  0.6977
  117SOL    HW2  351   2.250   0.007   1.487  2.9253 -1.5585  0.1428
  118SOL     OW  352   2.772   2.306   2.100  0.3438  0.0178 -0.1038
  118SOL    HW1  353   2.835   2.389   2.118  3.3548  3.2760 -0.1101
  118SOL    HW2  354   2.775   2.279   2.001  3.8607 -1.6531 -2.5311
  119SOL     OW  355   0.618   1.626   1.105 -0.1387 -0.2602  0.4048
  119SOL    HW1  356   0.564   1.646   1.019 -0.6646  0.9619  0.7126
  119SOL    HW2  357   0.557   1.637   1.186 -2.2596  2.0849  0.1732
  120SOL     OW  358   0.246   1.712   1.442  0.2101 -0.2167 -0.2636
  120SOL    HW1  359   0.198   1.742   1.530  0.5593  1.4333 -1.5355
  120SOL    HW2  360   0.182   1.716   1.367 -2.7751  0.1628  2.6272
  121SOL     OW  361   1.683   1.398   1.034 -0.9348  0.0019 -0.2955
  121SOL    HW1  362   1.732   1.322   1.085  0.2013  0.7480 -0.6682
  121SOL    HW2  363   1.586   1.399   1.063  0.0595  1.1570 -0.1023
  122SOL     OW  364   1.840   2.284   2.496  0.0948 -0.2296 -0.2991
  122SOL    HW1  365   1.915   2.236   2.551 -0.7862 -0.3757 -1.8333
  122SOL    HW2  366   1.821   2.374   2.536 -1.0509 -0.7225  0.4086
  123SOL     OW  367   2.961   3.032   0.354 -0.3678  0.8105  0.2349
  123SOL    HW1  368   0.000   3.047   0.369  0.3359  0.5460 -1.3932
  123SOL    HW2  369   2.906   3.026   0.438 -0.7538  0.3046 -0.8856
  124SOL     OW  370   0.859   1.297   0.412  0.7275  0.4042  0.3687
  124SOL    HW1  371   0.820   1.244   0.493 -2.2178 -0.0324  1.0272
  124SOL    HW2  372   0.925   1.241   0.360 -2.5168  3.0603  3.0347
  125SOL     OW  373   0.418   1.207   2.377 -0.2103  0.5886 -0.2922
  125SOL    HW1  374   0.351   1.255   2.316  1.3402 -0.8287  0.3261
  125SOL    HW2  375   0.512   1.204   2.343 -5.0362 -0.2290 -1.8619
  126SOL     OW  376   2.955   2.447   0.266  0.3263 -0.2327  0.0844
  126SOL    HW1  377   3.017   2.404   0.338  2.2818 -1.2574  1.8440
  126SOL    HW2  378   2.941   2.547   0.286 -1.0017 -1.2964 -0.3534
  127SOL     OW  379   2.754   1.919   0.324  0.0483  0.7099 -0.1444
  127SOL    HW1  380   2.687   1.873   0.260  1.9785  0.4022 -3.0084
  127SOL    HW2  381   2.716   2.006   0.364  0.4004  0.7651 -1.8599
  128SOL     OW  382   1.250   0.847   0.744  0.1704 -0.0840 -0.1724
  128SOL    HW1  383   1.208   0.924   0.694  0.4398 -1.4554  1.3512
  128SOL    HW2  384   1.280   0.892   0.837 -1.5949  0.5992  2.9699
  129SOL     OW  385   2.565   1.925   1.106 -0.5147 -0.4420 -0.2457
  129SOL    HW1  386   2.630   1.962   1.174  2.5087 -1.6963 -0.7192
  129SOL    HW2  387   2.544   1.832   1.129  1.1896  1.6588 -2.4950
  130SOL     OW  388   2.397   0.904   0.824  0.7631 -0.3786  0.0928
  130SOL    HW1  389   2.455   0.920   0.902 -0.4229 -0.7404 -2.6374
  130SOL    HW2  390   2.393   0.988   0.765  1.4926  1.1816  2.4068
  131SOL     OW  391   2.988   1.352   2.325 -0.0251  0.2408  0.0094
  131SOL    HW1  392   2.966   1.264   2.277 -1.1391 -0.0500  0.3786
  131SOL    HW2  393   2.981   1.334   2.429 -2.1196 -1.4721  0.6631
  132SOL     OW  394   1.330   1.447   2.227 -0.2972 -0.2737 -0.8211
  132SOL    HW1  395   1.240   1.398   2.220  0.4851 -1.2255 -2.2384
  132SOL    HW2  396   1.407   1.397   2.187 -2.1085 -1.3678 -1.1784
  133SOL     OW  397   0.128   1.262   0.284 -0.5996  0.1584  0.6087
  133SOL    HW1  398   0.034   1.287   0.248 -2.4395 -1.9493 -2.2314
  133SOL    HW2  399   0.182   1.217   0.209 -0.7751 -0.3944 -1.1693
  134SOL     OW  400   2.703   0.880   0.206  0.0147 -0.1823  0.3423
  134SOL    HW1  401   2.742   0.854   0.118 -2.5004 -1.3617  0.5461
  134SOL    HW2  402   2.642   0.961   0.195  1.0416 -0.8772 -0.4734
  135SOL     OW  403   1.481   0.813   0.086 -0.6719  0.3049  0.2436
  135SOL    HW1  404   1.478   0.826   3.047  0.9404  0.9231  3.3045
  135SOL    HW2  405   1.433   0.887   0.134  1.7522  0.4269  1.0376
  136SOL     OW  406   1.881   1.603   1.769 -0.5219 -0.4786  0.4040
  136SOL    HW1  407   1.786   1.564   1.757 -0.9351 -1.5378 -0.8165
  136SOL    HW2  408   1.908   1.688   1.714  2.2087  1.5137  1.2912
  137SOL     OW  409   2.383   2.183   0.619  0.0947  0.7995  0.2979
  137SOL    HW1  410   2.466   2.198   0.564 -3.6332 -1.8601  0.1578
  137SOL    HW2  411   2.313   2.252   0.589 -0.8682  0.3480  0.8866
  138SOL     OW  412   2.324   0.308   1.366 -0.0478 -0.5372 -0.8051
  138SOL    HW1  413   2.304   0.212   1.390  1.1310  0.1499  2.9351
  138SOL    HW2  414   2.264   0.348   1.294  0.2483 -0.7757  1.5596
  139SOL     OW  415   2.638   0.032   2.828 -0.1714  0.3505 -0.0146
  139SOL    HW1  416   2.650   0.126   2.870 -0.9694  1.2806 -0.6604
  139SOL    HW2  417   2.664   3.022   2.891  0.0843 -0.7952 -4.5225
  140SOL     OW  418   1.326   1.844   2.191 -0.3303  0.1026  0.0486
  140SOL    HW1  419   1.301   1.774   2.260 -0.6159 -1.5393  0.5132
  140SOL    HW2  420   1.298   1.940   2.212 -0.3606 -3.0502 -0.0899
  141SOL     OW  421   0.993   0.982   2.298 -0.5447  0.0458 -0.0646
  141SOL    HW1  422   0.957   0.932   2.377  2.1745 -1.3567 -2.3067
  141SOL    HW2  423   1.096   0.987   2.304 -0.2797 -0.0096  0.1448
  142SOL     OW  424   2.510   2.588   2.666  0.6170 -0.2327 -0.8491
  142SOL    HW1  425   2.421   2.633   2.695 -2.8706 -1.3845 -0.2976
  142SOL    HW2  426   2.515   2.485   2.694 -1.5449 -4.5440  2.3799
  143SOL     OW  427   1.130   2.061   0.293 -0.1011 -0.0949  0.0898
  143SOL    HW1  428   1.202   2.069   0.368  0.5358 -2.3509  3.5469
  143SOL    HW2  429   1.038   2.039   0.324  2.2908 -0.1737 -1.8558
  144SOL     OW  430   1.210   2.540   0.222 -0.2884  0.1016  0.5222
  144SOL    HW1  431   1.176   2.444   0.237 -0.6444 -2.7929  1.6712
  144SOL    HW2  432   1.172   2.580   0.133 -1.8944  0.8258 -0.0721
  145SOL     OW  433   1.366   2.325   2.545 -0.6497  0.1411 -0.3263
  145SOL    HW1  434   1.279   2.306   2.495 -0.8737 -0.0970 -0.5463
  145SOL    HW2  435   1.442   2.262   2.519 -1.6641  0.6221  0.3672
  146SOL     OW  436   2.220   2.863   2.893 -0.1297  0.2784 -0.1312
  146SOL    HW1  437   2.237   2.958   2.861 -1.9930 -0.2549 -0.8632
  146SOL    HW2  438   2.128   2.866   2.941  1.1265 -0.7819  0.6376
  147SOL     OW  439   2.908   1.176   1.097 -0.2272 -0.0467 -0.5352
  147SOL    HW1  440   2.815   1.178   1.058 -0.6514 -0.4431 -0.3566
  147SOL    HW2  441   2.946   1.269   1.104 -0.1856 -0.4112  2.9433
  148SOL     OW  442   2.078   2.718   0.207  0.3177 -0.6395 -0.2076
  148SOL    HW1  443   2.058   2.784   0.282 -2.6707  2.7547 -1.1376
  148SOL    HW2  444   2.178   2.722   0.169  3.1531 -4.6423 -0.9120
  149SOL     OW  445   0.635   1.831   2.900 -0.1670  0.5007  0.5427
  149SOL    HW1  446   0.654   1.733   2.885 -0.7910  0.3659  0.5831
  149SOL    HW2  447   0.577   1.875   2.828 -0.4474 -0.5112  0.9278
  150SOL     OW  448   0.477   2.418   0.675  0.3437  0.1908  0.8769
  150SOL    HW1  449   0.578   2.434   0.675  0.0631 -0.5216 -0.1543
  150SOL    HW2  450   0.447   2.404   0.773  2.2635  1.1855 -1.5733
  151SOL     OW  451   0.220   1.036   0.155 -0.2542 -0.3371 -0.1078
  151SOL    HW1  452   0.213   0.942   0.181 -0.5347  2.1968 -0.6884
  151SOL    HW2  453   0.186   1.042   0.058  1.0471  0.9490 -1.9064
  152SOL     OW  454   2.753   2.165   0.691  0.1195  0.6521 -0.1579
  152SOL    HW1  455   2.719   2.247   0.737 -2.7276 -1.3532  2.6481
  152SOL    HW2  456   2.706   2.158   0.604  1.1694 -0.8937  1.4265
  153SOL     OW  457   1.601   2.362   0.854 -0.2007  0.0944 -0.1101
  153SOL    HW1  458   1.666   2.321   0.919 -1.2348 -2.5453  1.6721
  153SOL    HW2  459   1.559   2.292   0.791 -3.3183 -2.2894 -0.2034
  154SOL     OW  460   0.612   2.751   1.087 -0.2396  0.1471  0.6159
  154SOL    HW1  461   0.606   2.851   1.086  1.2287 -2.5627 -1.9425
  154SOL    HW2  462   0.661   2.713   1.164  0.3983  2.3482 -2.9270
  155SOL     OW  463   3.034   2.080   0.646 -0.2291  0.3186 -0.9412
  155SOL    HW1  464   2.946   2.119   0.684 -3.5881  2.9127  2.4825
  155SOL    HW2  465   3.030   2.084   0.544 -0.1163 -0.0713  0.5989
  156SOL     OW  466   2.561   2.109   0.177  0.2226  0.2785 -0.1097
  156SOL    HW1  467   2.642   2.169   0.155 -0.5363  0.7828  0.7189
  156SOL    HW2  468   2.571   2.015   0.130 -0.1077 -1.1031 -0.5695
  157SOL     OW  469   0.448   2.323   1.579  0.0774 -0.2753 -0.0003
  157SOL    HW1  470   0.366   2.355   1.634  0.8885 -0.7802 -0.4585
  157SOL    HW2  471   0.426   2.239   1.530  2.5873 -0.6901 -2.7036
  158SOL     OW  472   1.413   0.499   0.935  0.2641  0.3262  0.5045
  158SOL    HW1  473   1.367   0.407   0.938 -0.4184 -0.8632 -0.8772
  158SOL    HW2  474   1.493   0.506   0.993 -2.1191 -0.7028  1.3056
  159SOL     OW  475   1.760   0.786   0.054  0.4306  0.4225 -0.3381
  159SOL    HW1  476   1.780   0.761   0.149 -0.2868 -0.7643 -0.9124
  159SOL    HW2  477   1.659   0.795   0.060  0.1265 -0.7845 -0.0216
  160SOL     OW  478   0.873   1.565   0.425  0.1509 -0.4517 -0.3129
  160SOL    HW1  479   0.874   1.463   0.434 -3.6141 -3.5194 -1.6026
  160SOL    HW2  480   0.867   1.579   0.326 -0.3099 -2.7536 -0.1638
  161SOL     OW  481   2.759   2.348   2.583 -0.2451  0.1298 -0.1411
  161SOL    HW1  482   2.677   2.341   2.642 -0.3035  0.8012 -3.3518
  161SOL    HW2  483   2.844   2.314   2.635  0.6541  0.8727  0.3660
  162SOL     OW  484   0.121   2.123   1.299  0.0676  0.0213 -0.0928
  162SOL    HW1  485   0.068   2.189   1.353 -2.4020 -0.6619 -1.6656
  162SOL    HW2  486   0.211   2.159   1.277  0.5455 -0.9543  1.3834
  163SOL     OW  487   0.270   0.478   2.845 -0.3369 -0.1580  0.1228
  163SOL    HW1  488   0.290   0.377   2.843 -0.4441  1.5331 -0.5874
  163SOL    HW2  489   0.322   0.525   2.772 -0.5946 -0.4336 -0.9857
  164SOL     OW  490   0.259   2.694   2.481  0.2528  0.2991  0.1107
  164SOL    HW1  491   0.339   2.756   2.469  0.7042  2.2003 -1.0177
  164SOL    HW2  492   0.234   2.690   2.579  2.5019  1.5414 -0.0832
  165SOL     OW  493   2.490   0.801   1.582  0.2878 -0.0875  0.8782
  165SOL    HW1  494   2.545   0.775   1.499 -1.3995  0.2495  2.6689
  165SOL    HW2  495   2.543   0.871   1.636  0.8508  1.4868  1.6641
  166SOL     OW  496   1.921   1.866   1.398 -0.3842  0.2850 -0.1857
  166SOL    HW1  497   1.993   1.815   1.341 -1.0231  0.3086  0.7775
  166SOL    HW2  498   1.828   1.860   1.352 -1.5797 -0.1453 -0.9291
  167SOL     OW  499   0.493   0.699   2.389 -0.4295  0.0694 -0.2628
  167SOL    HW1  500   0.444   0.651   2.316 -1.0216 -0.4942 -2.0274
  167SOL    HW2  501   0.441   0.781   2.418 -2.7012  0.4562 -1.6525
  168SOL     OW  502   2.145   0.160   2.117 -0.6740 -0.3989 -0.2892
  168SOL    HW1  503   2.210   0.143   2.194  0.5568 -1.6520 -2.0984
  168SOL    HW2  504   2.152   0.089   2.044 -0.0882 -0.2152 -0.0643
  169SOL     OW  505   0.267   0.782   0.228 -0.4136 -0.6655  0.1924
  169SOL    HW1  506   0.315   0.779   0.313 -2.9302 -0.9734 -0.5165
  169SOL    HW2  507   0.325   0.748   0.150 -0.4365  0.3846 -4.0554
  170SOL     OW  508   0.733   1.486   1.596  0.4489  0.2115  0.1636
  170SOL    HW1  509   0.722   1.576   1.650  0.8855  0.1182 -0.4571
  170SOL    HW2  510   0.829   1.482   1.557 -1.8405 -0.7332 -1.8018
  171SOL     OW  511   1.138   2.356   1.778 -0.1423 -0.1616 -0.2466
  171SOL    HW1  512   1.214   2.335   1.715 -0.4053 -0.3255 -0.2882
  171SOL    HW2  513   1.149   2.454   1.800  2.0577 -1.6220 -2.9171
  172SOL     OW  514   1.310   2.936   1.980 -0.6319 -0.4114 -0.2711
  172SOL    HW1  515   1.344   3.011   2.036 -2.6953  1.0189  0.7273
  172SOL    HW2  516   1.297   2.853   2.034  1.3357 -1.8425 -1.3821
  173SOL     OW  517   1.399   2.208   0.765 -0.1328  0.4607 -0.0716
  173SOL    HW1  518   1.350   2.294   0.754 -1.0024 -2.7048  4.1350
  173SOL    HW2  519   1.332   2.144   0.804  0.6977 -0.5293 -0.4477
  174SOL     OW  520   2.281   2.938   0.396 -0.6260  0.0474 -0.1034
  174SOL    HW1  521   2.307   3.018   0.458  1.1365 -0.7753  0.5638
  174SOL    HW2  522   2.237   2.963   0.307 -1.0361 -1.3449 -0.7890
  175SOL     OW  523   1.159   1.334   0.549 -0.4947  0.4018  0.3600
  175SOL    HW1  524   1.196   1.417   0.499 -1.9205  2.9252 -0.5028
  175SOL    HW2  525   1.078   1.361   0.601 -3.1071 -0.6291  0.9287
  176SOL     OW  526   0.607   1.489   0.543  0.2825  0.4222 -0.3629
  176SOL    HW1  527   0.697   1.516   0.501  0.3858 -2.4868 -0.1431
  176SOL    HW2  528   0.593   1.393   0.517 -1.2118 -0.5609  1.6376
  177SOL     OW  529   1.129   1.098   0.973 -0.0861 -0.6200  0.5674
  177SOL    HW1  530   1.159   1.178   0.923  0.0485 -2.0382  0.9642
  177SOL    HW2  531   1.210   1.034   0.994 -0.0504 -0.8387  0.7718
  178SOL     OW  532   2.350   1.747   0.202 -0.0498  0.0877  0.2656
  178SOL    HW1  533   2.332   1.814   0.280 -1.0578  0.0493  1.6989
  178SOL    HW2  534   2.293   1.669   0.203  2.4403 -1.3364 -1.3915
  179SOL     OW  535   1.088   2.658   0.020  0.3222  0.0134 -0.1197
  179SOL    HW1  536   1.008   2.617   3.031  0.2616 -1.7518 -0.1584
  179SOL    HW2  537   1.098   2.756   0.004  0.7996 -1.0728  0.2722
  180SOL     OW  538   2.023   1.348   1.960 -0.3708 -0.1395  0.1441
  180SOL    HW1  539   2.108   1.289   1.947  2.7784 -3.3938 -1.6902
  180SOL    HW2  540   2.041   1.448   1.935  2.2089  0.2297 -1.6876
  181SOL     OW  541   1.135   0.683   2.329 -0.6331  0.3465 -0.2177
  181SOL    HW1  542   1.169   0.780   2.327  2.6330  0.3194  1.0027
  181SOL    HW2  543   1.139   0.646   2.420  2.1545  1.8234 -3.6831
  182SOL     OW  544   0.230   1.347   2.219 -0.1672  0.0741  0.1855
  182SOL    HW1  545   0.146   1.344   2.270 -1.0652  1.0237  1.3636
  182SOL    HW2  546   0.226   1.318   2.119 -1.2402 -0.7388  0.1001
  183SOL     OW  547   1.486   0.638   2.426  0.2679 -0.3715 -0.5772
  183SOL    HW1  548   1.440   0.558   2.473 -0.2458 -0.9568 -2.8271
  183SOL    HW2  549   1.544   0.610   2.348 -1.7388  1.2530  1.7882
  184SOL     OW  550   0.578   0.680   1.466  0.7166 -0.9904  0.1600
  184SOL    HW1  551   0.638   0.645   1.544 -3.2497  2.9303  0.4964
  184SOL    HW2  552   0.592   0.620   1.385 -0.8473  1.0896 -1.3189
  185SOL     OW  553   2.124   1.507   0.619  0.2123 -0.1250 -0.0713
  185SOL    HW1  554   2.093   1.575   0.546 -1.9092  2.1063  0.7681
  185SOL    HW2  555   2.048   1.453   0.654  0.5201  1.6070 -0.8785
  186SOL     OW  556   0.229   2.090   0.239 -0.8163  1.7279  0.6250
  186SOL    HW1  557   0.274   2.170   0.277  0.4360  0.0297 -1.4833
  186SOL    HW2  558   0.302   2.023   0.212  3.2157 -1.2322  0.4204
  187SOL     OW  559   2.041   2.295   3.043  0.3401 -0.2377 -0.3481
  187SOL    HW1  560   2.007   2.316   0.080  1.6713 -0.5018  3.4683
  187SOL    HW2  561   2.115   2.227   3.050  0.6524  1.9494  1.4369
  188SOL     OW  562   1.010   1.994   1.078 -0.9651  0.0287 -0.1809
  188SOL    HW1  563   0.909   2.004   1.084  0.1470  0.5150  1.3543
  188SOL    HW2  564   1.034   1.897   1.065 -1.9590  3.4844 -1.3346
  189SOL     OW  565   2.218   1.530   2.419  0.4919 -0.0138  0.2094
  189SOL    HW1  566   2.128   1.581   2.397 -1.5625 -0.6444 -2.2102
  189SOL    HW2  567   2.308   1.586   2.413  0.0111 -0.5591  0.0237
  190SOL     OW  568   0.909   2.636   2.140 -0.3353  0.2895 -0.0653
  190SOL    HW1  569   0.861   2.631   2.051  1.5944  1.9808  1.2145
  190SOL    HW2  570   0.853   2.682   2.216  0.5639  0.2308  0.0442
  191SOL     OW  571   2.643   0.719   1.346  0.1214  0.0043  0.0619
  191SOL    HW1  572   2.710   0.792   1.364 -0.3364 -1.5329 -0.4607
  191SOL    HW2  573   2.692   0.639   1.302  2.5954  0.3613 -2.9551
  192SOL     OW  574   2.526   0.486   1.459 -0.0550 -0.0818 -0.2247
  192SOL    HW1  575   2.461   0.427   1.405  0.3598  1.2018  1.8136
  192SOL    HW2  576   2.558   0.576   1.422  0.3589  1.3443 -3.3800
  193SOL     OW  577   0.446   0.215   0.442 -0.2207  0.1094 -0.0928
  193SOL    HW1  578   0.363   0.244   0.498 -0.6483  3.1574  0.5081
  193SOL    HW2  579   0.535   0.242   0.480 -0.2295 -2.0981  0.3894
  194SOL     OW  580   1.099   2.288   1.481 -0.2551 -0.1021  0.1360
  194SOL    HW1  581   1.094   2.196   1.442 -1.9909 -0.0273 -1.6120
  194SOL    HW2  582   1.193   2.310   1.514 -0.2812  0.0444 -0.1644
  195SOL     OW  583   2.362   1.061   0.366 -0.4003 -0.3481  0.2737
  195SOL    HW1  584   2.408   1.000   0.433 -0.7788  0.4733  3.3487
  195SOL    HW2  585   2.418   1.065   0.280  1.4380 -1.0861 -2.2842
  196SOL     OW  586   0.678   2.438   1.463 -0.0781  0.4377 -0.4470
  196SOL    HW1  587   0.644   2.421   1.364  0.0497 -0.2151  0.0263
  196SOL    HW2  588   0.600   2.423   1.531  0.4958  0.8274  1.8720
  197SOL     OW  589   0.198   0.761   2.323 -0.1043  0.4303  0.1601
  197SOL    HW1  590   0.209   0.669   2.363 -0.3816  1.2817  1.9280
  197SOL    HW2  591   0.139   0.764   2.242  0.4874  1.8428  1.0420
  198SOL     OW  592   1.743   0.883   0.502  0.7343  0.0305 -1.2660
  198SOL    HW1  593   1.669   0.836   0.551  0.5025 -1.4200 -4.1077
  198SOL    HW2  594   1.722   0.982   0.496 -0.9469  0.9714 -0.8952
  199SOL     OW  595   2.755   0.415   1.581 -0.5887  0.2228 -0.4507
  199SOL    HW1  596   2.741   0.449   1.679  0.1696  2.7447 -0.2504
  199SOL    HW2  597   2.663   0.412   1.533 -0.3878  0.6017 -0.9482
  200SOL     OW  598   2.237   0.076   2.914 -0.0053 -0.1522  0.5474
  200SOL    HW1  599   2.330   0.080   2.872  3.1025  0.0767 -0.3942
  200SOL    HW2  600   2.168   0.126   2.853  1.5759  0.7278  0.3958
  201SOL     OW  601   2.557   0.140   1.322 -0.0921  0.1514  0.3133
  201SOL    HW1  602   2.534   0.118   1.419 -1.1527 -0.2466 -0.6756
  201SOL    HW2  603   2.477   0.184   1.275 -0.4266  0.8467  0.9928
  202SOL     OW  604   2.925   2.717   0.336  0.3866 -0.4878 -0.0670
  202SOL    HW1  605   3.020   2.701   0.368 -0.4644  0.3116 -2.2332
  202SOL    HW2  606   2.863   2.746   0.413 -0.0385 -0.9296  1.7173
  203SOL     OW  607   1.347   1.615   3.011  0.0774  0.3415 -0.1116
  203SOL    HW1  608   1.357   1.659   0.042 -0.5078 -0.3923 -0.9149
  203SOL    HW2  609   1.428   1.642   2.950 -0.3655  3.7022  1.4869
  204SOL     OW  610   0.421   2.096   2.247  0.1369 -0.0050 -0.1148
  204SOL    HW1  611   0.467   2.070   2.162  1.7083  0.3559  0.2551
  204SOL    HW2  612   0.354   2.026   2.272  2.4840  0.4648 -2.0849
  205SOL     OW  613   1.035   0.650   1.104 -0.2363 -0.5546  0.0175
  205SOL    HW1  614   1.010   0.566   1.159  0.2243  0.1537  1.1747
  205SOL    HW2  615   1.139   0.667   1.103  2.7386 -0.5819  1.7586
  206SOL     OW  616   0.308   0.813   2.750  0.1731  0.0770  0.1355
  206SOL    HW1  617   0.328   0.915   2.743  0.2570  0.3235 -0.1517
  206SOL    HW2  618   0.221   0.781   2.704  1.5364  0.2877  0.2206
  207SOL     OW  619   1.552   2.251   1.712  0.4052 -0.1415  0.6604
  207SOL    HW1  620   1.627   2.318   1.737  0.7831 -1.8425 -1.9748
  207SOL    HW2  621   1.505   2.208   1.793 -1.4245  3.1911 -0.8403
  208SOL     OW  622   0.351   3.003   0.909 -0.2328 -0.0834 -0.2942
  208SOL    HW1  623   0.350   2.933   0.841 -0.5121  1.2925  2.9825
  208SOL    HW2  624   0.369   0.033   0.872  4.3498  1.5358 -1.1391
  209SOL     OW  625   1.538   0.992   0.823  0.6280  0.5459  0.4083
  209SOL    HW1  626   1.592   0.983   0.909  0.7905  0.8776 -1.9786
  209SOL    HW2  627   1.521   0.904   0.773  0.2572 -1.9731  0.1631
  210SOL     OW  628   2.565   0.634   0.803 -0.1642 -0.6880  0.0426
  210SOL    HW1  629   2.618   0.709   0.761  2.3604 -1.4685  1.0434
  210SOL    HW2  630   2.558   0.557   0.738  1.5818  1.1978  1.2462
  211SOL     OW  631   1.266   0.175   0.124  0.5446  0.3601 -0.7272
  211SOL    HW1  632   1.200   0.131   0.194  1.0415  1.9051  1.5695
  211SOL    HW2  633   1.349   0.119   0.106 -0.2214 -0.5786  1.4837
  212SOL     OW  634   1.667   2.150   0.568  1.1712 -0.0638  0.1390
  212SOL    HW1  635   1.724   2.235   0.564 -1.1883 -3.7833 -3.3033
  212SOL    HW2  636   1.587   2.158   0.500  1.5342 -1.0318  0.2938
  213SOL     OW  637   2.251   0.312   2.428  0.1531 -0.0639 -0.2741
  213SOL    HW1  638   2.307   0.369   2.488  0.7755 -0.1167  0.1948
  213SOL    HW2  639   2.160   0.301   2.472 -1.6493 -0.4798 -1.6189
  214SOL     OW  640   1.067   1.704   1.998 -0.1511  0.6201  0.5693
  214SOL    HW1  641   1.128   1.632   1.960  2.4220 -2.7076 -1.2556
  214SOL    HW2  642   1.057   1.708   2.097 -0.9900 -0.1260  0.8597
  215SOL     OW  643   0.158   1.204   1.050 -0.2409  0.3695 -0.5372
  215SOL    HW1  644   0.119   1.290   1.077  2.5532 -2.4163 -0.6170
  215SOL    HW2  645   0.172   1.136   1.129 -2.2142 -2.9205  3.1212
  216SOL     OW  646   0.206   2.329   2.764 -0.4380 -0.9969  0.0848
  216SOL    HW1  647   0.115   2.318   2.813 -3.2973 -2.0968  0.0867
  216SOL    HW2  648   0.279   2.357   2.823 -0.8451  0.3515  0.7250
  217SOL     OW  649   2.508   1.233   1.308  0.3209  0.0928 -0.0920
  217SOL    HW1  650   2.530   1.132   1.308  2.4604  0.5403 -0.2381
  217SOL    HW2  651   2.469   1.270   1.395 -0.5710  0.3511  0.0393
  218SOL     OW  652   0.712   2.332   1.984  0.0006  0.3129 -0.5042
  218SOL    HW1  653   0.718   2.430   1.965  1.3002 -3.1299  2.1342
  218SOL    HW2  654   0.801   2.311   2.030  1.5072 -0.5127 -2.4919
  219SOL     OW  655   1.994   1.460   0.301  0.5667 -0.1065  0.3241
  219SOL    HW1  656   2.061   1.476   0.227 -0.9160  0.7108 -1.0972
  219SOL    HW2  657   1.985   1.544   0.357 -1.3019  1.6361 -0.4477
  220SOL     OW  658   2.187   0.703   0.739 -0.3328 -0.0881  0.3183
  220SOL    HW1  659   2.246   0.725   0.820  3.2351  3.3604  1.5688
  220SOL    HW2  660   2.092   0.721   0.757  0.9646 -1.9810  0.7109
  221SOL     OW  661   2.741   0.513   0.026 -0.0869  0.4018 -0.1485
  221SOL    HW1  662   2.773   0.608   0.022  0.0295  0.3353 -3.6752
  221SOL    HW2  663   2.803   0.457   0.087 -1.5362 -3.8852 -0.0939
  222SOL     OW  664   1.475   1.198   0.642 -0.1982 -0.0938 -0.3292
  222SOL    HW1  665   1.509   1.119   0.689 -0.3710  0.7063  0.3333
  222SOL    HW2  666   1.398   1.234   0.697  0.0608 -0.0187 -2.8233
  223SOL     OW  667   0.952   0.046   2.889  0.1342 -0.2571  0.0594
  223SOL    HW1  668   1.038   0.087   2.851  3.1800 -0.0598  2.8366
  223SOL    HW2  669   0.928   3.025   2.835  0.3740  1.9364 -0.0809
  224SOL     OW  670   1.062   2.891   1.302 -0.3990 -0.3821 -0.7232
  224SOL    HW1  671   1.039   2.980   1.251  1.0320  2.7230 -3.1453
  224SOL    HW2  672   1.119   2.906   1.384 -3.1030 -0.5050 -2.7189
  225SOL     OW  673   0.253   2.410   1.760  0.1827  0.3212 -0.0430
  225SOL    HW1  674   0.176   2.350   1.776  1.5630 -3.0146 -0.1808
  225SOL    HW2  675   0.319   2.409   1.834  1.9097  1.4208  1.0594
  226SOL     OW  676   1.394   1.216   0.375  0.0973 -0.3044  0.0390
  226SOL    HW1  677   1.442   1.172   0.455 -0.6881  0.0580  1.2528
  226SOL    HW2  678   1.328   1.284   0.409 -0.0418  0.0229 -0.6508
  227SOL     OW  679   0.383   1.233   0.676 -0.0332 -0.2117  0.4902
  227SOL    HW1  680   0.443   1.204   0.599 -1.5066 -1.0361 -1.6404
  227SOL    HW2  681   0.293   1.267   0.641  1.0458  0.0345 -1.6314
  228SOL     OW  682   0.015   1.735   0.784  0.0221  0.6189  0.3054
  228SOL    HW1  683   2.977   1.727   0.791  1.5362  0.3496  0.4372
  228SOL    HW2  684   0.049   1.742   0.687  0.2922  1.0953 -0.5361
  229SOL     OW  685   2.697   0.273   2.976 -0.0517 -0.2938 -0.8233
  229SOL    HW1  686   2.691   0.373   2.990  2.5654 -0.0567 -2.4017
  229SOL    HW2  687   2.795   0.250   2.960 -0.5757  0.1295  0.3814
  230SOL     OW  688   2.232   0.901   1.125 -0.4765 -0.3983  0.0507
  230SOL    HW1  689   2.274   0.993   1.106  1.3877 -1.3035 -1.4927
  230SOL    HW2  690   2.213   0.896   1.225  1.5072 -0.1122  1.2121
  231SOL     OW  691   1.519   1.335   2.872  0.2651 -0.0703  0.2446
  231SOL    HW1  692   1.529   1.430   2.837 -0.8165  1.8361  0.1681
  231SOL    HW2  693   1.534   1.331   2.974  0.6050  0.5606 -0.7607
  232SOL     OW  694   2.294   1.967   0.738 -0.9871 -0.0293 -0.5218
  232SOL    HW1  695   2.363   1.892   0.743  1.1023  0.3133 -2.9030
  232SOL    HW2  696   2.335   2.050   0.688  1.2897  4.0710 -1.9122
  233SOL     OW  697   0.884   2.679   0.997  0.2715 -0.3733 -0.3563
  233SOL    HW1  698   0.868   2.701   1.098  0.9343  0.4042 -2.1106
  233SOL    HW2  699   0.823   2.738   0.943  0.9397 -1.0528 -0.9439
  234SOL     OW  700   0.729   0.561   2.607 -0.1718 -0.0301 -0.1805
  234SOL    HW1  701   0.790   0.587   2.686 -1.7701  1.4418  0.3949
  234SOL    HW2  702   0.635   0.607   2.622  0.6868 -0.3869 -2.2230
  235SOL     OW  703   2.967   1.062   2.238 -0.1380 -0.6292  0.3734
  235SOL    HW1  704   2.972   0.961   2.243 -2.0801  0.8951  0.3228
  235SOL    HW2  705   2.988   1.097   2.143 -0.3729 -1.3059 -3.1222
  236SOL     OW  706   1.416   2.714   1.641 -0.1451  0.2201  0.3416
  236SOL    HW1  707   1.372   2.734   1.555 -1.0750 -0.8501  0.1251
  236SOL    HW2  708   1.502   2.666   1.627 -0.8932 -2.0054 -1.3498
  237SOL     OW  709   0.712   1.409   2.567  0.0811  0.2725 -0.2262
  237SOL    HW1  710   0.721   1.503   2.539 -0.3987 -2.7092  0.5017
  237SOL    HW2  711   0.702   1.355   2.482  3.2486  0.2190 -1.7299
  238SOL     OW  712   1.056   0.426   2.297 -0.0179 -0.3434  0.0084
  238SOL    HW1  713   1.109   0.518   2.310  1.7390  3.9230  1.9678
  238SOL    HW2  714   0.958   0.429   2.335  1.5060 -0.4812  1.1888
  239SOL     OW  715   0.213   2.295   2.152 -0.0969  0.0612 -0.3211
  239SOL    HW1  716   0.252   2.230   2.088  0.5587  0.9592  1.2540
  239SOL    HW2  717   0.252   2.288   2.248 -0.2696 -1.4914 -0.9879
  240SOL     OW  718   2.438   2.722   0.436  0.1383 -0.4872  0.0626
  240SOL    HW1  719   2.411   2.667   0.521  1.7125 -0.3934 -0.1435
  240SOL    HW2  720   2.369   2.796   0.426 -1.3587  1.5760 -0.7279
  241SOL     OW  721   2.859   1.137   0.281 -0.2522  0.8473  0.0047
  241SOL    HW1  722   2.848   1.144   0.383 -1.9800 -2.3476 -2.5116
  241SOL    HW2  723   2.825   1.049   0.240 -0.7921  1.7889  1.7695
  242SOL     OW  724   1.733   2.452   1.790 -0.4551 -0.1366  0.3803
  242SOL    HW1  725   1.805   2.382   1.798  0.2691  2.0562 -3.2934
  242SOL    HW2  726   1.719   2.498   1.882 -0.0122 -2.4311 -0.1414
  243SOL     OW  727   0.427   2.420   1.959 -0.0896 -0.0801  0.3421
  243SOL    HW1  728   0.523   2.410   1.958 -0.9777  1.5144 -2.7698
  243SOL    HW2  729   0.400   2.441   2.052  0.8493 -1.8863  1.7848
  244SOL     OW  730   2.559   0.583   2.287  0.2155  0.5045 -0.1825
  244SOL    HW1  731   2.592   0.515   2.349  1.1460  1.5243 -4.5883
  244SOL    HW2  732   2.473   0.556   2.240 -0.5695  0.7492 -0.3498
  245SOL     OW  733   1.281   0.173   1.143  0.0117  0.5919  0.4014
  245SOL    HW1  734   1.191   0.123   1.162 -3.2643 -1.4123 -1.1750
  245SOL    HW2  735   1.275   0.219   1.055 -1.0358 -1.9402 -2.0685
  246SOL     OW  736   1.593   2.746   0.427  0.5662 -0.2623 -0.1959
  246SOL    HW1  737   1.612   2.648   0.421  0.2394  4.2161 -0.9798
  246SOL    HW2  738   1.503   2.772   0.387  2.0694 -0.5130 -0.6547
  247SOL     OW  739   1.332   0.659   2.110  0.6146  0.1860  0.2251
  247SOL    HW1  740   1.413   0.609   2.144 -3.8368 -0.2843  0.3996
  247SOL    HW2  741   1.261   0.657   2.187  1.0168 -0.7646  1.1016
  248SOL     OW  742   0.028   2.244   1.749 -0.0390  0.2392  0.1858
  248SOL    HW1  743   0.063   2.155   1.716 -2.7215  3.1143  0.8880
  248SOL    HW2  744   3.003   2.218   1.800  0.5816 -1.0018 -0.7055
  249SOL     OW  745   2.917   0.354   0.168  0.7202  0.5337 -0.2058
  249SOL    HW1  746   2.945   0.361   0.264  1.6270  2.0670 -1.6987
  249SOL    HW2  747   2.899   0.257   0.143 -1.6971  0.5214  1.2184
  250SOL     OW  748   2.708   0.043   2.527 -0.1163 -0.0093  0.4312
  250SOL    HW1  749   2.803   0.035   2.491 -0.9628  0.9073 -2.9127
  250SOL    HW2  750   2.701   0.029   2.626  0.8447  2.5075 -3.7045
  251SOL     OW  751   1.475   0.565   0.169 -0.1348  0.2167 -1.0314
  251SOL    HW1  752   1.535   0.558   0.251 -1.6448  1.5676 -0.4552
  251SOL    HW2  753   1.474   0.661   0.134  2.3080  0.9308 -2.8248
  252SOL     OW  754   1.444   2.142   1.929 -0.2654 -0.1577 -0.2455
  252SOL    HW1  755   1.343   2.152   1.938 -0.3001  1.1286 -0.7874
  252SOL    HW2  756   1.495   2.159   2.018 -2.1904 -1.2585  0.0782
  253SOL     OW  757   2.363   2.624   1.118  0.4333  0.0754  0.1308
  253SOL    HW1  758   2.404   2.673   1.196 -0.0575  1.1498  0.3273
  253SOL    HW2  759   2.431   2.561   1.075  0.4884 -1.1804 -3.2102
  254SOL     OW  760   2.362   1.128   0.684  0.0764 -0.3168 -0.3699
  254SOL    HW1  761   2.278   1.089   0.641  0.0788  0.2550  0.5325
  254SOL    HW2  762   2.342   1.198   0.752  1.8834  0.1544 -0.0084
  255SOL     OW  763   0.844   2.713   1.285 -0.3429 -0.2122 -0.1563
  255SOL    HW1  764   0.911   2.790   1.294  1.3384 -0.4617  1.9046
  255SOL    HW2  765   0.871   2.637   1.346  2.3544  1.6924 -1.0930
  256SOL     OW  766   1.898   2.131   1.448 -0.1461 -0.3937  0.0373
  256SOL    HW1  767   1.922   2.029   1.435  0.4972 -2.3767 -1.7918
  256SOL    HW2  768   1.795   2.147   1.439 -1.2211  3.1380  0.6885
  257SOL     OW  769   0.628   2.464   2.406 -0.4263 -0.2395 -0.0038
  257SOL    HW1  770   0.571   2.484   2.487  3.0258  0.1297  1.6328
  257SOL    HW2  771   0.697   2.535   2.401 -3.1536 -0.2507 -2.4531
  258SOL     OW  772   0.848   2.762   0.631  0.4579 -0.3130 -0.3796
  258SOL    HW1  773   0.938   2.749   0.680  1.1363  0.0929  0.6930
  258SOL    HW2  774   0.773   2.807   0.688  0.8917 -2.2536 -0.1119
  259SOL     OW  775   1.395   0.469   2.790  0.4937 -0.2456 -0.3267
  259SOL    HW1  776   1.413   0.381   2.840  1.0406 -1.4573  1.9964
  259SOL    HW2  777   1.317   0.527   2.824  1.1421 -1.7783 -4.0073
  260SOL     OW  778   2.854   0.929   0.972  0.1794 -0.2571 -0.2657
  260SOL    HW1  779   2.863   1.017   1.028  2.5907 -0.9919 -0.3906
  260SOL    HW2  780   2.893   0.844   1.018 -2.3605 -1.4950 -0.4174
  261SOL     OW  781   0.810   0.397   2.416 -0.2636  0.4179  0.6253
  261SOL    HW1  782   0.770   0.447   2.494 -0.2139  1.5247  0.5879
  261SOL    HW2  783   0.761   0.305   2.418  1.7932 -1.0323  2.6690
  262SOL     OW  784   0.946   2.362   2.123 -0.3095  0.1256 -0.3493
  262SOL    HW1  785   0.947   2.459   2.154  1.3726 -0.4461  0.1633
  262SOL    HW2  786   1.044   2.335   2.097  1.2494  0.3824 -1.2397
  263SOL     OW  787   0.533   2.199   2.971  0.2945 -0.4609  0.1914
  263SOL    HW1  788   0.630   2.209   2.997 -3.0601 -1.5723 -1.2841
  263SOL    HW2  789   0.497   2.114   3.010  3.1712 -0.8260 -1.4229
  264SOL     OW  790   0.994   1.409   1.062  0.2171 -0.8566  0.1501
  264SOL    HW1  791   1.050   1.388   0.981 -1.9809 -1.2746 -1.5237
  264SOL    HW2  792   1.017   1.339   1.136 -1.2377 -1.4366 -1.6515
  265SOL     OW  793   1.040   2.220   0.645 -0.2224  0.5977  0.0233
  265SOL    HW1  794   1.093   2.160   0.582 -1.1697 -0.0564  1.2273
  265SOL    HW2  795   1.104   2.284   0.686 -0.2701 -0.9906  1.2455
  266SOL     OW  796   2.081   0.544   1.069 -0.1078 -0.5286  0.3983
  266SOL    HW1  797   2.085   0.464   1.132 -3.8047  0.6258 -0.5740
  266SOL    HW2  798   2.173   0.582   1.040  3.1245  4.0941  0.2358
  267SOL     OW  799   2.968   1.362   2.602 -0.1333 -0.2405  0.4082
  267SOL    HW1  800   3.055   1.415   2.626  0.0428 -0.0383 -1.7633
  267SOL    HW2  801   2.981   1.261   2.619 -2.8130 -0.2668  0.1903
  268SOL     OW  802   1.500   0.055   0.117 -0.4974  0.0645  0.6624
  268SOL    HW1  803   1.568   0.003   0.173  0.4327  0.2024  1.3361
  268SOL    HW2  804   1.516   0.155   0.142 -1.2915 -1.9686  0.0481
  269SOL     OW  805   2.986   0.807   2.422  0.1501 -0.6259 -0.1960
  269SOL    HW1  806   2.989   0.757   2.334 -1.4303  2.0877 -1.4047
  269SOL    HW2  807   3.053   0.765   2.492  1.2035 -4.3724 -0.3296
  270SOL     OW  808   3.014   1.270   3.013  0.1380  0.6825  0.1977
  270SOL    HW1  809   2.973   1.283   0.048 -1.7118 -0.7995  1.6148
  270SOL    HW2  810   3.026   1.168   2.994 -0.9192 -1.5888 -0.7242
  271SOL     OW  811   2.597   1.489   2.499  0.2237 -0.5137  0.0546
  271SOL    HW1  812   2.528   1.563   2.486 -2.9920  0.3373 -0.6171
  271SOL    HW2  813   2.590   1.426   2.418  2.7841  1.7974  0.1963
  272SOL     OW  814   2.509   2.552   1.903 -0.2267 -0.1293 -0.3190
  272SOL    HW1  815   2.420   2.592   1.930  1.3242 -1.1584  0.7945
  272SOL    HW2  816   2.579   2.623   1.910  0.7046 -0.9534 -0.0390
  273SOL     OW  817   0.277   2.524   0.130  0.4836 -0.0733  0.1542
  273SOL    HW1  818   0.314   2.616   0.154  0.4712  1.9539 -1.3129
  273SOL    HW2  819   0.178   2.525   0.102  2.3066  0.9336 -0.7942
  274SOL     OW  820   0.822   2.307   0.797 -0.0769  0.4043  0.5472
  274SOL    HW1  821   0.893   2.256   0.741  0.1314 -1.2887 -2.9179
  274SOL    HW2  822   0.847   2.322   0.896  2.9031 -0.7205  2.6692
  275SOL     OW  823   2.139   1.522   0.086 -0.2674 -0.1105  0.4864
  275SOL    HW1  824   2.062   1.578   0.055 -1.3881 -0.5882  0.5355
  275SOL    HW2  825   2.164   1.454   0.009 -0.1061 -1.2508 -3.1760
  276SOL     OW  826   2.548   1.669   1.203  0.1672  0.1041 -0.1723
  276SOL    HW1  827   2.533   1.675   1.305 -0.4212 -0.5255 -0.7120
  276SOL    HW2  828   2.575   1.575   1.179  2.5837 -2.4113  0.6206
  277SOL     OW  829   2.304   0.070   0.789  0.8026 -0.8420  0.3974
  277SOL    HW1  830   2.243   0.001   0.839 -1.6272 -1.6811  0.8199
  277SOL    HW2  831   2.278   0.091   0.691  0.2785 -0.1225  1.4217
  278SOL     OW  832   1.794   0.444   2.548 -0.4275 -0.0294 -0.0026
  278SOL    HW1  833   1.770   0.486   2.638 -3.3395 -0.3074 -0.6763
  278SOL    HW2  834   1.745   0.356   2.536 -2.8721  0.4645 -1.2602
  279SOL     OW  835   1.336   2.568   1.321  0.3156  0.5242 -0.2311
  279SOL    HW1  836   1.426   2.528   1.287  1.6195 -2.3511 -1.4207
  279SOL    HW2  837   1.302   2.634   1.253 -2.2635  2.3172 -1.3252
  280SOL     OW  838   1.063   0.853   0.447 -0.1252  0.4369  0.2827
  280SOL    HW1  839   0.983   0.796   0.482  0.6389  2.2435  2.5574
  280SOL    HW2  840   1.065   0.945   0.497 -1.8254  3.8704  3.2855
  281SOL     OW  841   2.410   1.609   2.704 -0.5498  0.7581  0.4982
  281SOL    HW1  842   2.492   1.660   2.734 -4.0654 -0.9578 -1.3340
  281SOL    HW2  843   2.338   1.676   2.699  5.8183 -0.8195  0.6965
  282SOL     OW  844   2.718   1.289   2.965  0.0658  0.1409  0.0565
  282SOL    HW1  845   2.681   1.295   3.058  0.5697 -0.7129  0.2452
  282SOL    HW2  846   2.814   1.268   2.970 -0.8704  0.8642 -0.0675
  283SOL     OW  847   1.499   2.852   2.653 -0.2667  0.2141  0.5527
  283SOL    HW1  848   1.552   2.797   2.583 -0.7361 -1.2938 -1.6016
  283SOL    HW2  849   1.534   2.841   2.750  1.8872  1.3111  1.3401
  284SOL     OW  850   0.775   0.328   2.784  0.1038  0.0293  0.1362
  284SOL    HW1  851   0.771   0.408   2.724  0.0984  0.8850  0.8993
  284SOL    HW2  852   0.729   0.353   2.871 -2.6135 -2.3375  0.9088
  285SOL     OW  853   1.891   1.947   2.504 -0.0192  0.7209 -0.1132
  285SOL    HW1  854   1.925   1.981   2.412  0.7985 -0.1445  0.0853
  285SOL    HW2  855   1.932   1.997   2.582  3.3772 -2.0628  0.8566
  286SOL     OW  856   1.183   1.667   0.815 -0.1213  0.0034  0.2648
  286SOL    HW1  857   1.099   1.652   0.754 -0.8964 -3.0501 -2.1215
  286SOL    HW2  858   1.159   1.709   0.909  2.3602 -1.4139  0.9429
  287SOL     OW  859   1.747   0.375   1.301  0.7805 -0.5579  0.0966
  287SOL    HW1  860   1.699   0.329   1.381  0.1768 -1.1733  4.2136
  287SOL    HW2  861   1.838   0.408   1.332 -1.6649  0.1763 -1.4598
  288SOL     OW  862   0.786   2.711   2.387 -0.2036  0.4403 -0.2671
  288SOL    HW1  863   0.891   2.711   2.399  2.3604 -0.5801  1.8118
  288SOL    HW2  864   0.742   2.805   2.388 -2.0364  1.9417  1.4306
  289SOL     OW  865   0.179   1.042   0.829 -0.9052  0.0659 -0.6896
  289SOL    HW1  866   0.178   1.097   0.914  0.6909  2.6443 -2.2438
  289SOL    HW2  867   0.101   0.988   0.810  1.0714  4.0847 -2.0209
  290SOL     OW  868   1.104   2.017   1.369  0.2332 -0.0408  0.1229
  290SOL    HW1  869   1.108   1.997   1.270 -1.0331  2.1404  1.9535
  290SOL    HW2  870   1.054   1.947   1.419  2.4470  1.0644 -1.3915
  291SOL     OW  871   1.842   2.849   0.619 -0.0349 -0.8763 -0.0817
  291SOL    HW1  872   1.825   2.922   0.691 -0.8486  3.8964  0.5781
  291SOL    HW2  873   1.755   2.806   0.593  1.7646 -0.4930  0.5727
  292SOL     OW  874   0.582   0.316   1.693  0.1772  0.0788  0.1314
  292SOL    HW1  875   0.632   0.405   1.710 -2.4705  0.2686 -1.0705
  292SOL    HW2  876   0.492   0.317   1.736  0.8425 -1.4365  1.5350
  293SOL     OW  877   2.275   1.634   0.797 -0.5351  0.3440  0.2694
  293SOL    HW1  878   2.363   1.670   0.755 -0.2888  0.9025 -0.5538
  293SOL    HW2  879   2.229   1.561   0.742 -0.3392  0.9515 -0.0685
  294SOL     OW  880   0.974   0.258   2.088 -0.0441 -0.4371  0.3599
  294SOL    HW1  881   0.983   0.320   2.165 -1.7685 -1.1514 -2.2523
  294SOL    HW2  882   1.001   0.164   2.116 -2.1901 -0.5625 -0.2008
  295SOL     OW  883   0.837   1.073   0.593  0.6178 -0.0511 -0.4300
  295SOL    HW1  884   0.799   1.108   0.681  1.6995  1.8998 -0.5036
  295SOL    HW2  885   0.769   1.023   0.537 -3.0122  0.0548 -0.2313
  296SOL     OW  886   2.154   1.978   0.984 -0.0655  0.3910 -0.5054
  296SOL    HW1  887   2.121   1.880   0.973  0.6703  0.1724  4.0864
  296SOL    HW2  888   2.195   2.003   0.893 -1.4962 -1.3569 -1.0302
  297SOL     OW  889   2.070   0.205   2.771 -0.0792  0.7046  0.1257
  297SOL    HW1  890   2.031   0.215   2.677  0.0881  0.9016 -1.3466
  297SOL    HW2  891   2.096   0.296   2.819  2.7862  1.5238  0.8892
  298SOL     OW  892   1.203   0.118   2.558 -0.1176  0.0323 -0.2231
  298SOL    HW1  893   1.271   0.119   2.481  0.8039  3.3280 -1.2273
  298SOL    HW2  894   1.253   0.088   2.644 -2.4875  1.0529  0.5739
  299SOL     OW  895   1.325   3.022   2.249 -0.4297  0.1135 -0.3854
  299SOL    HW1  896   1.348   0.037   2.309  0.3852  1.1212 -1.1444
  299SOL    HW2  897   1.318   2.930   2.297  3.0972 -2.2483 -0.4878
  300SOL     OW  898   2.530   0.088   1.617  0.1082  0.0236  0.3699
  300SOL    HW1  899   2.625   0.112   1.633 -1.9444 -0.2462  1.4377
  300SOL    HW2  900   2.473   0.168   1.631  0.5183  1.8585  2.3776
  301SOL     OW  901   2.417   0.363   1.698  0.0254  0.5016 -0.5855
  301SOL    HW1  902   2.437   0.429   1.770  1.2084 -0.2360  0.2193
  301SOL    HW2  903   2.438   0.404   1.609  1.0377 -1.0646  2.8963
  302SOL     OW  904   0.865   2.703   0.246 -0.2357  0.1405  0.4785
  302SOL    HW1  905   0.942   2.686   0.180 -1.1216  1.0103  0.9467
  302SOL    HW2  906   0.811   2.787   0.226  1.8216 -2.5456  0.7916
  303SOL     OW  907   1.596   1.877   1.402 -0.1701  0.0940  0.1518
  303SOL    HW1  908   1.513   1.942   1.406 -1.7006  0.6760 -0.3020
  303SOL    HW2  909   1.617   1.845   1.307  0.3318 -0.5065 -0.2491
  304SOL     OW  910   0.478   0.391   0.937 -0.3186 -0.1333 -0.7803
  304SOL    HW1  911   0.460   0.399   1.035  0.6096 -0.7225  1.4896
  304SOL    HW2  912   0.484   0.489   0.904 -2.8426 -1.8161  1.6855
  305SOL     OW  913   0.896   0.517   0.812  0.0716 -0.0097  0.2833
  305SOL    HW1  914   0.871   0.557   0.898 -0.6007 -3.1899 -0.5179
  305SOL    HW2  915   1.001   0.523   0.797  1.4957 -0.5248 -2.0398
  306SOL     OW  916   0.542   1.256   2.845 -0.2911  0.2195 -0.0972
  306SOL    HW1  917   0.639   1.236   2.811  1.0459 -0.1548 -2.0640
  306SOL    HW2  918   0.545   1.253   2.946 -0.5819  0.3521 -2.8191
  307SOL     OW  919   1.092   0.182   1.854 -0.0356 -0.6099 -0.3612
  307SOL    HW1  920   1.183   0.227   1.841  1.1128 -0.6241  1.1508
  307SOL    HW2  921   1.056   0.210   1.942  0.2700 -1.2990 -0.2220
  308SOL     OW  922   0.760   0.283   0.871 -0.5361  0.0384  0.2514
  308SOL    HW1  923   0.662   0.302   0.881 -1.5596 -0.2507  3.4059
  308SOL    HW2  924   0.808   0.359   0.818  2.1118  2.6483  1.1857
  309SOL     OW  925   2.449   0.824   0.538  0.2852  0.1216  0.4856
  309SOL    HW1  926   2.358   0.804   0.582  0.4440 -0.5585  2.8085
  309SOL    HW2  927   2.528   0.820   0.604  0.1022  2.9247 -0.4128
  310SOL     OW  928   0.928   1.411   2.922  0.0133  0.3980  0.2001
  310SOL    HW1  929   1.026   1.418   2.893  0.3354  3.2722 -1.0396
  310SOL    HW2  930   0.929   1.421   3.025  1.3097  0.5823  0.5326
  311SOL     OW  931   1.998   2.419   2.023 -0.0661 -0.0975  0.0764
  311SOL    HW1  932   1.996   2.458   1.932  2.8472 -2.3284  1.4121
  311SOL    HW2  933   1.948   2.479   2.090 -0.5140  1.7175  0.7671
  312SOL     OW  934   2.128   2.486   2.875 -0.0907  0.1057  0.1504
  312SOL    HW1  935   2.106   2.408   2.937 -2.4752  0.4444 -2.2455
  312SOL    HW2  936   2.042   2.534   2.857 -1.9041  2.4244  1.0170
  313SOL     OW  937   0.486   0.241   0.014  0.0123  0.2298 -0.2494
  313SOL    HW1  938   0.453   0.336   0.047 -0.2871  1.7323 -0.6220
  313SOL    HW2  939   0.457   0.229   2.978  1.1038 -0.2596  0.3498
  314SOL     OW  940   2.406   1.352   2.779 -0.1541 -0.2640  0.1361
  314SOL    HW1  941   2.486   1.298   2.756  1.2949  0.2867  1.3942
  314SOL    HW2  942   2.424   1.448   2.752 -1.9945 -1.4749  0.2699
  315SOL     OW  943   1.881   0.483   2.289 -0.3213 -0.5075  0.3795
  315SOL    HW1  944   1.847   0.487   2.383  0.6931 -0.4294  0.5773
  315SOL    HW2  945   1.984   0.504   2.282  0.5039 -0.3319 -3.4154
  316SOL     OW  946   2.925   1.127   0.608  0.0239 -0.3061  0.2039
  316SOL    HW1  947   2.969   1.057   0.667  0.7897 -1.2213  1.8728
  316SOL    HW2  948   2.824   1.132   0.631 -2.9519 -1.2988 -2.3318
  317SOL     OW  949   0.814   2.997   0.221  0.2387 -0.5896  0.2398
  317SOL    HW1  950   0.768   3.021   0.310  0.3606 -0.7642  1.9204
  317SOL    HW2  951   0.739   2.982   0.149  2.5201  0.4881  2.1762
  318SOL     OW  952   1.932   2.527   1.361  0.1112  0.3283  0.1848
  318SOL    HW1  953   1.954   2.533   1.462  2.3974 -0.5466 -2.9093
  318SOL    HW2  954   1.993   2.592   1.311  0.6672 -0.8346  2.4913
  319SOL     OW  955   1.423   1.812   0.185 -0.7522 -0.0046  0.1458
  319SOL    HW1  956   1.496   1.846   0.248 -3.3183  1.8662 -0.6242
  319SOL    HW2  957   1.343   1.776   0.235 -2.3498 -1.5572  1.4012
  320SOL     OW  958   0.486   1.589   0.878 -0.2457 -0.0226 -0.3858
  320SOL    HW1  959   0.459   1.656   0.805  1.6406  1.5515 -0.5645
  320SOL    HW2  960   0.425   1.503   0.884 -0.9096 -3.3030  1.2911
  321SOL     OW  961   2.040   2.644   1.851 -1.0766 -0.6365  0.1781
  321SOL    HW1  962   2.123   2.664   1.904 -1.4938 -3.4134 -0.5620
  321SOL    HW2  963   1.981   2.726   1.851  1.1947 -2.5783  0.3444
  322SOL     OW  964   2.029   2.031   2.278  0.6341  0.0632 -0.8419
  322SOL    HW1  965   1.993   2.110   2.224 -0.0863 -0.7908 -0.4663
  322SOL    HW2  966   2.007   1.941   2.237  0.6304 -1.4623 -0.6559
  323SOL     OW  967   2.547   0.214   0.740 -0.4050 -0.6088 -0.8057
  323SOL    HW1  968   2.468   0.156   0.754 -0.1833  1.9747  0.3576
  323SOL    HW2  969   2.521   0.281   0.675  2.5438 -0.9033 -1.8149
  324SOL     OW  970   2.638   2.312   2.341 -0.4006 -0.0521  0.3649
  324SOL    HW1  971   2.698   2.299   2.258 -0.5071 -0.1769 -1.1740
  324SOL    HW2  972   2.698   2.348   2.416  4.3295  1.1264  0.6242
  325SOL     OW  973   1.110   0.589   2.562  0.0381  0.7988 -0.2945
  325SOL    HW1  974   1.100   0.634   2.651  1.4263  0.5111  0.7166
  325SOL    HW2  975   1.101   0.490   2.576 -1.8766 -0.2165  0.2471
  326SOL     OW  976   2.555   2.316   0.825  0.2055  0.9105 -0.3242
  326SOL    HW1  977   2.485   2.268   0.769  2.4060 -0.2884 -1.4389
  326SOL    HW2  978   2.529   2.412   0.847  2.8278  0.0997 -0.8579
  327SOL     OW  979   2.509   2.897   0.160 -0.3003 -0.3117 -0.0620
  327SOL    HW1  980   2.480   2.975   0.220 -0.3140  1.6994  2.0113
  327SOL    HW2  981   2.429   2.840   0.131  2.1786 -2.2669 -1.0923
  328SOL     OW  982   0.590   0.674   1.155  0.4821  0.0001 -0.2440
  328SOL    HW1  983   0.618   0.580   1.191  1.9691 -1.8550  2.1313
  328SOL    HW2  984   0.662   0.740   1.174 -2.7698 -2.2337  0.3280
  329SOL     OW  985   1.999   0.463   1.384  0.2124 -0.2753  0.0674
  329SOL    HW1  986   2.040   0.516   1.463  1.0564 -2.0191  0.0540
  329SOL    HW2  987   2.078   0.401   1.350  0.6861 -3.2248 -1.9562
  330SOL     OW  988   0.675   0.341   0.540 -0.0285 -0.2316  0.0007
  330SOL    HW1  989   0.693   0.423   0.487 -0.5015  0.2700  0.4225
  330SOL    HW2  990   0.758   0.281   0.542 -1.7991 -0.6404  0.5091
  331SOL     OW  991   0.748   1.985   1.712 -0.0817  0.6505 -0.3157
  331SOL    HW1  992   0.673   2.031   1.760 -0.3260 -2.6039 -2.1806
  331SOL    HW2  993   0.761   2.029   1.622 -2.2067 -2.3462  0.8588
  332SOL     OW  994   2.502   2.488   1.639  0.3113 -0.6159 -0.2012
  332SOL    HW1  995   2.596   2.456   1.618 -1.0627 -0.7869 -2.1504
  332SOL    HW2  996   2.496   2.495   1.742 -0.6851 -1.4709  0.6459
  333SOL     OW  997   0.049   2.969   0.933  0.0007 -0.1759 -0.3785
  333SOL    HW1  998   0.116   3.028   0.981 -2.0020  0.6207 -0.7731
  333SOL    HW2  999   3.037   2.945   0.995 -0.8055 -2.0068 -0.9125
  334SOL     OW 1000   2.913   1.484   0.436  0.1325  0.3166 -0.2100
  334SOL    HW1 1001   2.816   1.446   0.420 -0.6744 -3.2498 -0.7035
  334SOL    HW2 1002   2.944   1.457   0.527 -0.0093 -1.2225 -3.3832
  335SOL     OW 1003   0.529   2.577   2.626 -0.5542  0.1944  0.0045
  335SOL    HW1 1004   0.582   2.666   2.624  2.9604 -1.2650 -2.4614
  335SOL    HW2 1005   0.430   2.590   2.613  1.3983  3.0283 -0.8715
  336SOL     OW 1006   0.014   2.854   2.153 -0.5741  0.4175  0.1230
  336SOL    HW1 1007   0.047   2.767   2.201 -1.3290 -1.2174  1.2451
  336SOL    HW2 1008   0.047   2.945   2.189  0.5331  0.8735  0.5737
  337SOL     OW 1009   1.224   1.925   1.653  0.5349 -0.0451  0.1796
  337SOL    HW1 1010   1.152   1.943   1.724 -1.3588  0.1837 -0.0300
  337SOL    HW2 1011   1.319   1.915   1.690  1.5462 -3.3162  0.0981
  338SOL     OW 1012   0.981   3.057   2.447  0.2299  0.6899 -0.5020
  338SOL    HW1 1013   1.009   0.004   2.346  2.3033  0.2638  0.2036
  338SOL    HW2 1014   1.053   0.048   2.500  0.4412  0.0301 -2.7811
  339SOL     OW 1015   0.369   0.949   2.405 -0.1049 -0.2071  0.2002
  339SOL    HW1 1016   0.376   1.023   2.335 -0.4219 -1.4396 -0.6347
  339SOL    HW2 1017   0.295   0.887   2.381  1.8392  2.9520 -1.7280
  340SOL     OW 1018   2.123   0.313   1.180  1.1513 -0.5331  0.3398
  340SOL    HW1 1019   2.202   0.295   1.120 -2.1482  0.2859  0.6753
  340SOL    HW2 1020   2.069   0.231   1.186 -1.2294  0.0692 -0.8146
  341SOL     OW 1021   2.273   1.273   0.872  0.2099  0.5001 -0.0318
  341SOL    HW1 1022   2.190   1.331   0.863 -0.3184  0.8492  0.4047
  341SOL    HW2 1023   2.286   1.246   0.971  1.8909  1.4432 -1.4135
  342SOL     OW 1024   1.870   2.594   2.824  0.3357  0.6180 -0.2113
  342SOL    HW1 1025   1.817   2.581   2.735 -2.2769  0.7087 -0.7287
  342SOL    HW2 1026   1.817   2.627   2.905  3.1306 -1.4959  1.9360
  343SOL     OW 1027   0.177   2.481   1.300  0.2101  0.0673 -0.2934
  343SOL    HW1 1028   0.123   2.428   1.367  0.3345 -0.9651  1.1997
  343SOL    HW2 1029   0.267   2.441   1.290 -1.6100 -0.9070  0.5428
  344SOL     OW 1030   2.451   2.736   1.352 -0.2502 -0.3928 -0.1742
  344SOL    HW1 1031   2.533   2.714   1.413  1.8715  0.9447 -2.0273
  344SOL    HW2 1032   2.368   2.706   1.395  1.0790  2.9032 -2.3676
  345SOL     OW 1033   2.320   2.194   0.263  0.0895 -0.4249  0.3603
  345SOL    HW1 1034   2.414   2.171   0.229  2.2833  1.1922  1.9270
  345SOL    HW2 1035   2.310   2.296   0.284 -0.8154  3.0206  1.0330
  346SOL     OW 1036   1.646   2.170   1.426 -0.5782 -0.9556 -0.7919
  346SOL    HW1 1037   1.582   2.097   1.398  1.5714  2.1585  1.9254
  346SOL    HW2 1038   1.631   2.196   1.524  1.3789 -0.3585  1.5454
  347SOL     OW 1039   0.945   1.779   1.409 -0.1934  0.0499  0.4043
  347SOL    HW1 1040   0.999   1.738   1.483  0.7797  0.7155 -0.1675
  347SOL    HW2 1041   0.933   1.718   1.325 -1.7330 -0.8006  0.2837
  348SOL     OW 1042   0.274   2.120   1.937 -0.6887  0.2455 -0.5117
  348SOL    HW1 1043   0.361   2.171   1.925 -2.6692 -0.2225 -0.5358
  348SOL    HW2 1044   0.240   2.096   1.845 -1.1883  1.6141 -0.5549
  349SOL     OW 1045   1.529   1.659   1.587 -0.3590 -0.4946  0.0025
  349SOL    HW1 1046   1.542   1.624   1.680 -1.3280  0.5024 -2.1071
  349SOL    HW2 1047   1.572   1.753   1.571  0.7811  1.4951 -0.6757
  350SOL     OW 1048   2.029   2.216   0.495  0.1822  0.1019  0.1783
  350SOL    HW1 1049   1.993   2.219   0.396 -0.3353 -0.7912 -1.1906
  350SOL    HW2 1050   2.098   2.292   0.506 -1.3037 -1.8309 -1.9350
  351SOL     OW 1051   0.612   2.955   1.728 -0.0188 -0.0214  0.6780
  351SOL    HW1 1052   0.647   3.033   1.781 -1.6354 -0.4632 -5.0563
  351SOL    HW2 1053   0.672   2.926   1.646  2.5462 -1.4127 -1.0448
  352SOL     OW 1054   0.750   0.812   0.769 -0.5134 -0.2628  0.1283
  352SOL    HW1 1055   0.797   0.862   0.846  0.4518 -0.6541  0.1629
  352SOL    HW2 1056   0.808   0.823   0.682 -0.4554  1.0733 -0.0304
  353SOL     OW 1057   1.218   1.868   2.546 -0.2217  0.0466 -1.2743
  353SOL    HW1 1058   1.163   1.849   2.460 -3.7308 -0.3273 -0.2416
  353SOL    HW2 1059   1.161   1.879   2.629  0.9798  0.4098 -0.3144
  354SOL     OW 1060   1.698   2.618   1.996  0.5566  0.3946 -0.2544
  354SOL    HW1 1061   1.793   2.633   2.034  2.4468 -0.8287  1.5813
  354SOL    HW2 1062   1.676   2.706   1.948  1.4525 -2.9633 -1.4650
  355SOL     OW 1063   1.929   1.195   0.285  0.0121 -0.5351 -0.1746
  355SOL    HW1 1064   1.979   1.281   0.305 -1.7200  2.3115  1.8244
  355SOL    HW2 1065   1.900   1.185   0.189 -0.8525 -0.3091 -0.0444
  356SOL     OW 1066   0.077   1.683   1.209  0.0668 -0.4588  0.3417
  356SOL    HW1 1067   0.088   1.650   1.117  0.1090  3.3713  2.1341
  356SOL    HW2 1068   3.041   1.718   1.222  1.0003  2.4173 -0.7215
  357SOL     OW 1069   0.259   2.891   1.145 -0.4436 -0.0136 -0.5166
  357SOL    HW1 1070   0.197   2.970   1.155  0.6643  0.6617 -0.8095
  357SOL    HW2 1071   0.310   2.884   1.056  1.1319  0.1342 -2.7334
  358SOL     OW 1072   2.156   1.780   1.279 -0.2569 -0.1255  0.3135
  358SOL    HW1 1073   2.219   1.857   1.264  0.9277  0.5750  2.4022
  358SOL    HW2 1074   2.179   1.716   1.204  0.9517  0.4242  0.9680
  359SOL     OW 1075   2.191   2.917   2.592 -0.3551  0.1658  0.1716
  359SOL    HW1 1076   2.246   2.972   2.663  0.5354  1.0010  0.5897
  359SOL    HW2 1077   2.238   2.835   2.558 -0.5153  0.8844  0.5867
  360SOL     OW 1078   1.093   2.758   0.816 -0.8923 -0.1423 -0.3045
  360SOL    HW1 1079   1.070   2.698   0.896 -0.7201 -0.0460 -2.1607
  360SOL    HW2 1080   1.169   2.724   0.755  0.4281 -1.0505 -0.7089
  361SOL     OW 1081   1.937   0.354   0.271  0.1311 -0.1966 -0.0665
  361SOL    HW1 1082   1.955   0.354   0.171  2.3834  1.9562  2.2876
  361SOL    HW2 1083   2.023   0.367   0.330 -0.4009  1.0044  2.8497
  362SOL     OW 1084   1.318   0.928   1.000 -0.3157 -0.0556 -0.1515
  362SOL    HW1 1085   1.309   0.848   1.060  1.3358  1.7022 -3.0055
  362SOL    HW2 1086   1.409   0.969   1.013 -3.4685  0.6207 -2.1016
  363SOL     OW 1087   2.324   1.360   2.203  0.2162 -0.8080 -0.2340
  363SOL    HW1 1088   2.269   1.414   2.273  0.2357 -1.1988  0.6472
  363SOL    HW2 1089   2.337   1.410   2.115  0.0117  0.4315  0.8827
  364SOL     OW 1090   0.354   0.748   1.349 -0.5114  0.2571  0.2012
  364SOL    HW1 1091   0.364   0.804   1.267  0.3628  0.7838  1.1869
  364SOL    HW2 1092   0.447   0.737   1.391 -0.0785 -1.7790 -1.1016
  365SOL     OW 1093   0.651   0.176   2.416 -0.1119  0.2851  0.1354
  365SOL    HW1 1094   0.626   0.162   2.514 -2.4880 -1.5714 -0.6761
  365SOL    HW2 1095   0.656   0.085   2.373  0.8687  0.6320 -1.8801
  366SOL     OW 1096   2.263   2.054   2.384  0.7432 -0.2264 -0.5458
  366SOL    HW1 1097   2.162   2.033   2.375 -1.6554  0.4843  1.0100
  366SOL    HW2 1098   2.318   2.012   2.309 -0.0774 -0.3442 -1.4509
  367SOL     OW 1099   2.656   2.511   0.006  0.5291 -0.2509  0.5194
  367SOL    HW1 1100   2.668   2.559   0.098 -3.6876  1.5813  2.0412
  367SOL    HW2 1101   2.686   2.573   2.989  1.5414  3.5632  1.4461
  368SOL     OW 1102   2.641   1.258   0.955  0.1330 -0.1335 -0.3021
  368SOL    HW1 1103   2.621   1.314   1.039 -0.0862  4.3826  0.3263
  368SOL    HW2 1104   2.602   1.293   0.868  1.2845 -0.6481 -1.8776
  369SOL     OW 1105   1.054   2.704   2.443 -0.0579  0.1942  0.4870
  369SOL    HW1 1106   1.139   2.759   2.417  4.4808  1.9109  1.0090
  369SOL    HW2 1107   1.048   2.702   2.544  0.2707 -0.9796  0.0646
  370SOL     OW 1108   2.696   0.193   0.378  0.0168  0.0883 -0.0246
  370SOL    HW1 1109   2.788   0.202   0.334  2.1227  0.0701  1.6043
  370SOL    HW2 1110   2.643   0.278   0.359 -1.4957 -2.6521 -0.4142
  371SOL     OW 1111   1.360   2.091   1.120 -0.4834 -0.2475 -0.4054
  371SOL    HW1 1112   1.396   2.187   1.107  2.6554  1.0091  1.4144
  371SOL    HW2 1113   1.297   2.058   1.047 -0.3969 -1.3442 -0.9517
  372SOL     OW 1114   0.085   0.692   2.621 -0.2734 -0.0783  0.1030
  372SOL    HW1 1115   0.033   0.631   2.679  0.5874 -0.7593 -1.5792
  372SOL    HW2 1116   0.160   0.648   2.567 -0.3512  1.7837 -2.3310
  373SOL     OW 1117   2.682   1.926   0.853 -0.0716  0.5137  0.9325
  373SOL    HW1 1118   2.707   2.008   0.798 -0.4498  1.4492  0.1675
  373SOL    HW2 1119   2.638   1.948   0.942  0.4033  1.7907  2.3945
  374SOL     OW 1120   0.446   2.889   2.477  0.5244  0.0062  0.2250
  374SOL    HW1 1121   0.506   2.870   2.561  2.3985 -2.1805  1.4319
  374SOL    HW2 1122   0.500   2.911   2.393 -0.0384 -0.1250 -0.1516
  375SOL     OW 1123   0.614   0.118   2.696  0.3654 -0.0843  0.0225
  375SOL    HW1 1124   0.609   0.026   2.732 -0.6181  3.2349  1.4910
  375SOL    HW2 1125   0.691   0.171   2.739 -0.2857 -4.4122  1.4874
  376SOL     OW 1126   2.850   2.193   1.825 -0.3910 -0.1558 -0.1301
  376SOL    HW1 1127   2.832   2.098   1.841  0.5719  1.4845 -0.8146
  376SOL    HW2 1128   2.762   2.242   1.830  2.1278  0.4455  1.2908
  377SOL     OW 1129   1.570   2.384   2.835 -0.4504  0.0134  0.0684
  377SOL    HW1 1130   1.600   2.457   2.900 -0.0592 -1.2165 -1.1852
  377SOL    HW2 1131   1.485   2.338   2.870 -2.7435  0.1047  0.8481
  378SOL     OW 1132   0.038   0.355   2.267  0.3181  0.3028  0.0287
  378SOL    HW1 1133   0.108   0.314   2.333  1.5954 -1.1138  0.8011
  378SOL    HW2 1134   3.023   0.396   2.321  1.2335 -1.5708 -0.1782
  379SOL     OW 1135   0.440   0.778   0.456 -0.5735  0.2125  0.0593
  379SOL    HW1 1136   0.465   0.693   0.508  0.8858 -1.7304 -0.0232
  379SOL    HW2 1137   0.383   0.836   0.518 -0.2236 -1.1751 -0.6024
  380SOL     OW 1138   0.332   1.564   1.800 -0.0446  0.4962 -0.0741
  380SOL    HW1 1139   0.399   1.489   1.796 -1.5436  2.5656 -3.1149
  380SOL    HW2 1140   0.347   1.636   1.869 -1.3882 -0.0405 -2.3534
  381SOL     OW 1141   0.702   1.105   2.005  0.6084 -0.3397 -0.1242
  381SOL    HW1 1142   0.685   1.017   2.054  0.4162  1.8070  2.7772
  381SOL    HW2 1143   0.710   1.091   1.908 -0.3904  0.1594  0.6029
  382SOL     OW 1144   2.332   1.949   0.364  0.5756 -0.0867 -0.0568
  382SOL    HW1 1145   2.318   2.042   0.324  3.1687 -3.6806  0.1118
  382SOL    HW2 1146   2.262   1.940   0.442 -0.2287 -1.3187 -1.0188
  383SOL     OW 1147   0.469   1.960   0.020  0.0702  0.0406  0.1772
  383SOL    HW1 1148   0.478   1.928   0.113 -0.7925  2.5664 -2.0193
  383SOL    HW2 1149   0.514   1.899   3.011 -0.3694 -1.2197  0.3598
  384SOL     OW 1150   0.847   2.128   2.837  0.4811 -0.3789 -0.2698
  384SOL    HW1 1151   0.768   2.109   2.776  0.7087  0.9861 -1.3623
  384SOL    HW2 1152   0.810   2.160   2.932 -2.3247 -1.0185 -0.0858
  385SOL     OW 1153   2.110   1.950   0.554  0.6290 -0.2629 -0.4443
  385SOL    HW1 1154   2.181   1.932   0.624 -1.2001  1.7016 -2.2187
  385SOL    HW2 1155   2.071   2.047   0.556 -1.5721 -0.5055 -2.2964
  386SOL     OW 1156   2.227   0.902   1.509  0.2293 -0.0269 -0.0563
  386SOL    HW1 1157   2.304   0.836   1.507  1.6914  0.1598  1.0535
  386SOL    HW2 1158   2.206   0.926   1.607  0.5249  0.9475  2.3623
  387SOL     OW 1159   2.749   1.422   2.143  0.4761  0.0370 -0.5418
  387SOL    HW1 1160   2.695   1.382   2.218 -0.0514 -0.1471  1.9408
  387SOL    HW2 1161   2.840   1.462   2.168  1.8798 -2.4346  1.1696
  388SOL     OW 1162   0.343   1.748   2.003 -0.1475 -0.2796 -0.4799
  388SOL    HW1 1163   0.402   1.680   2.045 -0.1204  3.2407  0.3315
  388SOL    HW2 1164   0.396   1.836   1.995  1.1892  0.6740 -0.2756
  389SOL     OW 1165   1.207   1.093   1.904 -0.2144 -0.5042 -0.3783
  389SOL    HW1 1166   1.119   1.072   1.859  2.2350 -0.3854  0.7562
  389SOL    HW2 1167   1.208   1.063   2.003 -1.1979  0.7683 -2.9814
  390SOL     OW 1168   1.905   0.191   0.775 -0.2565  0.1692 -0.0953
  390SOL    HW1 1169   1.869   0.268   0.831 -2.2823 -2.3602  0.8371
  390SOL    HW2 1170   1.993   0.220   0.732 -1.8960  1.6820 -2.3205
  391SOL     OW 1171   1.838   1.581   1.161 -0.4055 -0.1108  0.7251
  391SOL    HW1 1172   1.869   1.553   1.250 -1.5868  3.5437 -0.1029
  391SOL    HW2 1173   1.794   1.510   1.108  1.0567  1.6628 -0.4688
  392SOL     OW 1174   2.706   2.803   0.496  0.2309 -0.7149 -0.7007
  392SOL    HW1 1175   2.613   2.792   0.457  2.0112 -2.5381  2.8724
  392SOL    HW2 1176   2.715   2.901   0.534  1.4804 -0.4412 -1.5916
  393SOL     OW 1177   1.992   2.130   2.682  0.3553  0.3202 -0.5125
  393SOL    HW1 1178   1.925   2.143   2.759 -1.9188  0.0767  0.4847
  393SOL    HW2 1179   2.059   2.205   2.672 -1.4029  2.9328 -0.8409
  394SOL     OW 1180   0.218   2.609   2.730 -0.0767  0.2825 -0.0825
  394SOL    HW1 1181   0.170   2.654   2.811 -0.2756  0.9951 -0.1663
  394SOL    HW2 1182   0.243   2.513   2.757  2.3276 -3.7359 -0.9715
  395SOL     OW 1183   0.403   0.180   0.774  1.1613  0.5202  0.5369
  395SOL    HW1 1184   0.321   0.187   0.709 -3.6648  0.2045 -1.9753
  395SOL    HW2 1185   0.418   0.258   0.830 -1.2138 -3.8941 -3.3814
  396SOL     OW 1186   1.907   0.780   0.717  0.5962  0.2357 -0.3755
  396SOL    HW1 1187   1.924   0.849   0.790  1.8387  3.4092  0.2697
  396SOL    HW2 1188   1.874   0.825   0.630  0.2969 -2.0564  1.7653
  397SOL     OW 1189   0.441   0.556   2.163  0.4049  0.3833 -0.2878
  397SOL    HW1 1190   0.495   0.582   2.080 -0.4184  3.1359 -2.3831
  397SOL    HW2 1191   0.343   0.557   2.140  0.3475 -1.7375  0.4303
  398SOL     OW 1192   0.993   3.058   0.557  0.3352  0.4468  0.2603
  398SOL    HW1 1193   0.976   0.094   0.534  1.7811  0.8012  1.7121
  398SOL    HW2 1194   1.020   3.050   0.657  1.9748  0.8990  0.8652
  399SOL     OW 1195   2.230   2.908   1.577  0.1287  0.0191  0.3534
  399SOL    HW1 1196   2.186   2.820   1.557  1.2015  0.0743 -0.4708
  399SOL    HW2 1197   2.333   2.898   1.562  2.7991  0.6932 -0.0251
  400SOL     OW 1198   0.947   1.948   2.435 -0.1350  0.1786  0.5594
  400SOL    HW1 1199   0.914   2.017   2.369 -1.4483  0.4392  0.1177
  400SOL    HW2 1200   0.893   1.957   2.521 -1.4226 -0.0516 -1.2712
  401SOL     OW 1201   0.604   1.038   2.503 -0.1814  0.0095  0.2538
  401SOL    HW1 1202   0.632   1.113   2.439  0.5158 -0.9583 -0.9123
  401SOL    HW2 1203   0.507   1.011   2.481 -3.7298 -0.7903 -2.7953
  402SOL     OW 1204   0.156   2.270   0.872  0.2285 -0.2235  0.2516
  402SOL    HW1 1205   0.063   2.305   0.880 -0.2112 -1.8004 -1.9605
  402SOL    HW2 1206   0.162   2.178   0.919  1.9126 -1.8599 -0.7757
  403SOL     OW 1207   2.992   1.172   1.983 -0.4071 -0.1770  0.2211
  403SOL    HW1 1208   0.028   1.174   1.959 -1.2060  1.7454  1.9334
  403SOL    HW2 1209   2.939   1.187   1.904  2.1239 -1.5429  1.4335
  404SOL     OW 1210   2.968   2.544   2.548 -0.0417 -0.2858  0.3211
  404SOL    HW1 1211   2.889   2.481   2.552  1.6736 -1.1249  3.1551
  404SOL    HW2 1212   3.031   2.517   2.471  0.5937 -0.2959 -1.3197
  405SOL     OW 1213   0.363   0.312   1.830 -0.3778 -0.1592 -0.2527
  405SOL    HW1 1214   0.389   0.254   1.910  0.5502  3.3918  2.3374
  405SOL    HW2 1215   0.262   0.333   1.831 -2.1062  0.9844 -0.0805
  406SOL     OW 1216   1.633   1.509   2.557  0.6241 -0.4677 -0.5690
  406SOL    HW1 1217   1.562   1.570   2.587 -0.1878  2.2463  0.6198
  406SOL    HW2 1218   1.654   1.531   2.460  1.6056 -1.5890 -1.6675
  407SOL     OW 1219   1.690   0.856   2.756  0.7012  0.5173  0.2682
  407SOL    HW1 1220   1.716   0.947   2.790 -1.4112 -3.0987 -2.8500
  407SOL    HW2 1221   1.704   0.858   2.655 -0.5174  2.2938 -0.0450
  408SOL     OW 1222   0.698   2.980   2.341  0.3376 -0.2390  0.1702
  408SOL    HW1 1223   0.780   3.024   2.381  1.7885  1.2960 -0.8763
  408SOL    HW2 1224   0.723   2.956   2.243  1.6313 -0.8869  2.5207
  409SOL     OW 1225   3.017   2.001   1.117  0.0432 -0.2277 -0.2788
  409SOL    HW1 1226   3.053   1.995   1.022 -0.9591 -1.2971 -2.8752
  409SOL    HW2 1227   0.027   2.041   1.181  1.2690  0.1985  1.9442
  410SOL     OW 1228   2.339   1.364   0.223  0.0139  0.7948 -0.2326
  410SOL    HW1 1229   2.282   1.411   0.158  0.9535  0.4247  2.3697
  410SOL    HW2 1230   2.401   1.298   0.174  1.8416 -0.9253  0.6584
  411SOL     OW 1231   0.137   0.110   1.132  0.6281 -0.4955  0.7120
  411SOL    HW1 1232   0.237   0.103   1.147 -2.5492 -0.8496  0.3209
  411SOL    HW2 1233   0.107   0.201   1.102  3.4292  1.2566 -1.0031
  412SOL     OW 1234   1.842   0.794   1.536 -0.1055  0.1998  0.4346
  412SOL    HW1 1235   1.899   0.854   1.476 -1.4011  0.9792 -1.2279
  412SOL    HW2 1236   1.744   0.815   1.520 -0.7499 -0.7103 -2.4068
  413SOL     OW 1237   0.808   0.427   1.943  0.3170  0.1771 -0.5346
  413SOL    HW1 1238   0.864   0.350   1.982  2.2624  2.7791  0.2374
  413SOL    HW2 1239   0.866   0.504   1.910  0.2787  0.7716 -1.3921
  414SOL     OW 1240   2.805   1.578   2.606  0.1652  0.5106 -0.1796
  414SOL    HW1 1241   2.854   1.490   2.620 -3.6905 -0.9828 -0.3244
  414SOL    HW2 1242   2.714   1.563   2.556  0.3913 -0.5537 -1.1830
  415SOL     OW 1243   0.831   2.428   0.198  0.3700  0.7275 -0.2933
  415SOL    HW1 1244   0.915   2.377   0.191 -5.3958 -0.2485  0.7191
  415SOL    HW2 1245   0.836   2.518   0.246  0.0738 -0.0097 -0.2644
  416SOL     OW 1246   1.795   0.152   2.783  0.4034 -0.4297 -0.0860
  416SOL    HW1 1247   1.788   0.047   2.783 -1.2857 -0.1233 -0.8694
  416SOL    HW2 1248   1.890   0.181   2.810 -0.9916 -3.0979 -0.0258
  417SOL     OW 1249   0.242   0.301   0.589 -0.3256 -0.1269  0.4166
  417SOL    HW1 1250   0.248   0.397   0.553 -0.1237  0.9289 -0.2042
  417SOL    HW2 1251   0.147   0.290   0.621  0.8316 -0.1488 -0.8446
  418SOL     OW 1252   2.498   2.875   0.936  1.0385  0.1190  0.2263
  418SOL    HW1 1253   2.424   2.898   0.868 -1.0915 -2.1919  0.4471
  418SOL    HW2 1254   2.465   2.887   1.037 -1.4605  0.2728  1.7858
  419SOL     OW 1255   0.115   2.644   0.446  0.2991  0.0041 -0.3384
  419SOL    HW1 1256   0.083   2.701   0.526  0.6240 -1.1538  2.8390
  419SOL    HW2 1257   0.211   2.618   0.458 -1.5932 -0.4550  0.3648
  420SOL     OW 1258   0.174   1.309   1.902 -0.5388  0.0035  0.0872
  420SOL    HW1 1259   0.196   1.408   1.907  0.2268 -3.7135  0.2395
  420SOL    HW2 1260   0.265   1.260   1.896  1.4424 -0.7470 -0.5652
  421SOL     OW 1261   1.544   2.620   0.815  0.6322  0.2272  0.3129
  421SOL    HW1 1262   1.591   2.680   0.885 -0.6391  1.6046 -1.4642
  421SOL    HW2 1263   1.559   2.523   0.839 -2.0431  0.8117  0.2958
  422SOL     OW 1264   0.809   0.288   1.470 -0.4883  0.1912 -0.2893
  422SOL    HW1 1265   0.882   0.334   1.529  2.5402  1.5594 -0.8807
  422SOL    HW2 1266   0.728   0.276   1.533 -2.3892  0.8457 -0.5259
  423SOL     OW 1267   0.925   1.425   1.849  0.2675 -0.5747  0.2433
  423SOL    HW1 1268   1.006   1.484   1.856 -0.9271 -1.5086 -1.5428
  423SOL    HW2 1269   0.935   1.352   1.774 -0.8102 -0.8225  2.2017
  424SOL     OW 1270   1.968   1.936   0.299 -0.0582 -0.5587  0.1758
  424SOL    HW1 1271   1.936   1.924   0.397 -1.4861 -3.3107  1.9489
  424SOL    HW2 1272   1.986   2.031   0.274  0.5062  0.7371 -1.7014
  425SOL     OW 1273   2.774   0.045   1.922  0.3906 -0.5494 -0.4005
  425SOL    HW1 1274   2.857   0.008   1.951 -2.6333  5.4571 -0.9988
  425SOL    HW2 1275   2.775   0.064   1.825  1.6230  0.4432  1.1303
  426SOL     OW 1276   0.111   2.734   2.953 -0.1901 -0.3469 -0.1927
  426SOL    HW1 1277   0.172   2.815   2.971  0.5613 -0.4086 -0.7856
  426SOL    HW2 1278   0.091   2.680   3.036  0.6165  0.3167 -2.4197
  427SOL     OW 1279   1.264   0.460   0.061  0.2182  0.2555  0.1535
  427SOL    HW1 1280   1.356   0.499   0.086  0.0086  1.9599 -2.9267
  427SOL    HW2 1281   1.264   0.360   0.090  1.0820  0.9840 -0.0857
  428SOL     OW 1282   2.912   0.832   1.626 -0.2381 -0.3319  0.2378
  428SOL    HW1 1283   2.839   0.902   1.652  1.6088 -0.6857 -0.2683
  428SOL    HW2 1284   2.919   0.816   1.524 -0.1436 -1.4855 -3.0577
  429SOL     OW 1285   1.930   2.912   1.119  0.3712 -0.0995 -0.3006
  429SOL    HW1 1286   1.840   2.909   1.168  1.6477 -0.8060 -2.7939
  429SOL    HW2 1287   1.948   2.826   1.067 -1.7829  2.9532  0.6487
  430SOL     OW 1288   1.249   1.663   2.361  0.2802 -0.2346 -0.6041
  430SOL    HW1 1289   1.234   1.637   2.459  0.7694  0.2103 -3.1201
  430SOL    HW2 1290   1.295   1.587   2.309  0.2633  0.5898  1.3973
  431SOL     OW 1291   2.813   1.488   1.397  0.3841  0.6785 -0.1117
  431SOL    HW1 1292   2.779   1.575   1.445  0.1127 -0.5834  1.8735
  431SOL    HW2 1293   2.887   1.448   1.457  1.0719  0.7001  1.3216
  432SOL     OW 1294   1.158   2.527   2.290 -0.0637  0.2064  0.4041
  432SOL    HW1 1295   1.136   2.436   2.334  1.7027  0.8060  0.1169
  432SOL    HW2 1296   1.114   2.605   2.340  2.4342  0.4062  0.3208
  433SOL     OW 1297   1.919   0.324   2.076  0.1040  0.6848 -0.0384
  433SOL    HW1 1298   2.006   0.261   2.082  0.9574  1.4647 -0.0428
  433SOL    HW2 1299   1.909   0.376   2.158  1.0662 -0.7175 -1.3886
  434SOL     OW 1300   0.398   2.534   2.207  0.0040  0.0030 -0.4065
  434SOL    HW1 1301   0.302   2.519   2.239 -2.2345  0.8802  1.3297
  434SOL    HW2 1302   0.470   2.502   2.269 -1.9505  1.2748  0.0453
  435SOL     OW 1303   0.180   0.033   0.355 -0.2900 -0.1107 -0.2635
  435SOL    HW1 1304   0.154   0.124   0.329  0.4038 -0.3202  1.2186
  435SOL    HW2 1305   0.274   0.014   0.319  1.9807 -0.2668 -1.1163
  436SOL     OW 1306   0.628   0.836   2.089 -0.5335  0.5908 -0.5196
  436SOL    HW1 1307   0.525   0.855   2.099 -1.5034 -0.3592 -0.3907
  436SOL    HW2 1308   0.667   0.765   2.151  0.1184 -1.1309 -0.2561
  437SOL     OW 1309   0.649   2.433   2.827 -0.3305 -0.0122 -0.0490
  437SOL    HW1 1310   0.595   2.495   2.767 -2.9541 -0.9847  1.2422
  437SOL    HW2 1311   0.587   2.357   2.859 -1.6343  0.6919 -1.3926
  438SOL     OW 1312   0.891   0.986   0.950  0.7200  0.4987  0.1103
  438SOL    HW1 1313   0.827   1.055   0.914  1.4525  0.6429 -0.0546
  438SOL    HW2 1314   0.985   1.027   0.955  1.4073  0.0110  0.1627
  439SOL     OW 1315   2.582   1.292   2.309  0.0117  0.2103 -0.3227
  439SOL    HW1 1316   2.609   1.198   2.284  0.3612 -0.8321  1.1268
  439SOL    HW2 1317   2.490   1.308   2.271  0.3855 -0.8774  0.4795
  440SOL     OW 1318   0.019   0.487   2.958 -0.6679  0.1959 -0.4308
  440SOL    HW1 1319   0.018   0.425   3.043 -1.8299 -1.7245  0.5047
  440SOL    HW2 1320   0.111   0.491   2.910  3.6128 -2.3806 -1.9523
  441SOL     OW 1321   0.747   1.959   1.411 -0.2409 -0.0144  0.6044
  441SOL    HW1 1322   0.787   2.045   1.451  0.1794 -0.6825 -2.1543
  441SOL    HW2 1323   0.811   1.879   1.415 -2.6766  0.5242 -1.2809
  442SOL     OW 1324   1.697   1.615   0.870  0.2965  0.1348 -0.4726
  442SOL    HW1 1325   1.698   1.527   0.921  2.4701 -0.7954  0.5115
  442SOL    HW2 1326   1.780   1.663   0.909 -0.6273  0.3950 -1.2919
  443SOL     OW 1327   2.515   1.891   2.510 -0.0993  0.3238 -0.3129
  443SOL    HW1 1328   2.581   1.946   2.457 -0.3064 -1.0060  0.4515
  443SOL    HW2 1329   2.454   1.957   2.561 -1.7712  4.0439  0.7691
  444SOL     OW 1330   1.973   1.601   2.823 -0.5150 -0.1523  0.5626
  444SOL    HW1 1331   1.908   1.663   2.878 -1.4773 -1.0577 -0.7926
  444SOL    HW2 1332   2.041   1.660   2.770 -0.9339  1.2651 -1.4104
  445SOL     OW 1333   2.711   2.694   2.043 -0.2244 -0.3021  0.3567
  445SOL    HW1 1334   2.771   2.629   2.092 -2.0243 -2.4683 -1.5673
  445SOL    HW2 1335   2.679   2.774   2.100  1.5187  0.0607  1.4342
  446SOL     OW 1336   0.999   1.004   1.736 -0.0080 -0.3791  0.5129
  446SOL    HW1 1337   1.047   0.946   1.666  1.1249 -0.9145 -0.1408
  446SOL    HW2 1338   0.976   0.949   1.822  1.3766 -2.7481  1.9403
  447SOL     OW 1339   0.842   0.819   1.172  0.2149 -0.3360  0.5237
  447SOL    HW1 1340   0.912   0.749   1.142  2.4318  3.0767 -2.4485
  447SOL    HW2 1341   0.838   0.890   1.097  0.0530  1.3145  0.6826
  448SOL     OW 1342   1.136   1.329   2.480 -0.0913 -0.4904 -0.6849
  448SOL    HW1 1343   1.102   1.345   2.387 -0.1537 -1.6450  0.3820
  448SOL    HW2 1344   1.145   1.419   2.528  1.3350  0.8766 -0.6244
  449SOL     OW 1345   0.022   2.179   2.454  0.4612  0.2860  0.1364
  449SOL    HW1 1346   0.054   2.087   2.487  2.2066 -1.1085 -0.4609
  449SOL    HW2 1347   3.029   2.168   2.368 -0.7024  0.6567  2.1080
  450SOL     OW 1348   2.129   1.605   1.893 -0.2305  0.5888  0.5098
  450SOL    HW1 1349   2.178   1.682   1.848  2.6056  1.0887 -1.4744
  450SOL    HW2 1350   2.038   1.592   1.845 -1.1253 -2.4246  0.6879
  451SOL     OW 1351   2.651   1.412   1.180 -0.1374 -0.1222 -0.0989
  451SOL    HW1 1352   2.711   1.448   1.254 -0.2461 -0.3591 -0.3228
  451SOL    HW2 1353   2.592   1.340   1.220  1.3302 -0.3964 -1.6109
  452SOL     OW 1354   0.594   0.961   1.503 -0.0598  0.2805  0.3013
  452SOL    HW1 1355   0.627   0.866   1.488  0.7971 -0.8330 -0.1488
  452SOL    HW2 1356   0.618   1.003   1.413  0.8902  0.9685  1.1765
  453SOL     OW 1357   0.263   0.948   0.596  0.1215  0.0146  0.2733
  453SOL    HW1 1358   0.224   0.978   0.504  0.0343  1.8325  0.8632
  453SOL    HW2 1359   0.223   0.997   0.675 -1.8909  1.4524  1.4347
  454SOL     OW 1360   0.752   1.565   0.123  0.0968  0.3608  0.7295
  454SOL    HW1 1361   0.789   1.620   0.043  1.0059  2.3546 -4.4369
  454SOL    HW2 1362   0.653   1.577   0.123  1.0356 -0.7764  0.8690
  455SOL     OW 1363   1.685   0.801   1.194 -0.3024 -0.1136 -0.1674
  455SOL    HW1 1364   1.656   0.841   1.286  0.2021  0.2796  0.6267
  455SOL    HW2 1365   1.770   0.745   1.210 -2.7635 -0.3204  1.3726
  456SOL     OW 1366   1.690   2.743   1.028 -0.5371 -0.2521  0.2466
  456SOL    HW1 1367   1.783   2.705   1.007  1.2611 -1.3710 -2.0328
  456SOL    HW2 1368   1.689   2.757   1.127  1.8523 -0.6523 -0.8860
  457SOL     OW 1369   2.006   0.269   2.521 -0.2982  0.4349  0.3676
  457SOL    HW1 1370   1.939   0.344   2.539  0.6255  0.6379  0.3115
  457SOL    HW2 1371   1.967   0.198   2.464 -0.6346  0.0258 -0.8326
  458SOL     OW 1372   2.474   0.687   2.554 -0.1558 -0.1326  0.4801
  458SOL    HW1 1373   2.477   0.784   2.526  3.7232 -1.0396  0.6683
  458SOL    HW2 1374   2.566   0.649   2.567 -3.0345  2.6810 -0.1703
  459SOL     OW 1375   0.003   1.701   2.013 -0.0272  0.0151  0.4544
  459SOL    HW1 1376   0.093   1.664   2.012 -4.1660  1.7720  1.7736
  459SOL    HW2 1377   3.025   1.687   2.108  2.0418  0.7372 -0.4181
  460SOL     OW 1378   0.300   0.672   3.021 -0.1590 -0.1929 -0.3109
  460SOL    HW1 1379   0.284   0.594   2.956 -1.4992  1.5690  3.4871
  460SOL    HW2 1380   0.343   0.756   2.975  1.7957  2.1945 -0.7974
  461SOL     OW 1381   0.006   2.315   0.475 -0.1602 -0.2470 -0.1627
  461SOL    HW1 1382   0.005   2.231   0.416 -0.2858  0.5112 -0.4577
  461SOL    HW2 1383   0.080   2.298   0.538 -3.0639  1.1708  0.2158
  462SOL     OW 1384   0.121   2.699   1.531  0.4981  0.3124 -0.5096
  462SOL    HW1 1385   0.045   2.757   1.502 -0.5129 -0.7897  1.1915
  462SOL    HW2 1386   0.158   2.646   1.452  0.2117 -0.8059 -1.0096
  463SOL     OW 1387   1.703   1.893   1.668  0.8070 -0.0532 -0.2787
  463SOL    HW1 1388   1.709   1.897   1.566 -0.3733 -1.4707 -1.1880
  463SOL    HW2 1389   1.780   1.946   1.707 -1.4102 -0.1601  0.6330
  464SOL     OW 1390   0.025   2.765   0.670 -0.1356 -0.6927  0.5277
  464SOL    HW1 1391   0.087   2.851   0.672  4.5888  1.0814  1.6420
  464SOL    HW2 1392   0.034   2.720   0.760 -2.3279 -1.3297 -2.3096
  465SOL     OW 1393   0.452   0.134   1.515  0.0784 -0.6204  0.1377
  465SOL    HW1 1394   0.405   0.068   1.576 -0.9637 -1.0550  0.4227
  465SOL    HW2 1395   0.486   0.211   1.571  1.7190  0.0349 -1.1739
  466SOL     OW 1396   1.124   2.275   2.412  1.0881 -0.1561  0.3893
  466SOL    HW1 1397   1.135   2.188   2.355 -2.1836  2.8678  0.0418
  466SOL    HW2 1398   1.031   2.273   2.450 -3.1041 -0.9490 -0.0017
  467SOL     OW 1399   2.786   1.499   0.754 -1.3129 -0.6740  0.0227
  467SOL    HW1 1400   2.799   1.578   0.818  1.2635 -0.4994  1.6950
  467SOL    HW2 1401   2.689   1.467   0.758  0.3740  0.3357  3.7648
  468SOL     OW 1402   2.318   2.027   2.663 -0.6630  0.3013 -0.5178
  468SOL    HW1 1403   2.279   2.079   2.584 -1.3117  0.6953 -0.6250
  468SOL    HW2 1404   2.327   2.082   2.746  0.2126  0.0805 -5.8496
  469SOL     OW 1405   1.273   2.061   0.524 -0.3308 -0.2645  0.3347
  469SOL    HW1 1406   1.366   2.100   0.503  1.6972 -0.8566  0.9474
  469SOL    HW2 1407   1.283   1.985   0.589 -0.3778 -0.4537  0.5661
  470SOL     OW 1408   1.898   1.510   1.406  0.2175  0.1765  1.0140
  470SOL    HW1 1409   1.890   1.416   1.439  0.5137  0.7551 -0.5545
  470SOL    HW2 1410   1.974   1.561   1.449  0.1482 -0.3068 -1.8378
  471SOL     OW 1411   0.382   2.309   0.291  0.2422  0.0517  0.3140
  471SOL    HW1 1412   0.316   2.355   0.228  0.8102 -1.3628  1.5257
  471SOL    HW2 1413   0.471   2.359   0.298  1.4106  0.4267 -1.3412
  472SOL     OW 1414   2.258   1.774   2.163 -0.2404 -0.2402 -0.1516
  472SOL    HW1 1415   2.311   1.860   2.156 -3.5555 -2.3850 -0.0951
  472SOL    HW2 1416   2.291   1.718   2.246  0.9881  0.1832  1.2473
  473SOL     OW 1417   1.205   2.044   0.884 -0.5721 -0.1104  0.2535
  473SOL    HW1 1418   1.226   1.965   0.825 -0.4711 -1.9303  1.3345
  473SOL    HW2 1419   1.125   2.027   0.942  0.4430  0.8200 -1.2332
  474SOL     OW 1420   2.891   0.310   1.236 -0.3234 -0.0760 -0.1661
  474SOL    HW1 1421   2.868   0.350   1.323  0.3120  1.1251 -0.6877
  474SOL    HW2 1422   2.858   0.209   1.223 -3.2328 -2.3716 -2.1769
  475SOL     OW 1423   2.285   2.683   1.982  0.9641 -0.9455 -0.7132
  475SOL    HW1 1424   2.294   2.683   2.083  1.9592  0.7915 -1.8156
  475SOL    HW2 1425   2.308   2.775   1.948 -0.1923 -0.5162  0.3729
  476SOL     OW 1426   0.455   0.534   0.658 -0.1507 -0.4600 -0.1341
  476SOL    HW1 1427   0.508   0.446   0.656 -0.4400 -0.8301 -2.5230
  476SOL    HW2 1428   0.495   0.592   0.734 -2.2216 -0.5184  1.0012
  477SOL     OW 1429   0.764   1.849   0.951 -0.1625  0.6072 -0.4708
  477SOL    HW1 1430   0.734   1.933   0.992  0.5263 -0.7063  0.9838
  477SOL    HW2 1431   0.767   1.775   1.023  0.0493  0.2231  0.5701
  478SOL     OW 1432   1.070   2.276   2.919 -0.5343  0.0641  0.3862
  478SOL    HW1 1433   1.002   2.210   2.884  3.7364  0.5341 -0.9712
  478SOL    HW2 1434   1.091   2.348   2.850  0.3054 -0.8490  0.6569
  479SOL     OW 1435   2.847   1.213   1.740  0.3003 -0.1535  0.1854
  479SOL    HW1 1436   2.813   1.117   1.754  0.0728  2.1823 -0.6003
  479SOL    HW2 1437   2.844   1.239   1.642 -0.1056  0.4656 -0.3378
  480SOL     OW 1438   0.027   2.510   0.048  0.2641  0.1893  0.0705
  480SOL    HW1 1439   3.050   2.476   0.138 -1.1161  1.7209  0.9634
  480SOL    HW2 1440   0.002   2.438   3.045 -0.0439  2.4418  3.3229
  481SOL     OW 1441   1.675   0.048   2.301  0.2666 -0.1054  0.3563
  481SOL    HW1 1442   1.770   0.059   2.337 -1.9054 -0.6349 -1.3659
  481SOL    HW2 1443   1.671   0.064   2.198  0.3532 -2.1235 -1.1464
  482SOL     OW 1444   1.697   1.999   2.908 -0.4760 -0.7757 -0.3171
  482SOL    HW1 1445   1.742   2.090   2.883  2.6646 -0.2505 -2.4606
  482SOL    HW2 1446   1.616   1.977   2.849 -1.8071 -0.9486  0.6368
  483SOL     OW 1447   0.862   2.539   2.966 -0.2391 -0.2293 -0.8345
  483SOL    HW1 1448   0.872   2.481   3.054 -0.6405 -0.7105 -0.1140
  483SOL    HW2 1449   0.788   2.503   2.908  1.9503  1.8496  1.5392
  484SOL     OW 1450   0.394   2.620   1.145  0.0923 -0.1496 -0.1662
  484SOL    HW1 1451   0.324   2.683   1.182  0.2781 -1.2570 -0.7508
  484SOL    HW2 1452   0.470   2.674   1.099 -0.1297  1.7847  0.4688
  485SOL     OW 1453   2.309   0.503   0.601 -0.3534  0.0317  0.3814
  485SOL    HW1 1454   2.275   0.583   0.660 -1.0217  1.4858 -0.8893
  485SOL    HW2 1455   2.412   0.504   0.590  1.6157  0.5763  0.4962
  486SOL     OW 1456   1.935   2.654   2.435 -0.4871 -0.1450 -0.4973
  486SOL    HW1 1457   1.928   2.747   2.483 -0.1506  0.9178 -0.7778
  486SOL    HW2 1458   2.027   2.606   2.445  1.1676 -0.2997 -0.3597
  487SOL     OW 1459   0.994   1.381   0.764 -0.3205 -0.1866  0.7189
  487SOL    HW1 1460   0.902   1.345   0.763  3.2312  0.7073  1.1832
  487SOL    HW2 1461   0.992   1.472   0.724  0.0487  0.9963 -0.5976
  488SOL     OW 1462   2.223   0.420   0.003 -0.1091  0.0094 -0.3996
  488SOL    HW1 1463   2.269   0.464   0.078 -0.5487 -2.0173  0.4958
  488SOL    HW2 1464   2.209   0.486   2.985  1.8713  0.9702  2.2964
  489SOL     OW 1465   1.846   0.120   0.406 -0.0257 -0.2719  0.3119
  489SOL    HW1 1466   1.911   0.042   0.421  2.6490 -2.6252  1.3635
  489SOL    HW2 1467   1.895   0.201   0.361  4.7245  4.7555  2.3759
  490SOL     OW 1468   1.519   0.238   2.900  0.1432 -0.1009  0.0555
  490SOL    HW1 1469   1.540   0.298   2.983  1.9957  1.8194  3.2458
  490SOL    HW2 1470   1.599   0.183   2.881 -3.2980  1.1188 -1.0775
  491SOL     OW 1471   0.670   3.022   1.121  0.1033  0.2848  0.3043
  491SOL    HW1 1472   0.726   3.027   1.203 -1.9626  0.6418 -1.1860
  491SOL    HW2 1473   0.731   3.031   1.034  0.4197 -0.3959 -1.8953
  492SOL     OW 1474   1.720   2.999   0.239  0.0391 -0.2092  0.0315
  492SOL    HW1 1475   1.756   0.017   0.292  3.5669  1.1924  0.5487
  492SOL    HW2 1476   1.716   2.916   0.293  1.0319 -0.2070  0.5972
  493SOL     OW 1477   1.363   2.191   2.916  0.6030  0.2933 -0.2908
  493SOL    HW1 1478   1.261   2.190   2.924 -4.6227 -3.2485  1.5324
  493SOL    HW2 1479   1.403   2.144   2.839  1.0243 -0.7336  0.7970
  494SOL     OW 1480   0.457   0.998   1.116 -1.0442  0.0171 -0.5839
  494SOL    HW1 1481   0.553   1.011   1.153  1.7457  1.9460  0.2260
  494SOL    HW2 1482   0.455   0.992   1.015 -2.4998 -0.3292 -2.5560
  495SOL     OW 1483   3.024   0.521   1.474 -0.3941 -0.6852 -0.0142
  495SOL    HW1 1484   0.033   0.576   1.525 -1.0294 -0.3638 -1.5196
  495SOL    HW2 1485   2.933   0.503   1.521  1.8530  0.1322 -0.0841
  496SOL     OW 1486   2.242   2.261   2.033  0.5589  0.0526 -0.2439
  496SOL    HW1 1487   2.314   2.320   2.080  0.0510  1.6119  0.6535
  496SOL    HW2 1488   2.151   2.282   2.065  0.8333  0.0062 -0.6589
  497SOL     OW 1489   1.690   1.117   2.792 -0.4596 -0.7247 -0.1440
  497SOL    HW1 1490   1.777   1.165   2.755  0.2903  3.6354  1.1990
  497SOL    HW2 1491   1.614   1.185   2.797  0.7545  0.1213 -1.4946
  498SOL     OW 1492   0.909   2.035   0.466  0.2610 -0.2439  0.5111
  498SOL    HW1 1493   0.917   2.104   0.542  0.2714 -1.8479  0.0118
  498SOL    HW2 1494   0.875   1.953   0.515  1.2537 -1.2593  0.5967
  499SOL     OW 1495   0.168   1.626   0.954  0.0358  0.5947  0.2649
  499SOL    HW1 1496   0.105   1.677   0.883  2.2131  0.5747  0.7102
  499SOL    HW2 1497   0.208   1.541   0.911  1.0859  0.2492 -0.3079
  500SOL     OW 1498   1.314   2.661   0.643  0.2078  0.0640 -0.4154
  500SOL    HW1 1499   1.311   2.707   0.551  0.4790 -1.3674 -2.6620
  500SOL    HW2 1500   1.409   2.660   0.677  1.2189 -0.5686  0.1717
  501SOL     OW 1501   1.941   2.652   0.965  0.3359  0.3622  0.3647
  501SOL    HW1 1502   1.977   2.687   0.879 -1.4435 -2.4454  3.2350
  501SOL    HW2 1503   1.928   2.549   0.952 -2.4111  0.1556 -1.6652
  502SOL     OW 1504   0.174   0.511   1.270 -0.2551 -0.4111 -0.0197
  502SOL    HW1 1505   0.094   0.513   1.333 -0.2232 -0.8552  0.8858
  502SOL    HW2 1506   0.236   0.593   1.282  2.0896  2.4059  0.4721
  503SOL     OW 1507   2.060   0.018   1.670  0.5990 -0.2810  0.3243
  503SOL    HW1 1508   1.995   0.052   1.594 -0.5176  1.7906 -5.2598
  503SOL    HW2 1509   2.132   3.015   1.632  1.3358  1.2955 -1.2193
  504SOL     OW 1510   2.037   0.700   1.806  0.1913  0.4531  0.4114
  504SOL    HW1 1511   1.989   0.788   1.797 -1.0413 -0.0148  1.3025
  504SOL    HW2 1512   2.047   0.673   1.903  0.6896 -0.3338 -1.1843
  505SOL     OW 1513   1.321   2.815   2.454 -0.5818  0.2059 -0.2044
  505SOL    HW1 1514   1.394   2.774   2.404 -3.6874 -0.6045  2.7555
  505SOL    HW2 1515   1.355   2.822   2.549 -2.3746 -0.8404  1.6265
  506SOL     OW 1516   0.588   0.601   1.936  0.0001 -0.3251 -0.2456
  506SOL    HW1 1517   0.663   0.530   1.929 -0.1732 -0.5888 -0.6345
  506SOL    HW2 1518   0.611   0.686   1.997 -0.1053  1.5185 -0.2303
  507SOL     OW 1519   1.582   0.335   0.070 -0.4424  0.1311 -0.1918
  507SOL    HW1 1520   1.541   0.420   0.113  0.3263  0.6593 -0.0439
  507SOL    HW2 1521   1.682   0.348   0.067  0.9061  1.0699  0.1862
  508SOL     OW 1522   2.191   0.444   1.979 -0.3843 -0.1183  0.0614
  508SOL    HW1 1523   2.187   0.535   1.931 -1.0525  0.1361 -1.9459
  508SOL    HW2 1524   2.160   0.368   1.917 -1.0401  0.3313  0.0447
  509SOL     OW 1525   0.736   1.685   2.490  0.1498  0.1398 -0.6809
  509SOL    HW1 1526   0.636   1.696   2.507  0.5012 -0.2542  0.1178
  509SOL    HW2 1527   0.747   1.667   2.391  0.4281  1.0402  0.6271
  510SOL     OW 1528   2.837   0.580   0.538  0.4399 -0.0018  0.0717
  510SOL    HW1 1529   2.831   0.653   0.472  1.5585 -1.9821  3.0005
  510SOL    HW2 1530   2.888   0.607   0.620  3.2007 -0.7029 -2.7609
  511SOL     OW 1531   1.595   1.508   1.365 -0.4930 -0.2390  0.0194
  511SOL    HW1 1532   1.542   1.548   1.442  1.0655 -0.9953  1.8111
  511SOL    HW2 1533   1.696   1.516   1.383 -0.4672 -0.6470 -0.7407
  512SOL     OW 1534   0.326   1.595   0.568 -0.2452 -0.4513 -0.5050
  512SOL    HW1 1535   0.425   1.574   0.576  0.4870  1.3352  1.6078
  512SOL    HW2 1536   0.280   1.504   0.562 -3.4519 -3.4588 -0.9516
  513SOL     OW 1537   0.465   2.048   1.065 -0.6431  0.0802 -0.3819
  513SOL    HW1 1538   0.443   1.947   1.072  2.6426  1.2188 -1.5925
  513SOL    HW2 1539   0.543   2.060   0.998  1.3737  0.1696 -1.8514
  514SOL     OW 1540   0.438   2.149   0.502  0.0421  0.0580  0.3083
  514SOL    HW1 1541   0.354   2.186   0.546  1.4879  1.1054 -1.3345
  514SOL    HW2 1542   0.454   2.203   0.418 -0.0901 -2.4163  1.5872
  515SOL     OW 1543   0.009   2.970   0.078  0.1984  0.2423  0.3275
  515SOL    HW1 1544   2.993   2.963   0.145  0.2676  2.4184  2.9686
  515SOL    HW2 1545   0.091   2.923   0.111 -0.1967  1.8605  0.4118
  516SOL     OW 1546   2.019   0.048   1.264  0.0177  0.2526  0.0931
  516SOL    HW1 1547   1.958   0.073   1.343 -2.0411 -0.1647 -0.9211
  516SOL    HW2 1548   1.971   3.051   1.195  1.2816 -1.6248 -0.7538
  517SOL     OW 1549   1.629   1.407   0.538  0.4500 -0.0418 -0.7379
  517SOL    HW1 1550   1.600   1.504   0.558 -0.7683  1.1469 -1.5006
  517SOL    HW2 1551   1.577   1.341   0.600 -1.0994  0.1061 -2.1534
  518SOL     OW 1552   1.243   0.303   0.894 -0.1334 -0.5491  0.2861
  518SOL    HW1 1553   1.144   0.308   0.915 -0.1579 -0.9813  1.5731
  518SOL    HW2 1554   1.273   0.227   0.827 -1.5201  1.5058  2.1095
  519SOL     OW 1555   2.584   2.472   0.406 -0.3317  0.4093  0.1213
  519SOL    HW1 1556   2.624   2.517   0.488  1.9264  2.9717 -0.7813
  519SOL    HW2 1557   2.615   2.528   0.324 -2.3878  1.0906  1.1869
  520SOL     OW 1558   1.753   2.089   2.028  0.4032  0.2511 -0.3483
  520SOL    HW1 1559   1.777   2.164   2.095 -2.8260  0.7033 -1.5305
  520SOL    HW2 1560   1.689   2.022   2.074  1.9843  0.7371  1.8992
  521SOL     OW 1561   1.589   2.823   2.325  0.1926 -0.4313 -0.1388
  521SOL    HW1 1562   1.612   2.786   2.231 -0.8957 -0.3314 -2.3444
  521SOL    HW2 1563   1.639   2.911   2.343  0.8196 -0.5745 -0.0678
  522SOL     OW 1564   2.946   2.956   1.720 -0.5041  0.0696  0.0743
  522SOL    HW1 1565   2.953   2.898   1.638  1.2500  2.2726 -0.7988
  522SOL    HW2 1566   2.932   2.895   1.797  1.2937  2.9224  2.6778
  523SOL     OW 1567   0.817   2.199   1.506  0.0491 -0.4162 -0.2083
  523SOL    HW1 1568   0.747   2.271   1.485  1.3035 -2.7328 -0.6022
  523SOL    HW2 1569   0.908   2.239   1.530 -1.9380 -1.3665  2.6826
  524SOL     OW 1570   2.247   2.101   0.023 -0.0377  0.2482 -0.3435
  524SOL    HW1 1571   2.232   2.004   0.011 -0.9102  0.9252 -2.1038
  524SOL    HW2 1572   2.268   2.127   0.116 -2.2333 -0.9591 -1.2409
  525SOL     OW 1573   2.793   0.795   3.037 -0.2007  0.2503  0.1827
  525SOL    HW1 1574   2.895   0.791   3.026  1.4103  0.8095 -2.0134
  525SOL    HW2 1575   2.751   0.826   2.949  0.4198 -1.1715  0.9250
  526SOL     OW 1576   0.737   3.004   0.484  0.3656  0.4129 -0.0871
  526SOL    HW1 1577   0.832   2.987   0.517 -0.9066  0.5972 -1.4296
  526SOL    HW2 1578   0.684   3.038   0.557  2.1158 -1.6768 -0.4769
  527SOL     OW 1579   2.645   1.316   0.430 -0.0264 -0.3035 -0.4463
  527SOL    HW1 1580   2.658   1.255   0.510 -1.2964 -0.2503 -0.1390
  527SOL    HW2 1581   2.553   1.353   0.441  0.9942 -1.3684 -2.3760
  528SOL     OW 1582   0.799   0.864   2.486 -0.0300 -0.1935  0.5036
  528SOL    HW1 1583   0.772   0.791   2.422 -1.7781  3.3844 -0.5000
  528SOL    HW2 1584   0.722   0.935   2.481 -1.8577  0.5864 -1.8818
  529SOL     OW 1585   0.481   1.583   0.064 -0.1109 -0.0280  0.1951
  529SOL    HW1 1586   0.442   1.631   0.146  3.5804  1.5212  0.0531
  529SOL    HW2 1587   0.414   1.591   3.050 -0.5341 -1.3096  2.4104
  530SOL     OW 1588   1.261   1.025   2.154  0.1897  0.0080  0.0906
  530SOL    HW1 1589   1.343   1.015   2.101  1.1769  0.3413  1.1812
  530SOL    HW2 1590   1.276   0.978   2.245  0.7643  2.1123 -1.1201
  531SOL     OW 1591   1.449   2.083   0.101  0.3967  0.4713  0.0893
  531SOL    HW1 1592   1.404   2.124   0.015 -1.8850 -2.9447 -0.2369
  531SOL    HW2 1593   1.435   1.980   0.098  2.6075  1.5427  2.7198
  532SOL     OW 1594   2.221   1.093   2.437  0.5037  0.4150  0.0061
  532SOL    HW1 1595   2.145   1.029   2.458 -0.7875 -0.8902 -1.9442
  532SOL    HW2 1596   2.209   1.182   2.485 -0.5302  1.7304  0.6282
  533SOL     OW 1597   0.068   0.440   1.822  0.0171  0.2131 -0.2949
  533SOL    HW1 1598   0.040   0.353   1.779  0.3580  3.7462 -2.0235
  533SOL    HW2 1599   3.062   0.513   1.809  1.9627 -0.1500 -1.2706
  534SOL     OW 1600   1.933   0.032   0.077  0.2440  0.5479  0.4101
  534SOL    HW1 1601   1.945   0.136   0.084 -3.0772  1.2116 -1.5094
  534SOL    HW2 1602   1.859   3.059   0.137  1.7808 -2.5054 -0.1490
  535SOL     OW 1603   0.653   0.016   3.008 -0.2370 -0.3427 -0.1195
  535SOL    HW1 1604   0.745   0.047   2.983 -0.8234 -3.7365  0.4541
  535SOL    HW2 1605   0.604   0.093   3.051 -0.6668  1.0628 -1.5605
  536SOL     OW 1606   0.527   1.862   1.488  0.3824 -0.0196 -0.5108
  536SOL    HW1 1607   0.491   1.783   1.431 -0.9742 -2.4983 -1.1338
  536SOL    HW2 1608   0.615   1.902   1.459 -1.4712  2.0039  2.2360
  537SOL     OW 1609   3.010   2.585   1.716  0.3813 -0.1360  0.0177
  537SOL    HW1 1610   0.027   2.634   1.691  1.2643 -1.3387 -0.5819
  537SOL    HW2 1611   2.975   2.609   1.807  1.4754 -3.3987  0.3782
  538SOL     OW 1612   3.010   2.063   0.373  0.0084  0.1404  0.3156
  538SOL    HW1 1613   0.043   2.033   0.353  1.9003 -0.5695 -1.0005
  538SOL    HW2 1614   2.948   1.997   0.334 -0.2581  0.8373 -0.8221
  539SOL     OW 1615   2.435   0.959   2.503  0.1883 -0.9219 -0.1025
  539SOL    HW1 1616   2.347   1.002   2.471  1.2362  0.5435 -0.1440
  539SOL    HW2 1617   2.463   0.990   2.596 -0.7434  0.5448 -0.3898
  540SOL     OW 1618   1.925   0.958   2.991 -0.0130 -0.2210  0.2706
  540SOL    HW1 1619   1.900   1.051   3.026  2.4292 -0.1748 -0.6105
  540SOL    HW2 1620   1.865   0.886   3.020  2.3924  1.7997 -3.1186
  541SOL     OW 1621   0.723   0.662   2.272  0.4424  0.1431 -0.2028
  541SOL    HW1 1622   0.763   0.576   2.298 -1.0219  0.5830 -1.3289
  541SOL    HW2 1623   0.634   0.672   2.322 -1.8397 -1.3003 -2.0598
  542SOL     OW 1624   1.454   2.553   2.182 -0.1680 -0.4003 -1.0811
  542SOL    HW1 1625   1.379   2.601   2.134 -1.0919 -0.9265 -1.1009
  542SOL    HW2 1626   1.529   2.547   2.120 -2.3263 -0.1666 -0.2063
  543SOL     OW 1627   1.064   2.820   0.428  0.1219  0.3545  0.0185
  543SOL    HW1 1628   1.021   2.879   0.496 -2.3744 -0.1275  1.6888
  543SOL    HW2 1629   0.992   2.774   0.364 -0.1721 -0.3188 -0.6162
  544SOL     OW 1630   2.740   1.823   2.084 -0.2205 -0.3576  0.3094
  544SOL    HW1 1631   2.793   1.812   2.170  0.8957 -0.9830  1.7559
  544SOL    HW2 1632   2.664   1.756   2.075 -0.0683 -0.7738 -0.7687
  545SOL     OW 1633   1.391   2.045   1.388  0.1885 -0.1765  0.8358
  545SOL    HW1 1634   1.306   2.022   1.438 -2.0347  1.8130  1.4592
  545SOL    HW2 1635   1.370   2.066   1.290  0.9092 -0.9984  0.0508
  546SOL     OW 1636   0.248   0.266   2.426  0.2166  0.3124  0.4744
  546SOL    HW1 1637   0.332   0.276   2.372 -1.4849  0.0284  0.0401
  546SOL    HW2 1638   0.248   0.172   2.475  0.9663  0.1089  1.5334
  547SOL     OW 1639   0.945   0.260   0.481  0.0281 -0.7579 -0.7952
  547SOL    HW1 1640   0.915   0.261   0.387 -0.3670  1.5792  1.3651
  547SOL    HW2 1641   1.006   0.337   0.507 -0.0382  0.8837 -0.4436
  548SOL     OW 1642   1.721   2.064   0.107  0.3666 -0.7534 -0.4398
  548SOL    HW1 1643   1.624   2.100   0.110 -2.3512 -1.7475 -1.0673
  548SOL    HW2 1644   1.737   2.044   0.006  0.7172 -0.8533 -2.6278
  549SOL     OW 1645   2.111   1.042   0.435 -0.7428 -0.2895 -0.2678
  549SOL    HW1 1646   2.041   1.095   0.385 -0.7310  0.5597 -2.3132
  549SOL    HW2 1647   2.204   1.055   0.395  0.0598 -0.7359  2.5527
  550SOL     OW 1648   2.599   2.217   0.456 -0.5783 -0.3085 -0.6426
  550SOL    HW1 1649   2.575   2.177   0.364 -0.4202 -1.6581  0.2944
  550SOL    HW2 1650   2.596   2.323   0.440 -0.6036  2.9019 -0.8110
  551SOL     OW 1651   1.182   0.347   1.429 -0.2456  0.2573 -0.1950
  551SOL    HW1 1652   1.272   0.348   1.389  1.5227  2.1379  4.7830
  551SOL    HW2 1653   1.154   0.258   1.465  3.0129  4.5802 -0.2708
  552SOL     OW 1654   3.000   1.943   2.779  0.0573 -0.2030  0.2424
  552SOL    HW1 1655   3.004   1.876   2.700  0.2141 -0.1617 -1.0409
  552SOL    HW2 1656   2.947   1.910   2.857 -0.5597  1.9699  1.4847
  553SOL     OW 1657   2.706   2.570   0.633 -0.2040  0.1691 -0.1281
  553SOL    HW1 1658   2.702   2.667   0.595  1.4438  3.4570 -3.1955
  553SOL    HW2 1659   2.804   2.546   0.639  2.2662  0.5578 -3.0425
  554SOL     OW 1660   1.836   1.258   1.774 -0.3968 -0.3082  0.7489
  554SOL    HW1 1661   1.892   1.259   1.686  1.7824 -2.0233  0.4533
  554SOL    HW2 1662   1.890   1.298   1.852 -0.4219  0.2396 -0.1395
  555SOL     OW 1663   1.123   2.123   1.957  0.2150  0.4241 -0.4048
  555SOL    HW1 1664   1.105   2.197   1.885  1.6990 -1.3179 -0.5595
  555SOL    HW2 1665   1.087   2.034   1.925 -2.2504  1.5787 -0.0881
  556SOL     OW 1666   1.216   1.546   1.818 -0.3834 -0.2147 -0.1125
  556SOL    HW1 1667   1.288   1.597   1.873 -0.6443 -0.7925 -0.6908
  556SOL    HW2 1668   1.251   1.454   1.793  0.8595  0.0575  1.2794
  557SOL     OW 1669   1.547   0.006   1.592  0.4754 -0.1832  0.1778
  557SOL    HW1 1670   1.464   3.041   1.644  1.0201 -1.8356 -1.8030
  557SOL    HW2 1671   1.596   2.985   1.560  1.3448  1.9872 -1.3119
  558SOL     OW 1672   0.744   2.903   2.085  0.4363  0.7234 -0.0348
  558SOL    HW1 1673   0.673   2.828   2.078 -1.6133  0.6976  1.0531
  558SOL    HW2 1674   0.806   2.906   2.005  0.7310 -1.5547  2.6763
  559SOL     OW 1675   1.710   2.389   0.318  0.1383 -0.0602 -0.4177
  559SOL    HW1 1676   1.642   2.397   0.242  1.1841  1.7376 -3.8237
  559SOL    HW2 1677   1.669   2.415   0.407 -2.9249  0.0875  1.2127
  560SOL     OW 1678   1.480   2.185   0.370 -0.0589  0.7645  0.3738
  560SOL    HW1 1679   1.482   2.140   0.277 -0.6325 -1.1826  0.0119
  560SOL    HW2 1680   1.440   2.281   0.372  0.8369  0.8197 -0.1000
  561SOL     OW 1681   1.531   0.370   0.503  0.4328  0.7518 -0.7481
  561SOL    HW1 1682   1.611   0.317   0.546  0.9021 -1.9255  1.4134
  561SOL    HW2 1683   1.452   0.308   0.502 -1.6207  3.3498 -1.0910
  562SOL     OW 1684   0.507   1.314   2.054 -0.2838  0.4808 -0.0800
  562SOL    HW1 1685   0.535   1.369   1.977 -0.5770 -0.2785 -0.6343
  562SOL    HW2 1686   0.539   1.220   2.038  2.2258  0.6373 -3.0572
  563SOL     OW 1687   1.502   2.043   2.730 -0.0888 -0.4049  0.4235
  563SOL    HW1 1688   1.465   1.964   2.686  0.5054  2.1173  0.7232
  563SOL    HW2 1689   1.548   2.113   2.673 -0.3357  0.1290  2.4480
  564SOL     OW 1690   3.019   0.915   0.759  0.2757 -0.1957 -0.5196
  564SOL    HW1 1691   2.951   0.914   0.837 -3.5182  3.0207  2.0598
  564SOL    HW2 1692   3.054   0.823   0.741  0.4133  3.9799  2.7108
  565SOL     OW 1693   0.579   1.299   0.054  0.2156 -0.4918  0.0990
  565SOL    HW1 1694   0.534   1.389   0.075 -2.1762 -0.4427  2.1917
  565SOL    HW2 1695   0.674   1.300   0.086 -1.1076 -1.6134  0.5381
  566SOL     OW 1696   2.250   2.670   2.711  0.4797 -0.4120  0.5760
  566SOL    HW1 1697   2.228   2.758   2.765  1.5363 -0.2880  0.5270
  566SOL    HW2 1698   2.218   2.597   2.769  0.5088  3.5301 -1.4257
  567SOL     OW 1699   1.242   1.380   1.475  0.4243 -0.2337  0.3825
  567SOL    HW1 1700   1.288   1.473   1.458 -0.8303  1.7246 -0.2088
  567SOL    HW2 1701   1.239   1.362   1.577 -0.7638  1.7729  1.6121
  568SOL     OW 1702   1.330   1.129   2.813  0.1708  0.3963  0.1407
  568SOL    HW1 1703   1.272   1.122   2.898 -0.6272  0.5418 -0.4418
  568SOL    HW2 1704   1.390   1.208   2.817 -1.3863  1.7370 -0.7685
  569SOL     OW 1705   2.030   1.695   0.437  0.0190 -0.3661  0.3153
  569SOL    HW1 1706   2.014   1.739   0.345  0.3176  2.2529 -0.2114
  569SOL    HW2 1707   2.064   1.765   0.500 -0.0140  1.1788 -0.0983
  570SOL     OW 1708   2.611   2.068   2.099  0.6511 -0.5249 -0.3292
  570SOL    HW1 1709   2.668   2.153   2.089 -0.2014  0.7637 -1.7997
  570SOL    HW2 1710   2.666   1.986   2.096 -1.8705  3.3579 -0.4975
  571SOL     OW 1711   2.750   1.943   1.839 -0.3354 -0.4103  0.7700
  571SOL    HW1 1712   2.664   1.909   1.804  2.0124  2.1025  0.3026
  571SOL    HW2 1713   2.763   1.911   1.937  0.0154 -1.4862  1.0074
  572SOL     OW 1714   1.494   2.468   0.153 -0.0147 -0.0758  0.1710
  572SOL    HW1 1715   1.429   2.470   0.231 -0.4554 -1.0009  0.8889
  572SOL    HW2 1716   1.441   2.460   0.066  0.3992  0.7227 -0.7836
  573SOL     OW 1717   1.338   1.864   0.705  0.2161  0.1738 -0.2018
  573SOL    HW1 1718   1.437   1.871   0.739  2.4857 -2.1866 -0.7014
  573SOL    HW2 1719   1.300   1.772   0.731  0.8916 -1.8515 -1.0477
  574SOL     OW 1720   1.156   2.911   1.552  0.2681  0.2535  0.2293
  574SOL    HW1 1721   1.207   2.961   1.622  3.2295  0.5158 -2.7085
  574SOL    HW2 1722   1.083   2.855   1.598 -1.2787 -3.6441  1.6718
  575SOL     OW 1723   0.934   0.857   1.418  0.5219 -0.0614  0.3387
  575SOL    HW1 1724   0.887   0.847   1.327 -0.4864 -0.7898 -0.9735
  575SOL    HW2 1725   0.914   0.780   1.479 -1.0238 -0.9652 -0.4280
  576SOL     OW 1726   2.752   0.073   1.138 -0.0433 -0.2634  0.1130
  576SOL    HW1 1727   2.724   0.128   1.057  1.3542  0.2675 -1.2894
  576SOL    HW2 1728   2.689   0.083   1.216 -0.0835 -1.4603  1.0882
  577SOL     OW 1729   2.195   0.769   2.540 -0.9983 -0.0373  0.0654
  577SOL    HW1 1730   2.168   0.824   2.621  1.4247 -0.9433  0.3927
  577SOL    HW2 1731   2.296   0.748   2.536  0.3286  0.1497  0.5802
  578SOL     OW 1732   1.963   1.669   2.416 -0.1402  0.1134  0.0630
  578SOL    HW1 1733   1.919   1.584   2.467 -2.8687 -4.2880  1.3414
  578SOL    HW2 1734   1.932   1.753   2.468 -1.7454 -0.1273 -0.3354
  579SOL     OW 1735   0.328   1.368   0.890  0.1944 -0.1707 -0.4567
  579SOL    HW1 1736   0.266   1.309   0.944 -2.8290 -0.9906  3.3142
  579SOL    HW2 1737   0.374   1.314   0.818 -1.3994 -1.5721  2.8580
  580SOL     OW 1738   1.332   2.479   3.001  0.0832  0.3687  0.3601
  580SOL    HW1 1739   1.262   2.416   2.959 -3.4376 -0.8823  0.5585
  580SOL    HW2 1740   1.310   2.576   2.969 -0.0481  2.6324 -0.2709
  581SOL     OW 1741   0.958   0.687   2.127  0.0375 -0.3078  0.1547
  581SOL    HW1 1742   0.864   0.700   2.166 -1.5735  0.0353 -1.7142
  581SOL    HW2 1743   1.030   0.680   2.201  0.6387 -0.9977  1.4251
  582SOL     OW 1744   0.460   0.996   0.832  0.2230 -0.2410  0.2699
  582SOL    HW1 1745   0.466   0.896   0.814 -1.1262  1.4383 -0.7568
  582SOL    HW2 1746   0.407   1.045   0.760  3.5927 -1.8494 -0.2284
  583SOL     OW 1747   0.765   1.557   2.235 -0.1220 -0.3881  0.8189
  583SOL    HW1 1748   0.772   1.545   2.131  1.7267 -0.1596 -4.1684
  583SOL    HW2 1749   0.845   1.614   2.263 -1.1781  0.8718 -0.2795
  584SOL     OW 1750   1.996   2.947   0.428 -0.1536 -0.6353 -0.0101
  584SOL    HW1 1751   1.953   2.896   0.506  0.7043 -0.8404 -0.8695
  584SOL    HW2 1752   2.098   2.942   0.432 -0.0061 -1.0412  1.8584
  585SOL     OW 1753   1.853   0.565   2.932 -0.5680 -1.1052  0.3659
  585SOL    HW1 1754   1.858   0.650   2.986  1.9913  0.6074 -1.0776
  585SOL    HW2 1755   1.772   0.570   2.872  1.7525  2.0163 -0.2066
  586SOL     OW 1756   0.130   1.785   0.549  0.3612  0.0965  0.0185
  586SOL    HW1 1757   0.052   1.793   0.482 -1.2313  0.9500 -0.8672
  586SOL    HW2 1758   0.182   1.698   0.536 -1.1462  0.8003  0.7434
  587SOL     OW 1759   1.582   1.988   0.798  0.1734  0.0889  0.5863
  587SOL    HW1 1760   1.536   2.075   0.766  0.8126 -2.1428  1.2386
  587SOL    HW2 1761   1.684   1.994   0.793 -0.7464  0.0579  0.4179
  588SOL     OW 1762   0.558   0.659   0.872 -0.2761  0.2641  0.2383
  588SOL    HW1 1763   0.543   0.674   0.969  1.9234 -1.1852  0.4506
  588SOL    HW2 1764   0.634   0.721   0.834 -1.4577 -1.4398 -0.6041
  589SOL     OW 1765   0.989   0.303   1.022 -0.1845 -0.5502 -0.0245
  589SOL    HW1 1766   0.908   0.288   0.961 -1.0537  0.4761  0.2735
  589SOL    HW2 1767   0.964   0.382   1.088  0.8158 -1.1267  0.6996
  590SOL     OW 1768   1.314   0.795   0.381 -0.3198  0.0983 -0.7342
  590SOL    HW1 1769   1.222   0.808   0.418  0.5204 -0.1854 -0.3591
  590SOL    HW2 1770   1.383   0.800   0.457  0.1925  1.6725  2.8340
  591SOL     OW 1771   2.418   2.415   2.141 -0.0163 -0.2251  0.1478
  591SOL    HW1 1772   2.439   2.479   2.064 -1.9182  0.3311 -3.5740
  591SOL    HW2 1773   2.485   2.423   2.217  0.6133  1.8354  0.3871
  592SOL     OW 1774   1.520   1.895   1.053 -0.0229 -0.4526  0.9019
  592SOL    HW1 1775   1.550   1.906   0.953  0.9614 -2.6821 -0.8575
  592SOL    HW2 1776   1.461   1.971   1.087  2.3091 -0.3298  0.9222
  593SOL     OW 1777   1.088   3.031   0.812 -0.5552  0.1433 -0.1971
  593SOL    HW1 1778   1.103   2.934   0.841 -0.6218  0.0529  3.4944
  593SOL    HW2 1779   1.178   0.015   0.782  0.8697 -0.8805  1.0884
  594SOL     OW 1780   0.409   1.080   1.864  0.0025 -0.0705  0.8081
  594SOL    HW1 1781   0.389   1.001   1.799 -2.5505 -0.1586  1.1166
  594SOL    HW2 1782   0.493   1.124   1.824  0.5985  0.0747  0.1217
  595SOL     OW 1783   0.106   2.702   0.920 -0.4096 -0.5671  0.0218
  595SOL    HW1 1784   0.210   2.698   0.909  3.0391  0.8974  0.1051
  595SOL    HW2 1785   0.078   2.800   0.940  0.5479  2.1350  0.5356
  596SOL     OW 1786   0.167   0.699   1.553  0.4458  0.6116  0.3577
  596SOL    HW1 1787   0.259   0.711   1.508 -0.4797  0.5858  1.5463
  596SOL    HW2 1788   0.147   0.770   1.622 -1.2896 -0.8958 -1.6539
  597SOL     OW 1789   1.877   1.378   0.695 -0.2887  0.1597 -0.0434
  597SOL    HW1 1790   1.902   1.282   0.702  1.8911 -1.5503 -1.9106
  597SOL    HW2 1791   1.796   1.397   0.634  1.8436  0.0466 -0.6482
  598SOL     OW 1792   0.527   2.733   2.094 -0.6674 -0.3291 -0.1182
  598SOL    HW1 1793   0.535   2.725   1.992  1.9029  0.0206 -1.3384
  598SOL    HW2 1794   0.478   2.653   2.136  0.8804  1.6375  0.2552
  599SOL     OW 1795   2.597   1.914   2.954  0.5070  0.2431 -0.1114
  599SOL    HW1 1796   2.619   1.856   2.872  1.2043 -1.4658 -0.4569
  599SOL    HW2 1797   2.579   1.855   3.035  0.5632  1.3725  1.6853
  600SOL     OW 1798   0.737   0.935   0.108  0.1010 -0.1593 -0.0365
  600SOL    HW1 1799   0.788   1.015   0.059  1.5682  1.5324  0.1929
  600SOL    HW2 1800   0.645   0.970   0.137  0.0937  2.0033 -0.2331
  601SOL     OW 1801   1.027   1.119   0.253  0.5057  0.3864  0.1835
  601SOL    HW1 1802   0.960   1.041   0.236  0.7092 -2.7176  1.1068
  601SOL    HW2 1803   1.116   1.098   0.208  0.3257 -0.9998  1.1726
  602SOL     OW 1804   1.217   2.749   1.144 -0.1093  0.3646  0.4992
  602SOL    HW1 1805   1.303   2.794   1.108  1.1978  0.2498  1.8052
  602SOL    HW2 1806   1.163   2.816   1.196  1.8391 -1.5239 -1.3218
  603SOL     OW 1807   1.069   0.012   2.172 -0.7210  0.0924  0.1744
  603SOL    HW1 1808   1.033   2.997   2.119 -1.2097  0.4753 -1.4836
  603SOL    HW2 1809   1.175   0.007   2.182  0.3929  0.3567  0.3719
  604SOL     OW 1810   0.018   0.147   2.062 -0.2133  0.4330  0.6241
  604SOL    HW1 1811   0.066   0.076   2.113  3.0990 -1.3381 -0.8543
  604SOL    HW2 1812   0.011   0.234   2.114  1.0168 -0.7165 -0.7199
  605SOL     OW 1813   2.713   2.234   1.455  0.0680 -0.0154 -0.1996
  605SOL    HW1 1814   2.649   2.293   1.408  4.5155 -1.8292 -1.3510
  605SOL    HW2 1815   2.767   2.290   1.523  2.8559 -0.3577  0.4104
  606SOL     OW 1816   0.283   1.684   2.940 -0.2732  0.0619  0.1386
  606SOL    HW1 1817   0.194   1.639   2.979 -0.7445 -0.8749  1.7925
  606SOL    HW2 1818   0.260   1.778   2.905  0.4288  0.7076  0.4707
  607SOL     OW 1819   0.793   0.445   3.052  0.1977  0.1255 -0.3708
  607SOL    HW1 1820   0.806   0.540   0.020 -0.1737 -2.0178  1.5499
  607SOL    HW2 1821   0.879   0.415   3.001  2.5906 -3.2578 -2.4344
  608SOL     OW 1822   1.839   1.156   2.305 -0.2195  0.5298 -0.7423
  608SOL    HW1 1823   1.751   1.106   2.316 -1.7042  1.9098  2.8847
  608SOL    HW2 1824   1.873   1.192   2.397 -1.6897  0.3959  1.4135
  609SOL     OW 1825   2.894   0.387   0.886 -0.0181 -0.2921 -0.7749
  609SOL    HW1 1826   2.976   0.376   0.947  1.2872  1.6078  2.4576
  609SOL    HW2 1827   2.809   0.344   0.920 -1.5679 -0.6544 -0.4218
  610SOL     OW 1828   0.359   2.415   2.966  0.3795 -0.0802  0.9461
  610SOL    HW1 1829   0.403   2.328   2.989 -1.1439 -1.6760  1.7243
  610SOL    HW2 1830   0.310   2.448   3.051 -0.8686  2.0979  0.2674
  611SOL     OW 1831   1.745   1.161   0.481 -0.1019  0.0543  0.4729
  611SOL    HW1 1832   1.790   1.166   0.388 -0.8518  1.1672  0.1612
  611SOL    HW2 1833   1.699   1.255   0.498 -0.3458  0.5150 -0.7146
  612SOL     OW 1834   0.870   2.304   2.548  0.0373  0.0449  0.0406
  612SOL    HW1 1835   0.837   2.258   2.630 -0.8110  1.9314 -2.0795
  612SOL    HW2 1836   0.788   2.346   2.498 -1.4774  1.8300  0.1974
  613SOL     OW 1837   1.103   1.761   3.039 -0.4688  0.2556 -0.9142
  613SOL    HW1 1838   1.155   1.673   3.036  0.5238 -2.6181 -2.4996
  613SOL    HW2 1839   1.125   1.816   2.956 -0.3009 -1.5408  2.9691
  614SOL     OW 1840   2.690   2.721   1.519 -0.0123  0.0105  0.6791
  614SOL    HW1 1841   2.760   2.783   1.475  5.4033  0.4009 -0.2904
  614SOL    HW2 1842   2.733   2.642   1.559 -1.7805  0.3409 -2.4234
  615SOL     OW 1843   2.237   1.313   2.985  0.1616 -0.1189  0.9022
  615SOL    HW1 1844   2.145   1.324   2.940  0.6516  2.5482 -0.1273
  615SOL    HW2 1845   2.316   1.328   2.923  2.5840  0.9460 -3.9784
  616SOL     OW 1846   1.696   0.169   0.613 -0.1166  0.0137 -0.1240
  616SOL    HW1 1847   1.749   0.165   0.526  0.2491 -0.2373  0.6110
  616SOL    HW2 1848   1.763   0.175   0.690  2.1947  2.1211  0.0251
  617SOL     OW 1849   0.853   1.112   3.009  0.1152  1.0569 -0.1346
  617SOL    HW1 1850   0.813   1.122   2.914 -1.2197 -1.4454  1.7360
  617SOL    HW2 1851   0.882   1.199   3.050 -2.4087 -2.3992 -0.0358
  618SOL     OW 1852   0.743   0.839   1.787  0.0106  0.8945  0.7122
  618SOL    HW1 1853   0.721   0.932   1.762 -3.3991 -1.0916  2.0701
  618SOL    HW2 1854   0.777   0.836   1.882  1.1513 -1.2679  0.2718
  619SOL     OW 1855   0.239   1.035   1.523 -0.0507  0.1423 -0.5466
  619SOL    HW1 1856   0.186   1.099   1.581 -0.9113  2.7866  0.1218
  619SOL    HW2 1857   0.306   0.975   1.575  0.6115 -2.0495 -1.0190
  620SOL     OW 1858   1.826   1.211   0.035  0.8472  0.0864  0.2218
  620SOL    HW1 1859   1.729   1.232   0.019  0.2158  0.7950  2.2067
  620SOL    HW2 1860   1.887   1.273   3.038  2.6807  0.8722 -1.8166
  621SOL     OW 1861   2.413   2.951   1.177  0.1539 -0.0303 -0.2224
  621SOL    HW1 1862   2.447   3.029   1.233 -0.2242 -3.2628  0.5236
  621SOL    HW2 1863   2.431   2.861   1.230  2.4017 -5.6983  2.3319
  622SOL     OW 1864   1.664   0.834   2.477 -0.2459  0.3865 -0.2577
  622SOL    HW1 1865   1.742   0.813   2.410  2.4875 -0.9384 -2.4014
  622SOL    HW2 1866   1.598   0.749   2.472 -2.4444 -3.4541  1.3712
  623SOL     OW 1867   1.046   0.406   2.929  0.4066 -0.0072  0.5763
  623SOL    HW1 1868   1.055   0.367   2.830 -1.6057 -1.7492 -1.0909
  623SOL    HW2 1869   1.134   0.437   2.965 -1.1989 -0.2414 -0.1334
  624SOL     OW 1870   1.691   0.467   0.316  0.3063  0.2127  0.1344
  624SOL    HW1 1871   1.622   0.439   0.383  0.3936 -0.2892 -0.1074
  624SOL    HW2 1872   1.777   0.412   0.328 -1.4651 -1.0130 -0.6809
  625SOL     OW 1873   0.708   1.141   0.831 -0.4060  0.0645  0.3056
  625SOL    HW1 1874   0.702   1.242   0.828 -0.5980  2.1786  0.9997
  625SOL    HW2 1875   0.614   1.103   0.836 -2.1630  1.9185  0.7642
  626SOL     OW 1876   1.315   0.999   0.197  0.7391  0.5241 -0.6495
  626SOL    HW1 1877   1.342   1.088   0.234 -1.4009  1.2169  0.6873
  626SOL    HW2 1878   1.322   0.930   0.270  0.3282 -0.9295  0.8993
  627SOL     OW 1879   0.919   3.039   1.893  0.1184  0.5743  0.1443
  627SOL    HW1 1880   0.996   0.044   1.882  0.9341 -1.7188 -0.8293
  627SOL    HW2 1881   0.829   0.027   1.896 -0.3248  1.2888 -1.5517
  628SOL     OW 1882   2.557   0.318   2.056  0.1995  0.3379  0.0562
  628SOL    HW1 1883   2.644   0.328   2.105  2.3447 -0.2165  0.6674
  628SOL    HW2 1884   2.475   0.348   2.107 -1.4817  1.9470  2.4197
  629SOL     OW 1885   0.793   1.218   2.749  0.3575  0.4014  0.6657
  629SOL    HW1 1886   0.861   1.273   2.796 -0.4986  1.0830  0.9352
  629SOL    HW2 1887   0.762   1.258   2.661  0.3891  1.0706 -1.5028
  630SOL     OW 1888   1.288   0.276   2.307  0.6196  0.3139  0.3453
  630SOL    HW1 1889   1.204   0.331   2.312 -0.5222 -0.8744  1.3767
  630SOL    HW2 1890   1.349   0.292   2.388  2.5867 -3.0424 -1.2916
  631SOL     OW 1891   2.717   0.818   0.653  0.0133  0.0887 -0.6387
  631SOL    HW1 1892   2.779   0.805   0.732  0.9701  0.2898  0.2491
  631SOL    HW2 1893   2.765   0.811   0.561  0.7550  0.3877  2.6051
  632SOL     OW 1894   2.508   0.955   1.266  0.0856  0.3235 -0.0034
  632SOL    HW1 1895   2.535   0.865   1.305  0.7358  0.5278 -0.0363
  632SOL    HW2 1896   2.518   0.945   1.165 -1.8192 -1.3295 -1.1119
  633SOL     OW 1897   1.696   1.025   1.054 -0.1792  0.3095 -1.0522
  633SOL    HW1 1898   1.769   1.025   0.985 -2.6543  0.0580 -0.8883
  633SOL    HW2 1899   1.702   0.937   1.111 -0.4458  1.4404  0.7629
  634SOL     OW 1900   1.869   3.009   0.858 -0.3961 -0.0450  0.1737
  634SOL    HW1 1901   1.874   3.000   0.960 -5.6388 -0.7979 -0.1353
  634SOL    HW2 1902   1.906   0.033   0.822  2.0256  0.1098  2.1131
  635SOL     OW 1903   1.575   0.852   1.466 -0.5059  0.8268  0.5756
  635SOL    HW1 1904   1.508   0.773   1.462  0.6538  1.0417  2.0221
  635SOL    HW2 1905   1.534   0.938   1.441  2.3221 -0.1593  1.6376
  636SOL     OW 1906   0.895   0.647   0.549 -0.2584  0.4352  0.6700
  636SOL    HW1 1907   0.819   0.634   0.480 -3.1126  0.8510 -0.1773
  636SOL    HW2 1908   0.894   0.581   0.630  1.0832  0.3688  3.2112
  637SOL     OW 1909   1.883   2.206   0.250 -0.0659 -0.5983 -0.3456
  637SOL    HW1 1910   1.817   2.271   0.291  0.5213  0.8296  3.7508
  637SOL    HW2 1911   1.833   2.137   0.188  0.0765 -0.2443 -2.2652
  638SOL     OW 1912   1.271   2.703   2.848  0.6017  0.0451 -0.1613
  638SOL    HW1 1913   1.311   2.789   2.879 -0.0320  2.0550 -1.6704
  638SOL    HW2 1914   1.327   2.647   2.785 -0.9547  0.6583 -0.5467
  639SOL     OW 1915   0.747   2.036   1.149 -0.3799 -0.1105 -0.0293
  639SOL    HW1 1916   0.673   2.095   1.109  1.0707  0.2036 -0.6895
  639SOL    HW2 1917   0.727   2.001   1.246 -1.1505  4.0914 -0.0495
  640SOL     OW 1918   0.229   2.803   0.198  0.3679  0.7481 -0.5233
  640SOL    HW1 1919   0.188   2.737   0.268 -1.0557 -2.2492  3.0951
  640SOL    HW2 1920   0.285   2.874   0.247 -0.4753 -0.2602 -0.7152
  641SOL     OW 1921   0.029   0.165   0.041 -0.1607  0.6214 -0.5698
  641SOL    HW1 1922   0.082   0.201   0.121  3.7701  0.5650  0.4800
  641SOL    HW2 1923   0.013   0.066   0.056  0.7003  2.1763  1.0956
  642SOL     OW 1924   3.015   1.420   1.175 -0.1203 -0.1950  0.4563
  642SOL    HW1 1925   0.012   1.497   1.209  1.7297  1.5771 -0.9224
  642SOL    HW2 1926   2.923   1.432   1.223 -1.8570 -0.3583 -0.7893
  643SOL     OW 1927   0.795   1.878   2.117  0.4463  0.0358 -0.3552
  643SOL    HW1 1928   0.835   1.782   2.096  1.0047 -2.4104 -0.5616
  643SOL    HW2 1929   0.865   1.949   2.145  0.2590  1.0156  1.2706
  644SOL     OW 1930   1.622   2.476   0.591 -0.2844  0.1245  0.4958
  644SOL    HW1 1931   1.712   2.428   0.605 -1.0816 -0.6581 -1.2493
  644SOL    HW2 1932   1.605   2.553   0.660 -2.1797 -0.4622  1.0485
  645SOL     OW 1933   1.661   2.439   1.323  0.1093  0.3886 -0.6138
  645SOL    HW1 1934   1.749   2.478   1.298 -1.2518  1.2159  0.6281
  645SOL    HW2 1935   1.668   2.347   1.367 -1.4635 -0.8292  0.4972
  646SOL     OW 1936   1.348   2.768   0.329 -0.4722 -0.0636 -0.2239
  646SOL    HW1 1937   1.334   2.686   0.268  1.2297 -2.8911 -0.7789
  646SOL    HW2 1938   1.260   2.821   0.349 -1.6010  0.8445 -0.2076
  647SOL     OW 1939   0.375   2.967   2.076 -0.3083 -0.2495 -0.5499
  647SOL    HW1 1940   0.319   2.947   1.995  0.0549  0.0686 -0.3671
  647SOL    HW2 1941   0.416   2.879   2.111 -1.9201 -2.3139  2.5531
  648SOL     OW 1942   2.333   0.671   1.004  0.0469  0.4636  0.0302
  648SOL    HW1 1943   2.297   0.763   1.033  0.2002  1.2356  0.6659
  648SOL    HW2 1944   2.420   0.687   0.951  0.2794 -0.5700 -1.4645
  649SOL     OW 1945   1.830   2.243   2.857 -0.5475 -0.4802  0.1652
  649SOL    HW1 1946   1.906   2.279   2.923  2.4880  1.3512  0.5817
  649SOL    HW2 1947   1.755   2.304   2.836  2.3439 -2.4666 -1.0021
  650SOL     OW 1948   2.565   1.670   1.463  0.3384 -0.7589 -0.3667
  650SOL    HW1 1949   2.641   1.732   1.489  1.5385  1.4517  1.0945
  650SOL    HW2 1950   2.511   1.656   1.545  1.1543 -1.3785  0.6332
  651SOL     OW 1951   1.552   1.633   2.823 -0.2713  0.2586  0.1690
  651SOL    HW1 1952   1.645   1.660   2.855  0.1117  0.3349 -0.0002
  651SOL    HW2 1953   1.529   1.690   2.741  1.6147  0.2700 -1.9168
  652SOL     OW 1954   0.877   2.942   2.663  0.5759 -0.1631  0.0888
  652SOL    HW1 1955   0.927   2.854   2.678 -0.3757  0.1247  0.4969
  652SOL    HW2 1956   0.923   2.999   2.593  0.1544 -1.7521 -4.3876
  653SOL     OW 1957   1.927   2.401   0.902 -0.0230  0.2055 -0.1794
  653SOL    HW1 1958   1.855   2.358   0.965  0.9788  2.4150 -0.6335
  653SOL    HW2 1959   2.022   2.363   0.917 -0.8137  0.8931 -1.6921
  654SOL     OW 1960   2.638   2.948   2.172 -0.3924  0.3296 -0.1615
  654SOL    HW1 1961   2.601   2.980   2.260 -1.0716 -0.5293 -1.0255
  654SOL    HW2 1962   2.632   3.018   2.099 -2.2997 -1.0190  1.9476
  655SOL     OW 1963   2.755   2.027   1.266 -0.3401 -0.2621  0.7510
  655SOL    HW1 1964   2.810   2.055   1.184 -0.3442 -0.0514 -2.2404
  655SOL    HW2 1965   2.742   2.105   1.328  0.8205 -0.6458 -0.5695
  656SOL     OW 1966   2.963   2.194   2.708  0.2712 -0.1059  0.6553
  656SOL    HW1 1967   3.005   2.205   2.609  1.2808  1.7426 -1.9434
  656SOL    HW2 1968   2.959   2.098   2.744 -1.5803 -0.4992  0.5383
  657SOL     OW 1969   2.886   0.823   0.408  0.1556 -0.3220  0.2810
  657SOL    HW1 1970   2.839   0.851   0.326  1.0432 -2.2370  1.2915
  657SOL    HW2 1971   2.974   0.778   0.382 -0.8169  1.1046 -0.1536
  658SOL     OW 1972   1.325   1.706   1.157  0.0456 -0.1774  0.0984
  658SOL    HW1 1973   1.320   1.669   1.255  0.9699  2.7696  1.7535
  658SOL    HW2 1974   1.414   1.755   1.146  0.1392 -2.2164 -2.6792
  659SOL     OW 1975   1.438   0.340   1.271  0.6476 -0.1696  0.3115
  659SOL    HW1 1976   1.516   0.374   1.221 -1.0229 -1.8542  1.0870
  659SOL    HW2 1977   1.393   0.262   1.219  0.9503 -0.8908 -0.0283
  660SOL     OW 1978   2.018   1.405   0.944 -0.3511 -0.2445 -0.0139
  660SOL    HW1 1979   1.987   1.349   1.027  0.3795 -0.0971 -0.5571
  660SOL    HW2 1980   1.950   1.404   0.865 -1.0670  2.5555  0.0763
  661SOL     OW 1981   0.096   1.577   0.246  0.1231  0.3782 -0.5968
  661SOL    HW1 1982   0.045   1.611   0.328  0.4460  0.6644  0.8277
  661SOL    HW2 1983   0.183   1.627   0.243 -2.4044 -0.2048  1.9443
  662SOL     OW 1984   2.702   0.981   1.747 -0.1209 -0.6439  0.2512
  662SOL    HW1 1985   2.686   0.924   1.832  2.3430  1.9812 -1.2494
  662SOL    HW2 1986   2.615   1.033   1.733 -1.7160  1.7258 -0.3074
  663SOL     OW 1987   2.172   1.383   1.233  0.0666 -0.5377  0.0643
  663SOL    HW1 1988   2.188   1.473   1.186 -0.1449  1.7297  2.2357
  663SOL    HW2 1989   2.155   1.393   1.331 -1.1122 -0.4308  0.5316
  664SOL     OW 1990   0.401   0.099   1.223 -0.4227 -0.0826 -0.4935
  664SOL    HW1 1991   0.428   0.089   1.324  0.3740  2.1159 -0.5133
  664SOL    HW2 1992   0.468   0.051   1.164  0.8555  0.1291  2.5047
  665SOL     OW 1993   1.268   0.116   2.808  0.1300  0.1134 -0.3508
  665SOL    HW1 1994   1.329   0.184   2.859  1.5329  1.3212 -0.7270
  665SOL    HW2 1995   1.282   0.028   2.854  0.6193  0.1849 -1.0569
  666SOL     OW 1996   0.449   0.322   2.276 -0.2612  0.1548  0.3593
  666SOL    HW1 1997   0.454   0.415   2.222 -0.9479  1.7698 -2.2062
  666SOL    HW2 1998   0.536   0.304   2.324 -1.8169  0.3104  1.5857
  667SOL     OW 1999   1.829   1.373   2.135 -0.2245  0.4963  0.1570
  667SOL    HW1 2000   1.920   1.385   2.083  0.6363  0.7219 -1.7926
  667SOL    HW2 2001   1.829   1.281   2.186  1.6726  1.8711 -0.3036
  668SOL     OW 2002   3.034   1.719   2.602 -0.7871  0.3674 -0.4565
  668SOL    HW1 2003   2.948   1.672   2.572  0.9127 -0.3154  0.5691
  668SOL    HW2 2004   0.047   1.659   2.636  1.2459 -1.6928  0.8551
  669SOL     OW 2005   2.259   0.073   2.343 -0.2230  0.4766  0.4740
  669SOL    HW1 2006   2.178   0.033   2.386  0.8990  0.5026  2.2098
  669SOL    HW2 2007   2.268   0.167   2.376 -1.1800 -1.3633 -0.5579
  670SOL     OW 2008   2.696   1.099   2.137  0.4184 -0.1877  0.1600
  670SOL    HW1 2009   2.793   1.106   2.163 -2.3216 -2.7065 -0.0788
  670SOL    HW2 2010   2.669   1.002   2.117  1.7565  2.6093 -2.5452
  671SOL     OW 2011   2.594   1.807   0.139 -0.3255  0.1232  0.5684
  671SOL    HW1 2012   2.650   1.730   0.105  1.3633  3.2574 -1.4589
  671SOL    HW2 2013   2.499   1.778   0.169 -0.9235  1.4244 -1.4722
  672SOL     OW 2014   1.984   1.775   2.167  0.4735  0.3662 -0.3844
  672SOL    HW1 2015   2.082   1.766   2.127  3.8691 -1.6983 -0.0940
  672SOL    HW2 2016   1.964   1.724   2.254 -1.9632  0.4444  0.3506
  673SOL     OW 2017   2.839   1.727   0.941  0.3127 -0.2349 -0.1562
  673SOL    HW1 2018   2.795   1.809   0.898  2.1534  0.1816 -0.5646
  673SOL    HW2 2019   2.831   1.741   1.041 -2.1645  0.9721  0.3122
  674SOL     OW 2020   1.005   1.912   1.825  0.2262  0.4052  0.1039
  674SOL    HW1 2021   0.998   1.826   1.876 -1.5282  2.5128 -0.6900
  674SOL    HW2 2022   0.913   1.937   1.784  0.1954  1.1679  2.1320
  675SOL     OW 2023   2.954   0.633   0.780 -0.2243  0.5083  0.5047
  675SOL    HW1 2024   3.053   0.604   0.762  3.5226 -0.5981  0.4826
  675SOL    HW2 2025   2.916   0.556   0.842 -2.4950  0.9596  0.9835
  676SOL     OW 2026   3.017   1.385   0.667 -0.0857  0.2002  0.0961
  676SOL    HW1 2027   3.010   1.288   0.652  1.9571 -0.5671  0.9409
  676SOL    HW2 2028   2.941   1.428   0.718 -0.3265 -0.0282 -2.0309
  677SOL     OW 2029   1.677   1.557   2.290 -0.1887  0.0573  0.3740
  677SOL    HW1 2030   1.738   1.494   2.242 -0.9337 -0.5071 -1.2716
  677SOL    HW2 2031   1.645   1.637   2.237  1.9974  0.8359  2.1482
  678SOL     OW 2032   2.525   1.415   0.727 -0.7989 -0.0318  0.8910
  678SOL    HW1 2033   2.495   1.427   0.630 -0.2538  0.5027 -1.3885
  678SOL    HW2 2034   2.445   1.404   0.785  1.2559  1.8295 -2.8142
  679SOL     OW 2035   0.642   2.097   0.885 -0.3205  0.5932  1.0584
  679SOL    HW1 2036   0.605   2.059   0.797  2.8112  0.9386  0.1385
  679SOL    HW2 2037   0.706   2.167   0.859 -2.8974 -0.6873 -1.1011
  680SOL     OW 2038   2.881   1.783   1.212  0.1194 -0.1364 -0.5695
  680SOL    HW1 2039   2.936   1.849   1.159 -1.6110 -0.2950 -0.1139
  680SOL    HW2 2040   2.834   1.838   1.279  0.7170  0.6157 -1.1231
  681SOL     OW 2041   0.960   0.443   1.240 -0.0801 -0.9296 -0.4096
  681SOL    HW1 2042   0.882   0.409   1.293 -1.6524  1.4575  0.5778
  681SOL    HW2 2043   1.048   0.414   1.279  0.3013 -0.5054 -1.0351
  682SOL     OW 2044   1.702   2.904   1.257 -0.0562 -0.3213  0.0445
  682SOL    HW1 2045   1.704   2.861   1.353 -1.2263  0.9552  1.9419
  682SOL    HW2 2046   1.623   2.972   1.255 -1.6349  1.5673 -2.2554
  683SOL     OW 2047   2.179   1.417   1.504 -0.0175 -0.9382 -0.0672
  683SOL    HW1 2048   2.192   1.520   1.522  0.5869  1.7270  0.5077
  683SOL    HW2 2049   2.267   1.369   1.512  0.0840 -1.3725 -1.5550
  684SOL     OW 2050   0.140   1.745   1.693 -0.6574 -0.2479  0.0469
  684SOL    HW1 2051   0.053   1.715   1.726  0.8198 -0.3905 -0.9359
  684SOL    HW2 2052   0.214   1.674   1.704  0.1025 -1.9991 -3.4637
  685SOL     OW 2053   1.964   1.718   0.116 -0.2291 -0.2017  0.2114
  685SOL    HW1 2054   1.966   1.812   0.161  0.2803  0.3958  2.4880
  685SOL    HW2 2055   1.863   1.688   0.109 -2.8071 -1.6425 -0.5673
  686SOL     OW 2056   2.652   0.295   0.973  0.1662 -0.8347 -0.3489
  686SOL    HW1 2057   2.584   0.365   1.009 -0.4220  3.2581  0.8425
  686SOL    HW2 2058   2.632   0.276   0.876 -0.4806 -0.1998  1.3330
  687SOL     OW 2059   1.653   0.234   2.550 -0.4393 -0.5027  0.4835
  687SOL    HW1 2060   1.579   0.171   2.525 -1.9205 -2.3156  0.6221
  687SOL    HW2 2061   1.675   0.216   2.648 -0.7155 -0.2095 -2.2978
  688SOL     OW 2062   1.224   2.106   2.216  0.3364  0.2446  0.4418
  688SOL    HW1 2063   1.303   2.168   2.221  3.0990 -0.0472  0.3386
  688SOL    HW2 2064   1.188   2.098   2.121 -0.8289  0.1794 -2.2101
  689SOL     OW 2065   2.509   1.523   1.761  0.1925  0.1684 -0.4240
  689SOL    HW1 2066   2.515   1.629   1.775  0.2184  2.5640  2.1085
  689SOL    HW2 2067   2.595   1.478   1.778 -3.5330  0.2630 -1.3433
  690SOL     OW 2068   1.752   1.842   1.172  0.4624 -0.1903  0.3459
  690SOL    HW1 2069   1.675   1.836   1.107  0.0965 -3.2179  1.1669
  690SOL    HW2 2070   1.792   1.751   1.186  2.6619 -1.0443 -2.1278
  691SOL     OW 2071   0.195   1.369   0.544 -0.0026 -0.1954 -0.3334
  691SOL    HW1 2072   0.169   1.347   0.446 -0.1647  0.7301  0.3951
  691SOL    HW2 2073   0.108   1.388   0.596  0.3202  0.1620 -0.0714
  692SOL     OW 2074   2.255   2.700   2.262  0.1835  0.5758  0.1945
  692SOL    HW1 2075   2.323   2.721   2.334 -0.6174 -1.2028 -0.2738
  692SOL    HW2 2076   2.213   2.612   2.285 -1.5986 -1.0837 -0.2238
  693SOL     OW 2077   2.941   1.601   2.248  0.1376  0.1248  0.2313
  693SOL    HW1 2078   2.975   1.525   2.300  0.3145 -1.5098 -1.1384
  693SOL    HW2 2079   2.929   1.688   2.301 -1.8759  1.9819  1.4571
  694SOL     OW 2080   2.133   0.263   1.740  0.2426  0.2540  0.2694
  694SOL    HW1 2081   2.117   0.163   1.726 -1.3474  1.6445  1.1074
  694SOL    HW2 2082   2.226   0.291   1.703 -1.6351 -2.3633  1.1806
  695SOL     OW 2083   0.978   0.883   2.697 -0.0012  1.0994 -0.3100
  695SOL    HW1 2084   0.909   0.850   2.629  1.0995  0.4884  1.1111
  695SOL    HW2 2085   1.039   0.949   2.652 -0.4814  2.1604  1.5339
  696SOL     OW 2086   1.727   0.117   1.785 -0.0838 -0.5554  0.0111
  696SOL    HW1 2087   1.770   0.211   1.773  2.0941  2.4999 -1.9586
  696SOL    HW2 2088   1.686   0.090   1.695  2.9331 -2.0105  0.6253
  697SOL     OW 2089   1.703   0.126   2.050  0.4490 -0.7148 -0.1368
  697SOL    HW1 2090   1.758   0.209   2.069 -0.5789 -1.0691 -2.0059
  697SOL    HW2 2091   1.725   0.101   1.949  2.7856  3.4280 -1.8801
  698SOL     OW 2092   1.747   1.729   2.035  0.6859  0.5043  0.0522
  698SOL    HW1 2093   1.841   1.731   2.073  3.4599  1.5353 -0.5426
  698SOL    HW2 2094   1.750   1.682   1.946 -1.2195 -0.2919  1.5330
  699SOL     OW 2095   2.079   0.786   0.288 -0.0568  0.2525 -0.1355
  699SOL    HW1 2096   1.980   0.759   0.282 -0.4010 -1.1093 -0.3190
  699SOL    HW2 2097   2.091   0.874   0.338 -0.2461  2.6982 -1.7302
  700SOL     OW 2098   1.297   0.232   0.473 -0.4174  0.4238 -0.3504
  700SOL    HW1 2099   1.220   0.300   0.471 -2.6825  1.6036 -0.3776
  700SOL    HW2 2100   1.290   0.175   0.390 -1.8030  0.4237 -0.9756
  701SOL     OW 2101   0.136   0.654   0.976 -0.4530 -0.1788 -0.7898
  701SOL    HW1 2102   0.144   0.555   0.998 -0.5393 -2.2382 -0.0213
  701SOL    HW2 2103   0.198   0.677   0.900  1.6678  1.4140  0.7720
  702SOL     OW 2104   1.869   0.155   1.493  0.1358 -0.2583 -0.4831
  702SOL    HW1 2105   1.772   0.184   1.489  1.7233  2.1255 -0.5050
  702SOL    HW2 2106   1.934   0.229   1.499 -2.2178  0.6219  0.4964
  703SOL     OW 2107   2.829   0.916   1.376 -0.4005  0.0630 -0.3563
  703SOL    HW1 2108   2.916   0.901   1.329  0.9671  1.9480  0.2840
  703SOL    HW2 2109   2.806   1.017   1.378 -0.6099  1.2468  0.2361
  704SOL     OW 2110   1.054   2.561   1.452  0.8700 -0.4559 -0.1586
  704SOL    HW1 2111   1.124   2.587   1.386  2.1909 -2.0904 -1.7230
  704SOL    HW2 2112   1.079   2.468   1.496  0.4726 -1.0095  4.8370
  705SOL     OW 2113   0.165   1.461   2.592  0.1962  0.2365 -0.0588
  705SOL    HW1 2114   0.185   1.531   2.520 -0.5124  0.3035  0.4609
  705SOL    HW2 2115   0.241   1.460   2.662  1.9763  1.4199  2.3672
  706SOL     OW 2116   2.819   0.076   0.133  0.0676 -0.1550  0.2342
  706SOL    HW1 2117   2.802   0.004   0.063 -0.9548  0.5468  0.9731
  706SOL    HW2 2118   2.848   0.025   0.220 -0.1929  0.1570  1.7795
  707SOL     OW 2119   1.486   2.568   2.500 -0.0841 -0.5052  0.0507
  707SOL    HW1 2120   1.445   2.576   2.409  1.5742 -2.0584  2.4659
  707SOL    HW2 2121   1.462   2.481   2.547 -2.5026  0.4430 -0.4040
  708SOL     OW 2122   0.284   2.671   1.749 -0.3051  0.1553 -0.3989
  708SOL    HW1 2123   0.274   2.570   1.776 -1.4270 -2.8708  0.7613
  708SOL    HW2 2124   0.242   2.689   1.657 -0.3577  0.7733 -0.2626
  709SOL     OW 2125   0.173   0.807   1.964  0.0540  0.4274 -0.4408
  709SOL    HW1 2126   0.114   0.863   1.901 -2.0759  2.3531  2.1160
  709SOL    HW2 2127   0.244   0.753   1.914  1.3726 -0.2979  0.3339
  710SOL     OW 2128   2.971   0.712   1.116  0.4272  0.2722  0.6092
  710SOL    HW1 2129   3.048   0.696   1.052 -0.9091  0.7791  0.3071
  710SOL    HW2 2130   2.995   0.740   1.209 -0.5658 -0.4434  0.3017
  711SOL     OW 2131   2.880   2.695   1.224 -0.7165  0.0810  0.2003
  711SOL    HW1 2132   2.960   2.645   1.190 -1.9122 -0.2335  0.1028
  711SOL    HW2 2133   2.796   2.633   1.215 -1.2692 -1.4931  0.3745
  712SOL     OW 2134   0.233   0.011   2.536 -0.1251  0.2520  0.2599
  712SOL    HW1 2135   0.185   0.020   2.627 -0.7736  0.1670 -0.2751
  712SOL    HW2 2136   0.315   3.016   2.544  0.3048  1.5368 -0.1292
  713SOL     OW 2137   2.309   0.138   0.493  0.6251  0.0739  0.1241
  713SOL    HW1 2138   2.256   0.219   0.463  1.1986  1.4068 -0.4044
  713SOL    HW2 2139   2.362   0.116   0.412 -1.2168 -0.2101  1.9949
  714SOL     OW 2140   1.679   1.649   0.100  0.1102 -0.7871  0.3266
  714SOL    HW1 2141   1.669   1.735   0.158  0.7779 -0.4951  0.6836
  714SOL    HW2 2142   1.667   1.566   0.159 -1.4014 -0.7989 -0.4609
  715SOL     OW 2143   3.029   0.259   0.652 -0.6664  0.3426 -0.1416
  715SOL    HW1 2144   3.037   0.159   0.659 -2.5396 -1.1656 -0.3540
  715SOL    HW2 2145   2.958   0.296   0.715  2.1930  0.8864  0.1114
  716SOL     OW 2146   1.057   0.604   1.865  0.0822  0.6665  0.5110
  716SOL    HW1 2147   1.141   0.640   1.823 -0.4319  0.9996  0.5077
  716SOL    HW2 2148   1.046   0.624   1.964  1.2096  0.1723  3.2972
  717SOL     OW 2149   0.496   0.624   2.775 -0.3123 -0.0656  0.5879
  717SOL    HW1 2150   0.439   0.709   2.763  0.2833 -0.5427 -0.4520
  717SOL    HW2 2151   0.547   0.631   2.858 -2.3384 -1.8659  0.2543
  718SOL     OW 2152   1.126   0.647   0.215  0.1179  0.1142  0.6567
  718SOL    HW1 2153   1.193   0.721   0.248  1.0874 -1.5501  0.2114
  718SOL    HW2 2154   1.183   0.580   0.165  0.0648  3.2120 -0.3542
  719SOL     OW 2155   2.517   2.312   2.695 -0.4356 -0.4304 -0.0883
  719SOL    HW1 2156   2.495   2.240   2.764 -1.1831 -0.2787 -0.0433
  719SOL    HW2 2157   2.449   2.306   2.620  0.4316  1.8871 -0.4016
  720SOL     OW 2158   1.406   0.613   1.434  0.0876  0.2618  0.3515
  720SOL    HW1 2159   1.349   0.606   1.516  2.2931  1.0264 -0.3072
  720SOL    HW2 2160   1.439   0.523   1.399 -0.0147 -0.4994 -0.0892
  721SOL     OW 2161   2.894   2.925   1.089  0.5464  0.5217 -0.0556
  721SOL    HW1 2162   2.833   3.001   1.121 -2.0761 -1.3747 -1.6576
  721SOL    HW2 2163   2.875   2.835   1.139  0.2735  0.1134  1.0088
  722SOL     OW 2164   1.164   1.556   2.624 -0.1127  0.0067  0.0029
  722SOL    HW1 2165   1.073   1.591   2.649  2.4481 -0.5908 -1.3100
  722SOL    HW2 2166   1.203   1.490   2.697  2.4506  1.1517 -1.6391
  723SOL     OW 2167   2.346   0.232   1.045 -0.0712  0.0874 -0.4429
  723SOL    HW1 2168   2.315   0.175   0.967  2.1443  0.0175  0.5602
  723SOL    HW2 2169   2.421   0.293   1.020 -0.8029  0.3721  0.7840
  724SOL     OW 2170   0.776   2.221   0.030  0.1181  0.0313  0.2294
  724SOL    HW1 2171   0.762   2.139   0.094 -1.3554  0.0243 -2.0847
  724SOL    HW2 2172   0.772   2.309   0.085  1.4247 -2.7946 -2.7601
  725SOL     OW 2173   0.218   1.014   1.250 -0.4058 -0.2300 -0.5743
  725SOL    HW1 2174   0.236   1.031   1.350  0.7456 -0.3107  1.6762
  725SOL    HW2 2175   0.303   0.998   1.203 -2.1459 -0.4654  0.5494
  726SOL     OW 2176   2.501   0.706   0.280 -0.1013 -0.2761 -0.3607
  726SOL    HW1 2177   2.454   0.736   0.367 -0.8305  0.4558  0.6198
  726SOL    HW2 2178   2.586   0.761   0.260 -1.0353  2.2111  0.4209
  727SOL     OW 2179   1.916   1.185   2.658  0.1942 -0.5936 -0.7400
  727SOL    HW1 2180   1.905   1.268   2.607 -0.6060 -2.8919  3.0506
  727SOL    HW2 2181   1.995   1.134   2.627 -0.2643  0.3234  0.0220
  728SOL     OW 2182   1.701   2.861   1.527 -0.5784  0.8266  0.0548
  728SOL    HW1 2183   1.800   2.848   1.545  3.1991 -0.1258 -3.0054
  728SOL    HW2 2184   1.656   2.771   1.542  0.7642  1.9618  0.3163
  729SOL     OW 2185   2.383   0.819   1.997  0.5637  0.0227  0.4360
  729SOL    HW1 2186   2.403   0.841   2.095  0.6054  1.9035  0.2450
  729SOL    HW2 2187   2.282   0.835   1.983  0.7303  0.8053  0.7227
  730SOL     OW 2188   1.189   0.908   1.541 -0.2599 -0.2171 -0.4130
  730SOL    HW1 2189   1.108   0.885   1.485  0.8485  1.6553  3.2226
  730SOL    HW2 2190   1.252   0.965   1.485 -2.3688 -3.0289  3.1955
  731SOL     OW 2191   0.495   0.522   0.073  0.4944  0.2244 -0.0260
  731SOL    HW1 2192   0.581   0.558   0.037 -1.4310  1.1894 -1.3900
  731SOL    HW2 2193   0.417   0.570   0.033  2.0327 -2.0665  2.2532
  732SOL     OW 2194   0.390   0.443   0.311  0.2521 -0.1592 -0.1586
  732SOL    HW1 2195   0.444   0.466   0.226  1.6825 -1.3570 -0.4635
  732SOL    HW2 2196   0.422   0.358   0.354 -1.6272  0.5403 -0.0027
  733SOL     OW 2197   1.890   1.464   2.564  0.3630  0.0628  0.0541
  733SOL    HW1 2198   1.788   1.481   2.548 -4.4854 -1.0208 -3.7935
  733SOL    HW2 2199   1.921   1.499   2.653  0.3478  0.5308  1.0830
  734SOL     OW 2200   0.226   2.049   2.716 -0.0425 -0.6348 -0.1528
  734SOL    HW1 2201   0.201   2.017   2.811 -0.0241  0.5770 -1.2677
  734SOL    HW2 2202   0.234   2.154   2.713 -2.0350  1.0459 -0.7833
  735SOL     OW 2203   1.847   0.417   0.930  0.5218  0.0376  0.1732
  735SOL    HW1 2204   1.826   0.461   0.843  0.9622  0.9246  0.6194
  735SOL    HW2 2205   1.915   0.473   0.982 -0.8108  1.1536  2.0204
  736SOL     OW 2206   1.768   1.742   2.946 -0.4572 -0.3537 -0.4349
  736SOL    HW1 2207   1.709   1.708   3.022 -1.3725 -1.0263 -1.3949
  736SOL    HW2 2208   1.761   1.844   2.939 -1.9421  0.5531  2.0416
  737SOL     OW 2209   2.989   0.386   0.412 -0.1736  1.0173 -0.2487
  737SOL    HW1 2210   2.950   0.477   0.438 -0.0205 -0.1186  0.9672
  737SOL    HW2 2211   3.011   0.327   0.489 -0.4999 -0.2519 -3.4901
  738SOL     OW 2212   0.567   2.174   1.811  0.1950 -0.2586  0.4970
  738SOL    HW1 2213   0.622   2.244   1.868 -0.4607  1.6824  1.3356
  738SOL    HW2 2214   0.536   2.213   1.720 -1.4240  0.2553 -1.8065
  739SOL     OW 2215   1.254   2.670   2.045 -0.0014  0.2908 -0.2988
  739SOL    HW1 2216   1.227   2.651   1.947  0.9667 -0.0457 -1.1136
  739SOL    HW2 2217   1.178   2.654   2.108  1.9612  1.1474 -3.4553
  740SOL     OW 2218   2.092   2.319   1.405  0.2956  0.7058  0.4965
  740SOL    HW1 2219   2.032   2.240   1.424 -0.5468 -1.1522  0.2445
  740SOL    HW2 2220   2.037   2.403   1.379  2.2252  2.8554  2.5427
  741SOL     OW 2221   2.260   0.598   0.217 -0.1213 -0.3892 -0.4426
  741SOL    HW1 2222   2.354   0.636   0.223 -0.2565 -0.5438 -1.0888
  741SOL    HW2 2223   2.191   0.674   0.227 -1.3792  1.1530  0.5091
  742SOL     OW 2224   1.057   2.309   0.162 -0.1942  0.0107  0.0160
  742SOL    HW1 2225   1.099   2.227   0.206 -0.3908  0.5919 -2.1188
  742SOL    HW2 2226   1.052   2.299   0.059 -0.4556  0.4290 -0.1920
  743SOL     OW 2227   2.460   1.121   1.756  0.5443  0.5909 -0.0547
  743SOL    HW1 2228   2.467   1.148   1.856  1.6812 -0.4296  2.5248
  743SOL    HW2 2229   2.364   1.080   1.743 -1.2014 -1.1730 -2.1398
  744SOL     OW 2230   2.583   0.497   0.560  0.0079  0.2514  0.4459
  744SOL    HW1 2231   2.585   0.469   0.459  0.1156  2.3524 -3.1541
  744SOL    HW2 2232   2.676   0.526   0.583 -1.2471  1.4028 -0.7059
  745SOL     OW 2233   2.438   1.296   1.559 -0.0881 -0.3482  0.5929
  745SOL    HW1 2234   2.424   1.226   1.634 -2.0990 -0.4711  1.4680
  745SOL    HW2 2235   2.481   1.385   1.592 -0.4610  0.6413  0.1906
  746SOL     OW 2236   1.270   1.250   0.825  0.5013 -0.1632 -0.4403
  746SOL    HW1 2237   1.334   1.330   0.849  1.3153 -0.6652  2.1874
  746SOL    HW2 2238   1.186   1.287   0.774 -1.0088 -1.3080 -1.6397
  747SOL     OW 2239   1.100   1.693   1.616  0.2018  0.1898 -0.4962
  747SOL    HW1 2240   1.145   1.786   1.625  0.4761 -0.4710 -2.5950
  747SOL    HW2 2241   1.120   1.639   1.701  0.2573 -0.4997  2.4779
  748SOL     OW 2242   0.297   2.920   3.021  0.0869 -0.0827  0.4599
  748SOL    HW1 2243   0.395   2.902   2.993 -2.1925  0.5944  0.5686
  748SOL    HW2 2244   0.275   2.876   0.051 -1.7942 -2.6669  0.5030
  749SOL     OW 2245   0.203   1.183   2.544  0.7110  0.3465  0.2979
  749SOL    HW1 2246   0.280   1.172   2.474  0.8923 -1.1402  1.2280
  749SOL    HW2 2247   0.184   1.283   2.553  1.2029  0.5224  1.8260
  750SOL     OW 2248   1.866   0.988   1.833 -0.2546  0.1968  0.3651
  750SOL    HW1 2249   1.779   0.934   1.840 -1.1081  0.8370  1.7997
  750SOL    HW2 2250   1.858   1.088   1.807 -1.2588  1.5240  0.8938
  751SOL     OW 2251   2.550   0.422   0.306 -0.3950 -0.1703  0.8235
  751SOL    HW1 2252   2.526   0.378   0.216 -1.3595  1.5394 -1.7280
  751SOL    HW2 2253   2.554   0.524   0.291  1.9524 -1.9699  0.2088
  752SOL     OW 2254   0.358   2.450   0.940  0.2797  0.1373 -0.0849
  752SOL    HW1 2255   0.357   2.486   1.038 -2.5957  2.5753  3.5449
  752SOL    HW2 2256   0.282   2.384   0.929  1.8517  1.8932 -1.8927
  753SOL     OW 2257   0.794   2.401   1.069 -0.0606  0.2612 -0.3114
  753SOL    HW1 2258   0.843   2.478   1.018  2.8750  4.0732 -2.1152
  753SOL    HW2 2259   0.844   2.369   1.150  3.6189  1.3207  0.5680
  754SOL     OW 2260   0.205   2.887   1.887 -0.1866 -0.0285 -0.1082
  754SOL    HW1 2261   0.122   2.887   1.943  0.2494  0.3431  1.2553
  754SOL    HW2 2262   0.230   2.792   1.851  1.2841  1.8406  0.4236
  755SOL     OW 2263   2.193   0.386   0.392  0.0670 -0.1294 -0.5226
  755SOL    HW1 2264   2.200   0.442   0.312  0.4737  0.0107  1.0123
  755SOL    HW2 2265   2.242   0.434   0.468 -2.3647 -0.7135  0.8625
  756SOL     OW 2266   2.172   2.315   2.650 -0.0490  0.5317  0.3868
  756SOL    HW1 2267   2.150   2.393   2.717 -2.2406  3.8867  1.3118
  756SOL    HW2 2268   2.182   2.353   2.557  1.2651  2.0265  0.3492
  757SOL     OW 2269   2.116   0.349   0.694  0.3094  0.0393 -0.5880
  757SOL    HW1 2270   2.201   0.395   0.655  2.0011  0.5809  0.1386
  757SOL    HW2 2271   2.035   0.414   0.688  0.8566 -2.1560 -0.2476
  758SOL     OW 2272   2.116   0.576   1.594  0.0933  0.1455 -0.1341
  758SOL    HW1 2273   2.208   0.531   1.612  1.7643 -1.5956 -0.7413
  758SOL    HW2 2274   2.082   0.631   1.671  1.0464 -0.2285 -1.0425
  759SOL     OW 2275   2.496   0.476   1.095 -0.2828 -0.4504  0.0876
  759SOL    HW1 2276   2.582   0.525   1.117  0.6481 -0.6722  3.4211
  759SOL    HW2 2277   2.426   0.546   1.063 -3.0374  3.9510 -0.2990
  760SOL     OW 2278   2.290   1.180   1.119  0.6650 -0.1728  0.3248
  760SOL    HW1 2279   2.242   1.260   1.157  0.7045 -0.0375 -0.8963
  760SOL    HW2 2280   2.369   1.161   1.179  1.0604  0.8579  1.4722
  761SOL     OW 2281   0.699   0.603   0.371 -0.0439 -0.1966 -0.3067
  761SOL    HW1 2282   0.739   0.606   0.277 -1.4440 -0.6293  0.6874
  761SOL    HW2 2283   0.599   0.616   0.364  1.6455  0.7455 -1.7996
  762SOL     OW 2284   0.956   1.627   0.658 -0.5706 -0.1514  0.1837
  762SOL    HW1 2285   0.940   1.619   0.557  0.6052 -1.6154 -2.0025
  762SOL    HW2 2286   0.913   1.718   0.686  2.0383  1.1001 -0.7826
  763SOL     OW 2287   1.330   1.127   1.412  0.0256  0.1175 -0.5135
  763SOL    HW1 2288   1.360   1.105   1.317 -0.2312 -0.7565 -0.8316
  763SOL    HW2 2289   1.282   1.216   1.416 -1.8892 -0.6082 -2.3397
  764SOL     OW 2290   0.465   1.899   2.694  0.1032  0.2076  0.0354
  764SOL    HW1 2291   0.488   1.821   2.633  1.2798  2.1570  2.2613
  764SOL    HW2 2292   0.374   1.947   2.677 -5.1441  3.4911 -1.9431
  765SOL     OW 2293   0.541   2.716   1.830 -0.3652 -0.0105 -0.7470
  765SOL    HW1 2294   0.450   2.683   1.797 -0.1286 -0.8352  1.0263
  765SOL    HW2 2295   0.570   2.808   1.789 -3.8087  2.3105 -1.0742
  766SOL     OW 2296   2.361   2.021   2.132 -0.0295  0.3762 -0.1442
  766SOL    HW1 2297   2.462   2.039   2.117  0.5405 -0.6946 -1.0897
  766SOL    HW2 2298   2.310   2.094   2.084  0.9917  1.6929  1.4062
  767SOL     OW 2299   1.594   1.059   2.348 -0.0360 -0.1469 -0.3259
  767SOL    HW1 2300   1.622   0.978   2.406 -0.2452  1.3865 -0.8071
  767SOL    HW2 2301   1.513   1.103   2.388 -0.5037  2.6731  0.3367
  768SOL     OW 2302   1.666   1.853   0.279  0.3809  0.0381 -0.1774
  768SOL    HW1 2303   1.717   1.856   0.366 -0.6294 -0.3832 -1.2748
  768SOL    HW2 2304   1.688   1.938   0.225 -0.1307  0.2187  0.7193
  769SOL     OW 2305   0.385   1.288   1.528  0.0651  0.1210 -0.4511
  769SOL    HW1 2306   0.473   1.299   1.477 -0.7424 -2.1668  0.9518
  769SOL    HW2 2307   0.339   1.201   1.499 -0.5248  0.9347 -0.4698
  770SOL     OW 2308   1.443   0.861   2.859 -0.4629  0.9088  0.4688
  770SOL    HW1 2309   1.398   0.948   2.828  0.8459  0.1287 -3.0575
  770SOL    HW2 2310   1.540   0.866   2.828 -1.1072 -1.1560  0.7706
  771SOL     OW 2311   0.167   3.031   2.271  0.3757 -0.1694  0.4728
  771SOL    HW1 2312   0.185   3.039   2.376 -0.0262  1.5148  3.3715
  771SOL    HW2 2313   0.250   3.011   2.215  1.5301  1.2955  0.8953
  772SOL     OW 2314   2.013   1.810   1.649  0.4146  0.4165 -0.3903
  772SOL    HW1 2315   1.970   1.884   1.705  1.6088  0.8025 -0.2208
  772SOL    HW2 2316   1.978   1.821   1.552 -3.2351  1.9409 -0.5907
  773SOL     OW 2317   0.512   1.367   1.756 -0.6385  0.5550  0.0603
  773SOL    HW1 2318   0.610   1.345   1.745  2.3903 -0.2081 -0.1733
  773SOL    HW2 2319   0.464   1.340   1.675  0.8346 -2.5147  0.0083
  774SOL     OW 2320   1.225   0.668   2.839  0.3080  0.3304  0.0873
  774SOL    HW1 2321   1.305   0.727   2.844 -1.9676 -1.2490 -0.2921
  774SOL    HW2 2322   1.162   0.683   2.917 -0.8854 -2.6175  0.0633
  775SOL     OW 2323   1.994   2.850   3.047  0.2969 -0.1489  0.0653
  775SOL    HW1 2324   1.962   2.944   0.009  0.5216  3.3705  1.3841
  775SOL    HW2 2325   2.009   2.795   0.072  0.5017 -1.7865  1.0833
  776SOL     OW 2326   0.334   0.634   1.797 -1.5358  0.3972 -0.5768
  776SOL    HW1 2327   0.306   0.552   1.751  3.8286  0.2982  2.5467
  776SOL    HW2 2328   0.417   0.609   1.852  0.1986  0.5238  0.0540
  777SOL     OW 2329   2.289   1.830   1.895  0.1434  0.5262  0.0509
  777SOL    HW1 2330   2.269   1.806   1.992  0.4625 -0.8484  2.1334
  777SOL    HW2 2331   2.255   1.927   1.879 -1.2122 -0.7444  0.7751
  778SOL     OW 2332   2.133   0.760   2.094 -0.5113 -0.2884 -0.7312
  778SOL    HW1 2333   2.145   0.707   2.180 -1.3109 -1.0878  1.7439
  778SOL    HW2 2334   2.092   0.848   2.113  0.2927  1.7717  0.6773
  779SOL     OW 2335   2.543   1.091   0.121  0.2156  0.0342 -0.0450
  779SOL    HW1 2336   2.590   1.179   0.120 -0.1920 -0.8933  1.1448
  779SOL    HW2 2337   2.477   1.079   0.046 -1.0182 -0.8996 -0.8739
  780SOL     OW 2338   2.609   0.383   2.491  0.7034  0.0349 -0.5147
  780SOL    HW1 2339   2.527   0.384   2.555  0.5906 -4.7825  0.4581
  780SOL    HW2 2340   2.649   0.291   2.503 -1.1034 -1.7159  2.7307
  781SOL     OW 2341   0.157   2.014   1.702  0.4845 -0.1140  0.2334
  781SOL    HW1 2342   0.226   2.056   1.635  0.3264  1.2072  1.0384
  781SOL    HW2 2343   0.144   1.915   1.690 -2.5564  1.9350 -2.0734
  782SOL     OW 2344   2.424   2.123   2.879 -0.2327 -0.2245 -0.3417
  782SOL    HW1 2345   2.347   2.128   2.945  0.0990 -0.8845  1.4741
  782SOL    HW2 2346   2.489   2.051   2.909  2.0775  1.9364  0.4828
  783SOL     OW 2347   0.613   1.350   1.407  0.6232  0.0876 -0.1788
  783SOL    HW1 2348   0.665   1.401   1.482  0.3716 -0.3017  1.7146
  783SOL    HW2 2349   0.659   1.349   1.315 -0.6460 -2.3637 -1.6185
  784SOL     OW 2350   2.080   0.860   2.771  0.1755 -0.1582 -0.5912
  784SOL    HW1 2351   2.163   0.805   2.805  1.1677 -2.2776  1.3933
  784SOL    HW2 2352   2.006   0.866   2.845  0.0577  0.7751 -0.6067
  785SOL     OW 2353   2.319   2.609   0.681 -0.4654 -0.8996  0.0665
  785SOL    HW1 2354   2.390   2.600   0.756 -0.6056 -2.6373  0.5479
  785SOL    HW2 2355   2.237   2.664   0.710 -0.4515 -1.3544 -0.4734
  786SOL     OW 2356   0.632   2.207   2.373  0.2164 -0.0059  0.6288
  786SOL    HW1 2357   0.542   2.175   2.332  2.5534 -4.1618  0.0077
  786SOL    HW2 2358   0.638   2.308   2.375  0.5900  0.7591 -0.9766
  787SOL     OW 2359   1.308   0.675   1.152 -0.0694  0.2818  0.2078
  787SOL    HW1 2360   1.324   0.668   1.256  1.0295 -0.9414  3.4729
  787SOL    HW2 2361   1.352   0.602   1.095  2.0759  0.3917 -0.5671
  788SOL     OW 2362   0.210   0.591   0.456  0.1689  0.3000 -0.2826
  788SOL    HW1 2363   0.284   0.546   0.403 -0.2463  0.1795  2.4848
  788SOL    HW2 2364   0.145   0.638   0.397 -0.3996  0.0612  0.7096
  789SOL     OW 2365   3.057   1.870   1.470  0.1982 -0.4407  0.0732
  789SOL    HW1 2366   0.037   1.916   1.546  0.3888 -3.0002 -2.7550
  789SOL    HW2 2367   0.026   1.915   1.384  2.1637  2.2491  0.7939
  790SOL     OW 2368   1.364   0.834   1.901  0.4430 -0.4648 -0.5578
  790SOL    HW1 2369   1.351   0.776   1.981 -1.4522  3.7141 -0.0268
  790SOL    HW2 2370   1.336   0.931   1.913 -0.5033 -1.7910 -0.3230
  791SOL     OW 2371   1.556   0.556   0.693  0.1436 -0.4440 -0.4147
  791SOL    HW1 2372   1.529   0.494   0.621  1.5794 -0.2002  0.8370
  791SOL    HW2 2373   1.501   0.533   0.777  0.1519 -0.2458 -1.6978
  792SOL     OW 2374   1.556   2.821   1.876  0.0804  0.1818 -0.5533
  792SOL    HW1 2375   1.501   2.901   1.912  0.4481 -1.2377 -0.4676
  792SOL    HW2 2376   1.496   2.766   1.817  3.6193  0.2464  1.5863
  793SOL     OW 2377   0.621   0.024   0.724  0.4956 -0.6111 -0.1699
  793SOL    HW1 2378   0.688   0.040   0.799  0.8368 -0.2262 -2.8560
  793SOL    HW2 2379   0.546   0.096   0.727  0.8730 -2.5895 -0.3152
  794SOL     OW 2380   0.749   1.256   2.339  0.6989 -0.5995  0.8055
  794SOL    HW1 2381   0.827   1.188   2.337  0.1726 -1.1995  1.0772
  794SOL    HW2 2382   0.747   1.321   2.262 -0.0453 -0.7693 -2.2001
  795SOL     OW 2383   0.239   1.902   2.276 -0.0393  0.4366  0.4167
  795SOL    HW1 2384   0.182   1.925   2.194  0.7953 -0.1286  0.9570
  795SOL    HW2 2385   0.190   1.939   2.357  1.3227 -0.3904  0.8091
  796SOL     OW 2386   2.493   1.201   2.012 -0.4525  0.3892  0.3028
  796SOL    HW1 2387   2.583   1.177   2.057  0.4269  2.1157 -0.9796
  796SOL    HW2 2388   2.481   1.301   2.014  2.3855  1.6283  0.7770
  797SOL     OW 2389   2.973   2.702   2.773  0.4644 -0.2424 -0.1967
  797SOL    HW1 2390   3.054   2.716   2.837  1.9790 -1.8982  0.8732
  797SOL    HW2 2391   2.987   2.618   2.720 -0.9932 -0.9217 -1.4636
  798SOL     OW 2392   2.965   2.129   2.206  0.0497 -0.1534  0.2603
  798SOL    HW1 2393   2.896   2.177   2.146 -0.1640 -0.9377 -0.3688
  798SOL    HW2 2394   3.039   2.101   2.142  2.9054 -1.2000  0.4731
  799SOL     OW 2395   3.035   2.315   2.926 -0.2358 -0.3269  0.6095
  799SOL    HW1 2396   0.004   2.245   2.994  0.2714 -2.1103  1.4486
  799SOL    HW2 2397   2.991   2.267   2.846 -0.1699 -1.6221 -1.6969
  800SOL     OW 2398   1.422   1.742   0.471 -0.5192  0.1401  0.8338
  800SOL    HW1 2399   1.375   1.823   0.503  0.8605 -1.0977  0.0984
  800SOL    HW2 2400   1.521   1.731   0.503 -0.6745  0.0376 -1.8254
  801SOL     OW 2401   1.940   1.265   1.152  0.0614  0.3021  0.0143
  801SOL    HW1 2402   2.016   1.301   1.205 -1.0036  0.3265  0.1870
  801SOL    HW2 2403   1.869   1.243   1.218  0.5313  0.4739 -2.5111
  802SOL     OW 2404   2.937   1.367   0.189  0.0008 -0.7421 -0.0816
  802SOL    HW1 2405   2.940   1.453   0.248  2.1936 -1.7801  1.2853
  802SOL    HW2 2406   2.895   1.286   0.238  1.7637  1.2198  0.7088
  803SOL     OW 2407   1.465   1.756   2.598 -0.7800  0.2172  0.2010
  803SOL    HW1 2408   1.541   1.788   2.539 -1.5792 -2.5980  0.9741
  803SOL    HW2 2409   1.370   1.786   2.574  1.6958  0.5010  0.9102
  804SOL     OW 2410   1.698   1.433   0.262  0.0489  0.0500  0.1321
  804SOL    HW1 2411   1.661   1.420   0.356 -1.3350 -0.5122  3.3463
  804SOL    HW2 2412   1.794   1.393   0.253  0.0065 -0.0874 -1.1346
  805SOL     OW 2413   2.437   1.686   2.359  0.2733 -0.1595 -0.5329
  805SOL    HW1 2414   2.491   1.670   2.278 -1.3308  2.0831  1.8632
  805SOL    HW2 2415   2.471   1.763   2.415 -0.5870  0.4192  0.8746
  806SOL     OW 2416   0.440   2.958   0.275  0.6703 -0.0130 -0.5025
  806SOL    HW1 2417   0.489   3.044   0.263 -0.7919  3.3643 -0.2736
  806SOL    HW2 2418   0.496   2.883   0.312 -1.1782  1.1533 -1.7439
  807SOL     OW 2419   1.971   1.343   2.883 -0.4851 -0.4668  0.3718
  807SOL    HW1 2420   1.968   1.441   2.857  0.4140  1.6086  1.1661
  807SOL    HW2 2421   1.947   1.292   2.796  1.0838 -1.4795 -1.2134
  808SOL     OW 2422   2.951   1.737   0.373 -0.9938  0.2253 -0.0820
  808SOL    HW1 2423   2.925   1.635   0.384  0.1933 -0.4618 -1.8969
  808SOL    HW2 2424   2.870   1.797   0.376 -0.4530 -2.6315  0.6882
  809SOL     OW 2425   2.359   1.071   2.975  0.0323 -0.2230  0.1411
  809SOL    HW1 2426   2.286   1.004   3.002 -1.1643 -1.7427  0.3747
  809SOL    HW2 2427   2.310   1.153   2.941 -1.6482 -1.4721 -0.2131
  810SOL     OW 2428   0.500   1.065   0.185 -0.5092  0.0027 -0.2902
  810SOL    HW1 2429   0.530   1.141   0.123 -0.6719  0.0944  0.1324
  810SOL    HW2 2430   0.399   1.059   0.180  0.6216 -1.0654  0.3072
  811SOL     OW 2431   1.320   2.409   1.570  0.6357  0.1603  0.4712
  811SOL    HW1 2432   1.336   2.466   1.484  0.5745 -1.1328  0.2919
  811SOL    HW2 2433   1.394   2.349   1.591 -2.0286 -0.8309  1.3533
  812SOL     OW 2434   0.854   2.586   1.646 -0.7013 -0.1440  0.9615
  812SOL    HW1 2435   0.948   2.587   1.612 -0.2542 -2.8180  0.7134
  812SOL    HW2 2436   0.804   2.531   1.576 -2.2381  1.2344 -0.0942
  813SOL     OW 2437   1.456   0.264   2.089  0.1181  0.1961  0.8004
  813SOL    HW1 2438   1.530   0.197   2.097  0.7067  0.6905 -0.0364
  813SOL    HW2 2439   1.388   0.260   2.166 -1.8820  0.5611  1.1710
  814SOL     OW 2440   1.178   2.437   2.722 -0.2290  0.4254 -0.2281
  814SOL    HW1 2441   1.117   2.470   2.641 -1.9843  0.9422 -1.7023
  814SOL    HW2 2442   1.265   2.385   2.695  1.7594 -2.3788  0.8789
  815SOL     OW 2443   0.476   0.148   2.060 -0.0498 -0.0612  0.3640
  815SOL    HW1 2444   0.468   0.205   2.144 -0.6408 -1.2405 -0.0352
  815SOL    HW2 2445   0.427   0.059   2.076  1.8304 -1.0836  0.6570
  816SOL     OW 2446   2.098   0.498   2.816  0.8159 -0.4873 -0.1539
  816SOL    HW1 2447   2.158   0.575   2.840 -2.7537 -1.3389  0.8923
  816SOL    HW2 2448   2.001   0.517   2.839 -3.4862  0.1841 -1.1882
  817SOL     OW 2449   2.329   0.456   2.213 -0.2436  0.2661 -0.1719
  817SOL    HW1 2450   2.285   0.444   2.121  1.3879 -0.4547 -1.1901
  817SOL    HW2 2451   2.305   0.378   2.280 -0.0209 -0.9735 -0.8644
  818SOL     OW 2452   1.951   0.343   0.012 -0.3161 -0.7456  0.3290
  818SOL    HW1 2453   2.052   0.345   0.010 -2.0670  1.5125  0.7022
  818SOL    HW2 2454   1.916   0.412   3.004 -3.7786  1.2163  1.2573
  819SOL     OW 2455   2.184   1.781   2.772  0.3224 -0.0224 -0.3180
  819SOL    HW1 2456   2.225   1.859   2.720 -0.6263  0.3829 -0.7995
  819SOL    HW2 2457   2.189   1.785   2.876  0.4363  0.2421  2.5361
  820SOL     OW 2458   0.054   2.143   0.052 -0.0401 -0.2890  0.0329
  820SOL    HW1 2459   3.020   2.104   0.057 -1.8246  1.2107  0.3936
  820SOL    HW2 2460   0.111   2.113   0.135  0.1148  0.5231  0.2604
  821SOL     OW 2461   0.357   2.710   0.813  0.2336 -0.1004 -0.1694
  821SOL    HW1 2462   0.401   2.625   0.846 -0.3236  0.0017  0.8165
  821SOL    HW2 2463   0.321   2.696   0.719 -0.8973  1.2692  1.5418
  822SOL     OW 2464   2.703   2.689   2.858  0.4010  0.1936  0.3220
  822SOL    HW1 2465   2.635   2.670   2.780  0.7698  0.8360 -0.1595
  822SOL    HW2 2466   2.795   2.710   2.821  0.4111 -1.3847 -1.0467
  823SOL     OW 2467   1.426   0.411   2.527 -0.2159  0.2434  0.1065
  823SOL    HW1 2468   1.522   0.378   2.546  1.4241 -3.1380 -0.9649
  823SOL    HW2 2469   1.388   0.453   2.615 -1.7479  0.1702  1.0335
  824SOL     OW 2470   2.602   1.978   1.557  0.3748  0.1185 -0.0106
  824SOL    HW1 2471   2.686   1.920   1.551 -1.7602  2.2851  1.6355
  824SOL    HW2 2472   2.628   2.075   1.546 -0.7109 -0.9608  0.0234
  825SOL     OW 2473   2.669   2.054   2.368 -0.9840  0.2439  0.4508
  825SOL    HW1 2474   2.671   2.151   2.398 -0.5609 -1.4828 -0.0659
  825SOL    HW2 2475   2.637   2.054   2.271  1.6000 -0.0851 -0.7253
  826SOL     OW 2476   2.563   1.607   2.120  0.1339  0.0555 -0.7165
  826SOL    HW1 2477   2.646   1.543   2.116  1.2853 -2.7939  0.0202
  826SOL    HW2 2478   2.480   1.564   2.081 -0.4015 -0.9578 -1.8570
  827SOL     OW 2479   2.281   2.310   1.229  0.3506 -1.0022  0.1794
  827SOL    HW1 2480   2.194   2.307   1.288 -2.1486  2.8634  0.5255
  827SOL    HW2 2481   2.304   2.220   1.195 -0.0005  2.4338  0.8051
  828SOL     OW 2482   0.007   0.010   1.359 -0.3484  0.2090 -0.0185
  828SOL    HW1 2483   0.046   0.063   1.281 -3.5089  2.8102 -2.4499
  828SOL    HW2 2484   0.002   0.080   1.433  2.2032 -1.5600 -1.9156
  829SOL     OW 2485   1.572   2.186   2.441 -0.3805  0.5425  0.3563
  829SOL    HW1 2486   1.580   2.076   2.426  2.2557 -7.3178 -0.7610
  829SOL    HW2 2487   1.668   2.225   2.454 -0.4559 -1.7671  1.5522
  830SOL     OW 2488   1.179   0.592   0.781  0.2643  0.0701 -0.1149
  830SOL    HW1 2489   1.230   0.543   0.852  0.9101  1.3991  0.9286
  830SOL    HW2 2490   1.217   0.685   0.758  0.4463  1.1013  1.2098
  831SOL     OW 2491   2.653   1.241   2.704  0.5135 -0.1295 -0.1761
  831SOL    HW1 2492   2.664   1.273   2.799 -0.9400 -1.2682  0.5816
  831SOL    HW2 2493   2.700   1.300   2.640 -0.1723 -1.1216  2.3376
  832SOL     OW 2494   1.488   1.907   1.821  0.3175  0.1727 -0.1381
  832SOL    HW1 2495   1.490   2.007   1.855  2.3611  3.8601  2.6699
  832SOL    HW2 2496   1.573   1.887   1.763  0.1710 -0.1056 -3.3979
  833SOL     OW 2497   0.081   0.143   1.779 -0.2101  0.7982 -0.2769
  833SOL    HW1 2498   0.059   0.050   1.743  1.5061  0.0934  1.7152
  833SOL    HW2 2499   0.059   0.148   1.881  0.5134 -0.0382  0.2913
  834SOL     OW 2500   0.915   1.242   1.646 -0.0125 -0.3811 -0.1641
  834SOL    HW1 2501   0.929   1.238   1.548 -0.4154 -0.6394  1.6560
  834SOL    HW2 2502   0.937   1.157   1.688 -0.8033  2.3721 -1.3268
  835SOL     OW 2503   2.748   0.847   2.780 -0.1937  0.0542  0.0242
  835SOL    HW1 2504   2.672   0.904   2.761  0.6291 -1.0079 -1.7483
  835SOL    HW2 2505   2.760   0.781   2.702 -2.1345  0.3510  2.5580
  836SOL     OW 2506   1.229   1.564   0.382 -0.2590 -0.1019 -0.4387
  836SOL    HW1 2507   1.162   1.628   0.336 -3.2309 -0.5475 -0.4191
  836SOL    HW2 2508   1.310   1.611   0.418 -2.2368 -2.1662  3.4123
  837SOL     OW 2509   1.434   1.388   1.157 -0.1746 -0.0555 -0.0775
  837SOL    HW1 2510   1.495   1.408   1.235 -1.0048 -1.1999  0.4059
  837SOL    HW2 2511   1.398   1.477   1.121  1.0130  2.4531  4.0600
  838SOL     OW 2512   1.001   1.714   2.270 -0.8092 -0.3228  0.3462
  838SOL    HW1 2513   1.100   1.690   2.285  0.4112 -0.6081 -2.1361
  838SOL    HW2 2514   0.978   1.798   2.324 -1.5666  0.7408  3.0075
  839SOL     OW 2515   0.678   2.045   2.611 -0.4651 -0.0544 -0.1135
  839SOL    HW1 2516   0.588   2.008   2.639 -0.9493  1.6989  3.5099
  839SOL    HW2 2517   0.666   2.084   2.516 -3.3266  1.8404 -1.7843
  840SOL     OW 2518   0.611   2.430   0.380 -0.5748 -0.3514  0.8745
  840SOL    HW1 2519   0.655   2.440   0.471 -0.1710 -1.3256 -1.0412
  840SOL    HW2 2520   0.680   2.395   0.310  1.8647 -0.1660 -0.3925
  841SOL     OW 2521   1.885   2.559   0.120  0.2383  0.6639 -0.1982
  841SOL    HW1 2522   1.839   2.510   0.196 -1.0203  2.2509  1.9823
  841SOL    HW2 2523   1.966   2.617   0.154 -0.4166 -1.1081 -2.1439
  842SOL     OW 2524   0.562   0.795   3.005  0.6096  0.1332  0.1821
  842SOL    HW1 2525   0.575   0.837   2.915  0.9743  1.3830 -1.6898
  842SOL    HW2 2526   0.631   0.818   0.018  3.1198  1.6734 -0.5226
  843SOL     OW 2527   1.319   0.103   0.713 -0.3273 -0.2713 -0.2345
  843SOL    HW1 2528   1.411   0.066   0.736  1.6881  0.1004  0.2188
  843SOL    HW2 2529   1.317   0.151   0.622  0.2225  0.6621 -0.4408
  844SOL     OW 2530   2.451   2.720   2.443  0.5113  0.2146 -0.1042
  844SOL    HW1 2531   2.483   2.815   2.436  0.0858  0.1254  1.0848
  844SOL    HW2 2532   2.490   2.676   2.525 -1.2546  0.8919  1.8575
  845SOL     OW 2533   2.751   2.209   1.023  0.3283  0.5352 -0.3951
  845SOL    HW1 2534   2.838   2.222   0.980 -1.3793 -0.2711  1.4961
  845SOL    HW2 2535   2.677   2.233   0.961 -2.0000  0.4501 -1.3034
  846SOL     OW 2536   0.113   1.931   2.515 -0.0177  0.4773 -0.1019
  846SOL    HW1 2537   0.050   1.854   2.544 -1.7596 -0.0161 -2.7895
  846SOL    HW2 2538   0.151   1.976   2.598 -0.1259  0.4317 -0.2384
  847SOL     OW 2539   1.286   0.695   1.694 -0.1711  0.0495 -0.3777
  847SOL    HW1 2540   1.256   0.775   1.645  2.0281 -0.8515  0.1257
  847SOL    HW2 2541   1.322   0.729   1.783 -0.6806 -0.9436 -1.5094
  848SOL     OW 2542   2.710   2.923   3.017  0.0774 -0.0453  0.5045
  848SOL    HW1 2543   2.616   2.918   0.003  1.4535  0.3971  2.2830
  848SOL    HW2 2544   2.730   2.835   2.970 -3.4281  1.5811  0.6739
  849SOL     OW 2545   0.616   2.852   2.705  0.0794  0.8620  0.5345
  849SOL    HW1 2546   0.598   2.823   2.802  0.0713 -0.1045 -1.3942
  849SOL    HW2 2547   0.707   2.897   2.693 -2.7785 -1.4978 -0.2314
  850SOL     OW 2548   1.180   2.473   1.053 -0.3840  0.1563  0.3710
  850SOL    HW1 2549   1.117   2.417   1.110  0.9433 -0.8417 -1.6350
  850SOL    HW2 2550   1.169   2.575   1.074 -0.0647  1.9492 -1.7896
  851SOL     OW 2551   2.781   0.344   2.198 -0.6560 -0.1314  0.0455
  851SOL    HW1 2552   2.814   0.387   2.286 -0.6846  2.2866 -1.8437
  851SOL    HW2 2553   2.847   0.271   2.175 -0.2413  0.1340 -1.4444
  852SOL     OW 2554   2.090   1.072   2.197  0.6006 -0.1119  0.4295
  852SOL    HW1 2555   1.995   1.097   2.223 -0.3301  0.5813  0.5109
  852SOL    HW2 2556   2.160   1.089   2.270  0.1140 -0.2015 -0.5547
  853SOL     OW 2557   2.767   3.059   0.574 -0.2081 -0.2287 -0.4273
  853SOL    HW1 2558   2.734   0.091   0.542 -1.6992 -1.3583 -0.1755
  853SOL    HW2 2559   2.743   3.038   0.670 -2.5472 -2.6311  2.2346
  854SOL     OW 2560   2.168   0.999   1.764 -0.6066  0.0769 -0.4761
  854SOL    HW1 2561   2.191   1.057   1.843 -0.0360  0.7073  2.4474
  854SOL    HW2 2562   2.078   0.957   1.774 -0.2132 -1.7922 -2.1093
  855SOL     OW 2563   1.404   2.435   0.421  0.5312  0.1301  0.1559
  855SOL    HW1 2564   1.317   2.476   0.450 -0.3307 -1.5098  0.9065
  855SOL    HW2 2565   1.470   2.439   0.496 -1.2961 -1.5025  0.9777
  856SOL     OW 2566   2.955   0.246   2.599 -0.1205  0.0041  0.4853
  856SOL    HW1 2567   2.968   0.159   2.555 -0.6246 -0.0635  3.0793
  856SOL    HW2 2568   2.944   0.230   2.699  0.7645 -3.5871  0.7016
  857SOL     OW 2569   1.305   3.028   1.717 -0.3489 -0.3430 -0.1305
  857SOL    HW1 2570   1.332   0.065   1.722  0.2302 -0.8187 -1.1787
  857SOL    HW2 2571   1.298   2.985   1.814  0.6773 -0.2076  2.0260
  858SOL     OW 2572   2.228   2.167   1.605 -0.4509 -0.4085 -0.4638
  858SOL    HW1 2573   2.271   2.094   1.554  1.1505  1.2949 -0.0572
  858SOL    HW2 2574   2.205   2.244   1.545  1.2882 -1.1066  2.0372
  859SOL     OW 2575   1.013   2.312   1.199  0.0737 -0.4275 -0.3228
  859SOL    HW1 2576   1.005   2.215   1.178 -1.7987 -1.8569  3.5097
  859SOL    HW2 2577   1.032   2.331   1.300  2.9425  1.9861  2.0299
  860SOL     OW 2578   2.371   2.496   3.054  0.0886  0.1182 -0.2225
  860SOL    HW1 2579   2.477   2.490   3.045  2.5185  1.3084 -1.0448
  860SOL    HW2 2580   2.319   2.474   2.965  1.7628 -0.5277 -2.9598
  861SOL     OW 2581   2.205   2.943   0.980  0.3795  0.6531  0.7503
  861SOL    HW1 2582   2.144   2.923   1.056  0.1372 -0.5972 -2.2476
  861SOL    HW2 2583   2.300   2.969   1.016  1.4285 -0.1577  1.3964
  862SOL     OW 2584   1.925   2.662   2.155  0.5323 -0.7287 -0.4745
  862SOL    HW1 2585   1.910   2.664   2.257  1.7181  0.2220  0.5782
  862SOL    HW2 2586   1.966   2.748   2.129 -0.2915 -2.3940 -0.4004
  863SOL     OW 2587   0.168   0.713   0.691  0.5811  0.1280 -0.0331
  863SOL    HW1 2588   0.170   0.811   0.670 -2.5272 -1.4600  3.1198
  863SOL    HW2 2589   0.192   0.662   0.607 -3.3021  0.2143  0.0988
  864SOL     OW 2590   2.921   2.520   2.160  0.2267  0.1306  0.4050
  864SOL    HW1 2591   2.976   2.566   2.232 -1.5404  1.7044 -2.8386
  864SOL    HW2 2592   2.984   2.492   2.085 -1.6007  1.8944  0.1182
  865SOL     OW 2593   0.392   1.505   2.761  0.4919  0.1174  0.3415
  865SOL    HW1 2594   0.368   1.576   2.830 -1.5000 -0.4390  1.9867
  865SOL    HW2 2595   0.432   1.426   2.813  0.6583  2.1385 -0.5082
  866SOL     OW 2596   2.750   0.681   2.551  0.0968 -0.1024 -0.2273
  866SOL    HW1 2597   2.809   0.711   2.471  0.3879  0.3546 -3.0672
  866SOL    HW2 2598   2.803   0.621   2.616  0.8547  0.7598 -0.1813
  867SOL     OW 2599   0.170   3.062   2.798 -0.2193  0.3573 -0.2969
  867SOL    HW1 2600   0.203   3.025   2.888  2.6757  2.8841 -1.8665
  867SOL    HW2 2601   0.068   3.041   2.787 -1.0548  0.4114  0.7663
  868SOL     OW 2602   1.443   2.863   1.059 -0.1726 -0.4984 -0.2503
  868SOL    HW1 2603   1.478   2.950   1.100 -1.8152 -0.5934 -0.6023
  868SOL    HW2 2604   1.513   2.813   1.002 -0.1144 -2.3170 -3.0018
  869SOL     OW 2605   1.399   1.493   0.831  0.8156  0.3913 -0.1828
  869SOL    HW1 2606   1.489   1.539   0.844  0.6675  0.6965 -0.4526
  869SOL    HW2 2607   1.323   1.560   0.844 -0.5777 -0.6830 -0.3714
  870SOL     OW 2608   1.915   2.074   1.128 -0.2353 -0.1062  0.1180
  870SOL    HW1 2609   2.003   2.040   1.089 -1.0486 -0.4985 -1.0948
  870SOL    HW2 2610   1.861   1.992   1.161 -0.9675 -0.4233  1.6924
  871SOL     OW 2611   0.671   1.729   1.725  0.0145 -0.0887  0.1640
  871SOL    HW1 2612   0.596   1.759   1.658 -1.4640 -0.4507 -1.4143
  871SOL    HW2 2613   0.737   1.807   1.727  1.5532 -3.5402 -0.2618
  872SOL     OW 2614   0.963   1.478   1.455  0.2116 -0.3744  0.2112
  872SOL    HW1 2615   0.959   1.506   1.357 -0.0479 -1.0142 -0.0947
  872SOL    HW2 2616   1.062   1.457   1.474 -0.0694  2.8267 -0.1450
  873SOL     OW 2617   1.160   1.070   2.592  0.3950 -1.1680 -0.0635
  873SOL    HW1 2618   1.130   1.164   2.553  0.0816  1.2675 -0.5845
  873SOL    HW2 2619   1.218   1.081   2.671  2.3186  1.4014 -1.8873
  874SOL     OW 2620   0.194   1.452   1.534 -0.1944  0.1060 -0.4925
  874SOL    HW1 2621   0.228   1.541   1.494  2.8699  1.4099 -1.5120
  874SOL    HW2 2622   0.269   1.385   1.529 -0.8280 -0.8963  0.2914
  875SOL     OW 2623   2.733   2.934   0.832  0.0085 -0.5620 -0.0262
  875SOL    HW1 2624   2.806   2.949   0.900  0.4362  1.2222  0.0600
  875SOL    HW2 2625   2.651   2.901   0.885 -0.2068  3.0432  1.3823
  876SOL     OW 2626   0.915   0.611   2.783  0.2132 -0.3644 -0.6965
  876SOL    HW1 2627   0.971   0.540   2.839 -0.9153 -1.7416  1.0731
  876SOL    HW2 2628   0.961   0.702   2.778  1.7191  0.4096 -0.5417
  877SOL     OW 2629   0.035   0.383   1.076 -0.2225  0.0650  0.0098
  877SOL    HW1 2630   3.015   0.359   1.133 -0.7932 -1.1925 -1.2709
  877SOL    HW2 2631   0.113   0.410   1.134 -0.1332 -1.7417  2.9847
  878SOL     OW 2632   1.657   2.586   3.024  0.0109  0.0325 -0.5083
  878SOL    HW1 2633   1.744   2.537   0.001 -1.6705 -2.4798  0.4649
  878SOL    HW2 2634   1.586   2.576   0.040 -1.3693 -2.0333  2.7701
  879SOL     OW 2635   2.245   1.685   1.542 -0.1930 -0.9341  1.0932
  879SOL    HW1 2636   2.279   1.740   1.463  0.5784  0.4489  1.8774
  879SOL    HW2 2637   2.202   1.752   1.605  0.3345  1.5538  0.9331
  880SOL     OW 2638   0.740   0.593   1.652  0.7244  0.3012 -0.4377
  880SOL    HW1 2639   0.826   0.540   1.655 -0.5052  3.1673 -0.7050
  880SOL    HW2 2640   0.745   0.678   1.708 -0.1851  2.4882  0.2499
  881SOL     OW 2641   0.834   1.869   0.033 -0.2407  0.4382  0.2183
  881SOL    HW1 2642   0.765   1.863   3.019 -0.0984 -0.4198 -1.0605
  881SOL    HW2 2643   0.930   1.868   0.002 -2.5472 -0.6356  1.2046
  882SOL     OW 2644   1.999   0.920   1.350  0.1387 -0.1912  0.0118
  882SOL    HW1 2645   2.078   0.899   1.410 -1.2598 -0.0204 -0.7606
  882SOL    HW2 2646   1.982   0.847   1.278 -1.3694 -1.9062 -0.9543
  883SOL     OW 2647   1.624   0.504   2.212 -0.7407  0.4107 -0.6081
  883SOL    HW1 2648   1.722   0.487   2.229 -2.6808 -1.3838 -0.7944
  883SOL    HW2 2649   1.588   0.422   2.164  2.0075 -0.1100  1.3979
  884SOL     OW 2650   2.456   0.262   0.079 -0.3111 -0.4424 -0.0274
  884SOL    HW1 2651   2.536   0.268   0.012  2.1855 -0.1283 -1.0391
  884SOL    HW2 2652   2.372   0.294   0.035  1.4346  1.4671  0.4211
  885SOL     OW 2653   0.566   1.978   0.647  0.0457  0.8641  0.2295
  885SOL    HW1 2654   0.524   2.046   0.585  0.7233 -0.5672  0.6349
  885SOL    HW2 2655   0.494   1.929   0.701  0.1616  0.4822  1.0148
  886SOL     OW 2656   1.518   1.301   0.080  0.1902 -0.4272 -0.1325
  886SOL    HW1 2657   1.434   1.277   0.135 -2.3749  2.0403 -0.1370
  886SOL    HW2 2658   1.582   1.362   0.134 -1.6154  1.2995 -0.7151
  887SOL     OW 2659   1.498   0.454   1.691 -0.0920  0.2675 -0.1457
  887SOL    HW1 2660   1.590   0.496   1.700 -0.7233  0.3174  1.3732
  887SOL    HW2 2661   1.426   0.527   1.675 -0.1739  0.0253 -0.3520
  888SOL     OW 2662   2.787   1.182   1.445 -0.0428 -0.3198 -0.2421
  888SOL    HW1 2663   2.888   1.179   1.431  0.6814 -0.1532  2.2921
  888SOL    HW2 2664   2.745   1.256   1.387  1.0848  1.8276  0.4086
  889SOL     OW 2665   3.059   2.530   1.104 -0.5861  0.3650  0.0039
  889SOL    HW1 2666   0.042   2.575   1.027 -1.7737 -0.3483  0.9845
  889SOL    HW2 2667   0.059   2.520   1.187  0.1110 -1.1303  0.5702
  890SOL     OW 2668   0.080   2.577   2.307 -0.2337  0.0675  0.1697
  890SOL    HW1 2669   0.105   2.479   2.323 -1.0901  1.1402  1.1535
  890SOL    HW2 2670   0.143   2.636   2.366  4.3848  1.9339  0.0447
  891SOL     OW 2671   0.332   1.718   0.317 -0.1122  0.3256 -0.0607
  891SOL    HW1 2672   0.372   1.807   0.292 -0.3699  0.6143  0.5990
  891SOL    HW2 2673   0.387   1.679   0.390  2.4229  1.6379 -1.5279
  892SOL     OW 2674   0.005   2.314   1.456 -1.3123  0.0969 -0.4050
  892SOL    HW1 2675   3.060   2.320   1.558 -2.3440  0.1052 -0.2560
  892SOL    HW2 2676   2.979   2.346   1.412  1.3821 -1.8474  1.0006
  893SOL     OW 2677   0.326   2.989   1.648  0.2348  0.0844  0.2019
  893SOL    HW1 2678   0.260   2.951   1.717 -1.2114  2.7355  2.9381
  893SOL    HW2 2679   0.420   2.989   1.686 -1.4625  2.3549 -1.8932
  894SOL     OW 2680   2.497   1.748   0.732 -0.0723  0.0835 -0.1915
  894SOL    HW1 2681   2.574   1.792   0.785  0.6538 -0.7165  1.4572
  894SOL    HW2 2682   2.501   1.764   0.632  1.1396  0.4075  1.8987
  895SOL     OW 2683   2.241   2.630   1.539 -0.0639 -0.1067 -0.0443
  895SOL    HW1 2684   2.160   2.570   1.562 -0.9887 -0.9917  1.7291
  895SOL    HW2 2685   2.324   2.596   1.584 -2.0382  1.9359  0.7614
  896SOL     OW 2686   0.811   0.030   1.343 -0.0909 -0.2924  0.3703
  896SOL    HW1 2687   0.789   0.119   1.387 -4.5640  0.7080  1.2531
  896SOL    HW2 2688   0.777   3.017   1.403  2.1075  1.0362  0.1940
  897SOL     OW 2689   0.709   1.359   1.151  0.2115  0.5134  0.2358
  897SOL    HW1 2690   0.804   1.379   1.112  1.3627 -2.1758 -0.4197
  897SOL    HW2 2691   0.641   1.425   1.118 -0.9874 -0.3730  0.6497
  898SOL     OW 2692   1.641   2.573   1.570 -0.1267 -0.6063 -0.3688
  898SOL    HW1 2693   1.690   2.520   1.643  0.4097 -0.6196 -1.7026
  898SOL    HW2 2694   1.659   2.524   1.482  1.2108 -1.2117 -0.8018
  899SOL     OW 2695   1.058   0.322   2.677  0.1481 -0.0516  0.0338
  899SOL    HW1 2696   1.117   0.248   2.634  0.4947 -0.0609 -0.1855
  899SOL    HW2 2697   0.959   0.294   2.677 -1.3301 -0.6385  0.2219
  900SOL     OW 2698   1.171   2.633   1.789 -0.0835  0.4332 -0.0263
  900SOL    HW1 2699   1.245   2.640   1.716  0.5705 -0.6294 -0.6692
  900SOL    HW2 2700   1.104   2.708   1.773  1.0672 -0.8698 -2.8674
  901SOL     OW 2701   0.725   2.042   0.234 -0.2382 -0.6034 -0.5580
  901SOL    HW1 2702   0.770   2.059   0.323  3.9741 -0.8229  1.0891
  901SOL    HW2 2703   0.769   1.962   0.189 -0.5441 -0.9749  2.1936
  902SOL     OW 2704   1.458   1.104   1.162  0.0520 -0.4132 -0.0648
  902SOL    HW1 2705   1.547   1.084   1.118 -1.3052  0.4899 -1.0730
  902SOL    HW2 2706   1.434   1.205   1.148  0.5203 -1.2126  1.1733
  903SOL     OW 2707   2.525   1.001   2.754  0.4187 -0.6630  0.1351
  903SOL    HW1 2708   2.563   1.087   2.726  0.0089 -2.0308  0.7911
  903SOL    HW2 2709   2.474   1.009   2.845 -1.3884  0.2392  2.3500
  904SOL     OW 2710   0.879   1.320   0.114 -0.1107  0.7362  0.2602
  904SOL    HW1 2711   0.859   1.406   0.162 -1.2179  0.9679 -4.0764
  904SOL    HW2 2712   0.946   1.262   0.168  1.0229 -2.2730 -0.0989
  905SOL     OW 2713   1.513   0.030   1.181 -0.6046  0.2128  0.2541
  905SOL    HW1 2714   1.594   0.077   1.135  3.7682  1.4874 -0.9236
  905SOL    HW2 2715   1.426   0.083   1.175  1.0636  0.2387  2.5055
  906SOL     OW 2716   2.529   2.590   0.858  0.3975 -0.2031  0.0754
  906SOL    HW1 2717   2.596   2.575   0.786 -1.6318  0.9044  0.3612
  906SOL    HW2 2718   2.542   2.681   0.904  2.2305  3.3198  0.5549
  907SOL     OW 2719   1.480   0.805   0.599  0.0393 -0.1924 -0.5878
  907SOL    HW1 2720   1.493   0.711   0.621 -1.8469  1.7523  0.0313
  907SOL    HW2 2721   1.392   0.844   0.640 -1.2357 -0.6811  2.2366
  908SOL     OW 2722   1.708   0.199   1.111 -0.0409 -0.2091  0.0236
  908SOL    HW1 2723   1.725   0.247   1.022 -2.7691  1.2669 -0.7516
  908SOL    HW2 2724   1.727   0.272   1.181 -0.7032  1.6861 -1.9215
  909SOL     OW 2725   1.934   0.704   1.234 -0.2514 -0.2614  0.1982
  909SOL    HW1 2726   1.983   0.661   1.158 -0.2286  1.2486  1.5499
  909SOL    HW2 2727   1.923   0.645   1.317  2.9706  0.8007  0.8631
  910SOL     OW 2728   2.443   0.639   1.792  0.1783 -0.0599 -0.1293
  910SOL    HW1 2729   2.449   0.695   1.707  0.1662 -2.5674 -0.7373
  910SOL    HW2 2730   2.420   0.689   1.872  0.9186  1.7113 -0.2691
  911SOL     OW 2731   2.364   0.450   2.614 -0.1672  0.1766 -0.5234
  911SOL    HW1 2732   2.401   0.544   2.586 -0.2659 -2.4038  2.5440
  911SOL    HW2 2733   2.306   0.452   2.699 -4.7968 -1.8202  2.0309
  912SOL     OW 2734   0.682   1.116   1.726  0.1067  0.2890 -0.3771
  912SOL    HW1 2735   0.757   1.181   1.692  1.3991  1.1295  0.6875
  912SOL    HW2 2736   0.631   1.065   1.654 -0.6638  0.2520  1.1970
  913SOL     OW 2737   2.836   2.404   1.638  0.2700  0.0767 -0.1837
  913SOL    HW1 2738   2.848   2.318   1.694 -0.0883  1.1338  1.9827
  913SOL    HW2 2739   2.912   2.469   1.657 -1.0606 -0.5933  0.4601
  914SOL     OW 2740   1.650   0.825   1.852  0.1890  0.1260 -0.3278
  914SOL    HW1 2741   1.554   0.851   1.835 -0.8097 -0.3127 -1.8342
  914SOL    HW2 2742   1.669   0.736   1.812 -0.4489  0.7552  1.5529
  915SOL     OW 2743   2.592   0.998   1.001  0.1552 -0.4558 -0.4764
  915SOL    HW1 2744   2.682   0.944   0.991  1.3351 -1.5510 -0.0916
  915SOL    HW2 2745   2.606   1.094   0.963  1.0582  0.8007 -0.7919
  916SOL     OW 2746   1.766   2.282   1.070  0.0991 -0.1021 -0.0555
  916SOL    HW1 2747   1.712   2.303   1.150  1.0655 -1.4317  0.6576
  916SOL    HW2 2748   1.827   2.203   1.089 -1.3402  0.3627  1.6563
  917SOL     OW 2749   1.877   2.253   2.200  0.3839  0.5635 -0.1683
  917SOL    HW1 2750   1.883   2.289   2.298  0.9251 -1.0295  0.2160
  917SOL    HW2 2751   1.931   2.307   2.134  0.2701  0.6839  1.8783
  918SOL     OW 2752   1.743   2.537   2.570  0.6047 -0.3242 -0.2194
  918SOL    HW1 2753   1.651   2.554   2.526  0.1986 -1.7199  1.8034
  918SOL    HW2 2754   1.812   2.585   2.509  4.1470  1.7863 -1.1085
  919SOL     OW 2755   1.098   0.133   1.570 -0.3351 -0.2728  0.0849
  919SOL    HW1 2756   1.107   0.033   1.545  0.5582 -2.2177 -1.6459
  919SOL    HW2 2757   1.105   0.148   1.668  0.0568 -3.2812 -1.9155
  920SOL     OW 2758   2.871   0.425   2.433  0.0889  0.7421 -0.2565
  920SOL    HW1 2759   2.927   0.366   2.495  1.9810 -0.3884  3.1878
  920SOL    HW2 2760   2.774   0.422   2.459  0.6020 -0.3459  0.6048
  921SOL     OW 2761   0.065   0.938   1.757 -0.3222  0.9656 -0.0004
  921SOL    HW1 2762   0.071   1.037   1.738  0.3899  0.2219 -0.2216
  921SOL    HW2 2763   3.041   0.905   1.711 -2.7094 -1.4294 -0.9860
  922SOL     OW 2764   2.241   2.400   0.548 -0.1767 -0.3117 -0.4427
  922SOL    HW1 2765   2.263   2.471   0.617  0.8758  1.2996  0.9641
  922SOL    HW2 2766   2.265   2.427   0.451 -0.6455 -0.4892  4.4008
  923SOL     OW 2767   0.810   1.861   0.676 -0.0164  0.3252 -0.0474
  923SOL    HW1 2768   0.828   1.862   0.776  1.8785  1.7362 -2.5022
  923SOL    HW2 2769   0.714   1.896   0.668 -2.3464 -0.2955  0.5099
  924SOL     OW 2770   1.006   0.884   2.966 -0.3084  0.1671  0.1074
  924SOL    HW1 2771   1.012   0.873   2.863 -0.2725 -1.0033  0.5024
  924SOL    HW2 2772   0.948   0.961   2.998  1.5655 -1.3736 -1.6822
  925SOL     OW 2773   2.651   1.110   0.641 -0.1701 -0.1152  0.1379
  925SOL    HW1 2774   2.652   1.010   0.629 -2.0373  2.7774  1.1226
  925SOL    HW2 2775   2.553   1.139   0.653  1.0815  1.0110  0.5081
  926SOL     OW 2776   0.401   0.367   1.185 -0.1302 -0.2437  0.3719
  926SOL    HW1 2777   0.402   0.265   1.187 -0.4306  1.9203  0.4891
  926SOL    HW2 2778   0.319   0.394   1.238 -0.4227  0.9027 -0.4721
  927SOL     OW 2779   0.480   1.673   2.561  0.2506 -0.1177 -0.1482
  927SOL    HW1 2780   0.454   1.608   2.640  0.3702 -0.8004  1.2783
  927SOL    HW2 2781   0.409   1.665   2.488  0.6518  0.6427  3.0117
  928SOL     OW 2782   0.185   0.473   2.076 -0.0783 -0.1755  0.7212
  928SOL    HW1 2783   0.152   0.451   1.980 -0.8790 -2.2839 -0.9501
  928SOL    HW2 2784   0.117   0.442   2.145  0.0915 -2.4180 -2.0230
  929SOL     OW 2785   2.965   2.836   1.457  0.1704  0.2627 -0.1912
  929SOL    HW1 2786   2.932   2.790   1.374  2.6988  1.1559  0.7750
  929SOL    HW2 2787   3.005   2.926   1.429 -0.4372  0.6156  0.5472
  930SOL     OW 2788   1.882   0.352   1.813  0.1594 -0.1400  0.5652
  930SOL    HW1 2789   1.968   0.317   1.762  4.1752 -1.0464 -0.7808
  930SOL    HW2 2790   1.907   0.366   1.912  3.0575 -1.5417 -2.2213
  931SOL     OW 2791   2.196   0.882   0.004  0.8011  0.5601  0.3468
  931SOL    HW1 2792   2.104   0.927   3.043 -0.0005  1.4961  0.9151
  931SOL    HW2 2793   2.205   0.851   0.098  1.4202 -1.1648 -1.4001
  932SOL     OW 2794   1.970   1.124   0.654  0.0534 -0.2884 -0.2847
  932SOL    HW1 2795   2.042   1.094   0.592  1.3586 -1.2858  2.3713
  932SOL    HW2 2796   1.881   1.134   0.604  0.7186  1.5787 -3.4160
  933SOL     OW 2797   2.031   1.700   0.906 -0.0946  0.2639 -0.2957
  933SOL    HW1 2798   2.127   1.679   0.868  1.9312 -0.7287  0.6168
  933SOL    HW2 2799   1.996   1.626   0.969 -2.1050  0.7699  0.5015
  934SOL     OW 2800   1.991   0.968   2.515 -0.1533  0.1128 -0.0255
  934SOL    HW1 2801   1.996   0.934   2.614  0.0354 -2.2495  3.0380
  934SOL    HW2 2802   1.960   0.896   2.447  1.3775  1.8984 -1.2330
  935SOL     OW 2803   0.072   1.025   0.433  0.1566  0.2657 -0.0661
  935SOL    HW1 2804   0.083   1.072   0.349  0.7747  0.0919  1.6871
  935SOL    HW2 2805   3.048   1.056   0.482 -1.4452  0.8972 -0.0972
  936SOL     OW 2806   0.637   2.823   0.774 -0.3340  0.3340  0.3784
  936SOL    HW1 2807   0.613   2.920   0.739 -3.0004  0.5198  0.5706
  936SOL    HW2 2808   0.573   2.795   0.849 -0.2056 -0.5448  1.1719
  937SOL     OW 2809   2.947   2.775   1.936 -0.0496 -0.6892  0.1118
  937SOL    HW1 2810   2.848   2.756   1.946 -1.1544 -0.1250  1.3424
  937SOL    HW2 2811   2.986   2.796   2.026 -0.0181 -1.0272  0.2519
  938SOL     OW 2812   2.776   2.280   0.134  0.1141 -0.6606  0.3937
  938SOL    HW1 2813   2.731   2.369   0.101 -0.8158  3.5612 -1.9937
  938SOL    HW2 2814   2.848   2.303   0.199  0.8537 -0.5341 -0.3583
  939SOL     OW 2815   1.098   1.215   1.221  0.7788 -0.3346 -0.2228
  939SOL    HW1 2816   1.136   1.158   1.147 -0.7596 -1.0558 -1.4858
  939SOL    HW2 2817   1.158   1.227   1.302 -1.6655  1.9943 -0.7393
  940SOL     OW 2818   2.943   0.511   2.721 -0.3786  0.1809  0.7577
  940SOL    HW1 2819   2.946   0.420   2.676  0.3481  1.9846 -0.4950
  940SOL    HW2 2820   2.978   0.501   2.815 -0.0294  1.7265 -2.1220
  941SOL     OW 2821   2.401   0.002   2.671 -0.2823  0.7916  0.2043
  941SOL    HW1 2822   2.487   0.040   2.718  0.6405 -0.2403 -0.7178
  941SOL    HW2 2823   2.422   3.025   2.577  0.5449 -1.5796  1.0106
  942SOL     OW 2824   1.577   0.546   1.145  0.1036 -0.1028  0.4727
  942SOL    HW1 2825   1.652   0.485   1.180  0.9845  2.8687 -2.1299
  942SOL    HW2 2826   1.607   0.642   1.139  0.2821  0.4201 -0.9484
  943SOL     OW 2827   1.116   1.281   2.198 -0.5552 -0.3570 -0.4262
  943SOL    HW1 2828   1.173   1.221   2.143 -0.0290 -1.1020  0.3475
  943SOL    HW2 2829   1.025   1.287   2.154 -0.3521  1.0538 -0.2733
  944SOL     OW 2830   1.999   1.240   1.561 -0.3282  0.4867 -0.2328
  944SOL    HW1 2831   2.059   1.167   1.592 -1.6740  1.0302  0.6339
  944SOL    HW2 2832   2.056   1.322   1.534  1.5007  1.3775  1.2866
  945SOL     OW 2833   2.957   2.967   2.867 -0.0220  0.3496  0.2990
  945SOL    HW1 2834   2.936   2.872   2.828 -0.7167 -1.5485 -0.0851
  945SOL    HW2 2835   2.955   2.967   2.970  1.2331  0.1780  0.0536
  946SOL     OW 2836   2.990   1.456   1.582 -0.4005  0.7492  0.0296
  946SOL    HW1 2837   0.027   1.460   1.566 -3.4785 -1.5070 -1.0908
  946SOL    HW2 2838   2.963   1.498   1.669 -0.6433  3.1955  1.9478
  947SOL     OW 2839   1.084   0.031   0.284  0.1836 -0.5852  0.5641
  947SOL    HW1 2840   1.107   0.008   0.379  2.3333  1.6204 -1.2925
  947SOL    HW2 2841   0.985   0.003   0.266 -3.7870 -1.3149 -0.7113
  948SOL     OW 2842   2.271   1.619   1.092  0.2037  0.1508 -0.0515
  948SOL    HW1 2843   2.361   1.617   1.147  0.5456 -0.0526  2.2112
  948SOL    HW2 2844   2.290   1.623   0.989  0.4988 -0.8070 -3.6366
  949SOL     OW 2845   0.138   1.040   2.962  0.0548  0.0679 -0.1314
  949SOL    HW1 2846   0.051   1.029   2.913  2.0643  1.8695  1.8826
  949SOL    HW2 2847   0.216   1.043   2.896 -1.8263 -2.2440  1.4783
  950SOL     OW 2848   0.557   2.417   1.224 -0.4691  0.0322  0.3792
  950SOL    HW1 2849   0.493   2.495   1.215 -0.5747 -0.7091 -0.0649
  950SOL    HW2 2850   0.620   2.418   1.144 -0.4802 -1.0549  0.3330
  951SOL     OW 2851   0.900   1.671   2.702  0.1264  0.5183  0.5377
  951SOL    HW1 2852   0.826   1.618   2.753 -0.7657 -1.1950  0.3132
  951SOL    HW2 2853   0.853   1.697   2.617 -0.5638 -3.2156 -0.5802
  952SOL     OW 2854   0.687   0.930   0.427  0.0422  0.3138  0.9789
  952SOL    HW1 2855   0.709   0.932   0.328  0.1471  0.3885  2.7428
  952SOL    HW2 2856   0.599   0.879   0.443  0.2572  0.8946  1.4420
  953SOL     OW 2857   2.185   2.541   2.480 -0.5184 -0.0011 -0.0287
  953SOL    HW1 2858   2.278   2.503   2.459  1.4855 -1.6854  1.0889
  953SOL    HW2 2859   2.193   2.599   2.561 -0.2081  2.3072 -2.0632
  954SOL     OW 2860   1.942   1.007   0.921 -0.0016 -0.3027 -0.0605
  954SOL    HW1 2861   1.995   1.028   1.008  1.8714 -1.8937 -0.6024
  954SOL    HW2 2862   1.967   1.058   0.838  0.5193  1.8210  0.0679
  955SOL     OW 2863   0.478   1.952   0.296  0.2794 -0.5700  0.0392
  955SOL    HW1 2864   0.572   1.980   0.269 -0.7261 -0.8830 -0.0114
  955SOL    HW2 2865   0.451   2.001   0.385  0.5600 -0.0279 -0.0596
  956SOL     OW 2866   2.672   0.507   1.836 -0.0281 -0.1998  0.4474
  956SOL    HW1 2867   2.589   0.567   1.833 -0.2675  0.4084  0.7995
  956SOL    HW2 2868   2.646   0.416   1.873  1.3804  0.4090 -2.0818
  957SOL     OW 2869   1.942   2.270   1.769 -0.5325  0.5004  0.1063
  957SOL    HW1 2870   1.970   2.203   1.699 -0.7842  0.8517 -2.5261
  957SOL    HW2 2871   1.962   2.241   1.866 -2.0349 -1.4556  0.7461
  958SOL     OW 2872   1.563   1.169   1.528 -0.0985 -0.7019 -0.0814
  958SOL    HW1 2873   1.471   1.148   1.494 -1.9016  0.9730  2.4871
  958SOL    HW2 2874   1.563   1.226   1.613  0.1010 -1.1047  3.6017
  959SOL     OW 2875   1.586   1.924   2.162  0.0765 -0.7204 -0.2986
  959SOL    HW1 2876   1.648   1.863   2.110 -0.9605 -0.6884 -0.2991
  959SOL    HW2 2877   1.491   1.898   2.141 -0.3354  0.8433  2.1452
  960SOL     OW 2878   0.700   0.917   2.780 -0.3766  0.5524  0.3522
  960SOL    HW1 2879   0.682   0.982   2.703 -0.0018 -0.5489 -1.2017
  960SOL    HW2 2880   0.800   0.914   2.795 -1.6417  1.1316  0.4611
  961SOL     OW 2881   2.969   1.010   2.808 -0.1193  0.1677 -0.2805
  961SOL    HW1 2882   2.880   0.965   2.814  0.8175  3.1562 -0.5352
  961SOL    HW2 2883   2.982   1.025   2.707  0.5660  0.9312  2.6648
  962SOL     OW 2884   1.051   1.909   2.779  0.3074 -0.2234  0.2623
  962SOL    HW1 2885   1.008   1.818   2.751 -1.3856  0.8234 -1.0430
  962SOL    HW2 2886   0.981   1.980   2.776 -2.4918 -1.0552 -0.2396
  963SOL     OW 2887   2.881   2.028   0.002  0.0279  0.0782 -0.4305
  963SOL    HW1 2888   2.807   1.970   3.023 -0.8719 -0.2070 -1.5620
  963SOL    HW2 2889   2.844   2.115   0.032  2.8597 -2.4136 -0.1174
  964SOL     OW 2890   0.880   2.124   2.235  0.1971 -0.4469  0.3999
  964SOL    HW1 2891   0.792   2.160   2.267  3.1033  0.3878 -2.8025
  964SOL    HW2 2892   0.926   2.198   2.181  1.4343 -0.9883  0.0537
  965SOL     OW 2893   1.874   1.894   0.807  0.0469 -0.4292  0.1778
  965SOL    HW1 2894   1.886   1.974   0.870  2.0184  1.6580  1.0839
  965SOL    HW2 2895   1.937   1.819   0.835  2.0130  0.1160  1.5011
  966SOL     OW 2896   2.907   1.744   2.998 -0.8883  0.1634  0.5582
  966SOL    HW1 2897   2.937   1.831   3.048  1.9899 -0.8245  0.8583
  966SOL    HW2 2898   2.988   1.675   2.996  0.8416 -0.3831 -0.1420
  967SOL     OW 2899   2.044   2.899   2.180 -0.4385 -0.0224 -0.2914
  967SOL    HW1 2900   2.122   2.845   2.223  1.3008 -2.0016  2.3409
  967SOL    HW2 2901   2.072   2.931   2.087  0.2798 -0.3082  0.7604
  968SOL     OW 2902   0.868   0.671   0.127 -0.2740 -0.8223 -0.1562
  968SOL    HW1 2903   0.845   0.765   0.103 -1.0684 -0.8635  1.5574
  968SOL    HW2 2904   0.959   0.665   0.167 -4.1105  0.0681 -0.0349
  969SOL     OW 2905   0.500   1.576   2.190  0.0462  0.3312 -0.1722
  969SOL    HW1 2906   0.601   1.572   2.208  0.6647  1.4550 -0.7782
  969SOL    HW2 2907   0.471   1.484   2.158  0.4140 -0.4889  0.6739
  970SOL     OW 2908   2.103   2.667   1.205  0.3806  0.1787  0.4776
  970SOL    HW1 2909   2.054   2.643   1.113  0.8677  0.2068 -1.7309
  970SOL    HW2 2910   2.205   2.662   1.182 -0.0092 -0.6276 -0.0621
  971SOL     OW 2911   1.846   2.343   0.630  0.0340 -0.1352 -0.0792
  971SOL    HW1 2912   1.871   2.395   0.715  2.9320 -0.6241  0.5230
  971SOL    HW2 2913   1.926   2.294   0.595 -3.3708  0.8948 -1.0891
  972SOL     OW 2914   3.019   1.069   2.543  0.1711 -0.3494  0.0711
  972SOL    HW1 2915   2.999   0.996   2.473  1.6082  0.4488 -0.8858
  972SOL    HW2 2916   0.061   1.083   2.544 -0.7268 -1.1098 -0.4609
  973SOL     OW 2917   0.581   0.119   0.226  0.5653  0.1172 -0.0629
  973SOL    HW1 2918   0.556   0.163   0.315 -2.5933 -1.3776  0.9006
  973SOL    HW2 2919   0.531   0.154   0.148  0.1764 -4.2602  0.2276
  974SOL     OW 2920   2.658   0.846   1.966  0.0668 -0.3104 -0.8490
  974SOL    HW1 2921   2.706   0.779   2.027  0.2039 -0.0044 -0.1572
  974SOL    HW2 2922   2.558   0.822   1.974 -0.3858  0.5975  2.2934
  975SOL     OW 2923   3.054   0.007   0.681  0.2649 -0.1738 -0.0396
  975SOL    HW1 2924   0.026   3.041   0.770  0.8846 -1.1447 -0.4812
  975SOL    HW2 2925   2.957   3.033   0.669 -0.0445  2.0799  1.0554
  976SOL     OW 2926   0.469   1.620   1.330 -0.0453  0.3040 -0.0684
  976SOL    HW1 2927   0.377   1.643   1.371 -1.0400  0.8259  1.0878
  976SOL    HW2 2928   0.517   1.540   1.371 -0.9992  1.9672 -1.7573
  977SOL     OW 2929   1.133   1.799   0.258  0.0952 -0.5593 -0.4214
  977SOL    HW1 2930   1.112   1.772   0.161  1.0177 -1.4039  1.5774
  977SOL    HW2 2931   1.145   1.899   0.263 -1.1214  1.5091 -0.5286
  978SOL     OW 2932   0.011   0.705   0.268 -0.3532 -0.2315 -0.1693
  978SOL    HW1 2933   3.043   0.722   0.174 -0.2333 -0.6271  2.5348
  978SOL    HW2 2934   0.110   0.727   0.268  0.4965 -0.0492 -1.8431
  979SOL     OW 2935   1.647   1.682   0.617  0.3125 -0.4131  0.4837
  979SOL    HW1 2936   1.650   1.649   0.713  1.1127 -4.3933 -2.0169
  979SOL    HW2 2937   1.719   1.753   0.593 -1.2541  2.6763 -1.3831
  980SOL     OW 2938   0.576   2.007   2.026 -0.1896 -0.0798 -0.0098
  980SOL    HW1 2939   0.656   1.955   2.065 -1.3276  2.8165  0.0158
  980SOL    HW2 2940   0.603   2.077   1.958  0.3705  3.4149 -1.3330
  981SOL     OW 2941   2.194   1.324   2.599 -0.7187 -0.4909  0.1492
  981SOL    HW1 2942   2.264   1.322   2.677  0.0548 -0.4602  3.1231
  981SOL    HW2 2943   2.191   1.415   2.555  3.4588 -3.0316 -2.1045
  982SOL     OW 2944   0.017   2.403   1.980  0.1129 -0.1030 -0.3288
  982SOL    HW1 2945   0.017   2.353   1.890 -2.0274  1.0554 -1.8679
  982SOL    HW2 2946   0.110   2.396   2.030  1.6196 -0.7881 -1.7201
  983SOL     OW 2947   1.622   0.272   1.521  0.2074 -0.0297 -0.1924
  983SOL    HW1 2948   1.584   0.354   1.571  0.9432 -2.3617  0.4523
  983SOL    HW2 2949   1.565   0.189   1.549  0.7880 -1.0718 -0.9489
  984SOL     OW 2950   2.293   2.739   0.068 -0.3073  0.0944  0.5380
  984SOL    HW1 2951   2.329   2.645   0.044 -1.7446  0.3111  1.9592
  984SOL    HW2 2952   2.251   2.785   3.053 -1.7931 -2.7514  0.7112
  985SOL     OW 2953   1.538   1.291   1.812 -0.1741  0.4378 -0.1100
  985SOL    HW1 2954   1.635   1.259   1.802  2.0047 -0.2052  0.6266
  985SOL    HW2 2955   1.522   1.318   1.905  2.3242 -2.5200 -1.3240
  986SOL     OW 2956   1.916   2.885   2.587  0.6982  0.3911  0.6608
  986SOL    HW1 2957   2.017   2.891   2.607 -0.2777  0.7734 -0.7569
  986SOL    HW2 2958   1.860   2.921   2.664 -0.5242 -0.0351 -1.8098
  987SOL     OW 2959   2.633   1.772   2.720 -0.5635  0.2887  0.4444
  987SOL    HW1 2960   2.710   1.717   2.675 -1.8757  0.2698  1.4491
  987SOL    HW2 2961   2.574   1.806   2.643  2.2705 -2.6433 -1.3804
  988SOL     OW 2962   0.025   0.830   1.334  0.1041 -0.1599  0.2062
  988SOL    HW1 2963   0.076   0.774   1.406  2.7042 -1.7524  0.6246
  988SOL    HW2 2964   0.093   0.887   1.289 -0.1471 -1.7839  2.8335
  989SOL     OW 2965   1.784   1.182   1.377  0.6041 -0.0384 -0.0537
  989SOL    HW1 2966   1.865   1.129   1.411  0.3484 -1.0017 -0.5343
  989SOL    HW2 2967   1.698   1.164   1.425 -1.8341 -0.1534 -0.3808
  990SOL     OW 2968   2.541   0.623   2.930  0.1468 -0.3387 -0.6491
  990SOL    HW1 2969   2.584   0.668   2.850 -0.4184  0.4411 -1.4254
  990SOL    HW2 2970   2.610   0.589   2.997 -0.2048 -1.1953 -0.2624
  991SOL     OW 2971   0.043   1.558   3.035  0.2272 -0.1441  0.0812
  991SOL    HW1 2972   0.031   1.464   3.001 -2.1579  0.8609 -0.2346
  991SOL    HW2 2973   0.025   1.557   0.071 -0.7887  1.6568 -0.9764
  992SOL     OW 2974   2.369   1.455   1.976 -0.2082 -0.1258 -0.3574
  992SOL    HW1 2975   2.281   1.505   1.967 -0.6763  1.6256  1.0239
  992SOL    HW2 2976   2.424   1.469   1.890 -0.4536 -0.6607 -0.7610
  993SOL     OW 2977   0.603   2.768   0.400  0.2260  0.0154  0.3050
  993SOL    HW1 2978   0.670   2.697   0.411 -0.2854 -1.9297  0.9294
  993SOL    HW2 2979   0.643   2.859   0.428 -0.5926  0.3435 -0.4482
  994SOL     OW 2980   2.816   1.806   1.564  0.3580  0.2184 -0.9509
  994SOL    HW1 2981   2.848   1.748   1.642 -0.0907 -3.9550  1.9799
  994SOL    HW2 2982   2.902   1.849   1.522  2.1525  1.3115 -1.4152
  995SOL     OW 2983   1.631   1.901   2.428  0.4044 -0.1104  0.2340
  995SOL    HW1 2984   1.729   1.905   2.453  0.4608 -0.5617 -0.9736
  995SOL    HW2 2985   1.626   1.920   2.329 -0.1443 -1.3309 -2.8013
  996SOL     OW 2986   2.188   1.839   3.048 -0.0711  0.3322 -0.2776
  996SOL    HW1 2987   2.094   1.818   0.014  4.4682 -0.1590 -0.3492
  996SOL    HW2 2988   2.251   1.780   0.039  2.4552  0.9027 -1.9480
  997SOL     OW 2989   1.404   1.228   2.468 -0.1983 -0.2373 -0.0913
  997SOL    HW1 2990   1.316   1.253   2.426  0.7093  3.3708  0.2807
  997SOL    HW2 2991   1.463   1.312   2.489  2.1678  1.1540 -1.2281
  998SOL     OW 2992   2.932   2.377   0.895 -0.1298 -0.2145  0.4768
  998SOL    HW1 2993   2.925   2.421   0.802  0.8572 -4.1968 -1.1482
  998SOL    HW2 2994   2.965   2.440   0.967  1.0762 -1.0600 -0.8618
  999SOL     OW 2995   0.397   2.629   0.531  0.1648 -0.6037 -0.1857
  999SOL    HW1 2996   0.427   2.539   0.575 -0.7973 -1.8012 -0.0403
  999SOL    HW2 2997   0.477   2.670   0.481 -0.6571 -1.0662  0.7832
 1000SOL     OW 2998   1.098   2.947   0.057  0.0400  0.8210 -0.1309
 1000SOL    HW1 2999   1.099   2.975   0.158  1.3127 -0.4914  0.2088
 1000SOL    HW2 3000   1.025   2.998   0.004 -1.3198 -1.1261 -0.6025
   3.06199   3.06199   3.06199
