1000 SPC/Fw water molecules t= 267.00000 step= 267000
 3000
    1SOL     OW    1   2.863   2.489   1.204 -0.3280  0.4432 -0.5446
    1SOL    HW1    2   2.959   2.515   1.178 -2.7801 -3.6197  0.0569
    1SOL    HW2    3   2.794   2.553   1.160 -3.6152  1.8198  2.6744
    2SOL     OW    4   1.910   2.067   1.139 -0.0772  0.5380 -0.3094
    2SOL    HW1    5   2.001   2.015   1.142  0.3559  2.4622 -1.6511
    2SOL    HW2    6   1.885   2.091   1.231  1.2099 -0.8130 -1.8282
    3SOL     OW    7   0.998   2.811   3.059 -0.1101 -0.0556  0.1568
    3SOL    HW1    8   0.966   2.887   2.997  1.0145  2.9179 -1.9646
    3SOL    HW2    9   1.090   2.777   3.030  2.4415 -0.9963 -0.6376
    4SOL     OW   10   1.938   1.994   1.418  0.4392  0.1281  0.1387
    4SOL    HW1   11   1.852   2.019   1.470 -2.1895 -0.9720  1.0872
    4SOL    HW2   12   2.015   2.056   1.434 -0.9531 -0.8258 -1.0476
    5SOL     OW   13   1.378   0.941   1.448  0.4718  0.1610  0.4988
    5SOL    HW1   14   1.314   0.959   1.370 -1.2440  2.9830  1.1063
    5SOL    HW2   15   1.468   0.978   1.420  0.5647 -0.1802  1.4572
    6SOL     OW   16   2.512   0.056   0.077 -0.0400 -0.3835 -0.1572
    6SOL    HW1   17   2.443   3.116   0.039  1.2067  1.4893  0.0976
    6SOL    HW2   18   2.573   0.076   3.122  0.4208  0.8217  2.1284
    7SOL     OW   19   2.822   1.212   1.238 -0.2851 -0.1367  0.2455
    7SOL    HW1   20   2.752   1.227   1.311  2.1605 -2.0964  0.6213
    7SOL    HW2   21   2.848   1.302   1.206 -1.3127 -2.7513  0.0393
    8SOL     OW   22   1.249   2.814   0.932 -0.1672  0.1099  0.1688
    8SOL    HW1   23   1.298   2.895   0.895 -0.9246 -2.3652  0.2688
    8SOL    HW2   24   1.275   2.801   1.029  2.1997 -1.4429 -0.0899
    9SOL     OW   25   1.812   0.042   2.159 -0.3667 -0.0722 -0.2217
    9SOL    HW1   26   1.759   3.084   2.147  1.0902 -1.5796  0.9612
    9SOL    HW2   27   1.827   0.084   2.068  1.7949  0.3392 -4.8337
   10SOL     OW   28   0.877   2.254   0.790  0.3552  1.1024  0.3623
   10SOL    HW1   29   0.785   2.300   0.780  2.3923 -0.5069 -1.1240
   10SOL    HW2   30   0.932   2.297   0.863 -3.1697  2.1468 -0.9342
   11SOL     OW   31   1.357   1.400   0.346 -0.0874 -0.1323  0.1279
   11SOL    HW1   32   1.367   1.416   0.250  0.9554 -1.7953  3.5184
   11SOL    HW2   33   1.275   1.443   0.384  1.5199 -0.5303  0.9935
   12SOL     OW   34   2.820   2.734   1.889  0.1247 -0.5188  0.3459
   12SOL    HW1   35   2.796   2.642   1.862  1.2137  2.5905  1.9018
   12SOL    HW2   36   2.908   2.729   1.931 -1.1213 -0.6043 -1.0815
   13SOL     OW   37   1.884   0.043   0.461 -0.2918 -0.2841  0.2721
   13SOL    HW1   38   1.880   0.091   0.550  0.5450 -1.9578  0.3562
   13SOL    HW2   39   1.961   0.076   0.404 -1.5629 -1.0437 -1.3120
   14SOL     OW   40   1.420   2.506   1.124  0.2978 -0.5478  0.5211
   14SOL    HW1   41   1.333   2.485   1.078  2.8224 -1.0077 -2.1656
   14SOL    HW2   42   1.471   2.572   1.063  0.4527 -2.2701  0.9799
   15SOL     OW   43   2.982   1.466   1.561 -0.5584 -0.3578 -0.1438
   15SOL    HW1   44   3.044   1.385   1.543 -0.5171 -1.8599 -0.3510
   15SOL    HW2   45   3.040   1.545   1.570 -1.7640 -1.6875 -1.6783
   16SOL     OW   46   2.269   2.336   0.416  0.0407 -0.1354 -0.1490
   16SOL    HW1   47   2.281   2.409   0.344  0.0683  0.9201 -3.1128
   16SOL    HW2   48   2.291   2.247   0.375  1.8405  2.0200 -1.6102
   17SOL     OW   49   0.884   0.002   1.593  0.3361  0.2532 -0.0761
   17SOL    HW1   50   0.978   3.111   1.630 -0.4097 -0.1557  1.0091
   17SOL    HW2   51   0.872   0.083   1.534 -0.3824 -2.8481 -0.8939
   18SOL     OW   52   1.254   0.847   0.001 -1.0686 -0.0379  0.1369
   18SOL    HW1   53   1.224   0.927   0.054  1.1995  0.1416  1.3382
   18SOL    HW2   54   1.356   0.854   3.115  1.4296  0.1632  1.2138
   19SOL     OW   55   1.832   1.848   2.836 -0.4039  0.7599 -0.2297
   19SOL    HW1   56   1.914   1.790   2.811 -1.3989  0.0331 -0.5767
   19SOL    HW2   57   1.833   1.868   2.937  1.0478  0.2941  0.4385
   20SOL     OW   58   2.164   1.845   1.942 -0.1575 -0.4596  0.4304
   20SOL    HW1   59   2.148   1.919   1.876 -2.2951 -1.0405 -0.8061
   20SOL    HW2   60   2.173   1.760   1.892 -1.9744  2.4229 -0.8051
   21SOL     OW   61   0.933   1.449   0.373 -0.8638  0.4130  0.3937
   21SOL    HW1   62   0.914   1.389   0.286  0.8409 -3.6880 -2.7349
   21SOL    HW2   63   0.862   1.520   0.382 -2.5144 -2.8853 -0.7619
   22SOL     OW   64   1.996   3.021   1.329  0.3331  0.3885  0.0813
   22SOL    HW1   65   1.962   2.951   1.263 -0.2161  0.5461  1.4496
   22SOL    HW2   66   2.075   3.068   1.290 -3.2489  2.9384  2.7830
   23SOL     OW   67   2.865   0.835   1.912  0.1168 -0.0575 -0.1599
   23SOL    HW1   68   2.849   0.806   1.816  0.2320 -0.5305  3.4837
   23SOL    HW2   69   2.786   0.814   1.979 -0.3515 -0.7779  1.5800
   24SOL     OW   70   2.246   2.528   0.226  0.1450 -0.4893  0.3216
   24SOL    HW1   71   2.311   2.596   0.183  1.8260 -1.9019  0.1413
   24SOL    HW2   72   2.164   2.512   0.166 -0.8739 -3.1142 -1.4052
   25SOL     OW   73   1.491   3.093   2.600 -0.3681  0.0924  0.4554
   25SOL    HW1   74   1.449   0.051   2.551  2.0013  1.3322 -2.1397
   25SOL    HW2   75   1.593   3.090   2.582 -0.3096 -1.6174  1.4064
   26SOL     OW   76   1.779   2.286   0.006  0.2606 -0.1802 -0.2334
   26SOL    HW1   77   1.855   2.340   0.036 -0.1702  0.0196 -1.6401
   26SOL    HW2   78   1.729   2.247   0.083  1.0093  1.3803 -0.0603
   27SOL     OW   79   2.803   1.948   3.101 -0.1704 -0.0059  0.4528
   27SOL    HW1   80   2.720   1.896   3.063 -1.5570  0.7218  3.7252
   27SOL    HW2   81   2.841   2.026   3.044 -3.5425 -1.2639 -0.4524
   28SOL     OW   82   0.167   0.972   1.909 -0.1693 -0.4002 -0.0136
   28SOL    HW1   83   0.193   0.877   1.889 -0.5465 -2.5957 -0.2502
   28SOL    HW2   84   0.073   0.987   1.868 -0.3120 -0.7783  0.6301
   29SOL     OW   85   2.475   2.373   1.460  0.0701  0.2124  0.3028
   29SOL    HW1   86   2.432   2.439   1.527  0.2629  1.1793 -2.1321
   29SOL    HW2   87   2.573   2.403   1.439  1.8887  1.3524 -2.2233
   30SOL     OW   88   1.513   0.203   0.591 -0.1926  0.2400  1.1866
   30SOL    HW1   89   1.528   0.302   0.602  0.0035 -2.5686  2.2091
   30SOL    HW2   90   1.556   0.175   0.502 -0.1814  3.0733  2.0782
   31SOL     OW   91   2.553   2.594   1.854  0.3378  0.1066  0.0865
   31SOL    HW1   92   2.508   2.672   1.904 -0.3505 -0.2063 -0.9791
   31SOL    HW2   93   2.576   2.615   1.753 -0.9607 -1.2420 -0.6269
   32SOL     OW   94   0.783   1.940   1.091  0.2026  0.2504 -0.6357
   32SOL    HW1   95   0.757   1.947   0.992 -0.6382  0.1676  1.2171
   32SOL    HW2   96   0.716   1.989   1.147 -0.8751 -1.9715  0.4632
   33SOL     OW   97   0.527   0.010   2.653  0.0958 -0.3591 -0.0809
   33SOL    HW1   98   0.454   0.043   2.585 -2.9180 -1.1967  0.6348
   33SOL    HW2   99   0.496   3.061   2.718  1.9019 -2.1826  2.1607
   34SOL     OW  100   1.261   2.886   0.541  0.3914  0.0512 -0.1088
   34SOL    HW1  101   1.286   2.921   0.633 -0.1154 -1.5396 -3.1086
   34SOL    HW2  102   1.344   2.893   0.482 -2.5098 -1.8321  0.9988
   35SOL     OW  103   2.177   2.939   0.973  0.0812 -0.4649  0.4096
   35SOL    HW1  104   2.277   2.971   0.960  1.1935 -0.5368 -1.9774
   35SOL    HW2  105   2.107   3.016   0.966 -0.3077  1.5907 -2.2082
   36SOL     OW  106   1.970   2.610   2.174 -0.2405 -0.6997 -0.9146
   36SOL    HW1  107   1.921   2.632   2.090  2.8239  0.2810 -0.1899
   36SOL    HW2  108   1.902   2.597   2.249 -1.7181  0.6932  2.7571
   37SOL     OW  109   0.859   0.116   2.359 -0.1509 -0.0302  0.0664
   37SOL    HW1  110   0.857   0.076   2.267 -1.4692 -0.6380  0.3294
   37SOL    HW2  111   0.847   0.216   2.356  0.7322  1.8526 -0.2795
   38SOL     OW  112   0.346   2.651   2.700  0.1751 -0.9528 -0.2948
   38SOL    HW1  113   0.440   2.686   2.725 -2.9034  1.3646  2.8068
   38SOL    HW2  114   0.348   2.586   2.623 -2.0526 -0.4537  1.2932
   39SOL     OW  115   2.257   1.159   1.755  0.1308  0.1868 -0.2157
   39SOL    HW1  116   2.243   1.218   1.670 -0.9820  2.4334 -0.5035
   39SOL    HW2  117   2.191   1.202   1.819  1.8715  0.9947  1.6113
   40SOL     OW  118   0.742   2.990   0.233  0.3109  0.7814  0.0604
   40SOL    HW1  119   0.673   2.923   0.203 -1.7448  2.3170  0.3273
   40SOL    HW2  120   0.702   3.080   0.264 -1.1141 -2.6526  0.9168
   41SOL     OW  121   2.082   1.335   1.122 -0.7437 -0.0719 -0.0026
   41SOL    HW1  122   2.147   1.269   1.161  1.1436 -0.8759  0.0538
   41SOL    HW2  123   2.057   1.307   1.031  0.9240 -0.6070  0.9060
   42SOL     OW  124   0.689   0.568   1.121 -0.3338  0.0499  0.0458
   42SOL    HW1  125   0.587   0.578   1.115 -4.2680 -1.2478  2.2925
   42SOL    HW2  126   0.726   0.602   1.212 -1.4884 -1.0151  0.5604
   43SOL     OW  127   2.439   1.584   2.678 -0.3949 -0.3775  0.2239
   43SOL    HW1  128   2.378   1.540   2.743  0.5395  2.1437 -2.6633
   43SOL    HW2  129   2.450   1.509   2.610  1.1778 -3.8038 -0.7938
   44SOL     OW  130   2.860   0.035   1.313  0.1755 -0.0899 -0.2953
   44SOL    HW1  131   2.889   3.083   1.369 -0.7408 -1.1907 -2.9862
   44SOL    HW2  132   2.828   0.114   1.371 -2.8255 -2.4603  1.6661
   45SOL     OW  133   0.520   2.968   1.582 -0.5860 -0.6335 -0.0381
   45SOL    HW1  134   0.565   3.054   1.633  1.3286  4.1667  1.4255
   45SOL    HW2  135   0.571   2.950   1.495  1.1950  0.1908 -1.6155
   46SOL     OW  136   2.124   0.089   2.549 -0.0529  0.0610  0.1863
   46SOL    HW1  137   2.191   0.015   2.528  0.4790  1.1642  0.8517
   46SOL    HW2  138   2.168   0.178   2.536 -2.6674 -0.8223  0.8142
   47SOL     OW  139   2.188   1.992   0.606  0.0644  0.4487 -0.5566
   47SOL    HW1  140   2.167   1.924   0.680  2.2812  0.4432  2.5465
   47SOL    HW2  141   2.148   1.970   0.519  1.0340  0.3488  2.1103
   48SOL     OW  142   0.771   2.124   0.391  0.3736  0.1942 -0.2379
   48SOL    HW1  143   0.693   2.189   0.388  0.6514 -1.8359  0.8422
   48SOL    HW2  144   0.801   2.083   0.302 -2.5145 -0.5096  4.0360
   49SOL     OW  145   2.711   0.302   2.679 -0.0265 -0.2844 -0.1244
   49SOL    HW1  146   2.743   0.284   2.581 -0.2319 -1.0810 -0.9626
   49SOL    HW2  147   2.640   0.234   2.698 -0.7360  0.6633  0.7729
   50SOL     OW  148   2.020   0.778   0.267  0.3295  0.0065  0.1370
   50SOL    HW1  149   2.037   0.878   0.265 -1.5402  0.9805 -0.6822
   50SOL    HW2  150   1.920   0.752   0.263  0.4954 -0.3436  0.1882
   51SOL     OW  151   2.111   0.876   0.667  0.1714  1.0534 -0.3170
   51SOL    HW1  152   2.094   0.877   0.766 -0.9513  1.5076 -0.3035
   51SOL    HW2  153   2.078   0.788   0.622 -3.0555  0.8084 -1.8462
   52SOL     OW  154   1.555   1.588   1.899 -0.2287  0.7135 -0.2553
   52SOL    HW1  155   1.654   1.570   1.897  0.4060  0.7947  0.8489
   52SOL    HW2  156   1.533   1.654   1.824  1.2682 -2.1187 -1.2352
   53SOL     OW  157   0.630   1.765   2.191 -0.1564 -0.0284 -0.1113
   53SOL    HW1  158   0.658   1.676   2.150  0.4201  1.1800 -3.2191
   53SOL    HW2  159   0.641   1.842   2.125  0.8196  2.2873 -0.8659
   54SOL     OW  160   2.245   0.415   1.197  0.2086  0.2031 -0.9628
   54SOL    HW1  161   2.235   0.513   1.159  0.6619  2.1609 -0.0215
   54SOL    HW2  162   2.311   0.362   1.139 -1.0318 -1.0849 -0.9764
   55SOL     OW  163   2.463   2.085   0.899 -0.5932  0.5732  0.2348
   55SOL    HW1  164   2.555   2.049   0.935 -0.1296 -2.0792  0.2594
   55SOL    HW2  165   2.452   2.059   0.800 -2.8613  1.7882  0.2729
   56SOL     OW  166   1.235   0.093   1.861 -0.5868  0.0808  0.2945
   56SOL    HW1  167   1.284   0.049   1.938 -0.3038  2.0121 -1.4408
   56SOL    HW2  168   1.296   0.168   1.829  1.2985  0.5030 -1.1157
   57SOL     OW  169   1.381   1.520   0.021  0.5809  0.4060 -0.0528
   57SOL    HW1  170   1.420   1.601   0.068 -0.4110  1.2594 -3.1112
   57SOL    HW2  171   1.440   1.443   0.042 -0.5812  1.6700  0.1369
   58SOL     OW  172   0.110   0.696   2.527 -0.1182 -0.4459  0.1574
   58SOL    HW1  173   0.176   0.762   2.573  1.0457 -0.5667  0.8435
   58SOL    HW2  174   0.143   0.605   2.499  0.4686  2.1547 -0.2346
   59SOL     OW  175   1.169   0.155   2.689 -0.6909  0.2063 -0.7929
   59SOL    HW1  176   1.089   0.182   2.746  0.6843 -0.1628  0.0019
   59SOL    HW2  177   1.228   0.090   2.737  1.4928  2.2625 -0.8926
   60SOL     OW  178   3.113   1.941   0.474  0.4157  0.4464  0.2633
   60SOL    HW1  179   0.025   1.862   0.416 -1.7708 -1.0864  1.4679
   60SOL    HW2  180   3.011   1.930   0.476 -0.0420 -0.2281  0.3938
   61SOL     OW  181   1.107   2.241   0.144  0.1098 -0.2856  0.8206
   61SOL    HW1  182   1.045   2.283   0.074  0.0621 -0.8868  1.5352
   61SOL    HW2  183   1.098   2.279   0.238  0.2280 -1.3114 -1.6406
   62SOL     OW  184   2.019   2.403   2.428 -0.3239  0.5907  0.0646
   62SOL    HW1  185   1.991   2.309   2.392 -2.6851 -0.5793 -1.9940
   62SOL    HW2  186   1.945   2.464   2.411 -0.4000 -2.5583  1.7365
   63SOL     OW  187   2.241   2.111   0.261  0.2506  0.4185 -0.2521
   63SOL    HW1  188   2.281   2.021   0.287  0.1969  0.1875  1.0866
   63SOL    HW2  189   2.263   2.139   0.167  0.3724  0.3610 -1.3021
   64SOL     OW  190   1.548   1.194   2.479 -0.3584 -0.1244 -0.0950
   64SOL    HW1  191   1.554   1.108   2.424  1.5916 -1.5077 -1.5020
   64SOL    HW2  192   1.498   1.172   2.563  0.8848  0.9691 -2.8376
   65SOL     OW  193   1.248   2.265   2.629  0.3082 -0.5450 -0.7193
   65SOL    HW1  194   1.257   2.166   2.608  2.8379 -1.8073  0.0680
   65SOL    HW2  195   1.199   2.272   2.717 -0.5615  0.3699 -0.1389
   66SOL     OW  196   0.196   1.624   2.010  0.5240  0.3210 -0.1393
   66SOL    HW1  197   0.260   1.668   2.075  0.5907 -1.2180 -0.3400
   66SOL    HW2  198   0.230   1.531   1.990  0.1252  0.3215 -2.0626
   67SOL     OW  199   2.763   2.600   2.876  0.0101 -0.5156 -0.3127
   67SOL    HW1  200   2.764   2.649   2.971 -1.2311  1.2732  1.0366
   67SOL    HW2  201   2.749   2.673   2.802 -1.0482  1.6683 -0.6692
   68SOL     OW  202   0.699   2.329   1.277  0.4036  0.4417 -0.0254
   68SOL    HW1  203   0.669   2.422   1.251  0.6249 -0.0263  1.0097
   68SOL    HW2  204   0.802   2.324   1.270  1.2235  0.5416 -1.5729
   69SOL     OW  205   0.681   2.605   0.792 -0.3565 -0.1204  0.0135
   69SOL    HW1  206   0.657   2.505   0.779 -0.7408 -0.3002  0.2344
   69SOL    HW2  207   0.761   2.628   0.729 -0.6623  1.6989  0.7170
   70SOL     OW  208   2.620   0.867   2.899 -0.5091  0.0271  0.4791
   70SOL    HW1  209   2.703   0.890   2.844  3.7506 -0.8077 -1.3320
   70SOL    HW2  210   2.599   0.765   2.898 -2.3917 -2.0293 -1.5335
   71SOL     OW  211   0.683   1.223   2.478 -0.3636  0.0114  0.2936
   71SOL    HW1  212   0.727   1.187   2.394 -1.8851  0.0953  2.0544
   71SOL    HW2  213   0.704   1.325   2.483 -1.5522 -0.0693 -0.1135
   72SOL     OW  214   0.353   1.514   0.448 -0.3630 -0.3806  0.2195
   72SOL    HW1  215   0.404   1.479   0.366  1.1367 -2.0027 -2.0065
   72SOL    HW2  216   0.340   1.618   0.438  0.8286  0.8453 -3.1161
   73SOL     OW  217   0.897   1.327   0.601  0.9310  0.0443 -0.3390
   73SOL    HW1  218   0.911   1.376   0.512  0.7337 -0.1100  0.1516
   73SOL    HW2  219   0.823   1.371   0.650  2.1301  0.2035 -3.2993
   74SOL     OW  220   2.404   2.718   0.120 -0.0353 -0.1042  0.2144
   74SOL    HW1  221   2.473   2.724   0.197  0.4703  2.5532  0.9175
   74SOL    HW2  222   2.367   2.809   0.091  1.3446  0.0479  0.9671
   75SOL     OW  223   2.159   1.583   1.811  0.2257  0.0399  0.4629
   75SOL    HW1  224   2.077   1.527   1.782 -1.5373  0.4248  0.4816
   75SOL    HW2  225   2.234   1.565   1.741 -0.1869 -2.0698 -1.3759
   76SOL     OW  226   1.974   2.489   1.827  0.5653 -0.4515 -0.1710
   76SOL    HW1  227   2.040   2.564   1.842 -3.5822 -3.3807 -2.9815
   76SOL    HW2  228   1.877   2.510   1.854  1.9878  0.5997  3.8147
   77SOL     OW  229   2.533   0.213   1.887  0.2417  0.3585  0.2469
   77SOL    HW1  230   2.618   0.200   1.834 -2.2828  0.8367  0.8123
   77SOL    HW2  231   2.467   0.274   1.841 -0.0406 -2.1609  1.7312
   78SOL     OW  232   1.526   0.882   3.060  0.2479  0.5135 -0.2926
   78SOL    HW1  233   1.589   0.809   3.093 -1.3081 -1.5758 -0.1516
   78SOL    HW2  234   1.524   0.879   2.959  1.3190 -0.6488 -2.3729
   79SOL     OW  235   2.665   1.345   2.069 -0.0791  0.0600 -0.9512
   79SOL    HW1  236   2.659   1.419   1.999  1.6321 -0.0585 -0.1666
   79SOL    HW2  237   2.733   1.365   2.144 -0.8659 -0.1398 -0.2351
   80SOL     OW  238   1.849   1.389   1.229  0.4185  0.2164  0.1267
   80SOL    HW1  239   1.934   1.367   1.172  1.2486  3.2277 -0.1864
   80SOL    HW2  240   1.875   1.429   1.321  1.4234  0.4193  2.2791
   81SOL     OW  241   1.454   0.618   1.680 -0.2619  0.3196  0.1045
   81SOL    HW1  242   1.410   0.580   1.762  0.0093 -0.0882 -1.7997
   81SOL    HW2  243   1.385   0.688   1.653  3.0960 -0.4537  1.1510
   82SOL     OW  244   1.280   2.576   1.346  0.1346  0.2413  0.2662
   82SOL    HW1  245   1.351   2.531   1.288 -0.4316  0.7224  0.2199
   82SOL    HW2  246   1.275   2.673   1.319 -1.0484  4.2487  0.7985
   83SOL     OW  247   0.064   0.257   0.400 -0.2191 -0.5082 -0.5625
   83SOL    HW1  248   3.105   0.219   0.360  2.6496  0.4468  0.3626
   83SOL    HW2  249   0.070   0.358   0.400 -0.5402 -3.0453  3.2063
   84SOL     OW  250   0.251   1.104   2.883 -0.2375 -0.3237  0.1785
   84SOL    HW1  251   0.166   1.134   2.840 -1.5729 -1.6636  2.1138
   84SOL    HW2  252   0.226   1.029   2.945 -1.2462  3.0248 -2.1733
   85SOL     OW  253   2.582   1.855   1.967 -0.2831 -0.3127  0.4470
   85SOL    HW1  254   2.517   1.847   1.883 -1.3556  0.0136 -3.6625
   85SOL    HW2  255   2.592   1.957   1.992 -0.0201  2.2513  1.7484
   86SOL     OW  256   2.917   2.084   1.780 -0.8077  0.3514 -0.4362
   86SOL    HW1  257   2.903   1.995   1.824  2.1489 -1.9899 -1.7580
   86SOL    HW2  258   2.917   2.153   1.858 -1.0938 -0.5417  0.9121
   87SOL     OW  259   0.706   0.206   2.695  0.1363  0.9394 -0.3612
   87SOL    HW1  260   0.655   0.118   2.671  0.0913 -1.6724  1.5119
   87SOL    HW2  261   0.692   0.238   2.787 -0.8002 -1.6551 -2.5000
   88SOL     OW  262   0.297   2.271   1.157  0.4674 -0.2751  0.3795
   88SOL    HW1  263   0.235   2.239   1.085  3.7598  0.4327  1.3943
   88SOL    HW2  264   0.350   2.188   1.186 -0.3874  2.0352 -1.2019
   89SOL     OW  265   1.038   0.643   1.566  0.0530  0.1359 -0.5055
   89SOL    HW1  266   1.063   0.566   1.504 -0.4103  0.3516 -0.3995
   89SOL    HW2  267   1.053   0.615   1.665  0.3632  0.7788 -1.3023
   90SOL     OW  268   2.734   1.542   1.576  0.3107  0.4365  0.3161
   90SOL    HW1  269   2.728   1.608   1.497  1.5877  1.0315 -1.3395
   90SOL    HW2  270   2.829   1.504   1.567 -0.0663 -0.2095  1.3008
   91SOL     OW  271   1.215   1.546   0.705 -0.7337 -0.0890 -0.1910
   91SOL    HW1  272   1.189   1.561   0.605  0.2945  0.6426 -2.5030
   91SOL    HW2  273   1.181   1.456   0.739  0.4664  0.3588  1.0475
   92SOL     OW  274   2.098   0.585   0.784  1.0554 -0.0252  0.0426
   92SOL    HW1  275   2.043   0.595   0.700  0.4245 -0.5928  3.0383
   92SOL    HW2  276   2.095   0.666   0.844  0.6604 -4.7443  2.4639
   93SOL     OW  277   1.929   1.075   3.091  0.6799  0.1818 -0.6353
   93SOL    HW1  278   1.847   1.096   0.028 -1.4562 -0.5946  3.3372
   93SOL    HW2  279   1.925   1.123   3.001  1.3800 -0.2209 -1.0177
   94SOL     OW  280   2.375   2.167   2.234 -0.0355 -0.4658 -0.5480
   94SOL    HW1  281   2.349   2.220   2.156  0.3082 -0.6677  0.8863
   94SOL    HW2  282   2.356   2.072   2.209 -0.6572  1.4924  0.7089
   95SOL     OW  283   2.074   0.308   0.829 -0.4063  0.3502  0.0614
   95SOL    HW1  284   2.091   0.404   0.796  1.1321 -2.1773 -0.7656
   95SOL    HW2  285   2.162   0.256   0.842  3.0952  1.9896 -0.5293
   96SOL     OW  286   2.669   0.142   2.106 -0.3252  0.4967 -0.3992
   96SOL    HW1  287   2.636   0.046   2.122 -0.9046 -1.2583 -1.4415
   96SOL    HW2  288   2.617   0.180   2.027 -1.3675 -3.5683 -0.5124
   97SOL     OW  289   2.413   0.283   1.056 -0.0107 -0.3762 -0.1472
   97SOL    HW1  290   2.405   0.334   0.968 -0.2733 -0.3146  1.6030
   97SOL    HW2  291   2.451   0.187   1.042  2.1260 -1.2849  0.4945
   98SOL     OW  292   1.685   2.465   1.529  0.0417 -0.1203  0.0789
   98SOL    HW1  293   1.652   2.421   1.450  0.2740 -0.5007  1.7219
   98SOL    HW2  294   1.655   2.408   1.607  2.4150  2.9010 -1.4679
   99SOL     OW  295   2.320   2.232   1.871  0.7172  0.4527 -0.4114
   99SOL    HW1  296   2.264   2.245   1.953 -1.6309  0.5641 -0.1520
   99SOL    HW2  297   2.325   2.319   1.822 -0.2931 -0.5371  0.8122
  100SOL     OW  298   0.435   0.769   2.944  0.3940  0.3949 -0.0512
  100SOL    HW1  299   0.520   0.819   2.923  0.7187 -0.9173  0.6362
  100SOL    HW2  300   0.351   0.826   2.967 -1.5488  1.8685  0.9717
  101SOL     OW  301   1.982   0.403   3.064  0.1898  0.0777  0.1663
  101SOL    HW1  302   2.011   0.384   2.969  0.5870 -2.4670 -0.8369
  101SOL    HW2  303   2.060   0.435   3.123  1.5653  0.4186 -1.6569
  102SOL     OW  304   0.149   0.706   1.818  0.1386  0.4584 -0.3488
  102SOL    HW1  305   0.097   0.677   1.733 -2.1260  1.3845  0.0390
  102SOL    HW2  306   0.242   0.668   1.810 -0.5401 -0.3149 -0.1717
  103SOL     OW  307   2.956   1.047   2.414  0.0373 -0.9472  0.2049
  103SOL    HW1  308   3.029   1.094   2.469 -0.5232  0.5341  0.9459
  103SOL    HW2  309   2.965   0.947   2.439 -0.9523 -0.9412 -0.5339
  104SOL     OW  310   0.623   0.346   2.485 -0.5059  0.2163 -0.1016
  104SOL    HW1  311   0.641   0.290   2.569  3.1450  0.7951  1.2783
  104SOL    HW2  312   0.717   0.370   2.448  0.1984  1.3546 -2.1279
  105SOL     OW  313   2.397   1.805   1.760 -0.6354  0.0012  0.7304
  105SOL    HW1  314   2.334   1.883   1.730  0.4873  1.1012 -0.4690
  105SOL    HW2  315   2.381   1.720   1.709  2.3342  0.7836  2.0019
  106SOL     OW  316   2.160   0.327   0.514  0.3457 -0.3577 -0.3683
  106SOL    HW1  317   2.123   0.265   0.442  1.7650  0.2258  1.1305
  106SOL    HW2  318   2.215   0.271   0.574 -0.9007 -2.0596 -1.3990
  107SOL     OW  319   3.122   1.687   1.088 -0.2150 -0.1443 -0.3125
  107SOL    HW1  320   0.065   1.696   1.163  2.9978 -0.3608 -1.6800
  107SOL    HW2  321   0.028   1.738   1.008  3.0367 -2.9684  1.7473
  108SOL     OW  322   2.893   2.411   1.807  0.3553  0.0031  0.1485
  108SOL    HW1  323   2.965   2.404   1.876 -3.6245  0.3473 -1.2882
  108SOL    HW2  324   2.807   2.360   1.836  0.6366 -1.5772  1.7347
  109SOL     OW  325   2.291   0.134   0.702 -0.6772  0.3104 -0.1027
  109SOL    HW1  326   2.393   0.137   0.701  1.7024 -1.2991 -1.1914
  109SOL    HW2  327   2.259   0.040   0.679  1.2787 -0.9178  0.0080
  110SOL     OW  328   0.386   2.145   2.678 -0.7389  0.1248 -0.1720
  110SOL    HW1  329   0.357   2.219   2.617 -1.9348 -0.0370  0.8220
  110SOL    HW2  330   0.425   2.068   2.623 -1.0351 -1.0806  1.5280
  111SOL     OW  331   1.368   2.645   1.589 -0.3004  0.3328  0.2808
  111SOL    HW1  332   1.328   2.593   1.512 -2.1292  0.1464  1.4477
  111SOL    HW2  333   1.424   2.714   1.541 -2.5213 -1.5415  0.9214
  112SOL     OW  334   1.867   2.735   0.036  0.2713  0.6077  0.2881
  112SOL    HW1  335   1.778   2.708   3.120  0.4469 -0.0203  0.8605
  112SOL    HW2  336   1.847   2.817   0.103  0.0724  0.8096  2.0930
  113SOL     OW  337   1.977   2.633   1.433  0.1080  0.2997  0.1455
  113SOL    HW1  338   1.903   2.681   1.485 -3.3704  0.1951 -1.6198
  113SOL    HW2  339   1.989   2.538   1.462  0.9976  2.0195 -1.6927
  114SOL     OW  340   2.888   0.873   0.912 -0.4197  0.3222 -0.3638
  114SOL    HW1  341   2.796   0.849   0.880  2.2639 -1.2860  0.0942
  114SOL    HW2  342   2.951   0.882   0.833 -0.0924  0.7329  1.2738
  115SOL     OW  343   0.659   1.008   3.109  0.3780  0.1474 -0.0006
  115SOL    HW1  344   0.588   1.074   0.023 -3.0568 -0.4603  0.0197
  115SOL    HW2  345   0.681   0.931   0.050 -1.5243 -1.1848 -0.2161
  116SOL     OW  346   2.620   1.703   2.209  0.4166  0.0161  0.1568
  116SOL    HW1  347   2.562   1.620   2.209  0.3753 -0.5752 -1.5574
  116SOL    HW2  348   2.613   1.747   2.115  0.9645  1.4527  0.3124
  117SOL     OW  349   2.923   2.385   0.790 -0.3528 -0.2940 -0.3519
  117SOL    HW1  350   2.877   2.331   0.862 -0.4408 -2.2781 -0.0607
  117SOL    HW2  351   2.855   2.420   0.722 -0.3076  0.2621 -0.6046
  118SOL     OW  352   1.098   2.469   1.780  0.2169  0.0189  0.2057
  118SOL    HW1  353   1.168   2.473   1.854 -0.7299 -1.8202 -2.0959
  118SOL    HW2  354   1.034   2.549   1.783  1.5380  1.7885 -1.3347
  119SOL     OW  355   0.124   1.868   2.850 -0.4684 -0.1983 -0.5742
  119SOL    HW1  356   0.219   1.833   2.867 -1.6027  2.1904 -0.0923
  119SOL    HW2  357   0.087   1.909   2.933  3.2325 -0.2201  0.2758
  120SOL     OW  358   1.099   0.931   2.919  0.2128 -0.8566  0.3701
  120SOL    HW1  359   1.033   0.994   2.967 -1.0524  1.0921 -0.2634
  120SOL    HW2  360   1.178   0.894   2.976  1.9678 -2.6524  3.3650
  121SOL     OW  361   1.572   2.638   0.925 -0.1932  0.2047 -0.8964
  121SOL    HW1  362   1.634   2.554   0.910 -0.9355  1.5361  1.5431
  121SOL    HW2  363   1.556   2.690   0.838  1.0867 -0.9343  1.1113
  122SOL     OW  364   2.334   2.474   1.733  0.4453 -0.2404 -0.4483
  122SOL    HW1  365   2.256   2.533   1.768 -2.1947  1.1911  2.3399
  122SOL    HW2  366   2.421   2.498   1.779 -0.7584  0.3799  3.3914
  123SOL     OW  367   0.294   2.805   0.609  0.1114 -0.0112 -0.0372
  123SOL    HW1  368   0.362   2.822   0.534 -2.6698 -1.0454 -0.9934
  123SOL    HW2  369   0.335   2.833   0.699  0.2731  0.8627 -3.0352
  124SOL     OW  370   2.127   1.208   2.692  0.4351  0.4770  0.3775
  124SOL    HW1  371   2.209   1.161   2.714 -2.1238  2.1953  0.5140
  124SOL    HW2  372   2.066   1.217   2.771 -1.4390  0.1111 -1.5255
  125SOL     OW  373   0.666   0.827   0.538  0.2275  0.2281 -0.6441
  125SOL    HW1  374   0.581   0.836   0.585  2.8003 -0.0166  1.5347
  125SOL    HW2  375   0.712   0.915   0.526  2.9883 -1.0627  0.6670
  126SOL     OW  376   3.090   1.222   0.811  0.7694 -0.8041 -0.2053
  126SOL    HW1  377   2.997   1.188   0.833  2.8740  3.1607  0.9833
  126SOL    HW2  378   3.091   1.321   0.791 -3.0268 -0.4023  4.6961
  127SOL     OW  379   0.163   1.846   1.860 -0.6228  0.7507  0.8012
  127SOL    HW1  380   0.191   1.764   1.918  1.2336  0.5970  1.4214
  127SOL    HW2  381   0.245   1.887   1.816  3.4767  2.1320 -0.1942
  128SOL     OW  382   0.894   1.021   0.212 -0.4590  0.0338  0.4732
  128SOL    HW1  383   0.994   1.003   0.186  0.1416  2.2508 -0.7812
  128SOL    HW2  384   0.842   0.940   0.169 -0.3474 -0.8314 -1.1812
  129SOL     OW  385   2.666   1.256   0.852  0.3505  0.1623 -0.3331
  129SOL    HW1  386   2.576   1.296   0.838 -0.9685 -1.7246 -1.5232
  129SOL    HW2  387   2.667   1.177   0.918  0.7678 -1.1575 -0.0307
  130SOL     OW  388   2.357   0.866   1.364 -0.6282  0.4053 -0.4131
  130SOL    HW1  389   2.444   0.829   1.407 -0.3665  2.0858  0.1648
  130SOL    HW2  390   2.381   0.954   1.319 -0.1781 -1.0007  0.7640
  131SOL     OW  391   2.895   3.105   2.958  0.1309 -0.1518  0.0174
  131SOL    HW1  392   2.928   3.008   2.969 -1.5643  0.4063  2.0980
  131SOL    HW2  393   2.950   0.053   3.001  0.2543 -3.1205 -0.2592
  132SOL     OW  394   0.085   1.572   1.338 -0.2711 -0.2388 -0.2740
  132SOL    HW1  395   0.043   1.663   1.355 -1.0821  2.7115  1.4721
  132SOL    HW2  396   0.151   1.550   1.412  2.9695 -0.3709 -0.3976
  133SOL     OW  397   1.403   0.306   1.477 -0.5927 -0.0734 -0.0836
  133SOL    HW1  398   1.359   0.350   1.560  0.5015  0.2413  1.6599
  133SOL    HW2  399   1.473   0.368   1.440  1.9709 -1.9750 -0.9109
  134SOL     OW  400   0.034   1.478   0.133  0.5551  0.1652  0.6797
  134SOL    HW1  401   3.104   1.405   0.089  2.1047  1.7463 -0.4462
  134SOL    HW2  402   3.120   1.567   0.106 -0.2662  0.1133  0.7373
  135SOL     OW  403   2.155   1.190   1.453  0.7887 -0.2021 -0.0035
  135SOL    HW1  404   2.090   1.111   1.488 -2.5099  0.1219 -1.8910
  135SOL    HW2  405   2.195   1.172   1.364  2.4755  1.0896 -0.1106
  136SOL     OW  406   0.102   1.006   0.329 -0.9228 -0.2925 -0.2073
  136SOL    HW1  407   0.043   0.930   0.289 -1.7825  0.4096 -1.6095
  136SOL    HW2  408   0.051   1.058   0.403  1.5820 -0.0239  1.0085
  137SOL     OW  409   2.711   1.066   1.033 -0.6721 -0.2114 -0.3819
  137SOL    HW1  410   2.775   1.001   0.990 -0.1027 -0.1534 -1.8043
  137SOL    HW2  411   2.746   1.108   1.118 -0.4206  1.5454 -0.5150
  138SOL     OW  412   1.558   1.164   1.057  0.6343 -0.5285  0.0728
  138SOL    HW1  413   1.482   1.093   1.069 -2.5409 -1.7498  0.4019
  138SOL    HW2  414   1.653   1.128   1.067  0.5764 -1.2512  1.6011
  139SOL     OW  415   2.003   3.116   3.003  0.6254  0.5230 -0.2411
  139SOL    HW1  416   2.040   3.022   3.023 -1.5464  0.1986 -0.5006
  139SOL    HW2  417   1.899   0.001   3.008 -0.5057 -1.2903 -1.9753
  140SOL     OW  418   1.549   1.917   1.455 -0.4907  0.2820  0.5158
  140SOL    HW1  419   1.583   1.873   1.370 -0.2112  0.9044  0.3761
  140SOL    HW2  420   1.494   2.000   1.426 -1.6731  0.6446 -0.0237
  141SOL     OW  421   1.998   2.298   0.488  1.2304  0.0970 -0.2053
  141SOL    HW1  422   2.087   2.329   0.458 -4.5705 -1.2103  1.8201
  141SOL    HW2  423   2.007   2.267   0.584  2.3821  1.9522 -1.0220
  142SOL     OW  424   0.756   0.796   0.153 -0.2669 -0.1971 -0.1902
  142SOL    HW1  425   0.682   0.734   0.193  0.5043 -1.6368  0.8520
  142SOL    HW2  426   0.842   0.743   0.172  0.6122 -2.0629  0.8835
  143SOL     OW  427   0.344   2.077   0.179  0.2254 -0.5978  0.1175
  143SOL    HW1  428   0.272   2.085   0.252 -0.6719  0.4393  1.2907
  143SOL    HW2  429   0.339   2.152   0.106  0.5561 -0.2319  0.0315
  144SOL     OW  430   1.482   3.032   1.201  0.1394 -0.0107 -0.0913
  144SOL    HW1  431   1.534   3.118   1.223  2.1594 -0.5266 -0.4329
  144SOL    HW2  432   1.537   2.955   1.161 -2.6484  1.1481 -0.9077
  145SOL     OW  433   2.218   1.376   0.509 -0.1617  0.3195 -0.0753
  145SOL    HW1  434   2.269   1.308   0.560  0.8457  1.8151 -0.6541
  145SOL    HW2  435   2.148   1.326   0.456  0.6034  0.8604  3.3979
  146SOL     OW  436   0.028   1.732   0.339  0.3701  0.2528  0.1187
  146SOL    HW1  437   3.070   1.756   0.287  0.6708 -3.6615  3.6211
  146SOL    HW2  438   0.018   1.645   0.398  2.4241 -0.4405 -1.6089
  147SOL     OW  439   2.302   3.010   1.626 -0.0418 -0.4375 -0.2094
  147SOL    HW1  440   2.264   2.935   1.571  2.1381 -0.5878  0.4236
  147SOL    HW2  441   2.404   3.020   1.599  3.2946  0.4230  1.9831
  148SOL     OW  442   1.663   2.951   2.041 -0.2543 -0.3299  0.0285
  148SOL    HW1  443   1.617   2.954   1.952  1.2635  1.4909 -0.0547
  148SOL    HW2  444   1.600   2.951   2.118 -0.6250 -1.0839  0.2605
  149SOL     OW  445   1.891   0.589   2.202  0.0904 -0.0823  0.4627
  149SOL    HW1  446   1.912   0.630   2.294  1.6453  0.5122 -2.0075
  149SOL    HW2  447   1.979   0.571   2.160 -0.2143  3.2014  3.7455
  150SOL     OW  448   0.044   2.977   0.587  0.2286 -0.0250  0.6633
  150SOL    HW1  449   0.111   2.965   0.663 -1.1245  0.4135 -1.4084
  150SOL    HW2  450   0.083   2.963   0.487  4.0362 -0.2505 -2.6211
  151SOL     OW  451   0.211   1.750   0.058 -0.2675 -0.1231  0.5900
  151SOL    HW1  452   0.294   1.798   0.015 -1.1183 -1.7747  0.4617
  151SOL    HW2  453   0.182   1.792   0.147  0.0933  1.2473  1.2263
  152SOL     OW  454   2.927   0.032   0.867 -0.4450  0.7723  0.2398
  152SOL    HW1  455   3.021   0.020   0.909  3.5730  1.6158  1.7344
  152SOL    HW2  456   2.858   3.122   0.936  2.3181 -1.1825 -1.1278
  153SOL     OW  457   2.470   0.012   1.066  0.2160 -0.8875 -0.4963
  153SOL    HW1  458   2.476   3.117   1.169  1.0760 -2.4017  0.5790
  153SOL    HW2  459   2.473   3.052   1.014  0.5978  2.3668  2.7795
  154SOL     OW  460   1.112   0.450   1.779 -0.5627 -0.1944  0.3555
  154SOL    HW1  461   1.197   0.393   1.767  2.0099 -0.7474  0.7983
  154SOL    HW2  462   1.090   0.477   1.875  1.8845 -3.6757 -1.4186
  155SOL     OW  463   3.042   1.029   1.265  0.5636  0.1982  0.1804
  155SOL    HW1  464   3.116   1.038   1.195 -0.1985  1.1644  2.0697
  155SOL    HW2  465   2.972   1.102   1.255 -0.2892 -0.2097  0.8865
  156SOL     OW  466   0.005   1.991   3.071  0.0031 -0.6933  0.0006
  156SOL    HW1  467   0.031   2.062   0.016  0.3132 -0.2881  2.4926
  156SOL    HW2  468   3.058   2.029   3.010  3.4131  2.0706 -0.8084
  157SOL     OW  469   0.983   0.433   0.319 -0.0136 -0.3018 -0.0293
  157SOL    HW1  470   0.916   0.413   0.394 -0.8213 -0.4055  0.3000
  157SOL    HW2  471   0.977   0.533   0.306 -0.1287 -2.2342  1.5141
  158SOL     OW  472   2.886   3.026   2.643 -0.7268 -0.3241  0.5557
  158SOL    HW1  473   2.923   3.063   2.725 -1.8869  0.2391 -2.5572
  158SOL    HW2  474   2.811   3.081   2.609 -2.1980  0.6617  0.4156
  159SOL     OW  475   0.635   0.097   0.337  0.3459  0.2588  0.2470
  159SOL    HW1  476   0.700   0.121   0.414  0.0562  1.1506  0.9187
  159SOL    HW2  477   0.596   0.180   0.292 -0.1602  0.7830  1.2593
  160SOL     OW  478   1.105   2.292   2.862 -0.2558 -0.1662  0.4773
  160SOL    HW1  479   1.048   2.348   2.922 -2.9553 -2.6951  0.3743
  160SOL    HW2  480   1.170   2.234   2.919  0.7089 -1.4191  0.7593
  161SOL     OW  481   3.037   1.662   2.475  0.7025  0.3455 -0.3999
  161SOL    HW1  482   3.094   1.650   2.392 -2.0114 -0.3752  0.6549
  161SOL    HW2  483   2.942   1.693   2.452 -0.7204 -0.0919  0.9117
  162SOL     OW  484   0.465   2.454   1.636  0.0121  0.0665  0.4173
  162SOL    HW1  485   0.434   2.530   1.701 -2.2708  0.1830 -0.2425
  162SOL    HW2  486   0.471   2.496   1.542  1.9272 -1.8948  1.4085
  163SOL     OW  487   2.041   0.442   2.798 -0.2085  0.1767 -0.5921
  163SOL    HW1  488   1.985   0.525   2.814  2.3831  0.0092 -0.8919
  163SOL    HW2  489   2.006   0.404   2.711 -2.7189 -0.5033 -0.7594
  164SOL     OW  490   2.775   1.212   0.603  0.0393 -0.5819  0.7247
  164SOL    HW1  491   2.710   1.261   0.542 -1.6673 -3.2485 -0.7441
  164SOL    HW2  492   2.747   1.235   0.697  1.1557 -1.9030 -2.1957
  165SOL     OW  493   0.243   0.127   1.601  0.2492  0.1407  0.2765
  165SOL    HW1  494   0.274   0.053   1.664  0.9647 -0.3428 -0.2714
  165SOL    HW2  495   0.296   0.207   1.612 -2.8723 -1.1061  2.0240
  166SOL     OW  496   1.986   0.671   0.531  0.2176 -0.2973 -0.0879
  166SOL    HW1  497   1.971   0.725   0.447 -0.9187  0.6210 -1.0466
  166SOL    HW2  498   1.950   0.579   0.523  1.5819  1.2969  0.3921
  167SOL     OW  499   0.322   0.754   0.145  0.3009 -0.6085 -0.5670
  167SOL    HW1  500   0.408   0.701   0.143  0.6245 -0.8143  1.5452
  167SOL    HW2  501   0.328   0.841   0.199  1.9132  1.4418 -0.3092
  168SOL     OW  502   2.029   2.934   1.827 -0.4438 -0.7929 -0.2703
  168SOL    HW1  503   2.070   2.992   1.901  0.9617  0.9000 -0.6887
  168SOL    HW2  504   2.054   2.971   1.732  0.1383  0.4635  0.8308
  169SOL     OW  505   0.912   1.111   0.847  0.0183 -0.4566  0.4699
  169SOL    HW1  506   0.951   1.018   0.825 -1.6439  2.9179 -0.3060
  169SOL    HW2  507   0.897   1.127   0.948 -0.1043 -0.6966  1.1889
  170SOL     OW  508   2.992   0.369   1.283  0.2982 -0.1974  0.3204
  170SOL    HW1  509   2.972   0.328   1.189 -0.5824 -0.8021  0.4615
  170SOL    HW2  510   3.056   0.302   1.329  0.1285  0.6610 -1.7700
  171SOL     OW  511   1.140   2.915   2.473  0.0678  0.1165  0.1864
  171SOL    HW1  512   1.131   2.873   2.565  1.1686  3.1510  1.4258
  171SOL    HW2  513   1.108   3.011   2.471  0.0331 -0.3065 -0.7766
  172SOL     OW  514   0.452   2.572   1.384 -0.1138  0.2845  0.2753
  172SOL    HW1  515   0.506   2.560   1.294  0.6754  0.6902 -1.4171
  172SOL    HW2  516   0.424   2.667   1.390 -3.4283 -1.8380 -0.1717
  173SOL     OW  517   1.395   1.068   2.667 -0.5010 -0.1330  0.2402
  173SOL    HW1  518   1.342   1.043   2.584  0.9197 -0.8414  1.7698
  173SOL    HW2  519   1.422   0.985   2.719  0.2474  1.0425 -0.8937
  174SOL     OW  520   1.953   0.111   2.762  0.1666 -0.1282 -0.3694
  174SOL    HW1  521   1.985   0.069   2.850  0.5081  0.1046 -2.7496
  174SOL    HW2  522   2.026   0.108   2.692  3.6828 -1.0259 -0.8319
  175SOL     OW  523   1.907   2.535   0.380  0.4540 -0.0936  0.0418
  175SOL    HW1  524   1.915   2.547   0.280  0.2844  0.0207  0.4627
  175SOL    HW2  525   1.942   2.447   0.419  1.3644  0.4482  0.5322
  176SOL     OW  526   1.716   0.213   2.711 -0.7580  0.4597 -0.1466
  176SOL    HW1  527   1.660   0.240   2.798 -0.3066 -0.6689  0.5949
  176SOL    HW2  528   1.792   0.150   2.740  1.6837 -1.6242  0.9013
  177SOL     OW  529   1.161   1.558   0.430  0.0084  0.2960  0.3314
  177SOL    HW1  530   1.171   1.625   0.348 -1.6788  0.2337 -0.6438
  177SOL    HW2  531   1.080   1.499   0.411 -0.7814 -0.6704 -5.0728
  178SOL     OW  532   2.917   2.134   2.937 -0.0853 -0.1318  0.2618
  178SOL    HW1  533   2.923   2.229   2.952 -1.3767 -2.3317 -0.1517
  178SOL    HW2  534   2.928   2.110   2.839 -0.6841 -1.7830  1.7508
  179SOL     OW  535   0.498   2.953   2.864  0.0240  0.6359 -0.4488
  179SOL    HW1  536   0.533   2.855   2.861 -1.4274  1.3277  2.5449
  179SOL    HW2  537   0.409   2.948   2.912  1.3827 -0.3099 -2.0809
  180SOL     OW  538   1.468   1.675   0.726 -0.1319  0.4075  0.1677
  180SOL    HW1  539   1.512   1.734   0.652 -0.2162 -0.5876 -0.9407
  180SOL    HW2  540   1.375   1.649   0.708  3.9027  0.0268  1.4055
  181SOL     OW  541   2.255   0.744   2.270  0.3660  0.2130  0.0925
  181SOL    HW1  542   2.186   0.818   2.246  1.5029  2.3884 -0.0918
  181SOL    HW2  543   2.218   0.696   2.354 -0.8069  1.6280  3.1106
  182SOL     OW  544   0.120   2.897   2.433  0.2311  0.2758 -0.3281
  182SOL    HW1  545   0.024   2.864   2.454 -1.9116 -1.7707  0.8597
  182SOL    HW2  546   0.123   2.997   2.420 -2.1378  1.7499 -1.4462
  183SOL     OW  547   1.416   0.773   2.263 -0.4479 -0.0753 -0.1959
  183SOL    HW1  548   1.481   0.692   2.292  1.8650  0.1623  1.4039
  183SOL    HW2  549   1.363   0.744   2.179 -1.6160 -1.0942  1.6622
  184SOL     OW  550   0.664   0.685   1.813 -0.5400 -0.4807  0.2073
  184SOL    HW1  551   0.723   0.730   1.746 -0.9932 -2.5077  2.2354
  184SOL    HW2  552   0.644   0.751   1.885  0.5369 -0.8445 -2.4396
  185SOL     OW  553   1.871   1.048   0.524  0.7523  0.1426 -0.1163
  185SOL    HW1  554   1.915   1.133   0.488  0.1851  0.9467 -1.3527
  185SOL    HW2  555   1.941   0.986   0.564  0.2284 -1.8722 -1.9787
  186SOL     OW  556   0.280   2.301   3.084 -0.1764  0.2932  0.1576
  186SOL    HW1  557   0.280   2.234   3.008  2.4646 -0.1537 -1.8224
  186SOL    HW2  558   0.189   2.293   0.006 -0.4245 -1.7709 -1.2504
  187SOL     OW  559   2.450   1.193   0.099  0.3656  0.0107  0.0603
  187SOL    HW1  560   2.437   1.090   0.107  2.3485 -2.0269 -3.0687
  187SOL    HW2  561   2.374   1.228   0.040 -0.1944 -0.0138  3.9103
  188SOL     OW  562   0.027   1.493   0.851 -0.4601  0.1406  0.0142
  188SOL    HW1  563   3.098   1.506   0.931 -0.0596  5.4796 -1.0825
  188SOL    HW2  564   0.002   1.565   0.777 -0.8104  2.0268 -0.9475
  189SOL     OW  565   2.428   0.212   0.262  0.5458 -0.1705 -0.5372
  189SOL    HW1  566   2.461   0.153   0.184 -0.1296 -1.3810  1.5064
  189SOL    HW2  567   2.499   0.219   0.332 -0.3970  0.9375 -1.6186
  190SOL     OW  568   1.081   1.701   1.985  0.1261 -1.0044  0.3645
  190SOL    HW1  569   1.073   1.646   2.069 -0.7074  2.5693  0.6173
  190SOL    HW2  570   1.150   1.660   1.916  2.5783 -1.1227 -2.2289
  191SOL     OW  571   2.818   0.451   1.770 -0.0632 -0.2458  0.0384
  191SOL    HW1  572   2.878   0.453   1.686 -0.0577 -1.2808 -3.6338
  191SOL    HW2  573   2.787   0.354   1.782  4.7038  1.2994  1.5436
  192SOL     OW  574   1.732   1.568   1.073  0.8437 -0.5045 -0.0962
  192SOL    HW1  575   1.767   1.479   1.102 -1.7260  1.9599 -1.9039
  192SOL    HW2  576   1.805   1.633   1.100  2.7465 -0.7433 -0.5838
  193SOL     OW  577   0.944   0.845   0.792 -0.0348 -0.1308  0.0460
  193SOL    HW1  578   0.910   0.811   0.699 -0.5024  2.5912 -2.0543
  193SOL    HW2  579   0.887   0.807   0.870  1.7801 -3.8363 -1.0914
  194SOL     OW  580   1.092   2.438   1.493 -0.2099 -0.2173  0.2596
  194SOL    HW1  581   1.143   2.513   1.440 -0.1666  2.1245  0.1767
  194SOL    HW2  582   1.093   2.459   1.596 -0.5161 -0.6529  1.1488
  195SOL     OW  583   2.301   0.448   2.880  0.1673  0.3453 -0.3329
  195SOL    HW1  584   2.350   0.359   2.886  2.7644  0.5208 -0.6878
  195SOL    HW2  585   2.198   0.427   2.868 -2.3225  3.0307 -0.9498
  196SOL     OW  586   0.940   2.681   1.805  0.7457  0.2064  0.0031
  196SOL    HW1  587   0.923   2.645   1.901 -1.2226  1.0224  1.8001
  196SOL    HW2  588   0.889   2.766   1.789 -0.8530  0.1978  0.3537
  197SOL     OW  589   0.824   2.651   1.019 -0.0067  1.0291  0.8558
  197SOL    HW1  590   0.766   2.638   0.934  0.7410 -0.9821  0.3113
  197SOL    HW2  591   0.889   2.728   1.018 -2.0997 -1.0952 -0.8096
  198SOL     OW  592   0.889   0.677   0.549  0.2508  0.4235  0.2061
  198SOL    HW1  593   0.855   0.581   0.561 -1.7579 -0.0410  0.2401
  198SOL    HW2  594   0.812   0.743   0.536  0.7048  0.6165 -0.4802
  199SOL     OW  595   0.244   2.719   2.000  0.0277  0.3477 -0.5839
  199SOL    HW1  596   0.252   2.703   2.103  0.5340 -0.1987 -0.4387
  199SOL    HW2  597   0.302   2.656   1.943 -0.5050  1.3942  0.9538
  200SOL     OW  598   2.124   1.911   2.337 -0.4312  0.5155 -0.1960
  200SOL    HW1  599   2.219   1.913   2.301 -1.9279  0.8344  0.9016
  200SOL    HW2  600   2.128   1.904   2.439 -0.5278 -1.1369  0.8784
  201SOL     OW  601   3.045   2.122   1.535  0.1768  0.9507  0.2211
  201SOL    HW1  602   2.965   2.136   1.470 -1.2185  0.4613 -0.7361
  201SOL    HW2  603   3.008   2.121   1.629 -1.5929  0.8424  1.8676
  202SOL     OW  604   2.814   0.033   0.413  0.0794  0.6748  0.0890
  202SOL    HW1  605   2.866   0.004   0.500  0.8532 -2.3434  1.7796
  202SOL    HW2  606   2.764   3.081   0.368 -0.2859 -0.1990  0.2957
  203SOL     OW  607   1.072   2.202   2.118 -0.2195  0.1334 -0.0198
  203SOL    HW1  608   1.013   2.223   2.041 -0.3410  0.2587  0.5163
  203SOL    HW2  609   1.087   2.103   2.129  0.1970  0.7369  3.0470
  204SOL     OW  610   1.463   2.153   1.392  0.2805  0.2606  0.2919
  204SOL    HW1  611   1.531   2.228   1.373  0.6761 -3.5163 -0.8029
  204SOL    HW2  612   1.376   2.186   1.440  2.0132 -0.2684 -1.2892
  205SOL     OW  613   0.880   1.742   1.792  0.1380  0.0051  0.1240
  205SOL    HW1  614   0.954   1.741   1.862  0.5487  0.8396  0.1260
  205SOL    HW2  615   0.826   1.654   1.793 -2.5005 -1.5966  3.3428
  206SOL     OW  616   0.299   0.577   2.819  0.2223 -0.5089  0.1940
  206SOL    HW1  617   0.352   0.652   2.862 -1.0490  1.3677 -3.5621
  206SOL    HW2  618   0.304   0.582   2.718  0.0312 -0.2198  3.1687
  207SOL     OW  619   0.964   0.155   1.867  0.3752 -0.1432  0.2416
  207SOL    HW1  620   0.954   0.207   1.778  0.9287  1.5068 -0.8883
  207SOL    HW2  621   1.059   0.141   1.889 -2.2722 -0.3068  1.5359
  208SOL     OW  622   0.618   2.489   1.964 -0.1107  0.1580  0.7907
  208SOL    HW1  623   0.628   2.562   2.034 -0.4651 -4.9201 -0.1153
  208SOL    HW2  624   0.612   2.528   1.870  0.4898 -2.1633  2.3396
  209SOL     OW  625   1.707   0.666   3.093 -0.1917  0.1831 -0.2343
  209SOL    HW1  626   1.695   0.612   3.008  0.3560  1.4744  0.2199
  209SOL    HW2  627   1.698   0.603   0.051 -0.0021  0.2577 -1.5960
  210SOL     OW  628   0.038   0.523   0.825  0.2175 -0.0352 -0.2824
  210SOL    HW1  629   0.020   0.559   0.916 -0.0660  0.5757 -2.6374
  210SOL    HW2  630   3.121   0.426   0.808 -1.5191 -1.3671  0.5336
  211SOL     OW  631   0.807   0.660   1.348  0.3169 -0.3622  0.3583
  211SOL    HW1  632   0.873   0.602   1.400  1.6168 -2.5486  1.4819
  211SOL    HW2  633   0.729   0.693   1.408  1.7008 -1.6219 -1.0646
  212SOL     OW  634   1.522   1.893   0.515  0.6044 -0.0425  0.6188
  212SOL    HW1  635   1.420   1.888   0.537 -1.9222  0.2705  2.0184
  212SOL    HW2  636   1.568   1.954   0.584 -1.1725  1.9076  0.2062
  213SOL     OW  637   2.056   0.178   1.903  0.0993 -0.0922 -0.3950
  213SOL    HW1  638   2.111   0.198   1.819 -0.7768  1.8681  1.6417
  213SOL    HW2  639   1.958   0.193   1.890  4.2180  1.3129 -0.8517
  214SOL     OW  640   1.124   2.760   2.701  0.0028 -0.3736  0.4916
  214SOL    HW1  641   1.187   2.779   2.778  0.3074  1.9221  0.6977
  214SOL    HW2  642   1.139   2.668   2.656  2.7568  0.5591 -0.6898
  215SOL     OW  643   2.792   1.699   1.338 -0.0308 -0.5256  0.1396
  215SOL    HW1  644   2.710   1.740   1.300  1.4706  0.4785  0.3685
  215SOL    HW2  645   2.818   1.612   1.289 -0.4419  0.7732  0.7965
  216SOL     OW  646   0.306   0.526   2.175  0.3834  0.1221  0.1616
  216SOL    HW1  647   0.226   0.592   2.186 -0.2155  2.5578  1.9434
  216SOL    HW2  648   0.389   0.586   2.181  0.0719  0.6147 -1.2133
  217SOL     OW  649   2.967   0.194   0.245 -0.0429  0.0794 -0.5895
  217SOL    HW1  650   2.909   0.275   0.229  3.6991 -2.0298 -1.9369
  217SOL    HW2  651   2.931   0.126   0.315  1.9280  0.0110 -0.5189
  218SOL     OW  652   1.743   2.025   1.589 -0.0151 -0.2215  0.1842
  218SOL    HW1  653   1.792   1.953   1.647 -2.1684 -1.5414 -1.3474
  218SOL    HW2  654   1.668   1.979   1.539  0.9170  1.0731 -0.2324
  219SOL     OW  655   1.758   0.736   0.326  0.2932  0.6540 -0.0013
  219SOL    HW1  656   1.700   0.656   0.336  1.8470  0.1967 -2.0373
  219SOL    HW2  657   1.713   0.824   0.355 -0.2354 -1.1055 -0.1046
  220SOL     OW  658   1.600   2.040   0.750 -0.1477  0.5394 -0.1964
  220SOL    HW1  659   1.502   2.024   0.757  2.0512 -1.0499  0.4266
  220SOL    HW2  660   1.654   1.964   0.794 -0.4745  0.6416  4.1902
  221SOL     OW  661   0.117   0.564   0.112 -0.1154 -0.1392  0.3850
  221SOL    HW1  662   0.099   0.550   0.009  2.4412 -0.2979 -2.4278
  221SOL    HW2  663   0.183   0.641   0.118  1.3290 -1.7630  0.7989
  222SOL     OW  664   0.793   2.895   1.706 -0.0593  0.0072  0.2347
  222SOL    HW1  665   0.808   2.995   1.687  0.1602 -0.6899 -4.0718
  222SOL    HW2  666   0.822   2.836   1.627 -4.1481  0.5089 -1.8540
  223SOL     OW  667   1.572   0.556   2.841 -0.4018 -0.3624 -0.0176
  223SOL    HW1  668   1.593   0.470   2.886  1.5217  4.5261  0.3693
  223SOL    HW2  669   1.489   0.553   2.787  2.4051  1.3121  0.0700
  224SOL     OW  670   2.901   0.617   1.242 -0.0331 -0.0296 -0.3073
  224SOL    HW1  671   2.956   0.540   1.273  0.0826  4.2945 -4.2324
  224SOL    HW2  672   2.800   0.602   1.269 -3.4327  2.3461  2.2059
  225SOL     OW  673   0.852   1.479   1.675 -0.2383 -0.2493 -0.6069
  225SOL    HW1  674   0.823   1.539   1.602 -0.1260  1.3433 -1.7587
  225SOL    HW2  675   0.935   1.423   1.655 -1.2370 -1.3662  0.2742
  226SOL     OW  676   0.816   0.233   0.740  0.4759 -0.2437 -0.0519
  226SOL    HW1  677   0.752   0.158   0.765  0.9359  2.0834 -0.3461
  226SOL    HW2  678   0.846   0.293   0.819 -0.5875  1.7974  0.5057
  227SOL     OW  679   0.765   1.886   1.427 -0.2544 -0.1148  0.1865
  227SOL    HW1  680   0.726   1.952   1.363  1.7074 -1.7166  2.8889
  227SOL    HW2  681   0.718   1.798   1.418 -0.0912 -0.2457  1.1004
  228SOL     OW  682   0.641   0.057   1.666  0.0549  0.3976  0.7787
  228SOL    HW1  683   0.735   0.028   1.645 -2.2539  1.5609  2.4439
  228SOL    HW2  684   0.646   0.127   1.742  0.2283  1.7056  0.7116
  229SOL     OW  685   2.543   0.823   0.558  0.3998 -0.9695 -0.2189
  229SOL    HW1  686   2.502   0.739   0.510 -0.1347 -1.2273 -0.4959
  229SOL    HW2  687   2.577   0.891   0.488  2.0075  0.5954 -0.0355
  230SOL     OW  688   0.498   1.182   2.128  0.3144 -0.2727  0.4028
  230SOL    HW1  689   0.435   1.107   2.136  0.8797  2.1736 -0.9215
  230SOL    HW2  690   0.592   1.156   2.094 -0.4018 -1.3572  0.9942
  231SOL     OW  691   1.292   2.836   1.217 -0.3473 -0.7755  0.0122
  231SOL    HW1  692   1.334   2.928   1.199 -2.5077 -0.5745 -0.9281
  231SOL    HW2  693   1.214   2.845   1.279  0.8788  2.3179 -3.5169
  232SOL     OW  694   2.540   2.327   0.231 -0.0804 -0.1430 -0.0920
  232SOL    HW1  695   2.459   2.359   0.181  1.3429 -0.3366  2.4201
  232SOL    HW2  696   2.549   2.229   0.213 -1.6981  1.0767 -0.6345
  233SOL     OW  697   0.948   2.822   0.207  0.3024 -0.1976  0.4688
  233SOL    HW1  698   0.875   2.889   0.230  0.7828 -1.2346 -3.4901
  233SOL    HW2  699   0.960   2.816   0.108 -0.7343  0.0397 -1.2081
  234SOL     OW  700   1.091   0.749   2.237  0.0586  0.1209  0.4929
  234SOL    HW1  701   1.081   0.848   2.218  2.6853 -1.1247  0.9960
  234SOL    HW2  702   1.015   0.694   2.195  0.1956  1.7189 -1.1640
  235SOL     OW  703   0.151   2.140   0.353 -0.1078 -0.0979 -0.0769
  235SOL    HW1  704   0.181   2.225   0.404  0.6172 -0.0062  1.0187
  235SOL    HW2  705   0.094   2.083   0.416  1.0537 -1.1055 -1.0489
  236SOL     OW  706   1.930   2.843   2.463  0.2244 -0.0896 -0.0420
  236SOL    HW1  707   1.986   2.846   2.378 -0.8073  1.5016  0.3949
  236SOL    HW2  708   1.866   2.760   2.463 -1.6463 -2.4774 -1.9607
  237SOL     OW  709   1.998   1.357   1.642  0.2029 -0.8188 -0.5074
  237SOL    HW1  710   2.059   1.327   1.562  2.4534  0.3729  1.6115
  237SOL    HW2  711   1.955   1.281   1.685 -0.9073  2.7810 -0.7001
  238SOL     OW  712   1.744   3.027   2.498 -0.0433  0.5561  1.0483
  238SOL    HW1  713   1.738   3.092   2.419  2.0830 -1.2747 -1.2848
  238SOL    HW2  714   1.803   2.949   2.467 -2.2185 -1.5007 -1.4715
  239SOL     OW  715   0.817   2.171   1.646  0.0207  0.0965 -0.1285
  239SOL    HW1  716   0.778   2.262   1.638  0.3504  0.8176 -0.5008
  239SOL    HW2  717   0.751   2.100   1.659  3.0239  0.7096  0.5660
  240SOL     OW  718   0.011   2.513   0.924 -0.2434  0.0039  0.0621
  240SOL    HW1  719   0.047   2.589   0.863 -0.2868  0.2041 -1.1452
  240SOL    HW2  720   3.045   2.484   0.883 -0.1305  1.2324  0.6108
  241SOL     OW  721   1.627   1.838   0.037  0.2104 -0.5538  0.4931
  241SOL    HW1  722   1.592   1.834   0.132 -0.0164 -0.7291 -0.5303
  241SOL    HW2  723   1.699   1.904   0.022 -0.5693 -0.2967 -0.1602
  242SOL     OW  724   2.167   1.171   0.219 -0.4436 -0.2141 -0.4945
  242SOL    HW1  725   2.174   1.097   0.295  0.8859 -0.5566  0.2453
  242SOL    HW2  726   2.180   1.127   0.133 -1.2687  2.4389  2.2516
  243SOL     OW  727   0.787   0.446   1.875  0.2688  0.0604 -0.2068
  243SOL    HW1  728   0.831   0.396   1.799 -1.4108 -0.0113  0.4003
  243SOL    HW2  729   0.727   0.521   1.847 -0.0332  2.2929  1.6750
  244SOL     OW  730   1.729   2.842   2.842  0.4354  0.3832  0.1336
  244SOL    HW1  731   1.650   2.900   2.846  0.9913 -2.3716 -0.8310
  244SOL    HW2  732   1.809   2.900   2.832 -1.2330 -0.4069 -0.4088
  245SOL     OW  733   1.732   0.000   3.021  0.5050 -0.1870  0.0435
  245SOL    HW1  734   1.729   0.095   3.053 -0.2272  1.9447  0.3423
  245SOL    HW2  735   1.640   3.094   2.996  1.7018  0.9326 -2.4094
  246SOL     OW  736   1.203   1.252   2.385  0.0456 -0.2427  0.9896
  246SOL    HW1  737   1.271   1.323   2.360 -2.3207  1.2875  0.3970
  246SOL    HW2  738   1.129   1.297   2.444 -1.4854  0.8166 -0.9198
  247SOL     OW  739   2.717   0.523   2.234 -0.3188  0.4342 -0.4025
  247SOL    HW1  740   2.791   0.479   2.176  1.2893  0.6000  2.4623
  247SOL    HW2  741   2.698   0.614   2.193  1.2583  0.8011 -1.8336
  248SOL     OW  742   0.560   0.909   1.932  0.0568  0.0403  0.1073
  248SOL    HW1  743   0.627   0.978   1.975  0.8376  1.5676 -1.7545
  248SOL    HW2  744   0.516   0.952   1.846 -1.8624  1.5551 -3.0722
  249SOL     OW  745   2.525   0.487   0.256  0.5429  0.1364 -0.0713
  249SOL    HW1  746   2.488   0.562   0.314 -1.1365  0.9822 -1.6846
  249SOL    HW2  747   2.467   0.403   0.251 -1.4223  1.0009 -2.1199
  250SOL     OW  748   3.023   0.285   0.781 -0.1262 -0.4640  0.2952
  250SOL    HW1  749   3.092   0.243   0.721 -0.2013  0.0449 -0.2445
  250SOL    HW2  750   2.926   0.253   0.768 -1.7793 -0.4262 -1.3967
  251SOL     OW  751   0.839   1.064   2.292 -0.3800 -0.1414 -0.2135
  251SOL    HW1  752   0.825   0.980   2.346  0.6689  1.2992 -3.1381
  251SOL    HW2  753   0.941   1.081   2.273  4.3588  2.0016 -1.3443
  252SOL     OW  754   1.478   1.752   1.703 -0.0035 -0.1339 -0.0952
  252SOL    HW1  755   1.486   1.823   1.627 -2.9406  0.9927 -1.3259
  252SOL    HW2  756   1.384   1.708   1.708  0.9904 -0.9749 -1.2146
  253SOL     OW  757   1.484   2.713   1.812  0.4479  0.0889  0.1096
  253SOL    HW1  758   1.551   2.641   1.828 -1.3187  2.0672 -2.1700
  253SOL    HW2  759   1.433   2.687   1.729  1.3833 -0.2887  1.2444
  254SOL     OW  760   0.737   2.225   2.325  0.4184 -0.2047  0.1026
  254SOL    HW1  761   0.725   2.126   2.348 -0.3927  0.0556  0.3090
  254SOL    HW2  762   0.727   2.241   2.222 -0.3051 -0.4653 -1.0720
  255SOL     OW  763   1.357   0.462   0.587 -0.1969  0.6924  0.0705
  255SOL    HW1  764   1.334   0.406   0.667  1.6858  1.2366 -1.8664
  255SOL    HW2  765   1.311   0.438   0.497  0.4197  0.9563 -1.3109
  256SOL     OW  766   1.855   2.338   1.058 -0.5099  0.3353  0.0548
  256SOL    HW1  767   1.944   2.375   1.095  2.4597  0.3583 -1.9585
  256SOL    HW2  768   1.849   2.239   1.078 -0.2031  2.1744 -1.5423
  257SOL     OW  769   0.061   2.034   2.633 -0.0680  0.0711  0.2161
  257SOL    HW1  770   0.084   1.967   2.707 -1.5806 -1.4969  1.0206
  257SOL    HW2  771   0.108   2.001   2.546 -1.6870  1.3984 -0.3239
  258SOL     OW  772   0.451   1.032   2.487 -0.3577  0.0980 -0.0211
  258SOL    HW1  773   0.526   1.094   2.518  0.6462 -0.8355 -0.1321
  258SOL    HW2  774   0.379   1.081   2.430 -2.9741 -0.1190 -1.5398
  259SOL     OW  775   1.262   0.990   2.427 -0.3867 -0.0438  0.1723
  259SOL    HW1  776   1.233   1.087   2.411 -0.9302  0.5401 -1.9014
  259SOL    HW2  777   1.309   0.953   2.346  0.1491  3.0026  0.2049
  260SOL     OW  778   1.875   0.404   0.515  0.2315 -0.2202 -0.1869
  260SOL    HW1  779   1.796   0.400   0.581  0.8835 -1.5727 -0.2748
  260SOL    HW2  780   1.959   0.367   0.557  3.7004 -0.8843  1.5560
  261SOL     OW  781   1.099   0.501   2.869  0.4295 -0.0117 -0.2669
  261SOL    HW1  782   1.079   0.402   2.869  0.4449 -1.7598 -1.4682
  261SOL    HW2  783   1.023   0.558   2.823 -2.9339  1.5684  1.0876
  262SOL     OW  784   2.312   2.940   2.778 -0.0219 -0.2462 -0.0422
  262SOL    HW1  785   2.335   2.984   2.691  2.1323  1.2755  2.3207
  262SOL    HW2  786   2.327   2.840   2.787 -1.1109  1.6796  2.7453
  263SOL     OW  787   0.838   2.019   0.156 -0.0746 -0.1279 -0.2241
  263SOL    HW1  788   0.939   2.004   0.156  0.5046 -1.6217  0.0700
  263SOL    HW2  789   0.810   2.069   0.069  0.2279  1.9897 -4.5920
  264SOL     OW  790   0.264   1.537   1.543  0.1780  0.3196  0.4169
  264SOL    HW1  791   0.287   1.449   1.591 -2.5632 -0.2325 -0.1898
  264SOL    HW2  792   0.199   1.602   1.592  0.5767  1.3262 -3.2040
  265SOL     OW  793   0.480   1.125   0.509  0.2863 -0.1998 -0.6539
  265SOL    HW1  794   0.440   1.066   0.436 -2.4180  1.1440 -2.5913
  265SOL    HW2  795   0.579   1.106   0.510 -1.2874  0.6260 -1.4044
  266SOL     OW  796   1.847   1.672   0.131 -0.6917 -0.8582 -0.3912
  266SOL    HW1  797   1.936   1.714   0.093  2.2452  0.4025  3.2956
  266SOL    HW2  798   1.768   1.719   0.086  0.0716  0.4319  3.5950
  267SOL     OW  799   2.816   0.445   3.083 -0.2107  0.3223  0.3037
  267SOL    HW1  800   2.891   0.374   3.076 -0.3551 -1.1058  0.5684
  267SOL    HW2  801   2.801   0.480   2.989 -0.3247  0.2998  2.1167
  268SOL     OW  802   0.370   0.310   2.875  0.5132  0.5941  0.2597
  268SOL    HW1  803   0.472   0.309   2.865  2.8630 -0.1925 -2.7521
  268SOL    HW2  804   0.341   0.402   2.864  3.3347 -3.3565 -0.6243
  269SOL     OW  805   1.830   0.628   2.759 -0.8370  0.2236 -0.4689
  269SOL    HW1  806   1.854   0.724   2.786 -2.2773  0.8927 -0.9277
  269SOL    HW2  807   1.731   0.605   2.788 -1.7432 -0.6035  1.5082
  270SOL     OW  808   1.082   0.908   2.643  0.1722  0.0909 -0.1115
  270SOL    HW1  809   1.173   0.919   2.598  0.0057  0.9067 -1.0494
  270SOL    HW2  810   1.086   0.925   2.743  2.1313 -1.0889 -0.7587
  271SOL     OW  811   2.551   0.933   0.085 -0.2760  0.3165 -0.3374
  271SOL    HW1  812   2.612   0.990   0.027 -0.0561  0.3869  0.1961
  271SOL    HW2  813   2.558   0.838   0.055  0.5979  1.3870  1.8794
  272SOL     OW  814   2.585   2.023   2.810  0.2842  0.4384  0.9248
  272SOL    HW1  815   2.535   2.109   2.791 -2.0955  0.7082  0.6043
  272SOL    HW2  816   2.607   1.976   2.719 -2.4666 -1.2004 -2.4133
  273SOL     OW  817   2.519   0.612   2.903  0.7434  0.5297 -0.6327
  273SOL    HW1  818   2.435   0.554   2.898 -2.5411 -1.1200  1.6455
  273SOL    HW2  819   2.601   0.557   2.868 -1.0658  1.5778 -0.5390
  274SOL     OW  820   0.041   3.068   1.564  0.8213 -0.3202  0.2808
  274SOL    HW1  821   0.064   2.981   1.616 -1.1562 -0.3958  2.6644
  274SOL    HW2  822   0.093   0.017   1.608 -3.9197 -1.4177 -0.2690
  275SOL     OW  823   2.161   1.560   0.728 -0.3845 -0.1298  0.3038
  275SOL    HW1  824   2.110   1.472   0.746  1.2793 -0.1901  0.6698
  275SOL    HW2  825   2.189   1.564   0.630  0.8162 -2.1141  0.9383
  276SOL     OW  826   0.431   1.383   2.593 -0.3826  0.4733  0.3739
  276SOL    HW1  827   0.462   1.312   2.660  0.2446  0.6469 -2.1168
  276SOL    HW2  828   0.471   1.369   2.503  1.3017 -4.0319  2.1414
  277SOL     OW  829   1.701   2.563   1.926 -0.8453 -0.3815  0.1948
  277SOL    HW1  830   1.745   2.656   1.934  2.9888  1.0784 -0.4263
  277SOL    HW2  831   1.694   2.516   2.014 -0.1132  2.3212 -0.0654
  278SOL     OW  832   1.934   0.154   1.551 -0.2591  0.3516 -0.2213
  278SOL    HW1  833   1.894   0.058   1.569  2.4978 -2.8590  3.3883
  278SOL    HW2  834   1.908   0.189   1.458 -1.1170 -3.1071  2.3842
  279SOL     OW  835   1.555   1.321   0.048 -0.3077  0.4571 -0.3528
  279SOL    HW1  836   1.599   1.222   0.061  3.0861 -5.4266 -0.2049
  279SOL    HW2  837   1.600   1.366   3.092  0.9364 -0.0882 -0.1246
  280SOL     OW  838   0.729   1.658   1.123 -0.5104 -0.1835 -0.3075
  280SOL    HW1  839   0.701   1.646   1.026 -0.7195 -2.0845  2.4915
  280SOL    HW2  840   0.741   1.757   1.145 -1.3983  0.2947  2.8148
  281SOL     OW  841   3.072   0.013   2.475  0.0299  0.0180 -0.1473
  281SOL    HW1  842   3.004   3.095   2.539  1.1297 -0.8190  3.1679
  281SOL    HW2  843   3.018   0.080   2.418 -0.9628 -0.9711  0.8014
  282SOL     OW  844   0.286   1.065   1.519 -0.0033 -0.1183  0.3098
  282SOL    HW1  845   0.233   1.153   1.534  0.1222  0.6596  0.9178
  282SOL    HW2  846   0.228   0.990   1.477  0.8504  3.4458  0.4003
  283SOL     OW  847   1.751   2.307   2.851  0.1544  0.1854  0.1159
  283SOL    HW1  848   1.739   2.401   2.816 -1.2925  2.4989  3.1472
  283SOL    HW2  849   1.759   2.306   2.948  0.2207 -0.9649 -1.4568
  284SOL     OW  850   1.987   1.270   0.404 -0.1655  0.1594 -0.3671
  284SOL    HW1  851   1.926   1.347   0.368 -0.1966 -0.4803 -0.4401
  284SOL    HW2  852   2.053   1.245   0.332 -5.1420  2.1515 -0.2909
  285SOL     OW  853   2.969   0.228   3.049  0.6560 -0.1367 -0.3053
  285SOL    HW1  854   3.045   0.241   3.119  1.9841 -1.4691  0.1290
  285SOL    HW2  855   2.995   0.272   2.966  1.4820 -2.5248  2.4115
  286SOL     OW  856   1.843   3.028   1.558 -0.4212  0.0140 -0.0856
  286SOL    HW1  857   1.814   2.933   1.583  0.3754  3.0718  2.2462
  286SOL    HW2  858   1.897   3.025   1.472 -1.7485  3.1582 -0.1645
  287SOL     OW  859   0.873   0.943   1.300  0.2308 -0.1548  0.6443
  287SOL    HW1  860   0.866   0.851   1.342  0.6289  0.0163  1.5282
  287SOL    HW2  861   0.823   1.006   1.360  2.0192  0.1536  0.4297
  288SOL     OW  862   1.537   2.697   0.158 -0.9203 -0.0981  0.3764
  288SOL    HW1  863   1.581   2.698   0.066  1.1295 -1.0765  0.7054
  288SOL    HW2  864   1.490   2.609   0.177 -0.9721  1.9283 -1.9249
  289SOL     OW  865   3.017   1.716   0.018  0.0342 -0.2668  0.2193
  289SOL    HW1  866   3.068   1.797   3.114 -3.1373 -1.8622 -3.0346
  289SOL    HW2  867   2.945   1.690   3.073 -0.2212  3.0334  1.4441
  290SOL     OW  868   0.876   2.687   0.641 -0.9928  0.0073  0.6160
  290SOL    HW1  869   0.840   2.783   0.644 -1.7033 -1.9601  0.3200
  290SOL    HW2  870   0.974   2.680   0.648 -3.1780 -2.0203  0.1646
  291SOL     OW  871   2.061   2.370   2.988 -0.3102  0.5915  0.0714
  291SOL    HW1  872   2.053   2.272   2.958  1.6273 -0.8633 -1.0525
  291SOL    HW2  873   2.075   2.417   2.900  0.1465  0.5776 -1.0573
  292SOL     OW  874   0.914   1.291   1.931 -0.5526 -0.1641 -0.1010
  292SOL    HW1  875   0.980   1.211   1.911 -0.4911 -1.2726 -0.7184
  292SOL    HW2  876   0.910   1.364   1.860 -0.0673  2.2380 -0.2913
  293SOL     OW  877   2.449   2.724   1.145  0.2062  0.2642  0.0629
  293SOL    HW1  878   2.407   2.637   1.127  1.2450  0.8976  1.1857
  293SOL    HW2  879   2.548   2.714   1.171  2.0978  2.3446  1.5755
  294SOL     OW  880   3.049   0.407   2.529 -0.1179 -0.1929  0.7748
  294SOL    HW1  881   2.988   0.482   2.499  2.6024  0.5286 -2.2863
  294SOL    HW2  882   0.020   0.425   2.491  2.9796  0.5836  0.2877
  295SOL     OW  883   1.130   1.930   0.034  0.1228 -0.2219 -0.2113
  295SOL    HW1  884   1.069   1.927   3.081  0.0321 -1.0224  1.5318
  295SOL    HW2  885   1.153   2.029   0.048  1.0302 -1.2015  0.6934
  296SOL     OW  886   2.154   1.918   2.606  0.0299 -0.2776  0.0440
  296SOL    HW1  887   2.109   1.958   2.687  0.6883  0.6853 -0.7439
  296SOL    HW2  888   2.254   1.904   2.622  0.0007  0.2142  1.5699
  297SOL     OW  889   2.576   0.675   0.033  0.5056 -0.4163  0.0118
  297SOL    HW1  890   2.556   0.634   3.069  0.5077  0.8212  2.6942
  297SOL    HW2  891   2.554   0.607   0.104 -0.9397  2.0327  1.5263
  298SOL     OW  892   0.791   2.131   3.040 -0.3939 -0.5229  0.1184
  298SOL    HW1  893   0.805   2.080   2.953 -0.7724  0.2629  0.0103
  298SOL    HW2  894   0.707   2.193   3.040 -0.6396 -0.5257  1.9427
  299SOL     OW  895   1.415   2.868   2.456  0.2799 -0.6008 -0.1059
  299SOL    HW1  896   1.466   2.929   2.517 -0.3516 -3.1233 -1.8143
  299SOL    HW2  897   1.314   2.874   2.477 -1.0633  1.3088 -0.7333
  300SOL     OW  898   2.778   0.403   0.217  0.0523 -0.0096  0.6142
  300SOL    HW1  899   2.686   0.433   0.248 -2.1638 -1.2560  1.7902
  300SOL    HW2  900   2.790   0.428   0.117 -1.4887 -1.5499  0.9820
  301SOL     OW  901   1.089   1.279   1.675 -0.5442  0.3661 -0.7099
  301SOL    HW1  902   1.146   1.230   1.743 -2.6739 -2.3107 -2.8839
  301SOL    HW2  903   1.149   1.341   1.619 -1.7586 -0.4323 -1.3211
  302SOL     OW  904   0.059   2.249   0.116  0.0322  0.0587 -0.1668
  302SOL    HW1  905   0.086   2.216   0.211  3.3002 -1.4356  1.4519
  302SOL    HW2  906   3.104   2.314   0.116  1.8839  0.9589  1.2337
  303SOL     OW  907   3.004   2.818   2.858  0.4743 -0.1130 -0.2707
  303SOL    HW1  908   3.087   2.819   2.801 -3.0790 -1.6045 -1.7029
  303SOL    HW2  909   2.926   2.777   2.808  1.4865  0.3757 -2.5278
  304SOL     OW  910   2.637   0.758   2.080  0.3024  0.6221  0.0199
  304SOL    HW1  911   2.607   0.806   2.166  0.5863  0.6298  0.2932
  304SOL    HW2  912   2.563   0.717   2.031  1.4539  0.8282  0.5131
  305SOL     OW  913   0.668   2.682   2.156  0.2218 -0.1366 -0.9062
  305SOL    HW1  914   0.705   2.772   2.132 -1.0802 -1.4880  2.4025
  305SOL    HW2  915   0.657   2.674   2.261  1.5315  1.1398  3.2078
  306SOL     OW  916   2.612   1.079   1.560  0.0672 -0.7299  0.2278
  306SOL    HW1  917   2.602   1.009   1.487  1.1405 -0.7440  4.3585
  306SOL    HW2  918   2.571   1.055   1.648  1.5197  3.3723 -1.0159
  307SOL     OW  919   1.709   0.666   1.262  0.2536  0.2328 -0.0861
  307SOL    HW1  920   1.767   0.732   1.212  0.5701  1.2478 -0.5307
  307SOL    HW2  921   1.636   0.621   1.208  2.5429  1.0154 -0.7474
  308SOL     OW  922   2.577   1.825   1.191 -0.3065 -0.4392  0.2312
  308SOL    HW1  923   2.499   1.877   1.229  0.7279  0.3904  1.4657
  308SOL    HW2  924   2.616   1.863   1.103 -2.7671 -0.7166  0.4553
  309SOL     OW  925   2.368   1.566   1.630  0.3112 -0.6333 -0.3191
  309SOL    HW1  926   2.316   1.611   1.550  1.6824 -0.6460 -0.7212
  309SOL    HW2  927   2.414   1.480   1.600  1.1569 -1.1042 -2.6542
  310SOL     OW  928   2.859   1.651   2.923  0.0908 -0.8134  0.1358
  310SOL    HW1  929   2.928   1.694   2.862 -0.1680  2.2966  0.1055
  310SOL    HW2  930   2.773   1.627   2.875  0.7510  2.5353  0.3547
  311SOL     OW  931   2.213   2.123   2.856  0.1790 -0.0050  0.4856
  311SOL    HW1  932   2.126   2.119   2.804  0.5642  2.0712 -0.6621
  311SOL    HW2  933   2.288   2.164   2.800 -1.2662  0.3347  1.6538
  312SOL     OW  934   2.344   1.911   1.314 -0.6442 -0.4519 -0.7648
  312SOL    HW1  935   2.328   1.833   1.378 -1.2377 -0.5137  1.4965
  312SOL    HW2  936   2.387   1.988   1.360  0.5863  0.0270 -1.2297
  313SOL     OW  937   2.365   2.425   1.212  0.1388  0.2264 -0.1776
  313SOL    HW1  938   2.447   2.412   1.150 -0.2101  1.0030 -1.3670
  313SOL    HW2  939   2.383   2.384   1.304 -0.0896  0.4353 -3.3140
  314SOL     OW  940   0.985   2.252   0.545  0.5212 -0.0333 -0.5019
  314SOL    HW1  941   0.950   2.261   0.642  1.1360 -2.6914 -1.2099
  314SOL    HW2  942   0.918   2.201   0.483  0.4690  2.5340 -1.0760
  315SOL     OW  943   0.630   2.704   2.781 -0.5781  0.1297 -0.3920
  315SOL    HW1  944   0.644   2.606   2.777 -2.4174 -1.8908 -2.5766
  315SOL    HW2  945   0.715   2.758   2.780  0.4554  0.4027  1.4752
  316SOL     OW  946   0.086   0.517   0.363  0.2020 -0.1076 -0.6803
  316SOL    HW1  947   3.115   0.560   0.368 -0.1313  3.7150  1.0104
  316SOL    HW2  948   0.123   0.532   0.266  1.4121  0.1619  0.1244
  317SOL     OW  949   1.230   0.363   0.815 -0.3841  0.7008 -0.5873
  317SOL    HW1  950   1.264   0.341   0.909 -1.5342 -1.5002  1.9863
  317SOL    HW2  951   1.146   0.422   0.813 -1.0791  0.2056  1.3101
  318SOL     OW  952   3.076   2.465   0.575  0.0592  0.9181  1.0190
  318SOL    HW1  953   3.023   2.509   0.497 -0.4650  0.0853 -1.8786
  318SOL    HW2  954   3.016   2.434   0.655 -0.8039  0.8569  3.5379
  319SOL     OW  955   0.462   1.661   2.616 -0.3293 -0.5117 -0.2368
  319SOL    HW1  956   0.452   1.661   2.718  0.5760 -0.2725  2.0217
  319SOL    HW2  957   0.484   1.567   2.585  0.7933  1.8375 -0.6671
  320SOL     OW  958   0.787   2.729   2.440 -0.1065  0.0559 -0.4156
  320SOL    HW1  959   0.866   2.749   2.374  0.0496  0.5987 -0.9402
  320SOL    HW2  960   0.758   2.809   2.497  0.2276  0.4225 -0.0721
  321SOL     OW  961   1.292   2.882   0.085  0.0703 -0.2005  0.1541
  321SOL    HW1  962   1.362   2.825   0.128 -3.6267  1.6091 -0.2285
  321SOL    HW2  963   1.200   2.847   0.113 -2.5067 -0.4816  4.8463
  322SOL     OW  964   2.426   1.144   2.025 -0.8325 -0.0452  0.3977
  322SOL    HW1  965   2.511   1.190   2.065 -2.2528  3.2302 -0.5709
  322SOL    HW2  966   2.361   1.213   1.990 -1.3602  0.4138  1.5854
  323SOL     OW  967   2.393   0.620   0.445  0.2975 -0.3732 -0.2639
  323SOL    HW1  968   2.314   0.599   0.382 -0.0171 -0.9288 -1.0912
  323SOL    HW2  969   2.407   0.546   0.518  1.0166  0.7377  4.8858
  324SOL     OW  970   0.266   2.858   2.979  0.0622 -0.2862 -0.0961
  324SOL    HW1  971   0.196   2.853   2.906  0.4468 -1.1573 -0.4988
  324SOL    HW2  972   0.297   2.766   3.003 -0.0576  5.1228 -0.7071
  325SOL     OW  973   1.598   0.291   2.487 -0.3426  0.1940  0.1561
  325SOL    HW1  974   1.659   0.244   2.552 -2.6250 -0.5429 -0.4801
  325SOL    HW2  975   1.523   0.336   2.537  5.3456 -1.3993 -0.6895
  326SOL     OW  976   2.427   2.743   1.415 -0.9185  0.3026 -0.6022
  326SOL    HW1  977   2.334   2.768   1.439  3.6295 -0.6578 -1.8688
  326SOL    HW2  978   2.427   2.719   1.319 -0.3705 -0.5311  0.6915
  327SOL     OW  979   1.590   0.292   2.959 -0.2234  0.1204 -0.2273
  327SOL    HW1  980   1.512   0.242   3.000 -0.3926 -1.2335 -0.7525
  327SOL    HW2  981   1.670   0.290   3.021 -2.0260 -2.4987 -0.3723
  328SOL     OW  982   2.847   1.374   2.641  0.5847 -0.3811  0.3889
  328SOL    HW1  983   2.798   1.466   2.646  0.0139  0.5908  3.3987
  328SOL    HW2  984   2.947   1.385   2.629 -1.4127 -0.8017  0.7308
  329SOL     OW  985   1.508   2.974   1.830  0.7074  0.3489 -0.1686
  329SOL    HW1  986   1.492   3.011   1.739  0.2886 -2.3807  1.3436
  329SOL    HW2  987   1.485   2.872   1.834 -1.4599 -1.7230  1.6802
  330SOL     OW  988   2.543   1.372   1.544  0.2162 -0.1343  0.3192
  330SOL    HW1  989   2.573   1.274   1.539 -1.6170  1.6882 -0.1433
  330SOL    HW2  990   2.614   1.442   1.565 -2.1490 -0.8178  1.9675
  331SOL     OW  991   0.477   1.309   1.415 -0.3612 -0.5551  0.7040
  331SOL    HW1  992   0.497   1.392   1.358 -2.8012  0.1512  1.4618
  331SOL    HW2  993   0.402   1.264   1.366  0.5774  1.1019  4.2728
  332SOL     OW  994   0.865   0.250   1.395 -0.0135 -0.2468  0.3342
  332SOL    HW1  995   0.926   0.291   1.323 -1.2636  0.0245  1.2055
  332SOL    HW2  996   0.763   0.265   1.375  0.9293 -0.7877 -2.1063
  333SOL     OW  997   2.166   2.671   1.878 -0.1401 -0.2060 -0.1924
  333SOL    HW1  998   2.246   2.681   1.936  2.0261  2.5510 -1.7948
  333SOL    HW2  999   2.111   2.757   1.871  1.0841  0.7089  0.4201
  334SOL     OW 1000   1.211   1.446   1.489 -0.3644 -0.1982 -0.0292
  334SOL    HW1 1001   1.180   1.530   1.431 -0.0675  2.0396 -1.3704
  334SOL    HW2 1002   1.271   1.384   1.434 -1.2350 -0.7312 -1.3493
  335SOL     OW 1003   0.963   3.067   2.919 -0.3856  0.0551 -0.3243
  335SOL    HW1 1004   0.875   3.111   2.924  1.4056  1.1924 -0.3938
  335SOL    HW2 1005   0.970   2.998   2.844  1.5617 -1.3784  1.4058
  336SOL     OW 1006   3.098   2.650   2.223 -0.2113  0.1450 -0.1698
  336SOL    HW1 1007   3.076   2.730   2.164 -0.1584  0.2318  1.1837
  336SOL    HW2 1008   3.091   2.571   2.163  1.4947  0.7203  1.0192
  337SOL     OW 1009   2.649   1.508   0.595 -0.1515 -0.5108  0.0200
  337SOL    HW1 1010   2.596   1.597   0.610  0.3079  2.1207 -0.3051
  337SOL    HW2 1011   2.703   1.509   0.508  2.1069 -0.5055 -0.7979
  338SOL     OW 1012   1.022   2.056   1.216 -0.1374  0.4571  0.0751
  338SOL    HW1 1013   1.102   1.995   1.210 -2.0883 -0.4366  0.7790
  338SOL    HW2 1014   0.941   2.013   1.170 -0.3022 -0.5087 -2.0405
  339SOL     OW 1015   2.988   0.801   2.508 -0.1934  0.0302  0.5811
  339SOL    HW1 1016   2.921   0.729   2.509  1.4602  1.3697  0.2142
  339SOL    HW2 1017   3.080   0.760   2.515 -1.4529 -1.4208  0.6076
  340SOL     OW 1018   1.675   2.844   1.090  0.0609  0.1264  0.2672
  340SOL    HW1 1019   1.771   2.815   1.115 -1.1183  2.8428  1.1728
  340SOL    HW2 1020   1.647   2.786   1.015  2.7768  0.5096 -0.8307
  341SOL     OW 1021   1.818   1.826   0.794  0.2293 -0.1367  0.3960
  341SOL    HW1 1022   1.904   1.878   0.804  0.6383  0.5479 -2.6661
  341SOL    HW2 1023   1.814   1.755   0.866  1.0776 -1.0169  1.2343
  342SOL     OW 1024   0.467   1.338   1.004 -0.1201 -0.1579  0.5383
  342SOL    HW1 1025   0.405   1.399   0.957  0.9319 -2.2744  1.0508
  342SOL    HW2 1026   0.529   1.303   0.936 -2.6138  1.7116  0.8650
  343SOL     OW 1027   2.460   0.484   1.502 -0.1462  0.0782 -0.3094
  343SOL    HW1 1028   2.515   0.551   1.562  2.5514 -1.7282  2.6740
  343SOL    HW2 1029   2.371   0.526   1.482 -0.9941  1.4972  3.1786
  344SOL     OW 1030   2.261   2.551   0.603  0.0228  0.5741 -0.2012
  344SOL    HW1 1031   2.259   2.474   0.535  1.1581 -0.1188  0.7193
  344SOL    HW2 1032   2.337   2.536   0.669  1.2389  1.7739 -1.2982
  345SOL     OW 1033   3.052   2.348   2.673 -0.2130 -0.0952 -0.6277
  345SOL    HW1 1034   3.025   2.406   2.595  0.1756  0.3010 -1.2302
  345SOL    HW2 1035   0.013   2.300   2.644  1.0484 -0.0318  0.2590
  346SOL     OW 1036   3.029   0.868   0.683  0.1611 -0.0235  0.1916
  346SOL    HW1 1037   3.125   0.906   0.692  0.9934  3.7731  2.0230
  346SOL    HW2 1038   2.971   0.925   0.619 -0.8505  1.1807 -2.3572
  347SOL     OW 1039   1.942   2.791   1.174 -0.1518  0.9690  0.0430
  347SOL    HW1 1040   1.948   2.714   1.237  0.5561 -0.9591  0.2350
  347SOL    HW2 1041   2.000   2.768   1.095 -0.2276  2.5875  2.5283
  348SOL     OW 1042   1.484   1.612   2.177 -0.1282 -0.1361  0.0474
  348SOL    HW1 1043   1.507   1.518   2.207 -1.8589 -0.5125  0.4115
  348SOL    HW2 1044   1.510   1.636   2.082  3.0286 -1.0440  1.3032
  349SOL     OW 1045   2.159   1.256   2.201 -0.0633  0.1801 -0.0000
  349SOL    HW1 1046   2.091   1.270   2.274  1.6324 -1.3476  0.4277
  349SOL    HW2 1047   2.211   1.341   2.187 -0.9657 -0.6177 -0.1467
  350SOL     OW 1048   0.065   1.987   0.950 -0.2494  0.5666 -0.5286
  350SOL    HW1 1049   0.133   1.936   1.008 -0.8621  1.0269  0.1073
  350SOL    HW2 1050   0.070   2.084   0.972  1.0595 -3.2549 -2.3808
  351SOL     OW 1051   0.867   0.387   2.385  0.5962  0.2703 -0.3388
  351SOL    HW1 1052   0.920   0.438   2.453 -3.9091 -1.3815  2.1273
  351SOL    HW2 1053   0.869   0.430   2.292 -0.4895  1.0613  0.1009
  352SOL     OW 1054   0.601   2.800   1.840  0.4091  0.0260 -0.2573
  352SOL    HW1 1055   0.594   2.865   1.920 -0.4568  1.8413 -0.7698
  352SOL    HW2 1056   0.680   2.837   1.786 -2.0058 -2.4701  1.1517
  353SOL     OW 1057   0.492   1.457   2.319  0.7018  0.2032  0.0036
  353SOL    HW1 1058   0.483   1.367   2.273 -1.3750 -1.4270  1.5572
  353SOL    HW2 1059   0.468   1.540   2.259  1.5795  1.2640  0.9412
  354SOL     OW 1060   1.925   1.391   0.704  0.1852  0.1896 -0.0312
  354SOL    HW1 1061   1.842   1.451   0.702 -0.9205  0.7688 -0.7278
  354SOL    HW2 1062   1.952   1.363   0.610 -3.0414  0.2224 -1.6156
  355SOL     OW 1063   2.586   0.099   0.713 -0.1374  0.3510 -0.1000
  355SOL    HW1 1064   2.640   0.013   0.714 -1.0670  0.4605  1.1903
  355SOL    HW2 1065   2.626   0.170   0.783  2.6630  1.8490  3.2416
  356SOL     OW 1066   0.074   1.165   2.541  0.7282  0.5850  0.2837
  356SOL    HW1 1067   0.049   1.266   2.546 -0.0018  0.3882  0.3904
  356SOL    HW2 1068   0.147   1.150   2.470 -1.3306  0.6043 -1.7396
  357SOL     OW 1069   0.080   2.863   1.728  0.0204 -0.1262 -0.6801
  357SOL    HW1 1070   0.035   2.824   1.813  0.9808  0.4913  0.7812
  357SOL    HW2 1071   0.118   2.790   1.666  2.0869  0.9834  2.1428
  358SOL     OW 1072   3.121   1.425   2.597 -0.8203 -0.3830  0.1124
  358SOL    HW1 1073   0.063   1.443   2.671 -2.0900  0.6783  4.0171
  358SOL    HW2 1074   3.078   1.509   2.554  1.1392  0.2832  0.5719
  359SOL     OW 1075   2.506   2.513   2.838 -0.6565  0.2918 -0.5486
  359SOL    HW1 1076   2.597   2.523   2.883 -1.6516 -1.5720  1.0691
  359SOL    HW2 1077   2.427   2.541   2.896  0.9291  0.2860  0.0258
  360SOL     OW 1078   1.440   1.362   1.189  0.6301 -0.2969 -1.0670
  360SOL    HW1 1079   1.489   1.291   1.143  0.8292  4.3253 -0.1956
  360SOL    HW2 1080   1.402   1.423   1.119  0.4346 -2.2166  1.1094
  361SOL     OW 1081   2.091   2.437   1.137 -0.0350  0.3045 -0.4414
  361SOL    HW1 1082   2.172   2.454   1.197 -0.9640  0.2843 -2.0911
  361SOL    HW2 1083   2.091   2.505   1.065 -1.7564 -0.1495  0.0985
  362SOL     OW 1084   1.471   1.550   1.008 -0.1375  0.2359  0.1360
  362SOL    HW1 1085   1.571   1.555   1.021  1.5385  0.5509 -1.7100
  362SOL    HW2 1086   1.451   1.601   0.921 -1.0220  1.4789 -1.7144
  363SOL     OW 1087   2.784   2.035   0.255  0.0467  0.6036  0.3053
  363SOL    HW1 1088   2.830   2.030   0.158  0.2341  0.8309 -2.5428
  363SOL    HW2 1089   2.830   2.095   0.325  1.6497  0.2527  1.0281
  364SOL     OW 1090   2.352   0.333   1.717  0.5721 -0.6291 -0.6305
  364SOL    HW1 1091   2.403   0.377   1.642  0.0079 -0.7571  1.1953
  364SOL    HW2 1092   2.292   0.260   1.682  3.4444 -0.8236  2.9195
  365SOL     OW 1093   2.935   2.547   1.565 -0.4069  0.4008 -0.6582
  365SOL    HW1 1094   2.929   2.508   1.658  1.4190  1.6392  0.4314
  365SOL    HW2 1095   3.021   2.510   1.522  1.3882  0.4397 -1.8486
  366SOL     OW 1096   3.080   1.258   3.101  0.3746 -0.2065 -0.3411
  366SOL    HW1 1097   2.999   1.286   3.042 -1.0864  1.2313  0.7819
  366SOL    HW2 1098   3.052   1.167   0.021 -0.7452 -0.8911 -0.2236
  367SOL     OW 1099   2.306   2.627   2.978 -0.8267  0.6461 -0.0957
  367SOL    HW1 1100   2.221   2.652   2.920  1.1785  1.5361 -0.2964
  367SOL    HW2 1101   2.319   2.673   3.069  1.6398 -3.0858 -0.8531
  368SOL     OW 1102   0.031   1.831   1.364 -0.2849 -0.7809 -0.3574
  368SOL    HW1 1103   0.092   1.908   1.389 -3.2357 -3.8619 -1.5345
  368SOL    HW2 1104   3.064   1.873   1.338 -0.2009 -1.6059 -1.7007
  369SOL     OW 1105   0.417   0.105   0.634 -0.0259 -0.0008  0.0023
  369SOL    HW1 1106   0.411   0.152   0.730 -2.5276 -0.5437  4.8966
  369SOL    HW2 1107   0.397   0.171   0.558 -1.4967 -3.3665  1.2482
  370SOL     OW 1108   0.854   0.393   0.943 -0.0713 -0.1602  0.0061
  370SOL    HW1 1109   0.772   0.441   0.985 -0.2033 -3.9221 -1.2771
  370SOL    HW2 1110   0.917   0.464   0.896 -4.0413  4.0289  0.3039
  371SOL     OW 1111   2.418   1.577   0.141 -0.2184 -0.1104 -0.1964
  371SOL    HW1 1112   2.476   1.505   0.185 -0.0025 -0.8770 -0.0547
  371SOL    HW2 1113   2.462   1.615   0.057  0.9594 -2.6840  0.2567
  372SOL     OW 1114   0.281   0.875   2.630  0.0852 -0.5594  0.3786
  372SOL    HW1 1115   0.307   0.867   2.729  2.7746  3.2517  1.9832
  372SOL    HW2 1116   0.333   0.946   2.581 -1.4709 -2.1326  0.4330
  373SOL     OW 1117   3.008   0.841   0.310  0.4741  0.4945  0.2177
  373SOL    HW1 1118   2.940   0.886   0.372 -0.9053 -1.1387  1.4365
  373SOL    HW2 1119   3.002   0.741   0.315 -0.5450 -1.7071 -0.1795
  374SOL     OW 1120   0.601   2.299   3.003  0.1980 -0.2689  0.1390
  374SOL    HW1 1121   0.602   2.386   3.063  1.1985  2.1166  1.2575
  374SOL    HW2 1122   0.610   2.328   2.905  1.4182 -1.6014  1.5494
  375SOL     OW 1123   1.351   0.399   0.120  0.4130 -0.4882 -0.0931
  375SOL    HW1 1124   1.286   0.453   0.056  0.2037  0.3250 -2.7662
  375SOL    HW2 1125   1.318   0.392   0.220 -0.6204  2.4702  0.2681
  376SOL     OW 1126   3.110   2.789   1.988  0.1534  0.9062  0.2336
  376SOL    HW1 1127   3.106   2.890   2.005  0.7717 -2.8554  1.6036
  376SOL    HW2 1128   0.081   2.746   1.994 -3.5175 -2.9142  0.7213
  377SOL     OW 1129   2.933   2.067   2.632  0.3030 -0.6897  0.7691
  377SOL    HW1 1130   2.904   2.165   2.632  1.8707  0.8025 -1.0874
  377SOL    HW2 1131   3.031   2.059   2.640 -2.8766  1.2431  0.3882
  378SOL     OW 1132   1.583   0.754   0.683 -0.6490  0.6432 -0.2512
  378SOL    HW1 1133   1.502   0.764   0.622 -1.1475 -2.3784  0.5772
  378SOL    HW2 1134   1.620   0.844   0.713  0.3116 -0.9658  1.5685
  379SOL     OW 1135   1.400   1.140   0.402  0.0328 -0.4552 -0.2797
  379SOL    HW1 1136   1.382   1.231   0.357  2.0773  2.0979 -2.5095
  379SOL    HW2 1137   1.375   1.147   0.501  0.8616  2.0087 -0.2155
  380SOL     OW 1138   2.144   2.267   2.087  0.0360 -0.3543  0.2530
  380SOL    HW1 1139   2.158   2.365   2.103 -0.9623 -1.6214  0.3291
  380SOL    HW2 1140   2.094   2.218   2.161  2.2631 -0.4601 -2.4481
  381SOL     OW 1141   0.280   1.008   2.149  0.5070  0.5320 -0.0301
  381SOL    HW1 1142   0.239   1.027   2.055  0.2685  0.3471 -2.7170
  381SOL    HW2 1143   0.235   0.928   2.196  1.8121 -1.7635  0.8640
  382SOL     OW 1144   2.991   2.448   0.072 -0.1109 -0.0049  0.0445
  382SOL    HW1 1145   2.939   2.437   3.113  2.5446  1.7429  4.7772
  382SOL    HW2 1146   3.083   2.490   0.045  0.0388 -0.2208  0.8940
  383SOL     OW 1147   1.566   1.141   2.105  0.3524  0.2507  0.0330
  383SOL    HW1 1148   1.542   1.081   2.022  2.0290 -2.5921  1.8355
  383SOL    HW2 1149   1.658   1.184   2.090 -0.2175 -0.2605  1.3103
  384SOL     OW 1150   0.792   2.371   2.555 -0.1182  0.0662 -0.7058
  384SOL    HW1 1151   0.760   2.337   2.461  1.1746 -0.4116 -1.1468
  384SOL    HW2 1152   0.834   2.295   2.612  0.8274 -1.3948  0.0545
  385SOL     OW 1153   2.835   1.948   0.573  0.0007 -0.1402 -0.4213
  385SOL    HW1 1154   2.731   1.943   0.561 -0.2385 -2.4588  0.4356
  385SOL    HW2 1155   2.873   1.897   0.656  0.4070 -0.1389  1.6345
  386SOL     OW 1156   1.182   1.009   0.221  0.2130  0.2403 -0.1841
  386SOL    HW1 1157   1.213   1.082   0.154  0.6754 -0.0696  1.1108
  386SOL    HW2 1158   1.249   1.002   0.293 -0.7236 -0.7215  0.8938
  387SOL     OW 1159   2.991   0.471   1.547  0.1231  0.3727  0.1766
  387SOL    HW1 1160   3.048   0.549   1.569 -0.8331 -4.2304  1.1873
  387SOL    HW2 1161   3.041   0.391   1.507 -1.6076 -0.0779  0.6864
  388SOL     OW 1162   2.870   0.855   1.368 -0.4214 -0.1670  0.9080
  388SOL    HW1 1163   2.943   0.931   1.377  1.1191 -0.4483 -0.4141
  388SOL    HW2 1164   2.906   0.777   1.306  1.6119 -0.7507 -0.4965
  389SOL     OW 1165   1.743   1.295   2.690 -0.2132 -0.6195  0.0292
  389SOL    HW1 1166   1.720   1.245   2.607  1.0496 -0.1984 -0.6585
  389SOL    HW2 1167   1.681   1.370   2.719 -2.8909 -2.5735 -1.4768
  390SOL     OW 1168   1.959   2.123   0.296 -0.1398  0.6314  0.0160
  390SOL    HW1 1169   1.957   2.198   0.368 -3.1612  2.2026  0.7347
  390SOL    HW2 1170   2.055   2.110   0.256 -0.0547 -1.8946 -2.0046
  391SOL     OW 1171   1.232   2.365   0.935  0.4299 -0.2161  0.1078
  391SOL    HW1 1172   1.269   2.389   0.845 -0.0670  0.2088 -0.6048
  391SOL    HW2 1173   1.134   2.388   0.948  0.2512  2.9706  2.0919
  392SOL     OW 1174   2.600   2.672   1.617 -0.1378 -0.3043 -0.3711
  392SOL    HW1 1175   2.686   2.697   1.566  0.7154  1.9720  0.0441
  392SOL    HW2 1176   2.519   2.694   1.554 -4.4607 -0.3518 -1.2470
  393SOL     OW 1177   1.792   2.539   2.361  0.0231 -0.5611  0.4396
  393SOL    HW1 1178   1.741   2.495   2.282  1.8544  2.0507  1.6842
  393SOL    HW2 1179   1.730   2.565   2.439 -0.7383 -1.5609  0.7627
  394SOL     OW 1180   0.400   2.816   2.417 -0.3839 -0.2708  0.0651
  394SOL    HW1 1181   0.448   2.886   2.361  0.5381 -1.1854 -0.7155
  394SOL    HW2 1182   0.314   2.859   2.453 -1.3903  2.0115 -3.1623
  395SOL     OW 1183   0.506   0.984   1.367  0.0529  0.6987  0.3671
  395SOL    HW1 1184   0.429   1.010   1.429  1.8160 -0.3051  2.8296
  395SOL    HW2 1185   0.506   1.038   1.283  0.0258 -1.0587  0.9576
  396SOL     OW 1186   1.964   1.209   2.431  0.3757 -0.1486 -0.1982
  396SOL    HW1 1187   1.901   1.129   2.442  0.6213 -1.7221 -0.0106
  396SOL    HW2 1188   2.033   1.203   2.505 -0.7076  2.5201 -0.4688
  397SOL     OW 1189   2.783   0.503   2.809  0.1056 -0.3827  0.6994
  397SOL    HW1 1190   2.856   0.540   2.747  1.8127  0.4629  0.1706
  397SOL    HW2 1191   2.741   0.421   2.758 -0.7137 -2.6351 -1.7430
  398SOL     OW 1192   1.886   2.901   0.470 -0.3500  0.2892 -0.2317
  398SOL    HW1 1193   1.978   2.860   0.456  3.1550 -0.5734  0.0191
  398SOL    HW2 1194   1.891   3.003   0.453  0.2276 -0.3413  0.2885
  399SOL     OW 1195   2.376   2.711   2.049  0.4605 -0.0124 -0.2114
  399SOL    HW1 1196   2.363   2.623   2.084  2.0463  5.3320 -0.5627
  399SOL    HW2 1197   2.386   2.779   2.120 -0.5415 -0.9715 -4.2713
  400SOL     OW 1198   3.091   2.204   2.240  0.3847 -0.0800  0.6268
  400SOL    HW1 1199   3.070   2.156   2.150  1.3342 -3.4968 -0.1488
  400SOL    HW2 1200   0.060   2.195   2.272 -2.4358 -1.4982  1.2999
  401SOL     OW 1201   0.503   0.418   0.495  0.6458  0.3164  0.3030
  401SOL    HW1 1202   0.431   0.350   0.472  0.8501 -0.0977  0.4850
  401SOL    HW2 1203   0.470   0.486   0.567 -0.2735 -0.0085 -0.3140
  402SOL     OW 1204   0.775   2.929   2.154 -0.3921  0.1825 -0.0595
  402SOL    HW1 1205   0.865   2.896   2.173 -2.3398 -0.3081 -0.4524
  402SOL    HW2 1206   0.773   3.007   2.089  1.5298  0.2828 -0.2968
  403SOL     OW 1207   0.282   1.353   2.018  0.1216  0.0142 -0.4231
  403SOL    HW1 1208   0.349   1.278   2.004  0.0714 -3.0114 -0.0799
  403SOL    HW2 1209   0.289   1.384   2.114 -2.5354  1.0948 -1.3388
  404SOL     OW 1210   2.842   2.309   2.316 -0.7601 -0.6156  0.2445
  404SOL    HW1 1211   2.934   2.267   2.295  0.5905 -1.4894  1.0425
  404SOL    HW2 1212   2.774   2.240   2.331  3.7562  1.3850 -3.1150
  405SOL     OW 1213   2.574   0.086   2.643 -0.0743  0.0321  0.0817
  405SOL    HW1 1214   2.515   0.122   2.719  0.0173 -0.6843  0.4195
  405SOL    HW2 1215   2.513   0.044   2.572 -4.3693 -2.8194 -2.3615
  406SOL     OW 1216   1.607   2.162   0.168  0.0678 -0.5923  1.0899
  406SOL    HW1 1217   1.515   2.206   0.149 -3.0827  2.0583  0.6766
  406SOL    HW2 1218   1.597   2.080   0.227  0.7187  1.4220 -2.2560
  407SOL     OW 1219   1.815   1.461   0.298  0.3499 -0.4121  0.0855
  407SOL    HW1 1220   1.824   1.548   0.244  0.2947 -1.4575  3.3209
  407SOL    HW2 1221   1.729   1.466   0.352  0.7232 -0.4750  0.4495
  408SOL     OW 1222   0.120   0.776   2.235  0.2146 -0.1383  0.1122
  408SOL    HW1 1223   0.068   0.726   2.165 -0.4011  3.7881  2.6153
  408SOL    HW2 1224   0.091   0.753   2.329 -0.1327 -2.2432  1.3527
  409SOL     OW 1225   2.781   1.430   3.065  0.3782  0.8596  0.0159
  409SOL    HW1 1226   2.828   1.513   3.033  1.7183 -0.9253  0.8147
  409SOL    HW2 1227   2.798   1.350   3.004 -0.8436 -0.7390 -1.7312
  410SOL     OW 1228   2.886   1.484   1.191 -0.0218  0.0711 -0.1204
  410SOL    HW1 1229   2.856   1.475   1.095  2.0059  2.7564  2.0344
  410SOL    HW2 1230   2.983   1.517   1.198  1.6873 -2.0844 -1.6747
  411SOL     OW 1231   2.949   0.577   0.366  0.4315 -0.0155  0.4444
  411SOL    HW1 1232   2.892   0.508   0.309  1.8578  0.0239 -0.1569
  411SOL    HW2 1233   2.929   0.574   0.463  0.1200 -0.2792 -1.5185
  412SOL     OW 1234   1.623   0.091   0.374 -0.6186 -0.3019  0.0478
  412SOL    HW1 1235   1.709   0.034   0.400  0.8895  0.9143  1.0066
  412SOL    HW2 1236   1.549   0.033   0.336  0.3026  2.1618 -1.5189
  413SOL     OW 1237   1.380   0.316   1.797 -0.7093  0.0381  0.4117
  413SOL    HW1 1238   1.404   0.379   1.877  1.9583  3.9186  1.5028
  413SOL    HW2 1239   1.456   0.249   1.789 -0.4048  1.1538  0.6588
  414SOL     OW 1240   0.381   0.972   0.297  0.0483  0.1330 -0.3009
  414SOL    HW1 1241   0.281   0.991   0.329  0.9400 -0.6156 -4.0183
  414SOL    HW2 1242   0.403   1.041   0.227 -0.4203 -0.7131  1.1750
  415SOL     OW 1243   2.851   0.971   0.480  0.1566 -0.5851 -0.4968
  415SOL    HW1 1244   2.761   0.981   0.438  1.3772  0.1271 -1.3232
  415SOL    HW2 1245   2.870   1.060   0.533 -2.3563  0.5739 -1.0251
  416SOL     OW 1246   2.320   0.814   0.221  0.2055  0.8676 -0.1050
  416SOL    HW1 1247   2.271   0.762   0.148 -2.4163 -0.1799  0.7010
  416SOL    HW2 1248   2.401   0.866   0.190 -1.2915  1.1754 -0.1610
  417SOL     OW 1249   2.796   2.695   3.122  0.2244 -0.1093  0.2259
  417SOL    HW1 1250   2.887   2.742   3.121 -0.5379  0.5469 -0.5885
  417SOL    HW2 1251   2.772   2.663   0.088 -1.2286  0.5371 -0.3642
  418SOL     OW 1252   2.831   0.806   0.055 -0.6528 -0.2820 -0.0030
  418SOL    HW1 1253   2.856   0.817   0.155  0.8860 -0.3614 -0.3435
  418SOL    HW2 1254   2.744   0.748   0.043 -0.8322  0.5058 -0.9095
  419SOL     OW 1255   0.793   0.414   0.526  0.3574  0.4227  0.2241
  419SOL    HW1 1256   0.690   0.403   0.504 -1.9161  0.2046  0.9953
  419SOL    HW2 1257   0.814   0.342   0.598 -0.8414 -1.0115  1.1491
  420SOL     OW 1258   0.479   0.879   0.725  0.3869  0.4721 -0.2026
  420SOL    HW1 1259   0.390   0.924   0.704  0.3023  0.6911 -1.5463
  420SOL    HW2 1260   0.507   0.879   0.827  0.9515 -2.0763  0.1927
  421SOL     OW 1261   0.398   1.786   0.492 -0.0480  0.7757 -0.4628
  421SOL    HW1 1262   0.497   1.821   0.487  1.3259  2.7187 -0.6869
  421SOL    HW2 1263   0.337   1.866   0.475 -0.0568  2.9909  0.9429
  422SOL     OW 1264   2.742   0.195   1.718  0.1107 -0.5202  0.1569
  422SOL    HW1 1265   2.761   0.103   1.757 -1.5427 -0.0435  1.7487
  422SOL    HW2 1266   2.776   0.200   1.620  2.3904 -0.9187 -0.2940
  423SOL     OW 1267   2.076   1.805   0.069  0.2029  0.1036 -0.1457
  423SOL    HW1 1268   2.143   1.828   0.141 -1.6514 -1.5175 -1.9182
  423SOL    HW2 1269   2.112   1.824   3.102 -3.3477 -2.0108  0.0340
  424SOL     OW 1270   1.569   1.542   2.798 -0.5411 -0.9537  0.1423
  424SOL    HW1 1271   1.577   1.646   2.799  0.7877 -0.4956  0.6970
  424SOL    HW2 1272   1.620   1.515   2.884  1.9521  1.3729  1.6466
  425SOL     OW 1273   0.439   2.983   2.004  0.1984 -0.0581 -0.2062
  425SOL    HW1 1274   0.379   2.902   2.011 -1.6227  0.3939  0.3277
  425SOL    HW2 1275   0.419   3.027   1.915  0.3738  0.4659  0.7628
  426SOL     OW 1276   2.269   2.938   0.078  0.2360 -0.3503  0.0774
  426SOL    HW1 1277   2.216   3.016   0.125  0.3255  1.0819  0.5849
  426SOL    HW2 1278   2.210   2.906   0.002  1.8574  0.2342  1.6313
  427SOL     OW 1279   0.358   1.676   2.212  0.1085  0.4280  0.0058
  427SOL    HW1 1280   0.428   1.744   2.204 -0.4467 -0.8026 -0.4996
  427SOL    HW2 1281   0.315   1.683   2.304 -0.3213  0.9773 -1.7605
  428SOL     OW 1282   2.148   1.503   2.640 -0.6964  0.4925 -0.2374
  428SOL    HW1 1283   2.092   1.496   2.555 -1.5270  0.7097 -3.0547
  428SOL    HW2 1284   2.161   1.412   2.683 -1.0971  1.4985  1.9975
  429SOL     OW 1285   2.699   2.912   0.699  0.0448  0.2251  0.3904
  429SOL    HW1 1286   2.782   2.949   0.652 -2.9503 -0.0528  1.1308
  429SOL    HW2 1287   2.644   2.850   0.639  0.6514 -0.0467  0.2104
  430SOL     OW 1288   1.803   2.064   2.079 -0.8479 -0.1004 -0.8570
  430SOL    HW1 1289   1.833   1.967   2.053 -1.1812  3.1626 -0.8848
  430SOL    HW2 1290   1.820   2.131   2.003  2.0805 -0.4526 -1.2444
  431SOL     OW 1291   2.945   1.851   2.089 -0.1718  0.3897 -0.0681
  431SOL    HW1 1292   2.868   1.898   2.139  2.3362  0.6575 -0.9110
  431SOL    HW2 1293   2.908   1.826   1.998 -1.2659  0.4876  2.0574
  432SOL     OW 1294   1.014   2.448   2.265  1.0948 -0.0323  0.2977
  432SOL    HW1 1295   0.923   2.450   2.317 -4.0457 -0.8049  1.1530
  432SOL    HW2 1296   1.045   2.352   2.245 -0.7447 -0.2237 -1.8507
  433SOL     OW 1297   0.980   2.860   0.930  0.0370 -0.1717  0.0913
  433SOL    HW1 1298   0.936   2.904   0.847  1.8106 -0.9879  0.5539
  433SOL    HW2 1299   1.076   2.828   0.910  4.1019  1.4028 -3.0307
  434SOL     OW 1300   0.233   2.231   2.310  0.1090  0.0626 -0.0288
  434SOL    HW1 1301   0.262   2.132   2.296 -0.9156 -0.3389 -1.7848
  434SOL    HW2 1302   0.266   2.284   2.232  0.3260 -0.2740 -0.1032
  435SOL     OW 1303   0.328   1.326   0.623  0.1499 -0.4440  0.3367
  435SOL    HW1 1304   0.371   1.244   0.590 -1.0004  1.0987  0.2963
  435SOL    HW2 1305   0.332   1.395   0.547 -0.1502 -0.8329 -0.6789
  436SOL     OW 1306   0.440   1.946   1.769 -0.2670 -0.2065  0.0688
  436SOL    HW1 1307   0.530   1.904   1.756 -2.0638 -0.6967  2.1380
  436SOL    HW2 1308   0.427   2.033   1.720 -2.3561 -2.8922  1.4938
  437SOL     OW 1309   1.235   0.372   0.373  0.1589 -0.3569  0.4788
  437SOL    HW1 1310   1.238   0.274   0.397  0.0614  0.0048  1.4981
  437SOL    HW2 1311   1.140   0.410   0.349  0.0659  1.4826  0.0380
  438SOL     OW 1312   0.864   1.833   0.699  0.0762 -0.1070 -0.5947
  438SOL    HW1 1313   0.852   1.733   0.693 -0.9315 -0.5445  3.5554
  438SOL    HW2 1314   0.959   1.852   0.728  0.1798 -2.0954  0.0626
  439SOL     OW 1315   1.407   2.221   1.791  0.3535 -0.0181 -0.6701
  439SOL    HW1 1316   1.340   2.224   1.714  3.0917 -2.5992 -0.0055
  439SOL    HW2 1317   1.423   2.125   1.828  1.6069  1.2144  0.5096
  440SOL     OW 1318   1.621   0.104   1.310 -0.1209  0.2413 -0.0663
  440SOL    HW1 1319   1.583   0.088   1.403  0.5461  0.4950 -1.5183
  440SOL    HW2 1320   1.717   0.145   1.318 -0.1281 -2.5160  1.6159
  441SOL     OW 1321   0.539   3.104   1.244 -0.0071  0.2563  0.0578
  441SOL    HW1 1322   0.552   0.071   1.289 -2.2399  0.1060  0.0389
  441SOL    HW2 1323   0.606   3.040   1.284  1.0325  2.6102 -0.0245
  442SOL     OW 1324   2.473   2.035   0.589 -0.4823  0.1139 -0.1899
  442SOL    HW1 1325   2.374   2.054   0.592  0.6130 -1.0660 -1.6181
  442SOL    HW2 1326   2.531   2.119   0.581  1.1302  0.0300 -1.4199
  443SOL     OW 1327   2.497   0.399   2.404  0.1453 -0.0161 -0.2143
  443SOL    HW1 1328   2.489   0.473   2.474  0.0673  0.3365 -0.1913
  443SOL    HW2 1329   2.575   0.426   2.343 -1.2175  0.5121  1.6188
  444SOL     OW 1330   1.885   1.510   2.363  0.2518  0.4218 -0.1500
  444SOL    HW1 1331   1.801   1.552   2.406 -1.1259  2.0928 -0.5247
  444SOL    HW2 1332   1.890   1.411   2.390  1.7109 -0.7716 -0.0002
  445SOL     OW 1333   2.637   2.104   1.691  0.6689 -0.2312  0.9307
  445SOL    HW1 1334   2.597   2.093   1.781  0.0957 -1.4727 -1.4467
  445SOL    HW2 1335   2.735   2.082   1.691  0.6178  1.0236  0.1841
  446SOL     OW 1336   0.215   0.945   0.673 -0.1542  0.2386  0.3236
  446SOL    HW1 1337   0.229   0.868   0.606 -0.4549 -0.9077 -0.4028
  446SOL    HW2 1338   0.177   1.025   0.625 -2.0582  0.1127  1.1870
  447SOL     OW 1339   0.669   1.658   0.852 -0.4104 -0.3284  0.0594
  447SOL    HW1 1340   0.653   1.576   0.797  1.7778  0.7350  1.5056
  447SOL    HW2 1341   0.587   1.716   0.852  0.0446 -0.2177  2.4544
  448SOL     OW 1342   1.177   1.158   1.931 -0.3009  0.3670 -0.3218
  448SOL    HW1 1343   1.248   1.235   1.918 -2.7287  2.5471 -3.8521
  448SOL    HW2 1344   1.210   1.065   1.909 -1.6708 -1.0745 -2.6472
  449SOL     OW 1345   0.341   1.491   0.024  0.1195 -0.7800  0.2595
  449SOL    HW1 1346   0.292   1.401   0.029 -1.7688  0.7462 -2.5838
  449SOL    HW2 1347   0.274   1.570   0.030  0.1238  0.4687  2.1959
  450SOL     OW 1348   2.639   2.392   2.034 -0.3704 -0.0215  0.1075
  450SOL    HW1 1349   2.614   2.474   1.977 -1.5137  0.7141 -1.3633
  450SOL    HW2 1350   2.647   2.423   2.132  1.4989 -0.6224 -0.6422
  451SOL     OW 1351   2.152   0.373   2.263 -0.0305  0.0169 -0.3226
  451SOL    HW1 1352   2.108   0.279   2.275  1.6088  1.4125 -1.6369
  451SOL    HW2 1353   2.155   0.396   2.165 -1.4425 -2.8863  1.1560
  452SOL     OW 1354   0.881   2.962   1.173  0.3131 -0.2057  0.0601
  452SOL    HW1 1355   0.941   2.905   1.112 -1.1874 -1.4049 -2.8228
  452SOL    HW2 1356   0.930   3.026   1.236 -2.2983 -2.9039  0.5159
  453SOL     OW 1357   1.176   1.272   1.117  0.1759 -1.4839 -0.3606
  453SOL    HW1 1358   1.258   1.287   1.175 -0.6158  0.0376 -1.2405
  453SOL    HW2 1359   1.110   1.354   1.125 -3.1058  0.6504 -0.6419
  454SOL     OW 1360   0.080   1.141   1.052 -0.2492  0.5306 -0.0525
  454SOL    HW1 1361   0.102   1.215   1.117 -0.2889 -1.5754  2.5843
  454SOL    HW2 1362   0.072   1.180   0.958 -1.5061  1.0391 -1.1754
  455SOL     OW 1363   3.102   2.815   0.273  0.1188  0.2007  0.0965
  455SOL    HW1 1364   3.070   2.816   0.177 -0.3249 -3.2778  0.1329
  455SOL    HW2 1365   0.065   2.869   0.286  2.6707  0.5564  0.2032
  456SOL     OW 1366   2.427   2.377   0.765 -0.2565  0.3287 -0.6275
  456SOL    HW1 1367   2.353   2.310   0.782  3.3661  0.0446 -0.9300
  456SOL    HW2 1368   2.515   2.330   0.739 -1.2596  0.8011  1.7074
  457SOL     OW 1369   1.392   0.140   0.005 -0.2964 -0.0550 -0.5587
  457SOL    HW1 1370   1.425   0.072   0.073 -0.2760 -0.5584 -0.0212
  457SOL    HW2 1371   1.383   0.231   0.048  0.4978 -0.5613 -1.0165
  458SOL     OW 1372   2.925   2.651   0.417 -0.5023 -0.6322  0.6289
  458SOL    HW1 1373   2.982   2.728   0.381 -0.1793 -0.2172 -0.4728
  458SOL    HW2 1374   2.871   2.609   0.342  0.8155 -0.3987 -1.2498
  459SOL     OW 1375   2.288   0.299   2.562 -0.5695 -0.9368  0.8968
  459SOL    HW1 1376   2.299   0.370   2.632  1.3034 -0.1778  0.8019
  459SOL    HW2 1377   2.355   0.308   2.486 -0.7235  1.1608 -1.4579
  460SOL     OW 1378   0.052   0.268   0.101 -0.3270  0.0607 -0.3374
  460SOL    HW1 1379   0.062   0.358   0.143  2.6231  0.3740  2.3032
  460SOL    HW2 1380   3.112   0.209   0.155  0.0660 -1.9785 -1.0336
  461SOL     OW 1381   0.443   1.689   1.381  0.3823 -0.1804  0.5437
  461SOL    HW1 1382   0.390   1.659   1.461 -1.2339 -0.4123 -0.4966
  461SOL    HW2 1383   0.435   1.622   1.306  0.5600  0.8140 -1.2341
  462SOL     OW 1384   2.918   2.961   1.485 -0.0215  0.4404  0.5291
  462SOL    HW1 1385   3.009   3.000   1.510 -0.3752 -1.3003 -1.9880
  462SOL    HW2 1386   2.870   2.935   1.572 -1.9358 -1.6674 -0.7103
  463SOL     OW 1387   2.743   1.070   3.052  0.2543  0.7431  0.0705
  463SOL    HW1 1388   2.762   0.972   3.027  2.3436  0.9322  0.2055
  463SOL    HW2 1389   2.780   1.134   2.980  2.1225  2.4319 -1.1272
  464SOL     OW 1390   0.215   2.450   1.339  0.7045 -0.3305 -0.3284
  464SOL    HW1 1391   0.229   2.369   1.282  0.4161  0.3127 -0.5530
  464SOL    HW2 1392   0.306   2.483   1.374  2.3625 -0.1840  0.3049
  465SOL     OW 1393   0.422   0.603   0.681 -0.6402  0.0566 -0.1263
  465SOL    HW1 1394   0.334   0.637   0.639 -3.5793  1.8030 -2.9090
  465SOL    HW2 1395   0.463   0.684   0.736  2.7271  3.3032  0.2658
  466SOL     OW 1396   1.380   0.000   2.095 -0.1649  0.6895 -0.0637
  466SOL    HW1 1397   1.406   3.024   2.111 -0.7974  0.5476  1.2643
  466SOL    HW2 1398   1.392   0.051   2.183 -0.3481 -0.6652  0.7656
  467SOL     OW 1399   0.865   0.486   2.129  0.3486 -0.5510  0.3314
  467SOL    HW1 1400   0.814   0.451   2.045 -0.4742  0.4137 -4.4724
  467SOL    HW2 1401   0.814   0.562   2.175  0.2832  0.0037  0.3945
  468SOL     OW 1402   0.271   1.162   2.360 -0.3630  0.3355 -0.2261
  468SOL    HW1 1403   0.227   1.254   2.346 -0.1579 -0.4066  1.1211
  468SOL    HW2 1404   0.262   1.102   2.278  1.6488 -1.7959  0.2798
  469SOL     OW 1405   0.410   1.735   0.753 -0.5676  0.5369  0.1723
  469SOL    HW1 1406   0.401   1.735   0.650 -0.8077  0.9351 -0.4789
  469SOL    HW2 1407   0.369   1.652   0.794  0.5998 -0.7780  1.9387
  470SOL     OW 1408   2.773   1.674   2.437  0.1570 -0.4459  0.1943
  470SOL    HW1 1409   2.723   1.600   2.490 -2.5546  0.0655 -1.9292
  470SOL    HW2 1410   2.710   1.711   2.364 -1.9138  0.6973 -1.8168
  471SOL     OW 1411   1.601   0.569   2.377 -0.0853  0.0649  0.1614
  471SOL    HW1 1412   1.688   0.612   2.349 -1.6910  2.8051 -0.7684
  471SOL    HW2 1413   1.605   0.472   2.395  1.4027  3.8379  0.4828
  472SOL     OW 1414   0.820   2.709   1.502  0.5606 -0.0622  0.0125
  472SOL    HW1 1415   0.815   2.603   1.505 -0.9211 -1.6311  1.4985
  472SOL    HW2 1416   0.912   2.743   1.470 -0.6923 -1.3511 -1.2065
  473SOL     OW 1417   0.474   0.123   2.412 -0.0449 -0.6763  0.4481
  473SOL    HW1 1418   0.555   0.183   2.437 -0.5755 -0.1191  1.7758
  473SOL    HW2 1419   0.509   0.035   2.369  3.2385 -1.0064 -0.4414
  474SOL     OW 1420   2.008   0.034   0.990 -0.1644  0.0273 -0.4862
  474SOL    HW1 1421   1.999   0.116   1.057 -2.5462  2.8566  3.1838
  474SOL    HW2 1422   1.921   3.117   0.949 -2.1442 -0.0015  0.9947
  475SOL     OW 1423   1.948   1.002   0.883 -0.1095 -0.1283  0.8489
  475SOL    HW1 1424   1.855   0.998   0.840 -1.7042  0.6414  2.1914
  475SOL    HW2 1425   1.995   1.093   0.866  2.3744  2.2796 -2.5571
  476SOL     OW 1426   0.585   0.871   0.971 -0.5548  0.1238  0.5250
  476SOL    HW1 1427   0.547   0.934   1.044 -1.5648  0.1121  1.6877
  476SOL    HW2 1428   0.676   0.838   1.005  1.7430  0.8855  0.9384
  477SOL     OW 1429   1.356   2.508   0.307  0.1554  0.3521 -0.0527
  477SOL    HW1 1430   1.263   2.494   0.349 -1.1877 -0.5200  1.2662
  477SOL    HW2 1431   1.429   2.514   0.377  0.6174  3.2895  0.9335
  478SOL     OW 1432   0.348   2.367   2.516 -0.2983 -0.2159  0.7245
  478SOL    HW1 1433   0.419   2.432   2.469  3.1201  1.1965  0.7629
  478SOL    HW2 1434   0.288   2.321   2.447 -2.4343 -2.2984 -0.1169
  479SOL     OW 1435   2.547   0.309   1.322  0.4603 -0.0385 -0.4768
  479SOL    HW1 1436   2.506   0.365   1.395 -0.8362  1.9430 -1.8544
  479SOL    HW2 1437   2.481   0.292   1.247  0.3058 -2.2150 -0.8832
  480SOL     OW 1438   0.404   2.285   0.563 -0.7402 -0.0496 -0.2123
  480SOL    HW1 1439   0.453   2.259   0.475 -0.7240 -1.6612 -0.0513
  480SOL    HW2 1440   0.322   2.345   0.545  3.5203  1.1744 -1.6547
  481SOL     OW 1441   2.133   2.182   1.483  0.5072  0.3878  0.0437
  481SOL    HW1 1442   2.073   2.262   1.507 -0.3534  1.3359  3.9645
  481SOL    HW2 1443   2.233   2.203   1.481 -0.5720  1.7346  1.1253
  482SOL     OW 1444   1.287   2.791   2.935  1.1111  0.2469  0.5512
  482SOL    HW1 1445   1.356   2.717   2.919  0.2125  1.5941  0.4312
  482SOL    HW2 1446   1.321   2.845   3.015  0.3869 -1.7084 -0.5276
  483SOL     OW 1447   0.949   2.261   1.871 -0.2827 -0.1544  0.1384
  483SOL    HW1 1448   1.008   2.336   1.837  1.4958 -1.8600  0.4783
  483SOL    HW2 1449   0.897   2.226   1.788 -2.4045  0.5492  0.2850
  484SOL     OW 1450   1.627   0.505   1.486 -0.3120 -0.1645 -0.3370
  484SOL    HW1 1451   1.647   0.575   1.415  0.3213  0.6945  2.5974
  484SOL    HW2 1452   1.573   0.539   1.563 -1.8647 -0.6562 -3.6519
  485SOL     OW 1453   1.513   0.848   2.797  0.3805 -0.7457 -0.3895
  485SOL    HW1 1454   1.589   0.905   2.768  0.5542 -2.4774 -0.9871
  485SOL    HW2 1455   1.531   0.747   2.810 -0.8860  0.2993 -0.3961
  486SOL     OW 1456   2.224   3.118   1.236  0.2702 -0.2385 -0.6057
  486SOL    HW1 1457   2.250   3.098   1.138 -0.3047 -1.1543 -0.9461
  486SOL    HW2 1458   2.311   0.002   1.289 -0.6391  0.2003 -1.0039
  487SOL     OW 1459   0.626   2.080   1.275 -0.0084  0.0902  0.3681
  487SOL    HW1 1460   0.648   2.180   1.269 -1.1578  1.3378  1.8201
  487SOL    HW2 1461   0.527   2.059   1.289  1.0710 -0.0244  0.5966
  488SOL     OW 1462   2.519   2.019   0.118 -0.0187  0.2574 -0.3931
  488SOL    HW1 1463   2.610   1.997   0.164  2.8273 -1.8644 -3.1510
  488SOL    HW2 1464   2.517   1.963   0.032  1.3917 -1.2456  1.8615
  489SOL     OW 1465   2.205   3.009   0.595  0.1115  0.6903 -0.2526
  489SOL    HW1 1466   2.119   2.966   0.637  0.3108  0.3649  1.7106
  489SOL    HW2 1467   2.282   2.943   0.590 -2.5960 -0.6216  0.1022
  490SOL     OW 1468   0.953   1.665   0.055  0.3786 -0.2837  0.0642
  490SOL    HW1 1469   0.980   1.710   3.092  0.6887  2.3007  0.4419
  490SOL    HW2 1470   0.997   1.702   0.142 -1.5626 -1.3169  2.1817
  491SOL     OW 1471   0.194   2.069   1.483 -0.2600  0.5021 -0.0912
  491SOL    HW1 1472   0.093   2.083   1.490  1.4231 -0.0686 -0.8955
  491SOL    HW2 1473   0.253   2.116   1.559  3.1485  1.2915  2.3112
  492SOL     OW 1474   0.617   1.443   1.833 -0.3512 -0.3971  0.2580
  492SOL    HW1 1475   0.704   1.453   1.778 -1.9965  1.7171 -1.3423
  492SOL    HW2 1476   0.544   1.391   1.783  0.9356  2.1050  0.9920
  493SOL     OW 1477   2.682   1.974   0.976 -0.1047  0.1504  0.4200
  493SOL    HW1 1478   2.676   1.904   0.900  0.2267  4.1179 -0.8113
  493SOL    HW2 1479   2.777   2.004   0.994 -0.6758 -2.0601  1.3673
  494SOL     OW 1480   2.686   1.788   0.784 -0.3983 -0.3088  0.9990
  494SOL    HW1 1481   2.624   1.770   0.706 -0.5137 -0.3384 -3.0212
  494SOL    HW2 1482   2.771   1.738   0.770 -1.5224  2.9612  1.7163
  495SOL     OW 1483   2.675   2.963   0.259  0.1223 -0.0705 -0.4911
  495SOL    HW1 1484   2.719   2.931   0.174 -0.6460 -0.1313 -2.0385
  495SOL    HW2 1485   2.589   3.022   0.240 -0.1776  1.6786  1.0424
  496SOL     OW 1486   2.493   0.022   1.328 -0.2085  0.1659 -0.1511
  496SOL    HW1 1487   2.517   3.081   1.403  0.4595  0.5920 -1.4029
  496SOL    HW2 1488   2.520   0.116   1.354  1.6034 -0.0877 -1.1165
  497SOL     OW 1489   2.525   1.223   2.884 -0.0659  0.0844 -0.0559
  497SOL    HW1 1490   2.450   1.160   2.847 -1.0197  1.0441  1.3202
  497SOL    HW2 1491   2.578   1.173   2.954  0.5193 -0.0538 -1.5781
  498SOL     OW 1492   2.916   1.930   1.289 -0.2624  0.7224 -0.3735
  498SOL    HW1 1493   2.855   1.987   1.346  0.5751 -0.5483 -0.5766
  498SOL    HW2 1494   2.884   1.832   1.289 -2.0876 -0.2510  0.6983
  499SOL     OW 1495   0.912   2.534   2.725  0.0075 -0.2546  0.0366
  499SOL    HW1 1496   0.842   2.511   2.653 -1.2861  1.2833 -0.1202
  499SOL    HW2 1497   1.005   2.529   2.677  0.7433 -0.1416 -1.5190
  500SOL     OW 1498   1.575   1.525   0.425 -0.0464  0.1535 -0.3544
  500SOL    HW1 1499   1.503   1.459   0.393  0.2451 -4.4735  0.3265
  500SOL    HW2 1500   1.593   1.506   0.525  0.0881  0.9437  0.5226
  501SOL     OW 1501   1.580   3.106   1.583 -0.0012 -0.1835  0.1487
  501SOL    HW1 1502   1.581   0.051   1.656  3.3719  0.4959  0.5600
  501SOL    HW2 1503   1.674   3.074   1.555  0.2850 -0.1982  1.1639
  502SOL     OW 1504   2.609   0.638   1.660 -0.3868 -0.2366  0.0606
  502SOL    HW1 1505   2.677   0.572   1.696 -1.3371  0.1785 -0.8381
  502SOL    HW2 1506   2.560   0.683   1.739  1.8408  1.8096 -0.8786
  503SOL     OW 1507   2.476   1.476   2.208 -0.0668 -0.2658  0.0427
  503SOL    HW1 1508   2.382   1.482   2.180  1.0209 -1.7045  3.9438
  503SOL    HW2 1509   2.541   1.421   2.150 -0.2225  1.1607  1.9255
  504SOL     OW 1510   1.345   1.343   1.882 -0.5554 -0.0136  0.0913
  504SOL    HW1 1511   1.358   1.415   1.813 -0.1989 -2.1272 -2.4020
  504SOL    HW2 1512   1.434   1.298   1.900 -0.7486  3.9674  0.1734
  505SOL     OW 1513   0.366   0.364   1.622 -0.3457 -0.1414 -0.1762
  505SOL    HW1 1514   0.397   0.410   1.534  0.0705  0.9361 -0.4607
  505SOL    HW2 1515   0.338   0.427   1.698  2.0405 -2.6574 -0.5033
  506SOL     OW 1516   0.321   0.178   3.111  0.4173 -0.0607  0.1813
  506SOL    HW1 1517   0.229   0.217   0.010  1.6255 -0.6507  0.2806
  506SOL    HW2 1518   0.348   0.213   3.023 -0.0066 -3.0916 -2.1601
  507SOL     OW 1519   0.512   2.875   0.111 -0.0275 -0.0559 -0.0891
  507SOL    HW1 1520   0.484   2.824   0.192  0.1354  1.0173 -0.2543
  507SOL    HW2 1521   0.440   2.942   0.080  0.3297 -0.2597  1.3704
  508SOL     OW 1522   1.125   0.508   2.036  0.7333  0.0791  0.3497
  508SOL    HW1 1523   1.029   0.512   2.068  1.7227  1.4057 -2.5786
  508SOL    HW2 1524   1.179   0.444   2.094 -3.6356 -0.4135 -0.3101
  509SOL     OW 1525   1.369   2.175   1.042 -0.2847 -0.0558  0.6247
  509SOL    HW1 1526   1.310   2.253   1.007 -4.2410 -0.7650  1.5077
  509SOL    HW2 1527   1.374   2.190   1.144  0.7269 -1.5501  0.9250
  510SOL     OW 1528   2.882   1.127   1.579 -0.2939 -0.1864  0.1406
  510SOL    HW1 1529   2.894   1.177   1.671  0.9075 -0.1972 -0.4484
  510SOL    HW2 1530   2.784   1.122   1.551  0.1306 -0.8381 -1.8309
  511SOL     OW 1531   1.282   1.955   1.163  0.4945 -0.0477  0.5227
  511SOL    HW1 1532   1.337   2.024   1.118 -0.3819 -2.4793  0.9597
  511SOL    HW2 1533   1.331   1.868   1.177  2.6715  0.9020 -2.0649
  512SOL     OW 1534   2.988   1.466   0.583  0.1215  0.3146 -0.2495
  512SOL    HW1 1535   2.898   1.447   0.536 -0.9358 -0.2961 -2.3590
  512SOL    HW2 1536   3.071   1.458   0.523 -1.0585 -3.6686  0.6677
  513SOL     OW 1537   0.208   1.498   2.765 -0.1263 -0.1357 -0.2644
  513SOL    HW1 1538   0.268   1.458   2.690 -0.0604  2.2274  1.3799
  513SOL    HW2 1539   0.258   1.508   2.852 -0.7018 -0.1131 -2.9542
  514SOL     OW 1540   2.279   2.338   2.438 -0.5839  0.2084  0.3547
  514SOL    HW1 1541   2.179   2.364   2.436 -1.6398 -1.4406 -2.0013
  514SOL    HW2 1542   2.298   2.278   2.359 -1.0452 -2.0231 -2.1427
  515SOL     OW 1543   2.376   0.957   0.743 -0.1260 -0.2627 -0.0900
  515SOL    HW1 1544   2.278   0.946   0.732  2.0482  0.6370  0.0793
  515SOL    HW2 1545   2.427   0.922   0.663 -1.6009 -1.4457  0.0876
  516SOL     OW 1546   2.751   2.489   0.248 -0.1273  0.4619 -0.1857
  516SOL    HW1 1547   2.678   2.416   0.235  1.4237 -1.0380  0.5715
  516SOL    HW2 1548   2.832   2.449   0.194  0.3480 -2.3647 -2.2243
  517SOL     OW 1549   0.570   1.358   3.042  0.2738 -0.0801  0.7148
  517SOL    HW1 1550   0.667   1.388   3.072  4.4169 -0.1443  2.2877
  517SOL    HW2 1551   0.501   1.421   3.083  2.5110 -1.9136  1.0112
  518SOL     OW 1552   2.908   0.245   2.194 -0.0821  0.3326  0.2125
  518SOL    HW1 1553   2.826   0.205   2.149  1.1949  0.9816 -1.7595
  518SOL    HW2 1554   2.928   0.336   2.151 -2.0173 -1.6586 -0.2336
  519SOL     OW 1555   1.678   1.069   0.099 -0.5208 -0.5093 -0.0404
  519SOL    HW1 1556   1.603   1.012   0.060 -0.1371  2.3477 -0.1861
  519SOL    HW2 1557   1.672   1.059   0.199 -2.5903  0.0054 -2.3820
  520SOL     OW 1558   2.887   2.919   2.281  0.1421 -0.1933  0.0738
  520SOL    HW1 1559   2.850   3.011   2.313  1.1987  2.1942 -0.7535
  520SOL    HW2 1560   2.926   2.869   2.358 -1.5733  0.9901  1.7419
  521SOL     OW 1561   0.384   1.967   2.271  0.2571  0.2640 -0.2488
  521SOL    HW1 1562   0.441   1.981   2.187 -1.4952 -0.6220 -0.2016
  521SOL    HW2 1563   0.436   1.993   2.357  1.5067  0.8275  1.6897
  522SOL     OW 1564   1.127   3.059   1.656 -0.4649 -0.2392 -0.3047
  522SOL    HW1 1565   1.141   3.115   1.734  0.4220 -0.7541 -2.8341
  522SOL    HW2 1566   1.144   2.961   1.672  1.0984 -0.1262 -0.9704
  523SOL     OW 1567   2.222   2.184   0.982 -0.2690  0.6010 -0.1248
  523SOL    HW1 1568   2.319   2.166   0.968 -0.3680  0.8734 -1.8219
  523SOL    HW2 1569   2.204   2.259   1.052  0.6374  1.8078  3.5816
  524SOL     OW 1570   1.252   2.170   0.598 -0.1356 -0.6752 -0.5112
  524SOL    HW1 1571   1.301   2.260   0.614  0.6699  0.3108  0.7703
  524SOL    HW2 1572   1.154   2.185   0.576 -1.7206 -0.5148 -2.5711
  525SOL     OW 1573   2.716   0.543   0.693 -0.1767  0.3840 -0.3338
  525SOL    HW1 1574   2.693   0.617   0.763  0.1108  1.2845  3.0769
  525SOL    HW2 1575   2.812   0.574   0.652  3.4735  1.6156 -0.4317
  526SOL     OW 1576   1.504   2.857   0.424  0.1327 -0.1032 -0.2919
  526SOL    HW1 1577   1.581   2.820   0.476 -0.2582  1.0895 -1.6505
  526SOL    HW2 1578   1.501   2.808   0.337  1.1123 -0.9910  1.3398
  527SOL     OW 1579   1.920   1.742   1.159 -0.1312 -0.2633 -0.4800
  527SOL    HW1 1580   1.940   1.730   1.258  0.7457 -0.9542 -3.2816
  527SOL    HW2 1581   1.992   1.796   1.113 -0.8926  1.5911 -0.8346
  528SOL     OW 1582   2.998   2.796   2.506  0.8945  0.2447 -0.5755
  528SOL    HW1 1583   2.993   2.697   2.522  0.5532  1.4945 -1.6237
  528SOL    HW2 1584   2.915   2.832   2.553 -1.1240  0.1755  0.3190
  529SOL     OW 1585   0.988   1.372   2.496 -0.5928  0.0513 -1.0102
  529SOL    HW1 1586   0.974   1.316   2.578 -1.3653  0.3089  1.6207
  529SOL    HW2 1587   0.905   1.427   2.485 -0.5148  1.5317  0.3407
  530SOL     OW 1588   1.778   0.999   2.511 -0.5262 -0.3477 -0.7335
  530SOL    HW1 1589   1.705   0.969   2.445 -0.0493  0.6470  0.5303
  530SOL    HW2 1590   1.741   1.004   2.605  0.1960 -0.4491 -0.6785
  531SOL     OW 1591   0.204   0.900   3.087 -0.4742  0.1937 -0.2650
  531SOL    HW1 1592   0.246   0.841   0.039 -3.1595  2.0687  1.4203
  531SOL    HW2 1593   0.108   0.931   3.108  2.2381 -0.5635  0.7278
  532SOL     OW 1594   1.650   1.491   0.691  0.0725 -0.3753  0.1325
  532SOL    HW1 1595   1.614   1.396   0.702  2.2862 -0.4125 -0.4400
  532SOL    HW2 1596   1.582   1.561   0.720  0.3542  0.6498  0.7379
  533SOL     OW 1597   0.176   0.450   2.450 -0.2043  0.5598  0.5336
  533SOL    HW1 1598   0.186   0.363   2.395  0.3067  1.5137 -1.5920
  533SOL    HW2 1599   0.273   0.462   2.484  0.7595 -0.6446  0.2490
  534SOL     OW 1600   0.974   0.604   2.550  0.8883 -0.2312  0.5217
  534SOL    HW1 1601   0.946   0.627   2.643  0.4607 -0.6550  0.4509
  534SOL    HW2 1602   1.073   0.624   2.530 -0.4678 -0.8386  1.1669
  535SOL     OW 1603   0.584   0.574   3.069 -0.6442 -0.2062  0.8898
  535SOL    HW1 1604   0.678   0.613   3.081 -0.8606  1.2843 -1.8958
  535SOL    HW2 1605   0.524   0.655   3.035  0.3266  0.0870 -3.0813
  536SOL     OW 1606   0.676   0.877   2.878 -0.1290  0.4181 -0.2171
  536SOL    HW1 1607   0.708   0.926   2.792 -1.8523  0.1271  0.7304
  536SOL    HW2 1608   0.665   0.941   2.959  1.1773 -0.4239  2.1509
  537SOL     OW 1609   1.346   3.008   1.499 -0.0734 -0.0191 -0.2519
  537SOL    HW1 1610   1.268   3.063   1.526 -1.2393  3.9630  0.7972
  537SOL    HW2 1611   1.426   3.067   1.513 -1.7722 -1.1233  1.1872
  538SOL     OW 1612   0.590   2.569   0.003  0.0189  0.0373 -0.1048
  538SOL    HW1 1613   0.503   2.617   3.106  2.9472  0.3248  1.1055
  538SOL    HW2 1614   0.672   2.593   3.068 -2.7141  0.9406 -0.4544
  539SOL     OW 1615   2.873   1.265   1.835 -0.0304 -0.1583 -0.1027
  539SOL    HW1 1616   2.790   1.277   1.891  0.9993 -0.4742  1.0789
  539SOL    HW2 1617   2.922   1.350   1.839 -1.1723 -0.9614  0.8664
  540SOL     OW 1618   1.982   1.721   1.426 -0.2883 -0.0681  0.3092
  540SOL    HW1 1619   1.932   1.669   1.496  2.1827 -2.8964  0.4783
  540SOL    HW2 1620   1.966   1.821   1.420  0.5458 -0.6633 -0.1286
  541SOL     OW 1621   0.698   1.926   1.691  0.2308  0.6757  0.4715
  541SOL    HW1 1622   0.733   1.926   1.598 -1.0720  0.5656 -1.9625
  541SOL    HW2 1623   0.754   1.864   1.747 -0.7001  1.2466 -2.6129
  542SOL     OW 1624   1.771   1.261   1.946 -0.3000 -0.4264 -0.0204
  542SOL    HW1 1625   1.720   1.266   1.857 -1.6725  0.4112  2.0812
  542SOL    HW2 1626   1.812   1.167   1.956  1.2495 -1.4627 -0.8975
  543SOL     OW 1627   1.025   0.533   0.789 -0.2252 -0.0965 -0.4360
  543SOL    HW1 1628   1.068   0.612   0.831  1.9822  1.4763 -0.7279
  543SOL    HW2 1629   0.993   0.564   0.697 -2.3256 -0.7303 -3.3410
  544SOL     OW 1630   1.910   1.772   1.997  0.2581 -0.0242 -0.2837
  544SOL    HW1 1631   2.012   1.784   1.996 -0.0110  2.3520  2.1226
  544SOL    HW2 1632   1.885   1.674   2.001 -0.6232 -1.9793  0.3590
  545SOL     OW 1633   1.624   1.794   1.225 -0.0296  0.2806  0.3839
  545SOL    HW1 1634   1.644   1.878   1.165 -1.7444 -0.7470  1.2416
  545SOL    HW2 1635   1.685   1.718   1.200  2.3919 -1.3179  0.6241
  546SOL     OW 1636   0.145   0.177   2.796 -0.2658  0.0318 -1.0693
  546SOL    HW1 1637   0.172   0.117   2.718 -1.4750 -1.5472 -1.6451
  546SOL    HW2 1638   0.222   0.234   2.826  0.4594 -3.0262 -1.3629
  547SOL     OW 1639   2.226   0.694   3.122  0.6352  0.6885 -0.2180
  547SOL    HW1 1640   2.127   0.718   3.098 -0.5623  1.6582 -0.3038
  547SOL    HW2 1641   2.240   0.595   0.014 -0.3293 -0.0693 -0.8519
  548SOL     OW 1642   2.317   1.906   2.144 -0.0765  0.7742  0.0921
  548SOL    HW1 1643   2.232   1.873   2.099 -0.3905 -1.9255  1.1045
  548SOL    HW2 1644   2.398   1.861   2.096  3.1319 -1.0236 -1.8476
  549SOL     OW 1645   2.473   2.899   0.962  0.2330 -0.5872 -0.5469
  549SOL    HW1 1646   2.478   2.843   1.050 -0.8605 -0.0332  2.9343
  549SOL    HW2 1647   2.534   2.852   0.893 -0.5381 -0.8278  0.6911
  550SOL     OW 1648   2.222   1.399   0.043  0.0873  0.3125 -0.1516
  550SOL    HW1 1649   2.198   1.327   0.111  0.8700 -1.3371  0.3419
  550SOL    HW2 1650   2.288   1.472   0.081  1.3667  1.4098 -1.2099
  551SOL     OW 1651   1.551   0.107   1.816  0.2610 -0.2671  0.0067
  551SOL    HW1 1652   1.643   0.149   1.844  0.2303 -3.3026  0.4850
  551SOL    HW2 1653   1.529   0.023   1.871  2.0011 -0.8807  0.6322
  552SOL     OW 1654   2.934   2.401   2.908  0.2219 -0.3014 -0.0795
  552SOL    HW1 1655   2.981   2.387   2.821  0.1233  2.2204 -0.2014
  552SOL    HW2 1656   2.861   2.469   2.894 -0.1652 -2.3878 -1.1647
  553SOL     OW 1657   0.655   3.117   0.755  0.4238 -0.2770  0.0382
  553SOL    HW1 1658   0.628   3.071   0.844 -0.2292  0.1406  0.5650
  553SOL    HW2 1659   0.578   0.018   0.690  0.4669 -1.5894  1.6663
  554SOL     OW 1660   1.960   2.391   1.578  0.2061 -0.1625  0.0205
  554SOL    HW1 1661   1.858   2.409   1.571 -1.5879  2.1229  2.0011
  554SOL    HW2 1662   1.980   2.388   1.678  1.5387  0.1185  0.5409
  555SOL     OW 1663   1.243   2.205   1.561 -0.2348 -0.1937  0.2009
  555SOL    HW1 1664   1.177   2.278   1.532  1.0609  3.2019 -1.8566
  555SOL    HW2 1665   1.186   2.122   1.566 -0.0673  4.0953 -1.2709
  556SOL     OW 1666   1.887   1.725   0.548  0.8564 -0.4692 -0.6603
  556SOL    HW1 1667   1.836   1.755   0.635  0.2230  0.6134 -0.1452
  556SOL    HW2 1668   1.837   1.650   0.495  1.6650 -1.4351  1.9929
  557SOL     OW 1669   1.294   2.388   1.964 -0.3375 -0.3302  0.3392
  557SOL    HW1 1670   1.345   2.324   1.903 -1.0026 -0.0908 -0.3589
  557SOL    HW2 1671   1.237   2.327   2.018 -0.5690  0.4443 -1.9941
  558SOL     OW 1672   2.896   0.475   2.041 -0.3279 -0.3954  0.2608
  558SOL    HW1 1673   2.992   0.510   2.028  2.1863 -1.4649 -0.1471
  558SOL    HW2 1674   2.844   0.480   1.950  0.6102 -1.3708  0.2558
  559SOL     OW 1675   2.566   2.994   1.558  0.3816  0.2648  0.0413
  559SOL    HW1 1676   2.547   2.909   1.507  1.1527  2.0018  0.9804
  559SOL    HW2 1677   2.649   2.987   1.619  2.5246 -0.8382  0.1965
  560SOL     OW 1678   0.711   3.100   3.042 -0.2373 -0.2703 -0.0867
  560SOL    HW1 1679   0.626   3.091   2.987 -0.7285  2.6138  3.1253
  560SOL    HW2 1680   0.709   3.048   0.001 -0.2948  1.4426 -2.3396
  561SOL     OW 1681   1.315   0.824   0.574  0.2478 -0.7284 -0.0493
  561SOL    HW1 1682   1.227   0.862   0.534 -0.4735  1.2873  1.2349
  561SOL    HW2 1683   1.373   0.781   0.497  0.0817 -0.4338 -0.4356
  562SOL     OW 1684   0.833   0.816   2.457 -0.5766  0.0273 -0.5843
  562SOL    HW1 1685   0.895   0.876   2.513 -0.4864 -0.6511 -0.5425
  562SOL    HW2 1686   0.869   0.720   2.476 -1.3008  1.0110  0.7811
  563SOL     OW 1687   1.996   2.452   2.713 -0.0132 -0.0006 -0.0852
  563SOL    HW1 1688   2.003   2.425   2.617 -0.1566  2.6912  1.5080
  563SOL    HW2 1689   1.900   2.481   2.731  0.2481  0.6127 -0.4010
  564SOL     OW 1690   0.079   1.450   0.417 -0.0644  0.2956  0.0186
  564SOL    HW1 1691   0.185   1.458   0.428  0.8070 -0.6239  1.6293
  564SOL    HW2 1692   0.057   1.424   0.322 -1.9325 -1.7444  4.4009
  565SOL     OW 1693   1.500   3.036   2.863  0.2828 -0.1931 -0.0095
  565SOL    HW1 1694   1.493   3.048   2.763 -1.5268  0.6665 -1.9752
  565SOL    HW2 1695   1.403   3.049   2.895 -2.5058  3.2501  0.1723
  566SOL     OW 1696   1.943   2.956   2.718 -0.1355  0.3670 -0.2011
  566SOL    HW1 1697   1.912   2.923   2.625  0.9197  0.8227  0.2156
  566SOL    HW2 1698   1.947   3.059   2.725  0.5087  0.5571 -0.1016
  567SOL     OW 1699   2.390   1.344   0.958 -0.0082 -0.2528  0.1111
  567SOL    HW1 1700   2.342   1.289   1.029 -2.6862  0.6168 -1.2970
  567SOL    HW2 1701   2.391   1.447   0.975  1.0437  1.8341 -1.4315
  568SOL     OW 1702   1.987   1.464   2.996  0.7440  0.1712  0.9526
  568SOL    HW1 1703   2.021   1.543   2.945  1.3376 -1.4899 -1.2405
  568SOL    HW2 1704   2.056   1.433   3.067  3.8085 -1.4887 -2.4560
  569SOL     OW 1705   2.445   1.840   2.567  0.2964 -0.8436 -0.1172
  569SOL    HW1 1706   2.525   1.858   2.508 -2.6917  0.1208 -0.0033
  569SOL    HW2 1707   2.440   1.748   2.616  0.9472 -0.8309  1.3084
  570SOL     OW 1708   3.078   2.434   2.065  0.2460 -0.6871 -0.2867
  570SOL    HW1 1709   3.023   2.363   2.113  2.0898  0.0175 -1.4874
  570SOL    HW2 1710   0.006   2.402   1.984 -1.2041  0.3808 -0.3408
  571SOL     OW 1711   0.287   0.264   2.270  0.4386  0.2136  0.1061
  571SOL    HW1 1712   0.359   0.229   2.328 -0.7787  0.5813  0.6587
  571SOL    HW2 1713   0.320   0.348   2.224  0.3721  3.2609  1.0540
  572SOL     OW 1714   1.138   1.788   0.763  0.1817  0.4128  0.3862
  572SOL    HW1 1715   1.203   1.839   0.828  1.1940  0.9037  2.3193
  572SOL    HW2 1716   1.158   1.691   0.764  0.3592  1.0675 -1.0487
  573SOL     OW 1717   0.937   0.189   0.222 -0.3582  0.5502 -0.1714
  573SOL    HW1 1718   0.966   0.284   0.242 -0.7880 -3.0781 -1.1652
  573SOL    HW2 1719   0.929   0.132   0.305 -0.5470 -1.1394 -2.2865
  574SOL     OW 1720   0.438   3.050   0.442  0.3500  0.1841  0.1528
  574SOL    HW1 1721   0.489   3.116   0.385  0.0890 -1.0079 -0.2942
  574SOL    HW2 1722   0.399   3.092   0.523  2.1613  0.6946 -4.0429
  575SOL     OW 1723   0.077   1.289   1.782 -0.2895  0.4909  0.5541
  575SOL    HW1 1724   0.009   1.363   1.800 -1.2771  2.7521  1.1389
  575SOL    HW2 1725   0.147   1.288   1.855 -2.1327  0.2475 -1.3398
  576SOL     OW 1726   2.176   0.526   1.735  0.0331  0.0772 -0.6647
  576SOL    HW1 1727   2.172   0.570   1.642  1.3078  1.4020 -0.7527
  576SOL    HW2 1728   2.260   0.468   1.748 -1.1425  1.9135  2.4405
  577SOL     OW 1729   2.816   1.443   2.277 -0.6079  0.2002  0.0705
  577SOL    HW1 1730   2.742   1.393   2.326 -1.5284 -0.4608  0.3975
  577SOL    HW2 1731   2.810   1.540   2.308 -2.4782  2.4979 -0.7365
  578SOL     OW 1732   1.453   2.856   2.185  0.0614 -0.2280 -0.4609
  578SOL    HW1 1733   1.431   2.758   2.154  1.5248 -1.1436 -1.6086
  578SOL    HW2 1734   1.438   2.861   2.286  0.0506  0.1601 -0.3586
  579SOL     OW 1735   1.983   2.134   2.270  0.3923  0.2957 -0.2611
  579SOL    HW1 1736   1.897   2.122   2.217  0.9173 -0.2049  1.3022
  579SOL    HW2 1737   2.029   2.045   2.293  0.3793  0.5441  0.0807
  580SOL     OW 1738   1.824   1.519   2.043  0.1431 -0.2027 -0.1011
  580SOL    HW1 1739   1.800   1.423   2.019  1.2490 -2.8207  2.4399
  580SOL    HW2 1740   1.845   1.530   2.141 -0.3641 -1.7918  0.7984
  581SOL     OW 1741   1.486   1.362   2.282 -0.3802 -0.4059 -0.4935
  581SOL    HW1 1742   1.504   1.301   2.201  2.6314  1.7088 -1.2404
  581SOL    HW2 1743   1.516   1.316   2.369 -0.9486  2.4304  0.2658
  582SOL     OW 1744   0.020   2.014   2.014 -0.3098  0.0928 -0.6505
  582SOL    HW1 1745   0.078   1.953   1.957 -0.0716 -0.2616  2.6904
  582SOL    HW2 1746   3.066   1.963   2.054  2.2392  3.5551  1.5230
  583SOL     OW 1747   1.546   1.240   0.782 -0.0556 -0.2713  0.0565
  583SOL    HW1 1748   1.464   1.192   0.746 -0.2241 -0.3323  1.8116
  583SOL    HW2 1749   1.558   1.241   0.884  1.1060  1.3188  1.1354
  584SOL     OW 1750   1.112   2.416   0.364 -0.3525 -0.1320  0.5926
  584SOL    HW1 1751   1.051   2.491   0.348 -0.5872  0.0004  1.3786
  584SOL    HW2 1752   1.079   2.348   0.434  0.7956  1.2046  2.7220
  585SOL     OW 1753   0.107   2.580   0.032 -0.1313 -0.1303 -0.2854
  585SOL    HW1 1754   0.135   2.601   0.132  1.6945  1.7753  0.3390
  585SOL    HW2 1755   0.191   2.599   3.093  3.8700 -0.7451 -4.5407
  586SOL     OW 1756   2.342   1.223   0.713  0.1361  0.1258  0.0804
  586SOL    HW1 1757   2.382   1.129   0.694 -1.0966 -0.6831  2.6052
  586SOL    HW2 1758   2.369   1.255   0.804  2.5227 -1.0051 -2.1980
  587SOL     OW 1759   0.827   1.438   3.067  0.7154 -0.0587 -0.1284
  587SOL    HW1 1760   0.874   1.434   2.981  1.7784  2.6486  2.7970
  587SOL    HW2 1761   0.853   1.523   3.120 -0.2745  1.4660  1.7320
  588SOL     OW 1762   0.123   0.174   0.673  0.1580 -0.0051  0.0992
  588SOL    HW1 1763   0.120   0.173   0.573 -1.5248 -0.9378  2.1850
  588SOL    HW2 1764   0.185   0.246   0.704 -2.2452 -1.4996  1.7177
  589SOL     OW 1765   1.364   3.031   0.796  0.4027  0.3874  0.0734
  589SOL    HW1 1766   1.424   3.086   0.849 -0.8926  0.4792 -4.4413
  589SOL    HW2 1767   1.295   3.095   0.757 -0.6376 -3.3737 -0.4520
  590SOL     OW 1768   2.618   2.263   0.545  0.5422  0.5769  0.4709
  590SOL    HW1 1769   2.698   2.320   0.567 -2.0235 -1.7537  0.6202
  590SOL    HW2 1770   2.605   2.259   0.444  1.0278 -1.2176  0.7988
  591SOL     OW 1771   0.370   2.401   2.157  0.4916  0.2081  0.7049
  591SOL    HW1 1772   0.337   2.482   2.210 -0.4084  0.8169 -0.2428
  591SOL    HW2 1773   0.458   2.420   2.105  2.4807  0.5614 -0.0903
  592SOL     OW 1774   0.146   1.904   2.366 -0.5270  0.3013  0.1696
  592SOL    HW1 1775   0.101   1.825   2.324 -1.3617 -0.7154 -2.5476
  592SOL    HW2 1776   0.246   1.908   2.328  1.2156  0.2510 -0.4728
  593SOL     OW 1777   1.488   1.349   1.457 -0.3323  0.3912  0.7287
  593SOL    HW1 1778   1.535   1.433   1.495  3.0034  1.5238 -2.0651
  593SOL    HW2 1779   1.465   1.362   1.358 -0.1922 -1.3203 -0.9452
  594SOL     OW 1780   0.515   1.208   2.822 -0.3775  0.3207 -0.5396
  594SOL    HW1 1781   0.423   1.166   2.833  0.4557 -0.6532  1.2784
  594SOL    HW2 1782   0.539   1.262   2.907  0.9585  0.9452 -2.3782
  595SOL     OW 1783   1.428   0.696   0.920 -0.2143 -0.2512 -0.0765
  595SOL    HW1 1784   1.506   0.708   0.859 -1.7182  0.6045  1.0826
  595SOL    HW2 1785   1.337   0.711   0.869 -3.9498  0.7889  0.7375
  596SOL     OW 1786   0.567   1.121   1.139  0.0235  0.1281 -0.3116
  596SOL    HW1 1787   0.667   1.124   1.133 -5.0935 -0.1341  0.1222
  596SOL    HW2 1788   0.535   1.204   1.084  1.8846  1.6108 -0.1039
  597SOL     OW 1789   0.683   2.241   2.027 -0.3892 -0.1448 -0.2727
  597SOL    HW1 1790   0.648   2.330   2.001 -2.3826 -0.8102  1.3141
  597SOL    HW2 1791   0.782   2.222   2.007  0.9115 -3.3397  0.2967
  598SOL     OW 1792   2.235   2.524   2.193 -0.0065  0.1569  0.5419
  598SOL    HW1 1793   2.134   2.547   2.179 -0.9203  1.6238 -1.2235
  598SOL    HW2 1794   2.255   2.522   2.292  2.4557  5.1102  1.3302
  599SOL     OW 1795   0.795   1.098   0.474  0.2213 -0.3302 -0.2546
  599SOL    HW1 1796   0.826   1.169   0.535 -0.6554 -1.6386 -1.7337
  599SOL    HW2 1797   0.836   1.107   0.382  2.2111  2.9393  0.6526
  600SOL     OW 1798   1.599   0.504   0.176  0.4331  0.2195  0.0647
  600SOL    HW1 1799   1.517   0.460   0.139 -0.1272  0.3365 -1.4367
  600SOL    HW2 1800   1.652   0.441   0.234  0.8622  1.6331 -1.6186
  601SOL     OW 1801   0.594   0.217   1.370 -1.1527  0.9126  0.4635
  601SOL    HW1 1802   0.575   0.195   1.471  0.0827  0.4543  2.1087
  601SOL    HW2 1803   0.540   0.294   1.336  1.6356 -0.9742  1.4190
  602SOL     OW 1804   0.292   2.170   0.798 -0.4929 -0.4233 -0.0933
  602SOL    HW1 1805   0.339   2.088   0.827 -2.5186  3.0144  1.7989
  602SOL    HW2 1806   0.329   2.205   0.709 -1.6068  0.8613  0.9663
  603SOL     OW 1807   0.864   2.868   2.741 -0.3778  0.6850  0.4701
  603SOL    HW1 1808   0.936   2.803   2.714 -1.9639  1.7252 -0.3902
  603SOL    HW2 1809   0.824   2.917   2.661  0.3587  3.9690  1.8821
  604SOL     OW 1810   0.545   2.272   0.311 -0.1594 -0.3851  0.2812
  604SOL    HW1 1811   0.519   2.221   0.226  0.2329  0.8104 -1.2225
  604SOL    HW2 1812   0.554   2.371   0.296 -0.3682 -0.1738 -0.9878
  605SOL     OW 1813   1.863   1.584   1.616 -0.5778 -0.3019  0.4705
  605SOL    HW1 1814   1.917   1.499   1.624 -0.0448  0.2222 -1.8006
  605SOL    HW2 1815   1.764   1.555   1.603  1.0051 -0.1923  1.8281
  606SOL     OW 1816   0.907   1.110   3.009 -0.6625  0.3094 -0.3369
  606SOL    HW1 1817   0.814   1.077   3.033 -0.0852 -0.0367  1.1574
  606SOL    HW2 1818   0.897   1.205   2.974  1.4547 -0.6384  1.2289
  607SOL     OW 1819   1.157   1.000   1.238  0.0073 -0.1581  0.4714
  607SOL    HW1 1820   1.081   0.956   1.288  1.7007  0.6830  2.7402
  607SOL    HW2 1821   1.147   1.104   1.234 -0.7096  0.9235  0.0948
  608SOL     OW 1822   2.854   2.194   2.026 -0.2765  0.1537  0.3521
  608SOL    HW1 1823   2.855   2.117   2.094 -0.0879 -1.0655 -0.7379
  608SOL    HW2 1824   2.774   2.256   2.041  0.5372  0.4028  0.6684
  609SOL     OW 1825   2.144   0.108   0.341  0.5282 -0.9112  0.2138
  609SOL    HW1 1826   2.240   0.139   0.320 -0.0505 -1.2158 -0.7541
  609SOL    HW2 1827   2.138   0.010   0.322  1.7655  0.1039 -0.7438
  610SOL     OW 1828   0.189   2.687   1.557 -0.0754  0.2551 -0.9768
  610SOL    HW1 1829   0.240   2.731   1.483 -2.1353  0.3327  0.8454
  610SOL    HW2 1830   0.153   2.593   1.530 -2.0263  0.8195 -1.5825
  611SOL     OW 1831   1.666   1.939   0.302  0.1604 -0.0068 -0.1029
  611SOL    HW1 1832   1.744   1.995   0.318 -2.5712  0.5277 -0.1298
  611SOL    HW2 1833   1.620   1.911   0.391  0.8796 -0.6773 -0.4428
  612SOL     OW 1834   0.622   0.222   1.880 -0.4770 -0.3007 -0.2158
  612SOL    HW1 1835   0.683   0.306   1.900  3.1110  1.7707  2.3329
  612SOL    HW2 1836   0.522   0.245   1.874 -1.4020  1.3011  0.8940
  613SOL     OW 1837   2.553   1.302   0.434 -0.2147  0.1169 -0.1772
  613SOL    HW1 1838   2.589   1.350   0.350 -0.3950  4.2180  0.2339
  613SOL    HW2 1839   2.508   1.360   0.505  1.2088 -1.7282  0.7290
  614SOL     OW 1840   2.117   0.434   1.991  0.3950 -0.2781  0.5119
  614SOL    HW1 1841   2.132   0.472   1.896 -0.8379  0.2439  0.1761
  614SOL    HW2 1842   2.114   0.332   1.994 -0.4200 -1.3448  2.2784
  615SOL     OW 1843   0.992   1.476   1.178  0.3249 -0.3781 -0.2173
  615SOL    HW1 1844   1.024   1.527   1.260 -2.1672  1.0942  0.8064
  615SOL    HW2 1845   0.928   1.531   1.121  0.1520  2.3173  1.6873
  616SOL     OW 1846   1.541   1.814   2.810  0.2182 -0.3809  0.3967
  616SOL    HW1 1847   1.490   1.863   2.882  1.1339 -0.7528  0.2285
  616SOL    HW2 1848   1.632   1.852   2.794 -0.8578  2.5820 -3.4433
  617SOL     OW 1849   2.038   3.006   0.177  0.3326  0.0490 -0.0884
  617SOL    HW1 1850   1.933   3.017   0.170 -2.2561 -0.1246  1.1329
  617SOL    HW2 1851   2.053   2.915   0.225  0.6270  0.4893  1.1865
  618SOL     OW 1852   0.545   0.777   2.473 -0.0464  0.6998 -0.0675
  618SOL    HW1 1853   0.487   0.857   2.491  1.5989  0.6752  2.1029
  618SOL    HW2 1854   0.646   0.789   2.473 -0.2722  0.3374  0.7324
  619SOL     OW 1855   2.776   1.488   0.948 -0.7757  0.1845  0.3099
  619SOL    HW1 1856   2.741   1.404   0.906 -0.4445  2.8914  0.3282
  619SOL    HW2 1857   2.802   1.554   0.870 -0.3567  1.5385 -1.0904
  620SOL     OW 1858   2.271   0.017   2.966  0.4547  0.5129 -0.1914
  620SOL    HW1 1859   2.176   0.039   2.993  0.4626 -1.9397 -0.4600
  620SOL    HW2 1860   2.259   3.069   2.890  0.2024 -0.2021 -0.3153
  621SOL     OW 1861   2.348   1.433   2.914  0.1620  0.2122 -0.3623
  621SOL    HW1 1862   2.283   1.420   2.991  1.7720  0.9351  0.7938
  621SOL    HW2 1863   2.425   1.364   2.923 -2.1836  0.8095 -0.4751
  622SOL     OW 1864   1.860   2.779   1.979 -0.1609  0.3839  0.6820
  622SOL    HW1 1865   1.801   2.857   2.003  3.2768  2.0967  1.2074
  622SOL    HW2 1866   1.936   2.817   1.925  1.9088 -2.5121  2.2344
  623SOL     OW 1867   1.224   1.776   0.257 -0.3545  0.1786 -0.0811
  623SOL    HW1 1868   1.237   1.829   0.346  2.0261 -0.4021 -1.1399
  623SOL    HW2 1869   1.176   1.834   0.185  2.3566  0.2523  0.2049
  624SOL     OW 1870   0.298   3.038   0.062 -0.4689 -0.0736 -0.5553
  624SOL    HW1 1871   0.265   2.990   3.106 -0.9688 -1.5752 -0.3767
  624SOL    HW2 1872   0.307   0.014   0.046  2.2510  0.1985 -0.6166
  625SOL     OW 1873   0.725   1.668   0.426  0.1644  0.0412 -0.6259
  625SOL    HW1 1874   0.751   1.762   0.405  1.8857  1.8566 -1.1756
  625SOL    HW2 1875   0.642   1.637   0.372  1.3270 -1.3096  0.0998
  626SOL     OW 1876   3.041   2.794   0.008  0.6767  0.8675  0.0736
  626SOL    HW1 1877   3.104   2.713   0.003  1.0207 -2.2541 -2.4197
  626SOL    HW2 1878   3.023   2.816   3.031 -1.1367  0.4328 -2.3726
  627SOL     OW 1879   0.949   2.170   2.678  0.7948  0.4484 -0.9721
  627SOL    HW1 1880   1.021   2.121   2.626  0.1039  1.9745 -2.7796
  627SOL    HW2 1881   0.998   2.226   2.746 -0.1301 -0.9459 -3.2345
  628SOL     OW 1882   0.216   0.043   2.545 -0.3619 -0.0758  0.2232
  628SOL    HW1 1883   0.287   0.085   2.486 -0.8525 -0.0538  2.7101
  628SOL    HW2 1884   0.118   0.061   2.519 -2.2684 -2.8715 -1.5505
  629SOL     OW 1885   0.523   3.013   2.269 -0.1336  0.5664  0.9611
  629SOL    HW1 1886   0.618   2.980   2.255 -0.7298 -1.9934  0.8164
  629SOL    HW2 1887   0.485   3.027   2.173 -0.7268 -2.2102 -1.6201
  630SOL     OW 1888   1.548   1.016   1.848 -0.2830 -0.4115  0.1969
  630SOL    HW1 1889   1.617   0.945   1.822 -2.9540 -1.5112 -0.3988
  630SOL    HW2 1890   1.452   0.989   1.837  0.6458 -0.6824 -1.4070
  631SOL     OW 1891   2.189   0.965   0.401  0.0183  0.0535 -0.1510
  631SOL    HW1 1892   2.263   0.922   0.347  2.3062  2.5273 -2.3558
  631SOL    HW2 1893   2.179   0.917   0.490 -2.2798  2.0441 -2.1268
  632SOL     OW 1894   2.169   0.711   1.987  0.0896 -0.0436 -0.0733
  632SOL    HW1 1895   2.234   0.723   2.061  0.8666  0.6969 -2.5390
  632SOL    HW2 1896   2.131   0.620   1.994  1.8988  1.5934  1.1129
  633SOL     OW 1897   0.651   2.521   0.252  0.1286 -0.1915 -0.4626
  633SOL    HW1 1898   0.645   2.562   0.157 -2.5123  1.4127 -2.5527
  633SOL    HW2 1899   0.749   2.518   0.285  1.1267  2.6056 -0.1748
  634SOL     OW 1900   1.613   2.631   2.541  0.0993  0.0751  0.1429
  634SOL    HW1 1901   1.545   2.556   2.569 -1.2818 -1.6260 -0.6493
  634SOL    HW2 1902   1.559   2.709   2.508 -0.2592 -0.7885  0.5870
  635SOL     OW 1903   2.225   0.417   0.093 -0.2455 -0.3805 -0.3961
  635SOL    HW1 1904   2.283   0.340   0.122 -1.3771  3.3270  1.7308
  635SOL    HW2 1905   2.197   0.471   0.180 -0.3294  1.0440  1.6282
  636SOL     OW 1906   0.634   1.184   0.795  0.1530 -0.6484  0.0564
  636SOL    HW1 1907   0.576   1.106   0.776  0.2341  0.6633 -0.7306
  636SOL    HW2 1908   0.730   1.162   0.793 -0.9668 -0.7637 -1.5068
  637SOL     OW 1909   3.098   1.850   0.738  0.3909  0.4275  0.1873
  637SOL    HW1 1910   0.019   1.895   0.818  1.0069 -0.3996 -0.9477
  637SOL    HW2 1911   3.111   1.899   0.647 -2.5203 -0.4989 -0.9204
  638SOL     OW 1912   0.849   0.198   3.076  0.2898  0.3506  0.0416
  638SOL    HW1 1913   0.797   0.112   3.068  0.4691  0.9508 -2.9659
  638SOL    HW2 1914   0.883   0.219   0.044 -0.8616 -1.9135 -2.4185
  639SOL     OW 1915   1.393   1.910   3.043 -0.1239 -0.9457 -0.0548
  639SOL    HW1 1916   1.325   1.845   3.070  1.2051  3.9820 -2.7966
  639SOL    HW2 1917   1.481   1.892   3.089 -1.2050 -1.2202  0.4250
  640SOL     OW 1918   1.861   2.808   0.729 -0.6855 -0.0897 -0.6250
  640SOL    HW1 1919   1.888   2.710   0.720 -0.1827 -0.0518  0.2653
  640SOL    HW2 1920   1.861   2.845   0.633 -3.2880 -2.1299  1.1729
  641SOL     OW 1921   0.066   2.683   0.728 -0.9770 -0.7602  0.1960
  641SOL    HW1 1922   0.024   2.622   0.658  0.2237 -0.9988 -3.3962
  641SOL    HW2 1923   0.150   2.733   0.689  0.1279 -0.2934 -1.6859
  642SOL     OW 1924   0.898   0.323   1.658 -0.1841  0.7723 -0.0272
  642SOL    HW1 1925   0.903   0.298   1.562  1.2253 -0.7727  1.2472
  642SOL    HW2 1926   0.984   0.372   1.679  0.3554  1.0250  1.0830
  643SOL     OW 1927   0.540   1.976   2.037 -0.0079  0.1060 -0.0658
  643SOL    HW1 1928   0.589   2.063   2.016 -2.0494 -0.9927  1.7185
  643SOL    HW2 1929   0.484   1.955   1.955  0.9499 -0.7129  0.3376
  644SOL     OW 1930   0.631   2.874   0.516  0.3463 -0.4166 -0.5474
  644SOL    HW1 1931   0.567   2.948   0.489  1.8967 -1.6056  0.4646
  644SOL    HW2 1932   0.683   2.903   0.599  1.3314 -0.3758  1.7581
  645SOL     OW 1933   1.292   2.144   2.985  0.3538 -0.1422  0.3757
  645SOL    HW1 1934   1.373   2.208   2.986  1.8415  2.8045 -0.8423
  645SOL    HW2 1935   1.317   2.045   2.987  1.6081 -0.7474 -1.6541
  646SOL     OW 1936   0.452   1.135   0.105 -0.4176  0.2068  0.0710
  646SOL    HW1 1937   0.371   1.174   0.061  1.1175 -0.2853 -3.7321
  646SOL    HW2 1938   0.506   1.212   0.144  0.3625 -3.1866  1.7250
  647SOL     OW 1939   1.064   3.122   0.958  0.2785  0.1109 -0.2883
  647SOL    HW1 1940   1.029   3.026   0.969 -2.8196 -0.6454 -0.0101
  647SOL    HW2 1941   1.074   0.043   1.048 -0.9210  0.0463 -1.7563
  648SOL     OW 1942   2.182   0.131   1.653 -0.5278  0.5350  0.3973
  648SOL    HW1 1943   2.099   0.147   1.596 -0.5503 -2.0288 -2.4655
  648SOL    HW2 1944   2.221   0.036   1.636 -2.8724 -1.1385 -1.3665
  649SOL     OW 1945   0.763   1.964   2.768 -0.1120 -0.0843 -0.3462
  649SOL    HW1 1946   0.807   2.046   2.727  3.4915  0.3445  0.7300
  649SOL    HW2 1947   0.686   1.932   2.708  1.8504 -0.0741 -2.4159
  650SOL     OW 1948   2.850   1.817   1.853 -0.0409  0.0973 -0.2166
  650SOL    HW1 1949   2.751   1.832   1.876 -1.5034 -1.7342  0.4667
  650SOL    HW2 1950   2.865   1.725   1.806 -0.6254  0.6989  1.1518
  651SOL     OW 1951   1.018   2.978   0.458 -0.3995  0.4856  0.9359
  651SOL    HW1 1952   0.997   2.950   0.362  0.2747 -0.0092 -0.0854
  651SOL    HW2 1953   1.119   2.953   0.470  2.7067 -0.4768 -0.7288
  652SOL     OW 1954   2.911   1.788   0.247 -0.0438  0.0538 -0.7790
  652SOL    HW1 1955   2.929   1.766   0.148 -0.3622  1.2264  1.0691
  652SOL    HW2 1956   2.864   1.878   0.256 -0.6366 -2.0327  1.6502
  653SOL     OW 1957   2.959   0.248   1.057  0.2616 -0.1047 -0.1694
  653SOL    HW1 1958   2.901   0.167   1.059  1.1042  0.7248 -4.6440
  653SOL    HW2 1959   2.985   0.276   0.963  2.1974  0.8384  0.5507
  654SOL     OW 1960   1.930   0.381   2.552 -0.4423 -0.0183 -0.5990
  654SOL    HW1 1961   1.843   0.337   2.586 -3.0078 -0.7895  0.1776
  654SOL    HW2 1962   1.963   0.346   2.460 -0.8553 -0.2389  0.8618
  655SOL     OW 1963   0.457   2.397   0.984  0.1115 -0.1515  0.4279
  655SOL    HW1 1964   0.412   2.468   0.920 -1.8522 -0.1094  0.2862
  655SOL    HW2 1965   0.393   2.353   1.053 -0.4054 -0.8975  2.5127
  656SOL     OW 1966   0.218   0.147   1.923  0.6703  0.2496 -0.4984
  656SOL    HW1 1967   0.149   0.125   1.994  3.9567 -0.1399  1.3167
  656SOL    HW2 1968   0.259   0.064   1.882 -0.9646 -0.0444  1.4607
  657SOL     OW 1969   2.344   0.595   2.617  0.2272 -0.3511  0.1367
  657SOL    HW1 1970   2.267   0.576   2.554 -0.6674  0.6776 -2.9372
  657SOL    HW2 1971   2.315   0.596   2.716 -0.7225  0.8989  2.1435
  658SOL     OW 1972   2.164   1.919   1.095  0.2183  0.5709  0.1318
  658SOL    HW1 1973   2.177   2.010   1.058 -2.8497 -2.9402  0.4689
  658SOL    HW2 1974   2.229   1.900   1.173 -1.7459  2.4404  0.3125
  659SOL     OW 1975   2.423   0.215   2.868 -0.4152  0.2381  0.3021
  659SOL    HW1 1976   2.511   0.208   2.914 -1.1391 -0.6348 -1.6655
  659SOL    HW2 1977   2.364   0.139   2.902 -1.8909 -1.1934 -0.9613
  660SOL     OW 1978   1.303   1.480   2.899  0.1137  0.5100  0.2315
  660SOL    HW1 1979   1.400   1.499   2.866 -0.0741  2.2881  2.2672
  660SOL    HW2 1980   1.320   1.487   2.998  3.9803  1.0286 -1.9070
  661SOL     OW 1981   2.565   2.329   1.045  0.0246  0.2308  0.1400
  661SOL    HW1 1982   2.514   2.247   1.007 -3.0978 -2.9358  1.7862
  661SOL    HW2 1983   2.663   2.320   1.025 -0.4672  0.8009  1.5727
  662SOL     OW 1984   0.626   0.594   0.290 -0.2115 -0.3897  0.0341
  662SOL    HW1 1985   0.569   0.513   0.280 -1.6767  0.3872  1.1291
  662SOL    HW2 1986   0.636   0.613   0.389 -0.6729 -0.4201  1.8217
  663SOL     OW 1987   1.854   1.989   3.105  0.0920  0.2839  0.0967
  663SOL    HW1 1988   1.823   2.080   0.015  2.4276 -2.1701  1.1935
  663SOL    HW2 1989   1.928   1.949   0.042 -1.2528 -1.5623  0.2608
  664SOL     OW 1990   0.759   2.424   1.556 -0.1689 -0.1240  0.0100
  664SOL    HW1 1991   0.750   2.373   1.465  1.9865 -0.0144 -3.9883
  664SOL    HW2 1992   0.671   2.460   1.597 -1.2113  1.0185 -1.3066
  665SOL     OW 1993   1.822   2.279   1.942  0.4178 -0.7272 -0.1478
  665SOL    HW1 1994   1.917   2.296   1.914  3.2216  1.5865  0.3360
  665SOL    HW2 1995   1.759   2.295   1.863  0.0855 -2.0554  1.4700
  666SOL     OW 1996   0.473   2.710   0.350  0.3237  0.1101  0.6793
  666SOL    HW1 1997   0.535   2.767   0.410  0.0412 -0.1222 -1.3086
  666SOL    HW2 1998   0.528   2.631   0.318  2.0243  0.2244 -0.4494
  667SOL     OW 1999   2.093   1.282   1.908 -0.0699  0.4914 -0.7196
  667SOL    HW1 2000   2.016   1.344   1.881 -0.4387 -2.2745 -1.0394
  667SOL    HW2 2001   2.123   1.295   2.004  0.6777 -0.8372 -0.6372
  668SOL     OW 2002   0.407   0.526   2.569  0.1342  0.1200 -0.0922
  668SOL    HW1 2003   0.429   0.622   2.554 -1.4470  0.5914 -0.1458
  668SOL    HW2 2004   0.482   0.464   2.536  0.2301  0.1060  0.3865
  669SOL     OW 2005   1.659   2.198   2.614 -0.2377 -0.0755 -0.1038
  669SOL    HW1 2006   1.690   2.234   2.703 -0.7646  1.9277  2.5010
  669SOL    HW2 2007   1.709   2.111   2.598 -0.4997 -0.0668 -1.2264
  670SOL     OW 2008   2.304   2.264   0.022 -0.1827  0.3010  0.3623
  670SOL    HW1 2009   2.224   2.324   3.124 -1.6095  0.2087 -1.2943
  670SOL    HW2 2010   2.320   2.195   3.070 -1.4520  0.6399 -1.1533
  671SOL     OW 2011   0.830   1.155   1.129  0.4551  0.1648  0.2148
  671SOL    HW1 2012   0.887   1.239   1.133  0.3283 -1.8868 -0.3964
  671SOL    HW2 2013   0.868   1.080   1.192 -1.4084 -0.2927  0.6715
  672SOL     OW 2014   2.505   0.983   2.527 -0.2232  0.7050  0.0974
  672SOL    HW1 2015   2.454   0.951   2.446  1.3871  0.4787  0.0205
  672SOL    HW2 2016   2.563   1.065   2.501  0.5146  2.5290 -1.3207
  673SOL     OW 2017   2.640   2.515   2.296  0.3002  0.2978 -0.2637
  673SOL    HW1 2018   2.693   2.433   2.322  0.5135  0.6821  0.6177
  673SOL    HW2 2019   2.695   2.579   2.239 -3.7079 -1.2880 -0.8546
  674SOL     OW 2020   1.277   2.588   2.302 -0.3784 -0.0349 -0.0966
  674SOL    HW1 2021   1.191   2.530   2.308 -1.4152  0.4955  3.0365
  674SOL    HW2 2022   1.322   2.579   2.209 -1.8599 -1.8056 -1.5182
  675SOL     OW 2023   0.836   0.807   1.646 -0.1272 -0.0495  0.5255
  675SOL    HW1 2024   0.894   0.748   1.589 -0.9659  1.1732  0.3917
  675SOL    HW2 2025   0.878   0.901   1.661  1.5236  0.9322 -1.5625
  676SOL     OW 2026   1.714   1.016   0.732 -0.3300  0.0145 -0.3000
  676SOL    HW1 2027   1.652   1.095   0.751  0.7906  1.4842  0.8469
  676SOL    HW2 2028   1.769   1.046   0.649  2.3343  2.0423  1.4254
  677SOL     OW 2029   2.733   1.891   2.586  0.1848  0.3470  0.7651
  677SOL    HW1 2030   2.816   1.951   2.613  1.1413  1.7614  1.7458
  677SOL    HW2 2031   2.766   1.811   2.526 -3.1310  0.7718  0.5680
  678SOL     OW 2032   2.756   2.083   1.430  0.5339  0.2895 -0.5644
  678SOL    HW1 2033   2.744   2.181   1.413  0.2472 -0.7360  2.2884
  678SOL    HW2 2034   2.672   2.044   1.469  1.9732 -1.3914  3.2853
  679SOL     OW 2035   2.009   2.568   0.710 -0.4501  0.1109 -0.4516
  679SOL    HW1 2036   2.104   2.579   0.676  1.3718 -0.5591 -2.2808
  679SOL    HW2 2037   1.988   2.473   0.741 -0.3848 -4.2392  0.6919
  680SOL     OW 2038   0.528   2.588   2.448 -0.0214  0.2650 -0.6273
  680SOL    HW1 2039   0.482   2.677   2.443 -0.5027 -1.6447  1.4975
  680SOL    HW2 2040   0.626   2.596   2.467  0.5899  0.1186 -3.4567
  681SOL     OW 2041   0.006   1.234   1.528 -0.0245  0.2928  0.3467
  681SOL    HW1 2042   0.023   1.249   1.627  0.1828  0.3886 -3.6965
  681SOL    HW2 2043   3.046   1.176   1.515 -2.1261  0.3877  1.3629
  682SOL     OW 2044   0.371   1.976   1.310  0.3717  0.5854  0.0014
  682SOL    HW1 2045   0.311   2.012   1.383 -0.2823  1.0462  1.2964
  682SOL    HW2 2046   0.409   1.884   1.328 -0.8340 -1.2186  0.0543
  683SOL     OW 2047   2.438   1.368   1.288  0.6402 -0.5249 -0.6573
  683SOL    HW1 2048   2.446   1.459   1.244  1.0938 -0.4424  2.2597
  683SOL    HW2 2049   2.465   1.370   1.384 -1.0041 -0.7647 -1.5034
  684SOL     OW 2050   2.564   1.587   3.008  0.2328 -0.1986 -0.1323
  684SOL    HW1 2051   2.636   1.516   3.028 -1.4252 -2.5788  2.4711
  684SOL    HW2 2052   2.482   1.545   2.966  1.1642 -0.3160 -0.1182
  685SOL     OW 2053   1.289   1.143   0.008 -0.4444 -0.0520  0.2997
  685SOL    HW1 2054   1.221   1.179   3.066  0.4897  0.0612 -1.4410
  685SOL    HW2 2055   1.384   1.176   3.117 -0.4567  0.6132  0.5410
  686SOL     OW 2056   0.252   0.321   1.086  0.0500 -0.0980 -0.3890
  686SOL    HW1 2057   0.265   0.226   1.126 -1.9485 -3.9925  0.0549
  686SOL    HW2 2058   0.202   0.385   1.146  2.8666  2.3399 -0.7229
  687SOL     OW 2059   0.717   1.933   2.385  0.1922 -0.5564 -0.1982
  687SOL    HW1 2060   0.821   1.938   2.385  0.4914  0.4124 -0.6296
  687SOL    HW2 2061   0.687   1.862   2.319  0.9435 -0.5658  0.1087
  688SOL     OW 2062   0.283   1.885   1.069  0.1136  0.1928 -0.0370
  688SOL    HW1 2063   0.317   1.918   1.161  2.4072  1.1051  4.1265
  688SOL    HW2 2064   0.339   1.919   0.993 -1.3281  2.0918  0.0407
  689SOL     OW 2065   1.772   0.867   1.472 -0.3498 -0.1984 -0.2486
  689SOL    HW1 2066   1.696   0.938   1.464 -3.6273  1.2951  0.1307
  689SOL    HW2 2067   1.786   0.830   1.380  0.0247  2.3207 -3.6004
  690SOL     OW 2068   2.442   0.985   1.025  0.0640 -0.3830 -0.1772
  690SOL    HW1 2069   2.404   0.982   0.928 -0.0411 -0.5341 -1.7512
  690SOL    HW2 2070   2.545   1.006   1.028  3.3931 -1.0686 -0.6905
  691SOL     OW 2071   0.274   2.207   1.963  0.8560  0.1853  0.1792
  691SOL    HW1 2072   0.296   2.275   2.029  0.4248 -1.9969 -1.3827
  691SOL    HW2 2073   0.212   2.134   2.005  0.0654 -1.8295  0.5807
  692SOL     OW 2074   1.800   3.013   0.898  0.0116 -0.6139 -0.1211
  692SOL    HW1 2075   1.830   2.930   0.844 -1.4011  0.6811 -1.6347
  692SOL    HW2 2076   1.747   2.983   0.981  0.9561 -0.7206  0.9602
  693SOL     OW 2077   0.154   1.400   2.330  0.3252  0.0886 -0.5919
  693SOL    HW1 2078   0.171   1.492   2.372  1.4933  0.6355  0.9307
  693SOL    HW2 2079   0.059   1.396   2.287  0.5728 -0.6169 -2.3751
  694SOL     OW 2080   2.138   0.819   0.953  0.1735 -0.0923  0.2632
  694SOL    HW1 2081   2.187   0.780   1.032  0.4913 -1.6309 -0.4342
  694SOL    HW2 2082   2.102   0.917   0.967  1.0105  0.2951 -2.2136
  695SOL     OW 2083   0.914   1.049   1.643 -0.3570  0.3892  0.2405
  695SOL    HW1 2084   0.827   1.067   1.593 -0.3830 -1.1097  0.8082
  695SOL    HW2 2085   0.971   1.130   1.651 -0.6491 -1.8296 -0.1682
  696SOL     OW 2086   1.397   3.097   0.229  0.6539  0.1549  0.1047
  696SOL    HW1 2087   1.341   3.036   0.171  0.4370  0.2309 -0.9984
  696SOL    HW2 2088   1.336   0.018   0.300  1.6819  1.0902  1.0397
  697SOL     OW 2089   1.005   0.296   1.146  0.4290  0.0400 -0.4509
  697SOL    HW1 2090   0.942   0.324   1.073  1.3126 -2.1265  1.0982
  697SOL    HW2 2091   1.099   0.275   1.110  0.1219 -1.0330  0.5508
  698SOL     OW 2092   1.355   1.685   2.392 -0.3310 -0.4328  0.1459
  698SOL    HW1 2093   1.412   1.661   2.311 -0.5791 -0.2860 -0.1211
  698SOL    HW2 2094   1.258   1.673   2.366 -0.4875  2.9205 -1.7126
  699SOL     OW 2095   1.378   0.965   1.076  0.4250  0.5601  0.2852
  699SOL    HW1 2096   1.285   0.970   1.110  1.1026 -0.3502 -0.6212
  699SOL    HW2 2097   1.401   0.876   1.032  1.1046 -1.4887  1.0492
  700SOL     OW 2098   0.867   2.958   0.701 -0.0790 -0.0221  0.4487
  700SOL    HW1 2099   0.935   2.966   0.621  1.9171  0.4751 -0.0448
  700SOL    HW2 2100   0.834   3.049   0.737  0.0325  1.4905  0.8259
  701SOL     OW 2101   2.757   2.797   2.675 -0.6188  0.5383 -0.1958
  701SOL    HW1 2102   2.658   2.784   2.642 -1.2481 -1.7367  0.7013
  701SOL    HW2 2103   2.781   2.896   2.670 -2.0942  0.0362  1.1769
  702SOL     OW 2104   0.903   0.096   0.493 -0.2007  0.6773 -0.0223
  702SOL    HW1 2105   0.945   0.003   0.499  1.3154  0.6000  0.1389
  702SOL    HW2 2106   0.874   0.128   0.587  2.9732  1.5021 -0.1352
  703SOL     OW 2107   2.479   0.143   2.363 -0.3481 -0.1830 -0.1909
  703SOL    HW1 2108   2.490   0.125   2.262 -0.5030  0.3658 -0.1782
  703SOL    HW2 2109   2.501   0.241   2.377 -0.5546 -1.8682  1.8178
  704SOL     OW 2110   2.917   1.654   0.769 -0.1866 -0.1492 -0.0869
  704SOL    HW1 2111   2.921   1.586   0.694 -0.0893 -0.0961  0.3031
  704SOL    HW2 2112   2.990   1.724   0.774 -1.0506  0.0239  2.7370
  705SOL     OW 2113   3.077   3.040   2.064 -0.0159 -0.7846  0.2461
  705SOL    HW1 2114   0.003   3.116   2.111  0.1693 -0.3127 -1.9277
  705SOL    HW2 2115   2.996   3.012   2.120  0.2862 -0.1486 -1.0379
  706SOL     OW 2116   2.617   2.616   0.852 -0.0758 -0.2332 -0.3062
  706SOL    HW1 2117   2.649   2.632   0.949 -1.2622 -2.5839 -0.0689
  706SOL    HW2 2118   2.548   2.541   0.848 -1.5535 -2.1313 -1.0927
  707SOL     OW 2119   1.022   2.038   1.492  0.0908 -0.2310  0.1154
  707SOL    HW1 2120   0.953   2.088   1.550  0.6159 -2.6974  0.1067
  707SOL    HW2 2121   0.986   2.025   1.396  1.1488  3.4391  0.1464
  708SOL     OW 2122   0.054   2.335   1.824  0.0444 -0.4852 -0.0384
  708SOL    HW1 2123   0.044   2.378   1.730 -0.6570  0.3205  1.0734
  708SOL    HW2 2124   0.127   2.265   1.836 -1.4171 -1.0676  1.4305
  709SOL     OW 2125   2.157   3.067   2.021 -0.3187  0.0496  0.0562
  709SOL    HW1 2126   2.139   0.035   1.992 -0.9707  0.1681 -3.6198
  709SOL    HW2 2127   2.251   3.037   1.999 -2.7678 -2.1336 -0.2055
  710SOL     OW 2128   1.717   1.009   2.780  0.3228 -0.1324 -0.1750
  710SOL    HW1 2129   1.808   0.975   2.796 -0.6000 -2.8744 -3.0392
  710SOL    HW2 2130   1.718   1.114   2.781  1.1878  2.6077  0.6134
  711SOL     OW 2131   0.950   2.374   3.074  0.6649 -0.3194  0.1661
  711SOL    HW1 2132   0.900   2.464   3.072  2.7261 -1.4215 -0.1812
  711SOL    HW2 2133   0.884   2.299   3.052 -0.8403  0.5440 -0.8992
  712SOL     OW 2134   0.577   2.411   2.732 -0.0596 -0.3152 -0.2794
  712SOL    HW1 2135   0.649   2.388   2.661  0.3610 -0.6220  0.5038
  712SOL    HW2 2136   0.485   2.390   2.696 -2.9193 -3.0628  1.4570
  713SOL     OW 2137   1.720   1.497   3.026  0.2480 -0.3205 -0.8219
  713SOL    HW1 2138   1.820   1.474   3.011 -0.3508  0.0427  0.3255
  713SOL    HW2 2139   1.704   1.569   3.096 -0.7706 -0.2493 -0.1843
  714SOL     OW 2140   1.139   1.648   1.354  0.0263  0.3437 -0.0165
  714SOL    HW1 2141   1.204   1.697   1.288  0.2626 -0.0436  0.7400
  714SOL    HW2 2142   1.110   1.711   1.431 -0.4634  0.1446  1.2115
  715SOL     OW 2143   1.775   0.257   0.028  0.1735  0.2085  0.5682
  715SOL    HW1 2144   1.850   0.315   3.115 -1.0383  2.0977  1.1863
  715SOL    HW2 2145   1.757   0.285   0.123  0.5405  2.5701 -2.2651
  716SOL     OW 2146   0.261   2.633   2.257 -0.2861  0.2946  0.0873
  716SOL    HW1 2147   0.160   2.622   2.263 -0.2070  0.2200 -0.4651
  716SOL    HW2 2148   0.299   2.699   2.325 -1.8647  0.4815 -0.0863
  717SOL     OW 2149   3.085   0.685   1.045 -0.6406  0.3623 -0.4774
  717SOL    HW1 2150   3.036   0.737   0.972 -1.7458 -0.1405  0.6654
  717SOL    HW2 2151   3.014   0.659   1.121 -0.0537 -0.6765  1.2706
  718SOL     OW 2152   0.740   1.477   2.478  0.1650  0.4024  0.2056
  718SOL    HW1 2153   0.729   1.524   2.570  0.6085  1.1331  0.3739
  718SOL    HW2 2154   0.682   1.522   2.406 -1.6761  0.2525  0.9749
  719SOL     OW 2155   2.192   1.069   3.095 -0.7851  0.3010  0.2523
  719SOL    HW1 2156   2.091   1.054   3.087  0.4448 -0.9809 -1.5434
  719SOL    HW2 2157   2.242   0.995   3.045 -1.1885 -0.2655 -0.3328
  720SOL     OW 2158   0.845   0.750   1.021 -0.2289 -0.2957 -0.5024
  720SOL    HW1 2159   0.909   0.782   1.089 -5.2881 -1.9551 -0.7010
  720SOL    HW2 2160   0.799   0.670   1.059 -0.5283  2.7163 -0.5091
  721SOL     OW 2161   2.597   0.210   0.472  0.1151 -0.4343 -0.9276
  721SOL    HW1 2162   2.585   0.168   0.565  0.6868  1.6429 -1.4746
  721SOL    HW2 2163   2.666   0.163   0.421 -1.3483  0.2621  1.5224
  722SOL     OW 2164   1.956   0.892   2.804  0.3197 -0.3238  0.1260
  722SOL    HW1 2165   2.038   0.927   2.753  0.9217  0.8513 -0.5689
  722SOL    HW2 2166   1.982   0.856   2.899 -1.7388  1.0819  0.2512
  723SOL     OW 2167   2.476   0.415   0.604  0.6459 -0.1495  0.2574
  723SOL    HW1 2168   2.564   0.458   0.633  0.0650 -1.3247 -0.4449
  723SOL    HW2 2169   2.503   0.345   0.534 -1.7547  2.0558  0.0866
  724SOL     OW 2170   0.693   1.487   2.094 -0.2928  0.2080 -0.0110
  724SOL    HW1 2171   0.657   1.393   2.119 -0.5303 -2.6190 -1.0045
  724SOL    HW2 2172   0.650   1.515   2.006  0.5164  0.7442  0.5937
  725SOL     OW 2173   1.833   0.259   1.325 -0.6759  0.3920 -0.4130
  725SOL    HW1 2174   1.811   0.356   1.343 -0.8831  0.1587  1.3822
  725SOL    HW2 2175   1.887   0.255   1.240  1.7237  0.2787 -0.0604
  726SOL     OW 2176   2.097   2.769   0.361  0.2604 -0.0536 -0.1740
  726SOL    HW1 2177   2.177   2.756   0.425  3.4528 -0.2711 -0.6238
  726SOL    HW2 2178   2.034   2.692   0.356 -1.1658 -1.0421  0.1091
  727SOL     OW 2179   1.877   1.829   1.734  0.3934  0.0432 -0.1920
  727SOL    HW1 2180   1.874   1.829   1.836 -1.7958 -0.0234 -1.0164
  727SOL    HW2 2181   1.886   1.735   1.693 -0.7785 -1.6506 -1.1046
  728SOL     OW 2182   2.174   2.822   1.493 -0.1300  0.5759 -0.0495
  728SOL    HW1 2183   2.113   2.899   1.460 -0.9800 -0.9236 -0.9808
  728SOL    HW2 2184   2.127   2.736   1.465  1.6076 -0.4853 -1.7620
  729SOL     OW 2185   2.377   1.626   0.878 -0.2376 -0.0350 -0.1232
  729SOL    HW1 2186   2.297   1.635   0.811 -0.6668 -0.0851  2.5783
  729SOL    HW2 2187   2.462   1.663   0.842 -0.7810 -2.5041  2.0046
  730SOL     OW 2188   0.704   1.070   2.696  0.1513  0.1334 -0.3577
  730SOL    HW1 2189   0.639   1.137   2.736  1.4047  1.3931 -1.5451
  730SOL    HW2 2190   0.729   1.118   2.614 -1.8363 -0.4951  3.5797
  731SOL     OW 2191   0.138   3.094   0.862 -0.1303 -0.3296 -0.0775
  731SOL    HW1 2192   0.135   0.046   0.793 -1.1599  4.4716 -2.1103
  731SOL    HW2 2193   0.187   3.124   0.944 -0.8657 -0.6858 -0.2569
  732SOL     OW 2194   1.438   0.679   0.378  0.5845 -0.3907  0.1645
  732SOL    HW1 2195   1.481   0.646   0.287  0.9561 -2.4755 -0.7862
  732SOL    HW2 2196   1.401   0.611   0.445 -1.1779  1.9918  1.0000
  733SOL     OW 2197   0.468   1.979   0.885  0.1257  0.4148  0.2830
  733SOL    HW1 2198   0.567   1.998   0.867  2.0949 -1.0334 -0.4299
  733SOL    HW2 2199   0.428   1.905   0.823 -2.3308  4.8637 -1.0374
  734SOL     OW 2200   0.185   2.397   0.461 -0.2380 -0.3424 -0.2335
  734SOL    HW1 2201   0.210   2.454   0.377  0.1193  1.0844 -1.3050
  734SOL    HW2 2202   0.091   2.416   0.490  0.5433  0.6447  0.8555
  735SOL     OW 2203   1.262   0.267   1.086 -0.1937  0.0738 -0.5135
  735SOL    HW1 2204   1.266   0.199   1.164  0.6678  1.3592  0.9696
  735SOL    HW2 2205   1.355   0.282   1.055 -0.5428 -0.8123 -0.2316
  736SOL     OW 2206   2.010   2.514   0.096  0.1142 -0.1169  0.5369
  736SOL    HW1 2207   2.024   2.475   0.002  4.0655  1.3661 -0.0881
  736SOL    HW2 2208   1.963   2.601   0.086  0.6499 -1.2245 -1.9542
  737SOL     OW 2209   0.269   0.942   0.954 -0.3867  0.2429 -0.1357
  737SOL    HW1 2210   0.231   1.031   0.988  1.4803  1.7334 -1.0769
  737SOL    HW2 2211   0.252   0.927   0.855  1.1417  1.7098 -0.1034
  738SOL     OW 2212   2.764   2.944   1.738 -0.7526 -0.0300 -0.2222
  738SOL    HW1 2213   2.774   2.849   1.771  2.6045 -0.2337  0.7827
  738SOL    HW2 2214   2.786   3.021   1.806  1.1589  2.6214  1.1425
  739SOL     OW 2215   1.453   2.538   2.878 -0.8538 -0.1253  0.4278
  739SOL    HW1 2216   1.473   2.511   2.781 -1.6214  0.3934 -0.3994
  739SOL    HW2 2217   1.465   2.459   2.943  1.1372  1.9378  1.2186
  740SOL     OW 2218   1.563   0.259   1.078  0.2136 -0.5858 -0.2571
  740SOL    HW1 2219   1.588   0.204   1.163 -0.2710  0.5534  0.6878
  740SOL    HW2 2220   1.554   0.197   0.995 -1.3669 -0.8837 -1.0312
  741SOL     OW 2221   2.963   0.614   0.627 -0.0992  0.1224  0.4994
  741SOL    HW1 2222   2.980   0.712   0.638  0.3276 -1.3716 -1.5883
  741SOL    HW2 2223   3.022   0.563   0.683  0.1723  0.2769 -1.7572
  742SOL     OW 2224   0.758   1.592   2.707  0.0190 -0.2198 -0.2063
  742SOL    HW1 2225   0.841   1.568   2.766  2.5421 -2.0135 -1.3757
  742SOL    HW2 2226   0.692   1.650   2.753 -1.1780  2.6306  0.2502
  743SOL     OW 2227   1.318   0.681   1.994 -0.5932  0.5334  0.3474
  743SOL    HW1 2228   1.377   0.599   2.007  1.2742  0.7745  0.0799
  743SOL    HW2 2229   1.224   0.653   2.002  0.4137  1.2669 -0.0293
  744SOL     OW 2230   2.087   0.868   1.333  0.7595  0.1809 -0.5700
  744SOL    HW1 2231   2.182   0.855   1.364 -2.8144 -1.8468  0.4471
  744SOL    HW2 2232   2.041   0.917   1.411  1.9101 -0.8673 -2.1322
  745SOL     OW 2233   1.211   1.601   1.710 -0.2720  0.6625  0.0532
  745SOL    HW1 2234   1.154   1.678   1.675  1.0337  2.7642 -0.2616
  745SOL    HW2 2235   1.209   1.523   1.647 -2.8109 -0.5157  0.8893
  746SOL     OW 2236   2.134   1.822   0.815  0.1247  0.1624 -0.2249
  746SOL    HW1 2237   2.175   1.823   0.909  3.8711 -2.5176 -1.5006
  746SOL    HW2 2238   2.116   1.723   0.788 -0.7574 -1.6003  0.2220
  747SOL     OW 2239   2.396   1.621   1.167 -0.3720  0.3351  0.1238
  747SOL    HW1 2240   2.355   1.597   1.078 -0.6069 -0.0710 -1.2493
  747SOL    HW2 2241   2.475   1.688   1.159  1.9846 -1.2435 -2.5416
  748SOL     OW 2242   0.740   2.027   0.838  0.6840 -0.2494  0.0850
  748SOL    HW1 2243   0.791   2.109   0.808 -2.3764 -0.2017  0.6867
  748SOL    HW2 2244   0.786   1.949   0.788 -0.0738 -1.6885 -1.1725
  749SOL     OW 2245   2.376   2.869   2.288 -0.0321 -0.0467 -0.2060
  749SOL    HW1 2246   2.280   2.890   2.306  1.3087 -0.0161 -0.1036
  749SOL    HW2 2247   2.416   2.788   2.338  0.1366  0.3279 -3.0051
  750SOL     OW 2248   2.350   0.443   0.832  0.1758  0.2771  0.5393
  750SOL    HW1 2249   2.380   0.428   0.733 -1.2050 -0.7267 -2.1037
  750SOL    HW2 2250   2.257   0.486   0.832  3.5110 -1.4502 -1.4194
  751SOL     OW 2251   2.605   2.725   0.375  0.3729  0.4335 -1.0134
  751SOL    HW1 2252   2.668   2.655   0.337  0.9222  0.3182 -1.2255
  751SOL    HW2 2253   2.637   2.815   0.339  0.4130  1.3705  1.9283
  752SOL     OW 2254   3.082   2.874   0.905  0.1907  0.3651  0.3004
  752SOL    HW1 2255   3.112   2.801   0.837  0.1876 -2.6640 -0.2574
  752SOL    HW2 2256   0.026   2.950   0.901  1.9683  0.6055 -2.7540
  753SOL     OW 2257   1.573   0.975   2.317 -0.7192 -0.4426  0.1459
  753SOL    HW1 2258   1.560   1.038   2.231  0.0255 -0.7755 -3.0395
  753SOL    HW2 2259   1.530   0.884   2.300 -0.5274  1.4095 -1.7497
  754SOL     OW 2260   1.660   2.287   1.695 -0.3889  0.2059  0.7717
  754SOL    HW1 2261   1.559   2.278   1.719  0.4433 -1.8553  0.1314
  754SOL    HW2 2262   1.697   2.194   1.676  1.7818  0.7394 -0.8089
  755SOL     OW 2263   2.643   0.792   0.798 -0.1085 -0.3223  0.0058
  755SOL    HW1 2264   2.576   0.764   0.869  3.1880 -1.7410  1.2034
  755SOL    HW2 2265   2.601   0.816   0.710  1.3717 -1.1710  1.0112
  756SOL     OW 2266   0.958   1.479   2.839  0.2420  0.6401 -0.2652
  756SOL    HW1 2267   0.961   1.398   2.779 -1.5049 -0.1307  1.6445
  756SOL    HW2 2268   1.036   1.539   2.826  0.1198 -3.4334  1.4199
  757SOL     OW 2269   1.146   2.686   0.709 -0.3697 -0.3094  0.3307
  757SOL    HW1 2270   1.187   2.709   0.800 -2.3985 -0.5949  0.1544
  757SOL    HW2 2271   1.199   2.733   0.634  0.6075 -0.2393 -0.0704
  758SOL     OW 2272   1.071   2.810   1.404  0.2356 -0.2072 -0.4009
  758SOL    HW1 2273   1.038   2.907   1.386  1.6143 -0.4781 -2.4015
  758SOL    HW2 2274   1.113   2.806   1.496 -1.7422  0.5852  1.4404
  759SOL     OW 2275   0.165   0.637   0.573  0.0997  0.4739  0.0547
  759SOL    HW1 2276   0.131   0.585   0.656  1.2157  0.4895 -2.7248
  759SOL    HW2 2277   0.139   0.587   0.487  1.6796 -0.7805  0.6480
  760SOL     OW 2278   2.297   1.124   1.204  0.1263 -0.0659 -0.1460
  760SOL    HW1 2279   2.344   1.060   1.139 -0.6153  0.0468 -1.6242
  760SOL    HW2 2280   2.360   1.202   1.228  3.0141 -2.2162 -2.5562
  761SOL     OW 2281   1.912   0.113   0.713 -0.2171  0.5236  0.1995
  761SOL    HW1 2282   1.896   0.026   0.775 -2.2923 -3.4782  3.9473
  761SOL    HW2 2283   1.978   0.178   0.748 -3.4002  1.2788 -0.2968
  762SOL     OW 2284   2.319   1.856   0.210  0.2706  0.0657 -0.1898
  762SOL    HW1 2285   2.359   1.768   0.236  0.5662 -2.0897  0.2415
  762SOL    HW2 2286   2.385   1.907   0.155 -3.2246 -2.5257 -0.4321
  763SOL     OW 2287   0.711   1.597   1.431 -0.2984 -0.1900 -0.3383
  763SOL    HW1 2288   0.735   1.542   1.348 -0.7201 -0.2337 -1.4443
  763SOL    HW2 2289   0.612   1.620   1.429 -0.3507  0.3272  0.0742
  764SOL     OW 2290   2.619   2.170   2.371  0.0234  0.4680 -0.2974
  764SOL    HW1 2291   2.528   2.198   2.332 -0.4727  0.5545  0.2824
  764SOL    HW2 2292   2.623   2.172   2.473  0.8039  0.8209 -1.1085
  765SOL     OW 2293   0.600   2.553   1.163 -0.6884 -0.2280  0.1042
  765SOL    HW1 2294   0.689   2.591   1.122 -0.4369 -1.1174 -1.7960
  765SOL    HW2 2295   0.544   2.510   1.093  0.3322  0.4092 -0.6306
  766SOL     OW 2296   2.969   1.948   2.390  0.2226 -0.1705 -0.5563
  766SOL    HW1 2297   3.063   1.983   2.373  1.3046 -0.3852  1.2703
  766SOL    HW2 2298   2.952   1.973   2.487 -0.9449  0.3086 -0.1447
  767SOL     OW 2299   2.340   1.052   2.755 -0.6973  0.4330 -0.7721
  767SOL    HW1 2300   2.404   1.046   2.677 -1.5324 -1.7864  1.1853
  767SOL    HW2 2301   2.342   0.972   2.819  1.9272 -1.8853  3.5636
  768SOL     OW 2302   1.343   0.338   2.596  0.1961  0.0951  0.1238
  768SOL    HW1 2303   1.339   0.418   2.659 -1.5561  0.3722  1.4744
  768SOL    HW2 2304   1.281   0.263   2.628 -0.1311 -0.5486  2.2245
  769SOL     OW 2305   3.124   2.530   1.186 -0.4528 -0.1191 -0.0975
  769SOL    HW1 2306   0.016   2.535   1.085  0.0729  0.2211 -1.4404
  769SOL    HW2 2307   0.079   2.495   1.232 -1.1290  1.1804 -0.4915
  770SOL     OW 2308   0.660   0.348   2.929 -0.1221  0.2212  0.0707
  770SOL    HW1 2309   0.628   0.431   2.973  0.3316 -1.6094 -1.4580
  770SOL    HW2 2310   0.714   0.284   2.988 -1.9579 -2.5869 -1.9187
  771SOL     OW 2311   1.176   1.998   2.564  0.2055  0.2830  0.0363
  771SOL    HW1 2312   1.112   1.936   2.515  0.0769  0.4221 -1.0343
  771SOL    HW2 2313   1.263   1.942   2.585  3.5933 -0.0132  2.0527
  772SOL     OW 2314   1.969   0.177   2.335 -0.3534 -0.0256  0.3803
  772SOL    HW1 2315   2.006   0.127   2.416 -2.8708  0.4169  1.6563
  772SOL    HW2 2316   1.924   0.114   2.269 -0.0524  0.1678  0.6595
  773SOL     OW 2317   1.746   0.836   1.773 -0.1862 -0.0332  0.0063
  773SOL    HW1 2318   1.748   0.830   1.673 -0.8953 -0.4787  0.1919
  773SOL    HW2 2319   1.810   0.759   1.806  1.6568 -3.8173  1.3230
  774SOL     OW 2320   1.320   0.584   1.343 -0.1623  0.2868  0.0025
  774SOL    HW1 2321   1.363   0.537   1.265  0.3881  3.4984  2.0684
  774SOL    HW2 2322   1.377   0.669   1.357 -0.6054  1.0430 -0.4134
  775SOL     OW 2323   2.075   2.866   3.021 -0.0826  0.8662  0.1364
  775SOL    HW1 2324   2.014   2.817   3.087 -1.7850  2.2310  0.5288
  775SOL    HW2 2325   2.092   2.813   2.938  1.4560 -0.6295 -1.9072
  776SOL     OW 2326   1.997   0.973   1.574 -0.2058 -0.1512  0.0820
  776SOL    HW1 2327   1.903   0.933   1.552 -1.7228 -2.5813 -2.2703
  776SOL    HW2 2328   2.029   0.942   1.669 -1.9982  0.3935  1.0742
  777SOL     OW 2329   3.058   1.387   2.149  0.1108  0.3460  0.1316
  777SOL    HW1 2330   2.982   1.414   2.205 -1.3408 -0.7189 -1.8878
  777SOL    HW2 2331   3.067   1.286   2.145  1.0274 -0.2587  2.4180
  778SOL     OW 2332   2.731   1.178   2.490  0.1177 -0.0403  0.2066
  778SOL    HW1 2333   2.798   1.117   2.449 -0.9070  0.7715  2.8731
  778SOL    HW2 2334   2.772   1.223   2.571 -2.3947 -1.5058  0.2497
  779SOL     OW 2335   2.999   0.738   2.991  0.4377 -0.4183 -0.5039
  779SOL    HW1 2336   3.056   0.652   2.982  2.3772 -0.0353  1.7836
  779SOL    HW2 2337   2.946   0.743   3.082 -0.3516 -3.2599  0.2626
  780SOL     OW 2338   2.420   2.591   2.436  0.4140  0.2118  0.0321
  780SOL    HW1 2339   2.508   2.575   2.387  1.0261  0.0148 -0.5377
  780SOL    HW2 2340   2.371   2.502   2.451 -0.3152  1.3886 -2.4050
  781SOL     OW 2341   3.038   1.021   1.865  0.2515 -0.1825 -0.1534
  781SOL    HW1 2342   2.966   0.947   1.879 -1.6515 -1.5489 -1.3659
  781SOL    HW2 2343   2.993   1.116   1.874  0.4832  2.3283 -1.8212
  782SOL     OW 2344   1.486   2.396   2.624  0.1990  0.0401 -0.2717
  782SOL    HW1 2345   1.559   2.324   2.613  1.4195 -0.2344  2.3954
  782SOL    HW2 2346   1.393   2.356   2.600  1.6251 -0.0061  2.8113
  783SOL     OW 2347   0.970   2.412   1.015  0.3120 -0.3277  0.2077
  783SOL    HW1 2348   0.960   2.374   1.110 -1.8010  0.0972 -0.8892
  783SOL    HW2 2349   0.919   2.502   0.997  1.0765  1.6768 -0.5917
  784SOL     OW 2350   2.140   0.564   2.454 -0.3692  0.4391  0.3739
  784SOL    HW1 2351   2.045   0.580   2.472 -1.4355  0.0402 -1.7097
  784SOL    HW2 2352   2.148   0.500   2.379 -3.4903  0.1964  0.1308
  785SOL     OW 2353   0.012   0.217   1.445 -0.0156  0.0868  0.6932
  785SOL    HW1 2354   3.099   0.122   1.435 -0.1319  1.1748 -0.4325
  785SOL    HW2 2355   0.108   0.216   1.482  0.4424  1.2762  1.4034
  786SOL     OW 2356   1.489   2.306   3.054 -0.4856 -0.3385 -0.2212
  786SOL    HW1 2357   1.591   2.300   3.071  1.1234  0.1523 -0.8246
  786SOL    HW2 2358   1.440   2.298   0.017  2.8992  1.2314  0.9497
  787SOL     OW 2359   1.152   0.075   0.718 -0.5597  0.0854 -0.2065
  787SOL    HW1 2360   1.105   0.058   0.807 -0.8922  0.2519  0.1977
  787SOL    HW2 2361   1.173   0.172   0.709 -2.7917 -2.2039  2.4597
  788SOL     OW 2362   0.137   1.312   1.286 -0.3227  0.0911  0.2263
  788SOL    HW1 2363   0.121   1.413   1.284 -0.0823  0.0682  0.5664
  788SOL    HW2 2364   0.096   1.276   1.370 -2.2587  1.0939 -1.6759
  789SOL     OW 2365   2.439   0.925   2.258  0.1817 -0.2505  0.1815
  789SOL    HW1 2366   2.371   0.859   2.266  2.4846  1.8536 -0.3236
  789SOL    HW2 2367   2.408   0.998   2.195  1.6828 -0.2845  0.1573
  790SOL     OW 2368   1.324   0.556   2.743 -0.3734  0.3995 -0.8598
  790SOL    HW1 2369   1.283   0.618   2.671  1.0652  2.4528  0.7313
  790SOL    HW2 2370   1.247   0.532   2.811 -0.5906  1.2240 -0.1910
  791SOL     OW 2371   0.231   2.614   0.271 -0.3420 -0.2133  0.1180
  791SOL    HW1 2372   0.170   2.686   0.314  0.0374  2.9554 -0.8406
  791SOL    HW2 2373   0.328   2.655   0.274  0.9121 -0.0144  2.2270
  792SOL     OW 2374   1.299   0.926   1.855  0.1191  0.4447  0.4810
  792SOL    HW1 2375   1.296   0.832   1.890 -0.2599 -0.1378 -1.3959
  792SOL    HW2 2376   1.267   0.913   1.757 -0.3074 -2.1088 -2.0605
  793SOL     OW 2377   2.688   0.436   1.117  0.1181  0.5240  0.3055
  793SOL    HW1 2378   2.789   0.444   1.130 -1.6232  1.9341  2.5278
  793SOL    HW2 2379   2.644   0.371   1.186 -3.2015  1.3777 -0.2000
  794SOL     OW 2380   2.868   0.232   2.445  0.3608 -0.2527 -0.0952
  794SOL    HW1 2381   2.925   0.307   2.488 -0.0362  0.7336 -0.2038
  794SOL    HW2 2382   2.869   0.241   2.342 -1.5812  1.5768  0.2574
  795SOL     OW 2383   0.602   1.361   0.241 -0.1295  0.0917 -0.1240
  795SOL    HW1 2384   0.704   1.352   0.237 -2.0774  0.3054  1.2969
  795SOL    HW2 2385   0.571   1.455   0.232  1.7639 -2.3261 -2.7564
  796SOL     OW 2386   2.949   0.904   2.785  0.2213  0.7297 -0.2165
  796SOL    HW1 2387   2.967   0.832   2.859  1.1501  0.9573  1.0990
  796SOL    HW2 2388   2.990   0.871   2.696  0.5055 -0.7327  1.1371
  797SOL     OW 2389   2.379   3.064   2.501 -0.0550  0.6287 -0.8731
  797SOL    HW1 2390   2.410   0.015   2.444 -0.1971 -2.4187  1.5123
  797SOL    HW2 2391   2.420   2.976   2.471  0.9586 -1.3509 -2.5955
  798SOL     OW 2392   0.140   2.989   1.313 -0.0033  0.9329  0.0335
  798SOL    HW1 2393   0.059   2.949   1.261  0.0321 -0.9734 -0.2404
  798SOL    HW2 2394   0.116   3.023   1.408  0.7494  2.4369  2.4541
  799SOL     OW 2395   2.887   0.851   1.642  0.5673  0.5286 -0.0933
  799SOL    HW1 2396   2.855   0.833   1.545 -1.4214 -0.4114  1.5184
  799SOL    HW2 2397   2.909   0.947   1.649 -1.1054 -2.9678  1.6975
  800SOL     OW 2398   0.641   1.440   0.692  0.0795 -0.7817  0.2035
  800SOL    HW1 2399   0.574   1.483   0.631  2.5933 -0.2241  1.3946
  800SOL    HW2 2400   0.612   1.348   0.724  1.1636  1.5429  1.0756
  801SOL     OW 2401   2.050   1.873   0.388 -0.0687 -0.1585 -0.1477
  801SOL    HW1 2402   2.011   1.957   0.346 -1.0974  0.2570 -1.1913
  801SOL    HW2 2403   1.978   1.804   0.418 -2.4991 -1.1730  1.0405
  802SOL     OW 2404   1.198   1.224   2.839  0.4053 -0.3686  0.1011
  802SOL    HW1 2405   1.234   1.317   2.864  0.3557 -2.1423  1.7797
  802SOL    HW2 2406   1.265   1.171   2.787 -0.3336 -1.3396  1.0607
  803SOL     OW 2407   1.044   1.768   1.579  0.3631  0.2393 -0.2675
  803SOL    HW1 2408   0.958   1.748   1.632 -0.3085 -0.7994 -2.5646
  803SOL    HW2 2409   1.043   1.871   1.569  2.5942  1.1477  0.7059
  804SOL     OW 2410   1.537   2.510   0.509  0.1489 -0.5997  0.3711
  804SOL    HW1 2411   1.597   2.432   0.528 -0.2773  3.5330 -1.4707
  804SOL    HW2 2412   1.594   2.600   0.510  0.9670  1.1495 -0.6135
  805SOL     OW 2413   2.983   2.503   2.448 -0.2326 -0.4978  0.1530
  805SOL    HW1 2414   2.925   2.423   2.412 -0.4676 -1.3015 -0.5392
  805SOL    HW2 2415   3.027   2.562   2.378 -0.6082 -2.7511 -1.7893
  806SOL     OW 2416   2.927   3.068   0.615  0.4368  0.3843  0.4581
  806SOL    HW1 2417   2.896   3.102   0.709  1.7902  2.2747 -0.8328
  806SOL    HW2 2418   3.016   3.019   0.624 -2.5720 -0.8968 -0.6519
  807SOL     OW 2419   2.343   0.883   2.968  0.2434  0.0308  0.8451
  807SOL    HW1 2420   2.440   0.879   2.975 -2.5658 -1.4147  0.1365
  807SOL    HW2 2421   2.306   0.795   3.008  0.0861 -2.1550  0.6877
  808SOL     OW 2422   1.322   2.428   0.675 -0.3629 -0.2034 -0.1729
  808SOL    HW1 2423   1.403   2.437   0.613  0.0119 -0.6326  0.8324
  808SOL    HW2 2424   1.247   2.490   0.659  1.6250 -3.6702  0.4332
  809SOL     OW 2425   2.663   0.175   3.000  0.1519  0.0338  0.3458
  809SOL    HW1 2426   2.742   0.112   2.996  1.9574 -1.9283  0.3998
  809SOL    HW2 2427   2.685   0.260   3.050 -0.1468 -0.3891  1.2596
  810SOL     OW 2428   1.328   1.095   0.662  0.0761 -0.2322 -0.1904
  810SOL    HW1 2429   1.258   1.143   0.720  0.4596 -0.1278 -0.4252
  810SOL    HW2 2430   1.323   0.992   0.668 -0.7378 -0.9738  2.3224
  811SOL     OW 2431   1.752   2.772   1.586  0.1750  0.4604 -0.1857
  811SOL    HW1 2432   1.680   2.790   1.508  0.3609  0.7941  0.4703
  811SOL    HW2 2433   1.715   2.690   1.638 -0.0176 -1.4056 -0.2360
  812SOL     OW 2434   1.761   2.986   0.143  0.0747  0.4878  0.0590
  812SOL    HW1 2435   1.673   2.977   0.194  1.3149  3.5300  1.5242
  812SOL    HW2 2436   1.760   3.050   0.064  1.6871  4.0888 -1.0269
  813SOL     OW 2437   1.291   0.386   2.243 -0.1175  0.5296  0.6249
  813SOL    HW1 2438   1.287   0.431   2.335  0.2409 -0.6620  0.2048
  813SOL    HW2 2439   1.293   0.285   2.259 -1.6445  0.2997 -1.7477
  814SOL     OW 2440   0.291   0.005   1.125  0.2506 -0.3117 -0.2365
  814SOL    HW1 2441   0.216   3.100   1.191  0.6059 -0.9769  1.3679
  814SOL    HW2 2442   0.381   3.112   1.169  0.0498 -1.1351  1.7379
  815SOL     OW 2443   0.352   2.581   0.845  0.3359 -0.3385  0.5115
  815SOL    HW1 2444   0.300   2.560   0.760 -0.3255  0.1882 -0.4723
  815SOL    HW2 2445   0.405   2.669   0.839 -1.3201 -0.6062  2.9407
  816SOL     OW 2446   2.696   1.597   2.700 -0.1840 -0.4095 -0.3332
  816SOL    HW1 2447   2.598   1.584   2.715 -0.6853  1.4169  0.1293
  816SOL    HW2 2448   2.712   1.692   2.660 -1.6852  3.9439  3.1334
  817SOL     OW 2449   1.244   0.007   2.931  0.0415  0.7614 -0.1469
  817SOL    HW1 2450   1.285   0.040   3.017  0.5964 -0.5328  2.3903
  817SOL    HW2 2451   1.145   3.106   2.945  1.3728 -0.6695  0.7777
  818SOL     OW 2452   1.662   0.978   0.357  0.5143 -0.1293 -0.4633
  818SOL    HW1 2453   1.748   0.995   0.408 -0.1163 -0.6271  1.5340
  818SOL    HW2 2454   1.584   1.037   0.389 -1.2249 -0.6200 -1.9565
  819SOL     OW 2455   1.759   2.563   2.765  0.0602 -0.4757 -0.3795
  819SOL    HW1 2456   1.706   2.592   2.681  1.6407 -0.2789 -0.3272
  819SOL    HW2 2457   1.788   2.641   2.817 -0.6074  1.1512  2.4056
  820SOL     OW 2458   1.003   0.681   0.214  0.1556  0.0977 -0.1947
  820SOL    HW1 2459   1.047   0.639   0.132  0.6297  4.5899  2.3744
  820SOL    HW2 2460   1.066   0.732   0.275 -1.2025 -0.2413 -0.8472
  821SOL     OW 2461   0.451   0.487   1.385 -0.3254 -0.7369 -0.7031
  821SOL    HW1 2462   0.498   0.562   1.441 -1.0857  0.7881 -0.9028
  821SOL    HW2 2463   0.439   0.516   1.289  0.5220 -0.6167  1.3066
  822SOL     OW 2464   1.397   2.618   2.066 -0.2247  0.4853  0.1332
  822SOL    HW1 2465   1.443   2.676   1.998 -0.1681  0.3538  1.5597
  822SOL    HW2 2466   1.351   2.534   2.024 -0.0692  1.3349  0.7147
  823SOL     OW 2467   0.725   1.102   2.041 -0.2594 -0.1097 -0.5089
  823SOL    HW1 2468   0.782   1.175   1.997  0.0932  0.7226  0.6176
  823SOL    HW2 2469   0.779   1.067   2.124  2.2449 -0.5738  2.4284
  824SOL     OW 2470   2.417   3.051   1.871  0.1811 -0.1354 -0.1688
  824SOL    HW1 2471   2.382   3.019   1.783 -1.3794 -1.4424 -1.3960
  824SOL    HW2 2472   2.456   0.019   1.859 -0.8776 -1.1363 -0.6280
  825SOL     OW 2473   0.876   1.299   0.168 -0.1296 -0.0637 -0.0781
  825SOL    HW1 2474   0.866   1.309   0.065  1.4476  0.4669  2.2312
  825SOL    HW2 2475   0.889   1.199   0.186  0.3858  0.9062 -2.6754
  826SOL     OW 2476   1.879   0.705   2.474  0.4748  0.6975 -0.8447
  826SOL    HW1 2477   1.854   0.628   2.536  0.9588 -0.7905 -1.0153
  826SOL    HW2 2478   1.902   0.787   2.531 -0.6378  3.0096 -0.1717
  827SOL     OW 2479   0.424   2.110   2.933 -0.1638 -0.0589  0.7798
  827SOL    HW1 2480   0.492   2.183   2.966 -0.5307 -1.3188 -1.1442
  827SOL    HW2 2481   0.417   2.116   2.829  0.7550  2.6447 -2.9281
  828SOL     OW 2482   2.762   0.256   1.457 -0.0631 -0.0031 -0.3734
  828SOL    HW1 2483   2.676   0.272   1.399 -1.8674 -0.4626  0.2183
  828SOL    HW2 2484   2.845   0.312   1.426  4.1340  3.0386 -1.6946
  829SOL     OW 2485   1.379   1.710   1.195  0.1889  0.0822 -0.2987
  829SOL    HW1 2486   1.460   1.768   1.214 -2.2490  1.4918 -1.1980
  829SOL    HW2 2487   1.398   1.639   1.124 -0.5585  2.0161 -2.4741
  830SOL     OW 2488   0.395   1.053   1.775 -0.0247 -0.0137  0.1690
  830SOL    HW1 2489   0.362   1.024   1.679 -0.9477 -1.3313 -1.5319
  830SOL    HW2 2490   0.318   1.046   1.840  1.7196  1.5705 -1.2272
  831SOL     OW 2491   0.514   1.604   0.213  0.3082 -0.4718  0.0210
  831SOL    HW1 2492   0.449   1.557   0.144 -2.3124 -2.3843 -2.8624
  831SOL    HW2 2493   0.518   1.698   0.182  0.6084 -1.6810  1.4695
  832SOL     OW 2494   0.968   0.249   2.830  0.7090 -0.1904 -0.0790
  832SOL    HW1 2495   0.936   0.240   2.929 -0.2388 -1.0395 -1.0566
  832SOL    HW2 2496   0.890   0.240   2.769 -0.6521 -0.7389  0.7428
  833SOL     OW 2497   3.085   0.695   2.009 -0.1528 -0.0742 -0.1129
  833SOL    HW1 2498   0.041   0.701   1.943  3.6964  0.1990 -1.3115
  833SOL    HW2 2499   3.007   0.752   1.975  1.2359 -3.3928 -1.1779
  834SOL     OW 2500   0.217   0.747   1.147  0.0387 -0.2481 -0.0291
  834SOL    HW1 2501   0.248   0.816   1.082 -0.9628  0.4302  0.6092
  834SOL    HW2 2502   0.122   0.711   1.123 -2.0855 -0.1755 -1.9175
  835SOL     OW 2503   2.725   2.707   1.135  0.7174  0.0561 -0.2204
  835SOL    HW1 2504   2.755   2.778   1.068  2.1825 -0.3252  1.4215
  835SOL    HW2 2505   2.777   2.717   1.221 -0.3094  0.6203 -4.3188
  836SOL     OW 2506   0.405   1.865   3.046 -0.3892  0.5338 -0.0217
  836SOL    HW1 2507   0.493   1.862   3.101  1.1928  0.2372 -0.1742
  836SOL    HW2 2508   0.388   1.959   3.010 -2.3667 -1.6814  1.5675
  837SOL     OW 2509   1.946   2.086   2.804 -0.0822 -0.6456  0.3384
  837SOL    HW1 2510   1.876   2.160   2.807  1.7101  1.6019  1.6139
  837SOL    HW2 2511   1.904   1.994   2.813  0.9828 -3.9222  3.1050
  838SOL     OW 2512   3.045   1.123   2.174 -0.6082  0.4002  0.4226
  838SOL    HW1 2513   2.994   1.074   2.249 -0.6879 -0.3051  0.0295
  838SOL    HW2 2514   3.070   1.062   2.098  2.1994 -0.4229  0.3088
  839SOL     OW 2515   1.065   0.843   0.435 -0.4010  0.6811  0.1899
  839SOL    HW1 2516   1.002   0.767   0.470 -1.9346 -1.1713  1.8495
  839SOL    HW2 2517   1.006   0.916   0.397  2.5025 -0.8796  1.3876
  840SOL     OW 2518   1.643   0.476   0.638 -0.0729 -0.9630 -0.2778
  840SOL    HW1 2519   1.684   0.565   0.659 -0.8354 -0.4290  0.2582
  840SOL    HW2 2520   1.540   0.485   0.638  1.4187 -1.1081  0.7339
  841SOL     OW 2521   0.494   2.846   0.809 -0.2029 -0.6157  0.1062
  841SOL    HW1 2522   0.526   2.901   0.895  0.0033  0.6205  3.6049
  841SOL    HW2 2523   0.579   2.805   0.768 -0.1558 -1.4661 -0.4309
  842SOL     OW 2524   0.509   0.274   0.164  0.4043  0.1566  0.1888
  842SOL    HW1 2525   0.442   0.239   0.091 -4.1782 -0.8660 -0.5282
  842SOL    HW2 2526   0.587   0.320   0.121  2.1140 -2.2273  0.2133
  843SOL     OW 2527   0.407   0.581   1.796  0.2427 -0.3452 -0.0996
  843SOL    HW1 2528   0.500   0.622   1.806  0.3517 -1.8971  0.6059
  843SOL    HW2 2529   0.401   0.506   1.865  0.5606  1.9815  0.2154
  844SOL     OW 2530   1.625   2.667   3.037 -0.1949  0.0813 -0.1451
  844SOL    HW1 2531   1.672   2.725   2.968 -0.5293 -0.1673  2.8571
  844SOL    HW2 2532   1.556   2.612   2.988  1.7086 -1.7928  2.3355
  845SOL     OW 2533   2.766   2.700   2.151 -0.0685  0.0246  0.1001
  845SOL    HW1 2534   2.778   2.710   2.051  2.1245 -1.6740  1.9416
  845SOL    HW2 2535   2.812   2.780   2.198  3.0023 -1.3073  0.1987
  846SOL     OW 2536   1.765   1.932   2.588 -0.4999  0.0701  0.0743
  846SOL    HW1 2537   1.825   1.888   2.659  0.6457 -0.9244  0.7713
  846SOL    HW2 2538   1.777   1.889   2.497 -0.3849 -3.6416  0.4819
  847SOL     OW 2539   2.071   2.856   2.239  0.3718 -0.9777  0.2353
  847SOL    HW1 2540   2.051   2.768   2.195  0.3795  2.2162  2.7959
  847SOL    HW2 2541   2.077   2.937   2.183  0.3060 -1.5149  3.6996
  848SOL     OW 2542   0.218   2.942   0.305 -0.1621 -0.0632 -0.1196
  848SOL    HW1 2543   0.285   2.964   0.372  1.2829 -0.2296  3.3104
  848SOL    HW2 2544   0.252   2.988   0.220 -2.6409 -0.0031  1.6464
  849SOL     OW 2545   0.695   2.902   1.354  0.2350 -0.2819  0.1074
  849SOL    HW1 2546   0.719   2.821   1.408  0.3255  0.0651  0.2871
  849SOL    HW2 2547   0.758   2.922   1.275 -2.2605 -1.4369 -2.2094
  850SOL     OW 2548   0.048   1.152   0.568  0.2040  0.3100  0.4362
  850SOL    HW1 2549   0.090   1.229   0.515  1.8715  1.3055 -0.9447
  850SOL    HW2 2550   0.013   1.186   0.661 -1.0344 -0.2043 -0.7910
  851SOL     OW 2551   0.060   0.522   2.969  0.0325 -0.0311  0.5025
  851SOL    HW1 2552   0.141   0.566   2.919  2.0229 -0.8519  0.7935
  851SOL    HW2 2553   0.033   0.440   2.915  0.3909  0.9867 -0.8968
  852SOL     OW 2554   1.423   1.961   1.932  0.4058  0.1962  0.1551
  852SOL    HW1 2555   1.452   1.873   1.890 -2.0123  0.0108 -1.2650
  852SOL    HW2 2556   1.474   1.976   2.019 -1.5479 -2.5092 -2.7612
  853SOL     OW 2557   0.648   1.905   0.560  0.3967  0.1492 -0.0872
  853SOL    HW1 2558   0.719   1.869   0.625  1.0647 -2.3188 -1.6244
  853SOL    HW2 2559   0.682   1.991   0.513 -1.6892  0.7406  0.8374
  854SOL     OW 2560   1.611   1.088   1.445 -0.1663  0.3447  0.1022
  854SOL    HW1 2561   1.552   1.169   1.458 -1.0986 -1.3924  2.9305
  854SOL    HW2 2562   1.698   1.113   1.401 -0.6837  1.2155  1.7925
  855SOL     OW 2563   0.557   1.879   0.152  0.0917 -0.3545 -0.6566
  855SOL    HW1 2564   0.636   1.935   0.181 -2.8675 -1.7167 -0.9787
  855SOL    HW2 2565   0.472   1.936   0.165  1.0515  2.7735  0.3306
  856SOL     OW 2566   2.830   0.011   1.927  0.1251 -0.6412 -0.7283
  856SOL    HW1 2567   2.929   0.006   1.950 -0.3717 -0.1519 -3.4191
  856SOL    HW2 2568   2.776   0.072   1.996 -0.0435  1.5180 -1.8263
  857SOL     OW 2569   0.355   0.380   1.951  0.5757  0.2740 -0.0795
  857SOL    HW1 2570   0.290   0.297   1.936 -2.0329 -1.9815 -1.3373
  857SOL    HW2 2571   0.335   0.445   2.029  0.8790 -1.7955 -0.2352
  858SOL     OW 2572   2.772   2.005   2.232 -0.1029  0.0151  0.1117
  858SOL    HW1 2573   2.697   2.050   2.282  1.1710 -4.2650 -2.3613
  858SOL    HW2 2574   2.848   1.975   2.293  0.5947  0.4991 -1.9997
  859SOL     OW 2575   2.355   2.774   0.487 -0.1874  0.1988  0.0378
  859SOL    HW1 2576   2.450   2.761   0.457 -1.3587  2.3034  1.0268
  859SOL    HW2 2577   2.313   2.688   0.512 -0.7225  4.7951 -0.6693
  860SOL     OW 2578   1.746   0.324   0.290  0.3221 -0.2550 -0.6949
  860SOL    HW1 2579   1.800   0.362   0.368 -0.9708 -0.3761  1.0545
  860SOL    HW2 2580   1.711   0.231   0.308  2.0163  2.4202  0.4979
  861SOL     OW 2581   0.329   0.332   0.807  0.0164 -0.1794  0.1200
  861SOL    HW1 2582   0.381   0.415   0.781 -1.1089  3.2164  2.1284
  861SOL    HW2 2583   0.299   0.338   0.903  2.0001  0.3392 -0.8521
  862SOL     OW 2584   2.211   0.557   1.433  0.0250 -0.0455 -0.6977
  862SOL    HW1 2585   2.220   0.494   1.357 -1.6805 -0.9427  1.4518
  862SOL    HW2 2586   2.146   0.634   1.415 -1.3964  0.1074  1.2265
  863SOL     OW 2587   0.520   1.498   1.207 -0.6298 -0.4364  0.2732
  863SOL    HW1 2588   0.491   1.432   1.132  0.9543  1.9042  2.0456
  863SOL    HW2 2589   0.593   1.560   1.170  0.7661 -0.4884 -2.0678
  864SOL     OW 2590   2.553   3.035   2.148  0.1550 -0.5574 -0.2466
  864SOL    HW1 2591   2.502   3.029   2.061  1.5773 -1.5519 -0.0500
  864SOL    HW2 2592   2.509   2.978   2.222  0.1417  1.1531  0.8989
  865SOL     OW 2593   1.806   0.396   1.654 -0.4831  0.4275  0.0383
  865SOL    HW1 2594   1.864   0.323   1.620 -0.3584 -3.6892  2.4619
  865SOL    HW2 2595   1.757   0.447   1.585 -0.8656  1.5415  3.0454
  866SOL     OW 2596   2.813   2.862   0.941  0.2900 -0.0942 -0.2294
  866SOL    HW1 2597   2.914   2.861   0.939 -4.2396 -0.2506 -1.1619
  866SOL    HW2 2598   2.781   2.876   0.845  2.3351 -2.8347 -0.4580
  867SOL     OW 2599   2.747   2.520   0.623  0.0006 -0.0293 -0.0576
  867SOL    HW1 2600   2.698   2.559   0.702  0.1060  1.3062 -0.8371
  867SOL    HW2 2601   2.793   2.590   0.567  2.1021  1.7810  1.1818
  868SOL     OW 2602   1.539   1.893   2.407 -0.6023  0.0905  0.4316
  868SOL    HW1 2603   1.458   1.838   2.435 -1.5696 -1.2058  1.4010
  868SOL    HW2 2604   1.592   1.918   2.490  0.5990  1.1493  2.4197
  869SOL     OW 2605   2.487   1.754   0.589  0.5928 -0.1236 -0.1469
  869SOL    HW1 2606   2.398   1.721   0.553  0.5313  1.2759 -1.9812
  869SOL    HW2 2607   2.488   1.856   0.576 -0.8634  1.0712 -0.6842
  870SOL     OW 2608   2.777   1.543   0.325 -0.0152 -0.0758 -0.0959
  870SOL    HW1 2609   2.726   1.515   0.242  1.9951  0.4303  1.5034
  870SOL    HW2 2610   2.830   1.630   0.309  1.7202  1.9741  1.4600
  871SOL     OW 2611   0.011   0.699   1.592 -0.5653 -0.0184  0.2570
  871SOL    HW1 2612   0.055   0.758   1.517 -1.2075  2.0423  0.1893
  871SOL    HW2 2613   3.037   0.721   1.616 -0.5375  0.2361  2.8245
  872SOL     OW 2614   0.556   1.917   2.605 -0.0129  0.1665 -0.0590
  872SOL    HW1 2615   0.617   1.914   2.520  2.7364 -1.8378  1.5945
  872SOL    HW2 2616   0.521   1.824   2.626 -0.8520 -1.8689  1.8726
  873SOL     OW 2617   0.380   2.656   1.764  0.4142  0.0117  0.2989
  873SOL    HW1 2618   0.300   2.679   1.702  1.4422 -2.2834  0.4070
  873SOL    HW2 2619   0.443   2.733   1.784  0.4809 -0.0876 -0.7909
  874SOL     OW 2620   1.103   1.079   2.181 -0.3554  0.2826 -0.6901
  874SOL    HW1 2621   1.137   1.146   2.253  3.5495  1.2904 -0.8849
  874SOL    HW2 2622   1.114   1.125   2.091 -2.2139 -1.6150  1.6963
  875SOL     OW 2623   2.801   2.729   1.423 -0.0213 -0.2702  0.3306
  875SOL    HW1 2624   2.856   2.658   1.474  1.1839 -1.6125  0.7579
  875SOL    HW2 2625   2.849   2.821   1.430 -0.4502  0.9835 -1.4649
  876SOL     OW 2626   1.182   1.244   0.821 -0.9942  0.1265 -0.3606
  876SOL    HW1 2627   1.195   1.250   0.924  2.0313  2.9400  1.2118
  876SOL    HW2 2628   1.089   1.246   0.791  0.8872  0.0415 -2.5156
  877SOL     OW 2629   1.076   0.471   1.356  0.6021  0.0354 -0.2217
  877SOL    HW1 2630   1.175   0.497   1.349 -1.8951  1.0144  1.4786
  877SOL    HW2 2631   1.054   0.412   1.278 -0.3383 -0.5605  2.8775
  878SOL     OW 2632   2.508   1.858   3.026  0.9405 -0.4477  0.0977
  878SOL    HW1 2633   2.531   1.761   3.024 -2.8055  2.4124 -2.0726
  878SOL    HW2 2634   2.535   1.903   2.937 -0.8392 -0.3458  1.1280
  879SOL     OW 2635   2.243   2.021   1.709  0.4425 -0.2883  0.0116
  879SOL    HW1 2636   2.279   2.102   1.759  2.3119  0.5112 -0.9465
  879SOL    HW2 2637   2.198   2.052   1.624  0.5064 -2.4479  0.5584
  880SOL     OW 2638   0.979   2.322   1.264  0.9330  0.0012  0.3294
  880SOL    HW1 2639   1.010   2.369   1.347  1.2728 -0.2071 -0.4044
  880SOL    HW2 2640   1.003   2.224   1.257  2.5070  0.0714  0.3082
  881SOL     OW 2641   1.219   1.903   0.508 -0.3187  0.1033  0.3935
  881SOL    HW1 2642   1.233   2.005   0.523  1.8922  3.1536  0.3222
  881SOL    HW2 2643   1.158   1.857   0.578 -0.6850  1.1487 -0.3611
  882SOL     OW 2644   2.068   1.711   2.811  0.0124  0.2103 -0.0297
  882SOL    HW1 2645   2.154   1.751   2.849 -0.0161  1.2316 -1.0086
  882SOL    HW2 2646   2.089   1.647   2.736 -1.8670  1.3154  0.2541
  883SOL     OW 2647   1.493   0.511   1.108 -0.1472 -0.5915 -0.0996
  883SOL    HW1 2648   1.460   0.560   1.025 -1.1597 -0.8723  0.2106
  883SOL    HW2 2649   1.542   0.427   1.084 -1.4366  1.0241 -0.9242
  884SOL     OW 2650   3.096   2.824   1.174 -0.1155 -0.5936 -0.8187
  884SOL    HW1 2651   3.092   2.874   1.085 -2.6238 -0.2811 -1.0761
  884SOL    HW2 2652   3.097   2.724   1.157 -2.0426  0.8020  1.2577
  885SOL     OW 2653   1.005   1.480   2.133  0.3327 -0.1401  0.0280
  885SOL    HW1 2654   0.907   1.461   2.163 -1.9423 -0.5970  0.1237
  885SOL    HW2 2655   1.014   1.431   2.044 -2.2227 -0.7402  0.2199
  886SOL     OW 2656   0.926   1.236   2.740  0.2971  0.2668  0.1411
  886SOL    HW1 2657   0.850   1.167   2.751 -1.2220 -1.0513  1.1093
  886SOL    HW2 2658   1.012   1.189   2.762 -2.2532 -3.1195 -0.1545
  887SOL     OW 2659   1.568   0.088   0.861 -0.0503  0.0302 -0.0191
  887SOL    HW1 2660   1.539   0.149   0.782 -0.8872  0.9594 -0.8772
  887SOL    HW2 2661   1.659   0.047   0.843 -1.7629  1.2388  1.8865
  888SOL     OW 2662   2.089   0.937   2.195  0.1202  0.2449  0.2971
  888SOL    HW1 2663   2.074   1.035   2.205  1.4976 -0.8797  1.6548
  888SOL    HW2 2664   2.040   0.905   2.110 -1.4536 -0.6214  0.3726
  889SOL     OW 2665   2.946   2.027   1.029  0.2861  0.5511 -0.3858
  889SOL    HW1 2666   3.039   2.007   0.990  0.0802  0.1714  1.4163
  889SOL    HW2 2667   2.935   1.978   1.118  0.3716  0.1421 -0.6678
  890SOL     OW 2668   1.364   2.295   0.155 -0.1323  0.0798  0.4890
  890SOL    HW1 2669   1.264   2.275   0.129  1.0831  1.2570 -0.6365
  890SOL    HW2 2670   1.372   2.389   0.197  1.8840 -2.4078 -3.2818
  891SOL     OW 2671   2.828   0.593   2.499  0.2197 -0.0218  0.6606
  891SOL    HW1 2672   2.801   0.566   2.407  0.9184 -1.0161  1.1669
  891SOL    HW2 2673   2.745   0.644   2.539  1.8392  0.1693 -0.5843
  892SOL     OW 2674   0.035   2.377   1.533 -0.3335 -0.2724  0.5455
  892SOL    HW1 2675   0.101   2.418   1.462  2.5945  1.9001  0.2481
  892SOL    HW2 2676   0.005   2.278   1.515 -0.2188 -3.0396 -2.1832
  893SOL     OW 2677   1.295   0.112   1.295 -0.1820 -0.2479  0.4801
  893SOL    HW1 2678   1.368   0.044   1.276 -0.1816  1.5633 -1.2925
  893SOL    HW2 2679   1.332   0.186   1.356  1.1041  1.5979  1.4701
  894SOL     OW 2680   2.734   0.039   1.071  0.1665 -0.1336 -0.3685
  894SOL    HW1 2681   2.635   0.018   1.076  1.4959  2.0303  0.1815
  894SOL    HW2 2682   2.779   0.018   1.163 -1.1827 -1.1880  1.8917
  895SOL     OW 2683   1.553   2.006   2.157  0.3122 -0.1966 -0.1312
  895SOL    HW1 2684   1.647   2.040   2.132  0.3440 -0.6353  0.3198
  895SOL    HW2 2685   1.559   1.941   2.240  1.8824 -0.3538  0.9819
  896SOL     OW 2686   1.881   0.844   1.159  0.2361 -0.0808  0.5126
  896SOL    HW1 2687   1.965   0.849   1.218  0.5394 -1.5816  0.1937
  896SOL    HW2 2688   1.896   0.876   1.063 -2.2000 -1.7420 -1.0547
  897SOL     OW 2689   0.406   1.314   1.686 -0.1350  0.2448  0.2160
  897SOL    HW1 2690   0.446   1.330   1.594  0.2816 -1.0750  2.2307
  897SOL    HW2 2691   0.403   1.216   1.705 -2.4201 -1.3905  1.3748
  898SOL     OW 2692   1.704   2.409   2.136 -0.1327 -0.7189 -0.1307
  898SOL    HW1 2693   1.744   2.362   2.056 -3.0183 -0.5009 -1.2157
  898SOL    HW2 2694   1.648   2.347   2.195 -2.3633  0.5558 -0.0555
  899SOL     OW 2695   1.339   1.993   0.797  0.3318 -0.4309  0.2371
  899SOL    HW1 2696   1.273   2.033   0.731 -1.3865 -1.8646  0.1709
  899SOL    HW2 2697   1.354   2.055   0.875  2.1032 -1.5290 -1.9442
  900SOL     OW 2698   0.753   3.011   2.530  0.4974 -0.2504  0.0063
  900SOL    HW1 2699   0.667   3.048   2.564  2.3831 -2.4460 -0.3582
  900SOL    HW2 2700   0.796   3.082   2.471  2.3335 -0.4047  2.2431
  901SOL     OW 2701   1.103   1.626   2.334  0.2303 -0.3514 -0.6121
  901SOL    HW1 2702   1.085   1.571   2.257  1.6493  0.2680  0.6176
  901SOL    HW2 2703   1.079   1.573   2.418 -0.5948 -0.9222 -0.7692
  902SOL     OW 2704   1.977   0.768   3.076 -0.5355 -0.1971 -0.3598
  902SOL    HW1 2705   1.953   0.854   0.002  2.4500 -0.5088  2.9107
  902SOL    HW2 2706   1.903   0.700   3.066  1.7086  0.7528 -0.9216
  903SOL     OW 2707   1.911   1.240   2.878  0.4331 -0.0055 -0.2580
  903SOL    HW1 2708   1.955   1.329   2.908 -1.1449  0.6547  0.9179
  903SOL    HW2 2709   1.832   1.273   2.819  0.6583  2.5831  0.0998
  904SOL     OW 2710   1.606   1.247   1.748 -0.0839 -0.2983 -0.1282
  904SOL    HW1 2711   1.591   1.151   1.777  1.1019  2.1682 -1.5577
  904SOL    HW2 2712   1.557   1.271   1.666  0.2945 -0.0829  0.6662
  905SOL     OW 2713   2.528   0.595   0.949  0.4401  0.2933  0.0461
  905SOL    HW1 2714   2.450   0.554   0.892 -2.1015 -0.4776 -1.1340
  905SOL    HW2 2715   2.568   0.529   1.012 -2.2756 -0.5258 -0.6699
  906SOL     OW 2716   0.304   1.480   0.841  0.2936  0.3958  0.3047
  906SOL    HW1 2717   0.324   1.428   0.757  0.2118  1.1691  1.1423
  906SOL    HW2 2718   0.205   1.484   0.862 -2.2400  1.2733 -0.0323
  907SOL     OW 2719   1.251   0.091   0.456 -0.2448 -0.4193 -0.1056
  907SOL    HW1 2720   1.179   0.067   0.523  1.6972  1.5621 -2.8470
  907SOL    HW2 2721   1.343   0.105   0.501 -1.9033  1.2097  0.4714
  908SOL     OW 2722   1.146   2.785   1.660 -0.0224  0.4017  0.2299
  908SOL    HW1 2723   1.074   2.722   1.697  1.0584  2.1824  0.4197
  908SOL    HW2 2724   1.236   2.735   1.667 -1.3497  0.0547 -1.5037
  909SOL     OW 2725   2.439   0.715   1.847  0.3383 -0.3554 -0.0658
  909SOL    HW1 2726   2.349   0.675   1.841  0.8754 -0.6586  0.6750
  909SOL    HW2 2727   2.445   0.821   1.849  3.5853  1.7568  2.5140
  910SOL     OW 2728   1.352   0.143   2.353  0.0791  0.1981  0.7899
  910SOL    HW1 2729   1.416   0.191   2.416  0.5488 -0.5902 -0.2941
  910SOL    HW2 2730   1.267   0.115   2.401  0.2759  3.1422 -0.9144
  911SOL     OW 2731   2.599   1.428   2.442 -0.1708 -0.4735 -0.0074
  911SOL    HW1 2732   2.544   1.411   2.355 -2.4442 -2.2020 -1.5536
  911SOL    HW2 2733   2.602   1.339   2.495 -0.4269 -0.0771  4.0361
  912SOL     OW 2734   2.464   2.111   1.483 -0.5500 -0.4224 -0.6340
  912SOL    HW1 2735   2.507   2.085   1.571 -1.7603  0.2266  0.2250
  912SOL    HW2 2736   2.480   2.214   1.468  1.6534  3.2576 -0.7068
  913SOL     OW 2737   2.541   2.137   1.973  0.1110 -0.0604 -0.2362
  913SOL    HW1 2738   2.592   2.218   2.012 -1.4728  2.4180  2.2558
  913SOL    HW2 2739   2.443   2.152   1.947  1.1967 -2.1315 -0.8264
  914SOL     OW 2740   2.077   2.190   0.744  0.4529  0.0403  0.0844
  914SOL    HW1 2741   2.106   2.185   0.840 -2.7455  1.4646  0.5913
  914SOL    HW2 2742   2.128   2.116   0.695  1.6907 -3.1695 -1.0711
  915SOL     OW 2743   0.899   2.582   2.047 -0.0251  0.0631 -0.4073
  915SOL    HW1 2744   0.801   2.605   2.069 -1.6076 -2.2194 -2.7630
  915SOL    HW2 2745   0.945   2.515   2.110  0.0809  0.3034  0.2044
  916SOL     OW 2746   0.101   2.254   0.962 -0.4787 -0.7254  0.4201
  916SOL    HW1 2747   0.050   2.341   0.949 -2.6675  1.6221 -1.2094
  916SOL    HW2 2748   0.174   2.232   0.888  0.4535 -1.5723 -0.1960
  917SOL     OW 2749   2.875   1.233   2.883 -0.0225 -0.2365  0.4435
  917SOL    HW1 2750   2.972   1.199   2.865  2.8266  3.7554  2.3781
  917SOL    HW2 2751   2.842   1.273   2.792 -1.5945  1.2464 -1.0524
  918SOL     OW 2752   1.630   2.223   2.327  0.0382 -0.2273 -0.2024
  918SOL    HW1 2753   1.599   2.129   2.303 -1.9179 -1.0051  0.2517
  918SOL    HW2 2754   1.639   2.226   2.428 -0.7677 -1.5114 -0.9789
  919SOL     OW 2755   1.707   2.305   0.620 -0.0690 -0.7671  0.1767
  919SOL    HW1 2756   1.647   2.226   0.642 -0.6659  0.0367  1.1238
  919SOL    HW2 2757   1.785   2.286   0.556 -0.1551 -2.7935 -1.1596
  920SOL     OW 2758   1.235   0.662   2.461 -0.6701  0.2566 -0.2058
  920SOL    HW1 2759   1.304   0.729   2.479  0.2354  2.0367  0.3900
  920SOL    HW2 2760   1.199   0.665   2.368  3.3491  1.4219 -0.6452
  921SOL     OW 2761   3.051   0.325   2.809 -0.6225 -0.2217 -0.0526
  921SOL    HW1 2762   3.035   0.354   2.715  1.8267  1.5812  3.0191
  921SOL    HW2 2763   3.118   0.244   2.819  2.1268 -0.6458  2.5467
  922SOL     OW 2764   2.652   1.515   1.839 -0.1682  0.1625 -0.4435
  922SOL    HW1 2765   2.561   1.560   1.841  0.3609  1.8120 -0.7347
  922SOL    HW2 2766   2.677   1.508   1.742 -2.5288  0.4359  2.4037
  923SOL     OW 2767   0.220   1.635   2.477  0.3632 -0.1976 -0.4242
  923SOL    HW1 2768   0.149   1.701   2.510 -0.4429  0.9544  2.2295
  923SOL    HW2 2769   0.303   1.624   2.538  3.0697  0.2726  1.8324
  924SOL     OW 2770   1.720   0.389   2.100  0.1970  0.2123  0.0954
  924SOL    HW1 2771   1.718   0.339   2.191  1.6295  0.0307  0.2501
  924SOL    HW2 2772   1.768   0.477   2.117 -0.8437 -0.9938 -0.9910
  925SOL     OW 2773   3.047   1.001   0.026 -0.3672  0.2292 -0.1943
  925SOL    HW1 2774   2.968   0.972   3.093  1.2609  0.1374 -1.4500
  925SOL    HW2 2775   3.050   0.953   0.118 -1.3059 -0.8845  1.3848
  926SOL     OW 2776   2.747   0.286   0.848 -0.4260  0.1841  0.1724
  926SOL    HW1 2777   2.721   0.366   0.791 -2.4205  3.0317 -1.1536
  926SOL    HW2 2778   2.758   0.302   0.947  0.7399 -1.1019 -2.3723
  927SOL     OW 2779   1.192   0.754   0.801 -0.3449 -0.5030 -0.3808
  927SOL    HW1 2780   1.257   0.766   0.724  0.6969  0.1530  1.7571
  927SOL    HW2 2781   1.109   0.809   0.788  0.9019  0.1375  0.0332
  928SOL     OW 2782   0.090   0.124   2.171 -0.1670  0.0885 -0.4404
  928SOL    HW1 2783   0.023   0.190   2.207 -1.4222 -0.7897 -4.4616
  928SOL    HW2 2784   0.180   0.163   2.199 -2.7410 -0.2411 -2.1522
  929SOL     OW 2785   2.604   0.813   1.432  0.2674  0.1146  0.3066
  929SOL    HW1 2786   2.695   0.845   1.396  1.3926 -1.9136 -1.2733
  929SOL    HW2 2787   2.616   0.743   1.509  1.7821 -1.2924  1.7350
  930SOL     OW 2788   2.083   2.678   0.962  0.0761 -0.5161  0.2334
  930SOL    HW1 2789   2.037   2.647   0.877 -1.1211  0.6320 -0.6875
  930SOL    HW2 2790   2.133   2.767   0.945 -1.2462  0.8330  1.8817
  931SOL     OW 2791   2.082   1.230   0.850  0.0266 -0.2385  0.3271
  931SOL    HW1 2792   2.171   1.229   0.804 -1.7944  1.0458  1.4768
  931SOL    HW2 2793   2.027   1.299   0.794  1.0654  1.4801 -1.5443
  932SOL     OW 2794   0.118   0.885   1.378  0.1003  0.3342  0.1386
  932SOL    HW1 2795   0.037   0.942   1.352 -1.3785  0.6109 -0.0423
  932SOL    HW2 2796   0.169   0.847   1.295 -0.7558  2.5715  0.5453
  933SOL     OW 2797   2.246   1.505   2.086 -0.3357 -1.1032  0.2067
  933SOL    HW1 2798   2.199   1.576   2.142 -2.7416 -0.4051  0.7002
  933SOL    HW2 2799   2.227   1.533   1.985  0.2693  0.7675 -4.7719
  934SOL     OW 2800   1.539   2.789   1.436  1.0148  0.0119  0.0390
  934SOL    HW1 2801   1.530   2.749   1.344 -0.1311 -0.5983 -0.0506
  934SOL    HW2 2802   1.479   2.868   1.447 -0.0043 -1.6733  0.3593
  935SOL     OW 2803   0.574   0.712   1.496 -0.0846 -0.1776 -0.1879
  935SOL    HW1 2804   0.516   0.791   1.466  0.7948  2.3281  1.4028
  935SOL    HW2 2805   0.553   0.696   1.594  0.4772  0.1078  2.5625
  936SOL     OW 2806   2.301   0.673   1.120  0.6312 -0.4260  0.2691
  936SOL    HW1 2807   2.396   0.679   1.081 -1.6112 -1.0791 -1.1866
  936SOL    HW2 2808   2.297   0.736   1.199  1.3574 -0.7489  1.9323
  937SOL     OW 2809   1.058   3.092   1.329 -0.5175  0.3138  0.3560
  937SOL    HW1 2810   1.010   0.033   1.390 -0.1015 -0.3645  0.8648
  937SOL    HW2 2811   1.151   3.122   1.301 -0.3120 -0.5062 -0.1062
  938SOL     OW 2812   2.840   2.278   1.033  0.1640 -0.3419 -0.3036
  938SOL    HW1 2813   2.889   2.192   1.053  0.6321  0.3152  1.1726
  938SOL    HW2 2814   2.863   2.358   1.090  1.3749 -0.7590 -1.8909
  939SOL     OW 2815   3.019   1.752   2.746  0.0496 -0.2171  0.2477
  939SOL    HW1 2816   3.041   1.706   2.659 -0.6008  0.3697  1.4348
  939SOL    HW2 2817   3.101   1.788   2.795 -0.9538 -2.3518  0.8407
  940SOL     OW 2818   2.100   2.679   2.802 -0.1793 -0.2487  0.0320
  940SOL    HW1 2819   2.061   2.593   2.764 -0.2035 -0.0306 -1.1901
  940SOL    HW2 2820   2.067   2.763   2.755 -0.8369  0.1122 -1.1273
  941SOL     OW 2821   1.715   2.696   0.485 -0.1448 -0.1385  0.0106
  941SOL    HW1 2822   1.772   2.617   0.461 -0.5956  0.8866  0.9518
  941SOL    HW2 2823   1.759   2.786   0.455  0.3352  2.4113 -0.9025
  942SOL     OW 2824   1.657   1.993   1.057 -0.0574  0.0462 -0.2866
  942SOL    HW1 2825   1.757   2.013   1.073 -0.4681 -2.8707 -1.8491
  942SOL    HW2 2826   1.602   2.068   1.012 -0.4389  1.3236 -0.5624
  943SOL     OW 2827   1.884   1.022   1.943 -0.1689  0.2214  0.0729
  943SOL    HW1 2828   1.823   0.949   1.891 -3.3227 -1.3800 -1.6429
  943SOL    HW2 2829   1.979   1.024   1.909 -1.0214 -0.2027 -0.1052
  944SOL     OW 2830   1.915   0.606   1.789 -0.0698 -0.3794  0.3985
  944SOL    HW1 2831   1.853   0.534   1.756 -2.1824 -0.8407 -0.5400
  944SOL    HW2 2832   2.018   0.580   1.781  0.4988 -0.2882  0.8899
  945SOL     OW 2833   2.739   2.397   1.428 -0.6333  0.3046  0.4605
  945SOL    HW1 2834   2.785   2.415   1.340  2.0359 -0.4149 -2.0900
  945SOL    HW2 2835   2.788   2.443   1.504  0.6157  0.0153  1.6085
  946SOL     OW 2836   0.726   1.124   1.473 -0.1775 -0.3848  0.0641
  946SOL    HW1 2837   0.654   1.070   1.424 -0.9251 -1.9451 -1.1066
  946SOL    HW2 2838   0.684   1.218   1.500  0.8254  0.1241 -1.7110
  947SOL     OW 2839   0.617   2.328   0.746 -0.3252  0.5537  0.0799
  947SOL    HW1 2840   0.591   2.335   0.842 -0.4843 -1.1650  0.6146
  947SOL    HW2 2841   0.541   2.314   0.685  2.9391  0.9068  2.0006
  948SOL     OW 2842   3.061   1.491   1.889  0.1079 -0.4515  0.5687
  948SOL    HW1 2843   3.053   1.476   1.991  1.4759  1.6660  0.2969
  948SOL    HW2 2844   0.019   1.548   1.867  0.9740 -0.3723  1.1657
  949SOL     OW 2845   0.750   0.718   2.216  0.2138  0.0645  0.0742
  949SOL    HW1 2846   0.755   0.749   2.316 -1.4924 -0.2498 -1.1248
  949SOL    HW2 2847   0.653   0.721   2.181 -1.0450 -0.1094  3.1797
  950SOL     OW 2848   0.421   0.558   1.136  0.5886  0.3557  0.3349
  950SOL    HW1 2849   0.378   0.648   1.146 -0.6381 -1.3522 -2.2871
  950SOL    HW2 2850   0.368   0.492   1.079  0.3117 -2.4546 -0.1998
  951SOL     OW 2851   1.001   1.888   2.347  0.1120 -0.3463  0.0968
  951SOL    HW1 2852   1.033   1.791   2.339  1.7634 -0.6641  1.2851
  951SOL    HW2 2853   1.059   1.949   2.290  2.8580 -0.2094 -3.3605
  952SOL     OW 2854   1.146   1.684   2.806 -0.0174 -0.8537  0.1760
  952SOL    HW1 2855   1.202   1.748   2.749 -5.0990  0.9968 -2.6795
  952SOL    HW2 2856   1.210   1.602   2.831  1.3744 -1.3881  0.8673
  953SOL     OW 2857   1.114   0.063   2.458 -0.0825  0.0328  0.1205
  953SOL    HW1 2858   1.031   0.081   2.400 -1.2710 -0.5507  1.1968
  953SOL    HW2 2859   1.113   0.126   2.542  1.0588  1.3486  2.5628
  954SOL     OW 2860   2.261   1.662   0.479  0.6417 -0.2905 -0.1134
  954SOL    HW1 2861   2.209   1.746   0.450 -0.1286  0.0254  1.8682
  954SOL    HW2 2862   2.234   1.578   0.429  1.1115  1.2990 -0.9734
  955SOL     OW 2863   0.324   2.583   2.988  0.0138 -0.2987  0.2398
  955SOL    HW1 2864   0.328   2.591   2.883  1.1309  0.2596  1.2554
  955SOL    HW2 2865   0.320   2.481   3.005  0.6945  0.8745  2.4842
  956SOL     OW 2866   1.237   0.823   1.630  0.0203  0.1859 -0.3008
  956SOL    HW1 2867   1.148   0.791   1.587 -0.5131 -0.2109  1.8290
  956SOL    HW2 2868   1.300   0.865   1.560 -0.3896  0.5863  2.6900
  957SOL     OW 2869   2.088   1.654   2.249 -0.3758 -0.0293  0.2068
  957SOL    HW1 2870   2.009   1.608   2.298 -0.0873  0.4961 -1.2608
  957SOL    HW2 2871   2.093   1.748   2.283 -0.2586 -0.0870 -0.5352
  958SOL     OW 2872   1.605   2.349   1.266 -0.5003  0.1739  0.8252
  958SOL    HW1 2873   1.540   2.401   1.209  1.0022 -0.9245  1.9536
  958SOL    HW2 2874   1.695   2.338   1.221 -0.4064  3.0450  0.6792
  959SOL     OW 2875   1.606   1.601   1.500  0.0153 -0.2964 -0.1448
  959SOL    HW1 2876   1.577   1.636   1.408  1.1096 -1.8420 -1.5904
  959SOL    HW2 2877   1.572   1.666   1.571  0.7515 -1.9382 -0.7211
  960SOL     OW 2878   0.003   1.121   2.798  0.6432 -0.1450  0.4898
  960SOL    HW1 2879   3.071   1.038   2.809 -0.3581  2.6196  1.2917
  960SOL    HW2 2880   0.031   1.135   2.701 -0.8674  0.8808 -0.4367
  961SOL     OW 2881   0.485   0.747   2.156  0.1346  0.0646 -0.0270
  961SOL    HW1 2882   0.489   0.802   2.240 -0.6991 -0.6601  1.8438
  961SOL    HW2 2883   0.484   0.799   2.069  1.4445  0.3573 -0.0589
  962SOL     OW 2884   1.462   1.705   0.220  0.2996  0.0767 -0.3305
  962SOL    HW1 2885   1.365   1.738   0.240 -1.3548 -2.8384  0.7729
  962SOL    HW2 2886   1.507   1.649   0.296 -0.0117 -0.2643 -2.3304
  963SOL     OW 2887   1.133   2.528   2.585  0.6027 -0.3047 -0.0081
  963SOL    HW1 2888   1.158   2.563   2.496 -2.0850  0.3914  1.9683
  963SOL    HW2 2889   1.169   2.431   2.596  1.7246 -0.8521  0.4475
  964SOL     OW 2890   0.892   2.608   0.380 -0.3253  0.1256 -0.5825
  964SOL    HW1 2891   0.893   2.687   0.322 -0.4602 -1.3544 -0.3322
  964SOL    HW2 2892   0.890   2.636   0.478  0.0694 -2.4275 -1.3256
  965SOL     OW 2893   0.624   3.007   1.008 -0.0426  0.4296 -0.8985
  965SOL    HW1 2894   0.722   3.001   1.035 -0.9512 -1.3582 -1.8605
  965SOL    HW2 2895   0.563   3.043   1.083 -1.9470 -1.6870 -0.8818
  966SOL     OW 2896   0.229   1.246   3.113  0.3766  0.0774  0.2224
  966SOL    HW1 2897   0.126   1.267   3.119  0.4112  0.9095  1.4058
  966SOL    HW2 2898   0.257   1.208   3.020 -0.7221  0.2823  0.1533
  967SOL     OW 2899   0.985   2.769   2.273 -0.5004 -0.5975  0.1379
  967SOL    HW1 2900   1.047   2.824   2.334  1.5768  0.5441 -0.4845
  967SOL    HW2 2901   1.029   2.682   2.248  0.6413  1.5371  1.7811
  968SOL     OW 2902   2.152   0.537   0.323 -0.4109  0.4367  0.2288
  968SOL    HW1 2903   2.132   0.472   0.397  1.5681  0.0755  0.5885
  968SOL    HW2 2904   2.094   0.616   0.327 -0.7342 -2.2913  1.4063
  969SOL     OW 2905   0.021   1.690   2.209 -0.1999  0.0532  0.1225
  969SOL    HW1 2906   3.077   1.760   2.176  0.6119 -2.6414  0.2294
  969SOL    HW2 2907   0.073   1.635   2.134 -1.8052 -2.1063  0.6412
  970SOL     OW 2908   2.247   1.689   1.411  0.3533 -0.3358  0.2250
  970SOL    HW1 2909   2.144   1.708   1.422 -0.7569  1.0915  1.2466
  970SOL    HW2 2910   2.269   1.677   1.313 -1.0841  0.0433  0.3199
  971SOL     OW 2911   2.010   0.293   1.107  0.4603  0.3268 -0.2619
  971SOL    HW1 2912   2.088   0.332   1.154 -1.8914  0.2749 -3.9989
  971SOL    HW2 2913   2.028   0.299   1.007  0.4906  0.1768  2.2338
  972SOL     OW 2914   0.314   3.029   1.759  0.0401 -0.1322  0.1113
  972SOL    HW1 2915   0.386   3.001   1.690  0.7047 -1.1597 -1.2701
  972SOL    HW2 2916   0.238   2.963   1.752  0.5430 -1.2303 -0.6269
  973SOL     OW 2917   2.615   1.020   0.345  0.0100  0.3408  0.0020
  973SOL    HW1 2918   2.584   0.984   0.255 -2.3382  0.0187  0.4429
  973SOL    HW2 2919   2.574   1.116   0.359  1.7922  2.5146 -1.2114
  974SOL     OW 2920   1.641   1.599   2.427 -0.0634  0.1355  0.2563
  974SOL    HW1 2921   1.634   1.692   2.385  1.1908  0.9853  0.3021
  974SOL    HW2 2922   1.557   1.542   2.409  0.9106  0.7644 -1.2031
  975SOL     OW 2923   0.341   2.840   1.403 -0.0556  0.8317 -0.0790
  975SOL    HW1 2924   0.406   2.895   1.456 -2.0619  1.2699  1.4678
  975SOL    HW2 2925   0.283   2.894   1.337  0.6656  0.8578  0.2439
  976SOL     OW 2926   0.045   1.705   1.636  0.2586 -0.3491  0.2852
  976SOL    HW1 2927   0.049   1.762   1.548 -0.9116  1.2825 -1.2295
  976SOL    HW2 2928   0.025   1.764   1.716 -0.5754  1.8235 -0.2909
  977SOL     OW 2929   0.826   2.602   2.987  0.2515 -0.2919 -0.4654
  977SOL    HW1 2930   0.874   2.685   3.016  3.6865 -2.2025 -1.6588
  977SOL    HW2 2931   0.863   2.562   2.902  1.9852 -1.0764 -0.1982
  978SOL     OW 2932   0.461   1.631   2.896 -0.4714 -0.1350 -0.1860
  978SOL    HW1 2933   0.445   1.720   2.947 -1.1277  2.6978  1.9576
  978SOL    HW2 2934   0.436   1.550   2.948 -1.7039  1.8682 -2.1496
  979SOL     OW 2935   1.710   2.424   0.853  0.2422  0.2343 -0.4305
  979SOL    HW1 2936   1.767   2.366   0.916 -0.0214 -1.8950  0.6633
  979SOL    HW2 2937   1.705   2.382   0.761  1.5323  0.7526 -0.1485
  980SOL     OW 2938   0.972   1.820   2.951  0.0675  0.7185 -0.5239
  980SOL    HW1 2939   1.040   1.760   2.899  0.9776 -2.2463 -2.5898
  980SOL    HW2 2940   0.896   1.851   2.889 -0.0171 -1.7950 -0.6899
  981SOL     OW 2941   2.734   0.006   2.404  0.1614 -0.5589 -0.2288
  981SOL    HW1 2942   2.783   0.096   2.421  1.1700  1.3850  0.4270
  981SOL    HW2 2943   2.639   0.029   2.403  2.0030 -1.1505 -0.1764
  982SOL     OW 2944   0.159   2.838   2.725 -0.3748  0.4261  0.0270
  982SOL    HW1 2945   0.150   2.895   2.640 -0.1703  0.0640  1.3411
  982SOL    HW2 2946   0.238   2.770   2.722  0.3062 -2.0240  0.6139
  983SOL     OW 2947   2.470   1.005   1.788 -0.0156 -0.4098 -0.5983
  983SOL    HW1 2948   2.509   1.026   1.879  2.8975  0.7099 -1.5257
  983SOL    HW2 2949   2.388   1.066   1.767  2.8116  0.7385  1.0147
  984SOL     OW 2950   1.465   0.442   2.028  0.5065 -0.1250  0.5080
  984SOL    HW1 2951   1.409   0.426   2.111  1.0582 -1.3394 -2.2425
  984SOL    HW2 2952   1.564   0.449   2.046 -2.2944  1.9046 -0.8135
  985SOL     OW 2953   1.177   1.960   2.108 -0.5748  0.3548  0.1340
  985SOL    HW1 2954   1.152   1.863   2.081 -2.0250  0.1865  1.4370
  985SOL    HW2 2955   1.264   1.986   2.063  1.5085  1.0714  3.0025
  986SOL     OW 2956   1.783   0.222   1.879 -0.0341  0.1172  0.2905
  986SOL    HW1 2957   1.791   0.268   1.788  0.0495  1.0424 -1.0274
  986SOL    HW2 2958   1.759   0.292   1.955 -1.6948  1.8111  2.1628
  987SOL     OW 2959   2.119   0.915   1.809 -0.2619 -0.2433  0.1176
  987SOL    HW1 2960   2.159   0.838   1.867  0.6574 -1.7651  0.6664
  987SOL    HW2 2961   2.183   0.992   1.804 -2.2073 -0.5255  1.2328
  988SOL     OW 2962   2.585   0.705   2.562  0.2848 -0.1566  0.3707
  988SOL    HW1 2963   2.496   0.660   2.590  1.4509  0.6860  0.3273
  988SOL    HW2 2964   2.566   0.806   2.561 -0.0785 -0.5520 -2.4731
  989SOL     OW 2965   2.476   2.734   2.676 -0.5654 -0.0054 -0.0728
  989SOL    HW1 2966   2.456   2.688   2.587 -0.0488  1.0477  0.3000
  989SOL    HW2 2967   2.484   2.665   2.751  0.0255 -0.8994  1.0442
  990SOL     OW 2968   0.904   0.700   2.797 -0.5112  0.5860  0.5493
  990SOL    HW1 2969   0.819   0.741   2.836  1.7856 -1.4654 -0.8166
  990SOL    HW2 2970   0.981   0.766   2.790  0.9342 -0.5083  0.9523
  991SOL     OW 2971   1.163   0.575   0.011  0.1242  0.2619 -0.3696
  991SOL    HW1 2972   1.145   0.544   3.037  0.7867  0.5121 -3.2850
  991SOL    HW2 2973   1.206   0.669   0.004  1.2656  2.8301  0.4496
  992SOL     OW 2974   2.466   2.264   2.721 -0.1616 -0.0962  0.1947
  992SOL    HW1 2975   2.414   2.271   2.632 -1.8282  0.3926 -1.6364
  992SOL    HW2 2976   2.481   2.361   2.757 -0.3710  1.5063  0.4133
  993SOL     OW 2977   0.333   0.239   0.397  0.2305 -0.1298 -0.9511
  993SOL    HW1 2978   0.397   0.241   0.316 -0.1119 -0.1013 -1.3885
  993SOL    HW2 2979   0.235   0.247   0.373  0.0867  1.6803  0.9140
  994SOL     OW 2980   0.342   2.199   1.680 -0.2631 -0.6363  0.0618
  994SOL    HW1 2981   0.331   2.184   1.780  1.0477 -1.2024  0.0349
  994SOL    HW2 2982   0.381   2.290   1.652 -0.9453 -1.9052 -1.1350
  995SOL     OW 2983   2.235   1.882   2.948 -0.2400 -0.0656 -0.3489
  995SOL    HW1 2984   2.334   1.866   2.970 -1.2453 -0.8924 -1.0879
  995SOL    HW2 2985   2.213   1.982   2.917 -2.2202  3.0434 -2.0009
  996SOL     OW 2986   1.320   1.790   2.636  0.1657  0.0076  0.2545
  996SOL    HW1 2987   1.327   1.731   2.553  0.8193  0.3792 -1.2805
  996SOL    HW2 2988   1.398   1.778   2.697 -3.6658  1.8030 -1.5416
  997SOL     OW 2989   1.805   1.115   1.256  0.3413  0.2980  0.3841
  997SOL    HW1 2990   1.863   1.195   1.234  0.6363 -0.6276  0.5502
  997SOL    HW2 2991   1.826   1.028   1.198 -0.8601  1.7875 -1.5856
  998SOL     OW 2992   2.625   1.374   0.175  0.5027 -0.3464  0.2970
  998SOL    HW1 2993   2.560   1.301   0.154  4.0405 -0.0897  0.2892
  998SOL    HW2 2994   2.690   1.371   0.099  0.6071  1.0113 -0.9251
  999SOL     OW 2995   2.905   2.204   0.457  0.3080 -0.3847 -0.1171
  999SOL    HW1 2996   2.996   2.245   0.477  0.3215  1.5110  2.4413
  999SOL    HW2 2997   2.882   2.128   0.521  1.0423  1.7123  0.3827
 1000SOL     OW 2998   0.759   0.031   1.997  0.2196 -0.0801  0.4120
 1000SOL    HW1 2999   0.684   0.091   1.965  0.6813 -0.1614 -0.4811
 1000SOL    HW2 3000   0.849   0.068   1.968  1.5763  1.8204  1.7239
   3.12498   3.12498   3.12498
