1000 SPC/Fw water molecules t= 430.00000 step= 430000
 3000
    1SOL     OW    1   0.119   0.178   1.169  0.0665  0.1627  0.2848
    1SOL    HW1    2   0.199   0.187   1.113 -3.2790 -0.3155  1.2630
    1SOL    HW2    3   0.120   0.099   1.230 -0.1425  2.6868 -0.1836
    2SOL     OW    4   2.618   2.974   0.153  0.2480 -0.4305 -0.0227
    2SOL    HW1    5   2.632   2.875   0.141 -0.0385  0.8583 -1.9051
    2SOL    HW2    6   2.619   3.024   0.060 -0.7121 -0.0469 -0.1726
    3SOL     OW    7   1.369   2.709   0.063 -0.2301 -0.0572 -0.4262
    3SOL    HW1    8   1.272   2.746   0.080 -2.9955 -0.2829  1.2997
    3SOL    HW2    9   1.420   2.689   0.148 -2.3381  1.0551  2.6336
    4SOL     OW   10   1.144   2.870   2.303  0.0303 -0.6701 -0.3435
    4SOL    HW1   11   1.171   2.832   2.391 -2.8544  0.8869 -3.2156
    4SOL    HW2   12   1.049   2.908   2.306 -2.0970  1.3454  0.0836
    5SOL     OW   13   2.238   0.202   2.259  0.1458 -0.5157  0.5317
    5SOL    HW1   14   2.199   0.124   2.306  1.3994  0.2995 -1.1161
    5SOL    HW2   15   2.173   0.241   2.192  0.3401 -0.7707  1.7698
    6SOL     OW   16   2.694   2.188   1.018  0.5826  0.5324  0.3717
    6SOL    HW1   17   2.777   2.246   1.028  2.6051  2.1078  0.3685
    6SOL    HW2   18   2.627   2.194   1.095  0.3769 -4.2245  1.6316
    7SOL     OW   19   1.556   1.614   0.691  0.3777  0.3518  0.1082
    7SOL    HW1   20   1.538   1.528   0.641 -1.7994 -0.2801 -0.7981
    7SOL    HW2   21   1.481   1.682   0.675  1.1011  0.0004  2.3813
    8SOL     OW   22   0.464   1.459   1.029  0.0378  0.4258  0.6300
    8SOL    HW1   23   0.378   1.476   1.077  0.3299 -0.3377 -0.2148
    8SOL    HW2   24   0.497   1.538   0.975  0.9136  0.3335 -1.6845
    9SOL     OW   25   3.053   2.813   1.469 -0.2115  0.2465  0.0424
    9SOL    HW1   26   3.033   2.869   1.390 -1.2490 -1.0878 -0.7785
    9SOL    HW2   27   3.036   2.715   1.452 -1.6874  2.7740  0.1415
   10SOL     OW   28   1.160   2.376   0.519  0.0469 -0.1122 -0.0625
   10SOL    HW1   29   1.200   2.428   0.443  0.7964 -0.6360  0.3211
   10SOL    HW2   30   1.083   2.431   0.554 -0.7378 -1.8175 -2.6481
   11SOL     OW   31   1.690   1.761   1.159  0.6659  0.3092 -0.0355
   11SOL    HW1   32   1.636   1.733   1.077 -0.7750 -0.6568 -0.2390
   11SOL    HW2   33   1.679   1.683   1.226 -1.8271  1.6271 -1.6573
   12SOL     OW   34   0.071   0.914   2.060  0.2866  0.0016  0.5806
   12SOL    HW1   35   0.008   0.883   1.984 -2.0474  0.4219 -2.4185
   12SOL    HW2   36   0.106   0.834   2.109 -3.1151  1.7690  1.2736
   13SOL     OW   37   2.307   2.836   0.015  0.0990 -0.4080 -0.2504
   13SOL    HW1   38   2.291   2.738   0.037  3.9552 -1.2516  0.5699
   13SOL    HW2   39   2.366   2.840   3.028  0.6009  2.4413 -0.8862
   14SOL     OW   40   1.521   1.661   0.325  0.3497  0.3879  0.1566
   14SOL    HW1   41   1.464   1.656   0.243  1.8574 -0.1645  1.0219
   14SOL    HW2   42   1.519   1.758   0.363  0.7428 -3.8877 -1.0292
   15SOL     OW   43   3.032   2.701   1.895  0.4275 -0.1393  0.2789
   15SOL    HW1   44   3.096   2.620   1.865  2.0417 -2.2181 -0.1466
   15SOL    HW2   45   2.941   2.687   1.860  5.4928  2.6105  0.9499
   16SOL     OW   46   2.728   0.511   0.912  0.1636  0.1340 -0.1560
   16SOL    HW1   47   2.820   0.473   0.945  2.2014 -0.4977 -0.4470
   16SOL    HW2   48   2.713   0.461   0.828  2.2087 -2.5618  1.6181
   17SOL     OW   49   0.800   0.593   0.636  0.2541  0.1510  0.5600
   17SOL    HW1   50   0.872   0.632   0.699 -0.3474  1.9140 -3.6613
   17SOL    HW2   51   0.843   0.584   0.540  3.0758 -0.1725  0.9742
   18SOL     OW   52   1.033   0.346   0.905  0.4840  0.4212 -0.4835
   18SOL    HW1   53   1.097   0.307   0.837  0.2145  4.7397  1.2914
   18SOL    HW2   54   1.011   0.440   0.869  0.4978 -1.5262 -0.8999
   19SOL     OW   55   1.914   1.244   0.713 -0.2497 -0.1143 -0.2426
   19SOL    HW1   56   2.012   1.216   0.721  0.5319  0.1396  1.2091
   19SOL    HW2   57   1.879   1.236   0.615 -0.7847  0.0821 -0.4998
   20SOL     OW   58   2.196   1.637   2.849  0.3047 -0.2161  0.3079
   20SOL    HW1   59   2.096   1.603   2.838 -2.6170 -0.0274  1.7639
   20SOL    HW2   60   2.195   1.736   2.854  1.5497  1.0697 -1.3388
   21SOL     OW   61   1.538   2.966   0.303 -0.6626 -0.2869 -0.1516
   21SOL    HW1   62   1.441   3.007   0.289 -1.1866 -0.5544 -2.2589
   21SOL    HW2   63   1.607   3.012   0.239 -0.2274  2.7377  1.2884
   22SOL     OW   64   2.945   0.993   0.646 -0.0997 -0.0566  0.1572
   22SOL    HW1   65   2.902   1.061   0.710 -1.1346 -0.9498  3.5071
   22SOL    HW2   66   2.899   0.905   0.646  4.2674 -0.7037 -3.0211
   23SOL     OW   67   0.538   0.330   1.829 -0.4065  0.5116 -0.1713
   23SOL    HW1   68   0.607   0.360   1.898  0.9422  0.2446 -0.6157
   23SOL    HW2   69   0.503   0.411   1.775  0.0332  0.9462 -1.6897
   24SOL     OW   70   2.092   2.296   0.750  0.3811 -0.1542  0.2932
   24SOL    HW1   71   2.142   2.214   0.782  0.4085  1.0338  0.2941
   24SOL    HW2   72   2.041   2.341   0.825  1.1621  3.5468  1.2607
   25SOL     OW   73   1.823   0.133   2.348 -0.1420 -0.4683 -0.4415
   25SOL    HW1   74   1.868   0.126   2.441 -0.3740 -3.1524  0.7421
   25SOL    HW2   75   1.879   0.088   2.278  0.1451  0.0714 -1.4763
   26SOL     OW   76   1.438   2.441   3.054 -0.0273 -0.2267 -0.1424
   26SOL    HW1   77   1.402   2.529   3.089 -1.1694 -0.6232  0.3394
   26SOL    HW2   78   1.356   2.374   3.043 -1.3233 -1.4910 -0.4968
   27SOL     OW   79   1.241   0.350   1.295  0.2611  0.5661  0.5263
   27SOL    HW1   80   1.261   0.383   1.198  1.0789 -1.0394  0.3026
   27SOL    HW2   81   1.318   0.297   1.335  1.0709  0.2197  3.6754
   28SOL     OW   82   0.667   1.657   0.642  0.4496  0.0253 -0.2945
   28SOL    HW1   83   0.635   1.608   0.560  1.1262  1.6034  2.7234
   28SOL    HW2   84   0.770   1.661   0.649  0.4545 -1.2150  1.0405
   29SOL     OW   85   2.566   0.479   1.603 -0.0223  0.1798 -0.3106
   29SOL    HW1   86   2.500   0.489   1.521 -3.3930  0.3921 -0.9702
   29SOL    HW2   87   2.590   0.379   1.617 -2.1783  0.1109  0.4077
   30SOL     OW   88   1.592   2.235   1.537 -0.3098 -0.3694 -0.0699
   30SOL    HW1   89   1.695   2.259   1.546  3.8634 -1.7470  2.2788
   30SOL    HW2   90   1.563   2.268   1.444  2.0358  0.2116 -0.4841
   31SOL     OW   91   1.988   2.707   1.395  0.2854 -0.5842  0.1674
   31SOL    HW1   92   1.919   2.777   1.433 -0.0430  2.9425 -0.4167
   31SOL    HW2   93   2.081   2.738   1.386 -0.2965 -1.2803  0.4851
   32SOL     OW   94   2.008   1.351   2.322 -0.1037  0.3793  0.1675
   32SOL    HW1   95   1.976   1.255   2.297  1.9145  1.0351 -1.6585
   32SOL    HW2   96   2.105   1.359   2.283  0.6859  1.2423  0.7998
   33SOL     OW   97   2.592   0.586   2.721  0.0910  0.9067 -0.5790
   33SOL    HW1   98   2.527   0.655   2.683 -0.2442  0.3030  0.6612
   33SOL    HW2   99   2.552   0.543   2.803  0.9391  1.0442  0.4600
   34SOL     OW  100   1.594   0.222   0.568  0.2375  0.0970 -0.0397
   34SOL    HW1  101   1.608   0.230   0.468  2.4998  0.8972 -0.9677
   34SOL    HW2  102   1.556   0.302   0.608  3.2458 -4.0519 -0.7934
   35SOL     OW  103   0.289   2.024   1.976 -0.1436 -0.5291 -0.3892
   35SOL    HW1  104   0.308   2.073   2.067 -0.3237  0.8868  0.3912
   35SOL    HW2  105   0.202   1.974   1.984  0.8950  1.7371  0.2831
   36SOL     OW  106   2.189   1.910   2.833  0.0562  0.1152  0.7589
   36SOL    HW1  107   2.151   1.995   2.792 -2.9447  0.3081  1.6394
   36SOL    HW2  108   2.260   1.864   2.766  7.7640 -3.2563 -3.2908
   37SOL     OW  109   1.235   2.892   1.585  0.0413  0.1197  0.1960
   37SOL    HW1  110   1.311   2.838   1.542 -0.6551 -1.1545  0.5879
   37SOL    HW2  111   1.240   2.885   1.684 -0.3027  2.8114 -0.0786
   38SOL     OW  112   0.700   0.728   2.578  0.0411 -0.6538  0.7152
   38SOL    HW1  113   0.615   0.781   2.548 -1.0005  3.2580 -0.5554
   38SOL    HW2  114   0.718   0.749   2.675 -0.3279 -2.0861  0.2838
   39SOL     OW  115   1.782   0.762   1.366 -0.1263 -0.3377 -0.0419
   39SOL    HW1  116   1.774   0.774   1.264  3.4809 -0.2306 -1.0236
   39SOL    HW2  117   1.827   0.844   1.409 -0.9554  0.8239 -0.4334
   40SOL     OW  118   1.148   2.426   0.939  0.2466  0.5695 -0.1004
   40SOL    HW1  119   1.169   2.330   0.944 -0.6816  3.3881 -1.0711
   40SOL    HW2  120   1.211   2.475   0.878 -1.7012  0.1867  3.8064
   41SOL     OW  121   2.186   2.041   1.275 -0.3343 -0.3010  0.0698
   41SOL    HW1  122   2.196   2.136   1.241  1.4477 -0.8088  0.9885
   41SOL    HW2  123   2.233   1.974   1.216 -2.1717  1.1951  0.0226
   42SOL     OW  124   2.372   0.673   0.577  0.8484 -0.0707  0.1587
   42SOL    HW1  125   2.373   0.756   0.516 -0.8073 -0.6546  0.1447
   42SOL    HW2  126   2.280   0.665   0.619  1.1920 -0.6565 -4.9347
   43SOL     OW  127   0.969   1.349   2.508 -0.5055  0.2142 -0.5517
   43SOL    HW1  128   0.916   1.355   2.597  1.0173 -1.7112 -0.7757
   43SOL    HW2  129   0.919   1.402   2.437  0.8447  0.7903 -0.3632
   44SOL     OW  130   1.723   2.719   1.193  0.1632 -0.3571  0.0467
   44SOL    HW1  131   1.663   2.696   1.113 -1.8076 -0.6342 -0.9136
   44SOL    HW2  132   1.758   2.635   1.240  1.3005  1.0696  1.8730
   45SOL     OW  133   1.019   3.044   2.589  0.1306  0.3083 -0.6561
   45SOL    HW1  134   1.099   3.097   2.553 -2.3866 -0.2728  1.9118
   45SOL    HW2  135   1.000   2.956   2.534  0.4105 -0.5523 -2.7476
   46SOL     OW  136   0.780   2.484   1.854 -0.1257 -0.2649 -0.1070
   46SOL    HW1  137   0.803   2.501   1.755  1.6695 -0.0696  0.3738
   46SOL    HW2  138   0.810   2.392   1.877 -0.4938 -1.6898 -4.2099
   47SOL     OW  139   0.713   1.919   0.717 -0.3820 -0.0913  0.0253
   47SOL    HW1  140   0.703   1.829   0.670  0.1785 -1.0716  1.1984
   47SOL    HW2  141   0.646   1.927   0.794  0.5153 -2.0027  3.5165
   48SOL     OW  142   0.801   2.800   1.073  0.1682 -0.3455 -0.6543
   48SOL    HW1  143   0.864   2.820   1.154 -0.9718 -1.9602  1.2986
   48SOL    HW2  144   0.741   2.880   1.044  3.0049  1.3477 -1.3967
   49SOL     OW  145   2.889   2.920   2.856 -0.1612 -0.2917 -0.1098
   49SOL    HW1  146   2.867   3.020   2.831 -1.3027  3.6056 -1.3464
   49SOL    HW2  147   2.906   2.914   2.956 -0.5896 -0.3141  2.5787
   50SOL     OW  148   1.563   0.919   0.444 -0.2156 -0.5811 -0.4722
   50SOL    HW1  149   1.475   0.971   0.437  4.1389 -0.8373  0.0345
   50SOL    HW2  150   1.586   0.870   0.360  1.0859 -1.9861  0.0795
   51SOL     OW  151   1.999   0.117   0.413  0.4764 -0.0027 -0.0523
   51SOL    HW1  152   1.958   0.179   0.340 -1.2755 -0.9175 -2.3385
   51SOL    HW2  153   1.955   0.135   0.503  1.8310  0.8982 -2.8678
   52SOL     OW  154   0.918   1.596   0.438 -0.8112 -0.0716 -0.5825
   52SOL    HW1  155   0.958   1.549   0.355 -0.0608  1.7358 -1.0262
   52SOL    HW2  156   0.980   1.670   0.467 -1.4881  1.0217 -0.5365
   53SOL     OW  157   0.328   1.012   2.712 -0.0143 -0.0488  0.2543
   53SOL    HW1  158   0.343   0.985   2.809 -1.7229  1.1604 -0.9698
   53SOL    HW2  159   0.371   1.103   2.699  0.8463  0.3397  1.3116
   54SOL     OW  160   2.458   2.001   3.075 -0.7100 -0.0611  0.5961
   54SOL    HW1  161   2.504   1.928   3.021  2.1956  0.2468 -1.3654
   54SOL    HW2  162   2.394   1.968   0.054 -3.5783 -0.0394  1.5172
   55SOL     OW  163   2.533   2.286   1.426  0.2581 -0.1497  0.0523
   55SOL    HW1  164   2.578   2.368   1.460  0.0882  1.0108  1.3870
   55SOL    HW2  165   2.485   2.243   1.505  0.8075  2.5009  2.3575
   56SOL     OW  166   1.536   3.077   1.336  0.3731  0.2817  0.3335
   56SOL    HW1  167   1.606   3.008   1.364  0.6182 -0.8356 -1.2801
   56SOL    HW2  168   1.468   3.027   1.278 -0.1130 -2.7562 -0.6225
   57SOL     OW  169   1.536   1.681   0.953  0.4383  0.6877 -0.0003
   57SOL    HW1  170   1.551   1.616   0.872  2.5349 -1.7394 -1.2909
   57SOL    HW2  171   1.447   1.673   0.997  0.8882  1.5353 -2.1885
   58SOL     OW  172   2.406   0.134   1.831  0.1471  0.5276 -0.1105
   58SOL    HW1  173   2.364   0.222   1.855  1.7766 -1.7069  0.2527
   58SOL    HW2  174   2.346   0.084   1.763 -1.0287 -1.7108 -1.3378
   59SOL     OW  175   1.119   2.613   2.213 -0.4306  0.1096 -0.5533
   59SOL    HW1  176   1.155   2.701   2.259  3.0220  3.0342  3.4926
   59SOL    HW2  177   1.017   2.618   2.218 -1.0653  2.8727  2.4547
   60SOL     OW  178   0.681   0.140   2.496  0.1127  0.6180  0.5138
   60SOL    HW1  179   0.601   0.193   2.465  2.7970  0.0269  0.2749
   60SOL    HW2  180   0.735   0.183   2.569  3.2889 -1.3526 -0.8910
   61SOL     OW  181   0.726   2.057   0.497 -0.4915  0.2397 -0.0441
   61SOL    HW1  182   0.813   2.092   0.458  2.2885  0.5761  0.2707
   61SOL    HW2  183   0.739   2.005   0.583 -1.6167  1.2067 -2.2553
   62SOL     OW  184   1.232   1.772   2.063  0.2678  0.0967 -0.4665
   62SOL    HW1  185   1.217   1.853   2.008 -0.0116 -2.4823  3.2097
   62SOL    HW2  186   1.177   1.776   2.148  2.0721 -1.4985 -0.6091
   63SOL     OW  187   0.959   1.632   0.767 -0.1440 -0.4776 -0.1386
   63SOL    HW1  188   0.980   1.629   0.867 -2.5681  1.9954 -0.1679
   63SOL    HW2  189   1.038   1.663   0.714 -0.2438  2.1799 -2.4995
   64SOL     OW  190   1.479   1.336   0.002  0.0910  0.1621 -0.0824
   64SOL    HW1  191   1.446   1.403   3.032 -0.0081 -1.7479  0.4102
   64SOL    HW2  192   1.564   1.375   0.044 -0.1860  1.1221  0.8227
   65SOL     OW  193   1.700   2.272   2.176 -0.4619 -0.1125  0.3033
   65SOL    HW1  194   1.668   2.186   2.126  0.2566 -2.2649  0.0984
   65SOL    HW2  195   1.696   2.258   2.274  2.7593  2.1224 -2.9490
   66SOL     OW  196   0.227   1.023   0.997  0.1020  0.4125  0.1661
   66SOL    HW1  197   0.287   0.946   1.028  0.7480  0.3643 -2.4363
   66SOL    HW2  198   0.204   0.998   0.899 -0.8913 -0.0676  1.7125
   67SOL     OW  199   2.215   2.657   0.495 -0.2681  0.3357  0.4587
   67SOL    HW1  200   2.209   2.621   0.594 -1.3324 -1.2472  1.8045
   67SOL    HW2  201   2.221   2.579   0.425  0.1198 -0.8658 -1.2958
   68SOL     OW  202   2.577   2.505   1.579 -0.5173 -0.6698 -0.7038
   68SOL    HW1  203   2.633   2.592   1.564  2.4247  2.1423  1.3967
   68SOL    HW2  204   2.610   2.459   1.668  1.1772  0.0344  1.8701
   69SOL     OW  205   2.403   2.467   2.680  0.2923  0.0845  0.1811
   69SOL    HW1  206   2.484   2.522   2.708 -0.7447  2.0602  4.1500
   69SOL    HW2  207   2.338   2.522   2.630  1.1671 -2.8498  0.9487
   70SOL     OW  208   0.309   1.271   2.602  0.3389  0.4276 -0.5025
   70SOL    HW1  209   0.282   1.367   2.583  0.5490  1.0032 -1.0335
   70SOL    HW2  210   0.247   1.205   2.557 -1.1631 -3.3508 -4.2617
   71SOL     OW  211   0.966   1.271   2.196  0.4339 -0.2177  0.3587
   71SOL    HW1  212   0.874   1.303   2.229 -2.8634 -0.7595 -1.0325
   71SOL    HW2  213   0.959   1.245   2.099 -0.4308  0.0658  1.0187
   72SOL     OW  214   2.580   1.423   1.984  0.0773  0.6306 -0.6891
   72SOL    HW1  215   2.602   1.320   1.995  2.4808  0.0078 -2.8284
   72SOL    HW2  216   2.667   1.468   1.951  1.9809  0.0184 -1.0481
   73SOL     OW  217   0.675   1.832   2.828  0.2032 -0.3430 -0.4375
   73SOL    HW1  218   0.622   1.893   2.765 -2.8832 -1.8973 -0.5612
   73SOL    HW2  219   0.629   1.745   2.842 -0.8389  0.9819 -0.8051
   74SOL     OW  220   1.721   2.840   1.826 -0.1152  0.1589  0.0225
   74SOL    HW1  221   1.765   2.750   1.836  2.4862  0.4911  0.7401
   74SOL    HW2  222   1.624   2.857   1.859 -2.2193 -0.4910  0.6977
   75SOL     OW  223   1.211   2.800   0.502 -0.1535 -0.0285 -0.1043
   75SOL    HW1  224   1.288   2.776   0.566 -0.6086  0.0331  1.4783
   75SOL    HW2  225   1.219   2.898   0.462 -1.4793  1.7732 -0.1628
   76SOL     OW  226   0.154   1.771   2.644 -0.2018 -0.2649  0.0449
   76SOL    HW1  227   0.134   1.822   2.731  2.4288 -2.2102  1.2131
   76SOL    HW2  228   0.185   1.676   2.656 -0.0760  2.4762  1.4858
   77SOL     OW  229   0.105   2.749   1.134 -0.1989 -0.3115 -0.1764
   77SOL    HW1  230   0.037   2.815   1.175 -0.9618 -0.6203 -0.1606
   77SOL    HW2  231   0.187   2.728   1.195  0.7445 -1.4514  0.8467
   78SOL     OW  232   2.545   1.160   0.326 -0.0418  0.1744 -0.5548
   78SOL    HW1  233   2.611   1.191   0.258 -2.2293 -1.4536 -1.3871
   78SOL    HW2  234   2.572   1.188   0.422  0.9246  0.7374 -0.4751
   79SOL     OW  235   0.542   1.612   2.941 -0.4592 -0.1916  0.5248
   79SOL    HW1  236   0.440   1.599   2.968  0.1187 -2.9113  2.5296
   79SOL    HW2  237   0.583   1.527   2.902  0.2100  0.4213 -0.9338
   80SOL     OW  238   1.674   1.578   1.353  0.1243  0.9940  0.5313
   80SOL    HW1  239   1.731   1.607   1.437  2.5777  2.2375  2.0286
   80SOL    HW2  240   1.582   1.542   1.379 -1.8696  1.1790  0.3260
   81SOL     OW  241   2.087   0.765   2.472 -0.1225 -0.0563 -0.0959
   81SOL    HW1  242   2.131   0.727   2.389  0.0169 -1.2905  2.3453
   81SOL    HW2  243   1.990   0.787   2.447  1.7380  1.0342  0.2985
   82SOL     OW  244   1.539   1.249   1.612  0.0953 -0.0220 -0.2364
   82SOL    HW1  245   1.507   1.323   1.548 -2.4746  1.9534 -0.7362
   82SOL    HW2  246   1.533   1.279   1.709 -1.9227  1.1589 -1.8760
   83SOL     OW  247   0.093   0.100   3.074  0.0513  0.1669 -0.5465
   83SOL    HW1  248   0.080   0.118   2.974 -1.0342 -0.9784  1.5876
   83SOL    HW2  249   0.156   0.171   0.017  1.1413  2.3871 -0.4199
   84SOL     OW  250   0.483   1.317   0.084  0.5792 -0.6833 -0.1531
   84SOL    HW1  251   0.524   1.321   3.085 -1.9488  1.9658 -2.5757
   84SOL    HW2  252   0.392   1.271   0.080  0.7072  0.6781 -1.7716
   85SOL     OW  253   2.174   1.672   1.892 -0.5142  0.3387 -0.0815
   85SOL    HW1  254   2.274   1.667   1.869 -1.2236  1.7169 -2.5468
   85SOL    HW2  255   2.157   1.680   1.992 -0.7087  3.0315  1.7812
   86SOL     OW  256   0.810   0.941   1.123 -0.1515  0.1560 -0.3099
   86SOL    HW1  257   0.901   0.944   1.079  0.5683  0.1100 -1.2426
   86SOL    HW2  258   0.743   0.884   1.070 -0.9917  1.3754  2.9526
   87SOL     OW  259   2.392   2.047   2.422  0.1733  0.1470  0.1485
   87SOL    HW1  260   2.479   2.063   2.372 -0.1460  0.1238  0.2048
   87SOL    HW2  261   2.316   2.101   2.385 -0.4497  0.1861  1.5378
   88SOL     OW  262   0.307   2.751   0.249 -0.2854 -0.1065 -0.2321
   88SOL    HW1  263   0.324   2.753   0.353  1.5691  2.0526  0.4489
   88SOL    HW2  264   0.276   2.839   0.212 -0.6887  1.5468 -0.7115
   89SOL     OW  265   1.607   0.492   0.104  0.2209 -0.1603  0.5239
   89SOL    HW1  266   1.605   0.409   0.043 -0.3262 -2.0690  0.5660
   89SOL    HW2  267   1.699   0.538   0.105  0.7890 -1.4410  0.0003
   90SOL     OW  268   2.892   1.519   2.457  0.0780  0.2044  0.2884
   90SOL    HW1  269   2.802   1.500   2.498 -0.6754  1.0762 -0.6869
   90SOL    HW2  270   2.971   1.493   2.513 -1.5730 -1.5354  3.1366
   91SOL     OW  271   2.183   2.959   1.169 -0.4999 -0.4096  0.4261
   91SOL    HW1  272   2.219   3.054   1.184 -0.5256  0.3255  1.0023
   91SOL    HW2  273   2.080   2.951   1.172 -2.0179  1.7230 -0.3639
   92SOL     OW  274   2.270   1.355   1.198 -0.0653 -0.6920 -0.2731
   92SOL    HW1  275   2.306   1.380   1.106  0.4307 -1.6654 -0.1868
   92SOL    HW2  276   2.280   1.437   1.256 -1.5340 -0.3083 -0.1903
   93SOL     OW  277   0.319   1.352   0.311  0.1225  0.5689  0.0701
   93SOL    HW1  278   0.397   1.378   0.248 -1.9238  1.0486  0.0403
   93SOL    HW2  279   0.287   1.257   0.294 -0.1627 -2.3253  0.0916
   94SOL     OW  280   1.194   2.514   1.593  0.1952 -0.1678 -0.2990
   94SOL    HW1  281   1.141   2.532   1.681  0.4841 -0.4654  1.6665
   94SOL    HW2  282   1.292   2.512   1.615 -1.4857 -2.3182 -0.0244
   95SOL     OW  283   0.249   0.654   0.673 -0.2357  0.2623  0.1862
   95SOL    HW1  284   0.302   0.738   0.646  4.5433  0.4179  1.5406
   95SOL    HW2  285   0.187   0.672   0.751  2.0674  1.1711  0.2236
   96SOL     OW  286   3.076   2.955   1.707 -0.1677  0.0939 -0.3130
   96SOL    HW1  287   2.998   2.915   1.760 -0.6845  3.1109 -0.3608
   96SOL    HW2  288   3.088   2.894   1.622  0.5508 -1.6258 -2.8239
   97SOL     OW  289   2.403   0.449   1.389 -0.3128 -0.0627 -0.3699
   97SOL    HW1  290   2.323   0.504   1.366  0.1247 -0.5606  0.3864
   97SOL    HW2  291   2.444   0.411   1.307 -0.8516  0.9420  1.8154
   98SOL     OW  292   2.938   2.391   1.611 -0.3675  0.3496 -0.0032
   98SOL    HW1  293   2.840   2.393   1.643  0.7957 -3.2849  0.6629
   98SOL    HW2  294   2.978   2.301   1.615 -1.0576  1.7386  1.2682
   99SOL     OW  295   0.044   0.427   1.267  0.0839  0.2354 -0.2390
   99SOL    HW1  296   0.089   0.346   1.231 -0.0866  0.8828 -1.8424
   99SOL    HW2  297   0.019   0.416   1.364  0.6899 -1.5084 -0.1869
  100SOL     OW  298   2.186   0.333   2.622  0.6362 -0.3391 -0.2075
  100SOL    HW1  299   2.267   0.272   2.606 -0.3345  1.2445 -1.0683
  100SOL    HW2  300   2.182   0.376   2.716 -4.5992 -1.6306  1.2419
  101SOL     OW  301   0.596   2.891   2.111 -0.2199 -0.0984  0.2808
  101SOL    HW1  302   0.685   2.920   2.071 -1.3800 -0.1179 -3.7054
  101SOL    HW2  303   0.585   2.926   2.204  0.4284 -1.1430 -0.1121
  102SOL     OW  304   0.476   0.564   1.695  0.0630  0.1426 -0.5132
  102SOL    HW1  305   0.569   0.600   1.695  0.5871  0.6015 -0.4469
  102SOL    HW2  306   0.412   0.648   1.708 -0.2575  0.4333  0.9060
  103SOL     OW  307   1.072   0.922   2.574 -0.3390 -0.4179 -0.2533
  103SOL    HW1  308   1.086   0.822   2.567  2.1613 -1.2813  0.9318
  103SOL    HW2  309   1.030   0.959   2.487 -1.9775 -0.4342 -0.5175
  104SOL     OW  310   0.149   0.388   1.929 -0.4056  0.3235  0.2065
  104SOL    HW1  311   0.074   0.329   1.884 -1.5753 -1.9266 -1.8408
  104SOL    HW2  312   0.223   0.327   1.967  2.4617 -0.7069 -0.1027
  105SOL     OW  313   2.402   2.150   1.659 -0.3494 -0.3726  0.0217
  105SOL    HW1  314   2.489   2.101   1.678 -1.7498  0.1341  0.1550
  105SOL    HW2  315   2.333   2.149   1.739 -0.8258  0.3802  2.4145
  106SOL     OW  316   1.282   3.047   0.339 -0.2900  0.2789 -0.4063
  106SOL    HW1  317   1.197   3.016   0.290 -0.2842 -1.1711 -0.0123
  106SOL    HW2  318   1.279   0.051   0.351 -0.1666  0.2499  0.7831
  107SOL     OW  319   2.481   1.911   1.390  0.1038  0.1894  0.0139
  107SOL    HW1  320   2.452   2.009   1.371  0.1863  0.7357 -3.2662
  107SOL    HW2  321   2.500   1.866   1.297 -1.1675 -1.6839 -3.4055
  108SOL     OW  322   3.042   2.139   0.704  0.1409  0.1533 -0.0220
  108SOL    HW1  323   3.067   2.161   0.607 -0.9026 -0.7381  0.5656
  108SOL    HW2  324   0.025   2.130   0.766 -1.7752 -0.7904 -0.8121
  109SOL     OW  325   1.644   2.988   0.558  0.0640  0.1602 -0.4781
  109SOL    HW1  326   1.602   2.999   0.467  0.6460 -2.5400  1.8786
  109SOL    HW2  327   1.742   3.019   0.565  1.2151  1.4819 -0.6850
  110SOL     OW  328   2.057   1.489   1.012 -0.0684 -0.3506  0.2873
  110SOL    HW1  329   2.108   1.411   0.978  2.1273  0.3839 -0.9498
  110SOL    HW2  330   1.975   1.514   0.953 -0.8314  1.4395 -0.1885
  111SOL     OW  331   1.529   2.361   1.907 -0.2049  0.3907  0.0523
  111SOL    HW1  332   1.628   2.359   1.898 -2.0126  2.2523 -1.4565
  111SOL    HW2  333   1.497   2.387   2.002  1.1599 -1.2577 -2.4371
  112SOL     OW  334   1.866   2.194   3.001  0.1489  0.4234  0.0055
  112SOL    HW1  335   1.921   2.237   3.076 -1.6972  1.8515 -0.5476
  112SOL    HW2  336   1.895   2.100   2.983  1.4094 -0.6800 -0.3786
  113SOL     OW  337   2.058   1.893   1.793  0.0943 -0.0479 -0.0909
  113SOL    HW1  338   2.102   1.810   1.835 -0.7892 -2.7186 -0.2855
  113SOL    HW2  339   2.109   1.928   1.714  0.6887 -1.6720  2.6133
  114SOL     OW  340   3.029   1.306   1.656 -0.1114 -0.3027 -0.4767
  114SOL    HW1  341   3.063   1.370   1.584 -0.4982 -0.3741 -1.4756
  114SOL    HW2  342   3.063   1.212   1.638 -1.3539  0.2334  0.7613
  115SOL     OW  343   2.933   0.725   0.019  0.4337 -0.2865 -0.3488
  115SOL    HW1  344   2.895   0.769   3.034  1.1792 -1.7822 -1.6442
  115SOL    HW2  345   2.924   0.791   0.101  1.5680 -0.7049  0.3327
  116SOL     OW  346   2.812   0.499   3.055 -0.3742  0.3851  0.4855
  116SOL    HW1  347   2.853   0.578   0.007  1.1173 -0.6936 -0.1928
  116SOL    HW2  348   2.825   0.516   2.956 -2.2904 -1.3107  0.1175
  117SOL     OW  349   2.599   2.270   0.074 -0.6339  0.1065  0.7574
  117SOL    HW1  350   2.631   2.356   0.025 -2.6637 -0.9463 -1.2218
  117SOL    HW2  351   2.567   2.197   0.011  1.7087 -2.3172  0.6954
  118SOL     OW  352   0.603   2.155   2.319 -0.4487  0.0426  0.4158
  118SOL    HW1  353   0.610   2.224   2.390  0.0056  0.3282 -5.0134
  118SOL    HW2  354   0.507   2.140   2.283  0.3403 -0.7834 -0.4960
  119SOL     OW  355   0.816   2.816   0.384 -0.0529 -0.0655 -0.2265
  119SOL    HW1  356   0.763   2.728   0.384 -3.3712 -1.3136 -1.9148
  119SOL    HW2  357   0.827   2.840   0.483  1.4038 -1.0548  1.6745
  120SOL     OW  358   1.277   0.765   0.221 -0.3738 -0.0039  0.0986
  120SOL    HW1  359   1.337   0.753   0.302  0.1381 -0.9757 -2.0903
  120SOL    HW2  360   1.321   0.711   0.140  1.0309 -1.7914  0.4533
  121SOL     OW  361   1.417   0.062   0.679 -0.0521 -0.5100  0.0702
  121SOL    HW1  362   1.456   3.065   0.680 -0.1654 -0.5914 -1.5340
  121SOL    HW2  363   1.493   0.126   0.645  0.8870  1.8641 -0.2916
  122SOL     OW  364   2.237   1.376   2.149 -0.4045  0.5995  0.6648
  122SOL    HW1  365   2.256   1.315   2.067 -1.3243 -2.7662 -4.1448
  122SOL    HW2  366   2.316   1.437   2.163  1.9131 -1.9642  0.8762
  123SOL     OW  367   1.432   0.948   1.196 -0.0921  0.0847 -1.2312
  123SOL    HW1  368   1.446   0.917   1.100  0.6015  2.6773  1.7288
  123SOL    HW2  369   1.371   0.883   1.249 -0.2551 -1.8731 -1.1803
  124SOL     OW  370   0.475   0.698   2.940  0.0648 -0.3113 -0.0235
  124SOL    HW1  371   0.422   0.664   2.859 -1.1230  0.7529  1.8727
  124SOL    HW2  372   0.550   0.755   2.901  0.8329  0.6203 -1.8234
  125SOL     OW  373   0.723   0.404   0.238  0.0477 -0.0221 -0.1004
  125SOL    HW1  374   0.796   0.448   0.294  1.6306  1.6541 -1.7400
  125SOL    HW2  375   0.714   0.308   0.260  0.6316  0.5505 -0.5066
  126SOL     OW  376   0.364   1.765   0.477 -0.1801  0.1824  0.0660
  126SOL    HW1  377   0.364   1.823   0.560  0.9745  2.0376  1.0287
  126SOL    HW2  378   0.452   1.778   0.434 -1.7170  3.3241 -3.2837
  127SOL     OW  379   0.773   2.564   1.579  0.0696  0.8869  0.0187
  127SOL    HW1  380   0.688   2.608   1.547  2.5352  0.8439 -0.7014
  127SOL    HW2  381   0.843   2.637   1.587 -1.4202  1.2025 -1.6266
  128SOL     OW  382   1.051   1.912   0.375  0.4920 -0.0653 -0.3662
  128SOL    HW1  383   0.992   1.851   0.318  2.6537  0.0517  1.5816
  128SOL    HW2  384   1.090   1.864   0.458  0.9238  2.3105 -0.4313
  129SOL     OW  385   1.784   1.562   1.770  0.4332  0.0062 -1.0952
  129SOL    HW1  386   1.788   1.628   1.690  1.0971 -0.9644 -2.1241
  129SOL    HW2  387   1.876   1.512   1.781 -1.5317 -1.9447 -1.4241
  130SOL     OW  388   1.935   2.083   1.380 -0.3627  0.2463  0.3366
  130SOL    HW1  389   2.017   2.051   1.329  0.4275 -2.0188 -0.0363
  130SOL    HW2  390   1.854   2.082   1.314 -0.5571  0.7315 -2.0812
  131SOL     OW  391   0.288   2.337   2.016 -0.2965 -0.1570  0.4799
  131SOL    HW1  392   0.196   2.319   1.974 -0.2737 -0.4422 -2.2958
  131SOL    HW2  393   0.366   2.343   1.947  0.7877  3.4608  0.9446
  132SOL     OW  394   2.585   1.899   0.746  0.6992  0.0450 -0.2532
  132SOL    HW1  395   2.685   1.909   0.737 -4.3875 -2.0052 -2.4705
  132SOL    HW2  396   2.545   1.992   0.750  1.1508  1.6925 -1.4349
  133SOL     OW  397   0.541   0.899   1.772 -0.2890  0.0364 -0.4123
  133SOL    HW1  398   0.613   0.913   1.702 -2.1153  0.7374  0.0573
  133SOL    HW2  399   0.568   0.831   1.846 -1.5004  0.6335 -0.8112
  134SOL     OW  400   2.507   1.616   0.247 -0.0900  0.3236  0.1122
  134SOL    HW1  401   2.560   1.572   0.167  1.0106  1.1199 -0.6981
  134SOL    HW2  402   2.519   1.717   0.241  1.6270  1.4629  0.8766
  135SOL     OW  403   1.782   1.029   2.470 -0.5500 -0.2840  0.4165
  135SOL    HW1  404   1.677   1.028   2.451  0.4582 -2.4672 -1.0718
  135SOL    HW2  405   1.813   0.933   2.445 -0.5892 -2.0601 -0.5354
  136SOL     OW  406   2.908   1.757   1.354  0.2881  0.4219 -0.1071
  136SOL    HW1  407   2.996   1.789   1.402  3.2616 -1.8507  0.2700
  136SOL    HW2  408   2.834   1.744   1.426 -0.5039  0.4958  1.2467
  137SOL     OW  409   2.483   1.809   0.521 -0.1793 -0.0590  0.2603
  137SOL    HW1  410   2.469   1.713   0.521  0.5146  2.9454 -0.0552
  137SOL    HW2  411   2.533   1.839   0.604  0.6358  0.7024 -2.2548
  138SOL     OW  412   2.800   0.762   0.636 -0.0833  0.0194 -0.6927
  138SOL    HW1  413   2.763   0.758   0.543  0.4995  1.7377 -1.5515
  138SOL    HW2  414   2.867   0.693   0.655  1.7194  0.7105 -0.9008
  139SOL     OW  415   3.072   2.963   3.073  0.1435  0.1775  0.1778
  139SOL    HW1  416   0.007   3.061   3.084 -0.7024  1.6629 -3.5630
  139SOL    HW2  417   0.023   2.931   2.990 -2.9426  3.1931  0.4902
  140SOL     OW  418   0.748   1.030   1.651  0.1416  0.3813  0.3506
  140SOL    HW1  419   0.737   1.116   1.707  0.6036  1.5873 -0.7673
  140SOL    HW2  420   0.695   1.041   1.565  0.1683 -3.3027  0.8827
  141SOL     OW  421   1.394   1.387   1.049  0.0893  0.1262  0.4144
  141SOL    HW1  422   1.368   1.307   1.116  0.0478 -2.2600  0.2467
  141SOL    HW2  423   1.356   1.471   1.086  2.0545 -1.3368  0.3730
  142SOL     OW  424   1.580   0.617   1.051 -0.8609  0.4769 -0.2728
  142SOL    HW1  425   1.557   0.524   1.018 -0.5830 -1.2256  3.0916
  142SOL    HW2  426   1.550   0.628   1.148  0.4101  0.2175  1.4572
  143SOL     OW  427   0.731   1.060   2.556 -0.0421  0.3035  0.5687
  143SOL    HW1  428   0.673   1.137   2.597  1.2268  0.2387  3.0536
  143SOL    HW2  429   0.668   0.988   2.520  2.3518 -1.1166  2.1832
  144SOL     OW  430   2.380   2.951   0.294  0.5691 -0.2806  0.5256
  144SOL    HW1  431   2.468   2.961   0.239  2.6946  0.6298 -1.1301
  144SOL    HW2  432   2.300   2.932   0.234  0.4521  0.8465  1.6465
  145SOL     OW  433   2.479   0.430   2.900  0.3632  0.2549 -0.1391
  145SOL    HW1  434   2.384   0.457   2.915  0.2496  1.2868 -0.9995
  145SOL    HW2  435   2.537   0.449   2.985  1.8894  1.6424  0.2898
  146SOL     OW  436   0.014   2.652   0.298 -0.2322  0.0105  0.4843
  146SOL    HW1  437   3.054   2.648   0.214 -3.2443 -1.7190  0.1585
  146SOL    HW2  438   0.104   2.607   0.275  1.6666 -1.3903  1.1809
  147SOL     OW  439   1.212   1.233   2.878 -0.6812  0.3023  0.6233
  147SOL    HW1  440   1.284   1.305   2.887  0.8987  0.6104 -2.1917
  147SOL    HW2  441   1.187   1.210   2.782 -0.8845  0.3226 -0.1829
  148SOL     OW  442   1.394   0.209   0.120  0.3416  0.7251  0.1197
  148SOL    HW1  443   1.454   0.244   0.048 -1.1785  0.0221 -3.0416
  148SOL    HW2  444   1.308   0.167   0.078 -1.1682  2.1080 -0.6136
  149SOL     OW  445   1.704   0.211   1.903 -0.3063  0.2150 -0.2416
  149SOL    HW1  446   1.669   0.293   1.955 -0.2318  2.5225  0.0818
  149SOL    HW2  447   1.708   0.126   1.958  2.1301  0.7952 -1.9363
  150SOL     OW  448   2.068   0.045   2.961 -0.1798 -0.2265 -0.1975
  150SOL    HW1  449   2.070   3.082   3.041  1.3229  4.0395 -3.0932
  150SOL    HW2  450   2.143   0.026   2.889 -1.0097  1.1738 -2.4087
  151SOL     OW  451   0.594   1.603   0.117  0.3722 -0.1140  0.3507
  151SOL    HW1  452   0.582   1.503   0.122 -1.4085 -0.2094 -1.6218
  151SOL    HW2  453   0.582   1.631   0.018 -2.9830 -0.9538 -0.1313
  152SOL     OW  454   0.336   0.411   1.181 -0.3969 -0.8163  0.4609
  152SOL    HW1  455   0.350   0.308   1.176 -1.0658 -1.1659 -0.0357
  152SOL    HW2  456   0.321   0.431   1.279  1.1201 -1.1385 -0.4926
  153SOL     OW  457   2.654   2.733   2.257 -0.6748 -0.4755  0.0852
  153SOL    HW1  458   2.680   2.760   2.162 -1.1446  0.3819 -1.8557
  153SOL    HW2  459   2.609   2.813   2.295  0.0433 -2.0872 -2.5584
  154SOL     OW  460   2.184   0.012   2.456  0.6417 -0.6021 -0.0097
  154SOL    HW1  461   2.125   3.052   2.394 -0.4507 -0.7710  0.0206
  154SOL    HW2  462   2.121   0.069   2.514  1.5180 -0.7524  1.7714
  155SOL     OW  463   0.484   1.115   0.699 -0.0331 -0.2590  0.4351
  155SOL    HW1  464   0.414   1.156   0.636 -0.0075 -3.8274 -0.5298
  155SOL    HW2  465   0.553   1.179   0.740  0.3369  0.8236 -0.3821
  156SOL     OW  466   2.349   1.721   0.857  0.2512  0.3247 -0.2340
  156SOL    HW1  467   2.409   1.708   0.778  0.1571 -0.4595  3.6496
  156SOL    HW2  468   2.259   1.682   0.839  1.1768  0.8904 -3.3592
  157SOL     OW  469   0.809   0.401   3.062  0.4619  0.0121  0.5832
  157SOL    HW1  470   0.776   0.318   3.009  2.6802 -2.4485  0.4514
  157SOL    HW2  471   0.773   0.405   0.063  0.8462  0.3916  0.0273
  158SOL     OW  472   1.813   1.029   1.071  0.5429 -0.3212 -0.2158
  158SOL    HW1  473   1.808   1.096   0.998  2.0291 -0.9528 -2.6276
  158SOL    HW2  474   1.804   0.926   1.042  0.1382 -1.6352 -3.9580
  159SOL     OW  475   0.050   0.388   0.343  0.5900  0.3689 -0.8352
  159SOL    HW1  476   3.093   0.454   0.394  1.2989 -1.9040 -1.0701
  159SOL    HW2  477   0.146   0.420   0.336 -2.3847  1.0835 -0.1944
  160SOL     OW  478   2.244   2.161   1.887 -0.6976  0.1565 -0.2633
  160SOL    HW1  479   2.169   2.103   1.908  2.1648 -0.2194 -0.8401
  160SOL    HW2  480   2.219   2.257   1.906 -1.2029  0.5660 -1.1031
  161SOL     OW  481   0.314   1.005   3.007 -0.2944 -0.3061  0.5020
  161SOL    HW1  482   0.404   0.997   3.049  0.7442 -0.5820 -1.1572
  161SOL    HW2  483   0.263   0.914   3.006  0.5263 -3.2703  0.8387
  162SOL     OW  484   0.359   0.564   1.971  0.5446  0.0288 -0.0774
  162SOL    HW1  485   0.437   0.612   1.927 -1.6978  0.2126 -0.2826
  162SOL    HW2  486   0.321   0.505   1.900 -0.0895  0.3554 -1.4295
  163SOL     OW  487   2.622   0.023   2.594 -0.3713 -0.2876 -0.6163
  163SOL    HW1  488   2.671   3.056   2.655 -2.6470  1.0968  0.6653
  163SOL    HW2  489   2.684   0.085   2.546  0.3640  2.5167  1.4448
  164SOL     OW  490   2.214   1.923   0.200 -0.0901  0.2084 -0.5887
  164SOL    HW1  491   2.166   1.854   0.145  0.6702 -0.7984  0.0983
  164SOL    HW2  492   2.309   1.893   0.215 -2.8878  0.2562 -1.0783
  165SOL     OW  493   0.401   0.171   1.079 -0.3114 -0.0285  0.0332
  165SOL    HW1  494   0.483   0.208   1.032  0.9336  3.0283  1.5343
  165SOL    HW2  495   0.439   0.107   1.154  0.7753  0.0208  0.3935
  166SOL     OW  496   2.617   0.300   0.316  0.1062 -0.4318  0.6076
  166SOL    HW1  497   2.690   0.232   0.330  0.1171 -0.0451 -1.6516
  166SOL    HW2  498   2.622   0.389   0.374 -1.4556  3.0327 -0.1364
  167SOL     OW  499   2.509   0.710   0.011 -0.1272  0.6014  0.1287
  167SOL    HW1  500   2.536   0.614   0.041 -0.9220 -1.3188  3.0366
  167SOL    HW2  501   2.405   0.717   0.018 -0.1896  3.4848  1.7385
  168SOL     OW  502   1.367   2.886   2.126  0.2336 -0.4585 -0.4128
  168SOL    HW1  503   1.279   2.872   2.172  0.8880  0.4605  1.4970
  168SOL    HW2  504   1.386   2.985   2.099  1.0076 -0.0510  1.3774
  169SOL     OW  505   0.376   2.041   0.543 -0.0420 -0.4306  0.5165
  169SOL    HW1  506   0.339   1.982   0.619  0.6593  0.6242 -2.4574
  169SOL    HW2  507   0.421   2.125   0.581  0.3652 -2.1836  0.1744
  170SOL     OW  508   0.058   0.699   1.353 -0.0625  0.2055 -0.1476
  170SOL    HW1  509   0.051   0.607   1.312  2.7382 -0.6219 -1.9140
  170SOL    HW2  510   3.063   0.743   1.363  0.2919 -1.4669 -0.8957
  171SOL     OW  511   2.620   1.450   2.454  0.2627  0.3761  0.2360
  171SOL    HW1  512   2.598   1.346   2.456  0.3058 -2.0862  1.0208
  171SOL    HW2  513   2.566   1.496   2.376  1.2993 -0.9076 -0.9342
  172SOL     OW  514   0.728   1.645   1.243 -0.0832 -0.2681 -0.4335
  172SOL    HW1  515   0.736   1.591   1.156  0.5559  0.6752  0.9856
  172SOL    HW2  516   0.822   1.661   1.286 -0.3167  1.1289 -0.4098
  173SOL     OW  517   1.865   1.886   3.007 -0.1170  0.4777 -0.2477
  173SOL    HW1  518   1.955   1.857   3.052  2.6024 -3.5984  1.8382
  173SOL    HW2  519   1.783   1.839   3.045  1.5073 -0.9144  1.5318
  174SOL     OW  520   1.684   0.731   2.934 -0.6793  0.5897  0.1711
  174SOL    HW1  521   1.634   0.806   2.981 -0.3964  0.1723 -3.7603
  174SOL    HW2  522   1.734   0.678   3.006 -0.0433 -2.0053  3.6531
  175SOL     OW  523   0.659   1.820   1.683  0.1230 -0.1371  0.5543
  175SOL    HW1  524   0.732   1.880   1.645  0.5267  0.1003 -1.4863
  175SOL    HW2  525   0.679   1.809   1.781  1.3358  0.1995 -0.6875
  176SOL     OW  526   0.679   0.130   0.292  0.2066  0.2831 -0.9796
  176SOL    HW1  527   0.669   0.132   0.395 -0.3756  1.0418  3.4697
  176SOL    HW2  528   0.596   0.099   0.246  2.1121  0.6530 -2.2773
  177SOL     OW  529   0.197   1.575   0.417 -0.7422  0.2410 -0.1508
  177SOL    HW1  530   0.269   1.647   0.444  0.9488 -0.6542  0.0220
  177SOL    HW2  531   0.247   1.500   0.369 -2.1103 -0.8250 -0.3195
  178SOL     OW  532   2.886   2.168   2.623  0.2949  0.0483 -0.6434
  178SOL    HW1  533   2.968   2.209   2.661 -1.1967 -0.8743  2.3052
  178SOL    HW2  534   2.892   2.142   2.527 -1.2119 -0.2879  1.8254
  179SOL     OW  535   2.704   2.858   2.655 -0.2238 -0.1342  1.2084
  179SOL    HW1  536   2.768   2.841   2.576 -0.3160 -1.3879 -1.0436
  179SOL    HW2  537   2.745   2.867   2.744 -4.7716  0.9594 -5.0470
  180SOL     OW  538   2.276   0.527   0.900 -0.7556  0.3284  0.0299
  180SOL    HW1  539   2.212   0.600   0.875  0.1318 -1.8720 -1.6302
  180SOL    HW2  540   2.334   0.502   0.824 -0.2882  1.3953  0.2966
  181SOL     OW  541   2.944   0.282   2.659 -0.2414 -0.0193  0.2154
  181SOL    HW1  542   3.024   0.332   2.617  0.9833 -1.3207 -1.8918
  181SOL    HW2  543   2.888   0.240   2.580  0.9620  0.3824 -1.6650
  182SOL     OW  544   2.198   2.220   2.321  0.1403 -0.5226  0.3758
  182SOL    HW1  545   2.117   2.156   2.309 -3.4559  0.5125  0.1054
  182SOL    HW2  546   2.176   2.306   2.377  0.9491  1.6423  0.9805
  183SOL     OW  547   2.523   0.657   2.038  0.6370 -0.2497  0.3388
  183SOL    HW1  548   2.483   0.731   2.096 -1.4957 -2.3043 -0.8496
  183SOL    HW2  549   2.502   0.659   1.937 -1.8935 -0.4858 -1.8640
  184SOL     OW  550   2.823   1.430   0.561  0.0459  0.0153  0.1013
  184SOL    HW1  551   2.821   1.453   0.661 -1.4454 -1.4256  0.5095
  184SOL    HW2  552   2.829   1.510   0.501  0.2304  1.8544  1.4873
  185SOL     OW  553   2.745   0.349   0.694  0.3076  0.3818  0.2971
  185SOL    HW1  554   2.822   0.411   0.660  1.6834  3.2493 -1.7234
  185SOL    HW2  555   2.763   0.251   0.667 -0.0190 -0.5464 -2.6722
  186SOL     OW  556   2.048   2.686   2.824 -0.0573  0.0772  0.3555
  186SOL    HW1  557   2.101   2.740   2.752 -1.1505 -0.0846  0.7860
  186SOL    HW2  558   1.951   2.686   2.799  0.8826 -1.4929  0.6611
  187SOL     OW  559   0.346   1.430   0.789  0.4211 -0.4270  0.1199
  187SOL    HW1  560   0.390   1.419   0.696  1.4549 -1.5579  0.5134
  187SOL    HW2  561   0.416   1.415   0.864  1.5558  0.3837  1.3899
  188SOL     OW  562   1.842   1.764   0.712 -1.1003  0.7305 -0.1298
  188SOL    HW1  563   1.759   1.709   0.733 -2.2596  0.1781 -1.3954
  188SOL    HW2  564   1.857   1.827   0.794 -2.5708  1.3052  1.7983
  189SOL     OW  565   2.994   1.435   2.958  0.0263  0.2019 -0.1160
  189SOL    HW1  566   3.037   1.355   2.920 -1.6733  1.4650 -0.9134
  189SOL    HW2  567   2.942   1.414   3.044  0.9130 -1.7666 -2.7453
  190SOL     OW  568   2.550   0.363   2.543 -0.0085  0.3864 -0.1885
  190SOL    HW1  569   2.479   0.294   2.561  2.1658  1.8682 -1.1963
  190SOL    HW2  570   2.557   0.435   2.616  1.1444 -0.4193 -0.2714
  191SOL     OW  571   0.977   0.502   2.387 -0.2146 -0.5674  0.1762
  191SOL    HW1  572   1.017   0.545   2.469 -0.8535 -1.1813  0.4929
  191SOL    HW2  573   0.994   0.560   2.305 -0.3210 -1.1560  2.2335
  192SOL     OW  574   1.301   1.505   2.048 -0.3722  0.0148 -0.2484
  192SOL    HW1  575   1.293   1.462   1.955  1.1436 -0.4276  0.8293
  192SOL    HW2  576   1.274   1.604   2.045 -0.3624 -1.2399  2.1945
  193SOL     OW  577   1.498   2.668   1.042 -0.2269 -0.3199 -0.0966
  193SOL    HW1  578   1.433   2.682   1.122 -0.9472  3.8244 -0.3209
  193SOL    HW2  579   1.483   2.751   0.986 -0.7272 -0.2728  0.4627
  194SOL     OW  580   1.436   1.685   1.857  0.4781  0.5197  0.5671
  194SOL    HW1  581   1.469   1.592   1.865 -0.7939  2.5992  1.1460
  194SOL    HW2  582   1.369   1.710   1.931 -0.7773 -1.1820  2.6150
  195SOL     OW  583   1.833   0.121   0.672  0.0202 -0.4313 -0.1760
  195SOL    HW1  584   1.852   0.170   0.761  3.4219 -1.0946  2.0794
  195SOL    HW2  585   1.741   0.155   0.636 -2.6142  0.6753  2.6552
  196SOL     OW  586   1.442   1.577   2.449 -0.5472 -0.0106 -0.2227
  196SOL    HW1  587   1.340   1.576   2.445  1.8898  0.2942  0.0192
  196SOL    HW2  588   1.479   1.508   2.512  3.1183  1.4705  0.4093
  197SOL     OW  589   0.367   0.211   1.983  0.2429 -0.0809 -0.1521
  197SOL    HW1  590   0.388   0.122   2.026 -0.2014  0.3563  1.5100
  197SOL    HW2  591   0.445   0.248   1.924 -0.8910 -0.8712 -0.5673
  198SOL     OW  592   0.108   1.263   1.032 -0.1043  0.2815 -0.6700
  198SOL    HW1  593   0.143   1.172   1.007 -0.6510  3.0022  0.6853
  198SOL    HW2  594   0.138   1.333   0.969 -4.1850  0.6916  3.3305
  199SOL     OW  595   0.418   2.200   0.860 -0.1367 -0.6449 -0.3378
  199SOL    HW1  596   0.462   2.227   0.769  3.6091  0.4534 -1.4668
  199SOL    HW2  597   0.465   2.246   0.939 -0.4050 -1.1824  1.6638
  200SOL     OW  598   1.915   1.431   3.037  0.0203  0.5091  0.1162
  200SOL    HW1  599   1.942   1.491   0.016 -0.5786  0.7171 -2.0179
  200SOL    HW2  600   1.883   1.336   3.061 -0.3113 -3.4309  0.9214
  201SOL     OW  601   0.524   2.140   1.524 -0.5452 -0.2850 -0.0296
  201SOL    HW1  602   0.610   2.107   1.570 -0.0289  1.0302 -0.1224
  201SOL    HW2  603   0.460   2.059   1.527  0.6342 -1.5672  2.9909
  202SOL     OW  604   1.235   2.589   2.820 -0.2046 -0.5960 -0.3019
  202SOL    HW1  605   1.183   2.668   2.857  1.1136 -1.9746  3.0718
  202SOL    HW2  606   1.196   2.539   2.745 -1.1133  1.9697  2.1158
  203SOL     OW  607   1.596   0.403   2.049  0.2396  0.1946  0.3394
  203SOL    HW1  608   1.514   0.343   2.059  0.7714 -1.9056 -1.9576
  203SOL    HW2  609   1.567   0.495   2.018  4.2300 -0.4941 -0.6686
  204SOL     OW  610   0.511   1.179   1.500 -0.0411  0.0595  0.1466
  204SOL    HW1  611   0.556   1.114   1.435  1.6893 -0.1600  1.6030
  204SOL    HW2  612   0.515   1.275   1.463  0.9229  0.7225  0.5863
  205SOL     OW  613   2.328   1.206   2.432  0.9413 -0.0679 -0.1855
  205SOL    HW1  614   2.317   1.306   2.451 -1.6295 -0.1706 -2.9060
  205SOL    HW2  615   2.307   1.190   2.335  0.6554  0.3760 -0.3295
  206SOL     OW  616   0.206   2.054   2.364  0.4000  0.6348 -0.3807
  206SOL    HW1  617   0.213   2.042   2.469  2.3985  0.2297  0.7533
  206SOL    HW2  618   0.130   1.997   2.328 -2.2442 -0.7007  1.9908
  207SOL     OW  619   0.568   0.078   1.688 -0.3569  0.5086  0.6480
  207SOL    HW1  620   0.668   0.050   1.683  0.1409  0.2396  0.4407
  207SOL    HW2  621   0.561   0.154   1.753 -2.2342 -3.2808 -2.7783
  208SOL     OW  622   0.506   2.324   1.338  0.5189 -0.2288 -0.4465
  208SOL    HW1  623   0.440   2.401   1.367 -0.2826  3.2846 -1.6535
  208SOL    HW2  624   0.522   2.266   1.416  2.0907 -1.6062 -1.1003
  209SOL     OW  625   1.482   2.582   2.704 -0.2297 -0.0358 -0.8319
  209SOL    HW1  626   1.399   2.587   2.769 -0.3575  1.0234  1.5149
  209SOL    HW2  627   1.494   2.490   2.671 -1.0979  2.9128  3.9634
  210SOL     OW  628   2.817   1.556   1.881  0.1810  0.3745 -0.1048
  210SOL    HW1  629   2.830   1.470   1.831  0.1869  1.6382 -1.1683
  210SOL    HW2  630   2.870   1.564   1.967  0.3475 -1.7373 -1.4085
  211SOL     OW  631   1.054   0.163   1.747  0.5725 -0.2790 -0.1679
  211SOL    HW1  632   1.098   0.146   1.840  0.9086  0.5589  1.4297
  211SOL    HW2  633   1.125   0.158   1.676 -2.0157  2.5052  0.9377
  212SOL     OW  634   1.182   2.229   1.560 -0.3794 -0.3747 -0.5126
  212SOL    HW1  635   1.182   2.333   1.571 -1.6131  0.6620  0.2732
  212SOL    HW2  636   1.227   2.191   1.645 -1.7643 -0.9442 -1.1036
  213SOL     OW  637   2.532   0.400   2.171  0.0845 -0.1634  0.1691
  213SOL    HW1  638   2.531   0.393   2.272 -1.3707 -1.1188 -2.8906
  213SOL    HW2  639   2.525   0.500   2.145 -0.7878 -1.3842  1.5983
  214SOL     OW  640   1.057   1.743   1.654  0.5118  0.0177 -0.1372
  214SOL    HW1  641   1.133   1.798   1.615 -1.0198 -0.0778  1.0704
  214SOL    HW2  642   1.002   1.795   1.721 -1.0384  0.9026  0.3291
  215SOL     OW  643   2.467   2.246   1.171 -0.3577 -0.1947 -0.2955
  215SOL    HW1  644   2.371   2.262   1.138 -2.6855  0.1248  3.1867
  215SOL    HW2  645   2.472   2.258   1.272  0.3906  2.2478 -1.6354
  216SOL     OW  646   0.013   0.904   1.136  0.3972  0.4130  0.4385
  216SOL    HW1  647   0.036   0.807   1.124 -0.0582  0.5461  1.2312
  216SOL    HW2  648   0.097   0.958   1.107 -1.4354  2.5619 -2.3142
  217SOL     OW  649   2.189   0.277   1.434 -0.5614 -0.1023  0.6179
  217SOL    HW1  650   2.271   0.344   1.428  1.3054  3.2699 -1.8236
  217SOL    HW2  651   2.173   0.227   1.347 -1.2406 -0.8245  1.2272
  218SOL     OW  652   1.599   2.421   1.054  0.2858 -0.8984  0.9355
  218SOL    HW1  653   1.633   2.403   0.959 -3.3897 -1.6199  2.0086
  218SOL    HW2  654   1.565   2.518   1.066 -2.4366  3.6427  1.6409
  219SOL     OW  655   1.684   2.142   0.145  0.3330  0.1516 -0.4225
  219SOL    HW1  656   1.729   2.202   0.077 -0.0926 -2.4725  0.4150
  219SOL    HW2  657   1.587   2.138   0.132  2.9137  0.1575 -0.3389
  220SOL     OW  658   1.614   2.281   2.898  0.0903  0.3774 -0.3295
  220SOL    HW1  659   1.567   2.344   2.961 -0.3839 -2.4583 -1.9906
  220SOL    HW2  660   1.701   2.245   2.930 -2.1208 -0.1826  2.9427
  221SOL     OW  661   0.019   2.481   1.066  0.0410 -0.5656 -0.7335
  221SOL    HW1  662   0.049   2.388   1.089 -0.0386  1.5176  0.9150
  221SOL    HW2  663   0.077   2.553   1.119  1.9578  1.3446  2.7932
  222SOL     OW  664   2.055   2.744   0.882  0.3150 -0.3841  0.2953
  222SOL    HW1  665   1.965   2.790   0.866  1.4777  0.8391 -0.8394
  222SOL    HW2  666   2.122   2.809   0.914 -2.9894 -2.9822  0.2322
  223SOL     OW  667   0.623   2.529   2.162  0.6267  0.4048  0.0591
  223SOL    HW1  668   0.558   2.558   2.093  2.9194 -1.2856 -0.5678
  223SOL    HW2  669   0.679   2.451   2.119  0.9961  1.3842  0.0428
  224SOL     OW  670   2.875   2.386   0.994 -0.0982  0.1326 -0.0663
  224SOL    HW1  671   2.975   2.393   1.024  4.2758 -0.9734  1.7720
  224SOL    HW2  672   2.867   2.377   0.890 -0.8962  1.5407 -2.1168
  225SOL     OW  673   2.271   2.082   0.835  0.6593 -0.2065  0.6400
  225SOL    HW1  674   2.353   2.141   0.841  1.7470 -3.3451 -1.3815
  225SOL    HW2  675   2.260   2.041   0.739 -0.9785  1.2799 -0.2113
  226SOL     OW  676   1.295   2.588   0.364 -0.0588 -0.3260  0.2602
  226SOL    HW1  677   1.232   2.664   0.390 -1.0030  0.3573  1.4534
  226SOL    HW2  678   1.383   2.632   0.338 -1.9023  0.2253  1.0389
  227SOL     OW  679   1.928   0.572   0.867  0.6545  0.8254 -0.3526
  227SOL    HW1  680   1.840   0.576   0.820  0.9707  1.3499 -0.1303
  227SOL    HW2  681   1.997   0.623   0.810 -2.0078 -0.0832 -0.4147
  228SOL     OW  682   1.137   0.654   2.139  0.0226 -0.2062  0.4703
  228SOL    HW1  683   1.225   0.652   2.193  1.9549  0.5995 -0.2730
  228SOL    HW2  684   1.102   0.750   2.125  0.4557 -0.9317  1.7246
  229SOL     OW  685   3.037   1.032   2.986 -0.4488  0.2714 -0.0758
  229SOL    HW1  686   3.068   1.110   2.930 -0.6926 -2.3318 -0.1898
  229SOL    HW2  687   3.050   1.054   3.086  3.2023  0.1592  0.2644
  230SOL     OW  688   1.091   1.197   1.162  0.3817  0.3513  0.6918
  230SOL    HW1  689   1.085   1.099   1.135  1.3515  1.5898 -1.2952
  230SOL    HW2  690   1.054   1.221   1.251  2.1202 -1.7695 -1.4910
  231SOL     OW  691   2.532   2.953   2.370  0.3248 -0.0043 -0.0096
  231SOL    HW1  692   2.531   3.037   2.315 -1.6581  0.1031  1.1277
  231SOL    HW2  693   2.541   2.958   2.472  2.1177 -1.2410  1.8708
  232SOL     OW  694   0.624   2.119   0.050 -0.2567 -0.3378  0.2064
  232SOL    HW1  695   0.583   2.104   0.142  3.7736 -0.0507 -2.4540
  232SOL    HW2  696   0.558   2.115   3.072  1.6150  0.2125  1.7163
  233SOL     OW  697   1.261   2.371   2.305  0.6690  0.2342 -0.0078
  233SOL    HW1  698   1.203   2.455   2.290  1.1634  3.7927 -0.1368
  233SOL    HW2  699   1.343   2.375   2.241  0.3721  2.8719 -0.1172
  234SOL     OW  700   1.039   1.496   1.855 -0.0210  0.3166  0.8555
  234SOL    HW1  701   1.133   1.470   1.828 -3.9786 -1.6258 -0.6894
  234SOL    HW2  702   0.997   1.559   1.787 -0.0792  3.0336 -0.2509
  235SOL     OW  703   0.762   2.074   1.639  0.2841 -0.1146  0.4571
  235SOL    HW1  704   0.828   2.103   1.564 -0.3150  1.2595  1.0404
  235SOL    HW2  705   0.820   2.073   1.721  2.0584  2.6696 -0.2424
  236SOL     OW  706   1.635   2.797   2.560 -0.0864  0.3657  0.2796
  236SOL    HW1  707   1.590   2.722   2.618  0.8647  1.4159  0.2956
  236SOL    HW2  708   1.576   2.818   2.478 -4.3193 -1.3604  0.7088
  237SOL     OW  709   1.168   0.205   0.716  0.0903 -0.0926 -0.2224
  237SOL    HW1  710   1.098   0.213   0.640  0.9175  1.7835 -0.3181
  237SOL    HW2  711   1.260   0.173   0.684 -1.0655  3.4922 -1.8276
  238SOL     OW  712   1.368   0.730   2.730 -0.0027  0.5305  0.7244
  238SOL    HW1  713   1.322   0.652   2.780 -1.2147  1.5738  1.3774
  238SOL    HW2  714   1.359   0.815   2.783  2.1119  1.0318 -0.5553
  239SOL     OW  715   3.092   0.480   2.295  0.3484  0.2247  0.6730
  239SOL    HW1  716   0.059   0.534   2.233  1.4547  2.1370 -0.1277
  239SOL    HW2  717   3.000   0.525   2.285  0.4125  1.3571  0.4663
  240SOL     OW  718   2.528   2.808   0.811 -0.1464  0.1786  0.6457
  240SOL    HW1  719   2.580   2.720   0.799 -3.7522  0.1618 -1.6712
  240SOL    HW2  720   2.488   2.834   0.718 -0.0139  3.1175 -1.9217
  241SOL     OW  721   1.660   1.058   1.299  0.0573  0.1205 -0.0610
  241SOL    HW1  722   1.572   1.017   1.279  2.2558 -1.4233 -1.6918
  241SOL    HW2  723   1.724   1.031   1.222 -1.1835 -0.8283  3.0649
  242SOL     OW  724   0.814   0.986   0.763 -0.2299  0.4876 -0.3999
  242SOL    HW1  725   0.764   1.070   0.787  4.0819 -1.1432  0.0436
  242SOL    HW2  726   0.748   0.912   0.737 -0.3912  1.9759  0.6474
  243SOL     OW  727   0.395   0.828   1.115  0.0563 -0.2963 -0.5118
  243SOL    HW1  728   0.404   0.820   1.221 -0.8443 -1.2980  2.2334
  243SOL    HW2  729   0.487   0.822   1.071 -1.0697 -1.0727  1.7283
  244SOL     OW  730   1.079   0.414   3.017 -0.0679 -0.3108 -0.7884
  244SOL    HW1  731   0.979   0.434   3.037  3.8794  0.5419  0.2141
  244SOL    HW2  732   1.099   0.326   3.055 -2.1115  0.0184 -0.9864
  245SOL     OW  733   2.101   1.061   0.108 -0.3097 -0.3089 -0.0216
  245SOL    HW1  734   2.127   1.121   0.025  0.9897  1.3352 -0.1864
  245SOL    HW2  735   2.170   1.072   0.182  0.3975  0.6914  2.0194
  246SOL     OW  736   2.955   0.935   1.805  0.3451 -0.1201  0.0181
  246SOL    HW1  737   3.041   0.976   1.760  1.4223  0.4170  0.3521
  246SOL    HW2  738   2.965   0.834   1.805  0.8166 -2.1501 -1.1612
  247SOL     OW  739   0.423   2.816   1.753  0.1706 -0.1138  0.0930
  247SOL    HW1  740   0.393   2.909   1.778 -3.8820 -0.7503 -2.7300
  247SOL    HW2  741   0.464   2.764   1.829  0.0556  1.7712  0.4484
  248SOL     OW  742   0.591   1.366   2.293 -0.0865  1.0757  0.1436
  248SOL    HW1  743   0.674   1.429   2.298  1.5991  0.5603  1.2217
  248SOL    HW2  744   0.621   1.268   2.276  2.8283 -0.6264 -2.8993
  249SOL     OW  745   0.435   0.053   2.890  0.0391  0.1035 -0.3381
  249SOL    HW1  746   0.490   3.073   2.930 -2.3597  1.0812  1.9785
  249SOL    HW2  747   0.453   0.062   2.788 -0.4383  0.6015  0.6757
  250SOL     OW  748   0.198   0.121   2.567  0.1958 -0.5712  0.2182
  250SOL    HW1  749   0.238   0.085   2.477 -1.2577  0.9277 -1.0054
  250SOL    HW2  750   0.171   0.219   2.554  0.6865  1.9409  1.0294
  251SOL     OW  751   2.993   1.809   1.104  0.1612 -0.3174  0.6353
  251SOL    HW1  752   2.920   1.856   1.052 -0.4756  1.8358  1.7039
  251SOL    HW2  753   2.957   1.788   1.196  0.2454  0.3697  0.8846
  252SOL     OW  754   1.758   2.680   2.100  0.2450  0.1107 -0.3215
  252SOL    HW1  755   1.814   2.647   2.018  0.5218 -1.8023 -1.4923
  252SOL    HW2  756   1.814   2.747   2.158  0.2305  1.3984 -1.4910
  253SOL     OW  757   1.651   1.551   2.947  0.7233 -0.8331 -0.1141
  253SOL    HW1  758   1.636   1.647   2.987 -1.7625  0.0227  1.5817
  253SOL    HW2  759   1.747   1.514   2.962 -2.9905 -0.7291 -0.8608
  254SOL     OW  760   0.643   1.450   1.676  0.0467  0.0123 -0.5661
  254SOL    HW1  761   0.605   1.511   1.603  0.7808  2.1695 -1.4859
  254SOL    HW2  762   0.624   1.488   1.775 -3.4194  0.9347  3.2459
  255SOL     OW  763   1.011   2.836   1.273 -0.2671  0.0908  0.4704
  255SOL    HW1  764   1.073   2.917   1.293  0.6639  1.0120 -0.3701
  255SOL    HW2  765   1.045   2.747   1.308  2.1049 -1.0622 -0.1228
  256SOL     OW  766   0.158   2.119   0.880 -0.3458 -0.2757  0.4922
  256SOL    HW1  767   0.251   2.166   0.868  2.4720  3.1479 -3.7174
  256SOL    HW2  768   0.094   2.171   0.941  1.0034 -1.2994 -3.8117
  257SOL     OW  769   0.280   2.625   2.841 -0.4970  0.2214 -0.4099
  257SOL    HW1  770   0.306   2.665   2.937  2.7360  1.6793  2.0566
  257SOL    HW2  771   0.196   2.674   2.821 -1.3144 -2.0570  0.8161
  258SOL     OW  772   1.363   2.168   1.804 -0.1489 -0.6265  0.0348
  258SOL    HW1  773   1.432   2.098   1.774  0.3432 -0.9238 -1.2371
  258SOL    HW2  774   1.422   2.246   1.841 -0.4278  0.2912  0.6795
  259SOL     OW  775   1.054   1.769   2.277 -0.3553  0.9694  0.0097
  259SOL    HW1  776   1.102   1.710   2.348 -0.9731 -1.8996  3.2636
  259SOL    HW2  777   1.006   1.709   2.213 -0.2414  1.7427  2.4516
  260SOL     OW  778   2.410   0.850   2.207  0.2251  0.1570 -0.0481
  260SOL    HW1  779   2.345   0.783   2.248  0.7640  1.6087 -1.9610
  260SOL    HW2  780   2.355   0.932   2.186  0.8018 -0.2959  2.0889
  261SOL     OW  781   1.460   0.865   0.948  0.2705  0.1784  0.0353
  261SOL    HW1  782   1.467   0.764   0.972 -0.9314 -0.1447  1.9885
  261SOL    HW2  783   1.528   0.888   0.873  0.3254  0.6169  0.6897
  262SOL     OW  784   2.058   2.037   2.610  0.1800 -0.9049 -0.0516
  262SOL    HW1  785   2.050   2.140   2.595  1.3065  0.0811  1.1973
  262SOL    HW2  786   1.988   1.987   2.671 -0.6208 -2.2762 -0.6306
  263SOL     OW  787   0.778   2.286   0.806  0.1252  0.1269  0.6423
  263SOL    HW1  788   0.841   2.363   0.783  1.9738  0.1672 -0.2890
  263SOL    HW2  789   0.698   2.286   0.746  1.7652  0.0155  1.1408
  264SOL     OW  790   0.244   2.439   0.500 -0.3574  0.1764  0.0934
  264SOL    HW1  791   0.203   2.497   0.577 -1.4038 -2.6061  0.8412
  264SOL    HW2  792   0.180   2.365   0.488  2.0405  1.2880  2.4669
  265SOL     OW  793   1.054   1.393   0.240  0.0443  0.9055  0.3001
  265SOL    HW1  794   1.144   1.343   0.215  0.2831 -0.0107 -0.2040
  265SOL    HW2  795   0.987   1.322   0.279  0.7284 -0.0994 -0.2091
  266SOL     OW  796   0.761   1.966   2.201  0.1772 -0.0677 -0.7345
  266SOL    HW1  797   0.859   1.958   2.230 -1.0930 -0.0526  0.5012
  266SOL    HW2  798   0.712   2.022   2.275  1.9346 -0.1560  0.2981
  267SOL     OW  799   1.839   0.793   2.384 -0.1156 -0.5932 -0.1141
  267SOL    HW1  800   1.812   0.700   2.423 -0.7751  2.1739  1.3109
  267SOL    HW2  801   1.809   0.802   2.287 -0.9185 -0.4260  0.1969
  268SOL     OW  802   0.633   1.161   0.242 -0.1382  0.3633  0.3208
  268SOL    HW1  803   0.597   1.220   0.169  1.8100  0.6430  0.6490
  268SOL    HW2  804   0.712   1.204   0.284  0.6196  1.3719  1.4099
  269SOL     OW  805   2.284   1.760   2.390  0.2477 -0.0616 -0.1339
  269SOL    HW1  806   2.318   1.799   2.479 -0.5772  0.4269  0.6881
  269SOL    HW2  807   2.364   1.759   2.326  0.5320  1.8067  0.8655
  270SOL     OW  808   1.046   2.021   0.004  0.0816  0.3176  0.2390
  270SOL    HW1  809   0.962   1.964   0.026  2.2770 -2.1978  2.2047
  270SOL    HW2  810   1.066   2.028   3.002 -1.1808  0.2695 -4.4140
  271SOL     OW  811   0.317   0.370   0.301  0.4681  0.1605  0.0254
  271SOL    HW1  812   0.348   0.406   0.210  0.2616 -0.9394 -1.7642
  271SOL    HW2  813   0.337   0.272   0.311  1.7008  0.6731  0.1914
  272SOL     OW  814   3.024   0.176   0.242  0.1788  0.1779  0.2185
  272SOL    HW1  815   3.071   0.088   0.247 -3.2876  1.6403  0.4567
  272SOL    HW2  816   3.076   0.256   0.278 -0.2004  0.2681 -2.3877
  273SOL     OW  817   0.156   0.051   1.767 -0.3542 -0.4134 -0.2557
  273SOL    HW1  818   0.166   0.061   1.868 -2.5104 -0.9666 -0.0829
  273SOL    HW2  819   0.085   3.079   1.746  0.5060  1.3710  0.2544
  274SOL     OW  820   2.889   0.654   1.383 -0.1219 -0.6034 -0.5093
  274SOL    HW1  821   2.947   0.575   1.405 -0.0310  2.7534  1.8022
  274SOL    HW2  822   2.839   0.653   1.296  1.0574 -0.8250  0.4910
  275SOL     OW  823   0.775   1.510   1.021  0.1087 -0.0320  0.1671
  275SOL    HW1  824   0.719   1.538   0.946  2.2325  0.9024  0.9314
  275SOL    HW2  825   0.821   1.423   0.997 -1.4811 -0.9287  0.2869
  276SOL     OW  826   0.709   1.226   1.843  0.4879  0.1627  0.0361
  276SOL    HW1  827   0.655   1.300   1.795 -1.2189  0.6949 -2.6398
  276SOL    HW2  828   0.651   1.186   1.920 -0.0976  2.7638 -1.4885
  277SOL     OW  829   1.060   2.445   1.814  0.0924 -0.4539 -0.0662
  277SOL    HW1  830   1.126   2.498   1.876  1.7512  1.5431  1.6936
  277SOL    HW2  831   1.013   2.374   1.874 -0.7366 -1.5074  1.9761
  278SOL     OW  832   2.203   2.685   2.144  0.0607 -0.1429  0.0944
  278SOL    HW1  833   2.268   2.686   2.224  0.6016 -0.2155 -2.6917
  278SOL    HW2  834   2.118   2.634   2.177 -1.0141  2.4811 -0.0546
  279SOL     OW  835   1.369   1.703   0.099 -0.1120 -0.8280  0.0702
  279SOL    HW1  836   1.426   1.735   0.020  2.6011  0.4315  0.7592
  279SOL    HW2  837   1.322   1.781   0.141 -2.4100 -1.3677  1.8516
  280SOL     OW  838   1.370   0.597   0.014  0.6887 -0.1007 -0.3841
  280SOL    HW1  839   1.373   0.598   3.008  0.2744 -2.1448  0.8772
  280SOL    HW2  840   1.445   0.547   0.059  1.8103  1.7944  0.2560
  281SOL     OW  841   0.401   0.405   1.447  0.2608 -0.2463  0.7251
  281SOL    HW1  842   0.386   0.481   1.520 -2.4119  2.0213  3.2949
  281SOL    HW2  843   0.393   0.314   1.491 -1.3575 -1.2285  0.4712
  282SOL     OW  844   0.186   2.638   0.717 -0.8644  0.9919  0.1464
  282SOL    HW1  845   0.194   2.717   0.779  0.1958  1.3961  2.1201
  282SOL    HW2  846   0.092   2.624   0.687  1.1673  1.1440  1.1668
  283SOL     OW  847   1.519   1.950   1.762 -0.4691 -0.4226  0.2028
  283SOL    HW1  848   1.473   1.859   1.757 -1.4593  0.9625 -3.0201
  283SOL    HW2  849   1.617   1.943   1.796  1.0841  2.3690  1.5665
  284SOL     OW  850   2.718   2.731   1.561  0.4228 -0.1509  0.1965
  284SOL    HW1  851   2.727   2.835   1.573  0.6737  2.4781  2.6132
  284SOL    HW2  852   2.740   2.706   1.464 -2.6187 -2.4649  0.2480
  285SOL     OW  853   0.233   2.455   0.186 -0.0869 -0.3729 -0.0349
  285SOL    HW1  854   0.283   2.535   0.225  0.0534 -2.1191  0.2827
  285SOL    HW2  855   0.299   2.377   0.168  0.9973 -1.1206 -1.5122
  286SOL     OW  856   0.448   2.918   0.837 -0.4244 -0.0825 -0.3624
  286SOL    HW1  857   0.519   2.958   0.900 -1.8057 -2.3676 -1.0147
  286SOL    HW2  858   0.366   2.887   0.884  3.9479  2.2150 -0.5815
  287SOL     OW  859   0.730   1.388   0.476  0.3049  0.0292  0.2079
  287SOL    HW1  860   0.781   1.300   0.451  0.0427 -0.8228 -1.9519
  287SOL    HW2  861   0.777   1.470   0.435  0.8365 -1.5375 -1.0672
  288SOL     OW  862   1.874   1.878   2.730 -0.2947  0.1335 -0.3063
  288SOL    HW1  863   1.903   1.784   2.700  0.3876 -0.8917 -1.4760
  288SOL    HW2  864   1.863   1.898   2.826  0.4479 -0.7619 -0.3897
  289SOL     OW  865   2.774   1.741   0.164  0.1121 -0.6727 -0.2359
  289SOL    HW1  866   2.729   1.675   0.106  0.4455  0.0288  1.9819
  289SOL    HW2  867   2.749   1.835   0.136  0.0616 -1.7014  0.3106
  290SOL     OW  868   1.449   1.421   1.407  0.7752 -0.5098 -0.0228
  290SOL    HW1  869   1.389   1.503   1.393  1.2762  1.4711 -1.4181
  290SOL    HW2  870   1.419   1.350   1.345 -1.2298  0.9747  2.1587
  291SOL     OW  871   1.268   1.266   0.146 -0.0115  0.2550 -0.0481
  291SOL    HW1  872   1.238   1.167   0.144 -1.4487 -3.5472  1.2693
  291SOL    HW2  873   1.328   1.297   0.066 -1.3881  0.9282 -2.0563
  292SOL     OW  874   1.455   1.290   0.335  0.1225  0.6628  0.6497
  292SOL    HW1  875   1.383   1.285   0.265 -0.0817 -0.1916  1.6666
  292SOL    HW2  876   1.544   1.314   0.290 -0.6996  2.5458  1.0366
  293SOL     OW  877   1.184   3.082   0.899  0.1627  0.2232  0.4795
  293SOL    HW1  878   1.131   3.001   0.870 -1.3167 -0.4416 -1.9433
  293SOL    HW2  879   1.162   0.069   0.845  1.3082  0.6542 -1.9366
  294SOL     OW  880   1.944   1.109   2.234 -0.7668  0.3864 -0.7838
  294SOL    HW1  881   1.915   1.074   2.143  1.6007  3.8344  0.9178
  294SOL    HW2  882   1.897   1.064   2.310 -0.4771 -0.2220 -1.1506
  295SOL     OW  883   1.594   1.811   3.061 -0.3136  0.0519 -0.1874
  295SOL    HW1  884   1.592   1.841   0.061  0.9516 -1.6568  0.9970
  295SOL    HW2  885   1.553   1.887   3.007 -0.7287  0.7965 -0.1201
  296SOL     OW  886   1.166   0.823   1.809 -0.3405  0.2643 -0.0248
  296SOL    HW1  887   1.140   0.726   1.780 -0.1085 -4.2770  0.5489
  296SOL    HW2  888   1.117   0.888   1.748  2.4341  0.1338  2.4980
  297SOL     OW  889   3.002   0.679   1.761  0.5428  0.0652 -0.2910
  297SOL    HW1  890   2.922   0.614   1.778 -4.3569 -2.1049  1.0705
  297SOL    HW2  891   3.077   0.638   1.710 -1.0678 -1.5114 -1.0900
  298SOL     OW  892   1.451   1.903   1.279  0.8654  0.3752  0.3862
  298SOL    HW1  893   1.520   1.827   1.282  3.1842 -1.6149  3.3346
  298SOL    HW2  894   1.451   1.961   1.364 -1.8490  1.4613  1.2329
  299SOL     OW  895   1.224   0.064   2.482  0.3237  0.4015 -0.8148
  299SOL    HW1  896   1.313   0.021   2.480 -1.2460  1.0900  0.0789
  299SOL    HW2  897   1.196   0.069   2.385  0.4501 -0.6656  3.3744
  300SOL     OW  898   2.735   2.037   0.196  0.3865 -0.9378  0.4485
  300SOL    HW1  899   2.713   2.120   0.137 -0.0158  3.0310  1.8455
  300SOL    HW2  900   2.780   2.069   0.282  2.5297  1.3609  1.7685
  301SOL     OW  901   2.070   0.652   2.700 -0.0115  0.7435 -0.1273
  301SOL    HW1  902   2.095   0.679   2.605 -1.8242  0.2269  1.7990
  301SOL    HW2  903   2.000   0.716   2.738  1.5613 -0.7311 -0.6065
  302SOL     OW  904   2.244   2.191   3.020  0.1652 -0.0024 -0.3318
  302SOL    HW1  905   2.322   2.129   3.018 -1.3338  0.4996  0.2405
  302SOL    HW2  906   2.225   2.227   2.927  1.3715  0.3361  2.2650
  303SOL     OW  907   3.056   2.366   0.180 -0.3310  0.2942 -0.4482
  303SOL    HW1  908   0.051   2.409   0.200  2.0018  0.3838  1.0843
  303SOL    HW2  909   3.005   2.403   0.103 -0.6605 -0.9387  2.3730
  304SOL     OW  910   0.162   1.750   1.134  0.0615  0.4981 -0.5817
  304SOL    HW1  911   0.069   1.789   1.126  0.7365 -1.0713  3.8622
  304SOL    HW2  912   0.223   1.798   1.198 -0.2110  1.2000 -0.6506
  305SOL     OW  913   2.791   0.517   1.838 -0.2267 -0.2196  0.2441
  305SOL    HW1  914   2.742   0.457   1.900  0.0358 -1.2752  3.0283
  305SOL    HW2  915   2.738   0.553   1.761 -2.3711  0.4711  4.0777
  306SOL     OW  916   1.671   1.399   1.022 -0.5491 -0.4725 -0.6493
  306SOL    HW1  917   1.572   1.396   1.045 -2.4250  1.3395  0.4227
  306SOL    HW2  918   1.727   1.377   1.107  1.2916  1.7671 -0.9159
  307SOL     OW  919   3.075   0.330   0.808  0.1062 -0.3076  0.0437
  307SOL    HW1  920   0.067   0.298   0.767  1.6614 -1.1583 -0.3367
  307SOL    HW2  921   3.014   0.248   0.819  0.8311  1.0827 -1.4849
  308SOL     OW  922   0.014   1.406   1.933  0.0631 -0.1368 -0.2644
  308SOL    HW1  923   3.019   1.372   1.913  2.4261 -2.0335 -1.8069
  308SOL    HW2  924   0.074   1.405   1.853 -1.1398  1.6875  1.0816
  309SOL     OW  925   2.774   1.891   2.284 -0.2340 -0.7998 -0.1177
  309SOL    HW1  926   2.719   1.973   2.270  1.8675 -2.9635  3.2786
  309SOL    HW2  927   2.757   1.864   2.381  0.3207  1.1057 -1.2453
  310SOL     OW  928   2.699   1.161   2.990  0.1647 -0.0188  0.2716
  310SOL    HW1  929   2.735   1.188   2.897 -0.1870 -1.1263 -2.2150
  310SOL    HW2  930   2.644   1.076   2.987  0.0612 -1.0701 -0.9619
  311SOL     OW  931   1.934   0.850   2.845  0.3580  0.2341 -0.8169
  311SOL    HW1  932   1.899   0.940   2.817  0.0446  0.3634 -2.3274
  311SOL    HW2  933   1.858   0.790   2.879  0.5837  0.8077 -0.0807
  312SOL     OW  934   1.275   2.300   2.553  0.4528 -0.2272  0.0150
  312SOL    HW1  935   1.366   2.267   2.583  0.2556  0.3237 -0.4358
  312SOL    HW2  936   1.276   2.305   2.452 -0.4901 -0.8949  2.3224
  313SOL     OW  937   0.364   0.434   0.599 -0.1050 -0.2436  0.1921
  313SOL    HW1  938   0.388   0.441   0.499  1.7998  3.1183  0.4664
  313SOL    HW2  939   0.317   0.523   0.626  0.5294 -2.0947 -1.1341
  314SOL     OW  940   0.625   1.898   1.193 -0.5784  0.1112 -0.1808
  314SOL    HW1  941   0.680   1.983   1.217 -2.2361  0.6987  1.4071
  314SOL    HW2  942   0.675   1.812   1.222  0.2014  2.3526  1.1949
  315SOL     OW  943   0.686   1.792   1.995 -0.2047 -0.8179  0.1894
  315SOL    HW1  944   0.585   1.782   1.987  1.3563  0.3003  0.1858
  315SOL    HW2  945   0.717   1.856   2.069  1.5124  1.0475  1.3539
  316SOL     OW  946   0.508   2.499   0.478  0.1384 -0.2987 -0.5209
  316SOL    HW1  947   0.410   2.484   0.447  3.3639  1.1564 -1.7113
  316SOL    HW2  948   0.506   2.575   0.550  0.5997 -0.1257 -0.7855
  317SOL     OW  949   2.526   0.047   1.150 -0.5413 -0.5667  0.6435
  317SOL    HW1  950   2.581   0.100   1.081  0.2229  1.3089 -1.5762
  317SOL    HW2  951   2.574   3.076   1.208 -0.6499  2.7768  1.0352
  318SOL     OW  952   1.997   2.791   0.391 -0.3546  0.1295  0.5067
  318SOL    HW1  953   1.972   2.854   0.467  0.4969  1.2453  0.6225
  318SOL    HW2  954   2.091   2.754   0.408 -1.1568  1.5040 -0.0500
  319SOL     OW  955   1.671   0.498   2.765  0.9480 -0.6039 -0.1786
  319SOL    HW1  956   1.660   0.590   2.810 -0.7185  1.2412 -2.0921
  319SOL    HW2  957   1.583   0.452   2.747  1.1902 -1.3535  1.6278
  320SOL     OW  958   2.876   2.250   1.966 -0.2157  0.3804 -0.0709
  320SOL    HW1  959   2.777   2.213   1.976  0.8329 -0.3295 -1.6967
  320SOL    HW2  960   2.899   2.333   2.019  0.2778 -2.3925  0.4590
  321SOL     OW  961   0.471   2.431   2.857  0.0056 -0.4442  0.8823
  321SOL    HW1  962   0.545   2.479   2.915 -0.1922 -0.9433  2.0640
  321SOL    HW2  963   0.390   2.493   2.837 -0.4910 -1.5845 -1.4730
  322SOL     OW  964   2.610   0.620   2.400 -0.9487  0.5514  0.2131
  322SOL    HW1  965   2.636   0.576   2.490  0.5301 -1.9223  1.7158
  322SOL    HW2  966   2.538   0.687   2.419  1.3717 -2.9114 -1.6412
  323SOL     OW  967   2.560   1.222   0.854  0.1050 -0.1717  0.0217
  323SOL    HW1  968   2.514   1.132   0.884 -0.5349  0.0022 -3.3576
  323SOL    HW2  969   2.650   1.227   0.897 -3.2379 -1.8690 -0.3329
  324SOL     OW  970   2.706   0.625   1.154  0.4044 -0.2825 -0.9134
  324SOL    HW1  971   2.719   0.564   1.071 -0.0838 -0.9026 -0.1961
  324SOL    HW2  972   2.608   0.640   1.180  0.7657  1.6214  1.7219
  325SOL     OW  973   2.778   3.006   1.606 -0.1186 -0.4037 -0.3260
  325SOL    HW1  974   2.801   3.004   1.705 -1.1900 -0.9156 -0.6206
  325SOL    HW2  975   2.816   3.087   1.558  0.1591 -0.2765 -0.2021
  326SOL     OW  976   1.914   2.854   0.148  0.0107 -0.3780  0.9056
  326SOL    HW1  977   1.946   2.784   0.081  1.7451 -1.1391  1.0772
  326SOL    HW2  978   1.939   2.819   0.240  2.4467  1.2745  0.5901
  327SOL     OW  979   1.920   1.764   0.429  0.3059 -0.2610  0.2655
  327SOL    HW1  980   1.890   1.845   0.373 -0.0039  2.7956 -0.2396
  327SOL    HW2  981   1.897   1.780   0.528 -3.2615  0.0527  0.4210
  328SOL     OW  982   2.939   2.190   2.305  0.7718  0.4957  0.6610
  328SOL    HW1  983   2.936   2.281   2.254  1.1010  1.9967  1.0254
  328SOL    HW2  984   3.032   2.148   2.300 -1.9118  0.9923  0.7320
  329SOL     OW  985   0.131   2.265   1.446 -0.0973 -0.4740  0.3511
  329SOL    HW1  986   0.168   2.223   1.361 -1.6247  0.3485 -0.5466
  329SOL    HW2  987   0.134   2.209   1.529  0.6594  0.8372 -0.2917
  330SOL     OW  988   2.818   0.859   2.883 -0.0200 -0.2038 -0.0296
  330SOL    HW1  989   2.893   0.919   2.916  1.2461 -0.3056 -2.1309
  330SOL    HW2  990   2.848   0.810   2.794  2.0029 -2.0583 -0.8369
  331SOL     OW  991   2.180   2.286   1.146  0.0138 -0.1743 -0.1794
  331SOL    HW1  992   2.104   2.264   1.084  0.0301 -0.8961 -0.9928
  331SOL    HW2  993   2.185   2.389   1.157 -0.9831 -0.1455 -0.6168
  332SOL     OW  994   0.500   2.700   0.642  0.3587  0.0240  0.3399
  332SOL    HW1  995   0.587   2.678   0.692 -0.6054 -0.7403  1.7623
  332SOL    HW2  996   0.446   2.767   0.699 -1.7492  3.2149  1.4487
  333SOL     OW  997   2.040   1.823   2.463 -0.0737 -0.4697 -0.3281
  333SOL    HW1  998   2.041   1.917   2.497  2.1983  0.1235 -0.3098
  333SOL    HW2  999   2.137   1.806   2.434 -0.2436 -0.5830 -2.2466
  334SOL     OW 1000   0.685   1.200   0.859 -0.3124  0.3327  0.5127
  334SOL    HW1 1001   0.778   1.242   0.879 -0.0093  1.6616  1.0133
  334SOL    HW2 1002   0.628   1.207   0.944  0.6924  2.1558 -0.0466
  335SOL     OW 1003   3.075   1.933   2.263  0.2975  0.3093  0.2055
  335SOL    HW1 1004   2.974   1.918   2.260 -1.0812 -1.8519 -2.2232
  335SOL    HW2 1005   0.021   1.920   2.168  1.6355  0.6851  0.7596
  336SOL     OW 1006   2.392   2.705   2.335  0.1108  0.5600 -0.1173
  336SOL    HW1 1007   2.465   2.638   2.313 -1.9645  2.5872 -0.6781
  336SOL    HW2 1008   2.425   2.802   2.334  1.7378  0.2664  2.3854
  337SOL     OW 1009   1.065   0.931   0.697  0.0312  0.0387  0.1344
  337SOL    HW1 1010   0.964   0.945   0.721 -0.5784 -1.7762 -0.1717
  337SOL    HW2 1011   1.131   0.973   0.762  1.7248  0.4262 -0.5151
  338SOL     OW 1012   1.329   2.047   1.095  0.0380 -0.7072 -0.3660
  338SOL    HW1 1013   1.355   1.962   1.155 -1.1587 -3.2105  3.6409
  338SOL    HW2 1014   1.293   2.122   1.153 -1.2472  2.0784 -0.9151
  339SOL     OW 1015   0.374   1.869   1.299  0.2709  0.6037 -0.7800
  339SOL    HW1 1016   0.467   1.866   1.253  0.7488 -0.1925 -2.9214
  339SOL    HW2 1017   0.372   1.799   1.372 -0.3213  0.4231  1.6553
  340SOL     OW 1018   0.820   3.055   1.693  0.3968 -0.5522 -0.4286
  340SOL    HW1 1019   0.885   0.037   1.692 -2.5102  1.6257  1.3332
  340SOL    HW2 1020   0.803   3.014   1.603 -1.6155 -3.6456  1.8462
  341SOL     OW 1021   2.164   1.662   1.194 -0.0743 -0.4599 -0.3316
  341SOL    HW1 1022   2.238   1.708   1.137  0.4146 -0.3410  1.5274
  341SOL    HW2 1023   2.108   1.594   1.136 -0.3385 -0.5887 -0.1043
  342SOL     OW 1024   2.390   1.427   0.972  0.2913  0.5589  0.1927
  342SOL    HW1 1025   2.448   1.357   0.919 -0.9833 -1.5349  0.8618
  342SOL    HW2 1026   2.436   1.518   0.965 -0.4804 -1.2538  1.9055
  343SOL     OW 1027   2.200   0.266   0.973  0.5671 -0.7062 -0.2371
  343SOL    HW1 1028   2.214   0.365   0.949 -0.2469  3.5874 -1.8932
  343SOL    HW2 1029   2.230   0.211   0.892 -0.6881  0.8195  1.6931
  344SOL     OW 1030   2.334   0.218   0.357 -0.4692 -0.0161 -0.0159
  344SOL    HW1 1031   2.437   0.213   0.349  1.6112  1.7381 -0.8430
  344SOL    HW2 1032   2.301   0.155   0.426  0.4172  1.9723 -0.6585
  345SOL     OW 1033   0.931   2.734   1.884  0.4935  0.0919  0.4012
  345SOL    HW1 1034   0.965   2.739   1.788  1.1639 -1.2867 -0.6817
  345SOL    HW2 1035   0.916   2.635   1.905  1.6904  0.1244  0.3689
  346SOL     OW 1036   2.442   2.498   0.855  0.4226 -0.0736  0.4110
  346SOL    HW1 1037   2.349   2.529   0.819 -2.5218  1.9952  0.3283
  346SOL    HW2 1038   2.522   2.543   0.803  0.2253  1.2026 -3.1264
  347SOL     OW 1039   2.255   0.126   1.211 -0.2278 -0.0984  0.1909
  347SOL    HW1 1040   2.355   0.098   1.216  0.9984  0.5275  2.1846
  347SOL    HW2 1041   2.230   0.168   1.120 -1.4524 -1.1518 -1.8161
  348SOL     OW 1042   0.776   0.698   1.647 -0.7415 -1.2483 -0.0238
  348SOL    HW1 1043   0.799   0.766   1.719  0.9920 -0.5382  1.0639
  348SOL    HW2 1044   0.737   0.743   1.565 -2.4319 -0.9416  0.3642
  349SOL     OW 1045   2.394   0.727   2.543  0.1764  0.0266 -0.0928
  349SOL    HW1 1046   2.326   0.669   2.488  0.0332  0.1923 -0.9187
  349SOL    HW2 1047   2.354   0.824   2.549 -0.3535 -0.4951  2.8887
  350SOL     OW 1048   2.202   2.404   0.342 -0.9984  0.1727 -0.1355
  350SOL    HW1 1049   2.165   2.384   0.251  0.9064  0.1578 -0.4031
  350SOL    HW2 1050   2.147   2.355   0.411 -1.6261 -1.4654 -0.8151
  351SOL     OW 1051   1.090   0.556   0.144 -0.0680  0.3167  0.8980
  351SOL    HW1 1052   1.181   0.586   0.183 -0.5879  2.7587  2.3214
  351SOL    HW2 1053   1.102   0.511   0.054 -1.6004 -1.0230  0.3130
  352SOL     OW 1054   1.646   2.030   2.607  0.1878 -0.1991  0.2327
  352SOL    HW1 1055   1.576   1.973   2.563  1.2665  3.8586 -0.3214
  352SOL    HW2 1056   1.709   1.984   2.669  0.3193  1.4069 -3.2949
  353SOL     OW 1057   0.590   1.271   2.676 -0.0218  0.1060  0.6558
  353SOL    HW1 1058   0.496   1.285   2.646  1.7812 -0.6451  0.2984
  353SOL    HW2 1059   0.643   1.360   2.672 -0.9545  0.2440  0.2951
  354SOL     OW 1060   0.799   2.801   2.853 -0.1519 -0.2826  0.1161
  354SOL    HW1 1061   0.747   2.721   2.882 -1.3132  1.7745 -2.1575
  354SOL    HW2 1062   0.892   2.794   2.883 -2.9363 -1.0432  1.3897
  355SOL     OW 1063   2.393   2.793   1.578  0.2533 -0.1093  0.4593
  355SOL    HW1 1064   2.471   2.863   1.565 -0.1847  1.5846 -3.0624
  355SOL    HW2 1065   2.432   2.699   1.595 -1.5553 -1.3913  2.9010
  356SOL     OW 1066   2.868   1.025   1.073  0.3237  0.3500  0.4624
  356SOL    HW1 1067   2.961   0.982   1.083  1.9494 -0.5683  2.6436
  356SOL    HW2 1068   2.801   0.969   1.021 -1.0237  1.4558  0.1856
  357SOL     OW 1069   2.794   0.171   1.487 -0.3255 -0.0566 -0.5923
  357SOL    HW1 1070   2.882   0.194   1.531 -0.7535  0.3284  1.3800
  357SOL    HW2 1071   2.772   0.227   1.402  0.4944 -0.3293 -1.2747
  358SOL     OW 1072   0.089   1.806   1.710 -0.3984  0.4535  0.6702
  358SOL    HW1 1073   0.140   1.730   1.757 -0.6968  0.0768 -0.8481
  358SOL    HW2 1074   0.054   1.868   1.781  1.0461  3.5681 -0.7315
  359SOL     OW 1075   2.870   2.846   2.407 -0.2332  0.3763  0.3179
  359SOL    HW1 1076   2.812   2.798   2.332 -1.1341 -2.3050 -4.0835
  359SOL    HW2 1077   2.937   2.784   2.455  0.2007 -2.8070  1.2423
  360SOL     OW 1078   0.983   0.361   1.321 -0.0443  0.2251 -0.0362
  360SOL    HW1 1079   0.952   0.270   1.280 -2.4369 -0.2880  0.7903
  360SOL    HW2 1080   1.086   0.364   1.322  0.5355 -1.0833 -0.3598
  361SOL     OW 1081   2.256   2.561   1.183 -0.5698 -0.6939  0.0597
  361SOL    HW1 1082   2.253   2.645   1.242  0.3271 -0.3485 -1.1020
  361SOL    HW2 1083   2.335   2.568   1.121 -0.2682 -0.3166 -1.1180
  362SOL     OW 1084   0.977   0.214   0.518  0.4689  0.1079 -0.3147
  362SOL    HW1 1085   0.875   0.204   0.522  4.8645  3.3562  2.0088
  362SOL    HW2 1086   1.015   0.185   0.432 -0.0267  0.5785  3.1944
  363SOL     OW 1087   1.412   1.297   0.763 -0.8629 -0.1379  0.0474
  363SOL    HW1 1088   1.513   1.301   0.759 -0.3204 -0.7093  1.3100
  363SOL    HW2 1089   1.382   1.343   0.852  1.6156  2.0087  2.7102
  364SOL     OW 1090   0.317   0.788   1.659 -0.2500  0.2379 -0.4157
  364SOL    HW1 1091   0.372   0.838   1.726 -1.4667  0.7251  0.5129
  364SOL    HW2 1092   0.316   0.836   1.572  1.8122  0.2532  1.3745
  365SOL     OW 1093   2.721   0.837   0.902  0.7685 -0.1811  0.5251
  365SOL    HW1 1094   2.736   0.813   0.802  0.4338  1.4047 -1.3637
  365SOL    HW2 1095   2.721   0.756   0.967 -1.5326 -2.6136  1.1877
  366SOL     OW 1096   2.650   1.622   0.930  0.1979 -0.2127 -0.1647
  366SOL    HW1 1097   2.635   1.704   0.872 -0.4251  1.1413  0.8673
  366SOL    HW2 1098   2.717   1.559   0.885  0.4739 -0.9748  0.2724
  367SOL     OW 1099   1.935   2.041   2.290  0.0448  0.2071  0.3739
  367SOL    HW1 1100   1.903   1.945   2.287  1.2006 -1.3696  0.2262
  367SOL    HW2 1101   1.858   2.100   2.321  2.0849  2.5258 -0.9372
  368SOL     OW 1102   2.781   1.938   1.030 -0.3369 -0.0905  0.4729
  368SOL    HW1 1103   2.702   1.898   1.069  1.1757  1.3172 -0.7387
  368SOL    HW2 1104   2.767   2.044   1.022  1.2189  4.5688 -0.1121
  369SOL     OW 1105   2.110   2.854   2.630 -0.1402  0.5896  0.8246
  369SOL    HW1 1106   2.022   2.881   2.579 -2.1185 -0.3337 -1.5639
  369SOL    HW2 1107   2.138   2.925   2.697 -0.3307  2.2049  0.3938
  370SOL     OW 1108   0.545   0.523   1.057 -0.2386 -0.5915 -0.7235
  370SOL    HW1 1109   0.461   0.483   1.096 -1.6611 -1.3266 -0.5174
  370SOL    HW2 1110   0.605   0.445   1.026 -1.2028 -2.8915 -0.6468
  371SOL     OW 1111   0.634   1.715   0.367 -0.2951  0.3719 -0.1664
  371SOL    HW1 1112   0.629   1.668   0.274 -0.0320 -1.4757 -1.8807
  371SOL    HW2 1113   0.723   1.760   0.381 -1.7802 -1.4144 -1.1417
  372SOL     OW 1114   0.892   1.191   2.971  0.7001  0.2739 -0.1922
  372SOL    HW1 1115   0.905   1.146   3.064  0.7001  0.5268  2.0697
  372SOL    HW2 1116   0.887   1.117   2.901  0.0955  1.2784  0.1221
  373SOL     OW 1117   1.258   2.770   2.516 -0.6831  0.0716  0.0899
  373SOL    HW1 1118   1.198   2.682   2.525 -3.7252  0.0700  0.2995
  373SOL    HW2 1119   1.272   2.819   2.606  1.3372  1.0723  1.4760
  374SOL     OW 1120   0.512   2.012   0.292  0.2383  0.7313  0.0173
  374SOL    HW1 1121   0.599   1.971   0.324 -2.7538  0.3522 -0.6215
  374SOL    HW2 1122   0.445   2.043   0.363 -2.2947  0.7911 -2.3366
  375SOL     OW 1123   0.591   0.732   1.950 -0.0363  0.2136 -0.1961
  375SOL    HW1 1124   0.681   0.691   1.933 -3.3479 -1.9900 -2.9378
  375SOL    HW2 1125   0.570   0.733   2.049 -0.6458 -1.0932 -1.5013
  376SOL     OW 1126   0.307   2.466   1.439 -0.2641 -0.3603  0.5397
  376SOL    HW1 1127   0.233   2.397   1.438  1.4890  0.6284  0.2009
  376SOL    HW2 1128   0.319   2.499   1.536 -1.3655 -0.0550  0.2989
  377SOL     OW 1129   2.827   1.633   2.881  0.5241  0.2835  0.7716
  377SOL    HW1 1130   2.894   1.557   2.889 -1.5116  2.2564  0.3199
  377SOL    HW2 1131   2.764   1.616   2.799 -1.7355  0.8597  0.4957
  378SOL     OW 1132   1.591   2.913   3.062  0.8567 -0.1596  0.5791
  378SOL    HW1 1133   1.547   2.824   3.089  2.3271 -0.7658 -0.1556
  378SOL    HW2 1134   1.625   2.965   0.044 -3.4946 -0.9090 -2.0044
  379SOL     OW 1135   1.580   0.643   0.696  0.0400 -0.3509  0.1924
  379SOL    HW1 1136   1.644   0.606   0.619 -1.0837  0.4396 -3.0547
  379SOL    HW2 1137   1.596   0.733   0.740 -0.5221 -0.7626 -1.4702
  380SOL     OW 1138   0.403   1.888   1.602 -0.7145 -0.3863 -0.2204
  380SOL    HW1 1139   0.496   1.883   1.649  2.5310 -2.6447 -0.7699
  380SOL    HW2 1140   0.352   1.805   1.635 -0.9142  0.0810  0.4131
  381SOL     OW 1141   2.245   1.465   2.502 -0.0544  0.1009  0.3817
  381SOL    HW1 1142   2.265   1.546   2.446 -0.6120 -0.1904 -1.9416
  381SOL    HW2 1143   2.143   1.456   2.515  0.0158  1.5496  1.2219
  382SOL     OW 1144   0.060   2.809   2.780 -0.5262  0.1763  0.1604
  382SOL    HW1 1145   3.061   2.777   2.782 -0.3700  0.9005  0.8384
  382SOL    HW2 1146   0.068   2.871   2.700 -3.6046 -2.3329 -1.1203
  383SOL     OW 1147   1.616   1.124   2.983 -0.3282  0.1995  0.0882
  383SOL    HW1 1148   1.625   1.151   2.889 -0.1622 -1.1830  1.3393
  383SOL    HW2 1149   1.561   1.195   3.029 -0.7908 -0.9739 -0.0891
  384SOL     OW 1150   0.998   1.929   1.117  1.1495  0.1028  0.3658
  384SOL    HW1 1151   0.938   1.970   1.187  3.1142 -4.0516  0.6558
  384SOL    HW2 1152   0.975   1.951   1.019 -0.2513 -1.9438 -2.7588
  385SOL     OW 1153   1.820   2.867   0.829  0.2911 -0.8077  0.2319
  385SOL    HW1 1154   1.780   2.946   0.880 -1.1119  1.2603 -1.8400
  385SOL    HW2 1155   1.752   2.813   0.781  3.3879  1.8059 -0.0439
  386SOL     OW 1156   1.533   1.992   0.948  0.4044  0.4476  0.1478
  386SOL    HW1 1157   1.455   2.013   1.007 -1.6100 -0.9553  1.2645
  386SOL    HW2 1158   1.565   1.896   0.954 -0.7550  2.7513 -1.2876
  387SOL     OW 1159   2.733   2.060   1.448 -0.6224  0.0072 -0.2147
  387SOL    HW1 1160   2.676   2.139   1.416  0.3386  1.2405  0.9914
  387SOL    HW2 1161   2.820   2.052   1.397 -0.3048  0.3103  0.5693
  388SOL     OW 1162   2.599   0.923   1.648 -0.2369  0.3261  0.5879
  388SOL    HW1 1163   2.652   0.833   1.639 -0.0027 -1.5642  0.7310
  388SOL    HW2 1164   2.669   1.000   1.661  2.6010 -0.4794  0.2137
  389SOL     OW 1165   2.034   0.810   0.177  0.3480  0.4259 -0.1629
  389SOL    HW1 1166   2.041   0.910   0.158  0.6033  0.4898  0.4215
  389SOL    HW2 1167   2.128   0.770   0.166 -0.6529  0.0565  1.0496
  390SOL     OW 1168   1.466   1.859   2.497  0.6528 -0.0761 -0.1831
  390SOL    HW1 1169   1.440   1.891   2.403 -4.2421  0.7384  0.3298
  390SOL    HW2 1170   1.479   1.757   2.502 -1.2886 -0.4708 -1.9273
  391SOL     OW 1171   1.238   1.933   0.180 -0.4666 -0.2217  0.2739
  391SOL    HW1 1172   1.186   1.925   0.268  0.7065  0.7780  0.0196
  391SOL    HW2 1173   1.172   1.965   0.110 -0.9532  0.6905  0.6356
  392SOL     OW 1174   0.362   2.548   1.683 -0.2855 -0.3640  0.1275
  392SOL    HW1 1175   0.397   2.643   1.707  2.0557  1.1443 -0.1676
  392SOL    HW2 1176   0.399   2.473   1.746 -1.0397 -1.1405 -3.1438
  393SOL     OW 1177   1.393   2.134   0.074 -0.2021  0.2121 -0.2508
  393SOL    HW1 1178   1.344   2.068   0.138  0.1590 -2.3245 -0.1746
  393SOL    HW2 1179   1.332   2.189   0.012 -1.4405 -3.3822  1.3663
  394SOL     OW 1180   0.305   0.686   2.400 -0.2181  0.3369 -0.1795
  394SOL    HW1 1181   0.228   0.676   2.465  0.9400 -0.5341 -2.2393
  394SOL    HW2 1182   0.386   0.633   2.428  2.0602 -0.1969  0.6411
  395SOL     OW 1183   0.482   1.175   1.066  0.3539 -0.6909 -0.3677
  395SOL    HW1 1184   0.460   1.274   1.068 -1.8629  2.5942  1.7689
  395SOL    HW2 1185   0.454   1.135   0.982 -1.9662  0.5616  1.8630
  396SOL     OW 1186   1.715   0.863   2.149  0.2649 -0.6296  0.1460
  396SOL    HW1 1187   1.782   0.908   2.087  1.2155 -0.9467  1.0618
  396SOL    HW2 1188   1.635   0.929   2.161  1.2963 -1.0696  3.2784
  397SOL     OW 1189   0.862   0.103   0.104  0.3143  0.0067 -0.0921
  397SOL    HW1 1190   0.809   0.132   0.021 -1.2357  1.2054  1.7461
  397SOL    HW2 1191   0.798   0.116   0.180  0.1806  1.6879 -1.3019
  398SOL     OW 1192   0.667   2.316   2.524 -0.1656 -0.1910  0.2514
  398SOL    HW1 1193   0.735   2.340   2.596 -0.9315  1.8308 -0.2326
  398SOL    HW2 1194   0.576   2.288   2.567 -0.4066 -1.1974  0.3948
  399SOL     OW 1195   1.983   1.321   2.594  0.2792  0.1374  0.0786
  399SOL    HW1 1196   1.987   1.240   2.655 -1.6136  1.6359  0.6371
  399SOL    HW2 1197   1.961   1.288   2.500  1.6381  0.6967 -0.5233
  400SOL     OW 1198   2.135   1.407   1.549 -0.2288 -0.0961 -0.3379
  400SOL    HW1 1199   2.101   1.345   1.481 -2.5105 -0.0443  1.0177
  400SOL    HW2 1200   2.125   1.504   1.511  1.1740 -3.3669 -4.0222
  401SOL     OW 1201   1.363   1.202   1.249 -0.3272  0.2323 -0.0068
  401SOL    HW1 1202   1.400   1.109   1.221  1.8690 -2.6821 -0.8853
  401SOL    HW2 1203   1.264   1.205   1.243  2.9976  1.0482 -0.8234
  402SOL     OW 1204   0.086   2.533   1.749 -0.3575  0.1326  0.0792
  402SOL    HW1 1205   0.018   2.557   1.680  3.2701 -1.1363  1.3691
  402SOL    HW2 1206   0.181   2.536   1.715 -1.3280  0.1524  0.3186
  403SOL     OW 1207   0.127   1.340   2.183  0.5135 -0.4352  0.2542
  403SOL    HW1 1208   0.061   1.316   2.254 -1.7181 -0.7741 -0.6233
  403SOL    HW2 1209   0.082   1.353   2.095  2.5459 -0.2358  1.1822
  404SOL     OW 1210   2.343   1.747   1.558 -0.0556  0.2619 -0.1461
  404SOL    HW1 1211   2.289   1.806   1.624 -1.4098  2.8042  2.9809
  404SOL    HW2 1212   2.390   1.796   1.484 -0.7268 -2.9247 -0.0367
  405SOL     OW 1213   2.848   0.515   2.773  0.4112 -0.4767 -0.6141
  405SOL    HW1 1214   2.751   0.551   2.765 -1.3422  1.7112 -0.6085
  405SOL    HW2 1215   2.859   0.415   2.754  2.4759 -3.7601  0.4792
  406SOL     OW 1216   0.982   1.430   2.831 -0.1460 -0.0882  0.1845
  406SOL    HW1 1217   0.965   1.350   2.889  1.3531  2.3774 -1.1144
  406SOL    HW2 1218   1.083   1.440   2.823  1.5362 -1.7364  2.4285
  407SOL     OW 1219   1.726   2.425   0.055  0.5916  0.5023  0.0307
  407SOL    HW1 1220   1.756   2.416   0.153 -1.7292  0.6863 -1.9074
  407SOL    HW2 1221   1.622   2.419   0.056  0.6060  0.8723 -2.0977
  408SOL     OW 1222   0.392   0.068   0.210 -0.4343  0.0064  0.7128
  408SOL    HW1 1223   0.348   3.080   0.186 -0.2949  2.2624  0.3401
  408SOL    HW2 1224   0.392   0.137   0.131  2.2588 -1.8172 -2.8982
  409SOL     OW 1225   2.547   1.812   1.112 -0.3028 -0.3791  0.2268
  409SOL    HW1 1226   2.458   1.854   1.071 -3.2716  2.2574 -0.7934
  409SOL    HW2 1227   2.565   1.724   1.064 -0.0777  1.7458 -1.0623
  410SOL     OW 1228   2.051   2.325   0.064 -0.1070  0.2710 -0.1078
  410SOL    HW1 1229   2.134   2.299   0.009  1.7241 -0.8066 -2.8841
  410SOL    HW2 1230   2.013   2.418   0.051 -0.7185 -1.9641  0.0486
  411SOL     OW 1231   0.239   1.191   0.577 -0.5416 -0.0804 -0.2565
  411SOL    HW1 1232   0.205   1.106   0.625 -1.7259  0.4546 -1.5896
  411SOL    HW2 1233   0.195   1.280   0.602 -0.8291  1.9648  2.0293
  412SOL     OW 1234   1.545   2.687   0.289 -1.5330  0.5722  0.0225
  412SOL    HW1 1235   1.624   2.631   0.326 -0.1192 -0.8229 -1.1207
  412SOL    HW2 1236   1.567   2.790   0.295 -1.4976 -1.3104  1.9999
  413SOL     OW 1237   1.712   0.379   2.313  0.1329 -0.7853  0.6590
  413SOL    HW1 1238   1.664   0.382   2.222 -1.4355  1.3283  0.1338
  413SOL    HW2 1239   1.744   0.288   2.333 -2.0105 -0.3575 -1.1633
  414SOL     OW 1240   2.981   0.561   0.668 -0.3594  0.0225  0.2293
  414SOL    HW1 1241   3.035   0.586   0.583  2.7674  0.7895  0.7506
  414SOL    HW2 1242   3.030   0.487   0.718  3.3232 -1.7275 -0.3358
  415SOL     OW 1243   0.950   1.647   1.384  0.0726 -0.3875 -0.2526
  415SOL    HW1 1244   0.982   1.688   1.469 -2.2908 -0.0669 -0.4637
  415SOL    HW2 1245   0.906   1.558   1.399 -1.9816  0.2841 -0.7300
  416SOL     OW 1246   0.402   0.242   0.013  0.0614 -0.0739  0.6432
  416SOL    HW1 1247   0.437   0.336   0.024 -1.1155  0.7568  0.4808
  416SOL    HW2 1248   0.419   0.206   3.016  1.1941 -3.8514 -0.8023
  417SOL     OW 1249   2.634   2.861   1.278 -0.0710  0.0572 -0.4400
  417SOL    HW1 1250   2.586   2.799   1.212 -0.1779 -1.4072  2.4835
  417SOL    HW2 1251   2.735   2.838   1.281 -2.9906  0.4073 -0.5400
  418SOL     OW 1252   0.726   0.465   2.481 -0.3506 -0.5813 -0.4499
  418SOL    HW1 1253   0.794   0.430   2.418 -2.4229  0.9767  1.0358
  418SOL    HW2 1254   0.738   0.566   2.507  1.1034  3.6085  1.8120
  419SOL     OW 1255   0.231   1.483   1.189 -0.4467  0.0010  0.4482
  419SOL    HW1 1256   0.197   1.389   1.167 -0.3379  0.0015 -0.2514
  419SOL    HW2 1257   0.169   1.558   1.157 -0.7463 -0.6939  0.1949
  420SOL     OW 1258   0.928   2.060   0.853  0.1877  0.0407 -0.1391
  420SOL    HW1 1259   0.860   2.135   0.850 -0.6993 -2.2192 -0.6265
  420SOL    HW2 1260   0.889   1.990   0.789  1.1059 -0.0454  1.3394
  421SOL     OW 1261   2.012   2.063   2.021 -0.1342 -0.1365 -0.4830
  421SOL    HW1 1262   1.962   2.000   1.954 -0.0904  0.6410 -2.5139
  421SOL    HW2 1263   1.986   2.032   2.117 -1.3506  1.1847 -2.8068
  422SOL     OW 1264   3.089   0.610   2.859 -0.2922  0.5047 -0.4436
  422SOL    HW1 1265   3.002   0.579   2.817  0.7559 -1.1615 -1.3515
  422SOL    HW2 1266   0.008   0.560   2.946  1.5311  1.3249  1.0758
  423SOL     OW 1267   1.175   2.146   0.916 -0.1904  0.0132  0.6907
  423SOL    HW1 1268   1.079   2.119   0.896 -0.2094  2.4223 -0.0963
  423SOL    HW2 1269   1.215   2.095   0.991 -0.3595  2.5094 -0.3242
  424SOL     OW 1270   0.821   1.415   1.453 -0.2118  0.4293  0.2968
  424SOL    HW1 1271   0.756   1.393   1.375  0.0480  0.7555  2.5253
  424SOL    HW2 1272   0.773   1.410   1.542 -0.4304 -0.9497 -0.9873
  425SOL     OW 1273   3.050   2.637   2.157  0.0927 -0.5604 -0.1902
  425SOL    HW1 1274   0.047   2.600   2.156  0.5318  0.7835  0.6752
  425SOL    HW2 1275   3.021   2.668   2.065 -0.7928 -0.6043 -0.4473
  426SOL     OW 1276   1.927   2.958   0.612  0.0173 -0.8601 -0.1172
  426SOL    HW1 1277   1.884   2.931   0.697  1.0690  2.7206 -0.5832
  426SOL    HW2 1278   1.958   3.052   0.612 -2.0845 -1.1178 -2.8853
  427SOL     OW 1279   0.708   0.885   2.929  0.2978  0.1029 -0.8143
  427SOL    HW1 1280   0.748   0.803   2.977 -0.7257 -1.1591  1.4516
  427SOL    HW2 1281   0.777   0.928   2.868 -2.0045  4.0671  0.6100
  428SOL     OW 1282   2.021   1.326   0.330 -0.5948  0.1099 -0.2766
  428SOL    HW1 1283   1.934   1.283   0.309 -1.3478  2.6605 -2.7479
  428SOL    HW2 1284   2.096   1.279   0.273  0.5225 -1.9491  2.2831
  429SOL     OW 1285   0.021   3.006   0.317  0.7919 -0.1646 -0.2088
  429SOL    HW1 1286   0.065   3.023   0.406 -0.5973 -0.4507 -2.7621
  429SOL    HW2 1287   3.043   2.942   0.337  3.3363  0.8991  0.9144
  430SOL     OW 1288   0.602   2.697   1.911  0.2285  0.5327  0.2263
  430SOL    HW1 1289   0.632   2.761   1.984  0.7690 -0.7877  3.2281
  430SOL    HW2 1290   0.669   2.621   1.895  0.9231 -0.4421 -2.5714
  431SOL     OW 1291   2.449   0.977   1.394 -0.4104 -0.1096 -0.2276
  431SOL    HW1 1292   2.451   1.078   1.377 -0.6877 -0.6967 -1.4013
  431SOL    HW2 1293   2.508   0.949   1.474  0.0683  0.0435  1.1202
  432SOL     OW 1294   1.956   2.325   2.076  0.0387  0.0266 -0.2249
  432SOL    HW1 1295   1.865   2.321   2.116  0.9370  1.0300  2.2583
  432SOL    HW2 1296   1.987   2.230   2.055 -1.2682  1.5893 -3.2614
  433SOL     OW 1297   0.986   2.173   0.437  0.2637  0.7428 -0.0432
  433SOL    HW1 1298   1.027   2.079   0.423  0.9918  0.8225  0.9744
  433SOL    HW2 1299   1.054   2.237   0.475  1.1996 -1.7425 -0.1723
  434SOL     OW 1300   0.366   2.165   2.197 -0.1653 -0.0058  0.5123
  434SOL    HW1 1301   0.302   2.132   2.266  1.4646  1.1300 -0.8274
  434SOL    HW2 1302   0.327   2.241   2.141  2.4356  1.0190  0.6684
  435SOL     OW 1303   0.315   0.906   0.220  0.0446 -0.1859 -0.5450
  435SOL    HW1 1304   0.289   0.843   0.143  0.0654  2.6643 -0.5980
  435SOL    HW2 1305   0.417   0.923   0.203 -1.0254  0.1393 -1.1236
  436SOL     OW 1306   0.358   2.897   1.422 -0.5377  0.1813  0.2365
  436SOL    HW1 1307   0.343   2.808   1.370  0.8852  0.2641 -0.7476
  436SOL    HW2 1308   0.353   2.900   1.524 -1.6238  2.4988  0.9236
  437SOL     OW 1309   1.796   1.993   1.587  0.3579 -0.0745 -0.2457
  437SOL    HW1 1310   1.743   2.067   1.624  0.9262 -0.3039 -0.5184
  437SOL    HW2 1311   1.845   2.014   1.504 -3.1606 -0.4246  0.7598
  438SOL     OW 1312   3.023   1.759   0.598  0.0357  0.0005 -0.1337
  438SOL    HW1 1313   3.080   1.722   0.676  2.8060 -0.1151 -0.8758
  438SOL    HW2 1314   3.080   1.811   0.529  0.4019 -0.9286  0.4942
  439SOL     OW 1315   0.064   0.711   0.860  0.0967 -0.0229 -0.6651
  439SOL    HW1 1316   0.114   0.667   0.940 -1.0035 -1.2969  2.5386
  439SOL    HW2 1317   3.064   0.685   0.870  0.7992 -0.5657  2.3060
  440SOL     OW 1318   0.326   2.877   2.306 -0.1699 -0.3638  0.1650
  440SOL    HW1 1319   0.330   2.776   2.320  0.2897 -0.8098  0.0646
  440SOL    HW2 1320   0.408   2.923   2.340  0.9279 -0.7437  0.5824
  441SOL     OW 1321   2.970   0.446   1.041 -0.0119  0.2849  0.3154
  441SOL    HW1 1322   3.053   0.473   1.094  0.8168  0.7802 -2.2989
  441SOL    HW2 1323   3.000   0.391   0.961  1.7044 -1.2438 -1.0729
  442SOL     OW 1324   1.528   2.262   2.650 -0.1512  0.3045 -0.2769
  442SOL    HW1 1325   1.570   2.307   2.734  1.1223  0.5456  1.2581
  442SOL    HW2 1326   1.578   2.176   2.634  0.8903  1.6585 -1.2245
  443SOL     OW 1327   0.639   1.321   2.954 -0.2506 -0.3919 -0.4418
  443SOL    HW1 1328   0.630   1.305   2.852 -2.9174 -0.1335 -0.2291
  443SOL    HW2 1329   0.735   1.303   2.981 -0.9588  1.2838 -1.0887
  444SOL     OW 1330   1.548   1.521   2.177 -0.1108 -0.1421  0.2214
  444SOL    HW1 1331   1.469   1.523   2.116 -0.3127 -1.2174 -0.8809
  444SOL    HW2 1332   1.523   1.520   2.275 -1.0151  1.3215  0.2368
  445SOL     OW 1333   0.109   3.080   0.826  0.1531 -0.1429  0.3723
  445SOL    HW1 1334   0.157   0.070   0.802  2.4112  1.0849  0.9213
  445SOL    HW2 1335   0.005   3.090   0.825 -0.5983  0.4519  1.6499
  446SOL     OW 1336   2.181   0.589   1.303 -0.5526  0.6945  0.4045
  446SOL    HW1 1337   2.205   0.677   1.272  0.2961 -4.2007  0.6782
  446SOL    HW2 1338   2.096   0.555   1.254 -1.4044  0.3163  0.0865
  447SOL     OW 1339   0.123   0.819   2.946  0.0633  0.4176 -0.0979
  447SOL    HW1 1340   0.073   0.739   2.908 -0.8363  1.2279  1.8691
  447SOL    HW2 1341   0.066   0.903   2.948 -0.5864  0.3032 -0.4449
  448SOL     OW 1342   1.445   2.025   1.508 -0.5184 -0.1232 -0.2336
  448SOL    HW1 1343   1.494   2.116   1.502 -0.4550  2.4422 -0.8885
  448SOL    HW2 1344   1.464   1.983   1.600 -3.6552 -2.0183 -0.0434
  449SOL     OW 1345   1.078   1.384   0.718  0.2514 -0.1115  0.4871
  449SOL    HW1 1346   1.157   1.445   0.740 -1.0682 -0.6566  0.4480
  449SOL    HW2 1347   0.996   1.440   0.695 -0.8096 -0.3893  2.2902
  450SOL     OW 1348   2.912   1.981   1.846 -0.4651 -0.0246  0.1068
  450SOL    HW1 1349   2.882   2.056   1.911  0.8245  1.5005 -1.1805
  450SOL    HW2 1350   2.839   1.910   1.820 -2.3196 -1.7313  0.5772
  451SOL     OW 1351   2.378   1.464   2.755  0.1062  0.4756  0.5763
  451SOL    HW1 1352   2.355   1.457   2.656  0.4104 -1.9238 -1.7412
  451SOL    HW2 1353   2.316   1.531   2.805 -3.7336  2.5672 -1.9304
  452SOL     OW 1354   1.517   0.701   1.329 -0.3338 -0.0990 -0.0723
  452SOL    HW1 1355   1.434   0.746   1.367  1.0182 -1.5810 -1.0346
  452SOL    HW2 1356   1.601   0.739   1.374 -3.4877  1.2863  1.3340
  453SOL     OW 1357   1.934   0.976   1.463  0.0735 -0.3106  0.0577
  453SOL    HW1 1358   1.867   1.027   1.528 -0.1102 -1.2146  0.2901
  453SOL    HW2 1359   1.986   1.045   1.406  0.6688 -0.3458  0.5809
  454SOL     OW 1360   2.877   0.882   0.246 -0.4630 -0.1528 -0.6697
  454SOL    HW1 1361   2.957   0.881   0.313  2.6298 -1.3189  0.9266
  454SOL    HW2 1362   2.812   0.808   0.279  1.3232  0.6616  0.6619
  455SOL     OW 1363   2.695   1.573   1.206  0.4563  0.5706 -0.6341
  455SOL    HW1 1364   2.701   1.589   1.107 -0.2148 -1.1623 -3.3546
  455SOL    HW2 1365   2.772   1.612   1.261 -1.3669 -1.0201  2.1743
  456SOL     OW 1366   0.714   0.075   1.371  0.3510 -0.0210 -0.1550
  456SOL    HW1 1367   0.747   0.154   1.429  0.4352  2.8282  1.9574
  456SOL    HW2 1368   0.741   3.084   1.414 -1.3170  1.7220 -0.1894
  457SOL     OW 1369   1.727   0.005   0.996 -0.7088 -0.0647  0.1892
  457SOL    HW1 1370   1.642   0.045   1.031  1.9193 -1.5143 -0.6197
  457SOL    HW2 1371   1.778   0.084   0.956  0.9629 -2.3850  0.1046
  458SOL     OW 1372   2.581   0.506   0.513 -0.4597 -0.2103 -0.1814
  458SOL    HW1 1373   2.626   0.451   0.589 -0.3129 -0.5740  1.3416
  458SOL    HW2 1374   2.508   0.572   0.546 -1.9730  2.5470  0.2838
  459SOL     OW 1375   1.872   0.604   0.050  0.2127 -0.5143  0.5031
  459SOL    HW1 1376   1.925   0.679   0.092 -0.8202  0.1940 -0.0173
  459SOL    HW2 1377   1.932   0.540   0.004 -1.1446  1.5959  1.0373
  460SOL     OW 1378   3.013   2.506   2.643 -0.2911  0.3465  0.0227
  460SOL    HW1 1379   2.915   2.505   2.617  4.1699 -0.7744 -3.2517
  460SOL    HW2 1380   3.060   2.566   2.576 -0.2325 -2.0603  2.5459
  461SOL     OW 1381   0.765   1.896   3.084  0.5604  0.0451  0.1564
  461SOL    HW1 1382   0.727   1.992   0.000 -1.5467  0.0720 -0.9536
  461SOL    HW2 1383   0.723   1.867   2.995  0.2984 -1.2127 -0.0712
  462SOL     OW 1384   2.213   2.571   0.757 -0.5464  0.2259 -0.6476
  462SOL    HW1 1385   2.157   2.486   0.760 -0.1179  1.6705 -1.5576
  462SOL    HW2 1386   2.156   2.649   0.783 -1.0825 -0.7048 -2.5172
  463SOL     OW 1387   0.048   0.654   0.479 -0.4037  0.0205 -0.0788
  463SOL    HW1 1388   0.139   0.657   0.526  1.7034 -2.1479 -0.9702
  463SOL    HW2 1389   0.023   0.747   0.443 -2.5430 -0.8243  0.8410
  464SOL     OW 1390   0.721   2.565   0.350  0.1973 -0.6094 -0.1015
  464SOL    HW1 1391   0.628   2.540   0.387 -0.0995  2.8211 -0.2182
  464SOL    HW2 1392   0.783   2.489   0.339 -1.1839  0.5184 -1.5534
  465SOL     OW 1393   2.358   0.879   0.426 -0.5954  0.2633  0.2228
  465SOL    HW1 1394   2.273   0.937   0.413 -1.9423 -1.9746 -1.1527
  465SOL    HW2 1395   2.423   0.883   0.347  1.4765  0.7577 -3.0052
  466SOL     OW 1396   2.218   0.191   0.083 -0.8894 -0.8884 -0.0663
  466SOL    HW1 1397   2.268   0.212   0.174  2.6673 -0.0232  0.6051
  466SOL    HW2 1398   2.183   0.098   0.087 -0.6529  0.3214  0.6306
  467SOL     OW 1399   1.084   0.441   1.941  0.3746 -0.2966 -0.6773
  467SOL    HW1 1400   1.067   0.483   1.848  0.8253 -0.5896 -2.1828
  467SOL    HW2 1401   1.132   0.505   2.002  1.9967 -1.6131  1.6995
  468SOL     OW 1402   2.828   0.560   2.277 -0.1221 -0.1755  0.1992
  468SOL    HW1 1403   2.813   0.613   2.190  0.5323 -0.0412 -1.3208
  468SOL    HW2 1404   2.748   0.582   2.337  0.8931  1.1341  1.2632
  469SOL     OW 1405   0.846   2.596   2.320 -0.5602  0.4723 -0.3719
  469SOL    HW1 1406   0.886   2.500   2.325  0.8725 -1.1674  0.4001
  469SOL    HW2 1407   0.757   2.593   2.275 -0.8132  2.1994  1.1817
  470SOL     OW 1408   1.881   1.253   1.875 -0.0958  0.2292 -0.5778
  470SOL    HW1 1409   1.956   1.321   1.870  0.0897 -3.2894 -2.0260
  470SOL    HW2 1410   1.814   1.294   1.942 -0.2312 -1.8402  1.2622
  471SOL     OW 1411   2.803   1.173   0.142 -1.1054  0.2605  0.4005
  471SOL    HW1 1412   2.762   1.181   0.051  1.8488  0.7040  2.1764
  471SOL    HW2 1413   2.823   1.080   0.170  2.4733  1.6304 -2.9242
  472SOL     OW 1414   0.290   2.787   0.517  0.2355  0.1651 -0.0779
  472SOL    HW1 1415   0.208   2.728   0.547 -3.1754 -2.9763  2.6323
  472SOL    HW2 1416   0.377   2.748   0.556  0.4376 -1.2147  0.9388
  473SOL     OW 1417   0.943   2.802   2.470  0.0790 -0.0063  0.0860
  473SOL    HW1 1418   0.916   2.726   2.403  1.7047 -0.2479  0.7042
  473SOL    HW2 1419   0.872   2.804   2.543  2.0536 -0.5684  3.3340
  474SOL     OW 1420   1.814   3.049   2.006 -0.1777  0.2108 -0.0087
  474SOL    HW1 1421   1.906   3.081   1.973 -3.3871 -1.3345  2.7432
  474SOL    HW2 1422   1.774   2.976   1.945  1.2408 -2.2164 -0.0203
  475SOL     OW 1423   0.896   2.506   3.017  0.2439 -0.5835  0.1646
  475SOL    HW1 1424   0.981   2.555   3.045 -1.4880  0.3772  0.7935
  475SOL    HW2 1425   0.888   2.412   3.060 -1.8239 -0.4984 -0.3450
  476SOL     OW 1426   0.621   0.770   0.987  0.1282  0.0389  0.1413
  476SOL    HW1 1427   0.608   0.782   0.885 -0.1783  0.0572 -1.1240
  476SOL    HW2 1428   0.590   0.675   1.011  1.8727 -0.6716 -1.0336
  477SOL     OW 1429   1.705   2.048   1.228 -0.1369 -0.0187 -0.2158
  477SOL    HW1 1430   1.609   2.087   1.223  0.0725  0.8448 -2.7927
  477SOL    HW2 1431   1.717   1.953   1.195  1.0387  1.2816  4.0286
  478SOL     OW 1432   0.382   0.923   2.302  0.4640 -0.2099 -0.1095
  478SOL    HW1 1433   0.346   0.996   2.244  0.2887  0.6532  0.0808
  478SOL    HW2 1434   0.308   0.852   2.333 -1.9324 -3.3307  1.7096
  479SOL     OW 1435   0.569   3.030   0.618  0.3863 -0.2143  0.1373
  479SOL    HW1 1436   0.521   2.971   0.692 -1.7745  0.3158 -0.6683
  479SOL    HW2 1437   0.498   3.080   0.560  1.8269  1.0801 -1.1545
  480SOL     OW 1438   2.429   2.511   2.955  0.4165 -0.0045 -0.2371
  480SOL    HW1 1439   2.366   2.471   2.885  2.9953  0.5710  0.0962
  480SOL    HW2 1440   2.517   2.461   2.955  0.8671  0.5297  3.0952
  481SOL     OW 1441   2.444   0.652   1.101 -0.3181 -0.6676  0.4357
  481SOL    HW1 1442   2.398   0.726   1.159 -2.6847  2.1025  3.4517
  481SOL    HW2 1443   2.381   0.603   1.036  0.7910  2.4698 -0.3712
  482SOL     OW 1444   1.448   2.460   1.656 -0.7566  0.2491 -0.5550
  482SOL    HW1 1445   1.499   2.384   1.608  0.3931 -1.1544 -1.0311
  482SOL    HW2 1446   1.456   2.436   1.752  1.6277 -0.1403  2.0700
  483SOL     OW 1447   0.278   1.470   3.000 -0.3801  0.1896  0.6860
  483SOL    HW1 1448   0.250   1.538   3.076 -0.4632  2.8377  0.7002
  483SOL    HW2 1449   0.270   1.374   3.031  0.8448  1.5327  0.9908
  484SOL     OW 1450   1.408   1.932   2.247  0.0841 -0.3710 -0.2462
  484SOL    HW1 1451   1.382   1.864   2.174 -2.6098 -1.9144 -0.6709
  484SOL    HW2 1452   1.485   1.984   2.210  0.1102  0.1073 -1.1362
  485SOL     OW 1453   0.280   0.068   2.305 -0.3062  0.0098 -0.0716
  485SOL    HW1 1454   0.197   0.116   2.265 -1.5392  0.2000 -2.7888
  485SOL    HW2 1455   0.301   3.086   2.243  2.1275 -3.0854  0.5658
  486SOL     OW 1456   1.131   0.200   0.284  0.1439 -0.4052 -0.2033
  486SOL    HW1 1457   1.089   0.181   0.198  0.4095  3.6656  3.5137
  486SOL    HW2 1458   1.170   0.293   0.277  1.0667 -2.1137 -0.1710
  487SOL     OW 1459   1.438   2.887   0.905  0.0386 -0.1220 -0.5879
  487SOL    HW1 1460   1.476   2.848   0.816  0.6027 -1.1047  2.3209
  487SOL    HW2 1461   1.360   2.953   0.896  0.8656  0.9281 -0.8013
  488SOL     OW 1462   2.139   0.713   0.774  0.1377 -0.0208  0.3306
  488SOL    HW1 1463   2.156   0.810   0.803  0.3184 -0.3718 -1.9963
  488SOL    HW2 1464   2.120   0.721   0.669 -3.8212  2.3736 -3.7855
  489SOL     OW 1465   1.338   2.712   1.288 -0.2021 -0.1732 -0.0717
  489SOL    HW1 1466   1.396   2.722   1.372 -2.5417 -0.1503 -0.6572
  489SOL    HW2 1467   1.242   2.683   1.308  2.4464  0.9677  0.6152
  490SOL     OW 1468   0.822   0.832   0.423  0.1402  0.6498 -0.0602
  490SOL    HW1 1469   0.740   0.889   0.453 -1.9436  3.3407  1.0945
  490SOL    HW2 1470   0.877   0.826   0.508 -3.0694  2.1939  1.0051
  491SOL     OW 1471   1.080   2.803   2.901 -0.5734  0.3212 -0.3416
  491SOL    HW1 1472   1.108   2.786   2.999  1.7909 -0.4281  0.2276
  491SOL    HW2 1473   1.094   2.899   2.875 -0.6784 -3.1654  1.1482
  492SOL     OW 1474   1.252   1.280   2.168 -0.1032  0.1514 -0.0809
  492SOL    HW1 1475   1.282   1.373   2.140  0.5308 -0.6977  0.4196
  492SOL    HW2 1476   1.153   1.270   2.180 -0.1164 -1.8880  0.2384
  493SOL     OW 1477   2.989   1.980   0.019  0.3082 -0.1701 -0.3110
  493SOL    HW1 1478   2.947   1.995   3.025  1.7621 -1.4447  0.1976
  493SOL    HW2 1479   3.007   1.880   0.038 -0.1674 -1.1552  1.4413
  494SOL     OW 1480   2.101   1.660   0.737 -0.2335 -0.7946 -0.1225
  494SOL    HW1 1481   2.002   1.676   0.734 -0.1254  1.6231 -1.9839
  494SOL    HW2 1482   2.120   1.582   0.674  0.2180  1.0063  2.2663
  495SOL     OW 1483   0.080   0.928   2.567  0.0982 -0.1545 -0.1498
  495SOL    HW1 1484   0.003   0.995   2.586 -1.5072  2.7911 -0.6753
  495SOL    HW2 1485   0.165   0.964   2.612  0.9991  0.1105 -0.8169
  496SOL     OW 1486   2.885   0.007   2.280 -0.7167  0.0974 -0.5806
  496SOL    HW1 1487   2.904   3.089   2.184 -0.3292  2.9979  1.7524
  496SOL    HW2 1488   2.875   3.018   2.334  0.2555  2.3553 -0.0295
  497SOL     OW 1489   2.415   1.047   0.648 -0.5827 -0.4029  0.2119
  497SOL    HW1 1490   2.491   1.107   0.627 -1.8816 -0.6806 -0.9432
  497SOL    HW2 1491   2.395   0.972   0.578  0.8635 -1.9495 -2.4692
  498SOL     OW 1492   2.950   2.453   3.046 -0.3239  0.5197  0.0728
  498SOL    HW1 1493   2.948   2.551   3.077  0.9325 -1.4483 -1.3519
  498SOL    HW2 1494   3.033   2.448   2.981  1.6011 -0.1313 -3.1043
  499SOL     OW 1495   1.653   2.594   0.679 -0.0876 -0.5032  0.0834
  499SOL    HW1 1496   1.683   2.570   0.584  1.5398  1.0380 -1.2845
  499SOL    HW2 1497   1.697   2.533   0.745 -0.4115  1.7403  0.4125
  500SOL     OW 1498   1.109   0.652   2.604 -0.0259  0.5348  0.3771
  500SOL    HW1 1499   1.057   0.577   2.652  0.3475  1.3736  0.8380
  500SOL    HW2 1500   1.205   0.627   2.598 -2.0544  0.9957 -2.4029
  501SOL     OW 1501   0.934   0.101   1.207 -0.0786  0.1248 -0.2651
  501SOL    HW1 1502   0.994   0.029   1.236  0.1750  1.2447 -1.3362
  501SOL    HW2 1503   0.853   0.100   1.272 -0.7091  0.3509  2.3492
  502SOL     OW 1504   3.065   3.049   2.038 -0.0672  0.4468 -0.2542
  502SOL    HW1 1505   0.038   2.979   2.010 -1.7933 -1.6161 -0.8171
  502SOL    HW2 1506   0.004   0.024   2.098  1.1353 -1.5925  2.7043
  503SOL     OW 1507   1.481   2.440   2.173 -0.4166 -0.2048  0.0673
  503SOL    HW1 1508   1.481   2.539   2.151 -0.1658 -0.7815 -1.9560
  503SOL    HW2 1509   1.577   2.403   2.192  0.7746 -2.4153  0.9950
  504SOL     OW 1510   2.100   2.917   1.714 -0.7916  0.0491  0.6282
  504SOL    HW1 1511   2.171   2.962   1.651  0.8763 -2.4753 -0.0593
  504SOL    HW2 1512   2.010   2.924   1.667 -0.7302  0.5937 -0.5410
  505SOL     OW 1513   2.362   1.039   1.755 -0.1976 -0.0183  0.1435
  505SOL    HW1 1514   2.453   1.012   1.723  1.3986  0.1475  1.1883
  505SOL    HW2 1515   2.287   0.983   1.717 -1.6696  1.1213  0.0209
  506SOL     OW 1516   0.387   1.461   2.172 -0.0308 -0.0309 -0.5286
  506SOL    HW1 1517   0.302   1.407   2.186 -1.4871 -1.0008  3.2987
  506SOL    HW2 1518   0.463   1.424   2.232 -0.1123 -0.2973 -1.1773
  507SOL     OW 1519   0.134   0.040   1.407 -0.2552  0.1907 -0.3587
  507SOL    HW1 1520   0.157   0.102   1.478 -1.4328 -1.3936 -2.9820
  507SOL    HW2 1521   0.192   3.055   1.412  2.0611 -1.2284  1.5737
  508SOL     OW 1522   1.179   0.585   1.497 -0.4854  0.1996 -0.2476
  508SOL    HW1 1523   1.211   0.682   1.471  0.8346  2.1949 -1.5350
  508SOL    HW2 1524   1.206   0.520   1.422 -0.3687 -0.2425 -1.8383
  509SOL     OW 1525   1.251   2.242   1.298 -0.0102 -0.0119  0.2351
  509SOL    HW1 1526   1.186   2.308   1.257  0.5603  0.6943 -0.9634
  509SOL    HW2 1527   1.251   2.239   1.400  2.6952 -1.7174 -0.0562
  510SOL     OW 1528   2.663   1.501   0.052  0.2469 -0.3943  0.0524
  510SOL    HW1 1529   2.639   1.447   3.069 -0.0542  1.1729  0.0659
  510SOL    HW2 1530   2.754   1.462   0.089  3.2439 -0.9933  1.0012
  511SOL     OW 1531   0.604   1.352   1.282  0.0675  0.3487  0.0890
  511SOL    HW1 1532   0.598   1.253   1.255  0.1090  1.2725 -1.4129
  511SOL    HW2 1533   0.585   1.418   1.205 -2.0722  1.4875 -1.6178
  512SOL     OW 1534   2.884   2.343   0.727  0.3787 -0.0105 -0.0156
  512SOL    HW1 1535   2.927   2.250   0.730  0.6898 -0.2558  1.6415
  512SOL    HW2 1536   2.801   2.360   0.671  0.2277 -0.9720 -0.0359
  513SOL     OW 1537   0.746   1.479   2.677 -0.4414  0.2902 -0.2157
  513SOL    HW1 1538   0.742   1.566   2.629 -0.2293 -0.3179  1.4340
  513SOL    HW2 1539   0.820   1.489   2.747 -0.9294 -2.2349  0.8502
  514SOL     OW 1540   0.005   2.268   2.741  0.0757  0.4369  0.2150
  514SOL    HW1 1541   0.049   2.273   2.833 -2.8513 -4.6652 -1.4164
  514SOL    HW2 1542   3.061   2.356   2.716 -2.7869 -1.4096  2.7650
  515SOL     OW 1543   1.494   1.135   1.877 -0.4071  0.2395 -0.1654
  515SOL    HW1 1544   1.541   1.062   1.824  1.5524  0.0172  0.7484
  515SOL    HW2 1545   1.394   1.118   1.901  0.8512 -0.0271  2.2822
  516SOL     OW 1546   1.996   2.285   0.495 -0.3100  0.1697  0.2451
  516SOL    HW1 1547   2.015   2.192   0.455  0.2206 -1.2464  0.5422
  516SOL    HW2 1548   2.015   2.291   0.593  0.3653  1.3194 -3.8256
  517SOL     OW 1549   1.147   1.719   0.569 -0.0925  0.7958 -0.4571
  517SOL    HW1 1550   1.213   1.660   0.523 -2.5375 -1.8968  3.6771
  517SOL    HW2 1551   1.201   1.769   0.642  0.3681  1.3623 -1.0447
  518SOL     OW 1552   2.005   2.548   2.249 -0.9138 -0.4051 -0.4973
  518SOL    HW1 1553   2.027   2.492   2.333  0.7178  0.3678 -0.8863
  518SOL    HW2 1554   1.972   2.487   2.172 -0.9055  0.1604  1.7673
  519SOL     OW 1555   1.760   2.380   0.855  0.2604  0.4382  0.3160
  519SOL    HW1 1556   1.852   2.417   0.885  0.6899 -1.6766 -0.5158
  519SOL    HW2 1557   1.759   2.277   0.846 -2.2995 -0.8915  0.7805
  520SOL     OW 1558   2.779   2.434   2.558 -0.1350 -0.6599 -0.1959
  520SOL    HW1 1559   2.782   2.445   2.457  0.1756  0.3864 -1.0859
  520SOL    HW2 1560   2.786   2.339   2.585  1.0013  2.8265 -1.8817
  521SOL     OW 1561   3.039   1.089   2.319  0.4600 -0.0330  0.0264
  521SOL    HW1 1562   3.004   1.174   2.278 -0.7202 -0.0101  1.2599
  521SOL    HW2 1563   3.083   1.034   2.242 -1.8442 -1.2677  1.3808
  522SOL     OW 1564   0.499   0.439   2.201  0.2978 -0.1842  0.3324
  522SOL    HW1 1565   0.445   0.435   2.113  1.1549 -0.9573 -0.5796
  522SOL    HW2 1566   0.550   0.527   2.214 -0.2217 -1.3358 -1.6255
  523SOL     OW 1567   0.543   1.946   0.916  0.4259 -0.4302 -0.2873
  523SOL    HW1 1568   0.565   1.932   1.012 -0.8219  0.4014 -2.2279
  523SOL    HW2 1569   0.473   2.024   0.902 -0.4636 -1.1296  0.9039
  524SOL     OW 1570   1.761   2.596   0.427 -0.2619 -0.2117 -0.0160
  524SOL    HW1 1571   1.853   2.636   0.433 -0.9832 -0.4792 -0.8609
  524SOL    HW2 1572   1.769   2.503   0.390  0.9694  0.0157  1.7610
  525SOL     OW 1573   2.197   0.926   1.584  0.3437 -0.2815  0.4425
  525SOL    HW1 1574   2.096   0.908   1.564 -0.7408 -1.8235  0.8297
  525SOL    HW2 1575   2.248   0.969   1.504 -0.3099 -0.0938 -3.8949
  526SOL     OW 1576   1.000   2.615   0.529  0.6963  0.3590 -0.4578
  526SOL    HW1 1577   1.070   2.693   0.531 -1.1199 -0.6083  1.2309
  526SOL    HW2 1578   0.911   2.643   0.492  2.4396  0.8855  1.1716
  527SOL     OW 1579   2.677   2.612   0.686  0.1202  0.1007 -0.0028
  527SOL    HW1 1580   2.728   2.660   0.607  2.1559  4.2599 -1.8645
  527SOL    HW2 1581   2.656   2.516   0.661  0.9907  1.6162  1.1072
  528SOL     OW 1582   2.111   0.452   0.033 -0.2988  0.0980 -0.6425
  528SOL    HW1 1583   2.073   0.490   0.124 -1.3843  1.2045  2.9921
  528SOL    HW2 1584   2.139   0.352   0.048 -0.7494  0.0827  1.1681
  529SOL     OW 1585   1.639   1.539   2.685 -0.2156 -0.1834  0.5292
  529SOL    HW1 1586   1.641   1.540   2.787  0.7738 -0.7582 -0.3095
  529SOL    HW2 1587   1.699   1.608   2.645 -2.7063 -0.4319  1.9228
  530SOL     OW 1588   2.241   0.481   0.367  0.4498  0.1942  0.1221
  530SOL    HW1 1589   2.310   0.557   0.358  1.1691  1.6627 -1.8273
  530SOL    HW2 1590   2.279   0.390   0.396  0.9765 -0.3141  0.5280
  531SOL     OW 1591   1.525   0.892   3.087  0.2808  0.0381  0.2065
  531SOL    HW1 1592   1.586   0.970   3.065  0.3218 -1.2144 -0.2190
  531SOL    HW2 1593   1.438   0.892   3.031  0.8326 -1.7791  0.9955
  532SOL     OW 1594   1.714   0.550   0.503  0.4308  0.2196 -0.1833
  532SOL    HW1 1595   1.759   0.624   0.452  0.5930 -1.5057  1.3097
  532SOL    HW2 1596   1.632   0.506   0.455 -4.5198 -0.6861 -2.1785
  533SOL     OW 1597   0.679   1.123   2.233  0.3731  0.3896  0.1100
  533SOL    HW1 1598   0.624   1.070   2.166 -1.2194 -0.2958 -2.5957
  533SOL    HW2 1599   0.728   1.063   2.301 -0.9747 -1.1473 -0.3831
  534SOL     OW 1600   1.553   0.111   2.420  0.1030 -0.2943  0.5827
  534SOL    HW1 1601   1.501   0.126   2.336 -0.0428 -1.4222  1.2624
  534SOL    HW2 1602   1.653   0.111   2.394 -0.9670  1.8105 -2.1436
  535SOL     OW 1603   0.209   2.970   0.142 -0.4016 -0.1877  0.3263
  535SOL    HW1 1604   0.133   2.990   0.209  1.3250 -1.3299  1.3728
  535SOL    HW2 1605   0.184   2.995   0.048 -1.2529 -2.8020  1.5304
  536SOL     OW 1606   0.625   0.291   0.948  0.6753  0.6395  0.0116
  536SOL    HW1 1607   0.601   0.330   0.858 -1.0291  0.9548 -0.5450
  536SOL    HW2 1608   0.697   0.218   0.936  1.0533 -0.3725 -2.0319
  537SOL     OW 1609   1.382   0.696   0.471 -0.4988 -0.0467 -0.3214
  537SOL    HW1 1610   1.447   0.752   0.529  0.6357  2.3925  1.8755
  537SOL    HW2 1611   1.410   0.595   0.474 -0.0830 -2.5133  0.2692
  538SOL     OW 1612   2.691   2.020   2.740 -0.0937 -0.6670 -0.1068
  538SOL    HW1 1613   2.770   2.078   2.711 -2.3749  3.9461 -1.5903
  538SOL    HW2 1614   2.609   2.080   2.727  4.3179  1.2752  1.5054
  539SOL     OW 1615   1.994   1.584   0.239  0.4245 -0.1289  0.9545
  539SOL    HW1 1616   2.004   1.658   0.311 -1.4482  0.0695  1.1762
  539SOL    HW2 1617   1.989   1.495   0.285  0.4298 -2.3250 -0.3287
  540SOL     OW 1618   0.347   2.678   1.263  0.2081 -0.4935  0.3044
  540SOL    HW1 1619   0.333   2.601   1.329  1.3400  3.2054 -3.7629
  540SOL    HW2 1620   0.370   2.639   1.171  2.9505 -1.3026 -0.2352
  541SOL     OW 1621   2.010   3.093   2.220 -0.1633 -0.0969 -0.0567
  541SOL    HW1 1622   1.967   3.005   2.223  2.0443  2.6226 -2.5373
  541SOL    HW2 1623   2.068   0.005   2.134 -0.2728  0.4621  0.6164
  542SOL     OW 1624   0.107   0.658   2.612 -0.1217  0.5002 -0.0148
  542SOL    HW1 1625   0.054   0.638   2.695 -0.7306  1.9540  0.3435
  542SOL    HW2 1626   0.106   0.755   2.590  1.3959 -2.7514 -3.2800
  543SOL     OW 1627   3.084   1.001   1.399 -0.6573  0.6797  0.3720
  543SOL    HW1 1628   3.009   1.067   1.371 -2.3682 -0.6302  0.6703
  543SOL    HW2 1629   3.089   0.929   1.329  0.7497  2.1773  1.5007
  544SOL     OW 1630   2.512   0.381   1.139  0.7258  0.1274 -0.0418
  544SOL    HW1 1631   2.490   0.475   1.113 -1.6376 -0.4969  2.4982
  544SOL    HW2 1632   2.525   0.321   1.055  2.6392 -2.6044 -0.2521
  545SOL     OW 1633   1.535   2.071   0.615  0.2172 -0.4461  0.0798
  545SOL    HW1 1634   1.452   2.131   0.644  0.5448  0.3426  3.0926
  545SOL    HW2 1635   1.616   2.087   0.677 -1.4991 -1.0467  1.1547
  546SOL     OW 1636   2.122   2.671   1.804  0.2253 -0.1255  0.0935
  546SOL    HW1 1637   2.161   2.629   1.719 -0.4552  0.3045 -0.8875
  546SOL    HW2 1638   2.128   2.771   1.797  0.0778 -1.0559 -2.2695
  547SOL     OW 1639   0.367   3.039   2.072  0.2655 -0.1976  0.8191
  547SOL    HW1 1640   0.453   2.994   2.094 -1.4606  1.8566  0.0781
  547SOL    HW2 1641   0.284   2.979   2.060  1.4408 -1.1433  1.3618
  548SOL     OW 1642   1.854   1.186   0.051  0.7754 -0.1752  0.2987
  548SOL    HW1 1643   1.781   1.133   0.008  1.2742  0.4678  0.8590
  548SOL    HW2 1644   1.939   1.137   0.065  0.0713  0.8966  0.0690
  549SOL     OW 1645   3.023   1.277   0.411  0.2460 -0.1265 -0.0371
  549SOL    HW1 1646   2.936   1.304   0.462  1.6516 -0.7423 -0.5222
  549SOL    HW2 1647   0.011   1.323   0.430 -1.3168  2.3222 -1.3931
  550SOL     OW 1648   1.958   1.951   0.905  0.0303  0.2794  0.5603
  550SOL    HW1 1649   2.040   1.990   0.863 -1.2319  1.9289 -0.4864
  550SOL    HW2 1650   1.963   1.917   1.002 -1.5491  0.7282 -0.2412
  551SOL     OW 1651   1.236   0.434   0.523 -0.2249  0.2778 -0.3340
  551SOL    HW1 1652   1.253   0.377   0.603 -1.4217  1.4947  2.0807
  551SOL    HW2 1653   1.182   0.518   0.546  1.4613 -0.9319 -1.4075
  552SOL     OW 1654   3.081   2.693   2.450  0.5190 -0.2937 -0.0315
  552SOL    HW1 1655   0.060   2.755   2.470  2.2448  1.1214 -0.3945
  552SOL    HW2 1656   3.075   2.685   2.348  1.8535  1.3470 -1.5761
  553SOL     OW 1657   0.163   2.936   2.525 -0.0781 -0.0026  0.1802
  553SOL    HW1 1658   0.150   3.034   2.556  1.6772  1.3193  1.5371
  553SOL    HW2 1659   0.236   2.937   2.451  3.7677  2.3721 -0.6898
  554SOL     OW 1660   0.815   2.927   1.445  0.1019  0.4826  0.0065
  554SOL    HW1 1661   0.749   2.861   1.478  1.1706  0.9139 -2.7129
  554SOL    HW2 1662   0.872   2.883   1.369  0.1359  1.7383 -0.4906
  555SOL     OW 1663   2.660   2.466   2.311  0.2341 -0.0642 -0.4762
  555SOL    HW1 1664   2.659   2.559   2.267 -1.1465 -0.4332  1.0568
  555SOL    HW2 1665   2.565   2.425   2.323 -0.5461  0.9777  0.6122
  556SOL     OW 1666   1.195   0.335   2.546  0.0404  0.1589 -0.1541
  556SOL    HW1 1667   1.105   0.357   2.591 -0.6782 -0.6494 -0.6249
  556SOL    HW2 1668   1.207   0.239   2.528  1.8141  1.0497 -0.5628
  557SOL     OW 1669   0.330   1.708   2.242  0.5493 -0.8531  0.0039
  557SOL    HW1 1670   0.248   1.704   2.306 -0.0255 -1.8007  1.6522
  557SOL    HW2 1671   0.349   1.616   2.204 -1.4141  0.7734  0.5321
  558SOL     OW 1672   2.261   0.989   2.573 -0.2837  0.1946  0.2570
  558SOL    HW1 1673   2.267   1.077   2.519 -0.0519  2.0696 -0.3009
  558SOL    HW2 1674   2.184   0.925   2.546  0.5835 -0.4944  0.0597
  559SOL     OW 1675   2.411   2.037   2.091  0.3093 -0.3915  1.0598
  559SOL    HW1 1676   2.354   2.049   2.008  2.1553  4.2623 -0.0334
  559SOL    HW2 1677   2.360   2.078   2.167 -1.0404 -0.6270 -1.4868
  560SOL     OW 1678   2.668   0.978   2.194  0.1300  0.5296 -0.4130
  560SOL    HW1 1679   2.571   0.948   2.198 -0.7338 -0.4226  1.5275
  560SOL    HW2 1680   2.726   0.898   2.150 -0.7285 -0.5986  0.3808
  561SOL     OW 1681   0.061   0.125   2.800  0.1294 -0.5915 -0.3611
  561SOL    HW1 1682   0.126   0.114   2.723 -3.2581 -1.0940  1.0389
  561SOL    HW2 1683   3.080   0.173   2.763  1.9579  2.6283  0.7271
  562SOL     OW 1684   1.002   0.934   1.609 -0.2386 -0.0749 -0.1624
  562SOL    HW1 1685   1.000   0.922   1.510  1.8052  1.0974  2.4095
  562SOL    HW2 1686   0.921   0.989   1.635  3.3968  1.5254 -2.3503
  563SOL     OW 1687   1.558   0.017   2.895 -0.7019 -0.4026  0.0928
  563SOL    HW1 1688   1.538   3.078   2.800 -1.6323 -1.1742  0.4604
  563SOL    HW2 1689   1.550   3.037   2.965 -3.1799  0.5550  0.7461
  564SOL     OW 1690   0.054   2.214   1.119 -0.2766 -0.6470 -0.1656
  564SOL    HW1 1691   0.142   2.165   1.150  1.2020  1.0696 -0.6622
  564SOL    HW2 1692   3.075   2.163   1.162  2.2542 -1.1392  1.0400
  565SOL     OW 1693   0.546   2.093   1.906 -0.4033  0.2644 -0.6977
  565SOL    HW1 1694   0.591   2.008   1.879  2.4550 -1.5998  2.6333
  565SOL    HW2 1695   0.459   2.071   1.954 -2.0399  1.6061  2.4203
  566SOL     OW 1696   1.251   2.602   1.988 -0.0748 -0.1798 -0.2129
  566SOL    HW1 1697   1.201   2.595   2.078  1.2867  0.9674 -0.4650
  566SOL    HW2 1698   1.351   2.622   2.004  3.3601 -1.4397 -1.0249
  567SOL     OW 1699   1.971   2.498   0.966  0.2287  0.4142 -0.8393
  567SOL    HW1 1700   1.959   2.510   1.068  0.1391  1.4900  3.5388
  567SOL    HW2 1701   2.008   2.588   0.936  0.0235 -2.2341 -0.9892
  568SOL     OW 1702   2.091   0.794   0.535 -0.4106  0.3461  0.1120
  568SOL    HW1 1703   2.098   0.896   0.518 -0.6710  2.0353  1.4557
  568SOL    HW2 1704   2.012   0.753   0.480 -0.4762  0.9370  0.4372
  569SOL     OW 1705   2.702   1.847   2.545  0.1081 -0.0133  0.1496
  569SOL    HW1 1706   2.701   1.924   2.612  0.3524  0.3863 -0.9944
  569SOL    HW2 1707   2.664   1.767   2.591 -0.5423  1.4594  1.6461
  570SOL     OW 1708   2.931   0.122   1.143 -0.1414  0.4296  0.1153
  570SOL    HW1 1709   3.025   0.164   1.149 -2.6568 -2.2949 -1.8978
  570SOL    HW2 1710   2.861   0.190   1.178 -0.4992  3.3317  3.0508
  571SOL     OW 1711   3.036   0.429   1.537  0.1725 -0.1755 -0.0584
  571SOL    HW1 1712   0.007   0.469   1.598  4.1627 -0.0350  2.0705
  571SOL    HW2 1713   3.036   0.326   1.557  0.2656 -1.4397 -0.8317
  572SOL     OW 1714   2.989   2.645   0.871  0.5920  0.1259  0.1010
  572SOL    HW1 1715   2.964   2.577   0.800 -0.0197  0.6982 -0.4449
  572SOL    HW2 1716   3.041   2.610   0.951  0.6220 -1.6033  0.2289
  573SOL     OW 1717   0.812   0.674   3.039  0.5874  0.0785 -0.4827
  573SOL    HW1 1718   0.818   0.717   0.035  1.1582  0.6309 -1.2654
  573SOL    HW2 1719   0.799   0.570   3.049  1.9208 -1.1980 -0.2600
  574SOL     OW 1720   2.924   2.710   0.064 -0.0999  0.1684  0.3215
  574SOL    HW1 1721   2.823   2.712   0.069  1.4789 -1.4285  1.3554
  574SOL    HW2 1722   2.970   2.799   0.080 -0.2677  0.5321 -0.9399
  575SOL     OW 1723   1.517   2.330   1.304  0.9285  0.0881 -0.6386
  575SOL    HW1 1724   1.423   2.295   1.279 -1.2337  0.7639 -0.0594
  575SOL    HW2 1725   1.557   2.361   1.216  0.8306  1.2562 -0.8270
  576SOL     OW 1726   0.715   2.643   0.846 -0.2385 -0.9888 -0.1898
  576SOL    HW1 1727   0.792   2.583   0.816 -0.7460  1.5713 -1.7277
  576SOL    HW2 1728   0.733   2.720   0.908 -3.6152  1.7760 -1.4575
  577SOL     OW 1729   2.446   1.581   1.313 -0.4731 -0.1973 -0.3001
  577SOL    HW1 1730   2.532   1.613   1.271  1.6559 -0.1733 -2.2527
  577SOL    HW2 1731   2.460   1.558   1.414 -1.6335 -0.7758  0.8916
  578SOL     OW 1732   1.620   0.205   0.308 -0.4418  0.3167  0.3012
  578SOL    HW1 1733   1.708   0.201   0.253  4.2001 -3.3081 -0.7867
  578SOL    HW2 1734   1.543   0.229   0.249  2.6595  0.2765  1.6047
  579SOL     OW 1735   2.358   1.073   2.847  0.4762  0.2677  0.0962
  579SOL    HW1 1736   2.444   1.029   2.886  0.3660  1.6905  0.6317
  579SOL    HW2 1737   2.353   1.048   2.747  2.0392 -1.5026 -2.6633
  580SOL     OW 1738   1.987   0.553   2.034 -0.1367 -0.0698 -0.0312
  580SOL    HW1 1739   2.041   0.631   2.000  0.1020  1.4880 -0.3932
  580SOL    HW2 1740   1.980   0.564   2.134  0.9984 -0.6846 -0.2848
  581SOL     OW 1741   0.614   1.042   1.272 -0.5469  0.1287 -0.1251
  581SOL    HW1 1742   0.539   1.070   1.211  0.0015 -0.8098  2.7023
  581SOL    HW2 1743   0.696   1.027   1.214 -2.6508 -0.4109  0.8255
  582SOL     OW 1744   2.531   3.056   1.994  0.2619 -0.5361 -0.4189
  582SOL    HW1 1745   2.516   3.089   2.089  3.1972  2.9131 -1.3933
  582SOL    HW2 1746   2.471   0.012   1.933 -0.7161 -1.6182  1.8355
  583SOL     OW 1747   2.990   0.277   1.868 -0.1644  0.2611 -0.3076
  583SOL    HW1 1748   2.987   0.235   1.959 -0.2871  1.3356 -0.2432
  583SOL    HW2 1749   2.917   0.350   1.862  1.3728 -0.7097 -4.4741
  584SOL     OW 1750   1.354   1.889   2.728  0.0184 -0.3374  0.1532
  584SOL    HW1 1751   1.400   1.949   2.795 -2.2291  0.8536  3.0646
  584SOL    HW2 1752   1.411   1.880   2.647  0.1466  0.2586 -1.2248
  585SOL     OW 1753   0.274   2.934   2.938  0.6804  0.0692 -0.2103
  585SOL    HW1 1754   0.286   3.032   2.919 -0.3429 -0.9892  0.4054
  585SOL    HW2 1755   0.225   2.887   2.863 -1.6725  4.1231 -1.5249
  586SOL     OW 1756   1.810   1.655   2.476 -0.1585 -0.0976 -0.6578
  586SOL    HW1 1757   1.822   1.557   2.477 -0.4438  1.5975 -0.3477
  586SOL    HW2 1758   1.895   1.703   2.447 -2.7394 -0.0386  1.2727
  587SOL     OW 1759   2.497   2.292   0.353  0.7471 -0.4847 -0.2802
  587SOL    HW1 1760   2.392   2.304   0.346 -2.8686  3.3283 -2.7150
  587SOL    HW2 1761   2.527   2.251   0.266  0.6827 -1.3559 -1.2775
  588SOL     OW 1762   2.587   0.218   0.931  0.1012  0.4480 -0.4966
  588SOL    HW1 1763   2.529   0.138   0.903 -2.4190  1.2738  2.3017
  588SOL    HW2 1764   2.638   0.256   0.853 -0.3756  0.8366 -0.4494
  589SOL     OW 1765   0.592   0.783   0.706  0.3464 -0.1322 -0.0858
  589SOL    HW1 1766   0.649   0.716   0.651  0.5332  0.8055  1.9157
  589SOL    HW2 1767   0.513   0.812   0.654 -0.7106  1.0069  1.8109
  590SOL     OW 1768   2.062   2.027   0.385 -0.0624 -0.2015 -0.0968
  590SOL    HW1 1769   2.100   1.983   0.472  1.6422  0.3828  3.4904
  590SOL    HW2 1770   2.134   2.012   0.310  2.1795  0.4987  0.9849
  591SOL     OW 1771   0.513   2.331   1.074  0.0067  0.1212 -0.7319
  591SOL    HW1 1772   0.516   2.330   1.177 -0.7034 -0.2225 -3.1915
  591SOL    HW2 1773   0.452   2.404   1.042 -0.1449  1.1289  0.9871
  592SOL     OW 1774   0.925   0.638   1.290  0.1204 -0.4107  0.3367
  592SOL    HW1 1775   0.958   0.541   1.277  1.1746 -1.5065  1.4498
  592SOL    HW2 1776   0.822   0.633   1.294 -0.2225 -0.8944  0.4431
  593SOL     OW 1777   1.042   1.229   1.426  0.1127 -0.3703 -0.2324
  593SOL    HW1 1778   1.114   1.229   1.497 -1.2869  1.0505  3.1407
  593SOL    HW2 1779   0.970   1.294   1.457  0.7806 -0.9195 -0.4956
  594SOL     OW 1780   0.922   2.373   0.252 -0.1121  0.1535  0.0955
  594SOL    HW1 1781   0.897   2.326   0.161 -0.7274 -2.8077 -1.2909
  594SOL    HW2 1782   0.899   2.309   0.329  0.2405  1.2491  0.0446
  595SOL     OW 1783   1.678   0.457   1.373  0.1863 -0.1207 -0.8232
  595SOL    HW1 1784   1.650   0.555   1.381 -0.4942 -0.5024  0.1622
  595SOL    HW2 1785   1.708   0.411   1.460 -0.3312 -0.7259  1.4720
  596SOL     OW 1786   2.890   1.171   1.316  0.5945 -0.1040 -0.5336
  596SOL    HW1 1787   2.873   1.096   1.253  2.6180  0.8755  0.5588
  596SOL    HW2 1788   2.809   1.241   1.318 -0.6484  3.5734 -1.9536
  597SOL     OW 1789   0.426   2.602   2.342 -0.2471 -0.6488  0.4462
  597SOL    HW1 1790   0.436   2.589   2.445 -2.0153 -0.6405  1.0680
  597SOL    HW2 1791   0.495   2.555   2.287 -2.3019  2.6844  0.4608
  598SOL     OW 1792   2.649   2.132   1.946 -0.1680  0.3171 -0.0308
  598SOL    HW1 1793   2.638   2.118   1.846  1.2911  0.1169 -0.4080
  598SOL    HW2 1794   2.565   2.097   1.996 -0.5506 -0.4240 -0.5471
  599SOL     OW 1795   0.775   0.156   2.919  0.8576  0.1333  1.0711
  599SOL    HW1 1796   0.761   0.212   2.836 -0.7649  0.2459  2.0277
  599SOL    HW2 1797   0.722   0.070   2.928  2.2849 -0.1894 -1.1428
  600SOL     OW 1798   0.171   2.091   2.636 -0.3608  0.9269  0.0226
  600SOL    HW1 1799   0.106   2.166   2.658  0.1869 -0.2239  0.7571
  600SOL    HW2 1800   0.142   2.010   2.693 -0.6747 -0.9696 -0.8868
  601SOL     OW 1801   0.616   0.824   1.444 -0.5311 -0.3782 -0.0546
  601SOL    HW1 1802   0.610   0.739   1.387 -0.2738 -0.1729 -1.0095
  601SOL    HW2 1803   0.588   0.910   1.387 -0.9275  2.3065  0.1759
  602SOL     OW 1804   1.045   2.856   0.835  0.3638 -0.1349 -0.1350
  602SOL    HW1 1805   1.074   2.766   0.801 -0.3267  0.5564  1.3954
  602SOL    HW2 1806   0.999   2.855   0.926  0.4281 -0.5865 -0.0098
  603SOL     OW 1807   0.458   0.470   2.528 -0.2660 -0.2078 -0.1148
  603SOL    HW1 1808   0.556   0.473   2.508  1.1978  1.5207 -3.0928
  603SOL    HW2 1809   0.419   0.382   2.483 -0.6971 -2.3844  1.4235
  604SOL     OW 1810   0.583   2.780   1.523  0.3610 -0.0934 -0.0685
  604SOL    HW1 1811   0.546   2.799   1.616 -0.2702  0.3852 -0.8964
  604SOL    HW2 1812   0.507   2.774   1.454  1.8364  1.4496  0.7692
  605SOL     OW 1813   1.518   0.658   2.038 -0.0590  0.1337 -0.0683
  605SOL    HW1 1814   1.477   0.691   1.953  1.3333 -1.9404 -0.1225
  605SOL    HW2 1815   1.585   0.722   2.085 -0.4739 -1.4281  0.0321
  606SOL     OW 1816   2.433   2.783   2.887 -0.1625  0.3065 -0.1019
  606SOL    HW1 1817   2.422   2.680   2.915  1.0360 -0.8986  1.1193
  606SOL    HW2 1818   2.464   2.793   2.792  1.9683  1.4498 -1.7142
  607SOL     OW 1819   0.645   0.571   1.330 -0.2168 -0.3028  0.4901
  607SOL    HW1 1820   0.604   0.548   1.238  2.7293 -1.0688 -1.9219
  607SOL    HW2 1821   0.636   0.495   1.397  0.6769  0.1007  1.7683
  608SOL     OW 1822   0.106   1.724   2.389  0.3092 -0.1809  0.1913
  608SOL    HW1 1823   0.147   1.758   2.480  2.9022  1.0495 -1.4362
  608SOL    HW2 1824   0.040   1.796   2.352  1.4626  1.9271 -0.3540
  609SOL     OW 1825   1.599   1.388   0.546 -0.2537  0.3475  0.8817
  609SOL    HW1 1826   1.517   1.353   0.491  0.2306 -1.0935  2.5308
  609SOL    HW2 1827   1.666   1.445   0.491 -0.2782  1.4691  2.7905
  610SOL     OW 1828   0.183   0.641   1.090  0.0174  0.6107  0.4189
  610SOL    HW1 1829   0.200   0.545   1.115 -0.4183 -1.0419  1.9013
  610SOL    HW2 1830   0.266   0.706   1.086  0.7731  1.5361 -2.3142
  611SOL     OW 1831   1.596   0.951   0.732  0.1839  0.1256 -0.1585
  611SOL    HW1 1832   1.626   1.044   0.766 -2.8248  0.9237  0.4969
  611SOL    HW2 1833   1.579   0.946   0.631 -0.6277 -1.9880 -2.0427
  612SOL     OW 1834   1.775   1.170   0.494 -0.7612 -0.6951 -0.3853
  612SOL    HW1 1835   1.703   1.246   0.499 -2.3687  0.0292 -2.4827
  612SOL    HW2 1836   1.732   1.080   0.503  0.2153 -0.3273 -3.4121
  613SOL     OW 1837   1.843   0.758   0.368 -0.1859 -0.3446  0.2331
  613SOL    HW1 1838   1.909   0.775   0.294  2.0817 -1.0661  0.6216
  613SOL    HW2 1839   1.748   0.774   0.333 -2.1386 -1.3543  1.9191
  614SOL     OW 1840   2.767   0.200   2.454 -0.6208  0.3445  0.6226
  614SOL    HW1 1841   2.776   0.194   2.354 -1.0924 -1.1212  0.9003
  614SOL    HW2 1842   2.694   0.271   2.483 -0.5554  0.4964  1.0849
  615SOL     OW 1843   0.531   1.670   0.901  0.0287  0.7179 -0.3784
  615SOL    HW1 1844   0.578   1.659   0.811 -0.3936  0.7585  0.3550
  615SOL    HW2 1845   0.510   1.769   0.925  0.8897  0.9743  0.3195
  616SOL     OW 1846   1.455   1.204   2.556  0.4962  0.6760  0.5113
  616SOL    HW1 1847   1.476   1.122   2.495  1.1028  1.6015  0.8119
  616SOL    HW2 1848   1.349   1.212   2.569 -5.7282 -0.7839 -0.7575
  617SOL     OW 1849   1.273   0.498   2.855  0.1616 -0.1547  0.0669
  617SOL    HW1 1850   1.198   0.492   2.928 -2.3560 -3.3677  1.0071
  617SOL    HW2 1851   1.323   0.410   2.847  0.8399  2.8337  1.1733
  618SOL     OW 1852   1.782   2.447   2.576 -0.4071  0.2604  0.0375
  618SOL    HW1 1853   1.727   2.482   2.498  0.2362  0.1948 -3.5647
  618SOL    HW2 1854   1.781   2.515   2.652 -1.1591  0.2631  1.1654
  619SOL     OW 1855   2.307   1.913   1.036 -0.4830  0.3863  0.0559
  619SOL    HW1 1856   2.286   1.990   0.969 -0.1248  3.0749  1.1266
  619SOL    HW2 1857   2.314   1.834   0.965  2.5167 -0.7485 -1.5537
  620SOL     OW 1858   1.906   2.834   2.277  0.2936 -0.0329 -0.0925
  620SOL    HW1 1859   1.973   2.757   2.293 -0.5189 -0.5935 -2.4990
  620SOL    HW2 1860   1.873   2.874   2.364 -2.0723 -1.7264 -0.0107
  621SOL     OW 1861   0.082   1.410   0.645 -0.0670  0.1041  0.0758
  621SOL    HW1 1862   0.123   1.496   0.611  1.3221 -1.9961 -1.5575
  621SOL    HW2 1863   3.097   1.416   0.701 -0.7106 -1.4550 -2.1992
  622SOL     OW 1864   1.373   1.445   2.864  0.5053 -0.2769 -0.6231
  622SOL    HW1 1865   1.335   1.501   2.790 -1.0902 -0.0728 -0.6420
  622SOL    HW2 1866   1.474   1.450   2.866 -2.4565  1.4048 -1.4846
  623SOL     OW 1867   2.899   2.424   2.176  0.0673 -0.3816  0.9292
  623SOL    HW1 1868   2.801   2.423   2.213 -1.9789  2.3193 -2.6717
  623SOL    HW2 1869   2.946   2.514   2.195 -1.9818  0.0689 -0.3077
  624SOL     OW 1870   0.642   2.610   2.965 -0.0276 -0.6770  0.6704
  624SOL    HW1 1871   0.728   2.557   2.978 -0.0247 -2.7688  0.2726
  624SOL    HW2 1872   0.632   2.692   3.028 -0.2940  1.1415  0.7130
  625SOL     OW 1873   0.424   1.753   1.965  0.0772  0.1378 -0.6708
  625SOL    HW1 1874   0.389   1.736   2.060 -1.4499 -0.2926 -1.5218
  625SOL    HW2 1875   0.345   1.744   1.897 -1.8643 -1.6974  0.1670
  626SOL     OW 1876   0.654   3.016   2.979  0.2024  0.5826  0.4424
  626SOL    HW1 1877   0.692   2.942   2.924  0.7460  0.2174  1.6269
  626SOL    HW2 1878   0.629   2.971   3.068 -1.0931 -1.3991  1.6156
  627SOL     OW 1879   1.691   1.371   0.187 -0.0769  0.5606 -0.3279
  627SOL    HW1 1880   1.752   1.315   0.132 -2.4062 -0.2522  1.1046
  627SOL    HW2 1881   1.746   1.432   0.247  0.5030 -1.9983 -0.9430
  628SOL     OW 1882   1.287   2.174   0.653  0.2037  0.1469 -0.9498
  628SOL    HW1 1883   1.285   2.172   0.755  2.0086 -0.0817 -1.9993
  628SOL    HW2 1884   1.234   2.250   0.611  0.3129 -0.8717  2.9058
  629SOL     OW 1885   3.042   0.176   1.626  0.1188 -0.3425 -0.3269
  629SOL    HW1 1886   3.063   0.074   1.620  1.6009 -0.6311 -0.6316
  629SOL    HW2 1887   3.024   0.211   1.722 -1.8181  2.6926  0.2554
  630SOL     OW 1888   2.423   0.626   1.792 -0.0889  0.1818  0.2706
  630SOL    HW1 1889   2.470   0.610   1.701 -1.0985  1.8287  2.5640
  630SOL    HW2 1890   2.398   0.539   1.838  2.8101  2.5969  1.7010
  631SOL     OW 1891   1.259   0.473   1.036 -0.0079 -0.6316 -0.5970
  631SOL    HW1 1892   1.331   0.484   0.967 -2.5930  2.7180  0.8279
  631SOL    HW2 1893   1.183   0.411   1.009  1.6178  1.5535 -0.2036
  632SOL     OW 1894   2.790   0.740   2.049  0.2321 -0.2957  0.2952
  632SOL    HW1 1895   2.691   0.734   2.048  3.4745  0.8054 -0.3703
  632SOL    HW2 1896   2.828   0.711   1.961 -2.6672  1.2113 -0.1117
  633SOL     OW 1897   1.312   0.939   2.938  0.2716  0.4868  0.3317
  633SOL    HW1 1898   1.290   1.035   2.905 -0.6143 -2.4431 -1.2365
  633SOL    HW2 1899   1.233   0.874   2.928 -0.7368 -1.3072 -0.2638
  634SOL     OW 1900   0.580   2.821   0.040  0.0116 -0.5334  0.8238
  634SOL    HW1 1901   0.496   2.762   0.028 -0.4058 -3.1473  1.7125
  634SOL    HW2 1902   0.580   2.860   0.136 -1.9184  0.3439  1.8283
  635SOL     OW 1903   0.074   1.486   1.493  0.0928  0.1869  0.0958
  635SOL    HW1 1904   0.053   1.431   1.415  2.7094 -1.9377  1.2004
  635SOL    HW2 1905   0.153   1.541   1.472 -0.6928  0.4716 -0.9534
  636SOL     OW 1906   0.171   1.659   0.130 -0.0066  0.2433 -0.2729
  636SOL    HW1 1907   0.187   1.623   0.224  1.6413  0.8930  2.5359
  636SOL    HW2 1908   0.073   1.663   0.104 -0.3284 -0.0343 -0.6900
  637SOL     OW 1909   3.063   2.605   0.567  0.4480  0.0789 -0.2367
  637SOL    HW1 1910   3.064   2.640   0.471 -1.8594  0.4415  0.7293
  637SOL    HW2 1911   3.010   2.519   0.569 -2.4083 -0.1074 -0.4191
  638SOL     OW 1912   2.499   2.528   0.173  0.4821  0.0128  0.1669
  638SOL    HW1 1913   2.396   2.523   0.153 -1.7376  1.1264  1.3001
  638SOL    HW2 1914   2.535   2.443   0.217 -0.1485 -0.5445  0.0490
  639SOL     OW 1915   1.461   0.328   2.600  0.0708  0.1582 -0.8564
  639SOL    HW1 1916   1.363   0.329   2.575 -1.4361 -0.4966 -0.5954
  639SOL    HW2 1917   1.516   0.275   2.534  2.3779 -0.8040 -0.6415
  640SOL     OW 1918   2.191   1.994   1.577  0.6119  0.2597  0.1970
  640SOL    HW1 1919   2.160   2.002   1.481  1.4525  1.5724 -2.5662
  640SOL    HW2 1920   2.268   2.053   1.594  1.9052  0.2778 -0.8839
  641SOL     OW 1921   2.942   0.074   0.864 -0.2168  0.2266  0.1176
  641SOL    HW1 1922   2.932   0.090   0.966  1.9777  0.1772  0.1626
  641SOL    HW2 1923   2.862   0.020   0.833  1.7919  0.6798  0.6348
  642SOL     OW 1924   1.226   1.138   1.947  0.2121 -0.0085 -0.0424
  642SOL    HW1 1925   1.234   1.190   2.034 -2.7837  0.7693  2.2385
  642SOL    HW2 1926   1.130   1.131   1.914 -0.0875  0.0361 -0.4568
  643SOL     OW 1927   0.560   1.803   2.346  0.3829 -0.6130 -0.0964
  643SOL    HW1 1928   0.481   1.769   2.296  0.3350  1.7310  0.7926
  643SOL    HW2 1929   0.617   1.868   2.291  0.1121 -1.2122  0.7524
  644SOL     OW 1930   1.461   2.880   2.378  0.1754  0.1424 -0.6205
  644SOL    HW1 1931   1.451   2.909   2.280  1.5888  1.4696  0.4785
  644SOL    HW2 1932   1.374   2.842   2.414 -0.9427  0.2097 -1.4728
  645SOL     OW 1933   1.422   0.757   1.810 -0.0057  0.4187 -0.2839
  645SOL    HW1 1934   1.491   0.821   1.765  2.4036  0.2002  0.6537
  645SOL    HW2 1935   1.326   0.790   1.795 -2.2023 -3.2638 -0.1518
  646SOL     OW 1936   1.107   2.262   2.778  0.2924  0.0882  0.0820
  646SOL    HW1 1937   1.169   2.295   2.705  1.6747 -0.7747  0.3050
  646SOL    HW2 1938   1.086   2.162   2.775  0.6762  4.1844 -0.2804
  647SOL     OW 1939   1.462   2.792   0.651  0.0747 -0.1200  0.2957
  647SOL    HW1 1940   1.519   2.703   0.660 -1.7879 -0.3314 -2.1029
  647SOL    HW2 1941   1.518   2.865   0.609  0.2289  1.5457 -3.1205
  648SOL     OW 1942   2.782   2.628   1.307  0.2547  0.0293 -0.0740
  648SOL    HW1 1943   2.748   2.591   1.217  0.3524 -0.1811 -1.3421
  648SOL    HW2 1944   2.874   2.587   1.327  0.2463 -1.7590  1.7663
  649SOL     OW 1945   0.913   2.335   2.364 -0.1015 -0.4595 -0.5277
  649SOL    HW1 1946   1.000   2.280   2.360  0.6826  1.7387 -0.3934
  649SOL    HW2 1947   0.832   2.290   2.416 -1.4636  0.8138  0.0664
  650SOL     OW 1948   2.363   1.872   2.615  0.3846 -0.3022 -0.6612
  650SOL    HW1 1949   2.442   1.886   2.678  0.4730 -1.9943 -1.8168
  650SOL    HW2 1950   2.360   1.951   2.550  0.6547  2.7313  0.8660
  651SOL     OW 1951   2.443   2.310   2.280 -0.0540 -0.9715  0.6046
  651SOL    HW1 1952   2.447   2.336   2.180  1.6658 -2.6220 -2.5636
  651SOL    HW2 1953   2.351   2.274   2.289  2.0834  0.5122 -2.7001
  652SOL     OW 1954   2.640   2.472   1.111  0.1221 -0.0022  0.4510
  652SOL    HW1 1955   2.723   2.423   1.079 -2.5468  1.0918  0.8467
  652SOL    HW2 1956   2.562   2.405   1.131  0.0726 -1.2874 -0.1522
  653SOL     OW 1957   2.780   1.272   1.021  1.0067  0.0689 -0.3290
  653SOL    HW1 1958   2.714   1.295   1.097 -0.8331 -0.2609 -0.3023
  653SOL    HW2 1959   2.828   1.184   1.037  0.9413 -0.3726  1.1749
  654SOL     OW 1960   0.997   0.429   2.720 -0.6420 -0.0535  0.2887
  654SOL    HW1 1961   0.904   0.382   2.728 -3.1804 -0.3939  0.6302
  654SOL    HW2 1962   1.044   0.438   2.808 -1.0509  1.4688  0.7002
  655SOL     OW 1963   0.843   0.129   0.967  0.1917 -0.2632 -0.2454
  655SOL    HW1 1964   0.909   0.187   0.919 -3.1875 -0.8550 -0.2372
  655SOL    HW2 1965   0.876   0.104   1.065 -0.9633 -0.3687 -0.1208
  656SOL     OW 1966   0.488   2.355   1.834  0.5321  0.5783 -0.2322
  656SOL    HW1 1967   0.505   2.258   1.845 -1.0913  1.3562  0.5661
  656SOL    HW2 1968   0.579   2.404   1.840  1.9595  0.6239 -0.1598
  657SOL     OW 1969   2.573   0.875   0.233 -0.2902 -0.0060 -0.1449
  657SOL    HW1 1970   2.563   0.837   0.140 -1.1795 -1.7709 -0.6734
  657SOL    HW2 1971   2.609   0.970   0.237  0.7254  2.3643  1.7481
  658SOL     OW 1972   1.950   2.207   1.028 -0.6374 -0.0663 -0.6239
  658SOL    HW1 1973   1.897   2.121   1.017  1.4531  1.0372 -1.2167
  658SOL    HW2 1974   1.895   2.286   1.054  0.3831  1.6846 -2.4925
  659SOL     OW 1975   2.565   1.815   2.911 -0.1807  0.5377 -0.0847
  659SOL    HW1 1976   2.579   1.714   2.908 -0.5220 -1.0429 -0.0931
  659SOL    HW2 1977   2.640   1.862   2.861 -1.5709  1.8711  0.8026
  660SOL     OW 1978   0.923   0.476   0.412 -0.2249  0.2362  0.2366
  660SOL    HW1 1979   0.949   0.395   0.475 -1.3351 -2.0965  0.8673
  660SOL    HW2 1980   1.008   0.509   0.366  1.3727 -3.0878 -1.0897
  661SOL     OW 1981   1.760   3.058   0.146 -0.8114 -0.3886 -0.0700
  661SOL    HW1 1982   1.828   2.980   0.153  2.5199  1.1484  0.6004
  661SOL    HW2 1983   1.810   0.049   0.161 -0.6759  1.7703 -0.1348
  662SOL     OW 1984   0.814   2.864   0.651 -0.0928  0.0396  0.0035
  662SOL    HW1 1985   0.759   2.949   0.671 -2.0514  2.8762  3.1651
  662SOL    HW2 1986   0.874   2.845   0.733 -0.0887 -0.6259  1.7153
  663SOL     OW 1987   1.345   0.080   2.120 -0.0602 -0.1655 -0.7884
  663SOL    HW1 1988   1.365   0.161   2.177 -4.1855  2.1527  0.7790
  663SOL    HW2 1989   1.270   0.103   2.059  0.2187  1.3855  2.2519
  664SOL     OW 1990   0.772   2.345   1.419 -0.0778  0.2150  0.3660
  664SOL    HW1 1991   0.684   2.334   1.364 -0.8990 -1.2783 -1.9065
  664SOL    HW2 1992   0.769   2.437   1.464 -0.0921  2.7385 -0.0340
  665SOL     OW 1993   0.942   2.154   1.471 -0.2094  0.1823  0.0427
  665SOL    HW1 1994   1.038   2.184   1.495  0.1744  1.1391  2.2735
  665SOL    HW2 1995   0.886   2.238   1.445  1.4307  4.0413 -2.1950
  666SOL     OW 1996   0.566   3.004   2.377 -0.3028 -0.0104  0.0278
  666SOL    HW1 1997   0.608   3.095   2.397  1.4771  1.0272 -1.8850
  666SOL    HW2 1998   0.586   2.940   2.455 -0.6695  0.5481  0.4275
  667SOL     OW 1999   2.037   1.453   1.813  0.0344  1.0729  0.5957
  667SOL    HW1 2000   2.080   1.416   1.728 -0.1715 -0.1740 -1.6635
  667SOL    HW2 2001   2.087   1.536   1.846  1.0155  0.3655 -0.0532
  668SOL     OW 2002   1.860   2.946   1.594 -0.4093 -1.0479  0.0278
  668SOL    HW1 2003   1.809   2.889   1.664 -0.0549  0.7815 -1.6556
  668SOL    HW2 2004   1.828   3.042   1.600 -0.8372 -2.1256 -0.8790
  669SOL     OW 2005   2.531   2.710   1.076 -0.3634 -0.1908  0.7212
  669SOL    HW1 2006   2.582   2.624   1.078  0.7564  0.0933  1.6719
  669SOL    HW2 2007   2.518   2.744   0.981 -0.7041 -1.0755 -2.0555
  670SOL     OW 2008   1.217   2.291   3.036  0.3268  0.7400 -0.7832
  670SOL    HW1 2009   1.172   2.339   0.018 -1.8534 -1.3139  0.7139
  670SOL    HW2 2010   1.170   2.307   2.944 -5.6029 -0.5038  2.6022
  671SOL     OW 2011   0.569   1.022   0.460  0.0020 -0.1533  0.0493
  671SOL    HW1 2012   0.571   1.089   0.385 -1.5001  0.7949 -2.0443
  671SOL    HW2 2013   0.545   1.059   0.552 -0.3506 -2.1828  1.0798
  672SOL     OW 2014   2.788   1.249   2.717 -0.6181 -0.2285 -0.7756
  672SOL    HW1 2015   2.849   1.179   2.679 -0.7763  0.9832  0.8377
  672SOL    HW2 2016   2.699   1.248   2.673  2.7733  0.5688 -2.0629
  673SOL     OW 2017   3.008   2.115   1.604 -0.3247  0.4203  0.0426
  673SOL    HW1 2018   0.007   2.094   1.607 -2.1195  0.9329 -0.8112
  673SOL    HW2 2019   2.955   2.058   1.666  0.6382 -2.1004 -1.5673
  674SOL     OW 2020   0.675   2.269   2.080  0.1372 -0.0715  0.2518
  674SOL    HW1 2021   0.649   2.252   2.179  0.4096  0.1740  0.1652
  674SOL    HW2 2022   0.625   2.210   2.011 -1.8188 -1.3569  2.1867
  675SOL     OW 2023   1.024   0.600   1.724  0.7227 -0.3648  0.6606
  675SOL    HW1 2024   0.922   0.604   1.728 -0.6975 -0.5221 -0.1386
  675SOL    HW2 2025   1.057   0.615   1.630  0.1190 -1.0794  2.1791
  676SOL     OW 2026   1.912   0.116   1.300 -0.1453 -0.4341  0.0325
  676SOL    HW1 2027   1.932   0.021   1.271  0.7261 -0.2320  1.6915
  676SOL    HW2 2028   1.876   0.116   1.396  1.1260 -2.2216  0.5835
  677SOL     OW 2029   2.466   1.363   2.987 -0.6009 -0.0334  0.0967
  677SOL    HW1 2030   2.446   1.394   2.889  1.8115 -0.2456  1.0620
  677SOL    HW2 2031   2.504   1.266   2.986 -1.1081 -0.0391  0.8780
  678SOL     OW 2032   2.665   1.322   1.259 -0.3090 -0.0899  0.0888
  678SOL    HW1 2033   2.655   1.422   1.242 -2.0424  0.4044  2.3930
  678SOL    HW2 2034   2.587   1.288   1.321 -1.9189 -0.6753  0.9211
  679SOL     OW 2035   2.584   0.457   0.074  0.6410  0.6078 -0.0565
  679SOL    HW1 2036   2.571   0.391   0.145  1.4964  3.0765 -0.1895
  679SOL    HW2 2037   2.685   0.473   0.050 -1.7422  0.6358 -0.1523
  680SOL     OW 2038   0.563   1.505   1.931  0.4149 -0.1578  0.4026
  680SOL    HW1 2039   0.551   1.605   1.946  0.7664  2.2643 -1.1491
  680SOL    HW2 2040   0.533   1.445   2.007 -0.7695  0.8061  1.0494
  681SOL     OW 2041   2.655   2.042   1.695 -0.2067 -0.1100  0.2733
  681SOL    HW1 2042   2.681   2.036   1.595  0.4859 -2.5819  2.0264
  681SOL    HW2 2043   2.675   1.958   1.750  0.0748 -0.7427  0.0584
  682SOL     OW 2044   0.195   2.095   3.079  0.0913  0.2314 -0.2141
  682SOL    HW1 2045   0.235   2.009   0.032  0.4726 -0.8822  4.1259
  682SOL    HW2 2046   0.093   2.096   0.002 -0.6860  0.8780  0.7588
  683SOL     OW 2047   2.970   2.070   1.262 -0.1986 -0.0006 -0.2839
  683SOL    HW1 2048   2.935   1.988   1.211 -0.2110 -0.1690  0.0655
  683SOL    HW2 2049   3.039   2.037   1.332  1.4879 -0.4508  1.4655
  684SOL     OW 2050   2.937   1.315   2.214  0.7350 -0.7031 -0.4269
  684SOL    HW1 2051   2.911   1.397   2.273  1.8211  0.2420  0.4292
  684SOL    HW2 2052   2.873   1.305   2.133  0.5448 -1.5689 -2.0544
  685SOL     OW 2053   1.473   0.455   0.365 -0.0136 -0.6165  0.1554
  685SOL    HW1 2054   1.491   0.448   0.265 -0.3784  0.6672  3.5683
  685SOL    HW2 2055   1.385   0.413   0.383  0.8505  1.1617  1.0568
  686SOL     OW 2056   0.639   0.404   0.702  0.5529 -0.4248 -0.0906
  686SOL    HW1 2057   0.693   0.489   0.686  0.8533  0.0746  2.9196
  686SOL    HW2 2058   0.543   0.414   0.664 -0.1466  0.5678  2.6272
  687SOL     OW 2059   0.568   1.935   2.590 -0.3682  0.1350 -0.0962
  687SOL    HW1 2060   0.540   1.870   2.512 -0.1217 -0.0991 -2.2988
  687SOL    HW2 2061   0.517   2.025   2.590 -1.6862 -1.3280 -0.1204
  688SOL     OW 2062   1.981   0.336   1.596 -0.0376 -0.5937 -0.1656
  688SOL    HW1 2063   2.052   0.310   1.527 -1.5175  2.3585 -0.8526
  688SOL    HW2 2064   1.942   0.426   1.581  2.3326 -1.9224  2.2830
  689SOL     OW 2065   1.453   0.431   0.765  0.5179 -0.5886  0.0524
  689SOL    HW1 2066   1.506   0.391   0.845  3.3765 -0.6548  0.0453
  689SOL    HW2 2067   1.501   0.518   0.735 -1.7585  2.0111  0.3544
  690SOL     OW 2068   0.012   1.310   1.294  0.7032 -0.2522  0.6324
  690SOL    HW1 2069   3.030   1.251   1.322  0.5629  1.7737 -0.5484
  690SOL    HW2 2070   0.034   1.303   1.193  0.6925  0.0546 -3.4544
  691SOL     OW 2071   0.285   2.127   1.250  0.8148  0.3633  0.1489
  691SOL    HW1 2072   0.360   2.194   1.282  2.4331 -0.4157 -0.3156
  691SOL    HW2 2073   0.315   2.029   1.259 -0.1490 -1.9360 -0.4096
  692SOL     OW 2074   1.266   0.072   1.536  0.1661  0.0767  0.1710
  692SOL    HW1 2075   1.271   3.077   1.574  2.2909  0.5860 -0.1804
  692SOL    HW2 2076   1.352   0.109   1.495  1.2670 -0.7793 -0.4430
  693SOL     OW 2077   0.910   1.630   2.085  0.1560 -0.5792 -0.0300
  693SOL    HW1 2078   0.832   1.678   2.044  2.9722  0.9017 -0.4502
  693SOL    HW2 2079   0.954   1.571   2.018 -1.2510  2.7852  2.3707
  694SOL     OW 2080   1.854   1.494   0.847  0.2726 -0.2908  0.5996
  694SOL    HW1 2081   1.778   1.481   0.913  0.3317 -0.4579  0.9036
  694SOL    HW2 2082   1.864   1.413   0.788  1.0048 -0.5506 -2.1995
  695SOL     OW 2083   1.012   0.887   1.343  0.0252  0.5655  0.2343
  695SOL    HW1 2084   1.034   0.940   1.261  1.4528 -1.3840 -2.0401
  695SOL    HW2 2085   0.973   0.791   1.326  1.5504 -0.7063 -0.3504
  696SOL     OW 2086   0.375   0.041   0.477 -0.2655  0.2758  0.3498
  696SOL    HW1 2087   0.368   0.065   0.375  0.4413  1.0343 -0.6954
  696SOL    HW2 2088   0.284   0.003   0.502 -0.2743 -0.2793 -0.7351
  697SOL     OW 2089   1.996   0.520   1.130  0.3649 -0.2643  0.1895
  697SOL    HW1 2090   1.987   0.545   1.033  0.1900 -0.5780  0.0349
  697SOL    HW2 2091   1.944   0.437   1.156  0.2891  0.4836  0.3266
  698SOL     OW 2092   1.550   1.425   1.835 -0.3729 -0.4987 -0.7970
  698SOL    HW1 2093   1.642   1.465   1.823 -3.0403 -0.4752 -0.3145
  698SOL    HW2 2094   1.552   1.336   1.886 -1.4707  0.2861 -1.1697
  699SOL     OW 2095   0.018   0.159   2.223  0.3496  0.1432  0.3992
  699SOL    HW1 2096   3.041   0.103   2.266 -1.7811 -3.1791  1.1867
  699SOL    HW2 2097   0.001   0.259   2.232 -2.3585 -0.5356  0.8373
  700SOL     OW 2098   1.349   2.527   0.797  0.2038  0.6530  0.1592
  700SOL    HW1 2099   1.392   2.498   0.708  1.2254  1.9482 -2.1892
  700SOL    HW2 2100   1.408   2.562   0.871  0.9575  0.3449  0.4706
  701SOL     OW 2101   0.051   1.473   2.548 -0.5985  0.1837 -0.1077
  701SOL    HW1 2102   0.061   1.564   2.494  2.4289  2.1247 -0.4962
  701SOL    HW2 2103   0.072   1.475   2.648  0.1016  0.2745  2.3815
  702SOL     OW 2104   0.679   0.173   0.568 -0.2688  0.3668  0.7761
  702SOL    HW1 2105   0.678   0.257   0.625 -0.7557  0.0379 -1.0280
  702SOL    HW2 2106   0.637   0.095   0.621  1.4363  2.2351 -1.4171
  703SOL     OW 2107   1.846   0.019   2.784 -0.7478 -0.0119  0.1991
  703SOL    HW1 2108   1.917   0.035   2.857 -0.3730  0.0145 -0.8966
  703SOL    HW2 2109   1.762   0.064   2.821  0.1069  1.9616  1.8101
  704SOL     OW 2110   2.493   1.897   0.258 -0.2959 -0.3954 -0.3213
  704SOL    HW1 2111   2.583   1.931   0.227 -0.9817  0.4863  1.6397
  704SOL    HW2 2112   2.497   1.886   0.361 -1.4143  0.2456  2.7917
  705SOL     OW 2113   2.662   2.139   2.324  0.4038 -0.1296  0.3406
  705SOL    HW1 2114   2.600   2.217   2.301 -0.0882  3.6742 -3.1358
  705SOL    HW2 2115   2.763   2.170   2.328 -0.1921 -0.5090 -0.0656
  706SOL     OW 2116   2.881   2.842   0.352 -0.3146 -0.2695  0.3891
  706SOL    HW1 2117   2.851   2.745   0.359 -1.3010 -0.5002  0.1744
  706SOL    HW2 2118   2.803   2.904   0.329  1.0753 -2.7429 -1.4469
  707SOL     OW 2119   1.117   0.145   0.000  0.2271 -0.0828  0.0169
  707SOL    HW1 2120   1.136   0.083   3.018  0.3176  1.8470 -0.6001
  707SOL    HW2 2121   1.018   0.144   0.018  1.1514  2.4158 -0.6010
  708SOL     OW 2122   0.211   2.085   1.646 -0.6167 -0.2934  0.6653
  708SOL    HW1 2123   0.190   2.091   1.745  3.1419 -2.5813 -0.4629
  708SOL    HW2 2124   0.268   2.005   1.630  0.0258  1.3831  0.5519
  709SOL     OW 2125   1.260   2.853   1.853 -1.0220  0.0764 -0.7704
  709SOL    HW1 2126   1.214   2.774   1.900 -0.3668 -2.6926  0.3201
  709SOL    HW2 2127   1.256   2.938   1.905 -1.3154 -1.0199  0.7765
  710SOL     OW 2128   1.741   2.611   2.790  0.1198 -0.0822 -0.3370
  710SOL    HW1 2129   1.763   2.703   2.829 -2.0347 -1.8072 -2.1974
  710SOL    HW2 2130   1.641   2.603   2.802  1.5269  1.5039  0.3818
  711SOL     OW 2131   1.117   2.528   2.575 -0.6016 -0.3197  0.3783
  711SOL    HW1 2132   1.019   2.512   2.557 -0.0775 -1.2441 -0.8374
  711SOL    HW2 2133   1.174   2.444   2.553 -2.3766 -3.4222  0.9630
  712SOL     OW 2134   1.100   1.974   2.836 -0.1314  0.2170  0.1496
  712SOL    HW1 2135   1.194   1.979   2.798 -0.6271 -0.8044 -0.4575
  712SOL    HW2 2136   1.077   1.877   2.858  0.6198  1.7135 -3.8615
  713SOL     OW 2137   1.646   0.840   1.669 -0.3618 -0.2540  0.6704
  713SOL    HW1 2138   1.690   0.754   1.683 -2.7779  3.1277  0.1315
  713SOL    HW2 2139   1.720   0.912   1.658  1.8453 -1.6471 -1.0613
  714SOL     OW 2140   1.292   1.386   1.786  0.4706  0.1428 -0.4717
  714SOL    HW1 2141   1.387   1.425   1.784  0.3422 -2.7940  0.8473
  714SOL    HW2 2142   1.287   1.307   1.724  1.8399  1.3097  0.9822
  715SOL     OW 2143   2.782   0.056   0.309 -0.1453 -0.3275 -0.3812
  715SOL    HW1 2144   2.874   0.099   0.283 -0.1465 -1.4332 -1.9136
  715SOL    HW2 2145   2.734   0.000   0.240 -0.9570  1.1080  3.0453
  716SOL     OW 2146   0.433   2.571   0.941 -0.2552  0.1209 -0.2451
  716SOL    HW1 2147   0.525   2.611   0.936 -4.2182  0.4476  1.8434
  716SOL    HW2 2148   0.381   2.576   0.851  0.0881 -3.2622  1.0625
  717SOL     OW 2149   2.719   0.702   0.373 -0.3143 -0.0279  0.5561
  717SOL    HW1 2150   2.675   0.614   0.408 -1.7043 -1.7252  0.2672
  717SOL    HW2 2151   2.657   0.751   0.304 -3.1328  1.2314 -2.4100
  718SOL     OW 2152   1.788   1.333   1.265  0.1130  0.1900 -0.5450
  718SOL    HW1 2153   1.729   1.399   1.312  0.2588 -1.5298  1.6070
  718SOL    HW2 2154   1.753   1.238   1.282 -0.2486 -0.9519 -2.7014
  719SOL     OW 2155   2.610   2.733   0.033  0.1020  0.5911  0.2013
  719SOL    HW1 2156   2.560   2.761   3.048  0.2679 -0.3464 -0.0272
  719SOL    HW2 2157   2.559   2.656   0.079 -2.5783 -0.7582 -0.2751
  720SOL     OW 2158   1.102   0.674   1.080 -0.4783  0.4482  0.2159
  720SOL    HW1 2159   1.170   0.596   1.081  0.5841  1.5070 -0.1759
  720SOL    HW2 2160   1.036   0.669   1.155 -1.6728 -0.2496  0.6835
  721SOL     OW 2161   1.907   0.208   0.922  0.1837  0.3778 -0.2364
  721SOL    HW1 2162   2.006   0.212   0.935 -1.3201 -1.1346 -2.3385
  721SOL    HW2 2163   1.859   0.264   0.993  0.5705  1.3344  3.5469
  722SOL     OW 2164   0.919   1.916   1.838  0.2455 -0.0428  0.0452
  722SOL    HW1 2165   0.852   1.928   1.911 -0.8802  1.8906 -0.5953
  722SOL    HW2 2166   1.011   1.955   1.865 -0.5171 -1.5165 -1.1063
  723SOL     OW 2167   1.143   3.075   1.306 -0.5630 -0.3372 -0.8221
  723SOL    HW1 2168   1.197   3.068   1.222  0.2482  0.8140  1.1143
  723SOL    HW2 2169   1.197   0.019   1.377 -2.1240 -2.3010 -1.8289
  724SOL     OW 2170   1.762   1.908   1.879  0.0222 -0.0784 -0.5948
  724SOL    HW1 2171   1.824   1.941   1.806 -0.5099 -2.7043 -0.6661
  724SOL    HW2 2172   1.803   1.817   1.916 -1.7205 -3.0041  1.5226
  725SOL     OW 2173   1.455   2.728   1.517  0.3203 -0.0368  0.1417
  725SOL    HW1 2174   1.535   2.785   1.498 -3.4506 -2.2043  0.8486
  725SOL    HW2 2175   1.473   2.668   1.598 -0.0827  0.0183 -2.9757
  726SOL     OW 2176   1.865   0.228   0.168  0.4672  0.4320  0.7229
  726SOL    HW1 2177   1.876   0.227   0.066  0.7795 -1.8842  0.7459
  726SOL    HW2 2178   1.898   0.314   0.206 -0.9928 -2.3947  1.4361
  727SOL     OW 2179   1.335   1.846   0.719 -0.0365  0.1734 -0.0341
  727SOL    HW1 2180   1.394   1.882   0.792 -0.9974 -0.5012 -0.2540
  727SOL    HW2 2181   1.322   1.916   0.650 -0.2757 -1.5708 -0.3742
  728SOL     OW 2182   1.865   2.928   2.533 -0.3656 -0.7902 -0.3673
  728SOL    HW1 2183   1.774   2.882   2.537 -1.2619  1.5536 -0.0963
  728SOL    HW2 2184   1.858   3.018   2.580 -0.6975  2.8564 -0.2762
  729SOL     OW 2185   2.308   2.480   1.653  0.0207  0.0881  0.0452
  729SOL    HW1 2186   2.404   2.483   1.625  0.4218  1.5325  2.6236
  729SOL    HW2 2187   2.301   2.412   1.729 -0.7429 -2.5100 -0.7299
  730SOL     OW 2188   1.717   0.581   2.502 -0.3874  0.6702 -0.0815
  730SOL    HW1 2189   1.711   0.557   2.601 -0.8032  0.1982  2.6679
  730SOL    HW2 2190   1.705   0.494   2.447 -3.8868  1.4774 -0.6023
  731SOL     OW 2191   0.500   3.085   1.259  0.0284  0.3396 -0.0440
  731SOL    HW1 2192   0.447   3.040   1.332  0.4003  2.6465 -0.3729
  731SOL    HW2 2193   0.583   0.032   1.297 -0.4564 -0.0530 -0.7217
  732SOL     OW 2194   1.898   2.955   1.204 -0.0076  0.5050  0.1037
  732SOL    HW1 2195   1.837   2.996   1.135 -1.9097 -0.6071 -0.2196
  732SOL    HW2 2196   1.884   2.854   1.215  1.2880  2.4086  2.0199
  733SOL     OW 2197   1.274   0.832   1.426 -0.4201 -0.0631  0.4839
  733SOL    HW1 2198   1.175   0.856   1.410  4.2745 -2.1692  2.3199
  733SOL    HW2 2199   1.317   0.886   1.506 -0.2530  3.8105  1.7838
  734SOL     OW 2200   2.641   2.330   0.611 -0.0302  0.7517  0.3442
  734SOL    HW1 2201   2.593   2.323   0.525 -0.0223  1.9276  1.4346
  734SOL    HW2 2202   2.592   2.284   0.684 -1.4819  0.0938 -1.1260
  735SOL     OW 2203   0.503   0.500   0.093 -0.6785 -0.4261 -0.2849
  735SOL    HW1 2204   0.460   0.590   0.078 -1.1198  2.3323 -0.4736
  735SOL    HW2 2205   0.591   0.504   0.149  0.6639  0.3952 -3.6913
  736SOL     OW 2206   1.943   2.285   2.739 -0.6164 -0.2355  0.5276
  736SOL    HW1 2207   1.902   2.230   2.815 -0.2992 -1.0877 -1.7818
  736SOL    HW2 2208   1.880   2.354   2.699  1.4963 -2.2514  2.2424
  737SOL     OW 2209   1.026   2.414   1.198  0.1295  0.2287 -0.5073
  737SOL    HW1 2210   1.069   2.438   1.108 -1.3053  0.8658  1.7896
  737SOL    HW2 2211   0.931   2.381   1.174 -2.5541  0.2248 -0.0268
  738SOL     OW 2212   1.517   2.691   2.043 -0.0896  0.0551 -0.2505
  738SOL    HW1 2213   1.470   2.779   2.065  0.4287 -2.8115 -1.1090
  738SOL    HW2 2214   1.619   2.700   2.065  3.5538  0.0406  1.4632
  739SOL     OW 2215   1.146   2.032   1.933  0.5640 -0.4130  0.2347
  739SOL    HW1 2216   1.213   2.081   1.875 -1.1429  3.7203  0.3106
  739SOL    HW2 2217   1.120   2.098   2.008 -0.0907  2.2484 -2.3415
  740SOL     OW 2218   1.852   2.272   1.551  0.3090 -0.2330  0.5595
  740SOL    HW1 2219   1.882   2.196   1.491 -0.2270 -3.7272  1.5651
  740SOL    HW2 2220   1.931   2.338   1.546  0.8978  0.0366  0.7499
  741SOL     OW 2221   2.102   1.742   0.033  0.2661 -0.2170 -0.1437
  741SOL    HW1 2222   2.055   1.674   0.095 -1.1139  0.2762  1.0615
  741SOL    HW2 2223   2.152   1.690   3.059 -1.7185 -1.7029 -1.1099
  742SOL     OW 2224   0.886   1.001   2.757 -0.2144  0.1776 -0.2008
  742SOL    HW1 2225   0.841   1.035   2.677 -0.8602 -3.9738  0.5529
  742SOL    HW2 2226   0.980   0.965   2.730  3.0025  1.2709  1.4946
  743SOL     OW 2227   2.571   1.137   2.566 -0.1308  0.0877  0.0017
  743SOL    HW1 2228   2.629   1.056   2.537  0.4451  0.8099  0.1569
  743SOL    HW2 2229   2.473   1.129   2.542  2.2291  1.2625  0.4932
  744SOL     OW 2230   2.159   2.421   1.911 -0.9593 -0.5540 -0.1371
  744SOL    HW1 2231   2.107   2.403   1.992 -1.9915 -2.3127 -0.3065
  744SOL    HW2 2232   2.143   2.516   1.883  0.4498  0.3818  0.8728
  745SOL     OW 2233   2.668   1.736   1.519  0.8862  0.1941  0.1733
  745SOL    HW1 2234   2.599   1.793   1.468  3.2153  0.9211  0.3160
  745SOL    HW2 2235   2.612   1.656   1.546 -1.0281 -2.4595 -2.4531
  746SOL     OW 2236   2.817   1.459   0.821  0.2387 -0.2521 -0.4350
  746SOL    HW1 2237   2.893   1.520   0.862  0.5445  1.7285  0.7050
  746SOL    HW2 2238   2.809   1.370   0.870  2.7852  1.5478  0.1555
  747SOL     OW 2239   1.809   2.357   0.307  0.6311  0.1722 -0.0690
  747SOL    HW1 2240   1.906   2.345   0.342 -0.2590 -0.5042 -0.2435
  747SOL    HW2 2241   1.751   2.272   0.301 -0.1736 -0.4481 -1.1969
  748SOL     OW 2242   0.871   2.245   0.005  0.7937 -0.4038  0.4773
  748SOL    HW1 2243   0.938   2.174   0.020  0.0816  3.4730  1.5330
  748SOL    HW2 2244   0.779   2.201   0.010 -0.5212  0.3767 -1.9632
  749SOL     OW 2245   2.852   0.300   2.171 -0.2534  0.1736 -0.3559
  749SOL    HW1 2246   2.833   0.391   2.219  0.9171  0.9020  2.2705
  749SOL    HW2 2247   2.789   0.296   2.095 -0.1390  2.6718  2.9277
  750SOL     OW 2248   1.440   0.207   1.413 -0.2671  0.1187 -0.5891
  750SOL    HW1 2249   1.506   0.280   1.432  2.5373  0.3628  1.9197
  750SOL    HW2 2250   1.492   0.122   1.386  0.3628  1.4754 -0.0629
  751SOL     OW 2251   2.047   2.406   2.478 -0.4476  0.4152 -0.3323
  751SOL    HW1 2252   1.959   2.405   2.536 -1.0906 -0.4631  1.7273
  751SOL    HW2 2253   2.117   2.464   2.510 -4.2385 -2.4143 -1.3573
  752SOL     OW 2254   1.942   1.859   1.171  0.5927 -0.2417 -0.5594
  752SOL    HW1 2255   1.841   1.823   1.174 -2.6277 -1.9564 -0.9537
  752SOL    HW2 2256   2.014   1.795   1.209  1.3811 -2.1495  2.0376
  753SOL     OW 2257   1.406   0.543   2.271 -0.0668 -0.1509  0.0393
  753SOL    HW1 2258   1.427   0.595   2.358  0.9504 -1.0366 -4.0006
  753SOL    HW2 2259   1.437   0.589   2.182  2.0006  0.3873 -1.4498
  754SOL     OW 2260   0.201   2.824   0.902  0.2445  0.1663 -0.4479
  754SOL    HW1 2261   0.145   2.906   0.873 -1.7904  0.4504  0.5423
  754SOL    HW2 2262   0.165   2.799   0.997 -0.1852 -2.3973 -0.0709
  755SOL     OW 2263   2.297   0.000   1.598  0.4624 -0.3949  0.2793
  755SOL    HW1 2264   2.372   3.061   1.543 -1.1264  1.1225 -1.9697
  755SOL    HW2 2265   2.248   0.075   1.552  0.8222  0.5409 -1.6909
  756SOL     OW 2266   1.512   1.002   2.403 -0.2165 -0.0034 -0.4595
  756SOL    HW1 2267   1.503   0.900   2.407 -2.6849  0.4449  1.1393
  756SOL    HW2 2268   1.475   1.035   2.316  1.9740 -1.1783  3.2076
  757SOL     OW 2269   2.770   2.650   1.822  0.2915 -0.1389 -0.3878
  757SOL    HW1 2270   2.714   2.704   1.888 -0.5167 -1.6409  1.4858
  757SOL    HW2 2271   2.757   2.687   1.724  0.5134  0.2678 -0.3540
  758SOL     OW 2272   0.337   0.144   1.577  0.1776  0.4697 -0.1639
  758SOL    HW1 2273   0.273   0.106   1.648  2.1343 -0.9013 -0.4046
  758SOL    HW2 2274   0.430   0.124   1.613  1.8624  1.2028  1.1361
  759SOL     OW 2275   2.185   1.196   0.713 -0.1823  0.2001  0.6920
  759SOL    HW1 2276   2.283   1.172   0.726  0.7514 -0.2564  0.3422
  759SOL    HW2 2277   2.179   1.290   0.665 -0.2096  0.5141 -2.3618
  760SOL     OW 2278   1.796   0.116   1.570 -0.0558 -0.6814 -0.1660
  760SOL    HW1 2279   1.705   0.165   1.589 -2.2746 -1.0323 -0.9792
  760SOL    HW2 2280   1.877   0.181   1.582  1.5957  1.1785  3.6083
  761SOL     OW 2281   1.987   0.419   0.314  0.3805  0.0091  0.1147
  761SOL    HW1 2282   2.085   0.441   0.329 -1.3625  1.0432 -2.0296
  761SOL    HW2 2283   1.928   0.465   0.385 -1.6920 -0.6628  2.8384
  762SOL     OW 2284   2.245   2.566   0.031  0.2981  0.0935  0.1036
  762SOL    HW1 2285   2.313   2.529   3.057  2.5874 -2.1651  1.0960
  762SOL    HW2 2286   2.147   2.549   0.017  3.1425  0.9635 -0.9265
  763SOL     OW 2287   1.102   0.947   1.067 -0.8824  0.4591  0.5068
  763SOL    HW1 2288   1.117   0.846   1.065  2.7670  1.0346 -0.3962
  763SOL    HW2 2289   1.143   0.992   0.987 -0.7048  0.5940  0.3143
  764SOL     OW 2290   2.153   2.438   2.856  0.1564  0.4820  0.5975
  764SOL    HW1 2291   2.123   2.529   2.832 -0.6678 -3.9814  1.5667
  764SOL    HW2 2292   2.082   2.378   2.816 -0.8646 -1.2248  0.5837
  765SOL     OW 2293   0.179   0.650   2.157  0.0352 -0.2660 -0.0998
  765SOL    HW1 2294   0.232   0.662   2.244  1.2755  0.1288 -1.2656
  765SOL    HW2 2295   0.237   0.609   2.083  0.8046  1.2520  3.3910
  766SOL     OW 2296   2.626   1.605   2.697 -0.3944  0.5206  0.0590
  766SOL    HW1 2297   2.547   1.562   2.745 -3.3523 -0.4336 -0.8584
  766SOL    HW2 2298   2.642   1.552   2.611  0.3074  1.7272 -0.8327
  767SOL     OW 2299   0.021   1.639   2.050  0.5352 -0.4743  0.2074
  767SOL    HW1 2300   3.049   1.644   2.125  0.7267  0.3041  1.1162
  767SOL    HW2 2301   0.034   1.539   2.031 -1.7104  0.7448  0.6775
  768SOL     OW 2302   0.925   1.029   0.142  0.4226 -0.1416  0.1502
  768SOL    HW1 2303   0.890   0.936   0.141 -1.9533  0.0356  2.2629
  768SOL    HW2 2304   1.024   1.034   0.121 -0.3909 -0.8174  0.9552
  769SOL     OW 2305   1.807   2.845   2.904  0.1180  0.1696 -0.4183
  769SOL    HW1 2306   1.730   2.870   2.966  0.8075 -3.3411 -0.0993
  769SOL    HW2 2307   1.828   2.926   2.850  0.5575 -0.1919 -2.7942
  770SOL     OW 2308   0.462   0.247   2.389  0.0183  0.3572 -0.4747
  770SOL    HW1 2309   0.416   0.165   2.350 -1.5953  0.9221  0.2611
  770SOL    HW2 2310   0.496   0.308   2.315 -0.0080 -2.7942 -0.5967
  771SOL     OW 2311   0.786   2.335   1.079  0.2044  0.3629  0.1771
  771SOL    HW1 2312   0.687   2.358   1.086  1.2831  0.9206 -1.6970
  771SOL    HW2 2313   0.807   2.317   0.982  1.6352 -1.3713  0.6445
  772SOL     OW 2314   0.303   0.694   0.040  0.0354  0.2953  0.2838
  772SOL    HW1 2315   0.366   0.723   3.066 -1.0832  0.9731  3.4784
  772SOL    HW2 2316   0.227   0.634   0.004 -1.3613  0.9561 -1.0411
  773SOL     OW 2317   2.006   0.851   1.799 -0.2819 -0.1707  0.5150
  773SOL    HW1 2318   2.085   0.874   1.732 -0.2787  0.1287 -2.1015
  773SOL    HW2 2319   1.953   0.767   1.772  0.4305 -1.5499  1.6724
  774SOL     OW 2320   1.092   1.145   0.549  0.0182  1.0459 -0.5363
  774SOL    HW1 2321   1.088   1.061   0.609  1.0979 -4.2015  2.3988
  774SOL    HW2 2322   1.085   1.235   0.601 -2.3774 -2.8228  1.5408
  775SOL     OW 2323   1.894   0.243   2.980 -0.1353 -0.0918  0.0508
  775SOL    HW1 2324   1.973   0.178   2.993 -0.8552  0.9841 -0.5182
  775SOL    HW2 2325   1.908   0.298   2.897  3.5596 -1.1258 -0.3989
  776SOL     OW 2326   2.388   0.164   2.553 -0.5137  0.4405 -0.1132
  776SOL    HW1 2327   2.472   0.111   2.585  2.3633  0.1835 -2.1021
  776SOL    HW2 2328   2.329   0.097   2.507 -1.8629  0.1166 -3.0149
  777SOL     OW 2329   0.910   1.784   0.171  0.2709 -0.5589  0.5948
  777SOL    HW1 2330   0.962   1.712   0.123  1.8532  0.8395  0.0564
  777SOL    HW2 2331   0.839   1.819   0.107 -0.1761  2.2165 -1.5904
  778SOL     OW 2332   0.584   2.934   0.302  0.0130 -0.0654 -0.2985
  778SOL    HW1 2333   0.549   2.924   0.397 -0.0696  0.3865  0.0918
  778SOL    HW2 2334   0.686   2.923   0.299  3.3708 -1.0060 -1.1336
  779SOL     OW 2335   0.234   1.231   0.013  0.2825  0.4562  0.1254
  779SOL    HW1 2336   0.138   1.230   0.043  0.1975 -0.2388  0.4211
  779SOL    HW2 2337   0.253   1.134   3.082  0.4167 -1.2474 -1.4477
  780SOL     OW 2338   2.236   0.447   2.389  0.6378 -0.1540 -0.6678
  780SOL    HW1 2339   2.284   0.379   2.327 -0.1089  1.1694  0.5722
  780SOL    HW2 2340   2.211   0.407   2.480 -2.0693 -0.7599 -0.5818
  781SOL     OW 2341   1.881   0.602   1.800  0.3152  0.0216 -0.3921
  781SOL    HW1 2342   1.898   0.576   1.899  0.2318 -0.4521  0.0292
  781SOL    HW2 2343   1.839   0.531   1.739 -0.6830 -0.1886 -3.5189
  782SOL     OW 2344   1.779   1.814   2.247  0.3339 -0.6401  0.8880
  782SOL    HW1 2345   1.758   1.745   2.320 -0.7616 -1.7058  1.6167
  782SOL    HW2 2346   1.788   1.778   2.152  0.3510 -2.2897 -0.7754
  783SOL     OW 2347   1.381   2.971   1.168 -0.1432  0.0750  0.5300
  783SOL    HW1 2348   1.344   2.878   1.206 -1.8720 -3.3103 -0.0565
  783SOL    HW2 2349   1.436   2.961   1.082  0.4643 -1.2095 -0.2226
  784SOL     OW 2350   1.488   0.726   2.475 -0.2800  0.0505 -0.3435
  784SOL    HW1 2351   1.579   0.673   2.476  0.7737 -2.0121 -1.4057
  784SOL    HW2 2352   1.448   0.730   2.571 -1.5843  0.3433  1.0569
  785SOL     OW 2353   1.911   0.380   2.760  0.6787  0.5293  0.0532
  785SOL    HW1 2354   1.980   0.446   2.721 -0.7718  0.6000 -0.5345
  785SOL    HW2 2355   1.821   0.422   2.776  2.5938  0.6727  0.3858
  786SOL     OW 2356   3.018   1.639   0.902 -0.4564  0.8952 -0.1496
  786SOL    HW1 2357   0.019   1.657   0.876  0.0586  2.1167  1.5768
  786SOL    HW2 2358   2.984   1.707   0.971  0.5207  1.1289  2.3580
  787SOL     OW 2359   1.559   1.937   0.388 -0.1927 -0.2408 -0.2197
  787SOL    HW1 2360   1.540   1.988   0.474 -1.8926  1.4404 -1.9642
  787SOL    HW2 2361   1.659   1.929   0.372  1.3114 -1.2264  2.5959
  788SOL     OW 2362   2.106   1.663   1.458 -0.3752  0.2058  0.1002
  788SOL    HW1 2363   2.123   1.654   1.359 -0.5729 -2.1917  3.3691
  788SOL    HW2 2364   2.188   1.704   1.504 -2.4265 -0.4542  0.7024
  789SOL     OW 2365   0.017   1.239   2.807 -0.5448  0.1392 -0.3576
  789SOL    HW1 2366   0.115   1.246   2.779  4.2239  0.3893 -0.6402
  789SOL    HW2 2367   3.047   1.255   2.730 -1.9498 -0.1533 -0.2308
  790SOL     OW 2368   0.565   0.401   2.876 -0.5648  0.2503  0.6715
  790SOL    HW1 2369   0.565   0.455   2.960  1.6363  1.1821 -1.8671
  790SOL    HW2 2370   0.471   0.381   2.837 -1.2259  0.1323 -0.6419
  791SOL     OW 2371   0.924   3.076   2.292  0.1143  0.3508  0.1799
  791SOL    HW1 2372   0.861   3.040   2.359  1.4660 -0.0928 -1.2009
  791SOL    HW2 2373   0.871   0.002   2.207  0.9997 -0.9335  0.5748
  792SOL     OW 2374   1.965   0.496   2.314  0.3576  0.0557 -0.3484
  792SOL    HW1 2375   2.048   0.470   2.362 -2.2475 -0.3288  1.8861
  792SOL    HW2 2376   1.880   0.450   2.352 -0.1947  1.3899 -1.9293
  793SOL     OW 2377   2.744   0.683   1.604  0.1258  0.8029  0.0856
  793SOL    HW1 2378   2.809   0.691   1.524  0.6937  2.8493  1.0956
  793SOL    HW2 2379   2.667   0.614   1.597  0.3389  1.2367  0.6671
  794SOL     OW 2380   0.128   0.581   1.688  0.0916  0.0944  0.2521
  794SOL    HW1 2381   0.200   0.651   1.660  0.0057 -0.5136 -0.3699
  794SOL    HW2 2382   0.163   0.511   1.754  1.2315 -1.4736 -0.0046
  795SOL     OW 2383   3.055   1.586   0.291 -0.6916 -0.3863  0.1280
  795SOL    HW1 2384   2.983   1.628   0.347  3.2505 -0.7799  0.2482
  795SOL    HW2 2385   0.042   1.567   0.350  1.1792  2.7120  0.7117
  796SOL     OW 2386   0.313   2.718   3.082  0.8199 -0.2496 -0.3459
  796SOL    HW1 2387   0.300   2.717   0.085  1.1528  0.5683 -0.2318
  796SOL    HW2 2388   0.285   2.810   3.042  2.4278 -1.2855 -2.5441
  797SOL     OW 2389   1.967   2.606   3.081  0.8232  0.4077 -0.3991
  797SOL    HW1 2390   1.872   2.567   3.087 -0.1295  1.3172  0.0574
  797SOL    HW2 2391   1.993   2.625   2.982 -1.2712  0.8903 -1.2000
  798SOL     OW 2392   0.077   1.075   1.634  0.0078  0.3929 -0.0732
  798SOL    HW1 2393   0.172   1.102   1.666  1.7420  4.6608 -2.2770
  798SOL    HW2 2394   0.072   1.045   1.539  0.8527 -1.3701 -1.3169
  799SOL     OW 2395   2.922   0.774   2.647 -0.3838 -0.3178 -0.3776
  799SOL    HW1 2396   2.994   0.834   2.605  0.0765  1.4940 -1.0528
  799SOL    HW2 2397   2.920   0.684   2.606 -0.1253  0.3594  0.5878
  800SOL     OW 2398   2.860   1.937   0.725 -0.0367 -0.1901 -0.4036
  800SOL    HW1 2399   2.902   1.851   0.684 -2.4329 -0.7679  1.2261
  800SOL    HW2 2400   2.929   2.010   0.739 -1.9312  0.4478 -1.3303
  801SOL     OW 2401   1.681   1.194   0.826  0.0055  0.0434  0.3901
  801SOL    HW1 2402   1.761   1.230   0.780 -2.6347 -1.2930 -0.2809
  801SOL    HW2 2403   1.654   1.244   0.905 -0.1756 -3.5733 -0.1370
  802SOL     OW 2404   1.201   1.895   1.484 -0.6808 -0.0130  0.0705
  802SOL    HW1 2405   1.291   1.944   1.472 -1.2663  2.9323 -3.1150
  802SOL    HW2 2406   1.121   1.949   1.458  0.5802 -2.4533  0.2750
  803SOL     OW 2407   0.056   1.918   0.426 -0.2296  0.6486 -0.5674
  803SOL    HW1 2408   0.154   1.898   0.407  1.0864  0.3070 -0.0836
  803SOL    HW2 2409   0.020   1.974   0.348  1.6203 -2.2884  2.3939
  804SOL     OW 2410   1.086   2.606   1.368  0.1485  0.2861  0.0794
  804SOL    HW1 2411   1.105   2.557   1.457 -0.6305  1.3606 -2.8468
  804SOL    HW2 2412   1.073   2.532   1.298 -1.2976 -0.8880  0.9422
  805SOL     OW 2413   1.608   0.782   0.234 -0.4155 -0.6029  0.1487
  805SOL    HW1 2414   1.616   0.677   0.238  2.0800 -1.7854 -0.6575
  805SOL    HW2 2415   1.563   0.820   0.149  0.2759  1.1216  1.3903
  806SOL     OW 2416   1.409   0.137   0.970 -0.1170  0.5444 -0.1022
  806SOL    HW1 2417   1.424   0.139   0.868  0.1367 -1.7047 -1.2925
  806SOL    HW2 2418   1.314   0.099   0.996 -0.9899  1.7970  0.3022
  807SOL     OW 2419   2.257   2.993   2.815 -0.1407  0.0965 -0.0060
  807SOL    HW1 2420   2.309   3.079   2.818 -1.1244 -1.4269  0.7466
  807SOL    HW2 2421   2.311   2.914   2.845 -2.5102 -0.4262 -1.8471
  808SOL     OW 2422   0.007   1.148   0.137  0.2938  0.0234 -0.5460
  808SOL    HW1 2423   3.035   1.199   0.192 -0.0948  0.8513  1.2438
  808SOL    HW2 2424   0.070   1.105   0.203 -2.4816 -1.6810  2.1835
  809SOL     OW 2425   2.709   0.940   2.473 -0.1363 -0.0551  0.1633
  809SOL    HW1 2426   2.752   0.850   2.484  1.1537 -3.1392  0.2300
  809SOL    HW2 2427   2.704   0.978   2.377  2.4397 -1.1805 -2.2754
  810SOL     OW 2428   2.385   2.648   1.940 -0.2051 -0.2844  0.6235
  810SOL    HW1 2429   2.341   2.632   1.850 -1.1734 -2.4854  0.0434
  810SOL    HW2 2430   2.317   2.665   2.011  1.3122 -2.0455 -0.6259
  811SOL     OW 2431   2.491   2.396   2.024 -0.0853 -0.3984 -0.2826
  811SOL    HW1 2432   2.442   2.474   1.979 -1.8711 -0.2378 -0.6991
  811SOL    HW2 2433   2.562   2.358   1.960 -1.5178  1.1724  2.3244
  812SOL     OW 2434   1.613   0.269   3.045 -0.3460 -0.4855 -0.2852
  812SOL    HW1 2435   1.566   0.204   2.977  2.0502  1.3241 -1.2597
  812SOL    HW2 2436   1.716   0.262   3.040  0.7540 -0.3179  2.8931
  813SOL     OW 2437   2.071   3.071   1.920 -0.3635  0.3139 -0.5249
  813SOL    HW1 2438   2.107   3.011   1.845 -1.1553  1.7636  0.5011
  813SOL    HW2 2439   2.061   0.068   1.884  4.7147 -2.5293  3.3780
  814SOL     OW 2440   1.764   1.080   1.639  0.4544 -0.2878  0.5049
  814SOL    HW1 2441   1.835   1.127   1.697  1.1283 -1.5880 -2.1061
  814SOL    HW2 2442   1.684   1.142   1.611 -1.1774 -1.8344 -0.0009
  815SOL     OW 2443   0.360   0.850   0.503  0.1266  1.0092  0.2890
  815SOL    HW1 2444   0.304   0.844   0.417  0.3667  1.0514 -0.3028
  815SOL    HW2 2445   0.435   0.915   0.486 -2.3133  1.0508  0.0420
  816SOL     OW 2446   1.971   1.520   2.775 -0.3435  0.1594 -1.0708
  816SOL    HW1 2447   1.994   1.455   2.703 -1.6842 -0.0804  0.1726
  816SOL    HW2 2448   1.957   1.469   2.867 -1.8020  0.4898 -2.1340
  817SOL     OW 2449   0.144   3.025   0.553  0.3825  0.5858 -0.6624
  817SOL    HW1 2450   0.196   2.935   0.541 -0.7213 -0.6187 -0.2656
  817SOL    HW2 2451   0.126   3.046   0.652  3.3455  0.7488 -1.3671
  818SOL     OW 2452   1.973   0.132   2.575  0.5379  0.4699 -0.2718
  818SOL    HW1 2453   2.040   0.206   2.601 -4.0708 -0.9022 -0.4699
  818SOL    HW2 2454   1.922   0.089   2.656 -1.2737 -1.0052  1.8927
  819SOL     OW 2455   1.337   1.071   0.432  0.0615  0.7669  0.0947
  819SOL    HW1 2456   1.239   1.099   0.450 -4.1961  0.3054  0.1658
  819SOL    HW2 2457   1.393   1.154   0.410  3.2798 -0.5857  0.5143
  820SOL     OW 2458   2.200   0.962   0.867 -0.1734  0.6563 -0.4598
  820SOL    HW1 2459   2.304   0.956   0.882  1.2325 -0.6274  0.0917
  820SOL    HW2 2460   2.193   1.041   0.801  0.2338  0.3611  2.3280
  821SOL     OW 2461   2.242   0.004   0.498  0.8309  0.1149 -0.3239
  821SOL    HW1 2462   2.295   3.048   0.428 -0.6064  0.1140  1.0610
  821SOL    HW2 2463   2.151   0.039   0.466  4.4647 -0.5016 -0.4446
  822SOL     OW 2464   0.637   2.811   2.600 -0.2974  0.8234  0.2008
  822SOL    HW1 2465   0.703   2.833   2.676 -0.5722  0.0888  3.5556
  822SOL    HW2 2466   0.590   2.721   2.611 -2.1719 -0.3287  1.1007
  823SOL     OW 2467   0.056   2.293   1.915 -0.0966 -0.1493 -0.2779
  823SOL    HW1 2468   3.060   2.256   1.920 -0.4440  1.1806  0.5949
  823SOL    HW2 2469   0.064   2.372   1.852  0.7833 -1.1564  1.8181
  824SOL     OW 2470   0.832   2.976   1.951 -0.7582  0.1430 -0.0546
  824SOL    HW1 2471   0.888   2.891   1.938 -2.9555  0.3073  0.1856
  824SOL    HW2 2472   0.794   3.019   1.863 -2.5825  1.5196 -0.7583
  825SOL     OW 2473   1.339   1.532   0.510 -0.3251 -0.0879  0.5814
  825SOL    HW1 2474   1.314   1.433   0.503  0.2312 -0.9555 -0.6666
  825SOL    HW2 2475   1.410   1.557   0.442 -2.1348  2.4040 -0.7626
  826SOL     OW 2476   1.368   0.256   2.845  0.0946 -0.8411 -0.1482
  826SOL    HW1 2477   1.428   0.287   2.764  3.0866 -1.2955 -0.8896
  826SOL    HW2 2478   1.325   0.166   2.842 -4.0860  0.9637 -2.0483
  827SOL     OW 2479   0.316   1.618   1.403 -0.2013 -0.1890 -0.3099
  827SOL    HW1 2480   0.415   1.621   1.419 -2.1683  1.6001  3.3942
  827SOL    HW2 2481   0.296   1.578   1.313 -0.1385  0.4659  1.7980
  828SOL     OW 2482   2.364   1.301   1.642 -0.1111 -0.1309 -0.2308
  828SOL    HW1 2483   2.268   1.332   1.631  0.3064  1.1397  0.1036
  828SOL    HW2 2484   2.371   1.205   1.675  1.9015  2.2809 -0.3774
  829SOL     OW 2485   3.047   2.110   0.254 -0.2774  0.4008 -0.0808
  829SOL    HW1 2486   3.015   2.047   0.176 -1.9046  1.2423 -0.9773
  829SOL    HW2 2487   3.043   2.206   0.224  3.2241 -0.7076  1.6313
  830SOL     OW 2488   1.113   0.708   0.557 -0.2870 -0.5561 -0.0070
  830SOL    HW1 2489   1.200   0.716   0.505 -2.0292  1.7914  1.0654
  830SOL    HW2 2490   1.090   0.793   0.609  0.4971 -0.1073  1.9844
  831SOL     OW 2491   2.928   1.915   2.860 -0.1715  0.1390 -0.0607
  831SOL    HW1 2492   2.904   1.814   2.859  2.2577 -2.1785 -1.2160
  831SOL    HW2 2493   2.852   1.977   2.835  3.1587  2.1346 -0.6575
  832SOL     OW 2494   1.102   2.770   0.067  0.1759  0.3152  0.3808
  832SOL    HW1 2495   1.065   2.849   0.119 -0.9839 -1.5786  0.4514
  832SOL    HW2 2496   1.085   2.685   0.115 -0.8164  1.1180 -1.7133
  833SOL     OW 2497   1.083   0.222   2.285  0.1169 -0.2097  0.5576
  833SOL    HW1 2498   1.023   0.144   2.308 -0.1920 -0.5294 -1.1388
  833SOL    HW2 2499   1.064   0.304   2.340  0.4457 -1.3062  0.1490
  834SOL     OW 2500   0.106   0.961   0.743  0.1707 -0.0769 -0.6325
  834SOL    HW1 2501   0.025   0.980   0.691 -1.1482 -0.5551  0.2813
  834SOL    HW2 2502   0.088   0.879   0.802  2.2253 -0.7207 -2.2842
  835SOL     OW 2503   2.325   0.384   1.937  0.1119 -0.2255  0.3942
  835SOL    HW1 2504   2.384   0.370   2.018  1.2159 -0.1414 -2.4442
  835SOL    HW2 2505   2.232   0.375   1.969 -0.9039  3.0026 -0.1489
  836SOL     OW 2506   0.539   2.250   0.598  0.0301  0.0388 -0.7496
  836SOL    HW1 2507   0.533   2.325   0.531  1.8049 -1.0280  2.8351
  836SOL    HW2 2508   0.598   2.173   0.566 -2.4793 -1.2095  2.1578
  837SOL     OW 2509   2.039   1.639   2.163  0.4032  0.3417 -0.4993
  837SOL    HW1 2510   2.031   1.541   2.192  1.6571 -1.4232 -1.1301
  837SOL    HW2 2511   2.059   1.692   2.245  1.5695 -2.2092  0.7089
  838SOL     OW 2512   0.324   1.136   1.685 -0.1519 -0.4303  0.1384
  838SOL    HW1 2513   0.398   1.166   1.616 -0.7993  4.7965 -3.5999
  838SOL    HW2 2514   0.361   1.054   1.729 -2.3223  0.7784 -1.5472
  839SOL     OW 2515   0.193   0.215   0.710 -0.3004  0.1620  0.4923
  839SOL    HW1 2516   0.276   0.277   0.713 -0.3093  0.9847 -0.1801
  839SOL    HW2 2517   0.182   0.180   0.613  0.0353  0.3292 -2.4757
  840SOL     OW 2518   0.093   0.383   2.560 -0.3397  0.2133 -0.2314
  840SOL    HW1 2519   0.056   0.399   2.465 -1.4736  1.5240  1.9914
  840SOL    HW2 2520   0.137   0.470   2.598 -1.0968 -2.0873 -0.5142
  841SOL     OW 2521   0.126   2.415   2.973  0.2125 -0.1133 -0.2825
  841SOL    HW1 2522   0.197   2.476   2.937 -0.9407 -2.2342  1.8942
  841SOL    HW2 2523   0.128   2.402   3.076  1.2660  0.4534 -0.3040
  842SOL     OW 2524   0.672   3.028   1.024 -0.8070  0.2977  0.2829
  842SOL    HW1 2525   0.739   0.003   0.991  2.0030 -0.3534 -0.4475
  842SOL    HW2 2526   0.628   3.059   1.109  0.4838  2.2158  0.5733
  843SOL     OW 2527   0.117   1.533   2.796  0.0995 -0.3244 -0.1738
  843SOL    HW1 2528   0.183   1.502   2.868  0.1275  0.4954  0.5840
  843SOL    HW2 2529   0.025   1.548   2.836 -0.3309  2.0831  0.4868
  844SOL     OW 2530   1.103   2.210   2.146  0.0236  0.3663  0.1214
  844SOL    HW1 2531   1.159   2.296   2.160 -1.0451 -0.7769  0.0939
  844SOL    HW2 2532   1.133   2.134   2.210 -0.4238  1.7556  0.0374
  845SOL     OW 2533   2.206   2.613   2.555  0.2731 -0.3295 -0.7119
  845SOL    HW1 2534   2.274   2.637   2.481  3.9820 -1.9309  1.6029
  845SOL    HW2 2535   2.163   2.696   2.584  0.4259 -2.8371  1.2202
  846SOL     OW 2536   1.853   1.095   2.726  0.5963 -0.4524  0.5795
  846SOL    HW1 2537   1.789   1.171   2.749 -0.7885  0.6193 -1.2580
  846SOL    HW2 2538   1.837   1.069   2.630  0.7512 -0.1627 -2.1843
  847SOL     OW 2539   2.827   0.082   2.840 -0.1769 -0.2859 -0.2221
  847SOL    HW1 2540   2.831   0.139   2.753  0.0059 -1.4224 -0.6337
  847SOL    HW2 2541   2.871   0.137   2.915 -0.4990 -0.9375 -3.7720
  848SOL     OW 2542   3.091   0.904   0.424  0.3144 -0.3790 -0.2949
  848SOL    HW1 2543   3.031   0.932   0.508 -0.8285 -0.7011  1.7960
  848SOL    HW2 2544   0.045   0.985   0.385 -1.6675  0.3389  0.1978
  849SOL     OW 2545   1.351   0.281   2.275 -0.1191 -0.4621 -0.1113
  849SOL    HW1 2546   1.382   0.377   2.286  0.2134  1.1957  0.1852
  849SOL    HW2 2547   1.253   0.267   2.296  1.7116  0.2865 -0.5298
  850SOL     OW 2548   0.183   1.104   0.337  0.2072  0.1530 -0.0114
  850SOL    HW1 2549   0.223   1.017   0.291 -0.7611 -1.3960 -1.0675
  850SOL    HW2 2550   0.213   1.114   0.435 -0.2768 -3.7856 -0.4156
  851SOL     OW 2551   0.466   1.374   0.562  0.0408 -0.3172  0.1734
  851SOL    HW1 2552   0.555   1.370   0.517  2.7446 -0.3339 -0.8472
  851SOL    HW2 2553   0.393   1.345   0.500 -1.1564  1.7699 -1.7472
  852SOL     OW 2554   1.203   1.172   1.641  0.0082 -0.3626 -0.4511
  852SOL    HW1 2555   1.157   1.151   1.731 -2.1910  1.7101  2.5816
  852SOL    HW2 2556   1.264   1.095   1.612  1.3574 -1.9213  1.3492
  853SOL     OW 2557   2.434   1.536   0.503  0.0370 -0.5581  0.4179
  853SOL    HW1 2558   2.442   1.571   0.408 -0.8870  2.6521  0.8910
  853SOL    HW2 2559   2.516   1.479   0.522 -1.6714  1.2905  1.1184
  854SOL     OW 2560   1.475   1.137   2.161 -0.0573  0.1177  0.3032
  854SOL    HW1 2561   1.517   1.148   2.068  1.3637  1.1929  0.8470
  854SOL    HW2 2562   1.385   1.187   2.167 -0.1870 -0.8004 -1.5117
  855SOL     OW 2563   0.458   2.604   2.615 -0.0605 -0.0787 -0.2127
  855SOL    HW1 2564   0.481   2.502   2.628  0.5619 -0.8207  2.0933
  855SOL    HW2 2565   0.396   2.647   2.685  1.4744  0.1579  0.1942
  856SOL     OW 2566   1.054   0.913   2.072 -0.5228 -0.0384 -0.5558
  856SOL    HW1 2567   1.091   0.879   1.987 -0.1699  0.4140  3.2908
  856SOL    HW2 2568   0.975   0.978   2.058 -2.7796 -0.5187  0.1045
  857SOL     OW 2569   0.949   1.047   2.373 -0.1288  0.0964 -0.1943
  857SOL    HW1 2570   0.964   1.137   2.327  0.6606  2.4463 -0.1697
  857SOL    HW2 2571   0.876   1.055   2.443  0.1120 -0.4206 -2.2178
  858SOL     OW 2572   2.766   1.131   1.674 -0.2701 -0.1332  0.4885
  858SOL    HW1 2573   2.797   1.187   1.596 -0.6279 -1.5701 -1.1291
  858SOL    HW2 2574   2.842   1.069   1.701 -1.3055  0.2949 -0.1792
  859SOL     OW 2575   2.735   3.010   0.775  0.3338  0.1801 -0.6017
  859SOL    HW1 2576   2.811   2.956   0.732 -0.6265 -1.4158  2.6419
  859SOL    HW2 2577   2.648   2.956   0.792 -2.2773  2.8062 -2.9398
  860SOL     OW 2578   1.563   0.352   0.997 -0.3043  0.1802  0.3622
  860SOL    HW1 2579   1.504   0.270   1.008 -0.3914  0.0598 -1.0075
  860SOL    HW2 2580   1.640   0.340   1.066 -0.9985  0.3481  2.8712
  861SOL     OW 2581   1.804   0.764   1.094  0.3374  0.0066 -0.0086
  861SOL    HW1 2582   1.727   0.726   1.041  1.5142  0.0824  1.5029
  861SOL    HW2 2583   1.875   0.692   1.105  0.6175 -4.0253 -0.7516
  862SOL     OW 2584   1.500   3.043   2.635  0.1230 -0.0631  0.0862
  862SOL    HW1 2585   1.542   2.953   2.611  1.6080  0.4879 -0.4218
  862SOL    HW2 2586   1.524   0.016   2.564  1.7758 -0.4794  2.1993
  863SOL     OW 2587   2.979   2.949   1.251  0.0336 -0.0678  0.1568
  863SOL    HW1 2588   2.934   3.041   1.235 -1.8215 -1.0748 -0.1551
  863SOL    HW2 2589   2.938   2.877   1.191 -0.5017  0.0100  0.0410
  864SOL     OW 2590   2.501   0.105   2.254  1.1574  0.1991  0.4003
  864SOL    HW1 2591   2.553   0.186   2.230  0.6421  1.1002 -1.1604
  864SOL    HW2 2592   2.405   0.126   2.285  0.8931  1.5323  2.0552
  865SOL     OW 2593   1.143   1.581   2.480 -0.3977  0.0834 -0.5293
  865SOL    HW1 2594   1.101   1.495   2.448  1.9550  0.8424 -0.3735
  865SOL    HW2 2595   1.161   1.590   2.580  0.6718  1.2057  0.9753
  866SOL     OW 2596   2.268   2.931   0.905 -1.0564  0.1588 -0.2762
  866SOL    HW1 2597   2.342   2.869   0.877  2.6570 -0.2134 -1.1645
  866SOL    HW2 2598   2.255   2.937   1.006  1.0953 -2.0101 -4.0544
  867SOL     OW 2599   2.858   2.816   1.067  0.6348 -0.6884 -0.7326
  867SOL    HW1 2600   2.759   2.826   1.047  0.4877 -0.8222  0.8989
  867SOL    HW2 2601   2.902   2.756   0.995  2.0478 -0.5430  2.1331
  868SOL     OW 2602   0.051   1.862   1.438 -0.4767  0.3643 -0.4718
  868SOL    HW1 2603   0.150   1.855   1.415  0.0089 -0.2912 -0.8330
  868SOL    HW2 2604   0.039   1.823   1.532 -1.0552  0.6862 -2.1089
  869SOL     OW 2605   1.735   2.206   2.440  0.2712  0.2120 -0.4722
  869SOL    HW1 2606   1.745   2.288   2.499  0.1682  1.0638  1.8932
  869SOL    HW2 2607   1.700   2.136   2.508  0.4751  1.2803  1.5249
  870SOL     OW 2608   1.260   1.065   0.881 -0.2780  0.1257 -0.2386
  870SOL    HW1 2609   1.337   0.998   0.906 -1.5006  0.6491  0.0483
  870SOL    HW2 2610   1.298   1.154   0.859 -2.8200 -0.7982  1.9373
  871SOL     OW 2611   2.880   1.637   2.217 -0.2777  0.6029 -0.0761
  871SOL    HW1 2612   2.819   1.718   2.219 -0.1653 -0.6589  0.4453
  871SOL    HW2 2613   2.881   1.599   2.311 -0.0236  1.4997  0.5358
  872SOL     OW 2614   1.030   1.725   2.914  0.5964  0.4763  0.5101
  872SOL    HW1 2615   1.057   1.669   2.997 -0.4541 -1.2540 -0.9464
  872SOL    HW2 2616   0.930   1.720   2.903  2.1995 -0.3816  0.1865
  873SOL     OW 2617   0.979   1.237   1.896 -0.1448  0.4125  0.0793
  873SOL    HW1 2618   0.883   1.217   1.869  1.1321  2.0933 -2.4716
  873SOL    HW2 2619   0.998   1.341   1.896 -0.0400  4.4911 -0.9999
  874SOL     OW 2620   1.422   0.991   1.574  0.0628 -0.1302  0.2894
  874SOL    HW1 2621   1.494   0.926   1.599 -0.3913  0.8913  0.7968
  874SOL    HW2 2622   1.455   1.085   1.543 -1.3406  1.6574 -1.1192
  875SOL     OW 2623   2.910   0.243   3.048  0.9419  0.3536  0.8006
  875SOL    HW1 2624   2.937   0.217   0.047 -0.2291 -1.7641  1.1191
  875SOL    HW2 2625   2.884   0.344   3.044 -1.1120  0.2956  0.7351
  876SOL     OW 2626   0.904   1.189   0.365 -0.1504  0.1327  0.2262
  876SOL    HW1 2627   0.977   1.173   0.436  1.6097  0.1876 -0.5924
  876SOL    HW2 2628   0.906   1.119   0.286  0.2805 -0.6280 -3.4799
  877SOL     OW 2629   2.439   2.805   0.539  0.2138  0.2315  0.0085
  877SOL    HW1 2630   2.357   2.743   0.528  1.0262 -1.4330 -0.0476
  877SOL    HW2 2631   2.419   2.876   0.469 -2.2282  0.9206  1.5497
  878SOL     OW 2632   1.812   1.986   0.320 -0.1218  0.2831 -0.1865
  878SOL    HW1 2633   1.904   2.019   0.333 -1.9446 -1.8536 -2.3712
  878SOL    HW2 2634   1.765   2.039   0.244  1.5418  0.6459  0.4086
  879SOL     OW 2635   0.034   1.903   1.986 -0.0427  0.1925 -0.2692
  879SOL    HW1 2636   0.039   1.802   2.004 -1.0231  1.1827 -0.9427
  879SOL    HW2 2637   3.045   1.926   1.936  2.1744  0.7102 -0.5763
  880SOL     OW 2638   0.271   1.898   0.735  0.7536 -0.7183  0.3206
  880SOL    HW1 2639   0.228   1.975   0.787 -0.3115 -1.1919  1.0788
  880SOL    HW2 2640   0.240   1.810   0.771 -0.7835  0.8607 -0.1965
  881SOL     OW 2641   1.125   0.183   2.005  0.1119 -0.2523  0.2847
  881SOL    HW1 2642   1.109   0.192   2.104 -0.8730  0.8846 -1.8808
  881SOL    HW2 2643   1.128   0.284   1.972  0.7903 -0.6146 -0.0081
  882SOL     OW 2644   2.481   0.978   0.954  0.4264  0.3132  0.2511
  882SOL    HW1 2645   2.574   0.934   0.934  2.4869 -2.9881  1.1285
  882SOL    HW2 2646   2.439   0.927   1.031 -0.8884 -0.4408 -0.6568
  883SOL     OW 2647   1.630   0.336   1.677 -0.5464  0.4426 -0.0096
  883SOL    HW1 2648   1.539   0.377   1.703 -1.4361  2.5676 -1.2278
  883SOL    HW2 2649   1.663   0.279   1.755 -1.9686  0.1642 -0.3018
  884SOL     OW 2650   2.815   3.004   1.881  1.2658  0.2248  0.1444
  884SOL    HW1 2651   2.719   3.013   1.921 -2.5998 -1.6876  1.3970
  884SOL    HW2 2652   2.876   3.055   1.943  1.3751 -2.4052 -1.1346
  885SOL     OW 2653   1.650   1.261   2.742  0.3060 -1.1329 -0.5171
  885SOL    HW1 2654   1.662   1.360   2.716  1.7832  0.7083  1.5479
  885SOL    HW2 2655   1.572   1.225   2.681  0.6616 -1.1061 -0.7114
  886SOL     OW 2656   2.203   0.448   2.860 -0.7367  0.1187  0.0673
  886SOL    HW1 2657   2.170   0.441   2.957  2.9517  0.7573 -2.9823
  886SOL    HW2 2658   2.162   0.529   2.813  0.8444 -2.6898 -0.8647
  887SOL     OW 2659   1.003   2.723   1.613  0.3302 -0.6043  0.1605
  887SOL    HW1 2660   0.992   2.818   1.575  3.0163  2.5407 -0.2064
  887SOL    HW2 2661   1.079   2.678   1.567 -2.5199  1.8292  0.8171
  888SOL     OW 2662   1.859   1.697   1.993  0.9412 -0.6394  0.3000
  888SOL    HW1 2663   1.825   1.626   1.927 -1.9807  1.3664  1.3640
  888SOL    HW2 2664   1.934   1.660   2.048 -0.2336 -0.8019 -0.3607
  889SOL     OW 2665   1.936   2.486   1.239 -0.3330 -0.5006 -0.3634
  889SOL    HW1 2666   1.970   2.567   1.297  1.2343  0.2870  1.4566
  889SOL    HW2 2667   1.927   2.403   1.290  0.0551  2.8530 -1.4390
  890SOL     OW 2668   1.280   1.622   1.118 -0.1366 -0.2556  0.7172
  890SOL    HW1 2669   1.260   1.636   1.219  1.1975 -1.2657  1.7401
  890SOL    HW2 2670   1.191   1.628   1.066 -1.6201  1.9147  0.7490
  891SOL     OW 2671   2.910   1.420   0.120  0.3175  0.1475 -0.2032
  891SOL    HW1 2672   2.873   1.324   0.143  0.7122 -1.5275 -1.0767
  891SOL    HW2 2673   2.976   1.463   0.188 -0.1658 -1.9186  0.9702
  892SOL     OW 2674   2.314   1.448   0.116 -0.3208  0.0395  0.0624
  892SOL    HW1 2675   2.368   1.412   0.036  0.7174  2.1525 -0.2682
  892SOL    HW2 2676   2.371   1.514   0.168  1.1596 -0.7057  0.6561
  893SOL     OW 2677   2.058   2.449   1.564 -0.0490 -0.3023 -0.3319
  893SOL    HW1 2678   2.028   2.524   1.503  0.4055 -0.7513  1.7260
  893SOL    HW2 2679   2.159   2.445   1.580  0.9603 -1.7344 -1.0964
  894SOL     OW 2680   2.628   2.696   0.382  0.2629 -0.1831  0.3069
  894SOL    HW1 2681   2.557   2.668   0.313 -0.3646  1.4953  0.7115
  894SOL    HW2 2682   2.582   2.756   0.453 -1.4548 -2.6261  1.3573
  895SOL     OW 2683   2.616   2.595   2.731  0.6113  0.3553  0.2131
  895SOL    HW1 2684   2.634   2.697   2.727 -0.1670  3.2494  3.1290
  895SOL    HW2 2685   2.682   2.542   2.669  1.4730 -0.9143 -3.6068
  896SOL     OW 2686   2.379   0.158   2.944  0.0560 -0.1600  0.7792
  896SOL    HW1 2687   2.423   0.240   2.908 -0.0672 -0.1699  3.0358
  896SOL    HW2 2688   2.309   0.187   3.012  0.3984 -2.9930 -2.1605
  897SOL     OW 2689   0.217   1.625   1.851 -0.3774 -0.2426  1.1175
  897SOL    HW1 2690   0.176   1.610   1.939 -1.3901 -0.3837 -1.7646
  897SOL    HW2 2691   0.240   1.539   1.800 -2.8223 -1.7037 -0.0042
  898SOL     OW 2692   2.712   1.791   1.775  0.1593 -0.5449  0.0152
  898SOL    HW1 2693   2.752   1.702   1.811 -0.2506 -2.2400  0.1688
  898SOL    HW2 2694   2.706   1.781   1.671  1.0760  1.1777  0.3002
  899SOL     OW 2695   1.676   2.867   1.414  0.3911  0.3401 -0.0683
  899SOL    HW1 2696   1.702   2.799   1.340  0.7260  1.7226 -2.6717
  899SOL    HW2 2697   1.753   2.906   1.468 -1.9213 -1.4619  0.5067
  900SOL     OW 2698   1.206   0.997   0.096 -0.7164 -0.2010  0.4692
  900SOL    HW1 2699   1.240   0.980   0.000 -2.2827  2.3525 -2.2923
  900SOL    HW2 2700   1.219   0.917   0.156 -1.1271  0.4013 -2.4323
  901SOL     OW 2701   1.171   1.185   2.598 -0.5853  0.5681  0.1598
  901SOL    HW1 2702   1.090   1.243   2.571  0.4285 -1.4438 -1.6636
  901SOL    HW2 2703   1.149   1.087   2.579 -1.0903 -0.9305 -1.1844
  902SOL     OW 2704   2.508   2.245   0.828 -0.0582 -0.5248 -0.2557
  902SOL    HW1 2705   2.484   2.343   0.843  0.5705 -3.4489  0.3458
  902SOL    HW2 2706   2.581   2.215   0.896  0.5994 -3.0224 -0.4684
  903SOL     OW 2707   2.889   1.281   1.887 -0.2396 -0.5018 -0.9940
  903SOL    HW1 2708   2.818   1.212   1.904  1.3465 -0.1170 -1.0355
  903SOL    HW2 2709   2.942   1.261   1.802  1.1733 -1.0084  0.8681
  904SOL     OW 2710   2.132   1.049   0.470 -0.2905  0.1684 -0.4408
  904SOL    HW1 2711   2.047   1.093   0.443  1.6350 -0.7257 -0.7634
  904SOL    HW2 2712   2.168   1.081   0.562  1.3952  0.9368  2.0781
  905SOL     OW 2713   2.242   2.776   1.349  0.0420  0.1244 -0.1978
  905SOL    HW1 2714   2.244   2.853   1.286  1.8472  2.0498  0.3966
  905SOL    HW2 2715   2.304   2.793   1.433  0.7759  0.2391 -1.0715
  906SOL     OW 2716   1.482   2.052   2.923 -0.2802  0.6800  0.2034
  906SOL    HW1 2717   1.434   2.082   3.012 -0.1616  1.2058  1.2040
  906SOL    HW2 2718   1.541   2.129   2.889  1.9485 -1.2634 -2.4061
  907SOL     OW 2719   0.932   2.506   0.768  0.0376 -1.0926 -0.1471
  907SOL    HW1 2720   1.005   2.481   0.829  0.5506 -1.0931 -1.7025
  907SOL    HW2 2721   0.976   2.541   0.680 -0.1671 -0.0263 -0.8394
  908SOL     OW 2722   0.819   0.111   2.075  0.3887 -0.3501  0.1557
  908SOL    HW1 2723   0.816   0.016   2.037  1.1513 -0.1073  0.0904
  908SOL    HW2 2724   0.897   0.167   2.040  2.6233  1.0158 -0.2191
  909SOL     OW 2725   1.963   0.213   1.835  0.0830  1.0228  0.3080
  909SOL    HW1 2726   1.983   0.279   1.763 -1.0786 -1.2543 -2.6598
  909SOL    HW2 2727   1.870   0.220   1.881 -1.0962 -0.4139  2.7750
  910SOL     OW 2728   1.101   0.759   2.988 -0.6342 -0.2003  0.1962
  910SOL    HW1 2729   1.001   0.750   2.963 -1.9647 -3.0128  2.6210
  910SOL    HW2 2730   1.116   0.735   3.085  0.4216 -2.6401 -0.3027
  911SOL     OW 2731   0.035   0.541   0.035  0.4197 -0.5927  0.3371
  911SOL    HW1 2732   3.084   0.631   0.026  1.3406 -0.6874 -0.5357
  911SOL    HW2 2733   0.010   0.495   0.119  1.4524 -0.7878  1.1237
  912SOL     OW 2734   2.693   2.446   2.958  0.3576 -0.4115  0.5012
  912SOL    HW1 2735   2.689   2.505   2.872  1.7217 -1.1756 -1.2658
  912SOL    HW2 2736   2.787   2.448   2.992 -1.7287  1.7670 -1.0703
  913SOL     OW 2737   2.502   2.201   2.661  0.1556 -0.2577  0.0203
  913SOL    HW1 2738   2.425   2.158   2.611  0.8993 -3.5737  1.0789
  913SOL    HW2 2739   2.481   2.296   2.680  0.1586 -2.2090  2.5237
  914SOL     OW 2740   1.855   1.699   1.558  0.0870 -0.4395 -0.3057
  914SOL    HW1 2741   1.841   1.800   1.579  1.4424 -0.6973  2.7823
  914SOL    HW2 2742   1.950   1.687   1.524 -2.0095 -1.5173 -2.3611
  915SOL     OW 2743   0.227   2.561   2.158 -0.0132  0.5135 -0.5207
  915SOL    HW1 2744   0.257   2.475   2.111  3.5719 -1.1109 -1.9236
  915SOL    HW2 2745   0.290   2.577   2.234  0.2911 -0.4233 -1.0566
  916SOL     OW 2746   0.218   1.385   1.723  0.2477  0.1855  0.1230
  916SOL    HW1 2747   0.260   1.292   1.712  0.6632 -2.0497  1.2569
  916SOL    HW2 2748   0.144   1.397   1.656  2.9391  0.3282  2.4363
  917SOL     OW 2749   2.610   3.090   3.002 -0.7044  0.0756 -0.3850
  917SOL    HW1 2750   2.521   0.046   2.995 -1.5260 -2.2085 -0.4560
  917SOL    HW2 2751   2.681   0.015   2.929 -0.0966 -2.1993 -0.5773
  918SOL     OW 2752   1.690   2.580   2.354 -0.7636 -0.0062 -0.1176
  918SOL    HW1 2753   1.695   2.661   2.411 -0.8492  0.2955 -1.1111
  918SOL    HW2 2754   1.708   2.601   2.256  0.5403  0.8040 -1.6835
  919SOL     OW 2755   1.800   2.340   1.829  0.4007  0.1682  0.2228
  919SOL    HW1 2756   1.828   2.313   1.733  1.4704  1.8831  2.0477
  919SOL    HW2 2757   1.874   2.310   1.894 -1.6326  0.9199 -0.8918
  920SOL     OW 2758   0.573   0.959   0.055  0.0387 -0.1909 -0.7955
  920SOL    HW1 2759   0.627   0.945   3.067  0.6612 -1.2036  1.0535
  920SOL    HW2 2760   0.633   0.988   0.138 -1.7910  0.8411 -0.7868
  921SOL     OW 2761   2.953   1.085   2.560  0.4267  0.0134  0.4997
  921SOL    HW1 2762   2.876   1.023   2.559  0.1166  3.2103  0.3991
  921SOL    HW2 2763   3.000   1.082   2.464 -1.3110 -0.5741  0.6482
  922SOL     OW 2764   0.284   1.899   0.117 -0.2401 -0.3251 -0.2352
  922SOL    HW1 2765   0.246   1.802   0.112 -0.3713 -3.0265 -1.3121
  922SOL    HW2 2766   0.368   1.896   0.176 -1.0404  1.0023  0.9347
  923SOL     OW 2767   0.523   1.078   1.988 -0.5561 -0.0523  0.7182
  923SOL    HW1 2768   0.426   1.103   2.014 -0.3380 -0.2321  3.9059
  923SOL    HW2 2769   0.526   0.990   1.935 -1.6950 -0.2472 -0.7242
  924SOL     OW 2770   1.032   0.014   2.845  0.4631 -0.1730 -0.5702
  924SOL    HW1 2771   1.021   3.090   2.744  3.1846  0.0154 -1.3131
  924SOL    HW2 2772   0.944   0.055   2.883 -1.4211  1.4204  0.3186
  925SOL     OW 2773   2.442   1.235   1.360 -0.1956 -0.1814  0.3630
  925SOL    HW1 2774   2.376   1.260   1.285  2.3975 -2.1892  1.2226
  925SOL    HW2 2775   2.416   1.284   1.448  0.3491  3.0593  2.0011
  926SOL     OW 2776   2.089   0.304   2.070  0.1586 -0.2853  0.6056
  926SOL    HW1 2777   2.040   0.220   2.038  0.5740 -1.4994 -1.1355
  926SOL    HW2 2778   2.040   0.392   2.054  2.2910  0.4517  1.7107
  927SOL     OW 2779   2.677   2.394   1.815 -0.4440 -0.0479  0.4838
  927SOL    HW1 2780   2.707   2.492   1.825  0.1867  2.3451  2.0131
  927SOL    HW2 2781   2.755   2.333   1.848  1.6832 -2.8593  2.9273
  928SOL     OW 2782   0.519   0.911   2.523 -0.1818 -0.4248  0.3045
  928SOL    HW1 2783   0.455   0.937   2.597 -1.2267 -0.2545  1.1854
  928SOL    HW2 2784   0.466   0.915   2.431 -2.5071  1.9866 -1.3719
  929SOL     OW 2785   2.724   0.116   0.576 -0.4044 -0.9700  0.0023
  929SOL    HW1 2786   2.721   0.035   0.639  1.9297  0.7803 -0.3778
  929SOL    HW2 2787   2.766   0.096   0.485  0.1929  0.8116 -0.5969
  930SOL     OW 2788   2.612   0.234   1.684  0.2484 -0.2399 -0.1469
  930SOL    HW1 2789   2.532   0.182   1.719  2.5987  0.2496  1.7088
  930SOL    HW2 2790   2.658   0.183   1.608 -0.6857 -1.0116  0.3618
  931SOL     OW 2791   2.306   1.213   0.240  0.1334  0.0877  0.5984
  931SOL    HW1 2792   2.319   1.309   0.203 -2.5662 -1.0993  0.6006
  931SOL    HW2 2793   2.388   1.181   0.292  2.8455 -1.0569  1.4161
  932SOL     OW 2794   2.506   1.523   1.580 -0.0531  0.4790 -0.3782
  932SOL    HW1 2795   2.481   1.434   1.618  0.0701  4.8193 -2.5725
  932SOL    HW2 2796   2.431   1.595   1.598 -1.5656  0.7700 -0.0483
  933SOL     OW 2797   3.023   2.535   1.362  0.7836  0.1590 -0.7008
  933SOL    HW1 2798   3.017   2.470   1.437 -1.3440  0.4419  0.1305
  933SOL    HW2 2799   3.048   2.486   1.276  1.0874  0.6796 -2.5845
  934SOL     OW 2800   0.806   2.081   1.240  0.3740  0.3012  0.8213
  934SOL    HW1 2801   0.794   2.162   1.177 -1.2057 -0.1229 -0.0606
  934SOL    HW2 2802   0.869   2.111   1.312 -0.1021 -0.7332 -2.8148
  935SOL     OW 2803   2.515   1.531   2.227  0.0380 -0.1786 -0.7450
  935SOL    HW1 2804   2.542   1.493   2.137 -2.5996 -1.8741  1.4793
  935SOL    HW2 2805   2.508   1.632   2.229  1.4650  0.5110  0.4986
  936SOL     OW 2806   2.446   1.634   1.849  0.2163  0.0214  0.2925
  936SOL    HW1 2807   2.512   1.705   1.834  0.7199  0.3304 -2.9521
  936SOL    HW2 2808   2.487   1.545   1.874  0.3697 -0.3734  0.0587
  937SOL     OW 2809   1.896   1.018   1.988  0.0979  0.5900 -0.9007
  937SOL    HW1 2810   1.893   1.101   1.931 -3.2088 -0.5443  1.0304
  937SOL    HW2 2811   1.950   0.943   1.942  1.4410  1.9201  2.9675
  938SOL     OW 2812   0.837   2.376   2.726  0.2521  0.7265 -0.0019
  938SOL    HW1 2813   0.819   2.443   2.801  0.6896  0.5093 -1.6635
  938SOL    HW2 2814   0.928   2.337   2.742 -3.4197  0.7189 -2.3582
  939SOL     OW 2815   2.571   0.930   2.960  0.6486 -0.7109  0.0532
  939SOL    HW1 2816   2.655   0.906   2.911 -0.8702  3.0860  1.2876
  939SOL    HW2 2817   2.550   0.845   3.018 -0.0585 -0.5023  4.5348
  940SOL     OW 2818   0.999   1.650   1.067 -0.3522  0.4259 -0.1428
  940SOL    HW1 2819   0.907   1.608   1.068  1.6501 -0.7952 -0.7018
  940SOL    HW2 2820   1.004   1.736   1.118 -0.6388  1.9918  1.1365
  941SOL     OW 2821   0.912   2.264   1.978 -0.3404  0.1279  0.1349
  941SOL    HW1 2822   0.823   2.266   2.040 -2.2391 -0.6434  3.4681
  941SOL    HW2 2823   0.992   2.241   2.036  1.0810  1.7394 -1.8101
  942SOL     OW 2824   0.441   2.166   2.949 -0.1808 -0.0013  0.2748
  942SOL    HW1 2825   0.348   2.149   2.992 -0.7654 -2.9800  0.0498
  942SOL    HW2 2826   0.447   2.261   2.905 -0.3008  1.6691 -0.0308
  943SOL     OW 2827   1.852   2.615   1.847  0.6890 -0.4616 -0.3885
  943SOL    HW1 2828   1.827   2.516   1.830  0.7611 -1.2921 -1.1573
  943SOL    HW2 2829   1.947   2.640   1.820 -1.9616 -2.0013  0.6839
  944SOL     OW 2830   1.122   1.591   0.030 -0.5628  0.4824 -0.0169
  944SOL    HW1 2831   1.213   1.629   0.047 -3.1204  1.0275  0.0565
  944SOL    HW2 2832   1.105   1.527   0.109 -0.9475  0.9923  0.5505
  945SOL     OW 2833   2.914   2.850   0.677 -0.5990 -0.2242 -0.0440
  945SOL    HW1 2834   2.961   2.779   0.742 -0.3203 -1.8355  1.0384
  945SOL    HW2 2835   2.938   2.832   0.582 -0.3233  0.4466  3.0026
  946SOL     OW 2836   1.226   1.642   2.725  0.3375 -0.1411  0.0508
  946SOL    HW1 2837   1.282   1.730   2.716 -0.7581  2.2121 -3.7143
  946SOL    HW2 2838   1.154   1.659   2.794 -2.0893 -0.0371 -1.1007
  947SOL     OW 2839   2.663   0.302   1.972  0.2027 -0.5915  0.9670
  947SOL    HW1 2840   2.632   0.269   1.877 -0.5227 -1.1176 -0.2483
  947SOL    HW2 2841   2.594   0.319   2.048  0.1679 -1.0850  1.2331
  948SOL     OW 2842   0.205   1.655   0.835 -0.3535  0.0127 -0.0534
  948SOL    HW1 2843   0.266   1.575   0.804  0.6287  0.8671  0.5518
  948SOL    HW2 2844   0.216   1.669   0.933 -3.0155 -0.4840 -0.2735
  949SOL     OW 2845   0.788   0.828   2.349  0.2904 -0.1575 -0.0384
  949SOL    HW1 2846   0.779   0.772   2.432 -1.9641 -0.0524 -2.4431
  949SOL    HW2 2847   0.866   0.892   2.348 -0.0683 -0.5165 -2.3059
  950SOL     OW 2848   0.301   0.861   1.381  0.0242  0.1115  0.1810
  950SOL    HW1 2849   0.278   0.954   1.350 -1.8301 -0.4286  1.0365
  950SOL    HW2 2850   0.225   0.796   1.360  2.1099 -0.5117  2.7831
  951SOL     OW 2851   0.837   1.507   2.324  0.3141 -0.3567 -0.4426
  951SOL    HW1 2852   0.795   1.579   2.385 -1.5065  0.1663 -1.1112
  951SOL    HW2 2853   0.871   1.558   2.241 -1.4866 -0.0851 -1.0557
  952SOL     OW 2854   1.745   2.103   0.811  0.5343 -0.1025 -0.2102
  952SOL    HW1 2855   1.814   2.031   0.834 -2.0686  2.2895 -0.3265
  952SOL    HW2 2856   1.652   2.072   0.833  0.9763  3.0586  1.9480
  953SOL     OW 2857   0.912   0.752   0.196  0.0030 -0.2100  0.4792
  953SOL    HW1 2858   0.874   0.782   0.287 -0.0498  0.1813  0.6558
  953SOL    HW2 2859   0.983   0.678   0.200 -0.3838 -0.6785  1.3128
  954SOL     OW 2860   2.092   0.973   1.112  0.4450 -0.0175  0.0945
  954SOL    HW1 2861   2.135   0.973   1.024  0.6871  0.6810  0.2965
  954SOL    HW2 2862   1.998   1.014   1.110  1.3957 -1.2104 -2.8582
  955SOL     OW 2863   2.157   1.450   0.566 -0.7356 -0.1694  0.0549
  955SOL    HW1 2864   2.253   1.475   0.552 -2.6106  1.1424 -0.4990
  955SOL    HW2 2865   2.109   1.431   0.479 -1.1004 -2.3282 -0.2992
  956SOL     OW 2866   0.835   0.603   1.958  0.0603 -0.1163 -0.1439
  956SOL    HW1 2867   0.789   0.515   1.987 -1.1071 -1.1462 -0.3540
  956SOL    HW2 2868   0.931   0.586   1.975 -2.7395 -0.9406  0.8008
  957SOL     OW 2869   1.789   0.316   1.147  0.2570 -0.5544 -0.2329
  957SOL    HW1 2870   1.759   0.378   1.219 -2.1003 -0.8042  1.1841
  957SOL    HW2 2871   1.840   0.235   1.190  1.3656 -0.0451  0.5783
  958SOL     OW 2872   0.115   2.203   0.489  0.4138  0.1628 -0.3711
  958SOL    HW1 2873   0.043   2.181   0.416 -2.1899  0.5614  0.8342
  958SOL    HW2 2874   0.178   2.124   0.502 -0.5097 -1.0347  1.0351
  959SOL     OW 2875   2.266   1.218   1.937 -0.0225 -0.1462  0.4905
  959SOL    HW1 2876   2.220   1.300   1.897  0.3117  1.0943 -0.9324
  959SOL    HW2 2877   2.274   1.136   1.872  0.2468 -1.3520  0.4117
  960SOL     OW 2878   0.091   1.930   2.857  0.5310 -0.2134 -0.1136
  960SOL    HW1 2879   0.117   1.997   2.927  0.8617  0.4320  1.8431
  960SOL    HW2 2880   3.086   1.918   2.857 -1.5966 -1.6206 -1.3122
  961SOL     OW 2881   0.573   1.632   1.475 -0.2821 -0.1769  0.2486
  961SOL    HW1 2882   0.627   1.638   1.384  2.6163  0.1566 -2.3666
  961SOL    HW2 2883   0.615   1.688   1.550  0.4934 -1.1098 -2.3602
  962SOL     OW 2884   0.943   1.278   0.935 -0.4679 -0.4685  0.2486
  962SOL    HW1 2885   0.998   1.237   1.009 -0.7929 -2.4413 -0.9291
  962SOL    HW2 2886   1.004   1.298   0.855  0.7061 -0.5487 -0.2221
  963SOL     OW 2887   1.166   2.020   2.340 -0.4145  0.5533  0.2066
  963SOL    HW1 2888   1.095   1.947   2.347 -1.3122 -1.1858 -3.2436
  963SOL    HW2 2889   1.253   1.975   2.318  0.3145 -0.8353  0.9226
  964SOL     OW 2890   0.168   2.848   2.002  0.4181 -0.5036 -0.2824
  964SOL    HW1 2891   0.107   2.816   1.928 -1.1860  1.0491  1.5425
  964SOL    HW2 2892   0.191   2.778   2.074  0.4622  1.7095  0.7594
  965SOL     OW 2893   0.448   2.174   2.665 -0.1065  0.0861 -0.6624
  965SOL    HW1 2894   0.346   2.156   2.655  0.3465 -3.0441 -1.8747
  965SOL    HW2 2895   0.468   2.165   2.762 -1.3005  0.4500  0.7077
  966SOL     OW 2896   3.008   1.705   0.033 -0.9965  0.1826 -0.1865
  966SOL    HW1 2897   2.927   1.707   0.098 -2.0212  0.1009 -0.7518
  966SOL    HW2 2898   3.002   1.627   3.066 -0.5872 -1.2519 -0.5096
  967SOL     OW 2899   2.133   3.013   0.085  0.1758  0.2080 -0.0904
  967SOL    HW1 2900   2.196   2.937   0.052 -0.7732 -0.7573 -0.1794
  967SOL    HW2 2901   2.046   2.973   0.127 -1.2667 -4.4667  1.6040
  968SOL     OW 2902   2.269   0.076   0.778 -0.2159  0.2083  0.1073
  968SOL    HW1 2903   2.244   3.092   0.832 -2.0957  0.3861 -0.9409
  968SOL    HW2 2904   2.274   0.057   0.677  3.7567 -0.7753 -0.8786
  969SOL     OW 2905   0.284   1.106   2.097 -0.4297  0.1088 -0.1208
  969SOL    HW1 2906   0.231   1.185   2.145 -0.1924  3.2361  1.3263
  969SOL    HW2 2907   0.210   1.057   2.047 -1.1579  2.0971  1.3520
  970SOL     OW 2908   1.763   1.526   0.411  0.1934  0.0833 -0.2066
  970SOL    HW1 2909   1.841   1.586   0.427 -2.0678 -1.2058 -0.2654
  970SOL    HW2 2910   1.686   1.579   0.369  0.4413 -0.3812  0.1770
  971SOL     OW 2911   2.525   3.004   1.476 -0.2539  0.1572  0.2305
  971SOL    HW1 2912   2.611   3.019   1.521 -2.0707 -0.0825 -1.1441
  971SOL    HW2 2913   2.547   2.961   1.383  0.6236 -0.1173  1.0612
  972SOL     OW 2914   2.751   0.312   1.252  0.4059  0.3333  0.0911
  972SOL    HW1 2915   2.660   0.344   1.221 -0.8989 -0.1326  2.3957
  972SOL    HW2 2916   2.818   0.387   1.265  0.1106  0.1657 -1.1881
  973SOL     OW 2917   0.343   0.618   2.724 -0.3478 -0.1217 -0.3547
  973SOL    HW1 2918   0.401   0.573   2.656 -0.0216  1.8722  0.9454
  973SOL    HW2 2919   0.250   0.643   2.690 -1.9532 -1.3083  0.1202
  974SOL     OW 2920   2.665   1.160   1.991 -0.1023 -0.2887  0.3838
  974SOL    HW1 2921   2.631   1.107   1.913  1.7250 -1.1442  0.2043
  974SOL    HW2 2922   2.688   1.101   2.071 -0.8912 -0.3678  1.0024
  975SOL     OW 2923   0.848   0.267   1.551 -0.4135  0.2455 -0.3154
  975SOL    HW1 2924   0.886   0.331   1.484 -1.8148 -3.7908  2.3430
  975SOL    HW2 2925   0.915   0.254   1.629  0.1737 -0.6114 -0.9560
  976SOL     OW 2926   1.257   1.634   1.381  0.0229  0.3266  0.2617
  976SOL    HW1 2927   1.260   1.730   1.413 -0.0292  0.6373 -3.0725
  976SOL    HW2 2928   1.162   1.599   1.382 -3.3482  2.4415 -1.5447
  977SOL     OW 2929   0.981   2.968   0.233 -0.1010  0.5058  0.3423
  977SOL    HW1 2930   0.908   2.924   0.287 -3.8153 -1.9211  0.0210
  977SOL    HW2 2931   0.942   3.042   0.176 -0.3452 -1.3247  0.0358
  978SOL     OW 2932   2.221   1.054   2.179  0.5298 -0.0916  0.4476
  978SOL    HW1 2933   2.129   1.065   2.215  4.0689 -1.0056 -0.1414
  978SOL    HW2 2934   2.231   1.111   2.091 -1.1937  1.6540 -2.8102
  979SOL     OW 2935   1.422   0.507   1.711  0.3859  0.0987 -0.1368
  979SOL    HW1 2936   1.435   0.597   1.752  0.5460 -0.4983  0.1451
  979SOL    HW2 2937   1.338   0.505   1.654  1.2402 -2.5664  0.6014
  980SOL     OW 2938   1.763   1.407   2.084  0.3186  0.7991  0.2125
  980SOL    HW1 2939   1.806   1.352   2.158 -0.0565 -0.9631  0.0581
  980SOL    HW2 2940   1.677   1.455   2.119  1.7292  1.2439  0.6404
  981SOL     OW 2941   1.956   0.597   1.481 -0.2761 -0.3486 -0.0062
  981SOL    HW1 2942   1.887   0.640   1.421  2.4671 -1.1942  0.6399
  981SOL    HW2 2943   2.052   0.619   1.446  1.3691 -2.5153 -0.3733
  982SOL     OW 2944   0.743   0.324   2.708 -0.0710  0.9495  0.1819
  982SOL    HW1 2945   0.741   0.377   2.620 -1.2344 -0.6100  1.6536
  982SOL    HW2 2946   0.668   0.356   2.770 -0.6805  0.2456 -1.7502
  983SOL     OW 2947   2.248   0.692   0.043  0.3423  0.1082  0.4988
  983SOL    HW1 2948   2.201   0.604   0.032  0.0189  0.3824  1.7387
  983SOL    HW2 2949   2.220   0.765   3.071 -1.3056 -0.6439 -3.6290
  984SOL     OW 2950   0.718   0.355   2.095  0.2692 -0.3381 -0.3876
  984SOL    HW1 2951   0.742   0.257   2.096 -2.3221 -0.7833 -1.0862
  984SOL    HW2 2952   0.625   0.373   2.140 -1.0630 -1.4019  0.1790
  985SOL     OW 2953   1.645   2.016   2.103  0.4329 -0.9793 -0.4431
  985SOL    HW1 2954   1.677   1.997   2.008 -1.6766  0.2226  0.6313
  985SOL    HW2 2955   1.698   1.953   2.164 -1.5142 -0.2409  0.2229
  986SOL     OW 2956   2.607   2.790   1.976  0.0238  0.0759  0.4973
  986SOL    HW1 2957   2.532   2.721   1.979  1.5664  1.1000  0.9999
  986SOL    HW2 2958   2.563   2.884   1.979 -1.5792  0.5916  0.3172
  987SOL     OW 2959   2.060   1.235   1.336 -0.3449  0.2418 -0.4684
  987SOL    HW1 2960   2.128   1.267   1.267  0.4256 -0.7211 -1.2867
  987SOL    HW2 2961   1.969   1.272   1.311  0.8321 -0.9115  0.5572
  988SOL     OW 2962   2.499   1.796   2.252 -0.5390  0.1812 -0.8563
  988SOL    HW1 2963   2.513   1.865   2.179  2.8581  1.4492  1.0985
  988SOL    HW2 2964   2.581   1.797   2.317  2.3069  1.1390 -0.5611
  989SOL     OW 2965   1.143   2.497   0.152 -0.0174 -0.2622 -0.0769
  989SOL    HW1 2966   1.217   2.498   0.219 -1.4997 -0.1733 -1.9225
  989SOL    HW2 2967   1.061   2.450   0.192 -0.4971 -2.7435 -3.8416
  990SOL     OW 2968   2.197   0.870   2.956  0.3073 -0.2485  0.2166
  990SOL    HW1 2969   2.102   0.877   2.913  0.7184 -1.4830 -2.0258
  990SOL    HW2 2970   2.251   0.955   2.933  0.0089 -2.0615  0.1580
  991SOL     OW 2971   1.024   0.598   0.813  0.3035  0.2529  0.1197
  991SOL    HW1 2972   1.044   0.648   0.902 -0.5508  0.9770 -1.6021
  991SOL    HW2 2973   1.072   0.631   0.730 -0.6019 -0.7132  1.8104
  992SOL     OW 2974   2.292   0.844   1.223  0.2504 -0.4795 -0.1522
  992SOL    HW1 2975   2.356   0.878   1.296  0.0602 -0.5895 -2.3828
  992SOL    HW2 2976   2.223   0.911   1.193  2.1252 -1.8156  1.1478
  993SOL     OW 2977   2.198   0.724   1.975  0.3631  0.3621 -0.1341
  993SOL    HW1 2978   2.140   0.784   1.913 -0.4842  0.3630 -0.7617
  993SOL    HW2 2979   2.286   0.693   1.933  0.5531  0.2942  1.9908
  994SOL     OW 2980   0.740   1.695   2.527  0.2764 -0.1331 -0.0306
  994SOL    HW1 2981   0.774   1.779   2.582  2.5458  0.3460  1.4269
  994SOL    HW2 2982   0.651   1.719   2.480 -2.8153 -1.0880 -1.0968
  995SOL     OW 2983   2.182   1.222   2.992  0.5806 -0.1287  0.2644
  995SOL    HW1 2984   2.187   1.327   2.988  2.2004  0.4015 -1.1599
  995SOL    HW2 2985   2.243   1.173   2.924 -0.1819 -0.0509 -2.3979
  996SOL     OW 2986   2.216   1.918   0.593  0.7454 -0.2496  0.4100
  996SOL    HW1 2987   2.164   1.845   0.637  1.5415 -1.4546 -3.3583
  996SOL    HW2 2988   2.301   1.886   0.550  0.8504 -1.6459  4.0192
  997SOL     OW 2989   2.213   0.678   2.255 -0.4655  0.3915  0.4806
  997SOL    HW1 2990   2.209   0.582   2.290  0.6765  0.0371 -1.8181
  997SOL    HW2 2991   2.186   0.688   2.157  0.5812  0.3340  0.0077
  998SOL     OW 2992   2.615   1.270   0.576 -0.1051 -0.0971  0.7965
  998SOL    HW1 2993   2.585   1.257   0.670  1.3066  0.7363 -4.3812
  998SOL    HW2 2994   2.700   1.324   0.578 -2.2860 -0.7632  0.8442
  999SOL     OW 2995   2.820   1.667   0.428  0.3432 -0.1823 -0.1884
  999SOL    HW1 2996   2.799   1.706   0.336  1.1942  0.7693 -0.1952
  999SOL    HW2 2997   2.864   1.738   0.485  0.0429  1.3942 -0.1708
 1000SOL     OW 2998   0.564   0.715   2.206  0.1014  0.4260 -0.5950
 1000SOL    HW1 2999   0.646   0.755   2.257  0.2108 -0.1222 -0.1986
 1000SOL    HW2 3000   0.480   0.772   2.218 -2.1917  0.0751  0.7068
   3.09766   3.09766   3.09766
