1000 SPC/Fw water molecules t= 498.00000 step= 498000
 3000
    1SOL     OW    1   2.918   2.903   1.126 -0.7609  0.0188 -0.0268
    1SOL    HW1    2   2.981   2.973   1.089 -3.5975 -0.2963  1.2858
    1SOL    HW2    3   2.969   2.823   1.161  1.6826  0.0740  0.9952
    2SOL     OW    4   2.952   2.625   2.983  0.3386 -0.5296 -0.0869
    2SOL    HW1    5   3.045   2.655   3.010 -1.7694 -2.3521 -2.1788
    2SOL    HW2    6   2.938   2.528   3.012 -1.1248  2.2246 -0.1182
    3SOL     OW    7   1.104   1.966   0.258  0.0666 -0.2743 -0.1509
    3SOL    HW1    8   1.141   1.905   0.334  1.0612  0.1731  0.6039
    3SOL    HW2    9   1.113   2.063   0.283 -1.9534  0.9517  0.0672
    4SOL     OW   10   1.337   2.563   2.675  0.2192 -0.2806  0.0917
    4SOL    HW1   11   1.344   2.635   2.601 -1.4158 -0.7583 -0.1575
    4SOL    HW2   12   1.420   2.538   2.728 -1.3774 -0.4359  0.1297
    5SOL     OW   13   1.824   3.079   2.861 -0.8516  0.3138  0.1793
    5SOL    HW1   14   1.865   3.072   2.770 -0.6446  3.0848 -0.5931
    5SOL    HW2   15   1.858   0.076   2.923 -0.2255 -0.5420 -1.4879
    6SOL     OW   16   0.192   1.549   0.817  0.3120  0.4075 -0.0452
    6SOL    HW1   17   0.287   1.537   0.797 -3.1550 -1.3412 -0.4660
    6SOL    HW2   18   0.135   1.596   0.742 -2.6856 -1.6569 -2.6297
    7SOL     OW   19   1.189   1.789   0.457 -0.4730  0.7574  0.3111
    7SOL    HW1   20   1.089   1.793   0.476  0.1507  1.8922  1.3691
    7SOL    HW2   21   1.241   1.829   0.539  0.4047  1.3897  0.2974
    8SOL     OW   22   0.236   0.529   0.217 -0.1977 -0.2253 -0.4110
    8SOL    HW1   23   0.237   0.443   0.275 -0.1716  0.0116  2.0523
    8SOL    HW2   24   0.139   0.564   0.212 -0.0948 -0.7640 -1.5432
    9SOL     OW   25   2.950   2.597   1.770  0.4011 -0.0966 -0.1678
    9SOL    HW1   26   2.972   2.659   1.853  1.3936  2.6835  1.9928
    9SOL    HW2   27   2.992   2.634   1.681 -0.4068 -0.8131 -1.8276
   10SOL     OW   28   1.434   1.714   0.319  0.5179 -0.2513  0.3773
   10SOL    HW1   29   1.462   1.757   0.230  1.1530 -0.3562 -0.9024
   10SOL    HW2   30   1.340   1.753   0.334  0.4622 -0.5908 -2.5674
   11SOL     OW   31   1.920   0.251   1.537  0.6664  0.0932  0.6475
   11SOL    HW1   32   1.968   0.283   1.458 -2.7844  1.3134  1.1404
   11SOL    HW2   33   1.837   0.308   1.556 -0.3316  2.4780  2.4118
   12SOL     OW   34   0.261   0.796   2.208  0.6799  0.1190 -0.1140
   12SOL    HW1   35   0.233   0.764   2.303 -1.5089 -1.1927 -1.7174
   12SOL    HW2   36   0.285   0.715   2.152 -0.4261  2.1945  1.1554
   13SOL     OW   37   1.969   0.447   3.072 -0.1051  0.3416 -0.6104
   13SOL    HW1   38   1.930   0.494   0.077 -1.5016  0.9559  0.2351
   13SOL    HW2   39   2.071   0.454   3.059  0.6451  1.4729  0.5322
   14SOL     OW   40   2.202   2.351   3.058 -0.2364 -0.2711 -0.2811
   14SOL    HW1   41   2.149   2.283   0.034  1.9425  0.0435 -2.7526
   14SOL    HW2   42   2.137   2.398   2.995 -2.1360 -1.1586  0.9418
   15SOL     OW   43   2.543   2.994   0.092  0.2638 -0.2766  0.1466
   15SOL    HW1   44   2.606   2.921   0.132  0.7980 -1.3108 -1.5496
   15SOL    HW2   45   2.448   2.978   0.111  1.7194  4.5395 -2.6045
   16SOL     OW   46   0.019   0.708   1.249  0.0888 -0.7659 -0.3161
   16SOL    HW1   47   0.043   0.613   1.275 -0.6927  1.1461 -1.1872
   16SOL    HW2   48   0.094   0.766   1.280 -0.1893  1.1516 -1.8650
   17SOL     OW   49   0.792   0.200   0.928  0.2800  0.0952  0.0105
   17SOL    HW1   50   0.719   0.269   0.942 -0.8278 -2.6535  1.6296
   17SOL    HW2   51   0.882   0.241   0.903  1.8200 -0.5061  1.2875
   18SOL     OW   52   2.836   0.293   0.636  0.2470  0.4947  0.6711
   18SOL    HW1   53   2.854   0.199   0.674 -0.2636 -0.1316 -1.8322
   18SOL    HW2   54   2.910   0.312   0.571  0.4904 -1.4432  0.6775
   19SOL     OW   55   2.133   1.941   1.105  0.0174  0.3547 -0.2581
   19SOL    HW1   56   2.234   1.936   1.120 -3.7032 -0.6496 -1.6981
   19SOL    HW2   57   2.097   1.845   1.111 -1.7026 -0.2238 -0.4534
   20SOL     OW   58   2.213   1.808   2.052  1.0046  0.5747 -0.5242
   20SOL    HW1   59   2.152   1.846   2.121 -0.0898 -1.3396  0.8314
   20SOL    HW2   60   2.216   1.863   1.972  0.5465 -3.6137  3.0308
   21SOL     OW   61   1.091   0.295   0.335  0.0685  0.1101  0.5008
   21SOL    HW1   62   1.052   0.291   0.242 -0.6178 -1.3479  2.6725
   21SOL    HW2   63   1.155   0.372   0.352  1.4922 -1.6488  0.4705
   22SOL     OW   64   2.367   0.952   2.960  0.1071 -0.1718 -0.4623
   22SOL    HW1   65   2.459   0.926   2.996  0.1589 -1.1252 -1.3588
   22SOL    HW2   66   2.313   0.867   2.934 -1.6397  1.0952 -0.7933
   23SOL     OW   67   0.063   0.176   2.183  0.0601  0.0063  0.1615
   23SOL    HW1   68   0.045   0.095   2.239  2.2399  0.3899 -1.9763
   23SOL    HW2   69   0.037   0.257   2.230  1.0812 -1.7693 -4.2555
   24SOL     OW   70   2.179   2.309   1.006  0.5394  0.3313  0.7786
   24SOL    HW1   71   2.146   2.403   1.026 -2.3332  2.1207  0.0098
   24SOL    HW2   72   2.131   2.279   0.921  0.8479 -0.5651 -1.3596
   25SOL     OW   73   1.550   0.210   3.042  0.0379 -0.0203  0.6957
   25SOL    HW1   74   1.479   0.237   0.024 -0.5371  0.6985 -2.7141
   25SOL    HW2   75   1.581   0.115   3.058  1.0452 -1.0823 -2.9279
   26SOL     OW   76   1.367   2.702   2.979 -0.4431  0.1932 -0.1708
   26SOL    HW1   77   1.429   2.617   2.983 -1.0039 -0.2647 -0.4007
   26SOL    HW2   78   1.292   2.692   2.913  1.2070  3.0308 -0.2985
   27SOL     OW   79   0.824   0.659   1.429  0.1048 -0.2221 -0.1414
   27SOL    HW1   80   0.771   0.573   1.450  0.0886  0.2245 -0.7361
   27SOL    HW2   81   0.772   0.746   1.449 -0.1992  0.3055  2.3778
   28SOL     OW   82   0.800   1.756   1.548  0.3553 -0.3323  0.7431
   28SOL    HW1   83   0.805   1.675   1.612  1.3690 -1.9759  0.9241
   28SOL    HW2   84   0.828   1.845   1.591 -0.8995 -0.0876 -0.9434
   29SOL     OW   85   2.432   0.485   0.546 -0.0283  0.0161 -0.0966
   29SOL    HW1   86   2.471   0.479   0.455  0.1793 -1.2409 -1.9236
   29SOL    HW2   87   2.496   0.470   0.621 -1.3200 -1.9118  2.8974
   30SOL     OW   88   1.541   0.083   1.727  0.5870  0.1017 -1.3136
   30SOL    HW1   89   1.465   0.146   1.759  1.0563  1.0146  0.3907
   30SOL    HW2   90   1.493   3.078   1.714 -0.0552  1.3864 -2.8353
   31SOL     OW   91   0.954   0.290   1.214 -0.2046  0.6046 -0.0250
   31SOL    HW1   92   0.935   0.391   1.185 -1.3839 -0.8420  1.0224
   31SOL    HW2   93   0.872   0.231   1.222 -0.3123 -0.2273 -0.0631
   32SOL     OW   94   2.238   0.941   2.090 -0.3729  0.3699 -0.2135
   32SOL    HW1   95   2.333   0.981   2.102  1.4761 -0.8327 -3.1723
   32SOL    HW2   96   2.245   0.853   2.032  0.5562  1.1812 -1.2242
   33SOL     OW   97   2.423   2.473   2.700  0.3999 -0.6602 -0.2047
   33SOL    HW1   98   2.524   2.470   2.712  1.4292 -0.9177 -2.0841
   33SOL    HW2   99   2.393   2.450   2.606 -0.9300 -2.4380  2.0852
   34SOL     OW  100   2.020   1.008   0.029  0.0716  0.6277  0.1988
   34SOL    HW1  101   2.108   1.013   0.077 -2.2428 -2.1970 -2.1164
   34SOL    HW2  102   2.024   0.952   3.023  1.7304  0.2250 -1.2480
   35SOL     OW  103   2.792   0.973   1.201 -0.3491  0.6439 -0.0505
   35SOL    HW1  104   2.778   0.930   1.113 -1.0647  0.7335  1.9748
   35SOL    HW2  105   2.835   1.062   1.181  1.8810 -1.7238 -1.4368
   36SOL     OW  106   2.019   2.253   2.468 -0.2480  0.5714  0.1054
   36SOL    HW1  107   1.961   2.252   2.383 -2.2529  1.6377  2.0318
   36SOL    HW2  108   2.115   2.225   2.441  2.5040 -0.2053 -0.0231
   37SOL     OW  109   1.683   2.971   2.249  0.4557 -0.1902  0.7079
   37SOL    HW1  110   1.720   2.956   2.156  1.2676 -0.5560 -2.0190
   37SOL    HW2  111   1.755   2.954   2.319  1.3563 -1.7316  1.6430
   38SOL     OW  112   1.117   1.626   2.442 -0.0145 -0.0184 -0.1184
   38SOL    HW1  113   1.125   1.683   2.528  0.3046  1.4671 -0.7420
   38SOL    HW2  114   1.099   1.686   2.366 -0.3330 -0.6873  0.7669
   39SOL     OW  115   1.673   0.349   1.568  0.1513 -0.1265 -0.5018
   39SOL    HW1  116   1.588   0.405   1.557  0.9978  0.1178 -1.9250
   39SOL    HW2  117   1.650   0.257   1.531 -1.1242  1.5625 -2.4157
   40SOL     OW  118   0.695   1.980   0.416  0.1844  0.4582  1.2851
   40SOL    HW1  119   0.640   1.947   0.335 -1.5099  1.9794  0.4680
   40SOL    HW2  120   0.650   2.065   0.452  0.2781  0.4657 -0.8514
   41SOL     OW  121   2.360   2.407   1.306  0.2184  0.4122 -0.0033
   41SOL    HW1  122   2.311   2.490   1.276  0.4865 -0.5034 -1.8744
   41SOL    HW2  123   2.414   2.420   1.394  1.3863  1.1208  2.1589
   42SOL     OW  124   2.466   2.555   0.570 -0.1440  0.6227 -0.0755
   42SOL    HW1  125   2.475   2.645   0.527  1.1180  0.2942  2.4762
   42SOL    HW2  126   2.420   2.493   0.507 -1.5255 -1.0476  0.0970
   43SOL     OW  127   0.921   1.852   1.962  0.0241 -0.1264  0.0129
   43SOL    HW1  128   0.896   1.937   2.009  1.0717 -0.0770 -0.9537
   43SOL    HW2  129   0.980   1.789   2.021 -0.8429 -0.9503 -0.9966
   44SOL     OW  130   1.809   2.989   1.163  0.6965 -0.1709 -0.4138
   44SOL    HW1  131   1.728   3.053   1.181  0.8393 -0.3532 -1.4608
   44SOL    HW2  132   1.827   2.977   1.063  1.2003  0.7234 -0.1228
   45SOL     OW  133   3.068   2.558   2.483 -0.1324  0.6698 -0.3132
   45SOL    HW1  134   3.019   2.494   2.549 -2.9678 -0.6896 -0.1486
   45SOL    HW2  135   0.037   2.633   2.535 -2.6089 -2.2130 -0.7408
   46SOL     OW  136   0.855   2.779   1.883  0.2361 -0.3425  0.3225
   46SOL    HW1  137   0.794   2.731   1.945  3.3295  0.8974 -1.5829
   46SOL    HW2  138   0.807   2.847   1.826 -3.5449  0.0974 -0.6294
   47SOL     OW  139   0.202   2.116   0.641  0.3313  0.8593  0.1566
   47SOL    HW1  140   0.178   2.107   0.543 -0.1542  2.3259  4.4697
   47SOL    HW2  141   0.265   2.044   0.681  0.1303 -1.7788  0.1308
   48SOL     OW  142   0.722   2.970   1.692  0.0528 -0.3377 -0.6521
   48SOL    HW1  143   0.649   2.906   1.671  0.6615 -0.2434 -0.8958
   48SOL    HW2  144   0.721   3.044   1.620  0.6634 -0.3796 -2.4541
   49SOL     OW  145   0.563   0.051   0.050  0.1965  0.3543  0.3072
   49SOL    HW1  146   0.564   0.136   0.000  0.7807 -2.1259  0.4139
   49SOL    HW2  147   0.530   3.059   3.065  0.1370  1.6685 -0.5743
   50SOL     OW  148   1.573   1.001   0.674  0.1859  0.2106 -0.5627
   50SOL    HW1  149   1.509   0.925   0.703 -0.3944 -0.4899  2.8392
   50SOL    HW2  150   1.655   1.010   0.730  0.0431  5.5317 -2.9320
   51SOL     OW  151   1.777   3.002   0.860 -0.1572 -0.0574  0.8176
   51SOL    HW1  152   1.747   2.907   0.842  0.7933 -1.8611 -2.1779
   51SOL    HW2  153   1.699   3.067   0.837  0.1562  1.5614  2.8271
   52SOL     OW  154   0.805   1.390   0.974 -0.0845  0.0800  0.0859
   52SOL    HW1  155   0.833   1.467   0.912  0.8654 -1.3414  1.3899
   52SOL    HW2  156   0.716   1.416   1.017  1.3924  2.4692  1.6589
   53SOL     OW  157   0.136   0.667   2.786  0.1734  0.2267 -0.4477
   53SOL    HW1  158   0.114   0.689   2.885 -0.6324  1.0744  0.4532
   53SOL    HW2  159   0.051   0.629   2.744  1.6015 -1.0809  0.0868
   54SOL     OW  160   2.211   1.987   2.789 -0.4092 -0.0639 -0.1622
   54SOL    HW1  161   2.194   1.954   2.885  0.2269 -0.9667 -1.2007
   54SOL    HW2  162   2.309   2.008   2.772 -0.6531  1.0417  2.6176
   55SOL     OW  163   2.735   1.976   1.411  0.0945  0.2110  0.0719
   55SOL    HW1  164   2.634   1.962   1.413 -2.2342 -0.3817  2.0341
   55SOL    HW2  165   2.770   2.034   1.485  1.0650 -2.2662 -0.9367
   56SOL     OW  166   1.842   1.182   1.466  0.4819 -0.2702  0.2319
   56SOL    HW1  167   1.942   1.192   1.458 -0.8268  0.9129  1.6446
   56SOL    HW2  168   1.792   1.259   1.421 -1.6812 -0.6897  0.3214
   57SOL     OW  169   2.400   1.832   0.844 -0.0717 -0.2937  0.5483
   57SOL    HW1  170   2.374   1.860   0.938 -0.8874 -0.5832  0.0492
   57SOL    HW2  171   2.472   1.895   0.809 -1.3538  4.3778  0.1770
   58SOL     OW  172   1.904   0.193   2.233  0.0817 -0.1075  0.3704
   58SOL    HW1  173   1.980   0.227   2.289 -0.6420 -0.6222 -2.7087
   58SOL    HW2  174   1.929   0.147   2.146 -0.2413 -1.2130 -0.0325
   59SOL     OW  175   1.464   0.347   2.365 -0.5172  0.0372  0.1345
   59SOL    HW1  176   1.496   0.250   2.350 -0.1344  0.5464  0.5154
   59SOL    HW2  177   1.473   0.398   2.279  0.4274 -0.3173  0.6700
   60SOL     OW  178   1.960   1.796   3.021 -0.1425 -0.1642 -0.4422
   60SOL    HW1  179   1.915   1.709   2.997  1.4397 -0.1912  0.0985
   60SOL    HW2  180   1.926   1.874   2.971  1.8997 -1.8546  1.3110
   61SOL     OW  181   0.482   2.123   3.065  0.1793 -0.1161  0.0927
   61SOL    HW1  182   0.520   2.204   3.023 -0.5803 -1.8984  3.6171
   61SOL    HW2  183   0.398   2.085   3.031  2.7557  1.9800 -1.8290
   62SOL     OW  184   1.464   2.596   1.197  0.0542 -0.2805 -0.4944
   62SOL    HW1  185   1.394   2.523   1.206  2.3833 -0.5226 -0.8626
   62SOL    HW2  186   1.439   2.661   1.275 -0.6623 -1.2380  0.9733
   63SOL     OW  187   0.603   1.745   0.492 -0.6856 -0.2939  0.3675
   63SOL    HW1  188   0.616   1.689   0.409  2.0238  1.9943 -0.4287
   63SOL    HW2  189   0.657   1.834   0.487  2.2654  0.2332 -0.1501
   64SOL     OW  190   1.858   1.718   2.562 -0.3998  0.7936 -0.3514
   64SOL    HW1  191   1.952   1.738   2.601  0.3981 -0.6331 -2.5038
   64SOL    HW2  192   1.868   1.724   2.464 -0.1616 -0.4883 -1.6478
   65SOL     OW  193   1.931   1.997   1.562  0.4667 -0.3258 -0.0043
   65SOL    HW1  194   1.843   1.965   1.528  1.3819 -0.3521  3.6736
   65SOL    HW2  195   1.999   1.935   1.518 -0.3319  1.2048  0.1140
   66SOL     OW  196   2.581   0.121   0.601 -0.2489  0.0454 -0.2631
   66SOL    HW1  197   2.660   0.176   0.617 -3.5351  0.1181 -1.0095
   66SOL    HW2  198   2.524   0.103   0.685 -0.5136 -0.4124  3.1430
   67SOL     OW  199   2.037   2.581   0.990 -0.3213  0.3785 -0.1991
   67SOL    HW1  200   1.988   2.647   1.051  1.8694  0.9660  2.5581
   67SOL    HW2  201   2.003   2.577   0.892 -1.9141 -0.2836 -2.2017
   68SOL     OW  202   2.632   2.684   1.429 -0.5073  0.0763  0.2717
   68SOL    HW1  203   2.559   2.664   1.501 -2.2632 -0.9513  1.8898
   68SOL    HW2  204   2.645   2.781   1.405  0.5711 -0.6455  0.3251
   69SOL     OW  205   2.575   2.547   2.942 -0.1600 -0.7003  0.6895
   69SOL    HW1  206   2.532   2.496   3.015  1.8065 -0.1753 -0.8281
   69SOL    HW2  207   2.557   2.644   2.964 -2.3943  0.1554 -3.7106
   70SOL     OW  208   1.239   1.892   2.251  0.7829  0.1247 -0.0510
   70SOL    HW1  209   1.181   1.977   2.249  1.3702  1.4702  1.8640
   70SOL    HW2  210   1.329   1.908   2.293 -1.3209  0.3093  0.6755
   71SOL     OW  211   1.083   2.144   1.841  0.2510 -0.3388 -0.3112
   71SOL    HW1  212   1.027   2.129   1.925 -2.2367 -3.0488 -0.1891
   71SOL    HW2  213   1.174   2.183   1.862 -0.6256  1.2860  2.0065
   72SOL     OW  214   2.553   1.144   1.562  0.1093  0.0286  0.6402
   72SOL    HW1  215   2.647   1.129   1.528 -0.5729 -1.5337 -0.3901
   72SOL    HW2  216   2.529   1.066   1.622  0.0015 -0.6230  1.2035
   73SOL     OW  217   0.468   2.079   2.338  0.3621  0.3754 -0.6730
   73SOL    HW1  218   0.554   2.064   2.288 -1.0963 -2.0059  0.3961
   73SOL    HW2  219   0.396   2.133   2.283  0.5079  1.0237 -3.1848
   74SOL     OW  220   0.943   0.193   2.530  0.3845  0.3055 -0.1854
   74SOL    HW1  221   0.915   0.095   2.555  1.5680  0.0424  0.8295
   74SOL    HW2  222   1.027   0.202   2.477  0.9192  2.3230 -0.0533
   75SOL     OW  223   1.054   2.818   0.677  0.2764  0.1195 -0.6190
   75SOL    HW1  224   1.133   2.807   0.610  0.6394  0.5890  2.6222
   75SOL    HW2  225   1.002   2.902   0.654 -1.5185  0.7339  2.0739
   76SOL     OW  226   0.432   1.205   2.391  0.1754 -0.1704  0.7459
   76SOL    HW1  227   0.499   1.244   2.450 -1.9073  1.0550 -2.0248
   76SOL    HW2  228   0.340   1.233   2.421  2.6514 -2.8957  1.0588
   77SOL     OW  229   0.516   2.582   0.558  0.5318  0.0899  0.3049
   77SOL    HW1  230   0.417   2.580   0.530  0.4992 -3.1906 -2.8161
   77SOL    HW2  231   0.554   2.680   0.560  0.8094 -0.0033  2.4014
   78SOL     OW  232   2.596   1.034   2.764 -0.5131  0.0379  0.2955
   78SOL    HW1  233   2.557   0.940   2.744 -1.3175 -0.5182 -4.1738
   78SOL    HW2  234   2.524   1.106   2.764 -0.6854  1.3957  1.1085
   79SOL     OW  235   0.794   1.531   2.204  0.1884  0.2702  0.1141
   79SOL    HW1  236   0.774   1.613   2.260  1.0306 -0.6897 -0.1685
   79SOL    HW2  237   0.885   1.539   2.164 -2.2710  1.8986  0.3439
   80SOL     OW  238   2.230   0.972   1.487 -0.6234  0.1019  0.7982
   80SOL    HW1  239   2.308   0.911   1.466  2.2025  1.0772 -2.0565
   80SOL    HW2  240   2.144   0.931   1.450  1.9368 -0.2755 -0.6144
   81SOL     OW  241   2.167   1.080   2.599  0.2388 -0.2184 -0.1555
   81SOL    HW1  242   2.077   1.051   2.635  1.8518 -0.1634 -1.6101
   81SOL    HW2  243   2.174   1.043   2.507 -1.1036  1.2458  1.4297
   82SOL     OW  244   2.476   1.970   1.442  0.2810 -0.4888 -0.2319
   82SOL    HW1  245   2.398   2.031   1.415 -0.3438  0.9408 -1.8193
   82SOL    HW2  246   2.451   1.872   1.448  1.6156 -1.3709 -0.4841
   83SOL     OW  247   1.595   3.038   0.541  0.3618  0.1180  0.2985
   83SOL    HW1  248   1.544   3.027   0.631 -1.5815 -0.9200 -1.0573
   83SOL    HW2  249   1.534   2.996   0.471 -0.3763  1.6037  1.3014
   84SOL     OW  250   0.985   0.633   0.661 -0.3271  0.3454  0.4814
   84SOL    HW1  251   1.044   0.555   0.644 -0.9472  1.7636  1.6613
   84SOL    HW2  252   0.957   0.641   0.760  2.0650  1.9452  1.0381
   85SOL     OW  253   2.537   1.680   1.168 -0.0159  0.0334  0.1908
   85SOL    HW1  254   2.630   1.681   1.212  1.8681 -0.6822  0.1905
   85SOL    HW2  255   2.466   1.638   1.228  0.9305  0.4130  0.0858
   86SOL     OW  256   0.522   0.519   1.161  0.1963  0.3340  0.4198
   86SOL    HW1  257   0.507   0.617   1.191 -0.2876 -0.6540  0.2297
   86SOL    HW2  258   0.442   0.464   1.183  2.3577  0.8840 -0.4604
   87SOL     OW  259   0.112   1.961   2.534  0.1607 -0.0022  0.7857
   87SOL    HW1  260   0.123   1.958   2.432  0.4025 -0.1363  0.3933
   87SOL    HW2  261   0.050   1.887   2.578 -0.4530 -3.5105  1.2420
   88SOL     OW  262   0.324   0.158   2.870  0.8371 -0.2955 -0.6613
   88SOL    HW1  263   0.416   0.153   2.825 -0.7505  0.3329 -1.5125
   88SOL    HW2  264   0.270   0.074   2.862  1.0465  2.7230 -0.8191
   89SOL     OW  265   1.583   0.589   0.754  0.2044  0.4885 -0.6178
   89SOL    HW1  266   1.503   0.649   0.781  1.4337  1.3497  0.4438
   89SOL    HW2  267   1.601   0.511   0.820  2.1067  1.4164  0.5825
   90SOL     OW  268   2.998   0.951   1.726  0.4080  0.5848 -0.2142
   90SOL    HW1  269   3.066   0.899   1.678 -2.2583  0.1530  1.0103
   90SOL    HW2  270   2.976   0.902   1.814 -0.2610  1.5783  1.5272
   91SOL     OW  271   1.899   2.561   0.749 -0.1954  0.0405 -0.5509
   91SOL    HW1  272   1.945   2.515   0.673 -0.1609  1.2863  1.6724
   91SOL    HW2  273   1.843   2.495   0.800  2.5438  1.0584 -2.6452
   92SOL     OW  274   1.736   2.390   0.433  0.0312  0.1142  0.5881
   92SOL    HW1  275   1.832   2.409   0.456 -3.2123 -1.7674  1.4306
   92SOL    HW2  276   1.668   2.418   0.507 -0.1034 -0.2349 -1.7427
   93SOL     OW  277   0.334   1.258   0.182 -0.3443  0.4242  0.3118
   93SOL    HW1  278   0.298   1.186   0.249  1.2426 -3.0018  1.6443
   93SOL    HW2  279   0.307   1.350   0.219 -0.7414  1.4970  0.9704
   94SOL     OW  280   0.738   2.039   1.172 -1.0288  0.2774  0.3454
   94SOL    HW1  281   0.822   2.095   1.149 -0.4488 -1.0674  1.1120
   94SOL    HW2  282   0.656   2.096   1.161  0.2712 -0.2250  0.1117
   95SOL     OW  283   0.611   0.803   0.118 -0.4220  0.2559 -0.8525
   95SOL    HW1  284   0.660   0.887   0.136 -1.5955 -3.1072 -0.7248
   95SOL    HW2  285   0.542   0.774   0.194 -0.6177 -0.8993  0.0682
   96SOL     OW  286   1.248   2.497   2.361  0.1341  0.0366  0.4856
   96SOL    HW1  287   1.197   2.558   2.422  1.1189 -1.2804 -2.1322
   96SOL    HW2  288   1.188   2.439   2.301 -0.8452 -1.7177 -1.1305
   97SOL     OW  289   2.685   0.959   0.327  0.0995  0.4497  0.3464
   97SOL    HW1  290   2.583   0.977   0.310 -3.8029  0.8338  0.4697
   97SOL    HW2  291   2.743   1.021   0.271 -1.7786 -0.4677 -0.6853
   98SOL     OW  292   0.139   1.964   1.919 -0.2947 -0.1163 -0.5930
   98SOL    HW1  293   0.177   1.997   1.830 -1.4453 -0.3661  0.2402
   98SOL    HW2  294   0.206   1.908   1.972  0.6066 -2.4458  1.5199
   99SOL     OW  295   0.136   0.652   1.907 -0.4769 -0.0325 -0.0989
   99SOL    HW1  296   0.190   0.572   1.886 -0.3757  4.0396 -1.1244
   99SOL    HW2  297   0.197   0.729   1.914 -0.9686  1.6424  0.9663
  100SOL     OW  298   1.876   0.731   2.398  0.3469 -0.0141  0.4092
  100SOL    HW1  299   1.859   0.647   2.340 -0.3976 -0.6178  0.2843
  100SOL    HW2  300   1.794   0.788   2.423  0.3927  1.9675  1.3395
  101SOL     OW  301   0.740   0.447   2.024  0.0863  0.2216 -0.4760
  101SOL    HW1  302   0.836   0.457   2.053 -2.4528 -1.6795  1.8164
  101SOL    HW2  303   0.692   0.388   2.088 -2.3184  0.3017 -2.4675
  102SOL     OW  304   0.228   0.374   1.791 -0.6031  0.1683  0.5698
  102SOL    HW1  305   0.325   0.356   1.759 -0.3368 -1.1536  0.1192
  102SOL    HW2  306   0.209   0.319   1.875 -1.8948  0.9575 -0.8751
  103SOL     OW  307   0.417   0.525   0.021 -0.3724 -0.0768  0.4331
  103SOL    HW1  308   0.362   0.544   0.103  0.6920 -0.2018 -1.2386
  103SOL    HW2  309   0.485   0.598   0.002 -0.6562  1.8792  1.7440
  104SOL     OW  310   0.525   2.760   1.766  0.1116  0.3062 -0.1848
  104SOL    HW1  311   0.441   2.701   1.772  0.1733  0.3988 -0.5445
  104SOL    HW2  312   0.593   2.727   1.835 -0.4396  0.4768 -1.2416
  105SOL     OW  313   2.468   2.784   2.000  0.1110 -0.7827  0.3492
  105SOL    HW1  314   2.565   2.750   1.999  0.8515 -0.6203  0.0724
  105SOL    HW2  315   2.456   2.879   1.968  0.0903 -1.0886 -0.6197
  106SOL     OW  316   0.379   2.958   0.720  0.1881 -0.0142  0.5956
  106SOL    HW1  317   0.406   3.048   0.762  2.0019  2.4285 -0.4020
  106SOL    HW2  318   0.448   2.885   0.737 -0.2616 -0.7650  1.0843
  107SOL     OW  319   0.037   1.068   1.111  0.4298 -0.1497  0.2118
  107SOL    HW1  320   3.036   1.126   1.136 -1.0465  0.1658  1.2599
  107SOL    HW2  321   0.122   1.121   1.126 -2.4808  1.1916  0.8698
  108SOL     OW  322   0.264   2.501   1.044  0.0070  0.0564 -0.1095
  108SOL    HW1  323   0.320   2.485   0.962 -1.8085  0.9078  1.0715
  108SOL    HW2  324   0.294   2.425   1.107  2.5417 -0.2586  1.9047
  109SOL     OW  325   1.325   2.743   0.165  0.4305  0.1467  0.0299
  109SOL    HW1  326   1.350   2.733   0.067 -2.6051 -0.5207 -0.6914
  109SOL    HW2  327   1.356   2.656   0.213 -2.8340 -1.4393  1.2090
  110SOL     OW  328   1.593   2.087   0.604 -0.0224  0.2409 -0.2202
  110SOL    HW1  329   1.642   2.082   0.514  0.3396  2.9177  1.5652
  110SOL    HW2  330   1.530   2.166   0.590  2.4084  0.4263  1.1075
  111SOL     OW  331   1.795   2.888   2.018 -0.0214 -0.2069 -0.0301
  111SOL    HW1  332   1.785   2.814   1.947  0.0047  0.2843  2.7630
  111SOL    HW2  333   1.889   2.879   2.056  0.9333  1.0539  0.5162
  112SOL     OW  334   1.998   2.467   2.613  0.2503  0.3080 -0.0981
  112SOL    HW1  335   2.005   2.388   2.548  0.6956  0.1262 -2.2482
  112SOL    HW2  336   2.049   2.549   2.581 -2.4268  1.4899  0.6901
  113SOL     OW  337   2.540   2.011   2.089  0.3634  0.0391 -0.0803
  113SOL    HW1  338   2.575   2.092   2.147 -1.0359  1.8728 -0.5698
  113SOL    HW2  339   2.491   2.047   2.009  0.0737 -0.3614 -0.4848
  114SOL     OW  340   0.075   1.199   1.742 -0.5097  0.1760 -0.1012
  114SOL    HW1  341   0.001   1.131   1.744  1.4684  2.0887 -0.7974
  114SOL    HW2  342   0.034   1.289   1.772  0.7927  3.0911  0.5098
  115SOL     OW  343   0.108   0.716   3.055  0.2305 -0.2726 -0.0404
  115SOL    HW1  344   0.027   0.697   0.030  1.2077  1.2398  0.1662
  115SOL    HW2  345   0.172   0.753   0.044 -0.8674 -0.2341  0.4846
  116SOL     OW  346   2.710   0.301   3.025 -0.1241 -0.2303  0.2104
  116SOL    HW1  347   2.722   0.401   2.997 -0.9600  1.4345 -1.9761
  116SOL    HW2  348   2.711   0.245   2.944  1.2467  1.5295  0.6255
  117SOL     OW  349   2.862   2.733   0.661  0.0505  0.6944 -0.0413
  117SOL    HW1  350   2.869   2.688   0.569 -3.1206  0.3525 -0.1207
  117SOL    HW2  351   2.775   2.701   0.708 -1.9147 -1.8401 -0.6288
  118SOL     OW  352   1.092   2.351   2.196 -0.2639 -0.7392 -0.2959
  118SOL    HW1  353   1.117   2.345   2.096 -0.0022 -2.1482  0.2005
  118SOL    HW2  354   0.989   2.370   2.201 -1.2387  2.6515 -2.3379
  119SOL     OW  355   0.693   2.868   2.992  0.2083 -0.0717 -0.9717
  119SOL    HW1  356   0.746   2.782   3.009 -2.2256  0.7851 -3.8121
  119SOL    HW2  357   0.601   2.861   3.040  0.3371 -1.1647 -0.3303
  120SOL     OW  358   1.356   1.008   0.016 -0.2143  0.5525 -0.2574
  120SOL    HW1  359   1.353   0.929   0.080  0.6890 -2.2729  1.4954
  120SOL    HW2  360   1.281   1.073   0.034 -2.0029  0.0278  0.1814
  121SOL     OW  361   1.341   1.080   1.020 -0.2365 -0.2265 -0.3115
  121SOL    HW1  362   1.395   1.114   1.104 -0.1165  0.5920 -0.6247
  121SOL    HW2  363   1.370   1.129   0.935  0.2102 -0.1676 -1.1609
  122SOL     OW  364   1.908   1.343   2.041  0.8374 -0.0800 -0.4273
  122SOL    HW1  365   1.835   1.338   1.971  1.4736  1.6344  1.5652
  122SOL    HW2  366   1.943   1.249   2.068 -2.4485 -4.3397  0.8626
  123SOL     OW  367   2.950   0.597   0.482 -0.3734 -0.0778  0.0375
  123SOL    HW1  368   2.992   0.632   0.572 -0.0058  1.6595  1.3898
  123SOL    HW2  369   2.998   0.509   0.462  2.3843 -0.6661  0.0825
  124SOL     OW  370   0.865   0.562   2.771 -0.0451 -0.1721 -0.1862
  124SOL    HW1  371   0.860   0.517   2.865  1.1802 -1.7459 -0.9782
  124SOL    HW2  372   0.768   0.576   2.736 -2.9649  0.0687 -0.7750
  125SOL     OW  373   0.566   3.036   2.568  0.0046  0.7748  0.2563
  125SOL    HW1  374   0.571   0.009   2.658  1.0820  1.8185  0.8125
  125SOL    HW2  375   0.510   0.011   2.500 -3.0745 -0.8982 -0.5412
  126SOL     OW  376   0.783   1.525   2.626  0.0999 -0.5130  0.2809
  126SOL    HW1  377   0.882   1.506   2.635 -0.1831  1.0416  0.2030
  126SOL    HW2  378   0.771   1.573   2.538 -3.3190 -1.5268 -0.9763
  127SOL     OW  379   1.192   2.988   1.208  0.1024  0.1526 -0.0459
  127SOL    HW1  380   1.108   3.000   1.262  3.9897 -0.6438  0.2620
  127SOL    HW2  381   1.185   2.895   1.164  1.4745 -1.3281  0.7521
  128SOL     OW  382   1.725   2.119   0.348  0.0988 -0.8248 -0.1001
  128SOL    HW1  383   1.690   2.102   0.252 -2.4514  3.5165 -1.5080
  128SOL    HW2  384   1.717   2.220   0.368 -0.0044 -1.4821  1.3311
  129SOL     OW  385   1.897   1.711   1.257  0.5578  0.1556 -0.5847
  129SOL    HW1  386   1.948   1.677   1.174  0.6187  0.6752  1.3652
  129SOL    HW2  387   1.836   1.787   1.230  3.1308 -1.3144  1.3349
  130SOL     OW  388   2.110   1.863   1.425  0.3202 -0.3025 -0.3641
  130SOL    HW1  389   2.186   1.806   1.469 -0.5801  0.6545  1.8748
  130SOL    HW2  390   2.055   1.805   1.359 -1.1290 -0.0920 -0.3255
  131SOL     OW  391   1.238   2.886   2.123  0.3341 -0.2128 -0.2662
  131SOL    HW1  392   1.334   2.862   2.152 -0.1042  0.9458 -0.9016
  131SOL    HW2  393   1.174   2.806   2.135  0.8122  0.2683  1.3958
  132SOL     OW  394   2.536   1.486   0.596  0.1699 -0.2500 -0.3196
  132SOL    HW1  395   2.491   1.556   0.535  3.9007 -0.8798  1.4984
  132SOL    HW2  396   2.524   1.499   0.698 -1.1265  0.3389  0.1580
  133SOL     OW  397   0.597   1.523   1.626  0.1701  0.1069 -0.1098
  133SOL    HW1  398   0.636   1.451   1.685  0.9398 -1.4879 -0.6621
  133SOL    HW2  399   0.581   1.607   1.679  1.8569 -1.1317 -2.0470
  134SOL     OW  400   2.963   0.978   0.665 -0.0833 -0.4219 -0.6572
  134SOL    HW1  401   2.862   0.985   0.664 -0.5346 -2.6457  0.0704
  134SOL    HW2  402   3.006   0.974   0.759 -1.3401  1.1333  0.0916
  135SOL     OW  403   2.222   1.874   3.038 -0.5202  0.4788 -0.6642
  135SOL    HW1  404   2.303   1.811   3.033  1.6656  2.1961 -3.0189
  135SOL    HW2  405   2.129   1.832   3.045 -1.0817 -0.8902  0.3001
  136SOL     OW  406   2.907   1.351   1.447  0.4053 -0.1446  0.2129
  136SOL    HW1  407   2.868   1.261   1.445  0.8060  1.6088  0.9444
  136SOL    HW2  408   2.884   1.399   1.535 -1.6459 -0.3127 -0.2968
  137SOL     OW  409   2.396   1.208   2.665 -0.7253  0.6478 -0.0053
  137SOL    HW1  410   2.329   1.143   2.628  3.9813 -1.9631 -1.3338
  137SOL    HW2  411   2.375   1.223   2.766 -2.9929 -1.7369 -2.8793
  138SOL     OW  412   0.077   0.470   1.017  0.9114  0.6693 -0.0697
  138SOL    HW1  413   3.060   0.493   1.025 -0.0978 -2.1064  0.7396
  138SOL    HW2  414   0.120   0.439   1.102 -1.8509  3.2087 -1.7168
  139SOL     OW  415   1.777   2.140   0.011 -0.0255 -0.5808 -0.3802
  139SOL    HW1  416   1.694   2.117   0.060  1.4067  1.2604  0.3593
  139SOL    HW2  417   1.783   2.068   3.015 -0.1739 -2.4051 -0.7682
  140SOL     OW  418   0.948   1.160   0.935 -0.2497 -0.0391  0.1126
  140SOL    HW1  419   1.026   1.199   0.885  0.3900  0.1802 -1.0735
  140SOL    HW2  420   0.885   1.231   0.980 -1.7443  1.7065 -0.7709
  141SOL     OW  421   1.428   1.649   0.877  0.1236 -0.1651 -0.0513
  141SOL    HW1  422   1.425   1.585   0.799  1.2931  0.6759  0.1151
  141SOL    HW2  423   1.471   1.736   0.848 -1.4864 -0.2879  0.5648
  142SOL     OW  424   0.982   0.982   1.257  0.2311 -0.0066  0.8956
  142SOL    HW1  425   0.906   0.945   1.196 -1.7208 -1.1720 -0.1585
  142SOL    HW2  426   1.022   0.908   1.306  1.2503  0.1553 -2.2297
  143SOL     OW  427   0.380   0.143   2.465  0.0640 -0.0286 -0.4197
  143SOL    HW1  428   0.357   0.156   2.365  0.7081  2.6517 -1.6318
  143SOL    HW2  429   0.363   0.230   2.515  0.5026  0.1413 -0.1721
  144SOL     OW  430   2.149   0.088   0.340  0.5302 -0.2564  0.3315
  144SOL    HW1  431   2.242   0.119   0.360 -0.7332 -0.8438 -0.0079
  144SOL    HW2  432   2.101   0.138   0.261 -0.4805  1.9291 -0.0577
  145SOL     OW  433   2.079   2.892   2.850 -0.2443  0.4215 -0.1340
  145SOL    HW1  434   2.004   2.934   2.794 -5.2686 -1.7412  0.7387
  145SOL    HW2  435   2.140   2.834   2.791 -0.5444  0.1725 -0.9196
  146SOL     OW  436   3.076   2.956   0.347 -0.1337 -0.4820 -0.6170
  146SOL    HW1  437   0.100   2.951   0.356  5.9034 -0.6437 -1.0268
  146SOL    HW2  438   3.043   2.892   0.273  2.4616  0.5110 -0.1051
  147SOL     OW  439   2.173   1.199   0.356  0.1712 -0.6743 -0.3603
  147SOL    HW1  440   2.153   1.183   0.453 -1.9475  2.7736  0.6957
  147SOL    HW2  441   2.091   1.221   0.305  1.7068 -1.3908 -1.0758
  148SOL     OW  442   1.205   2.824   0.444 -0.4115  0.4239  0.3199
  148SOL    HW1  443   1.193   2.919   0.411  0.7883 -3.0308  0.9533
  148SOL    HW2  444   1.156   2.762   0.380 -1.8614  0.8918 -3.3990
  149SOL     OW  445   1.354   0.770   2.364 -0.4846 -0.3164 -0.0232
  149SOL    HW1  446   1.260   0.734   2.382 -1.5528 -0.3329 -1.0567
  149SOL    HW2  447   1.405   0.794   2.450 -2.2876  0.8703  0.4926
  150SOL     OW  448   1.085   2.817   2.621 -0.1123 -0.1615  1.0538
  150SOL    HW1  449   1.183   2.818   2.591  0.8487  0.5596  0.3700
  150SOL    HW2  450   1.075   2.832   2.719  0.7441  0.1660 -2.1204
  151SOL     OW  451   0.335   0.966   2.985 -0.1430  0.5638 -0.4112
  151SOL    HW1  452   0.426   1.002   3.015  1.1527  0.2679  0.1128
  151SOL    HW2  453   0.296   0.905   3.055 -0.6547 -2.0738  0.4553
  152SOL     OW  454   0.418   0.088   1.519 -0.0594 -0.1931  0.1405
  152SOL    HW1  455   0.423   0.097   1.622  2.5614 -1.6128 -0.2992
  152SOL    HW2  456   0.325   0.066   1.494 -0.3128  0.9925 -0.8353
  153SOL     OW  457   2.895   2.949   1.593 -0.3811  0.3177 -0.5032
  153SOL    HW1  458   2.820   2.912   1.656 -1.0919  0.0797  5.1956
  153SOL    HW2  459   2.929   3.032   1.632  1.1179 -1.7211  1.2818
  154SOL     OW  460   2.285   0.232   2.081 -0.2369  0.4945  0.3872
  154SOL    HW1  461   2.299   0.277   1.992 -1.8050 -3.3223  0.9989
  154SOL    HW2  462   2.287   0.301   2.156  0.0785  0.2761 -0.3833
  155SOL     OW  463   0.736   1.023   0.183  0.3508  0.0320 -0.0141
  155SOL    HW1  464   0.826   0.994   0.149  0.2219 -1.2970 -2.5878
  155SOL    HW2  465   0.693   1.099   0.128  0.1223  4.2137  1.2123
  156SOL     OW  466   2.087   1.516   0.422  0.0558 -0.0470 -0.0443
  156SOL    HW1  467   2.113   1.476   0.515  2.1975 -3.0589  1.3275
  156SOL    HW2  468   2.037   1.453   0.356  0.2499 -3.2113  0.8050
  157SOL     OW  469   0.889   1.877   0.133  0.0803  0.0655  0.0198
  157SOL    HW1  470   0.889   1.771   0.146  1.7225 -2.8516 -0.9858
  157SOL    HW2  471   0.981   1.911   0.166 -1.3643  0.5222  0.2051
  158SOL     OW  472   1.979   0.825   1.811 -0.6014  0.1548  0.2197
  158SOL    HW1  473   1.951   0.750   1.745 -1.5903 -1.6107 -1.0123
  158SOL    HW2  474   1.940   0.805   1.901 -0.5284 -0.1716  2.3973
  159SOL     OW  475   0.385   0.248   0.503 -0.3798  0.3115 -0.1422
  159SOL    HW1  476   0.324   0.172   0.511  0.2060 -0.1195  0.8015
  159SOL    HW2  477   0.435   0.238   0.418  0.1514  0.5000  2.3721
  160SOL     OW  478   2.391   1.348   1.530  0.4845 -0.2697  0.4199
  160SOL    HW1  479   2.449   1.265   1.519 -0.9564 -0.4940  1.4458
  160SOL    HW2  480   2.349   1.354   1.620  1.0812 -0.0906  1.6764
  161SOL     OW  481   0.289   3.069   0.109  0.0670 -0.2326 -0.1930
  161SOL    HW1  482   0.202   0.026   0.076  0.4057  0.1410 -0.3723
  161SOL    HW2  483   0.355   0.068   0.114  0.2661 -1.4394  0.3204
  162SOL     OW  484   2.986   0.857   2.420 -0.1369 -0.0753 -0.1116
  162SOL    HW1  485   3.029   0.941   2.376 -0.6808 -0.8857 -0.1330
  162SOL    HW2  486   2.930   0.884   2.499  4.1252 -0.0756  1.2341
  163SOL     OW  487   2.800   2.832   2.879  0.1151 -0.4640  0.3132
  163SOL    HW1  488   2.846   2.756   2.924  1.1254 -0.1999 -1.6841
  163SOL    HW2  489   2.717   2.808   2.826 -0.1604  0.8283  2.3308
  164SOL     OW  490   2.618   2.065   0.348 -0.2373 -0.1465 -0.3102
  164SOL    HW1  491   2.521   2.046   0.368  2.2532 -1.1813 -0.2843
  164SOL    HW2  492   2.647   2.151   0.400 -0.0913 -0.0975  0.5873
  165SOL     OW  493   1.088   0.646   1.524 -0.1398 -0.1120  0.3383
  165SOL    HW1  494   1.162   0.652   1.453  0.5118 -1.9504  0.2897
  165SOL    HW2  495   0.996   0.646   1.479  0.6711 -3.0359 -1.7981
  166SOL     OW  496   3.056   0.354   0.517  0.7251 -0.1067  0.5981
  166SOL    HW1  497   0.054   0.373   0.581  1.4357  0.1705  2.1305
  166SOL    HW2  498   0.007   0.302   0.435 -0.5110 -0.9274  0.2629
  167SOL     OW  499   1.940   0.581   1.115 -0.0794 -0.2307  0.1870
  167SOL    HW1  500   2.020   0.617   1.062  0.8605  1.5120  2.8055
  167SOL    HW2  501   1.970   0.577   1.211  0.1130  1.2727 -1.1766
  168SOL     OW  502   0.981   0.447   2.204 -0.2239 -0.3068  0.0119
  168SOL    HW1  503   1.080   0.447   2.172  1.2260 -0.0761  1.4428
  168SOL    HW2  504   0.934   0.538   2.226  0.2192  1.6138  0.2025
  169SOL     OW  505   1.149   1.930   1.497  0.3772  0.5816  0.8517
  169SOL    HW1  506   1.154   1.875   1.413  2.8196  2.1199 -0.2790
  169SOL    HW2  507   1.135   1.880   1.583 -1.3562  0.5731 -0.2671
  170SOL     OW  508   0.023   2.751   1.598 -0.4155  0.2786 -0.1789
  170SOL    HW1  509   0.123   2.771   1.575 -0.1302 -0.8640 -2.2629
  170SOL    HW2  510   3.045   2.833   1.584  0.0884  1.4676  0.1547
  171SOL     OW  511   2.664   0.561   2.347  0.2196  0.8927  0.4179
  171SOL    HW1  512   2.756   0.529   2.383  1.3818 -0.0830 -2.1851
  171SOL    HW2  513   2.599   0.480   2.341 -0.5312  0.0543 -0.3286
  172SOL     OW  514   1.045   2.933   1.621 -0.5315 -0.1191 -0.5261
  172SOL    HW1  515   1.012   2.955   1.715 -0.0236 -1.8474 -1.9869
  172SOL    HW2  516   1.004   3.003   1.560 -1.5983 -0.9398 -0.1057
  173SOL     OW  517   2.502   2.048   2.768 -0.3385  0.0927 -0.3689
  173SOL    HW1  518   2.537   1.967   2.826  2.7522 -0.5862  0.6546
  173SOL    HW2  519   2.473   2.126   2.825 -0.9895  0.8931 -0.0672
  174SOL     OW  520   1.606   0.966   0.282  0.6408 -0.5513 -0.3342
  174SOL    HW1  521   1.615   1.042   0.351  0.2099  1.2119 -1.9886
  174SOL    HW2  522   1.505   0.951   0.272  1.7022  0.2768 -3.6538
  175SOL     OW  523   0.974   1.328   1.407 -0.3931 -0.3979  0.0273
  175SOL    HW1  524   1.029   1.358   1.490 -0.6874  2.2402  0.9776
  175SOL    HW2  525   1.031   1.288   1.334 -3.6070  0.6132  2.0893
  176SOL     OW  526   0.227   0.047   0.468  0.5495 -0.0826 -0.3627
  176SOL    HW1  527   0.164   0.010   0.540  1.9833  1.4594 -1.2573
  176SOL    HW2  528   0.259   3.047   0.415 -0.3707  0.6362  2.3236
  177SOL     OW  529   2.741   1.241   2.924 -0.2607 -0.6773  0.5592
  177SOL    HW1  530   2.830   1.247   2.874 -0.6881  0.1977  0.2253
  177SOL    HW2  531   2.686   1.170   2.885  2.3224  1.9798 -0.1483
  178SOL     OW  532   2.699   2.663   1.983 -0.0836  0.2087  0.2489
  178SOL    HW1  533   2.777   2.691   2.039 -0.3921  0.8830 -1.3992
  178SOL    HW2  534   2.717   2.566   1.951  1.7799 -1.9257  2.4437
  179SOL     OW  535   2.099   2.877   0.371  0.4537 -0.1213  0.0727
  179SOL    HW1  536   2.105   2.981   0.360 -1.2362  0.1452 -0.3180
  179SOL    HW2  537   2.051   2.849   0.460 -1.4521  1.2192  0.5664
  180SOL     OW  538   2.071   0.881   0.617 -0.1398 -0.2372  0.3513
  180SOL    HW1  539   2.046   0.788   0.657 -3.3055 -2.5418  2.7317
  180SOL    HW2  540   2.104   0.866   0.522  2.5341 -0.9683  2.1747
  181SOL     OW  541   2.897   0.486   2.455 -0.1908  0.4226  0.0118
  181SOL    HW1  542   2.890   0.483   2.554 -1.3825  1.0549 -1.1422
  181SOL    HW2  543   2.996   0.471   2.435  1.2568 -0.5675 -0.3509
  182SOL     OW  544   2.806   1.948   2.108  0.0098 -0.3883 -0.4428
  182SOL    HW1  545   2.823   1.869   2.166  0.3762  1.6029 -0.7974
  182SOL    HW2  546   2.708   1.966   2.090  1.8597  0.8957 -1.2751
  183SOL     OW  547   2.973   0.771   1.939  0.1485  0.3820 -0.4053
  183SOL    HW1  548   2.957   0.757   2.040 -1.4913  1.3733  0.6295
  183SOL    HW2  549   3.066   0.744   1.911 -0.1855  0.5483 -0.7224
  184SOL     OW  550   0.253   1.223   1.152 -0.5566 -0.1514  0.3900
  184SOL    HW1  551   0.223   1.278   1.234  1.1164 -1.1816 -2.7701
  184SOL    HW2  552   0.327   1.163   1.171 -3.2225  0.0215 -1.4378
  185SOL     OW  553   3.032   2.638   1.192  0.0074  0.2298  0.4302
  185SOL    HW1  554   3.060   2.596   1.103 -3.4082  2.6155  1.0580
  185SOL    HW2  555   0.017   2.611   1.266  1.9495  1.6754  2.0748
  186SOL     OW  556   1.675   2.841   2.847 -0.0860  0.2295  0.3231
  186SOL    HW1  557   1.657   2.787   2.934 -2.3100 -1.5536 -0.5123
  186SOL    HW2  558   1.698   2.937   2.873 -1.2259  0.4730  0.4837
  187SOL     OW  559   0.177   1.247   0.489  0.6162 -0.5003  0.3947
  187SOL    HW1  560   0.175   1.165   0.432 -0.3752  1.1776  1.9622
  187SOL    HW2  561   0.266   1.298   0.486 -1.2007 -0.6573  0.4361
  188SOL     OW  562   1.861   1.699   0.300  0.5907  0.1121  0.0108
  188SOL    HW1  563   1.932   1.676   0.233  0.4904  0.4861  2.7298
  188SOL    HW2  564   1.883   1.797   0.318  0.0795 -0.3716  0.8984
  189SOL     OW  565   0.124   1.575   3.008 -0.2247  0.3938  0.1647
  189SOL    HW1  566   0.086   1.541   0.012  1.9378 -0.7394 -2.3838
  189SOL    HW2  567   0.190   1.502   2.971 -0.0176  1.3096  1.4504
  190SOL     OW  568   2.456   0.278   2.538  0.3121 -0.7493  0.2381
  190SOL    HW1  569   2.457   0.228   2.629 -0.7191 -1.4735  1.4647
  190SOL    HW2  570   2.441   0.211   2.462 -0.3920 -1.3472 -1.7448
  191SOL     OW  571   0.748   1.081   1.856 -0.6199  0.2911 -0.3446
  191SOL    HW1  572   0.739   1.045   1.951 -2.7477  0.5115 -0.5030
  191SOL    HW2  573   0.799   1.013   1.796  1.9550 -1.2234 -0.5911
  192SOL     OW  574   2.156   1.023   1.750 -0.1487 -0.1353 -0.4486
  192SOL    HW1  575   2.087   0.951   1.777  2.2201 -0.0611 -1.3885
  192SOL    HW2  576   2.193   1.008   1.658 -0.5880 -0.6423  0.3212
  193SOL     OW  577   0.900   2.884   1.106 -0.7100 -0.7442  0.2662
  193SOL    HW1  578   0.801   2.870   1.126 -0.2863  0.5492  0.7885
  193SOL    HW2  579   0.910   2.955   1.026  0.8343 -1.5837 -2.2990
  194SOL     OW  580   1.551   1.703   1.366  0.1407  0.3153  0.3746
  194SOL    HW1  581   1.563   1.664   1.267  1.1788  1.0784 -0.9875
  194SOL    HW2  582   1.451   1.696   1.393  1.3630 -1.2340  0.5891
  195SOL     OW  583   1.843   0.554   0.876  0.3815 -0.1760  0.2474
  195SOL    HW1  584   1.776   0.629   0.880  3.8919 -0.1607  0.5855
  195SOL    HW2  585   1.894   0.551   0.963  0.0878 -3.9757  1.7361
  196SOL     OW  586   1.173   1.759   2.039  0.3781 -0.4212 -0.1394
  196SOL    HW1  587   1.205   1.814   1.963 -3.0342 -3.3676  1.2373
  196SOL    HW2  588   1.220   1.795   2.126  0.3035  1.9363 -0.6291
  197SOL     OW  589   2.541   3.023   2.882 -0.0079  0.5618  0.0877
  197SOL    HW1  590   2.556   2.934   2.837  1.6234 -0.1839  2.8128
  197SOL    HW2  591   2.539   3.003   2.982 -0.7245 -0.7822  0.0459
  198SOL     OW  592   2.839   0.606   0.879 -0.2822 -1.2559  0.6826
  198SOL    HW1  593   2.910   0.634   0.808  1.2965  0.8746 -2.5522
  198SOL    HW2  594   2.759   0.561   0.833 -0.9919 -1.8043  1.5304
  199SOL     OW  595   0.574   1.808   1.029  0.3341 -0.2762 -0.3401
  199SOL    HW1  596   0.629   1.893   1.042  0.4174 -3.0560 -1.1072
  199SOL    HW2  597   0.554   1.787   0.932 -0.1183 -0.7960  1.3734
  200SOL     OW  598   3.044   1.868   0.184  0.0958  0.6914  0.0235
  200SOL    HW1  599   2.955   1.920   0.207  1.5923 -2.2957  1.2270
  200SOL    HW2  600   0.021   1.865   0.272  1.0264 -0.5493  1.2557
  201SOL     OW  601   1.262   2.494   1.569  0.4128 -0.6008  0.0959
  201SOL    HW1  602   1.264   2.559   1.493  1.6556 -1.4930  1.8019
  201SOL    HW2  603   1.181   2.430   1.576 -1.0240 -2.7995  0.2912
  202SOL     OW  604   1.059   2.839   2.899  0.3620  0.4745 -0.3458
  202SOL    HW1  605   1.132   2.912   2.914 -0.0492 -0.6800  0.6779
  202SOL    HW2  606   1.053   2.769   2.969  2.6444 -0.0416 -1.7316
  203SOL     OW  607   1.410   2.984   2.950 -0.0732  0.2590 -0.1856
  203SOL    HW1  608   1.433   3.007   2.854  1.1878  0.9793 -0.6655
  203SOL    HW2  609   1.410   2.887   2.966 -4.7475  3.4368 -2.6709
  204SOL     OW  610   0.417   1.650   1.452  0.4288  0.0511 -0.1690
  204SOL    HW1  611   0.432   1.652   1.351  2.3307  0.3151  2.3393
  204SOL    HW2  612   0.494   1.593   1.492  1.3878 -0.9492 -1.3281
  205SOL     OW  613   1.670   0.995   1.814  0.1405 -0.1373 -0.6119
  205SOL    HW1  614   1.702   0.911   1.863  2.2401 -3.2992  2.3778
  205SOL    HW2  615   1.572   1.024   1.834 -2.4579  3.9625  0.1941
  206SOL     OW  616   0.115   1.844   3.042  0.6671  0.3825 -0.0213
  206SOL    HW1  617   0.106   1.754   2.998  0.1645 -0.5806  1.7161
  206SOL    HW2  618   0.071   1.852   0.053  0.6156 -0.3266  3.1650
  207SOL     OW  619   0.391   2.287   1.981  0.0400 -0.1158 -0.0819
  207SOL    HW1  620   0.440   2.200   1.952 -1.0142 -0.2171 -1.7039
  207SOL    HW2  621   0.322   2.316   1.907 -0.6528  1.3839  1.0610
  208SOL     OW  622   0.651   2.040   0.764  0.4389  0.7407 -0.8830
  208SOL    HW1  623   0.582   2.112   0.768  0.8490  1.0055 -1.6944
  208SOL    HW2  624   0.609   1.949   0.752  1.3238 -2.9041 -0.6988
  209SOL     OW  625   1.009   2.656   2.412 -0.1207  0.6076  0.4734
  209SOL    HW1  626   1.037   2.659   2.312 -0.2957  2.9126 -0.5517
  209SOL    HW2  627   1.027   2.740   2.465 -1.1568 -1.5083  0.4577
  210SOL     OW  628   2.739   1.422   1.793  0.0713 -0.0325 -0.2364
  210SOL    HW1  629   2.695   1.503   1.838  0.3063 -0.3595  0.6677
  210SOL    HW2  630   2.722   1.335   1.844 -2.2125  2.4585  0.6372
  211SOL     OW  631   1.309   0.169   1.827 -0.8162  0.0039  0.1239
  211SOL    HW1  632   1.219   0.128   1.818  2.4651  1.4336 -1.3184
  211SOL    HW2  633   1.335   0.190   1.922 -0.8807 -0.6183 -0.1618
  212SOL     OW  634   1.810   2.681   1.826  0.4826  1.1642 -0.3938
  212SOL    HW1  635   1.768   2.584   1.831 -0.1350 -3.9302 -1.1667
  212SOL    HW2  636   1.764   2.734   1.753  1.4097  2.1513 -0.5921
  213SOL     OW  637   3.048   0.104   1.697 -0.2434 -0.3640 -0.1341
  213SOL    HW1  638   3.035   0.150   1.609  3.6893 -2.6202 -2.2353
  213SOL    HW2  639   3.041   0.165   1.782 -0.3593  0.1562 -1.2170
  214SOL     OW  640   0.948   2.237   1.204 -0.2560  0.0007 -0.1261
  214SOL    HW1  641   0.929   2.179   1.286 -0.0052  1.0610  1.1148
  214SOL    HW2  642   1.038   2.284   1.215  1.6983 -2.2667 -0.9292
  215SOL     OW  643   2.655   2.275   0.750  0.1434  0.4354  0.3198
  215SOL    HW1  644   2.551   2.277   0.756  0.1954  2.6484 -0.4635
  215SOL    HW2  645   2.693   2.319   0.833  0.5842 -3.1305 -0.6941
  216SOL     OW  646   0.342   0.814   1.787 -0.8037  0.1991  1.1044
  216SOL    HW1  647   0.342   0.909   1.825 -0.8570  1.5316 -1.3889
  216SOL    HW2  648   0.261   0.802   1.721 -1.4504 -1.4508  0.4002
  217SOL     OW  649   2.399   0.117   1.637  0.1538  0.3352 -0.2953
  217SOL    HW1  650   2.325   0.116   1.566  1.2085 -2.1959  1.1546
  217SOL    HW2  651   2.433   0.023   1.660 -2.5341  2.6085  2.8261
  218SOL     OW  652   1.783   2.405   1.580  0.2395 -0.5631 -0.5248
  218SOL    HW1  653   1.697   2.353   1.562  1.9141 -0.4878 -0.2445
  218SOL    HW2  654   1.854   2.340   1.615  2.3494 -0.3421  1.6519
  219SOL     OW  655   1.774   2.415   3.075  0.0650 -0.4946  0.4046
  219SOL    HW1  656   1.866   2.458   3.053 -0.6918 -0.4678  0.7767
  219SOL    HW2  657   1.778   2.315   0.006  1.2126  1.7372  0.4406
  220SOL     OW  658   1.449   2.957   0.315 -0.2081 -0.0005  0.2237
  220SOL    HW1  659   1.510   2.998   0.244 -0.6144 -0.8489  0.8439
  220SOL    HW2  660   1.390   2.883   0.274 -0.6880  0.2670 -1.6062
  221SOL     OW  661   0.289   2.471   1.620  0.2048 -0.5983  0.0794
  221SOL    HW1  662   0.386   2.457   1.641 -0.3460 -1.5344 -0.5089
  221SOL    HW2  663   0.244   2.386   1.657  0.5159 -0.8998 -1.3821
  222SOL     OW  664   1.872   2.722   1.181  0.0167  0.0265  0.5385
  222SOL    HW1  665   1.836   2.816   1.171 -0.7556  0.6176  3.8702
  222SOL    HW2  666   1.935   2.723   1.261  0.1600  0.0143 -1.9497
  223SOL     OW  667   1.357   0.378   1.422 -0.3822  0.4111 -0.1562
  223SOL    HW1  668   1.312   0.373   1.514 -0.4444 -2.5540 -0.0920
  223SOL    HW2  669   1.331   0.468   1.382 -1.3760  1.1727 -2.1090
  224SOL     OW  670   2.965   2.255   1.303 -0.1749  0.3257 -0.7366
  224SOL    HW1  671   2.917   2.332   1.260 -1.4788 -3.4364  0.7072
  224SOL    HW2  672   2.928   2.254   1.402 -2.3754  0.7123  1.7881
  225SOL     OW  673   2.603   2.059   1.045 -0.4650 -0.0501 -0.3478
  225SOL    HW1  674   2.553   2.138   1.076 -0.1303 -1.3757  3.0682
  225SOL    HW2  675   2.629   2.058   0.947 -0.1216  1.0634  2.6988
  226SOL     OW  676   1.562   2.049   0.138 -0.4431  0.3100  0.6419
  226SOL    HW1  677   1.530   1.950   0.121 -2.6841 -2.3345  0.5752
  226SOL    HW2  678   1.486   2.113   0.158  1.0036 -0.1285 -0.3523
  227SOL     OW  679   1.818   1.238   0.766  0.3907 -0.1725 -0.1752
  227SOL    HW1  680   1.754   1.289   0.824  1.4425  0.3154 -0.7979
  227SOL    HW2  681   1.821   1.139   0.795 -0.1304  2.5273  0.7535
  228SOL     OW  682   2.120   0.835   0.352 -0.3659  0.4005 -0.3175
  228SOL    HW1  683   2.134   0.736   0.348  0.1591 -0.3667  2.2557
  228SOL    HW2  684   2.164   0.880   0.272  1.1288 -1.2132 -1.0506
  229SOL     OW  685   2.670   1.171   1.904 -0.2025 -0.4696  0.2896
  229SOL    HW1  686   2.571   1.175   1.907 -0.4973  2.3214 -0.7530
  229SOL    HW2  687   2.698   1.076   1.883  0.2047  3.0100  0.0282
  230SOL     OW  688   0.224   0.876   1.363  1.4524  0.0487 -0.0255
  230SOL    HW1  689   0.220   0.975   1.353  0.9485 -1.6633  1.6859
  230SOL    HW2  690   0.318   0.837   1.348  0.3382 -1.0611  1.6470
  231SOL     OW  691   1.755   0.363   2.563 -0.1147 -0.0055 -0.0542
  231SOL    HW1  692   1.665   0.403   2.588 -0.2730 -0.6949  0.2115
  231SOL    HW2  693   1.828   0.422   2.598 -2.7420 -0.3719  0.7884
  232SOL     OW  694   0.155   1.644   1.079  0.3438 -0.6632 -0.2971
  232SOL    HW1  695   0.067   1.631   1.124  1.7541  2.7029 -1.7855
  232SOL    HW2  696   0.173   1.566   1.014 -0.6355 -2.1543 -0.7638
  233SOL     OW  697   1.626   2.729   2.610  0.1693  0.7723  0.5438
  233SOL    HW1  698   1.648   2.795   2.685  2.5929 -0.1540 -0.7606
  233SOL    HW2  699   1.533   2.748   2.565 -0.9971  0.9648 -1.7928
  234SOL     OW  700   1.408   2.741   1.410 -0.5938  0.3557 -0.0858
  234SOL    HW1  701   1.353   2.814   1.457 -1.8996  0.8640  0.1239
  234SOL    HW2  702   1.507   2.764   1.435  2.2703  0.3988 -1.0243
  235SOL     OW  703   0.708   1.387   1.408 -0.0114 -0.5538 -0.7458
  235SOL    HW1  704   0.683   1.440   1.493 -2.2361 -0.6341  0.1871
  235SOL    HW2  705   0.807   1.374   1.398 -0.5695  1.0847  0.6536
  236SOL     OW  706   0.512   2.729   2.770 -0.2429 -0.0090 -0.5537
  236SOL    HW1  707   0.534   2.651   2.709  1.2439 -0.6800  2.7429
  236SOL    HW2  708   0.588   2.773   2.808  0.1982  0.6100 -4.0207
  237SOL     OW  709   0.413   3.067   2.129 -0.4081  0.5005  0.2931
  237SOL    HW1  710   0.499   3.037   2.169  1.0047 -0.3400 -2.4236
  237SOL    HW2  711   0.406   3.025   2.036  1.5815 -4.0509 -2.1513
  238SOL     OW  712   0.766   0.528   0.524 -0.1957  0.1524 -0.0317
  238SOL    HW1  713   0.765   0.431   0.493 -0.1363 -0.6112 -0.4535
  238SOL    HW2  714   0.837   0.545   0.596 -1.5630 -0.3724 -0.0927
  239SOL     OW  715   2.490   0.805   2.703 -0.3696 -0.1767 -0.9373
  239SOL    HW1  716   2.442   0.787   2.621 -0.2474 -1.9815  1.7746
  239SOL    HW2  717   2.418   0.782   2.773 -1.4134 -0.1197  3.2188
  240SOL     OW  718   2.916   2.152   0.893  0.0929 -0.8517  0.0615
  240SOL    HW1  719   2.837   2.210   0.926 -1.9320  2.2019  0.1638
  240SOL    HW2  720   2.960   2.108   0.974 -0.9149  1.6021 -0.4757
  241SOL     OW  721   1.299   1.981   0.630 -0.4465 -0.3640 -0.1871
  241SOL    HW1  722   1.393   1.987   0.674 -2.3081  2.2107  1.1578
  241SOL    HW2  723   1.240   2.057   0.663  0.6908  1.6065  0.1093
  242SOL     OW  724   0.862   0.232   0.620 -0.5035 -0.5194 -0.0368
  242SOL    HW1  725   0.910   0.205   0.707 -0.4171 -0.5717  0.1873
  242SOL    HW2  726   0.763   0.232   0.640 -0.7358  1.4961 -2.8573
  243SOL     OW  727   0.317   0.341   1.272 -0.2283 -0.7019 -0.1094
  243SOL    HW1  728   0.225   0.377   1.297  0.7594  0.5717 -1.5169
  243SOL    HW2  729   0.307   0.275   1.193 -0.8736  0.6574 -0.8679
  244SOL     OW  730   0.642   2.866   0.604  0.0996 -0.0864 -0.1609
  244SOL    HW1  731   0.708   2.846   0.680 -1.0433  0.5186  2.7267
  244SOL    HW2  732   0.686   2.893   0.517  0.1381 -1.3057 -0.1527
  245SOL     OW  733   2.754   1.077   0.049  0.0774  0.5077 -0.4293
  245SOL    HW1  734   2.843   1.027   0.060  1.4372  0.0518 -1.6816
  245SOL    HW2  735   2.757   1.161   3.073  0.5849 -0.0935 -0.3853
  246SOL     OW  736   0.456   2.679   1.454 -0.4182  0.3720 -0.0434
  246SOL    HW1  737   0.423   2.745   1.525 -2.1059  0.5899 -0.0171
  246SOL    HW2  738   0.391   2.672   1.377  0.0762  1.3693  0.7780
  247SOL     OW  739   0.850   0.040   2.033  0.0595  0.1093  0.5736
  247SOL    HW1  740   0.784   3.048   2.060  1.9279  2.3118  2.8735
  247SOL    HW2  741   0.799   0.122   1.993 -1.3465  1.4710 -0.7444
  248SOL     OW  742   0.345   1.908   2.124  0.5861  0.5915 -0.2527
  248SOL    HW1  743   0.396   1.970   2.060 -1.0616  1.3032 -0.0994
  248SOL    HW2  744   0.383   1.811   2.112  0.3712 -1.5455 -0.8343
  249SOL     OW  745   1.089   2.230   0.684  0.4753 -0.4165 -0.3408
  249SOL    HW1  746   1.045   2.166   0.742 -0.3805 -1.0178 -3.3377
  249SOL    HW2  747   1.089   2.328   0.721  2.0520  1.9410  2.1276
  250SOL     OW  748   0.675   2.964   2.166  0.2048 -0.2918  0.1977
  250SOL    HW1  749   0.654   2.874   2.194 -1.3152  1.0682 -0.8144
  250SOL    HW2  750   0.706   3.026   2.241  2.2417 -2.1519 -2.7470
  251SOL     OW  751   2.503   2.049   1.730 -0.1188  0.2393 -0.2276
  251SOL    HW1  752   2.468   1.966   1.779  0.6046  0.4575  1.4207
  251SOL    HW2  753   2.500   2.027   1.630 -0.3914 -0.6914  2.5959
  252SOL     OW  754   1.261   0.398   1.688  0.2514  0.0005 -0.4264
  252SOL    HW1  755   1.174   0.447   1.713 -1.9413  1.9374  1.1663
  252SOL    HW2  756   1.279   0.317   1.742 -1.0594  1.1156 -1.4492
  253SOL     OW  757   2.672   1.782   2.586 -0.0354 -0.2760  0.1746
  253SOL    HW1  758   2.705   1.777   2.492 -1.9076  1.7989 -2.4793
  253SOL    HW2  759   2.639   1.876   2.606  0.6318  2.3574  0.1226
  254SOL     OW  760   0.458   0.959   0.905 -0.3787  0.2156  0.3804
  254SOL    HW1  761   0.434   1.040   0.960  0.3178  0.0195  0.1026
  254SOL    HW2  762   0.504   0.891   0.963 -0.9687  2.5065  0.0972
  255SOL     OW  763   3.056   2.359   1.919  0.5364  0.0979 -0.3409
  255SOL    HW1  764   3.003   2.350   2.006 -0.8892  1.1927  0.7066
  255SOL    HW2  765   3.013   2.429   1.855 -4.5228  0.3657 -0.7940
  256SOL     OW  766   0.269   2.912   0.324 -0.7916 -0.1145 -0.0745
  256SOL    HW1  767   0.280   2.955   0.232 -1.6927 -1.7965  0.8894
  256SOL    HW2  768   0.366   2.879   0.356  1.6124  0.0733  0.1270
  257SOL     OW  769   1.335   2.274   2.629  0.1510  0.0444 -0.3726
  257SOL    HW1  770   1.422   2.229   2.652 -0.6915 -0.2560 -2.9807
  257SOL    HW2  771   1.350   2.361   2.576  2.1106 -2.7120 -0.0825
  258SOL     OW  772   1.920   1.855   2.089 -0.2745 -0.3140  0.4393
  258SOL    HW1  773   1.822   1.880   2.109  0.7663 -1.6563  0.4317
  258SOL    HW2  774   1.919   1.805   1.999 -1.6633 -0.8225  0.1061
  259SOL     OW  775   0.601   0.660   2.120 -0.0459  0.3267  0.1502
  259SOL    HW1  776   0.634   0.756   2.106 -0.9029 -2.7475  0.7778
  259SOL    HW2  777   0.678   0.592   2.104  1.9783 -2.4260 -0.5400
  260SOL     OW  778   2.601   0.872   3.058  0.3883  0.2495 -0.3233
  260SOL    HW1  779   2.652   0.782   3.053  0.9892 -2.5368 -1.5248
  260SOL    HW2  780   2.654   0.957   0.007 -0.8129  1.8804  0.5074
  261SOL     OW  781   0.872   0.951   0.767 -0.2432 -0.2171  0.5563
  261SOL    HW1  782   0.930   0.913   0.695 -0.9479 -0.6756  0.9177
  261SOL    HW2  783   0.923   1.025   0.817  1.1118 -0.1689  0.3132
  262SOL     OW  784   1.836   2.303   2.229 -0.0412  0.6254  0.2170
  262SOL    HW1  785   1.745   2.280   2.266  1.7748 -1.0303 -1.9429
  262SOL    HW2  786   1.876   2.225   2.178 -0.1416  2.8383  2.4854
  263SOL     OW  787   1.044   2.611   1.256 -0.4619 -0.1538  0.5531
  263SOL    HW1  788   1.046   2.672   1.176  1.9220 -1.7282 -3.2562
  263SOL    HW2  789   1.089   2.520   1.230  1.8242 -0.8951 -0.0797
  264SOL     OW  790   2.916   1.953   0.695  0.0197 -0.0253 -0.3501
  264SOL    HW1  791   2.916   2.031   0.761  2.3989  0.5188 -1.1159
  264SOL    HW2  792   2.938   1.868   0.746  0.5215 -1.4270 -0.0595
  265SOL     OW  793   1.868   1.456   2.704 -0.6671  0.0045  0.1327
  265SOL    HW1  794   1.844   1.551   2.679 -1.1251  0.5554 -0.6074
  265SOL    HW2  795   1.949   1.420   2.648  0.8673 -3.4013 -0.2039
  266SOL     OW  796   1.655   1.888   2.107 -0.2716  0.3802  0.3723
  266SOL    HW1  797   1.605   1.821   2.049 -0.4252  0.1918 -1.8923
  266SOL    HW2  798   1.618   1.872   2.201  0.9764  2.3451  0.0845
  267SOL     OW  799   1.761   0.504   2.283  0.3763 -0.3976 -0.6814
  267SOL    HW1  800   1.765   0.438   2.363 -0.6763 -1.1220  2.2864
  267SOL    HW2  801   1.664   0.531   2.263 -0.7104 -1.5732  2.3387
  268SOL     OW  802   0.919   0.938   2.888  0.9092 -0.1933 -0.3372
  268SOL    HW1  803   0.978   0.960   2.809 -0.6867  1.8173  1.2988
  268SOL    HW2  804   0.840   0.880   2.863  1.0916  0.0571 -0.6414
  269SOL     OW  805   2.953   2.126   2.252  0.4173 -0.8001  0.2424
  269SOL    HW1  806   3.045   2.086   2.250  1.4623  0.3860  0.6410
  269SOL    HW2  807   2.890   2.069   2.205  1.1977  2.5096  0.4250
  270SOL     OW  808   3.065   1.541   0.198  0.2415  0.3121 -0.0204
  270SOL    HW1  809   3.038   1.443   0.217  1.0551  0.7952  0.4529
  270SOL    HW2  810   2.994   1.604   0.234  0.0243  0.9232  1.6351
  271SOL     OW  811   0.802   0.250   0.368  0.0306  0.2358 -0.2364
  271SOL    HW1  812   0.842   0.247   0.462 -3.9122 -1.7688 -2.7383
  271SOL    HW2  813   0.869   0.286   0.297  0.0906  0.4695 -1.4565
  272SOL     OW  814   2.926   0.132   0.290 -0.5053 -0.1176 -0.4611
  272SOL    HW1  815   2.860   0.117   0.217  0.6898 -0.7978 -0.2938
  272SOL    HW2  816   2.971   0.044   0.316  0.3984 -1.9340 -0.1427
  273SOL     OW  817   0.243   2.873   2.234 -0.4433 -0.1782  0.2755
  273SOL    HW1  818   0.303   2.793   2.223 -0.2581  2.4749 -1.7746
  273SOL    HW2  819   0.281   2.958   2.185  2.3838  0.4871  1.2334
  274SOL     OW  820   3.027   0.172   1.419 -0.6829 -0.8040 -0.0399
  274SOL    HW1  821   2.952   0.222   1.461  0.1473 -2.2062 -0.3814
  274SOL    HW2  822   3.031   0.188   1.320  1.4108 -0.7531  4.0455
  275SOL     OW  823   1.145   1.780   1.279 -0.4421  0.2310  0.2297
  275SOL    HW1  824   1.051   1.814   1.261 -2.6143  2.0926 -0.2971
  275SOL    HW2  825   1.183   1.741   1.191 -0.8769  0.7704  2.0321
  276SOL     OW  826   0.232   1.316   2.102 -0.3105  0.6109  0.4625
  276SOL    HW1  827   0.221   1.217   2.101  1.9862  0.1840 -0.6987
  276SOL    HW2  828   0.189   1.360   2.183 -0.4183  0.3967 -1.0350
  277SOL     OW  829   1.370   2.205   1.902  0.8151 -0.0604 -0.4587
  277SOL    HW1  830   1.409   2.270   1.834  2.3456 -0.5416 -0.6487
  277SOL    HW2  831   1.438   2.200   1.979  3.6359  0.6033  0.1795
  278SOL     OW  832   1.924   2.900   2.378 -0.0890 -0.3329 -0.0852
  278SOL    HW1  833   1.890   2.806   2.412  0.7246 -0.6626  1.4749
  278SOL    HW2  834   1.955   2.900   2.283  0.2294 -0.6163 -0.9125
  279SOL     OW  835   1.470   1.388   3.020  0.0497 -0.1102 -0.3302
  279SOL    HW1  836   1.537   1.311   3.020 -1.8420  0.3955  0.3085
  279SOL    HW2  837   1.510   1.476   2.995  1.2335 -0.1719  1.0739
  280SOL     OW  838   1.120   0.674   1.051 -0.0182 -0.2943 -0.2154
  280SOL    HW1  839   1.120   0.760   0.998 -0.9041 -0.6790 -2.3111
  280SOL    HW2  840   1.184   0.608   1.000 -0.0349 -1.2669 -0.8404
  281SOL     OW  841   2.519   0.431   1.998 -0.1773  0.1521  0.0640
  281SOL    HW1  842   2.543   0.368   2.077 -2.0819 -1.0524  1.0751
  281SOL    HW2  843   2.413   0.447   1.995 -4.2051 -1.2652  2.6157
  282SOL     OW  844   0.119   2.953   0.658  0.7605  0.1982  0.2763
  282SOL    HW1  845   0.072   2.873   0.689 -0.1541  1.7130 -2.0280
  282SOL    HW2  846   0.217   2.949   0.684 -1.4417  0.8471  1.3854
  283SOL     OW  847   1.089   2.291   1.597 -0.3923 -0.0788  0.7149
  283SOL    HW1  848   1.092   2.253   1.689 -1.5762  0.2716  0.9840
  283SOL    HW2  849   1.048   2.229   1.528  2.0655  1.0240  2.0096
  284SOL     OW  850   2.043   2.679   1.388  0.2333 -0.1579 -0.2384
  284SOL    HW1  851   2.041   2.622   1.472  0.2121  0.2967 -0.0047
  284SOL    HW2  852   2.133   2.675   1.338  1.1939  0.2362  0.4029
  285SOL     OW  853   0.882   1.850   1.289  0.2578 -0.0880 -0.3895
  285SOL    HW1  854   0.848   1.805   1.375  3.2622  0.6226  0.6490
  285SOL    HW2  855   0.823   1.924   1.257  4.4836 -0.7432 -0.7199
  286SOL     OW  856   3.035   2.721   1.988 -0.4550 -0.2256 -0.0416
  286SOL    HW1  857   2.998   2.707   2.079  3.3123  1.5238  2.0497
  286SOL    HW2  858   0.054   2.700   1.995  1.1202  1.6285 -0.0376
  287SOL     OW  859   0.600   0.937   0.680 -0.3368  0.0037 -0.2728
  287SOL    HW1  860   0.693   0.967   0.708  2.5773  0.7985  0.0290
  287SOL    HW2  861   0.539   0.942   0.760  2.8434  1.2347 -0.1690
  288SOL     OW  862   1.186   2.221   3.044  0.7772  0.0224  0.2220
  288SOL    HW1  863   1.247   2.281   2.982  1.1209  0.9228 -1.2120
  288SOL    HW2  864   1.193   2.121   3.027  0.6443 -0.8478  1.4572
  289SOL     OW  865   1.903   1.175   2.347  0.3424 -0.8241 -0.2596
  289SOL    HW1  866   1.944   1.271   2.350  1.1067 -1.7295 -2.9069
  289SOL    HW2  867   1.942   1.116   2.276  0.3218  0.6702 -1.1857
  290SOL     OW  868   2.029   1.763   0.586  0.2869  0.0919  0.3158
  290SOL    HW1  869   2.026   1.675   0.540 -1.0965  2.7903  1.2643
  290SOL    HW2  870   2.013   1.839   0.521  0.5581 -1.5824 -0.0721
  291SOL     OW  871   1.434   0.829   2.899 -0.1574 -0.0689  0.4253
  291SOL    HW1  872   1.399   0.887   2.978  0.2070 -2.2654  1.6529
  291SOL    HW2  873   1.533   0.812   2.928  0.5428 -1.8707  0.5411
  292SOL     OW  874   2.014   1.631   0.815  0.0011 -0.2564 -0.2746
  292SOL    HW1  875   2.077   1.556   0.833  0.9032  2.1966 -0.3119
  292SOL    HW2  876   2.031   1.674   0.727  3.4227 -1.8776  0.1276
  293SOL     OW  877   1.645   0.100   1.305 -0.2124  0.0442  0.3634
  293SOL    HW1  878   1.613   0.190   1.273  0.6237  0.1277  1.9315
  293SOL    HW2  879   1.576   0.030   1.281 -3.1185 -0.0928  1.6625
  294SOL     OW  880   2.931   0.824   0.073  0.4213 -0.2179 -0.4659
  294SOL    HW1  881   2.847   0.782   0.037  1.9619  0.5353 -0.3164
  294SOL    HW2  882   2.977   0.767   0.143 -0.8144 -0.0159 -0.0789
  295SOL     OW  883   2.224   1.866   2.426 -0.2516 -0.1391 -0.3338
  295SOL    HW1  884   2.316   1.837   2.397 -1.1586  1.7142  0.4886
  295SOL    HW2  885   2.193   1.814   2.512  0.8830 -0.9768 -0.5264
  296SOL     OW  886   1.624   1.930   1.005 -0.2701 -0.2004  0.3832
  296SOL    HW1  887   1.644   1.829   1.019 -0.7946  0.2950  0.2491
  296SOL    HW2  888   1.667   1.973   1.091  0.3286 -0.7133  2.0171
  297SOL     OW  889   0.372   0.544   2.791  0.5200  0.3302  0.3796
  297SOL    HW1  890   0.288   0.601   2.782  3.1997  2.2012 -0.5372
  297SOL    HW2  891   0.394   0.524   2.888 -2.8678 -0.6694  1.0341
  298SOL     OW  892   1.493   2.797   1.770  0.0307 -0.4367  0.4543
  298SOL    HW1  893   1.414   2.844   1.729 -0.5325 -1.9411  2.5134
  298SOL    HW2  894   1.565   2.810   1.701 -1.3000  2.9495  0.2565
  299SOL     OW  895   1.136   0.649   2.416 -0.1509  0.0003 -0.1814
  299SOL    HW1  896   1.113   0.667   2.514 -0.3907  1.9256  0.0612
  299SOL    HW2  897   1.158   0.549   2.405  1.8044 -3.4980 -0.4674
  300SOL     OW  898   2.243   1.525   0.063  0.6849 -0.1691  0.1262
  300SOL    HW1  899   2.290   1.488   0.145 -0.0188 -0.8813  2.3114
  300SOL    HW2  900   2.222   1.451   3.075  0.5681  1.7595 -0.9306
  301SOL     OW  901   2.076   0.267   2.411 -0.3146  0.5106 -0.2148
  301SOL    HW1  902   2.120   0.177   2.446  1.2506  0.1519  0.5830
  301SOL    HW2  903   1.995   0.304   2.463  1.1354 -0.1426  2.3764
  302SOL     OW  904   2.477   1.617   2.736 -0.3334 -0.0384 -0.2452
  302SOL    HW1  905   2.534   1.546   2.786  0.2239  0.0794 -0.7216
  302SOL    HW2  906   2.541   1.684   2.690  1.9186  1.1363 -0.3843
  303SOL     OW  907   0.189   2.452   2.332 -0.0377 -0.4382  0.2387
  303SOL    HW1  908   0.127   2.480   2.410 -0.4577 -0.5270  0.3121
  303SOL    HW2  909   0.201   2.353   2.320 -1.0628  0.7400  0.0879
  304SOL     OW  910   2.750   0.908   0.936  0.6156 -0.1461 -0.2781
  304SOL    HW1  911   2.721   0.995   0.894 -1.2865  0.6819 -1.9464
  304SOL    HW2  912   2.697   0.828   0.891 -0.9905 -2.8783 -0.6788
  305SOL     OW  913   3.033   0.233   1.951  0.5460 -0.1683  0.6009
  305SOL    HW1  914   2.974   0.312   1.974  0.6932  0.6320 -3.6987
  305SOL    HW2  915   3.074   0.200   2.034 -0.8601 -1.4050 -1.6746
  306SOL     OW  916   1.751   2.075   0.825 -0.0771 -0.8810  0.6374
  306SOL    HW1  917   1.697   2.010   0.884 -0.5926  0.3125 -0.6145
  306SOL    HW2  918   1.697   2.089   0.740  1.5366 -2.8898  3.0427
  307SOL     OW  919   3.066   0.212   1.155  0.4411  0.2009  0.0230
  307SOL    HW1  920   2.981   0.208   1.092 -0.4271 -2.4429 -2.0789
  307SOL    HW2  921   0.051   0.140   1.127 -2.0221 -1.3251  0.3590
  308SOL     OW  922   2.985   1.817   2.668 -0.2973  0.6424  0.3468
  308SOL    HW1  923   2.905   1.876   2.668  2.1557  0.5579 -1.5172
  308SOL    HW2  924   2.965   1.723   2.638 -1.9146 -0.0991  0.9560
  309SOL     OW  925   0.526   1.893   2.736 -0.2669 -0.5676  0.4410
  309SOL    HW1  926   0.538   1.837   2.821 -3.7072 -0.3009 -0.4392
  309SOL    HW2  927   0.428   1.927   2.739  0.6444  4.3242 -0.2325
  310SOL     OW  928   2.271   0.702   2.856  0.3472 -0.1477 -0.4291
  310SOL    HW1  929   2.239   0.671   2.764 -3.1856  1.5895 -0.2050
  310SOL    HW2  930   2.261   0.629   2.932 -0.1482 -3.1053  2.8691
  311SOL     OW  931   1.875   1.262   0.001 -0.5391  0.2005  0.4600
  311SOL    HW1  932   1.785   1.237   3.043 -1.3701 -0.5018  2.0909
  311SOL    HW2  933   1.929   1.175   0.007  0.2556 -0.0327 -3.0926
  312SOL     OW  934   1.032   1.212   2.028 -0.1377  0.1769  0.3586
  312SOL    HW1  935   0.942   1.209   2.073  2.6995 -0.0267  2.1063
  312SOL    HW2  936   1.046   1.117   1.991  1.9485 -0.9902 -2.9834
  313SOL     OW  937   0.971   3.042   0.573  0.1577  0.2995 -0.4031
  313SOL    HW1  938   0.917   0.046   0.585  3.9619 -1.8501 -0.5975
  313SOL    HW2  939   1.065   3.061   0.538  1.9809  3.2887 -0.0159
  314SOL     OW  940   0.509   1.917   1.582 -0.2956  0.5743  0.4497
  314SOL    HW1  941   0.488   1.858   1.504 -0.2309  0.5817  1.5180
  314SOL    HW2  942   0.585   1.873   1.637 -0.7062 -3.0573  2.4318
  315SOL     OW  943   1.426   2.045   1.554 -0.0354  0.2002  0.0223
  315SOL    HW1  944   1.450   2.006   1.645 -0.1674  1.7539  2.3514
  315SOL    HW2  945   1.333   2.025   1.524  2.2697  1.5832  0.8709
  316SOL     OW  946   0.487   2.446   0.214 -0.4130 -0.1150  0.4067
  316SOL    HW1  947   0.564   2.480   0.268 -1.3123 -0.8537  0.2159
  316SOL    HW2  948   0.426   2.400   0.278  1.1643  1.4503 -0.5416
  317SOL     OW  949   2.630   0.336   1.007  0.2816 -0.7665  0.3213
  317SOL    HW1  950   2.531   0.303   0.988 -0.4229  0.6445  0.6448
  317SOL    HW2  951   2.630   0.407   1.080  1.8366 -1.7418  2.2118
  318SOL     OW  952   0.741   2.501   0.672 -0.9163  0.3700 -0.0491
  318SOL    HW1  953   0.734   2.490   0.773 -3.6188 -1.6621 -0.1232
  318SOL    HW2  954   0.652   2.522   0.629 -3.0461 -0.7504 -0.7008
  319SOL     OW  955   1.244   0.424   2.710  0.7745  0.0936 -0.1091
  319SOL    HW1  956   1.167   0.377   2.757  1.9677  0.6763 -2.8046
  319SOL    HW2  957   1.264   0.511   2.770  0.4042 -0.6502  0.5509
  320SOL     OW  958   2.297   1.644   1.728 -0.4368 -0.3971 -0.0432
  320SOL    HW1  959   2.342   1.560   1.771  0.6636 -1.4700 -1.1245
  320SOL    HW2  960   2.200   1.626   1.706  4.0051 -3.0317 -0.7669
  321SOL     OW  961   3.018   3.004   2.901  0.0005 -0.1455  0.5935
  321SOL    HW1  962   3.000   0.007   2.961  0.7307  0.9688  0.0081
  321SOL    HW2  963   2.938   2.943   2.889  1.8161 -0.8670  1.9205
  322SOL     OW  964   2.353   0.983   1.074  0.2025  0.1844 -0.4064
  322SOL    HW1  965   2.358   0.903   1.009 -0.0608 -3.0889 -2.5077
  322SOL    HW2  966   2.423   0.973   1.148  1.2068 -0.6832 -0.0975
  323SOL     OW  967   2.204   1.709   0.253  0.3713 -0.9211  0.3349
  323SOL    HW1  968   2.168   1.634   0.310  1.2002  1.1207 -0.0984
  323SOL    HW2  969   2.226   1.669   0.157  1.1167 -2.4229 -3.1283
  324SOL     OW  970   2.680   0.460   1.270  0.6093  0.1276 -0.2945
  324SOL    HW1  971   2.701   0.362   1.275  1.1462 -0.9821 -0.9785
  324SOL    HW2  972   2.756   0.522   1.238 -1.2337  2.1616 -1.6130
  325SOL     OW  973   2.649   2.636   0.783  0.3676 -0.1856  0.3071
  325SOL    HW1  974   2.678   2.563   0.848  1.3000  0.1451  2.1768
  325SOL    HW2  975   2.567   2.615   0.726 -0.8098 -0.4213  1.8301
  326SOL     OW  976   1.412   2.787   0.615 -0.0880 -0.2505  0.0463
  326SOL    HW1  977   1.354   2.824   0.538  0.5149  2.0346  0.5346
  326SOL    HW2  978   1.503   2.742   0.586  1.7868 -1.8035 -2.8931
  327SOL     OW  979   2.117   2.430   0.280 -0.2024 -0.0557 -0.4897
  327SOL    HW1  980   2.066   2.346   0.248 -0.9038 -1.6228 -1.0581
  327SOL    HW2  981   2.076   2.524   0.263  1.3647  2.1717 -1.1174
  328SOL     OW  982   2.469   2.384   1.808  0.6118  0.0388  0.0155
  328SOL    HW1  983   2.545   2.353   1.867 -0.8520 -0.2728  1.6175
  328SOL    HW2  984   2.410   2.458   1.848  0.9298  1.5186  0.1623
  329SOL     OW  985   0.465   2.243   0.717 -0.1690  0.0981  0.9170
  329SOL    HW1  986   0.475   2.332   0.773 -1.8215  2.2020  2.1524
  329SOL    HW2  987   0.370   2.214   0.715  2.6601  2.1242  1.8615
  330SOL     OW  988   2.457   0.802   1.505 -0.2631 -0.1877 -0.3670
  330SOL    HW1  989   2.482   0.832   1.599  0.1457  1.2716 -3.1585
  330SOL    HW2  990   2.426   0.707   1.517 -0.5228 -2.6132  2.8648
  331SOL     OW  991   2.483   1.567   0.872 -0.0023 -0.5499 -0.3041
  331SOL    HW1  992   2.532   1.563   0.965  1.3105  1.4806 -0.2598
  331SOL    HW2  993   2.421   1.649   0.876 -1.1620  0.5037 -0.8144
  332SOL     OW  994   0.080   2.553   1.414 -0.1239  0.5740  0.7578
  332SOL    HW1  995   0.142   2.489   1.464  1.0083  0.7724  1.9717
  332SOL    HW2  996   0.045   2.623   1.476  1.2212 -0.3943 -0.5926
  333SOL     OW  997   3.038   1.646   1.503 -1.0036 -0.7843  0.1804
  333SOL    HW1  998   0.048   1.685   1.526 -2.2928  1.5851 -1.3969
  333SOL    HW2  999   3.039   1.596   1.418 -0.9770 -0.3018  1.7796
  334SOL     OW 1000   0.419   0.507   1.480  0.1571  0.4797 -0.4999
  334SOL    HW1 1001   0.446   0.467   1.573  2.0076 -0.4046  0.9330
  334SOL    HW2 1002   0.366   0.440   1.428  0.6489 -0.8275 -2.7100
  335SOL     OW 1003   2.677   1.692   1.872  0.2028 -0.1466  0.1739
  335SOL    HW1 1004   2.738   1.710   1.790  5.2526  1.3664  0.1679
  335SOL    HW2 1005   2.586   1.736   1.861 -0.3492  0.0978 -0.9651
  336SOL     OW 1006   1.732   2.772   0.025  0.6684 -0.2350  0.1482
  336SOL    HW1 1007   1.690   2.714   0.103  0.2630 -3.1414  1.4355
  336SOL    HW2 1008   1.825   2.744   0.002 -0.8530  1.8613  1.5704
  337SOL     OW 1009   0.671   0.416   1.435 -0.2102  0.6060  0.0947
  337SOL    HW1 1010   0.699   0.352   1.361 -1.0248  0.5287 -0.8288
  337SOL    HW2 1011   0.568   0.417   1.447  0.1863 -0.6359  1.7566
  338SOL     OW 1012   1.741   2.380   0.902 -0.1807  0.5309  0.3406
  338SOL    HW1 1013   1.754   2.279   0.892  0.0742  1.4506 -1.9257
  338SOL    HW2 1014   1.732   2.408   1.000 -0.1540  2.8389  1.1941
  339SOL     OW 1015   0.403   1.658   1.177 -0.1182  0.8273 -1.2171
  339SOL    HW1 1016   0.299   1.671   1.159 -1.7497  1.4061 -1.8038
  339SOL    HW2 1017   0.457   1.733   1.132  2.6816  4.6864  0.0364
  340SOL     OW 1018   0.030   3.017   2.352 -0.2870  0.6025  0.4222
  340SOL    HW1 1019   0.089   2.955   2.292  0.1431 -0.6723 -1.2264
  340SOL    HW2 1020   0.082   3.052   2.439  0.3157  0.5456  1.9875
  341SOL     OW 1021   2.600   1.256   0.447  0.1772  0.0872  0.1411
  341SOL    HW1 1022   2.570   1.327   0.514  0.9405 -1.1331 -0.2146
  341SOL    HW2 1023   2.685   1.213   0.480 -2.2861 -0.4681  2.8085
  342SOL     OW 1024   1.959   1.954   0.377  0.6479  0.3929 -1.1497
  342SOL    HW1 1025   1.887   1.999   0.436 -0.2339 -1.5773  0.6988
  342SOL    HW2 1026   2.011   2.026   0.324 -0.2571  2.2564  2.2393
  343SOL     OW 1027   2.005   0.632   0.666  0.4943  0.2043  0.6567
  343SOL    HW1 1028   1.973   0.597   0.750  2.4628 -0.0369 -0.8222
  343SOL    HW2 1029   2.068   0.570   0.606  2.0475 -4.8462 -3.0718
  344SOL     OW 1030   2.312   0.230   0.008 -0.7743 -1.1966 -0.2819
  344SOL    HW1 1031   2.393   0.198   0.058 -2.4157 -2.1517  1.0200
  344SOL    HW2 1032   2.240   0.160   0.001  4.5669  0.3564 -2.9456
  345SOL     OW 1033   1.168   0.196   1.075  0.0026 -0.2215 -0.0935
  345SOL    HW1 1034   1.167   0.095   1.078 -0.1879 -0.8116  1.1515
  345SOL    HW2 1035   1.093   0.234   1.136 -1.5197  1.8333  1.0422
  346SOL     OW 1036   2.070   2.526   1.629 -0.6746  0.2932  0.4169
  346SOL    HW1 1037   1.970   2.519   1.616  1.2982  0.8513  1.5569
  346SOL    HW2 1038   2.103   2.483   1.713 -0.9494 -1.5487  0.4074
  347SOL     OW 1039   2.823   0.034   0.751  0.4848  0.2720 -0.0670
  347SOL    HW1 1040   2.844   3.063   0.663 -2.7203 -0.6255  1.8727
  347SOL    HW2 1041   2.777   3.055   0.818 -0.0175 -0.7150  2.2196
  348SOL     OW 1042   0.447   1.040   1.183 -0.6005  0.2223 -0.0447
  348SOL    HW1 1043   0.497   0.953   1.162  0.9424 -1.3832 -1.6629
  348SOL    HW2 1044   0.492   1.084   1.264  2.8206  1.2701 -0.8994
  349SOL     OW 1045   2.138   0.020   3.041 -0.4633  0.1671  0.2132
  349SOL    HW1 1046   2.127   3.029   2.971 -0.8150  1.1562  1.0654
  349SOL    HW2 1047   2.050   0.073   3.051 -4.1832  1.7680 -0.7027
  350SOL     OW 1048   2.841   2.048   0.194  0.0033 -0.3153  0.0585
  350SOL    HW1 1049   2.789   2.052   0.280  1.8615  0.2085 -0.8314
  350SOL    HW2 1050   2.782   2.091   0.121 -0.9959 -1.5084  2.1499
  351SOL     OW 1051   1.039   0.274   0.819 -0.2366 -0.0670  0.4417
  351SOL    HW1 1052   1.109   0.287   0.744  0.2846 -1.2181  1.6190
  351SOL    HW2 1053   1.084   0.237   0.899 -1.1348  2.9833 -2.3225
  352SOL     OW 1054   1.988   2.125   2.721 -0.2502 -0.0095  0.4138
  352SOL    HW1 1055   2.082   2.095   2.744 -0.2397  1.3209  0.5386
  352SOL    HW2 1056   1.985   2.175   2.631 -0.1096 -0.7928 -1.3424
  353SOL     OW 1057   0.834   0.685   0.276  0.1886 -0.5044  0.0591
  353SOL    HW1 1058   0.816   0.601   0.328 -1.6018  2.2587 -1.1247
  353SOL    HW2 1059   0.749   0.706   0.214 -2.9938 -0.4775 -3.9260
  354SOL     OW 1060   0.803   1.963   2.966 -0.0388 -0.2390 -0.4586
  354SOL    HW1 1061   0.731   1.900   2.936  1.0187 -0.1972 -1.7472
  354SOL    HW2 1062   0.850   1.936   3.053 -0.5039  2.2079 -0.4228
  355SOL     OW 1063   2.884   2.643   2.280  0.1962  0.1439 -0.0667
  355SOL    HW1 1064   2.944   2.605   2.348 -0.6990 -1.5816 -0.0607
  355SOL    HW2 1065   2.886   2.743   2.277 -0.7312 -1.2455  0.4961
  356SOL     OW 1066   2.581   0.776   0.749 -0.0804 -0.3887  0.2273
  356SOL    HW1 1067   2.627   0.840   0.681 -3.4574  1.8535 -1.7726
  356SOL    HW2 1068   2.572   0.683   0.706 -1.2397  0.5269 -3.0308
  357SOL     OW 1069   2.385   0.255   0.990  0.1429 -0.3727 -0.6050
  357SOL    HW1 1070   2.378   0.199   1.076 -0.9821 -0.9328 -0.7200
  357SOL    HW2 1071   2.310   0.326   0.988  0.4634 -1.2404 -0.8930
  358SOL     OW 1072   1.311   2.969   1.557  0.2820 -0.5807 -0.2229
  358SOL    HW1 1073   1.342   3.058   1.517  2.0573  0.6710  2.8004
  358SOL    HW2 1074   1.210   2.970   1.581 -0.3034 -2.5334 -2.1476
  359SOL     OW 1075   2.986   2.393   2.676  0.4348  0.9113 -0.0332
  359SOL    HW1 1076   2.985   2.305   2.625  1.6232 -1.9832  1.3055
  359SOL    HW2 1077   3.075   2.420   2.714 -0.4003 -0.5325 -2.0990
  360SOL     OW 1078   0.541   1.154   1.409 -0.4538 -0.1367 -0.0485
  360SOL    HW1 1079   0.601   1.235   1.409  1.2561  1.1068 -0.0242
  360SOL    HW2 1080   0.479   1.146   1.489  1.8248 -3.7466  1.3948
  361SOL     OW 1081   2.429   2.837   0.484 -0.2878 -0.3256 -0.1785
  361SOL    HW1 1082   2.350   2.900   0.474 -1.5789  0.8945 -0.8036
  361SOL    HW2 1083   2.516   2.884   0.459  1.6233  1.7238 -1.9313
  362SOL     OW 1084   3.071   2.764   0.832 -0.5269  0.0425  0.1193
  362SOL    HW1 1085   3.075   2.685   0.901  0.3662 -0.7764 -0.5453
  362SOL    HW2 1086   2.983   2.769   0.777  0.1379  0.2372  1.3742
  363SOL     OW 1087   0.922   1.609   0.855  0.2935  0.4498  0.5605
  363SOL    HW1 1088   1.021   1.604   0.850  2.2475 -0.7686  0.5360
  363SOL    HW2 1089   0.906   1.678   0.929  0.2276  2.6537  2.8976
  364SOL     OW 1090   1.075   1.441   1.095 -0.1975 -0.0344  0.3542
  364SOL    HW1 1091   0.973   1.428   1.080 -2.3188 -0.8199 -2.0692
  364SOL    HW2 1092   1.111   1.357   1.138 -2.6920  0.9394 -1.3664
  365SOL     OW 1093   2.434   1.652   0.402  0.5947  0.8633  0.5876
  365SOL    HW1 1094   2.350   1.692   0.366  0.0142 -0.9813  1.5017
  365SOL    HW2 1095   2.517   1.689   0.357  0.8974 -0.2489  2.0125
  366SOL     OW 1096   2.866   1.605   1.080  0.2706 -0.5215 -0.2398
  366SOL    HW1 1097   2.905   1.555   1.159 -0.3734  1.8237  2.5144
  366SOL    HW2 1098   2.845   1.704   1.100 -0.6909  1.6320 -0.7832
  367SOL     OW 1099   2.152   1.990   1.875  0.3383 -0.4573  0.4014
  367SOL    HW1 1100   2.057   1.954   1.858  2.1031 -2.6100 -0.9396
  367SOL    HW2 1101   2.165   2.076   1.820 -1.7815 -0.9588 -0.9015
  368SOL     OW 1102   2.525   1.008   1.279 -0.3631  0.4419 -0.2813
  368SOL    HW1 1103   2.511   1.023   1.379  0.6826 -0.9858 -1.9246
  368SOL    HW2 1104   2.622   1.009   1.252 -1.4520 -0.0785 -0.2852
  369SOL     OW 1105   2.023   2.684   0.223  0.3338  0.1688  0.8351
  369SOL    HW1 1106   2.051   2.760   0.283  0.6210  0.8212 -0.1441
  369SOL    HW2 1107   2.032   2.706   0.123  0.3087 -0.4664 -1.4337
  370SOL     OW 1108   2.786   2.513   1.202  0.0743 -0.2392  0.1061
  370SOL    HW1 1109   2.748   2.548   1.290  0.6270  1.8242  2.3743
  370SOL    HW2 1110   2.881   2.549   1.201  1.5699 -0.0963  0.6679
  371SOL     OW 1111   0.741   1.709   2.421 -0.4179 -0.4758  0.3121
  371SOL    HW1 1112   0.810   1.784   2.410  1.7920  0.6115 -1.8638
  371SOL    HW2 1113   0.649   1.756   2.410  1.7988 -2.7769 -1.9291
  372SOL     OW 1114   0.944   1.215   0.361 -0.1263  0.5850 -0.4831
  372SOL    HW1 1115   0.889   1.157   0.293 -0.0249 -0.6436 -2.7030
  372SOL    HW2 1116   1.008   1.153   0.414  3.0432 -3.8921  1.2052
  373SOL     OW 1117   0.970   2.682   0.298 -0.3846 -0.1378 -0.3525
  373SOL    HW1 1118   0.983   2.621   0.379 -1.2499  0.5494 -1.6048
  373SOL    HW2 1119   1.007   2.633   0.212  1.9824  0.1840 -0.2400
  374SOL     OW 1120   0.354   1.706   0.052 -0.4547  0.2111  0.0338
  374SOL    HW1 1121   0.260   1.689   0.014 -1.2723 -1.7597  0.4438
  374SOL    HW2 1122   0.355   1.651   0.138  0.9715 -1.7293  0.1481
  375SOL     OW 1123   1.028   1.520   2.068 -0.0023 -0.2868  0.3668
  375SOL    HW1 1124   1.098   1.587   2.036  0.9047 -2.8478 -0.6602
  375SOL    HW2 1125   1.066   1.427   2.076 -3.0317  2.3476  1.8417
  376SOL     OW 1126   0.770   2.430   1.855 -0.4333  0.0763  0.4328
  376SOL    HW1 1127   0.857   2.456   1.813 -1.6032 -0.2854  3.1457
  376SOL    HW2 1128   0.751   2.493   1.934 -0.0276 -0.7759  2.3801
  377SOL     OW 1129   2.293   1.334   2.201 -0.1000  0.0648  0.4284
  377SOL    HW1 1130   2.217   1.343   2.266 -0.2954  1.1791 -1.5408
  377SOL    HW2 1131   2.262   1.376   2.113  2.1895 -2.1369  1.8979
  378SOL     OW 1132   1.206   0.398   2.448 -0.1380 -0.3288  0.5805
  378SOL    HW1 1133   1.207   0.409   2.553  1.0338 -3.0240  1.0231
  378SOL    HW2 1134   1.298   0.359   2.418 -0.4892 -1.1706 -0.9967
  379SOL     OW 1135   1.755   0.604   0.528  0.1821  0.2918 -0.3314
  379SOL    HW1 1136   1.839   0.659   0.528 -2.1505  3.7387 -1.6295
  379SOL    HW2 1137   1.714   0.608   0.614 -0.0900 -0.5155 -3.7170
  380SOL     OW 1138   0.103   2.109   1.379  0.1391  0.0916  0.1595
  380SOL    HW1 1139   0.038   2.189   1.379 -2.4812  1.3925  0.4423
  380SOL    HW2 1140   0.052   2.023   1.360 -0.9987  1.6684 -1.0591
  381SOL     OW 1141   1.613   1.636   1.636 -0.3634 -0.1053 -0.0640
  381SOL    HW1 1142   1.598   1.540   1.664 -1.1394  0.9506 -1.7593
  381SOL    HW2 1143   1.560   1.670   1.555 -2.1120  1.8870 -0.9312
  382SOL     OW 1144   2.952   0.324   2.820  0.5697 -0.4603  0.3421
  382SOL    HW1 1145   2.962   0.253   2.747  0.0437  0.5059  0.1329
  382SOL    HW2 1146   2.937   0.282   2.908  0.8002  2.8622  0.0886
  383SOL     OW 1147   1.550   1.408   2.670 -0.1691  0.1599  0.4156
  383SOL    HW1 1148   1.508   1.315   2.670 -1.8304 -0.1716  0.2087
  383SOL    HW2 1149   1.651   1.410   2.689  0.5679  0.5866 -3.9386
  384SOL     OW 1150   1.116   2.717   1.013 -0.6350  0.3858 -0.5519
  384SOL    HW1 1151   1.033   2.774   1.012  2.2399 -1.5973 -1.4567
  384SOL    HW2 1152   1.196   2.767   0.967  0.0537 -1.6267 -0.9268
  385SOL     OW 1153   2.049   2.186   1.196  0.0015  0.3460 -0.4355
  385SOL    HW1 1154   2.100   2.235   1.127  1.5274 -0.2729  1.8773
  385SOL    HW2 1155   2.068   2.086   1.180  1.3752  1.0205  3.1973
  386SOL     OW 1156   2.221   2.158   1.467  0.3859 -0.3565  0.0590
  386SOL    HW1 1157   2.178   2.080   1.415  0.1555 -0.4573  0.4661
  386SOL    HW2 1158   2.239   2.242   1.413  0.4292  1.8818 -1.3285
  387SOL     OW 1159   0.530   2.221   1.142  0.0882 -0.0446 -0.4820
  387SOL    HW1 1160   0.555   2.267   1.226 -0.3526  0.5267 -1.9743
  387SOL    HW2 1161   0.432   2.199   1.141  1.4962  2.1389 -1.4193
  388SOL     OW 1162   2.713   0.922   1.909 -0.4578  0.7016 -0.3947
  388SOL    HW1 1163   2.637   0.889   1.974  0.4246 -0.9310  1.9350
  388SOL    HW2 1164   2.804   0.874   1.924 -0.0834  0.3947 -1.4463
  389SOL     OW 1165   1.720   1.243   1.078 -0.0167  0.2681 -0.8203
  389SOL    HW1 1166   1.680   1.297   1.000  0.9986 -0.3796 -2.8661
  389SOL    HW2 1167   1.701   1.287   1.169 -1.5584  0.8480  2.0807
  390SOL     OW 1168   0.885   2.115   2.033  0.4742  0.4148  0.7294
  390SOL    HW1 1169   0.873   2.147   2.127  1.4096 -2.1824 -2.8656
  390SOL    HW2 1170   0.837   2.166   1.959  0.6211 -0.1393  0.8365
  391SOL     OW 1171   0.850   1.948   2.362  0.3510  0.1593 -0.0473
  391SOL    HW1 1172   0.831   1.994   2.452  3.4139  3.1745  1.6795
  391SOL    HW2 1173   0.928   2.000   2.319  2.1539  0.2761  2.3839
  392SOL     OW 1174   2.954   2.917   2.580  0.4810 -1.0664  1.0269
  392SOL    HW1 1175   2.966   2.905   2.678 -2.8171  1.9615 -1.4782
  392SOL    HW2 1176   3.039   2.919   2.525  1.0205  3.1353  1.3366
  393SOL     OW 1177   1.808   2.964   0.341 -0.2511 -0.4531  0.2350
  393SOL    HW1 1178   1.759   3.016   0.412  0.5622 -0.4949  4.4599
  393SOL    HW2 1179   1.800   2.866   0.357  0.3863  1.7732 -1.7069
  394SOL     OW 1180   0.566   0.680   2.418 -0.0792 -0.5272 -0.1917
  394SOL    HW1 1181   0.516   0.768   2.426 -0.2763 -0.2752 -0.7607
  394SOL    HW2 1182   0.587   0.661   2.320 -3.0126 -0.2895 -2.7916
  395SOL     OW 1183   0.394   1.361   1.568  0.0061  0.0223  0.4419
  395SOL    HW1 1184   0.473   1.422   1.555  0.6709 -0.1200 -1.9027
  395SOL    HW2 1185   0.348   1.394   1.653 -4.3166  1.7936  0.2510
  396SOL     OW 1186   1.494   1.677   2.074  0.1945 -0.0244  0.0435
  396SOL    HW1 1187   1.447   1.664   2.163 -3.8818  2.4415 -0.6443
  396SOL    HW2 1188   1.573   1.616   2.065 -1.9789 -0.1915  1.1800
  397SOL     OW 1189   0.601   0.557   2.667 -0.4282 -0.2203  0.2922
  397SOL    HW1 1190   0.578   0.607   2.582 -1.7253 -1.8226  0.2290
  397SOL    HW2 1191   0.525   0.569   2.732  1.6945  0.5874  1.1817
  398SOL     OW 1192   0.380   2.270   2.713 -0.0780  0.8918 -0.2807
  398SOL    HW1 1193   0.442   2.240   2.638 -0.1099 -2.9201  0.3717
  398SOL    HW2 1194   0.320   2.187   2.730 -3.5959 -1.8057 -1.0811
  399SOL     OW 1195   0.118   1.967   2.259  0.4192 -0.0183  0.4499
  399SOL    HW1 1196   0.216   1.959   2.219 -3.4549  1.5239 -2.0031
  399SOL    HW2 1197   0.056   1.896   2.224  1.9797  0.5895  2.1312
  400SOL     OW 1198   2.642   0.265   1.822 -0.3300  0.2670  0.2092
  400SOL    HW1 1199   2.600   0.349   1.854 -4.7103 -1.0476  2.1174
  400SOL    HW2 1200   2.699   0.276   1.741 -1.1648  2.1253  1.8111
  401SOL     OW 1201   0.870   1.620   0.157  0.6056 -0.1753 -0.0299
  401SOL    HW1 1202   0.941   1.560   0.204  3.3411 -3.4562 -0.2761
  401SOL    HW2 1203   0.777   1.588   0.192 -1.0092 -0.9574 -0.6178
  402SOL     OW 1204   0.188   2.513   2.070 -0.1364  0.4407 -0.1354
  402SOL    HW1 1205   0.105   2.484   2.017 -3.2699  2.0708 -0.1153
  402SOL    HW2 1206   0.168   2.491   2.167 -0.5947  0.2973 -1.8303
  403SOL     OW 1207   0.676   0.935   2.083 -0.0509  0.2211 -0.4097
  403SOL    HW1 1208   0.767   0.957   2.126 -3.3875  0.0790  0.7876
  403SOL    HW2 1209   0.612   1.012   2.095  1.5563 -1.5003  0.1271
  404SOL     OW 1210   1.594   2.245   1.496 -0.1833 -0.4440  0.0139
  404SOL    HW1 1211   1.669   2.240   1.428 -3.0376  2.9213 -1.8291
  404SOL    HW2 1212   1.520   2.178   1.475 -0.0763  0.6833  0.4181
  405SOL     OW 1213   2.462   2.262   2.941 -0.3965  0.5233  0.2055
  405SOL    HW1 1214   2.482   2.316   2.856 -2.2070  0.1115 -0.5240
  405SOL    HW2 1215   2.388   2.305   2.990  0.9077 -3.3918 -4.3483
  406SOL     OW 1216   0.600   1.302   2.579 -0.2209 -0.7398 -0.3269
  406SOL    HW1 1217   0.549   1.285   2.670  0.8500 -0.9726  1.4042
  406SOL    HW2 1218   0.665   1.379   2.589  1.1713 -0.0728  2.2894
  407SOL     OW 1219   2.268   2.685   2.782  0.3658  0.6587  0.3514
  407SOL    HW1 1220   2.335   2.610   2.754 -0.7434  0.0402 -0.9900
  407SOL    HW2 1221   2.313   2.742   2.853 -0.2091  1.1324  0.6369
  408SOL     OW 1222   2.692   2.564   0.349 -0.2456 -0.0212  0.2883
  408SOL    HW1 1223   2.679   2.527   0.256  0.5112 -1.5241 -0.1472
  408SOL    HW2 1224   2.674   2.486   0.409 -1.0642  1.2386  0.1334
  409SOL     OW 1225   2.402   1.078   0.400  0.5189 -0.1319 -0.2723
  409SOL    HW1 1226   2.484   1.136   0.411  1.0763  0.9085 -1.0658
  409SOL    HW2 1227   2.320   1.134   0.373 -1.5874  1.4135  2.6313
  410SOL     OW 1228   2.906   1.698   0.805  0.4893  0.0722 -0.5557
  410SOL    HW1 1229   2.852   1.645   0.738 -1.3500  1.2979  0.6104
  410SOL    HW2 1230   2.856   1.711   0.893 -3.1501 -0.8457  1.5854
  411SOL     OW 1231   0.491   1.488   0.797  0.0889 -0.2599 -0.1413
  411SOL    HW1 1232   0.502   1.450   0.892 -0.5408 -1.8773  0.9246
  411SOL    HW2 1233   0.491   1.408   0.733  1.2631 -1.6672 -1.7759
  412SOL     OW 1234   2.141   2.203   0.638 -0.2263  0.2700 -0.5191
  412SOL    HW1 1235   2.122   2.172   0.735  3.2259 -2.0707 -0.7579
  412SOL    HW2 1236   2.172   2.127   0.582  0.5409  1.3875 -0.8773
  413SOL     OW 1237   1.402   1.047   1.812  0.0584  0.0737  0.0348
  413SOL    HW1 1238   1.362   1.068   1.722 -0.1853  0.2536 -0.1653
  413SOL    HW2 1239   1.357   1.100   1.888  1.3019 -1.3223  1.8752
  414SOL     OW 1240   3.022   2.781   0.144  0.1976 -0.7085  0.4178
  414SOL    HW1 1241   0.017   2.781   0.074 -2.7834 -1.2802 -0.8560
  414SOL    HW2 1242   2.936   2.812   0.102  1.4607  0.7807  2.5127
  415SOL     OW 1243   0.870   1.959   1.715 -0.3701  0.3744  0.3137
  415SOL    HW1 1244   0.823   2.048   1.731  0.3716 -1.3886 -0.6771
  415SOL    HW2 1245   0.907   1.919   1.802  1.4168  1.0649  0.2862
  416SOL     OW 1246   2.698   2.452   2.720 -0.3310 -0.4421  0.1327
  416SOL    HW1 1247   2.801   2.445   2.713  0.1208 -0.9420 -1.1729
  416SOL    HW2 1248   2.672   2.473   2.815  0.9228  0.1587 -1.3645
  417SOL     OW 1249   2.416   0.394   1.344 -0.0487 -0.5177 -0.0663
  417SOL    HW1 1250   2.360   0.313   1.319  1.1702  0.8209 -2.4763
  417SOL    HW2 1251   2.512   0.383   1.305  0.6985  1.1029  0.6604
  418SOL     OW 1252   2.733   0.099   0.117  0.1400 -0.9021 -0.4701
  418SOL    HW1 1253   2.651   0.038   0.101 -1.3078 -0.7435 -1.9887
  418SOL    HW2 1254   2.728   0.172   0.044  0.1682  1.3605  1.3419
  419SOL     OW 1255   3.050   1.500   1.269  0.3593  0.3791 -0.2342
  419SOL    HW1 1256   2.975   1.442   1.316  1.6552 -1.8713  0.7312
  419SOL    HW2 1257   0.061   1.452   1.281  0.0962  3.3541  1.4031
  420SOL     OW 1258   0.305   1.367   2.984 -0.7770  0.5961 -0.0113
  420SOL    HW1 1259   0.325   1.335   0.000  0.9391 -2.3665 -2.2189
  420SOL    HW2 1260   0.354   1.301   2.925 -2.6437 -1.1621  0.6875
  421SOL     OW 1261   2.399   2.363   2.459 -0.7649 -0.0395  0.6765
  421SOL    HW1 1262   2.353   2.276   2.451  1.8412  0.0115 -1.1147
  421SOL    HW2 1263   2.348   2.436   2.411  0.6527  1.2442 -0.3957
  422SOL     OW 1264   0.446   0.887   2.717 -0.6379  0.5347  0.3222
  422SOL    HW1 1265   0.406   0.876   2.626  0.6100  0.0434  3.4637
  422SOL    HW2 1266   0.382   0.927   2.782 -0.4842 -0.6713 -1.0702
  423SOL     OW 1267   1.389   2.292   0.572 -0.8326  0.3758  0.0480
  423SOL    HW1 1268   1.319   2.362   0.582 -0.3002 -0.4678 -1.9733
  423SOL    HW2 1269   1.358   2.221   0.513 -1.3827  0.8507 -0.0467
  424SOL     OW 1270   0.857   1.625   1.801  0.6302 -0.1138  0.2772
  424SOL    HW1 1271   0.873   1.682   1.885  0.5085 -0.3800 -0.1649
  424SOL    HW2 1272   0.894   1.534   1.809 -3.5407  3.1394  1.9541
  425SOL     OW 1273   2.667   2.316   2.490 -0.5080  0.0434  0.3486
  425SOL    HW1 1274   2.706   2.391   2.544 -1.6193 -0.2303  1.4068
  425SOL    HW2 1275   2.568   2.322   2.486  2.0621 -2.2223 -0.6059
  426SOL     OW 1276   1.655   0.794   0.952 -0.4108  0.6625 -0.1034
  426SOL    HW1 1277   1.563   0.781   0.914  1.6301 -0.7592  1.9431
  426SOL    HW2 1278   1.669   0.866   1.019 -1.6400 -0.8897  0.0602
  427SOL     OW 1279   0.286   1.544   2.645 -0.6789 -0.0971 -0.1437
  427SOL    HW1 1280   0.213   1.575   2.705 -0.7799  0.9436 -0.1164
  427SOL    HW2 1281   0.272   1.450   2.622 -2.6124  1.6286 -1.8640
  428SOL     OW 1282   1.057   1.451   0.255  0.1679  0.0210 -0.2377
  428SOL    HW1 1283   1.125   1.486   0.318 -0.3288  1.3798 -0.7976
  428SOL    HW2 1284   1.038   1.356   0.278 -0.5881  0.6266 -1.0908
  429SOL     OW 1285   0.116   2.575   0.393 -0.0019 -0.2915 -0.4315
  429SOL    HW1 1286   0.155   2.518   0.322 -1.4017 -1.4709  0.6758
  429SOL    HW2 1287   0.031   2.625   0.369  0.3355 -0.3730  0.4191
  430SOL     OW 1288   0.550   2.424   2.160 -0.2906  0.2563 -1.0043
  430SOL    HW1 1289   0.494   2.479   2.223  1.3801  0.6197 -1.2537
  430SOL    HW2 1290   0.493   2.380   2.090  1.4400  1.3287  0.6503
  431SOL     OW 1291   2.975   1.029   0.303 -0.3394  0.0774  0.2232
  431SOL    HW1 1292   3.040   0.999   0.379  1.3373  5.1270  0.9783
  431SOL    HW2 1293   2.965   0.958   0.230  3.4078 -0.4173 -0.4294
  432SOL     OW 1294   1.592   2.503   2.755  0.1324 -0.1271  0.2664
  432SOL    HW1 1295   1.670   2.438   2.773 -0.0884 -0.4886  3.1423
  432SOL    HW2 1296   1.621   2.588   2.706  0.4443 -1.3113 -0.0887
  433SOL     OW 1297   1.057   2.484   0.825  0.1325 -0.6631 -0.2999
  433SOL    HW1 1298   0.959   2.450   0.831 -1.9753 -0.5263  0.3341
  433SOL    HW2 1299   1.068   2.556   0.898  2.1030 -0.4453  0.8077
  434SOL     OW 1300   1.535   1.874   2.365  0.1961  0.0265 -0.6878
  434SOL    HW1 1301   1.537   1.923   2.454  0.5808  0.1670 -0.1936
  434SOL    HW2 1302   1.570   1.778   2.368  0.2973  0.4628  0.8646
  435SOL     OW 1303   2.353   0.651   0.146 -0.2474  0.2104  0.5696
  435SOL    HW1 1304   2.382   0.745   0.160 -0.1297 -0.8117 -0.9254
  435SOL    HW2 1305   2.291   0.620   0.221  0.7615 -0.9432 -0.6768
  436SOL     OW 1306   0.413   2.597   2.364 -0.0328 -0.1671 -0.1085
  436SOL    HW1 1307   0.325   2.542   2.355 -1.0862 -0.7776  1.1459
  436SOL    HW2 1308   0.447   2.598   2.459 -2.0775 -1.4319  4.0910
  437SOL     OW 1309   2.055   2.905   1.584 -0.6700  0.3279 -0.7175
  437SOL    HW1 1310   2.080   2.818   1.539 -0.1413 -0.3968  0.2057
  437SOL    HW2 1311   1.968   2.950   1.554 -2.9792  0.6139 -2.7517
  438SOL     OW 1312   0.319   1.748   0.397 -0.0385 -0.0555 -0.0707
  438SOL    HW1 1313   0.411   1.740   0.447 -0.4044 -2.1907  3.5893
  438SOL    HW2 1314   0.324   1.819   0.325 -1.8134 -1.0454 -2.1151
  439SOL     OW 1315   0.015   3.046   0.974  0.2220 -0.1269  0.1782
  439SOL    HW1 1316   0.059   0.052   0.929  3.9594  0.6927 -1.7340
  439SOL    HW2 1317   0.004   2.973   0.905 -0.2384  0.8078 -1.0665
  440SOL     OW 1318   2.607   2.700   2.284 -0.6441 -0.5833  0.2495
  440SOL    HW1 1319   2.706   2.685   2.292  0.7212 -1.5034  0.1340
  440SOL    HW2 1320   2.560   2.678   2.198  0.4419  1.5681  0.9676
  441SOL     OW 1321   0.053   0.905   0.477  0.3773 -0.6537  0.0015
  441SOL    HW1 1322   0.126   0.836   0.502 -0.6198 -1.9887  2.6421
  441SOL    HW2 1323   0.003   0.929   0.563 -0.0292 -0.2443 -1.7944
  442SOL     OW 1324   1.595   2.221   2.334  0.3715 -0.1191  0.1709
  442SOL    HW1 1325   1.603   2.175   2.422  0.0398  1.1104 -1.0002
  442SOL    HW2 1326   1.530   2.298   2.348  2.5121 -1.3380 -0.5307
  443SOL     OW 1327   0.819   3.057   2.879 -0.2828  0.0540 -0.1982
  443SOL    HW1 1328   0.836   3.042   2.778 -4.0774  2.3850  0.8159
  443SOL    HW2 1329   0.783   2.972   2.918  1.6115  0.7187  0.4106
  444SOL     OW 1330   1.451   1.666   2.760 -0.5800  0.5446  0.2525
  444SOL    HW1 1331   1.360   1.672   2.797  2.4338  0.1730 -1.4706
  444SOL    HW2 1332   1.468   1.578   2.707  3.0528 -0.4985  2.0224
  445SOL     OW 1333   0.267   0.199   1.044  0.1128  0.6259  0.1233
  445SOL    HW1 1334   0.200   0.219   0.964 -1.7193  0.6545 -2.6751
  445SOL    HW2 1335   0.343   0.147   1.003 -7.0531  1.4048  1.2556
  446SOL     OW 1336   1.826   0.964   0.778  0.4188  0.0971  0.2917
  446SOL    HW1 1337   1.782   0.906   0.850  0.7672 -0.3605  0.3797
  446SOL    HW2 1338   1.896   0.923   0.722 -2.0642  2.2338  1.8519
  447SOL     OW 1339   3.064   0.626   0.214  0.0957 -0.3672  0.6675
  447SOL    HW1 1340   3.022   0.538   0.181  0.5393  0.6752 -1.9920
  447SOL    HW2 1341   3.051   0.636   0.314  0.3930  0.4161 -0.1064
  448SOL     OW 1342   2.406   1.898   1.109  0.0897 -0.0582 -0.2740
  448SOL    HW1 1343   2.451   1.810   1.137 -1.2451  1.0681 -0.8119
  448SOL    HW2 1344   2.481   1.963   1.083 -0.3809  2.0066 -1.0140
  449SOL     OW 1345   0.873   1.336   2.965  0.0919  0.2597  0.1249
  449SOL    HW1 1346   0.921   1.351   2.877  1.6340  0.3614  0.5989
  449SOL    HW2 1347   0.826   1.421   2.998 -2.0123  1.5455 -2.6193
  450SOL     OW 1348   2.152   2.672   2.535 -0.0086 -0.4852 -0.2693
  450SOL    HW1 1349   2.180   2.754   2.485 -0.8808 -2.3189 -0.1613
  450SOL    HW2 1350   2.192   2.666   2.628  3.3112 -1.5838  0.9420
  451SOL     OW 1351   2.351   0.754   2.466 -0.0074 -0.2257  0.2541
  451SOL    HW1 1352   2.418   0.795   2.401  2.7282  1.4788  0.6057
  451SOL    HW2 1353   2.270   0.814   2.473  2.3596  1.7203  1.3690
  452SOL     OW 1354   1.714   1.386   1.325  0.8093  0.3374  0.4164
  452SOL    HW1 1355   1.762   1.456   1.386 -0.4895 -0.2066  1.4136
  452SOL    HW2 1356   1.616   1.377   1.351  3.1853 -0.8191 -3.2611
  453SOL     OW 1357   1.744   0.506   1.854 -0.0916  0.2245 -0.1554
  453SOL    HW1 1358   1.783   0.450   1.928 -0.8558  3.0244 -0.6581
  453SOL    HW2 1359   1.681   0.453   1.789 -0.0239 -0.1023 -0.9114
  454SOL     OW 1360   3.061   1.027   3.025 -0.5418 -0.9746 -0.1223
  454SOL    HW1 1361   3.029   1.026   2.925 -0.1048 -1.6002 -0.3163
  454SOL    HW2 1362   3.047   0.934   3.061 -0.2451  0.2106 -0.4133
  455SOL     OW 1363   2.362   1.732   1.473 -0.0368 -0.2498  0.0434
  455SOL    HW1 1364   2.368   1.658   1.401 -2.3336 -1.6947 -2.4273
  455SOL    HW2 1365   2.367   1.702   1.568 -0.3096  0.1970  0.3253
  456SOL     OW 1366   1.679   2.845   1.584 -0.2268 -0.1460 -0.1304
  456SOL    HW1 1367   1.696   2.761   1.528  1.2868  2.7965  2.6008
  456SOL    HW2 1368   1.729   2.926   1.554  1.9194  0.6640 -0.8700
  457SOL     OW 1369   1.459   0.201   0.309  0.2189  0.6667 -0.4239
  457SOL    HW1 1370   1.513   0.242   0.387  1.9308 -0.8645  0.0483
  457SOL    HW2 1371   1.433   0.103   0.333  1.7726  1.0041 -0.2497
  458SOL     OW 1372   2.888   2.973   0.534  0.3979 -0.3126 -0.0627
  458SOL    HW1 1373   2.885   2.890   0.588 -2.3356  1.0342 -2.1312
  458SOL    HW2 1374   2.965   2.974   0.469 -1.6120 -2.7247  1.3225
  459SOL     OW 1375   2.080   1.157   0.620 -0.4409 -0.1814 -0.0610
  459SOL    HW1 1376   2.082   1.054   0.617 -0.9626 -0.5782 -0.4184
  459SOL    HW2 1377   1.980   1.177   0.607 -1.6871 -0.8144 -1.6565
  460SOL     OW 1378   0.827   2.470   2.491 -0.1457  0.0076 -0.3657
  460SOL    HW1 1379   0.879   2.547   2.455  0.7240 -4.9510  2.8342
  460SOL    HW2 1380   0.867   2.425   2.575  0.4579  2.3926 -0.5481
  461SOL     OW 1381   0.553   1.728   2.962 -0.0163  0.2064 -0.0924
  461SOL    HW1 1382   0.549   1.656   2.888 -1.6010 -1.1408  0.8414
  461SOL    HW2 1383   0.473   1.712   3.027 -1.4057 -0.6411 -0.5395
  462SOL     OW 1384   2.331   2.080   0.410  0.3590 -0.3752  0.0552
  462SOL    HW1 1385   2.332   2.017   0.489 -1.2278  3.8561 -0.7781
  462SOL    HW2 1386   2.274   2.047   0.334 -1.9887 -2.7288  0.5448
  463SOL     OW 1387   2.927   0.403   0.247 -0.6511 -0.3311  0.1485
  463SOL    HW1 1388   2.840   0.441   0.284 -1.4290 -3.9789  1.0151
  463SOL    HW2 1389   2.922   0.305   0.266 -0.8101  3.4936  2.0072
  464SOL     OW 1390   0.540   1.269   0.654  0.0783  0.0845  0.3178
  464SOL    HW1 1391   0.533   1.171   0.640  2.5635  2.1075  1.4224
  464SOL    HW2 1392   0.596   1.310   0.579  2.2140  1.6828  1.6226
  465SOL     OW 1393   2.236   0.150   1.425 -0.5702  0.2210  0.1209
  465SOL    HW1 1394   2.184   0.075   1.377 -0.9042  0.7928  0.2551
  465SOL    HW2 1395   2.179   0.237   1.416 -3.0945 -0.8353 -0.6156
  466SOL     OW 1396   2.237   3.012   0.792 -0.3604  0.0924  0.2589
  466SOL    HW1 1397   2.240   2.915   0.808  0.4085  1.0109 -1.7221
  466SOL    HW2 1398   2.327   3.054   0.809 -1.0641  0.2243  0.2266
  467SOL     OW 1399   2.903   0.673   2.207 -0.0578  0.6517 -0.3883
  467SOL    HW1 1400   2.828   0.634   2.263  0.1979 -0.1514  0.5266
  467SOL    HW2 1401   2.946   0.743   2.263 -2.2059  1.3357  0.7573
  468SOL     OW 1402   2.828   0.259   2.288  0.0328 -0.1112  0.0679
  468SOL    HW1 1403   2.863   0.325   2.357 -0.3442  1.5877  1.4352
  468SOL    HW2 1404   2.862   0.275   2.193 -0.9360  0.2039 -0.2664
  469SOL     OW 1405   0.728   0.106   1.495 -0.1080 -0.2027 -0.5119
  469SOL    HW1 1406   0.762   0.196   1.524  0.7794 -2.8174  0.8486
  469SOL    HW2 1407   0.625   0.101   1.506 -1.3893 -0.2601  2.2136
  470SOL     OW 1408   2.793   0.772   1.675 -0.2485  0.2976 -0.2569
  470SOL    HW1 1409   2.840   0.757   1.588  0.6650 -0.7093  0.7745
  470SOL    HW2 1410   2.803   0.864   1.715 -1.1623  2.3730  1.1348
  471SOL     OW 1411   2.875   1.579   2.719 -0.2775  0.5129  0.7394
  471SOL    HW1 1412   2.912   1.619   2.807  0.1689 -0.5606 -0.9647
  471SOL    HW2 1413   2.776   1.570   2.718 -0.5966 -0.0100  1.7299
  472SOL     OW 1414   0.919   1.876   0.530 -0.4061  0.2776  0.5349
  472SOL    HW1 1415   0.924   1.920   0.622 -0.7715  0.8225  1.0794
  472SOL    HW2 1416   0.838   1.918   0.490  0.0089  0.1862  2.2141
  473SOL     OW 1417   1.612   2.155   2.070 -0.4788  0.2092 -0.1841
  473SOL    HW1 1418   1.631   2.050   2.068  1.5468 -1.0828  1.0649
  473SOL    HW2 1419   1.589   2.184   2.166 -0.9480  1.0673 -2.3406
  474SOL     OW 1420   0.720   2.792   2.567 -0.0156 -0.4150  0.2418
  474SOL    HW1 1421   0.773   2.766   2.651 -2.8988  0.6021  0.9421
  474SOL    HW2 1422   0.627   2.839   2.581 -0.2899  0.3038  2.2860
  475SOL     OW 1423   0.788   2.042   2.605 -0.3878 -0.1254 -0.2032
  475SOL    HW1 1424   0.715   1.989   2.648  0.8916 -0.5922 -2.7337
  475SOL    HW2 1425   0.862   2.066   2.667 -2.8711  3.8113 -2.3146
  476SOL     OW 1426   0.592   0.368   0.959 -1.1582  0.1075 -0.0775
  476SOL    HW1 1427   0.565   0.412   1.050 -1.0502 -0.0131  3.3172
  476SOL    HW2 1428   0.563   0.418   0.879  2.1475  0.3750 -0.1140
  477SOL     OW 1429   1.788   2.248   1.292 -0.1487  0.2609 -0.6523
  477SOL    HW1 1430   1.774   2.344   1.267  4.2273  1.4250 -0.5539
  477SOL    HW2 1431   1.886   2.229   1.278 -0.2681  0.4971 -0.3730
  478SOL     OW 1432   0.251   0.321   2.648 -0.0664 -0.4252  0.1914
  478SOL    HW1 1433   0.254   0.251   2.723 -0.9592 -0.4779 -0.3799
  478SOL    HW2 1434   0.280   0.413   2.682  0.7864  1.0919  1.2827
  479SOL     OW 1435   0.898   0.546   1.164 -0.5327  0.5675  0.2025
  479SOL    HW1 1436   0.858   0.601   1.240 -0.8043  0.6284  1.4016
  479SOL    HW2 1437   0.975   0.595   1.118 -0.4478  0.4647 -2.0924
  480SOL     OW 1438   2.705   2.475   0.101 -0.0770  0.3523  0.0518
  480SOL    HW1 1439   2.717   2.374   0.090 -1.1094 -0.7039 -0.0119
  480SOL    HW2 1440   2.731   2.527   0.020 -0.0480 -0.9181 -1.6982
  481SOL     OW 1441   0.079   0.519   1.627 -0.1189 -0.5940 -0.4993
  481SOL    HW1 1442   0.143   0.459   1.683 -0.4637 -1.1435  0.5443
  481SOL    HW2 1443   3.076   0.529   1.685  0.6454 -0.0522  0.6508
  482SOL     OW 1444   0.957   3.036   1.337 -0.1235  0.0068  0.3758
  482SOL    HW1 1445   0.891   0.010   1.392 -0.3241 -4.5154  0.7714
  482SOL    HW2 1446   0.917   2.979   1.258 -1.5881 -0.4643 -0.2335
  483SOL     OW 1447   3.061   1.279   2.457  0.0340 -0.4842 -0.2396
  483SOL    HW1 1448   3.071   1.204   2.390  0.4662 -0.1738  2.3729
  483SOL    HW2 1449   2.966   1.310   2.455 -0.3175 -0.2363  2.8870
  484SOL     OW 1450   1.526   1.390   1.710  0.0627  0.6204  1.0013
  484SOL    HW1 1451   1.446   1.383   1.770  1.4515  0.1429 -0.2108
  484SOL    HW2 1452   1.607   1.360   1.764 -0.9258  1.2477 -0.5411
  485SOL     OW 1453   0.120   2.790   2.530  0.0190  0.1076  0.1658
  485SOL    HW1 1454   0.166   2.786   2.622  0.4590  1.2908  0.3417
  485SOL    HW2 1455   0.189   2.819   2.456  2.4458  0.0976  0.6700
  486SOL     OW 1456   1.172   3.079   0.860 -0.6000 -0.0312  0.7948
  486SOL    HW1 1457   1.199   0.028   0.763  4.6756  0.7027 -1.9681
  486SOL    HW2 1458   1.214   2.989   0.873  0.7656  0.8214  1.7443
  487SOL     OW 1459   1.382   0.293   0.943 -1.0046 -0.6673  0.0188
  487SOL    HW1 1460   1.462   0.282   1.005  0.6314 -0.4679  0.4020
  487SOL    HW2 1461   1.297   0.268   0.996  0.2296 -0.3110 -1.2130
  488SOL     OW 1462   2.437   1.094   0.667  0.1206 -0.2605  0.7005
  488SOL    HW1 1463   2.409   1.059   0.572  1.3959 -2.7611 -0.4352
  488SOL    HW2 1464   2.411   1.190   0.688  1.2683 -0.6782  3.6273
  489SOL     OW 1465   1.251   0.620   1.290 -0.0971  0.1562  0.1647
  489SOL    HW1 1466   1.344   0.657   1.268 -0.3888 -0.7567 -0.3580
  489SOL    HW2 1467   1.190   0.631   1.209  2.4592 -1.0771 -0.7196
  490SOL     OW 1468   1.091   0.700   2.706 -0.1034  0.0193 -0.4784
  490SOL    HW1 1469   1.157   0.685   2.781  4.3365 -0.0794  3.6518
  490SOL    HW2 1470   1.000   0.655   2.721  3.6922 -1.7054 -2.9331
  491SOL     OW 1471   0.821   2.360   1.001 -0.4189 -0.5845 -0.1994
  491SOL    HW1 1472   0.782   2.290   0.939  0.7223 -0.1263  0.4600
  491SOL    HW2 1473   0.884   2.314   1.070  3.2576 -2.7206  2.1171
  492SOL     OW 1474   1.167   1.660   1.709  0.3939 -0.1066 -0.2555
  492SOL    HW1 1475   1.071   1.645   1.697  1.0361  0.9199  1.7954
  492SOL    HW2 1476   1.185   1.756   1.737 -1.2222 -1.4403 -1.6030
  493SOL     OW 1477   0.654   1.522   0.294  0.0204  0.0131 -0.0633
  493SOL    HW1 1478   0.678   1.470   0.377  0.9585  2.1584 -2.0329
  493SOL    HW2 1479   0.631   1.460   0.215 -1.6141 -2.0596 -0.2331
  494SOL     OW 1480   2.002   2.763   0.591 -0.0501  0.1763 -0.1308
  494SOL    HW1 1481   1.944   2.697   0.640  1.7140  0.4380 -1.3376
  494SOL    HW2 1482   2.092   2.752   0.632 -0.8905 -0.6164 -2.4451
  495SOL     OW 1483   0.111   1.510   2.298  0.3293  0.3149 -0.1219
  495SOL    HW1 1484   0.081   1.444   2.367 -0.2766 -2.2826  0.6232
  495SOL    HW2 1485   0.199   1.552   2.331  0.5639  1.3436  0.8999
  496SOL     OW 1486   0.486   2.398   2.949  0.5525  0.0779  0.3977
  496SOL    HW1 1487   0.586   2.394   2.930 -2.5672  0.8472 -1.9889
  496SOL    HW2 1488   0.436   2.360   2.870 -0.1147  0.9891 -1.2579
  497SOL     OW 1489   1.791   1.389   0.519  0.0849  0.2939  0.7837
  497SOL    HW1 1490   1.760   1.482   0.511 -1.2615 -0.3729 -0.0957
  497SOL    HW2 1491   1.813   1.361   0.615 -1.6629  1.6722 -0.0663
  498SOL     OW 1492   2.925   2.669   0.383  0.0170 -0.0597 -0.1131
  498SOL    HW1 1493   2.942   2.726   0.300 -1.2300  1.3920 -3.4814
  498SOL    HW2 1494   2.831   2.635   0.374 -1.1490  0.1635 -0.1324
  499SOL     OW 1495   2.256   2.735   0.733  0.3209 -0.4357  0.3585
  499SOL    HW1 1496   2.327   2.747   0.657  3.4314 -2.2425  0.6141
  499SOL    HW2 1497   2.290   2.666   0.799 -0.8738  3.0995 -0.0720
  500SOL     OW 1498   0.086   0.390   2.399 -0.7898  0.6652  1.0438
  500SOL    HW1 1499   0.140   0.478   2.378 -0.7330  1.6768  0.8359
  500SOL    HW2 1500   0.113   0.351   2.492 -1.5440 -4.4528 -0.2663
  501SOL     OW 1501   1.744   2.637   1.426  0.2165  0.2567 -0.1058
  501SOL    HW1 1502   1.788   2.636   1.333  1.2515  1.9188 -1.7952
  501SOL    HW2 1503   1.777   2.562   1.491 -1.8598 -1.6152 -0.4557
  502SOL     OW 1504   2.973   0.112   2.572  0.0793 -0.3539 -0.3903
  502SOL    HW1 1505   3.072   0.099   2.556 -0.7277 -0.2152  1.4205
  502SOL    HW2 1506   2.923   0.022   2.563 -1.3887 -0.1017 -0.3021
  503SOL     OW 1507   1.973   2.535   2.226 -0.6467 -0.5593  0.6075
  503SOL    HW1 1508   1.933   2.593   2.302  1.5984 -0.9232 -0.3451
  503SOL    HW2 1509   1.911   2.456   2.219  1.2955  1.6939  0.4980
  504SOL     OW 1510   2.045   0.432   1.917  0.1323 -0.7696 -0.0791
  504SOL    HW1 1511   2.022   0.336   1.881 -0.7021 -1.3722 -2.6158
  504SOL    HW2 1512   2.108   0.487   1.854  1.5665  2.1105 -2.6621
  505SOL     OW 1513   2.673   1.372   1.209  0.2749 -0.0316 -0.1305
  505SOL    HW1 1514   2.691   1.451   1.144 -0.0235  1.3600 -1.0920
  505SOL    HW2 1515   2.674   1.397   1.310  0.9026  1.5159  1.5084
  506SOL     OW 1516   0.072   1.667   1.788  0.2115  0.5111  0.0093
  506SOL    HW1 1517   0.090   1.697   1.693 -0.3100  1.3461 -1.6052
  506SOL    HW2 1518   0.052   1.751   1.844  0.2919  2.3689  0.0627
  507SOL     OW 1519   0.593   2.356   1.379  0.8195  0.3289  0.0752
  507SOL    HW1 1520   0.620   2.426   1.310  0.8463  0.2661  0.2119
  507SOL    HW2 1521   0.579   2.400   1.467 -1.4570 -1.1097  0.6400
  508SOL     OW 1522   0.350   0.531   2.142 -0.3917 -0.1221  0.2367
  508SOL    HW1 1523   0.440   0.587   2.138  0.6619 -0.0289  2.6381
  508SOL    HW2 1524   0.371   0.436   2.168 -1.5398  2.3599 -1.2869
  509SOL     OW 1525   1.607   2.582   2.070 -0.2925 -0.4334  0.4290
  509SOL    HW1 1526   1.528   2.566   2.009  1.4935  0.3688  0.2445
  509SOL    HW2 1527   1.698   2.559   2.020  1.4866  2.2991  0.3256
  510SOL     OW 1528   2.107   1.361   2.568  0.3587  0.7259 -0.7781
  510SOL    HW1 1529   2.142   1.419   2.646 -0.9900 -0.5519  0.8269
  510SOL    HW2 1530   2.103   1.262   2.591  0.2199 -1.1499 -1.5722
  511SOL     OW 1531   1.150   0.938   0.925 -0.2915  0.3921 -0.3491
  511SOL    HW1 1532   1.232   0.989   0.962 -1.3314  0.8031  1.9160
  511SOL    HW2 1533   1.067   0.996   0.937 -2.2788  0.3590  0.9637
  512SOL     OW 1534   0.085   1.668   0.582 -0.2782 -0.0518 -0.0649
  512SOL    HW1 1535   0.016   1.743   0.581 -0.2565  1.6189  1.5308
  512SOL    HW2 1536   0.159   1.688   0.514  1.6536  0.3844  0.0999
  513SOL     OW 1537   1.079   2.107   2.297 -0.1231 -0.0213 -0.3833
  513SOL    HW1 1538   1.078   2.116   2.401  0.8535 -2.7211  0.7685
  513SOL    HW2 1539   1.091   2.196   2.252  0.9184  0.4152 -0.0650
  514SOL     OW 1540   0.247   2.234   1.142 -0.0057 -0.6894  0.2588
  514SOL    HW1 1541   0.216   2.189   1.230 -0.4860 -2.7337  0.9488
  514SOL    HW2 1542   0.188   2.206   1.066  0.0856 -0.5825  0.2083
  515SOL     OW 1543   1.680   0.688   1.495  0.2238 -0.1462 -0.3534
  515SOL    HW1 1544   1.702   0.787   1.511  2.3186  0.6983  2.1266
  515SOL    HW2 1545   1.606   0.666   1.566 -0.6776  0.5417  1.7864
  516SOL     OW 1546   2.239   0.484   3.026  0.2374 -0.6054  0.2294
  516SOL    HW1 1547   2.262   0.386   3.045  0.0294 -0.6904  0.4141
  516SOL    HW2 1548   2.284   0.547   0.013 -1.7735  2.4329  1.3592
  517SOL     OW 1549   1.065   1.736   2.922  0.5050 -0.7015  0.4630
  517SOL    HW1 1550   1.086   1.663   2.990 -1.5449 -0.6331 -2.2625
  517SOL    HW2 1551   0.963   1.730   2.915 -1.8362 -0.2300 -0.0852
  518SOL     OW 1552   1.424   2.560   1.876  0.3150 -0.0739  0.1818
  518SOL    HW1 1553   1.435   2.658   1.838  0.1391  3.6857  0.4148
  518SOL    HW2 1554   1.425   2.486   1.803  0.2326 -1.8922 -0.2013
  519SOL     OW 1555   2.039   0.030   0.946 -0.3486  0.0079 -0.2316
  519SOL    HW1 1556   2.106   3.069   0.881 -0.6459 -0.4897  2.3860
  519SOL    HW2 1557   1.943   0.031   0.912  1.7932  0.6743 -1.0873
  520SOL     OW 1558   2.593   1.685   2.128 -0.3595 -0.3127 -0.0665
  520SOL    HW1 1559   2.620   1.682   2.031 -0.8631  0.6801 -0.0655
  520SOL    HW2 1560   2.538   1.768   2.158  1.3887  0.2445 -1.2429
  521SOL     OW 1561   2.725   0.647   3.037 -0.7387  0.0085 -0.4259
  521SOL    HW1 1562   2.697   0.633   2.941  0.2091  0.3992  1.4482
  521SOL    HW2 1563   2.676   0.593   0.029  1.1045  1.8132  0.1225
  522SOL     OW 1564   0.785   0.879   2.527  0.4550 -0.1899 -0.1266
  522SOL    HW1 1565   0.809   0.796   2.473  1.3574 -1.1494  1.1559
  522SOL    HW2 1566   0.722   0.942   2.486  0.9985 -0.2798  1.5943
  523SOL     OW 1567   0.360   2.379   0.447  0.2081 -0.0690  0.0034
  523SOL    HW1 1568   0.281   2.333   0.496  0.9236  1.1664 -1.3101
  523SOL    HW2 1569   0.427   2.408   0.517 -0.1282  1.1417  1.2186
  524SOL     OW 1570   2.062   2.492   2.864  0.3613  0.2421 -0.2812
  524SOL    HW1 1571   2.025   2.468   2.773  0.1538 -1.5873  3.6731
  524SOL    HW2 1572   2.156   2.537   2.859  0.8602 -0.8050  0.0464
  525SOL     OW 1573   2.622   0.555   1.776 -0.6442  0.0900 -0.1500
  525SOL    HW1 1574   2.688   0.631   1.760 -1.5747 -0.7582 -0.0126
  525SOL    HW2 1575   2.594   0.553   1.876  3.3946 -1.5314 -0.7269
  526SOL     OW 1576   1.156   0.025   0.382  0.0738  0.4260 -0.1145
  526SOL    HW1 1577   1.110   3.050   0.305  0.3299 -3.4562 -0.4035
  526SOL    HW2 1578   1.143   0.121   0.357  2.5402 -1.1350  0.0323
  527SOL     OW 1579   2.131   0.133   0.607  0.1147  0.0636 -0.2406
  527SOL    HW1 1580   2.190   0.082   0.674 -1.2961 -0.3122  0.6974
  527SOL    HW2 1581   2.142   0.095   0.512  0.4961  0.5875 -0.9991
  528SOL     OW 1582   1.668   1.040   2.770 -0.0709 -0.2406  1.2280
  528SOL    HW1 1583   1.656   0.946   2.811 -1.1992 -0.6333 -0.5442
  528SOL    HW2 1584   1.585   1.057   2.716 -2.1823  0.9471 -1.3566
  529SOL     OW 1585   1.697   1.484   2.118 -0.3043  0.5116  0.1906
  529SOL    HW1 1586   1.634   1.402   2.135 -0.7527 -0.2388 -0.1170
  529SOL    HW2 1587   1.796   1.446   2.097  2.1059 -1.7735  0.0630
  530SOL     OW 1588   2.371   2.764   3.021  0.0576  0.2351 -0.3315
  530SOL    HW1 1589   2.373   2.674   3.071 -1.7208 -0.4213 -1.8300
  530SOL    HW2 1590   2.329   2.839   0.002 -0.0420  0.7147  1.4149
  531SOL     OW 1591   1.873   1.532   2.965 -0.5296  0.1049  0.5138
  531SOL    HW1 1592   1.866   1.463   3.037  1.8057  1.1892 -1.7008
  531SOL    HW2 1593   1.909   1.495   2.879  2.6379  0.6672  0.9137
  532SOL     OW 1594   1.516   0.328   1.195  0.0451 -0.0434 -0.5546
  532SOL    HW1 1595   1.549   0.424   1.187  0.6163  2.2506 -0.2037
  532SOL    HW2 1596   1.467   0.325   1.282 -1.0953  1.3393  1.2120
  533SOL     OW 1597   0.618   0.660   2.986  0.1807 -0.6229  0.5046
  533SOL    HW1 1598   0.622   0.735   3.052 -0.2407 -3.5759  0.9993
  533SOL    HW2 1599   0.637   0.688   2.893 -0.7225 -1.0396  0.1731
  534SOL     OW 1600   1.698   0.795   2.896 -0.1560  0.1285  0.1365
  534SOL    HW1 1601   1.747   0.711   2.864  0.7603 -0.7468 -0.7535
  534SOL    HW2 1602   1.733   0.817   2.993 -0.4347 -0.7274  0.4498
  535SOL     OW 1603   0.739   2.272   2.886  0.3479  0.4590  0.3186
  535SOL    HW1 1604   0.757   2.294   2.986 -0.3997  2.0705 -0.0381
  535SOL    HW2 1605   0.736   2.169   2.870  1.5510 -0.9896  2.1719
  536SOL     OW 1606   0.782   0.015   0.217 -0.1371 -0.2120  0.1140
  536SOL    HW1 1607   0.773   0.095   0.278  0.8060  1.1878 -0.0593
  536SOL    HW2 1608   0.722   0.019   0.136  3.5150  0.1469  1.9861
  537SOL     OW 1609   1.910   0.167   3.048 -0.1741 -0.1790 -0.3393
  537SOL    HW1 1610   1.854   0.136   0.047  1.7286  0.1711  1.7916
  537SOL    HW2 1611   1.913   0.267   3.042  0.9915 -1.6656  2.0658
  538SOL     OW 1612   2.361   2.538   0.084 -0.1388 -0.0757 -0.3515
  538SOL    HW1 1613   2.301   2.468   0.044 -1.3734 -2.4395  2.2002
  538SOL    HW2 1614   2.373   2.507   0.181  0.7026 -2.7256 -0.0518
  539SOL     OW 1615   2.636   1.480   2.888 -0.0413  0.0021  0.1613
  539SOL    HW1 1616   2.655   1.380   2.907  0.0133 -0.7177  1.6633
  539SOL    HW2 1617   2.655   1.541   2.967 -0.0855  1.9672 -0.5113
  540SOL     OW 1618   1.023   2.671   2.126  0.5431  0.2206 -0.3068
  540SOL    HW1 1619   0.987   2.745   2.065 -0.4667  1.0226  1.9184
  540SOL    HW2 1620   1.069   2.608   2.064 -2.9960  3.0180  2.7185
  541SOL     OW 1621   2.293   2.905   2.431  0.3405  0.1571 -0.1058
  541SOL    HW1 1622   2.253   2.986   2.479  0.9908 -2.0382  1.5834
  541SOL    HW2 1623   2.393   2.904   2.449 -0.6196 -0.1264 -0.4641
  542SOL     OW 1624   0.786   0.455   3.027 -0.0485  0.0872  0.2698
  542SOL    HW1 1625   0.715   0.383   3.042 -0.1399  1.7138  1.4253
  542SOL    HW2 1626   0.736   0.544   3.018  1.6357  0.0618  1.1479
  543SOL     OW 1627   0.215   0.870   0.838  0.0498 -0.4182 -0.0213
  543SOL    HW1 1628   0.118   0.885   0.864  0.5180 -0.7987 -1.4451
  543SOL    HW2 1629   0.280   0.937   0.876  2.1413  0.0737 -1.7408
  544SOL     OW 1630   2.286   0.598   1.259 -0.0142  0.3777  0.3584
  544SOL    HW1 1631   2.314   0.511   1.304 -0.3248  0.5144 -2.1236
  544SOL    HW2 1632   2.371   0.642   1.231  0.2800 -0.1621  1.4660
  545SOL     OW 1633   1.096   1.509   3.059 -0.2729  0.0337 -0.7405
  545SOL    HW1 1634   1.058   1.478   0.072  0.9741 -4.5981 -0.3958
  545SOL    HW2 1635   1.105   1.423   3.005  1.4274 -2.4450 -1.1896
  546SOL     OW 1636   2.334   2.924   1.469  0.3178  0.0244 -0.2045
  546SOL    HW1 1637   2.240   2.970   1.476 -1.8891 -0.3610  0.0666
  546SOL    HW2 1638   2.348   2.853   1.535 -0.0923  2.9770 -3.0706
  547SOL     OW 1639   1.508   2.469   2.332  0.2412  0.5112 -0.5021
  547SOL    HW1 1640   1.541   2.485   2.240 -1.8962 -0.5212  0.7493
  547SOL    HW2 1641   1.406   2.474   2.338  2.4916 -0.3056  1.5666
  548SOL     OW 1642   1.474   0.793   2.621 -0.0731  0.0180  0.2690
  548SOL    HW1 1643   1.439   0.805   2.713 -0.2487  1.9266 -2.0402
  548SOL    HW2 1644   1.472   0.694   2.593  0.2529 -1.3017 -0.2840
  549SOL     OW 1645   2.172   0.574   0.324  0.1159  0.3223 -0.1791
  549SOL    HW1 1646   2.083   0.545   0.280  0.3587 -1.0492 -0.5834
  549SOL    HW2 1647   2.176   0.530   0.417  1.6442  1.0881 -0.5840
  550SOL     OW 1648   2.341   1.403   0.281  0.5236  0.4738  0.0713
  550SOL    HW1 1649   2.379   1.476   0.335  0.3457 -3.4271 -2.8015
  550SOL    HW2 1650   2.252   1.377   0.317 -0.3037  0.0800 -1.7044
  551SOL     OW 1651   1.830   3.057   1.487  0.1027 -0.3088  0.0644
  551SOL    HW1 1652   1.867   0.067   1.518  0.6055  1.4101 -0.1058
  551SOL    HW2 1653   1.787   3.064   1.394  1.5138 -0.5743  0.3678
  552SOL     OW 1654   1.225   0.081   2.738 -0.2453 -0.4830  0.7630
  552SOL    HW1 1655   1.172   0.090   2.823  1.8878  2.1823 -0.6461
  552SOL    HW2 1656   1.325   0.091   2.746  0.1593 -0.3784  0.8086
  553SOL     OW 1657   0.712   2.610   2.042 -0.2238 -0.6412  0.6232
  553SOL    HW1 1658   0.754   2.663   2.117 -2.3872 -0.5318 -2.5808
  553SOL    HW2 1659   0.643   2.550   2.081 -3.1478  0.0307  0.5383
  554SOL     OW 1660   0.250   2.973   1.185 -0.4220  0.3089 -0.1597
  554SOL    HW1 1661   0.206   2.976   1.092  1.7483  1.0365 -1.3543
  554SOL    HW2 1662   0.293   2.883   1.212  2.7326 -1.5197  4.4919
  555SOL     OW 1663   2.534   1.476   2.282  0.5363 -0.5477  0.2274
  555SOL    HW1 1664   2.569   1.558   2.226  0.8030 -0.2583 -0.5373
  555SOL    HW2 1665   2.454   1.438   2.234 -0.4741 -1.0696 -0.2440
  556SOL     OW 1666   1.290   0.612   2.890 -0.2207 -0.3588 -0.4303
  556SOL    HW1 1667   1.352   0.694   2.889 -0.5653 -0.8304  0.4905
  556SOL    HW2 1668   1.291   0.557   2.978 -0.9605 -4.2589  0.2282
  557SOL     OW 1669   0.271   2.210   2.203  0.1984 -0.9827 -0.2985
  557SOL    HW1 1670   0.304   2.259   2.118  1.8959  1.3440 -1.1941
  557SOL    HW2 1671   0.201   2.145   2.181  1.4029 -0.9367  0.2649
  558SOL     OW 1672   2.005   0.865   2.888 -0.0589  0.2590 -0.0417
  558SOL    HW1 1673   1.968   0.773   2.877  2.4671  1.3727  0.1113
  558SOL    HW2 1674   2.014   0.910   2.796 -0.3481  1.5814 -0.1120
  559SOL     OW 1675   2.008   1.547   1.686 -0.1937 -0.1043 -0.0239
  559SOL    HW1 1676   1.951   1.561   1.601 -1.9191  2.2455 -1.4903
  559SOL    HW2 1677   2.021   1.450   1.698  0.9288  1.8140 -2.4921
  560SOL     OW 1678   1.637   0.729   1.979 -0.2772  1.0427 -0.5137
  560SOL    HW1 1679   1.535   0.748   1.957 -5.2106  0.5280  1.8942
  560SOL    HW2 1680   1.676   0.649   1.925  1.8932  1.0276 -3.0575
  561SOL     OW 1681   2.714   0.150   2.796  0.0250 -0.5937  0.4653
  561SOL    HW1 1682   2.662   0.073   2.836 -0.1629  1.8029 -0.7864
  561SOL    HW2 1683   2.791   0.105   2.745 -1.0204 -2.4505 -0.6215
  562SOL     OW 1684   1.312   1.635   1.476  0.1216 -0.4306  0.7989
  562SOL    HW1 1685   1.269   1.632   1.566  2.3688 -3.8092  1.5965
  562SOL    HW2 1686   1.249   1.674   1.407  1.3331  0.4084  0.4945
  563SOL     OW 1687   1.277   0.201   3.025  0.0691  0.7631 -0.1310
  563SOL    HW1 1688   1.184   0.158   3.032  0.5384 -2.5187 -0.1907
  563SOL    HW2 1689   1.347   0.136   2.991  1.1134  0.7569  0.9440
  564SOL     OW 1690   0.231   2.590   0.630  0.4646  0.5906 -0.0087
  564SOL    HW1 1691   0.150   2.616   0.683  0.0557 -1.6699  0.7603
  564SOL    HW2 1692   0.213   2.577   0.529  0.9744 -0.3897 -0.0470
  565SOL     OW 1693   0.703   2.528   1.172  0.2583 -0.3905 -0.3971
  565SOL    HW1 1694   0.797   2.562   1.193  0.0519 -1.4244 -1.0633
  565SOL    HW2 1695   0.707   2.449   1.109 -0.6608  1.6878 -0.1770
  566SOL     OW 1696   1.108   3.031   2.348 -0.3448 -0.1909 -0.4508
  566SOL    HW1 1697   1.061   0.041   2.325  1.2072  2.8500 -1.6697
  566SOL    HW2 1698   1.126   2.980   2.259 -2.2797 -0.4241 -1.5682
  567SOL     OW 1699   2.098   0.319   1.039  0.1798  0.0125 -0.2451
  567SOL    HW1 1700   2.069   0.366   0.956  1.0894 -2.5590  1.3852
  567SOL    HW2 1701   2.063   0.220   1.039 -0.5827 -0.6792 -0.0470
  568SOL     OW 1702   1.593   1.826   0.694 -0.1918  0.2389  0.2110
  568SOL    HW1 1703   1.633   1.755   0.636  0.0315 -0.6986 -0.0758
  568SOL    HW2 1704   1.579   1.916   0.647 -0.4628 -2.1425  1.7193
  569SOL     OW 1705   1.999   0.563   2.167  0.3137 -0.2224  0.1140
  569SOL    HW1 1706   2.024   0.522   2.077 -0.4066 -0.0089  2.1709
  569SOL    HW2 1707   1.912   0.523   2.198 -1.5040  1.6658 -1.5871
  570SOL     OW 1708   2.908   2.910   2.198 -0.5047 -0.0369  0.0914
  570SOL    HW1 1709   2.895   2.978   2.120 -0.4323 -0.0862  0.0036
  570SOL    HW2 1710   2.976   2.948   2.266  1.6638 -1.4450 -1.9610
  571SOL     OW 1711   0.489   0.045   1.227 -0.3517 -0.2389  0.5078
  571SOL    HW1 1712   0.477   0.060   1.324  3.2478 -1.4518  0.1694
  571SOL    HW2 1713   0.404   0.007   1.184 -2.2826 -0.7075 -0.5020
  572SOL     OW 1714   0.550   2.454   1.627  0.6078  0.1227  0.1615
  572SOL    HW1 1715   0.528   2.552   1.592 -0.1286  0.5460  2.4414
  572SOL    HW2 1716   0.618   2.458   1.702 -0.2478  3.3537 -1.7576
  573SOL     OW 1717   1.175   1.136   2.497  0.0943  0.4141 -0.1934
  573SOL    HW1 1718   1.142   1.233   2.502  0.9865  0.3858  1.2727
  573SOL    HW2 1719   1.123   1.067   2.560 -2.4998 -0.9137  1.0233
  574SOL     OW 1720   2.399   2.363   2.100  0.0825 -0.1058 -0.2435
  574SOL    HW1 1721   2.361   2.393   2.015  0.2095  0.3363  2.6081
  574SOL    HW2 1722   2.362   2.417   2.176 -0.2299 -0.2679  0.6889
  575SOL     OW 1723   1.227   0.103   0.631 -0.0693  0.2878  0.1051
  575SOL    HW1 1724   1.306   0.160   0.653 -1.9124 -1.7368 -0.0448
  575SOL    HW2 1725   1.229   0.065   0.535 -0.2233 -2.0196 -3.2240
  576SOL     OW 1726   1.273   0.529   0.897 -0.4038 -0.3501  0.0747
  576SOL    HW1 1727   1.254   0.528   0.798  1.0146  0.9780  2.4319
  576SOL    HW2 1728   1.322   0.445   0.927 -0.4987 -0.7924  4.0907
  577SOL     OW 1729   2.176   1.978   0.194  0.2688  0.3022  0.3597
  577SOL    HW1 1730   2.213   1.964   0.102 -0.4663 -1.3729  1.7321
  577SOL    HW2 1731   2.163   1.890   0.244 -1.5205  0.8698  0.1928
  578SOL     OW 1732   2.042   0.622   1.361 -0.4141 -0.4080 -0.1085
  578SOL    HW1 1733   2.140   0.610   1.328 -0.2303  2.5776 -0.7154
  578SOL    HW2 1734   2.020   0.722   1.370  0.2367  1.0588  1.0908
  579SOL     OW 1735   1.625   1.146   2.380  0.3923  0.0063  0.2377
  579SOL    HW1 1736   1.577   1.193   2.306  1.2089 -4.4377  0.9087
  579SOL    HW2 1737   1.728   1.155   2.374 -2.4030  0.8726  0.6938
  580SOL     OW 1738   1.243   1.107   1.600  0.4319  0.3795  0.1772
  580SOL    HW1 1739   1.281   1.053   1.519 -0.8305  4.3933 -1.7179
  580SOL    HW2 1740   1.146   1.080   1.616 -2.5861  2.0250 -1.3112
  581SOL     OW 1741   3.026   0.922   0.909 -0.0920  0.4934 -0.1649
  581SOL    HW1 1742   2.926   0.936   0.919  0.6839 -0.1515  1.6623
  581SOL    HW2 1743   3.068   0.954   0.996  0.8992 -0.3669 -1.5260
  582SOL     OW 1744   2.861   0.455   2.063  0.6074 -0.5665  0.2547
  582SOL    HW1 1745   2.765   0.480   2.035  2.7138 -0.7654 -0.1606
  582SOL    HW2 1746   2.903   0.533   2.118 -1.1354 -1.1414 -0.3536
  583SOL     OW 1747   2.803   1.023   2.588  0.2429  0.6531  0.4276
  583SOL    HW1 1748   2.759   1.060   2.510  1.8926 -0.6172  3.1727
  583SOL    HW2 1749   2.744   1.024   2.672 -0.7940 -0.3134 -0.6515
  584SOL     OW 1750   2.016   2.419   0.533 -0.8709  0.6433 -0.0575
  584SOL    HW1 1751   2.076   2.343   0.572  2.6792 -1.2256  1.1384
  584SOL    HW2 1752   2.055   2.455   0.448 -4.3213 -0.7170  1.2651
  585SOL     OW 1753   0.153   2.345   3.004 -0.3398  0.1774 -0.3303
  585SOL    HW1 1754   0.117   2.250   3.025 -3.6370  0.1143 -0.5272
  585SOL    HW2 1755   0.234   2.363   3.061  1.3176 -0.8183 -2.8536
  586SOL     OW 1756   2.010   1.722   2.329  0.2714  0.0837  0.0745
  586SOL    HW1 1757   1.984   1.746   2.234 -0.1873  0.3355 -0.4445
  586SOL    HW2 1758   2.091   1.776   2.363 -0.7478 -0.5747 -1.3609
  587SOL     OW 1759   2.214   1.519   2.756 -0.1394 -0.3626  0.0092
  587SOL    HW1 1760   2.314   1.523   2.744  1.6748  0.7663 -0.7950
  587SOL    HW2 1761   2.179   1.462   2.835 -2.1461 -1.0985 -1.9923
  588SOL     OW 1762   2.498   2.950   1.257 -0.4214  0.0870  0.2785
  588SOL    HW1 1763   2.430   2.943   1.331 -1.2279  2.3115 -3.2181
  588SOL    HW2 1764   2.590   2.957   1.305 -3.3205  1.7323 -0.9600
  589SOL     OW 1765   0.589   0.274   0.673 -0.7998 -0.0215 -0.3662
  589SOL    HW1 1766   0.526   0.259   0.593  1.9584  0.0990  1.1556
  589SOL    HW2 1767   0.545   0.327   0.746 -1.0584  0.1107  3.5080
  590SOL     OW 1768   2.437   2.265   1.090 -0.6353  0.0383  0.2728
  590SOL    HW1 1769   2.344   2.239   1.062 -2.5685 -1.3702  1.9765
  590SOL    HW2 1770   2.432   2.299   1.185  1.3017  1.4485  0.2292
  591SOL     OW 1771   1.172   2.412   1.148  0.5614  0.1055  0.1677
  591SOL    HW1 1772   1.239   2.348   1.184 -2.4756  1.2297 -2.1735
  591SOL    HW2 1773   1.191   2.441   1.055  1.4288 -1.7403 -0.9877
  592SOL     OW 1774   1.148   1.213   1.233  0.4433  0.5864 -0.3353
  592SOL    HW1 1775   1.095   1.124   1.209 -1.3330 -1.8819 -1.7992
  592SOL    HW2 1776   1.249   1.197   1.235  2.1795 -1.4031  0.2381
  593SOL     OW 1777   0.957   2.692   1.517 -0.3169  0.2208  0.5762
  593SOL    HW1 1778   0.998   2.775   1.563 -0.0939  0.1181 -0.8997
  593SOL    HW2 1779   1.009   2.654   1.436 -0.6299  1.0929 -2.1308
  594SOL     OW 1780   0.808   1.654   2.971  0.0670  0.2788 -0.0789
  594SOL    HW1 1781   0.708   1.664   2.969  0.9888 -1.9606 -0.3312
  594SOL    HW2 1782   0.845   1.656   3.069  0.8352  0.2142 -0.7270
  595SOL     OW 1783   1.469   1.378   1.442 -0.7330  0.2427  0.1040
  595SOL    HW1 1784   1.508   1.374   1.537  1.9054  0.3109  2.3450
  595SOL    HW2 1785   1.398   1.450   1.432 -1.0740 -1.8244  1.5538
  596SOL     OW 1786   2.820   1.216   2.134  0.1324 -0.1142  0.4166
  596SOL    HW1 1787   2.764   1.218   2.047  1.3852 -0.7750  1.3945
  596SOL    HW2 1788   2.880   1.301   2.137  3.5306  1.7947 -1.0663
  597SOL     OW 1789   1.455   2.347   1.680  0.4319 -0.2409 -0.0142
  597SOL    HW1 1790   1.397   2.406   1.622  2.8196  1.1934  0.7769
  597SOL    HW2 1791   1.522   2.294   1.622  0.8136 -0.3456  0.4911
  598SOL     OW 1792   2.365   1.507   1.314 -0.0353  0.1635  0.0454
  598SOL    HW1 1793   2.351   1.439   1.395 -0.5984  2.5969  2.6449
  598SOL    HW2 1794   2.306   1.479   1.233 -1.1093 -1.1512 -0.6917
  599SOL     OW 1795   0.826   2.661   2.784 -0.3354 -0.3050  0.1561
  599SOL    HW1 1796   0.918   2.703   2.805 -1.0757  1.1077 -0.0834
  599SOL    HW2 1797   0.775   2.622   2.859  0.5146  2.2528 -1.2912
  600SOL     OW 1798   0.004   2.312   0.250 -0.9889 -0.2770 -0.1643
  600SOL    HW1 1799   3.030   2.326   0.334 -0.6322 -0.3164  1.6359
  600SOL    HW2 1800   3.028   2.289   0.172  1.0935 -0.1885 -1.3863
  601SOL     OW 1801   0.485   0.740   1.350  0.3466  0.0017  0.2443
  601SOL    HW1 1802   0.556   0.790   1.397  3.3505  0.2016  0.0254
  601SOL    HW2 1803   0.453   0.655   1.400  2.6679 -0.0492 -0.0113
  602SOL     OW 1804   0.685   0.232   1.218  0.1157 -0.1872 -0.5672
  602SOL    HW1 1805   0.607   0.165   1.239  1.2675 -1.3382 -0.2729
  602SOL    HW2 1806   0.683   0.261   1.122 -0.6496 -1.0748 -1.5600
  603SOL     OW 1807   0.189   2.995   2.800 -0.0046 -0.4746 -0.3906
  603SOL    HW1 1808   0.209   2.897   2.796 -0.9639  1.9451 -1.7650
  603SOL    HW2 1809   0.098   3.016   2.851  0.1556  1.8702  4.7423
  604SOL     OW 1810   1.759   0.045   1.892  0.0600  0.3761 -0.4213
  604SOL    HW1 1811   1.693   0.046   1.816 -0.3265 -0.5136  0.2774
  604SOL    HW2 1812   1.778   3.031   1.930  1.5301  0.2967 -0.8818
  605SOL     OW 1813   1.375   1.522   1.901 -0.5244 -0.4459 -0.3816
  605SOL    HW1 1814   1.422   1.570   1.986  0.8704  2.1608  1.3764
  605SOL    HW2 1815   1.315   1.591   1.861 -0.9189 -0.2793 -1.5567
  606SOL     OW 1816   1.989   2.706   3.027  0.5851  0.5409 -0.1590
  606SOL    HW1 1817   2.028   2.622   2.983 -1.5376  0.5731 -1.6632
  606SOL    HW2 1818   2.006   2.788   2.967 -0.3390 -0.3363  0.1863
  607SOL     OW 1819   0.735   0.064   2.343  0.0197  0.8643 -0.0213
  607SOL    HW1 1820   0.704   0.026   2.433 -0.2172  1.1884 -0.9676
  607SOL    HW2 1821   0.817   0.126   2.355 -0.2168  1.5520 -0.5322
  608SOL     OW 1822   2.895   2.394   2.145  0.1403  0.2445  0.1785
  608SOL    HW1 1823   2.875   2.477   2.195  2.9733 -2.1158 -2.7974
  608SOL    HW2 1824   2.881   2.306   2.203 -0.4536 -1.2865  1.3277
  609SOL     OW 1825   0.705   1.133   2.915  0.0891  0.7628 -0.2748
  609SOL    HW1 1826   0.758   1.217   2.936 -0.9245  0.5298 -1.4831
  609SOL    HW2 1827   0.752   1.069   2.852 -2.3783  1.4044  0.2855
  610SOL     OW 1828   0.628   2.631   0.930  0.8142  0.0181  0.1906
  610SOL    HW1 1829   0.700   2.688   0.878 -0.5074  1.3157 -1.0686
  610SOL    HW2 1830   0.645   2.607   1.028  0.5525 -2.4512 -1.9958
  611SOL     OW 1831   1.146   1.496   0.720  0.0324  0.3249  0.4436
  611SOL    HW1 1832   1.134   1.394   0.728  0.3011  0.5148  0.1292
  611SOL    HW2 1833   1.082   1.515   0.646 -0.6200 -1.1103  1.7793
  612SOL     OW 1834   2.255   1.939   0.625 -0.1952 -0.0578 -0.0982
  612SOL    HW1 1835   2.183   1.874   0.646 -0.0605  3.6331  0.5519
  612SOL    HW2 1836   2.318   1.948   0.704  1.7897  0.7214  0.5206
  613SOL     OW 1837   1.670   1.648   0.490 -0.3912  0.7274 -0.2476
  613SOL    HW1 1838   1.748   1.674   0.425 -0.2549  1.3761 -0.4295
  613SOL    HW2 1839   1.577   1.666   0.445 -2.3820 -0.4070 -1.6188
  614SOL     OW 1840   2.672   0.394   2.643 -0.0133 -0.3759  0.1028
  614SOL    HW1 1841   2.715   0.314   2.689  0.7880 -2.0978  0.0517
  614SOL    HW2 1842   2.586   0.367   2.595  0.0575  0.5416 -0.9675
  615SOL     OW 1843   0.500   0.983   0.419  0.3697 -0.4173 -0.4993
  615SOL    HW1 1844   0.550   0.944   0.337  2.2581  1.7996 -0.5349
  615SOL    HW2 1845   0.552   0.980   0.506  2.3371 -0.9648 -0.5461
  616SOL     OW 1846   1.475   1.146   2.601  0.3596  0.0646 -0.0899
  616SOL    HW1 1847   1.379   1.129   2.570 -1.1644 -0.4347  1.0350
  616SOL    HW2 1848   1.544   1.142   2.522  0.3478  0.1772  3.2263
  617SOL     OW 1849   1.316   0.810   0.210 -0.5188 -0.6399 -0.3583
  617SOL    HW1 1850   1.227   0.765   0.188  1.3326 -0.5240  0.5319
  617SOL    HW2 1851   1.397   0.756   0.173  0.5005 -1.7623 -0.6178
  618SOL     OW 1852   2.950   1.945   1.871 -0.0191  0.1477 -0.1960
  618SOL    HW1 1853   3.050   1.957   1.885 -1.0150  0.5036 -5.6988
  618SOL    HW2 1854   2.907   1.908   1.956  0.4087  2.3516 -2.3973
  619SOL     OW 1855   2.627   1.997   0.771 -0.1481  0.4551 -0.6357
  619SOL    HW1 1856   2.656   1.927   0.698  0.1641 -2.0142  1.0011
  619SOL    HW2 1857   2.664   2.091   0.756  0.8737 -1.7469  1.7492
  620SOL     OW 1858   2.703   0.192   1.279  0.3521 -0.3730 -0.4613
  620SOL    HW1 1859   2.753   0.111   1.317 -0.1192 -1.1553  0.7836
  620SOL    HW2 1860   2.638   0.165   1.203 -0.5032 -2.1181 -1.7806
  621SOL     OW 1861   0.549   1.747   0.754  0.5612  0.8273  0.2742
  621SOL    HW1 1862   0.538   1.648   0.776 -0.1810  0.0999 -1.1583
  621SOL    HW2 1863   0.565   1.748   0.651 -0.8215 -1.2884  1.0584
  622SOL     OW 1864   0.622   1.755   1.786  0.5997 -0.1457 -0.1691
  622SOL    HW1 1865   0.590   1.784   1.878 -3.4342  1.3573  0.8455
  622SOL    HW2 1866   0.716   1.711   1.789  1.1588  0.3876  2.5082
  623SOL     OW 1867   2.280   2.783   2.193  0.3427 -0.1020 -0.3864
  623SOL    HW1 1868   2.351   2.790   2.121  1.2859  0.7659 -3.3843
  623SOL    HW2 1869   2.287   2.854   2.270  0.8695  0.5146 -1.4878
  624SOL     OW 1870   0.562   1.954   0.184  0.6649 -0.1665  0.1658
  624SOL    HW1 1871   0.512   2.033   0.136 -1.7795  2.2440 -0.6206
  624SOL    HW2 1872   0.638   1.926   0.124 -1.6153 -0.7172  1.2813
  625SOL     OW 1873   0.662   1.910   2.173  0.0798  0.0356  0.1100
  625SOL    HW1 1874   0.739   1.930   2.236  0.7177  0.0225  1.4756
  625SOL    HW2 1875   0.636   1.809   2.172 -2.4975 -2.1025  0.2397
  626SOL     OW 1876   0.115   2.726   3.030 -0.2307 -0.1763 -0.3981
  626SOL    HW1 1877   0.192   2.670   3.068  0.5474 -0.4574  1.3624
  626SOL    HW2 1878   0.124   2.730   2.928  1.6892  0.2648  0.9323
  627SOL     OW 1879   1.655   1.638   2.354 -0.2258  0.3247 -0.1540
  627SOL    HW1 1880   1.664   1.588   2.262 -0.8642  0.7152 -1.7719
  627SOL    HW2 1881   1.691   1.579   2.425 -0.3810  1.7695 -1.3555
  628SOL     OW 1882   1.159   2.244   0.399  0.3884 -0.3002  0.3829
  628SOL    HW1 1883   1.126   2.244   0.496 -1.6519  1.1933  1.5279
  628SOL    HW2 1884   1.115   2.315   0.342 -1.4091  0.7565  2.5404
  629SOL     OW 1885   0.931   0.980   2.195 -0.0494 -0.1425  0.3752
  629SOL    HW1 1886   0.907   1.039   2.276 -0.3944  2.0578  1.3490
  629SOL    HW2 1887   1.020   1.004   2.156 -0.9639  0.9963 -1.3758
  630SOL     OW 1888   2.805   2.501   1.573  0.1016  0.3650  0.7391
  630SOL    HW1 1889   2.759   2.580   1.522  3.8748 -1.0587  0.1587
  630SOL    HW2 1890   2.838   2.538   1.662 -0.2274  0.2040 -0.9052
  631SOL     OW 1891   1.396   0.820   0.794 -0.0390  0.1073  0.6792
  631SOL    HW1 1892   1.375   0.772   0.701  1.7424 -3.9270 -1.1762
  631SOL    HW2 1893   1.314   0.862   0.828  0.5284  0.5778  1.5810
  632SOL     OW 1894   2.290   0.500   2.196  0.2166  0.3659  0.0357
  632SOL    HW1 1895   2.364   0.521   2.260  0.6297 -0.4806 -0.8180
  632SOL    HW2 1896   2.197   0.530   2.226  0.8469 -0.5176  0.8817
  633SOL     OW 1897   1.921   1.348   0.277  0.0673  0.0367 -0.2570
  633SOL    HW1 1898   1.871   1.349   0.367 -1.0027 -1.4991  0.9745
  633SOL    HW2 1899   1.859   1.347   0.191  0.5680 -1.3331 -0.3605
  634SOL     OW 1900   0.304   1.934   0.217  0.3931  0.6948 -0.1758
  634SOL    HW1 1901   0.404   1.940   0.208 -2.2932 -0.7819  0.8062
  634SOL    HW2 1902   0.262   1.903   0.133 -1.9434  1.2506 -0.6048
  635SOL     OW 1903   2.785   1.677   2.302  0.2822 -0.5405  0.0795
  635SOL    HW1 1904   2.809   1.590   2.345  4.3409  1.3120 -2.3300
  635SOL    HW2 1905   2.720   1.666   2.225 -0.9779  0.6384  0.7145
  636SOL     OW 1906   0.354   1.620   2.373  0.8699  0.4157  0.2587
  636SOL    HW1 1907   0.361   1.573   2.465  1.3777 -0.5300 -1.6193
  636SOL    HW2 1908   0.411   1.704   2.382  0.6554 -0.5441 -0.1394
  637SOL     OW 1909   0.146   2.097   0.373  0.5240 -0.2061  0.5680
  637SOL    HW1 1910   0.222   2.045   0.325  1.5070  0.3457 -1.2721
  637SOL    HW2 1911   0.094   2.160   0.311 -0.2156 -0.1177 -0.3007
  638SOL     OW 1912   2.393   2.284   0.757  0.0698  0.1284  0.6833
  638SOL    HW1 1913   2.366   2.380   0.765  2.5201  2.0440  0.7141
  638SOL    HW2 1914   2.331   2.237   0.689 -1.2841  0.0673  0.0707
  639SOL     OW 1915   1.079   0.673   0.165 -0.1514  0.3669  0.1711
  639SOL    HW1 1916   0.985   0.644   0.190  0.1851 -1.1370 -0.6301
  639SOL    HW2 1917   1.132   0.594   0.126  0.3404 -0.4717 -1.9589
  640SOL     OW 1918   2.225   2.249   1.714  0.7179  0.1577  0.6486
  640SOL    HW1 1919   2.315   2.284   1.740 -0.7378  0.5829 -1.0912
  640SOL    HW2 1920   2.232   2.213   1.620 -0.2718  1.4459  0.0904
  641SOL     OW 1921   2.764   2.921   1.353  0.5599 -0.0514 -0.8347
  641SOL    HW1 1922   2.811   2.925   1.445  1.3227  0.8965 -1.4791
  641SOL    HW2 1923   2.831   2.906   1.281  0.2045 -1.6042  2.7350
  642SOL     OW 1924   0.838   1.102   1.446 -0.4157  0.1469  0.0657
  642SOL    HW1 1925   0.870   1.061   1.354 -0.4560  1.2518 -3.4853
  642SOL    HW2 1926   0.866   1.199   1.441  1.0278 -1.4672  0.2384
  643SOL     OW 1927   0.548   1.171   2.122  0.3137 -0.0715 -0.5801
  643SOL    HW1 1928   0.501   1.179   2.213  1.5959 -0.3782 -1.2113
  643SOL    HW2 1929   0.519   1.252   2.062  0.8304  0.4598 -2.8271
  644SOL     OW 1930   0.970   0.179   2.245  0.1561 -0.2457  0.1636
  644SOL    HW1 1931   0.970   0.280   2.216  0.4096  1.7227 -0.6150
  644SOL    HW2 1932   0.942   0.119   2.163 -1.7914 -2.2860 -1.1109
  645SOL     OW 1933   2.107   1.219   1.401  0.9552  0.0888 -0.0672
  645SOL    HW1 1934   2.198   1.174   1.403 -0.4913  1.5576 -2.0890
  645SOL    HW2 1935   2.075   1.239   1.308 -0.8482 -1.0361  0.4640
  646SOL     OW 1936   1.430   2.520   0.315 -0.3350 -0.0129 -0.5369
  646SOL    HW1 1937   1.492   2.508   0.233 -1.6589  1.1398  0.6227
  646SOL    HW2 1938   1.429   2.434   0.370 -0.4971  2.9616 -1.1681
  647SOL     OW 1939   1.692   2.753   0.783 -0.1946 -0.2380 -0.3054
  647SOL    HW1 1940   1.773   2.694   0.812  0.5973 -2.2885  0.2432
  647SOL    HW2 1941   1.672   2.743   0.685 -1.7333 -0.1639 -0.5952
  648SOL     OW 1942   0.370   2.721   1.187 -0.4400 -0.4410 -0.7448
  648SOL    HW1 1943   0.335   2.645   1.126  1.5516 -0.9522  0.9292
  648SOL    HW2 1944   0.470   2.725   1.171 -1.0114 -1.6698 -0.7697
  649SOL     OW 1945   1.012   2.365   0.193  0.2504  0.3578  0.4659
  649SOL    HW1 1946   1.057   2.348   0.101 -1.6880 -0.2908  0.9171
  649SOL    HW2 1947   0.955   2.284   0.223  0.8831  0.5001  1.6227
  650SOL     OW 1948   2.509   1.283   0.099 -0.4416 -0.0496 -0.0349
  650SOL    HW1 1949   2.607   1.301   0.132  0.1878  0.2241  1.3507
  650SOL    HW2 1950   2.447   1.338   0.159  1.8071  1.0297  2.6549
  651SOL     OW 1951   2.609   2.226   2.220  0.4467 -0.0928 -0.2833
  651SOL    HW1 1952   2.540   2.282   2.166  1.6120  1.8129 -0.8112
  651SOL    HW2 1953   2.622   2.260   2.314  0.5624 -1.0490  1.0980
  652SOL     OW 1954   2.714   2.300   0.479  0.5384 -0.1711 -1.1868
  652SOL    HW1 1955   2.680   2.292   0.575 -1.4904 -0.1264 -1.0270
  652SOL    HW2 1956   2.814   2.325   0.476  2.1162  2.2377  1.2696
  653SOL     OW 1957   2.741   1.676   1.359 -0.2325 -0.5663 -0.2062
  653SOL    HW1 1958   2.762   1.763   1.413 -0.6475 -0.2405  0.2702
  653SOL    HW2 1959   2.722   1.597   1.420  2.2794  0.1207 -2.2890
  654SOL     OW 1960   1.084   1.198   0.027 -0.1076  0.5047 -0.6874
  654SOL    HW1 1961   1.061   1.101   0.051  1.2037 -0.3987 -3.1439
  654SOL    HW2 1962   1.008   1.229   3.051 -3.0058 -1.1761  0.3889
  655SOL     OW 1963   1.413   1.455   0.668  0.2991  0.2043 -0.1169
  655SOL    HW1 1964   1.320   1.481   0.706 -2.0308 -0.1385 -1.2412
  655SOL    HW2 1965   1.398   1.439   0.566  0.5223 -0.0868 -1.5283
  656SOL     OW 1966   1.358   2.352   2.889 -0.3830 -0.0889 -0.6926
  656SOL    HW1 1967   1.450   2.389   2.874 -1.1083  1.2477 -1.0283
  656SOL    HW2 1968   1.315   2.339   2.801  3.4080 -2.5319  2.6635
  657SOL     OW 1969   2.165   1.405   0.672 -0.7310  0.7116  0.7661
  657SOL    HW1 1970   2.120   1.313   0.659  0.3142 -1.8279 -0.7496
  657SOL    HW2 1971   2.258   1.381   0.709  1.1865 -3.3027 -0.8540
  658SOL     OW 1972   2.125   2.882   1.851  0.2498 -0.0030 -0.1415
  658SOL    HW1 1973   2.105   2.788   1.876  0.4786  1.8315  0.1277
  658SOL    HW2 1974   2.104   2.901   1.754 -3.3971  1.6359  1.6045
  659SOL     OW 1975   2.811   1.530   0.566  0.3237 -0.5586  0.3079
  659SOL    HW1 1976   2.870   1.451   0.597 -0.0769 -2.7980  2.3726
  659SOL    HW2 1977   2.711   1.513   0.573 -3.1663 -1.6286  0.0457
  660SOL     OW 1978   1.342   0.737   0.534  0.2352  0.3175 -0.4646
  660SOL    HW1 1979   1.277   0.787   0.475  1.6555 -0.5027 -0.8216
  660SOL    HW2 1980   1.407   0.688   0.474 -1.8958  1.0690 -0.0273
  661SOL     OW 1981   1.557   0.694   0.106 -0.9572  0.4008 -0.0248
  661SOL    HW1 1982   1.573   0.602   0.066  0.7763 -0.8614  3.0414
  661SOL    HW2 1983   1.642   0.742   0.086 -3.0302 -2.4558  0.9496
  662SOL     OW 1984   0.530   0.208   0.269  0.3906  0.2872  0.1669
  662SOL    HW1 1985   0.538   0.133   0.202  0.8565  1.1009 -0.9475
  662SOL    HW2 1986   0.625   0.242   0.299  1.2745  0.1135  0.6958
  663SOL     OW 1987   1.078   2.620   3.069  0.3291  0.4646  0.2659
  663SOL    HW1 1988   1.153   2.612   0.060  2.1050  1.5355 -1.6052
  663SOL    HW2 1989   1.113   2.586   2.979 -0.0289 -0.1098  2.0239
  664SOL     OW 1990   0.660   2.885   1.185  0.0221  0.5370  0.0800
  664SOL    HW1 1991   0.629   2.983   1.194  2.2203  2.7942  0.9025
  664SOL    HW2 1992   0.673   2.834   1.274 -1.0560 -2.4652 -0.4352
  665SOL     OW 1993   1.560   0.095   0.883 -0.3730  0.1395 -0.0399
  665SOL    HW1 1994   1.465   0.123   0.914 -0.9364 -0.7163 -1.3765
  665SOL    HW2 1995   1.608   0.169   0.838 -0.6996 -2.0061  0.4693
  666SOL     OW 1996   0.907   2.425   2.741 -0.0986 -0.4463  0.1397
  666SOL    HW1 1997   0.853   2.347   2.777  0.3961 -0.8138 -0.6869
  666SOL    HW2 1998   0.850   2.511   2.741 -2.3586  0.0974 -0.1900
  667SOL     OW 1999   2.835   0.361   1.553 -0.1899  0.1917 -0.0872
  667SOL    HW1 2000   2.864   0.427   1.624 -0.1833 -0.0402 -1.0645
  667SOL    HW2 2001   2.748   0.385   1.508  0.0069 -0.5320 -0.1766
  668SOL     OW 2002   0.483   0.104   1.783 -0.5103  0.5122  0.0884
  668SOL    HW1 2003   0.577   0.131   1.812 -0.3134  0.3697 -1.3710
  668SOL    HW2 2004   0.454   0.011   1.823  0.5313 -0.3410 -0.7281
  669SOL     OW 2005   1.492   2.996   1.187 -0.1289  0.4799 -0.2348
  669SOL    HW1 2006   1.394   3.011   1.180 -1.6273  2.2819  0.2826
  669SOL    HW2 2007   1.520   2.935   1.110  1.6951 -1.4608 -0.4204
  670SOL     OW 2008   1.502   2.483   0.043  0.3884 -0.4404  0.3585
  670SOL    HW1 2009   1.434   2.413   0.008 -3.4602 -2.4661 -1.1810
  670SOL    HW2 2010   1.597   2.452   0.023  1.3206 -1.9985 -0.5115
  671SOL     OW 2011   0.451   1.197   2.812  0.1209  0.8279  0.0921
  671SOL    HW1 2012   0.365   1.149   2.783  0.2647 -1.6353 -0.6253
  671SOL    HW2 2013   0.524   1.128   2.835  1.6126 -0.4462  1.4289
  672SOL     OW 2014   1.976   0.534   2.586 -0.0338 -0.0919  0.2560
  672SOL    HW1 2015   2.078   0.529   2.599 -0.2092 -1.9509  0.6368
  672SOL    HW2 2016   1.950   0.606   2.519  0.0578  0.3245  3.1209
  673SOL     OW 2017   0.151   1.895   0.971 -0.0153  0.3576 -1.0294
  673SOL    HW1 2018   0.081   1.955   1.010  4.5128  1.1068  0.1118
  673SOL    HW2 2019   0.148   1.801   1.012 -1.0981 -2.1563  1.0398
  674SOL     OW 2020   1.745   2.058   1.840 -0.2670  0.5888  0.0732
  674SOL    HW1 2021   1.705   2.105   1.916  3.2985 -1.6700 -2.8420
  674SOL    HW2 2022   1.835   2.106   1.822  4.0174  1.7012  0.1061
  675SOL     OW 2023   1.205   1.677   1.041  0.1657 -0.2305  0.2141
  675SOL    HW1 2024   1.274   1.673   0.967 -2.7779 -0.6202  2.1500
  675SOL    HW2 2025   1.175   1.583   1.061 -1.1774  2.7481  0.9670
  676SOL     OW 2026   2.169   0.700   1.022  0.3483  0.0571  0.0067
  676SOL    HW1 2027   2.214   0.740   0.942 -0.3056  1.6840  1.1986
  676SOL    HW2 2028   2.231   0.667   1.093 -3.2953  0.2036 -0.9400
  677SOL     OW 2029   2.385   0.179   0.415  0.2744  0.2986  0.2215
  677SOL    HW1 2030   2.457   0.158   0.488 -0.2830 -1.4905  0.0546
  677SOL    HW2 2031   2.427   0.210   0.329  1.7381 -0.8224  0.2592
  678SOL     OW 2032   2.451   1.251   1.066 -0.2227 -0.0721  0.8273
  678SOL    HW1 2033   2.516   1.282   1.139  1.4175 -1.0996  2.4250
  678SOL    HW2 2034   2.419   1.157   1.094  1.1682 -2.5652  0.7966
  679SOL     OW 2035   2.523   0.250   0.206 -0.2344  0.0399  0.3690
  679SOL    HW1 2036   2.537   0.350   0.195 -2.0606 -2.6169  0.9954
  679SOL    HW2 2037   2.614   0.202   0.204  1.4034  1.9380  1.1386
  680SOL     OW 2038   0.517   1.653   2.127  0.4750  0.2413 -0.5309
  680SOL    HW1 2039   0.577   1.578   2.095 -0.4492  0.5114 -0.1659
  680SOL    HW2 2040   0.473   1.637   2.216 -4.0419  2.3759 -0.2806
  681SOL     OW 2041   2.484   2.406   1.545  0.6658 -0.5119 -0.5480
  681SOL    HW1 2042   2.461   2.369   1.640 -1.2514 -0.3385 -0.7313
  681SOL    HW2 2043   2.582   2.395   1.525  0.8093 -1.5284 -2.0220
  682SOL     OW 2044   0.495   1.832   2.476 -0.1759 -0.8812 -0.7463
  682SOL    HW1 2045   0.489   1.922   2.431  0.7619  0.3759 -0.8704
  682SOL    HW2 2046   0.493   1.839   2.579  1.6133 -0.8664 -1.0661
  683SOL     OW 2047   2.993   1.894   1.361 -0.8055  0.9270 -0.0830
  683SOL    HW1 2048   3.013   1.818   1.430  0.2922 -2.5401 -0.7793
  683SOL    HW2 2049   2.900   1.938   1.375  1.0211 -0.4195 -0.6131
  684SOL     OW 2050   2.846   1.766   1.669  0.2754  0.5735 -0.6920
  684SOL    HW1 2051   2.880   1.829   1.742 -0.3312  3.0388  0.7829
  684SOL    HW2 2052   2.921   1.725   1.614  0.8460  1.3459 -0.7429
  685SOL     OW 2053   0.590   0.832   1.119 -0.0230  0.0884  0.4782
  685SOL    HW1 2054   0.562   0.774   1.199  2.2819  0.9542  0.0597
  685SOL    HW2 2055   0.689   0.825   1.097  1.3390 -0.6038 -0.5424
  686SOL     OW 2056   0.154   0.030   2.567  1.1647 -0.0496  0.3609
  686SOL    HW1 2057   0.247   0.064   2.550  1.4149  2.3220  0.4399
  686SOL    HW2 2058   0.150   3.070   2.660 -0.5947  1.7995  0.3533
  687SOL     OW 2059   0.544   2.060   1.957  0.2491  0.6106  0.6903
  687SOL    HW1 2060   0.619   2.101   1.894  0.8971  2.5083 -0.4717
  687SOL    HW2 2061   0.586   2.021   2.040 -1.5331  1.3114 -1.1141
  688SOL     OW 2062   2.308   0.337   1.821 -0.4760  0.0501 -0.4293
  688SOL    HW1 2063   2.355   0.257   1.788  0.2636  0.3805 -0.1143
  688SOL    HW2 2064   2.274   0.405   1.754 -2.6979 -2.7237 -0.7796
  689SOL     OW 2065   2.286   0.869   0.815 -0.0858 -0.6309 -0.1700
  689SOL    HW1 2066   2.382   0.858   0.806 -2.1348  2.9371 -0.4932
  689SOL    HW2 2067   2.245   0.879   0.721 -2.2693 -1.1732 -0.4819
  690SOL     OW 2068   2.538   0.685   1.260 -0.0825 -0.1846 -0.4837
  690SOL    HW1 2069   2.589   0.604   1.294 -2.4646  1.3968 -2.1317
  690SOL    HW2 2070   2.536   0.754   1.341 -2.6391  0.1837  4.1437
  691SOL     OW 2071   0.484   1.124   1.676 -0.4093 -0.0216 -0.1204
  691SOL    HW1 2072   0.458   1.219   1.650  1.5734 -0.6553 -1.2526
  691SOL    HW2 2073   0.560   1.120   1.747  0.5550  0.7894  1.8918
  692SOL     OW 2074   0.724   1.327   1.783  0.5067 -0.1772  0.1974
  692SOL    HW1 2075   0.821   1.364   1.772  0.9868  2.5082 -1.6361
  692SOL    HW2 2076   0.725   1.230   1.799  1.2385  1.5768 -1.4744
  693SOL     OW 2077   0.589   0.695   1.820 -0.0470 -0.0961 -0.3034
  693SOL    HW1 2078   0.608   0.687   1.923 -0.2442 -4.6074  0.7157
  693SOL    HW2 2079   0.498   0.740   1.805 -0.8716 -2.2605  2.0397
  694SOL     OW 2080   1.395   2.028   1.168 -0.3271 -0.0085  1.2412
  694SOL    HW1 2081   1.315   1.968   1.197  0.1878 -1.5066 -0.0054
  694SOL    HW2 2082   1.457   1.981   1.101 -0.5266 -0.7285 -0.6784
  695SOL     OW 2083   2.882   0.594   1.140 -0.2889  0.0177  0.5243
  695SOL    HW1 2084   2.866   0.596   1.039 -1.1630 -0.6640  1.5838
  695SOL    HW2 2085   2.955   0.665   1.168  2.9222 -0.7544 -1.1451
  696SOL     OW 2086   0.634   2.219   0.492  0.5963  0.0161  0.2870
  696SOL    HW1 2087   0.649   2.315   0.460 -1.2612  1.1750 -0.5002
  696SOL    HW2 2088   0.580   2.216   0.581 -0.2283 -1.1279 -0.1251
  697SOL     OW 2089   1.661   0.980   1.532  0.3436 -0.4214  0.3412
  697SOL    HW1 2090   1.713   1.055   1.480  2.3807  1.1889 -1.4895
  697SOL    HW2 2091   1.672   0.978   1.636 -1.1616 -1.7921  0.7566
  698SOL     OW 2092   1.837   1.587   1.505 -0.4100  0.3479 -0.0505
  698SOL    HW1 2093   1.751   1.627   1.547 -3.6832  0.7500 -0.1788
  698SOL    HW2 2094   1.852   1.633   1.416 -2.2917  2.3533 -0.4452
  699SOL     OW 2095   0.131   0.702   2.464 -0.0841  0.5500 -0.0834
  699SOL    HW1 2096   0.039   0.738   2.456  4.8268  1.9380  2.6768
  699SOL    HW2 2097   0.158   0.671   2.554  0.9445 -0.8903  1.3520
  700SOL     OW 2098   1.605   2.452   0.658  0.3108  0.4458  0.0531
  700SOL    HW1 2099   1.650   2.421   0.743 -0.6828  1.5580 -1.4389
  700SOL    HW2 2100   1.517   2.402   0.634 -2.1136 -0.2515 -0.6835
  701SOL     OW 2101   3.027   1.403   2.124  0.0227  0.4001  0.0720
  701SOL    HW1 2102   0.003   1.447   2.197  1.7612 -1.0667 -1.4201
  701SOL    HW2 2103   3.044   1.439   2.029 -0.2901 -2.4362 -0.2151
  702SOL     OW 2104   0.583   0.130   2.781 -0.3874  0.5436  0.0522
  702SOL    HW1 2105   0.667   0.087   2.824  0.6347 -0.5565  1.7686
  702SOL    HW2 2106   0.595   0.188   2.699  2.1673  4.4568 -1.7075
  703SOL     OW 2107   1.886   0.590   2.820  0.3888  0.0518 -0.0168
  703SOL    HW1 2108   1.903   0.519   2.892  0.0293  0.7251 -0.4781
  703SOL    HW2 2109   1.936   0.573   2.731  1.4354 -0.9551  0.8806
  704SOL     OW 2110   2.887   1.233   1.140 -0.2527 -0.1999  0.6884
  704SOL    HW1 2111   2.921   1.274   1.050  0.4498  1.1187  1.0080
  704SOL    HW2 2112   2.798   1.281   1.157 -1.4359 -1.0707  0.6439
  705SOL     OW 2113   2.436   1.808   1.889  0.0632 -0.4889  0.1229
  705SOL    HW1 2114   2.376   1.810   1.975 -1.9615 -0.3822  0.9229
  705SOL    HW2 2115   2.383   1.748   1.822 -0.7392  0.7821 -1.2412
  706SOL     OW 2116   0.025   2.506   0.950  0.0851  0.2102  0.1745
  706SOL    HW1 2117   0.120   2.507   0.990  0.8787 -1.0749  2.6011
  706SOL    HW2 2118   0.020   2.444   0.871  4.0086  0.1418 -1.6494
  707SOL     OW 2119   1.019   2.949   0.206 -0.1623  0.0085  0.3460
  707SOL    HW1 2120   0.949   3.022   0.189 -1.1445  0.5194  1.1853
  707SOL    HW2 2121   0.977   2.858   0.202  0.0913  0.9986  0.6787
  708SOL     OW 2122   0.678   2.120   1.539  0.1340  0.1571 -0.0362
  708SOL    HW1 2123   0.652   2.191   1.467  1.5787  0.2944 -2.7333
  708SOL    HW2 2124   0.596   2.074   1.576 -0.4031 -1.1328  0.2169
  709SOL     OW 2125   2.184   0.054   2.551 -0.2045  0.3668  0.4427
  709SOL    HW1 2126   2.098   0.034   2.599 -0.9565 -1.1135 -1.4479
  709SOL    HW2 2127   2.261   0.091   2.615  1.7312 -0.8980  0.3556
  710SOL     OW 2128   1.113   2.564   2.814  0.5920 -0.1101  0.1600
  710SOL    HW1 2129   1.033   2.512   2.775 -1.7388 -0.8551  0.1278
  710SOL    HW2 2130   1.189   2.567   2.749 -1.1040  1.6601  1.1009
  711SOL     OW 2131   1.101   2.117   2.566 -0.3023 -0.1703  0.0725
  711SOL    HW1 2132   1.191   2.163   2.573 -3.0631 -3.6354 -2.6457
  711SOL    HW2 2133   1.070   2.104   2.662  0.1181  2.1520  1.7098
  712SOL     OW 2134   0.979   2.090   2.809  0.7014  0.2434  0.5305
  712SOL    HW1 2135   1.036   2.154   2.861  1.5474 -2.3382  1.0063
  712SOL    HW2 2136   0.900   2.049   2.859  0.2092 -0.9925 -0.4350
  713SOL     OW 2137   0.971   0.995   1.639  0.5711  0.0322  0.6283
  713SOL    HW1 2138   0.916   1.037   1.561 -2.9816 -1.1764  0.4564
  713SOL    HW2 2139   0.912   0.916   1.673 -3.3295 -2.4130 -1.3127
  714SOL     OW 2140   1.679   1.933   1.451  0.0158 -0.0211 -0.5453
  714SOL    HW1 2141   1.614   1.989   1.507 -2.5110  3.7086 -0.8685
  714SOL    HW2 2142   1.628   1.850   1.423  0.6708  1.8043  0.6001
  715SOL     OW 2143   0.188   0.396   0.646 -0.5877 -0.0583 -0.1449
  715SOL    HW1 2144   0.276   0.375   0.597  1.1971 -1.3158 -0.5350
  715SOL    HW2 2145   0.182   0.483   0.693  1.8386 -1.4930  0.1084
  716SOL     OW 2146   0.780   2.885   0.378 -0.0070 -0.0410  0.0236
  716SOL    HW1 2147   0.852   2.815   0.370  1.7458 -0.5742  0.7399
  716SOL    HW2 2148   0.803   2.972   0.326 -0.8307 -0.2530  1.2771
  717SOL     OW 2149   0.139   0.255   0.306 -0.5670 -0.1846 -0.3643
  717SOL    HW1 2150   0.137   0.230   0.206  1.4756 -0.4794  1.5589
  717SOL    HW2 2151   0.175   0.175   0.361  2.4113 -1.8226 -1.0278
  718SOL     OW 2152   1.711   2.493   1.163  0.5749  0.0598 -0.3973
  718SOL    HW1 2153   1.608   2.506   1.188 -3.1239  0.9708  3.4976
  718SOL    HW2 2154   1.759   2.583   1.162  0.6534 -1.2696  2.6992
  719SOL     OW 2155   0.038   2.303   0.745 -0.0812  0.1638  0.1539
  719SOL    HW1 2156   0.125   2.255   0.727 -1.5653  0.3579 -0.3462
  719SOL    HW2 2157   3.049   2.238   0.777 -0.6347  1.2370  2.1983
  720SOL     OW 2158   1.134   1.225   0.727 -0.1493 -0.1737 -0.3700
  720SOL    HW1 2159   1.230   1.209   0.762  1.2104 -0.0754 -1.8136
  720SOL    HW2 2160   1.118   1.171   0.641  0.4186 -0.1129 -1.0353
  721SOL     OW 2161   0.843   0.599   0.906 -0.0228 -0.0035 -0.0663
  721SOL    HW1 2162   0.770   0.570   0.842  2.6816 -1.4304  0.0175
  721SOL    HW2 2163   0.842   0.549   0.995 -0.9982  2.8488 -0.0829
  722SOL     OW 2164   1.421   1.186   1.260  0.7495 -0.5640 -0.2088
  722SOL    HW1 2165   1.431   1.263   1.327 -3.4519 -0.1793 -1.4979
  722SOL    HW2 2166   1.422   1.102   1.315 -0.3732  2.8872  0.3416
  723SOL     OW 2167   0.720   0.223   1.861  0.3332  0.1720  0.1811
  723SOL    HW1 2168   0.768   0.266   1.781  0.5748  0.9000  3.0488
  723SOL    HW2 2169   0.717   0.290   1.937  0.2552  1.7902 -0.9880
  724SOL     OW 2170   1.944   1.811   1.782 -0.0228 -0.2279  0.2070
  724SOL    HW1 2171   1.962   1.718   1.747  0.0893  2.2774  0.6405
  724SOL    HW2 2172   1.898   1.872   1.712  0.6167 -1.4543 -1.4202
  725SOL     OW 2173   0.712   2.786   1.430 -0.0515 -0.7086  0.0835
  725SOL    HW1 2174   0.802   2.747   1.446 -1.4689  2.8192  1.4881
  725SOL    HW2 2175   0.633   2.719   1.438 -2.5770  1.3923 -2.0747
  726SOL     OW 2176   1.518   0.631   0.360  0.6627 -0.4598  0.1223
  726SOL    HW1 2177   1.595   0.614   0.421  0.0752  1.0106 -1.4496
  726SOL    HW2 2178   1.551   0.669   0.271 -1.8749 -1.4444 -0.1372
  727SOL     OW 2179   1.433   2.290   1.199  0.0124 -0.2355  0.4018
  727SOL    HW1 2180   1.432   2.189   1.176 -1.2654 -0.6256  0.4113
  727SOL    HW2 2181   1.516   2.303   1.249  1.0091  0.2342 -2.5506
  728SOL     OW 2182   1.503   0.084   2.324 -0.5367 -0.2642 -0.2193
  728SOL    HW1 2183   1.572   0.022   2.279 -1.0965  1.5600  0.8330
  728SOL    HW2 2184   1.458   0.037   2.405 -1.6970 -0.1753  0.9775
  729SOL     OW 2185   2.371   1.326   0.808  0.4889  0.1582  0.3105
  729SOL    HW1 2186   2.388   1.262   0.882  0.2279 -0.7815 -1.6618
  729SOL    HW2 2187   2.430   1.401   0.827  0.5717 -3.0772 -0.3608
  730SOL     OW 2188   1.900   1.021   2.616 -0.2674  0.1613  0.3224
  730SOL    HW1 2189   1.893   1.054   2.516 -0.7294  1.5295 -2.0820
  730SOL    HW2 2190   1.806   1.033   2.657 -4.8978  2.0004 -2.1702
  731SOL     OW 2191   0.179   3.073   1.417 -0.4153 -0.0558  0.5161
  731SOL    HW1 2192   0.100   0.049   1.423  1.2673 -0.3184 -0.2791
  731SOL    HW2 2193   0.205   3.044   1.324  0.8096 -1.8488 -1.5890
  732SOL     OW 2194   1.666   0.570   1.215  0.1598  0.5078 -0.2288
  732SOL    HW1 2195   1.749   0.596   1.164  1.2160  0.5472  3.6863
  732SOL    HW2 2196   1.670   0.601   1.313 -0.1137 -0.8345 -0.1594
  733SOL     OW 2197   0.995   1.359   1.807 -0.1024  0.2648 -0.0529
  733SOL    HW1 2198   1.075   1.340   1.747 -2.3416 -1.2953 -0.4512
  733SOL    HW2 2199   0.994   1.304   1.894  1.5695  0.7485 -1.0811
  734SOL     OW 2200   2.633   1.790   0.280  0.5248  0.0713  0.0811
  734SOL    HW1 2201   2.717   1.763   0.334 -0.2510  0.3334 -0.1788
  734SOL    HW2 2202   2.620   1.889   0.276 -0.0216 -0.9606 -2.3162
  735SOL     OW 2203   0.424   0.700   0.301  0.3033  0.6080 -0.2823
  735SOL    HW1 2204   0.348   0.634   0.288  0.7229 -0.0329  1.4413
  735SOL    HW2 2205   0.451   0.694   0.397 -1.9757  1.3256 -0.5814
  736SOL     OW 2206   1.763   2.636   0.261  0.2436  0.1519  0.3775
  736SOL    HW1 2207   1.742   2.533   0.258  0.2416 -1.4069  0.5624
  736SOL    HW2 2208   1.864   2.654   0.245  1.7881  0.2370  0.5724
  737SOL     OW 2209   0.942   2.110   1.440 -0.4544 -0.3188  0.8676
  737SOL    HW1 2210   0.849   2.107   1.475  0.4120 -0.6675  1.3089
  737SOL    HW2 2211   1.006   2.038   1.472  0.4585  3.4534 -2.7121
  738SOL     OW 2212   1.933   3.029   2.609 -0.2724 -0.1999 -0.7286
  738SOL    HW1 2213   1.847   3.075   2.598  2.3129 -0.9148 -0.9970
  738SOL    HW2 2214   1.950   2.982   2.519  0.5773 -1.4594  0.5131
  739SOL     OW 2215   1.785   2.296   2.738  0.7122 -0.3130  0.3111
  739SOL    HW1 2216   1.844   2.219   2.756 -0.4152  0.9028 -0.6627
  739SOL    HW2 2217   1.839   2.369   2.688  1.5996  1.4629 -1.9964
  740SOL     OW 2218   1.984   2.120   2.098 -0.4622 -0.2861 -0.4489
  740SOL    HW1 2219   1.949   2.026   2.109  0.1286  2.2362  0.2024
  740SOL    HW2 2220   2.086   2.121   2.090 -1.0187  0.6377 -3.1538
  741SOL     OW 2221   2.610   2.041   2.523 -0.3414 -0.2139  0.0527
  741SOL    HW1 2222   2.647   2.134   2.493  3.0713  1.6411 -1.0763
  741SOL    HW2 2223   2.554   2.062   2.606  0.9621  0.9408 -0.4993
  742SOL     OW 2224   1.038   1.338   2.741 -0.2922 -0.0215  0.0181
  742SOL    HW1 2225   1.124   1.301   2.785  0.7964  0.5920  2.3188
  742SOL    HW2 2226   1.041   1.329   2.641 -1.9251  0.8266 -0.6231
  743SOL     OW 2227   1.257   1.288   2.896  0.3134 -0.1432  0.2728
  743SOL    HW1 2228   1.269   1.188   2.885 -0.6151  1.8276 -1.4589
  743SOL    HW2 2229   1.347   1.331   2.923  1.4161  1.2070 -1.6986
  744SOL     OW 2230   2.091   3.078   1.244  0.1254  0.0585  0.0245
  744SOL    HW1 2231   2.000   0.002   1.290 -1.0071  1.3121  2.2719
  744SOL    HW2 2232   2.079   3.050   1.145 -0.3539 -1.3831  0.4053
  745SOL     OW 2233   2.686   0.977   0.598  0.0978  0.2152  0.5791
  745SOL    HW1 2234   2.701   0.994   0.497 -0.4527 -1.6883 -0.6850
  745SOL    HW2 2235   2.593   1.016   0.627  0.9584  1.3865  1.2889
  746SOL     OW 2236   2.800   1.864   1.122  0.0600 -0.1973 -0.0106
  746SOL    HW1 2237   2.812   1.868   1.222 -2.8740 -0.2103 -0.5928
  746SOL    HW2 2238   2.710   1.907   1.097 -2.2912 -2.9774  0.4761
  747SOL     OW 2239   1.596   3.025   0.059 -0.3076  0.1330 -0.0392
  747SOL    HW1 2240   1.664   2.945   0.059  1.6955 -2.3555  1.3449
  747SOL    HW2 2241   1.520   3.015   3.072  0.6183 -0.7781 -0.3894
  748SOL     OW 2242   0.596   1.266   0.107  0.8072  0.1124  0.2196
  748SOL    HW1 2243   0.612   1.263   0.008  1.1041 -0.4807  1.9026
  748SOL    HW2 2244   0.494   1.256   0.128  0.6375 -0.5300  0.5239
  749SOL     OW 2245   2.559   0.817   2.316  0.0780  0.2501 -0.5282
  749SOL    HW1 2246   2.610   0.729   2.344  1.5989 -0.5448  0.5151
  749SOL    HW2 2247   2.604   0.899   2.351 -0.5506  4.3326  0.9847
  750SOL     OW 2248   0.821   0.779   1.721 -0.3602 -0.0501 -0.0425
  750SOL    HW1 2249   0.738   0.749   1.769  0.6683  0.0706  0.2778
  750SOL    HW2 2250   0.876   0.696   1.708  0.0207 -1.2397 -0.0134
  751SOL     OW 2251   2.310   2.572   1.925 -0.2480  0.3997 -0.9019
  751SOL    HW1 2252   2.212   2.581   1.943 -1.4544  0.3812 -3.0619
  751SOL    HW2 2253   2.366   2.653   1.956 -1.7385 -2.8811  1.1920
  752SOL     OW 2254   2.106   1.674   1.057 -0.0201 -0.6869 -0.0511
  752SOL    HW1 2255   2.147   1.585   1.074 -0.9316 -0.7639 -0.0976
  752SOL    HW2 2256   2.086   1.686   0.959  0.4909  1.7952  2.7469
  753SOL     OW 2257   1.092   0.976   1.898  0.0151  0.5717 -0.4836
  753SOL    HW1 2258   1.046   0.966   1.805 -1.7110  2.3905 -0.6982
  753SOL    HW2 2259   1.127   0.885   1.928 -0.6683  0.2200  1.4960
  754SOL     OW 2260   0.719   2.525   0.354 -0.1365  0.0770 -0.3538
  754SOL    HW1 2261   0.822   2.508   0.349  1.4185  2.5744  2.3494
  754SOL    HW2 2262   0.691   2.592   0.428  1.1742  0.4286  0.5092
  755SOL     OW 2263   2.691   2.960   0.939 -0.4830  0.0224 -0.0725
  755SOL    HW1 2264   2.648   2.874   0.903  0.8806  0.1211 -1.2000
  755SOL    HW2 2265   2.743   2.950   1.028  1.1258  1.9637 -0.2256
  756SOL     OW 2266   2.480   1.866   2.318  0.2619 -0.1815  0.1594
  756SOL    HW1 2267   2.533   1.901   2.402  0.7946 -1.1769  1.4429
  756SOL    HW2 2268   2.489   1.928   2.236  1.0600  1.0423 -3.2981
  757SOL     OW 2269   0.068   2.967   1.845 -0.0088  0.3780  0.0323
  757SOL    HW1 2270   3.068   2.919   1.888 -0.6633 -0.7338  0.5430
  757SOL    HW2 2271   0.045   3.038   1.779  0.8255 -2.9060 -2.3625
  758SOL     OW 2272   0.521   2.848   0.300 -0.1432 -0.6618 -0.1318
  758SOL    HW1 2273   0.607   2.885   0.344  1.7779 -1.9017 -1.5534
  758SOL    HW2 2274   0.548   2.795   0.216  0.2724 -0.1233  2.1585
  759SOL     OW 2275   1.979   1.250   1.149  0.3103 -0.3875 -0.0213
  759SOL    HW1 2276   1.881   1.260   1.138  0.7456 -1.0313  0.3098
  759SOL    HW2 2277   2.021   1.203   1.066 -0.1187  1.1981 -2.4056
  760SOL     OW 2278   1.398   0.953   1.424  0.4139  0.5344 -0.3935
  760SOL    HW1 2279   1.399   0.883   1.349 -2.3361 -0.2996 -0.0928
  760SOL    HW2 2280   1.488   0.954   1.476 -2.8924  1.3558 -0.7995
  761SOL     OW 2281   2.046   0.342   1.327 -0.4730  0.4346 -0.1348
  761SOL    HW1 2282   2.029   0.439   1.355  0.1723  1.7250 -0.7211
  761SOL    HW2 2283   2.032   0.339   1.224  0.3186 -1.2646 -0.4252
  762SOL     OW 2284   1.911   0.306   0.315  0.2850 -0.0335  0.2155
  762SOL    HW1 2285   1.879   0.220   0.271  0.7625 -1.6753  2.3977
  762SOL    HW2 2286   1.936   0.290   0.412 -0.0588  1.5761  0.9098
  763SOL     OW 2287   0.848   0.338   1.639  0.4530 -0.5430 -0.1017
  763SOL    HW1 2288   0.781   0.370   1.572 -0.8786  0.5150  0.0807
  763SOL    HW2 2289   0.926   0.290   1.598 -1.2932 -0.7712  0.7871
  764SOL     OW 2290   2.268   2.133   2.101 -0.0678 -0.4779 -0.3239
  764SOL    HW1 2291   2.256   2.081   2.013  0.9250  0.0093 -1.1634
  764SOL    HW2 2292   2.311   2.227   2.083  1.6100  2.7091 -2.1031
  765SOL     OW 2293   2.968   1.332   2.786  0.3895  0.2352  0.1009
  765SOL    HW1 2294   2.940   1.423   2.749  0.1999  0.1596 -0.3959
  765SOL    HW2 2295   3.018   1.346   2.873  1.6709 -1.5002  0.0742
  766SOL     OW 2296   2.968   0.560   2.702  0.2675  0.0277  0.1634
  766SOL    HW1 2297   2.981   0.475   2.759  2.2955  1.8568  0.2241
  766SOL    HW2 2298   2.883   0.610   2.723  2.3035  0.8979  0.1946
  767SOL     OW 2299   0.320   2.630   1.853 -0.0267  0.8032  0.5335
  767SOL    HW1 2300   0.291   2.595   1.942 -2.4442  0.7688  2.5143
  767SOL    HW2 2301   0.278   2.583   1.776  1.7601  1.8290  2.2100
  768SOL     OW 2302   0.974   0.940   0.062  0.8414 -0.2780 -0.2652
  768SOL    HW1 2303   1.005   0.853   0.113 -1.8760  1.4434  1.0226
  768SOL    HW2 2304   0.940   0.924   3.047  1.0718 -0.6977  1.4810
  769SOL     OW 2305   0.976   2.542   0.530  0.2454  0.2326 -0.1151
  769SOL    HW1 2306   0.900   2.525   0.592  0.2409 -1.5135 -1.2977
  769SOL    HW2 2307   1.068   2.524   0.575  0.3451  0.5548  1.3135
  770SOL     OW 2308   1.104   3.067   1.922 -0.0205  0.0988  0.3848
  770SOL    HW1 2309   1.006   0.003   1.949  0.7465  1.6828 -0.2511
  770SOL    HW2 2310   1.148   2.996   1.977  1.0785  0.0118 -1.0792
  771SOL     OW 2311   0.809   2.806   0.794  0.1601 -0.3305  0.2305
  771SOL    HW1 2312   0.893   2.760   0.754 -1.7164  2.3029 -0.0992
  771SOL    HW2 2313   0.838   2.898   0.827 -1.2502 -1.1444 -0.8885
  772SOL     OW 2314   2.597   0.520   0.191 -0.0684 -0.0150  0.4401
  772SOL    HW1 2315   2.652   0.587   0.248  0.7312  0.1000  1.8565
  772SOL    HW2 2316   2.509   0.567   0.163  0.1110  0.5697  1.8676
  773SOL     OW 2317   2.179   0.586   1.738  0.0553  0.4422 -0.0284
  773SOL    HW1 2318   2.259   0.578   1.678 -1.0214 -0.0349 -0.0393
  773SOL    HW2 2319   2.089   0.606   1.696  1.1406 -0.5444  2.5545
  774SOL     OW 2320   0.273   0.792   0.569 -0.1805  0.3926  0.1748
  774SOL    HW1 2321   0.375   0.780   0.574  0.3712 -2.2636 -0.7617
  774SOL    HW2 2322   0.246   0.817   0.667  0.2178  1.2761  0.6123
  775SOL     OW 2323   1.699   0.326   0.792  0.5445  0.8445 -0.7093
  775SOL    HW1 2324   1.761   0.385   0.850  0.8858 -0.7952 -2.1971
  775SOL    HW2 2325   1.745   0.260   0.732 -0.6792 -5.0020 -3.2914
  776SOL     OW 2326   2.032   2.886   2.133 -0.0806  0.1124  0.2986
  776SOL    HW1 2327   2.124   2.843   2.140 -0.4379  0.1117  1.7999
  776SOL    HW2 2328   2.026   2.977   2.082 -3.6679  1.2619 -1.1272
  777SOL     OW 2329   1.360   1.449   0.410 -0.1079 -0.2816  0.6155
  777SOL    HW1 2330   1.380   1.536   0.360  0.6000  2.4078  1.4221
  777SOL    HW2 2331   1.336   1.382   0.339  2.4394 -2.9731  2.3748
  778SOL     OW 2332   0.460   2.827   0.027 -0.3802  0.4659 -0.5666
  778SOL    HW1 2333   0.421   2.729   0.030 -1.1168 -2.3931  1.6015
  778SOL    HW2 2334   0.388   2.894   0.033  2.2175 -0.7900  2.3619
  779SOL     OW 2335   0.255   1.508   0.263 -0.4211  0.8546  0.1747
  779SOL    HW1 2336   0.161   1.516   0.229  1.9282  2.4247  0.2528
  779SOL    HW2 2337   0.263   1.575   0.333  1.4863 -1.4802 -3.5657
  780SOL     OW 2338   1.689   0.264   2.024 -0.2687 -0.6202 -0.8153
  780SOL    HW1 2339   1.751   0.272   2.105  1.8156  0.5734 -1.5905
  780SOL    HW2 2340   1.715   0.182   1.968 -1.1921  2.2805  0.8606
  781SOL     OW 2341   1.784   1.965   1.219  0.5640 -0.5325  0.2341
  781SOL    HW1 2342   1.797   2.064   1.200  1.2303  0.7577 -1.1105
  781SOL    HW2 2343   1.746   1.962   1.313 -0.4137  2.2693 -1.0971
  782SOL     OW 2344   2.233   2.509   2.300 -0.1336  0.0358  0.1138
  782SOL    HW1 2345   2.139   2.499   2.262 -0.8934  2.7031 -1.2346
  782SOL    HW2 2346   2.267   2.606   2.305  0.1486  1.9708  2.6438
  783SOL     OW 2347   1.460   0.610   1.664 -0.3191 -0.0599 -0.5730
  783SOL    HW1 2348   1.397   0.530   1.673 -1.3890 -0.2056 -0.6521
  783SOL    HW2 2349   1.441   0.686   1.731 -2.0607 -1.0812 -1.3362
  784SOL     OW 2350   1.401   0.784   1.875  0.4956 -0.1413 -0.4305
  784SOL    HW1 2351   1.379   0.870   1.827  0.6363 -0.4095  0.2288
  784SOL    HW2 2352   1.309   0.738   1.899 -1.3252  0.4440  2.0218
  785SOL     OW 2353   1.851   0.803   0.354 -0.2668  0.6753  0.3277
  785SOL    HW1 2354   1.757   0.845   0.354 -3.4294  0.6343 -1.3929
  785SOL    HW2 2355   1.920   0.869   0.367 -1.8105 -0.0658 -3.0311
  786SOL     OW 2356   2.885   1.210   0.483  0.2745 -0.3639  0.0912
  786SOL    HW1 2357   2.931   1.153   0.415 -0.5283  1.5309 -1.6396
  786SOL    HW2 2358   2.956   1.270   0.524 -1.2302 -1.8774  0.6376
  787SOL     OW 2359   1.453   1.813   0.073  0.4036 -0.1240 -0.2972
  787SOL    HW1 2360   1.520   1.753   0.028 -2.0967  0.4528  1.2440
  787SOL    HW2 2361   1.390   1.848   3.079  0.1176 -3.1429 -2.2343
  788SOL     OW 2362   2.117   1.120   0.932  0.2600 -0.0683 -0.5294
  788SOL    HW1 2363   2.196   1.058   0.953 -1.9380 -1.7029  0.0626
  788SOL    HW2 2364   2.101   1.121   0.828 -1.0268  0.1879 -2.2431
  789SOL     OW 2365   3.025   1.750   2.206 -0.0110 -0.3792 -0.0441
  789SOL    HW1 2366   0.012   1.684   2.239 -0.0437 -0.9943  2.5467
  789SOL    HW2 2367   2.932   1.723   2.239  2.3196  0.5984  0.1115
  790SOL     OW 2368   0.877   3.013   2.607 -0.6655  0.2876  0.3054
  790SOL    HW1 2369   0.803   2.941   2.582 -2.5795 -4.0435 -1.4853
  790SOL    HW2 2370   0.970   2.968   2.617  2.9032  0.6821  0.3600
  791SOL     OW 2371   0.159   2.476   2.776 -0.0426  0.0411 -0.1735
  791SOL    HW1 2372   0.249   2.450   2.747 -0.3561  2.3336 -0.3189
  791SOL    HW2 2373   0.120   2.418   2.849 -1.2279 -0.3473 -0.9632
  792SOL     OW 2374   1.415   0.237   2.083 -0.4579 -0.3978  0.1897
  792SOL    HW1 2375   1.411   0.169   2.159 -0.9634  1.3537 -1.8192
  792SOL    HW2 2376   1.513   0.256   2.054  0.7500 -0.3246  0.5540
  793SOL     OW 2377   2.558   2.894   2.454  0.2579 -0.4159 -0.3561
  793SOL    HW1 2378   2.572   2.819   2.391  0.7455  0.4082  4.0488
  793SOL    HW2 2379   2.630   2.967   2.437  2.4356  2.7197 -1.9080
  794SOL     OW 2380   0.345   0.217   2.218  0.2279 -0.0092 -0.0478
  794SOL    HW1 2381   0.239   0.206   2.207 -2.2229 -1.0174 -1.9451
  794SOL    HW2 2382   0.394   0.130   2.195  0.5008  0.5538  2.2138
  795SOL     OW 2383   2.735   1.365   0.256  0.0840 -0.0513 -0.9058
  795SOL    HW1 2384   2.833   1.346   0.276 -1.3907 -0.9024 -0.6196
  795SOL    HW2 2385   2.677   1.326   0.327  0.3138  2.4320  0.3129
  796SOL     OW 2386   2.854   2.044   2.618  0.1568  0.2579  0.5639
  796SOL    HW1 2387   2.916   2.099   2.560 -1.0427 -1.0746  0.1929
  796SOL    HW2 2388   2.768   2.025   2.565  2.4975  3.4998 -1.6083
  797SOL     OW 2389   2.885   1.714   0.379  0.5281  0.7506 -0.2734
  797SOL    HW1 2390   2.847   1.647   0.452 -0.9336 -1.8905 -0.6419
  797SOL    HW2 2391   2.951   1.779   0.419 -0.0542 -5.1182  0.0273
  798SOL     OW 2392   0.532   0.414   1.719 -0.1939 -0.1364  0.1525
  798SOL    HW1 2393   0.572   0.489   1.774 -1.0284  0.1823 -1.1579
  798SOL    HW2 2394   0.564   0.321   1.753  2.6459  1.3012 -0.6465
  799SOL     OW 2395   2.683   1.137   2.345 -0.6052  0.2795 -0.0649
  799SOL    HW1 2396   2.742   1.158   2.264 -1.4010 -0.9948  1.5946
  799SOL    HW2 2397   2.655   1.220   2.399 -1.5479 -1.0045  0.2810
  800SOL     OW 2398   2.977   2.401   0.497  0.1276 -0.3928  0.0891
  800SOL    HW1 2399   3.038   2.377   0.573 -2.4222 -1.4826  2.5175
  800SOL    HW2 2400   3.013   2.479   0.448 -0.8635 -1.9604 -0.1232
  801SOL     OW 2401   0.864   0.849   1.041  0.3497  0.1736 -0.4861
  801SOL    HW1 2402   0.870   0.934   0.984  0.7332  1.5898  1.6425
  801SOL    HW2 2403   0.879   0.764   0.987 -2.2708 -1.0540 -0.5782
  802SOL     OW 2404   2.023   2.088   0.850 -0.7278 -0.5574  0.1094
  802SOL    HW1 2405   2.059   2.029   0.925  0.9322 -0.5828  3.4585
  802SOL    HW2 2406   1.924   2.068   0.831  0.2073 -1.8346 -1.9481
  803SOL     OW 2407   3.052   1.393   0.643  0.0158  0.7902  0.5253
  803SOL    HW1 2408   0.052   1.346   0.600  0.4611  0.3847  0.6568
  803SOL    HW2 2409   3.067   1.490   0.626  0.9294 -2.6195 -1.1632
  804SOL     OW 2410   1.262   2.523   0.637 -0.3473  0.0065 -0.4984
  804SOL    HW1 2411   1.233   2.518   0.736 -0.8296 -0.8471  1.2769
  804SOL    HW2 2412   1.293   2.614   0.610 -0.9696  0.3973  1.1602
  805SOL     OW 2413   1.598   2.148   2.606  0.1499 -0.1731  0.0507
  805SOL    HW1 2414   1.668   2.211   2.647  0.1008  0.4840 -1.5771
  805SOL    HW2 2415   1.583   2.068   2.666 -1.0553 -2.6050  2.2092
  806SOL     OW 2416   1.272   0.093   1.394 -0.4594 -0.1724 -0.3683
  806SOL    HW1 2417   1.326   0.178   1.383 -1.2723 -0.4195  1.1917
  806SOL    HW2 2418   1.265   0.039   1.309 -0.9685 -1.2001 -1.1337
  807SOL     OW 2419   1.767   0.099   0.190 -0.5253 -0.1077  0.1089
  807SOL    HW1 2420   1.687   0.064   0.144 -0.1459  0.5200  0.5045
  807SOL    HW2 2421   1.806   0.026   0.252 -1.1962 -1.2463  1.5895
  808SOL     OW 2422   0.553   1.559   2.753 -0.4734 -0.7353  0.3433
  808SOL    HW1 2423   0.466   1.550   2.707  1.2575  1.8111 -0.9264
  808SOL    HW2 2424   0.634   1.559   2.688  0.7280 -0.1221 -0.1314
  809SOL     OW 2425   0.055   1.288   2.992 -0.6904  0.0950  0.3395
  809SOL    HW1 2426   0.151   1.312   2.974 -0.0370 -1.9010  0.0163
  809SOL    HW2 2427   0.036   1.189   2.981 -0.7784  2.5566 -1.1027
  810SOL     OW 2428   2.712   0.638   2.777  0.7352  0.3955 -0.8444
  810SOL    HW1 2429   2.647   0.708   2.751  1.5379  0.4178 -0.5820
  810SOL    HW2 2430   2.698   0.554   2.719 -2.5926  1.1816  3.1701
  811SOL     OW 2431   2.037   2.596   1.970  0.4288 -0.6837 -0.0736
  811SOL    HW1 2432   1.965   2.631   1.906 -0.9110  2.8134 -0.3345
  811SOL    HW2 2433   2.003   2.582   2.066  1.0648  0.5672  1.2423
  812SOL     OW 2434   1.196   0.472   0.624 -0.1801  0.1691  0.2166
  812SOL    HW1 2435   1.257   0.407   0.575 -0.6830  0.6991 -2.9587
  812SOL    HW2 2436   1.197   0.557   0.569  3.0924  1.6009 -0.5687
  813SOL     OW 2437   1.920   0.619   1.661 -0.0547 -0.2662  0.2991
  813SOL    HW1 2438   1.863   0.626   1.577 -1.9107 -0.3681 -0.7208
  813SOL    HW2 2439   1.868   0.576   1.736 -1.3522 -0.2540  2.2155
  814SOL     OW 2440   2.001   0.912   1.102  0.2086  0.1128  0.1028
  814SOL    HW1 2441   2.058   0.829   1.067  2.9795 -2.7130 -0.8365
  814SOL    HW2 2442   2.024   0.995   1.046 -1.9071 -1.3330  0.3616
  815SOL     OW 2443   0.565   0.691   0.566 -0.5131 -0.5898  0.5959
  815SOL    HW1 2444   0.592   0.773   0.619  0.9137 -4.3890 -4.5273
  815SOL    HW2 2445   0.647   0.641   0.534  2.7303 -2.2826  2.0719
  816SOL     OW 2446   2.334   2.369   0.410 -0.6522  0.2472  0.2409
  816SOL    HW1 2447   2.351   2.265   0.409  0.0187 -1.4376  1.1397
  816SOL    HW2 2448   2.266   2.405   0.341 -1.8480  1.8761 -0.1478
  817SOL     OW 2449   2.800   2.452   0.933  0.2097 -0.5719 -0.0491
  817SOL    HW1 2450   2.899   2.458   0.913  1.4443 -2.2530  1.9636
  817SOL    HW2 2451   2.777   2.457   1.034  1.9718 -1.0574 -0.2182
  818SOL     OW 2452   1.763   0.889   0.058 -0.0749  0.5363  0.2016
  818SOL    HW1 2453   1.860   0.921   0.046  0.7196  1.1769 -0.6062
  818SOL    HW2 2454   1.715   0.943   0.127  2.6892 -1.1354 -1.5679
  819SOL     OW 2455   0.469   0.531   0.771 -0.1026  0.5900  0.0318
  819SOL    HW1 2456   0.372   0.542   0.781 -1.2725 -2.5192 -5.6383
  819SOL    HW2 2457   0.501   0.580   0.687 -0.1548 -2.0797  1.9242
  820SOL     OW 2458   1.997   0.891   1.366 -0.2505 -0.4115  0.2312
  820SOL    HW1 2459   1.992   0.923   1.270 -0.0677  0.4544  3.6687
  820SOL    HW2 2460   1.943   0.951   1.423  0.3945  0.2387 -0.5262
  821SOL     OW 2461   2.865   0.192   0.979 -0.0636  0.1153  0.2176
  821SOL    HW1 2462   2.782   0.254   0.987  0.6666  0.0186  2.2820
  821SOL    HW2 2463   2.852   0.142   0.891  0.7967 -0.7617 -1.6118
  822SOL     OW 2464   0.811   2.341   2.251  0.1185 -0.4534  0.3154
  822SOL    HW1 2465   0.805   2.391   2.341  1.3874 -1.9407  2.3385
  822SOL    HW2 2466   0.722   2.359   2.204 -1.2416 -1.6704 -1.5951
  823SOL     OW 2467   2.827   1.085   1.527  0.0897 -0.4079  0.1222
  823SOL    HW1 2468   2.866   1.014   1.463 -2.2751 -0.9661  0.3915
  823SOL    HW2 2469   2.884   1.092   1.611  2.5443 -0.5907 -1.0714
  824SOL     OW 2470   0.561   2.514   2.600  0.0068 -0.1492 -0.6745
  824SOL    HW1 2471   0.544   2.413   2.584  0.6956  2.0007 -1.0785
  824SOL    HW2 2472   0.660   2.519   2.590  0.1386 -2.5346  4.1498
  825SOL     OW 2473   1.628   1.658   2.976 -0.3134 -0.1337 -0.5155
  825SOL    HW1 2474   1.579   1.661   2.888  3.1779  0.1281 -1.0456
  825SOL    HW2 2475   1.712   1.603   2.969  1.6907  1.7531 -1.7795
  826SOL     OW 2476   0.852   2.155   0.240  0.2067  0.1623 -0.3824
  826SOL    HW1 2477   0.798   2.168   0.327 -2.7073 -1.8582  0.1284
  826SOL    HW2 2478   0.871   2.058   0.227  1.1511 -0.7342 -1.0761
  827SOL     OW 2479   0.301   1.447   1.867  0.3631 -0.2958  1.1463
  827SOL    HW1 2480   0.220   1.503   1.837  0.5194  0.5506  0.2045
  827SOL    HW2 2481   0.276   1.393   1.950  2.2003  0.2118  0.0695
  828SOL     OW 2482   0.196   1.743   1.560  0.3526  0.4463  0.1738
  828SOL    HW1 2483   0.193   1.838   1.587 -0.9009 -4.6471  0.8610
  828SOL    HW2 2484   0.284   1.717   1.518  0.1892 -0.1011 -0.2850
  829SOL     OW 2485   2.965   2.356   2.999 -0.2477 -0.6539 -0.3721
  829SOL    HW1 2486   2.948   2.299   2.917  1.2487  1.2415  0.3449
  829SOL    HW2 2487   3.066   2.370   3.011 -2.8253  1.4010 -3.0608
  830SOL     OW 2488   1.039   0.801   0.440 -0.5710 -0.5520  0.6842
  830SOL    HW1 2489   1.029   0.734   0.515 -2.8379  1.6333  2.1791
  830SOL    HW2 2490   0.979   0.782   0.357 -0.3669 -0.1872 -1.0769
  831SOL     OW 2491   2.688   2.207   3.080  0.6486 -0.2632  0.1703
  831SOL    HW1 2492   2.756   2.175   3.007  1.7059  0.7416  0.9836
  831SOL    HW2 2493   2.593   2.221   3.042  0.8403  0.9684  1.0488
  832SOL     OW 2494   1.666   2.671   0.517  0.0457  0.4014  0.0362
  832SOL    HW1 2495   1.704   2.685   0.422  1.0130  0.0963 -2.4320
  832SOL    HW2 2496   1.652   2.575   0.543 -0.4973 -0.1874  0.6131
  833SOL     OW 2497   0.296   1.077   1.861 -0.2426 -0.4444 -0.1867
  833SOL    HW1 2498   0.207   1.099   1.819  0.2504 -1.1472 -1.1316
  833SOL    HW2 2499   0.364   1.099   1.792 -0.1241 -0.1518  1.2881
  834SOL     OW 2500   2.169   0.409   0.577 -0.0083  0.0050  0.2912
  834SOL    HW1 2501   2.266   0.425   0.575 -2.9195  0.6927  0.0033
  834SOL    HW2 2502   2.147   0.308   0.591 -0.0568  2.4624 -0.4274
  835SOL     OW 2503   2.301   0.668   1.984 -0.0829 -0.4113 -0.5640
  835SOL    HW1 2504   2.272   0.617   1.900 -2.5699 -0.0455 -1.2090
  835SOL    HW2 2505   2.301   0.602   2.063  0.7276 -1.9673 -0.4243
  836SOL     OW 2506   0.976   1.854   1.024 -0.0710  0.0822  0.1544
  836SOL    HW1 2507   1.059   1.789   1.031 -1.9637  1.7014 -0.6811
  836SOL    HW2 2508   0.914   1.849   1.104 -1.7150  2.0056  0.7035
  837SOL     OW 2509   2.374   1.128   1.891  0.3099 -0.0865 -0.1559
  837SOL    HW1 2510   2.296   1.072   1.854  2.1065 -0.6177 -0.8333
  837SOL    HW2 2511   2.396   1.104   1.989  0.9434 -0.8406  2.2491
  838SOL     OW 2512   2.989   1.071   2.772 -0.4080 -0.1385 -0.1339
  838SOL    HW1 2513   2.935   1.037   2.693 -0.0996  1.6399 -2.6035
  838SOL    HW2 2514   2.986   1.176   2.770  0.0693 -0.3195  0.1249
  839SOL     OW 2515   2.986   0.152   3.051 -0.0693 -0.2182  0.2500
  839SOL    HW1 2516   3.063   0.214   3.054  1.7244  1.5111  1.0222
  839SOL    HW2 2517   2.919   0.172   0.048 -2.0210  0.7762 -0.2237
  840SOL     OW 2518   2.850   1.452   2.463  0.3512  0.1197  0.4229
  840SOL    HW1 2519   2.762   1.404   2.481  1.4410  0.1267 -3.4622
  840SOL    HW2 2520   2.886   1.503   2.539  0.0614  1.9379  0.4276
  841SOL     OW 2521   0.578   2.255   2.523 -0.0427  0.1755  0.6917
  841SOL    HW1 2522   0.527   2.192   2.459 -0.8466  0.0989 -2.0262
  841SOL    HW2 2523   0.678   2.245   2.510  0.6130  0.8686 -0.1016
  842SOL     OW 2524   0.471   0.112   0.878 -0.0831  0.0403 -0.1453
  842SOL    HW1 2525   0.545   0.070   0.929 -1.7132 -0.1574 -0.6691
  842SOL    HW2 2526   0.504   0.191   0.823 -0.4619 -0.4082 -0.6307
  843SOL     OW 2527   3.031   1.410   1.804  0.9404 -0.2160  0.0826
  843SOL    HW1 2528   3.062   1.507   1.800 -0.4877 -4.6331 -2.2166
  843SOL    HW2 2529   2.928   1.401   1.801 -1.8705 -0.6659 -0.5311
  844SOL     OW 2530   2.266   2.137   2.407  0.0865  0.0858  0.7733
  844SOL    HW1 2531   2.248   2.040   2.439 -0.2727  1.0004  1.3649
  844SOL    HW2 2532   2.277   2.142   2.305  0.8364  0.3863  1.1521
  845SOL     OW 2533   1.767   2.636   2.398  0.1508  0.1864 -0.2680
  845SOL    HW1 2534   1.692   2.588   2.345  1.3530 -3.1832 -1.7724
  845SOL    HW2 2535   1.724   2.668   2.486  1.0746 -1.2332 -0.2999
  846SOL     OW 2536   2.705   1.607   0.068 -0.0251  0.2465 -0.4764
  846SOL    HW1 2537   2.666   1.682   0.125 -1.2613  2.4916 -2.1855
  846SOL    HW2 2538   2.712   1.519   0.122  1.5973  0.9084  0.6001
  847SOL     OW 2539   2.370   0.132   2.755  0.7830  0.6346  0.2366
  847SOL    HW1 2540   2.424   0.048   2.784  0.5637 -0.7628  0.1278
  847SOL    HW2 2541   2.314   0.175   2.831 -2.3004 -0.8936 -0.3678
  848SOL     OW 2542   1.925   0.562   0.231  0.3886  0.0684 -0.4363
  848SOL    HW1 2543   1.899   0.473   0.269 -0.4283  0.6743 -0.3101
  848SOL    HW2 2544   1.901   0.637   0.289 -0.6644 -0.9513 -2.6091
  849SOL     OW 2545   0.987   0.317   2.774 -0.0865 -0.1495  0.3698
  849SOL    HW1 2546   0.966   0.255   2.694 -0.7580 -1.6517 -1.1348
  849SOL    HW2 2547   0.952   0.411   2.764  3.3406  0.8208  0.0685
  850SOL     OW 2548   0.172   0.266   0.020  0.2167 -0.1045 -0.2556
  850SOL    HW1 2549   0.218   0.218   3.027  1.4890 -0.5724  0.1818
  850SOL    HW2 2550   0.215   0.358   0.039 -0.0949 -0.9302 -0.1649
  851SOL     OW 2551   0.174   1.348   1.378  0.2154 -0.0962 -0.4377
  851SOL    HW1 2552   0.098   1.329   1.445  0.7628 -2.3195 -0.3153
  851SOL    HW2 2553   0.257   1.346   1.431 -4.4070  3.1514 -1.8769
  852SOL     OW 2554   1.146   0.685   1.938  0.0098 -0.2870 -0.2229
  852SOL    HW1 2555   1.069   0.659   1.880  1.2744 -0.2300 -2.9331
  852SOL    HW2 2556   1.176   0.612   2.006 -0.8928  1.0530 -1.2590
  853SOL     OW 2557   2.140   1.350   2.964 -0.4085 -0.4551 -0.0345
  853SOL    HW1 2558   2.213   1.288   2.939 -1.8426  2.4492 -3.8987
  853SOL    HW2 2559   2.047   1.308   2.982 -0.6793 -0.0700  0.2031
  854SOL     OW 2560   1.157   1.365   1.603 -0.0789  0.0493 -0.0049
  854SOL    HW1 2561   1.212   1.439   1.645  1.6365  0.2401  1.7247
  854SOL    HW2 2562   1.208   1.276   1.605 -0.7704  1.9003 -1.1023
  855SOL     OW 2563   0.192   2.254   1.773 -0.8841  0.1331 -0.2146
  855SOL    HW1 2564   0.102   2.267   1.823 -0.9971 -0.0777  1.1046
  855SOL    HW2 2565   0.184   2.174   1.719 -3.4291  0.5643  0.7201
  856SOL     OW 2566   1.055   1.367   2.460 -0.3545  1.1335 -0.5047
  856SOL    HW1 2567   0.960   1.353   2.431  2.2513  0.0970  0.6973
  856SOL    HW2 2568   1.081   1.464   2.456 -1.2331 -2.7649  0.6985
  857SOL     OW 2569   1.031   0.953   2.640 -0.2962 -0.0443 -0.2028
  857SOL    HW1 2570   0.945   0.939   2.589 -1.8001 -1.9733  2.6201
  857SOL    HW2 2571   1.075   0.862   2.664  1.3930 -2.0261  2.3310
  858SOL     OW 2572   0.265   2.868   1.569 -0.4865  0.2160  0.1958
  858SOL    HW1 2573   0.246   2.937   1.497  1.4229 -1.8726  3.7216
  858SOL    HW2 2574   0.303   2.915   1.649 -3.1197 -0.8794 -0.3119
  859SOL     OW 2575   2.481   0.038   0.837  0.2889  0.1884 -0.1410
  859SOL    HW1 2576   2.460   0.112   0.904  2.4839  0.3696 -0.2534
  859SOL    HW2 2577   2.559   3.058   0.866 -0.6580 -1.4244  3.3041
  860SOL     OW 2578   0.695   0.888   1.466 -0.3141  0.1154  0.3765
  860SOL    HW1 2579   0.722   0.869   1.563  0.9931 -1.1022  2.5988
  860SOL    HW2 2580   0.706   0.986   1.442 -1.4802 -1.3112 -0.3969
  861SOL     OW 2581   1.477   0.786   1.235 -0.6332 -0.3004 -0.4550
  861SOL    HW1 2582   1.544   0.716   1.196  1.5213 -0.6536 -0.9673
  861SOL    HW2 2583   1.521   0.878   1.222 -0.4608  2.7934  0.8914
  862SOL     OW 2584   0.662   2.715   2.317  0.4880  0.1218  0.0151
  862SOL    HW1 2585   0.584   2.652   2.338 -4.2695 -1.2914 -2.2293
  862SOL    HW2 2586   0.698   2.756   2.400 -2.9268 -2.4193  1.4398
  863SOL     OW 2587   2.415   0.118   1.207  0.5533 -0.5595 -0.3442
  863SOL    HW1 2588   2.459   0.030   1.195  0.1566 -0.9843 -2.7359
  863SOL    HW2 2589   2.376   0.121   1.302 -0.3127 -0.3473  0.0120
  864SOL     OW 2590   2.578   2.775   2.720  0.2075  0.5348 -0.3307
  864SOL    HW1 2591   2.618   2.680   2.703  0.5137 -0.5325 -0.1460
  864SOL    HW2 2592   2.543   2.816   2.631 -1.5306  0.2922 -0.0988
  865SOL     OW 2593   1.312   1.185   2.033 -0.6338  0.0444 -0.7017
  865SOL    HW1 2594   1.310   1.111   2.102 -0.9007 -2.0168 -0.0979
  865SOL    HW2 2595   1.220   1.235   2.028  1.6373  0.6328 -0.2955
  866SOL     OW 2596   2.372   2.527   0.915  0.5839  0.6065  0.5774
  866SOL    HW1 2597   2.431   2.602   0.959  0.2653  0.1512 -0.0564
  866SOL    HW2 2598   2.370   2.445   0.977 -1.4199  0.4588 -1.3056
  867SOL     OW 2599   2.500   2.712   1.109 -0.5500  0.2399 -0.3564
  867SOL    HW1 2600   2.503   2.811   1.142  1.5727  4.0853  0.8937
  867SOL    HW2 2601   2.572   2.654   1.158  0.7135 -2.8515 -0.3542
  868SOL     OW 2602   2.641   1.481   1.517 -0.1880  0.5816  0.3207
  868SOL    HW1 2603   2.688   1.455   1.607  0.4431 -0.2397 -1.7683
  868SOL    HW2 2604   2.540   1.454   1.522 -0.5748  0.7339  0.9029
  869SOL     OW 2605   2.158   1.515   1.998 -0.1143  0.5659  0.4433
  869SOL    HW1 2606   2.183   1.612   2.024 -0.7567 -0.5186 -0.0898
  869SOL    HW2 2607   2.058   1.510   2.000 -0.1190  0.7886 -0.7255
  870SOL     OW 2608   1.405   1.189   0.764 -0.3403  0.3740  0.2514
  870SOL    HW1 2609   1.468   1.116   0.731 -0.9295 -0.4816 -0.7901
  870SOL    HW2 2610   1.429   1.282   0.740 -2.7778  0.0918 -0.2444
  871SOL     OW 2611   2.311   1.387   1.805  0.0180  0.4251 -0.1961
  871SOL    HW1 2612   2.320   1.286   1.828  2.9946 -3.0980  0.3711
  871SOL    HW2 2613   2.256   1.436   1.877 -1.3078  0.9361  1.4169
  872SOL     OW 2614   1.485   1.306   2.196  0.7126  0.5056 -0.2447
  872SOL    HW1 2615   1.449   1.336   2.285 -1.9109 -0.9882 -0.7848
  872SOL    HW2 2616   1.416   1.285   2.127 -0.6127  0.6078  0.8975
  873SOL     OW 2617   1.559   1.562   1.122  0.3048 -0.6627  0.1190
  873SOL    HW1 2618   1.497   1.586   1.043  1.3909 -1.0814  1.0871
  873SOL    HW2 2619   1.616   1.475   1.109  3.5527 -3.4682 -1.3031
  874SOL     OW 2620   1.643   1.410   0.882  0.4880  0.7651  0.1241
  874SOL    HW1 2621   1.695   1.493   0.904 -0.7197  0.4096 -2.2361
  874SOL    HW2 2622   1.569   1.425   0.813  1.0052  3.0628 -1.9531
  875SOL     OW 2623   2.266   0.547   2.630 -0.2698  0.0720  0.2974
  875SOL    HW1 2624   2.309   0.612   2.563 -0.3996 -1.7172 -1.7915
  875SOL    HW2 2625   2.330   0.467   2.647  1.3015  2.9646 -1.6401
  876SOL     OW 2626   1.115   1.071   0.487  0.2980  0.1034  0.5422
  876SOL    HW1 2627   1.092   0.975   0.467 -0.4000  1.0235 -0.5251
  876SOL    HW2 2628   1.212   1.088   0.455  0.8483  2.4532 -0.1388
  877SOL     OW 2629   1.863   0.146   0.673 -0.3841 -0.0791  0.2805
  877SOL    HW1 2630   1.958   0.133   0.636  0.6293  1.7665 -1.6212
  877SOL    HW2 2631   1.822   0.054   0.687  1.8469 -0.4863 -1.9673
  878SOL     OW 2632   3.048   1.902   0.477  0.6958 -0.9368 -0.1700
  878SOL    HW1 2633   0.032   1.977   0.446  0.9015 -0.3289  0.7336
  878SOL    HW2 2634   2.991   1.930   0.560 -3.1157 -0.2755  1.9930
  879SOL     OW 2635   2.737   2.165   1.817 -0.0897  0.2014 -0.0199
  879SOL    HW1 2636   2.806   2.103   1.845 -4.5654  1.6298 -2.1250
  879SOL    HW2 2637   2.653   2.120   1.773 -0.8289 -0.9920 -1.7333
  880SOL     OW 2638   0.737   1.381   0.502  0.3016  0.8181  0.2074
  880SOL    HW1 2639   0.788   1.306   0.466 -4.4323  2.1985 -1.2966
  880SOL    HW2 2640   0.794   1.454   0.545  1.3270  0.5541  2.7543
  881SOL     OW 2641   1.504   0.448   2.602 -0.3814 -0.6771 -0.2996
  881SOL    HW1 2642   1.418   0.433   2.658 -2.2916 -3.8298 -1.7581
  881SOL    HW2 2643   1.488   0.406   2.509  0.0068 -0.9863 -0.9397
  882SOL     OW 2644   2.744   0.695   0.326  0.5449 -0.3800 -0.3433
  882SOL    HW1 2645   2.717   0.795   0.319  1.4141 -0.2985 -1.1786
  882SOL    HW2 2646   2.807   0.687   0.407  2.3395 -0.7291  1.1847
  883SOL     OW 2647   1.664   0.881   2.450  0.0050  0.6771 -0.1669
  883SOL    HW1 2648   1.599   0.868   2.525 -0.7766 -2.5426 -0.1238
  883SOL    HW2 2649   1.653   0.972   2.406  3.6393  0.8558  2.7011
  884SOL     OW 2650   0.366   2.960   1.890  0.0510 -0.1458  0.0693
  884SOL    HW1 2651   0.268   2.961   1.883  3.4092  0.5398  0.9224
  884SOL    HW2 2652   0.407   2.887   1.836 -1.0724  1.4247  1.8329
  885SOL     OW 2653   1.878   0.827   2.105  0.0120 -0.9875 -0.0716
  885SOL    HW1 2654   1.937   0.748   2.122 -0.3669  2.1044 -1.8088
  885SOL    HW2 2655   1.782   0.800   2.077  1.4981 -1.0184  1.8766
  886SOL     OW 2656   1.508   0.060   2.754 -0.3591 -0.3518 -0.0831
  886SOL    HW1 2657   1.536   0.086   2.660 -0.7791  0.6760 -0.1283
  886SOL    HW2 2658   1.563   0.106   2.825 -1.6637  0.2027 -0.6439
  887SOL     OW 2659   1.029   0.206   1.498 -0.4895 -0.3089  0.3475
  887SOL    HW1 2660   1.006   0.210   1.401 -0.4502 -0.7106  1.1838
  887SOL    HW2 2661   1.126   0.171   1.503 -0.9947 -1.5508  0.0013
  888SOL     OW 2662   2.410   0.552   1.596  0.0738  0.6952 -0.0488
  888SOL    HW1 2663   2.489   0.541   1.655 -3.5853 -0.6725 -1.7175
  888SOL    HW2 2664   2.417   0.486   1.517 -0.7135  0.0547 -0.2915
  889SOL     OW 2665   1.417   0.295   0.658  0.6568 -0.3855 -0.3917
  889SOL    HW1 2666   1.510   0.324   0.638 -2.9801 -0.5976 -0.2109
  889SOL    HW2 2667   1.411   0.289   0.758 -0.7936  2.4437 -3.3964
  890SOL     OW 2668   1.314   2.829   0.871 -0.1448 -0.5778  0.1602
  890SOL    HW1 2669   1.402   2.832   0.926  1.1520  0.9351  1.9143
  890SOL    HW2 2670   1.334   2.825   0.773  1.4669 -1.3435 -1.6733
  891SOL     OW 2671   3.013   1.289   0.192 -0.5127  0.1747  0.5959
  891SOL    HW1 2672   3.045   1.281   0.096 -0.7270 -0.3669  1.7185
  891SOL    HW2 2673   3.030   1.203   0.240  1.0681  1.3618 -3.3417
  892SOL     OW 2674   2.014   1.427   2.333  0.0285 -1.0021 -0.0781
  892SOL    HW1 2675   2.065   1.420   2.418  0.1782  2.5446  0.9659
  892SOL    HW2 2676   1.994   1.524   2.302  1.2997  0.4974 -2.3706
  893SOL     OW 2677   2.237   2.628   1.182  0.1761  0.5777 -0.3100
  893SOL    HW1 2678   2.172   2.599   1.114 -1.9921 -0.2262  0.8509
  893SOL    HW2 2679   2.307   2.697   1.151 -0.0145 -0.5261 -0.2095
  894SOL     OW 2680   0.216   0.607   0.824 -0.3771  0.0603 -0.4000
  894SOL    HW1 2681   0.166   0.578   0.907  1.8568  0.6399  1.4009
  894SOL    HW2 2682   0.246   0.705   0.834 -1.2129  2.2550  2.7681
  895SOL     OW 2683   3.041   2.189   2.494  0.6349  0.4823  0.4910
  895SOL    HW1 2684   2.999   2.178   2.399 -0.8131 -0.4291 -0.2444
  895SOL    HW2 2685   0.031   2.114   2.505  0.1454 -0.8377 -1.2888
  896SOL     OW 2686   1.313   3.069   2.506  0.6526 -0.2395 -0.8019
  896SOL    HW1 2687   1.278   0.040   2.591 -1.3582 -1.6058  2.6012
  896SOL    HW2 2688   1.240   3.034   2.445  0.6644 -2.1116 -2.4436
  897SOL     OW 2689   0.233   2.009   1.597  0.4202 -0.0286  0.1470
  897SOL    HW1 2690   0.202   2.039   1.499  2.7205  3.9519 -1.4794
  897SOL    HW2 2691   0.332   1.994   1.595 -4.1794 -0.7835  0.0713
  898SOL     OW 2692   0.712   2.179   1.790 -0.2393  0.3484  0.3810
  898SOL    HW1 2693   0.695   2.162   1.692  0.2915 -2.5227  0.1833
  898SOL    HW2 2694   0.729   2.274   1.808 -0.8228 -3.2700  0.0912
  899SOL     OW 2695   1.991   0.188   1.795  0.3354 -0.2470 -0.4687
  899SOL    HW1 2696   1.909   0.142   1.830  1.8351 -0.4323 -0.4062
  899SOL    HW2 2697   1.992   0.213   1.695  0.5805  2.6390  0.5041
  900SOL     OW 2698   1.621   1.170   0.461 -0.0958 -1.1100  0.0426
  900SOL    HW1 2699   1.669   1.256   0.479 -0.2808  4.0476  1.2242
  900SOL    HW2 2700   1.590   1.124   0.546  0.0819 -1.0233  0.7309
  901SOL     OW 2701   1.246   1.018   2.254  1.1113  0.8432  0.5953
  901SOL    HW1 2702   1.241   1.081   2.335  0.3114 -0.2776 -0.5280
  901SOL    HW2 2703   1.283   0.922   2.282  0.0914 -1.2718 -1.7899
  902SOL     OW 2704   0.363   1.944   0.783 -0.5830  0.2338 -0.0374
  902SOL    HW1 2705   0.411   1.859   0.761 -2.2998 -0.3919  0.3799
  902SOL    HW2 2706   0.316   1.934   0.871 -1.3055 -2.3127 -1.2842
  903SOL     OW 2707   2.439   1.108   2.163  0.1701  0.3709  0.1541
  903SOL    HW1 2708   2.382   1.174   2.209 -1.1230  0.6134  1.6968
  903SOL    HW2 2709   2.538   1.127   2.183  1.0476 -0.3548 -1.0930
  904SOL     OW 2710   1.225   1.917   3.046  0.1879 -0.3113  0.0429
  904SOL    HW1 2711   1.163   1.850   2.999  0.3180  1.3040 -1.3808
  904SOL    HW2 2712   1.203   1.916   0.068 -1.7562 -1.8080  3.4503
  905SOL     OW 2713   2.055   0.069   2.029  0.3972 -0.2589  0.4477
  905SOL    HW1 2714   2.041   0.099   1.930 -1.4268 -3.5367  1.3366
  905SOL    HW2 2715   2.138   0.119   2.067  1.8572 -0.9855  0.6590
  906SOL     OW 2716   0.799   2.620   3.063  0.1160  0.2438 -0.5569
  906SOL    HW1 2717   0.749   2.583   0.065 -2.0733 -0.7935  1.6321
  906SOL    HW2 2718   0.900   2.597   3.069  3.0856  0.7320  0.7045
  907SOL     OW 2719   0.404   2.493   0.826  0.0572 -0.2173  0.0150
  907SOL    HW1 2720   0.469   2.569   0.843  2.0623 -1.3981 -2.3119
  907SOL    HW2 2721   0.331   2.517   0.752  0.6747 -0.2962 -1.5832
  908SOL     OW 2722   0.998   2.574   1.761 -0.0554 -0.1267 -0.0618
  908SOL    HW1 2723   0.944   2.654   1.800  0.1564  2.0080  1.9295
  908SOL    HW2 2724   0.999   2.580   1.660 -2.3115  1.0512 -4.0950
  909SOL     OW 2725   1.736   0.986   1.117  0.0242 -1.0539 -0.4475
  909SOL    HW1 2726   1.828   0.962   1.136 -1.4767  0.4974  0.4102
  909SOL    HW2 2727   1.710   1.086   1.105 -0.9100  0.0642 -0.5161
  910SOL     OW 2728   0.952   0.287   0.089 -0.1313  0.0803 -0.3355
  910SOL    HW1 2729   0.890   0.363   0.065 -1.2759 -1.4544 -2.4530
  910SOL    HW2 2730   0.957   0.225   0.008  1.0469 -1.6388 -0.7951
  911SOL     OW 2731   0.582   0.298   3.007  0.3007 -0.0745  0.0010
  911SOL    HW1 2732   0.605   0.283   2.908 -0.9831  4.5691  0.4284
  911SOL    HW2 2733   0.506   0.366   3.019  0.4317 -0.5292  0.5097
  912SOL     OW 2734   0.265   2.012   2.767 -0.5609  0.1027 -0.1553
  912SOL    HW1 2735   0.215   1.971   2.685 -1.3965  1.1865 -1.9907
  912SOL    HW2 2736   0.217   1.997   2.857 -1.8274  1.1243 -0.2598
  913SOL     OW 2737   2.280   2.927   0.137 -0.0467 -0.4283 -0.4464
  913SOL    HW1 2738   2.213   2.992   0.096 -0.8235 -0.0647  0.6088
  913SOL    HW2 2739   2.243   2.883   0.220  0.7402 -1.6278  0.1901
  914SOL     OW 2740   1.380   1.453   2.422  0.1881 -0.8518 -0.0055
  914SOL    HW1 2741   1.425   1.446   2.515 -0.2840  0.0677  0.2543
  914SOL    HW2 2742   1.297   1.514   2.424 -0.6098  1.4653  0.5094
  915SOL     OW 2743   2.727   2.405   1.924 -0.5084  0.3812  0.1974
  915SOL    HW1 2744   2.775   2.396   2.015 -2.1640 -1.3854  1.5958
  915SOL    HW2 2745   2.733   2.321   1.863  1.9692  0.3826 -0.0901
  916SOL     OW 2746   3.055   1.072   2.268 -0.3802 -0.5251  0.0082
  916SOL    HW1 2747   0.053   1.053   2.205 -3.9462 -1.0432  1.5189
  916SOL    HW2 2748   2.986   1.123   2.216 -0.1178  0.9509  0.2185
  917SOL     OW 2749   1.336   0.449   0.317 -0.0884  0.0369 -0.2123
  917SOL    HW1 2750   1.411   0.516   0.344  0.6161  0.3011 -0.0257
  917SOL    HW2 2751   1.373   0.356   0.310 -2.8652  1.5260 -0.7976
  918SOL     OW 2752   1.463   2.794   2.230 -0.0057 -0.2056 -0.5056
  918SOL    HW1 2753   1.501   2.718   2.173  0.3938  0.2981  1.3339
  918SOL    HW2 2754   1.536   2.840   2.284 -1.2627  0.0947 -0.8568
  919SOL     OW 2755   1.723   2.427   1.868 -0.0689  0.1830 -0.7705
  919SOL    HW1 2756   1.680   2.363   1.932  0.8326 -3.6071 -1.9938
  919SOL    HW2 2757   1.733   2.380   1.780 -0.9449 -1.1992  0.3458
  920SOL     OW 2758   0.272   0.850   0.142 -0.4963 -0.3966  0.3676
  920SOL    HW1 2759   0.267   0.929   0.203 -0.0637  1.6569 -1.7798
  920SOL    HW2 2760   0.326   0.779   0.189 -1.6145 -1.5167 -3.2510
  921SOL     OW 2761   2.124   0.897   2.351 -0.5452  0.1013  0.1984
  921SOL    HW1 2762   2.033   0.852   2.355 -2.1024  1.7662  1.3689
  921SOL    HW2 2763   2.155   0.907   2.257 -0.2482  1.9335  2.0601
  922SOL     OW 2764   1.096   1.777   2.652 -0.7491  0.4775  0.5469
  922SOL    HW1 2765   1.113   1.875   2.624  1.1116 -0.3265 -1.1985
  922SOL    HW2 2766   1.099   1.759   2.752 -0.2936 -0.8933 -1.0213
  923SOL     OW 2767   0.807   1.271   2.151 -0.1334 -0.3006 -0.3338
  923SOL    HW1 2768   0.718   1.256   2.105  2.9137  1.7707  2.2905
  923SOL    HW2 2769   0.821   1.370   2.158  2.0508  0.4137  1.9315
  924SOL     OW 2770   0.031   2.106   3.046  0.1750 -0.0414  0.1165
  924SOL    HW1 2771   3.012   2.130   3.028 -0.3567 -1.0218 -0.5602
  924SOL    HW2 2772   0.047   2.009   3.041  0.3109 -2.4988  1.1581
  925SOL     OW 2773   1.749   1.692   0.873 -0.4066 -0.4908  0.1591
  925SOL    HW1 2774   1.691   1.747   0.811 -2.8372 -1.7355  0.2948
  925SOL    HW2 2775   1.848   1.691   0.834  1.4905 -1.6600  0.3781
  926SOL     OW 2776   1.750   0.111   2.495 -0.2359 -0.8826  0.2591
  926SOL    HW1 2777   1.771   0.122   2.395  1.9563 -0.1988  0.6790
  926SOL    HW2 2778   1.761   0.202   2.538 -0.5571 -2.3430 -1.9895
  927SOL     OW 2779   2.439   2.712   1.625  0.2769  0.4664 -0.3034
  927SOL    HW1 2780   2.506   2.730   1.699 -0.1391  0.5212 -0.0544
  927SOL    HW2 2781   2.381   2.632   1.638  1.7550  1.3774 -1.8154
  928SOL     OW 2782   0.685   0.831   2.777 -0.2378 -0.1822 -0.1732
  928SOL    HW1 2783   0.585   0.844   2.759 -1.0181 -0.5047 -1.8295
  928SOL    HW2 2784   0.734   0.870   2.696 -2.8682 -1.8979 -1.6214
  929SOL     OW 2785   0.083   0.239   0.838 -0.0115 -0.4842  0.3137
  929SOL    HW1 2786   0.122   0.281   0.752  0.0150 -1.5207  2.3754
  929SOL    HW2 2787   0.056   0.313   0.899  3.3201  1.0878 -0.2439
  930SOL     OW 2788   2.577   3.076   1.859  0.1412 -0.5283 -0.3709
  930SOL    HW1 2789   2.486   3.054   1.903 -2.7002  1.4644  2.2532
  930SOL    HW2 2790   2.573   0.093   1.828 -0.8003  0.6417  0.8580
  931SOL     OW 2791   2.375   1.225   2.947  0.2339  0.2523  0.1375
  931SOL    HW1 2792   2.419   1.253   3.032  0.0543 -2.2675  1.5988
  931SOL    HW2 2793   2.361   1.122   2.945  0.2099 -0.0594 -0.4685
  932SOL     OW 2794   2.719   1.176   0.909 -0.0197  0.1879 -0.4309
  932SOL    HW1 2795   2.645   1.203   0.973 -0.0408  0.2848  0.8218
  932SOL    HW2 2796   2.773   1.257   0.878 -1.5152  1.4893  0.6720
  933SOL     OW 2797   2.849   2.238   1.546  0.0441  0.1657 -0.8197
  933SOL    HW1 2798   2.804   2.206   1.630 -3.2672 -1.1650 -3.8883
  933SOL    HW2 2799   2.859   2.343   1.543 -1.1928  4.1310  0.0191
  934SOL     OW 2800   0.904   3.054   0.913  0.5673 -0.1500  0.2811
  934SOL    HW1 2801   0.850   0.060   0.930 -2.0379  0.4080  0.4198
  934SOL    HW2 2802   0.998   3.078   0.878 -1.8048  0.1911 -0.5722
  935SOL     OW 2803   2.574   0.313   2.264  0.4610 -0.5702 -0.6744
  935SOL    HW1 2804   2.669   0.292   2.286 -3.5557 -0.7565 -0.6141
  935SOL    HW2 2805   2.506   0.240   2.279  2.9652 -0.1409  0.0578
  936SOL     OW 2806   2.903   0.513   1.786 -0.1698 -0.3081 -0.1820
  936SOL    HW1 2807   2.933   0.607   1.812 -0.9279  0.2398 -0.4930
  936SOL    HW2 2808   2.871   0.473   1.872  1.9020  1.6961 -1.6585
  937SOL     OW 2809   1.750   1.276   1.813 -0.2125 -0.5102 -0.1656
  937SOL    HW1 2810   1.845   1.264   1.782  1.0239 -1.6514  0.7256
  937SOL    HW2 2811   1.708   1.185   1.802 -2.8100 -2.3285  0.5510
  938SOL     OW 2812   0.707   2.336   0.069  0.1274  0.0039 -0.0551
  938SOL    HW1 2813   0.617   2.354   0.123 -1.7365 -2.3415  0.8205
  938SOL    HW2 2814   0.767   2.283   0.133  2.4741  0.7164 -1.3031
  939SOL     OW 2815   1.596   0.484   3.003 -0.2342 -0.0497  0.4722
  939SOL    HW1 2816   1.590   0.382   3.024  0.2071 -0.9490  0.8242
  939SOL    HW2 2817   1.608   0.508   2.907  2.5796 -2.8146  0.1129
  940SOL     OW 2818   1.542   2.816   1.008 -0.1682  0.3655  0.3799
  940SOL    HW1 2819   1.523   2.732   1.064  1.0921  1.1986  0.3820
  940SOL    HW2 2820   1.590   2.786   0.924 -2.4568  0.2511 -1.6523
  941SOL     OW 2821   1.241   1.927   1.796 -0.0395  0.2474 -0.3443
  941SOL    HW1 2822   1.343   1.951   1.794  2.2295  0.8224  1.3817
  941SOL    HW2 2823   1.183   2.011   1.809  0.4826  1.7480 -2.5236
  942SOL     OW 2824   2.863   2.096   2.893  0.1940 -0.0119  0.6863
  942SOL    HW1 2825   2.842   2.000   2.914  1.4057  1.1692  1.2109
  942SOL    HW2 2826   2.851   2.120   2.792  1.3035  2.3507  0.7517
  943SOL     OW 2827   2.688   2.852   1.747 -0.3941  0.0419 -0.0180
  943SOL    HW1 2828   2.640   2.927   1.794  3.1953 -0.1189 -0.9042
  943SOL    HW2 2829   2.722   2.782   1.808  1.3303 -0.3157  1.6431
  944SOL     OW 2830   1.800   1.987   2.852  0.0205 -0.0283 -0.0619
  944SOL    HW1 2831   1.756   1.922   2.788  0.7856  1.8017  0.9709
  944SOL    HW2 2832   1.872   2.045   2.805 -0.3467  1.3989 -0.9168
  945SOL     OW 2833   3.046   2.035   1.112 -0.2992  0.5238 -0.3849
  945SOL    HW1 2834   3.012   1.941   1.130  1.7156  4.6364  1.1740
  945SOL    HW2 2835   2.998   2.100   1.171  1.2714  0.3153 -0.3566
  946SOL     OW 2836   1.632   1.190   3.010  0.0447 -0.0272  0.1513
  946SOL    HW1 2837   1.576   1.133   3.076  0.1111 -0.8921 -0.4253
  946SOL    HW2 2838   1.660   1.143   2.928 -2.6157 -1.1511  2.7472
  947SOL     OW 2839   0.193   1.045   2.112  0.1571  0.3366  0.2876
  947SOL    HW1 2840   0.232   1.070   2.023  0.7184 -0.9460  0.6678
  947SOL    HW2 2841   0.227   0.953   2.139  1.6380 -0.9715 -1.1551
  948SOL     OW 2842   0.245   1.043   0.327  0.1037  0.0162 -0.5281
  948SOL    HW1 2843   0.172   0.990   0.377 -1.4416 -3.3420  2.5963
  948SOL    HW2 2844   0.336   1.023   0.371  1.4680 -0.5109  2.3659
  949SOL     OW 2845   0.644   0.290   2.573  0.2620  0.0415  0.5360
  949SOL    HW1 2846   0.614   0.386   2.596 -1.6266  0.2992  0.8559
  949SOL    HW2 2847   0.738   0.296   2.529  0.1365  2.4541  2.8261
  950SOL     OW 2848   0.083   0.456   1.356 -0.7155 -0.4255 -0.3784
  950SOL    HW1 2849   0.015   0.381   1.341 -3.3846 -1.3578  0.4361
  950SOL    HW2 2850   0.076   0.495   1.451  0.9070 -0.9549  1.6017
  951SOL     OW 2851   0.200   1.088   2.777 -0.6144  0.2371 -0.0669
  951SOL    HW1 2852   0.099   1.083   2.759 -2.1376  0.2820 -1.6356
  951SOL    HW2 2853   0.225   1.036   2.861  0.6430  1.1150 -2.8456
  952SOL     OW 2854   1.937   2.226   1.686  0.1089  0.0358 -0.8582
  952SOL    HW1 2855   1.941   2.138   1.633  2.4594  1.3202  0.8886
  952SOL    HW2 2856   2.030   2.255   1.714  0.0659  2.8470 -0.5395
  953SOL     OW 2857   0.371   2.569   0.017  0.3864 -0.1186 -0.1706
  953SOL    HW1 2858   0.422   2.508   3.034  0.7756  2.3745 -0.8637
  953SOL    HW2 2859   0.402   2.545   0.110  1.2824  1.5546  1.0986
  954SOL     OW 2860   2.459   0.707   1.003 -0.3778 -0.3851  0.3488
  954SOL    HW1 2861   2.525   0.736   0.928  1.2094 -0.2643 -1.8307
  954SOL    HW2 2862   2.502   0.717   1.095  0.9303 -1.6540  2.4998
  955SOL     OW 2863   1.300   1.299   0.172  0.0510  0.0774 -0.2524
  955SOL    HW1 2864   1.347   1.347   0.094 -3.0216 -0.7174 -1.5244
  955SOL    HW2 2865   1.209   1.266   0.139 -0.8493  4.0032  2.0102
  956SOL     OW 2866   0.907   0.718   2.279  0.3847 -0.7188  0.2840
  956SOL    HW1 2867   0.899   0.813   2.240 -0.3735  2.2038 -1.6942
  956SOL    HW2 2868   0.987   0.706   2.333 -4.9166 -1.3661 -2.6403
  957SOL     OW 2869   0.623   0.263   2.179 -0.5383  0.2067 -0.7370
  957SOL    HW1 2870   0.668   0.202   2.246  1.6944 -0.2892  0.8751
  957SOL    HW2 2871   0.522   0.273   2.201 -0.9879 -0.6709  1.0756
  958SOL     OW 2872   0.909   2.015   0.813 -0.3362 -0.0963  0.6660
  958SOL    HW1 2873   0.926   1.959   0.894 -1.3379  0.1719 -0.0709
  958SOL    HW2 2874   0.807   2.024   0.802 -0.6973  0.1377 -1.3472
  959SOL     OW 2875   2.505   0.828   2.050  0.2227  0.1575 -0.2691
  959SOL    HW1 2876   2.427   0.768   2.023  0.3574  2.6215  1.7150
  959SOL    HW2 2877   2.514   0.830   2.152 -0.4383  0.7815 -3.3000
  960SOL     OW 2878   0.235   1.281   2.559  0.2599  0.3005 -0.5692
  960SOL    HW1 2879   0.138   1.299   2.524  0.2867  0.5869  1.3630
  960SOL    HW2 2880   0.242   1.204   2.624  1.5659 -1.0225 -0.5612
  961SOL     OW 2881   0.911   1.588   0.587 -0.1673 -0.2371  0.8540
  961SOL    HW1 2882   0.896   1.680   0.551  2.1513 -3.6319 -2.0359
  961SOL    HW2 2883   0.891   1.581   0.691 -0.4097  0.4383  2.3244
  962SOL     OW 2884   0.479   1.398   1.075  0.3408  0.4344  0.5540
  962SOL    HW1 2885   0.392   1.343   1.075 -2.5440  1.7550  0.9466
  962SOL    HW2 2886   0.468   1.495   1.102 -0.6757  1.1175  0.2412
  963SOL     OW 2887   1.353   2.207   0.186  0.0775  0.1778 -0.1052
  963SOL    HW1 2888   1.296   2.200   0.105  2.4795  3.4810  2.2968
  963SOL    HW2 2889   1.297   2.212   0.271  2.2770  1.3671  0.9510
  964SOL     OW 2890   0.253   2.738   2.755 -0.1919 -0.0938  0.2948
  964SOL    HW1 2891   0.352   2.740   2.750 -1.9654 -1.6906  0.1806
  964SOL    HW2 2892   0.224   2.642   2.751  2.4148  3.4043  0.2002
  965SOL     OW 2893   2.860   1.762   3.002 -0.7006 -0.5159 -0.3865
  965SOL    HW1 2894   2.816   1.693   3.060  1.3370 -0.0621 -2.6832
  965SOL    HW2 2895   2.925   1.818   3.050 -2.9739  0.0653  0.1130
  966SOL     OW 2896   2.606   1.338   2.507  0.7235 -0.3623 -0.5537
  966SOL    HW1 2897   2.561   1.405   2.443  1.3857  0.6269  0.5882
  966SOL    HW2 2898   2.544   1.275   2.552  0.1618 -1.1680  1.5468
  967SOL     OW 2899   1.633   0.341   0.453 -0.5672 -0.6540  0.5467
  967SOL    HW1 2900   1.701   0.299   0.389 -0.9216  1.9872 -0.8812
  967SOL    HW2 2901   1.677   0.421   0.502 -1.2354 -0.3229  0.0628
  968SOL     OW 2902   2.648   2.982   0.425 -0.2234 -0.3591  0.2088
  968SOL    HW1 2903   2.747   2.979   0.445  1.2158  0.1399  3.5211
  968SOL    HW2 2904   2.603   3.056   0.479 -0.4725  2.4473 -0.1616
  969SOL     OW 2905   0.427   0.908   2.400 -0.1358  0.3518  0.0426
  969SOL    HW1 2906   0.366   0.888   2.324  1.7363 -0.0980 -1.7254
  969SOL    HW2 2907   0.474   0.997   2.396  1.0838  1.4116  0.0359
  970SOL     OW 2908   2.122   1.772   2.663  0.0649  0.1795  0.0435
  970SOL    HW1 2909   2.157   1.847   2.723 -0.5014 -2.5926  0.4601
  970SOL    HW2 2910   2.152   1.685   2.703  0.5515  0.9740 -0.4587
  971SOL     OW 2911   2.863   0.008   2.014  0.3798  0.0268 -0.0527
  971SOL    HW1 2912   2.909   0.097   2.004 -0.3225  0.9852  1.2880
  971SOL    HW2 2913   2.764   0.007   1.987 -2.3178 -1.2777  0.1589
  972SOL     OW 2914   3.032   0.700   0.715 -0.2898  0.2232  0.0149
  972SOL    HW1 2915   0.039   0.701   0.769 -0.4449 -0.0854 -2.9345
  972SOL    HW2 2916   2.999   0.793   0.710 -0.6780  0.6563 -3.0578
  973SOL     OW 2917   2.735   3.073   2.370 -0.1900  0.4265 -0.2524
  973SOL    HW1 2918   2.784   3.006   2.307  1.0915 -1.5004 -2.4262
  973SOL    HW2 2919   2.770   0.090   2.361  1.2930 -0.5395  1.6116
  974SOL     OW 2920   2.907   0.834   1.406  0.2333 -0.2582 -0.5581
  974SOL    HW1 2921   2.844   0.869   1.336 -2.9019 -2.4546 -2.0082
  974SOL    HW2 2922   2.978   0.775   1.360  0.6254  0.4389 -0.1856
  975SOL     OW 2923   1.370   2.802   2.499  0.1490 -0.0232 -0.7787
  975SOL    HW1 2924   1.370   2.900   2.529  2.3129 -0.6878 -1.2041
  975SOL    HW2 2925   1.372   2.800   2.398  0.4385  0.1789 -1.9889
  976SOL     OW 2926   2.017   1.262   1.679 -0.3039  0.7003 -0.0513
  976SOL    HW1 2927   2.043   1.272   1.581 -0.3494 -0.7388 -0.8478
  976SOL    HW2 2928   2.066   1.178   1.714  0.0542 -2.1553 -2.5552
  977SOL     OW 2929   2.683   2.804   0.226 -0.0717 -0.3207  0.0115
  977SOL    HW1 2930   2.656   2.712   0.254  2.0725 -1.0688 -2.3700
  977SOL    HW2 2931   2.687   2.868   0.303 -1.6133 -1.6137 -0.7276
  978SOL     OW 2932   1.989   1.082   2.119 -0.6215 -0.1293  0.3116
  978SOL    HW1 2933   2.080   1.070   2.075 -1.7591  1.7131  0.2238
  978SOL    HW2 2934   1.931   0.998   2.115 -1.0611 -1.2394  1.2168
  979SOL     OW 2935   0.731   1.150   2.393 -0.6206 -0.3552 -0.4001
  979SOL    HW1 2936   0.726   1.199   2.304 -0.6549  1.0255 -1.3790
  979SOL    HW2 2937   0.670   1.196   2.460  0.5401  0.7953  1.6314
  980SOL     OW 2938   1.645   1.869   2.670 -0.2005 -0.1025  0.0410
  980SOL    HW1 2939   1.579   1.798   2.695  2.5274 -1.3444  0.7466
  980SOL    HW2 2940   1.724   1.829   2.622 -0.8382  0.1728  0.1541
  981SOL     OW 2941   0.988   0.563   1.748 -0.0134  0.1305  0.6248
  981SOL    HW1 2942   1.022   0.598   1.661 -2.7494  1.2449  0.9651
  981SOL    HW2 2943   0.914   0.488   1.737 -1.6225  0.4480 -0.0072
  982SOL     OW 2944   1.017   0.124   2.976  0.4209 -0.5617 -0.3916
  982SOL    HW1 2945   1.025   0.189   2.897  0.8128  2.7779 -2.0210
  982SOL    HW2 2946   0.942   0.058   2.953  0.5063 -0.1155 -3.9720
  983SOL     OW 2947   2.286   0.946   0.147  0.1446 -0.0776 -0.0405
  983SOL    HW1 2948   2.321   0.944   0.053 -0.9993  0.8183 -0.9443
  983SOL    HW2 2949   2.337   1.005   0.214 -0.2597 -2.3766  0.2356
  984SOL     OW 2950   1.241   0.457   0.056 -0.7621 -0.2160  0.1904
  984SOL    HW1 2951   1.293   0.445   0.145  0.1297 -0.6470  2.1157
  984SOL    HW2 2952   1.259   0.378   3.074 -1.0734 -0.1756  0.9345
  985SOL     OW 2953   1.151   2.486   1.961  0.4524  0.1387  0.0972
  985SOL    HW1 2954   1.089   2.503   1.881 -0.7594  1.0904 -0.3559
  985SOL    HW2 2955   1.246   2.515   1.932  1.9365  2.3720 -3.7892
  986SOL     OW 2956   2.328   3.046   1.940 -0.1356  0.1297  0.1394
  986SOL    HW1 2957   2.310   0.063   1.952 -0.4187 -3.2339 -2.1734
  986SOL    HW2 2958   2.245   3.002   1.902  1.0659  0.8191 -1.1997
  987SOL     OW 2959   2.218   1.422   1.104  0.5089  0.2715  0.6333
  987SOL    HW1 2960   2.299   1.368   1.078  1.2618  1.0981  3.1980
  987SOL    HW2 2961   2.138   1.369   1.085  2.4080 -0.3245 -0.1071
  988SOL     OW 2962   2.497   0.908   1.749  0.0130 -0.8361 -0.5702
  988SOL    HW1 2963   2.579   0.870   1.789 -0.8333  0.7235 -1.6051
  988SOL    HW2 2964   2.453   0.968   1.821 -1.5847 -1.3302  1.3533
  989SOL     OW 2965   2.029   2.204   0.142 -0.2513 -0.3359  0.1512
  989SOL    HW1 2966   1.942   2.170   0.105 -0.3841 -1.8401 -1.3013
  989SOL    HW2 2967   2.093   2.125   0.152  1.0595 -0.2056 -0.7494
  990SOL     OW 2968   1.259   0.480   2.083  0.6228  0.1816 -0.0075
  990SOL    HW1 2969   1.323   0.527   2.146 -1.3975  0.2524  1.8991
  990SOL    HW2 2970   1.294   0.391   2.052 -0.4610 -1.5952  0.3022
  991SOL     OW 2971   1.356   1.143   0.376  0.3640 -0.0395 -0.1095
  991SOL    HW1 2972   1.439   1.186   0.414 -2.8348 -0.5360 -2.2228
  991SOL    HW2 2973   1.332   1.189   0.285  1.4971  1.4374 -1.9974
  992SOL     OW 2974   0.135   0.794   1.597  0.3558 -0.2307  0.1487
  992SOL    HW1 2975   0.167   0.828   1.506 -0.0663 -2.0471  3.7933
  992SOL    HW2 2976   0.119   0.690   1.601  3.4900 -2.7676  1.3827
  993SOL     OW 2977   2.403   0.108   2.339 -0.7438 -0.2902 -0.3929
  993SOL    HW1 2978   2.305   0.136   2.333 -0.4709  1.1454 -1.4469
  993SOL    HW2 2979   2.414   0.011   2.311 -0.2421 -1.4655 -1.5524
  994SOL     OW 2980   1.528   1.906   1.766  0.9713  0.6374 -0.2070
  994SOL    HW1 2981   1.565   1.809   1.757  1.4821 -1.1151  0.4124
  994SOL    HW2 2982   1.606   1.968   1.794  2.5546 -1.4802  0.9841
  995SOL     OW 2983   2.604   1.847   2.907 -0.7355  0.1946 -0.2323
  995SOL    HW1 2984   2.541   1.779   2.950 -1.4582  0.4277 -0.4366
  995SOL    HW2 2985   2.706   1.824   2.920  3.9236 -0.9043  0.9574
  996SOL     OW 2986   2.409   1.682   3.002  0.0896 -0.6538  0.1640
  996SOL    HW1 2987   2.360   1.609   3.054  1.9810 -1.0811 -0.5642
  996SOL    HW2 2988   2.402   1.659   2.900 -1.2754  1.9317 -2.1456
  997SOL     OW 2989   1.500   0.582   2.206 -0.4177  0.2243 -1.0587
  997SOL    HW1 2990   1.550   0.635   2.135  1.1067  0.6341  1.1987
  997SOL    HW2 2991   1.464   0.644   2.280  0.5848  2.2516  1.2622
  998SOL     OW 2992   2.641   0.442   0.724  0.0216 -0.4374  0.1925
  998SOL    HW1 2993   2.726   0.388   0.692  0.6096 -1.8431 -0.6411
  998SOL    HW2 2994   2.602   0.405   0.811 -2.9700  2.3916 -0.1082
  999SOL     OW 2995   2.874   1.395   0.887 -0.3815 -0.1396  0.1734
  999SOL    HW1 2996   2.897   1.474   0.943 -0.6193 -1.2495 -2.4200
  999SOL    HW2 2997   2.936   1.397   0.805 -0.0352  2.0868 -1.0934
 1000SOL     OW 2998   0.535   1.406   1.969  0.0424 -0.0139 -0.0409
 1000SOL    HW1 2999   0.617   1.388   1.909  0.3792 -0.1327 -1.0785
 1000SOL    HW2 3000   0.453   1.436   1.922  0.6013 -0.5482 -0.0954
   3.07974   3.07974   3.07974
