1000 SPC/Fw water molecules t= 489.00000 step= 489000
 3000
    1SOL     OW    1   2.614   2.954   1.415 -0.0916 -0.3368 -0.2890
    1SOL    HW1    2   2.689   3.024   1.417 -0.4266 -1.2602 -0.3310
    1SOL    HW2    3   2.525   2.989   1.457 -0.1698  0.6079  0.0797
    2SOL     OW    4   2.981   2.706   2.901 -0.2974 -0.0137 -0.3433
    2SOL    HW1    5   2.882   2.719   2.878  2.7407  2.8350  0.1223
    2SOL    HW2    6   2.999   2.614   2.938 -0.9390  1.3386 -0.8517
    3SOL     OW    7   0.887   1.934   0.181  0.1157  0.0178 -0.8036
    3SOL    HW1    8   0.797   1.957   0.140  0.4453  1.4804 -3.1162
    3SOL    HW2    9   0.945   2.016   0.195 -1.5556 -0.2090  2.6236
    4SOL     OW   10   1.343   2.736   2.248  0.3251  0.4836  0.2975
    4SOL    HW1   11   1.434   2.707   2.274 -1.2660  1.1791  0.7309
    4SOL    HW2   12   1.299   2.789   2.324  1.7041 -0.5556 -0.0848
    5SOL     OW   13   1.983   0.136   3.001  0.4107 -0.1194 -0.1612
    5SOL    HW1   14   1.975   0.045   2.960 -1.0963  1.4950  0.8499
    5SOL    HW2   15   2.005   0.136   0.017 -1.6480  1.0057 -1.8699
    6SOL     OW   16   0.032   1.474   0.841  0.2672  0.2719  0.1487
    6SOL    HW1   17   0.025   1.485   0.944  0.0959 -0.1357 -2.7127
    6SOL    HW2   18   0.127   1.445   0.814  2.7102  1.5497 -0.0835
    7SOL     OW   19   1.039   1.834   0.573  0.0909 -0.3235 -0.2607
    7SOL    HW1   20   1.021   1.766   0.502 -1.2779  1.6725 -0.6067
    7SOL    HW2   21   1.073   1.786   0.659 -0.7817  0.7783 -0.7281
    8SOL     OW   22   0.578   0.551   0.385 -0.2489 -0.3097  0.2960
    8SOL    HW1   23   0.612   0.459   0.418  2.4971  0.9641  1.2037
    8SOL    HW2   24   0.475   0.554   0.378  0.5721  0.7410 -0.2146
    9SOL     OW   25   0.149   2.570   1.651 -0.2320 -0.1854 -0.6698
    9SOL    HW1   26   0.234   2.626   1.677 -0.3762  1.1499  1.7492
    9SOL    HW2   27   0.127   2.577   1.551 -1.3249 -0.1581 -1.1989
   10SOL     OW   28   1.455   1.695   0.354  0.6071  0.3889  0.1868
   10SOL    HW1   29   1.427   1.736   0.265 -0.3264 -2.6019 -0.1427
   10SOL    HW2   30   1.489   1.770   0.412 -2.1654  0.6524 -2.1723
   11SOL     OW   31   1.913   0.473   1.545  0.3707 -0.5631 -0.3542
   11SOL    HW1   32   1.858   0.444   1.629 -1.7488 -0.8814  0.0706
   11SOL    HW2   33   1.859   0.502   1.462  0.8185  1.6579 -0.2488
   12SOL     OW   34   0.407   0.804   2.151 -0.0712  0.1208  0.3241
   12SOL    HW1   35   0.505   0.826   2.139 -0.7582  0.2524  2.5344
   12SOL    HW2   36   0.405   0.712   2.194  0.1653  0.9305 -2.8454
   13SOL     OW   37   2.059   0.282   0.479 -0.3830  0.0567 -0.3210
   13SOL    HW1   38   1.997   0.214   0.512  4.5443  0.7503 -1.2652
   13SOL    HW2   39   2.008   0.339   0.410  0.2699 -0.3873 -1.0051
   14SOL     OW   40   2.425   2.190   2.990 -0.2043  0.3002 -0.5032
   14SOL    HW1   41   2.325   2.187   3.018 -1.7938  1.1574  0.5078
   14SOL    HW2   42   2.461   2.092   2.990 -2.2102 -2.2950 -1.7964
   15SOL     OW   43   2.369   3.008   2.575 -0.1949 -0.5397  0.2751
   15SOL    HW1   44   2.408   2.921   2.607  1.2334  0.3197 -0.1983
   15SOL    HW2   45   2.382   0.000   2.642 -1.5278  3.5456  0.8451
   16SOL     OW   46   3.077   0.441   1.096 -0.0629  0.5290  0.0630
   16SOL    HW1   47   0.086   0.461   1.058  0.0953 -2.8270  0.9033
   16SOL    HW2   48   3.001   0.503   1.066 -0.8341 -0.4122 -2.0255
   17SOL     OW   49   0.577   0.369   1.086  0.3606  0.3861 -0.5049
   17SOL    HW1   50   0.573   0.427   1.006  0.6868 -0.2532 -0.2189
   17SOL    HW2   51   0.498   0.301   1.085  0.1088  1.6372 -0.3461
   18SOL     OW   52   3.025   0.215   0.712 -0.1968 -0.3719 -0.2738
   18SOL    HW1   53   3.023   0.112   0.688 -1.2533 -4.8649 -0.9591
   18SOL    HW2   54   0.022   0.269   0.680 -1.8460  2.6614  1.8530
   19SOL     OW   55   1.975   1.825   0.904 -0.2238 -0.3131  0.2986
   19SOL    HW1   56   2.013   1.910   0.866  1.2435 -1.5517  1.4385
   19SOL    HW2   57   1.985   1.743   0.839 -2.7827 -2.6282 -0.2258
   20SOL     OW   58   2.096   1.559   2.236 -0.2508 -0.1124  0.3546
   20SOL    HW1   59   2.002   1.537   2.259  1.2985  1.1338 -1.1826
   20SOL    HW2   60   2.116   1.661   2.228 -0.8585  3.8779 -3.4796
   21SOL     OW   61   1.297   0.235   0.395 -0.0607 -0.2413 -0.2493
   21SOL    HW1   62   1.265   0.203   0.303  1.9884  0.6791 -0.9153
   21SOL    HW2   63   1.398   0.231   0.399 -0.5186  1.8542 -0.7760
   22SOL     OW   64   2.424   0.893   3.055 -0.1486 -0.7350  0.0472
   22SOL    HW1   65   2.526   0.885   3.068  1.5407 -0.0360  0.9013
   22SOL    HW2   66   2.407   0.910   2.958 -1.2441  0.9038 -0.6896
   23SOL     OW   67   0.288   0.277   2.319 -0.4224  0.2699 -0.1213
   23SOL    HW1   68   0.270   0.184   2.275 -0.9001 -2.1798 -1.3930
   23SOL    HW2   69   0.382   0.289   2.351 -1.0166  0.0788  1.6061
   24SOL     OW   70   2.114   2.355   0.827 -0.2511 -0.1373  0.0392
   24SOL    HW1   71   2.178   2.370   0.907 -0.4610 -0.4282  1.4818
   24SOL    HW2   72   2.028   2.316   0.868  0.8973 -1.9022 -0.2941
   25SOL     OW   73   1.577   0.296   0.105  0.1738  0.2737  0.0395
   25SOL    HW1   74   1.614   0.206   0.093  0.5544  2.4325 -0.0129
   25SOL    HW2   75   1.652   0.352   0.067 -0.2062 -1.5120  3.1925
   26SOL     OW   76   1.054   2.776   2.672 -0.6824 -0.0464 -0.2844
   26SOL    HW1   77   1.033   2.874   2.678  0.6292 -1.1988  0.4643
   26SOL    HW2   78   1.088   2.743   2.763  1.0329  0.1898  1.2507
   27SOL     OW   79   0.834   0.769   1.437 -0.2253 -0.0848  0.3965
   27SOL    HW1   80   0.825   0.670   1.426  0.5635 -1.5591  0.9982
   27SOL    HW2   81   0.865   0.806   1.350 -1.0329  0.2360  1.2807
   28SOL     OW   82   0.722   1.996   1.366 -0.5560 -0.4121 -0.5456
   28SOL    HW1   83   0.725   1.940   1.280  0.1811  0.2035 -0.5773
   28SOL    HW2   84   0.761   1.961   1.455 -1.2022  0.4738 -0.0715
   29SOL     OW   85   2.712   0.407   0.961 -0.0958 -0.2678  0.5916
   29SOL    HW1   86   2.712   0.364   1.054 -2.3397 -0.5355 -1.6095
   29SOL    HW2   87   2.718   0.511   0.960  1.5267  0.0394  0.6299
   30SOL     OW   88   1.468   0.165   1.649  0.0267  0.5006 -0.1201
   30SOL    HW1   89   1.481   0.070   1.683  1.2157 -0.8214 -2.6789
   30SOL    HW2   90   1.373   0.198   1.629 -1.2417  2.3713 -0.3223
   31SOL     OW   91   1.140   0.132   1.252 -0.2538 -0.1899 -0.0428
   31SOL    HW1   92   1.211   0.121   1.176 -0.5329 -0.4717 -1.7134
   31SOL    HW2   93   1.070   0.061   1.241 -0.2424  2.6357 -2.0881
   32SOL     OW   94   2.256   1.112   2.135  0.2536 -0.4428 -0.1545
   32SOL    HW1   95   2.298   1.204   2.135  3.9343  0.9642  1.0643
   32SOL    HW2   96   2.202   1.093   2.048  3.3632  0.4036  2.5481
   33SOL     OW   97   2.444   2.765   2.676 -0.1806  0.3684  0.2957
   33SOL    HW1   98   2.415   2.671   2.649 -3.9667  0.4824  1.4692
   33SOL    HW2   99   2.526   2.795   2.623  0.3458 -2.0179 -0.2435
   34SOL     OW  100   2.074   1.087   0.020 -0.0863 -0.5038 -0.4196
   34SOL    HW1  101   2.060   1.095   0.120 -0.0631  0.0753  2.4738
   34SOL    HW2  102   2.176   1.105   0.006  2.7528  1.4236  0.9897
   35SOL     OW  103   2.976   1.092   1.184 -0.5741 -0.4378  0.0229
   35SOL    HW1  104   2.992   1.110   1.083  2.2295  1.2437  0.4117
   35SOL    HW2  105   2.885   1.045   1.195 -1.5354  0.8306  0.7399
   36SOL     OW  106   2.331   2.491   2.790  0.0491  0.1854  0.3206
   36SOL    HW1  107   2.233   2.477   2.818 -1.6993 -0.3610  0.9077
   36SOL    HW2  108   2.338   2.502   2.689 -1.3530  2.3497 -0.1141
   37SOL     OW  109   1.772   0.107   1.969 -0.1870 -0.5210  0.1807
   37SOL    HW1  110   1.795   0.095   1.872  1.9997  1.7201  2.6734
   37SOL    HW2  111   1.837   0.168   2.017  2.6324  1.9273 -1.6042
   38SOL     OW  112   1.295   1.611   2.195  0.2641 -0.1314 -0.6400
   38SOL    HW1  113   1.247   1.703   2.191 -1.8081  0.5633  1.8500
   38SOL    HW2  114   1.298   1.571   2.104 -0.1609 -0.2143  0.2204
   39SOL     OW  115   1.668   0.236   1.478 -0.0322 -0.1994 -0.0823
   39SOL    HW1  116   1.656   0.292   1.394 -0.0218  1.3800  0.0598
   39SOL    HW2  117   1.584   0.224   1.536  1.2655  0.3966 -1.8617
   40SOL     OW  118   0.860   2.210   0.446 -0.2058  0.2515 -0.1685
   40SOL    HW1  119   0.847   2.106   0.442  1.4279  1.4098  0.3204
   40SOL    HW2  120   0.848   2.246   0.544 -2.9147 -1.1560 -0.1817
   41SOL     OW  121   2.272   2.219   1.243 -0.4870  0.7398  0.6074
   41SOL    HW1  122   2.258   2.294   1.176  1.8610 -0.9758  1.0065
   41SOL    HW2  123   2.367   2.233   1.278 -0.4213 -0.5170 -1.0076
   42SOL     OW  124   2.518   2.958   0.265 -0.1888  0.1238 -0.0515
   42SOL    HW1  125   2.565   3.047   0.240 -1.2898  1.0087  1.9883
   42SOL    HW2  126   2.570   2.909   0.333 -3.0038  1.4732  0.6346
   43SOL     OW  127   1.016   1.857   2.054 -0.2991 -0.1121 -0.4809
   43SOL    HW1  128   1.009   1.761   2.023  1.5344  0.1070  0.4544
   43SOL    HW2  129   1.087   1.855   2.134  1.3906  0.4304  1.5099
   44SOL     OW  130   1.748   2.974   1.078  0.1260 -0.2010 -0.5020
   44SOL    HW1  131   1.793   2.992   0.990  1.0938 -1.0562  1.6369
   44SOL    HW2  132   1.787   3.026   1.154 -2.7617 -1.3101 -0.6102
   45SOL     OW  133   0.044   2.176   2.460 -0.6162 -0.0337  0.1180
   45SOL    HW1  134   0.128   2.117   2.465  1.4216  2.2237  0.8649
   45SOL    HW2  135   0.001   2.188   2.553 -0.4047  1.5334  1.3326
   46SOL     OW  136   0.720   2.450   1.869  0.3145  0.6020 -0.2783
   46SOL    HW1  137   0.642   2.468   1.930  0.3831  0.8156  0.6814
   46SOL    HW2  138   0.797   2.512   1.899  0.2075 -0.4671  1.6437
   47SOL     OW  139   0.344   1.879   0.505 -0.2368 -0.2044 -0.0926
   47SOL    HW1  140   0.396   1.929   0.577 -0.9692  2.7617 -0.0726
   47SOL    HW2  141   0.394   1.848   0.419  0.2371 -2.4638 -0.4951
   48SOL     OW  142   0.737   2.862   1.510 -0.2369 -0.0175  0.1018
   48SOL    HW1  143   0.667   2.810   1.452 -2.4391 -1.1068 -1.2598
   48SOL    HW2  144   0.699   2.942   1.560 -2.5538  1.9511 -0.2131
   49SOL     OW  145   0.404   2.615   0.106 -0.0757 -0.4267 -0.3071
   49SOL    HW1  146   0.345   2.640   0.027  0.1380  1.4533 -0.8450
   49SOL    HW2  147   0.442   2.696   0.156  0.4673  1.1211 -0.5335
   50SOL     OW  148   1.626   1.121   0.741  0.0807  0.1791 -0.0769
   50SOL    HW1  149   1.563   1.038   0.767 -1.3554 -3.4342 -0.1891
   50SOL    HW2  150   1.710   1.135   0.797 -2.3582 -1.9474  2.6372
   51SOL     OW  151   1.788   2.913   0.789 -0.4619  0.1216 -0.3532
   51SOL    HW1  152   1.752   2.825   0.821 -0.7605 -3.7832  0.9831
   51SOL    HW2  153   1.720   2.944   0.714 -0.6492  3.3319 -0.2018
   52SOL     OW  154   0.649   1.615   0.942  0.1939 -0.5658 -0.3552
   52SOL    HW1  155   0.646   1.513   0.959 -1.6231  1.1356 -0.6361
   52SOL    HW2  156   0.554   1.650   0.960 -2.2992  1.3720  2.2291
   53SOL     OW  157   0.167   0.878   2.825  0.5078 -0.7125  0.1351
   53SOL    HW1  158   0.198   0.861   2.921 -1.1423 -0.7931  0.6564
   53SOL    HW2  159   0.100   0.813   2.791  0.3081  0.6421  1.5313
   54SOL     OW  160   2.069   2.052   2.794  0.1262  0.5609  0.0179
   54SOL    HW1  161   1.975   2.077   2.789  3.3503 -1.0241 -0.4353
   54SOL    HW2  162   2.085   1.964   2.845 -0.4049 -0.8486  1.0584
   55SOL     OW  163   2.518   2.254   1.323 -0.6174 -0.6770 -0.0370
   55SOL    HW1  164   2.582   2.331   1.334 -0.1991  0.5819 -0.3179
   55SOL    HW2  165   2.517   2.193   1.403  1.9352 -0.5922 -0.6248
   56SOL     OW  166   1.692   1.088   1.453  0.4914  0.3861  0.2784
   56SOL    HW1  167   1.755   1.148   1.514 -0.0121  0.1780  1.1172
   56SOL    HW2  168   1.644   1.144   1.386 -0.7114 -1.8619 -2.6560
   57SOL     OW  169   2.171   2.006   0.799  0.3780  0.4116 -0.0486
   57SOL    HW1  170   2.175   2.032   0.898  1.6751 -1.0653 -2.1697
   57SOL    HW2  171   2.194   2.092   0.748  2.5619  4.4424 -0.4163
   58SOL     OW  172   1.953   0.278   2.140 -1.3440  0.5716  0.6502
   58SOL    HW1  173   1.878   0.311   2.207 -0.0533  3.6941 -1.6736
   58SOL    HW2  174   1.957   0.344   2.060  1.4413  0.6193  0.7513
   59SOL     OW  175   1.438   0.105   2.584  0.1827  0.3658 -0.2299
   59SOL    HW1  176   1.488   0.055   2.659  1.5163  0.8521  2.5552
   59SOL    HW2  177   1.398   0.037   2.521  0.6185  0.0581  0.8816
   60SOL     OW  178   1.668   1.879   0.099 -0.5749  0.1550 -0.1376
   60SOL    HW1  179   1.597   1.854   0.165  0.7256  0.2873  1.2455
   60SOL    HW2  180   1.629   1.952   0.038 -0.8394 -0.2627 -0.2602
   61SOL     OW  181   0.520   1.968   2.970 -0.6826  0.0823  0.1660
   61SOL    HW1  182   0.556   1.878   2.940 -0.7267  3.7118  0.6122
   61SOL    HW2  183   0.416   1.970   2.960 -1.8587  3.1059  0.8601
   62SOL     OW  184   1.400   2.406   1.364  0.0861  0.2133 -0.1984
   62SOL    HW1  185   1.341   2.488   1.360  0.2453  2.0368 -1.3899
   62SOL    HW2  186   1.380   2.344   1.444  1.6948  1.8067  0.5215
   63SOL     OW  187   0.739   1.948   0.454  0.1351  0.1658  0.0039
   63SOL    HW1  188   0.727   1.874   0.522 -2.5121 -0.5317 -0.2709
   63SOL    HW2  189   0.765   1.904   0.365 -0.0002  1.0411 -1.0770
   64SOL     OW  190   1.805   1.813   2.455 -0.2439  0.1445 -0.3859
   64SOL    HW1  191   1.826   1.773   2.547  0.9252  1.5544  2.8088
   64SOL    HW2  192   1.835   1.908   2.454  2.3471  0.4234 -0.5583
   65SOL     OW  193   1.924   2.052   1.146 -0.5640  0.4389 -0.0017
   65SOL    HW1  194   1.869   1.967   1.135  2.2142  0.1896 -0.1003
   65SOL    HW2  195   1.888   2.117   1.211  2.2075 -1.3611  2.7112
   66SOL     OW  196   2.776   0.315   0.714  0.2950 -0.1549 -0.7108
   66SOL    HW1  197   2.869   0.268   0.702  1.2340  1.5461 -1.6672
   66SOL    HW2  198   2.765   0.353   0.807  1.4059 -1.3791  1.1928
   67SOL     OW  199   2.053   2.653   1.116  0.0389  0.5537 -0.5299
   67SOL    HW1  200   1.953   2.639   1.112  1.4060 -2.3337 -0.0113
   67SOL    HW2  201   2.072   2.728   1.051 -1.0318 -2.2678 -1.2647
   68SOL     OW  202   2.624   2.472   1.610 -0.0773  0.2663  0.0087
   68SOL    HW1  203   2.531   2.432   1.587 -1.0264  0.0156 -0.4679
   68SOL    HW2  204   2.632   2.506   1.711  0.3501  1.1838  0.2639
   69SOL     OW  205   2.702   2.721   2.827  0.1702  0.6082 -0.0063
   69SOL    HW1  206   2.644   2.799   2.793  1.5512 -2.0837  0.9840
   69SOL    HW2  207   2.678   2.689   2.918 -0.5229  2.2457 -1.9926
   70SOL     OW  208   1.220   1.885   2.235  0.1621 -0.1309 -0.4513
   70SOL    HW1  209   1.190   1.983   2.256  0.1909  0.1917  2.5616
   70SOL    HW2  210   1.319   1.892   2.243 -2.4205  3.2589 -0.6125
   71SOL     OW  211   0.994   2.071   1.807 -0.1227  0.4671  0.5126
   71SOL    HW1  212   1.002   2.032   1.899  0.5198  0.9924 -1.4236
   71SOL    HW2  213   0.910   2.129   1.800  1.9412  0.6648 -0.2120
   72SOL     OW  214   2.583   1.187   1.399 -0.5581  0.5802  0.0768
   72SOL    HW1  215   2.668   1.222   1.447  1.1495  1.5715 -2.2980
   72SOL    HW2  216   2.524   1.270   1.386  0.4607 -0.4605  1.1600
   73SOL     OW  217   0.726   2.143   2.572  0.3396 -0.2120  0.0429
   73SOL    HW1  218   0.715   2.222   2.507 -0.5721 -0.8852  0.7841
   73SOL    HW2  219   0.782   2.168   2.653 -0.2124 -0.8411 -2.8248
   74SOL     OW  220   0.962   0.059   2.488  0.1033 -0.2624 -0.0577
   74SOL    HW1  221   0.912   3.053   2.484  0.1130 -2.4188  1.0846
   74SOL    HW2  222   1.041   0.063   2.425 -1.9059 -0.4952 -1.0306
   75SOL     OW  223   0.789   3.060   0.782 -0.4524  0.7230  0.3189
   75SOL    HW1  224   0.793   2.965   0.829 -1.6362 -2.4197  0.7855
   75SOL    HW2  225   0.854   0.031   0.833  0.8737  0.2691 -0.1469
   76SOL     OW  226   0.511   1.086   2.621  0.0781 -0.1963  0.4521
   76SOL    HW1  227   0.571   1.121   2.692 -1.6365  0.7346 -2.4135
   76SOL    HW2  228   0.417   1.104   2.650  1.8735 -1.8110 -0.9355
   77SOL     OW  229   0.478   2.559   0.487 -0.2232 -0.3167  0.3475
   77SOL    HW1  230   0.438   2.470   0.470  0.2185  0.8186 -1.4588
   77SOL    HW2  231   0.568   2.571   0.438 -2.1946 -0.6630 -0.0676
   78SOL     OW  232   2.504   1.043   2.570  0.6583  0.6163  0.4363
   78SOL    HW1  233   2.458   1.089   2.492 -0.8523 -1.0580 -2.7851
   78SOL    HW2  234   2.483   0.945   2.573  0.5317 -0.8001 -0.3544
   79SOL     OW  235   1.096   1.345   2.365  0.6817 -0.0313 -0.2578
   79SOL    HW1  236   1.132   1.434   2.349 -1.5792 -4.7393 -1.7427
   79SOL    HW2  237   1.005   1.354   2.409  0.5436  1.7263  1.0519
   80SOL     OW  238   2.056   0.944   1.516 -0.0351  0.0238 -0.4046
   80SOL    HW1  239   2.003   0.995   1.446 -1.8952 -2.7614 -0.1802
   80SOL    HW2  240   2.157   0.968   1.514 -0.7208  0.7463  0.4725
   81SOL     OW  241   2.361   0.999   2.806 -0.5482 -0.4186 -0.2565
   81SOL    HW1  242   2.272   1.040   2.777 -1.5321  0.8197 -1.9914
   81SOL    HW2  243   2.428   1.016   2.729  0.5279 -1.0754 -1.3984
   82SOL     OW  244   2.202   1.994   1.562 -0.0859  0.8257  0.0678
   82SOL    HW1  245   2.116   1.991   1.517  0.1490 -0.2102  2.5145
   82SOL    HW2  246   2.195   1.952   1.654 -0.9619  2.5893 -0.5791
   83SOL     OW  247   1.639   2.833   0.287 -0.0645 -0.2857 -0.1800
   83SOL    HW1  248   1.545   2.876   0.286 -0.4886 -0.4014  0.4295
   83SOL    HW2  249   1.662   2.765   0.214 -2.8372 -2.9140  2.0205
   84SOL     OW  250   0.946   0.682   0.633  0.1324  0.3672  0.3238
   84SOL    HW1  251   0.968   0.588   0.658  1.5663  0.0415 -2.0747
   84SOL    HW2  252   0.992   0.741   0.704  3.1755  2.6514  1.8355
   85SOL     OW  253   2.196   1.638   1.307  0.8279 -0.3971 -0.0900
   85SOL    HW1  254   2.195   1.588   1.218 -0.5491  0.1371 -3.4731
   85SOL    HW2  255   2.276   1.699   1.306  0.9976  1.0396 -1.9809
   86SOL     OW  256   0.554   0.746   1.163  0.4567 -0.1993  0.3382
   86SOL    HW1  257   0.532   0.839   1.130 -0.7287 -1.8514 -0.3162
   86SOL    HW2  258   0.562   0.728   1.261 -1.0217  0.1484 -0.6777
   87SOL     OW  259   3.040   1.835   2.505 -0.1375 -0.0013  0.9289
   87SOL    HW1  260   2.969   1.767   2.472 -1.9416  0.8490 -1.3242
   87SOL    HW2  261   0.039   1.829   2.445  2.3748  2.8872  1.8385
   88SOL     OW  262   0.394   0.059   0.014 -0.9042 -0.2561 -0.2795
   88SOL    HW1  263   0.494   0.055   0.031  0.4844  0.7023 -2.9864
   88SOL    HW2  264   0.377   0.006   3.013 -1.8086  1.3817 -2.0867
   89SOL     OW  265   1.500   0.678   1.277  0.3279  0.7955  0.2797
   89SOL    HW1  266   1.592   0.706   1.302 -0.7246 -1.4426 -2.9716
   89SOL    HW2  267   1.455   0.617   1.349 -1.5787 -0.5801  0.0742
   90SOL     OW  268   2.873   1.007   2.003 -0.4355  0.2508 -0.0121
   90SOL    HW1  269   2.801   1.018   1.930 -0.8103  0.1508 -1.0089
   90SOL    HW2  270   2.947   0.944   1.975  1.0990  0.4627  1.1902
   91SOL     OW  271   1.662   2.682   0.847  0.3584  0.4699 -0.0420
   91SOL    HW1  272   1.648   2.588   0.814  0.2006  1.1598  2.2495
   91SOL    HW2  273   1.729   2.689   0.924 -1.9789  0.6907 -0.9382
   92SOL     OW  274   1.859   2.113   0.675  0.0747  0.1814 -0.0969
   92SOL    HW1  275   1.952   2.115   0.631  0.1060  1.4872  0.9248
   92SOL    HW2  276   1.778   2.121   0.610  0.0102 -0.3685 -1.1391
   93SOL     OW  277   0.319   1.320   0.296 -0.1764  0.0043  0.4205
   93SOL    HW1  278   0.307   1.389   0.373  1.4949 -0.9541  4.8479
   93SOL    HW2  279   0.379   1.248   0.333 -0.2261  1.3820 -0.2187
   94SOL     OW  280   0.811   2.215   1.031 -0.2196  0.6941  0.1701
   94SOL    HW1  281   0.909   2.244   1.012  3.2234 -0.9103 -0.9402
   94SOL    HW2  282   0.750   2.275   1.085 -1.0335 -2.5882  1.0919
   95SOL     OW  283   0.239   0.907   0.340 -0.0157 -0.0095 -0.1699
   95SOL    HW1  284   0.184   0.912   0.425 -0.1317 -3.2133 -0.6615
   95SOL    HW2  285   0.314   0.971   0.338 -1.1429 -0.0433 -1.7906
   96SOL     OW  286   0.953   2.609   1.944  0.1140  0.1326 -0.1669
   96SOL    HW1  287   1.033   2.669   1.946 -1.7184  1.1196  3.0518
   96SOL    HW2  288   0.959   2.526   2.006 -0.4383  0.2031  1.5732
   97SOL     OW  289   2.465   1.120   0.645  0.3455 -0.3279 -0.1188
   97SOL    HW1  290   2.396   1.167   0.710 -1.0503  0.5273 -1.5515
   97SOL    HW2  291   2.534   1.180   0.613 -0.7992 -1.5031 -1.5004
   98SOL     OW  292   0.161   1.816   1.913  0.4312  0.0357 -0.0984
   98SOL    HW1  293   0.140   1.763   1.830  1.0916 -0.9607 -0.8110
   98SOL    HW2  294   0.251   1.802   1.953 -2.4049  0.9814 -2.7095
   99SOL     OW  295   0.143   0.425   1.821  0.3017  0.0999  0.5419
   99SOL    HW1  296   0.217   0.476   1.771 -0.1726 -1.1063  1.8093
   99SOL    HW2  297   0.157   0.326   1.811  0.7917  0.8499  1.6869
  100SOL     OW  298   2.095   0.660   2.600 -0.1741 -0.1262  0.6125
  100SOL    HW1  299   2.151   0.580   2.630  2.1355  0.0153  0.7632
  100SOL    HW2  300   2.068   0.710   2.686  1.9868 -2.1156  0.9041
  101SOL     OW  301   1.131   0.542   2.034 -0.0371  0.3797  0.0463
  101SOL    HW1  302   1.163   0.527   2.128 -2.7584 -0.0759 -0.5736
  101SOL    HW2  303   1.173   0.473   1.973 -3.5861  1.6235  0.1515
  102SOL     OW  304   0.313   0.636   1.730  0.0302  0.0276 -0.0449
  102SOL    HW1  305   0.288   0.640   1.634  0.5964  1.0423  2.3568
  102SOL    HW2  306   0.297   0.728   1.762 -0.1500 -1.0487  0.2718
  103SOL     OW  307   0.541   0.770   0.011 -0.3513 -0.4729 -0.5346
  103SOL    HW1  308   0.567   0.685   0.062 -1.3349  2.4163 -2.8572
  103SOL    HW2  309   0.624   0.828   3.082  1.0413 -1.3435  0.2338
  104SOL     OW  310   0.483   2.706   1.965 -0.0443  0.1211 -0.4682
  104SOL    HW1  311   0.384   2.725   1.989 -1.2377 -1.2522 -3.5226
  104SOL    HW2  312   0.510   2.624   2.021  1.4030 -0.9818 -2.0571
  105SOL     OW  313   2.390   2.676   1.970 -0.2921  0.9082 -0.4971
  105SOL    HW1  314   2.441   2.763   1.976 -2.2615 -2.4259  1.9234
  105SOL    HW2  315   2.297   2.687   1.935  2.1373 -0.6181 -1.9491
  106SOL     OW  316   0.490   2.713   0.738 -0.4268  0.1847 -0.5616
  106SOL    HW1  317   0.500   2.805   0.699  1.0084  1.8138  1.7852
  106SOL    HW2  318   0.496   2.638   0.664  1.7288 -0.0955 -3.0893
  107SOL     OW  319   0.042   1.459   1.123  0.6065 -0.2038  0.0069
  107SOL    HW1  320   0.116   1.390   1.105 -1.3403  1.1486 -1.3919
  107SOL    HW2  321   3.064   1.429   1.197 -1.5583  0.9233  2.4824
  108SOL     OW  322   0.430   2.207   1.018 -0.1854  0.4886 -0.1428
  108SOL    HW1  323   0.393   2.257   0.936  0.3657 -0.7417 -3.6926
  108SOL    HW2  324   0.359   2.193   1.087 -0.2778 -0.4581  1.3052
  109SOL     OW  325   1.148   2.988   0.341 -0.1621 -0.0497 -0.0802
  109SOL    HW1  326   1.115   3.041   0.422 -1.1094 -0.1378  0.1117
  109SOL    HW2  327   1.250   3.001   0.322  1.0761  1.4314 -0.6181
  110SOL     OW  328   1.491   1.925   0.480 -0.4953  0.4731  0.2434
  110SOL    HW1  329   1.565   1.993   0.484 -0.1947  0.3527  1.7044
  110SOL    HW2  330   1.396   1.964   0.477  0.7231 -1.5079  0.3562
  111SOL     OW  331   1.713   2.676   2.005  0.3718 -0.0668  0.1620
  111SOL    HW1  332   1.779   2.606   2.048 -0.9498  0.7222 -1.9513
  111SOL    HW2  333   1.697   2.755   2.074  1.7995  0.5543 -0.0884
  112SOL     OW  334   1.965   2.664   2.890  0.0977 -0.2886  0.6351
  112SOL    HW1  335   1.994   2.659   2.791  2.6700  0.2643  0.4840
  112SOL    HW2  336   2.050   2.640   2.947  2.3202  0.0801  0.9786
  113SOL     OW  337   2.343   1.969   2.206  0.5339 -0.1039 -0.5850
  113SOL    HW1  338   2.409   1.989   2.274 -0.7658 -1.4845 -0.6402
  113SOL    HW2  339   2.379   1.960   2.114 -0.6419  0.4872  1.8075
  114SOL     OW  340   0.025   1.219   1.734 -0.6030 -0.0326 -0.2326
  114SOL    HW1  341   3.079   1.129   1.764 -3.2268 -1.8901 -2.2001
  114SOL    HW2  342   3.043   1.292   1.753 -0.8133 -1.3938  1.0022
  115SOL     OW  343   0.058   0.723   0.062 -0.4321  0.0082  0.2271
  115SOL    HW1  344   0.029   0.701   0.157 -0.1929  0.1662  0.1624
  115SOL    HW2  345   0.151   0.772   0.052  1.2181  1.5664 -1.8958
  116SOL     OW  346   2.806   0.464   0.128  0.4883 -0.2238  0.3242
  116SOL    HW1  347   2.812   0.504   0.039 -2.6607 -0.2271 -0.9183
  116SOL    HW2  348   2.808   0.360   0.123  1.6969 -0.2630 -0.5128
  117SOL     OW  349   2.835   2.810   0.643 -0.6520 -0.2650 -0.1036
  117SOL    HW1  350   2.856   2.713   0.618 -0.7663 -2.0008 -1.4271
  117SOL    HW2  351   2.813   2.814   0.739  1.6118 -1.1703 -1.8330
  118SOL     OW  352   0.988   2.408   2.123  0.0351  0.3592 -0.3784
  118SOL    HW1  353   1.073   2.376   2.068 -1.6334  1.6449  0.0640
  118SOL    HW2  354   0.940   2.328   2.170  2.8533 -1.5793  2.1458
  119SOL     OW  355   0.837   2.540   0.122  0.7279  0.1609 -0.1804
  119SOL    HW1  356   0.752   2.491   0.090 -0.4424 -0.0563  1.5853
  119SOL    HW2  357   0.917   2.492   0.087 -0.1642 -0.5620  0.1812
  120SOL     OW  358   1.473   1.002   0.192 -0.3474  0.4194  0.0398
  120SOL    HW1  359   1.540   0.948   0.250 -1.1897 -1.4622 -1.7058
  120SOL    HW2  360   1.531   1.035   0.114 -1.4508 -2.5345  2.1555
  121SOL     OW  361   1.248   1.146   1.118 -0.8211  0.2122  0.0538
  121SOL    HW1  362   1.302   1.092   1.185  1.1655  1.6356 -0.4193
  121SOL    HW2  363   1.309   1.173   1.038  1.8396  0.1933 -2.6101
  122SOL     OW  364   1.913   1.157   2.080 -0.3877 -0.0349 -0.1993
  122SOL    HW1  365   1.860   1.115   2.001 -0.8724  0.4812  0.3377
  122SOL    HW2  366   1.940   1.082   2.141  1.2503 -1.1354 -2.9941
  123SOL     OW  367   3.070   0.790   0.613  0.3025  0.6706  0.4685
  123SOL    HW1  368   0.024   0.884   0.594 -1.1121  1.5462 -3.4910
  123SOL    HW2  369   2.971   0.790   0.635  0.9342 -0.0639  0.2743
  124SOL     OW  370   0.718   0.358   2.869 -0.2051  0.3538 -0.2161
  124SOL    HW1  371   0.701   0.451   2.836 -1.3936 -3.1775  2.1610
  124SOL    HW2  372   0.715   0.357   2.971 -0.2026 -0.5300  3.2452
  125SOL     OW  373   0.501   2.793   2.859  0.9299  0.4879 -0.1948
  125SOL    HW1  374   0.461   2.699   2.863 -0.7867  1.5441  0.6990
  125SOL    HW2  375   0.425   2.863   2.874 -1.3593 -0.4325  1.0051
  126SOL     OW  376   0.857   1.366   2.625 -0.1589  0.5163 -0.2476
  126SOL    HW1  377   0.866   1.458   2.577 -0.1131  2.1330 -1.3095
  126SOL    HW2  378   0.935   1.350   2.692  0.7631 -0.8636 -1.8012
  127SOL     OW  379   0.994   2.888   1.048  0.0634 -0.2472  0.0703
  127SOL    HW1  380   0.974   2.970   1.102 -1.0919 -2.0320  0.8812
  127SOL    HW2  381   1.067   2.902   0.974  1.2373 -0.3922 -2.5975
  128SOL     OW  382   1.703   2.205   0.182 -0.4008  0.4043  0.0511
  128SOL    HW1  383   1.640   2.168   0.117 -0.0910  1.2976 -1.2091
  128SOL    HW2  384   1.672   2.298   0.215  0.4056 -1.4567  1.0633
  129SOL     OW  385   1.923   1.724   1.334  0.0192 -0.2939  0.5162
  129SOL    HW1  386   2.022   1.714   1.316  0.6468 -0.5195  1.1678
  129SOL    HW2  387   1.874   1.757   1.249  0.6754 -0.9648  1.3584
  130SOL     OW  388   1.942   1.938   1.492 -0.4465 -0.5639  0.0117
  130SOL    HW1  389   1.928   1.852   1.437 -2.7951 -1.1649  1.1235
  130SOL    HW2  390   1.935   2.017   1.428 -1.5771  1.3952  0.7375
  131SOL     OW  391   0.834   2.850   1.936 -0.7516 -0.6516  0.1334
  131SOL    HW1  392   0.845   2.749   1.933  0.9398  0.4391  1.1199
  131SOL    HW2  393   0.741   2.881   1.956  0.6762  1.1574 -0.7797
  132SOL     OW  394   2.720   1.585   0.667  0.9326 -0.2663 -0.7170
  132SOL    HW1  395   2.667   1.671   0.645  2.9637 -0.6065 -0.7279
  132SOL    HW2  396   2.799   1.605   0.727 -0.6654 -2.0920 -2.5432
  133SOL     OW  397   0.651   1.630   1.584 -0.0287  0.2225 -0.0383
  133SOL    HW1  398   0.607   1.564   1.649  0.5395  0.7232  0.0082
  133SOL    HW2  399   0.625   1.726   1.616 -1.6045 -0.2904 -0.6148
  134SOL     OW  400   0.157   0.872   0.880  0.1657  0.0642 -0.0255
  134SOL    HW1  401   0.245   0.865   0.825  5.2345 -0.4177  1.3917
  134SOL    HW2  402   0.082   0.810   0.858  0.2800 -0.1775 -0.9777
  135SOL     OW  403   1.927   1.814   0.066 -0.7587 -0.0629 -0.3732
  135SOL    HW1  404   1.957   1.772   0.160 -1.8900 -1.1840  2.3874
  135SOL    HW2  405   1.841   1.858   0.077  3.1590 -1.5343  1.4513
  136SOL     OW  406   2.887   1.717   1.358 -0.2334 -0.0043  0.3350
  136SOL    HW1  407   2.960   1.681   1.415  0.6994 -1.8270 -1.9377
  136SOL    HW2  408   2.795   1.703   1.399 -0.1361  1.1074 -0.2535
  137SOL     OW  409   2.686   1.209   2.729  0.3009 -0.3205 -0.5372
  137SOL    HW1  410   2.631   1.155   2.661 -0.6906 -0.6012 -0.9648
  137SOL    HW2  411   2.641   1.220   2.822 -2.1566  1.6214  2.5914
  138SOL     OW  412   3.051   0.179   0.975  0.7802  0.0442  0.0310
  138SOL    HW1  413   3.041   0.166   0.873  1.5540  2.5444  1.2498
  138SOL    HW2  414   3.041   0.278   0.996  2.0519 -2.5053  0.9861
  139SOL     OW  415   1.916   2.130   3.072 -0.2903 -0.2444  0.1986
  139SOL    HW1  416   1.846   2.144   0.060  0.6223 -1.9103  2.9351
  139SOL    HW2  417   1.866   2.126   2.982  0.4400 -0.5824  0.1611
  140SOL     OW  418   0.900   1.594   0.809  0.1268  0.3570  0.3988
  140SOL    HW1  419   0.820   1.613   0.875 -0.3891 -2.6600 -1.7546
  140SOL    HW2  420   0.980   1.656   0.821 -2.2001 -0.7744 -0.7571
  141SOL     OW  421   1.333   1.572   0.999 -0.4107 -0.0335  0.4832
  141SOL    HW1  422   1.322   1.561   0.899  0.8281  1.3980  2.7332
  141SOL    HW2  423   1.429   1.603   1.028  3.2076 -1.2820 -0.2042
  142SOL     OW  424   0.937   0.865   1.209 -0.0575 -0.0571  0.2935
  142SOL    HW1  425   0.877   0.836   1.135 -2.2161 -0.8494 -0.1140
  142SOL    HW2  426   1.034   0.856   1.182 -1.5181  2.0452 -1.5410
  143SOL     OW  427   0.285   0.149   2.766 -0.0300 -0.1286 -0.2726
  143SOL    HW1  428   0.339   0.102   2.695 -2.0919  0.2380  1.5357
  143SOL    HW2  429   0.333   0.234   2.798 -0.0661  2.0985  2.9150
  144SOL     OW  430   2.322   0.201   0.473 -0.2411  0.2713 -0.1720
  144SOL    HW1  431   2.390   0.274   0.448 -0.8620 -0.7327 -0.1062
  144SOL    HW2  432   2.227   0.232   0.456  1.3651  2.3223  3.8808
  145SOL     OW  433   1.889   2.960   2.908 -0.1769 -0.1333  0.1999
  145SOL    HW1  434   1.924   2.984   2.811 -1.7351  1.1062 -0.0527
  145SOL    HW2  435   1.905   2.861   2.936  0.2438  0.0184 -1.9511
  146SOL     OW  436   3.001   2.778   0.189  0.3972 -0.3476 -0.6116
  146SOL    HW1  437   2.956   2.862   0.161  2.0396 -0.6698  1.1689
  146SOL    HW2  438   2.960   2.702   0.132  0.6521  2.2522 -3.0309
  147SOL     OW  439   1.770   1.226   0.259  0.1303 -0.2653  0.1449
  147SOL    HW1  440   1.698   1.224   0.335 -1.1261 -0.1313  2.1512
  147SOL    HW2  441   1.723   1.186   0.178  0.3868  2.6737  0.6882
  148SOL     OW  442   0.826   2.903   0.428 -0.1298  0.2982 -0.9888
  148SOL    HW1  443   0.878   2.898   0.340 -1.3065 -1.9394  0.3340
  148SOL    HW2  444   0.830   2.993   0.476  0.8985  3.4723  1.4519
  149SOL     OW  445   1.478   0.643   2.355  0.2913  0.7281 -0.2304
  149SOL    HW1  446   1.400   0.666   2.418 -2.4250  0.0527 -0.4004
  149SOL    HW2  447   1.568   0.673   2.392 -0.7325  0.8837  0.2402
  150SOL     OW  448   1.289   2.948   2.696  0.1471 -0.4350  0.1744
  150SOL    HW1  449   1.326   3.020   2.753 -1.7712 -1.8321 -1.5407
  150SOL    HW2  450   1.216   2.899   2.748 -1.3347  2.7259 -2.4357
  151SOL     OW  451   0.257   1.118   3.013  0.0623  0.3773 -0.0911
  151SOL    HW1  452   0.330   1.172   2.976 -1.5410 -1.5852  2.2618
  151SOL    HW2  453   0.299   1.033   3.056  2.2679 -0.2093  0.5412
  152SOL     OW  454   0.477   0.075   1.355  0.1114  0.7004  0.2288
  152SOL    HW1  455   0.428   0.148   1.405  0.9261  1.1734  0.8614
  152SOL    HW2  456   0.474   3.067   1.396  0.3391  2.1982  0.3585
  153SOL     OW  457   2.378   3.070   1.526 -0.3708 -0.1895 -0.3622
  153SOL    HW1  458   2.319   0.049   1.469  0.4338 -1.2335 -2.7776
  153SOL    HW2  459   2.324   3.034   1.602  0.7213 -0.4763 -1.3269
  154SOL     OW  460   2.388   0.090   1.935 -0.4637  0.1934 -0.0548
  154SOL    HW1  461   2.319   0.149   1.884  0.1892 -1.6154 -2.6756
  154SOL    HW2  462   2.371   0.107   2.034 -0.3954 -0.4566  0.2630
  155SOL     OW  463   0.478   1.026   0.285 -0.0290  0.6249  0.3493
  155SOL    HW1  464   0.537   0.948   0.315  0.5969 -0.1580  2.3752
  155SOL    HW2  465   0.513   1.080   0.205 -2.7133  0.8097 -1.6415
  156SOL     OW  466   1.999   1.377   0.255 -0.6925  0.2555  0.0890
  156SOL    HW1  467   2.050   1.348   0.336  0.1536  1.5942 -1.1682
  156SOL    HW2  468   1.909   1.331   0.264  0.5001  1.9978  2.4558
  157SOL     OW  469   1.122   2.159   2.887 -0.1524 -0.4672  0.4350
  157SOL    HW1  470   1.166   2.088   2.833 -0.0415 -0.4869 -0.0654
  157SOL    HW2  471   1.021   2.148   2.875 -0.0464  3.2144  0.2650
  158SOL     OW  472   1.722   0.766   1.804  0.5684 -0.1320  0.1271
  158SOL    HW1  473   1.659   0.736   1.877  2.0299  1.6799  2.6668
  158SOL    HW2  474   1.696   0.740   1.708  1.7403  0.5040 -1.3907
  159SOL     OW  475   0.310   0.184   0.668  0.0819 -0.6233  0.4725
  159SOL    HW1  476   0.295   0.093   0.716  0.2491 -1.7071 -1.4999
  159SOL    HW2  477   0.387   0.177   0.599  1.2963  0.7242 -2.0905
  160SOL     OW  478   2.249   1.621   1.728  0.1318  0.4827 -0.3036
  160SOL    HW1  479   2.299   1.583   1.806 -0.8281  2.0879  0.9515
  160SOL    HW2  480   2.167   1.563   1.704  0.6174  1.4963 -1.5465
  161SOL     OW  481   0.165   3.013   0.103 -0.0766  0.0527  0.1313
  161SOL    HW1  482   0.140   3.045   0.193 -2.0774  0.5563 -1.4468
  161SOL    HW2  483   0.260   3.044   0.072  1.2689  0.3120 -2.9088
  162SOL     OW  484   0.170   0.480   2.495  0.3193  0.2629  0.4221
  162SOL    HW1  485   0.080   0.519   2.483  2.4033 -1.2250  1.1472
  162SOL    HW2  486   0.197   0.410   2.425  0.4828  0.3593  0.1265
  163SOL     OW  487   0.130   2.904   2.660 -0.1663  0.2319  0.7447
  163SOL    HW1  488   0.148   2.804   2.672 -0.9920  1.7614 -3.2801
  163SOL    HW2  489   0.110   2.945   2.751  2.4887 -0.0107 -0.5775
  164SOL     OW  490   2.442   2.145   0.345  0.4763 -0.1596  0.6351
  164SOL    HW1  491   2.378   2.190   0.278  0.9439  0.3484 -1.8478
  164SOL    HW2  492   2.442   2.188   0.437 -0.6208  2.3444  0.0394
  165SOL     OW  493   1.099   0.668   1.455  0.2788 -0.2290 -0.3301
  165SOL    HW1  494   1.147   0.711   1.376  2.5967  1.8750 -2.4020
  165SOL    HW2  495   1.013   0.716   1.478  1.6830  0.0273 -2.1782
  166SOL     OW  496   2.989   0.125   0.383  0.5881  0.6464  0.0228
  166SOL    HW1  497   3.012   0.027   0.401 -1.0062  1.7349  2.8941
  166SOL    HW2  498   3.061   0.181   0.425 -0.9474 -2.3983  0.6004
  167SOL     OW  499   2.122   0.724   0.904 -0.1054 -0.3832  0.0623
  167SOL    HW1  500   2.217   0.737   0.872 -0.0108 -0.1717  1.7019
  167SOL    HW2  501   2.121   0.699   1.002  2.1384 -1.4971  1.9362
  168SOL     OW  502   1.182   0.378   2.278 -0.2847 -0.5022  0.6523
  168SOL    HW1  503   1.259   0.310   2.245  4.6450 -1.0581 -2.7991
  168SOL    HW2  504   1.195   0.410   2.372 -1.7234 -3.0458 -0.4861
  169SOL     OW  505   1.166   2.076   1.373  0.6075 -0.2556 -0.1431
  169SOL    HW1  506   1.112   1.992   1.341 -1.6412 -0.9946  2.4238
  169SOL    HW2  507   1.123   2.110   1.460 -0.8547 -0.5826  1.0194
  170SOL     OW  508   2.913   2.869   1.518 -0.1542  0.2917 -0.0998
  170SOL    HW1  509   2.935   2.786   1.466 -2.2353 -2.5569  1.3404
  170SOL    HW2  510   2.969   2.949   1.493  0.5974 -0.2120  0.9398
  171SOL     OW  511   2.792   0.498   2.302 -0.0115  0.1360 -0.5283
  171SOL    HW1  512   2.807   0.400   2.271  0.1730 -1.9776 -1.3814
  171SOL    HW2  513   2.692   0.519   2.327 -0.0639  0.9194 -0.7023
  172SOL     OW  514   1.289   3.042   1.495 -0.1742 -0.3001 -0.0177
  172SOL    HW1  515   1.207   0.020   1.497  0.2068 -0.9498  2.2899
  172SOL    HW2  516   1.333   3.035   1.586 -0.0914 -0.7919 -0.0946
  173SOL     OW  517   2.612   2.286   2.822 -0.0963 -0.1179 -0.0097
  173SOL    HW1  518   2.540   2.292   2.892  1.2248  0.3673 -0.3597
  173SOL    HW2  519   2.618   2.367   2.760 -1.9835  1.8914 -0.0057
  174SOL     OW  520   1.884   1.003   0.357  0.1815  0.1731 -0.0679
  174SOL    HW1  521   1.984   1.017   0.357  0.4331  1.1725  0.8364
  174SOL    HW2  522   1.840   1.096   0.332 -1.6483  0.4529 -0.0769
  175SOL     OW  523   0.801   1.566   1.260  0.2321  0.4905  0.3630
  175SOL    HW1  524   0.790   1.649   1.200  0.8997  0.1114  0.6388
  175SOL    HW2  525   0.864   1.592   1.339  1.9205  0.1067 -2.5598
  176SOL     OW  526   0.215   3.016   0.778 -0.2663 -0.0207  0.4454
  176SOL    HW1  527   0.242   2.931   0.826 -0.0835  2.7219 -0.5496
  176SOL    HW2  528   0.121   3.008   0.738 -0.0438  0.1337 -0.8243
  177SOL     OW  529   2.832   1.150   3.080 -0.1084 -0.2159 -0.1254
  177SOL    HW1  530   2.839   1.149   0.094  1.2005 -0.9144 -3.1322
  177SOL    HW2  531   2.919   1.128   3.039 -1.0909  0.9908 -2.5078
  178SOL     OW  532   2.742   2.614   2.189 -0.2619  0.1547 -0.2524
  178SOL    HW1  533   2.769   2.634   2.096 -0.1115  1.0780  0.7057
  178SOL    HW2  534   2.778   2.530   2.229  3.1329 -2.5507  1.7444
  179SOL     OW  535   2.276   3.049   0.389  0.2707 -0.4468  0.2131
  179SOL    HW1  536   2.354   3.002   0.353 -2.1254  1.5832  0.3789
  179SOL    HW2  537   2.306   0.046   0.440  1.1531 -0.1739 -0.6101
  180SOL     OW  538   2.039   0.738   0.623  0.1173  0.4176  0.3963
  180SOL    HW1  539   2.090   0.751   0.712  0.0118  1.1609 -0.3965
  180SOL    HW2  540   1.973   0.815   0.624  0.6770 -1.5451  1.1357
  181SOL     OW  541   2.838   0.220   2.883  0.2882 -0.1809 -0.0701
  181SOL    HW1  542   2.928   0.221   2.925 -0.0317  2.5135  0.8383
  181SOL    HW2  543   2.843   0.296   2.815  0.2478  1.8948 -1.9639
  182SOL     OW  544   2.675   1.824   2.450  0.1806 -0.6528 -0.3263
  182SOL    HW1  545   2.596   1.764   2.432  0.3416 -0.5580  2.7756
  182SOL    HW2  546   2.661   1.919   2.415  1.7199  0.7243  2.2813
  183SOL     OW  547   0.216   0.946   1.684  0.5465 -0.1523 -0.1399
  183SOL    HW1  548   0.242   1.029   1.623  1.7541  1.7919 -1.6829
  183SOL    HW2  549   0.286   0.928   1.755  2.0523  1.9009  0.3643
  184SOL     OW  550   0.218   1.224   1.104 -0.3173  0.0303 -0.3915
  184SOL    HW1  551   0.158   1.203   1.024  1.6830 -1.4403  1.3845
  184SOL    HW2  552   0.228   1.145   1.167  0.1362 -0.8864 -0.3491
  185SOL     OW  553   2.943   2.511   1.266  0.1537  0.1682  0.0160
  185SOL    HW1  554   2.930   2.484   1.168  0.3445 -0.4854 -0.0239
  185SOL    HW2  555   2.857   2.493   1.317  0.1067  2.3277 -0.7741
  186SOL     OW  556   1.687   2.681   2.888  0.2570 -0.9428 -0.0089
  186SOL    HW1  557   1.782   2.653   2.919 -1.2977  0.3896  4.8236
  186SOL    HW2  558   1.612   2.612   2.917 -2.6103  0.0170  1.1722
  187SOL     OW  559   0.258   1.256   0.637  0.0172  0.1409 -0.1905
  187SOL    HW1  560   0.180   1.298   0.593  1.7333  0.2686  0.4190
  187SOL    HW2  561   0.301   1.328   0.694 -0.8958 -2.4267 -2.0078
  188SOL     OW  562   1.786   1.929   0.377  0.6534 -0.8457  0.3849
  188SOL    HW1  563   1.756   1.939   0.281  1.6903 -1.5140 -3.3313
  188SOL    HW2  564   1.874   1.989   0.384  0.0927  1.5298  2.3881
  189SOL     OW  565   0.032   1.714   2.961 -0.3173  0.2536 -0.7153
  189SOL    HW1  566   0.044   1.617   2.962 -1.1723  1.2500 -1.3041
  189SOL    HW2  567   3.032   1.742   3.011  2.0228 -3.3787 -1.5505
  190SOL     OW  568   2.539   0.550   2.330 -0.0291 -0.0700 -0.4757
  190SOL    HW1  569   2.508   0.563   2.235  1.7991 -0.7640 -0.4745
  190SOL    HW2  570   2.468   0.501   2.385 -0.6779 -0.7651  1.1122
  191SOL     OW  571   0.611   1.217   2.191 -1.2584 -0.1771 -0.2182
  191SOL    HW1  572   0.514   1.241   2.218 -0.4401  1.0601 -0.5948
  191SOL    HW2  573   0.669   1.218   2.275 -0.1912  0.5084 -1.2106
  192SOL     OW  574   1.857   1.226   1.637  0.3691 -0.2480  0.0752
  192SOL    HW1  575   1.842   1.155   1.711 -4.5857  0.4655  2.7969
  192SOL    HW2  576   1.943   1.202   1.589  0.6357 -0.5558 -0.4060
  193SOL     OW  577   0.545   2.949   0.642 -0.1260 -0.0818 -0.2134
  193SOL    HW1  578   0.508   2.972   0.551 -4.1787 -1.5510  1.4866
  193SOL    HW2  579   0.623   3.013   0.670 -0.2441  0.7947  0.8822
  194SOL     OW  580   1.406   1.971   1.334 -0.2051 -0.4578  0.1576
  194SOL    HW1  581   1.397   1.910   1.252 -0.5144  3.1294 -2.2844
  194SOL    HW2  582   1.313   2.007   1.354 -0.1257 -0.3721  1.1975
  195SOL     OW  583   1.819   0.647   1.011 -0.1022 -0.2914 -0.4044
  195SOL    HW1  584   1.842   0.551   0.983  1.5073 -0.2982 -4.0198
  195SOL    HW2  585   1.756   0.677   0.939 -1.5052 -0.1387 -2.7348
  196SOL     OW  586   1.148   1.732   1.812 -0.5570  0.3296 -0.2214
  196SOL    HW1  587   1.196   1.815   1.838  0.8373 -1.2469 -2.0376
  196SOL    HW2  588   1.196   1.648   1.851  1.3712 -1.9095  2.0716
  197SOL     OW  589   2.934   3.013   2.669  0.2742  0.4606 -0.0590
  197SOL    HW1  590   3.004   3.080   2.692 -1.7200 -0.6741  1.4450
  197SOL    HW2  591   2.861   3.021   2.737 -1.2098 -0.3648  0.0606
  198SOL     OW  592   3.022   0.694   0.904  0.0644 -0.2841 -0.1146
  198SOL    HW1  593   0.005   0.620   0.875  3.3476 -0.4301 -0.3538
  198SOL    HW2  594   2.931   0.682   0.863 -0.2178  3.3556 -0.7098
  199SOL     OW  595   0.614   2.023   0.948 -0.1916 -0.2667  0.5341
  199SOL    HW1  596   0.537   2.086   0.966  0.8203  0.9937 -2.1047
  199SOL    HW2  597   0.701   2.078   0.956 -0.8368 -0.5040  0.0084
  200SOL     OW  598   2.537   1.605   3.032 -0.0830  0.0646 -0.0618
  200SOL    HW1  599   2.516   1.644   2.945 -1.0402 -0.6116  2.7552
  200SOL    HW2  600   2.622   1.550   3.025  1.5184 -0.9731  1.3123
  201SOL     OW  601   1.151   2.675   1.626  0.0900  0.4649  0.5644
  201SOL    HW1  602   1.189   2.680   1.529 -1.3494 -1.0885 -2.5382
  201SOL    HW2  603   1.048   2.656   1.623 -2.6579  1.6754 -2.1430
  202SOL     OW  604   0.865   2.707   2.979 -0.0418 -0.1258 -0.3195
  202SOL    HW1  605   0.849   2.655   3.063 -0.1907  1.1510 -0.7460
  202SOL    HW2  606   0.828   2.800   2.986  2.6195 -0.3698 -2.1244
  203SOL     OW  607   1.362   0.040   2.892 -0.5591  0.4569 -0.0775
  203SOL    HW1  608   1.463   0.040   2.897  3.7204 -0.9488  3.4788
  203SOL    HW2  609   1.328   0.133   2.880  2.0814 -2.1047  0.4971
  204SOL     OW  610   0.498   1.618   1.345  0.4609 -0.1874  0.1712
  204SOL    HW1  611   0.521   1.539   1.285  1.0142  1.0610 -1.2601
  204SOL    HW2  612   0.555   1.615   1.429 -1.2469 -1.0991  1.4030
  205SOL     OW  613   1.774   1.061   1.854 -0.4931 -0.3301 -0.7685
  205SOL    HW1  614   1.787   0.965   1.830  1.3117  2.3800  0.0149
  205SOL    HW2  615   1.676   1.081   1.869  1.5962 -0.9118 -0.4199
  206SOL     OW  616   0.096   2.070   0.015  0.1021  0.1887 -0.1540
  206SOL    HW1  617   0.175   2.037   3.041 -0.0232  2.4103 -1.5614
  206SOL    HW2  618   0.015   2.011   3.080  1.6903 -1.9139  4.8068
  207SOL     OW  619   0.358   2.166   2.041 -0.6247  0.1254  0.4164
  207SOL    HW1  620   0.452   2.144   2.016 -1.2065 -0.7326  0.4385
  207SOL    HW2  621   0.291   2.161   1.963  0.7367  0.5639  0.0512
  208SOL     OW  622   0.245   2.488   1.002  0.0646 -0.3903 -0.2297
  208SOL    HW1  623   0.284   2.448   0.918  1.9349  1.0914 -1.4234
  208SOL    HW2  624   0.248   2.595   0.995 -2.7004  1.3062 -3.6177
  209SOL     OW  625   1.066   2.845   2.194  0.2446  0.2493  0.4956
  209SOL    HW1  626   0.967   2.840   2.171  2.7708  1.7976 -3.1961
  209SOL    HW2  627   1.122   2.870   2.116 -1.7150  0.6397  1.6996
  210SOL     OW  628   2.672   1.082   1.830  0.7864  0.3845 -0.4412
  210SOL    HW1  629   2.693   1.027   1.749 -3.1322  3.2243  2.5006
  210SOL    HW2  630   2.577   1.057   1.858  1.1335  4.1721 -0.4288
  211SOL     OW  631   1.069   2.989   1.902  0.1439  0.5216  0.3317
  211SOL    HW1  632   1.054   3.057   1.828  1.0380 -1.7771  1.8359
  211SOL    HW2  633   0.978   2.940   1.921 -0.0596 -0.8063  1.7160
  212SOL     OW  634   2.162   2.648   1.843  0.1989  0.2660 -0.6609
  212SOL    HW1  635   2.155   2.670   1.741  0.4884 -0.7043 -2.5549
  212SOL    HW2  636   2.069   2.618   1.865  1.3240 -1.1833 -2.5344
  213SOL     OW  637   3.019   0.124   1.752 -0.6564  0.0519 -0.2271
  213SOL    HW1  638   3.042   0.023   1.752 -0.0058 -1.4594 -2.4453
  213SOL    HW2  639   3.076   0.167   1.823  1.4168 -4.5834  2.0491
  214SOL     OW  640   1.087   2.206   0.996  0.0302 -0.3056 -0.0086
  214SOL    HW1  641   1.127   2.226   1.088  0.5376 -3.5473  2.5947
  214SOL    HW2  642   1.083   2.287   0.938 -0.5635 -0.5104 -0.3498
  215SOL     OW  643   2.663   2.056   0.450 -0.2262  0.4180 -0.0731
  215SOL    HW1  644   2.735   2.128   0.448 -2.0340  0.1518  0.4789
  215SOL    HW2  645   2.578   2.082   0.400  0.6495  0.8694  1.0217
  216SOL     OW  646   3.073   0.920   1.829  0.0731  0.8495  0.7989
  216SOL    HW1  647   0.075   0.919   1.774  1.3516 -0.8460 -1.0579
  216SOL    HW2  648   3.025   0.830   1.823 -1.2156  0.2293  1.1532
  217SOL     OW  649   2.510   0.253   1.458  0.1207  0.0754 -0.1451
  217SOL    HW1  650   2.448   0.184   1.413 -0.5735 -0.6748  2.4193
  217SOL    HW2  651   2.600   0.274   1.410 -1.1177  0.8461  1.2702
  218SOL     OW  652   1.862   2.585   1.516  0.2619 -0.3144 -0.1360
  218SOL    HW1  653   1.827   2.565   1.423  1.9912  1.5122  2.5952
  218SOL    HW2  654   1.789   2.581   1.587 -1.2386  1.0721  1.6510
  219SOL     OW  655   2.057   2.380   2.957  0.7483  0.5993  0.1535
  219SOL    HW1  656   2.096   2.458   3.012  0.4923  0.5800 -0.4958
  219SOL    HW2  657   2.053   2.298   3.012  2.7831 -1.4417  0.7729
  220SOL     OW  658   1.422   2.998   0.327 -0.6006  0.1381 -1.1235
  220SOL    HW1  659   1.443   0.007   0.361 -1.3145 -0.2728 -1.4512
  220SOL    HW2  660   1.402   2.999   0.224 -1.7688  0.8499 -0.8299
  221SOL     OW  661   3.047   1.950   1.560  0.3991  0.3637 -0.6111
  221SOL    HW1  662   0.025   2.027   1.551  0.3986 -0.3778 -2.1633
  221SOL    HW2  663   2.952   1.984   1.590  1.0583  0.9518  3.8382
  222SOL     OW  664   1.777   2.694   1.091  0.6094 -0.1471  0.7286
  222SOL    HW1  665   1.773   2.793   1.090 -0.5633  0.3905 -0.8272
  222SOL    HW2  666   1.720   2.654   1.164 -0.6540 -3.0607 -0.6789
  223SOL     OW  667   1.362   0.446   1.423 -0.2562  0.4034  0.2539
  223SOL    HW1  668   1.265   0.413   1.440 -3.5607  0.1545  1.1801
  223SOL    HW2  669   1.411   0.473   1.510  0.1300 -0.9200 -0.4019
  224SOL     OW  670   3.062   2.298   1.470  0.0798 -0.0123  0.2235
  224SOL    HW1  671   0.002   2.377   1.413 -1.8598 -1.3273 -0.9703
  224SOL    HW2  672   2.976   2.307   1.523  2.0099 -1.9094 -0.3939
  225SOL     OW  673   2.612   2.229   1.057 -0.5359 -0.3811  0.0075
  225SOL    HW1  674   2.601   2.246   1.154 -0.2268  2.6282 -1.3782
  225SOL    HW2  675   2.528   2.250   1.004  0.3638 -0.6966 -2.1526
  226SOL     OW  676   1.522   2.103   3.053 -0.2358  0.2433 -0.4097
  226SOL    HW1  677   1.426   2.101   3.082 -0.2573  0.5338  1.3614
  226SOL    HW2  678   1.519   2.092   2.951 -0.1232  1.8993 -1.2627
  227SOL     OW  679   2.007   1.188   0.753 -0.2709 -0.4910 -0.0954
  227SOL    HW1  680   1.971   1.282   0.781  1.3168  1.4441  0.8529
  227SOL    HW2  681   1.953   1.105   0.786  0.2811  2.3953 -1.1052
  228SOL     OW  682   1.658   0.821   0.303 -0.0067 -0.5277  0.0268
  228SOL    HW1  683   1.622   0.753   0.368  0.5868  0.1455  0.1507
  228SOL    HW2  684   1.750   0.854   0.334  0.0235  0.2390  3.2124
  229SOL     OW  685   2.704   0.960   2.242 -0.5445 -0.5396 -0.1659
  229SOL    HW1  686   2.610   0.954   2.210  1.4579 -1.0289  1.3898
  229SOL    HW2  687   2.766   0.975   2.163 -0.1639 -0.9722 -3.5457
  230SOL     OW  688   0.418   0.970   1.124  0.7373 -0.2221 -0.3855
  230SOL    HW1  689   0.483   1.036   1.164 -1.4231 -2.3470 -2.5401
  230SOL    HW2  690   0.357   0.935   1.203  0.7119 -0.9176  0.4613
  231SOL     OW  691   2.231   0.477   2.722 -0.1516 -0.3639 -0.4463
  231SOL    HW1  692   2.158   0.425   2.770  0.2891 -2.8796 -1.3907
  231SOL    HW2  693   2.304   0.519   2.780 -0.7626 -1.5503  2.8683
  232SOL     OW  694   0.146   1.712   1.101 -0.1334 -0.3399  0.1201
  232SOL    HW1  695   0.101   1.620   1.106 -1.8246  1.4933 -1.6941
  232SOL    HW2  696   0.128   1.776   1.175  3.3006  0.5361  0.2502
  233SOL     OW  697   1.678   2.858   2.692 -0.0867  0.0143  0.4977
  233SOL    HW1  698   1.772   2.890   2.660 -0.6761 -2.4126 -0.8984
  233SOL    HW2  699   1.688   2.805   2.780  1.7371  3.6170  1.2379
  234SOL     OW  700   1.662   2.582   1.312  0.4771 -0.0890  0.5224
  234SOL    HW1  701   1.593   2.661   1.310  0.3254  2.0508 -2.1456
  234SOL    HW2  702   1.611   2.497   1.338 -0.5939 -0.7764 -4.2634
  235SOL     OW  703   0.796   1.367   1.602 -0.8991  0.2074 -0.0835
  235SOL    HW1  704   0.800   1.458   1.562 -0.2804 -1.2781  1.3036
  235SOL    HW2  705   0.879   1.306   1.584 -1.8839 -1.8901  0.0294
  236SOL     OW  706   0.560   2.471   2.821  0.2512 -0.0211  0.1998
  236SOL    HW1  707   0.643   2.511   2.773  0.7610  1.3719 -0.0558
  236SOL    HW2  708   0.582   2.383   2.869 -3.2109 -1.9436 -1.2549
  237SOL     OW  709   0.630   3.051   1.676 -0.0682  0.1069 -0.1992
  237SOL    HW1  710   0.630   3.003   1.768 -0.0379 -0.4204 -1.7106
  237SOL    HW2  711   0.545   0.019   1.661 -0.0265  2.6256 -0.1517
  238SOL     OW  712   0.930   0.778   0.354  0.3338 -0.3244  0.5159
  238SOL    HW1  713   0.999   0.748   0.283 -0.6230 -1.0570 -1.5170
  238SOL    HW2  714   0.941   0.737   0.444 -2.1855  1.1111  1.3066
  239SOL     OW  715   2.621   0.766   2.843 -0.2025 -0.0986 -0.1885
  239SOL    HW1  716   2.592   0.802   2.753 -0.0292 -1.2214  1.0107
  239SOL    HW2  717   2.636   0.842   2.911 -0.1579 -1.1850  1.4320
  240SOL     OW  718   2.884   2.213   1.045  0.5242 -0.1751 -0.6298
  240SOL    HW1  719   2.787   2.214   1.006 -1.3821  3.4895  0.2114
  240SOL    HW2  720   2.887   2.169   1.139 -2.2338  0.9778  3.7194
  241SOL     OW  721   1.119   1.745   0.803  0.3349  0.2781 -0.0009
  241SOL    HW1  722   1.216   1.770   0.792 -1.7075 -0.9864  0.4648
  241SOL    HW2  723   1.073   1.800   0.880 -0.7186  0.1608  2.9509
  242SOL     OW  724   0.780   0.322   0.792 -0.0642 -0.5587 -0.8763
  242SOL    HW1  725   0.791   0.346   0.895 -0.1485 -0.7599  3.1241
  242SOL    HW2  726   0.682   0.328   0.764  0.5218 -1.3913 -0.2940
  243SOL     OW  727   0.309   0.449   1.254  0.1088  0.2428  0.0056
  243SOL    HW1  728   0.295   0.522   1.184  0.2269 -2.0639 -1.1704
  243SOL    HW2  729   0.342   0.362   1.213  2.6426  0.2540  0.5937
  244SOL     OW  730   0.846   0.087   0.558  0.0284  0.1870 -0.0855
  244SOL    HW1  731   0.949   0.104   0.548  1.7111 -0.6440 -0.5341
  244SOL    HW2  732   0.821   0.022   0.633 -1.2974  1.9115 -1.3472
  245SOL     OW  733   2.377   1.207   0.276 -0.8295 -0.3819 -0.7206
  245SOL    HW1  734   2.481   1.198   0.267  3.8370  0.1252 -0.6835
  245SOL    HW2  735   2.355   1.298   0.322  2.0056 -0.8412  2.0847
  246SOL     OW  736   0.280   2.940   1.545  0.7504 -0.1792  0.2368
  246SOL    HW1  737   0.347   2.866   1.575 -2.0601  1.3146 -3.7022
  246SOL    HW2  738   0.229   2.920   1.457 -0.6759  0.4909  0.5900
  247SOL     OW  739   0.810   0.309   1.925  0.3003 -0.1773  0.4781
  247SOL    HW1  740   0.732   0.361   1.962  0.4336 -0.4127  2.3376
  247SOL    HW2  741   0.799   0.285   1.826 -0.6853  2.1625  0.9151
  248SOL     OW  742   0.401   1.704   1.978 -0.0421  0.3132  0.4686
  248SOL    HW1  743   0.483   1.748   2.022 -0.0685 -1.9034  1.6708
  248SOL    HW2  744   0.428   1.668   1.886 -0.3559  0.6153  0.2699
  249SOL     OW  745   1.067   2.354   0.300  0.1753 -0.2664 -0.0946
  249SOL    HW1  746   0.986   2.324   0.354 -2.0788 -1.8142  0.4408
  249SOL    HW2  747   1.081   2.454   0.294 -0.1584  0.5315 -2.4160
  250SOL     OW  748   0.571   0.021   2.130 -0.0163  0.4652 -0.6489
  250SOL    HW1  749   0.472   0.036   2.145  0.5088 -1.5668 -1.1675
  250SOL    HW2  750   0.626   0.107   2.130  1.1841  1.3309 -1.0624
  251SOL     OW  751   2.802   2.051   1.644  0.7459 -0.1986  0.8885
  251SOL    HW1  752   2.827   2.039   1.742 -0.0370  0.3778 -1.4615
  251SOL    HW2  753   2.729   1.991   1.603  0.4626 -1.2141 -2.2719
  252SOL     OW  754   1.276   0.328   1.902  0.1277  0.5522 -0.0735
  252SOL    HW1  755   1.268   0.239   1.948 -4.2652  0.5925 -1.7247
  252SOL    HW2  756   1.242   0.318   1.809  0.6611 -3.5013  0.1996
  253SOL     OW  757   2.454   1.665   2.397 -0.7766  0.2961  0.0274
  253SOL    HW1  758   2.475   1.662   2.296  0.4990  3.3035 -2.7646
  253SOL    HW2  759   2.369   1.723   2.413 -0.3812 -0.1778  0.5249
  254SOL     OW  760   0.659   1.321   0.958  0.2725 -0.5001 -0.4786
  254SOL    HW1  761   0.611   1.266   1.022  0.8795 -0.0037 -0.2553
  254SOL    HW2  762   0.750   1.345   0.996  3.9330  1.0532  0.9281
  255SOL     OW  763   3.051   2.388   1.777  0.3727  0.2147  0.3637
  255SOL    HW1  764   2.977   2.360   1.715 -0.7451  0.5125 -1.0607
  255SOL    HW2  765   0.020   2.462   1.739  0.5094 -0.5784  1.4933
  256SOL     OW  766   0.422   2.999   0.410 -0.1467 -0.3559 -0.1662
  256SOL    HW1  767   0.334   2.949   0.438  1.2153 -1.3165  0.1417
  256SOL    HW2  768   0.464   2.955   0.332  0.4431 -0.8358  1.3593
  257SOL     OW  769   1.103   2.557   2.320  0.0368  0.1420  0.1979
  257SOL    HW1  770   1.149   2.643   2.287 -0.5560 -1.6572 -2.4019
  257SOL    HW2  771   1.068   2.502   2.241 -1.2065  0.0753 -0.6586
  258SOL     OW  772   1.763   2.138   2.089  0.0911  0.3479 -0.2035
  258SOL    HW1  773   1.715   2.051   2.066 -0.1987  1.4097 -0.1171
  258SOL    HW2  774   1.824   2.166   2.012 -0.3203  0.3173  0.5027
  259SOL     OW  775   0.603   0.623   2.383 -0.5419  0.0318 -0.1387
  259SOL    HW1  776   0.516   0.583   2.343 -0.4354  3.6584 -1.1001
  259SOL    HW2  777   0.674   0.615   2.314 -1.5742 -1.2190  1.3248
  260SOL     OW  778   2.681   0.864   0.025 -0.8758 -0.1701  0.4667
  260SOL    HW1  779   2.690   0.866   0.127 -1.6479 -0.6963  1.0560
  260SOL    HW2  780   2.768   0.872   3.061 -1.0584  0.1570 -0.1896
  261SOL     OW  781   1.077   1.091   0.739 -0.2995  0.2814 -0.0571
  261SOL    HW1  782   1.027   1.105   0.653  0.3752 -0.0851  0.9104
  261SOL    HW2  783   1.089   1.179   0.790  1.7974  0.0163 -0.1849
  262SOL     OW  784   2.085   2.625   2.656  0.2935 -0.7044  0.2298
  262SOL    HW1  785   2.142   2.644   2.574 -0.6181  0.5357  1.2246
  262SOL    HW2  786   2.025   2.542   2.639 -0.0339 -0.6402 -0.3537
  263SOL     OW  787   0.623   2.624   1.040  0.2599  0.2684  0.8204
  263SOL    HW1  788   0.616   2.527   1.079 -0.7533 -4.7294  0.5157
  263SOL    HW2  789   0.577   2.690   1.100 -1.6695 -1.1624 -1.4557
  264SOL     OW  790   2.787   1.926   0.806  0.0919 -0.3487 -0.3861
  264SOL    HW1  791   2.740   1.942   0.895 -1.4171  1.7163  2.1940
  264SOL    HW2  792   2.870   1.872   0.823  1.4700 -1.3580  1.9701
  265SOL     OW  793   1.823   1.346   2.633  0.3688 -0.6031  0.2638
  265SOL    HW1  794   1.888   1.292   2.577 -0.0166  1.4085  1.0060
  265SOL    HW2  795   1.857   1.441   2.647 -0.7367  0.2048  0.3351
  266SOL     OW  796   1.609   1.886   2.075 -0.2332 -0.2055  0.4579
  266SOL    HW1  797   1.659   1.800   2.054 -0.2395  2.6241  0.2665
  266SOL    HW2  798   1.550   1.883   2.159 -1.0067 -0.0742 -2.0383
  267SOL     OW  799   2.364   0.389   2.489  0.1816 -0.0641 -0.0919
  267SOL    HW1  800   2.312   0.438   2.563  0.0657  4.0547  0.1843
  267SOL    HW2  801   2.313   0.303   2.464 -0.1706  1.8894  0.8251
  268SOL     OW  802   1.110   1.110   2.906 -0.1049  0.2779  0.2073
  268SOL    HW1  803   1.078   1.198   2.867  1.5758 -3.8658 -0.9681
  268SOL    HW2  804   1.142   1.052   2.824  1.1669 -1.3253 -4.0945
  269SOL     OW  805   2.860   1.919   2.136  0.3835 -0.3258  0.2989
  269SOL    HW1  806   2.925   1.846   2.150 -2.0796  1.4073  0.0550
  269SOL    HW2  807   2.770   1.876   2.115 -1.4473 -0.8248 -0.3203
  270SOL     OW  808   0.049   1.444   2.987 -0.2063 -0.2575  0.3747
  270SOL    HW1  809   0.078   1.351   2.953  2.8130 -1.0796 -0.1177
  270SOL    HW2  810   3.079   1.436   3.072  0.7194 -2.7093  0.0937
  271SOL     OW  811   0.727   0.281   0.416 -0.2825  0.2312 -0.5398
  271SOL    HW1  812   0.771   0.204   0.475 -0.7474 -0.5537  0.2326
  271SOL    HW2  813   0.805   0.337   0.377  1.0764  2.0672 -1.3900
  272SOL     OW  814   0.084   2.930   0.356  0.3918  0.0793 -0.2399
  272SOL    HW1  815   0.144   2.855   0.387  0.6281  1.2200  0.0161
  272SOL    HW2  816   0.025   2.893   0.281  0.0607  1.1328 -0.2781
  273SOL     OW  817   0.222   2.723   2.045 -0.4604 -0.0844 -0.0868
  273SOL    HW1  818   0.225   2.738   2.141  0.9891 -0.9468 -1.0268
  273SOL    HW2  819   0.129   2.696   2.013 -1.0486 -0.0673  0.5841
  274SOL     OW  820   0.334   0.260   1.486  0.3627 -0.3012  0.4753
  274SOL    HW1  821   0.234   0.254   1.475  1.1735 -1.3049  1.0107
  274SOL    HW2  822   0.372   0.336   1.428  0.3692 -2.1118  0.2820
  275SOL     OW  823   1.010   1.850   1.345  0.2429  0.0823 -0.1045
  275SOL    HW1  824   0.948   1.859   1.267 -0.4625 -2.2606  0.4862
  275SOL    HW2  825   0.956   1.802   1.422 -1.5740 -0.1485  2.0656
  276SOL     OW  826   0.181   1.542   1.953  0.6827 -0.2130  0.0269
  276SOL    HW1  827   0.261   1.602   1.973  1.6338  3.0988  1.1576
  276SOL    HW2  828   0.189   1.511   1.859  0.3577 -0.1356  1.9335
  277SOL     OW  829   1.191   2.331   1.970  0.3810 -0.2337 -0.1272
  277SOL    HW1  830   1.246   2.404   1.923  2.6956  2.7569 -0.9245
  277SOL    HW2  831   1.248   2.257   2.001 -2.6011  0.9624 -0.4789
  278SOL     OW  832   1.953   2.995   2.320 -0.4375  0.3205 -0.7696
  278SOL    HW1  833   1.893   2.913   2.306 -0.5137  0.2731 -1.3740
  278SOL    HW2  834   2.005   3.015   2.236  0.7613 -0.9394  3.8966
  279SOL     OW  835   1.438   1.512   3.066  0.3516 -0.0933 -0.2151
  279SOL    HW1  836   1.513   1.494   0.045  1.0384 -1.1136 -3.6240
  279SOL    HW2  837   1.478   1.536   2.974 -1.4632  0.4299  0.0910
  280SOL     OW  838   1.184   0.694   0.954 -0.0147  0.4660  0.4076
  280SOL    HW1  839   1.191   0.758   0.875 -0.0332  2.0583 -0.9539
  280SOL    HW2  840   1.088   0.657   0.977 -0.3651 -2.4377  2.8939
  281SOL     OW  841   0.118   0.515   2.103 -0.1950 -0.1103 -0.4816
  281SOL    HW1  842   0.155   0.488   2.013  0.2496 -4.7393 -0.1425
  281SOL    HW2  843   0.068   0.602   2.089  0.6206 -1.6599 -1.8669
  282SOL     OW  844   0.254   2.782   0.498  0.0269  0.0306 -0.6166
  282SOL    HW1  845   0.183   2.732   0.552 -0.8942 -1.3256  0.0835
  282SOL    HW2  846   0.323   2.717   0.472 -0.8262  1.1059 -2.3491
  283SOL     OW  847   1.344   2.288   1.618  0.3638  0.2840 -0.1195
  283SOL    HW1  848   1.242   2.278   1.614  0.6952  0.6484 -0.7750
  283SOL    HW2  849   1.378   2.375   1.651  1.6924 -1.1660 -1.9814
  284SOL     OW  850   2.177   2.604   1.346  0.0544  0.4108 -0.4310
  284SOL    HW1  851   2.096   2.626   1.282 -0.1223  0.2334 -0.6008
  284SOL    HW2  852   2.259   2.633   1.298 -2.3589  4.4485 -0.8455
  285SOL     OW  853   0.782   1.823   1.115 -0.3933 -0.2733  0.2964
  285SOL    HW1  854   0.687   1.835   1.074 -1.1767  1.9558  0.1070
  285SOL    HW2  855   0.849   1.862   1.049 -1.1716 -0.3289  0.8548
  286SOL     OW  856   3.037   2.657   2.043  0.3088  0.4205  0.5729
  286SOL    HW1  857   2.968   2.692   1.973  2.3417  0.9977  1.3487
  286SOL    HW2  858   3.017   2.560   2.069  4.0738 -1.5399  1.3817
  287SOL     OW  859   0.536   1.183   0.771 -0.2259 -0.0516  0.2166
  287SOL    HW1  860   0.588   1.249   0.834 -1.6112 -1.3402  2.1333
  287SOL    HW2  861   0.450   1.224   0.732  0.6374 -1.1021  2.0690
  288SOL     OW  862   1.365   2.147   2.690  0.5777 -0.2731 -0.5704
  288SOL    HW1  863   1.309   2.194   2.626  3.7391 -2.4089  1.2109
  288SOL    HW2  864   1.323   2.055   2.713 -0.2590  0.1493 -0.9275
  289SOL     OW  865   2.022   1.181   2.506  0.5370 -0.1047  0.1368
  289SOL    HW1  866   2.083   1.254   2.475 -1.8678 -3.7264  0.8383
  289SOL    HW2  867   2.022   1.106   2.438 -3.1861 -0.7295  1.2512
  290SOL     OW  868   1.756   1.840   0.633  0.3030  0.5356 -0.6587
  290SOL    HW1  869   1.771   1.850   0.535  0.0509  0.0202  2.5030
  290SOL    HW2  870   1.783   1.926   0.680  1.2506  1.3687 -2.5484
  291SOL     OW  871   1.401   0.900   2.941  0.4414 -0.7468 -0.2243
  291SOL    HW1  872   1.396   0.863   2.846  1.5811 -2.1652 -2.9665
  291SOL    HW2  873   1.445   0.825   2.993 -2.3874  2.2691 -1.9221
  292SOL     OW  874   1.935   1.625   0.692  0.3860  0.0794  0.3605
  292SOL    HW1  875   2.018   1.612   0.635 -2.3743  0.1958 -2.3759
  292SOL    HW2  876   1.871   1.684   0.636 -1.8456 -3.5497  0.2433
  293SOL     OW  877   1.780   0.241   1.070 -0.4835  0.2651  0.3245
  293SOL    HW1  878   1.882   0.248   1.087  1.6497 -0.6950  1.5107
  293SOL    HW2  879   1.719   0.284   1.139  1.8347 -0.2774  0.3915
  294SOL     OW  880   2.654   1.157   0.267  0.3105  0.0266 -0.1763
  294SOL    HW1  881   2.634   1.059   0.286  0.6076 -0.4504 -2.6957
  294SOL    HW2  882   2.734   1.191   0.314 -0.9285  1.1779 -1.2121
  295SOL     OW  883   2.128   1.640   2.569  0.3325  0.0636 -0.3569
  295SOL    HW1  884   2.142   1.735   2.540 -0.2096 -0.6705  1.4463
  295SOL    HW2  885   2.212   1.592   2.597  1.4712  0.8036 -0.6337
  296SOL     OW  886   1.268   1.791   1.194 -0.4184  0.0633 -0.1420
  296SOL    HW1  887   1.264   1.727   1.117  0.0114 -0.6866  0.8743
  296SOL    HW2  888   1.185   1.789   1.249  0.5142 -1.4800 -2.0351
  297SOL     OW  889   0.628   0.684   2.815 -0.4857 -0.1236  0.4019
  297SOL    HW1  890   0.554   0.711   2.749  0.1711 -1.6742  0.9330
  297SOL    HW2  891   0.592   0.688   2.907  1.1785 -2.3366  0.3215
  298SOL     OW  892   1.601   2.885   1.657 -0.1429  0.5266 -0.7051
  298SOL    HW1  893   1.683   2.913   1.713  1.7116 -1.9677 -0.4258
  298SOL    HW2  894   1.596   2.780   1.642 -1.7185  0.1817  0.0870
  299SOL     OW  895   1.209   0.464   2.529 -0.2724  0.0047  0.3032
  299SOL    HW1  896   1.119   0.440   2.565 -1.3366  1.8025 -0.6802
  299SOL    HW2  897   1.289   0.414   2.575  2.0881  0.3645  1.1143
  300SOL     OW  898   1.963   1.414   3.035  0.2184 -0.0125 -0.0867
  300SOL    HW1  899   1.950   1.406   0.049 -1.7512 -1.0956 -2.1911
  300SOL    HW2  900   2.030   1.342   3.004  0.6818 -2.8425  0.7892
  301SOL     OW  901   2.210   0.315   2.235 -0.0144  0.0080 -0.2678
  301SOL    HW1  902   2.235   0.237   2.300  1.1121 -1.2838 -0.0188
  301SOL    HW2  903   2.119   0.300   2.196 -0.8781 -1.7557 -0.8108
  302SOL     OW  904   2.580   1.570   2.651 -0.1866  0.1476  0.0170
  302SOL    HW1  905   2.680   1.570   2.657  2.2086 -0.7059 -1.0013
  302SOL    HW2  906   2.559   1.589   2.551  0.6628  0.5144  1.9164
  303SOL     OW  907   0.144   2.455   2.273 -0.3102  0.1424 -0.0549
  303SOL    HW1  908   0.108   2.444   2.177 -0.1821  3.2030 -2.6072
  303SOL    HW2  909   0.075   2.467   2.345 -0.1497 -1.4447 -3.2813
  304SOL     OW  910   0.023   1.101   0.930  0.0665  0.4279 -0.1104
  304SOL    HW1  911   3.051   1.126   0.850 -0.2731 -0.2343  0.4787
  304SOL    HW2  912   0.070   1.013   0.919  0.6017 -0.2109  0.7289
  305SOL     OW  913   3.053   0.281   2.142 -0.4408  0.2366 -0.0771
  305SOL    HW1  914   0.030   0.360   2.139  0.3753  1.6931 -1.4339
  305SOL    HW2  915   3.050   0.229   2.229  0.7295  1.2616 -1.4378
  306SOL     OW  916   1.372   1.792   0.737  1.1582  0.4953 -0.6115
  306SOL    HW1  917   1.452   1.726   0.746 -0.6591  0.1041  1.4150
  306SOL    HW2  918   1.387   1.848   0.648  0.9475 -0.2260 -0.4693
  307SOL     OW  919   2.728   2.754   1.278  0.5385 -0.3649 -0.1691
  307SOL    HW1  920   2.805   2.794   1.226  1.8925  1.1274  0.2092
  307SOL    HW2  921   2.694   2.824   1.344 -1.9296  1.8466  0.8801
  308SOL     OW  922   2.847   1.780   2.712  0.0648 -0.4104  0.3619
  308SOL    HW1  923   2.859   1.681   2.727 -0.1291  0.3233  1.0588
  308SOL    HW2  924   2.810   1.802   2.625 -1.0372  0.2153  1.9412
  309SOL     OW  925   0.258   1.990   2.873  0.6449 -0.2467 -0.0266
  309SOL    HW1  926   0.184   1.948   2.825  2.4854 -1.8661  0.0603
  309SOL    HW2  927   0.255   2.088   2.855  0.4659  0.3964  1.5652
  310SOL     OW  928   2.119   0.449   0.153 -1.0194  0.0048  0.5294
  310SOL    HW1  929   2.185   0.525   0.160 -2.8301  1.8552  1.7130
  310SOL    HW2  930   2.034   0.476   0.197 -0.4642  1.3202 -0.9664
  311SOL     OW  931   1.835   0.996   2.990  0.0678  0.0483  0.0828
  311SOL    HW1  932   1.838   0.960   2.897  0.0476 -0.8651  0.0388
  311SOL    HW2  933   1.920   1.045   3.020  2.1927  3.0824  2.6852
  312SOL     OW  934   1.194   1.258   2.065 -0.3250  0.5033  0.7117
  312SOL    HW1  935   1.117   1.282   2.125 -0.0177 -2.0942 -2.3403
  312SOL    HW2  936   1.177   1.170   2.022  0.4686  3.6625 -0.6460
  313SOL     OW  937   0.668   0.214   0.105 -0.5375 -0.0392  0.2371
  313SOL    HW1  938   0.596   0.273   0.062 -1.4126  2.0482 -0.6416
  313SOL    HW2  939   0.694   0.239   0.200 -0.2691 -0.5710  0.6478
  314SOL     OW  940   0.465   1.891   1.309  0.0352  0.1620 -0.3275
  314SOL    HW1  941   0.480   1.791   1.334 -0.5770 -0.5740  0.5595
  314SOL    HW2  942   0.531   1.949   1.366 -0.5109 -0.4944  1.5074
  315SOL     OW  943   1.525   2.096   1.530 -0.0977 -0.2471  0.0441
  315SOL    HW1  944   1.495   2.052   1.445  0.4939 -0.4468  1.0273
  315SOL    HW2  945   1.465   2.176   1.551 -1.1186  0.0671  0.2913
  316SOL     OW  946   0.620   2.212   0.304 -0.1376  0.0415 -0.3816
  316SOL    HW1  947   0.629   2.118   0.266 -1.8184  2.2287  1.4278
  316SOL    HW2  948   0.704   2.240   0.356 -1.7256  0.9236  0.7760
  317SOL     OW  949   2.717   0.251   1.249  0.3452  0.1488 -0.2977
  317SOL    HW1  950   2.740   0.188   1.324 -0.7592  1.3492  0.8891
  317SOL    HW2  951   2.730   0.203   1.162  1.1136  0.3461  3.0731
  318SOL     OW  952   1.090   2.632   0.302 -0.3493 -0.1554  0.5152
  318SOL    HW1  953   1.046   2.623   0.392  0.4632 -0.5839 -0.2195
  318SOL    HW2  954   1.036   2.697   0.242  1.5909  1.5968  1.5251
  319SOL     OW  955   1.230   0.285   2.859  0.0749  0.1205 -0.2605
  319SOL    HW1  956   1.130   0.270   2.873 -0.4407  2.5745 -0.7023
  319SOL    HW2  957   1.273   0.317   2.945  0.3264  0.2065  0.5964
  320SOL     OW  958   2.180   1.867   1.807  0.0312  0.3423 -0.4168
  320SOL    HW1  959   2.084   1.865   1.834  2.1869 -0.5176 -0.4985
  320SOL    HW2  960   2.208   1.772   1.779 -2.4940 -1.2682 -1.3757
  321SOL     OW  961   0.036   2.941   2.956 -0.4293 -0.3834 -0.2564
  321SOL    HW1  962   0.042   2.944   3.059  1.8693 -0.0735  3.6890
  321SOL    HW2  963   3.078   2.855   2.919 -0.7729 -0.2544  1.1378
  322SOL     OW  964   2.354   0.851   1.187  0.2677  0.1244  0.0088
  322SOL    HW1  965   2.331   0.898   1.276  1.6990  3.6876  2.2238
  322SOL    HW2  966   2.330   0.906   1.105 -0.0617 -0.5824 -2.1127
  323SOL     OW  967   1.961   1.644   0.297 -0.0821  0.6523 -0.0763
  323SOL    HW1  968   1.868   1.637   0.339 -0.8445  0.6332 -0.0981
  323SOL    HW2  969   1.985   1.547   0.277 -1.3438  1.1860 -1.6276
  324SOL     OW  970   0.051   0.261   1.505 -0.1306 -0.2126  0.4665
  324SOL    HW1  971   0.012   0.345   1.460 -0.4572  3.0794 -1.7207
  324SOL    HW2  972   3.080   0.223   1.584 -1.0132 -0.8491  1.7644
  325SOL     OW  973   2.682   2.812   0.889  0.0648 -0.0233 -0.0630
  325SOL    HW1  974   2.664   2.711   0.895 -2.6164  3.1314  0.9669
  325SOL    HW2  975   2.595   2.866   0.880 -0.1323  2.3239 -0.7408
  326SOL     OW  976   1.616   2.934   0.579 -0.5006 -0.2263  0.2175
  326SOL    HW1  977   1.566   2.961   0.493  0.6834  0.1505 -0.8358
  326SOL    HW2  978   1.631   2.832   0.575  1.7083  0.6009  0.4408
  327SOL     OW  979   2.112   2.481   0.231  0.3765 -0.3742 -0.6334
  327SOL    HW1  980   2.042   2.432   0.286  0.3626  0.6294  0.0182
  327SOL    HW2  981   2.075   2.567   0.189  0.2982 -1.0511 -2.3507
  328SOL     OW  982   2.724   2.296   2.029  0.0668  0.2178 -0.3897
  328SOL    HW1  983   2.805   2.240   1.995  3.4852 -1.9488 -3.5128
  328SOL    HW2  984   2.735   2.302   2.133  0.5740  1.7578 -0.1958
  329SOL     OW  985   0.214   2.118   0.708 -0.1337 -0.3181  0.0537
  329SOL    HW1  986   0.165   2.085   0.793 -1.3209 -1.5605  1.7986
  329SOL    HW2  987   0.315   2.098   0.714  2.7422  0.9807  3.2463
  330SOL     OW  988   2.171   1.003   1.888 -0.0832 -0.8047 -0.4630
  330SOL    HW1  989   2.199   1.081   1.827  1.6924  3.0317  2.3358
  330SOL    HW2  990   2.116   0.928   1.847  0.1318  2.2775  2.7983
  331SOL     OW  991   2.329   1.805   0.698  0.8090 -0.1445 -0.4400
  331SOL    HW1  992   2.424   1.833   0.690  0.8071 -0.3240  3.0822
  331SOL    HW2  993   2.282   1.861   0.770  0.4436  0.7192  0.2497
  332SOL     OW  994   0.098   2.576   1.365  0.1992  0.8063  0.3607
  332SOL    HW1  995   0.005   2.584   1.324 -0.7312  0.4795 -0.7289
  332SOL    HW2  996   0.137   2.674   1.364 -0.4674  0.9465  0.2602
  333SOL     OW  997   2.942   1.604   1.946 -0.3217  0.4477 -0.2489
  333SOL    HW1  998   2.956   1.617   2.046 -1.2889 -0.5669 -2.0502
  333SOL    HW2  999   3.016   1.649   1.890 -0.0621  0.0633 -0.0885
  334SOL     OW 1000   0.271   0.643   1.464  0.3588  0.9595 -0.0050
  334SOL    HW1 1001   0.179   0.687   1.466 -0.3563 -3.4101  1.2544
  334SOL    HW2 1002   0.271   0.555   1.413 -0.3352 -2.0379  2.0001
  335SOL     OW 1003   2.676   1.611   1.850 -0.1772  0.3588  0.4532
  335SOL    HW1 1004   2.667   1.512   1.819  2.5168 -1.5473 -1.0509
  335SOL    HW2 1005   2.765   1.627   1.901  1.1107  0.1790 -0.7797
  336SOL     OW 1006   1.690   3.038   0.017  0.0614 -0.2867  0.2755
  336SOL    HW1 1007   1.617   2.978   3.071  3.1597  3.8945  0.7583
  336SOL    HW2 1008   1.775   3.023   3.049  0.3535 -0.3383  0.3829
  337SOL     OW 1009   0.704   0.498   1.299 -0.4279  0.0581 -0.0435
  337SOL    HW1 1010   0.666   0.461   1.215  1.5612  3.1659  3.1275
  337SOL    HW2 1011   0.659   0.579   1.332 -0.5621 -0.4777 -0.1311
  338SOL     OW 1012   1.471   2.370   0.956  0.0281  0.2554 -0.5400
  338SOL    HW1 1013   1.497   2.340   0.862  1.4442  0.7951 -1.4424
  338SOL    HW2 1014   1.514   2.319   1.035 -0.5851 -1.5962 -1.0577
  339SOL     OW 1015   0.439   1.776   1.050  0.7315 -0.3498 -0.5995
  339SOL    HW1 1016   0.337   1.757   1.060  0.5420  0.1027 -1.4782
  339SOL    HW2 1017   0.467   1.839   1.125  0.2830  0.6832 -0.2869
  340SOL     OW 1018   0.298   0.022   2.212  0.7106 -0.0532  0.3981
  340SOL    HW1 1019   0.242   3.075   2.131 -0.7452 -0.8346 -1.6326
  340SOL    HW2 1020   0.287   3.033   2.281  1.4915  2.1485 -0.8379
  341SOL     OW 1021   2.380   1.498   0.742  0.3438 -0.2164  0.0138
  341SOL    HW1 1022   2.302   1.555   0.703 -1.2306  3.9903  1.9854
  341SOL    HW2 1023   2.466   1.516   0.691 -0.7047 -2.7086 -0.6017
  342SOL     OW 1024   1.654   2.165   0.496 -0.2784  0.3260  0.2612
  342SOL    HW1 1025   1.684   2.196   0.406 -0.8101  0.0235 -1.3025
  342SOL    HW2 1026   1.601   2.238   0.534  0.0766 -0.0103 -1.7651
  343SOL     OW 1027   1.904   0.414   0.825 -0.1433  0.5982 -0.3723
  343SOL    HW1 1028   1.835   0.345   0.863  0.9906 -0.5782 -1.8416
  343SOL    HW2 1029   1.997   0.376   0.818  2.3197 -2.5096  0.8118
  344SOL     OW 1030   2.570   0.244   2.908 -0.4769 -0.5043 -0.4613
  344SOL    HW1 1031   2.534   0.336   2.895  0.1288  0.6341 -1.0686
  344SOL    HW2 1032   2.670   0.240   2.902 -3.2338  1.6387  1.5674
  345SOL     OW 1033   1.452   0.086   1.282 -0.0201 -0.2166  0.3385
  345SOL    HW1 1034   1.510   0.008   1.307 -2.4854 -0.5514  0.1163
  345SOL    HW2 1035   1.387   0.091   1.360  2.6283 -0.9779  1.7789
  346SOL     OW 1036   2.195   2.243   1.714  0.5711  0.1547  0.5138
  346SOL    HW1 1037   2.110   2.296   1.699 -1.6053 -0.4480  0.9771
  346SOL    HW2 1038   2.191   2.156   1.663  0.0557  2.9114  1.5834
  347SOL     OW 1039   2.649   2.969   0.498  0.0052  0.0997 -0.2924
  347SOL    HW1 1040   2.709   2.905   0.549  0.6525  0.8983 -0.9723
  347SOL    HW2 1041   2.672   3.070   0.513 -0.3257  0.5845  0.5424
  348SOL     OW 1042   0.687   1.083   1.139 -0.2283 -0.1766 -0.4651
  348SOL    HW1 1043   0.753   1.066   1.064 -2.4983 -1.3268 -0.3671
  348SOL    HW2 1044   0.720   1.127   1.222 -1.8169 -1.1276  0.5321
  349SOL     OW 1045   2.249   0.041   0.119 -0.0049 -0.5134 -0.4102
  349SOL    HW1 1046   2.314   0.115   0.084 -2.3658  1.7110 -0.2353
  349SOL    HW2 1047   2.254   0.023   0.217 -1.3224  0.0674 -0.6317
  350SOL     OW 1048   2.418   1.893   3.022  0.3561 -0.3952 -0.3150
  350SOL    HW1 1049   2.322   1.863   3.027  2.6357 -4.1736 -0.5744
  350SOL    HW2 1050   2.452   1.869   2.929 -0.3219  0.3035 -0.8751
  351SOL     OW 1051   1.032   0.427   0.726 -0.0966  0.5886 -0.0226
  351SOL    HW1 1052   1.078   0.441   0.816 -1.9293 -0.2046 -0.6134
  351SOL    HW2 1053   0.941   0.377   0.744  0.6330 -0.0953  0.8828
  352SOL     OW 1054   2.072   2.328   2.700  0.1332  0.3320 -0.1517
  352SOL    HW1 1055   2.094   2.226   2.706 -1.0062  0.9812 -0.2906
  352SOL    HW2 1056   2.037   2.365   2.791 -1.9256 -0.3612  0.3163
  353SOL     OW 1057   0.866   0.568   0.025  0.1333  0.0110 -0.3090
  353SOL    HW1 1058   0.870   0.669   0.036  0.0723  1.8069 -0.0895
  353SOL    HW2 1059   0.788   0.535   0.074 -0.1197 -0.3633 -0.4858
  354SOL     OW 1060   0.853   1.893   2.788  0.1209  0.1850  0.4863
  354SOL    HW1 1061   0.776   1.836   2.823  0.6532 -1.9212 -0.3560
  354SOL    HW2 1062   0.944   1.854   2.815 -0.0786 -1.0771 -3.9612
  355SOL     OW 1063   2.812   2.687   1.884  0.1913  0.3068  0.1247
  355SOL    HW1 1064   2.724   2.637   1.877  1.5281  1.6795 -0.9784
  355SOL    HW2 1065   2.801   2.775   1.833 -1.5114 -0.1600 -1.1081
  356SOL     OW 1066   2.813   0.760   0.681 -0.5288 -0.1243 -0.0964
  356SOL    HW1 1067   2.751   0.839   0.689  0.1659  1.3856 -1.6014
  356SOL    HW2 1068   2.758   0.685   0.637  0.2327  2.4675 -0.5744
  357SOL     OW 1069   2.393   0.267   1.132  0.5157 -0.1371 -0.2036
  357SOL    HW1 1070   2.404   0.371   1.133  3.5217  1.8808  1.1518
  357SOL    HW2 1071   2.342   0.235   1.211  2.1913  1.1152 -1.6916
  358SOL     OW 1072   1.255   2.645   1.366 -0.4340 -0.0097 -0.0847
  358SOL    HW1 1073   1.204   2.639   1.276  0.6878 -0.7285 -2.6324
  358SOL    HW2 1074   1.336   2.701   1.352 -1.4462 -1.9284 -2.5874
  359SOL     OW 1075   3.007   2.149   2.711 -0.1605 -0.2267  0.4425
  359SOL    HW1 1076   3.083   2.086   2.734 -3.1844 -0.2822  3.2796
  359SOL    HW2 1077   2.997   2.223   2.777 -2.2184 -0.7597  0.5460
  360SOL     OW 1078   0.536   1.015   1.574  0.3081 -0.7710  0.6445
  360SOL    HW1 1079   0.536   1.081   1.654  0.4265  0.1076 -0.6275
  360SOL    HW2 1080   0.587   0.931   1.601 -0.8630 -1.0623  0.7312
  361SOL     OW 1081   2.417   2.839   0.567 -0.5597 -0.0992 -0.2822
  361SOL    HW1 1082   2.334   2.887   0.597  0.6375 -0.5617  0.8808
  361SOL    HW2 1083   2.483   2.915   0.547 -1.8139  1.7347 -2.6733
  362SOL     OW 1084   2.905   2.817   1.053 -0.3878 -0.4203 -0.0454
  362SOL    HW1 1085   2.973   2.763   1.000  2.0329  0.2221  0.3512
  362SOL    HW2 1086   2.815   2.824   1.004 -0.9757 -1.2289  1.1863
  363SOL     OW 1087   0.954   1.444   0.570 -0.5263 -0.1774  0.8550
  363SOL    HW1 1088   0.957   1.344   0.557 -0.8016  2.3396 -0.1525
  363SOL    HW2 1089   0.892   1.479   0.648 -0.7650 -0.0997 -0.2779
  364SOL     OW 1090   0.592   1.370   1.279  0.1158  0.5028  0.1589
  364SOL    HW1 1091   0.610   1.280   1.327 -0.2867  0.1448 -2.3894
  364SOL    HW2 1092   0.677   1.429   1.276  0.0970  1.4559  0.8625
  365SOL     OW 1093   2.570   1.633   0.330 -0.1551  0.2841 -0.3587
  365SOL    HW1 1094   2.667   1.607   0.315 -3.4233  0.2182 -0.8794
  365SOL    HW2 1095   2.554   1.724   0.286  1.0509 -1.4898  2.4494
  366SOL     OW 1096   2.843   1.722   1.076 -0.7654 -0.0400  0.4391
  366SOL    HW1 1097   2.868   1.697   1.173  0.4653 -2.5860  1.9387
  366SOL    HW2 1098   2.782   1.801   1.075 -1.0853 -1.4637 -0.4603
  367SOL     OW 1099   2.123   2.129   2.190 -0.2312 -0.0605  0.5273
  367SOL    HW1 1100   2.085   2.128   2.096  0.7317 -0.7303 -1.9639
  367SOL    HW2 1101   2.213   2.078   2.199  0.2687 -2.8650 -1.2500
  368SOL     OW 1102   2.721   1.012   1.223 -0.0185  0.0454 -0.4215
  368SOL    HW1 1103   2.682   1.055   1.305  1.5132  1.4485 -0.5749
  368SOL    HW2 1104   2.740   0.910   1.242 -3.9863 -2.9931 -0.1443
  369SOL     OW 1105   2.001   2.738   0.186  0.8183 -0.3900  0.6235
  369SOL    HW1 1106   1.983   2.772   0.278 -0.3604 -0.9494 -1.2115
  369SOL    HW2 1107   2.060   2.798   0.136 -0.2472 -3.1324  2.1212
  370SOL     OW 1108   2.677   2.495   1.347  0.2379  0.2256 -0.2221
  370SOL    HW1 1109   2.646   2.507   1.443 -0.2150  0.6695  2.0276
  370SOL    HW2 1110   2.684   2.590   1.308 -3.0569 -0.0907  3.9009
  371SOL     OW 1111   0.902   1.607   2.478  0.0510  0.3306 -0.1583
  371SOL    HW1 1112   1.008   1.617   2.463 -0.1085 -0.3078 -2.1415
  371SOL    HW2 1113   0.851   1.695   2.466 -0.7296  1.5598  1.7422
  372SOL     OW 1114   0.963   1.140   0.494 -0.2084 -0.2885  0.6188
  372SOL    HW1 1115   0.864   1.103   0.519 -1.4186 -1.6397 -1.1964
  372SOL    HW2 1116   0.966   1.162   0.397  1.7227 -1.2840  2.0650
  373SOL     OW 1117   1.441   2.764   0.086  0.6224  0.1352 -0.3441
  373SOL    HW1 1118   1.432   2.723   0.179  0.0675 -1.7092  1.1414
  373SOL    HW2 1119   1.459   2.696   0.015  0.5568  0.2459 -0.8275
  374SOL     OW 1120   0.269   1.667   0.061  0.1948 -0.2620 -0.2760
  374SOL    HW1 1121   0.212   1.675   3.064 -1.4899 -0.2841  0.8775
  374SOL    HW2 1122   0.342   1.599   0.042  1.5610  1.8443 -1.5622
  375SOL     OW 1123   0.939   1.605   2.003  0.2867  0.2329 -0.4119
  375SOL    HW1 1124   0.960   1.571   1.909 -1.0674 -0.1108  3.7290
  375SOL    HW2 1125   0.880   1.554   2.064  0.6964  2.5279 -0.9621
  376SOL     OW 1126   0.530   2.464   1.664  0.2096  0.2495 -0.1994
  376SOL    HW1 1127   0.449   2.423   1.711 -1.9358  0.2882  2.0733
  376SOL    HW2 1128   0.606   2.469   1.732  0.2880 -0.0122 -0.1591
  377SOL     OW 1129   2.350   1.490   1.948  0.3857  0.1257 -0.5047
  377SOL    HW1 1130   2.251   1.473   1.978 -0.8415 -0.2614  0.0109
  377SOL    HW2 1131   2.405   1.413   1.986  0.0763  0.1130 -0.4490
  378SOL     OW 1132   1.013   3.036   2.729 -0.1493  0.1167 -0.3203
  378SOL    HW1 1133   1.021   0.004   2.641  0.5255  1.5126  0.3326
  378SOL    HW2 1134   0.992   0.028   2.797  0.5047 -1.3245 -0.6042
  379SOL     OW 1135   1.632   0.691   0.833 -0.2204  0.2185 -0.3985
  379SOL    HW1 1136   1.551   0.652   0.884 -2.6584  1.0806 -0.2937
  379SOL    HW2 1137   1.607   0.716   0.736  1.2480 -1.5433  1.2110
  380SOL     OW 1138   2.665   1.665   1.545  0.1729 -0.0071  0.3077
  380SOL    HW1 1139   2.705   1.643   1.638  0.5204  0.4801  0.5817
  380SOL    HW2 1140   2.647   1.765   1.530 -1.7285  1.6764 -0.8432
  381SOL     OW 1141   1.468   1.756   1.516  0.0442 -0.1761 -0.0415
  381SOL    HW1 1142   1.479   1.804   1.604 -3.4837  0.4977 -1.5712
  381SOL    HW2 1143   1.444   1.824   1.444  1.2521 -0.6188  1.5360
  382SOL     OW 1144   0.072   0.494   2.930  0.5247  0.5544 -0.0438
  382SOL    HW1 1145   0.039   0.399   2.952  1.1849  0.0755 -1.9353
  382SOL    HW2 1146   0.071   0.551   3.014 -1.2447  0.5282  0.5811
  383SOL     OW 1147   1.601   1.165   2.628  0.4004  0.3082  0.5948
  383SOL    HW1 1148   1.512   1.198   2.662  0.6377 -0.5141 -1.0428
  383SOL    HW2 1149   1.676   1.235   2.641 -0.3923  4.1954 -0.6945
  384SOL     OW 1150   0.959   2.458   1.210  0.3958 -0.1086  0.6310
  384SOL    HW1 1151   1.028   2.522   1.169 -0.7058 -2.1975 -0.6271
  384SOL    HW2 1152   1.002   2.368   1.228 -0.2824  1.4190 -0.0178
  385SOL     OW 1153   1.724   2.416   0.776  0.3444  0.4167  0.9792
  385SOL    HW1 1154   1.768   2.418   0.678 -0.9234  1.7759  1.2874
  385SOL    HW2 1155   1.784   2.378   0.848 -1.3883  0.0400 -2.0511
  386SOL     OW 1156   2.176   2.042   1.077 -0.0244 -0.4478 -0.5543
  386SOL    HW1 1157   2.081   2.035   1.109 -0.9236 -1.2893 -2.7753
  386SOL    HW2 1158   2.229   2.103   1.139 -0.0095  0.1265 -0.1966
  387SOL     OW 1159   0.350   2.157   1.315  0.2800 -0.1859 -0.1892
  387SOL    HW1 1160   0.428   2.203   1.357 -0.4353 -0.0240  0.4085
  387SOL    HW2 1161   0.375   2.059   1.301  0.8505 -3.0962  0.2590
  388SOL     OW 1162   3.043   0.625   1.767  0.8126 -0.0141 -0.2896
  388SOL    HW1 1163   2.959   0.632   1.828 -1.2178  3.4993  3.1291
  388SOL    HW2 1164   0.003   0.535   1.770 -0.6450  1.7900 -1.6972
  389SOL     OW 1165   1.882   1.257   1.077  0.1250  0.1421 -0.1193
  389SOL    HW1 1166   1.919   1.333   1.025  0.9358 -1.0041  2.1366
  389SOL    HW2 1167   1.776   1.261   1.081  0.7927  0.6501  1.8991
  390SOL     OW 1168   0.840   2.197   2.203  0.4653  0.0018 -0.0671
  390SOL    HW1 1169   0.755   2.235   2.250 -0.9844  1.4790  1.2702
  390SOL    HW2 1170   0.824   2.100   2.176  0.0994  0.3634 -0.8395
  391SOL     OW 1171   1.076   1.860   2.489 -0.4291 -0.1911 -0.3226
  391SOL    HW1 1172   0.978   1.853   2.518  1.2519  1.2211 -1.5038
  391SOL    HW2 1173   1.089   1.897   2.397 -1.6629  3.3115  0.5044
  392SOL     OW 1174   2.978   2.949   2.155 -0.2701  0.8139  0.5157
  392SOL    HW1 1175   2.984   2.848   2.149 -0.1104  1.2317 -1.7579
  392SOL    HW2 1176   2.993   2.991   2.243  2.1884 -1.6334 -1.2351
  393SOL     OW 1177   1.891   2.777   0.420 -0.1010 -0.0126 -0.5029
  393SOL    HW1 1178   1.799   2.807   0.379 -0.2464 -1.3105  0.5069
  393SOL    HW2 1179   1.888   2.688   0.471  2.8806 -1.4047 -0.0514
  394SOL     OW 1180   0.787   0.674   2.574  0.5049  0.0822  0.3338
  394SOL    HW1 1181   0.747   0.689   2.666 -1.3728  0.1483  3.2772
  394SOL    HW2 1182   0.711   0.642   2.510  2.6500  0.7352  1.4159
  395SOL     OW 1183   0.695   1.171   1.408 -0.0240  0.1306 -0.3158
  395SOL    HW1 1184   0.642   1.102   1.459 -0.0211  0.5560 -2.6120
  395SOL    HW2 1185   0.746   1.224   1.479 -1.8040  1.4454  0.7436
  396SOL     OW 1186   1.718   1.606   2.037  0.1136  0.5356 -0.0647
  396SOL    HW1 1187   1.635   1.547   2.024  1.0216 -1.9000 -2.8515
  396SOL    HW2 1188   1.787   1.550   2.085 -1.1398  1.2146 -0.3494
  397SOL     OW 1189   0.960   0.459   2.634  0.1810 -0.4058  0.1610
  397SOL    HW1 1190   0.997   0.499   2.719  0.8525 -1.7332 -1.9576
  397SOL    HW2 1191   0.894   0.530   2.595  1.7741  0.3426 -0.3038
  398SOL     OW 1192   0.244   1.983   2.464 -0.3958 -0.0851  0.3138
  398SOL    HW1 1193   0.321   2.028   2.513 -1.5844 -0.5285  1.7876
  398SOL    HW2 1194   0.247   1.986   2.360  0.0154  0.8668 -1.1391
  399SOL     OW 1195   0.160   1.574   2.247 -0.5096  0.1049  0.1435
  399SOL    HW1 1196   0.193   1.545   2.152  1.6325  2.2074  1.0280
  399SOL    HW2 1197   0.231   1.555   2.319  0.1563 -1.1603  1.7762
  400SOL     OW 1198   2.794   0.255   1.667 -0.0765  0.1212 -0.1454
  400SOL    HW1 1199   2.705   0.211   1.695 -1.1368  0.1528  0.1669
  400SOL    HW2 1200   2.874   0.207   1.704  3.3035  1.1797 -1.8094
  401SOL     OW 1201   0.768   1.607   0.265  0.1694  0.0439  0.1772
  401SOL    HW1 1202   0.858   1.618   0.315  1.9316 -0.9506  1.3358
  401SOL    HW2 1203   0.704   1.545   0.315 -1.2862 -1.8303  0.6509
  402SOL     OW 1204   3.035   2.391   2.051  0.0515  0.1045 -0.4442
  402SOL    HW1 1205   3.046   2.391   1.952  1.7730 -0.7978  0.7825
  402SOL    HW2 1206   3.052   2.295   2.085 -0.1584 -0.4084 -1.7882
  403SOL     OW 1207   0.372   1.207   1.999 -0.7758 -0.5638 -0.0873
  403SOL    HW1 1208   0.305   1.134   1.984 -0.8024 -0.2251  1.5085
  403SOL    HW2 1209   0.362   1.247   2.094  1.4680  0.1223  0.2832
  404SOL     OW 1210   1.759   2.166   1.363 -0.3028 -0.3979  0.2586
  404SOL    HW1 1211   1.702   2.150   1.447  0.6742  4.3942 -0.1610
  404SOL    HW2 1212   1.854   2.189   1.387 -2.5243 -0.0124  0.7175
  405SOL     OW 1213   2.655   2.517   2.637  0.4688 -0.0954 -0.3851
  405SOL    HW1 1214   2.655   2.595   2.707 -0.7597  0.9218  2.7853
  405SOL    HW2 1215   2.746   2.500   2.591  0.2086  1.1469 -2.9759
  406SOL     OW 1216   0.724   1.180   2.778 -0.4871 -0.4049 -0.1742
  406SOL    HW1 1217   0.787   1.106   2.806 -1.4623  1.1346  0.1369
  406SOL    HW2 1218   0.779   1.258   2.738  0.0430 -2.0673  0.1404
  407SOL     OW 1219   2.334   2.924   2.910  0.4360  0.2905  0.0665
  407SOL    HW1 1220   2.362   2.857   2.843 -0.2400 -0.2193  0.3099
  407SOL    HW2 1221   2.413   2.946   2.974  0.5659  0.3361  3.9776
  408SOL     OW 1222   2.642   2.644   0.002  0.4600  0.4197  0.3422
  408SOL    HW1 1223   2.713   2.614   0.069  0.2552 -1.6157 -0.2947
  408SOL    HW2 1224   2.570   2.574   3.070 -0.4186  0.7213  2.3841
  409SOL     OW 1225   2.267   1.212   0.790 -0.5849  0.1060 -0.4596
  409SOL    HW1 1226   2.305   1.304   0.806  0.5747  1.2525 -0.6639
  409SOL    HW2 1227   2.164   1.202   0.781 -2.4638  0.0569  2.4735
  410SOL     OW 1228   2.930   1.670   0.828 -0.0347  0.4496  0.1423
  410SOL    HW1 1229   2.899   1.697   0.921 -0.6667 -0.5233 -2.6519
  410SOL    HW2 1230   3.005   1.601   0.824 -0.4515  0.7955 -0.7525
  411SOL     OW 1231   0.310   1.483   0.792 -0.0488  0.1838 -0.0924
  411SOL    HW1 1232   0.324   1.583   0.776  0.1966 -1.3156  0.8165
  411SOL    HW2 1233   0.347   1.452   0.885 -0.5103  2.6566  2.6655
  412SOL     OW 1234   2.309   2.378   0.598  0.9170 -0.5231 -0.1006
  412SOL    HW1 1235   2.310   2.457   0.531 -0.2407  0.0962  0.1046
  412SOL    HW2 1236   2.227   2.378   0.660  1.0960 -0.4750 -1.4038
  413SOL     OW 1237   1.532   1.134   1.892 -0.3915 -0.2324 -0.5328
  413SOL    HW1 1238   1.470   1.088   1.831  1.0432  1.7562  0.4781
  413SOL    HW2 1239   1.485   1.167   1.972 -0.7672 -1.2390 -1.9064
  414SOL     OW 1240   2.903   2.985   0.053  0.6670  0.1802 -0.3832
  414SOL    HW1 1241   2.899   3.076   0.092  3.7078  1.3705  0.8487
  414SOL    HW2 1242   2.892   2.981   3.036  0.8977  0.8530 -2.7935
  415SOL     OW 1243   1.071   2.203   1.581 -0.4565  0.8699  0.0412
  415SOL    HW1 1244   0.988   2.242   1.539  0.6979 -0.8837  1.1625
  415SOL    HW2 1245   1.046   2.153   1.664 -0.2927  2.5156  2.4335
  416SOL     OW 1246   2.897   2.404   2.563 -0.0594  0.3829  0.3425
  416SOL    HW1 1247   2.982   2.451   2.544 -1.6589 -1.2234 -1.9896
  416SOL    HW2 1248   2.920   2.346   2.642 -0.0059 -0.6497 -0.8654
  417SOL     OW 1249   2.680   0.513   1.303 -0.4744  0.2133  0.0266
  417SOL    HW1 1250   2.692   0.420   1.267 -0.4376 -0.4286  2.7696
  417SOL    HW2 1251   2.723   0.524   1.389  0.1746  3.1256 -2.2688
  418SOL     OW 1252   2.879   0.163   0.122 -0.0277  0.0524  0.0439
  418SOL    HW1 1253   2.935   0.164   0.205 -2.1593  1.8616 -1.2047
  418SOL    HW2 1254   2.784   0.136   0.146  1.8082 -1.2487  0.4421
  419SOL     OW 1255   3.081   1.509   1.505  0.3623  0.6343 -0.4937
  419SOL    HW1 1256   3.043   1.426   1.460  1.1830  3.4413 -1.0165
  419SOL    HW2 1257   0.082   1.546   1.464  0.3073 -1.0497  1.0500
  420SOL     OW 1258   0.450   1.451   0.039  0.2835  0.9066 -0.2545
  420SOL    HW1 1259   0.429   1.398   0.124 -0.4768 -1.3687 -2.1173
  420SOL    HW2 1260   0.426   1.390   3.044  1.5746  0.5215  3.8384
  421SOL     OW 1261   2.233   2.660   2.421  0.1647  0.1352  0.0507
  421SOL    HW1 1262   2.293   2.735   2.392 -1.0325 -0.2739 -0.1510
  421SOL    HW2 1263   2.289   2.582   2.439 -1.9514  2.1182  0.3916
  422SOL     OW 1264   0.425   0.800   2.674 -0.1491 -0.1111 -0.3991
  422SOL    HW1 1265   0.455   0.887   2.632 -1.1811  1.2603  2.5966
  422SOL    HW2 1266   0.324   0.789   2.686 -0.6242 -1.1239  1.5290
  423SOL     OW 1267   1.230   2.011   0.510 -0.4836  0.4212 -0.0738
  423SOL    HW1 1268   1.274   2.057   0.589  0.6285  4.3880 -0.3196
  423SOL    HW2 1269   1.139   1.967   0.533  0.0652  0.9739 -0.5315
  424SOL     OW 1270   0.869   1.902   1.609 -0.1647  0.5273  0.2973
  424SOL    HW1 1271   0.939   1.944   1.666  1.8719  0.2862  0.8116
  424SOL    HW2 1272   0.790   1.875   1.668 -1.5915 -0.7257  0.1681
  425SOL     OW 1273   2.416   2.498   2.524 -0.1360 -0.4848 -0.2761
  425SOL    HW1 1274   2.434   2.418   2.467 -0.3670  0.2079  2.4887
  425SOL    HW2 1275   2.506   2.518   2.574  1.7806  1.7601  1.4964
  426SOL     OW 1276   1.438   0.638   1.012 -0.5252  0.3226 -0.0419
  426SOL    HW1 1277   1.474   0.659   1.105 -0.9611  2.7089 -0.1654
  426SOL    HW2 1278   1.344   0.671   1.003  2.4710 -0.6820 -1.9484
  427SOL     OW 1279   0.042   1.552   2.527  0.2772 -0.0728 -0.2669
  427SOL    HW1 1280   3.035   1.553   2.572 -0.4987 -1.6746  2.1250
  427SOL    HW2 1281   0.043   1.489   2.448  0.0957 -0.9157  1.6924
  428SOL     OW 1282   1.230   1.386   0.067 -0.1040 -0.4464 -0.5201
  428SOL    HW1 1283   1.155   1.422   0.012 -0.1835  0.0477  1.2800
  428SOL    HW2 1284   1.324   1.406   0.030  0.4509 -0.4691 -1.5370
  429SOL     OW 1285   2.926   2.592   0.435  0.1937 -0.9125 -0.0290
  429SOL    HW1 1286   2.837   2.548   0.436 -0.5444 -1.2695  2.1424
  429SOL    HW2 1287   2.947   2.639   0.346 -1.0446  2.0983  0.8559
  430SOL     OW 1288   0.386   2.317   2.264 -0.0819 -0.8808 -0.0897
  430SOL    HW1 1289   0.299   2.370   2.281  0.5189  0.4213  1.7048
  430SOL    HW2 1290   0.363   2.245   2.198 -1.7640  2.6448  2.4169
  431SOL     OW 1291   2.993   1.057   0.271  0.0963 -0.2603 -0.3528
  431SOL    HW1 1292   3.078   1.087   0.220 -1.8484  0.6951 -0.1297
  431SOL    HW2 1293   2.981   0.956   0.262  1.8354  1.4486 -2.4770
  432SOL     OW 1294   1.659   2.629   2.559 -0.1499  0.1586  0.0765
  432SOL    HW1 1295   1.651   2.691   2.637 -3.8039 -1.0560 -0.0333
  432SOL    HW2 1296   1.590   2.646   2.487  0.3888  1.5993  1.8616
  433SOL     OW 1297   1.031   2.593   0.585 -0.0007  0.1876  0.1629
  433SOL    HW1 1298   1.111   2.656   0.594  1.4279 -2.4558  0.8223
  433SOL    HW2 1299   0.943   2.645   0.603 -0.7604  0.9749  0.3864
  434SOL     OW 1300   1.489   1.891   2.312 -0.4820 -0.3051  0.7353
  434SOL    HW1 1301   1.517   1.963   2.379  1.4278 -0.7426 -0.8718
  434SOL    HW2 1302   1.521   1.801   2.347  1.5892 -0.1771 -2.7170
  435SOL     OW 1303   2.330   0.677   0.150 -0.1444 -0.3976  0.4803
  435SOL    HW1 1304   2.374   0.753   0.100  1.4528 -1.0391  1.2686
  435SOL    HW2 1305   2.298   0.707   0.240 -0.0907 -1.3800 -2.3473
  436SOL     OW 1306   0.303   2.680   2.309 -0.1758  0.2975  0.3164
  436SOL    HW1 1307   0.239   2.604   2.311  3.4234  0.1922 -1.0578
  436SOL    HW2 1308   0.388   2.662   2.361  0.1538 -0.0947 -2.0984
  437SOL     OW 1309   2.057   2.956   1.470 -0.1205 -0.1043  0.0261
  437SOL    HW1 1310   2.068   2.865   1.512 -1.7795  1.9224 -1.4642
  437SOL    HW2 1311   2.133   2.965   1.400  0.0880  1.8901  0.2602
  438SOL     OW 1312   0.074   1.791   0.559  0.0604  0.0106  0.1753
  438SOL    HW1 1313   0.070   1.827   0.657  0.8694 -1.4775  0.9698
  438SOL    HW2 1314   0.167   1.807   0.522 -2.8249  2.5879 -0.7144
  439SOL     OW 1315   0.002   2.979   1.165 -0.2384 -0.1941 -0.6325
  439SOL    HW1 1316   0.070   3.021   1.098 -0.5036  0.2759  0.6817
  439SOL    HW2 1317   3.013   2.922   1.123  1.8536  1.3816  0.8883
  440SOL     OW 1318   2.661   2.852   2.286 -0.0656 -0.1214 -0.0404
  440SOL    HW1 1319   2.704   2.763   2.264  0.5806 -1.1200  0.8069
  440SOL    HW2 1320   2.670   2.922   2.216 -3.0371  2.1138 -0.2336
  441SOL     OW 1321   0.303   0.609   0.364  0.8006 -0.7872 -0.2403
  441SOL    HW1 1322   0.315   0.711   0.364  1.0608  1.2361 -0.7840
  441SOL    HW2 1323   0.208   0.585   0.335 -0.4508 -2.9973  1.6935
  442SOL     OW 1324   1.403   2.279   2.318  0.4274 -0.3051 -0.5867
  442SOL    HW1 1325   1.437   2.199   2.375  3.7007 -1.2458 -1.0016
  442SOL    HW2 1326   1.337   2.331   2.371  0.1957  1.7319 -0.4737
  443SOL     OW 1327   0.669   2.936   2.991  0.4015  0.0139  0.0537
  443SOL    HW1 1328   0.625   2.856   2.943  0.4939 -0.4574 -1.3701
  443SOL    HW2 1329   0.653   3.018   2.936  1.2155  0.1301  0.6294
  444SOL     OW 1330   1.458   1.716   2.639  0.6190 -0.9365 -0.0692
  444SOL    HW1 1331   1.359   1.683   2.635 -2.9935 -1.6159  0.8422
  444SOL    HW2 1332   1.501   1.703   2.553 -0.8788 -0.6485  2.8714
  445SOL     OW 1333   0.379   0.201   1.147 -0.0701  0.2210 -0.3403
  445SOL    HW1 1334   0.306   0.147   1.095 -3.0786  0.2196  3.5466
  445SOL    HW2 1335   0.406   0.148   1.231  0.5480 -2.1599  1.2765
  446SOL     OW 1336   1.656   0.956   1.066  0.0720  0.0314 -0.6218
  446SOL    HW1 1337   1.669   0.935   1.166  3.6925  1.8456  2.5009
  446SOL    HW2 1338   1.727   0.920   1.005 -1.0686  0.1310  0.7256
  447SOL     OW 1339   3.001   0.787   0.329  0.2754 -0.4193  0.1068
  447SOL    HW1 1340   2.919   0.731   0.314  2.2526 -0.2488 -0.5079
  447SOL    HW2 1341   3.026   0.773   0.425 -1.3941 -0.5667  0.6476
  448SOL     OW 1342   2.387   1.845   1.080  0.1621 -0.4934 -0.4132
  448SOL    HW1 1343   2.381   1.839   1.186 -1.0046  1.6950  1.3037
  448SOL    HW2 1344   2.315   1.912   1.056  0.3784  4.1741  0.8398
  449SOL     OW 1345   1.060   1.358   2.827  0.1899 -0.2938  0.4183
  449SOL    HW1 1346   1.115   1.411   2.763 -1.8124 -3.1219  0.2255
  449SOL    HW2 1347   1.013   1.406   2.902  1.9445 -2.8713 -2.2670
  450SOL     OW 1348   2.396   2.858   2.346  1.0391 -0.5370  0.3860
  450SOL    HW1 1349   2.495   2.838   2.334  0.4290  0.4968 -1.8450
  450SOL    HW2 1350   2.382   2.919   2.424  0.4458 -2.9087 -0.9557
  451SOL     OW 1351   2.581   0.789   2.472 -0.0517 -0.5960 -0.1580
  451SOL    HW1 1352   2.552   0.701   2.430  2.3315 -0.1596  2.3831
  451SOL    HW2 1353   2.611   0.848   2.395  0.2509  3.3970 -0.2619
  452SOL     OW 1354   1.525   1.224   1.298 -0.1449  0.2570 -0.1886
  452SOL    HW1 1355   1.556   1.275   1.216 -0.1377 -0.3969 -0.5025
  452SOL    HW2 1356   1.500   1.287   1.377  0.2762 -1.3959  2.2123
  453SOL     OW 1357   1.794   0.411   1.768 -0.0345 -0.5453 -0.3774
  453SOL    HW1 1358   1.780   0.314   1.747  0.6382 -2.0721 -0.6659
  453SOL    HW2 1359   1.706   0.466   1.777 -0.0997  1.0728  1.4765
  454SOL     OW 1360   2.942   0.823   2.960  0.2392  0.1915  0.7991
  454SOL    HW1 1361   2.961   0.762   2.879  1.5459 -1.4727 -2.6189
  454SOL    HW2 1362   2.968   0.777   3.051  1.6001 -0.8887  5.2195
  455SOL     OW 1363   2.434   1.536   1.519  0.6776 -0.0015  0.3131
  455SOL    HW1 1364   2.369   1.541   1.600 -0.9696  0.8217  1.5225
  455SOL    HW2 1365   2.514   1.599   1.539 -0.2908  2.9393 -0.1981
  456SOL     OW 1366   1.820   2.859   1.812 -0.0443 -0.3571  0.1603
  456SOL    HW1 1367   1.783   2.797   1.880  0.8386  1.7888 -2.3491
  456SOL    HW2 1368   1.917   2.840   1.808 -2.0423  1.8194 -0.8226
  457SOL     OW 1369   1.228   2.829   0.573  0.5880 -0.2470 -0.5201
  457SOL    HW1 1370   1.188   2.920   0.593 -0.6325 -0.1394  0.5819
  457SOL    HW2 1371   1.216   2.807   0.475  1.2039 -0.6542  0.3491
  458SOL     OW 1372   3.032   3.025   0.625  0.1522  0.1457 -0.3149
  458SOL    HW1 1373   2.967   2.952   0.641  2.8321 -1.7384  1.1723
  458SOL    HW2 1374   0.014   2.995   0.554  0.5317  0.9173  1.3706
  459SOL     OW 1375   2.078   1.290   0.494  0.5222 -0.0856  0.4881
  459SOL    HW1 1376   2.090   1.201   0.450  4.0147  1.0746  1.9361
  459SOL    HW2 1377   2.043   1.278   0.589  0.8199 -1.6704  0.4305
  460SOL     OW 1378   0.713   2.612   2.281 -0.0249  0.1000  1.2084
  460SOL    HW1 1379   0.689   2.698   2.229  0.5021  2.3874  0.7042
  460SOL    HW2 1380   0.777   2.635   2.355 -2.5806 -1.4400 -1.1645
  461SOL     OW 1381   0.655   1.725   2.884  0.2479  0.0597 -0.3669
  461SOL    HW1 1382   0.573   1.693   2.832 -1.4486 -0.9337 -1.0085
  461SOL    HW2 1383   0.688   1.660   2.957  0.3652 -0.6041 -1.8298
  462SOL     OW 1384   2.028   2.048   0.401 -0.4642  0.3506 -0.2563
  462SOL    HW1 1385   2.042   1.958   0.456  0.4626 -2.5828  1.0373
  462SOL    HW2 1386   2.091   2.053   0.322  1.8425 -1.1274 -1.6871
  463SOL     OW 1387   2.695   0.546   0.569  0.5816  0.0782 -0.1648
  463SOL    HW1 1388   2.729   0.475   0.632 -0.1079  1.5835  1.1780
  463SOL    HW2 1389   2.599   0.568   0.593  1.4608  1.8014 -2.8370
  464SOL     OW 1390   0.478   1.774   0.268  0.0090  0.0510  0.3903
  464SOL    HW1 1391   0.388   1.742   0.226 -1.9717 -0.2508  0.8057
  464SOL    HW2 1392   0.531   1.695   0.309  1.2347 -1.9954  3.9406
  465SOL     OW 1393   2.240   0.137   1.329 -0.1239 -0.3968 -0.3039
  465SOL    HW1 1394   2.221   0.060   1.265 -0.4920  0.7069 -1.7227
  465SOL    HW2 1395   2.159   0.195   1.344  2.8088 -3.0240 -2.6642
  466SOL     OW 1396   2.391   0.066   0.701  0.6101  0.5863  0.0041
  466SOL    HW1 1397   2.348   0.104   0.616  1.4782 -0.4134 -0.1605
  466SOL    HW2 1398   2.431   0.139   0.764 -0.2230 -1.0627  1.6710
  467SOL     OW 1399   0.361   0.560   2.278 -0.1043 -0.5634 -0.1996
  467SOL    HW1 1400   0.330   0.585   2.373  1.9501 -0.5645 -3.6700
  467SOL    HW2 1401   0.277   0.540   2.219 -4.9479  1.3802 -0.0805
  468SOL     OW 1402   2.722   3.073   2.106 -0.3036 -0.2826 -0.0782
  468SOL    HW1 1403   2.742   0.088   2.075  1.5758 -2.2670  0.6773
  468SOL    HW2 1404   2.808   3.018   2.093 -0.4323 -0.4419  1.2430
  469SOL     OW 1405   1.007   0.070   1.699 -0.0594 -0.1170 -0.0688
  469SOL    HW1 1406   0.918   0.121   1.694  0.9104  1.2184 -1.6077
  469SOL    HW2 1407   1.009   0.007   1.619  1.0035  1.8244 -0.3012
  470SOL     OW 1408   2.521   0.882   1.633  0.4530  0.3052  0.2806
  470SOL    HW1 1409   2.584   0.809   1.603  1.1290 -2.0357  0.2742
  470SOL    HW2 1410   2.520   0.882   1.735  0.1259  1.9583 -1.0180
  471SOL     OW 1411   2.829   1.489   2.722  0.5224  0.3276  0.3152
  471SOL    HW1 1412   2.791   1.496   2.818 -1.9177  1.9414  1.6130
  471SOL    HW2 1413   2.898   1.409   2.719  0.1217 -2.2788  0.3431
  472SOL     OW 1414   0.883   1.997   0.719  0.1174 -0.3393  0.0017
  472SOL    HW1 1415   0.934   1.960   0.641 -0.6791  0.0191  3.0027
  472SOL    HW2 1416   0.832   2.080   0.685 -1.0704  3.9698 -1.2496
  473SOL     OW 1417   1.392   2.170   2.063  0.3525 -0.2452 -0.6441
  473SOL    HW1 1418   1.475   2.118   2.042 -2.3224  0.0933  0.2304
  473SOL    HW2 1419   1.395   2.219   2.154 -0.4452  2.3297  0.8826
  474SOL     OW 1420   0.535   2.865   2.603 -0.2702  0.5549  0.5008
  474SOL    HW1 1421   0.521   2.818   2.693  1.2182 -0.0085 -1.7964
  474SOL    HW2 1422   0.482   2.947   2.593  2.4932 -2.7980  1.3684
  475SOL     OW 1423   0.796   1.861   2.443  0.1888 -0.2962 -0.2871
  475SOL    HW1 1424   0.769   1.951   2.490  0.9264  1.9599 -0.5620
  475SOL    HW2 1425   0.760   1.852   2.348  0.4974 -2.4794  0.6155
  476SOL     OW 1426   0.668   0.590   0.967 -0.0522 -0.1492 -0.3227
  476SOL    HW1 1427   0.626   0.650   1.035  0.5363  0.4407 -1.9623
  476SOL    HW2 1428   0.679   0.639   0.882  0.5493 -1.7504  2.0937
  477SOL     OW 1429   2.029   2.195   1.399  0.8590  0.1004 -0.1682
  477SOL    HW1 1430   2.103   2.220   1.336  1.9768  1.5134  2.4698
  477SOL    HW2 1431   2.028   2.261   1.477  1.3354 -0.8484 -0.6484
  478SOL     OW 1432   0.348   0.408   2.871 -0.4506  0.0904  0.2727
  478SOL    HW1 1433   0.267   0.452   2.911 -0.3493  2.6155 -2.4166
  478SOL    HW2 1434   0.369   0.453   2.779 -1.3999 -0.5018 -2.1990
  479SOL     OW 1435   1.093   0.405   1.450  0.0004  0.2789 -0.0177
  479SOL    HW1 1436   1.087   0.507   1.446  1.0136  0.0538 -0.9579
  479SOL    HW2 1437   1.096   0.373   1.352 -0.6837 -1.1839 -1.2853
  480SOL     OW 1438   2.714   2.319   0.194  0.7737  0.4268  0.6292
  480SOL    HW1 1439   2.638   2.275   0.136 -0.8883  0.8046  1.0513
  480SOL    HW2 1440   2.774   2.242   0.223 -1.0041 -0.0711 -1.3062
  481SOL     OW 1441   0.013   0.743   1.498 -0.7127  0.7067 -0.3741
  481SOL    HW1 1442   0.005   0.841   1.471  0.6687  0.6092  1.2793
  481SOL    HW2 1443   3.049   0.728   1.588  0.8729 -0.5471  2.3031
  482SOL     OW 1444   0.911   3.081   1.226  0.2806  0.0978 -0.2219
  482SOL    HW1 1445   0.827   0.027   1.184  3.1785 -3.3222  1.3314
  482SOL    HW2 1446   0.899   3.073   1.329 -2.1155  1.0784  4.4495
  483SOL     OW 1447   3.020   1.347   2.315 -0.1258 -0.0210  0.3907
  483SOL    HW1 1448   2.997   1.268   2.374  0.1516 -0.3490  0.2613
  483SOL    HW2 1449   2.942   1.379   2.263 -2.5828 -0.6535 -3.3022
  484SOL     OW 1450   1.745   1.741   1.791  0.3034  0.5783 -1.0611
  484SOL    HW1 1451   1.757   1.685   1.879 -2.6667  1.9804  1.2766
  484SOL    HW2 1452   1.650   1.727   1.767  0.7128  0.0832 -0.5773
  485SOL     OW 1453   0.235   2.918   2.383  0.2533 -0.7107 -0.2690
  485SOL    HW1 1454   0.203   2.934   2.476 -1.9398  1.5570 -0.0007
  485SOL    HW2 1455   0.257   2.818   2.363 -1.7251  0.4163  0.1163
  486SOL     OW 1456   1.096   0.130   0.832  0.0293 -0.2104 -0.6715
  486SOL    HW1 1457   1.152   0.063   0.883  0.8102 -1.4395 -0.4026
  486SOL    HW2 1458   1.121   0.226   0.845  0.0791 -0.8446 -0.8729
  487SOL     OW 1459   1.368   0.199   1.065 -0.0444 -0.2149 -0.4576
  487SOL    HW1 1460   1.418   0.171   0.981  0.3282  0.3159  1.2250
  487SOL    HW2 1461   1.412   0.159   1.143 -1.5740  0.3506  2.1024
  488SOL     OW 1462   2.364   0.985   0.932 -0.2113  0.4154  0.1658
  488SOL    HW1 1463   2.302   1.048   0.887 -0.1192  0.0898 -1.7610
  488SOL    HW2 1464   2.432   1.041   0.979 -0.0558  1.1568 -0.4600
  489SOL     OW 1465   1.210   0.798   1.207  0.8188 -0.2474 -0.2556
  489SOL    HW1 1466   1.275   0.875   1.218 -0.7561  1.7090 -1.0866
  489SOL    HW2 1467   1.222   0.754   1.114  0.9175 -0.4259  0.7533
  490SOL     OW 1468   1.025   0.607   2.865 -0.0828 -0.5611 -0.5946
  490SOL    HW1 1469   1.121   0.616   2.898  1.5983  0.9838  1.1499
  490SOL    HW2 1470   0.960   0.583   2.937 -0.1842 -1.3992 -1.4368
  491SOL     OW 1471   0.819   2.729   0.653 -0.3036 -0.0772 -0.0415
  491SOL    HW1 1472   0.814   2.804   0.586  0.7343  1.1143  2.3273
  491SOL    HW2 1473   0.797   2.765   0.747 -1.3576 -0.3483 -0.3287
  492SOL     OW 1474   1.112   1.508   1.629 -0.6639 -0.0551 -0.6970
  492SOL    HW1 1475   1.148   1.570   1.701  2.1171 -0.1667  0.8506
  492SOL    HW2 1476   1.175   1.519   1.549  0.3147  1.9649 -1.3825
  493SOL     OW 1477   0.706   1.556   0.011 -0.4186  0.0242 -0.4234
  493SOL    HW1 1478   0.615   1.513   0.029  0.2122  0.1158 -0.0452
  493SOL    HW2 1479   0.742   1.604   0.093 -1.4041 -1.9572 -2.6252
  494SOL     OW 1480   1.826   2.473   0.538  0.1868 -0.3000  0.0511
  494SOL    HW1 1481   1.855   2.419   0.458 -3.0952  2.4139  0.2803
  494SOL    HW2 1482   1.909   2.494   0.599  1.2074 -0.2990 -0.0914
  495SOL     OW 1483   0.365   1.513   2.418  0.2033 -0.2665 -0.0660
  495SOL    HW1 1484   0.434   1.584   2.427  1.2894 -0.1164  0.5521
  495SOL    HW2 1485   0.355   1.467   2.509 -1.4915 -0.5576  1.5024
  496SOL     OW 1486   0.362   2.412   2.506 -0.8293 -0.0149  0.8930
  496SOL    HW1 1487   0.439   2.479   2.507 -1.0601  1.0910 -1.3099
  496SOL    HW2 1488   0.374   2.357   2.422  4.3623  2.0804 -0.6181
  497SOL     OW 1489   1.664   1.402   0.630 -0.4185 -0.1805  0.2796
  497SOL    HW1 1490   1.626   1.331   0.570  0.3670 -0.4892  2.4139
  497SOL    HW2 1491   1.702   1.357   0.714 -0.3737 -2.1070  0.2732
  498SOL     OW 1492   2.879   2.534   0.126  0.1132  0.3244  0.0241
  498SOL    HW1 1493   2.960   2.517   0.068  2.7387 -0.5444 -0.9691
  498SOL    HW2 1494   2.843   2.439   0.152 -2.3213 -0.7632 -1.9422
  499SOL     OW 1495   2.041   2.566   0.683  0.0149  0.1198 -0.7054
  499SOL    HW1 1496   2.074   2.489   0.745  0.3934 -0.9293  2.4159
  499SOL    HW2 1497   2.069   2.654   0.718  0.6752 -3.7333 -1.9623
  500SOL     OW 1498   0.511   0.288   2.532  0.0533 -0.2306  0.0935
  500SOL    HW1 1499   0.453   0.363   2.572 -0.2271  3.3859  1.9895
  500SOL    HW2 1500   0.612   0.305   2.525 -1.2381 -0.4443  1.3819
  501SOL     OW 1501   2.087   2.722   1.573  0.1149 -0.0718  0.2342
  501SOL    HW1 1502   2.153   2.679   1.506 -0.9142  0.2322 -0.3860
  501SOL    HW2 1503   1.998   2.670   1.579 -0.2514 -3.8324  0.6940
  502SOL     OW 1504   3.041   3.048   2.400  0.0889 -0.1796 -0.8072
  502SOL    HW1 1505   2.999   3.013   2.486 -1.9325  3.2007  0.2106
  502SOL    HW2 1506   0.055   3.031   2.395 -2.0579  0.2036  2.1518
  503SOL     OW 1507   1.863   2.704   2.362  0.3970 -1.0693 -0.1416
  503SOL    HW1 1508   1.816   2.676   2.447  1.2444 -1.0063  0.7260
  503SOL    HW2 1509   1.954   2.662   2.355  0.7613  1.5386 -0.4192
  504SOL     OW 1510   2.191   0.222   1.836  0.4048  0.1085  0.4450
  504SOL    HW1 1511   2.128   0.177   1.773  0.2842  0.0764  0.5815
  504SOL    HW2 1512   2.208   0.320   1.806 -0.6656  4.3477 -0.8024
  505SOL     OW 1513   2.537   1.434   1.244  0.8754 -0.0532 -0.6753
  505SOL    HW1 1514   2.517   1.503   1.316 -1.3916  0.8304 -0.4559
  505SOL    HW2 1515   2.484   1.460   1.161 -1.3746  0.3847 -2.7132
  506SOL     OW 1516   0.001   1.707   1.710  0.4046  0.0362  0.1854
  506SOL    HW1 1517   3.073   1.623   1.650 -1.2166  1.1561 -0.8217
  506SOL    HW2 1518   3.063   1.797   1.664 -1.2447  1.2201  0.2141
  507SOL     OW 1519   0.513   2.356   1.428 -0.4343  0.1927 -0.0923
  507SOL    HW1 1520   0.520   2.421   1.510 -1.7752  0.6280 -0.5143
  507SOL    HW2 1521   0.454   2.403   1.360 -0.0797 -1.5711 -0.9845
  508SOL     OW 1522   0.565   0.525   1.777 -0.1681  0.1871  0.4661
  508SOL    HW1 1523   0.571   0.494   1.875  1.4059 -3.2280 -0.3257
  508SOL    HW2 1524   0.473   0.559   1.755 -2.3438 -2.2419  0.1336
  509SOL     OW 1525   1.645   2.614   1.682  0.3065  0.2665 -0.1291
  509SOL    HW1 1526   1.553   2.567   1.668 -2.1433 -2.2816  0.0028
  509SOL    HW2 1527   1.659   2.637   1.783 -1.4160 -0.4111  0.9307
  510SOL     OW 1528   2.429   1.229   2.390  0.3146  0.3276  0.1421
  510SOL    HW1 1529   2.346   1.275   2.424  0.6792  1.6936  2.9521
  510SOL    HW2 1530   2.513   1.283   2.416  0.2814 -0.2527 -0.0836
  511SOL     OW 1531   0.913   1.374   1.103  0.7849  0.5397  0.4001
  511SOL    HW1 1532   0.943   1.293   1.160  0.9009 -1.5952 -0.5231
  511SOL    HW2 1533   0.876   1.449   1.160 -0.8275 -0.2689 -1.2076
  512SOL     OW 1534   2.910   1.751   0.500  0.1915 -0.8428  0.1072
  512SOL    HW1 1535   2.869   1.742   0.591  2.8802 -0.4339 -3.6618
  512SOL    HW2 1536   3.012   1.762   0.506 -1.4171 -1.5140 -1.1812
  513SOL     OW 1537   1.116   2.126   2.328 -0.4207 -0.4901 -0.2254
  513SOL    HW1 1538   1.023   2.141   2.290  3.1880 -4.4498  0.1576
  513SOL    HW2 1539   1.142   2.203   2.394 -1.0056  2.4862  1.6077
  514SOL     OW 1540   0.119   2.142   1.202  0.2374  0.7747 -0.1306
  514SOL    HW1 1541   0.036   2.181   1.245 -0.5106 -0.2858 -0.6134
  514SOL    HW2 1542   0.200   2.160   1.256 -0.2994 -2.8526 -1.6112
  515SOL     OW 1543   1.982   0.828   1.776 -0.3893 -0.0690  0.4185
  515SOL    HW1 1544   1.885   0.798   1.799  0.2784 -1.0531 -2.1089
  515SOL    HW2 1545   1.983   0.870   1.682 -0.6935  1.8363 -1.5008
  516SOL     OW 1546   2.451   0.232   0.060 -0.5548 -0.2258 -0.0028
  516SOL    HW1 1547   2.487   0.233   3.048  0.5420  0.7955 -0.1006
  516SOL    HW2 1548   2.447   0.323   0.104 -1.2105 -0.5590  3.5829
  517SOL     OW 1549   1.074   1.736   2.854 -0.3633 -0.2442 -0.6246
  517SOL    HW1 1550   1.048   1.723   2.952 -1.3401  1.8654  0.7372
  517SOL    HW2 1551   1.098   1.647   2.814  0.1529 -2.8891  1.7945
  518SOL     OW 1552   1.631   3.004   1.404  0.4768  0.3209  0.0328
  518SOL    HW1 1553   1.633   2.946   1.491  0.2878 -2.6639 -0.0349
  518SOL    HW2 1554   1.726   3.035   1.378 -0.6238 -0.0781  0.0992
  519SOL     OW 1555   2.141   2.853   0.976  0.2483  0.1880 -0.0203
  519SOL    HW1 1556   2.225   2.802   0.947  2.0886  0.4303 -1.4627
  519SOL    HW2 1557   2.135   2.940   0.923  3.0544 -2.7041 -0.1537
  520SOL     OW 1558   2.639   1.831   1.997 -0.1777  0.3480 -0.1228
  520SOL    HW1 1559   2.650   1.762   1.924  0.5180  0.4788 -2.2256
  520SOL    HW2 1560   2.559   1.889   1.977  0.7667 -0.1262  2.9657
  521SOL     OW 1561   2.756   0.648   0.310  0.0458  0.2510 -0.2153
  521SOL    HW1 1562   2.779   0.569   0.249 -1.3299 -0.7430 -0.4637
  521SOL    HW2 1563   2.733   0.608   0.398 -0.7279 -0.6837  1.1805
  522SOL     OW 1564   0.960   0.764   2.378 -0.0214  0.0265  0.8439
  522SOL    HW1 1565   0.888   0.748   2.448 -3.1104 -0.3514  3.6756
  522SOL    HW2 1566   0.945   0.859   2.341 -2.3673  1.7267 -0.3318
  523SOL     OW 1567   0.269   2.362   0.539  0.0256 -0.1785  0.3304
  523SOL    HW1 1568   0.225   2.285   0.593  1.2550  1.2550 -0.5078
  523SOL    HW2 1569   0.325   2.326   0.462 -1.2373 -0.8844  4.0201
  524SOL     OW 1570   2.175   2.611   3.034  0.2458  0.0315 -0.1496
  524SOL    HW1 1571   2.265   2.562   3.059  1.8546 -3.7246 -0.2960
  524SOL    HW2 1572   2.169   2.706   3.061 -2.0739 -3.1136  1.5379
  525SOL     OW 1573   2.480   0.466   1.623  0.1746 -0.4834 -0.3182
  525SOL    HW1 1574   2.516   0.397   1.560 -1.9370  2.2130  1.7027
  525SOL    HW2 1575   2.425   0.531   1.564  1.4804 -0.7834 -1.8467
  526SOL     OW 1576   1.116   0.088   0.546 -0.3691 -0.1143 -0.1094
  526SOL    HW1 1577   1.109   0.115   0.645 -0.2682 -1.7499  2.0087
  526SOL    HW2 1578   1.202   0.122   0.508 -1.8286 -3.1632 -0.9132
  527SOL     OW 1579   2.115   2.862   0.536 -0.6830  0.1577 -0.1562
  527SOL    HW1 1580   2.032   2.823   0.494  0.3629  0.4170  0.1797
  527SOL    HW2 1581   2.168   2.921   0.468  2.4706 -0.7606 -1.3315
  528SOL     OW 1582   1.913   0.883   2.725  0.5135 -0.0526  0.4406
  528SOL    HW1 1583   1.879   0.792   2.749  1.4152 -1.2276  0.2968
  528SOL    HW2 1584   1.868   0.922   2.644  2.2527  0.2743  2.8247
  529SOL     OW 1585   1.847   1.402   2.187  0.2722  0.3794 -0.0182
  529SOL    HW1 1586   1.771   1.397   2.258 -1.2451 -1.8633  2.1067
  529SOL    HW2 1587   1.892   1.312   2.178 -1.0817 -1.0828 -0.9196
  530SOL     OW 1588   2.581   2.907   3.079 -0.1658  0.1137  0.2555
  530SOL    HW1 1589   2.538   2.930   0.084  0.2360 -1.3686 -1.0389
  530SOL    HW2 1590   2.613   2.809   3.076  2.3005  1.4512 -0.9862
  531SOL     OW 1591   1.813   1.637   2.944 -0.5428 -0.4258  0.1389
  531SOL    HW1 1592   1.802   1.552   3.000  0.5617  0.1155  1.3785
  531SOL    HW2 1593   1.854   1.707   3.009  2.8320  2.0618  1.8124
  532SOL     OW 1594   1.574   0.338   1.240 -0.0545 -0.3796  0.0102
  532SOL    HW1 1595   1.541   0.241   1.255  3.3039 -0.3976  2.1614
  532SOL    HW2 1596   1.499   0.405   1.258  0.5997 -0.7464  0.3710
  533SOL     OW 1597   0.841   0.839   0.087 -0.3989  0.0289  1.2189
  533SOL    HW1 1598   0.886   0.855   0.174  0.4512 -0.5933 -1.2824
  533SOL    HW2 1599   0.821   0.932   0.050 -2.5112  1.7247 -0.3488
  534SOL     OW 1600   1.536   0.668   2.984 -0.0603  0.1037  0.0493
  534SOL    HW1 1601   1.546   0.582   2.929  0.6743 -0.0638  1.4754
  534SOL    HW2 1602   1.622   0.701   3.029 -1.0685  0.9975  3.5849
  535SOL     OW 1603   0.866   2.192   2.805 -0.1725  0.2062  0.2564
  535SOL    HW1 1604   0.782   2.210   2.863 -0.6834  0.0294  2.0361
  535SOL    HW2 1605   0.865   2.094   2.781  0.4504  2.3344 -0.1300
  536SOL     OW 1606   0.550   2.871   0.189 -0.3079 -0.0040 -0.1970
  536SOL    HW1 1607   0.595   2.881   0.097  0.4363 -2.3597  1.6406
  536SOL    HW2 1608   0.610   2.829   0.259 -1.4196  1.3356 -0.6961
  537SOL     OW 1609   2.023   0.192   0.173 -0.1636 -0.3890  0.2590
  537SOL    HW1 1610   2.092   0.123   0.164 -2.1746  3.5138  2.0445
  537SOL    HW2 1611   2.063   0.285   0.179 -0.0550  1.2457 -2.8072
  538SOL     OW 1612   2.441   2.481   3.045 -0.4593 -0.6672  0.0849
  538SOL    HW1 1613   2.410   2.472   2.946 -0.5179  2.3177 -0.2082
  538SOL    HW2 1614   2.434   2.394   0.002  0.2914  0.9518  0.1436
  539SOL     OW 1615   2.583   1.216   2.981  0.4176  0.0722  0.3020
  539SOL    HW1 1616   2.667   1.194   3.027 -3.0856  0.8325 -0.8468
  539SOL    HW2 1617   2.500   1.188   3.040  1.4515  0.5056 -0.0507
  540SOL     OW 1618   0.584   2.942   1.902 -0.1915 -0.6648 -0.4863
  540SOL    HW1 1619   0.561   2.844   1.913  0.7067 -0.3906 -2.7401
  540SOL    HW2 1620   0.560   2.995   1.987  3.2614  2.0519  0.8598
  541SOL     OW 1621   2.218   0.157   2.465  0.4741 -0.4844  0.1881
  541SOL    HW1 1622   2.135   0.157   2.524 -0.0665  0.6397 -1.0171
  541SOL    HW2 1623   2.279   0.076   2.483  0.6792  0.4332 -2.2055
  542SOL     OW 1624   0.598   0.521   0.113  0.3463  0.0866  0.2680
  542SOL    HW1 1625   0.521   0.458   0.086 -1.6232 -1.9030 -0.0857
  542SOL    HW2 1626   0.595   0.542   0.212 -0.7557 -0.5987  1.7970
  543SOL     OW 1627   0.440   0.936   0.820  0.1436 -0.0321  0.3150
  543SOL    HW1 1628   0.433   0.930   0.924 -3.1936  2.2497  0.6098
  543SOL    HW2 1629   0.446   1.033   0.781  1.7646  1.3178  0.0911
  544SOL     OW 1630   2.451   0.566   1.163 -0.5917 -0.3442  0.5217
  544SOL    HW1 1631   2.534   0.541   1.215 -1.0667  1.4394  2.6633
  544SOL    HW2 1632   2.430   0.662   1.173 -1.6524 -2.2087  1.0168
  545SOL     OW 1633   1.031   1.690   0.080 -0.7522  0.2414  0.0914
  545SOL    HW1 1634   0.983   1.777   0.099  3.4737  1.1988 -3.5235
  545SOL    HW2 1635   1.114   1.674   0.138  2.0417  2.1316 -0.8893
  546SOL     OW 1636   2.363   2.436   1.517 -0.0149  0.5343  0.3097
  546SOL    HW1 1637   2.277   2.394   1.466 -2.0220 -2.0059 -0.6892
  546SOL    HW2 1638   2.367   2.537   1.502 -0.4338  1.1604  1.5275
  547SOL     OW 1639   1.389   2.571   1.974 -0.5104 -0.2241 -0.0631
  547SOL    HW1 1640   1.439   2.587   2.059  0.2056 -0.0929  0.0458
  547SOL    HW2 1641   1.313   2.643   1.967  0.9805  0.4535  0.7195
  548SOL     OW 1642   1.610   0.628   2.616 -0.3901 -0.3179  0.0174
  548SOL    HW1 1643   1.550   0.705   2.640  1.0880  0.5427 -0.5455
  548SOL    HW2 1644   1.598   0.548   2.682  2.5818  1.3356  2.1720
  549SOL     OW 1645   2.221   0.794   0.376 -0.1199  0.1581  0.2528
  549SOL    HW1 1646   2.140   0.769   0.438 -3.0137 -0.0566  2.4369
  549SOL    HW2 1647   2.301   0.825   0.434  4.1197  0.4140  1.1392
  550SOL     OW 1648   2.335   1.495   0.291  0.0865 -0.0812  0.3784
  550SOL    HW1 1649   2.430   1.529   0.315 -0.6199 -1.1566  0.7896
  550SOL    HW2 1650   2.309   1.541   0.202  0.9946  1.4870  0.6766
  551SOL     OW 1651   2.015   0.277   1.377  0.3132  1.0325 -0.2931
  551SOL    HW1 1652   1.977   0.350   1.439  0.2746 -0.7179 -0.1007
  551SOL    HW2 1653   2.032   0.309   1.276  0.9120  1.3381 -3.7221
  552SOL     OW 1654   1.611   0.023   2.798 -0.0622  0.0002  0.0502
  552SOL    HW1 1655   1.692   0.072   2.826  3.1296  0.2225 -2.2692
  552SOL    HW2 1656   1.618   3.004   2.782  0.5402 -3.0309 -0.3838
  553SOL     OW 1657   0.481   2.442   1.983 -0.0015 -0.0561  0.2151
  553SOL    HW1 1658   0.492   2.362   2.044  0.2459  0.4254  1.1663
  553SOL    HW2 1659   0.387   2.452   1.948  1.5459  0.3576 -0.8039
  554SOL     OW 1660   0.191   2.832   1.304  0.0869 -0.3443  0.0906
  554SOL    HW1 1661   0.140   2.897   1.245 -1.3390 -1.4203 -3.3184
  554SOL    HW2 1662   0.290   2.825   1.266  2.2010 -1.0902 -1.9215
  555SOL     OW 1663   2.514   1.626   2.133  0.3919 -0.2746 -0.7105
  555SOL    HW1 1664   2.567   1.690   2.071  2.0230 -1.6564 -0.2759
  555SOL    HW2 1665   2.444   1.577   2.076 -0.3933 -2.8667 -0.3999
  556SOL     OW 1666   1.268   0.587   3.009  0.3391 -0.4914  0.0304
  556SOL    HW1 1667   1.356   0.633   3.023 -0.9761  1.6758 -2.1022
  556SOL    HW2 1668   1.281   0.491   3.045 -0.5514 -0.9327 -0.4716
  557SOL     OW 1669   0.212   1.974   2.193 -0.0268  0.2981  0.8523
  557SOL    HW1 1670   0.280   2.018   2.138 -4.2063 -1.9414  1.8655
  557SOL    HW2 1671   0.173   1.888   2.149 -2.5267 -0.4140 -1.9645
  558SOL     OW 1672   1.860   0.637   2.806 -0.9800 -0.1910  0.1762
  558SOL    HW1 1673   1.770   0.594   2.827 -1.8191 -0.9059  0.4613
  558SOL    HW2 1674   1.944   0.599   2.850 -1.2066 -1.1552 -2.5894
  559SOL     OW 1675   1.906   1.973   1.766 -0.3510 -0.7182  0.1028
  559SOL    HW1 1676   1.921   1.968   1.664  1.9735 -2.1456 -3.2306
  559SOL    HW2 1677   1.831   1.910   1.805 -0.4980  1.7506 -0.6720
  560SOL     OW 1678   1.805   0.649   2.115  0.1158 -0.4326  0.0505
  560SOL    HW1 1679   1.734   0.683   2.048  1.2377  1.2025  3.1537
  560SOL    HW2 1680   1.852   0.570   2.069 -2.5015 -1.6230 -1.8181
  561SOL     OW 1681   0.012   0.159   2.726 -0.2740  0.3954 -0.2569
  561SOL    HW1 1682   3.045   0.193   2.647 -2.4681 -1.3424 -1.5244
  561SOL    HW2 1683   0.111   0.173   2.717 -0.9067  2.5202  0.7213
  562SOL     OW 1684   0.905   1.628   1.509  0.4556  0.1959  0.4299
  562SOL    HW1 1685   0.967   1.597   1.583 -5.3249 -1.7545  2.6733
  562SOL    HW2 1686   0.817   1.662   1.546 -1.7326 -0.6182  0.5956
  563SOL     OW 1687   1.204   0.140   0.154  0.1408 -0.4694  0.5896
  563SOL    HW1 1688   1.233   0.054   0.109 -0.4984  1.5665 -1.4674
  563SOL    HW2 1689   1.103   0.152   0.143 -0.1929 -0.9296  0.4721
  564SOL     OW 1690   0.078   2.602   0.603 -0.0848  0.0764  0.0439
  564SOL    HW1 1691   0.127   2.516   0.626 -1.9872 -2.7009 -0.9530
  564SOL    HW2 1692   3.084   2.574   0.544 -0.3378 -1.5537 -2.4812
  565SOL     OW 1693   0.599   2.362   1.156  0.3553 -0.3164  0.1108
  565SOL    HW1 1694   0.530   2.288   1.133 -1.5109 -3.6525  0.0819
  565SOL    HW2 1695   0.617   2.368   1.254  0.3632  0.8756  1.1371
  566SOL     OW 1696   1.154   0.018   2.274 -0.0471 -0.2159  0.6289
  566SOL    HW1 1697   1.100   0.089   2.223 -1.0841  1.4451 -1.9876
  566SOL    HW2 1698   1.137   3.007   2.232  2.8249 -1.9773  0.5217
  567SOL     OW 1699   2.124   0.218   0.844 -0.2907  0.1345 -0.1676
  567SOL    HW1 1700   2.206   0.248   0.798 -2.8044 -0.0207 -1.0043
  567SOL    HW2 1701   2.108   0.121   0.817  0.2241 -1.5442 -0.0643
  568SOL     OW 1702   1.596   1.636   0.769 -0.0304 -0.7963 -0.0047
  568SOL    HW1 1703   1.669   1.699   0.734 -0.8095  0.7482 -2.3777
  568SOL    HW2 1704   1.612   1.543   0.736 -2.1253  1.1900 -0.8131
  569SOL     OW 1705   2.176   0.574   2.358  0.3954  0.0697  0.6714
  569SOL    HW1 1706   2.158   0.474   2.349 -1.9154 -1.1026  1.3354
  569SOL    HW2 1707   2.166   0.610   2.455 -2.7457  0.6277  1.4651
  570SOL     OW 1708   0.110   3.041   2.023  0.8685 -0.1176  0.2363
  570SOL    HW1 1709   0.025   3.007   2.074 -0.6365 -0.4164 -1.5390
  570SOL    HW2 1710   0.103   2.993   1.934  0.3018  0.4878 -0.7280
  571SOL     OW 1711   0.388   2.730   1.677  0.2163 -0.4880  0.4608
  571SOL    HW1 1712   0.417   2.771   1.767 -0.0479  1.3016  2.3318
  571SOL    HW2 1713   0.460   2.672   1.632 -0.6495  0.3924 -2.8339
  572SOL     OW 1714   0.182   2.144   1.564 -0.4775 -0.2281  0.2753
  572SOL    HW1 1715   0.111   2.216   1.546 -2.5927 -2.4224  2.4684
  572SOL    HW2 1716   0.256   2.156   1.497  0.1891  1.7651 -2.5753
  573SOL     OW 1717   1.400   0.827   2.662  0.3944 -0.6981 -0.0356
  573SOL    HW1 1718   1.447   0.888   2.596  0.1049 -1.0922 -1.1551
  573SOL    HW2 1719   1.318   0.786   2.613  2.2336  3.7078  0.6651
  574SOL     OW 1720   2.539   2.329   2.350  0.6018 -0.0811  0.7421
  574SOL    HW1 1721   2.641   2.332   2.347  1.0934  1.2684 -1.5013
  574SOL    HW2 1722   2.495   2.375   2.268 -2.1426  0.2301 -0.7816
  575SOL     OW 1723   1.228   2.944   0.896 -0.2347  0.1751 -0.3385
  575SOL    HW1 1724   1.272   2.985   0.813  0.6421  2.1503 -0.8609
  575SOL    HW2 1725   1.303   2.918   0.962  1.6281 -0.3955 -2.3218
  576SOL     OW 1726   1.048   0.376   1.167  0.4535 -0.1264  0.6046
  576SOL    HW1 1727   1.107   0.414   1.091  0.0744 -0.6582  1.8465
  576SOL    HW2 1728   1.075   0.279   1.189  1.4310 -0.2405 -0.2660
  577SOL     OW 1729   2.169   1.819   0.234  0.2720  0.6936 -0.0620
  577SOL    HW1 1730   2.214   1.759   0.165 -0.3831 -0.5833 -2.4689
  577SOL    HW2 1731   2.104   1.763   0.290  0.5519  3.3514 -0.1639
  578SOL     OW 1732   2.163   0.577   1.166 -0.6875 -0.1263  0.1105
  578SOL    HW1 1733   2.259   0.586   1.146 -1.7580 -0.4799 -3.1029
  578SOL    HW2 1734   2.137   0.628   1.248  1.0896 -1.4112  2.5093
  579SOL     OW 1735   1.814   0.865   2.434  0.4534  0.0793  0.2972
  579SOL    HW1 1736   1.828   0.764   2.454 -1.6755 -0.3651  0.1957
  579SOL    HW2 1737   1.877   0.903   2.357  1.0905  1.5826  0.5597
  580SOL     OW 1738   1.352   0.999   1.718 -0.3799 -0.6634  0.2224
  580SOL    HW1 1739   1.312   1.077   1.665  1.8756  1.2017  0.0831
  580SOL    HW2 1740   1.303   0.978   1.805  0.0193  0.6426 -0.5805
  581SOL     OW 1741   0.290   0.890   1.346 -0.1879 -0.1440  0.2991
  581SOL    HW1 1742   0.200   0.912   1.383  0.3625  1.0036  1.2471
  581SOL    HW2 1743   0.340   0.823   1.402 -0.8494  1.8486 -1.5817
  582SOL     OW 1744   2.809   0.630   1.906 -0.6068  0.3221  1.0239
  582SOL    HW1 1745   2.743   0.555   1.892 -0.3238  0.0456  1.1097
  582SOL    HW2 1746   2.813   0.652   2.004 -1.1482 -0.9246  0.4250
  583SOL     OW 1747   2.987   0.595   2.500 -0.2080  0.1739 -0.2009
  583SOL    HW1 1748   3.010   0.679   2.451 -2.0797 -3.5448  1.7971
  583SOL    HW2 1749   2.917   0.546   2.445  2.1978  0.7636  1.3227
  584SOL     OW 1750   1.922   2.314   0.330 -0.0149 -0.1114  0.6218
  584SOL    HW1 1751   1.983   2.235   0.356  0.6574 -1.3860 -0.9940
  584SOL    HW2 1752   1.849   2.279   0.269  1.3483 -0.8793 -0.7010
  585SOL     OW 1753   0.198   2.319   0.045 -0.1965  0.1714  0.0168
  585SOL    HW1 1754   0.139   2.236   0.046 -0.5202  0.7728  2.2816
  585SOL    HW2 1755   0.268   2.324   0.118  2.5851 -0.0792  1.5519
  586SOL     OW 1756   1.868   2.078   2.419 -0.0593 -0.0532  0.1884
  586SOL    HW1 1757   1.910   2.064   2.328 -0.9187  0.1483  1.2596
  586SOL    HW2 1758   1.885   2.172   2.455  0.9295  2.0243  1.2206
  587SOL     OW 1759   2.328   1.458   2.642 -0.1739  0.1216 -0.2792
  587SOL    HW1 1760   2.419   1.499   2.647 -0.1997 -1.0008 -1.4605
  587SOL    HW2 1761   2.321   1.399   2.729  1.6697 -0.6140  1.0490
  588SOL     OW 1762   3.040   0.004   1.417 -0.3747  0.2034  0.2915
  588SOL    HW1 1763   3.046   3.048   1.323  0.5861  1.6979 -1.9853
  588SOL    HW2 1764   0.016   0.087   1.424  0.6714  1.6411 -0.1718
  589SOL     OW 1765   0.500   0.364   0.761  0.2728 -0.0710  0.2104
  589SOL    HW1 1766   0.415   0.306   0.750 -2.0014 -0.8555  0.6877
  589SOL    HW2 1767   0.475   0.462   0.730  2.5353  3.1719  0.1374
  590SOL     OW 1768   2.439   2.279   0.840 -0.5336 -0.3276 -0.2572
  590SOL    HW1 1769   2.369   2.316   0.778  1.4194 -0.8440  2.3481
  590SOL    HW2 1770   2.531   2.302   0.800  0.3951  0.9400 -0.2495
  591SOL     OW 1771   1.059   2.432   0.848 -0.2288 -0.1027 -0.1271
  591SOL    HW1 1772   1.047   2.435   0.746  2.4696 -0.9401  0.5744
  591SOL    HW2 1773   1.109   2.510   0.886  0.6956 -0.5774  3.0314
  592SOL     OW 1774   0.983   1.141   1.240 -0.1142 -0.4291  0.2414
  592SOL    HW1 1775   1.070   1.134   1.188 -0.8382  2.0674  2.6235
  592SOL    HW2 1776   0.954   1.049   1.267 -1.2233  2.1288 -1.8580
  593SOL     OW 1777   0.778   2.535   1.398 -0.4744 -0.1062 -0.3004
  593SOL    HW1 1778   0.831   2.567   1.477  1.2027  0.7665  0.4348
  593SOL    HW2 1779   0.842   2.500   1.324 -0.7836  1.4619  1.4629
  594SOL     OW 1780   0.953   1.479   3.033  0.4114  0.0463  0.5129
  594SOL    HW1 1781   0.974   1.564   3.082 -1.9202  0.1582 -1.5097
  594SOL    HW2 1782   0.848   1.474   3.038 -0.9558  0.8389 -0.6999
  595SOL     OW 1783   1.493   1.327   1.583 -0.1421  0.4845  0.1723
  595SOL    HW1 1784   1.578   1.362   1.625 -1.4097 -3.0682  0.5241
  595SOL    HW2 1785   1.425   1.400   1.563 -0.5739 -3.0434  1.0437
  596SOL     OW 1786   2.847   1.305   2.051 -0.2925  0.1662 -0.0314
  596SOL    HW1 1787   2.843   1.205   2.055 -2.5063  0.0646 -0.3946
  596SOL    HW2 1788   2.943   1.334   2.036 -1.8226 -1.4455  2.1765
  597SOL     OW 1789   1.386   2.545   1.715 -0.0348  0.5340 -0.4537
  597SOL    HW1 1790   1.318   2.605   1.666 -0.7603  0.7196  0.7819
  597SOL    HW2 1791   1.395   2.563   1.816  0.8352  1.5129 -1.5994
  598SOL     OW 1792   2.213   1.355   1.458 -0.5535 -0.1038 -0.4335
  598SOL    HW1 1793   2.280   1.432   1.452 -2.2383 -1.1826  1.9669
  598SOL    HW2 1794   2.128   1.370   1.407  1.6717 -0.2378 -1.0935
  599SOL     OW 1795   0.799   2.588   2.735  0.4827 -0.6704  0.0742
  599SOL    HW1 1796   0.832   2.622   2.645  1.4515 -2.9958  1.6289
  599SOL    HW2 1797   0.826   2.649   2.813  2.0771 -0.2562  0.1933
  600SOL     OW 1798   2.903   2.174   0.299  0.2676 -0.0052  0.0271
  600SOL    HW1 1799   2.901   2.072   0.299  0.6103  0.7978 -0.7276
  600SOL    HW2 1800   2.977   2.198   0.368 -1.9434 -2.4955 -1.3381
  601SOL     OW 1801   0.557   0.703   1.426  0.1286  0.2525 -0.8029
  601SOL    HW1 1802   0.603   0.759   1.498 -1.3070 -0.6416 -1.2587
  601SOL    HW2 1803   0.483   0.646   1.468 -2.2260  0.3736 -3.8255
  602SOL     OW 1804   0.678   0.102   1.141  0.0945  0.5293  0.2052
  602SOL    HW1 1805   0.630   0.081   1.225  0.4381  0.4875 -3.7865
  602SOL    HW2 1806   0.654   0.197   1.114  0.4681 -0.2284 -0.7664
  603SOL     OW 1807   0.301   3.009   2.884 -0.1879  0.5995  0.3645
  603SOL    HW1 1808   0.281   0.020   2.848  2.1865  2.0466  1.8668
  603SOL    HW2 1809   0.211   2.960   2.903 -2.6317 -1.6382 -0.7263
  604SOL     OW 1810   1.374   3.004   1.764 -0.2662  0.2289  0.0540
  604SOL    HW1 1811   1.362   2.969   1.860 -1.7684 -0.1167  3.3942
  604SOL    HW2 1812   1.456   2.960   1.720 -1.1614  0.7153 -2.3313
  605SOL     OW 1813   1.524   1.423   1.978 -0.0563 -0.4229  0.0958
  605SOL    HW1 1814   1.606   1.387   1.935 -0.4914  1.4204  0.5755
  605SOL    HW2 1815   1.499   1.374   2.066 -0.8393  0.1523 -1.1508
  606SOL     OW 1816   2.172   2.871   0.026 -0.9450  0.6728  0.1052
  606SOL    HW1 1817   2.193   2.956   0.074  1.1038 -2.6748 -0.0756
  606SOL    HW2 1818   2.225   2.880   3.023 -0.2505 -0.3554  1.3726
  607SOL     OW 1819   0.736   0.212   2.241 -0.3706 -0.5412  0.2600
  607SOL    HW1 1820   0.746   0.236   2.339 -0.6134  1.9128 -1.1407
  607SOL    HW2 1821   0.825   0.233   2.196  1.2849  0.2650  0.8091
  608SOL     OW 1822   3.024   2.187   2.195  0.2972 -0.3732 -0.1593
  608SOL    HW1 1823   3.074   2.178   2.282  0.0650  0.9970 -0.2632
  608SOL    HW2 1824   3.009   2.093   2.153 -1.4194  0.4586  1.5129
  609SOL     OW 1825   0.898   1.107   3.073 -0.1107 -0.8450  0.3457
  609SOL    HW1 1826   0.962   1.085   2.992  1.1882 -0.3929 -0.8980
  609SOL    HW2 1827   0.931   1.187   0.044 -2.0879  0.7477  1.9774
  610SOL     OW 1828   0.279   2.749   0.947 -0.7464  0.3905  0.1045
  610SOL    HW1 1829   0.346   2.719   0.875  0.7182  1.0064  1.5814
  610SOL    HW2 1830   0.333   2.801   1.018  2.3294 -1.4394 -1.0356
  611SOL     OW 1831   0.983   1.635   0.408 -0.3621 -0.1885 -0.0049
  611SOL    HW1 1832   1.061   1.607   0.349  0.8946 -3.0425 -0.0474
  611SOL    HW2 1833   0.968   1.567   0.483  2.4135 -0.6393 -0.1797
  612SOL     OW 1834   2.098   1.823   0.539 -0.1433 -0.3422 -0.2454
  612SOL    HW1 1835   2.129   1.733   0.507  0.4896  2.5723  2.6495
  612SOL    HW2 1836   2.173   1.853   0.597 -1.4568 -0.9901 -2.0906
  613SOL     OW 1837   1.711   1.552   0.412  0.1029  0.5639 -0.0349
  613SOL    HW1 1838   1.611   1.583   0.401  0.9566  1.9648 -0.5270
  613SOL    HW2 1839   1.722   1.510   0.505 -0.3006 -1.2670  1.0466
  614SOL     OW 1840   2.831   0.447   2.713  0.8456 -0.0781 -0.2048
  614SOL    HW1 1841   2.889   0.503   2.647  0.3518 -1.3948 -0.6239
  614SOL    HW2 1842   2.764   0.390   2.665 -0.8332 -0.1169 -0.5540
  615SOL     OW 1843   0.540   1.528   0.433  0.5310  0.0039 -0.2910
  615SOL    HW1 1844   0.440   1.505   0.457 -1.6303 -1.7179  0.3260
  615SOL    HW2 1845   0.581   1.601   0.497 -3.4642  1.2117  2.3680
  616SOL     OW 1846   1.582   0.948   2.490  0.0552 -0.0270 -0.6419
  616SOL    HW1 1847   1.577   1.037   2.540 -2.3584  0.8487  0.2890
  616SOL    HW2 1848   1.673   0.924   2.458 -2.9496 -0.7277  0.0390
  617SOL     OW 1849   1.580   0.695   0.526  0.0485  0.1301  0.0322
  617SOL    HW1 1850   1.477   0.686   0.498 -2.8871  0.5401 -0.4326
  617SOL    HW2 1851   1.621   0.600   0.515 -1.7501 -0.6938 -4.3579
  618SOL     OW 1852   3.010   1.699   2.185  0.0941  0.3862  0.3612
  618SOL    HW1 1853   0.021   1.665   2.189 -1.7466 -1.7128  1.0054
  618SOL    HW2 1854   2.970   1.673   2.270  0.9228 -0.5320 -0.4759
  619SOL     OW 1855   2.624   1.840   0.606  0.6813 -0.1327 -0.2981
  619SOL    HW1 1856   2.682   1.878   0.679 -1.3151 -0.6958 -1.5937
  619SOL    HW2 1857   2.620   1.892   0.522 -0.4426 -4.1235  0.1121
  620SOL     OW 1858   2.518   0.027   1.102  0.2692  0.4901 -0.1500
  620SOL    HW1 1859   2.625   0.022   1.091  0.8549 -1.0707  0.3451
  620SOL    HW2 1860   2.490   0.121   1.126 -0.2356 -0.6853  0.6167
  621SOL     OW 1861   0.096   1.857   0.857  0.5397  0.6610 -0.1777
  621SOL    HW1 1862   0.088   1.779   0.924  0.7038 -0.3469  1.2425
  621SOL    HW2 1863   0.070   1.949   0.894 -0.3816  1.6303 -0.7255
  622SOL     OW 1864   0.575   1.865   1.726 -0.1610  0.0363 -0.4084
  622SOL    HW1 1865   0.473   1.856   1.704  0.9410  1.7289 -1.0044
  622SOL    HW2 1866   0.591   1.932   1.802  0.5951 -2.3335 -0.4012
  623SOL     OW 1867   2.375   0.037   2.210 -0.1451 -0.1323  0.0376
  623SOL    HW1 1868   2.371   3.031   2.249 -0.3168  1.6083 -1.2805
  623SOL    HW2 1869   2.450   0.099   2.233 -1.3300 -2.9099 -0.1851
  624SOL     OW 1870   0.630   1.982   0.144  0.2721  0.1257  0.0171
  624SOL    HW1 1871   0.591   1.904   0.194 -1.8956  1.2028 -1.0681
  624SOL    HW2 1872   0.601   1.980   0.048 -1.2043 -1.7842  4.2010
  625SOL     OW 1873   0.773   1.958   2.074  0.2307  0.1589  0.1852
  625SOL    HW1 1874   0.873   1.931   2.073 -1.9717  1.7439 -0.1291
  625SOL    HW2 1875   0.721   1.873   2.095  2.2514  4.2591  1.3996
  626SOL     OW 1876   0.363   2.245   0.291 -0.3472 -0.5823 -0.2378
  626SOL    HW1 1877   0.468   2.235   0.295  2.5254 -3.4899  0.6315
  626SOL    HW2 1878   0.313   2.158   0.308  0.5480  0.6249  0.2583
  627SOL     OW 1879   1.574   1.660   2.401  0.2556  0.2475  0.3652
  627SOL    HW1 1880   1.672   1.694   2.414  1.4627  0.5680 -0.0269
  627SOL    HW2 1881   1.575   1.570   2.351 -1.8604 -0.3741 -1.9902
  628SOL     OW 1882   1.126   2.074   0.268  0.7519  0.0685  0.6461
  628SOL    HW1 1883   1.104   2.172   0.294 -1.2202  1.7790  1.1208
  628SOL    HW2 1884   1.174   2.033   0.348 -0.1063  1.7574 -0.9682
  629SOL     OW 1885   0.795   0.573   2.205 -0.1689  0.4152 -0.1188
  629SOL    HW1 1886   0.867   0.587   2.276  0.5633  0.0978 -1.1760
  629SOL    HW2 1887   0.829   0.596   2.114 -0.8518 -1.7026  0.8526
  630SOL     OW 1888   2.413   2.738   1.536  0.4062 -0.2203 -0.1831
  630SOL    HW1 1889   2.379   2.797   1.613  1.1416 -0.3893  1.0764
  630SOL    HW2 1890   2.505   2.705   1.548  0.3227  1.4305 -1.0686
  631SOL     OW 1891   1.462   0.960   0.855 -0.6689  0.4535 -0.1363
  631SOL    HW1 1892   1.401   0.878   0.840 -0.0130  0.7610 -0.8414
  631SOL    HW2 1893   1.529   0.947   0.931  0.3541  0.6586 -1.9204
  632SOL     OW 1894   2.422   0.432   2.075 -0.8982 -0.2476  0.0292
  632SOL    HW1 1895   2.345   0.365   2.081  3.5299  0.5590 -3.0489
  632SOL    HW2 1896   2.373   0.521   2.077 -0.6166 -0.1417 -0.4782
  633SOL     OW 1897   1.654   1.131   0.024  0.2740  0.1709 -0.1639
  633SOL    HW1 1898   1.577   1.160   3.046  1.9767  3.2691 -1.4096
  633SOL    HW2 1899   1.728   1.084   3.057 -2.6975 -0.6105  0.6188
  634SOL     OW 1900   0.171   2.038   0.272  0.4979 -0.5499  0.3273
  634SOL    HW1 1901   0.176   1.935   0.269  0.4849  1.3475 -0.5966
  634SOL    HW2 1902   0.127   2.078   0.186 -1.5816  2.1144 -3.3869
  635SOL     OW 1903   2.766   1.512   2.204 -0.0021 -0.0109 -0.1699
  635SOL    HW1 1904   2.786   1.448   2.127 -1.2498 -0.0675 -0.0328
  635SOL    HW2 1905   2.672   1.556   2.188 -1.2950 -2.3154 -0.3009
  636SOL     OW 1906   0.234   1.727   2.634  0.6160 -0.5774  0.1437
  636SOL    HW1 1907   0.169   1.657   2.602 -1.2429  0.8387  1.0712
  636SOL    HW2 1908   0.202   1.820   2.608  0.0087 -2.4048 -1.2767
  637SOL     OW 1909   0.052   2.140   0.496 -0.4978  0.2493 -0.1938
  637SOL    HW1 1910   0.095   2.100   0.407  1.1661 -1.5646  0.5351
  637SOL    HW2 1911   0.113   2.116   0.576  3.5574 -0.6563  3.0941
  638SOL     OW 1912   2.312   2.600   0.424  0.0648  0.0663 -0.3601
  638SOL    HW1 1913   2.315   2.691   0.469 -3.1343 -0.6023 -1.2370
  638SOL    HW2 1914   2.233   2.595   0.357  0.8516 -1.4445  0.1857
  639SOL     OW 1915   1.113   0.709   0.160 -0.1980  0.2002 -0.0840
  639SOL    HW1 1916   1.159   0.795   0.157  2.3379 -4.5480  1.0519
  639SOL    HW2 1917   1.147   0.644   0.091 -0.5923  1.8405  0.4488
  640SOL     OW 1918   2.447   2.213   1.782  0.0475 -0.7886 -0.2752
  640SOL    HW1 1919   2.508   2.289   1.813  2.2027  2.3943  2.2198
  640SOL    HW2 1920   2.350   2.235   1.762 -0.1234  4.3618 -2.2632
  641SOL     OW 1921   2.412   2.789   1.255 -0.1682 -0.1684  0.0228
  641SOL    HW1 1922   2.491   2.849   1.225  2.4621  1.1742 -0.5771
  641SOL    HW2 1923   2.409   2.783   1.357 -0.1139 -1.1601  0.4374
  642SOL     OW 1924   0.899   0.981   1.622  0.7821  0.0530  0.1265
  642SOL    HW1 1925   0.864   0.910   1.556  1.8502 -1.9106 -1.6441
  642SOL    HW2 1926   0.937   1.061   1.579  0.6025  0.9333  1.4504
  643SOL     OW 1927   0.691   1.484   2.104 -0.3224 -0.0466 -0.6667
  643SOL    HW1 1928   0.641   1.413   2.160  1.7177  0.3040  2.9788
  643SOL    HW2 1929   0.711   1.456   2.007  0.6924  2.5001  0.7831
  644SOL     OW 1930   1.011   0.214   2.139  0.1123  0.0178 -0.2925
  644SOL    HW1 1931   1.059   0.294   2.180  0.5560  0.2811 -0.8606
  644SOL    HW2 1932   0.970   0.244   2.051 -0.3193 -0.2316 -1.6126
  645SOL     OW 1933   1.991   1.161   1.356 -0.0501  0.3018  0.1824
  645SOL    HW1 1934   2.010   1.098   1.280 -1.0212  0.3523  1.1623
  645SOL    HW2 1935   1.951   1.249   1.333  1.9418  0.5471  0.1931
  646SOL     OW 1936   1.608   2.455   0.288 -0.3220 -0.6683  0.5652
  646SOL    HW1 1937   1.675   2.507   0.231  0.3099 -2.0020 -3.2903
  646SOL    HW2 1938   1.523   2.508   0.308 -0.6969  0.8299  1.9715
  647SOL     OW 1939   1.402   2.735   0.763  0.4399 -0.1770 -0.0433
  647SOL    HW1 1940   1.500   2.757   0.749  0.5734  1.6295  0.0598
  647SOL    HW2 1941   1.346   2.777   0.693  0.3974 -2.2185 -0.9657
  648SOL     OW 1942   0.329   2.498   1.263 -0.4940 -0.0540  0.0467
  648SOL    HW1 1943   0.244   2.504   1.320 -2.1008  2.4779  0.8477
  648SOL    HW2 1944   0.311   2.492   1.164  0.2279 -0.3458  1.5465
  649SOL     OW 1945   1.148   2.659   2.909  0.4344  0.2831 -0.7328
  649SOL    HW1 1946   1.130   2.569   2.861  0.3223  0.2404 -0.1141
  649SOL    HW2 1947   1.064   2.693   2.949 -0.0161 -1.0653 -2.6344
  650SOL     OW 1948   2.743   1.442   2.971  0.2781 -0.2593  0.4525
  650SOL    HW1 1949   2.686   1.359   2.980  1.5914 -1.6380  0.2505
  650SOL    HW2 1950   2.837   1.426   3.001  0.4318 -0.4535  1.3840
  651SOL     OW 1951   2.500   2.062   2.424 -0.1562 -0.1577  0.1365
  651SOL    HW1 1952   2.524   2.161   2.412 -0.4764 -1.2989  1.6811
  651SOL    HW2 1953   2.492   2.043   2.524  1.7935 -3.0715 -0.1182
  652SOL     OW 1954   2.658   2.468   0.414 -0.3535  0.3587  0.2477
  652SOL    HW1 1955   2.562   2.505   0.420 -1.6064  1.8927 -0.4794
  652SOL    HW2 1956   2.673   2.411   0.333 -0.6420  0.1990  0.0678
  653SOL     OW 1957   2.434   1.748   1.334 -0.0841  0.1893 -0.3931
  653SOL    HW1 1958   2.492   1.813   1.387  1.8214  1.4832 -0.3306
  653SOL    HW2 1959   2.424   1.663   1.387  0.8612  0.1185 -1.2787
  654SOL     OW 1960   1.100   1.185   0.214 -0.2899 -0.8110  0.2686
  654SOL    HW1 1961   1.127   1.100   0.170  2.0183 -0.7374 -0.2297
  654SOL    HW2 1962   1.147   1.265   0.166 -1.0830  3.3371 -0.3373
  655SOL     OW 1963   1.285   1.414   0.735  0.2119 -0.3261 -0.2702
  655SOL    HW1 1964   1.194   1.402   0.775 -0.1081  1.1255 -1.4263
  655SOL    HW2 1965   1.268   1.445   0.641  0.9704 -3.4407 -0.7175
  656SOL     OW 1966   1.591   2.641   2.294 -0.3715 -0.0512 -0.2382
  656SOL    HW1 1967   1.678   2.690   2.285  1.2325 -0.4937  0.2828
  656SOL    HW2 1968   1.606   2.543   2.279 -2.7036  0.9490  1.0879
  657SOL     OW 1969   2.174   1.554   0.526 -0.4145  0.1185  0.1274
  657SOL    HW1 1970   2.132   1.462   0.535  0.8100 -2.0303  0.8402
  657SOL    HW2 1971   2.248   1.547   0.456  1.4259  0.8200  0.8733
  658SOL     OW 1972   2.086   0.021   1.702 -0.5068 -0.1057  0.3928
  658SOL    HW1 1973   2.114   3.054   1.783 -0.9312 -1.2640  0.7651
  658SOL    HW2 1974   2.074   3.041   1.624 -0.9132  1.2271 -1.2181
  659SOL     OW 1975   2.965   1.504   0.370  0.8025  0.2239  0.5452
  659SOL    HW1 1976   3.030   1.506   0.292 -0.1165 -2.1486 -1.1046
  659SOL    HW2 1977   2.953   1.598   0.415 -0.6034  2.0572 -0.3574
  660SOL     OW 1978   1.212   0.387   0.944 -0.2791  0.1055  0.5888
  660SOL    HW1 1979   1.253   0.482   0.937  2.1689  0.1491  2.2772
  660SOL    HW2 1980   1.264   0.323   1.003  0.9767  2.4985  2.6822
  661SOL     OW 1981   1.799   0.499   0.066  0.7160  0.0375 -0.2355
  661SOL    HW1 1982   1.865   0.467   3.081 -0.6146 -0.1943  1.1746
  661SOL    HW2 1983   1.789   0.597   0.071 -0.0423  0.1657 -2.4732
  662SOL     OW 1984   0.485   0.175   0.481  0.2747  0.3604  0.3388
  662SOL    HW1 1985   0.472   0.089   0.430  0.5703  0.3366 -1.7490
  662SOL    HW2 1986   0.577   0.207   0.464 -1.2159 -3.1012  2.7965
  663SOL     OW 1987   1.421   2.524   2.984 -0.1575 -0.1094  0.2820
  663SOL    HW1 1988   1.328   2.556   2.969  4.5373  1.3791  1.2792
  663SOL    HW2 1989   1.447   2.434   2.942  0.5439  2.3135  2.4643
  664SOL     OW 1990   0.571   2.690   1.375  0.1049 -0.2928  0.3692
  664SOL    HW1 1991   0.490   2.637   1.342 -1.5754  1.1707 -0.2469
  664SOL    HW2 1992   0.654   2.629   1.391 -1.3310  0.0065  2.0249
  665SOL     OW 1993   1.444   2.854   1.031 -0.3353  0.1020 -0.2415
  665SOL    HW1 1994   1.466   2.833   0.936  1.4835 -1.1255  3.3481
  665SOL    HW2 1995   1.521   2.903   1.075  0.9682  0.3210  1.3719
  666SOL     OW 1996   1.051   2.419   2.742 -0.6579 -0.3055  0.1816
  666SOL    HW1 1997   1.020   2.332   2.787  0.5507 -0.2067  2.3314
  666SOL    HW2 1998   0.974   2.475   2.714 -2.7308 -1.1933 -0.7167
  667SOL     OW 1999   2.818   0.489   1.531 -0.3406 -0.2864 -0.1060
  667SOL    HW1 2000   2.816   0.400   1.581  0.2113  1.2591 -3.0097
  667SOL    HW2 2001   2.901   0.488   1.471 -0.7820  1.0439  2.0619
  668SOL     OW 2002   0.857   0.535   1.701  0.1201 -0.2724  0.0680
  668SOL    HW1 2003   0.916   0.454   1.714 -0.1346 -2.4271  0.0152
  668SOL    HW2 2004   0.762   0.508   1.689  2.3954  1.9874 -2.0298
  669SOL     OW 2005   1.491   2.777   1.299 -0.2583 -0.3711 -0.5583
  669SOL    HW1 2006   1.541   2.865   1.318  2.6964  0.7997  0.0907
  669SOL    HW2 2007   1.453   2.775   1.204 -0.5973 -3.8222 -1.7885
  670SOL     OW 2008   1.741   2.405   3.003 -0.0508  0.2398  0.2202
  670SOL    HW1 2009   1.656   2.355   2.977 -1.0089  0.2354  0.6541
  670SOL    HW2 2010   1.832   2.375   2.964  3.7330  1.8730 -2.8109
  671SOL     OW 2011   0.448   1.272   2.900 -0.2115 -0.1519  0.1106
  671SOL    HW1 2012   0.376   1.300   2.832 -0.1841  1.7249  1.8375
  671SOL    HW2 2013   0.541   1.279   2.862  2.8121 -3.3262  2.1466
  672SOL     OW 2014   2.501   0.500   2.844  0.0777 -0.2694 -0.6031
  672SOL    HW1 2015   2.551   0.573   2.895  2.0955 -1.4055 -2.1518
  672SOL    HW2 2016   2.558   0.476   2.765 -1.6476  1.1869  0.1607
  673SOL     OW 2017   0.088   1.892   1.297  0.1248  0.2181  0.2142
  673SOL    HW1 2018   0.038   1.906   1.382  2.5122  1.6050 -0.0791
  673SOL    HW2 2019   0.113   1.986   1.260  0.9706  2.0483  1.5589
  674SOL     OW 2020   1.572   2.156   1.830  0.2194  0.6996 -0.0180
  674SOL    HW1 2021   1.481   2.170   1.867  1.2152  0.9024  0.6328
  674SOL    HW2 2022   1.569   2.108   1.738 -0.4678  0.1016  1.2884
  675SOL     OW 2023   1.284   1.418   1.208  0.0785 -0.1494 -0.0169
  675SOL    HW1 2024   1.304   1.472   1.126 -2.0337  0.1812  2.0202
  675SOL    HW2 2025   1.238   1.330   1.181  0.7786 -1.0141 -0.5281
  676SOL     OW 2026   2.383   0.663   0.887 -0.7895  0.3047 -0.1761
  676SOL    HW1 2027   2.405   0.760   0.914 -1.1581 -0.3748 -0.1054
  676SOL    HW2 2028   2.453   0.596   0.928  0.8329 -1.9406  0.1777
  677SOL     OW 2029   2.522   0.365   0.391  0.3256 -0.5569 -0.4918
  677SOL    HW1 2030   2.616   0.385   0.431  1.2309  2.0454 -0.4512
  677SOL    HW2 2031   2.507   0.442   0.320  2.3184 -0.1930 -1.1030
  678SOL     OW 2032   2.558   1.165   1.061  0.0464  0.0269  0.2050
  678SOL    HW1 2033   2.626   1.214   1.003 -2.0623 -1.8762  1.8787
  678SOL    HW2 2034   2.600   1.102   1.131  0.9752  1.8125 -2.9538
  679SOL     OW 2035   2.526   0.497   0.150  0.2663  0.0262  0.4572
  679SOL    HW1 2036   2.456   0.569   0.149  2.3226  3.0979 -0.4082
  679SOL    HW2 2037   2.613   0.531   0.128 -3.2281 -1.2420 -0.0104
  680SOL     OW 2038   0.646   1.741   2.166  0.1950  0.3009  0.2324
  680SOL    HW1 2039   0.672   1.647   2.149 -1.3129  1.8299 -0.6916
  680SOL    HW2 2040   0.572   1.751   2.240  0.4381  0.6599 -0.2539
  681SOL     OW 2041   2.456   2.076   1.551 -0.2818  0.8410  0.3608
  681SOL    HW1 2042   2.464   2.136   1.635 -0.6470  0.8833  1.8904
  681SOL    HW2 2043   2.365   2.032   1.546  0.1870 -0.6859  1.4557
  682SOL     OW 2044   0.474   1.783   2.392 -0.6359  0.7356  0.7127
  682SOL    HW1 2045   0.532   1.815   2.467 -0.7265 -1.7498 -2.5882
  682SOL    HW2 2046   0.380   1.809   2.418  4.2865 -1.6912 -1.0505
  683SOL     OW 2047   2.633   1.906   1.445 -0.7033  0.1618  0.1015
  683SOL    HW1 2048   2.699   1.947   1.381 -0.7276  0.2024 -1.8944
  683SOL    HW2 2049   2.559   1.976   1.473  1.3144 -0.2400 -0.2850
  684SOL     OW 2050   2.632   1.340   1.781  0.1269  0.2192 -0.2816
  684SOL    HW1 2051   2.527   1.341   1.777 -2.8261 -0.6466 -2.7262
  684SOL    HW2 2052   2.664   1.244   1.791  2.4945 -0.0193 -1.5596
  685SOL     OW 2053   0.827   0.993   0.918  0.0372  0.1188 -0.7625
  685SOL    HW1 2054   0.892   1.031   0.857 -5.3321 -0.5931  3.2433
  685SOL    HW2 2055   0.752   0.946   0.873  2.5163  0.9085 -0.2951
  686SOL     OW 2056   0.438   0.026   2.508 -0.1739  0.3249  0.0900
  686SOL    HW1 2057   0.490   0.114   2.497  0.1036 -0.7424 -0.3014
  686SOL    HW2 2058   0.439   3.061   2.417  0.7795  0.1644  0.1363
  687SOL     OW 2059   0.587   2.078   1.905  0.6570 -0.1705 -0.1572
  687SOL    HW1 2060   0.642   2.141   1.840  0.0680  3.3412  0.3196
  687SOL    HW2 2061   0.650   2.045   1.981  0.9837 -0.7246  0.5020
  688SOL     OW 2062   2.237   0.478   1.744 -0.0963 -0.1347 -0.3180
  688SOL    HW1 2063   2.201   0.544   1.674 -0.3515  0.0356 -3.1095
  688SOL    HW2 2064   2.328   0.445   1.717  0.1669  2.3051  0.8950
  689SOL     OW 2065   1.866   0.964   0.864 -0.2112 -0.9404  0.3392
  689SOL    HW1 2066   1.905   0.900   0.931 -1.2584  0.2110  0.3394
  689SOL    HW2 2067   1.826   0.915   0.785  1.4145 -0.7583  1.5318
  690SOL     OW 2068   2.794   0.755   1.226  0.4932  0.1090 -0.1265
  690SOL    HW1 2069   2.891   0.739   1.207  0.0699 -1.8946 -0.0824
  690SOL    HW2 2070   2.743   0.672   1.252  1.2843  2.4706  0.6739
  691SOL     OW 2071   0.114   1.089   2.011 -0.1496  0.2922  1.1697
  691SOL    HW1 2072   0.076   1.182   1.989 -1.1157 -1.4010 -1.3555
  691SOL    HW2 2073   0.069   1.023   1.947  2.7070 -3.6140 -0.9907
  692SOL     OW 2074   0.789   1.137   1.944 -0.4583 -0.4294 -0.2951
  692SOL    HW1 2075   0.769   1.142   2.045  0.0648 -0.3160 -0.5011
  692SOL    HW2 2076   0.836   1.053   1.914 -1.2853  3.3151 -0.3969
  693SOL     OW 2077   0.552   1.181   1.800  0.3451  0.3417 -0.1158
  693SOL    HW1 2078   0.641   1.184   1.844 -3.6090  3.7553 -0.4672
  693SOL    HW2 2079   0.482   1.209   1.871  0.0194 -1.7757  1.7383
  694SOL     OW 2080   1.395   1.946   0.955 -0.0072 -0.1896  0.0925
  694SOL    HW1 2081   1.384   1.895   0.868 -0.2143 -0.3104 -0.7731
  694SOL    HW2 2082   1.321   1.928   1.021  3.8616  1.3557 -0.0936
  695SOL     OW 2083   3.079   0.805   1.158 -0.6010 -0.4738  1.0216
  695SOL    HW1 2084   0.002   0.909   1.166  2.4722  1.9808 -2.1350
  695SOL    HW2 2085   3.071   0.767   1.067 -2.0267 -0.2163  1.0139
  696SOL     OW 2086   0.816   2.267   0.721  0.0763 -0.3350 -0.4903
  696SOL    HW1 2087   0.763   2.350   0.733  2.8510 -0.6993  0.4521
  696SOL    HW2 2088   0.827   2.229   0.814 -1.3743  0.1371 -1.4183
  697SOL     OW 2089   1.512   0.823   1.595 -0.2437  0.3048  0.1917
  697SOL    HW1 2090   1.573   0.840   1.516 -0.2488  0.4802 -1.9317
  697SOL    HW2 2091   1.461   0.902   1.628  0.9311  0.3457 -0.0309
  698SOL     OW 2092   1.714   1.603   1.480  0.4723  0.2368 -0.0845
  698SOL    HW1 2093   1.638   1.668   1.502  1.8310 -0.3952 -0.5991
  698SOL    HW2 2094   1.792   1.657   1.439  2.0025  2.4030  0.7433
  699SOL     OW 2095   0.381   0.527   2.639  0.7474  0.1009 -0.1578
  699SOL    HW1 2096   0.288   0.524   2.600 -0.9904  1.1676  0.4024
  699SOL    HW2 2097   0.403   0.622   2.649  0.9224 -0.4182  1.7377
  700SOL     OW 2098   1.501   2.318   0.645 -0.2176 -0.4560  0.0397
  700SOL    HW1 2099   1.577   2.365   0.695  0.7887 -0.9063  2.7726
  700SOL    HW2 2100   1.440   2.383   0.610 -1.5456 -1.2875  3.7644
  701SOL     OW 2101   0.031   1.345   2.058 -0.0969 -0.1840  0.6243
  701SOL    HW1 2102   0.042   1.350   2.155 -1.9577  0.6203 -0.3913
  701SOL    HW2 2103   0.081   1.416   2.007  0.4673  0.5088  2.7531
  702SOL     OW 2104   0.582   0.105   2.853 -0.2576 -0.1730  0.4920
  702SOL    HW1 2105   0.547   0.099   2.757  1.6965  0.5403  3.3745
  702SOL    HW2 2106   0.642   0.190   2.863 -0.2190  0.8819  2.2911
  703SOL     OW 2107   1.606   0.447   2.816  0.3953  0.0591  0.3364
  703SOL    HW1 2108   1.663   0.372   2.852  2.0629  0.8307  1.0358
  703SOL    HW2 2109   1.525   0.406   2.766  0.9646  1.2087  0.1183
  704SOL     OW 2110   2.778   1.351   1.042  0.3590 -0.7659 -0.2197
  704SOL    HW1 2111   2.783   1.451   1.019 -0.4254 -2.2397 -0.5446
  704SOL    HW2 2112   2.748   1.346   1.138  1.0971  0.5634 -1.7226
  705SOL     OW 2113   2.403   1.985   1.929 -0.3289 -0.2699  0.5296
  705SOL    HW1 2114   2.414   2.084   1.898  0.5858 -0.3211 -1.8457
  705SOL    HW2 2115   2.323   1.954   1.877 -0.7277 -0.1839  1.7750
  706SOL     OW 2116   2.942   2.488   0.975  0.7812 -0.1769  0.0720
  706SOL    HW1 2117   2.999   2.563   0.935 -1.7005  1.9154 -0.9716
  706SOL    HW2 2118   2.935   2.402   0.923  1.1056  0.4013  1.0738
  707SOL     OW 2119   0.961   2.885   0.191  0.3155 -0.0272 -0.4337
  707SOL    HW1 2120   0.948   2.900   0.091 -4.4026 -1.0563 -2.1648
  707SOL    HW2 2121   1.041   2.934   0.234  0.0722  0.3171  0.5280
  708SOL     OW 2122   0.809   2.245   1.476 -0.6824  0.1257  0.0558
  708SOL    HW1 2123   0.774   2.334   1.434 -2.4880  4.2367 -1.6688
  708SOL    HW2 2124   0.770   2.168   1.430 -1.3049  2.3853 -0.4191
  709SOL     OW 2125   2.052   0.116   2.686 -0.3659  0.2262  0.5015
  709SOL    HW1 2126   1.990   0.196   2.669  0.5995  1.2019 -1.7022
  709SOL    HW2 2127   2.130   0.138   2.745  0.2770 -0.3548 -1.1894
  710SOL     OW 2128   0.911   2.637   2.490  0.2232  0.3848  0.6857
  710SOL    HW1 2129   0.982   2.614   2.418  0.1050 -0.2766 -1.0277
  710SOL    HW2 2130   0.957   2.710   2.549  0.3444 -0.5619  0.5182
  711SOL     OW 2131   1.183   2.341   2.498 -0.0214 -0.2210 -0.5020
  711SOL    HW1 2132   1.189   2.425   2.446 -1.4028 -3.0268  1.1297
  711SOL    HW2 2133   1.132   2.358   2.583  0.8295  0.2002 -0.5646
  712SOL     OW 2134   1.201   1.925   2.727 -0.0626 -0.2211  0.1333
  712SOL    HW1 2135   1.172   1.876   2.644  0.3031  0.4259 -1.0344
  712SOL    HW2 2136   1.175   1.867   2.808 -0.8484 -0.1898 -1.3134
  713SOL     OW 2137   0.931   0.894   1.899  0.1300  0.2759 -0.0624
  713SOL    HW1 2138   0.905   0.898   1.802  0.7230  1.3098  2.7450
  713SOL    HW2 2139   0.919   0.803   1.930 -2.3634  2.6192  0.5237
  714SOL     OW 2140   1.631   2.025   1.045 -0.0827 -0.1923 -0.6641
  714SOL    HW1 2141   1.618   2.117   1.090  0.5367  1.2135  0.2696
  714SOL    HW2 2142   1.562   1.992   0.975  0.2107 -0.2203  3.8362
  715SOL     OW 2143   0.126   0.264   0.477 -0.1244  0.4359 -0.1154
  715SOL    HW1 2144   0.209   0.223   0.525  0.9237 -0.0889  0.6595
  715SOL    HW2 2145   0.154   0.344   0.415  0.7179  1.5213 -0.1265
  716SOL     OW 2146   0.694   2.666   0.348 -0.6243 -0.1325  0.4922
  716SOL    HW1 2147   0.752   2.723   0.408  1.9397  2.1996  0.9410
  716SOL    HW2 2148   0.741   2.638   0.255 -2.7483 -0.5201 -1.8019
  717SOL     OW 2149   0.154   0.281   0.131  0.2322 -0.1552  0.0886
  717SOL    HW1 2150   0.247   0.264   0.095  2.0714  2.1865 -4.0732
  717SOL    HW2 2151   0.091   0.259   0.053  2.1105  0.7115  0.5142
  718SOL     OW 2152   1.587   2.277   1.189 -0.0990 -0.1543  0.3106
  718SOL    HW1 2153   1.526   2.325   1.249 -0.4892 -2.1017  0.6780
  718SOL    HW2 2154   1.654   2.234   1.245 -4.6383 -1.7119 -2.4083
  719SOL     OW 2155   2.662   2.377   0.701 -0.1348 -0.4578 -0.2690
  719SOL    HW1 2156   2.714   2.295   0.679  2.8154  2.6218 -1.2075
  719SOL    HW2 2157   2.642   2.422   0.612 -1.1958 -1.1231 -0.2178
  720SOL     OW 2158   1.048   1.361   0.859 -0.9929  0.0172  0.0515
  720SOL    HW1 2159   0.997   1.446   0.824 -2.2344  2.9780 -0.4820
  720SOL    HW2 2160   1.074   1.363   0.957  1.5042  0.2736 -2.4650
  721SOL     OW 2161   0.937   0.577   1.030 -0.3467  0.3452  0.0375
  721SOL    HW1 2162   0.837   0.561   1.019 -0.4636 -0.4007  2.8482
  721SOL    HW2 2163   0.967   0.542   1.122 -2.6269  0.7099 -2.0517
  722SOL     OW 2164   0.995   1.199   1.497 -0.0998 -0.3167  0.4983
  722SOL    HW1 2165   1.090   1.183   1.539  1.0113 -0.4730  0.3774
  722SOL    HW2 2166   0.989   1.223   1.396 -1.9945  2.1640 -4.5781
  723SOL     OW 2167   0.779   0.211   1.677  0.0522  0.1719 -0.2453
  723SOL    HW1 2168   0.775   0.237   1.579  0.9505  0.2168  2.3311
  723SOL    HW2 2169   0.728   0.120   1.695  0.7117  1.1614 -0.2642
  724SOL     OW 2170   2.033   2.160   1.928 -0.1183  0.4593  0.0932
  724SOL    HW1 2171   2.008   2.097   1.856 -0.7570 -2.4192  1.1843
  724SOL    HW2 2172   1.983   2.249   1.911  1.1192  1.4844 -0.1878
  725SOL     OW 2173   0.993   3.007   1.480 -0.2145  0.2767 -0.6022
  725SOL    HW1 2174   1.061   2.935   1.455 -0.3321  1.3818  1.2350
  725SOL    HW2 2175   0.905   2.964   1.510 -0.2227 -0.7029 -0.5256
  726SOL     OW 2176   1.532   0.518   0.299 -0.0538  0.0575  0.3022
  726SOL    HW1 2177   1.440   0.556   0.328  2.0085 -2.0454 -0.4939
  726SOL    HW2 2178   1.520   0.447   0.230  3.3129  0.3393  1.5588
  727SOL     OW 2179   1.351   2.123   0.718 -0.1372  0.1759 -0.6385
  727SOL    HW1 2180   1.418   2.193   0.692 -2.3354 -1.7769  0.4805
  727SOL    HW2 2181   1.370   2.087   0.810 -0.7858 -0.3678 -2.5217
  728SOL     OW 2182   1.786   0.086   2.475  0.2759  0.2582  0.0542
  728SOL    HW1 2183   1.705   0.026   2.481  1.3080  2.9643 -1.8884
  728SOL    HW2 2184   1.857   0.033   2.424 -1.3881 -2.0326  1.8991
  729SOL     OW 2185   2.423   1.589   1.003  0.2457  0.0695 -0.1220
  729SOL    HW1 2186   2.409   1.574   0.901  2.4011  2.0187  0.4829
  729SOL    HW2 2187   2.412   1.687   1.033 -0.4069  0.2523 -0.1963
  730SOL     OW 2188   2.115   1.070   2.732 -0.2591  0.5972  0.1109
  730SOL    HW1 2189   2.067   1.122   2.661  1.5521 -2.9707  3.1537
  730SOL    HW2 2190   2.058   0.985   2.746 -2.1245  1.6966 -0.6750
  731SOL     OW 2191   0.392   0.075   1.648 -0.3059  0.2448 -0.2667
  731SOL    HW1 2192   0.372   0.167   1.614 -1.4797 -2.2896 -0.6844
  731SOL    HW2 2193   0.327   3.084   1.615  0.4219 -0.3852  2.0072
  732SOL     OW 2194   1.806   0.512   1.294  0.3119  0.2111  0.4041
  732SOL    HW1 2195   1.732   0.450   1.274  3.2199  2.4100 -0.0721
  732SOL    HW2 2196   1.828   0.565   1.211  1.3238  2.3376  0.5086
  733SOL     OW 2197   0.787   1.381   1.861  0.2037 -0.5380 -0.5408
  733SOL    HW1 2198   0.800   1.388   1.761 -1.2707  2.5752 -0.2066
  733SOL    HW2 2199   0.791   1.282   1.886 -0.0481  3.2729 -0.6433
  734SOL     OW 2200   2.544   1.902   0.186 -0.1587 -0.1606 -0.5182
  734SOL    HW1 2201   2.507   1.878   0.095 -0.5530 -1.6091  2.5367
  734SOL    HW2 2202   2.482   1.957   0.251  0.5884 -1.1848  1.7343
  735SOL     OW 2203   0.653   0.823   0.403  0.3737 -0.6590  0.4561
  735SOL    HW1 2204   0.620   0.727   0.399  1.3353 -2.1542  3.8562
  735SOL    HW2 2205   0.757   0.822   0.398  3.5304 -0.0271 -2.1359
  736SOL     OW 2206   1.752   2.619   0.118 -0.5271 -0.0842 -0.5028
  736SOL    HW1 2207   1.847   2.661   0.130  0.8031 -0.6962  3.1621
  736SOL    HW2 2208   1.746   2.569   0.030  0.1202 -0.9601 -1.3389
  737SOL     OW 2209   1.175   2.303   1.247 -0.2571  0.2195  0.7908
  737SOL    HW1 2210   1.184   2.217   1.296 -0.9602  0.3425 -0.5500
  737SOL    HW2 2211   1.269   2.339   1.247 -1.4680 -0.3946 -0.9149
  738SOL     OW 2212   1.913   2.968   2.605 -0.1221 -0.1914 -0.5839
  738SOL    HW1 2213   1.949   3.061   2.625  0.0770  0.3833 -1.1974
  738SOL    HW2 2214   1.954   2.938   2.516  0.4500  0.5762 -0.3635
  739SOL     OW 2215   1.736   2.371   2.618 -0.0590 -0.2073 -0.5424
  739SOL    HW1 2216   1.810   2.354   2.552 -0.4729 -0.5161 -0.9718
  739SOL    HW2 2217   1.700   2.464   2.600  0.4407 -1.4689  0.7542
  740SOL     OW 2218   1.644   2.370   2.224  0.2266  0.2220  0.1830
  740SOL    HW1 2219   1.552   2.338   2.255 -0.6635 -0.3561 -1.2921
  740SOL    HW2 2220   1.698   2.289   2.198  1.7216  1.6060  0.3478
  741SOL     OW 2221   2.286   1.935   2.634  0.5098 -0.2483 -0.3698
  741SOL    HW1 2222   2.239   2.009   2.687 -0.0072  2.5200  2.4711
  741SOL    HW2 2223   2.338   1.874   2.696 -1.4744  1.1373  1.0911
  742SOL     OW 2224   1.216   1.528   2.683  0.1042  0.1939 -0.1797
  742SOL    HW1 2225   1.271   1.447   2.714  0.8441  0.7129  0.4298
  742SOL    HW2 2226   1.211   1.535   2.582 -1.7703 -1.3589  2.3585
  743SOL     OW 2227   1.406   1.350   2.761  0.3463 -0.8546  0.3723
  743SOL    HW1 2228   1.430   1.310   2.851  0.9770  3.3527 -2.4143
  743SOL    HW2 2229   1.467   1.433   2.748  3.8179  2.3969  0.5240
  744SOL     OW 2230   2.211   2.987   1.213 -0.2798  0.1955 -0.2185
  744SOL    HW1 2231   2.305   2.955   1.227  0.1915  0.2303  3.2301
  744SOL    HW2 2232   2.160   2.941   1.140 -1.4757  2.6418  4.3345
  745SOL     OW 2233   2.656   0.940   0.803  0.6465 -0.3878 -0.1887
  745SOL    HW1 2234   2.573   0.984   0.768  0.4879 -1.2937 -0.3953
  745SOL    HW2 2235   2.712   1.019   0.834 -1.1441  0.5983  0.6731
  746SOL     OW 2236   2.652   1.950   1.071 -0.1222  0.3427  0.4515
  746SOL    HW1 2237   2.564   1.901   1.065  0.0355  2.8121  2.8592
  746SOL    HW2 2238   2.622   2.044   1.051  1.3817 -2.0277  0.8604
  747SOL     OW 2239   1.761   0.103   0.235  0.3575 -0.3947  0.5616
  747SOL    HW1 2240   1.857   0.136   0.218 -1.6174 -0.4638  2.4302
  747SOL    HW2 2241   1.730   0.041   0.160  2.0090 -1.1843  1.4279
  748SOL     OW 2242   0.610   1.089   0.017 -0.7110 -0.5842  0.0302
  748SOL    HW1 2243   0.589   1.067   3.006 -0.2566 -1.5691  0.9459
  748SOL    HW2 2244   0.709   1.118   0.032  0.9237 -0.0626  1.8453
  749SOL     OW 2245   2.916   0.697   2.165  0.3359 -0.2252 -0.1036
  749SOL    HW1 2246   2.861   0.624   2.212  0.3946 -2.9757 -2.1974
  749SOL    HW2 2247   2.940   0.777   2.226  1.8429  1.2270  1.5834
  750SOL     OW 2248   0.884   0.622   1.951 -0.1640  0.1025  0.1635
  750SOL    HW1 2249   0.972   0.574   1.974 -1.2718 -1.7622 -0.5414
  750SOL    HW2 2250   0.847   0.596   1.864  0.1510  2.3657 -1.5957
  751SOL     OW 2251   2.387   2.483   2.179 -0.4898 -0.0804  0.5366
  751SOL    HW1 2252   2.333   2.436   2.114  0.4212  1.9435  0.2457
  751SOL    HW2 2253   2.418   2.572   2.143 -0.7595 -0.2659 -1.4194
  752SOL     OW 2254   1.966   1.435   0.872 -0.4597  0.0798  0.2293
  752SOL    HW1 2255   2.052   1.460   0.927  4.3865  2.0442  1.0357
  752SOL    HW2 2256   1.937   1.519   0.826 -0.8907  1.2493  0.9123
  753SOL     OW 2257   1.166   0.999   1.967 -0.2182 -0.2786 -0.4832
  753SOL    HW1 2258   1.073   0.961   1.934 -0.4372 -0.7857 -2.1479
  753SOL    HW2 2259   1.233   0.921   1.980 -0.5690  0.9977  0.4680
  754SOL     OW 2260   0.686   2.491   0.794  0.2164 -0.2282 -0.1156
  754SOL    HW1 2261   0.716   2.577   0.750  1.4135  1.2938  0.6008
  754SOL    HW2 2262   0.692   2.499   0.897 -0.0133 -0.6489 -0.9262
  755SOL     OW 2263   2.458   2.944   0.900 -0.1620 -0.2824 -0.6489
  755SOL    HW1 2264   2.441   3.008   0.823  1.6508  1.5274  1.7902
  755SOL    HW2 2265   2.464   3.003   0.985 -3.5045  0.8486 -3.9577
  756SOL     OW 2266   2.201   1.841   2.392 -0.1322  0.3822  0.2506
  756SOL    HW1 2267   2.231   1.890   2.476  2.0303 -4.2146  1.3915
  756SOL    HW2 2268   2.233   1.888   2.307  0.4676 -0.9983  3.6659
  757SOL     OW 2269   2.765   2.924   1.730  0.1637  0.3422  0.0302
  757SOL    HW1 2270   2.823   2.904   1.646  2.8997  1.4821  0.1259
  757SOL    HW2 2271   2.704   3.004   1.717 -0.5629 -0.8647 -0.6271
  758SOL     OW 2272   0.408   2.422   0.803  0.4786  0.0565 -0.3306
  758SOL    HW1 2273   0.372   2.395   0.713  0.3452 -0.5020 -1.2629
  758SOL    HW2 2274   0.501   2.462   0.795  1.3615 -0.6423  3.0969
  759SOL     OW 2275   2.069   1.044   1.136 -0.2234 -0.1518 -0.3079
  759SOL    HW1 2276   2.001   1.106   1.092  0.5323 -1.6038 -0.3249
  759SOL    HW2 2277   2.160   1.095   1.138  1.9662 -1.3693  0.4175
  760SOL     OW 2278   1.536   0.541   1.587 -0.3849  0.3148  0.2643
  760SOL    HW1 2279   1.537   0.476   1.666  1.8023  2.1523 -0.3213
  760SOL    HW2 2280   1.517   0.633   1.612  1.3252 -2.5764  1.2376
  761SOL     OW 2281   2.059   0.313   1.111  0.0043  0.3633  0.4380
  761SOL    HW1 2282   2.088   0.410   1.102 -0.2805  0.1124  0.2983
  761SOL    HW2 2283   2.098   0.261   1.034  0.0068 -2.0849  1.8202
  762SOL     OW 2284   1.716   0.226   0.635  0.0470 -0.2261  0.0689
  762SOL    HW1 2285   1.777   0.144   0.640 -1.9462  0.6843 -1.5117
  762SOL    HW2 2286   1.768   0.308   0.617 -1.0032  0.0984  0.7687
  763SOL     OW 2287   0.801   0.261   1.397 -0.0009 -0.0847 -0.0491
  763SOL    HW1 2288   0.744   0.345   1.384  0.0503  1.3204 -1.5524
  763SOL    HW2 2289   0.886   0.279   1.342  3.0944  3.0439 -0.5056
  764SOL     OW 2290   2.135   2.379   2.259 -0.1991  0.6894 -0.4733
  764SOL    HW1 2291   2.113   2.278   2.234  1.0631 -1.9245 -1.9749
  764SOL    HW2 2292   2.233   2.397   2.262  0.8251  0.6506  1.0756
  765SOL     OW 2293   2.986   1.157   2.496 -0.2353 -0.0732  0.2332
  765SOL    HW1 2294   2.908   1.094   2.496 -0.5895  0.9222 -0.9797
  765SOL    HW2 2295   2.990   1.199   2.588  1.3912  1.4927  1.5787
  766SOL     OW 2296   0.021   0.685   2.752 -0.0703 -0.3259  0.5251
  766SOL    HW1 2297   0.053   0.608   2.810  1.4959 -0.7431  1.2246
  766SOL    HW2 2298   3.050   0.649   2.676  0.4989 -0.7766  4.0609
  767SOL     OW 2299   0.256   2.361   1.789  0.0752  0.0458  0.1920
  767SOL    HW1 2300   0.182   2.291   1.816  1.6317 -2.3857  0.4606
  767SOL    HW2 2301   0.211   2.442   1.744 -3.4899 -0.3101 -1.7829
  768SOL     OW 2302   1.224   0.981   0.095 -0.1498  0.1215  0.1371
  768SOL    HW1 2303   1.322   0.965   0.128  2.7129 -1.2160  2.8045
  768SOL    HW2 2304   1.228   0.995   3.078 -1.4937 -1.7241 -1.0216
  769SOL     OW 2305   1.390   2.606   0.349 -0.8037 -0.4871 -0.3322
  769SOL    HW1 2306   1.311   2.606   0.294  2.3545 -0.4906  2.3445
  769SOL    HW2 2307   1.361   2.576   0.442 -0.0967 -1.3498 -4.2218
  770SOL     OW 2308   1.244   0.072   1.991  0.3214 -0.4792 -0.2071
  770SOL    HW1 2309   1.342   0.053   1.987  0.4043  0.3096  0.5575
  770SOL    HW2 2310   1.184   0.003   1.946 -3.2530  0.2170  1.2369
  771SOL     OW 2311   0.782   2.784   0.894 -0.3810 -0.0086 -0.1192
  771SOL    HW1 2312   0.852   2.818   0.959  1.7863 -1.8910 -0.8218
  771SOL    HW2 2313   0.713   2.719   0.941 -0.2160 -2.5174 -0.6399
  772SOL     OW 2314   2.613   0.864   0.308 -0.3297  0.5740  0.3905
  772SOL    HW1 2315   2.664   0.774   0.311 -0.1015 -0.9318  2.5585
  772SOL    HW2 2316   2.544   0.864   0.382 -0.3935  1.4870 -1.4381
  773SOL     OW 2317   2.136   0.668   1.925  0.4588  0.5642 -0.1340
  773SOL    HW1 2318   2.205   0.618   1.873 -1.6250 -0.4555 -1.4723
  773SOL    HW2 2319   2.088   0.733   1.862  0.5257  2.4102 -0.5091
  774SOL     OW 2320   0.178   0.585   0.631  0.1557  0.1138  0.3202
  774SOL    HW1 2321   0.123   0.664   0.602 -2.6923 -0.3174 -1.7503
  774SOL    HW2 2322   0.195   0.527   0.550  0.6352  2.2619 -1.2134
  775SOL     OW 2323   1.564   0.152   0.864 -0.0614  0.9145  0.0641
  775SOL    HW1 2324   1.635   0.147   0.935 -0.3610  2.1575 -1.5019
  775SOL    HW2 2325   1.590   0.210   0.785 -1.5333  0.3980  0.6221
  776SOL     OW 2326   2.115   0.006   2.109  0.3356  0.2437 -0.5111
  776SOL    HW1 2327   2.213   0.025   2.127  0.2831 -1.3117  0.2918
  776SOL    HW2 2328   2.055   0.087   2.108 -0.4507 -0.7798 -0.7773
  777SOL     OW 2329   1.228   1.580   0.268  0.1427  0.1146  0.0598
  777SOL    HW1 2330   1.320   1.599   0.307 -1.2912  0.5003 -0.4749
  777SOL    HW2 2331   1.235   1.496   0.210 -3.3394 -0.2021 -1.8960
  778SOL     OW 2332   0.591   2.422   0.103  0.4118  0.0929  0.5132
  778SOL    HW1 2333   0.590   2.375   0.190 -0.3120  1.2808 -1.2605
  778SOL    HW2 2334   0.513   2.483   0.108 -3.2175 -2.3928 -3.3821
  779SOL     OW 2335   0.096   1.511   0.218 -0.4214 -0.0036 -0.5520
  779SOL    HW1 2336   0.159   1.575   0.163  1.7383 -0.2826 -1.4865
  779SOL    HW2 2337   0.103   1.411   0.191  0.9142 -2.6863  2.1829
  780SOL     OW 2338   1.638   0.086   2.217 -0.4843 -0.2130  0.3692
  780SOL    HW1 2339   1.674   0.133   2.137 -4.2105  1.2310  2.0910
  780SOL    HW2 2340   1.695   0.098   2.306  2.3940 -0.3708  3.5013
  781SOL     OW 2341   1.797   1.814   1.104 -0.4360  0.0877  0.4735
  781SOL    HW1 2342   1.721   1.878   1.081  0.6227 -0.1709 -1.4690
  781SOL    HW2 2343   1.864   1.810   1.029  0.6824  3.5479  0.5565
  782SOL     OW 2344   1.884   2.485   2.116 -0.3365  0.1340 -0.1263
  782SOL    HW1 2345   1.817   2.442   2.179  3.4520 -2.1684 -1.9323
  782SOL    HW2 2346   1.980   2.451   2.123  0.8109  0.0391  2.4943
  783SOL     OW 2347   1.526   0.388   1.816  0.0795  1.0658 -0.9880
  783SOL    HW1 2348   1.444   0.385   1.877  0.3736  0.4747 -0.0752
  783SOL    HW2 2349   1.530   0.311   1.750  1.2806 -1.1646  3.1885
  784SOL     OW 2350   1.550   0.661   1.976 -0.2419 -0.1727 -0.0188
  784SOL    HW1 2351   1.460   0.710   1.961  0.0921  1.7339 -1.5807
  784SOL    HW2 2352   1.543   0.571   2.024  1.2125 -1.1361  2.2761
  785SOL     OW 2353   1.790   0.894   0.625 -0.1122 -0.0831 -0.1181
  785SOL    HW1 2354   1.774   0.970   0.558  0.1855 -0.2374 -1.8533
  785SOL    HW2 2355   1.735   0.812   0.601  0.7116  0.1929 -1.6444
  786SOL     OW 2356   0.029   1.358   0.552  0.8661 -0.5987 -0.4972
  786SOL    HW1 2357   3.062   1.384   0.471  1.5066 -0.3827  0.9251
  786SOL    HW2 2358   0.004   1.414   0.633 -0.6832 -1.1128  1.5967
  787SOL     OW 2359   1.395   1.782   0.071 -0.3406  0.0464 -0.2937
  787SOL    HW1 2360   1.385   1.692   0.034 -1.0169  0.2295  1.5408
  787SOL    HW2 2361   1.307   1.835   0.079  1.1354  2.2783  3.0770
  788SOL     OW 2362   2.281   1.208   1.181 -0.2601 -0.8325  0.1404
  788SOL    HW1 2363   2.239   1.245   1.268  0.2759  2.0921  1.6763
  788SOL    HW2 2364   2.384   1.223   1.183 -0.3617  0.0484  0.2891
  789SOL     OW 2365   2.848   1.648   2.405  0.7815 -0.8250 -0.5273
  789SOL    HW1 2366   2.780   1.724   2.434 -2.7716  1.8088  0.8069
  789SOL    HW2 2367   2.817   1.597   2.325  3.1136  1.6606  2.1850
  790SOL     OW 2368   0.780   2.911   2.478  0.1565  0.1862  0.6216
  790SOL    HW1 2369   0.706   2.946   2.540 -1.4879  1.4447  1.9996
  790SOL    HW2 2370   0.786   2.809   2.501 -0.1566 -0.2954  0.1703
  791SOL     OW 2371   0.152   2.640   2.755 -0.6529  0.0757 -0.3726
  791SOL    HW1 2372   0.202   2.565   2.808  3.4796 -0.0219  0.1692
  791SOL    HW2 2373   0.079   2.678   2.817 -0.1542 -1.1066  1.8733
  792SOL     OW 2374   1.389   0.193   2.236  0.0055 -0.2428  0.2729
  792SOL    HW1 2375   1.474   0.142   2.259 -3.2756  1.2786  1.7342
  792SOL    HW2 2376   1.313   0.124   2.234 -0.8209  1.3187 -0.8761
  793SOL     OW 2377   2.622   0.111   2.486  0.4077  0.1729 -0.1108
  793SOL    HW1 2378   2.602   0.015   2.509  1.0301 -0.6424 -1.4427
  793SOL    HW2 2379   2.594   0.133   2.397  2.1700  0.0445  5.5297
  794SOL     OW 2380   0.342   0.346   2.045 -0.6173  0.3294 -0.2913
  794SOL    HW1 2381   0.293   0.329   2.132 -1.7829 -1.6051  0.0840
  794SOL    HW2 2382   0.290   0.307   1.967  0.5088  3.2872  0.9886
  795SOL     OW 2383   2.861   1.259   0.411  0.1210 -0.4772 -0.2014
  795SOL    HW1 2384   2.915   1.188   0.363 -1.4435 -0.2743  2.2926
  795SOL    HW2 2385   2.889   1.355   0.387 -1.8085 -0.9911  1.0333
  796SOL     OW 2386   2.584   2.052   2.683  0.3597  0.3150  0.3676
  796SOL    HW1 2387   2.662   2.052   2.622 -1.6886 -1.9093  0.9599
  796SOL    HW2 2388   2.590   2.138   2.736  1.4312  1.2147  0.8949
  797SOL     OW 2389   2.920   1.826   0.004 -0.5173  0.3475 -0.8255
  797SOL    HW1 2390   2.852   1.875   3.032  2.1005 -0.3757  1.3065
  797SOL    HW2 2391   2.892   1.829   0.102 -0.5174  0.2916 -0.4475
  798SOL     OW 2392   0.386   0.892   1.896 -0.0214  0.4924  0.6673
  798SOL    HW1 2393   0.412   0.844   1.983  1.9595 -2.9462  0.4537
  798SOL    HW2 2394   0.454   0.965   1.885  2.5593 -0.0486  0.3013
  799SOL     OW 2395   2.813   0.979   2.477  0.2007 -0.0812 -0.0747
  799SOL    HW1 2396   2.754   0.958   2.554  2.9244  2.0900 -2.3368
  799SOL    HW2 2397   2.762   0.972   2.385  0.3030  0.0299 -2.1040
  800SOL     OW 2398   2.854   2.171   0.631  0.1533 -0.4471  0.0677
  800SOL    HW1 2399   2.926   2.149   0.562  0.9641 -1.5205  2.4539
  800SOL    HW2 2400   2.821   2.082   0.674  0.0756 -1.7702 -1.5681
  801SOL     OW 2401   1.200   0.867   0.752 -0.1710 -0.2735 -0.0014
  801SOL    HW1 2402   1.152   0.958   0.765 -0.0432 -0.0367  1.0355
  801SOL    HW2 2403   1.209   0.855   0.652  1.1116  0.9929 -0.7598
  802SOL     OW 2404   1.890   2.242   0.916  0.2030 -0.1741 -0.2306
  802SOL    HW1 2405   1.898   2.180   0.994 -0.5462  1.0027 -3.3533
  802SOL    HW2 2406   1.873   2.188   0.828  1.6370  2.9032 -1.1568
  803SOL     OW 2407   0.283   1.513   0.495 -0.6955  0.2127  0.4738
  803SOL    HW1 2408   0.284   1.501   0.599 -0.6174 -0.8130 -0.3517
  803SOL    HW2 2409   0.206   1.576   0.470  1.3576  0.9416 -1.1386
  804SOL     OW 2410   1.315   2.509   0.584 -0.5789  0.5248 -0.0128
  804SOL    HW1 2411   1.225   2.463   0.582 -0.6269  2.4845  2.6325
  804SOL    HW2 2412   1.314   2.594   0.639  1.1370  0.8096 -1.5064
  805SOL     OW 2413   1.561   2.106   2.472  0.0035 -0.0108 -0.1287
  805SOL    HW1 2414   1.540   2.125   2.571  0.0021  0.0790 -0.6899
  805SOL    HW2 2415   1.653   2.072   2.451 -4.8469  0.1328 -1.3408
  806SOL     OW 2416   1.882   0.004   1.305  0.1136  0.8105 -0.4199
  806SOL    HW1 2417   1.941   3.031   1.363 -2.6936  0.6554 -1.4496
  806SOL    HW2 2418   1.902   0.102   1.317  1.0471  0.4813 -1.3592
  807SOL     OW 2419   1.906   0.058   0.523  0.0108 -1.0247 -0.4806
  807SOL    HW1 2420   1.895   0.058   0.425 -0.4549 -1.4695 -1.2778
  807SOL    HW2 2421   1.914   3.049   0.555  0.6591 -0.6971 -1.4837
  808SOL     OW 2422   0.441   1.613   2.769  0.2152 -0.1639 -0.1709
  808SOL    HW1 2423   0.378   1.665   2.709 -0.2726 -1.8094  1.4990
  808SOL    HW2 2424   0.390   1.530   2.798 -1.1651  2.2908 -2.6044
  809SOL     OW 2425   3.070   1.082   2.954 -0.1743 -0.4192  0.3318
  809SOL    HW1 2426   0.084   1.091   2.957 -5.9788  1.6388 -0.0735
  809SOL    HW2 2427   3.045   0.983   2.951  0.4357  1.3188 -2.1229
  810SOL     OW 2428   2.800   0.543   2.951  0.3412 -0.0268 -0.6893
  810SOL    HW1 2429   2.738   0.621   2.937 -0.6252 -3.0056 -0.1829
  810SOL    HW2 2430   2.827   0.511   2.857  0.0537  0.3095 -0.3011
  811SOL     OW 2431   2.233   2.393   1.964  0.1699  0.0256  0.0401
  811SOL    HW1 2432   2.247   2.465   1.897 -0.6386 -0.9781 -0.0818
  811SOL    HW2 2433   2.205   2.305   1.925  1.0677 -1.3530  3.6510
  812SOL     OW 2434   1.145   0.446   0.458 -0.4688 -0.4537  0.1978
  812SOL    HW1 2435   1.123   0.429   0.556 -0.5635  3.2836  0.8206
  812SOL    HW2 2436   1.202   0.366   0.422 -2.1906 -2.2203  0.3057
  813SOL     OW 2437   1.963   0.468   1.963 -0.2650 -0.3548  0.7558
  813SOL    HW1 2438   1.897   0.456   1.884  0.1058 -2.3913  1.2743
  813SOL    HW2 2439   2.044   0.533   1.952  2.5885  0.5498 -0.1905
  814SOL     OW 2440   1.952   0.804   1.200  0.5381 -0.2719  0.1418
  814SOL    HW1 2441   1.916   0.757   1.119 -0.1072  3.0703  1.0079
  814SOL    HW2 2442   2.007   0.883   1.166  0.4524  0.4155 -1.0667
  815SOL     OW 2443   0.684   1.082   0.504  0.0530  0.8819 -0.3047
  815SOL    HW1 2444   0.624   1.112   0.582 -0.5687 -2.8655  2.8996
  815SOL    HW2 2445   0.638   1.000   0.467 -1.4847 -4.6289  3.3360
  816SOL     OW 2446   2.300   2.283   0.182 -0.2796 -0.3860 -0.2178
  816SOL    HW1 2447   2.237   2.211   0.161  2.2552  2.0059  1.8314
  816SOL    HW2 2448   2.244   2.361   0.214  1.1730  0.7893 -1.1893
  817SOL     OW 2449   2.686   2.545   0.922  0.3113  0.0099 -0.9367
  817SOL    HW1 2450   2.645   2.486   0.854  4.1300  1.8657  0.4015
  817SOL    HW2 2451   2.783   2.527   0.934 -1.2516 -1.6285  0.4616
  818SOL     OW 2452   1.743   0.766   0.040 -0.5670 -0.4398 -0.5944
  818SOL    HW1 2453   1.788   0.845   3.072  0.6653 -0.2935 -0.4420
  818SOL    HW2 2454   1.701   0.789   0.129  0.4896 -0.8068 -1.1203
  819SOL     OW 2455   0.662   0.814   0.777  0.2581 -0.0370 -0.1277
  819SOL    HW1 2456   0.573   0.866   0.794 -1.1857  1.8789 -3.9425
  819SOL    HW2 2457   0.690   0.813   0.681  3.0690 -1.3078  0.7889
  820SOL     OW 2458   2.102   0.669   1.426 -0.3697 -0.5327 -0.0282
  820SOL    HW1 2459   2.066   0.760   1.439  1.2498 -0.9402  0.6004
  820SOL    HW2 2460   2.050   0.594   1.470  2.3311 -1.7132  0.0290
  821SOL     OW 2461   2.793   0.088   1.053 -0.2327  0.2868  0.2486
  821SOL    HW1 2462   2.802   0.030   0.972  0.6167 -0.1122  0.0803
  821SOL    HW2 2463   2.885   0.122   1.077  1.1851  0.4701  0.0519
  822SOL     OW 2464   0.635   2.346   2.367 -0.2628 -0.3772 -0.5379
  822SOL    HW1 2465   0.668   2.436   2.341 -0.6289 -2.2576  0.9011
  822SOL    HW2 2466   0.538   2.336   2.337  0.2726  2.2184 -1.3367
  823SOL     OW 2467   2.813   1.257   1.548  1.1149  0.0603  0.6016
  823SOL    HW1 2468   2.829   1.161   1.570  0.5425 -1.5254 -2.5317
  823SOL    HW2 2469   2.821   1.331   1.621 -1.7235  2.5331  0.7820
  824SOL     OW 2470   0.510   2.633   2.455  0.5293  0.0145 -0.8171
  824SOL    HW1 2471   0.528   2.711   2.516  2.5247  2.7185  1.1637
  824SOL    HW2 2472   0.580   2.620   2.385 -3.4279  1.0602 -0.0558
  825SOL     OW 2473   1.551   1.571   2.827  0.2771 -0.4579  0.2699
  825SOL    HW1 2474   1.518   1.646   2.759  1.8218  2.3340 -2.1856
  825SOL    HW2 2475   1.637   1.603   2.866  0.5699 -1.5677 -1.8844
  826SOL     OW 2476   1.051   2.380   0.030 -0.3168  0.4076 -0.1717
  826SOL    HW1 2477   1.055   2.359   0.130 -2.1510 -0.5738 -0.2243
  826SOL    HW2 2478   1.056   2.297   3.061  0.9543 -2.7971  2.1683
  827SOL     OW 2479   0.209   1.427   1.707  0.2702  0.4920  0.3125
  827SOL    HW1 2480   0.151   1.498   1.654 -0.3423  1.2028 -3.8327
  827SOL    HW2 2481   0.157   1.339   1.725  0.1506 -3.1081  2.4472
  828SOL     OW 2482   0.235   1.709   1.442  0.2317  0.1649  0.0954
  828SOL    HW1 2483   0.191   1.775   1.376  1.1495  0.4439 -1.6065
  828SOL    HW2 2484   0.328   1.674   1.406  0.3171  0.1955 -0.2605
  829SOL     OW 2485   3.058   2.424   3.027 -0.7530  0.2354 -0.3048
  829SOL    HW1 2486   0.057   2.387   3.066 -2.3661  1.1074  0.3986
  829SOL    HW2 2487   2.984   2.361   2.991 -0.7056 -0.4981  0.9879
  830SOL     OW 2488   1.331   0.649   0.418  0.1759  0.4277 -0.4793
  830SOL    HW1 2489   1.282   0.725   0.462 -0.1894  0.1948 -2.0575
  830SOL    HW2 2490   1.265   0.575   0.399  1.8119  0.6175 -0.5215
  831SOL     OW 2491   2.852   2.284   2.919  0.0544 -0.1886  0.1543
  831SOL    HW1 2492   2.869   2.188   2.952  0.1347 -0.8684  2.5696
  831SOL    HW2 2493   2.759   2.289   2.888  4.1474  1.8143 -0.8715
  832SOL     OW 2494   1.633   2.674   0.528  0.3687  0.1062  0.3006
  832SOL    HW1 2495   1.596   2.680   0.435  0.2432 -2.4567  2.1357
  832SOL    HW2 2496   1.697   2.595   0.535  0.7718 -0.2132 -2.5799
  833SOL     OW 2497   0.347   1.266   2.277 -0.3469 -1.1450  0.0924
  833SOL    HW1 2498   0.340   1.360   2.320 -1.2639 -1.2200  0.7248
  833SOL    HW2 2499   0.285   1.202   2.328 -2.3664  1.0967  2.2494
  834SOL     OW 2500   2.209   0.515   0.551 -0.7423  0.4414  0.7506
  834SOL    HW1 2501   2.142   0.584   0.579 -1.1260 -0.3145 -0.7947
  834SOL    HW2 2502   2.159   0.433   0.524 -1.4565 -0.5589  0.9244
  835SOL     OW 2503   2.312   0.702   2.156 -0.6484 -0.3167 -0.1726
  835SOL    HW1 2504   2.250   0.712   2.074  0.6105 -2.1800 -0.6742
  835SOL    HW2 2505   2.262   0.654   2.231 -1.6223  0.3782  0.8016
  836SOL     OW 2506   1.006   1.944   0.952  0.2773 -0.1248  0.0776
  836SOL    HW1 2507   0.967   1.966   0.858  0.2281 -2.1308 -0.9251
  836SOL    HW2 2508   1.044   2.033   0.980 -0.0615  0.2439  0.3619
  837SOL     OW 2509   2.230   1.240   1.707 -0.0576 -0.1774 -0.0034
  837SOL    HW1 2510   2.235   1.272   1.612 -2.1222 -2.1010  1.3795
  837SOL    HW2 2511   2.159   1.297   1.760  0.4608 -0.2810  0.3465
  838SOL     OW 2512   0.165   1.131   2.420  0.2316 -0.5469 -0.8005
  838SOL    HW1 2513   0.177   1.043   2.371 -0.7553  3.7031 -0.2310
  838SOL    HW2 2514   0.065   1.149   2.428 -0.7642 -0.1095  1.4380
  839SOL     OW 2515   3.082   0.214   3.013  0.3975  0.2217  0.6611
  839SOL    HW1 2516   0.026   0.135   2.955 -1.3804 -0.2110  1.5266
  839SOL    HW2 2517   3.020   0.189   0.002  1.5133  0.9291 -1.8053
  840SOL     OW 2518   2.963   1.245   2.763  0.3256  0.2804 -0.0841
  840SOL    HW1 2519   3.008   1.173   2.826  2.0810 -0.2039  0.0214
  840SOL    HW2 2520   2.861   1.227   2.761  2.0040  0.8434  0.7921
  841SOL     OW 2521   0.458   2.062   2.579  0.3986  0.5758 -0.3456
  841SOL    HW1 2522   0.411   2.104   2.661  0.8701  0.1538  1.3563
  841SOL    HW2 2523   0.552   2.087   2.561 -0.0453 -0.8390 -0.5052
  842SOL     OW 2524   0.525   3.019   0.947  0.0156  0.5976 -0.0020
  842SOL    HW1 2525   0.589   0.003   0.991  1.4810 -1.0263  0.2737
  842SOL    HW2 2526   0.509   3.027   0.849 -0.4194 -0.8875 -0.3381
  843SOL     OW 2527   2.919   1.384   1.799 -0.3364 -0.6276  0.6238
  843SOL    HW1 2528   2.936   1.477   1.842 -0.5603  0.0438  0.2366
  843SOL    HW2 2529   2.835   1.341   1.830  2.5151 -0.7046 -1.4481
  844SOL     OW 2530   1.943   2.329   2.462  0.4028  0.2595  0.1446
  844SOL    HW1 2531   1.996   2.345   2.549 -0.2066  0.3959  1.2425
  844SOL    HW2 2532   1.990   2.358   2.378  0.2729  0.0396  0.7469
  845SOL     OW 2533   1.605   2.956   2.441  0.0220 -0.3011  0.2449
  845SOL    HW1 2534   1.511   2.949   2.416  2.0956  2.1478 -1.3302
  845SOL    HW2 2535   1.624   2.910   2.534  0.2092  2.4431  0.5745
  846SOL     OW 2536   2.296   1.617   0.055 -0.2575  0.3925  0.0354
  846SOL    HW1 2537   2.231   1.627   3.061  0.4673 -1.6513 -0.7678
  846SOL    HW2 2538   2.395   1.615   0.033  2.5517  2.9024 -0.6709
  847SOL     OW 2539   2.309   0.110   2.807 -0.1494  0.6792 -0.2221
  847SOL    HW1 2540   2.308   0.009   2.835  0.9347 -0.7261 -0.1926
  847SOL    HW2 2541   2.397   0.158   2.829  1.3060  1.6447 -1.3294
  848SOL     OW 2542   1.889   0.440   0.308  0.1619  0.0926  0.4083
  848SOL    HW1 2543   1.857   0.491   0.388 -0.2961  0.1576  1.4053
  848SOL    HW2 2544   1.823   0.442   0.229  1.4346 -1.9498  1.0010
  849SOL     OW 2545   0.954   0.213   2.844  0.3387  0.1525  0.3084
  849SOL    HW1 2546   0.983   0.253   2.754  0.1360  1.0666 -1.6403
  849SOL    HW2 2547   0.859   0.249   2.858 -0.0575 -1.1345  0.3305
  850SOL     OW 2548   0.073   0.500   0.279  0.3716  0.2608 -0.1212
  850SOL    HW1 2549   0.113   0.423   0.223  1.3301  0.6379 -0.7562
  850SOL    HW2 2550   3.054   0.509   0.287  0.2280 -1.3976  0.0697
  851SOL     OW 2551   0.276   1.162   1.534  0.1602 -0.4849 -0.3340
  851SOL    HW1 2552   0.311   1.246   1.573 -3.9372 -0.6169 -0.1502
  851SOL    HW2 2553   0.351   1.117   1.485  0.4486 -0.7830 -0.0436
  852SOL     OW 2554   1.303   0.766   1.935 -0.2993 -0.4545  0.0396
  852SOL    HW1 2555   1.299   0.741   1.838 -2.8818 -0.0020  2.8653
  852SOL    HW2 2556   1.228   0.713   1.977 -3.4478  0.0105  0.3052
  853SOL     OW 2557   2.242   1.300   2.847 -0.1599  0.0775 -0.1735
  853SOL    HW1 2558   2.306   1.274   2.925 -0.4706 -1.7405 -0.8782
  853SOL    HW2 2559   2.179   1.230   2.816 -1.2465  1.7810 -2.4236
  854SOL     OW 2560   1.237   1.247   1.619 -0.1667  0.4231  0.1453
  854SOL    HW1 2561   1.339   1.257   1.608 -2.1567  0.4430 -0.6062
  854SOL    HW2 2562   1.192   1.336   1.643  0.9208 -0.0283  0.2686
  855SOL     OW 2563   0.137   2.091   1.874  0.0978 -0.2136  0.2995
  855SOL    HW1 2564   0.159   2.101   1.774  1.8426 -0.6806  1.4491
  855SOL    HW2 2565   0.123   1.987   1.900  0.3249 -2.9089 -0.4842
  856SOL     OW 2566   1.169   1.083   2.376 -0.0553 -0.3592  0.4955
  856SOL    HW1 2567   1.264   1.059   2.345 -0.5758 -0.9172  0.2086
  856SOL    HW2 2568   1.153   1.183   2.377  1.1038 -1.0239  1.6083
  857SOL     OW 2569   1.102   0.973   2.653 -1.2143  0.0099  0.2397
  857SOL    HW1 2570   1.184   0.988   2.594  1.4961  1.4148 -0.9226
  857SOL    HW2 2571   1.052   0.893   2.625  1.8036  2.3645  2.2041
  858SOL     OW 2572   0.215   0.153   1.851 -0.3137  0.3980 -0.4212
  858SOL    HW1 2573   0.280   0.100   1.797  0.2199  1.6636 -1.4052
  858SOL    HW2 2574   0.165   0.091   1.913  1.6440  1.8820  0.9499
  859SOL     OW 2575   2.449   0.271   0.865 -0.0199  0.2031 -0.3579
  859SOL    HW1 2576   2.547   0.301   0.869 -0.8056 -0.1296 -1.4915
  859SOL    HW2 2577   2.401   0.264   0.953  1.6020 -0.2150 -1.1124
  860SOL     OW 2578   0.668   0.770   1.657 -0.9628  0.0248 -0.0280
  860SOL    HW1 2579   0.660   0.692   1.719  0.3861  1.2107 -0.2210
  860SOL    HW2 2580   0.747   0.754   1.596 -0.6057 -1.7837  1.5751
  861SOL     OW 2581   1.402   0.980   1.277  0.2887 -0.3641 -0.2059
  861SOL    HW1 2582   1.460   0.899   1.287 -1.8472  2.1458  0.4201
  861SOL    HW2 2583   1.455   1.068   1.298  2.1575 -1.0827 -1.1528
  862SOL     OW 2584   0.732   2.891   2.211 -0.1190 -0.2124  0.0151
  862SOL    HW1 2585   0.747   2.906   2.310  1.4910 -1.2588 -2.8753
  862SOL    HW2 2586   0.672   2.966   2.178  1.3535 -0.7716  0.1787
  863SOL     OW 2587   2.798   0.074   1.444  0.5132  0.2699  0.1345
  863SOL    HW1 2588   2.782   0.129   1.528  0.0634  0.0724 -0.0479
  863SOL    HW2 2589   2.900   0.070   1.423  0.9410  3.6986 -2.4548
  864SOL     OW 2590   2.660   2.876   2.548 -0.1910  0.4160  0.6569
  864SOL    HW1 2591   2.752   2.891   2.589 -0.0507  1.4263  0.2380
  864SOL    HW2 2592   2.667   2.864   2.448 -1.1819  0.2021  1.5099
  865SOL     OW 2593   1.444   1.240   2.170 -0.1642  0.4020 -0.2959
  865SOL    HW1 2594   1.445   1.159   2.231  0.8802  0.5652  0.6259
  865SOL    HW2 2595   1.347   1.265   2.146 -0.8203  1.9457 -0.2337
  866SOL     OW 2596   2.324   2.684   0.778  0.0814  0.3133  0.2701
  866SOL    HW1 2597   2.391   2.617   0.818  0.5880 -1.3834 -1.4611
  866SOL    HW2 2598   2.368   2.734   0.697  0.3343  3.0917  1.3243
  867SOL     OW 2599   2.448   2.569   1.069  0.1053  0.1831 -0.1445
  867SOL    HW1 2600   2.433   2.654   1.120  0.6757 -1.9636 -0.5025
  867SOL    HW2 2601   2.548   2.573   1.040 -0.2036 -0.3785 -2.1834
  868SOL     OW 2602   2.966   1.317   1.329 -0.3316 -0.3201 -0.3828
  868SOL    HW1 2603   2.908   1.300   1.412 -1.5751  1.0259 -0.2722
  868SOL    HW2 2604   2.957   1.232   1.272 -2.2080  3.2631 -0.2573
  869SOL     OW 2605   2.100   1.361   2.047 -0.1016  0.7426  0.3573
  869SOL    HW1 2606   2.110   1.427   2.123  1.7530 -2.9497  0.9478
  869SOL    HW2 2607   2.016   1.303   2.064 -2.2090  0.7671 -0.4977
  870SOL     OW 2608   1.400   1.243   0.913  0.0883  0.1335  0.3612
  870SOL    HW1 2609   1.414   1.159   0.854 -1.2640 -0.2113 -1.7923
  870SOL    HW2 2610   1.364   1.317   0.850  1.5221 -1.9905  0.2604
  871SOL     OW 2611   2.042   1.408   1.769  0.5502  0.0344 -0.0170
  871SOL    HW1 2612   1.948   1.371   1.744  1.1969 -0.2819  1.9605
  871SOL    HW2 2613   2.060   1.406   1.872 -0.1378  1.0554 -0.7711
  872SOL     OW 2614   1.598   1.409   2.337  0.3544  0.2157 -0.1576
  872SOL    HW1 2615   1.585   1.366   2.428  1.4368 -1.3822  3.7294
  872SOL    HW2 2616   1.538   1.364   2.265 -1.9879 -0.9094  0.6700
  873SOL     OW 2617   1.336   1.513   1.469  0.2050 -0.4306 -0.1494
  873SOL    HW1 2618   1.315   1.497   1.371  2.0965  0.9736  1.6435
  873SOL    HW2 2619   1.397   1.595   1.479  0.1871 -0.3859  2.0941
  874SOL     OW 2620   1.611   1.348   1.049 -0.2157 -0.1825  0.0339
  874SOL    HW1 2621   1.605   1.449   1.060  1.8701 -0.8845  0.6513
  874SOL    HW2 2622   1.545   1.314   0.981  0.9743  0.6918 -1.7609
  875SOL     OW 2623   2.607   0.354   2.594 -0.3900 -0.8627  0.4093
  875SOL    HW1 2624   2.528   0.384   2.538  5.3159 -1.3134  0.2350
  875SOL    HW2 2625   2.609   0.254   2.584 -2.6839  0.5142  1.5993
  876SOL     OW 2626   1.216   0.905   0.485 -0.3053 -0.5048  0.0304
  876SOL    HW1 2627   1.117   0.913   0.456  0.2116 -0.7455 -2.8627
  876SOL    HW2 2628   1.262   0.996   0.463  3.6310  3.0323 -2.0217
  877SOL     OW 2629   2.046   3.021   0.795  0.6306 -0.1305 -0.2195
  877SOL    HW1 2630   2.093   2.964   0.731 -1.7789  1.3658  1.1694
  877SOL    HW2 2631   1.948   2.994   0.788 -0.6574  1.0685 -2.3032
  878SOL     OW 2632   2.842   1.865   0.260 -0.3839 -0.1607  0.1122
  878SOL    HW1 2633   2.862   1.829   0.356 -0.6986 -1.6735 -0.3958
  878SOL    HW2 2634   2.739   1.883   0.252 -1.8528 -0.5160  0.2304
  879SOL     OW 2635   2.887   2.062   1.914 -0.0456  0.0141 -0.2544
  879SOL    HW1 2636   2.870   1.992   1.985 -0.6270  1.0324 -2.2228
  879SOL    HW2 2637   2.975   2.114   1.923  0.6769  1.6589 -0.3612
  880SOL     OW 2638   0.359   1.741   0.783  0.0297  0.7161 -0.2268
  880SOL    HW1 2639   0.268   1.788   0.784  1.0920  0.0011 -0.3750
  880SOL    HW2 2640   0.411   1.769   0.865 -1.2208 -1.7044 -1.9524
  881SOL     OW 2641   1.406   0.353   2.665 -0.5267  0.1228  0.0787
  881SOL    HW1 2642   1.337   0.329   2.738 -0.4056  0.8323  0.5654
  881SOL    HW2 2643   1.423   0.267   2.611  0.2019  0.1405  1.3287
  882SOL     OW 2644   2.424   0.883   0.526 -0.2207  0.1822  0.1568
  882SOL    HW1 2645   2.441   0.974   0.571 -1.0666  0.1882  1.4548
  882SOL    HW2 2646   2.456   0.804   0.583 -1.3032  1.9065  0.1515
  883SOL     OW 2647   1.855   0.604   2.491 -0.2350 -0.3523  0.3364
  883SOL    HW1 2648   1.770   0.619   2.545  1.1828 -0.8182  0.9620
  883SOL    HW2 2649   1.944   0.621   2.541 -0.5523  2.1627 -3.3883
  884SOL     OW 2650   0.063   2.924   1.726  0.1231 -0.2994  0.4443
  884SOL    HW1 2651   0.001   2.842   1.720 -0.2211  2.2525  0.0361
  884SOL    HW2 2652   0.141   2.906   1.661  0.6221 -1.0041  0.7451
  885SOL     OW 2653   2.023   0.752   2.240  0.1927 -0.6923  0.1486
  885SOL    HW1 2654   1.937   0.720   2.185 -2.5546 -0.3403 -0.7905
  885SOL    HW2 2655   2.078   0.684   2.292  0.5987 -1.4926  0.7938
  886SOL     OW 2656   1.781   0.234   2.852 -0.5063  0.1472  0.1176
  886SOL    HW1 2657   1.820   0.253   2.760 -0.3222 -0.9238 -0.2278
  886SOL    HW2 2658   1.836   0.176   2.917 -1.5486  1.3629  2.4242
  887SOL     OW 2659   1.184   0.246   1.651 -0.0577  0.5556  0.6849
  887SOL    HW1 2660   1.139   0.305   1.575  2.1815  1.0998 -1.1227
  887SOL    HW2 2661   1.121   0.169   1.679  0.1973 -1.9310 -1.5251
  888SOL     OW 2662   2.362   0.669   1.480  0.2517 -0.1225  0.4137
  888SOL    HW1 2663   2.407   0.750   1.445  1.8062  3.4730  2.4759
  888SOL    HW2 2664   2.262   0.672   1.448 -2.7337  2.2794 -1.0432
  889SOL     OW 2665   1.389   3.073   0.705  0.0448 -0.0744 -0.3454
  889SOL    HW1 2666   1.440   3.019   0.634  2.4569  0.4120  0.3776
  889SOL    HW2 2667   1.448   0.046   0.767  1.4656 -1.0059  0.7737
  890SOL     OW 2668   1.124   2.646   1.137 -0.3453  0.0488 -0.3633
  890SOL    HW1 2669   1.178   2.610   1.062  0.3700 -1.6823  0.5666
  890SOL    HW2 2670   1.055   2.714   1.106  1.2771  0.1394 -1.6621
  891SOL     OW 2671   0.131   1.203   0.153 -0.2775  0.5778  0.0634
  891SOL    HW1 2672   0.176   1.178   0.062 -1.2016  1.1206 -3.3268
  891SOL    HW2 2673   0.201   1.226   0.220  0.9493 -0.3193  0.0804
  892SOL     OW 2674   2.194   1.369   2.409 -0.0291 -0.0170  0.0513
  892SOL    HW1 2675   2.164   1.442   2.346  0.0167 -2.0628 -0.2493
  892SOL    HW2 2676   2.235   1.401   2.496  0.1646 -3.0898 -2.1413
  893SOL     OW 2677   2.225   2.434   1.065  0.5818 -0.4605  0.3464
  893SOL    HW1 2678   2.152   2.504   1.084 -1.1213  0.6368  0.7270
  893SOL    HW2 2679   2.313   2.477   1.080 -2.6021 -3.0431 -3.9702
  894SOL     OW 2680   0.287   0.664   1.074  0.3608  0.1477  0.0873
  894SOL    HW1 2681   0.382   0.673   1.101 -1.1310 -2.4738  1.2349
  894SOL    HW2 2682   0.239   0.751   1.088 -2.9259  1.9418  1.3061
  895SOL     OW 2683   2.824   2.070   2.539 -0.2726 -0.0492  0.3055
  895SOL    HW1 2684   2.873   2.023   2.464  0.7131 -1.0174  0.7701
  895SOL    HW2 2685   2.891   2.100   2.608 -0.4955 -4.2250 -1.7385
  896SOL     OW 2686   1.325   2.952   2.431 -0.1690  0.5111 -0.1916
  896SOL    HW1 2687   1.285   2.932   2.518 -0.5299  0.7117 -4.1590
  896SOL    HW2 2688   1.264   3.012   2.379  0.8162  0.6459  1.6259
  897SOL     OW 2689   0.313   1.896   1.631 -0.4722  0.5419 -0.3595
  897SOL    HW1 2690   0.275   1.988   1.614  0.5883 -1.2269 -0.3573
  897SOL    HW2 2691   0.266   1.820   1.581  0.7663 -1.5819 -2.0182
  898SOL     OW 2692   0.757   2.210   1.743 -0.0138 -0.4042  0.0407
  898SOL    HW1 2693   0.775   2.210   1.643  0.2048  0.9890  2.9489
  898SOL    HW2 2694   0.744   2.301   1.785 -1.3637 -0.0513  0.7681
  899SOL     OW 2695   1.829   0.131   1.689 -0.1261  0.0980 -0.2644
  899SOL    HW1 2696   1.927   0.109   1.678 -1.1597 -0.7356 -0.4519
  899SOL    HW2 2697   1.782   0.138   1.597  0.5264  1.2804 -2.8719
  900SOL     OW 2698   1.582   1.171   0.472  0.2141 -0.1951 -0.1059
  900SOL    HW1 2699   1.612   1.149   0.566  0.0724  2.6623 -2.5007
  900SOL    HW2 2700   1.480   1.165   0.463 -0.8316  0.0379  3.1538
  901SOL     OW 2701   1.403   0.993   2.284  0.1985  0.3849 -0.1699
  901SOL    HW1 2702   1.466   0.977   2.360  0.5311  1.5652 -1.0563
  901SOL    HW2 2703   1.381   0.906   2.232  0.8814  1.2089  1.9696
  902SOL     OW 2704   0.062   2.098   0.950  0.3610  0.0592 -0.7887
  902SOL    HW1 2705   3.047   2.119   0.955  1.6307  1.2117 -0.4520
  902SOL    HW2 2706   0.109   2.115   1.040  0.7946  1.7525  0.0788
  903SOL     OW 2707   2.465   1.305   2.128  0.4269  0.0839 -0.4139
  903SOL    HW1 2708   2.564   1.313   2.111 -0.6678  1.8177 -2.1759
  903SOL    HW2 2709   2.449   1.263   2.225 -1.6050  1.5492  0.3185
  904SOL     OW 2710   1.206   1.999   0.013  0.1469  0.2134  0.0395
  904SOL    HW1 2711   1.162   2.061   3.035  2.9397  0.0772  1.6310
  904SOL    HW2 2712   1.163   2.014   0.106 -0.3784  0.0534  0.8336
  905SOL     OW 2713   2.085   2.915   1.893  0.3585  0.3182 -0.7488
  905SOL    HW1 2714   2.122   2.824   1.922 -0.8792 -1.2669 -0.6377
  905SOL    HW2 2715   2.058   2.978   1.966 -0.7663 -2.8392 -0.8204
  906SOL     OW 2716   1.321   3.009   0.048 -0.0371  0.1122 -0.5206
  906SOL    HW1 2717   1.340   3.052   3.044 -2.0487 -0.0643  0.1331
  906SOL    HW2 2718   1.347   2.910   0.055  0.2285 -0.6192 -0.2407
  907SOL     OW 2719   0.020   2.690   0.865 -0.3458 -0.0238 -0.5661
  907SOL    HW1 2720   0.111   2.720   0.892 -1.5531 -0.4320  0.9545
  907SOL    HW2 2721   0.020   2.666   0.768  0.4237  0.3420  1.2100
  908SOL     OW 2722   0.885   2.660   1.628 -0.7390 -0.1556  0.1600
  908SOL    HW1 2723   0.827   2.733   1.583 -0.1171 -1.5406  0.4840
  908SOL    HW2 2724   0.858   2.653   1.725  0.3013  0.2082  3.4693
  909SOL     OW 2725   1.728   0.860   1.332 -0.2689  0.0434  0.3295
  909SOL    HW1 2726   1.823   0.829   1.299  2.3473 -2.3641  1.4547
  909SOL    HW2 2727   1.728   0.946   1.389  0.5978  1.6171  3.3018
  910SOL     OW 2728   0.928   0.419   0.272 -0.1511 -0.3088  0.4758
  910SOL    HW1 2729   0.939   0.454   0.177  0.0037 -0.6920 -0.4620
  910SOL    HW2 2730   1.017   0.437   0.324  0.2181 -3.7980  0.4637
  911SOL     OW 2731   0.411   0.317   0.034  0.1659  0.2874  0.0584
  911SOL    HW1 2732   0.392   0.219   0.043  0.0352  3.4789  1.2985
  911SOL    HW2 2733   0.378   0.357   3.027  0.7125  0.3022 -1.7313
  912SOL     OW 2734   0.036   1.903   2.749  0.0187 -0.1774  0.5993
  912SOL    HW1 2735   0.012   1.834   2.819  3.2188  1.6837  1.2668
  912SOL    HW2 2736   3.071   1.887   2.663  0.0243 -2.6761 -1.0730
  913SOL     OW 2737   2.630   0.129   0.230 -0.0094 -0.4042  0.1805
  913SOL    HW1 2738   2.629   0.165   0.323 -0.3739 -4.8778  1.1286
  913SOL    HW2 2739   2.547   0.156   0.176  1.7317  1.7168 -0.4902
  914SOL     OW 2740   1.274   1.464   1.887 -0.4896  0.1233 -0.0041
  914SOL    HW1 2741   1.378   1.457   1.899  2.1105  0.2781  1.3744
  914SOL    HW2 2742   1.221   1.394   1.942 -3.3939  1.0759  1.2943
  915SOL     OW 2743   2.825   2.345   2.303 -0.5127  0.6074  0.3592
  915SOL    HW1 2744   2.902   2.302   2.252  1.2150  1.1584 -1.2471
  915SOL    HW2 2745   2.860   2.349   2.402 -0.6240  0.9267 -1.6138
  916SOL     OW 2746   3.042   0.840   2.375 -0.3977  0.5705  0.0483
  916SOL    HW1 2747   0.038   0.890   2.337  3.3641 -4.6760 -0.6056
  916SOL    HW2 2748   2.970   0.896   2.417 -1.8661 -1.2544  0.9775
  917SOL     OW 2749   1.555   0.139   0.423  0.3272 -0.1168 -0.3575
  917SOL    HW1 2750   1.610   0.159   0.506 -1.6390 -0.1593  0.3892
  917SOL    HW2 2751   1.623   0.130   0.346 -1.7180 -2.9940 -0.3285
  918SOL     OW 2752   1.712   2.891   2.158 -0.5255  0.5489 -0.1092
  918SOL    HW1 2753   1.671   2.909   2.247  0.4683 -1.5051 -0.2507
  918SOL    HW2 2754   1.724   2.978   2.108  0.2749  3.1185  1.4595
  919SOL     OW 2755   1.805   2.302   1.810  0.1466 -0.3068  0.3202
  919SOL    HW1 2756   1.777   2.388   1.853 -2.0894  1.5033  1.9694
  919SOL    HW2 2757   1.732   2.230   1.827 -3.1489 -1.7666 -1.4565
  920SOL     OW 2758   0.289   0.869   0.055  0.2246  0.1306 -0.1766
  920SOL    HW1 2759   0.291   0.890   0.154  0.4033 -3.3253  0.4440
  920SOL    HW2 2760   0.384   0.841   0.035 -1.8531 -0.8363  1.0229
  921SOL     OW 2761   2.455   0.923   2.153  0.4286  0.1215 -0.1459
  921SOL    HW1 2762   2.403   0.837   2.169  1.5386  0.1654 -0.6589
  921SOL    HW2 2763   2.396   1.006   2.155  0.7303 -1.1442  2.2602
  922SOL     OW 2764   1.174   1.618   2.433 -0.4218 -0.2254 -0.7179
  922SOL    HW1 2765   1.154   1.716   2.449 -0.0166  0.9038 -1.6972
  922SOL    HW2 2766   1.237   1.604   2.357  0.5646  0.3531  2.5376
  923SOL     OW 2767   0.732   1.187   2.452 -0.4849 -0.0934  0.1483
  923SOL    HW1 2768   0.648   1.149   2.500 -0.0272  0.6049  1.0791
  923SOL    HW2 2769   0.782   1.254   2.509  1.4475  0.8516 -1.6775
  924SOL     OW 2770   0.278   2.250   2.719  0.0011  0.0263  0.5597
  924SOL    HW1 2771   0.280   2.327   2.780 -2.7951 -2.4425 -1.8464
  924SOL    HW2 2772   0.283   2.277   2.622 -0.6622 -1.5066 -3.2904
  925SOL     OW 2773   1.613   1.617   1.034  0.1121 -0.3974 -0.1339
  925SOL    HW1 2774   1.675   1.682   1.082 -0.4707 -2.4119 -0.8178
  925SOL    HW2 2775   1.609   1.635   0.932  0.3119  0.5594  0.9111
  926SOL     OW 2776   1.881   0.312   2.604  0.5037 -0.0074 -0.1720
  926SOL    HW1 2777   1.845   0.239   2.541 -0.4735 -0.8684 -1.9859
  926SOL    HW2 2778   1.852   0.399   2.562  2.3578 -1.3859 -2.4759
  927SOL     OW 2779   2.592   2.494   1.871 -0.4967 -0.1383 -0.4164
  927SOL    HW1 2780   2.627   2.414   1.933  0.1898 -0.3413 -0.3771
  927SOL    HW2 2781   2.533   2.555   1.925  0.0829  3.0524  0.2300
  928SOL     OW 2782   0.816   0.919   2.819 -0.4785 -0.3856 -0.0804
  928SOL    HW1 2783   0.757   0.840   2.812  0.7810  0.9293 -1.0066
  928SOL    HW2 2784   0.915   0.889   2.831  1.0108 -0.9900  1.5255
  929SOL     OW 2785   0.189   0.038   1.026  0.0531  0.0240 -0.6035
  929SOL    HW1 2786   0.210   0.011   0.935 -3.0101  1.3751  2.0290
  929SOL    HW2 2787   0.108   0.100   1.029  0.6012 -0.7799 -2.3242
  930SOL     OW 2788   2.786   0.250   2.073 -0.2230  0.5138  0.0438
  930SOL    HW1 2789   2.709   0.292   2.027  0.2252  1.0849 -0.3486
  930SOL    HW2 2790   2.873   0.287   2.035  1.8318  3.7272 -0.1598
  931SOL     OW 2791   2.349   1.155   0.017  0.4581  0.0183  0.4538
  931SOL    HW1 2792   2.352   1.174   0.119  0.1847 -1.2568  1.5297
  931SOL    HW2 2793   2.384   1.053   0.004  2.5939 -5.9410 -0.3064
  932SOL     OW 2794   2.825   1.159   0.838 -0.3799 -0.1476  0.1404
  932SOL    HW1 2795   2.826   1.222   0.919 -0.3964  0.3146  0.1834
  932SOL    HW2 2796   2.768   1.203   0.764 -1.9112 -1.8131 -2.8418
  933SOL     OW 2797   2.845   2.317   1.627  0.3218 -0.5895  0.1508
  933SOL    HW1 2798   2.827   2.216   1.635  1.0295 -1.7271  1.0459
  933SOL    HW2 2799   2.757   2.374   1.610  0.6487  2.2542 -0.5909
  934SOL     OW 2800   0.436   2.854   1.141  0.0605  0.9979 -0.1728
  934SOL    HW1 2801   0.508   2.852   1.214  2.1130  0.6991 -0.1248
  934SOL    HW2 2802   0.466   2.923   1.073  1.3103 -0.8284  0.0686
  935SOL     OW 2803   2.556   0.236   2.238  0.1709 -0.3594 -0.1161
  935SOL    HW1 2804   2.486   0.299   2.195 -0.5733  2.5461 -0.2330
  935SOL    HW2 2805   2.641   0.247   2.186 -0.8266  0.4018 -3.1069
  936SOL     OW 2806   2.771   0.738   1.658 -0.2615  0.5212  0.1217
  936SOL    HW1 2807   2.784   0.742   1.759 -0.9180  3.6302  0.8913
  936SOL    HW2 2808   2.779   0.644   1.632  0.3693  2.1693 -0.5832
  937SOL     OW 2809   1.708   1.420   1.733  0.4225 -0.3193  1.0064
  937SOL    HW1 2810   1.715   1.508   1.679 -0.7543  0.2407 -0.4456
  937SOL    HW2 2811   1.751   1.345   1.679  0.6130  2.6803 -1.3279
  938SOL     OW 2812   0.618   2.249   2.961  0.3314  0.0034 -0.1015
  938SOL    HW1 2813   0.604   2.301   3.052 -1.4020 -0.1479  2.8578
  938SOL    HW2 2814   0.572   2.157   2.971  0.5550  0.7479  2.8687
  939SOL     OW 2815   2.025   0.417   2.972  0.4693 -0.4026  0.7559
  939SOL    HW1 2816   2.090   0.423   3.047  0.6365  0.9846 -3.1286
  939SOL    HW2 2817   1.987   0.325   2.960  2.7368 -0.1555  0.8981
  940SOL     OW 2818   1.282   2.564   0.933  0.2829 -0.2582  0.6119
  940SOL    HW1 2819   1.338   2.483   0.950  2.2293  2.2299 -0.4029
  940SOL    HW2 2820   1.333   2.645   0.896 -2.0150  1.4557  1.1513
  941SOL     OW 2821   1.263   1.985   1.757  0.6523 -0.8942  0.2487
  941SOL    HW1 2822   1.276   2.019   1.661  1.6341  1.1874  0.3900
  941SOL    HW2 2823   1.171   2.009   1.789 -0.5106  0.3011 -1.9553
  942SOL     OW 2824   2.778   1.972   2.879 -0.0150  0.3547 -0.2287
  942SOL    HW1 2825   2.817   1.909   2.809 -3.4980  0.0238  0.7081
  942SOL    HW2 2826   2.679   1.993   2.860  0.6720 -0.1896 -0.7655
  943SOL     OW 2827   2.313   2.905   1.752  0.7107  0.2029  0.5079
  943SOL    HW1 2828   2.233   2.929   1.807 -1.1692 -1.9935 -0.1130
  943SOL    HW2 2829   2.396   2.925   1.802 -0.9274 -0.5153 -2.3730
  944SOL     OW 2830   1.805   2.124   2.838  0.3687 -0.2371 -0.2858
  944SOL    HW1 2831   1.756   2.041   2.801  1.1454  0.0300 -1.1328
  944SOL    HW2 2832   1.786   2.204   2.779  0.8643 -2.7055 -2.4476
  945SOL     OW 2833   2.841   2.003   1.265 -0.4410  1.0034  0.1669
  945SOL    HW1 2834   2.909   1.929   1.278  1.4639  0.4978  1.5392
  945SOL    HW2 2835   2.774   1.990   1.189  1.4241  1.4091  1.3824
  946SOL     OW 2836   1.424   1.172   2.969 -0.1229 -0.2571 -0.1004
  946SOL    HW1 2837   1.417   1.075   2.944 -1.2411  2.1533  1.2206
  946SOL    HW2 2838   1.334   1.210   3.004 -0.6988 -1.6589  2.8705
  947SOL     OW 2839   0.206   0.941   2.254 -0.0573 -0.3270 -0.3097
  947SOL    HW1 2840   0.157   0.992   2.178 -0.0099 -0.5087 -1.4244
  947SOL    HW2 2841   0.293   0.895   2.225 -0.3022  1.1769  1.9662
  948SOL     OW 2842   0.096   1.032   0.564  0.0903  0.6601 -0.7220
  948SOL    HW1 2843   0.175   1.091   0.581 -1.9648  2.9954  1.9635
  948SOL    HW2 2844   0.025   1.094   0.534 -0.3543 -0.6311 -0.7344
  949SOL     OW 2845   0.783   0.276   2.497  0.8950 -0.5751 -0.0894
  949SOL    HW1 2846   0.847   0.344   2.537  1.2046  1.6330  0.0072
  949SOL    HW2 2847   0.833   0.188   2.492  1.7148 -0.2360 -1.1844
  950SOL     OW 2848   3.053   0.510   1.379 -0.0609 -0.3493  0.1365
  950SOL    HW1 2849   3.065   0.606   1.408  0.4042 -2.3732 -1.0869
  950SOL    HW2 2850   0.007   0.502   1.286 -0.3949  0.6256 -0.0518
  951SOL     OW 2851   0.260   1.117   2.673  0.0431 -0.0984 -0.2739
  951SOL    HW1 2852   0.231   1.134   2.576 -0.4926  0.0533  1.1824
  951SOL    HW2 2853   0.220   1.028   2.700  1.3248 -3.5426 -1.9537
  952SOL     OW 2854   1.982   2.377   1.624 -0.4565  0.4651 -1.1005
  952SOL    HW1 2855   1.907   2.329   1.673 -0.4676  0.5904  1.8548
  952SOL    HW2 2856   1.943   2.460   1.575  1.4453  0.9976 -1.2091
  953SOL     OW 2857   0.285   2.453   2.897  0.0128  0.4916 -0.2171
  953SOL    HW1 2858   0.384   2.454   2.890 -3.4676 -1.3125  0.5821
  953SOL    HW2 2859   0.253   2.429   2.989  1.5645 -0.2752  0.9384
  954SOL     OW 2860   2.711   0.672   0.952  0.2406  0.2385 -0.0552
  954SOL    HW1 2861   2.730   0.719   1.037 -0.9400 -1.0951 -1.1790
  954SOL    HW2 2862   2.700   0.736   0.871 -2.6654  1.3823  1.3280
  955SOL     OW 2863   1.651   1.479   0.154 -0.2232 -0.3420  0.0719
  955SOL    HW1 2864   1.665   1.378   0.154 -1.0195  0.1158 -0.2852
  955SOL    HW2 2865   1.682   1.516   0.245 -1.0090  0.8275 -2.1850
  956SOL     OW 2866   1.228   0.713   2.479  0.2308 -0.4770  1.1813
  956SOL    HW1 2867   1.153   0.753   2.424 -0.8291  1.8099  0.9788
  956SOL    HW2 2868   1.211   0.614   2.493  2.2760 -0.0844  1.9444
  957SOL     OW 2869   0.604   0.439   2.038 -0.1918 -0.5326  0.1326
  957SOL    HW1 2870   0.509   0.405   2.061 -1.1109 -2.3075 -0.6229
  957SOL    HW2 2871   0.666   0.446   2.119 -0.3437  0.4166 -0.0405
  958SOL     OW 2872   0.505   2.035   0.676 -0.1864 -0.5207  0.3577
  958SOL    HW1 2873   0.517   2.015   0.777 -0.5885 -0.6196  2.4089
  958SOL    HW2 2874   0.591   2.035   0.619 -2.3841 -1.3836 -2.2408
  959SOL     OW 2875   2.431   0.915   1.881 -0.3110 -0.2147  0.1042
  959SOL    HW1 2876   2.344   0.964   1.886  1.2188  1.2173 -1.9041
  959SOL    HW2 2877   2.454   0.882   1.975  1.7933  1.0558 -0.4383
  960SOL     OW 2878   0.273   1.401   2.710 -0.0071 -0.4041  0.1182
  960SOL    HW1 2879   0.235   1.311   2.696  1.2147  2.4269 -0.4620
  960SOL    HW2 2880   0.199   1.469   2.714  0.0015 -2.5193  2.8456
  961SOL     OW 2881   0.700   1.739   0.615 -0.0885 -0.1396 -0.4584
  961SOL    HW1 2882   0.789   1.695   0.642  1.9682 -0.1963  1.0826
  961SOL    HW2 2883   0.658   1.782   0.701 -0.4428  3.8894  1.6516
  962SOL     OW 2884   0.378   1.426   1.049 -0.1853  0.1657  0.1586
  962SOL    HW1 2885   0.333   1.337   1.075 -0.6376 -0.3815 -1.9820
  962SOL    HW2 2886   0.462   1.443   1.106 -0.1722  0.3013 -1.4983
  963SOL     OW 2887   1.547   2.294   2.817 -0.0541  0.6141  0.1229
  963SOL    HW1 2888   1.478   2.236   2.773  0.6055  0.4448  2.5746
  963SOL    HW2 2889   1.614   2.332   2.752  0.8244  0.6603 -0.6897
  964SOL     OW 2890   0.067   2.488   2.534 -0.3720 -0.0480  0.0249
  964SOL    HW1 2891   0.092   2.553   2.609 -0.0819 -2.9182 -0.4745
  964SOL    HW2 2892   0.148   2.456   2.490  0.5634 -3.0895  1.9580
  965SOL     OW 2893   2.495   1.816   2.777 -0.1825 -0.2088 -0.0548
  965SOL    HW1 2894   2.522   1.740   2.715  0.2874 -2.2006 -0.4350
  965SOL    HW2 2895   2.521   1.909   2.734 -0.8050  0.8552 -0.5834
  966SOL     OW 2896   2.652   1.347   2.471 -0.8341 -0.3785 -0.3494
  966SOL    HW1 2897   2.729   1.407   2.454  0.1324 -1.4812 -0.3431
  966SOL    HW2 2898   2.650   1.327   2.569 -1.6238  1.6215  2.0299
  967SOL     OW 2899   1.835   0.538   0.569  0.3552 -0.4239  0.1809
  967SOL    HW1 2900   1.824   0.507   0.668  0.0282  1.2731 -0.1118
  967SOL    HW2 2901   1.911   0.607   0.570  2.5973  0.3121 -1.6698
  968SOL     OW 2902   2.720   0.139   0.512 -0.0674  0.5022 -0.0373
  968SOL    HW1 2903   2.706   0.218   0.577 -0.2883  0.2798 -1.2822
  968SOL    HW2 2904   2.817   0.125   0.480 -0.0308  1.4402 -1.9325
  969SOL     OW 2905   0.657   0.945   2.131 -0.2118  0.3317  0.4296
  969SOL    HW1 2906   0.743   0.935   2.187  0.9222  1.8477  0.5593
  969SOL    HW2 2907   0.615   1.036   2.140 -2.3663  0.3689 -0.1212
  970SOL     OW 2908   1.877   1.627   2.669 -0.0265  0.5995 -0.1654
  970SOL    HW1 2909   1.876   1.646   2.769  1.0315  0.2360 -2.3979
  970SOL    HW2 2910   1.975   1.631   2.637  3.9979 -0.6039  0.5859
  971SOL     OW 2911   2.568   0.110   1.735 -0.2516 -0.0458  0.3452
  971SOL    HW1 2912   2.506   0.107   1.814  0.5946 -2.5741 -1.2874
  971SOL    HW2 2913   2.515   0.084   1.650  0.7099 -0.9951  0.8742
  972SOL     OW 2914   0.147   0.508   0.884  0.8285 -0.3100  0.5141
  972SOL    HW1 2915   0.231   0.523   0.939 -2.5559 -1.4153  1.8167
  972SOL    HW2 2916   0.154   0.526   0.783  0.3615 -0.4049 -0.3127
  973SOL     OW 2917   2.901   0.177   2.496  0.2526 -0.6988  0.0098
  973SOL    HW1 2918   2.938   0.093   2.452 -1.1307 -2.9934 -0.5109
  973SOL    HW2 2919   2.799   0.174   2.504  1.0187  1.8636  0.8833
  974SOL     OW 2920   2.859   0.982   1.586 -0.2507  0.2928 -0.4593
  974SOL    HW1 2921   2.941   0.980   1.529 -3.5223 -2.5759  1.5441
  974SOL    HW2 2922   2.829   0.887   1.608  1.5858 -2.0769 -3.2404
  975SOL     OW 2923   1.426   2.936   2.012 -0.3133  0.0097  0.2534
  975SOL    HW1 2924   1.520   2.966   2.039 -0.1203  0.6014 -0.3752
  975SOL    HW2 2925   1.391   2.855   2.060 -0.4895  0.9810  0.4041
  976SOL     OW 2926   1.944   1.428   1.328  0.5115 -0.5788 -0.4206
  976SOL    HW1 2927   1.853   1.434   1.286 -1.9971  0.9464  1.0460
  976SOL    HW2 2928   1.965   1.515   1.381  2.1965  2.4850  2.6803
  977SOL     OW 2929   2.732   3.037   2.862 -0.0876 -0.1851  0.1413
  977SOL    HW1 2930   2.680   3.003   2.946 -3.0312  0.3275  0.5426
  977SOL    HW2 2931   2.750   0.051   2.863 -0.8684 -0.2260  1.0052
  978SOL     OW 2932   2.040   1.011   2.270 -0.1944 -0.1432 -0.3205
  978SOL    HW1 2933   2.126   1.046   2.232  0.1809 -1.0473 -2.1399
  978SOL    HW2 2934   2.026   0.913   2.260 -0.4888 -1.7992 -1.3663
  979SOL     OW 2935   0.918   1.007   2.316  0.8518  0.2544  0.3260
  979SOL    HW1 2936   1.014   1.024   2.338  1.3070  2.1620  4.2615
  979SOL    HW2 2937   0.862   1.075   2.366 -1.9872 -0.4660  0.3474
  980SOL     OW 2938   1.703   1.906   2.749  0.2362 -0.0125 -0.0596
  980SOL    HW1 2939   1.635   1.852   2.696 -0.6314  1.4752  1.5927
  980SOL    HW2 2940   1.777   1.851   2.797  1.8122  0.0788 -1.5390
  981SOL     OW 2941   1.255   0.703   1.665  0.4965 -0.2772 -0.2599
  981SOL    HW1 2942   1.192   0.684   1.585 -1.3706  1.1694 -0.9829
  981SOL    HW2 2943   1.333   0.757   1.634 -1.3723  0.2016  0.5125
  982SOL     OW 2944   0.955   0.143   0.053 -0.3677  0.2405  0.4327
  982SOL    HW1 2945   0.984   0.103   3.046  2.7538  0.3605 -0.9074
  982SOL    HW2 2946   0.854   0.151   0.061  1.4858 -2.5382  2.7708
  983SOL     OW 2947   2.146   1.076   0.316  0.1456  0.4957  0.8081
  983SOL    HW1 2948   2.229   1.128   0.288 -0.7558 -0.1309  1.6345
  983SOL    HW2 2949   2.171   0.983   0.349  0.3452 -3.0495  0.4225
  984SOL     OW 2950   1.332   0.346   0.010  0.4625  0.1743  0.3171
  984SOL    HW1 2951   1.427   0.328   0.042 -2.3704  2.0878  0.5049
  984SOL    HW2 2952   1.274   0.278   0.063  1.2090 -0.4158 -0.7087
  985SOL     OW 2953   1.179   2.749   1.905  0.4942 -0.6705 -0.4203
  985SOL    HW1 2954   1.161   2.849   1.896  1.7113 -2.7577 -0.0689
  985SOL    HW2 2955   1.190   2.712   1.814 -0.0255 -3.6393  4.0850
  986SOL     OW 2956   2.550   2.925   1.903  0.3770  0.3618  0.1947
  986SOL    HW1 2957   2.515   3.016   1.943 -2.5908  0.4242  0.9157
  986SOL    HW2 2958   2.645   2.921   1.876  0.9943  0.0096  1.5212
  987SOL     OW 2959   2.168   1.468   1.055 -0.1463  0.0821 -0.3375
  987SOL    HW1 2960   2.268   1.480   1.030  1.4696 -0.5074 -0.0526
  987SOL    HW2 2961   2.157   1.396   1.122  0.7820  1.8438 -0.2444
  988SOL     OW 2962   2.386   0.976   1.434 -0.6948 -0.0450 -0.1856
  988SOL    HW1 2963   2.430   0.947   1.522 -2.6823  0.8870 -0.6979
  988SOL    HW2 2964   2.449   1.049   1.398 -1.8240 -0.5008  0.4235
  989SOL     OW 2965   2.140   2.067   0.151 -0.3155  0.0729 -0.5642
  989SOL    HW1 2966   2.072   2.062   0.076 -1.5102  0.8304  0.9155
  989SOL    HW2 2967   2.168   1.974   0.177  1.6740  1.8662 -0.5126
  990SOL     OW 2968   1.529   0.438   2.142  0.1107 -0.0075 -0.5685
  990SOL    HW1 2969   1.500   0.502   2.216  0.4674 -1.9691  3.8379
  990SOL    HW2 2970   1.483   0.345   2.150 -1.2449 -2.3735 -3.0004
  991SOL     OW 2971   1.334   1.145   0.385  0.0639 -0.2226 -0.2150
  991SOL    HW1 2972   1.247   1.198   0.374  0.5230 -0.2704 -0.9896
  991SOL    HW2 2973   1.370   1.111   0.295  0.7271  0.6406 -2.0139
  992SOL     OW 2974   0.029   1.042   1.441  0.1884 -0.1352  1.0861
  992SOL    HW1 2975   0.085   1.099   1.500  1.3300 -0.4463 -3.3992
  992SOL    HW2 2976   3.072   1.087   1.363  1.3489  1.8743  3.3532
  993SOL     OW 2977   2.614   0.443   1.878  0.2755 -0.3407  0.0042
  993SOL    HW1 2978   2.544   0.472   1.945 -0.3287  0.1023  0.0792
  993SOL    HW2 2979   2.577   0.421   1.785 -0.6305  1.2715 -0.2848
  994SOL     OW 2980   1.479   1.833   1.837  0.0102 -0.3958  0.1358
  994SOL    HW1 2981   1.541   1.865   1.910 -0.4775 -0.1002 -1.4849
  994SOL    HW2 2982   1.400   1.893   1.822  2.0787 -0.0717 -1.1324
  995SOL     OW 2983   2.098   1.822   2.945 -0.5109 -0.0450 -0.2757
  995SOL    HW1 2984   2.034   1.810   3.021  2.0476 -1.4502  0.3360
  995SOL    HW2 2985   2.104   1.735   2.893  1.7689 -1.3069  0.3536
  996SOL     OW 2986   2.124   1.558   2.873  0.0885  0.1042  0.2856
  996SOL    HW1 2987   2.050   1.511   2.925 -0.0707  1.0299 -2.5677
  996SOL    HW2 2988   2.183   1.485   2.833 -0.4726  0.2671  2.8476
  997SOL     OW 2989   1.787   0.406   2.288  0.1651 -0.4912 -0.1998
  997SOL    HW1 2990   1.699   0.411   2.235 -1.3466 -0.7305  0.4288
  997SOL    HW2 2991   1.816   0.499   2.322  1.2281 -1.4205 -1.7937
  998SOL     OW 2992   2.433   0.604   0.632  0.3274 -0.2967  0.2259
  998SOL    HW1 2993   2.410   0.603   0.731 -0.3816 -0.5418 -0.0700
  998SOL    HW2 2994   2.356   0.555   0.580 -2.3878 -0.6151  0.7800
  999SOL     OW 2995   2.697   1.312   0.643 -0.1046 -0.2430  0.2149
  999SOL    HW1 2996   2.702   1.416   0.663 -0.6337  3.0229  2.7266
  999SOL    HW2 2997   2.756   1.285   0.564 -1.2314  0.5816  1.2229
 1000SOL     OW 2998   0.488   1.492   1.748 -0.0369 -0.3882  0.0216
 1000SOL    HW1 2999   0.540   1.411   1.775  1.3660 -1.4696  0.2237
 1000SOL    HW2 3000   0.400   1.455   1.715 -0.1073  0.1359 -2.2319
   3.08450   3.08450   3.08450
