1000 SPC/Fw water molecules t= 186.00000 step= 186000
 3000
    1SOL     OW    1   2.605   3.073   1.081 -0.2899 -0.3532  0.3566
    1SOL    HW1    2   2.551   0.059   1.099 -0.4745  2.7582 -1.2157
    1SOL    HW2    3   2.636   3.069   0.986 -1.1567  0.7782  1.4056
    2SOL     OW    4   1.758   1.665   2.028 -0.2126  0.4720 -0.0985
    2SOL    HW1    5   1.837   1.614   2.063  0.8029  1.2458  2.2203
    2SOL    HW2    6   1.765   1.765   2.043  1.2798  1.1166 -1.0645
    3SOL     OW    7   1.780   2.466   2.179 -0.6984  0.1791 -0.4373
    3SOL    HW1    8   1.795   2.555   2.131 -0.0247  3.6345 -1.1201
    3SOL    HW2    9   1.868   2.415   2.203  0.0540 -0.6449 -0.1647
    4SOL     OW   10   1.974   2.095   2.021  0.0567  0.1292  0.1767
    4SOL    HW1   11   1.981   2.164   2.095  0.6748  1.9919 -1.4112
    4SOL    HW2   12   1.994   2.138   1.935 -0.9526 -1.9555  1.3161
    5SOL     OW   13   1.042   0.637   1.881 -0.3801  0.2568 -0.7124
    5SOL    HW1   14   1.121   0.709   1.866  3.6759 -1.3019 -1.1874
    5SOL    HW2   15   0.951   0.680   1.891  1.2360 -0.7104  0.1461
    6SOL     OW   16   2.595   0.753   3.031  0.2367 -0.1023  0.1187
    6SOL    HW1   17   2.664   0.703   2.973  0.8462 -1.3581  0.9540
    6SOL    HW2   18   2.520   0.690   3.058 -0.2429  0.7083  3.1625
    7SOL     OW   19   1.143   0.908   1.648 -0.1555 -0.4338  0.1501
    7SOL    HW1   20   1.079   0.851   1.597  0.9292  0.9446  1.3384
    7SOL    HW2   21   1.222   0.936   1.593 -1.5611  3.9373 -0.2102
    8SOL     OW   22   1.342   0.152   1.082 -0.4965  0.2644  0.1463
    8SOL    HW1   23   1.366   0.182   0.987  0.1922 -0.7576 -0.2823
    8SOL    HW2   24   1.313   0.228   1.143  2.1303 -0.9323  0.3993
    9SOL     OW   25   1.018   0.888   3.072 -0.0241  0.4877  0.1308
    9SOL    HW1   26   1.015   0.969   3.009 -2.3098  0.9270  0.7955
    9SOL    HW2   27   0.932   0.879   0.030 -2.5350 -0.3955  0.4987
   10SOL     OW   28   0.164   2.841   0.283  0.3925 -0.7176 -0.1700
   10SOL    HW1   29   0.068   2.878   0.265 -5.0361  2.7308 -1.6952
   10SOL    HW2   30   0.178   2.747   0.251  0.5187  0.3480  0.0792
   11SOL     OW   31   0.501   1.459   3.055  0.3138 -0.1244 -0.1827
   11SOL    HW1   32   0.469   1.447   2.959 -2.5758 -0.0778  0.1223
   11SOL    HW2   33   0.429   1.519   0.003  0.7589  0.3414  0.0520
   12SOL     OW   34   0.381   0.067   1.472  0.4256  0.3651 -0.2352
   12SOL    HW1   35   0.384   3.067   1.486  0.6940  1.5564  1.7156
   12SOL    HW2   36   0.401   0.109   1.560  0.0824 -3.0984 -0.6950
   13SOL     OW   37   0.835   2.901   0.544 -0.0241 -0.3944  0.4749
   13SOL    HW1   38   0.924   2.916   0.591 -0.3836 -3.2200 -0.7807
   13SOL    HW2   39   0.786   2.823   0.586  0.4495 -1.5580  0.2120
   14SOL     OW   40   1.236   2.232   1.338  0.0913 -0.0356  0.1792
   14SOL    HW1   41   1.142   2.257   1.375 -1.2796 -0.8973 -0.6517
   14SOL    HW2   42   1.239   2.131   1.322  1.5973 -2.4639  1.8240
   15SOL     OW   43   2.880   0.545   2.014 -0.4275  0.0399 -0.6924
   15SOL    HW1   44   2.881   0.488   2.100  0.9753  0.0198 -2.9136
   15SOL    HW2   45   2.941   0.508   1.941 -0.3700 -1.9821  0.2930
   16SOL     OW   46   1.141   2.779   2.694 -0.1648 -0.3815 -0.0028
   16SOL    HW1   47   1.195   2.754   2.610 -2.1216 -0.7232  1.8782
   16SOL    HW2   48   1.197   2.835   2.763  1.1057  0.6722  2.9418
   17SOL     OW   49   1.105   3.071   1.262  0.0915 -0.0427  0.2402
   17SOL    HW1   50   1.013   3.040   1.299 -2.7885  1.9368 -0.6325
   17SOL    HW2   51   1.172   0.010   1.329  2.1002 -1.3429  0.0003
   18SOL     OW   52   1.067   0.714   0.430 -0.3791  0.3442 -0.7601
   18SOL    HW1   53   0.961   0.701   0.439 -4.1961  0.2353  1.7321
   18SOL    HW2   54   1.108   0.634   0.376  2.5375 -0.6434 -1.2262
   19SOL     OW   55   2.152   1.397   2.686  0.1373 -0.4276 -0.5819
   19SOL    HW1   56   2.132   1.498   2.668 -0.6795  1.8739  0.0025
   19SOL    HW2   57   2.164   1.377   2.783 -0.8688  1.8455 -1.7823
   20SOL     OW   58   1.780   1.703   1.639  0.1014 -0.0273 -0.4928
   20SOL    HW1   59   1.834   1.784   1.646  0.6070 -1.8337  2.2443
   20SOL    HW2   60   1.704   1.706   1.706  1.2800 -1.6617 -0.4185
   21SOL     OW   61   0.604   1.451   2.783  0.7264  0.6589 -0.0452
   21SOL    HW1   62   0.550   1.535   2.811 -1.2173 -0.9150 -0.0566
   21SOL    HW2   63   0.644   1.460   2.690 -1.2445 -0.1710  2.7285
   22SOL     OW   64   2.355   3.047   1.352 -0.0572 -0.1131 -0.1011
   22SOL    HW1   65   2.253   3.059   1.380 -2.6165  0.8988  0.8309
   22SOL    HW2   66   2.385   0.028   1.297  0.9464 -1.9004  0.0427
   23SOL     OW   67   3.000   0.868   1.512  0.5135 -0.0717 -0.0416
   23SOL    HW1   68   3.086   0.829   1.535 -3.3378 -0.7107 -2.7665
   23SOL    HW2   69   3.005   0.925   1.428  3.2425  0.6105  0.2519
   24SOL     OW   70   2.603   2.235   1.318  0.5677  0.1027  0.2199
   24SOL    HW1   71   2.656   2.288   1.250 -2.3224  1.5890  0.1053
   24SOL    HW2   72   2.510   2.205   1.279  0.1767 -0.8554 -0.9537
   25SOL     OW   73   1.918   2.937   2.659  0.0551  0.6537  0.3898
   25SOL    HW1   74   1.927   2.937   2.559  0.7651  2.7258  0.7208
   25SOL    HW2   75   1.868   2.856   2.692 -0.3881  0.4106  1.1285
   26SOL     OW   76   1.215   2.825   0.063  0.6058  0.5936 -0.2704
   26SOL    HW1   77   1.198   2.721   0.061  3.7177 -0.1710  0.9636
   26SOL    HW2   78   1.298   2.846   0.121 -3.3663  0.3108  0.1486
   27SOL     OW   79   0.703   2.313   2.826  0.2274 -0.6636 -0.4957
   27SOL    HW1   80   0.693   2.348   2.920 -0.6999 -0.6123 -1.6346
   27SOL    HW2   81   0.617   2.300   2.783  4.4573  1.3339  1.3683
   28SOL     OW   82   3.026   1.591   1.284  0.2657  0.2130 -0.4981
   28SOL    HW1   83   3.043   1.652   1.372  0.2590 -0.2705  1.8479
   28SOL    HW2   84   3.083   1.616   1.205 -0.5324 -1.6968 -1.6146
   29SOL     OW   85   2.586   2.137   2.165  0.2430  0.1326  0.7668
   29SOL    HW1   86   2.581   2.051   2.114 -1.0965  1.3270  0.6008
   29SOL    HW2   87   2.559   2.126   2.258 -0.6169 -1.1316 -2.9177
   30SOL     OW   88   1.327   2.836   0.759 -0.1319  0.3858 -0.1180
   30SOL    HW1   89   1.310   2.737   0.773 -1.8489  0.7547 -1.0903
   30SOL    HW2   90   1.323   2.885   0.855 -1.1264  2.0031  3.2725
   31SOL     OW   91   0.065   2.217   1.730 -0.1615 -0.4444 -0.1032
   31SOL    HW1   92   0.092   2.310   1.770  0.1301  1.7693  0.6218
   31SOL    HW2   93   0.130   2.145   1.763 -1.2648 -0.0601 -1.2773
   32SOL     OW   94   1.263   0.839   1.872 -0.4311  0.5158  0.2157
   32SOL    HW1   95   1.229   0.857   1.778  0.2080 -4.4917  0.2306
   32SOL    HW2   96   1.259   0.917   1.938  2.1936 -0.6385 -1.4011
   33SOL     OW   97   0.306   2.706   2.437 -0.0640 -0.1666  0.1162
   33SOL    HW1   98   0.228   2.654   2.465  1.2780  0.7161  1.4015
   33SOL    HW2   99   0.308   2.729   2.338  0.9938  1.0859 -3.2975
   34SOL     OW  100   2.024   0.070   0.858 -0.3931  0.1948  0.1422
   34SOL    HW1  101   2.023   0.019   0.772  0.0455  1.7391 -0.2959
   34SOL    HW2  102   1.930   0.078   0.900  1.6374 -0.3147 -1.6605
   35SOL     OW  103   2.339   0.765   1.466  0.1072 -0.4058  0.2341
   35SOL    HW1  104   2.275   0.843   1.429 -0.1787  1.0372 -0.2007
   35SOL    HW2  105   2.422   0.798   1.519  1.1594  1.6902  0.9731
   36SOL     OW  106   2.288   2.577   2.084  0.2722 -0.8151  0.0210
   36SOL    HW1  107   2.258   2.512   2.011  0.8378 -2.7513  1.1696
   36SOL    HW2  108   2.206   2.606   2.138 -3.0691  1.4350  1.4630
   37SOL     OW  109   0.881   2.357   2.229 -0.4198 -0.2921  0.1379
   37SOL    HW1  110   0.926   2.350   2.137  2.8077 -0.3136 -1.4347
   37SOL    HW2  111   0.944   2.404   2.292 -0.7291  1.2026  0.1433
   38SOL     OW  112   2.500   0.268   2.988 -0.3244  0.1953 -0.1381
   38SOL    HW1  113   2.593   0.278   3.032  1.0389  0.3021 -2.8165
   38SOL    HW2  114   2.428   0.291   3.056 -0.8028  1.3914 -0.0158
   39SOL     OW  115   1.999   1.587   1.741  0.3343  0.2035  0.3406
   39SOL    HW1  116   1.901   1.615   1.731  1.3484  2.7839 -1.2295
   39SOL    HW2  117   2.015   1.486   1.734  0.1256  0.7120  0.0574
   40SOL     OW  118   0.146   0.063   2.642 -0.0819  0.6473 -0.0254
   40SOL    HW1  119   0.069   0.064   2.575  0.0393  2.2480 -1.8166
   40SOL    HW2  120   0.208   3.083   2.627  0.9703  2.9739 -0.2769
   41SOL     OW  121   1.739   0.434   1.219 -0.4469  0.1053 -0.1047
   41SOL    HW1  122   1.752   0.536   1.239 -3.0006  1.0177  0.3634
   41SOL    HW2  123   1.716   0.411   1.122  2.7422 -0.0837 -1.4903
   42SOL     OW  124   0.806   3.064   1.313  0.1478 -0.2232  0.0792
   42SOL    HW1  125   0.749   0.033   1.366  0.0544  2.3330  1.4247
   42SOL    HW2  126   0.742   3.021   1.246 -1.5924  1.3197 -1.6967
   43SOL     OW  127   2.510   1.007   2.147  0.1356 -0.6351  0.4790
   43SOL    HW1  128   2.463   0.971   2.063 -3.1545 -1.8970  1.3334
   43SOL    HW2  129   2.607   0.991   2.142 -0.2001  1.2939  0.7724
   44SOL     OW  130   2.996   2.930   0.263 -0.1125  0.1138 -0.3515
   44SOL    HW1  131   2.962   2.945   0.355 -0.3022 -0.4329 -2.3701
   44SOL    HW2  132   2.935   2.983   0.198  1.6517  0.6889  3.6653
   45SOL     OW  133   0.183   2.523   2.073 -0.0629  0.2033  0.1114
   45SOL    HW1  134   0.237   2.597   2.114 -1.4180  0.7719 -0.0501
   45SOL    HW2  135   0.211   2.505   1.978  0.3857  1.0291  2.6544
   46SOL     OW  136   2.174   2.382   1.947  0.0165  0.8719  0.3822
   46SOL    HW1  137   2.231   2.295   1.949  0.6771 -0.2799  2.3000
   46SOL    HW2  138   2.161   2.400   1.846 -1.7412  1.6003 -4.5400
   47SOL     OW  139   1.466   1.973   1.048 -0.1060  0.2933  0.1987
   47SOL    HW1  140   1.429   2.064   1.074  3.4315  0.5142  0.3739
   47SOL    HW2  141   1.563   1.966   1.082  0.1942 -1.3546 -0.8884
   48SOL     OW  142   0.652   1.675   0.636  0.2542  0.3173  0.0070
   48SOL    HW1  143   0.656   1.718   0.545  0.8873 -1.8611 -0.9450
   48SOL    HW2  144   0.695   1.730   0.713  0.0485  0.2429  0.2552
   49SOL     OW  145   2.826   0.446   2.666 -0.6120  0.3414 -0.0055
   49SOL    HW1  146   2.861   0.378   2.733  0.4417  1.4845  0.7312
   49SOL    HW2  147   2.731   0.421   2.637 -0.3540  0.5230  0.1644
   50SOL     OW  148   2.282   0.933   0.804  0.4071 -0.1193  0.0941
   50SOL    HW1  149   2.200   0.944   0.751  0.1979  1.1576  1.0319
   50SOL    HW2  150   2.329   1.021   0.817  0.8219  0.3110  0.1571
   51SOL     OW  151   1.592   0.164   0.855 -0.1087 -0.1785  0.3312
   51SOL    HW1  152   1.586   0.064   0.875  1.0788  0.0784 -0.1335
   51SOL    HW2  153   1.504   0.191   0.815 -0.3694 -1.9393  0.3454
   52SOL     OW  154   1.334   1.228   0.109 -0.4164  0.5590  0.1843
   52SOL    HW1  155   1.376   1.140   0.154  2.8236 -1.4691 -1.9287
   52SOL    HW2  156   1.390   1.314   0.117 -0.2565 -1.7715 -0.8424
   53SOL     OW  157   0.843   1.594   2.622  0.4408 -0.1182  0.5390
   53SOL    HW1  158   0.840   1.695   2.641  2.3526 -1.2550 -0.1070
   53SOL    HW2  159   0.758   1.554   2.588  4.0497  2.4231  0.3207
   54SOL     OW  160   2.155   0.426   1.151 -0.3021 -0.7218 -0.2409
   54SOL    HW1  161   2.225   0.488   1.186 -0.6036 -0.2297 -1.5558
   54SOL    HW2  162   2.125   0.359   1.221 -0.3978 -0.9770 -1.9094
   55SOL     OW  163   2.397   2.798   0.813  0.7496 -0.3332  0.5117
   55SOL    HW1  164   2.460   2.877   0.803 -2.3566 -2.6417  0.7973
   55SOL    HW2  165   2.346   2.772   0.726 -0.0352 -0.1865  1.2041
   56SOL     OW  166   0.399   2.832   1.476  0.1486  0.2721  0.1040
   56SOL    HW1  167   0.346   2.747   1.464  2.9275 -2.9952 -0.0329
   56SOL    HW2  168   0.479   2.810   1.534  0.9422 -0.4376 -0.0182
   57SOL     OW  169   1.641   1.188   0.663 -0.4086  0.0242  0.4347
   57SOL    HW1  170   1.553   1.154   0.620 -1.5800 -1.7740  0.7867
   57SOL    HW2  171   1.681   1.263   0.611  0.1768 -0.8945  2.5923
   58SOL     OW  172   0.104   0.887   2.247  0.2528  0.3326  0.2348
   58SOL    HW1  173   0.072   0.935   2.162  2.0886  1.5048  2.5580
   58SOL    HW2  174   0.045   0.810   2.271  0.3982  0.3761  2.3591
   59SOL     OW  175   0.966   2.737   2.340 -0.2784 -0.1064  0.0906
   59SOL    HW1  176   0.997   2.641   2.367 -1.8939  1.8708 -0.8519
   59SOL    HW2  177   0.916   2.773   2.420  2.8382 -1.8220 -1.9137
   60SOL     OW  178   2.518   2.579   0.995  0.5510  0.0043  0.2635
   60SOL    HW1  179   2.465   2.626   0.927  2.4219 -1.9707  1.6691
   60SOL    HW2  180   2.537   2.641   1.076 -0.5069 -0.1814 -1.4299
   61SOL     OW  181   1.056   2.240   0.549  0.1379  0.9492 -0.2502
   61SOL    HW1  182   1.011   2.332   0.545 -0.9645  1.5982  0.5151
   61SOL    HW2  183   0.985   2.165   0.548  1.2179 -3.6624 -0.3474
   62SOL     OW  184   2.099   2.444   2.667  0.1024 -0.4446  0.1667
   62SOL    HW1  185   2.180   2.429   2.725 -0.4194 -0.4679 -4.5291
   62SOL    HW2  186   2.119   2.527   2.606 -0.5898  1.5551 -3.6724
   63SOL     OW  187   2.158   0.676   3.042  0.5179  0.1896  0.0854
   63SOL    HW1  188   2.122   0.744   0.013 -1.7011 -0.8361  0.8283
   63SOL    HW2  189   2.112   0.692   2.953  2.5826 -0.8617  1.2199
   64SOL     OW  190   0.914   0.584   0.077  0.5598 -0.0975 -0.6493
   64SOL    HW1  191   0.996   0.562   0.023 -1.5364 -0.8697  0.2737
   64SOL    HW2  192   0.924   0.667   0.134  1.2361  1.0947  0.4551
   65SOL     OW  193   1.196   2.190   0.292 -0.2961 -0.1407  0.3423
   65SOL    HW1  194   1.151   2.257   0.345 -0.0876 -3.1194 -1.1049
   65SOL    HW2  195   1.128   2.160   0.224 -1.3641  2.8952 -0.7162
   66SOL     OW  196   0.851   1.244   1.608 -0.2314 -0.6764  0.1012
   66SOL    HW1  197   0.896   1.169   1.661 -2.5999  0.4160 -1.8905
   66SOL    HW2  198   0.839   1.325   1.672  1.3503  0.8233  0.4246
   67SOL     OW  199   2.336   2.844   2.557  0.2597  0.1090 -0.0797
   67SOL    HW1  200   2.321   2.857   2.657 -0.4809 -0.4152  0.1332
   67SOL    HW2  201   2.289   2.920   2.505 -2.6658 -0.6652  0.7562
   68SOL     OW  202   0.649   1.423   1.242 -0.2225  0.5606 -0.1684
   68SOL    HW1  203   0.698   1.451   1.328 -0.0650 -1.8565  1.3714
   68SOL    HW2  204   0.701   1.353   1.193 -1.0459  1.5019  1.6381
   69SOL     OW  205   1.450   2.406   0.168 -0.7516 -0.4206  0.3795
   69SOL    HW1  206   1.461   2.336   0.235 -1.5988 -0.2337 -0.4333
   69SOL    HW2  207   1.432   2.497   0.205  0.4197 -1.5332  1.1146
   70SOL     OW  208   2.960   1.162   2.736 -0.3766  0.4421  0.2577
   70SOL    HW1  209   2.945   1.188   2.639  2.6696  0.3391 -0.1734
   70SOL    HW2  210   2.884   1.121   2.791 -2.4347 -0.5921 -0.9660
   71SOL     OW  211   2.904   1.626   2.705  0.5693 -0.3806  0.5463
   71SOL    HW1  212   2.993   1.670   2.713  2.1550  2.3789 -2.0753
   71SOL    HW2  213   2.876   1.598   2.798  1.7839 -0.0165 -0.4509
   72SOL     OW  214   2.815   2.415   0.329 -0.0594 -0.1313  0.6667
   72SOL    HW1  215   2.866   2.496   0.305 -2.7290  0.4742  2.5784
   72SOL    HW2  216   2.716   2.437   0.325 -0.8847 -0.9251 -1.3069
   73SOL     OW  217   0.698   1.677   0.323 -0.2845 -0.5969 -0.3617
   73SOL    HW1  218   0.775   1.740   0.357  3.8730  0.3610  3.0014
   73SOL    HW2  219   0.723   1.628   0.236  0.9274  0.5688  1.3569
   74SOL     OW  220   3.029   1.317   2.953  0.1970 -0.6151  0.1133
   74SOL    HW1  221   3.014   1.276   3.043  2.2214  2.8245 -0.1531
   74SOL    HW2  222   3.009   1.256   2.877 -0.2641 -1.6534  0.5506
   75SOL     OW  223   1.641   1.403   1.975 -0.1552 -0.1506 -0.8956
   75SOL    HW1  224   1.627   1.369   2.072 -1.1692 -1.0251  1.4685
   75SOL    HW2  225   1.668   1.499   1.978 -0.7987 -0.3873 -0.7883
   76SOL     OW  226   1.948   2.260   1.523 -0.5238  0.2991  0.5750
   76SOL    HW1  227   1.919   2.214   1.605  1.2995  1.7019  0.0803
   76SOL    HW2  228   1.868   2.298   1.470 -0.2193 -0.3757 -1.1952
   77SOL     OW  229   2.655   1.034   1.222  0.2702 -0.2876 -0.5383
   77SOL    HW1  230   2.675   0.944   1.270 -0.8314 -1.7451  2.0756
   77SOL    HW2  231   2.610   1.004   1.134  2.1379 -0.2853 -1.0022
   78SOL     OW  232   1.484   0.887   0.535  0.3157 -0.3824 -0.1732
   78SOL    HW1  233   1.480   0.985   0.562  0.0953 -2.4848  0.2563
   78SOL    HW2  234   1.568   0.845   0.571 -2.8750 -1.2377  0.6304
   79SOL     OW  235   0.242   1.756   1.803 -0.2167 -0.2373  0.9551
   79SOL    HW1  236   0.292   1.666   1.800 -0.2211  1.2336  0.7903
   79SOL    HW2  237   0.245   1.809   1.719 -1.1518  0.9179  0.2423
   80SOL     OW  238   1.595   1.094   1.583  0.5229  0.1100 -0.0512
   80SOL    HW1  239   1.651   1.039   1.647 -0.5018  0.0693 -1.3129
   80SOL    HW2  240   1.627   1.091   1.491 -0.3325  1.4085 -0.0215
   81SOL     OW  241   0.667   0.112   0.869 -0.1771 -0.3234 -0.1843
   81SOL    HW1  242   0.586   0.057   0.864 -0.6316  1.1568 -0.9685
   81SOL    HW2  243   0.704   0.116   0.776 -1.9688 -2.5294  0.9193
   82SOL     OW  244   1.699   2.591   1.584  0.1310  0.1544  0.2114
   82SOL    HW1  245   1.724   2.543   1.496 -0.6257 -0.7463 -3.8779
   82SOL    HW2  246   1.771   2.578   1.657 -0.7768 -1.2601  1.7094
   83SOL     OW  247   0.651   2.180   1.093 -0.2111  0.4060 -0.0874
   83SOL    HW1  248   0.569   2.126   1.066 -1.1047 -0.6087  2.3334
   83SOL    HW2  249   0.727   2.111   1.089  0.8593 -0.2187 -0.3275
   84SOL     OW  250   0.254   1.324   2.557  0.7199 -0.1836 -0.3284
   84SOL    HW1  251   0.194   1.243   2.541  0.6881 -0.6550 -1.5730
   84SOL    HW2  252   0.260   1.386   2.472 -1.3679  1.1594 -2.7432
   85SOL     OW  253   0.220   2.245   1.405  0.0582  0.3141 -0.2435
   85SOL    HW1  254   0.139   2.212   1.456  1.5254 -1.2831  1.0676
   85SOL    HW2  255   0.232   2.345   1.419 -0.2637 -1.3718  0.0178
   86SOL     OW  256   2.530   2.412   1.524 -0.3476  0.2099  0.0736
   86SOL    HW1  257   2.586   2.448   1.600 -1.3170 -1.3736 -2.3719
   86SOL    HW2  258   2.590   2.355   1.467 -2.5203 -2.3614 -2.5453
   87SOL     OW  259   2.706   2.264   3.079  0.0571 -0.5743 -0.1277
   87SOL    HW1  260   2.688   2.193   0.054 -1.4832 -3.2996 -0.1888
   87SOL    HW2  261   2.785   2.229   3.017  2.5150  0.2806 -2.0150
   88SOL     OW  262   0.577   1.680   1.116 -0.2159  0.3025  0.4820
   88SOL    HW1  263   0.635   1.590   1.134  0.0294  0.1410 -1.1508
   88SOL    HW2  264   0.478   1.664   1.150 -1.9849 -0.8257  0.4576
   89SOL     OW  265   1.138   2.778   1.779  0.3065  0.0599  0.9506
   89SOL    HW1  266   1.191   2.731   1.709 -0.7795  1.0486  2.9207
   89SOL    HW2  267   1.142   2.879   1.760 -0.4152 -0.1264  0.5384
   90SOL     OW  268   3.096   1.778   1.483  0.0878  0.2197 -0.0823
   90SOL    HW1  269   3.024   1.740   1.550 -2.1715 -0.9628  0.7561
   90SOL    HW2  270   0.069   1.831   1.533  1.2903  0.0753 -0.1100
   91SOL     OW  271   1.231   2.067   0.663  0.0516 -0.6387  0.6404
   91SOL    HW1  272   1.171   1.987   0.678 -1.0952 -1.6705 -0.6667
   91SOL    HW2  273   1.197   2.139   0.601 -0.6486 -0.7145  0.6980
   92SOL     OW  274   2.425   2.775   1.349 -0.1287  0.5911 -0.0164
   92SOL    HW1  275   2.483   2.754   1.433  1.1436 -0.3777  0.7862
   92SOL    HW2  276   2.393   2.873   1.352 -3.2370  2.3924 -0.0914
   93SOL     OW  277   2.591   1.381   2.682  0.4768 -0.2162 -0.4924
   93SOL    HW1  278   2.505   1.434   2.691  0.6980  0.0327 -0.4387
   93SOL    HW2  279   2.646   1.419   2.603 -0.5331  0.6754  0.3509
   94SOL     OW  280   2.821   2.772   2.393 -0.3002  0.2477 -0.0643
   94SOL    HW1  281   2.820   2.739   2.290  2.1478  3.0146 -3.2798
   94SOL    HW2  282   2.727   2.771   2.434 -0.5069 -1.5770 -0.0353
   95SOL     OW  283   1.797   0.346   1.653  0.2427  0.1329 -0.1918
   95SOL    HW1  284   1.820   0.313   1.561 -1.0210  1.7555  2.0012
   95SOL    HW2  285   1.696   0.323   1.678 -1.3443 -1.5117 -1.9683
   96SOL     OW  286   0.029   2.883   1.506  0.4247 -0.7054 -0.3552
   96SOL    HW1  287   0.080   2.915   1.424 -1.6726 -1.6462  1.2120
   96SOL    HW2  288   3.028   2.895   1.494 -0.4272  0.6007  0.3396
   97SOL     OW  289   2.300   0.308   1.515 -0.4237 -0.0640 -0.1116
   97SOL    HW1  290   2.384   0.366   1.511  1.0081  0.1910  0.9807
   97SOL    HW2  291   2.290   0.272   1.611 -0.0475  2.2984 -2.0813
   98SOL     OW  292   1.333   2.284   1.593  0.2612  0.4039  0.2779
   98SOL    HW1  293   1.369   2.373   1.624  0.1525  0.6163 -1.2723
   98SOL    HW2  294   1.328   2.283   1.492  1.1084 -0.2409 -1.3736
   99SOL     OW  295   0.072   2.886   1.900  0.6464 -0.5336  0.0577
   99SOL    HW1  296   0.161   2.841   1.881  0.1007 -1.1748  0.2064
   99SOL    HW2  297   0.070   2.928   1.994 -1.8586 -3.8424 -2.3412
  100SOL     OW  298   2.993   1.230   2.196 -0.5496  0.3837  0.2234
  100SOL    HW1  299   2.999   1.288   2.112  0.3468 -1.0646  0.4404
  100SOL    HW2  300   2.910   1.262   2.246  0.8786 -0.2604 -1.7737
  101SOL     OW  301   2.195   0.838   0.397 -0.4603 -0.0696 -0.0231
  101SOL    HW1  302   2.268   0.765   0.402 -0.3744  0.2683 -0.1708
  101SOL    HW2  303   2.232   0.928   0.425 -0.8745  0.6564 -2.0782
  102SOL     OW  304   0.238   0.671   1.140 -0.6375  0.0696 -0.2073
  102SOL    HW1  305   0.177   0.673   1.055  1.6149 -3.1023 -0.8868
  102SOL    HW2  306   0.232   0.746   1.210  1.3806 -0.5154  1.8175
  103SOL     OW  307   2.298   0.714   2.749 -0.0893 -0.2616  0.4506
  103SOL    HW1  308   2.326   0.616   2.771 -0.3551 -1.4360 -0.5396
  103SOL    HW2  309   2.346   0.782   2.811  1.6338  2.0431 -1.1584
  104SOL     OW  310   0.281   0.299   2.420 -0.3900 -0.5049  0.2331
  104SOL    HW1  311   0.270   0.377   2.352  1.0653  0.1722 -2.7915
  104SOL    HW2  312   0.353   0.313   2.487 -0.2327  1.2671 -1.6906
  105SOL     OW  313   2.050   1.028   1.618  0.4221  0.1630  0.5542
  105SOL    HW1  314   1.993   0.944   1.628  1.2190 -1.9956  1.0551
  105SOL    HW2  315   2.004   1.106   1.667 -2.9069  1.0174 -1.6412
  106SOL     OW  316   1.068   2.968   0.688 -0.1494 -0.1530 -0.4007
  106SOL    HW1  317   1.090   3.058   0.646  1.1426 -0.9220  2.3923
  106SOL    HW2  318   1.152   2.930   0.731 -1.6292 -1.1569 -0.0785
  107SOL     OW  319   0.294   1.659   1.141 -0.0885 -0.2191  0.0664
  107SOL    HW1  320   0.221   1.711   1.086 -0.1204  1.2654  0.2588
  107SOL    HW2  321   0.285   1.557   1.127 -4.5751 -2.8279  0.1161
  108SOL     OW  322   0.315   0.021   2.377  0.4351  0.1828 -0.0001
  108SOL    HW1  323   0.327   3.063   2.461  1.1889 -2.3021  0.3660
  108SOL    HW2  324   0.277   0.113   2.395  1.7931  0.6227 -0.1085
  109SOL     OW  325   2.324   0.123   0.567 -0.0031  0.1241 -0.1957
  109SOL    HW1  326   2.274   0.085   0.488  0.8286 -0.4053  3.5608
  109SOL    HW2  327   2.377   0.205   0.551 -0.4892  0.4149  0.0935
  110SOL     OW  328   0.301   2.103   2.534 -0.1125  0.5467  0.4277
  110SOL    HW1  329   0.347   2.106   2.443  0.4908  1.0668  0.2046
  110SOL    HW2  330   0.316   2.193   2.585 -0.3085  1.2239  2.2854
  111SOL     OW  331   1.571   3.020   2.272 -0.2416  0.6542 -0.4526
  111SOL    HW1  332   1.567   2.942   2.207  0.4512  1.2145  0.7305
  111SOL    HW2  333   1.651   3.076   2.239  1.7356 -0.9604  0.2256
  112SOL     OW  334   1.915   2.333   2.841  0.3539  0.0979 -0.1997
  112SOL    HW1  335   1.882   2.244   2.802 -1.1096  0.7231  1.4923
  112SOL    HW2  336   1.982   2.376   2.777 -1.3619  0.5157 -1.1276
  113SOL     OW  337   2.553   2.325   1.897 -0.0100  0.2015 -0.3802
  113SOL    HW1  338   2.528   2.303   1.992 -1.8312  1.7412 -1.7151
  113SOL    HW2  339   2.604   2.253   1.850 -0.2669  0.2256 -1.3852
  114SOL     OW  340   2.530   0.904   1.010  0.4642 -0.0445 -0.5586
  114SOL    HW1  341   2.439   0.884   1.062 -2.5165 -0.5316 -0.6880
  114SOL    HW2  342   2.510   0.964   0.929  0.7207  2.7380 -0.6617
  115SOL     OW  343   0.027   1.771   2.712  0.3808 -0.0139  0.0660
  115SOL    HW1  344   0.071   1.718   2.640  1.9394 -0.7530  0.4447
  115SOL    HW2  345   0.076   1.860   2.721 -1.0650 -1.4206  0.8079
  116SOL     OW  346   0.143   1.430   2.279  0.6490 -0.3839  0.4819
  116SOL    HW1  347   0.106   1.336   2.262 -0.6454 -1.0005 -2.4785
  116SOL    HW2  348   0.227   1.441   2.226  0.5236 -1.4525  1.6352
  117SOL     OW  349   2.658   0.271   0.878  0.0781 -0.5035  0.1883
  117SOL    HW1  350   2.747   0.221   0.864 -0.8045  0.5703 -1.2139
  117SOL    HW2  351   2.612   0.291   0.790 -1.8810  0.6957 -0.2995
  118SOL     OW  352   0.739   2.116   1.620 -0.2860 -0.3406  0.5039
  118SOL    HW1  353   0.810   2.045   1.632  0.2010 -0.4618 -1.0192
  118SOL    HW2  354   0.717   2.140   1.521 -0.7558  0.5908  0.1703
  119SOL     OW  355   1.680   2.213   0.223  0.2028 -0.2076  0.2979
  119SOL    HW1  356   1.707   2.250   0.132 -0.9643 -1.6993 -0.6035
  119SOL    HW2  357   1.762   2.165   0.263 -0.1344 -2.9617 -0.2931
  120SOL     OW  358   0.438   1.620   2.429 -0.0951  0.2196  0.2994
  120SOL    HW1  359   0.348   1.655   2.463  2.6903 -1.1322 -0.4380
  120SOL    HW2  360   0.466   1.670   2.342 -1.3605  1.0828 -1.7090
  121SOL     OW  361   2.032   2.301   1.141  0.4223  0.2078  0.3658
  121SOL    HW1  362   2.093   2.284   1.221  0.1030 -1.0070 -1.7204
  121SOL    HW2  363   2.091   2.318   1.058  0.1742  1.0797 -1.2061
  122SOL     OW  364   2.272   2.147   2.031 -0.6913 -0.8072 -0.3906
  122SOL    HW1  365   2.182   2.118   2.066 -0.0778  2.5325 -3.0120
  122SOL    HW2  366   2.344   2.092   2.067 -0.9254  3.3130  0.6006
  123SOL     OW  367   2.876   0.154   0.779  0.1887  0.3248  0.7376
  123SOL    HW1  368   2.939   0.169   0.863  3.2580  0.1219  1.5995
  123SOL    HW2  369   2.823   0.069   0.783  1.0705  3.8639  0.9482
  124SOL     OW  370   1.709   0.509   2.552  0.2927  0.3324  0.2479
  124SOL    HW1  371   1.717   0.487   2.452  2.1583 -4.4953  1.4647
  124SOL    HW2  372   1.639   0.452   2.596  1.0881 -0.6656 -0.4984
  125SOL     OW  373   0.545   1.255   0.129  0.0612  0.4354  0.1572
  125SOL    HW1  374   0.511   1.324   0.060 -1.7997  0.7093 -0.5052
  125SOL    HW2  375   0.477   1.180   0.132 -0.5219  2.0423  0.7182
  126SOL     OW  376   2.555   2.126   0.191 -0.3468  0.3353  0.0949
  126SOL    HW1  377   2.619   2.111   0.270  0.9468 -1.2237 -0.6916
  126SOL    HW2  378   2.494   2.210   0.198 -1.6199  0.8273  1.4022
  127SOL     OW  379   0.154   1.850   1.017  0.1603  0.0776  0.0511
  127SOL    HW1  380   0.207   1.936   1.010 -2.3457 -1.6215  1.2210
  127SOL    HW2  381   0.058   1.856   0.989  0.9175  0.0869 -0.4131
  128SOL     OW  382   0.670   0.600   3.072 -0.4359 -0.4209 -0.1749
  128SOL    HW1  383   0.761   0.604   0.016 -1.8703  0.4654  0.2701
  128SOL    HW2  384   0.620   0.689   3.095  2.4135 -2.5383  2.7542
  129SOL     OW  385   2.353   1.595   0.972  0.0454 -0.3653  0.4099
  129SOL    HW1  386   2.286   1.602   1.045  2.3466  2.4653 -0.4575
  129SOL    HW2  387   2.380   1.693   0.944  0.2961 -0.3207 -0.1902
  130SOL     OW  388   2.338   1.897   1.163  0.3129  0.0166 -0.0786
  130SOL    HW1  389   2.275   1.892   1.083  2.5720 -1.2609 -2.1710
  130SOL    HW2  390   2.305   1.847   1.249 -2.5419  2.0139  2.8802
  131SOL     OW  391   2.817   0.920   3.038  0.4250 -0.0670  0.8135
  131SOL    HW1  392   2.737   0.864   3.069  0.2447 -0.8306 -0.0517
  131SOL    HW2  393   2.889   0.873   2.980  3.3792  0.1006  0.1825
  132SOL     OW  394   2.662   2.087   1.801  0.3401  0.4601  0.3003
  132SOL    HW1  395   2.768   2.079   1.793  3.2861  2.4387  0.6470
  132SOL    HW2  396   2.630   2.025   1.878 -1.6333 -2.3381  3.2175
  133SOL     OW  397   0.022   1.235   0.663 -0.0577  0.0451  0.2359
  133SOL    HW1  398   0.099   1.207   0.609 -2.5206  0.7594 -0.6294
  133SOL    HW2  399   0.052   1.296   0.741  1.3222  3.2099 -0.3002
  134SOL     OW  400   0.339   1.058   0.106 -0.0464 -0.1951  0.3221
  134SOL    HW1  401   0.335   0.965   0.139  0.6585  1.9160  1.0087
  134SOL    HW2  402   0.323   1.058   0.005  1.9512 -1.1963 -0.9038
  135SOL     OW  403   2.032   1.318   1.235 -0.3226 -0.2102 -0.3098
  135SOL    HW1  404   1.966   1.312   1.314  1.5760 -1.0025  0.1870
  135SOL    HW2  405   1.993   1.266   1.162  1.8539 -1.5969  1.0021
  136SOL     OW  406   1.926   1.114   1.054 -0.5148 -0.1058  0.3452
  136SOL    HW1  407   1.974   1.049   1.117 -0.4604 -1.4976 -1.5556
  136SOL    HW2  408   1.854   1.065   0.998 -0.3277  1.0570  0.5494
  137SOL     OW  409   2.451   1.823   0.833 -0.2304  0.1873  0.5768
  137SOL    HW1  410   2.521   1.775   0.773 -3.1115 -0.7273 -0.9002
  137SOL    HW2  411   2.489   1.900   0.888 -2.3725  0.9045  0.8785
  138SOL     OW  412   1.661   0.602   1.931 -0.3042 -0.1705 -0.0635
  138SOL    HW1  413   1.625   0.606   2.024  0.9658 -1.6431 -1.2324
  138SOL    HW2  414   1.762   0.597   1.931  2.3023  1.5471 -1.1405
  139SOL     OW  415   2.237   0.095   0.018 -0.5113  0.2662  0.1550
  139SOL    HW1  416   2.213   0.076   3.019 -4.0543  0.1946  0.1264
  139SOL    HW2  417   2.214   0.191   0.046  0.2945  0.7557 -1.2441
  140SOL     OW  418   1.602   2.234   2.487  0.4969 -0.0079 -0.2357
  140SOL    HW1  419   1.558   2.244   2.577 -0.5464 -1.8563  1.9128
  140SOL    HW2  420   1.703   2.233   2.487 -0.8916  2.3560 -0.2909
  141SOL     OW  421   1.693   1.542   1.438  0.4722 -0.0538 -0.2177
  141SOL    HW1  422   1.738   1.606   1.501  1.0577 -1.0670 -0.7339
  141SOL    HW2  423   1.596   1.533   1.469 -0.3934  2.9959  1.9566
  142SOL     OW  424   2.734   0.200   0.044 -0.2905  0.1494  0.3473
  142SOL    HW1  425   2.822   0.189   0.091  1.3457 -1.7229 -1.5228
  142SOL    HW2  426   2.669   0.152   0.105  0.3059  1.5074 -1.8797
  143SOL     OW  427   0.386   2.525   2.795  0.4354 -0.0835  0.0924
  143SOL    HW1  428   0.374   2.531   2.895  1.5907 -0.9738  0.5193
  143SOL    HW2  429   0.459   2.590   2.762 -0.3354  3.7198 -3.6617
  144SOL     OW  430   0.868   2.700   1.881 -0.5098 -0.0279 -0.1160
  144SOL    HW1  431   0.871   2.595   1.864 -1.0736 -0.9292 -2.1102
  144SOL    HW2  432   0.948   2.744   1.835 -1.6928 -0.3372 -0.3864
  145SOL     OW  433   2.355   1.433   0.460 -0.3613 -0.7184  0.6631
  145SOL    HW1  434   2.402   1.376   0.392 -3.8856  0.3122  4.7935
  145SOL    HW2  435   2.293   1.368   0.513  0.0208 -1.3747  0.8435
  146SOL     OW  436   2.685   2.971   2.776  0.1767  0.3205  0.3547
  146SOL    HW1  437   2.627   3.054   2.763  2.9777 -2.3212  0.3515
  146SOL    HW2  438   2.709   2.954   2.873  2.6051 -1.9385  0.5514
  147SOL     OW  439   2.850   2.682   1.049 -0.0553 -0.2433 -0.2475
  147SOL    HW1  440   2.918   2.707   1.122 -1.6928  0.2502  1.4493
  147SOL    HW2  441   2.755   2.702   1.086  1.1431  2.5318 -1.1546
  148SOL     OW  442   1.757   3.084   0.126 -0.2922  0.2655  0.3063
  148SOL    HW1  443   1.710   3.065   0.214  0.9388 -0.0139  0.7852
  148SOL    HW2  444   1.780   2.997   0.074 -0.6652  0.2245 -1.3179
  149SOL     OW  445   0.928   0.693   2.885  0.2970 -0.0927 -0.2884
  149SOL    HW1  446   0.859   0.622   2.921 -1.2362 -3.2543 -0.0504
  149SOL    HW2  447   0.976   0.745   2.963  1.7125  2.1887 -0.9118
  150SOL     OW  448   0.901   2.491   0.647 -0.5962  0.5828 -0.2058
  150SOL    HW1  449   0.927   2.460   0.738 -1.6385 -0.6142 -2.3202
  150SOL    HW2  450   0.835   2.565   0.653  1.1888 -0.2849 -0.8424
  151SOL     OW  451   0.104   1.902   3.018  0.4925  0.1650  0.1755
  151SOL    HW1  452   0.142   1.807   3.033 -0.5600  1.0590  0.5827
  151SOL    HW2  453   0.115   1.936   2.925 -2.6375  0.2208  1.4097
  152SOL     OW  454   0.262   1.269   0.521  0.7026  0.2462  0.0253
  152SOL    HW1  455   0.358   1.291   0.481 -0.0240  1.4597 -1.8560
  152SOL    HW2  456   0.243   1.344   0.589 -0.0876  2.1494  1.5687
  153SOL     OW  457   2.439   2.671   0.021  0.3346 -0.5279 -0.0767
  153SOL    HW1  458   2.525   2.619   0.033  0.2262  0.6520  1.5972
  153SOL    HW2  459   2.359   2.619   0.039  2.3434  1.4426  1.0597
  154SOL     OW  460   0.757   0.545   1.263  0.2656 -0.7094  0.7225
  154SOL    HW1  461   0.657   0.540   1.229 -2.7122  3.8146 -1.6920
  154SOL    HW2  462   0.763   0.514   1.357 -0.3194  1.0005 -1.9375
  155SOL     OW  463   3.009   2.077   1.092 -0.3673 -0.0699  0.1477
  155SOL    HW1  464   2.993   2.001   1.022  2.7717 -2.0790 -0.0927
  155SOL    HW2  465   2.988   2.047   1.184 -0.7082 -1.0375 -1.7927
  156SOL     OW  466   2.206   2.145   3.068  0.0057  0.5529 -0.4846
  156SOL    HW1  467   2.236   2.092   0.048  1.2067 -0.6020  0.4743
  156SOL    HW2  468   2.295   2.184   3.036  3.6610  2.0215 -1.1498
  157SOL     OW  469   0.710   2.626   0.898  0.6378  0.4951 -0.1145
  157SOL    HW1  470   0.702   2.526   0.898  0.8859  2.5418  0.2542
  157SOL    HW2  471   0.774   2.660   0.971  0.6259 -0.6843  0.3997
  158SOL     OW  472   2.366   0.465   2.785  0.5622 -0.1807 -0.0092
  158SOL    HW1  473   2.403   0.450   2.876 -0.7944 -0.9456 -1.8577
  158SOL    HW2  474   2.279   0.408   2.775  0.1916  0.8398 -2.3411
  159SOL     OW  475   0.653   0.166   2.491 -0.1378  0.2877 -0.1977
  159SOL    HW1  476   0.717   0.176   2.574  2.5181  1.4228  1.2367
  159SOL    HW2  477   0.651   0.070   2.449  1.9898 -2.4359 -0.3408
  160SOL     OW  478   0.883   1.927   0.156 -0.1632 -0.1642 -0.3324
  160SOL    HW1  479   0.943   1.905   0.238  2.2938  0.6229 -1.3440
  160SOL    HW2  480   0.883   1.844   0.098  0.8338  1.7276  1.7520
  161SOL     OW  481   0.064   2.245   2.928  0.2016 -0.1537  0.6747
  161SOL    HW1  482   0.087   2.343   2.948 -0.4372  0.9818 -0.9987
  161SOL    HW2  483   3.063   2.233   2.931  1.2816  0.8955 -1.1425
  162SOL     OW  484   0.419   2.638   0.877  0.2508 -0.3424 -0.1423
  162SOL    HW1  485   0.520   2.644   0.901  0.2948  0.0992  0.9480
  162SOL    HW2  486   0.362   2.640   0.957 -0.7352  0.3746 -0.6075
  163SOL     OW  487   2.400   0.590   3.083 -0.1014  0.1727 -0.2497
  163SOL    HW1  488   2.395   0.536   0.069  1.1672 -1.0286  2.1798
  163SOL    HW2  489   2.307   0.604   3.044  0.7363 -0.3309 -0.8277
  164SOL     OW  490   0.003   2.630   0.504  0.4500  0.2031  0.8723
  164SOL    HW1  491   3.039   2.611   0.424 -1.9937  0.0454 -2.6418
  164SOL    HW2  492   3.084   2.728   0.538 -2.0676 -0.3025 -0.0512
  165SOL     OW  493   2.510   0.423   1.244  0.4193  0.6958  0.3438
  165SOL    HW1  494   2.513   0.410   1.345  0.1872 -2.6007 -1.6144
  165SOL    HW2  495   2.428   0.481   1.221  0.8865  2.9341  1.0408
  166SOL     OW  496   2.099   0.332   0.904  0.2026 -0.2992  0.2805
  166SOL    HW1  497   2.085   0.231   0.895 -0.2870  2.0496 -1.9590
  166SOL    HW2  498   2.122   0.359   1.000 -0.6134  2.0555  0.3302
  167SOL     OW  499   0.436   0.470   1.427  0.1187  0.2006  0.1235
  167SOL    HW1  500   0.340   0.496   1.453  3.0104 -2.5237 -2.5936
  167SOL    HW2  501   0.427   0.428   1.334 -2.0769 -0.9990  1.6187
  168SOL     OW  502   2.645   2.964   2.233 -0.1052 -0.0034 -0.0184
  168SOL    HW1  503   2.577   2.898   2.270  0.7473 -0.4691 -0.8662
  168SOL    HW2  504   2.655   3.036   2.305  1.8387  1.3323 -3.1335
  169SOL     OW  505   3.087   1.663   0.754 -0.6434  0.9752  0.0912
  169SOL    HW1  506   3.092   1.657   0.654  1.0980  0.5677 -1.6027
  169SOL    HW2  507   0.027   1.577   0.794  0.6108 -0.4089  0.0828
  170SOL     OW  508   2.836   0.668   1.583  0.5078 -0.5545 -0.2059
  170SOL    HW1  509   2.855   0.587   1.525  2.7187  0.8600  0.5455
  170SOL    HW2  510   2.905   0.744   1.561  2.2574  0.3464 -1.7261
  171SOL     OW  511   1.103   2.130   1.644  0.1185  0.4367  0.1217
  171SOL    HW1  512   1.183   2.193   1.644 -2.0133 -1.6294 -1.0353
  171SOL    HW2  513   1.012   2.181   1.638 -2.2488 -1.4057 -0.5184
  172SOL     OW  514   0.396   2.422   1.100 -0.0458  0.1059 -0.4868
  172SOL    HW1  515   0.384   2.336   1.050 -0.8221  3.1365  1.2973
  172SOL    HW2  516   0.316   2.484   1.078 -1.5153  3.2431 -1.5237
  173SOL     OW  517   1.062   3.017   0.243 -0.0832 -0.4414  0.2224
  173SOL    HW1  518   1.144   2.986   0.195 -3.0179  1.3638  0.9158
  173SOL    HW2  519   1.087   3.089   0.308 -1.6130 -1.0343 -1.8102
  174SOL     OW  520   0.895   2.627   2.672  0.4760 -0.1651 -0.2067
  174SOL    HW1  521   0.970   2.694   2.662 -0.2359  3.1221  0.8408
  174SOL    HW2  522   0.910   2.558   2.744  2.6307 -1.1548  2.1379
  175SOL     OW  523   1.457   0.653   0.385  0.0154  1.1625 -0.1432
  175SOL    HW1  524   1.492   0.579   0.449  0.8326 -0.8925 -0.7640
  175SOL    HW2  525   1.472   0.746   0.422  0.1609 -0.1519 -0.8739
  176SOL     OW  526   1.311   0.249   0.185  0.6247  0.1126 -0.3412
  176SOL    HW1  527   1.406   0.232   0.145  1.9337 -2.1622 -4.3593
  176SOL    HW2  528   1.305   0.207   0.279  0.8776 -1.0560 -0.3515
  177SOL     OW  529   1.387   0.959   1.036 -0.1031  0.1832 -0.1508
  177SOL    HW1  530   1.347   1.044   1.004  0.1877 -2.4933 -1.4818
  177SOL    HW2  531   1.337   0.927   1.121 -1.8686 -2.6520  0.0488
  178SOL     OW  532   2.125   1.691   2.179 -0.7556  0.9360  0.3462
  178SOL    HW1  533   2.221   1.653   2.174  0.9357 -4.5263  0.9261
  178SOL    HW2  534   2.071   1.647   2.257 -0.5170  0.5314  0.8638
  179SOL     OW  535   0.599   2.689   2.697  0.0500  0.0332  0.2604
  179SOL    HW1  536   0.698   2.669   2.682  3.7575  0.1033  0.6631
  179SOL    HW2  537   0.544   2.649   2.622 -1.3677  0.5959  1.0201
  180SOL     OW  538   1.584   1.957   1.663  0.8637  0.2367 -0.1275
  180SOL    HW1  539   1.580   1.863   1.705 -1.2602 -2.2458 -1.2795
  180SOL    HW2  540   1.616   1.944   1.566 -1.2165 -2.6083 -0.9976
  181SOL     OW  541   1.530   1.198   2.430 -0.0013 -0.0056  0.4865
  181SOL    HW1  542   1.496   1.209   2.525  0.2694  0.6192 -0.6398
  181SOL    HW2  543   1.460   1.147   2.370 -0.8243  0.4298 -1.7278
  182SOL     OW  544   2.978   0.542   2.458  0.2223 -0.7001 -0.0599
  182SOL    HW1  545   2.901   0.512   2.524  1.4443 -2.3289  0.6392
  182SOL    HW2  546   3.056   0.573   2.515  0.0595 -0.3741 -1.2809
  183SOL     OW  547   1.060   0.102   2.703  0.0088 -0.0490  0.1025
  183SOL    HW1  548   1.133   0.161   2.658  0.3275  0.5256  2.4870
  183SOL    HW2  549   0.967   0.138   2.688  0.1430 -0.7997 -1.9344
  184SOL     OW  550   1.203   0.619   1.399  0.0529 -0.3819  0.2363
  184SOL    HW1  551   1.126   0.660   1.455  1.6409 -1.0317 -1.7993
  184SOL    HW2  552   1.171   0.585   1.312  0.8288  3.4381  1.7938
  185SOL     OW  553   0.043   1.430   0.917 -0.2581 -0.2783  0.1190
  185SOL    HW1  554   3.044   1.432   0.944 -2.0094 -1.5089 -2.4545
  185SOL    HW2  555   0.104   1.410   0.993 -2.4520  1.5000 -1.0371
  186SOL     OW  556   0.487   1.721   2.829 -0.6017 -0.8798 -0.0177
  186SOL    HW1  557   0.518   1.764   2.916  2.2197  0.3031 -2.3399
  186SOL    HW2  558   0.452   1.793   2.763  0.1554  1.0534 -2.2759
  187SOL     OW  559   2.474   1.302   0.234 -0.1296  0.1252 -0.1393
  187SOL    HW1  560   2.530   1.229   0.193 -0.4279 -2.8377  0.7457
  187SOL    HW2  561   2.460   1.375   0.162 -1.7293  0.2707 -0.4149
  188SOL     OW  562   0.147   2.416   0.538  0.5979  0.4957 -0.3270
  188SOL    HW1  563   0.079   2.342   0.518  0.6598 -2.7711  3.0010
  188SOL    HW2  564   0.093   2.501   0.527  0.6204 -1.8196  1.1498
  189SOL     OW  565   2.527   0.820   0.307 -0.4685 -0.4365  0.2627
  189SOL    HW1  566   2.496   0.875   0.224 -0.8807 -0.0696 -0.7333
  189SOL    HW2  567   2.631   0.825   0.298  6.2720  0.2928  0.9383
  190SOL     OW  568   1.411   1.611   2.146 -0.7057 -0.1294 -0.1866
  190SOL    HW1  569   1.480   1.542   2.151 -2.9081  2.4966  0.5653
  190SOL    HW2  570   1.444   1.692   2.196 -2.6177 -0.9543 -2.2261
  191SOL     OW  571   2.573   0.422   1.527 -0.0596 -0.5903  0.2012
  191SOL    HW1  572   2.614   0.331   1.531 -0.6888 -0.9107 -0.5184
  191SOL    HW2  573   2.580   0.472   1.618 -1.6830 -1.9265  1.9690
  192SOL     OW  574   2.242   0.247   1.783 -0.3503 -0.0249 -0.4804
  192SOL    HW1  575   2.212   0.175   1.847  0.2959  1.0661 -3.1559
  192SOL    HW2  576   2.334   0.279   1.817 -1.4206  2.5644  2.1050
  193SOL     OW  577   0.820   0.614   0.427 -0.1952  0.1706 -0.7804
  193SOL    HW1  578   0.776   0.567   0.506 -0.3998  0.1200  3.2449
  193SOL    HW2  579   0.757   0.616   0.350  1.5367 -1.0728  1.7148
  194SOL     OW  580   1.103   2.824   1.140  0.1292 -0.0944 -0.0730
  194SOL    HW1  581   1.029   2.784   1.085 -0.1012  0.1912  0.6723
  194SOL    HW2  582   1.076   2.920   1.173 -0.8320  2.0773 -1.1378
  195SOL     OW  583   2.278   0.855   1.060  0.0945 -0.3077 -0.0207
  195SOL    HW1  584   2.278   0.889   0.961  0.3497  1.9180 -2.1390
  195SOL    HW2  585   2.183   0.858   1.102 -3.4072  0.8655 -0.8049
  196SOL     OW  586   1.768   1.923   2.056 -0.1864  0.2880  0.5705
  196SOL    HW1  587   1.834   2.000   2.048 -0.6853  0.3999  0.8881
  196SOL    HW2  588   1.669   1.947   2.034 -0.7223 -1.2958 -1.1155
  197SOL     OW  589   0.169   0.184   0.157 -0.2533 -0.5323  0.1696
  197SOL    HW1  590   0.202   0.154   0.250  1.8497 -1.0784 -0.9120
  197SOL    HW2  591   0.225   0.140   0.087  0.2809  1.8351  0.4865
  198SOL     OW  592   1.163   1.110   0.675 -0.3367  0.1831  0.0102
  198SOL    HW1  593   1.154   1.196   0.723  2.4004  0.8954 -1.2508
  198SOL    HW2  594   1.126   1.034   0.731 -0.3070 -0.9715  2.2615
  199SOL     OW  595   0.086   0.911   1.831 -0.1075  0.4101 -0.1485
  199SOL    HW1  596   0.110   0.828   1.884 -0.6826  1.2557  0.6673
  199SOL    HW2  597   0.082   0.994   1.892 -0.4942  1.8624  0.1207
  200SOL     OW  598   2.666   2.190   2.650 -0.2838 -1.0597 -0.0120
  200SOL    HW1  599   2.613   2.156   2.730  0.3669  1.1392 -0.2428
  200SOL    HW2  600   2.713   2.281   2.658  2.4576  0.6328  0.2864
  201SOL     OW  601   2.396   0.143   1.185  1.0024  0.4817 -1.4596
  201SOL    HW1  602   2.416   0.245   1.178 -0.9368  1.7640 -0.3275
  201SOL    HW2  603   2.329   0.116   1.116  1.6185  0.1815 -0.0700
  202SOL     OW  604   2.383   0.650   0.444 -0.2529 -0.0008 -0.2294
  202SOL    HW1  605   2.429   0.636   0.534  2.1629  0.4387 -0.6960
  202SOL    HW2  606   2.441   0.710   0.381 -1.6152 -0.2205  0.0839
  203SOL     OW  607   1.750   1.897   2.323  0.3127 -0.6820 -0.4716
  203SOL    HW1  608   1.757   1.909   2.221 -1.3919  1.5685 -3.2645
  203SOL    HW2  609   1.665   1.854   2.354  0.6729  0.0329  0.7638
  204SOL     OW  610   0.998   1.869   2.248 -0.0583 -0.0057 -0.3249
  204SOL    HW1  611   1.000   1.792   2.318 -0.9023  0.5362 -0.3799
  204SOL    HW2  612   1.056   1.949   2.279  0.7529  2.3949  2.0270
  205SOL     OW  613   1.079   1.893   1.491  0.5111  0.4246 -0.1630
  205SOL    HW1  614   1.093   1.983   1.539 -0.3396 -0.9549  0.7329
  205SOL    HW2  615   1.140   1.821   1.536  0.0838  0.4802  0.8771
  206SOL     OW  616   0.031   0.452   0.088  0.1852 -0.1444  0.0611
  206SOL    HW1  617   0.059   0.458   0.186  0.4163 -0.2292 -0.2379
  206SOL    HW2  618   0.014   0.358   0.054 -1.3392 -0.7893 -1.8955
  207SOL     OW  619   1.826   2.690   2.034 -0.0821  0.9022 -0.3083
  207SOL    HW1  620   1.736   2.732   2.014 -0.1674 -1.4698  0.4219
  207SOL    HW2  621   1.897   2.731   1.976 -0.9579 -0.9094  0.6579
  208SOL     OW  622   0.459   2.195   1.541 -0.2496  0.6686 -0.2556
  208SOL    HW1  623   0.382   2.201   1.471 -2.0973  0.2203 -1.6712
  208SOL    HW2  624   0.434   2.235   1.630  0.5707  0.0821  1.1369
  209SOL     OW  625   1.522   0.769   2.654  0.0475 -0.3126  0.3887
  209SOL    HW1  626   1.428   0.748   2.645  2.3615 -1.3099  4.2564
  209SOL    HW2  627   1.570   0.780   2.565  2.4466 -0.3604 -1.3895
  210SOL     OW  628   2.044   0.907   1.226 -0.2926 -0.1912  0.1922
  210SOL    HW1  629   2.107   0.956   1.294  1.4494  0.9447  0.4055
  210SOL    HW2  630   1.989   0.843   1.278  2.4460  1.3034 -1.3802
  211SOL     OW  631   0.527   0.448   0.772  0.2529  0.0930  0.4633
  211SOL    HW1  632   0.499   0.545   0.754  1.3402  2.6495 -0.1634
  211SOL    HW2  633   0.454   0.382   0.806  1.4533 -2.1858  0.9351
  212SOL     OW  634   1.669   1.320   0.181  0.5050 -0.0579 -0.4153
  212SOL    HW1  635   1.762   1.352   0.159 -1.2642  0.2825 -0.9100
  212SOL    HW2  636   1.609   1.406   0.197  0.5802  1.3156  2.1770
  213SOL     OW  637   1.679   0.168   2.557  0.1355 -0.2920  0.1332
  213SOL    HW1  638   1.746   0.159   2.636  1.2579  0.5839 -1.5674
  213SOL    HW2  639   1.584   0.171   2.592  0.0322 -2.4691 -2.6726
  214SOL     OW  640   1.591   1.376   2.244  0.6879 -0.4531  0.1054
  214SOL    HW1  641   1.672   1.429   2.267 -1.2550 -0.1642 -0.1580
  214SOL    HW2  642   1.584   1.293   2.301 -0.4674 -0.6241 -0.5814
  215SOL     OW  643   0.247   1.787   0.391  0.1639  0.1031 -0.0605
  215SOL    HW1  644   0.328   1.724   0.382 -0.5530 -0.3664 -0.4289
  215SOL    HW2  645   0.248   1.860   0.322 -0.2018 -0.8898  2.3051
  216SOL     OW  646   0.550   2.898   2.193 -0.2525  0.6878 -0.2358
  216SOL    HW1  647   0.636   2.846   2.158  1.8811 -1.7908 -1.9401
  216SOL    HW2  648   0.579   2.958   2.268  1.6398 -1.8511 -3.0963
  217SOL     OW  649   2.343   1.050   0.468  0.2847 -0.0498  0.1105
  217SOL    HW1  650   2.428   1.022   0.514 -0.4457  1.9107  0.2049
  217SOL    HW2  651   2.296   1.123   0.525  0.7617  0.5569  1.5920
  218SOL     OW  652   2.070   1.833   1.962  0.0247 -0.1214  0.0678
  218SOL    HW1  653   2.016   1.914   2.002  1.4437 -2.2883  0.4734
  218SOL    HW2  654   2.095   1.767   2.037  0.7648  0.4747  2.0213
  219SOL     OW  655   1.897   1.440   0.110  0.0361 -0.0853 -0.2768
  219SOL    HW1  656   1.880   1.499   0.031  0.5143 -1.6787  2.3260
  219SOL    HW2  657   1.997   1.410   0.115  2.7386 -0.1212  0.0841
  220SOL     OW  658   1.346   1.622   1.104  0.4858  0.3067 -0.2030
  220SOL    HW1  659   1.393   1.678   1.170  0.1637 -1.5593 -2.0568
  220SOL    HW2  660   1.353   1.671   1.017  0.0288 -1.6823  3.2564
  221SOL     OW  661   0.246   0.821   2.638 -0.1171 -0.2883  0.0049
  221SOL    HW1  662   0.187   0.874   2.704 -2.3971 -0.9885 -0.1419
  221SOL    HW2  663   0.320   0.765   2.688  0.0032  0.7230  0.6207
  222SOL     OW  664   0.934   1.617   1.330 -0.8912  0.1854 -0.3672
  222SOL    HW1  665   0.886   1.704   1.334 -0.8107  0.3192  2.2801
  222SOL    HW2  666   0.973   1.594   1.236  2.0784 -0.0326 -1.4207
  223SOL     OW  667   1.470   0.023   2.743 -0.1773 -0.4592  0.8632
  223SOL    HW1  668   1.407   3.072   2.806 -1.2796  1.7102 -0.3374
  223SOL    HW2  669   1.544   0.067   2.799  3.3038  1.2112  1.7395
  224SOL     OW  670   2.777   0.769   1.002 -0.2655 -0.2717 -0.5332
  224SOL    HW1  671   2.772   0.671   0.971 -0.7633  1.6092 -0.4762
  224SOL    HW2  672   2.687   0.814   1.006  3.4014  1.5364 -0.6521
  225SOL     OW  673   1.264   0.404   1.570  0.3395 -0.2680  0.0210
  225SOL    HW1  674   1.339   0.333   1.575  0.7937 -1.7568  0.9072
  225SOL    HW2  675   1.279   0.467   1.492 -3.6827  3.3431  1.0250
  226SOL     OW  676   1.620   1.899   2.738 -0.4453 -0.3011 -0.4048
  226SOL    HW1  677   1.552   1.891   2.667 -0.8007  0.5916  1.5324
  226SOL    HW2  678   1.625   1.819   2.799  1.1134 -0.8934  1.7717
  227SOL     OW  679   1.202   1.877   1.259 -0.0891 -0.0069  0.3492
  227SOL    HW1  680   1.279   1.824   1.300 -1.2322 -0.5110 -1.6182
  227SOL    HW2  681   1.134   1.894   1.332 -0.2494  0.9614  1.6884
  228SOL     OW  682   0.658   1.860   0.934 -0.1709  0.1776 -0.1306
  228SOL    HW1  683   0.730   1.911   0.978 -1.0965 -1.8232 -3.3702
  228SOL    HW2  684   0.629   1.784   1.000 -0.6270 -0.1048  1.2715
  229SOL     OW  685   1.692   0.473   0.059  0.1519  0.3811 -0.2021
  229SOL    HW1  686   1.741   0.462   3.069  1.4932  0.4532  2.0369
  229SOL    HW2  687   1.751   0.537   0.115  1.7991  0.7457 -0.2343
  230SOL     OW  688   1.076   0.323   2.193 -0.0628  0.7176 -0.8037
  230SOL    HW1  689   1.165   0.358   2.157  0.7868 -0.8088 -0.2127
  230SOL    HW2  690   1.076   0.340   2.293  0.5593  1.6046 -2.6706
  231SOL     OW  691   1.284   1.621   2.473 -0.0349  0.7945 -0.1648
  231SOL    HW1  692   1.258   1.544   2.535  0.3857  0.3662  1.0763
  231SOL    HW2  693   1.196   1.644   2.419 -1.7196  0.6466 -1.3806
  232SOL     OW  694   2.159   1.901   0.970  0.2190 -0.4806 -0.2254
  232SOL    HW1  695   2.131   1.835   0.899 -0.2518  2.4574 -1.4345
  232SOL    HW2  696   2.216   1.971   0.922  0.3673  1.0586  1.3321
  233SOL     OW  697   1.841   2.880   3.037  0.0135  0.9071 -0.4186
  233SOL    HW1  698   1.845   2.780   3.063 -2.0567 -0.6152 -0.8881
  233SOL    HW2  699   1.928   2.925   3.024 -0.3573  2.2419  0.6636
  234SOL     OW  700   0.910   2.901   2.837 -0.0801  0.1378  0.1700
  234SOL    HW1  701   0.904   2.838   2.924 -0.4034  1.3069  3.0821
  234SOL    HW2  702   0.993   2.879   2.783  0.8810 -0.5620 -2.0414
  235SOL     OW  703   2.485   0.047   0.146  0.3295 -0.0711  0.4133
  235SOL    HW1  704   2.395   0.067   0.103  0.7887  0.1668  1.5235
  235SOL    HW2  705   2.518   3.052   0.116 -0.4202 -2.4705 -0.9611
  236SOL     OW  706   2.687   2.380   2.263 -0.7058  0.1585  0.1537
  236SOL    HW1  707   2.654   2.303   2.208  0.5526  0.9286 -0.4852
  236SOL    HW2  708   2.759   2.355   2.334  0.9642 -0.1036  5.2374
  237SOL     OW  709   1.215   1.318   1.872 -0.5054  0.1746  0.3434
  237SOL    HW1  710   1.316   1.312   1.845  1.7346  0.2793 -0.9132
  237SOL    HW2  711   1.178   1.225   1.900  0.8081  0.2162  0.5953
  238SOL     OW  712   2.232   0.210   2.414 -0.4190 -0.2361 -0.1020
  238SOL    HW1  713   2.209   0.252   2.324 -2.9009 -0.7785 -0.8323
  238SOL    HW2  714   2.154   0.222   2.475  0.3396  0.8219 -3.2496
  239SOL     OW  715   0.311   1.821   2.077 -0.1100 -0.1566 -0.8599
  239SOL    HW1  716   0.407   1.812   2.118  1.4714 -1.6481  0.1680
  239SOL    HW2  717   0.305   1.764   1.995  0.2076  0.7213  1.0318
  240SOL     OW  718   2.764   2.787   0.818 -0.1922 -0.3017  0.7148
  240SOL    HW1  719   2.798   2.735   0.902  0.5590 -2.9801 -0.1254
  240SOL    HW2  720   2.775   2.732   0.729  1.6041 -2.7345 -3.9771
  241SOL     OW  721   1.843   2.033   0.767 -0.0528 -0.2419 -0.2873
  241SOL    HW1  722   1.838   2.046   0.868  3.3608  0.0909 -1.3883
  241SOL    HW2  723   1.834   1.934   0.747 -0.3827 -1.2456 -1.0025
  242SOL     OW  724   1.213   1.784   2.830 -0.7517 -0.2598  0.0348
  242SOL    HW1  725   1.140   1.712   2.844  0.0870  0.8148 -1.2563
  242SOL    HW2  726   1.300   1.746   2.797 -0.5957 -0.4392  0.6573
  243SOL     OW  727   0.664   2.519   2.210  0.0803  0.0726 -0.2803
  243SOL    HW1  728   0.697   2.608   2.173 -0.7299 -0.0248  0.1682
  243SOL    HW2  729   0.745   2.453   2.227 -0.4737 -1.0966  1.2923
  244SOL     OW  730   2.270   0.046   2.847  0.5165 -0.3909  0.1239
  244SOL    HW1  731   2.364   0.064   2.813  2.2694 -1.8283  1.3436
  244SOL    HW2  732   2.229   3.065   2.803 -0.0675 -1.1018 -2.9503
  245SOL     OW  733   1.342   2.685   0.477  0.1736 -0.1517 -0.3165
  245SOL    HW1  734   1.308   2.593   0.503 -1.6923  2.1157  3.8542
  245SOL    HW2  735   1.259   2.743   0.489  1.6248 -2.0364 -0.0831
  246SOL     OW  736   0.823   2.897   0.267  0.5574  0.6221 -0.3642
  246SOL    HW1  737   0.912   2.929   0.229 -0.1110 -0.6603 -0.4748
  246SOL    HW2  738   0.812   2.915   0.369  0.9262  2.0800  0.6618
  247SOL     OW  739   0.643   0.792   2.069 -0.1465  0.2677 -0.2687
  247SOL    HW1  740   0.732   0.785   2.021  0.3999 -0.7202 -1.6714
  247SOL    HW2  741   0.648   0.781   2.171  3.2553 -0.2321  1.0033
  248SOL     OW  742   1.234   1.283   2.331  0.1959 -0.2123 -0.4329
  248SOL    HW1  743   1.245   1.370   2.278  0.1209  1.2753 -1.5009
  248SOL    HW2  744   1.249   1.298   2.433  0.7233  3.3250  2.9511
  249SOL     OW  745   2.092   0.425   0.499 -0.4137 -0.2260  0.6564
  249SOL    HW1  746   2.174   0.407   0.556 -0.8448 -0.8678  1.1940
  249SOL    HW2  747   2.052   0.516   0.494 -2.0195 -2.0156  0.1895
  250SOL     OW  748   0.726   0.071   0.526 -0.2697  0.0823  0.7137
  250SOL    HW1  749   0.751   3.073   0.530 -2.8852 -2.2479  0.2239
  250SOL    HW2  750   0.806   0.131   0.505  1.7258 -3.1233  1.7098
  251SOL     OW  751   1.603   0.157   2.939 -0.4288 -0.1145  0.4001
  251SOL    HW1  752   1.698   0.187   2.917  1.2048  0.7850  2.0136
  251SOL    HW2  753   1.595   0.162   3.041  0.5818 -0.1970 -2.1158
  252SOL     OW  754   1.811   1.172   2.204  0.2055  0.3624 -0.0531
  252SOL    HW1  755   1.761   1.121   2.280 -1.9109 -0.1632  3.2832
  252SOL    HW2  756   1.897   1.213   2.240 -1.0045 -1.5611  1.6718
  253SOL     OW  757   2.606   2.540   1.751  0.1435 -0.0579  0.2408
  253SOL    HW1  758   2.665   2.611   1.792 -3.0029  0.9422  1.7264
  253SOL    HW2  759   2.573   2.470   1.822  0.4761 -3.9526  1.6826
  254SOL     OW  760   0.436   1.272   1.164 -0.0762  0.2907  0.0925
  254SOL    HW1  761   0.472   1.182   1.136 -0.4566  5.7831  0.5812
  254SOL    HW2  762   0.510   1.334   1.198 -2.5374 -0.5377  1.7410
  255SOL     OW  763   1.289   0.911   1.291  0.3500  0.9892  0.2676
  255SOL    HW1  764   1.197   0.942   1.257  0.8410  0.3086  0.0452
  255SOL    HW2  765   1.321   0.970   1.365 -1.0579 -0.3441 -4.9808
  256SOL     OW  766   1.900   2.559   1.777  0.1051 -0.2365  0.6448
  256SOL    HW1  767   1.835   2.510   1.842  0.1919  3.0328  1.5500
  256SOL    HW2  768   1.968   2.491   1.737  1.7289  0.0045  0.1142
  257SOL     OW  769   0.199   2.849   2.847  0.3920 -0.0634  0.1938
  257SOL    HW1  770   0.138   2.926   2.880 -2.5919  0.4215  0.6965
  257SOL    HW2  771   0.296   2.876   2.848  3.1151 -0.6379 -2.7992
  258SOL     OW  772   0.804   2.777   2.140 -0.8218  0.0464  0.0095
  258SOL    HW1  773   0.867   2.752   2.219  0.6774  2.0476 -0.6358
  258SOL    HW2  774   0.847   2.733   2.055  0.0212 -2.2507 -2.0002
  259SOL     OW  775   1.280   0.012   2.324 -0.3678  0.7380  0.1782
  259SOL    HW1  776   1.384   0.009   2.336  0.4826 -2.1445 -3.8905
  259SOL    HW2  777   1.258   0.060   2.232  2.1945 -2.8335  0.2579
  260SOL     OW  778   1.667   0.399   0.955 -0.1881 -0.3335  0.1143
  260SOL    HW1  779   1.634   0.308   0.915 -1.9130 -0.2605  1.5168
  260SOL    HW2  780   1.735   0.443   0.896  0.7016 -0.5176 -0.0975
  261SOL     OW  781   0.124   0.603   2.564 -0.0743 -0.5187  0.1633
  261SOL    HW1  782   0.184   0.526   2.538 -0.4075  1.4908  1.9565
  261SOL    HW2  783   0.181   0.689   2.597  3.5368  2.1078  1.7206
  262SOL     OW  784   3.016   2.486   1.981 -0.1554 -0.1730  0.2882
  262SOL    HW1  785   0.020   2.494   1.965 -1.6039 -0.6737  0.5954
  262SOL    HW2  786   2.965   2.556   1.924 -0.2405 -0.5117 -0.2888
  263SOL     OW  787   2.727   1.745   2.343  0.2377  1.1236  0.6200
  263SOL    HW1  788   2.825   1.767   2.330 -0.2745  0.6291 -1.2570
  263SOL    HW2  789   2.665   1.819   2.381 -1.4029  0.6993 -2.9031
  264SOL     OW  790   0.612   1.089   0.873  0.3615  0.1806  0.1689
  264SOL    HW1  791   0.657   1.111   0.963 -0.6589  0.8132  0.2598
  264SOL    HW2  792   0.682   1.039   0.815  0.5328 -0.9492 -4.3315
  265SOL     OW  793   0.598   1.975   0.161  0.3536 -0.3690 -0.6184
  265SOL    HW1  794   0.700   1.974   0.165 -1.7199  0.0424  1.4070
  265SOL    HW2  795   0.558   1.960   0.254 -0.3487  0.2728  0.4768
  266SOL     OW  796   1.450   0.556   0.940 -0.3941 -0.2344 -0.8691
  266SOL    HW1  797   1.516   0.489   0.975  0.1132 -1.5048 -2.0501
  266SOL    HW2  798   1.402   0.509   0.861  1.3788  0.5306  0.9854
  267SOL     OW  799   2.934   1.156   0.055  0.0880  0.8516 -0.1475
  267SOL    HW1  800   2.987   1.106   0.124 -0.4709  1.1655 -0.1725
  267SOL    HW2  801   2.881   1.081   0.006 -0.3443  0.4942  1.4841
  268SOL     OW  802   1.926   0.177   0.129  0.3084  0.0392 -0.2716
  268SOL    HW1  803   1.918   0.200   0.227 -0.8365 -0.0640 -0.5284
  268SOL    HW2  804   1.868   0.093   0.115  0.7161 -0.0332 -1.3541
  269SOL     OW  805   1.829   0.872   2.795  0.0791  0.2216 -0.7353
  269SOL    HW1  806   1.727   0.874   2.784 -1.3106  0.4710 -1.5500
  269SOL    HW2  807   1.856   0.954   2.846 -1.1429 -2.5121 -2.1990
  270SOL     OW  808   0.579   0.844   3.067  0.2620 -0.0539  0.0148
  270SOL    HW1  809   0.615   0.919   3.007 -1.0991 -0.9247  0.8863
  270SOL    HW2  810   0.476   0.839   3.059  1.6109 -2.8757 -0.7443
  271SOL     OW  811   3.021   0.873   0.231  0.0117  0.5473 -0.4238
  271SOL    HW1  812   3.054   0.819   0.152 -1.3171 -1.4373 -1.2158
  271SOL    HW2  813   3.047   0.975   0.228 -0.8618  0.3795 -2.8334
  272SOL     OW  814   0.114   2.029   2.765 -0.4025  0.1275 -0.0916
  272SOL    HW1  815   0.085   2.048   2.668  0.9646  0.2065 -1.5912
  272SOL    HW2  816   0.128   2.115   2.817 -1.1976 -3.1678 -1.4476
  273SOL     OW  817   2.448   3.070   0.758  0.4700  0.1208  0.3175
  273SOL    HW1  818   2.387   3.080   0.836 -1.0228 -0.1550 -2.7832
  273SOL    HW2  819   2.416   0.020   0.678  0.2585 -0.9672 -1.6389
  274SOL     OW  820   0.252   2.154   0.758 -0.0361 -0.8373 -0.3200
  274SOL    HW1  821   0.211   2.079   0.706 -0.1119  2.7995  1.6591
  274SOL    HW2  822   0.302   2.220   0.700  0.0806 -0.6397  0.0651
  275SOL     OW  823   2.371   1.693   0.472 -0.4062 -0.1207 -0.1799
  275SOL    HW1  824   2.470   1.711   0.492 -2.6674 -0.0470  1.0399
  275SOL    HW2  825   2.360   1.591   0.444  0.9673  0.7613  0.6643
  276SOL     OW  826   0.076   1.093   2.038 -0.1010  0.6445 -0.0945
  276SOL    HW1  827   0.172   1.122   2.050  1.7651  1.3603  0.3540
  276SOL    HW2  828   0.011   1.145   2.096 -1.1667  0.0957  0.7426
  277SOL     OW  829   1.900   2.608   1.220  0.1743 -0.7075  0.6630
  277SOL    HW1  830   1.967   2.589   1.146 -2.2086 -0.1823  1.5613
  277SOL    HW2  831   1.846   2.696   1.204 -1.1698  0.0886 -0.5545
  278SOL     OW  832   1.184   3.031   2.040 -0.2907  0.1152 -0.0132
  278SOL    HW1  833   1.101   2.988   1.999  1.8267 -0.6520 -0.6376
  278SOL    HW2  834   1.211   0.011   1.977  1.5156  0.7077  0.3590
  279SOL     OW  835   1.655   1.863   0.371  0.0294  0.3527 -0.3717
  279SOL    HW1  836   1.563   1.908   0.362  0.9037 -2.1903  1.8751
  279SOL    HW2  837   1.731   1.914   0.333 -2.1724 -0.0217  2.7799
  280SOL     OW  838   2.992   1.860   0.926  0.0155  0.0252  0.1683
  280SOL    HW1  839   3.016   1.806   0.842 -1.6910 -0.7974 -3.2486
  280SOL    HW2  840   2.902   1.840   0.964  0.7618  2.4860  0.7849
  281SOL     OW  841   3.014   0.702   2.246  0.0327 -0.1581 -0.1781
  281SOL    HW1  842   2.988   0.657   2.158  0.9451 -0.6996 -0.9061
  281SOL    HW2  843   2.985   0.647   2.331 -2.6156 -1.5998 -0.2410
  282SOL     OW  844   0.686   1.017   0.573  0.3308  0.1977 -0.3540
  282SOL    HW1  845   0.604   1.044   0.523  2.3306  0.3775  0.2760
  282SOL    HW2  846   0.771   1.037   0.517  0.0196  0.1030 -0.9659
  283SOL     OW  847   1.717   2.299   3.041  0.2161  0.3843  0.1388
  283SOL    HW1  848   1.649   2.376   3.028 -0.8203 -0.7417  1.5730
  283SOL    HW2  849   1.787   2.305   2.968 -0.5425 -1.1445  1.4747
  284SOL     OW  850   1.251   0.536   0.265 -0.5095  0.4846 -0.0729
  284SOL    HW1  851   1.299   0.501   0.184 -0.8210  1.1846  1.3946
  284SOL    HW2  852   1.324   0.577   0.326 -0.1310  0.3904 -1.4085
  285SOL     OW  853   2.217   1.072   2.729 -0.4054  0.8334  0.4679
  285SOL    HW1  854   2.138   1.028   2.684 -1.4708  0.8884  1.7490
  285SOL    HW2  855   2.275   0.993   2.761  1.1582 -1.4233 -2.0572
  286SOL     OW  856   1.295   2.693   1.554 -0.3013 -0.4923 -0.0639
  286SOL    HW1  857   1.332   2.787   1.556 -1.4176 -0.5353 -0.1773
  286SOL    HW2  858   1.363   2.621   1.576 -1.7515  1.3215  0.3873
  287SOL     OW  859   1.082   0.915   0.864  0.0632 -0.5687 -0.1829
  287SOL    HW1  860   0.984   0.880   0.887 -0.7411 -2.3779  0.1272
  287SOL    HW2  861   1.138   0.845   0.819 -1.6195 -2.3701  0.2001
  288SOL     OW  862   1.140   2.488   0.336  0.3133 -0.0629  0.1202
  288SOL    HW1  863   1.110   2.571   0.388 -1.3752 -3.6647  3.3279
  288SOL    HW2  864   1.147   2.502   0.240  0.6355  1.4296  1.8528
  289SOL     OW  865   0.490   1.332   1.623  0.2203  0.2076 -0.2657
  289SOL    HW1  866   0.563   1.389   1.574  3.5679  2.4365  1.4854
  289SOL    HW2  867   0.433   1.290   1.546  4.0420  1.0372 -0.5673
  290SOL     OW  868   1.711   2.427   0.865 -0.3383 -0.4322 -0.1169
  290SOL    HW1  869   1.723   2.395   0.958 -2.3524 -2.1100  1.9486
  290SOL    HW2  870   1.640   2.499   0.870 -1.0430 -0.2582 -0.5890
  291SOL     OW  871   1.586   2.852   2.928 -0.7142 -0.4621 -0.6372
  291SOL    HW1  872   1.585   2.805   2.836 -1.1435  1.6936  0.9374
  291SOL    HW2  873   1.677   2.849   2.967  1.3155  1.2475 -3.1232
  292SOL     OW  874   0.939   0.223   1.830  0.5112  0.4097  0.0586
  292SOL    HW1  875   0.969   0.297   1.897  0.1755 -1.2274 -0.2176
  292SOL    HW2  876   0.957   0.126   1.860  0.3385 -1.8906 -0.6298
  293SOL     OW  877   1.970   2.395   0.775  0.1490  0.0609 -0.5354
  293SOL    HW1  878   1.964   2.325   0.699 -0.6464  1.4673 -2.5977
  293SOL    HW2  879   1.876   2.411   0.811 -0.1381  0.4832  1.4857
  294SOL     OW  880   0.581   0.783   2.366  0.4467  0.4981  0.5154
  294SOL    HW1  881   0.492   0.829   2.355  0.1034  0.0369  0.3837
  294SOL    HW2  882   0.562   0.693   2.407 -1.3501  2.0708 -0.3723
  295SOL     OW  883   1.417   1.760   0.877  0.0220 -0.2079 -0.7968
  295SOL    HW1  884   1.450   1.829   0.946 -0.2836  0.7700  2.0565
  295SOL    HW2  885   1.419   1.805   0.786 -0.4524 -0.6245  0.0068
  296SOL     OW  886   2.515   1.901   0.041  0.4245  0.2636  0.3810
  296SOL    HW1  887   2.519   1.995   0.089 -0.6877  1.9333  0.5058
  296SOL    HW2  888   2.551   1.828   0.104 -0.1230  2.7795  1.7749
  297SOL     OW  889   2.185   0.084   0.339 -0.1130  0.0234  0.5334
  297SOL    HW1  890   2.098   0.133   0.365 -1.0777  1.7624 -0.7128
  297SOL    HW2  891   2.211   0.101   0.240  0.7258 -0.4001 -1.8998
  298SOL     OW  892   1.040   2.469   2.414 -0.2658  0.3229 -0.3826
  298SOL    HW1  893   0.973   2.443   2.485  2.5186  0.0028  0.8076
  298SOL    HW2  894   1.135   2.453   2.453  0.7137  1.5624  1.3875
  299SOL     OW  895   1.418   2.617   2.158 -0.2927 -0.1768  0.0498
  299SOL    HW1  896   1.339   2.671   2.192  0.4701  0.2005 -1.2852
  299SOL    HW2  897   1.431   2.530   2.207  0.9900  2.6450  0.6801
  300SOL     OW  898   2.508   0.100   2.743 -0.0548  0.4871 -0.3663
  300SOL    HW1  899   2.525   0.173   2.816 -0.9932  1.3377  2.2906
  300SOL    HW2  900   2.512   0.150   2.654 -1.0688 -2.0194  0.8885
  301SOL     OW  901   1.521   0.591   2.186  0.0489 -0.5436  0.0943
  301SOL    HW1  902   1.495   0.688   2.192  3.0878 -0.7701  0.7743
  301SOL    HW2  903   1.441   0.525   2.178 -0.4199 -0.3962  2.3428
  302SOL     OW  904   2.558   2.500   0.303  0.2319  0.0590 -0.2387
  302SOL    HW1  905   2.500   2.420   0.295  0.3061  0.8017 -0.3861
  302SOL    HW2  906   2.521   2.565   0.371 -0.8112 -0.1874  1.1543
  303SOL     OW  907   2.823   2.613   2.172  0.4326  0.4852  0.7051
  303SOL    HW1  908   2.773   2.541   2.225  2.6686  1.9758  1.1792
  303SOL    HW2  909   2.914   2.575   2.145  3.6823  0.7045 -1.0802
  304SOL     OW  910   2.639   0.698   2.013  0.4791  0.1304 -0.2732
  304SOL    HW1  911   2.687   0.787   2.025 -0.2940  0.6022  1.7431
  304SOL    HW2  912   2.705   0.624   2.034 -1.0662  2.9766 -2.4573
  305SOL     OW  913   0.577   1.738   1.583 -0.2052 -0.1429 -0.1753
  305SOL    HW1  914   0.552   1.782   1.499  2.0024  0.9502  1.1168
  305SOL    HW2  915   0.557   1.793   1.668 -1.0456 -0.9276 -1.8337
  306SOL     OW  916   2.960   0.997   1.731 -0.1219 -0.4238 -0.3687
  306SOL    HW1  917   3.040   0.951   1.767 -2.1578  0.4621  0.0193
  306SOL    HW2  918   2.949   0.955   1.635 -1.9451 -1.7819 -0.1989
  307SOL     OW  919   1.205   0.414   1.857 -0.5562 -0.4424  0.1461
  307SOL    HW1  920   1.136   0.484   1.880 -0.8874 -1.4143  0.7457
  307SOL    HW2  921   1.242   0.431   1.763 -1.6858 -0.7872 -3.7690
  308SOL     OW  922   2.988   0.944   1.022 -0.4284 -0.8020  0.3690
  308SOL    HW1  923   2.981   0.985   1.116 -2.2567  0.9375  1.6874
  308SOL    HW2  924   2.905   0.886   1.003  0.4878  1.1412 -1.0403
  309SOL     OW  925   2.250   1.361   0.877 -0.0824 -0.2320  0.0070
  309SOL    HW1  926   2.143   1.370   0.871 -2.1850 -0.1748 -0.7651
  309SOL    HW2  927   2.290   1.457   0.889 -0.1756 -0.2359  0.7034
  310SOL     OW  928   2.799   1.994   2.505 -0.2913 -0.3374 -0.2181
  310SOL    HW1  929   2.834   2.030   2.411 -0.8882  0.0917 -2.8190
  310SOL    HW2  930   2.737   2.057   2.559 -0.5706  1.0703 -0.3814
  311SOL     OW  931   0.052   2.797   2.604 -0.7611 -0.4119 -0.4437
  311SOL    HW1  932   3.060   2.826   2.631 -0.8487 -0.9728 -0.0969
  311SOL    HW2  933   0.117   2.798   2.686 -2.5043  1.1848  1.7188
  312SOL     OW  934   2.239   1.907   0.112 -0.2212 -0.3503 -0.2601
  312SOL    HW1  935   2.326   1.892   0.061 -1.9037  0.5846  0.6258
  312SOL    HW2  936   2.175   1.821   0.114 -1.2832 -1.4373 -0.7697
  313SOL     OW  937   2.708   3.049   0.785  0.4383  0.3643 -0.7471
  313SOL    HW1  938   2.715   2.948   0.791 -1.9389  4.3980 -3.1978
  313SOL    HW2  939   2.607   3.069   0.772  2.2364  1.0271 -0.9346
  314SOL     OW  940   1.466   0.976   0.253  0.2444  0.7351 -0.1681
  314SOL    HW1  941   1.371   0.956   0.222  1.6126  0.0100 -0.1110
  314SOL    HW2  942   1.478   0.959   0.356 -0.9431 -0.6510  2.3127
  315SOL     OW  943   1.458   2.469   1.925  0.6677 -0.4272 -0.3888
  315SOL    HW1  944   1.464   2.543   1.992 -0.4578 -4.1375 -1.5137
  315SOL    HW2  945   1.409   2.392   1.969  1.5644  0.3461 -0.9539
  316SOL     OW  946   0.117   0.747   0.372  0.5695  0.2788 -0.3475
  316SOL    HW1  947   0.134   0.649   0.340  2.2355 -1.4538 -1.6082
  316SOL    HW2  948   0.043   0.783   0.315  0.1883 -3.1218  1.1427
  317SOL     OW  949   0.406   2.982   0.346  0.8807 -0.5078  0.3680
  317SOL    HW1  950   0.367   3.008   0.435  0.1889  2.9738 -1.5531
  317SOL    HW2  951   0.334   2.948   0.279  0.7952 -2.1107  0.6391
  318SOL     OW  952   2.018   2.513   0.376  0.2880 -0.3034 -0.1433
  318SOL    HW1  953   2.052   2.426   0.335 -1.7457  0.3246 -0.0325
  318SOL    HW2  954   1.992   2.586   0.305 -1.1999  4.8255 -2.7935
  319SOL     OW  955   1.038   1.571   2.883 -0.1940 -0.0750  0.3780
  319SOL    HW1  956   0.942   1.598   2.884 -1.9636 -1.0901  0.1189
  319SOL    HW2  957   1.054   1.495   2.817  2.4233 -0.6313 -4.2838
  320SOL     OW  958   0.331   2.284   2.047  0.4477 -0.1606 -0.0790
  320SOL    HW1  959   0.305   2.195   2.006  1.6979  1.5852  1.3866
  320SOL    HW2  960   0.248   2.336   2.081  0.3179 -1.2072 -0.3728
  321SOL     OW  961   1.653   2.755   2.691  0.0984 -0.4303  0.2445
  321SOL    HW1  962   1.669   2.660   2.658  1.2669 -3.3712 -0.3881
  321SOL    HW2  963   1.602   2.814   2.622  0.4008 -0.3855 -1.4727
  322SOL     OW  964   2.775   1.329   2.339 -0.1741  0.0124 -0.2277
  322SOL    HW1  965   2.713   1.369   2.410 -0.9431 -0.9855 -1.0741
  322SOL    HW2  966   2.732   1.333   2.245 -0.5521  0.6765  0.5077
  323SOL     OW  967   2.220   1.241   0.617  0.3470 -0.2817  0.0850
  323SOL    HW1  968   2.244   1.296   0.698 -0.8827 -0.5260 -3.7911
  323SOL    HW2  969   2.127   1.200   0.629  1.3082 -0.8273  0.7433
  324SOL     OW  970   2.879   0.056   2.619 -0.4870 -0.3110 -0.1802
  324SOL    HW1  971   2.863   0.126   2.693  1.4796  0.7077  3.7008
  324SOL    HW2  972   2.888   3.063   2.656  0.3291  3.0535 -0.2234
  325SOL     OW  973   1.128   0.636   2.707  0.3013 -0.0091 -0.5206
  325SOL    HW1  974   1.050   0.661   2.771 -3.6878  0.8028 -2.1521
  325SOL    HW2  975   1.199   0.575   2.747 -0.2285 -0.4026  0.8964
  326SOL     OW  976   2.304   2.847   1.783  0.3588  0.3216  0.4087
  326SOL    HW1  977   2.373   2.899   1.727  0.7113  3.1253 -2.1434
  326SOL    HW2  978   2.356   2.823   1.868 -1.0498  1.4735  0.1641
  327SOL     OW  979   1.937   0.251   2.955 -0.7819 -0.2351 -0.4577
  327SOL    HW1  980   2.034   0.273   2.927  0.2919 -0.2940  1.3026
  327SOL    HW2  981   1.928   0.252   3.058 -2.9469  0.9283 -0.4850
  328SOL     OW  982   0.087   1.107   2.479  0.1204  0.0748  0.0850
  328SOL    HW1  983   0.117   1.012   2.459  1.5361 -1.6597 -1.3741
  328SOL    HW2  984   3.087   1.123   2.497  0.7562  3.5085 -1.3710
  329SOL     OW  985   1.961   3.051   1.919  0.0261 -0.1608 -0.1747
  329SOL    HW1  986   1.972   2.953   1.892 -0.5442  0.0368  0.4658
  329SOL    HW2  987   2.045   3.097   1.951 -0.2801  0.3805 -1.7422
  330SOL     OW  988   2.868   1.493   1.068  0.3814 -0.3821  0.2806
  330SOL    HW1  989   2.816   1.410   1.101  1.2855 -1.0665  1.2946
  330SOL    HW2  990   2.923   1.525   1.151 -0.0192 -0.0051  0.6912
  331SOL     OW  991   0.545   1.757   2.220 -0.0567  0.6383  0.1587
  331SOL    HW1  992   0.618   1.828   2.240 -2.2390 -1.0862  0.6178
  331SOL    HW2  993   0.583   1.666   2.192  0.3982  4.3044  0.6773
  332SOL     OW  994   0.186   2.677   1.593  0.1253  0.0119 -0.3409
  332SOL    HW1  995   0.264   2.689   1.656  1.4486 -2.3797  1.3364
  332SOL    HW2  996   0.131   2.763   1.590 -0.3261 -1.9245  1.7228
  333SOL     OW  997   2.175   2.576   1.084  0.3559  0.4500 -0.8725
  333SOL    HW1  998   2.202   2.573   1.183  0.2145 -0.0738  0.6911
  333SOL    HW2  999   2.212   2.495   1.036  0.5938  1.0998 -0.5418
  334SOL     OW 1000   1.071   1.836   0.746  0.3816  0.2305 -0.9423
  334SOL    HW1 1001   1.052   1.738   0.740 -3.0442  3.1867 -0.1469
  334SOL    HW2 1002   1.091   1.860   0.848  2.5185 -1.4166 -0.1948
  335SOL     OW 1003   0.099   2.509   2.918 -0.3867 -0.1955 -0.0751
  335SOL    HW1 1004   0.198   2.522   2.891 -3.0589 -0.8972 -0.5294
  335SOL    HW2 1005   0.037   2.553   2.848  0.7435 -0.3044  0.6284
  336SOL     OW 1006   0.453   0.042   2.136 -0.5055 -0.2203  0.2545
  336SOL    HW1 1007   0.417   0.055   2.230 -0.8294  0.1119  3.2293
  336SOL    HW2 1008   0.499   3.047   2.146  0.0617  0.8439  0.3136
  337SOL     OW 1009   2.442   2.254   2.984  1.0446 -0.5888  0.6083
  337SOL    HW1 1010   2.527   2.298   3.009 -1.5140 -0.8900 -2.9821
  337SOL    HW2 1011   2.454   2.183   2.912 -0.2490  0.0766  1.1215
  338SOL     OW 1012   1.070   1.537   1.059  0.4037 -0.3967  0.0810
  338SOL    HW1 1013   1.021   1.576   0.977  0.7595 -0.2599 -0.3171
  338SOL    HW2 1014   1.164   1.578   1.078  0.8173 -2.4381  1.2924
  339SOL     OW 1015   0.162   0.817   1.597 -0.1926 -0.6446 -0.1641
  339SOL    HW1 1016   0.125   0.850   1.686 -0.7705 -1.9437 -1.2902
  339SOL    HW2 1017   0.262   0.845   1.592  0.9895  1.4261  0.3941
  340SOL     OW 1018   1.481   2.655   0.247  0.0044 -0.1299 -0.2488
  340SOL    HW1 1019   1.434   2.677   0.335  2.3605 -1.6240 -1.9076
  340SOL    HW2 1020   1.503   2.738   0.196 -0.4316  0.7994  0.5571
  341SOL     OW 1021   1.960   1.359   0.866 -0.0221  0.3108 -0.0636
  341SOL    HW1 1022   1.959   1.277   0.923 -0.0736  2.6141 -3.7596
  341SOL    HW2 1023   1.928   1.446   0.914 -0.7093  1.5710  1.1751
  342SOL     OW 1024   2.576   2.920   0.391 -0.2131 -0.4567  0.0416
  342SOL    HW1 1025   2.554   2.832   0.440 -0.3768  0.6119 -2.9157
  342SOL    HW2 1026   2.570   2.912   0.288 -1.0066 -0.1111 -0.8815
  343SOL     OW 1027   1.364   2.248   1.103  0.0726 -0.1119 -0.4349
  343SOL    HW1 1028   1.292   2.220   1.035  1.5445 -1.4116 -1.3415
  343SOL    HW2 1029   1.327   2.259   1.200 -0.7904  0.9028 -1.2005
  344SOL     OW 1030   2.203   2.248   0.598  0.0159 -0.6790  0.2669
  344SOL    HW1 1031   2.136   2.180   0.629  1.2376 -0.2332 -0.1352
  344SOL    HW2 1032   2.154   2.336   0.581  1.7713 -2.8411  1.1463
  345SOL     OW 1033   2.650   2.518   0.052 -0.6175 -0.0003 -0.3506
  345SOL    HW1 1034   2.683   2.425   0.026 -0.4678  1.1903 -1.3129
  345SOL    HW2 1035   2.615   2.519   0.150  0.1401 -0.1886  1.7966
  346SOL     OW 1036   2.805   1.631   0.754 -0.1539 -0.2532  0.0994
  346SOL    HW1 1037   2.774   1.694   0.828  0.4071  3.9819 -0.6252
  346SOL    HW2 1038   2.907   1.620   0.749  1.4568 -0.5696  0.2889
  347SOL     OW 1039   2.170   2.259   1.365  0.7029 -0.1208  0.1470
  347SOL    HW1 1040   2.120   2.209   1.441 -0.1253  0.6883  2.2224
  347SOL    HW2 1041   2.223   2.340   1.401 -0.2562  2.5065 -0.8633
  348SOL     OW 1042   0.811   1.751   3.000  0.0911  0.1083  0.8008
  348SOL    HW1 1043   0.824   1.812   2.921  1.4366  0.9024 -2.1413
  348SOL    HW2 1044   0.710   1.757   3.026 -2.6138  1.2480  2.2442
  349SOL     OW 1045   2.301   1.369   1.748 -0.2801  0.0545  0.8234
  349SOL    HW1 1046   2.214   1.321   1.732  0.0539  0.1494  4.0274
  349SOL    HW2 1047   2.288   1.471   1.762  0.8917  0.7043  0.2448
  350SOL     OW 1048   3.095   2.535   0.974 -0.8116 -0.4674  0.2412
  350SOL    HW1 1049   3.003   2.512   1.006  0.7652  0.1505 -0.4880
  350SOL    HW2 1050   0.024   2.482   0.891  1.4611 -0.9782  1.4516
  351SOL     OW 1051   0.429   0.599   2.000  0.4706  0.0449 -0.1276
  351SOL    HW1 1052   0.504   0.666   1.989  2.1938  0.9885  0.5963
  351SOL    HW2 1053   0.455   0.524   2.060  1.0148  0.1732 -3.2069
  352SOL     OW 1054   0.540   1.957   1.404  0.4396 -0.1187  1.0943
  352SOL    HW1 1055   0.528   2.052   1.433  0.0489 -1.8305  4.1579
  352SOL    HW2 1056   0.461   1.931   1.343  3.4328  0.0583 -0.4230
  353SOL     OW 1057   1.543   1.737   2.414 -0.0050 -0.2979 -0.5414
  353SOL    HW1 1058   1.457   1.682   2.413  0.4017  1.5851 -1.4412
  353SOL    HW2 1059   1.628   1.678   2.416  2.2647 -0.6086 -0.6285
  354SOL     OW 1060   1.207   0.609   1.115  0.3185 -0.1124  0.2268
  354SOL    HW1 1061   1.277   0.588   1.041 -0.6194  1.2903 -0.3193
  354SOL    HW2 1062   1.227   0.697   1.163  0.6845  0.7279 -0.3205
  355SOL     OW 1063   2.589   0.977   0.599  0.6878 -0.2476  0.0628
  355SOL    HW1 1064   2.656   0.899   0.605 -2.2192 -0.0153  0.8656
  355SOL    HW2 1065   2.617   1.061   0.647 -1.3680  1.7294 -1.7913
  356SOL     OW 1066   2.491   1.876   2.468 -0.1202 -0.1446 -0.4228
  356SOL    HW1 1067   2.458   1.974   2.471  0.6396 -0.9014 -0.1957
  356SOL    HW2 1068   2.514   1.846   2.567  1.3884  0.2916  3.0591
  357SOL     OW 1069   0.525   2.542   1.293  0.1309  0.8012  0.4181
  357SOL    HW1 1070   0.616   2.577   1.274  0.0404 -0.5791 -1.9599
  357SOL    HW2 1071   0.497   2.492   1.207  0.1892 -0.8263  0.7665
  358SOL     OW 1072   2.410   0.946   1.894  0.2856 -0.3615  0.4896
  358SOL    HW1 1073   2.466   0.953   1.813 -0.5597  0.1748  1.2035
  358SOL    HW2 1074   2.367   0.856   1.903 -0.9588 -1.9494  0.0987
  359SOL     OW 1075   2.335   2.451   2.837 -0.4404 -0.3646 -0.1370
  359SOL    HW1 1076   2.367   2.381   2.908 -0.0839  0.1369  1.6495
  359SOL    HW2 1077   2.409   2.478   2.771 -1.0347 -2.0895 -0.6091
  360SOL     OW 1078   1.971   0.615   1.061  0.2684 -0.2707  0.1971
  360SOL    HW1 1079   2.020   0.532   1.046 -3.4815  0.2986  2.0690
  360SOL    HW2 1080   1.957   0.637   1.162 -0.8830  2.0550  3.0578
  361SOL     OW 1081   2.250   0.021   0.988 -0.7449 -0.6723 -0.2174
  361SOL    HW1 1082   2.234   3.019   1.002  0.0582 -0.5702 -0.0681
  361SOL    HW2 1083   2.183   0.067   0.925  2.0579  3.4813  0.3915
  362SOL     OW 1084   1.399   1.165   0.553 -0.2258  0.0206  0.4144
  362SOL    HW1 1085   1.316   1.141   0.612 -2.3044  0.1352 -0.9828
  362SOL    HW2 1086   1.367   1.215   0.473 -3.0856 -1.1294  4.1324
  363SOL     OW 1087   2.564   1.696   2.713  0.5277 -0.3821 -0.5216
  363SOL    HW1 1088   2.625   1.626   2.667 -1.6185  0.7813  1.0315
  363SOL    HW2 1089   2.622   1.765   2.771 -1.0335  1.0296  0.6682
  364SOL     OW 1090   1.012   0.265   1.585  0.0877  0.2661 -0.3542
  364SOL    HW1 1091   1.103   0.314   1.586 -1.0001  0.0643  0.2487
  364SOL    HW2 1092   0.982   0.252   1.682 -2.9063 -0.6511  2.0473
  365SOL     OW 1093   0.234   0.037   0.718  0.0296  0.0481  0.5338
  365SOL    HW1 1094   0.192   3.081   0.646  0.3977 -0.0472  0.0497
  365SOL    HW2 1095   0.183   0.031   0.806  1.1415  1.0795 -1.7289
  366SOL     OW 1096   2.895   1.562   3.003 -0.3486 -0.1468  0.0185
  366SOL    HW1 1097   2.918   1.562   0.001 -2.3275 -0.7642 -2.1657
  366SOL    HW2 1098   2.942   1.480   2.958  1.7750 -3.2995  0.6418
  367SOL     OW 1099   2.983   2.617   2.810  0.0668 -0.2990 -0.0379
  367SOL    HW1 1100   2.967   2.702   2.757 -2.3858  0.6629 -1.1984
  367SOL    HW2 1101   2.940   2.624   2.905  0.0027  1.1965  2.0804
  368SOL     OW 1102   2.994   2.009   0.585 -0.6721  0.2541  0.6077
  368SOL    HW1 1103   3.006   2.110   0.591  2.0846 -0.3896  0.8107
  368SOL    HW2 1104   3.085   1.956   0.595  1.7729 -1.9572 -0.9924
  369SOL     OW 1105   0.600   0.052   0.249 -0.0773 -0.6289 -0.0598
  369SOL    HW1 1106   0.533   3.081   0.277  1.0562 -1.3564  3.2215
  369SOL    HW2 1107   0.661   0.076   0.329  0.8278 -0.3416 -0.2868
  370SOL     OW 1108   0.410   0.984   1.047 -0.0308  0.6767 -0.8562
  370SOL    HW1 1109   0.319   1.023   1.030 -2.4758  0.6582  0.6839
  370SOL    HW2 1110   0.472   0.977   0.966  0.9915 -1.7782  1.1909
  371SOL     OW 1111   1.990   2.615   0.629 -0.1243  0.9767  0.3244
  371SOL    HW1 1112   1.980   2.560   0.543  0.5773  2.2332 -0.4377
  371SOL    HW2 1113   1.987   2.546   0.705 -1.1416 -0.8938  0.3452
  372SOL     OW 1114   0.086   0.997   2.773 -0.7680  0.2169 -0.0505
  372SOL    HW1 1115   0.008   1.060   2.751  1.3806  0.1739 -0.9766
  372SOL    HW2 1116   0.165   1.041   2.831 -0.6703 -0.8825 -0.5996
  373SOL     OW 1117   2.632   1.713   0.535 -0.1743 -0.9414 -0.1742
  373SOL    HW1 1118   2.684   1.692   0.619  1.4083  0.7938 -1.9639
  373SOL    HW2 1119   2.662   1.801   0.498 -2.1491 -2.0362  3.0420
  374SOL     OW 1120   0.234   2.579   0.206 -0.4202  0.1282  0.0807
  374SOL    HW1 1121   0.172   2.499   0.197  1.6218  1.4996  1.2003
  374SOL    HW2 1122   0.327   2.554   0.251  1.9565  0.3340 -0.4079
  375SOL     OW 1123   0.462   0.373   0.272  0.2208 -0.2384  0.3577
  375SOL    HW1 1124   0.486   0.289   0.322  1.0064  1.1987  1.1415
  375SOL    HW2 1125   0.504   0.454   0.324  1.2997 -0.2214  1.6572
  376SOL     OW 1126   0.327   2.803   1.807 -0.1383  0.0139  0.0321
  376SOL    HW1 1127   0.417   2.815   1.856  0.6959 -0.6181  0.8503
  376SOL    HW2 1128   0.306   2.882   1.742 -3.9794 -0.3409  0.1397
  377SOL     OW 1129   1.009   2.106   2.580  0.1861  0.2163 -0.4797
  377SOL    HW1 1130   1.055   2.107   2.488 -1.5450  0.5368 -0.4314
  377SOL    HW2 1131   0.960   2.197   2.599  0.6736  2.0787  0.1699
  378SOL     OW 1132   1.254   0.777   0.647  0.2794 -0.1370 -0.0927
  378SOL    HW1 1133   1.174   0.749   0.587  0.6620  0.6715 -0.4514
  378SOL    HW2 1134   1.338   0.814   0.597  1.6179  2.5532 -2.0669
  379SOL     OW 1135   0.745   1.545   0.080  0.5109 -0.1704 -0.2970
  379SOL    HW1 1136   0.677   1.480   0.041  0.8093 -2.3441 -0.6859
  379SOL    HW2 1137   0.776   1.612   0.012 -1.6495 -0.6228  1.6274
  380SOL     OW 1138   2.930   2.074   1.796 -0.4258 -0.2114 -0.0388
  380SOL    HW1 1139   3.004   2.123   1.748 -3.7933 -0.9146  1.0060
  380SOL    HW2 1140   2.955   1.983   1.833 -0.7175  1.0923 -0.4580
  381SOL     OW 1141   0.120   1.367   1.712 -0.3414 -0.0337  0.0567
  381SOL    HW1 1142   0.049   1.391   1.651  1.4262 -0.9173  2.1370
  381SOL    HW2 1143   0.148   1.272   1.696  2.9269 -1.2212  2.4724
  382SOL     OW 1144   2.647   2.203   0.484  0.4215 -0.0796 -0.5449
  382SOL    HW1 1145   2.558   2.175   0.512  2.1307  3.1092 -1.0979
  382SOL    HW2 1146   2.677   2.286   0.534 -2.0404 -1.6164 -1.5675
  383SOL     OW 1147   2.290   1.898   2.213 -0.0229 -0.2764  0.0159
  383SOL    HW1 1148   2.224   1.825   2.191  2.4167  1.1770 -0.2631
  383SOL    HW2 1149   2.387   1.861   2.228 -1.3429  0.1649  2.8387
  384SOL     OW 1150   0.740   1.940   2.236 -0.0802  0.2940 -0.5069
  384SOL    HW1 1151   0.839   1.898   2.233  1.3478 -2.2998 -1.7280
  384SOL    HW2 1152   0.718   1.976   2.327  2.3071 -0.1381 -0.9818
  385SOL     OW 1153   2.903   2.303   0.989  0.1278 -0.3427 -0.2225
  385SOL    HW1 1154   2.985   2.323   0.927  1.1011  0.4634 -0.7102
  385SOL    HW2 1155   2.928   2.215   1.032 -0.7157  4.4689  0.9556
  386SOL     OW 1156   1.807   0.677   0.228  0.2910  0.6713 -0.3136
  386SOL    HW1 1157   1.718   0.719   0.217 -0.3799  0.9911  1.0788
  386SOL    HW2 1158   1.828   0.672   0.326  0.2805  0.7003 -0.2926
  387SOL     OW 1159   0.393   0.926   1.549  0.0880  0.4072  0.5195
  387SOL    HW1 1160   0.444   0.862   1.491 -0.7539 -1.9032 -0.4389
  387SOL    HW2 1161   0.452   0.974   1.617 -1.6399 -2.0140  2.3749
  388SOL     OW 1162   2.892   0.959   2.168  0.7974 -0.1771 -0.0628
  388SOL    HW1 1163   2.937   1.044   2.189 -2.0542  1.3582 -1.5097
  388SOL    HW2 1164   2.942   0.871   2.195 -1.9486  1.9086 -0.3094
  389SOL     OW 1165   1.649   0.778   2.412 -0.5083  0.4074  0.4209
  389SOL    HW1 1166   1.610   0.821   2.327 -0.0081  1.2401  0.3182
  389SOL    HW2 1167   1.706   0.693   2.398  1.0882 -1.5557 -1.1018
  390SOL     OW 1168   2.011   2.498   3.073  0.0683  0.4377  0.4864
  390SOL    HW1 1169   1.917   2.531   0.007 -3.6164 -1.2471 -0.2917
  390SOL    HW2 1170   2.010   2.435   2.997  0.9621  4.7319  2.4200
  391SOL     OW 1171   1.742   2.317   1.113  0.4623  0.0403 -0.1799
  391SOL    HW1 1172   1.840   2.312   1.114 -1.7357  1.6684  1.2480
  391SOL    HW2 1173   1.705   2.357   1.198 -0.8504  2.3365  1.2985
  392SOL     OW 1174   2.887   2.455   1.360  0.0375  0.2519  0.1422
  392SOL    HW1 1175   2.948   2.530   1.323 -1.8719 -0.7731  0.4282
  392SOL    HW2 1176   2.810   2.436   1.297 -1.3887  0.3686 -0.7405
  393SOL     OW 1177   2.126   1.705   2.877  0.1392  0.2452  0.0925
  393SOL    HW1 1178   2.096   1.801   2.865  3.5156 -0.4626  0.7598
  393SOL    HW2 1179   2.206   1.696   2.939  1.1080  0.1335 -0.3386
  394SOL     OW 1180   0.289   3.095   3.050  0.0540 -0.1799  0.4265
  394SOL    HW1 1181   0.336   3.015   3.093  1.2355 -2.1112  1.3904
  394SOL    HW2 1182   0.358   0.061   3.014 -1.6009  0.4858  2.5422
  395SOL     OW 1183   1.709   1.093   1.324  0.5927 -0.4921 -0.4143
  395SOL    HW1 1184   1.672   1.133   1.236 -0.9543  1.8174 -0.1790
  395SOL    HW2 1185   1.680   0.995   1.318 -3.8786  1.2261 -1.2530
  396SOL     OW 1186   1.620   0.828   0.083 -0.3125  0.1020 -0.8221
  396SOL    HW1 1187   1.685   0.882   0.024  1.6213 -0.4294 -0.7219
  396SOL    HW2 1188   1.557   0.885   0.146 -0.9172 -2.4660 -1.7889
  397SOL     OW 1189   3.018   0.813   2.872  0.0757  0.3777  0.0188
  397SOL    HW1 1190   2.977   0.754   2.800 -2.2341  1.2736 -0.4408
  397SOL    HW2 1191   3.087   0.883   2.834  0.3712  2.3945 -1.1990
  398SOL     OW 1192   1.250   0.289   3.013  0.0856  0.0292  0.5082
  398SOL    HW1 1193   1.263   0.286   0.014 -0.6145  0.2260  1.7805
  398SOL    HW2 1194   1.218   0.197   2.985 -0.3416 -0.1011  1.1563
  399SOL     OW 1195   2.446   2.777   2.014 -0.2253 -0.4602  0.3792
  399SOL    HW1 1196   2.546   2.778   1.985 -0.2384 -0.7115 -2.0801
  399SOL    HW2 1197   2.411   2.687   2.044 -2.2898  3.1223 -1.6339
  400SOL     OW 1198   3.058   1.539   2.482  0.2570  0.2997 -0.2560
  400SOL    HW1 1199   3.094   1.482   2.410 -2.1188  2.1072  2.8488
  400SOL    HW2 1200   3.011   1.475   2.547  1.3000 -0.9288  0.7579
  401SOL     OW 1201   0.469   0.313   2.605  0.2152  0.3580  0.5844
  401SOL    HW1 1202   0.450   0.278   2.701 -0.9628 -3.5846  0.8122
  401SOL    HW2 1203   0.529   0.245   2.560 -1.2029  1.6631 -1.1682
  402SOL     OW 1204   0.424   2.378   1.738  0.1318 -0.0141  0.1061
  402SOL    HW1 1205   0.475   2.427   1.661  1.2779  0.2184 -1.6772
  402SOL    HW2 1206   0.458   2.403   1.829 -2.5235  2.5719 -1.3990
  403SOL     OW 1207   1.022   1.346   1.393 -0.0098 -0.0025  0.2955
  403SOL    HW1 1208   0.948   1.288   1.434  1.5599 -2.5215 -1.6631
  403SOL    HW2 1209   0.998   1.446   1.380  0.1653  1.7557 -2.1243
  404SOL     OW 1210   2.896   2.608   1.602 -0.4774  0.0096  0.1429
  404SOL    HW1 1211   2.817   2.671   1.585 -0.6115  3.5602 -0.3328
  404SOL    HW2 1212   2.886   2.526   1.538  2.5874  1.2868  0.2683
  405SOL     OW 1213   0.032   0.242   1.984 -0.0310 -0.3465  0.1202
  405SOL    HW1 1214   3.087   0.156   1.944 -0.7950 -2.6671 -1.3296
  405SOL    HW2 1215   0.038   0.237   2.086 -4.8269 -0.9924  4.2009
  406SOL     OW 1216   1.494   2.423   2.683 -0.0273  0.0303  0.1243
  406SOL    HW1 1217   1.523   2.334   2.734  1.8896  1.3958 -0.0047
  406SOL    HW2 1218   1.569   2.476   2.639 -0.0746 -0.8884 -2.0862
  407SOL     OW 1219   1.923   1.631   1.299 -0.9096 -0.1205 -0.1049
  407SOL    HW1 1220   1.830   1.603   1.329  1.8012 -1.0683  0.3674
  407SOL    HW2 1221   1.956   1.714   1.346 -0.6488 -0.4098  0.7939
  408SOL     OW 1222   0.676   0.202   2.108 -0.1514  0.3144  0.1348
  408SOL    HW1 1223   0.593   0.143   2.106 -1.3630 -0.6442 -1.4659
  408SOL    HW2 1224   0.750   0.158   2.159 -1.1600  3.2304 -2.1791
  409SOL     OW 1225   2.774   2.386   0.700 -0.2415 -0.0494  0.3110
  409SOL    HW1 1226   2.669   2.386   0.704  0.7522  0.4218 -1.5742
  409SOL    HW2 1227   2.815   2.320   0.766 -2.0412 -2.1323 -1.7931
  410SOL     OW 1228   2.078   1.581   0.404  0.8863  0.7315  0.3627
  410SOL    HW1 1229   2.174   1.546   0.400  0.4152  0.2433  0.3451
  410SOL    HW2 1230   2.025   1.559   0.494 -0.7737 -0.4219  1.0973
  411SOL     OW 1231   0.003   0.712   0.700 -0.4351 -0.0948 -0.3239
  411SOL    HW1 1232   0.087   0.662   0.673 -1.6806 -0.0711  1.0363
  411SOL    HW2 1233   3.091   0.795   0.644  1.2583  0.4364  2.4731
  412SOL     OW 1234   1.984   0.679   0.501  0.4380 -0.3023  0.5413
  412SOL    HW1 1235   2.001   0.692   0.604  0.9085  0.9727  0.8826
  412SOL    HW2 1236   2.039   0.749   0.452 -1.7643 -2.6675  0.7464
  413SOL     OW 1237   0.925   0.601   1.058 -0.3727  0.3552  0.2205
  413SOL    HW1 1238   0.865   0.578   1.141 -0.2430  1.0029 -1.5366
  413SOL    HW2 1239   1.023   0.615   1.081  1.9452  0.6353 -0.5480
  414SOL     OW 1240   0.358   1.635   0.112  0.5277  0.0743 -0.4346
  414SOL    HW1 1241   0.257   1.641   0.113 -2.1189 -0.3429  0.5561
  414SOL    HW2 1242   0.382   1.623   0.207 -1.7017  0.5104 -1.1040
  415SOL     OW 1243   0.235   2.186   0.057 -0.1092 -0.3996  0.2128
  415SOL    HW1 1244   0.336   2.209   0.042  1.5780  0.1459 -0.8529
  415SOL    HW2 1245   0.177   2.199   3.072 -0.8407  1.4519 -1.5153
  416SOL     OW 1246   1.720   0.740   0.601 -0.0168  0.0932  0.2951
  416SOL    HW1 1247   1.799   0.718   0.547 -1.0251  0.9480  1.8190
  416SOL    HW2 1248   1.747   0.797   0.680  0.4077  0.6212  0.8994
  417SOL     OW 1249   0.234   0.910   0.544 -0.3776  0.3437  0.4504
  417SOL    HW1 1250   0.176   0.853   0.480  0.6025  1.5496  1.1984
  417SOL    HW2 1251   0.178   0.986   0.583  1.0485  2.3961  0.5566
  418SOL     OW 1252   2.645   1.014   2.705 -0.2714 -0.1336 -0.1611
  418SOL    HW1 1253   2.625   1.112   2.698  0.9806 -1.2365 -0.1817
  418SOL    HW2 1254   2.557   0.966   2.713  3.1215  0.4564 -2.0778
  419SOL     OW 1255   0.306   0.497   0.104 -0.1494  0.3193  0.0098
  419SOL    HW1 1256   0.369   0.448   0.170 -0.4649 -0.6722 -0.0227
  419SOL    HW2 1257   0.223   0.441   0.084  1.3950 -0.4138 -1.8974
  420SOL     OW 1258   0.250   1.445   0.720  0.4615  0.6877 -0.1295
  420SOL    HW1 1259   0.202   1.476   0.803  1.7084 -1.0734 -0.3954
  420SOL    HW2 1260   0.351   1.475   0.731  3.0526  0.5340  0.6944
  421SOL     OW 1261   0.525   1.979   0.437  0.2250  0.6707  0.3736
  421SOL    HW1 1262   0.523   2.080   0.435 -0.7386 -1.7502 -1.8298
  421SOL    HW2 1263   0.526   1.954   0.535  0.6328  3.7773  0.4289
  422SOL     OW 1264   2.753   0.796   1.305  0.0653 -0.2451 -0.2172
  422SOL    HW1 1265   2.791   0.731   1.376  2.0610 -1.4940  1.1241
  422SOL    HW2 1266   2.762   0.753   1.212 -0.9329  1.5149 -0.6680
  423SOL     OW 1267   1.891   1.585   0.965 -0.1716  0.3268 -0.1750
  423SOL    HW1 1268   1.907   1.613   1.062 -1.2720  1.6887  0.5754
  423SOL    HW2 1269   1.825   1.632   0.904  0.7141  0.1209 -0.1872
  424SOL     OW 1270   1.947   1.166   0.512 -0.4602 -0.2736  0.3438
  424SOL    HW1 1271   1.979   1.124   0.425 -1.4417  2.1573 -0.2122
  424SOL    HW2 1272   1.898   1.251   0.492  0.9605 -3.9366  5.1014
  425SOL     OW 1273   0.148   3.010   2.156  0.1905  0.2235  0.1885
  425SOL    HW1 1274   0.205   3.080   2.201 -2.1243 -1.1673 -1.9284
  425SOL    HW2 1275   0.109   2.948   2.225  0.7807 -1.8921 -0.1597
  426SOL     OW 1276   2.481   2.763   2.846  0.0082  0.3772 -0.5655
  426SOL    HW1 1277   2.464   2.727   2.936  0.6512  0.4345 -2.3798
  426SOL    HW2 1278   2.561   2.824   2.841 -0.5599 -1.3718  1.5363
  427SOL     OW 1279   0.948   1.014   2.499  0.1056  0.2254 -0.4377
  427SOL    HW1 1280   0.895   0.931   2.467  0.3255  1.4596  1.4009
  427SOL    HW2 1281   1.050   0.996   2.507  0.8111 -4.0219 -3.7635
  428SOL     OW 1282   2.145   0.712   2.512 -0.0819  0.0805 -0.4137
  428SOL    HW1 1283   2.197   0.685   2.597 -1.1552  2.2786 -0.1469
  428SOL    HW2 1284   2.088   0.793   2.541 -1.3994 -2.2694 -0.8298
  429SOL     OW 1285   2.537   0.343   0.654 -0.0829  0.0507  0.1977
  429SOL    HW1 1286   2.537   0.307   0.557  0.5813  2.1381  2.4270
  429SOL    HW2 1287   2.449   0.370   0.686  2.5595  0.2396 -4.4594
  430SOL     OW 1288   2.092   1.241   2.067 -0.2428 -0.2414  0.2763
  430SOL    HW1 1289   2.118   1.203   2.161 -0.7910 -1.1097  3.0314
  430SOL    HW2 1290   2.130   1.185   1.990 -1.0643 -0.7773 -0.6339
  431SOL     OW 1291   3.001   1.993   1.358  0.6903  0.1484 -0.1991
  431SOL    HW1 1292   3.013   2.082   1.406 -0.6067 -0.0472  2.0337
  431SOL    HW2 1293   3.065   1.923   1.392  1.2500  1.0172  0.1568
  432SOL     OW 1294   1.507   2.932   2.536 -0.3122  0.5887 -0.1496
  432SOL    HW1 1295   1.511   2.988   2.618 -0.1052 -3.2797  0.4230
  432SOL    HW2 1296   1.557   2.978   2.455  1.2926 -0.6142 -1.8227
  433SOL     OW 1297   1.600   2.814   1.749  0.1845 -0.5398 -0.6544
  433SOL    HW1 1298   1.625   2.734   1.698 -3.5427  4.9898  0.7459
  433SOL    HW2 1299   1.622   2.900   1.695  0.0245 -0.8715  3.6691
  434SOL     OW 1300   0.035   2.408   2.282 -0.4085 -0.3410  0.1966
  434SOL    HW1 1301   0.042   2.477   2.359 -3.0212 -0.1147 -1.1241
  434SOL    HW2 1302   0.041   2.457   2.194 -1.0515 -1.4751  3.3889
  435SOL     OW 1303   2.992   2.001   0.031  0.1893 -0.1114 -0.2870
  435SOL    HW1 1304   3.066   1.970   3.070 -1.0041 -0.5858  0.5653
  435SOL    HW2 1305   2.961   1.924   0.090  2.5250 -0.5844  1.0102
  436SOL     OW 1306   0.963   1.065   1.776  0.0045  0.0610  0.0755
  436SOL    HW1 1307   1.042   1.024   1.719  4.5524  1.1043  1.8850
  436SOL    HW2 1308   0.992   1.089   1.872 -0.5414  0.8030 -0.1008
  437SOL     OW 1309   0.163   0.272   2.817 -0.2919  0.1287  0.7933
  437SOL    HW1 1310   0.244   0.244   2.876 -0.2143  0.3115  2.7495
  437SOL    HW2 1311   0.152   0.217   2.732 -1.0721  2.1280  0.7723
  438SOL     OW 1312   0.693   1.504   1.526  0.1175 -0.1312 -0.1361
  438SOL    HW1 1313   0.636   1.584   1.548 -0.5083  0.0104 -1.4742
  438SOL    HW2 1314   0.765   1.500   1.595 -0.2866  0.7396 -1.5079
  439SOL     OW 1315   1.900   1.135   2.891 -0.3120 -0.1130  0.3703
  439SOL    HW1 1316   1.830   1.111   2.961  2.2828 -0.1200 -0.9216
  439SOL    HW2 1317   1.991   1.154   2.928 -0.0665 -1.1744 -3.0963
  440SOL     OW 1318   0.876   0.852   0.204 -0.3454  0.0878  0.0903
  440SOL    HW1 1319   0.912   0.919   0.272 -1.5647 -1.6490 -0.9201
  440SOL    HW2 1320   0.779   0.841   0.233 -0.8291  0.1458  0.0606
  441SOL     OW 1321   0.560   2.522   1.573  0.0647  0.1222 -0.2366
  441SOL    HW1 1322   0.549   2.517   1.474  0.2952  0.4482  1.4737
  441SOL    HW2 1323   0.609   2.602   1.604  0.2390 -1.0004 -0.9495
  442SOL     OW 1324   2.398   2.085   0.554 -0.0626 -0.3309  0.0681
  442SOL    HW1 1325   2.341   2.168   0.575 -0.7632 -1.4797  0.9602
  442SOL    HW2 1326   2.340   2.002   0.568  1.5905 -0.7136 -0.6245
  443SOL     OW 1327   2.715   1.564   2.533  0.3183 -0.3483  0.4312
  443SOL    HW1 1328   2.709   1.620   2.446  1.6127 -1.2210 -0.7014
  443SOL    HW2 1329   2.805   1.582   2.585  2.0279  2.1627 -0.2992
  444SOL     OW 1330   1.229   0.957   0.164 -0.3520  0.1022  0.4771
  444SOL    HW1 1331   1.158   0.936   0.092 -1.2148  0.2235 -3.1354
  444SOL    HW2 1332   1.187   0.960   0.255  0.1212  1.7085  0.4072
  445SOL     OW 1333   2.321   2.578   1.667 -0.0322  0.0149  0.1159
  445SOL    HW1 1334   2.404   2.529   1.628  3.2164  0.6350  0.2172
  445SOL    HW2 1335   2.321   2.678   1.668 -1.3970  1.4488 -0.2292
  446SOL     OW 1336   2.753   1.949   0.414 -0.7405 -0.1049  0.3506
  446SOL    HW1 1337   2.842   1.953   0.461 -0.4525 -2.6358 -1.2084
  446SOL    HW2 1338   2.709   2.039   0.428 -0.3593 -2.5853  0.0062
  447SOL     OW 1339   0.976   2.308   1.416 -0.0803  0.3272 -0.0435
  447SOL    HW1 1340   0.971   2.394   1.470  0.7481 -0.6598 -0.3050
  447SOL    HW2 1341   0.883   2.274   1.406  2.9498 -0.0815  0.7591
  448SOL     OW 1342   1.568   1.718   1.844  0.3962 -0.0869  0.0384
  448SOL    HW1 1343   1.634   1.679   1.912 -2.3581  1.9071  3.7661
  448SOL    HW2 1344   1.506   1.786   1.894  1.4749  1.9031  0.4829
  449SOL     OW 1345   0.138   1.906   2.277  0.4649  0.3122 -0.2029
  449SOL    HW1 1346   0.113   1.997   2.241 -1.0018 -1.6080  0.4178
  449SOL    HW2 1347   0.202   1.862   2.208  0.6402  0.9102  1.7443
  450SOL     OW 1348   2.910   2.103   2.290  0.0397 -0.6204  0.2840
  450SOL    HW1 1349   2.907   2.188   2.346  0.8926  0.4964 -1.0315
  450SOL    HW2 1350   2.904   2.121   2.192  1.5308 -0.1905 -1.5184
  451SOL     OW 1351   2.157   0.661   1.626  0.3830 -0.4114 -0.0763
  451SOL    HW1 1352   2.232   0.679   1.558 -1.1038 -1.2701  0.8560
  451SOL    HW2 1353   2.132   0.561   1.630  1.4748 -2.3601 -1.7376
  452SOL     OW 1354   0.955   1.582   0.784  0.0061  0.0174 -0.2442
  452SOL    HW1 1355   0.856   1.563   0.815 -2.1042  0.4019  0.3659
  452SOL    HW2 1356   0.965   1.582   0.683  1.2375  1.1613  0.1912
  453SOL     OW 1357   1.187   2.177   0.911  0.2149 -0.2702 -0.8931
  453SOL    HW1 1358   1.210   2.137   0.821 -3.4607  0.2878 -1.3944
  453SOL    HW2 1359   1.115   2.254   0.909 -0.9485  2.4440  0.0356
  454SOL     OW 1360   0.078   1.414   0.343 -0.5214 -0.3861  0.4492
  454SOL    HW1 1361   0.087   1.367   0.430 -1.8107  1.5507  1.8247
  454SOL    HW2 1362   0.148   1.382   0.279 -2.1670  0.6346  0.3468
  455SOL     OW 1363   0.879   1.108   0.351  0.2112  0.7017 -0.1890
  455SOL    HW1 1364   0.977   1.086   0.360 -2.5111 -0.9135 -1.0379
  455SOL    HW2 1365   0.864   1.174   0.274  0.4362 -0.6374  0.4551
  456SOL     OW 1366   2.215   2.312   0.918 -0.3254  0.0570 -0.1413
  456SOL    HW1 1367   2.155   2.344   0.843 -0.1812 -1.1558 -1.5413
  456SOL    HW2 1368   2.259   2.221   0.896  0.8482 -0.5558 -0.8117
  457SOL     OW 1369   1.295   2.902   2.922  0.2329 -0.0817  0.6479
  457SOL    HW1 1370   1.387   2.862   2.934  0.2129  1.6910 -1.9524
  457SOL    HW2 1371   1.239   2.878   3.001  1.9550  1.1202  1.4318
  458SOL     OW 1372   2.496   0.408   0.220 -0.2664 -0.6287 -0.2173
  458SOL    HW1 1373   2.406   0.438   0.259  0.3008 -0.5041 -0.0947
  458SOL    HW2 1374   2.537   0.338   0.278  1.8378 -1.8184 -0.0760
  459SOL     OW 1375   2.192   0.333   2.142 -0.1830 -0.0436  0.2459
  459SOL    HW1 1376   2.129   0.397   2.192 -0.5500 -1.6144 -1.0335
  459SOL    HW2 1377   2.291   0.359   2.144 -2.3246  0.6261 -0.8215
  460SOL     OW 1378   2.773   0.606   2.867  0.0242  0.3425 -0.9962
  460SOL    HW1 1379   2.793   0.558   2.958 -1.5835 -0.3139  2.1667
  460SOL    HW2 1380   2.781   0.544   2.788 -3.3290  0.4699  0.1059
  461SOL     OW 1381   0.011   2.334   0.788  0.0474  0.1863  0.0656
  461SOL    HW1 1382   0.102   2.286   0.778  1.1009 -3.4095  0.9807
  461SOL    HW2 1383   3.067   2.330   0.700 -1.1358 -0.0987  1.5982
  462SOL     OW 1384   2.848   0.047   1.168  0.7742  0.3723 -0.0150
  462SOL    HW1 1385   2.773   3.078   1.155  1.1868 -1.7505  0.3979
  462SOL    HW2 1386   2.807   0.142   1.184 -1.1710  1.3034 -1.0946
  463SOL     OW 1387   2.176   1.391   0.054 -0.0758  0.3233  0.0470
  463SOL    HW1 1388   2.273   1.423   0.043  1.8028  1.6999  0.8774
  463SOL    HW2 1389   2.152   1.321   3.081 -2.0695  1.1740 -2.3771
  464SOL     OW 1390   0.801   2.623   1.245 -0.0321  0.3253 -0.3996
  464SOL    HW1 1391   0.874   2.558   1.211  0.8461 -0.3095 -2.2344
  464SOL    HW2 1392   0.826   2.659   1.336 -1.3399 -0.1384 -0.7129
  465SOL     OW 1393   0.969   0.281   1.323 -0.4136 -0.0973  0.0746
  465SOL    HW1 1394   0.962   0.289   1.425 -0.4640 -0.7353  2.0309
  465SOL    HW2 1395   0.886   0.295   1.267  0.6456  0.0614 -1.3694
  466SOL     OW 1396   1.724   2.408   1.921 -0.0325 -0.3491  0.0901
  466SOL    HW1 1397   1.734   2.403   2.025 -1.2726  0.3422  0.0649
  466SOL    HW2 1398   1.624   2.419   1.898  0.6585  0.9540 -1.7120
  467SOL     OW 1399   0.701   2.217   1.376  0.7889 -0.6370  0.1669
  467SOL    HW1 1400   0.620   2.259   1.411 -0.8360 -2.0808 -3.3025
  467SOL    HW2 1401   0.683   2.199   1.280 -0.1055 -0.2540 -0.8947
  468SOL     OW 1402   2.637   1.663   2.108 -0.0604 -0.3891  0.2032
  468SOL    HW1 1403   2.689   1.706   2.184  0.8210 -0.2847  0.6823
  468SOL    HW2 1404   2.690   1.584   2.073 -0.8195  0.7450  3.8599
  469SOL     OW 1405   0.883   2.016   0.585  0.0543 -0.3669 -0.5798
  469SOL    HW1 1406   0.781   2.022   0.602 -1.6178 -0.6704  1.3280
  469SOL    HW2 1407   0.924   1.960   0.660 -0.1937 -2.3732  2.2388
  470SOL     OW 1408   2.169   1.132   2.294  0.0131  0.4291  0.6299
  470SOL    HW1 1409   2.182   1.031   2.279  0.5691  0.3926 -1.4433
  470SOL    HW2 1410   2.206   1.161   2.387  2.5578 -0.7430  0.8029
  471SOL     OW 1411   0.356   2.543   3.062 -0.8055 -0.1402 -0.2961
  471SOL    HW1 1412   0.292   2.575   0.040 -1.6995 -2.0135  2.4959
  471SOL    HW2 1413   0.446   2.511   0.003  0.1487  1.6738  0.4373
  472SOL     OW 1414   0.327   2.759   2.181 -0.3391  0.3246 -0.2272
  472SOL    HW1 1415   0.272   2.840   2.145  1.4861  0.9137  1.8446
  472SOL    HW2 1416   0.429   2.782   2.186  0.8887  0.2062  1.5924
  473SOL     OW 1417   0.384   2.857   0.055  0.4056 -0.0673  0.3379
  473SOL    HW1 1418   0.336   2.800   3.088  2.3554  0.0507 -0.8102
  473SOL    HW2 1419   0.425   2.796   0.123 -0.8163  0.0169  0.0200
  474SOL     OW 1420   2.030   2.995   1.130 -0.1759 -0.2586  0.1511
  474SOL    HW1 1421   2.042   3.072   1.060  0.9937  0.3531 -3.7665
  474SOL    HW2 1422   2.103   2.926   1.109 -2.7688  0.1108 -1.5911
  475SOL     OW 1423   1.737   3.054   1.710  0.5238  0.2919  0.3032
  475SOL    HW1 1424   1.810   3.047   1.779 -0.5750  1.0405 -0.4294
  475SOL    HW2 1425   1.743   0.041   1.655  2.3547  1.8162 -3.1221
  476SOL     OW 1426   0.663   1.374   0.813  0.1077 -0.1427  0.2347
  476SOL    HW1 1427   0.581   1.439   0.823 -3.1830  1.7413  0.4040
  476SOL    HW2 1428   0.648   1.274   0.832  0.9096 -0.8346 -0.2670
  477SOL     OW 1429   0.147   1.915   0.645  0.0000  0.3893 -0.2049
  477SOL    HW1 1430   0.206   1.892   0.562  1.7605  0.7337  2.2929
  477SOL    HW2 1431   0.132   1.830   0.698 -0.5453 -0.1138 -1.0462
  478SOL     OW 1432   0.058   2.541   2.522  0.0909  0.1190  0.2834
  478SOL    HW1 1433   0.046   2.627   2.578  0.6611  2.2325  1.4169
  478SOL    HW2 1434   0.048   2.454   2.578  0.5229  0.4753  1.6332
  479SOL     OW 1435   2.913   0.482   1.354  0.8728 -0.6196  0.4351
  479SOL    HW1 1436   3.015   0.492   1.327  3.2676  1.5200 -0.9075
  479SOL    HW2 1437   2.916   0.436   1.446 -1.9241 -0.7191  0.1120
  480SOL     OW 1438   2.849   2.656   3.042  0.5075  0.0816  0.5783
  480SOL    HW1 1439   2.919   2.612   0.001  0.6874  1.7146  0.9180
  480SOL    HW2 1440   2.759   2.604   3.055 -0.3240  3.7177  0.0107
  481SOL     OW 1441   2.319   1.890   1.884 -0.0306 -0.0139 -0.9497
  481SOL    HW1 1442   2.223   1.881   1.920 -0.3083 -0.5049 -1.3532
  481SOL    HW2 1443   2.323   1.980   1.843  0.5735 -2.7600  0.6846
  482SOL     OW 1444   1.920   2.063   2.463  0.1020 -0.1775 -0.2780
  482SOL    HW1 1445   2.017   2.064   2.426  0.8343 -0.8277 -1.4028
  482SOL    HW2 1446   1.855   1.998   2.417  1.4930 -2.4458  1.7082
  483SOL     OW 1447   0.931   1.471   2.224 -0.0577 -0.6314  0.0507
  483SOL    HW1 1448   0.924   1.377   2.254  0.8707 -0.8720 -0.3037
  483SOL    HW2 1449   1.022   1.499   2.182 -1.0189 -2.9248 -0.0405
  484SOL     OW 1450   0.102   0.475   1.311 -0.2610  0.1153 -0.1088
  484SOL    HW1 1451   0.151   0.521   1.233 -0.7611  3.0003 -0.0277
  484SOL    HW2 1452   0.134   0.514   1.402  1.1294 -0.6632  0.0015
  485SOL     OW 1453   2.352   1.007   0.151 -0.2361  0.3940 -0.4493
  485SOL    HW1 1454   2.278   0.939   0.129 -0.8198 -1.0525 -1.8597
  485SOL    HW2 1455   2.369   1.015   0.250  0.6203  3.2398 -0.7886
  486SOL     OW 1456   1.543   0.227   2.074  0.2694 -0.2891 -0.1057
  486SOL    HW1 1457   1.549   0.134   2.035 -0.9873 -1.0972  0.9410
  486SOL    HW2 1458   1.628   0.252   2.126 -1.8975  0.7377 -0.5076
  487SOL     OW 1459   0.831   1.886   1.351 -0.7068 -0.0439 -0.1524
  487SOL    HW1 1460   0.747   1.895   1.402  3.2448 -0.8443 -3.0924
  487SOL    HW2 1461   0.915   1.902   1.406  0.9061  1.7507  0.8373
  488SOL     OW 1462   2.424   1.476   3.093 -0.1011 -0.5158 -0.5022
  488SOL    HW1 1463   2.512   1.455   3.047 -1.5401 -1.6474 -0.5786
  488SOL    HW2 1464   2.391   1.572   3.058  0.2092  4.6519  1.0467
  489SOL     OW 1465   2.251   2.722   0.562 -0.2462  0.0126 -0.3210
  489SOL    HW1 1466   2.165   2.682   0.603 -1.0300 -0.2709  0.1713
  489SOL    HW2 1467   2.229   2.784   0.480 -2.1525  1.3730 -0.5352
  490SOL     OW 1468   1.110   2.577   0.029  0.6028 -0.3450 -0.4752
  490SOL    HW1 1469   1.150   2.565   3.035  1.1537  0.2328  1.8074
  490SOL    HW2 1470   1.010   2.558   0.025  1.1355  0.6821 -1.0872
  491SOL     OW 1471   0.942   1.303   1.129 -0.2039  0.0197  0.7077
  491SOL    HW1 1472   1.002   1.301   1.214  1.4559  0.6769  0.2795
  491SOL    HW2 1473   0.985   1.366   1.065  0.4425 -0.8114  0.1783
  492SOL     OW 1474   1.288   0.200   2.605 -0.0370 -0.0355  0.0048
  492SOL    HW1 1475   1.348   0.132   2.654 -1.3341 -1.8165 -0.7582
  492SOL    HW2 1476   1.278   0.287   2.653  1.5873  0.6777 -0.3407
  493SOL     OW 1477   1.955   2.156   0.051  0.2089 -0.1274  0.0631
  493SOL    HW1 1478   1.887   2.192   3.082 -0.9488  0.8186 -1.7384
  493SOL    HW2 1479   2.050   2.155   0.008 -0.3756  0.4885 -3.0934
  494SOL     OW 1480   0.722   1.419   0.538 -0.0497  0.2099  1.1421
  494SOL    HW1 1481   0.696   1.516   0.550 -1.4964  2.5807  1.0545
  494SOL    HW2 1482   0.718   1.375   0.629 -0.2499  1.3838  0.2178
  495SOL     OW 1483   2.799   2.649   0.588  0.2370 -0.7416 -0.7759
  495SOL    HW1 1484   2.813   2.654   0.486 -1.0823 -0.4891 -0.4238
  495SOL    HW2 1485   2.811   2.557   0.627 -0.1227  1.9220  2.3560
  496SOL     OW 1486   2.553   2.956   1.706  0.0721  0.5692 -0.0795
  496SOL    HW1 1487   2.541   3.009   1.794  4.2118  1.5288 -1.4975
  496SOL    HW2 1488   2.540   3.020   1.628  0.0286 -1.8959  0.9015
  497SOL     OW 1489   2.449   0.941   2.412  0.3471  0.4935 -0.3327
  497SOL    HW1 1490   2.465   0.942   2.313 -0.3641  1.2500  1.7417
  497SOL    HW2 1491   2.402   1.022   2.446  0.3696 -4.0770 -0.3085
  498SOL     OW 1492   0.405   2.112   0.972  0.2420  0.4359 -0.0513
  498SOL    HW1 1493   0.343   2.130   0.887  0.3667  1.2624 -6.0718
  498SOL    HW2 1494   0.347   2.102   1.051  3.6699 -1.3838 -0.2955
  499SOL     OW 1495   1.007   2.559   1.537 -0.0889  0.7381  0.0061
  499SOL    HW1 1496   0.966   2.626   1.604 -1.7593  1.2954 -1.4079
  499SOL    HW2 1497   1.083   2.611   1.495 -1.9050  0.2995 -0.0462
  500SOL     OW 1498   0.997   2.186   0.117  0.8143 -0.2821 -0.2197
  500SOL    HW1 1499   0.945   2.100   0.103  3.5276  2.4005 -0.5635
  500SOL    HW2 1500   1.058   2.212   0.043 -1.6254  1.2494  1.8421
  501SOL     OW 1501   2.072   3.053   1.394 -0.0309  0.2383  1.0340
  501SOL    HW1 1502   2.031   3.039   1.300 -3.3432  1.0647  0.9531
  501SOL    HW2 1503   2.054   2.969   1.446 -0.6506 -0.7856  0.6331
  502SOL     OW 1504   2.730   0.207   1.572  0.3460  0.7834  0.1182
  502SOL    HW1 1505   2.715   0.167   1.669  2.0588 -0.4582  0.7657
  502SOL    HW2 1506   2.818   0.260   1.562  0.5806  1.6238  2.7090
  503SOL     OW 1507   2.762   0.958   1.934  0.1175 -0.2347 -0.7277
  503SOL    HW1 1508   2.830   0.956   1.857 -0.7545  1.3809  0.1467
  503SOL    HW2 1509   2.814   0.969   2.021  1.9445 -1.8836 -0.5641
  504SOL     OW 1510   1.480   0.734   1.764 -0.4270  0.2708  0.3461
  504SOL    HW1 1511   1.533   0.688   1.845  3.7698  1.2653  3.2507
  504SOL    HW2 1512   1.391   0.763   1.804  1.6596 -1.5000 -1.4103
  505SOL     OW 1513   0.901   2.993   1.996 -0.3257 -0.0181  0.0686
  505SOL    HW1 1514   0.876   2.912   2.052 -1.8288  0.4165 -0.1695
  505SOL    HW2 1515   0.925   3.074   2.053 -0.7101 -0.1615  1.2415
  506SOL     OW 1516   0.279   0.301   0.784 -0.0683 -0.1211  0.2856
  506SOL    HW1 1517   0.251   0.210   0.746 -1.4083  0.6808 -1.3476
  506SOL    HW2 1518   0.291   0.297   0.886 -1.7151  0.7422  1.1217
  507SOL     OW 1519   2.169   0.366   0.078  0.4621  0.4752  0.0176
  507SOL    HW1 1520   2.189   0.394   0.178 -0.8858  1.8591 -0.4457
  507SOL    HW2 1521   2.106   0.429   0.030 -1.0732  1.6077  1.7725
  508SOL     OW 1522   1.733   0.209   2.295  0.1661  0.5273 -0.4278
  508SOL    HW1 1523   1.764   0.303   2.292 -0.3087 -2.8777  1.2239
  508SOL    HW2 1524   1.691   0.191   2.388  2.6747  1.8701  0.4101
  509SOL     OW 1525   1.412   1.526   1.532 -0.2949  0.3722  0.3984
  509SOL    HW1 1526   1.409   1.478   1.619  0.5628 -0.7672 -0.9294
  509SOL    HW2 1527   1.368   1.468   1.458  1.0709 -0.7323 -2.1220
  510SOL     OW 1528   2.637   1.218   0.730 -0.0170  0.1128  0.5353
  510SOL    HW1 1529   2.707   1.204   0.807 -0.2994 -1.0450 -1.2128
  510SOL    HW2 1530   2.595   1.308   0.748 -0.7236 -0.9313 -0.1862
  511SOL     OW 1531   1.692   2.051   1.178  0.1701  0.0726 -0.4329
  511SOL    HW1 1532   1.690   2.150   1.162 -0.9176  0.8743  2.7765
  511SOL    HW2 1533   1.779   2.010   1.165 -2.7358  0.3692  2.0236
  512SOL     OW 1534   0.014   1.656   0.456 -0.0917 -0.1352  0.1339
  512SOL    HW1 1535   0.016   1.561   0.410  1.9986 -0.9104  0.0130
  512SOL    HW2 1536   0.101   1.701   0.445 -2.7197 -0.4851 -2.7751
  513SOL     OW 1537   2.966   2.182   0.306 -0.3414  0.2738  0.4226
  513SOL    HW1 1538   2.966   2.101   0.247  0.7538  1.2363  2.3945
  513SOL    HW2 1539   2.884   2.236   0.289 -0.5966 -0.5374  2.0353
  514SOL     OW 1540   2.499   2.161   2.426 -0.3529  0.1906  0.0869
  514SOL    HW1 1541   2.430   2.232   2.399 -2.7034  1.6366  0.6677
  514SOL    HW2 1542   2.551   2.199   2.504  0.2367 -0.4779 -3.4723
  515SOL     OW 1543   1.937   1.492   0.627 -0.2207 -0.4577  0.2754
  515SOL    HW1 1544   1.953   1.436   0.712 -1.8365  1.6177 -1.6230
  515SOL    HW2 1545   1.855   1.452   0.579 -2.7382  0.8698 -0.9461
  516SOL     OW 1546   1.988   3.048   0.519 -0.1439 -0.4314 -0.6690
  516SOL    HW1 1547   2.024   0.038   0.492 -1.0602 -3.7259 -3.6731
  516SOL    HW2 1548   1.969   2.988   0.442 -0.0799 -3.0673 -0.9056
  517SOL     OW 1549   0.825   1.862   2.675 -0.2388  0.0999  0.0296
  517SOL    HW1 1550   0.907   1.915   2.648 -0.4223 -1.9166 -2.1821
  517SOL    HW2 1551   0.742   1.915   2.651 -2.3664  0.4174  0.1779
  518SOL     OW 1552   0.577   0.515   1.746  0.1738  0.0291 -0.3781
  518SOL    HW1 1553   0.484   0.543   1.780  0.5499 -1.5440  0.0580
  518SOL    HW2 1554   0.615   0.438   1.802  0.6253 -0.0427 -3.9404
  519SOL     OW 1555   0.012   1.128   0.271  0.0467  0.3387 -0.5960
  519SOL    HW1 1556   0.083   1.191   0.244  1.3841  0.1537  3.0970
  519SOL    HW2 1557   3.051   1.158   0.354 -1.7892  1.0541  2.4266
  520SOL     OW 1558   2.898   1.738   1.647 -0.4466 -0.3190  0.3600
  520SOL    HW1 1559   2.952   1.774   1.726  1.7503  2.4905  0.0276
  520SOL    HW2 1560   2.821   1.803   1.629 -2.0296  2.6646  1.7415
  521SOL     OW 1561   0.545   2.546   2.454 -0.3996 -0.2816  0.2460
  521SOL    HW1 1562   0.573   2.534   2.359  0.4461  0.1863  1.3919
  521SOL    HW2 1563   0.460   2.600   2.457 -0.2850  0.4182  1.5425
  522SOL     OW 1564   1.830   3.073   2.166 -0.2335 -0.1504  0.2313
  522SOL    HW1 1565   1.875   3.075   2.070  0.7442 -1.4955 -1.8618
  522SOL    HW2 1566   1.829   0.071   2.202  2.1905  2.3136 -0.8062
  523SOL     OW 1567   1.985   1.945   1.691  0.3173 -0.6608  0.0445
  523SOL    HW1 1568   2.046   2.032   1.694  1.0454  1.9016  1.1739
  523SOL    HW2 1569   2.003   1.887   1.772  1.2869  0.9888 -2.5119
  524SOL     OW 1570   0.581   2.770   0.266  0.0590  0.0688  0.2963
  524SOL    HW1 1571   0.526   2.839   0.318  0.9159  0.3924  1.1001
  524SOL    HW2 1572   0.671   2.808   0.262 -1.1211 -3.1091 -0.0064
  525SOL     OW 1573   2.951   0.378   0.340 -0.0148 -0.0357  0.2350
  525SOL    HW1 1574   2.889   0.455   0.309 -0.5183  0.6305  2.3872
  525SOL    HW2 1575   3.048   0.408   0.352  3.7247 -0.7524  1.4459
  526SOL     OW 1576   0.701   2.713   0.644  0.2139 -0.0256 -0.3403
  526SOL    HW1 1577   0.718   2.718   0.744 -0.4738 -2.7985 -0.5658
  526SOL    HW2 1578   0.601   2.726   0.638 -0.0231 -2.1580 -0.8939
  527SOL     OW 1579   2.586   2.046   0.954  0.3854  0.2263 -0.2552
  527SOL    HW1 1580   2.604   2.071   1.049  0.7843 -2.0477 -1.5399
  527SOL    HW2 1581   2.669   2.061   0.894  0.3434  1.7004 -1.8621
  528SOL     OW 1582   2.939   0.374   2.243 -0.5650 -0.4939 -0.0605
  528SOL    HW1 1583   2.958   0.422   2.331 -0.8947  1.9548  2.8287
  528SOL    HW2 1584   3.009   0.298   2.227 -0.6770 -2.6366 -1.8884
  529SOL     OW 1585   1.226   1.360   2.582  0.1719  0.4514 -0.5642
  529SOL    HW1 1586   1.286   1.303   2.643  0.7828 -0.2388  0.5611
  529SOL    HW2 1587   1.134   1.367   2.628 -1.7422 -0.0321 -0.4392
  530SOL     OW 1588   1.767   1.221   2.687  0.3875 -0.1688 -0.2026
  530SOL    HW1 1589   1.760   1.151   2.621  0.7297  2.2377  1.3359
  530SOL    HW2 1590   1.815   1.185   2.769 -0.9112 -1.6002 -0.0427
  531SOL     OW 1591   0.650   1.484   2.508 -0.4006  0.5768  0.4978
  531SOL    HW1 1592   0.566   1.533   2.492 -1.1729 -2.0043  0.3504
  531SOL    HW2 1593   0.669   1.419   2.426  2.4870 -1.9312 -2.9825
  532SOL     OW 1594   1.730   1.387   0.463  0.5245 -0.1049 -0.5450
  532SOL    HW1 1595   1.687   1.335   0.390  0.6654  1.5216  2.0660
  532SOL    HW2 1596   1.694   1.482   0.482  1.2838 -2.8379 -0.9802
  533SOL     OW 1597   0.506   0.409   2.175 -0.3647 -0.0627  0.2212
  533SOL    HW1 1598   0.578   0.336   2.149  1.5900 -2.4425 -0.2481
  533SOL    HW2 1599   0.508   0.429   2.275  0.9356  1.4486  0.2939
  534SOL     OW 1600   0.814   2.574   0.004 -0.1045 -0.3264 -0.2868
  534SOL    HW1 1601   0.715   2.547   0.032 -3.1853 -1.5107  0.6172
  534SOL    HW2 1602   0.814   2.679   3.095 -2.3874  1.9605 -0.9338
  535SOL     OW 1603   0.237   0.195   0.433  0.1687  0.4774  0.0059
  535SOL    HW1 1604   0.328   0.223   0.470 -0.0401  2.6981 -0.6506
  535SOL    HW2 1605   0.167   0.195   0.503  3.9041  1.7103 -0.4728
  536SOL     OW 1606   0.345   1.504   1.793  0.1208  0.4528  0.3956
  536SOL    HW1 1607   0.248   1.483   1.758  0.4594 -0.6908 -1.0476
  536SOL    HW2 1608   0.413   1.433   1.755  2.8130 -2.6234  2.9457
  537SOL     OW 1609   0.876   2.823   1.447 -0.1715  0.5452 -0.8407
  537SOL    HW1 1610   0.920   2.855   1.531  2.3194 -0.7013 -1.0131
  537SOL    HW2 1611   0.863   2.899   1.383 -2.4618  2.0506 -0.1284
  538SOL     OW 1612   2.978   1.819   0.287  0.4032  0.0141  0.7787
  538SOL    HW1 1613   2.884   1.824   0.323  1.4159 -2.0532 -0.3308
  538SOL    HW2 1614   3.034   1.757   0.344  1.7241 -0.7185  0.5953
  539SOL     OW 1615   2.804   0.891   2.485 -0.1387  0.3461 -0.1940
  539SOL    HW1 1616   2.804   0.787   2.470 -2.4307  0.6756 -0.4718
  539SOL    HW2 1617   2.725   0.920   2.551  0.1913  0.5364  1.3063
  540SOL     OW 1618   1.502   0.861   2.214 -0.1093  1.1700 -0.4396
  540SOL    HW1 1619   1.546   0.915   2.142  0.1173  0.0193 -0.8219
  540SOL    HW2 1620   1.420   0.910   2.253 -2.8372 -0.6697 -0.4194
  541SOL     OW 1621   0.848   0.853   1.845 -0.0607  0.2529 -0.1076
  541SOL    HW1 1622   0.792   0.819   1.770  1.0057 -2.2825  1.7177
  541SOL    HW2 1623   0.887   0.947   1.824 -1.8009  1.9603 -1.6159
  542SOL     OW 1624   2.152   0.298   2.776  0.4513 -0.3861 -0.1721
  542SOL    HW1 1625   2.200   0.208   2.783  0.7107  2.4565 -0.6732
  542SOL    HW2 1626   2.089   0.301   2.696  1.9050  0.1466 -0.0198
  543SOL     OW 1627   0.934   0.166   3.072 -0.4462  0.2271 -0.2153
  543SOL    HW1 1628   0.976   0.235   0.034 -1.1597 -0.0212  1.2621
  543SOL    HW2 1629   1.006   0.097   3.039  1.8176 -0.6312  1.2938
  544SOL     OW 1630   2.963   1.668   2.054  0.4573  0.5288 -0.0612
  544SOL    HW1 1631   2.998   1.577   2.040  1.1868  4.0159  0.3333
  544SOL    HW2 1632   2.967   1.690   2.153  0.7267 -0.1683  1.1134
  545SOL     OW 1633   2.155   2.146   1.744 -0.2745  0.1001  0.3152
  545SOL    HW1 1634   2.137   2.243   1.728 -0.5234 -2.5936  0.2697
  545SOL    HW2 1635   2.248   2.119   1.706  1.3587 -1.3192 -0.7101
  546SOL     OW 1636   0.070   0.001   2.890  0.0934 -0.1238  0.3148
  546SOL    HW1 1637   0.099   0.058   2.811  2.8103 -1.1122 -0.3131
  546SOL    HW2 1638   0.147   0.003   2.960  2.1724  1.3641  2.6051
  547SOL     OW 1639   1.778   0.988   0.842 -0.1723 -0.1143 -0.2636
  547SOL    HW1 1640   1.726   1.050   0.780 -0.2616 -2.9709 -1.0117
  547SOL    HW2 1641   1.736   0.899   0.862 -0.0578  2.4680  1.0699
  548SOL     OW 1642   1.932   1.458   2.122 -0.3154  0.2282 -0.5296
  548SOL    HW1 1643   1.986   1.375   2.096 -2.1152  0.6454 -1.7825
  548SOL    HW2 1644   1.977   1.510   2.202  1.2765 -2.3865 -0.5950
  549SOL     OW 1645   1.584   0.487   0.547  0.1318  0.0057 -0.1674
  549SOL    HW1 1646   1.633   0.573   0.575  3.4824 -1.5422 -0.7009
  549SOL    HW2 1647   1.657   0.413   0.538  1.2510 -1.8042 -0.8114
  550SOL     OW 1648   2.021   1.741   0.741  0.0718  0.3555 -0.2376
  550SOL    HW1 1649   1.931   1.748   0.701  0.3526  2.2261  2.1974
  550SOL    HW2 1650   2.052   1.646   0.734  0.4261  0.8510  0.9953
  551SOL     OW 1651   0.640   2.821   1.600  0.7186  0.0547  0.2585
  551SOL    HW1 1652   0.725   2.844   1.552 -1.4057 -0.2289  0.8660
  551SOL    HW2 1653   0.654   2.844   1.696  2.5911 -2.2824 -0.2375
  552SOL     OW 1654   3.086   2.093   2.518  0.0146 -0.4454  0.3204
  552SOL    HW1 1655   2.991   2.051   2.524 -1.8194 -0.9591 -1.4157
  552SOL    HW2 1656   0.019   2.070   2.426  2.1265 -2.6671 -1.7067
  553SOL     OW 1657   0.288   0.091   1.092 -0.0517 -0.2122  0.2738
  553SOL    HW1 1658   0.335   0.018   1.149  0.0119 -3.4085 -1.9515
  553SOL    HW2 1659   0.218   0.047   1.034 -1.3887 -1.1238  0.1006
  554SOL     OW 1660   2.415   2.107   1.672 -0.4103  0.0182 -0.8337
  554SOL    HW1 1661   2.486   2.138   1.740 -1.7314 -2.1923 -0.6688
  554SOL    HW2 1662   2.424   2.133   1.574  1.0291 -0.8214  0.6131
  555SOL     OW 1663   1.378   2.231   2.030 -0.1484 -0.4954  0.0057
  555SOL    HW1 1664   1.413   2.196   1.941 -0.3833  0.1940 -0.2810
  555SOL    HW2 1665   1.287   2.192   2.055  2.5342 -0.4614  2.8782
  556SOL     OW 1666   1.277   1.871   1.874 -0.4011 -0.2297  0.6040
  556SOL    HW1 1667   1.273   1.965   1.835  1.5062  0.1093  0.7544
  556SOL    HW2 1668   1.303   1.811   1.795 -0.2639 -0.5481 -2.3858
  557SOL     OW 1669   2.033   2.326   2.175 -0.0791  0.5613 -0.2357
  557SOL    HW1 1670   2.076   2.343   2.083  2.0457  0.9117  0.4768
  557SOL    HW2 1671   2.099   2.356   2.245 -0.8617 -0.9067 -1.6316
  558SOL     OW 1672   0.600   2.782   1.905  0.6916 -0.3722 -0.1931
  558SOL    HW1 1673   0.693   2.744   1.912  0.0112 -0.1770  1.0656
  558SOL    HW2 1674   0.595   2.871   1.951 -2.6857 -1.9701 -2.4872
  559SOL     OW 1675   2.209   2.840   1.033 -0.1594  0.3161  0.4785
  559SOL    HW1 1676   2.301   2.817   0.993 -0.0436  0.6549 -1.8169
  559SOL    HW2 1677   2.163   2.748   1.042 -1.7914 -1.5916 -0.0252
  560SOL     OW 1678   1.727   2.399   0.513 -0.4185 -0.0682 -0.0138
  560SOL    HW1 1679   1.634   2.365   0.497 -0.5203 -1.7442 -3.4892
  560SOL    HW2 1680   1.794   2.320   0.530  1.1796 -2.2469  1.3439
  561SOL     OW 1681   1.011   0.355   0.186 -0.3727  0.0974 -0.0068
  561SOL    HW1 1682   1.112   0.369   0.212  0.7386  0.3117  1.2252
  561SOL    HW2 1683   0.965   0.443   0.160 -1.0239  1.7302  2.8138
  562SOL     OW 1684   0.560   0.537   2.447  0.0788 -0.2681 -0.0566
  562SOL    HW1 1685   0.498   0.475   2.501  0.2656  0.7668  1.1932
  562SOL    HW2 1686   0.657   0.538   2.484  0.0689  0.0875  1.2875
  563SOL     OW 1687   1.645   1.760   2.972  0.2614  0.0052 -0.2210
  563SOL    HW1 1688   1.555   1.714   2.985 -0.2787 -0.4200  0.6346
  563SOL    HW2 1689   1.652   1.838   3.036  0.8114  1.9454  1.4706
  564SOL     OW 1690   2.453   1.117   1.408  0.6970 -0.3119 -0.1593
  564SOL    HW1 1691   2.470   1.168   1.497 -0.5823  0.5858 -1.1503
  564SOL    HW2 1692   2.537   1.097   1.360 -0.1275  2.1374 -2.6627
  565SOL     OW 1693   0.776   0.184   2.732 -0.3603 -0.0320  0.3674
  565SOL    HW1 1694   0.760   0.096   2.783  0.7753 -0.5325  0.4226
  565SOL    HW2 1695   0.757   0.259   2.799 -1.8232  0.1188 -0.2730
  566SOL     OW 1696   1.838   0.101   2.752 -0.6738 -0.0701  0.0269
  566SOL    HW1 1697   1.890   0.145   2.828 -1.4028 -0.8234 -0.1042
  566SOL    HW2 1698   1.854   3.099   2.757 -0.7853 -1.4033  1.1745
  567SOL     OW 1699   2.206   1.882   0.597  0.5738 -0.4531  0.2351
  567SOL    HW1 1700   2.273   1.816   0.562  1.3360  3.2926  2.8739
  567SOL    HW2 1701   2.148   1.833   0.668 -0.2252  0.4797  3.2699
  568SOL     OW 1702   1.861   1.980   0.254 -0.2903  0.0705 -0.3426
  568SOL    HW1 1703   1.922   1.923   0.311  1.7365 -0.5440  0.5244
  568SOL    HW2 1704   1.907   2.018   0.173 -0.3661  0.0867  0.3456
  569SOL     OW 1705   2.172   1.232   2.933  0.3259 -0.1163  0.2078
  569SOL    HW1 1706   2.182   1.191   2.838 -0.5365  0.0503  0.3626
  569SOL    HW2 1707   2.263   1.214   2.984 -2.2143  0.1063  2.2111
  570SOL     OW 1708   0.161   2.463   1.804  0.2070 -0.1288  0.2375
  570SOL    HW1 1709   0.120   2.523   1.732 -0.9584  0.9108 -2.8393
  570SOL    HW2 1710   0.255   2.426   1.771  0.8883 -2.2966 -1.3284
  571SOL     OW 1711   0.551   1.079   1.720  0.1759 -0.1027  1.0811
  571SOL    HW1 1712   0.584   1.086   1.813 -1.2402 -0.3206  0.5589
  571SOL    HW2 1713   0.540   1.178   1.691 -0.3682  1.4522  2.1147
  572SOL     OW 1714   0.984   1.610   0.503 -0.2414  0.1796 -0.3145
  572SOL    HW1 1715   0.961   1.546   0.429  0.3671 -0.1927 -0.8390
  572SOL    HW2 1716   1.005   1.702   0.469  1.1079 -0.8889  2.9418
  573SOL     OW 1717   1.557   1.992   0.052 -0.2881 -0.2263 -0.1818
  573SOL    HW1 1718   1.487   2.056   0.021  3.1803 -2.6463  2.9109
  573SOL    HW2 1719   1.632   2.041   0.106 -1.7993 -1.3628  2.3300
  574SOL     OW 1720   1.058   0.191   0.808  0.1265  0.2824  0.1850
  574SOL    HW1 1721   1.015   0.129   0.879 -2.8786 -0.1860 -0.9976
  574SOL    HW2 1722   1.016   0.284   0.817 -0.1971  0.1198 -0.0380
  575SOL     OW 1723   0.373   1.212   1.419  0.0782 -0.2704  0.4170
  575SOL    HW1 1724   0.404   1.117   1.448  1.3144  0.9154 -1.9046
  575SOL    HW2 1725   0.413   1.233   1.331 -2.3250 -0.1528 -0.5434
  576SOL     OW 1726   2.033   2.564   1.446 -0.0434  0.2660 -0.2252
  576SOL    HW1 1727   2.125   2.567   1.413 -1.8270  2.1943  5.7659
  576SOL    HW2 1728   1.970   2.568   1.362 -1.4121  0.8174 -0.1210
  577SOL     OW 1729   1.038   1.090   2.044 -0.2078 -0.1857 -0.3892
  577SOL    HW1 1730   1.118   1.033   2.070 -2.0888 -0.9503  0.0166
  577SOL    HW2 1731   0.994   1.138   2.121  0.6639 -0.6460  1.6350
  578SOL     OW 1732   1.927   0.633   2.711 -0.3061 -0.5670  0.0261
  578SOL    HW1 1733   1.892   0.729   2.744  2.4635  1.9757 -1.3095
  578SOL    HW2 1734   1.873   0.610   2.626 -0.4780  0.8404  1.3617
  579SOL     OW 1735   2.121   2.412   1.677 -1.2289  0.0533 -0.3930
  579SOL    HW1 1736   2.203   2.474   1.664  0.4221 -0.4081 -2.5043
  579SOL    HW2 1737   2.061   2.413   1.593 -0.4224 -0.0666  0.3176
  580SOL     OW 1738   2.327   1.205   2.493 -0.3608  0.2198  0.4684
  580SOL    HW1 1739   2.310   1.188   2.592  1.9596  0.6722  2.7306
  580SOL    HW2 1740   2.373   1.294   2.474 -0.3385  1.2491 -0.9882
  581SOL     OW 1741   1.408   1.158   2.682  0.5706  0.3177 -0.4887
  581SOL    HW1 1742   1.447   1.182   2.775 -0.1034  0.1456  1.2519
  581SOL    HW2 1743   1.383   1.059   2.675  0.4121  0.5734 -2.1779
  582SOL     OW 1744   1.049   1.763   2.010  0.4303 -0.5517  0.1215
  582SOL    HW1 1745   1.124   1.793   1.949  0.2252  2.7161  2.0368
  582SOL    HW2 1746   1.036   1.815   2.098 -2.1122  0.7267 -0.7364
  583SOL     OW 1747   1.862   1.312   1.448 -0.0312 -0.1797 -0.6498
  583SOL    HW1 1748   1.804   1.241   1.406  1.8897  0.2084 -0.4392
  583SOL    HW2 1749   1.812   1.402   1.456 -1.8369 -0.7281  0.6892
  584SOL     OW 1750   1.658   2.672   0.589 -0.5090  0.2548 -0.8173
  584SOL    HW1 1751   1.558   2.673   0.568  1.2075  0.5486 -0.8141
  584SOL    HW2 1752   1.688   2.581   0.553  0.1748  1.0061 -3.4243
  585SOL     OW 1753   2.149   2.907   2.785  0.1748 -0.2098 -0.1507
  585SOL    HW1 1754   2.057   2.915   2.743  3.4667  1.5820  2.6001
  585SOL    HW2 1755   2.161   2.824   2.836 -1.1400  0.8211 -0.3594
  586SOL     OW 1756   2.710   2.416   1.147 -0.2580  0.4183 -0.6951
  586SOL    HW1 1757   2.630   2.473   1.117 -0.0942 -1.4913 -0.1729
  586SOL    HW2 1758   2.772   2.380   1.076  0.3559  0.8580 -3.3468
  587SOL     OW 1759   1.396   1.780   0.166 -0.4256 -0.0125  0.7626
  587SOL    HW1 1760   1.472   1.845   0.139 -2.6285  0.0156 -1.6894
  587SOL    HW2 1761   1.350   1.748   0.075 -0.2541 -2.5935 -4.2707
  588SOL     OW 1762   0.439   0.313   1.120 -0.4015 -0.0072 -0.1996
  588SOL    HW1 1763   0.532   0.286   1.087  0.4269  2.6172 -0.3402
  588SOL    HW2 1764   0.370   0.241   1.120  1.0111  2.5223  1.4382
  589SOL     OW 1765   0.912   0.290   0.447  0.1495 -0.6678 -1.3016
  589SOL    HW1 1766   0.850   0.367   0.484 -0.4195  2.1492  0.1656
  589SOL    HW2 1767   0.955   0.317   0.358 -0.1750 -0.6075  2.6555
  590SOL     OW 1768   1.319   0.438   2.797 -0.0954 -0.2121 -0.0684
  590SOL    HW1 1769   1.407   0.489   2.813 -3.7708 -2.2235 -0.6062
  590SOL    HW2 1770   1.288   0.385   2.881 -2.6354 -0.5346  2.8416
  591SOL     OW 1771   0.109   2.162   2.187 -0.5827  0.5007 -0.2330
  591SOL    HW1 1772   0.036   2.149   2.116 -0.9054 -2.6624  1.1131
  591SOL    HW2 1773   0.095   2.253   2.231 -0.8380 -0.4145  0.4565
  592SOL     OW 1774   2.384   1.605   2.172  0.4114 -0.4968 -0.2226
  592SOL    HW1 1775   2.355   1.537   2.104  0.2751  0.1159  0.8383
  592SOL    HW2 1776   2.481   1.646   2.149  2.7609  0.0170 -0.2866
  593SOL     OW 1777   1.477   1.279   1.802 -0.3213  0.5589 -0.0182
  593SOL    HW1 1778   1.507   1.205   1.739 -0.9681  0.0003 -2.7701
  593SOL    HW2 1779   1.551   1.316   1.861  0.0704 -0.1332 -0.7747
  594SOL     OW 1780   2.675   1.237   0.012  0.2290  0.1476  0.0392
  594SOL    HW1 1781   2.663   1.315   3.052  0.9289 -2.8232 -1.8904
  594SOL    HW2 1782   2.772   1.218   0.039 -0.0940 -0.8675 -0.5142
  595SOL     OW 1783   0.402   0.716   0.627 -0.3624 -0.2821 -0.0266
  595SOL    HW1 1784   0.345   0.788   0.582 -0.8937  3.5510 -0.9180
  595SOL    HW2 1785   0.489   0.758   0.669  0.8532  1.1759  1.5598
  596SOL     OW 1786   0.090   1.261   1.360  0.5453  0.0627 -0.1454
  596SOL    HW1 1787   0.018   1.303   1.424 -1.4545  2.3350 -0.4056
  596SOL    HW2 1788   0.179   1.249   1.411 -1.1265 -0.5277 -0.8064
  597SOL     OW 1789   1.118   1.918   0.998  0.4673 -0.4046 -0.0619
  597SOL    HW1 1790   1.169   1.911   1.089  0.3004  1.4570  1.1562
  597SOL    HW2 1791   1.134   2.012   0.959 -0.0145 -1.7229  2.5945
  598SOL     OW 1792   0.062   0.158   1.623 -0.0932  0.0295 -0.8459
  598SOL    HW1 1793   0.025   0.077   1.673  1.4730 -1.9493 -1.1643
  598SOL    HW2 1794   0.076   0.135   1.524  1.6383 -0.6060  1.9784
  599SOL     OW 1795   0.287   1.511   2.799 -0.4771 -0.3491  0.1784
  599SOL    HW1 1796   0.271   1.474   2.702 -2.1159 -0.1092  0.0824
  599SOL    HW2 1797   0.336   1.602   2.795  3.2251 -0.4129 -0.3022
  600SOL     OW 1798   0.619   1.026   2.860 -0.2719  0.2050 -0.5066
  600SOL    HW1 1799   0.557   1.053   2.784 -0.7305  0.7391  1.1976
  600SOL    HW2 1800   0.673   0.939   2.830  3.9323 -3.4342 -0.8102
  601SOL     OW 1801   0.861   0.857   1.266  0.0022  0.3011 -0.1019
  601SOL    HW1 1802   0.915   0.927   1.209  1.0746  1.5702  0.8118
  601SOL    HW2 1803   0.776   0.834   1.219 -1.9571 -0.7491 -1.2816
  602SOL     OW 1804   0.679   0.109   3.085 -0.3315  0.3406 -0.0700
  602SOL    HW1 1805   0.779   0.124   3.093  2.7090 -0.6954  0.1851
  602SOL    HW2 1806   0.637   0.087   0.079 -1.2500  0.3068  2.8016
  603SOL     OW 1807   1.548   2.428   2.309  0.4437  0.5143 -0.5387
  603SOL    HW1 1808   1.626   2.451   2.253  0.3265 -0.8238 -1.2514
  603SOL    HW2 1809   1.576   2.359   2.381 -2.5672 -0.9660 -0.0798
  604SOL     OW 1810   0.471   2.886   2.814 -0.1938 -0.3503  0.1581
  604SOL    HW1 1811   0.545   2.956   2.820 -1.6867 -1.5791  0.5281
  604SOL    HW2 1812   0.498   2.795   2.777  1.1205 -1.9743  0.2451
  605SOL     OW 1813   2.547   1.277   1.604  0.1717 -0.3630  0.0136
  605SOL    HW1 1814   2.590   1.340   1.541  0.3461  1.3221 -1.2560
  605SOL    HW2 1815   2.467   1.321   1.654 -1.8799  0.7726  3.4772
  606SOL     OW 1816   1.015   1.117   2.880 -0.2627  0.4835  0.8226
  606SOL    HW1 1817   1.041   1.138   2.978  2.2267 -0.3943 -2.4850
  606SOL    HW2 1818   0.918   1.145   2.865 -1.6037 -0.4303  2.9788
  607SOL     OW 1819   0.756   0.450   0.638  0.3371  0.1530 -0.4364
  607SOL    HW1 1820   0.666   0.435   0.681 -1.7507 -0.4308  1.1386
  607SOL    HW2 1821   0.826   0.430   0.710  0.3204 -0.0139 -0.4068
  608SOL     OW 1822   2.792   1.507   1.580 -0.1938 -0.3835 -0.3084
  608SOL    HW1 1823   2.808   1.605   1.607 -2.5846  0.2638 -0.9027
  608SOL    HW2 1824   2.719   1.502   1.509 -0.0199 -0.5266 -1.0990
  609SOL     OW 1825   2.277   0.434   0.701  0.5721  0.2006 -0.1922
  609SOL    HW1 1826   2.207   0.409   0.773  0.1859 -0.3806  1.2411
  609SOL    HW2 1827   2.315   0.530   0.717  0.1392  3.6373 -1.1801
  610SOL     OW 1828   0.263   2.502   1.410 -0.0877 -0.6953 -0.0301
  610SOL    HW1 1829   0.249   2.561   1.490  1.3124 -0.7210 -1.4623
  610SOL    HW2 1830   0.354   2.517   1.358  1.5031  2.7576 -1.0143
  611SOL     OW 1831   1.697   1.617   0.246  0.4245 -0.2634  0.6537
  611SOL    HW1 1832   1.772   1.550   0.215  1.3874 -0.3927  0.8051
  611SOL    HW2 1833   1.719   1.717   0.246  0.0948  0.2915 -1.6705
  612SOL     OW 1834   0.518   3.091   1.880 -0.0805  0.0513 -0.3111
  612SOL    HW1 1835   0.488   0.016   1.972 -0.5202  2.1860 -2.0208
  612SOL    HW2 1836   0.461   0.040   1.810 -1.4925 -1.4299  1.3178
  613SOL     OW 1837   0.565   2.237   0.696  0.1113 -0.0288  0.3251
  613SOL    HW1 1838   0.565   2.250   0.593  0.2803  1.0231 -2.9265
  613SOL    HW2 1839   0.489   2.294   0.740 -1.1173 -0.3765  2.0112
  614SOL     OW 1840   2.173   0.095   2.021 -0.2888 -0.2665  0.1265
  614SOL    HW1 1841   2.180   0.195   2.047  0.9731  0.6017  0.2642
  614SOL    HW2 1842   2.240   0.039   2.076 -0.0062  0.5384  0.3399
  615SOL     OW 1843   1.322   1.547   0.508  0.0699 -0.3830  0.1728
  615SOL    HW1 1844   1.286   1.467   0.462  0.6898  0.6734  0.5888
  615SOL    HW2 1845   1.302   1.631   0.462  1.7792 -0.1216 -0.0110
  616SOL     OW 1846   1.594   1.622   0.528  0.4980 -0.0240 -0.3642
  616SOL    HW1 1847   1.497   1.593   0.542  0.5994  0.4561 -0.1447
  616SOL    HW2 1848   1.606   1.685   0.452  0.0897  0.2556  1.6983
  617SOL     OW 1849   1.342   0.870   3.018 -0.1484 -0.5662 -0.1214
  617SOL    HW1 1850   1.372   0.782   3.051 -0.8737  3.5239 -1.9541
  617SOL    HW2 1851   1.304   0.922   3.095 -0.7120 -3.0229 -0.2182
  618SOL     OW 1852   0.668   0.301   1.856  0.4282  0.2498 -0.1980
  618SOL    HW1 1853   0.748   0.256   1.816 -0.2190 -1.4234  2.1776
  618SOL    HW2 1854   0.672   0.279   1.957  0.0752 -2.7041  1.4403
  619SOL     OW 1855   3.046   1.432   1.502 -0.1202  0.1186 -0.4259
  619SOL    HW1 1856   2.952   1.455   1.536  0.1107  1.4643 -0.9679
  619SOL    HW2 1857   3.070   1.488   1.418  0.0219  0.8709 -1.7215
  620SOL     OW 1858   2.666   0.044   2.446 -0.2419 -0.1366  0.2152
  620SOL    HW1 1859   2.583   0.091   2.481 -0.3296  0.1320 -0.6037
  620SOL    HW2 1860   2.744   0.040   2.510  0.6357  0.4046 -0.5422
  621SOL     OW 1861   2.492   2.037   2.808 -0.4744  0.0367  0.4360
  621SOL    HW1 1862   2.534   1.951   2.838 -1.0055  0.4811 -0.4364
  621SOL    HW2 1863   2.415   2.015   2.746  0.5998 -1.4363  0.0018
  622SOL     OW 1864   1.141   0.546   3.057 -0.1583 -0.5456  0.6830
  622SOL    HW1 1865   1.159   0.449   3.033  0.5949 -1.6972  1.4872
  622SOL    HW2 1866   1.223   0.597   3.083  0.4694 -2.8002 -1.1771
  623SOL     OW 1867   1.102   1.549   1.812 -0.0420 -0.1397 -0.6653
  623SOL    HW1 1868   1.124   1.449   1.836  0.9924 -2.2126  0.9573
  623SOL    HW2 1869   1.087   1.599   1.899 -1.9569 -0.5040  0.5099
  624SOL     OW 1870   2.788   0.179   0.498  0.7968  0.0102 -0.2851
  624SOL    HW1 1871   2.867   0.239   0.466  1.5029  0.7241 -1.2100
  624SOL    HW2 1872   2.781   0.182   0.598 -0.7249  1.7607  2.7255
  625SOL     OW 1873   0.695   2.363   0.901  0.6768 -0.1679 -0.0782
  625SOL    HW1 1874   0.666   2.295   0.829  1.3919 -1.6485 -1.3304
  625SOL    HW2 1875   0.663   2.326   0.991  1.4995  3.0188 -1.4057
  626SOL     OW 1876   2.488   0.718   2.548 -0.1585  0.1675 -0.3288
  626SOL    HW1 1877   2.430   0.726   2.629  1.0705 -1.3386 -0.5859
  626SOL    HW2 1878   2.475   0.802   2.486  0.0838  1.5376 -1.6315
  627SOL     OW 1879   1.124   2.043   2.819 -0.3044 -0.1657  0.1430
  627SOL    HW1 1880   1.081   2.072   2.733  1.1141  0.2155  0.4804
  627SOL    HW2 1881   1.158   1.948   2.813 -0.7190  1.3866  0.6906
  628SOL     OW 1882   2.888   2.840   2.661  0.0371  0.5140 -0.1926
  628SOL    HW1 1883   2.881   2.828   2.562 -1.6031  0.5985  2.8834
  628SOL    HW2 1884   2.803   2.882   2.698  3.4686  0.7993  0.9763
  629SOL     OW 1885   1.307   2.752   2.484  0.2318 -0.0137  0.1371
  629SOL    HW1 1886   1.275   2.753   2.388 -1.0068  2.2324  1.4525
  629SOL    HW2 1887   1.362   2.839   2.502  0.9248  1.4767 -0.8105
  630SOL     OW 1888   0.921   0.082   2.187  0.3631 -0.7806 -0.7561
  630SOL    HW1 1889   0.968   0.178   2.174  2.1724  1.9740 -0.1877
  630SOL    HW2 1890   0.978   0.030   2.255 -1.6171 -1.0815 -0.2818
  631SOL     OW 1891   2.000   0.968   0.685 -0.6158  0.1450 -0.1532
  631SOL    HW1 1892   1.930   0.971   0.760  0.4988 -0.1434  0.5758
  631SOL    HW2 1893   1.981   1.038   0.613 -0.4547 -0.2014 -0.2295
  632SOL     OW 1894   2.639   0.128   1.812  0.2368  0.1893  0.2785
  632SOL    HW1 1895   2.585   0.210   1.847 -0.7765  0.2387  0.9484
  632SOL    HW2 1896   2.678   0.072   1.887  1.1832  1.2568 -2.3243
  633SOL     OW 1897   1.219   1.356   0.344 -0.3046 -0.2247 -0.4442
  633SOL    HW1 1898   1.262   1.340   0.252  2.0127 -0.1167 -1.2226
  633SOL    HW2 1899   1.120   1.348   0.340  0.9072  0.1143 -0.9546
  634SOL     OW 1900   2.725   2.731   1.944 -0.0528  0.4499  0.5680
  634SOL    HW1 1901   2.814   2.751   1.898 -0.5687 -1.9461 -1.8970
  634SOL    HW2 1902   2.745   2.693   2.036 -0.6455 -0.8583  1.2338
  635SOL     OW 1903   1.332   0.376   0.563 -0.6530  0.3433  0.5636
  635SOL    HW1 1904   1.419   0.422   0.532  1.8678  0.3807  0.1457
  635SOL    HW2 1905   1.322   0.281   0.528 -1.3919 -1.0147  1.5652
  636SOL     OW 1906   0.777   1.240   2.954  0.4672 -0.5213  0.3899
  636SOL    HW1 1907   0.728   1.154   2.926 -1.2037 -1.1559  2.1539
  636SOL    HW2 1908   0.718   1.323   2.926 -1.7940  0.4688 -0.5266
  637SOL     OW 1909   2.903   2.169   2.947 -0.7760 -0.0568 -0.0821
  637SOL    HW1 1910   2.939   2.126   3.033 -0.9077  2.1039 -0.0703
  637SOL    HW2 1911   2.906   2.099   2.874 -0.5692 -0.1430 -2.9252
  638SOL     OW 1912   1.292   2.477   2.504 -0.2953  0.2025 -0.1172
  638SOL    HW1 1913   1.316   2.579   2.490  2.5322  2.0212  0.0393
  638SOL    HW2 1914   1.369   2.432   2.557  1.5658 -0.8857 -0.8265
  639SOL     OW 1915   1.491   1.955   0.687  0.2561  0.1631 -0.6525
  639SOL    HW1 1916   1.540   2.044   0.704 -2.2540 -1.0560 -0.5655
  639SOL    HW2 1917   1.393   1.972   0.674  2.9169 -0.9928  0.0123
  640SOL     OW 1918   2.291   2.931   0.376  0.1179 -0.0048 -0.6412
  640SOL    HW1 1919   2.392   2.939   0.395 -0.1502  1.5608  0.2305
  640SOL    HW2 1920   2.246   3.016   0.349  1.5858 -1.0382  0.8274
  641SOL     OW 1921   2.810   0.468   0.005 -0.3326 -0.1118  0.3507
  641SOL    HW1 1922   2.785   0.506   0.096  0.1638 -1.7434  0.7894
  641SOL    HW2 1923   2.796   0.368   3.097 -0.5770  1.6059  0.1452
  642SOL     OW 1924   0.497   0.586   1.147  0.0574 -0.5254  0.4068
  642SOL    HW1 1925   0.398   0.612   1.150 -4.5999 -0.5810  0.2783
  642SOL    HW2 1926   0.505   0.495   1.102  1.2006 -2.2789  0.5260
  643SOL     OW 1927   0.699   1.288   2.321 -0.4562  0.0261  0.1269
  643SOL    HW1 1928   0.783   1.248   2.279  1.1302  0.6339 -1.5649
  643SOL    HW2 1929   0.617   1.233   2.303  0.6731  1.8501  0.3356
  644SOL     OW 1930   1.915   2.208   0.594 -0.0150  0.5208  0.0925
  644SOL    HW1 1931   1.932   2.161   0.501 -0.8144 -0.8445 -1.6692
  644SOL    HW2 1932   1.891   2.137   0.666  0.3327 -1.8630 -1.1870
  645SOL     OW 1933   1.469   2.293   0.522  0.0741 -0.1800  0.8668
  645SOL    HW1 1934   1.420   2.210   0.493  1.2206  0.0851  1.1054
  645SOL    HW2 1935   1.519   2.263   0.608 -1.6028 -0.3656 -1.1299
  646SOL     OW 1936   0.434   2.115   2.850  0.3467  0.1746 -0.0097
  646SOL    HW1 1937   0.373   2.045   2.813  0.0653  0.2387  0.4995
  646SOL    HW2 1938   0.482   2.173   2.779  0.5892  2.7399 -0.2273
  647SOL     OW 1939   1.239   0.105   1.460 -0.0971  0.5667  1.0120
  647SOL    HW1 1940   1.328   0.148   1.487 -1.2310 -0.4394  2.4584
  647SOL    HW2 1941   1.171   0.177   1.453  0.8721 -2.5776 -1.1199
  648SOL     OW 1942   1.333   0.224   0.796 -0.1840  0.0714 -0.0470
  648SOL    HW1 1943   1.243   0.190   0.818  0.9777 -1.7154  0.8808
  648SOL    HW2 1944   1.327   0.293   0.722  0.9485  1.5067  0.9965
  649SOL     OW 1945   1.276   1.830   0.402 -0.1103  0.0015 -0.0620
  649SOL    HW1 1946   1.313   1.810   0.307 -1.5647  0.8086  1.3493
  649SOL    HW2 1947   1.338   1.901   0.449 -1.1609  1.5161  0.1052
  650SOL     OW 1948   2.268   1.645   1.756  0.7443  0.3606  0.1426
  650SOL    HW1 1949   2.296   1.720   1.818 -1.8948 -2.7360 -2.7306
  650SOL    HW2 1950   2.166   1.644   1.751 -0.9658  1.4974  0.5135
  651SOL     OW 1951   1.547   2.509   3.038 -0.4883 -0.0997  0.2132
  651SOL    HW1 1952   1.526   2.493   0.038 -1.0371  1.5325 -0.6493
  651SOL    HW2 1953   1.465   2.518   2.981  3.3546 -1.1313  1.1162
  652SOL     OW 1954   2.548   1.672   0.168  0.2493 -0.1726  0.0426
  652SOL    HW1 1955   2.466   1.613   0.146 -1.6482 -2.8731  2.1942
  652SOL    HW2 1956   2.606   1.635   0.242 -0.1835 -0.9182 -0.4300
  653SOL     OW 1957   3.024   0.191   1.012 -0.0719 -0.1421 -0.2977
  653SOL    HW1 1958   3.018   0.290   1.042  1.7753  2.0060 -2.4060
  653SOL    HW2 1959   2.962   0.131   1.064  1.2418  0.2745  0.4407
  654SOL     OW 1960   3.017   0.013   1.835  0.0149  0.3022 -0.0557
  654SOL    HW1 1961   2.923   0.016   1.873  0.2437 -1.1305  1.5710
  654SOL    HW2 1962   3.052   3.020   1.844 -1.9269 -0.9663 -0.8229
  655SOL     OW 1963   0.361   2.431   0.711 -0.1770 -0.1785  0.1971
  655SOL    HW1 1964   0.365   2.508   0.777 -0.0506 -1.2192 -0.8547
  655SOL    HW2 1965   0.286   2.446   0.642 -0.0786 -0.8430 -0.2910
  656SOL     OW 1966   3.063   0.030   2.430 -0.1777  0.2669  0.2917
  656SOL    HW1 1967   3.066   3.033   2.398  0.2937  1.4274  0.6533
  656SOL    HW2 1968   2.978   0.047   2.490 -1.1562  3.9226  0.2047
  657SOL     OW 1969   0.166   1.420   3.019  0.4400  0.1670  0.3486
  657SOL    HW1 1970   0.077   1.387   2.985  2.9161  1.6705  3.4743
  657SOL    HW2 1971   0.217   1.470   2.948  0.9324 -1.9499  0.7338
  658SOL     OW 1972   2.595   1.851   1.196  0.2849 -0.1611 -0.1583
  658SOL    HW1 1973   2.626   1.899   1.279  1.2256 -0.6171 -0.7595
  658SOL    HW2 1974   2.495   1.852   1.180 -1.6886 -1.6838 -1.8341
  659SOL     OW 1975   1.498   2.887   0.112 -0.3381 -0.1092  0.0097
  659SOL    HW1 1976   1.547   2.952   0.174 -0.3941 -0.4531  0.8859
  659SOL    HW2 1977   1.534   2.887   0.016  0.5647 -0.8903  1.6795
  660SOL     OW 1978   1.482   1.088   2.975  0.0187  0.0599  0.2603
  660SOL    HW1 1979   1.431   1.004   2.972 -0.4821  1.4582  2.1090
  660SOL    HW2 1980   1.431   1.159   3.016  2.2765 -1.7978 -0.4826
  661SOL     OW 1981   0.177   2.125   1.154  0.0633 -0.2657  0.0160
  661SOL    HW1 1982   0.076   2.129   1.145 -3.3108 -0.7081 -0.2315
  661SOL    HW2 1983   0.208   2.189   1.231 -0.5938  1.8093 -0.5366
  662SOL     OW 1984   0.322   0.777   0.037  0.3094 -0.0161  0.5134
  662SOL    HW1 1985   0.220   0.775   0.025 -1.2560  0.4235 -0.3680
  662SOL    HW2 1986   0.345   0.693   0.093  1.0489 -3.2434  2.2209
  663SOL     OW 1987   2.193   1.548   1.189  0.4201  0.5561 -0.2765
  663SOL    HW1 1988   2.093   1.551   1.212 -1.1428  0.8124 -0.4531
  663SOL    HW2 1989   2.218   1.451   1.205  0.4014 -0.2274  0.7772
  664SOL     OW 1990   1.247   1.183   1.008 -0.3801  0.1536 -0.5770
  664SOL    HW1 1991   1.324   1.228   1.055 -1.4206  2.0758  0.8421
  664SOL    HW2 1992   1.198   1.258   0.959 -2.6212 -1.9952  1.4406
  665SOL     OW 1993   2.026   2.711   2.241 -0.1758 -0.3089 -0.2162
  665SOL    HW1 1994   2.013   2.802   2.281 -0.2122  0.8379  0.4654
  665SOL    HW2 1995   1.955   2.677   2.179 -0.2705  1.1393 -2.0789
  666SOL     OW 1996   2.769   2.910   3.043  0.0605  0.9914 -0.0238
  666SOL    HW1 1997   2.822   2.823   3.042 -2.5726  1.3673 -1.4818
  666SOL    HW2 1998   2.840   2.986   3.055  0.4805  0.5701 -1.7333
  667SOL     OW 1999   2.494   1.283   2.164 -0.0838  0.4487  0.3632
  667SOL    HW1 2000   2.488   1.185   2.145 -0.5873  2.3330 -1.4558
  667SOL    HW2 2001   2.418   1.329   2.115 -1.0473 -0.7067  0.3712
  668SOL     OW 2002   0.334   0.911   2.388  0.3329  0.4171 -0.3094
  668SOL    HW1 2003   0.312   0.878   2.485 -2.5543 -2.2520  0.0984
  668SOL    HW2 2004   0.253   0.895   2.329  1.6722 -1.0488  0.7982
  669SOL     OW 2005   2.169   2.097   2.374  0.1138  0.1071 -0.6846
  669SOL    HW1 2006   2.204   2.021   2.314  1.1578  0.5798  0.0863
  669SOL    HW2 2007   2.207   2.189   2.353  1.2334 -0.0289 -0.2521
  670SOL     OW 2008   2.306   1.396   2.020 -0.0208  0.7073 -0.2835
  670SOL    HW1 2009   2.308   1.375   1.919 -0.8167  1.0642 -2.0992
  670SOL    HW2 2010   2.220   1.359   2.058 -0.6672 -0.4301 -2.2694
  671SOL     OW 2011   2.757   1.552   0.349  0.3689  0.1261  0.1171
  671SOL    HW1 2012   2.772   1.456   0.388 -0.0339 -3.1971 -0.1904
  671SOL    HW2 2013   2.702   1.608   0.413  1.4991 -0.5089 -2.0424
  672SOL     OW 2014   2.374   0.515   2.325 -0.2617 -0.0374 -0.5426
  672SOL    HW1 2015   2.375   0.588   2.251 -0.1753  2.3739 -1.1026
  672SOL    HW2 2016   2.394   0.569   2.410  1.6409  0.5986 -0.4539
  673SOL     OW 2017   2.744   3.015   1.967  0.4474 -0.1776  0.8650
  673SOL    HW1 2018   2.735   2.914   1.939  1.4186 -0.5943 -2.1377
  673SOL    HW2 2019   2.735   3.028   2.067 -0.7600 -0.0428 -0.6294
  674SOL     OW 2020   1.675   1.890   1.399  0.3285  0.1743  0.3933
  674SOL    HW1 2021   1.772   1.874   1.408  2.3519 -1.7558 -2.9336
  674SOL    HW2 2022   1.660   1.948   1.317 -1.1112  1.0894  2.4140
  675SOL     OW 2023   0.646   0.808   0.720  0.3017 -0.2208  0.6836
  675SOL    HW1 2024   0.730   0.775   0.767  1.5579 -0.0226  0.6445
  675SOL    HW2 2025   0.659   0.896   0.665  0.3193  4.9036 -0.4414
  676SOL     OW 2026   1.599   0.792   0.968 -0.1146  0.1319 -0.0990
  676SOL    HW1 2027   1.523   0.864   0.986  0.2036 -0.2213 -1.0594
  676SOL    HW2 2028   1.559   0.700   0.961  0.6925 -0.6735  2.4573
  677SOL     OW 2029   2.435   1.445   2.372 -0.4080 -0.0852  0.1223
  677SOL    HW1 2030   2.482   1.383   2.307 -0.7908 -1.5334 -0.2702
  677SOL    HW2 2031   2.381   1.504   2.312  1.9579 -2.4792 -1.1648
  678SOL     OW 2032   2.750   1.745   1.006 -1.2957 -0.8288 -0.1799
  678SOL    HW1 2033   2.795   1.661   1.043  1.5302  1.7122 -2.9982
  678SOL    HW2 2034   2.679   1.781   1.066  0.3298 -0.7519 -0.3088
  679SOL     OW 2035   2.108   2.919   3.091  0.1770 -0.6195  0.1024
  679SOL    HW1 2036   2.183   2.976   0.015 -1.7703 -1.4031  0.4835
  679SOL    HW2 2037   2.140   2.840   3.030 -1.7117  0.2667 -0.2849
  680SOL     OW 2038   0.273   2.058   1.914 -0.8847 -0.2403  0.2814
  680SOL    HW1 2039   0.231   1.985   1.971  1.2570 -0.8136 -2.2801
  680SOL    HW2 2040   0.350   2.015   1.856 -0.1867  0.9695 -0.3939
  681SOL     OW 2041   0.720   1.105   1.404  0.0799  0.3342 -0.3747
  681SOL    HW1 2042   0.768   1.015   1.411 -1.7446 -1.2406 -0.4391
  681SOL    HW2 2043   0.748   1.169   1.478  1.8209 -1.3488 -0.7338
  682SOL     OW 2044   1.273   2.563   0.842  0.2531 -0.0577 -0.0214
  682SOL    HW1 2045   1.265   2.508   0.754 -0.5155 -1.2300  1.8082
  682SOL    HW2 2046   1.213   2.523   0.915  0.3957 -2.5242  1.4223
  683SOL     OW 2047   2.568   1.480   0.786  0.3480  0.1374 -0.1967
  683SOL    HW1 2048   2.488   1.532   0.825 -1.2475  1.8327  1.0988
  683SOL    HW2 2049   2.658   1.525   0.805  2.6992  1.0757 -0.2600
  684SOL     OW 2050   0.501   1.965   1.754  0.2048  0.0019  0.5281
  684SOL    HW1 2051   0.567   1.938   1.826  0.2666 -1.6475 -1.0698
  684SOL    HW2 2052   0.531   2.037   1.688 -0.4701  3.0271  0.2107
  685SOL     OW 2053   1.875   1.596   2.971 -0.2150 -0.4007  0.7137
  685SOL    HW1 2054   1.799   1.666   2.955  0.0059  0.4206 -2.5740
  685SOL    HW2 2055   1.961   1.630   2.937 -1.4943  1.7082  0.4392
  686SOL     OW 2056   0.217   0.884   1.292  0.2077 -0.0290 -0.1049
  686SOL    HW1 2057   0.287   0.960   1.283  0.9557 -1.0013 -0.3927
  686SOL    HW2 2058   0.207   0.852   1.388  1.2481  0.0100 -1.3489
  687SOL     OW 2059   0.927   2.447   2.897  0.0278  0.0121  0.3948
  687SOL    HW1 2060   0.886   2.489   2.978  1.3854 -1.2574 -1.7029
  687SOL    HW2 2061   0.874   2.371   2.857  0.1093  2.2130  0.0890
  688SOL     OW 2062   2.573   1.903   1.989 -0.6732  0.3598 -0.4075
  688SOL    HW1 2063   2.607   1.813   2.027 -0.1753  0.8640  2.6813
  688SOL    HW2 2064   2.475   1.896   1.960  0.9822  0.1997 -0.6196
  689SOL     OW 2065   2.371   0.722   2.146  0.4200 -0.2023 -0.0880
  689SOL    HW1 2066   2.469   0.733   2.137 -2.1087 -0.3079  3.7084
  689SOL    HW2 2067   2.329   0.674   2.062 -2.1857  0.1860 -1.8564
  690SOL     OW 2068   2.210   1.002   1.415  0.5375  0.1979 -0.0486
  690SOL    HW1 2069   2.150   1.020   1.497  0.5803  0.2147 -1.7858
  690SOL    HW2 2070   2.293   1.063   1.420  0.6953 -1.4625  0.6441
  691SOL     OW 2071   0.785   1.656   1.943 -0.0288 -0.1493  0.1734
  691SOL    HW1 2072   0.734   1.729   1.892  0.7859  0.2740 -1.8477
  691SOL    HW2 2073   0.880   1.683   1.971 -0.3451  3.4842  0.4664
  692SOL     OW 2074   2.124   0.219   1.337  0.1288  0.6361  0.2337
  692SOL    HW1 2075   2.186   0.261   1.409 -1.9594  2.4116  1.0795
  692SOL    HW2 2076   2.121   0.119   1.355  0.5498  1.4241  0.0855
  693SOL     OW 2077   0.588   1.064   2.042 -0.0587 -0.2380 -0.5174
  693SOL    HW1 2078   0.573   1.107   2.131 -0.7453 -1.2299 -0.5745
  693SOL    HW2 2079   0.636   0.974   2.057 -1.2725 -2.1932 -2.7268
  694SOL     OW 2080   1.721   2.446   1.356 -0.3102 -0.1696 -0.6595
  694SOL    HW1 2081   1.802   2.477   1.299 -0.2139  0.6207  1.1180
  694SOL    HW2 2082   1.634   2.490   1.324  2.2580 -1.2265  2.2583
  695SOL     OW 2083   1.347   1.043   2.044 -0.3608 -0.0045 -0.1912
  695SOL    HW1 2084   1.329   1.082   2.137 -0.6018 -1.7604  2.7472
  695SOL    HW2 2085   1.452   1.044   2.025  2.1816 -1.0635 -0.0617
  696SOL     OW 2086   1.498   3.004   0.600 -0.4842  0.3564 -0.0577
  696SOL    HW1 2087   1.442   2.934   0.649 -0.0783 -1.6124 -0.0785
  696SOL    HW2 2088   1.600   3.000   0.629  1.5143  1.2153 -0.1350
  697SOL     OW 2089   1.098   0.108   0.559 -0.3942  0.6741 -0.1287
  697SOL    HW1 2090   1.088   0.137   0.658  0.6594 -1.9226  0.6892
  697SOL    HW2 2091   1.037   0.163   0.499 -0.1888 -1.4100  2.2662
  698SOL     OW 2092   1.751   1.061   2.485 -0.1137 -0.0015 -0.6689
  698SOL    HW1 2093   1.723   0.962   2.476  0.5689  0.0437 -3.3923
  698SOL    HW2 2094   1.666   1.117   2.460 -2.9163  0.5612 -0.7162
  699SOL     OW 2095   1.414   1.347   1.158  0.2924 -0.2335 -0.3967
  699SOL    HW1 2096   1.404   1.450   1.162  0.5732 -0.1692  1.3295
  699SOL    HW2 2097   1.513   1.319   1.148  1.2004 -1.7502  1.7243
  700SOL     OW 2098   1.353   0.133   0.449 -0.5162 -0.4001 -0.1898
  700SOL    HW1 2099   1.264   0.118   0.494  0.9655 -0.8541 -1.5580
  700SOL    HW2 2100   1.418   0.060   0.485 -1.2074 -1.8439  0.4078
  701SOL     OW 2101   0.429   0.173   1.695  0.1692  0.5484 -0.0976
  701SOL    HW1 2102   0.362   0.238   1.734  2.9313 -0.2918  1.5930
  701SOL    HW2 2103   0.524   0.212   1.684 -0.2493 -2.3225  0.2104
  702SOL     OW 2104   1.047   2.754   0.396 -0.1356  0.0687 -0.3808
  702SOL    HW1 2105   1.020   2.773   0.298 -1.9922 -0.4677  1.3600
  702SOL    HW2 2106   0.985   2.812   0.450 -1.8063  1.0352  1.4607
  703SOL     OW 2107   2.548   2.737   2.433  0.4698 -0.4032  0.5043
  703SOL    HW1 2108   2.470   2.775   2.486  1.8509 -0.0085 -0.3106
  703SOL    HW2 2109   2.517   2.663   2.363  2.1339 -1.4579 -1.7832
  704SOL     OW 2110   0.633   1.958   0.693  0.0423 -0.0722 -0.4226
  704SOL    HW1 2111   0.605   2.055   0.719  2.2202  2.5720  0.2019
  704SOL    HW2 2112   0.651   1.911   0.784  3.3165  0.2039 -0.8344
  705SOL     OW 2113   3.052   0.459   1.843 -0.0712 -0.1677 -0.1474
  705SOL    HW1 2114   3.077   0.371   1.886  0.2503 -1.2769  0.2072
  705SOL    HW2 2115   0.015   0.533   1.874  0.2856 -1.7446  0.9537
  706SOL     OW 2116   1.634   2.961   0.338 -0.0252  0.5187  0.0557
  706SOL    HW1 2117   1.713   2.902   0.361 -0.0704  2.0603  2.4091
  706SOL    HW2 2118   1.581   2.991   0.417  0.4967 -1.8188 -0.6421
  707SOL     OW 2119   1.504   1.936   2.042  0.4291 -0.7658  0.7953
  707SOL    HW1 2120   1.410   1.943   1.993 -5.3876 -1.4714 -0.9558
  707SOL    HW2 2121   1.493   1.992   2.126  0.8529  0.7006 -0.5431
  708SOL     OW 2122   3.010   2.226   1.498  0.1161  0.0133  0.1083
  708SOL    HW1 2123   2.966   2.301   1.446 -0.2879  1.0297 -0.6507
  708SOL    HW2 2124   3.056   2.268   1.576 -0.3833 -1.2317 -2.7950
  709SOL     OW 2125   2.050   0.431   1.742 -0.1573 -0.1524 -0.2724
  709SOL    HW1 2126   2.113   0.350   1.751 -1.4357 -0.1818 -1.3871
  709SOL    HW2 2127   1.960   0.403   1.707  1.2920 -1.0313 -1.2215
  710SOL     OW 2128   2.680   3.079   1.422 -0.5567 -0.1610  0.1101
  710SOL    HW1 2129   2.693   0.063   1.481 -2.5449 -0.7868  0.4441
  710SOL    HW2 2130   2.622   0.008   1.342  1.5185  1.5372  1.5262
  711SOL     OW 2131   0.055   2.360   0.210  0.2817 -0.6838 -0.6168
  711SOL    HW1 2132   0.125   2.310   0.158 -0.5787 -1.7084 -1.2282
  711SOL    HW2 2133   3.078   2.299   0.243  2.7313  1.1145  2.6089
  712SOL     OW 2134   0.684   2.229   2.396 -0.0629  0.6063 -0.0621
  712SOL    HW1 2135   0.617   2.190   2.333  2.0408 -1.0944 -0.5687
  712SOL    HW2 2136   0.769   2.255   2.347  1.3696  2.7449  0.2532
  713SOL     OW 2137   2.060   0.821   0.157 -0.3029 -0.4626 -0.5298
  713SOL    HW1 2138   2.102   0.811   0.248 -2.2124 -1.0922 -2.8525
  713SOL    HW2 2139   1.964   0.796   0.157  4.8171  0.6092 -2.0793
  714SOL     OW 2140   1.010   1.866   0.403  0.0325  0.4708 -0.3070
  714SOL    HW1 2141   0.976   1.939   0.465  1.2235  0.2523  0.2850
  714SOL    HW2 2142   1.110   1.863   0.406 -0.3593 -0.7167 -2.8398
  715SOL     OW 2143   1.954   0.209   0.423  0.3001 -0.2089  0.0271
  715SOL    HW1 2144   1.865   0.208   0.477 -1.6419 -0.4634 -3.8702
  715SOL    HW2 2145   2.005   0.298   0.451  1.0590  3.6961  1.7532
  716SOL     OW 2146   0.736   0.706   1.621 -0.0122 -0.5224  0.4985
  716SOL    HW1 2147   0.682   0.639   1.678 -2.6619 -0.6244 -1.6674
  716SOL    HW2 2148   0.674   0.735   1.548  0.7593 -1.9809 -0.3891
  717SOL     OW 2149   0.019   0.717   0.036 -0.2027  0.1624 -0.2257
  717SOL    HW1 2150   3.072   0.757   3.051 -1.4384  2.9245 -1.0699
  717SOL    HW2 2151   0.015   0.620   0.047  0.4056  0.0709 -1.7732
  718SOL     OW 2152   1.127   0.984   0.404  0.4262  0.6800 -0.2321
  718SOL    HW1 2153   1.145   1.030   0.495  0.6805  2.7494  2.2755
  718SOL    HW2 2154   1.105   0.884   0.418 -0.6906 -0.7455 -1.4943
  719SOL     OW 2155   2.888   1.913   2.761 -0.2931 -0.5705 -0.3565
  719SOL    HW1 2156   2.967   1.852   2.771 -0.9764  0.8001 -0.1097
  719SOL    HW2 2157   2.853   1.910   2.667 -0.2071  0.3872 -0.6390
  720SOL     OW 2158   1.599   0.852   1.265  0.0167 -0.1989 -0.2968
  720SOL    HW1 2159   1.605   0.829   1.167  0.3664  1.8912  1.9071
  720SOL    HW2 2160   1.507   0.846   1.296  3.7100 -1.1705 -0.1737
  721SOL     OW 2161   2.782   0.785   0.375 -0.0500  0.0488  0.3337
  721SOL    HW1 2162   2.862   0.837   0.339 -0.7732 -0.4527  1.4959
  721SOL    HW2 2163   2.774   0.785   0.478  0.9005 -1.0512 -0.5323
  722SOL     OW 2164   0.988   1.374   2.684 -0.1880  0.1308 -0.1157
  722SOL    HW1 2165   0.925   1.452   2.654  1.0238 -3.4366  0.1315
  722SOL    HW2 2166   0.936   1.286   2.707  0.4186 -1.3971  0.0224
  723SOL     OW 2167   0.442   1.034   0.380 -0.0013 -0.0637 -0.1570
  723SOL    HW1 2168   0.466   1.136   0.385  1.5368  4.4937 -1.3532
  723SOL    HW2 2169   0.355   1.020   0.431  1.2732  1.5863  2.1092
  724SOL     OW 2170   0.997   2.376   1.980  0.3988 -0.3768  0.4031
  724SOL    HW1 2171   0.920   2.397   1.920  0.1747  0.4223 -2.0019
  724SOL    HW2 2172   1.063   2.452   1.977 -1.2276 -0.9885 -2.6336
  725SOL     OW 2173   2.620   1.050   1.700 -0.3307  0.4465  0.0697
  725SOL    HW1 2174   2.581   1.143   1.687  1.4330 -0.3027  1.3998
  725SOL    HW2 2175   2.655   1.041   1.797  0.0798  0.5852  1.5182
  726SOL     OW 2176   1.891   2.815   0.343 -0.0979  0.3577 -0.1699
  726SOL    HW1 2177   1.988   2.804   0.326 -2.9305  0.7552  0.5772
  726SOL    HW2 2178   1.846   2.724   0.366 -1.3535 -1.7387  1.4407
  727SOL     OW 2179   1.215   0.909   2.510  0.7463 -0.4867 -0.1669
  727SOL    HW1 2180   1.206   0.932   2.609  2.1461  0.5081  2.5036
  727SOL    HW2 2181   1.216   0.810   2.498  0.6825  3.9079  1.4032
  728SOL     OW 2182   1.502   2.573   1.264  0.4518 -0.2576  0.3034
  728SOL    HW1 2183   1.398   2.563   1.272 -2.0648 -0.7511 -0.4726
  728SOL    HW2 2184   1.540   2.667   1.287 -0.4006  1.3702 -0.4567
  729SOL     OW 2185   1.449   0.690   1.496  0.5766  0.3450 -0.0306
  729SOL    HW1 2186   1.359   0.666   1.449 -0.3740  0.8733  0.0750
  729SOL    HW2 2187   1.437   0.726   1.590 -1.0801  0.8209 -1.9591
  730SOL     OW 2188   0.718   1.957   1.956  0.0449 -0.0568 -0.2125
  730SOL    HW1 2189   0.706   2.057   1.936 -0.8861  2.2026  0.1876
  730SOL    HW2 2190   0.724   1.936   2.056  3.1447  0.1883 -0.2248
  731SOL     OW 2191   0.488   0.229   0.555  0.0204 -0.6363  0.4039
  731SOL    HW1 2192   0.470   0.273   0.642 -1.2078 -0.6224 -0.0583
  731SOL    HW2 2193   0.564   0.161   0.559  1.4401  0.8078 -0.5252
  732SOL     OW 2194   0.440   0.506   2.964 -0.0425 -0.2034 -0.5595
  732SOL    HW1 2195   0.521   0.548   3.009 -0.8209  1.3817 -2.6600
  732SOL    HW2 2196   0.351   0.527   3.014  0.8741 -1.4996  1.0642
  733SOL     OW 2197   0.990   2.444   1.174  0.0503 -0.3492 -0.2229
  733SOL    HW1 2198   0.986   2.362   1.232  0.5570  1.7974 -1.4030
  733SOL    HW2 2199   1.074   2.497   1.199  0.1372 -1.6062 -1.9274
  734SOL     OW 2200   0.041   2.322   2.657 -0.4357 -0.2652 -0.0795
  734SOL    HW1 2201   3.099   2.250   2.602  1.1580 -0.3248  1.3529
  734SOL    HW2 2202   0.052   2.303   2.758  0.9586  1.4390  2.8507
  735SOL     OW 2203   0.857   2.912   0.940  0.2024 -0.3937 -0.1068
  735SOL    HW1 2204   0.877   3.009   0.976 -0.5553  2.6805 -2.3488
  735SOL    HW2 2205   0.901   2.900   0.853  2.0835  2.2123  2.2368
  736SOL     OW 2206   1.413   0.617   3.074 -0.3741 -0.0385 -0.0392
  736SOL    HW1 2207   1.468   0.589   2.992  3.2820  1.0347  0.5984
  736SOL    HW2 2208   1.471   0.627   0.055 -3.0368 -1.3074  3.0397
  737SOL     OW 2209   3.091   0.258   0.593 -0.4152 -0.2540 -0.3301
  737SOL    HW1 2210   3.020   0.209   0.655 -2.8439 -2.5699  1.1096
  737SOL    HW2 2211   0.003   0.357   0.620 -1.3643  1.7656 -3.0242
  738SOL     OW 2212   2.621   2.778   1.156  0.3064 -0.1157  0.4555
  738SOL    HW1 2213   2.551   2.753   1.226 -1.9749 -0.5771  1.4050
  738SOL    HW2 2214   2.621   2.879   1.150 -0.4372  2.6457 -0.4914
  739SOL     OW 2215   1.742   2.574   0.289 -0.3464  0.3233 -0.2265
  739SOL    HW1 2216   1.644   2.580   0.270  2.4300 -0.6940 -1.6004
  739SOL    HW2 2217   1.759   2.501   0.361  2.2755 -2.3274  3.4279
  740SOL     OW 2218   1.806   2.871   1.185  0.2851 -0.2284 -0.3824
  740SOL    HW1 2219   1.887   2.933   1.193  0.1993  2.0791  2.2753
  740SOL    HW2 2220   1.786   2.853   1.090  2.0769  0.4264 -0.2095
  741SOL     OW 2221   1.881   0.437   0.775 -0.1380  0.0323 -0.5253
  741SOL    HW1 2222   1.956   0.386   0.827 -0.0856  2.9307  0.9655
  741SOL    HW2 2223   1.912   0.534   0.763  1.5712  0.5785  0.9888
  742SOL     OW 2224   1.454   2.119   2.282  0.1906  0.0030 -0.0868
  742SOL    HW1 2225   1.492   2.163   2.367 -0.7552  0.8560 -0.6167
  742SOL    HW2 2226   1.426   2.195   2.216 -0.4251  2.1131 -1.8232
  743SOL     OW 2227   2.471   0.325   1.891 -0.1754 -0.4940 -0.1379
  743SOL    HW1 2228   2.444   0.418   1.859 -2.5051 -0.9913 -0.9308
  743SOL    HW2 2229   2.501   0.324   1.991  1.8722 -0.9150  0.2612
  744SOL     OW 2230   2.327   0.614   1.248 -0.0064  0.3222  0.3242
  744SOL    HW1 2231   2.331   0.664   1.340 -0.4001  0.8230  0.9401
  744SOL    HW2 2232   2.326   0.681   1.169  0.1802 -1.0631 -0.2874
  745SOL     OW 2233   1.845   1.258   1.878  0.1788 -0.5593 -0.2725
  745SOL    HW1 2234   1.911   1.264   1.953 -4.2236  2.2408  0.2219
  745SOL    HW2 2235   1.761   1.306   1.909  4.4082  1.6149  0.8884
  746SOL     OW 2236   1.124   1.346   0.815 -0.0714  0.0561 -0.5322
  746SOL    HW1 2237   1.211   1.398   0.818  0.7537  0.2782 -1.6227
  746SOL    HW2 2238   1.046   1.413   0.788 -2.4082  0.5668 -0.5956
  747SOL     OW 2239   1.686   1.246   1.105  0.5657 -0.2355 -0.3918
  747SOL    HW1 2240   1.648   1.278   1.016  0.1017 -2.8457  2.3755
  747SOL    HW2 2241   1.787   1.228   1.101 -1.8397 -1.2224 -1.0871
  748SOL     OW 2242   3.035   2.877   0.603 -0.0774  0.2785  0.1047
  748SOL    HW1 2243   2.952   2.912   0.550 -1.6636  2.1493 -1.4084
  748SOL    HW2 2244   3.010   2.847   0.698 -0.8899 -2.4064  1.0407
  749SOL     OW 2245   0.062   0.213   2.267 -0.2952  0.2626  0.5943
  749SOL    HW1 2246   0.028   0.140   2.330  1.0651  0.8755  1.9321
  749SOL    HW2 2247   0.151   0.251   2.305  0.2501  0.6065 -1.5821
  750SOL     OW 2248   1.863   0.290   1.398  0.1678  0.1865 -0.2749
  750SOL    HW1 2249   1.812   0.345   1.334  2.4847 -1.2868  2.2784
  750SOL    HW2 2250   1.954   0.269   1.357  0.2192  1.2381  1.8131
  751SOL     OW 2251   2.911   0.522   0.807  0.4003  0.2450  0.5019
  751SOL    HW1 2252   2.937   0.483   0.899 -2.4452 -1.6080  1.3875
  751SOL    HW2 2253   2.988   0.573   0.765 -3.2552 -2.6967 -0.3179
  752SOL     OW 2254   0.218   2.652   1.075 -0.4629 -0.0950 -0.1859
  752SOL    HW1 2255   0.202   2.736   1.123  0.0605  0.5998 -0.2739
  752SOL    HW2 2256   0.136   2.614   1.029 -0.4527  1.4204 -0.1711
  753SOL     OW 2257   1.265   0.132   1.908 -0.1551 -0.0610 -0.4364
  753SOL    HW1 2258   1.259   0.220   1.858  2.9140 -0.0196  0.5755
  753SOL    HW2 2259   1.356   0.086   1.897  1.3649 -1.5421 -1.2927
  754SOL     OW 2260   1.450   2.501   1.659  0.1199 -0.1413  0.4455
  754SOL    HW1 2261   1.540   2.528   1.617 -1.6404 -1.1601  1.2057
  754SOL    HW2 2262   1.461   2.486   1.758 -0.1747  1.0558  0.3275
  755SOL     OW 2263   2.695   1.302   0.441 -0.5908 -0.1061 -0.6055
  755SOL    HW1 2264   2.649   1.295   0.528  1.2204  1.8129 -0.5886
  755SOL    HW2 2265   2.642   1.269   0.361  2.3483 -0.7048  0.2415
  756SOL     OW 2266   1.745   1.577   2.447  0.5114  0.8008  0.0802
  756SOL    HW1 2267   1.834   1.588   2.402 -0.4220 -1.8559  0.4637
  756SOL    HW2 2268   1.769   1.548   2.541  0.5903 -1.1350 -3.2774
  757SOL     OW 2269   1.747   2.915   0.635  0.0761 -0.4597  0.3783
  757SOL    HW1 2270   1.842   2.942   0.611 -1.5665 -0.9205 -0.8152
  757SOL    HW2 2271   1.717   2.822   0.600  1.4746  2.5115  0.4691
  758SOL     OW 2272   0.676   2.852   1.146 -0.1221 -0.3685  0.3595
  758SOL    HW1 2273   0.720   2.776   1.194  1.3412  1.4752  0.8954
  758SOL    HW2 2274   0.735   2.889   1.070 -0.6430  2.0275  1.7435
  759SOL     OW 2275   0.018   0.702   0.967 -0.4369  0.1945  0.5906
  759SOL    HW1 2276   0.008   0.698   0.863  0.0944  0.5602 -2.4306
  759SOL    HW2 2277   3.090   0.795   0.997 -0.9294  1.0267 -0.8463
  760SOL     OW 2278   2.294   1.251   1.188  0.0074  0.3474 -0.1790
  760SOL    HW1 2279   2.340   1.174   1.234  0.0214  1.9578  0.7499
  760SOL    HW2 2280   2.199   1.255   1.225  1.4976 -0.0389 -2.8204
  761SOL     OW 2281   1.067   1.013   1.140 -0.8233 -0.3261  0.4397
  761SOL    HW1 2282   1.070   1.118   1.138 -1.8872  0.0916  1.5535
  761SOL    HW2 2283   1.105   0.982   1.052  0.2503 -0.2699  2.5557
  762SOL     OW 2284   2.379   2.152   1.230  0.3831 -0.1095 -0.0731
  762SOL    HW1 2285   2.346   2.058   1.214 -1.5909 -0.3001 -0.5700
  762SOL    HW2 2286   2.311   2.207   1.275  0.0504 -1.2977  1.0798
  763SOL     OW 2287   1.179   1.472   2.123  0.4153  0.3216  0.1656
  763SOL    HW1 2288   1.253   1.542   2.131 -0.2141 -2.7210 -0.0264
  763SOL    HW2 2289   1.197   1.415   2.040  2.0222  0.5968  0.2799
  764SOL     OW 2290   2.992   1.745   2.321 -0.2666  0.2060  0.1667
  764SOL    HW1 2291   3.067   1.812   2.314 -1.4502 -2.0514  0.7806
  764SOL    HW2 2292   3.021   1.675   2.391  1.7462 -2.6212  0.5398
  765SOL     OW 2293   1.209   2.604   1.301 -0.0961 -0.0507 -0.3504
  765SOL    HW1 2294   1.259   2.621   1.386  0.1375 -2.9010 -2.4634
  765SOL    HW2 2295   1.187   2.684   1.247 -2.1833 -1.0351 -1.3167
  766SOL     OW 2296   0.866   2.335   2.573  0.1008  0.6205 -0.0589
  766SOL    HW1 2297   0.826   2.379   2.656 -0.8367 -2.1231 -2.2326
  766SOL    HW2 2298   0.789   2.303   2.514  3.0278  1.2154  1.0661
  767SOL     OW 2299   1.544   0.554   2.832 -0.1738 -0.0457  0.5294
  767SOL    HW1 2300   1.628   0.502   2.860 -2.7179 -1.6188 -0.7861
  767SOL    HW2 2301   1.568   0.641   2.782  2.9526 -1.2961  1.5727
  768SOL     OW 2302   1.283   2.521   2.919  0.4331 -0.0094  0.4077
  768SOL    HW1 2303   1.331   2.548   2.831 -0.6112  1.1295  0.8085
  768SOL    HW2 2304   1.260   2.422   2.920 -1.5731 -1.7440  0.3339
  769SOL     OW 2305   3.028   2.669   1.262 -0.2072  0.2344  0.1428
  769SOL    HW1 2306   3.031   2.696   1.362 -0.7896  0.0164  3.2419
  769SOL    HW2 2307   0.020   2.693   1.214  0.9996  0.0745 -1.8213
  770SOL     OW 2308   0.701   3.064   2.849  0.4468 -0.2299  0.1822
  770SOL    HW1 2309   0.777   2.999   2.858 -1.6222  1.1268  1.5213
  770SOL    HW2 2310   0.675   0.001   2.944 -1.1756  2.9676  1.1991
  771SOL     OW 2311   0.586   3.003   2.435 -0.1399 -0.1402  0.6993
  771SOL    HW1 2312   0.522   3.001   2.516 -0.6385 -4.4570  0.9796
  771SOL    HW2 2313   0.668   2.946   2.460 -0.4061 -0.8004 -1.7597
  772SOL     OW 2314   2.371   3.047   2.150 -0.2226  0.0093  0.0753
  772SOL    HW1 2315   2.463   3.078   2.153 -0.5680  0.2983  0.9356
  772SOL    HW2 2316   2.370   2.954   2.110 -0.3785  0.2010  0.5740
  773SOL     OW 2317   0.786   2.450   1.824  0.8095  0.2303 -0.2786
  773SOL    HW1 2318   0.770   2.430   1.725 -0.3030  0.7300  0.5077
  773SOL    HW2 2319   0.702   2.417   1.876 -1.3937 -1.5777 -1.9786
  774SOL     OW 2320   1.325   0.378   2.106  0.4431  0.5077  0.5636
  774SOL    HW1 2321   1.394   0.306   2.085  0.9624  0.2080  3.6991
  774SOL    HW2 2322   1.268   0.410   2.024 -0.2941 -3.4723  0.8605
  775SOL     OW 2323   2.183   2.695   2.955 -0.6582 -0.1717  0.5018
  775SOL    HW1 2324   2.121   2.623   2.988 -1.0652  0.4122 -0.6086
  775SOL    HW2 2325   2.257   2.648   2.911 -2.2908 -1.0164  2.6392
  776SOL     OW 2326   1.935   0.668   2.163  0.4205 -0.0634  0.0039
  776SOL    HW1 2327   1.996   0.741   2.202 -1.4801  0.8217  1.3007
  776SOL    HW2 2328   1.937   0.660   2.061  0.0779  0.8964  1.7661
  777SOL     OW 2329   2.916   1.125   2.473 -0.0457  0.3598 -0.2437
  777SOL    HW1 2330   2.871   1.031   2.465 -0.0535 -4.2628 -0.8370
  777SOL    HW2 2331   2.861   1.196   2.422 -1.1307  2.4473 -4.0263
  778SOL     OW 2332   2.070   0.508   2.321 -0.2775  0.1703 -0.4610
  778SOL    HW1 2333   2.114   0.574   2.389 -1.7001  1.3195 -0.5577
  778SOL    HW2 2334   2.021   0.563   2.253  0.1106 -0.4552  1.0406
  779SOL     OW 2335   3.003   0.180   0.160  0.3438  0.4661 -0.1321
  779SOL    HW1 2336   2.983   0.236   0.244 -1.7980 -0.5542  0.6511
  779SOL    HW2 2337   0.001   0.157   0.161 -1.3372 -0.5701 -0.3397
  780SOL     OW 2338   2.487   0.225   2.510  0.2296 -0.4042  0.0371
  780SOL    HW1 2339   2.533   0.312   2.510  0.0614 -2.3081  3.5540
  780SOL    HW2 2340   2.386   0.232   2.480  0.3695 -0.0804 -2.2179
  781SOL     OW 2341   0.225   3.013   1.668 -0.2706  0.2483  0.4278
  781SOL    HW1 2342   0.135   2.978   1.634  2.1442  0.2503  0.4038
  781SOL    HW2 2343   0.219   0.005   1.701 -1.8111 -1.3986 -0.1243
  782SOL     OW 2344   1.768   2.613   0.027  0.2602 -0.2507 -0.4249
  782SOL    HW1 2345   1.679   2.580   3.088  0.0826  0.7618  1.7622
  782SOL    HW2 2346   1.753   2.626   0.127 -0.4694  0.1741  0.2277
  783SOL     OW 2347   0.841   1.484   1.741 -0.2873  0.1316  0.1388
  783SOL    HW1 2348   0.776   1.531   1.806  1.8891 -3.6258 -0.0246
  783SOL    HW2 2349   0.940   1.504   1.763  0.0635 -0.5200 -0.1850
  784SOL     OW 2350   1.756   0.494   2.293  0.4577  0.1605  0.8376
  784SOL    HW1 2351   1.662   0.524   2.258 -2.6885  1.2200 -0.9362
  784SOL    HW2 2352   1.828   0.547   2.247  1.5524 -4.1669  2.3245
  785SOL     OW 2353   2.996   0.461   1.050 -0.0977  0.0796  0.1687
  785SOL    HW1 2354   3.047   0.550   1.037  1.2021  0.4794 -0.0887
  785SOL    HW2 2355   2.911   0.480   1.098 -0.5920 -0.1758 -2.5330
  786SOL     OW 2356   1.803   0.126   1.049  0.0117 -0.0737  0.8087
  786SOL    HW1 2357   1.756   0.146   1.136  0.7624 -1.4800 -0.8798
  786SOL    HW2 2358   1.737   0.091   0.974 -1.9219  0.8665 -0.5194
  787SOL     OW 2359   1.322   2.969   0.992  0.3049 -0.3905 -0.7392
  787SOL    HW1 2360   1.297   3.063   1.013 -3.6207 -2.4962  0.9948
  787SOL    HW2 2361   1.286   2.906   1.065  0.1288 -0.7347  0.3278
  788SOL     OW 2362   3.049   0.971   0.586 -0.1038 -0.9989  0.8881
  788SOL    HW1 2363   3.034   1.000   0.490 -0.6183  1.5294 -0.9065
  788SOL    HW2 2364   3.064   1.058   0.636  0.0056 -0.4984 -1.0166
  789SOL     OW 2365   0.321   1.182   2.016 -0.6526  0.3509 -0.1751
  789SOL    HW1 2366   0.388   1.113   1.982  2.1631 -0.9170 -1.8924
  789SOL    HW2 2367   0.365   1.274   2.004 -0.3389 -2.7250 -0.6329
  790SOL     OW 2368   0.469   0.701   2.751  0.0810  0.6730 -0.0941
  790SOL    HW1 2369   0.447   0.623   2.819  2.5721  0.7359 -1.3565
  790SOL    HW2 2370   0.571   0.709   2.738  0.7115 -1.8927 -0.7874
  791SOL     OW 2371   2.253   0.473   0.299  0.2387  0.9837 -0.1312
  791SOL    HW1 2372   2.181   0.442   0.360  0.3176 -0.0364  0.5716
  791SOL    HW2 2373   2.298   0.555   0.351  2.5009  0.9015  1.3904
  792SOL     OW 2374   1.204   0.348   1.183  0.3347  0.3950 -0.5312
  792SOL    HW1 2375   1.201   0.450   1.161  0.5312  2.6365  2.0382
  792SOL    HW2 2376   1.114   0.304   1.215  1.1646 -1.8552  0.6942
  793SOL     OW 2377   0.153   2.883   1.198  0.7745  0.6545  0.4860
  793SOL    HW1 2378   0.246   2.923   1.194 -1.7914 -1.2589 -1.5889
  793SOL    HW2 2379   0.080   2.953   1.215  1.1562 -0.3483  0.2237
  794SOL     OW 2380   0.113   0.636   1.993  0.1257 -0.5646 -0.4910
  794SOL    HW1 2381   0.090   0.573   2.068  0.0614 -2.1408 -1.2208
  794SOL    HW2 2382   0.212   0.639   1.988 -1.2756 -3.2738 -0.4095
  795SOL     OW 2383   0.492   2.324   2.649 -0.3068 -0.6740  0.4218
  795SOL    HW1 2384   0.529   2.348   2.560  2.7561 -0.8008 -1.0785
  795SOL    HW2 2385   0.448   2.406   2.689  0.3523 -1.3886  0.4461
  796SOL     OW 2386   2.002   0.313   2.511  0.6261  0.0827  0.5086
  796SOL    HW1 2387   2.023   0.386   2.442  0.8190  1.0719  0.1683
  796SOL    HW2 2388   1.901   0.302   2.518 -0.3291  1.2223 -0.1271
  797SOL     OW 2389   2.798   2.448   2.665  0.0255  0.2112 -0.6263
  797SOL    HW1 2390   2.708   2.502   2.672 -1.9131  1.8786 -2.0043
  797SOL    HW2 2391   2.870   2.503   2.719 -0.9409  1.8432  3.0532
  798SOL     OW 2392   0.206   0.566   1.541 -0.8630 -0.1176 -0.3724
  798SOL    HW1 2393   0.214   0.500   1.621 -0.8310  1.4802  1.5851
  798SOL    HW2 2394   0.198   0.662   1.571  0.6524 -1.8535 -0.7551
  799SOL     OW 2395   0.768   3.025   1.771 -0.8970  0.2126  0.0658
  799SOL    HW1 2396   0.678   3.065   1.796  1.9509  1.6532  0.3776
  799SOL    HW2 2397   0.803   3.015   1.865  1.0053  1.3030 -0.5265
  800SOL     OW 2398   2.955   2.636   0.263 -0.2207  0.5752  0.8046
  800SOL    HW1 2399   2.993   2.584   0.181  1.7046  0.7698 -0.7832
  800SOL    HW2 2400   2.982   2.732   0.253 -1.6573  1.2274  0.9418
  801SOL     OW 2401   1.757   1.788   0.693  0.2838  0.4871 -0.1003
  801SOL    HW1 2402   1.732   1.711   0.623  0.3220  0.3837 -1.4888
  801SOL    HW2 2403   1.668   1.831   0.718  0.7865 -0.6985 -0.7973
  802SOL     OW 2404   0.500   0.620   0.388  0.0321  0.0378 -0.0992
  802SOL    HW1 2405   0.478   0.655   0.482 -1.5801 -0.9122  1.0886
  802SOL    HW2 2406   0.519   0.693   0.321 -0.6091 -0.3270 -0.9816
  803SOL     OW 2407   1.333   1.038   2.313  0.0468  0.0610 -0.3793
  803SOL    HW1 2408   1.287   0.980   2.387 -1.2336 -1.7859  1.3463
  803SOL    HW2 2409   1.288   1.131   2.307 -0.3166 -1.0176  0.0809
  804SOL     OW 2410   1.952   2.032   1.048  0.1660  0.0259  0.2861
  804SOL    HW1 2411   1.977   2.108   1.113 -0.3194  1.5190 -0.7912
  804SOL    HW2 2412   2.036   1.975   1.021  1.0457  1.5013 -0.0040
  805SOL     OW 2413   0.356   1.864   2.638 -0.1614 -0.3475 -0.3217
  805SOL    HW1 2414   0.334   1.961   2.608 -4.6308  2.6702  3.1571
  805SOL    HW2 2415   0.289   1.804   2.596  0.8981  1.4457  0.8160
  806SOL     OW 2416   0.469   2.518   0.343  0.3494 -0.1765 -0.2663
  806SOL    HW1 2417   0.523   2.605   0.335  1.0694 -0.1836  1.8679
  806SOL    HW2 2418   0.473   2.489   0.439  2.5082  2.2710 -1.6716
  807SOL     OW 2419   2.437   0.904   2.874 -0.3731 -0.2203  0.0627
  807SOL    HW1 2420   2.514   0.857   2.927  0.8441  0.9217 -1.1685
  807SOL    HW2 2421   2.410   0.991   2.912 -1.2394 -4.4795 -0.3211
  808SOL     OW 2422   1.630   2.192   0.718 -0.5968 -0.4117 -0.0204
  808SOL    HW1 2423   1.703   2.125   0.711 -0.0388 -0.2449  0.6047
  808SOL    HW2 2424   1.666   2.275   0.766 -1.2633  0.0269 -1.6848
  809SOL     OW 2425   0.185   0.510   0.635  0.0524 -0.1632 -0.8573
  809SOL    HW1 2426   0.256   0.580   0.643 -2.6707 -2.4012 -0.9694
  809SOL    HW2 2427   0.211   0.427   0.689 -1.7053  1.4611  1.3832
  810SOL     OW 2428   1.415   1.485   0.144 -0.1017  0.2028 -0.0514
  810SOL    HW1 2429   1.367   1.542   0.071 -3.1231  0.2931  0.6290
  810SOL    HW2 2430   1.469   1.538   0.208 -2.1668 -1.9575 -2.3187
  811SOL     OW 2431   1.397   2.973   1.514  0.0806 -0.6003 -0.5867
  811SOL    HW1 2432   1.453   3.003   1.593 -2.4527 -2.7305  0.2427
  811SOL    HW2 2433   1.325   3.040   1.494 -1.9723 -0.6012 -0.2009
  812SOL     OW 2434   1.595   3.008   0.950 -0.8084 -0.1399 -0.0772
  812SOL    HW1 2435   1.653   2.929   0.924 -0.3632  0.6189  0.0376
  812SOL    HW2 2436   1.501   2.976   0.976 -1.1765  0.2774 -0.3024
  813SOL     OW 2437   1.554   2.821   2.006 -0.1702  0.2639 -0.1086
  813SOL    HW1 2438   1.509   2.737   2.037  3.4983 -0.3379  0.4803
  813SOL    HW2 2439   1.575   2.815   1.905 -3.8902  3.3696 -0.5550
  814SOL     OW 2440   1.136   2.604   1.990 -0.4785 -0.5984 -0.3696
  814SOL    HW1 2441   1.181   2.632   2.075 -0.9822 -1.0194 -1.4982
  814SOL    HW2 2442   1.148   2.672   1.912  0.9841  2.1104 -0.3888
  815SOL     OW 2443   0.434   0.220   2.954 -0.2708 -0.4843 -0.4565
  815SOL    HW1 2444   0.526   0.177   2.972  0.7269 -2.5096 -0.8622
  815SOL    HW2 2445   0.450   0.321   2.965  1.3247 -1.4738 -0.0544
  816SOL     OW 2446   2.418   1.128   3.025  0.5977 -0.2816 -0.0066
  816SOL    HW1 2447   2.514   1.163   3.031  0.2544 -2.3596  1.4473
  816SOL    HW2 2448   2.392   1.075   0.013 -3.0073 -0.1290 -2.8937
  817SOL     OW 2449   2.904   2.344   2.421 -0.2678 -0.6000 -0.6758
  817SOL    HW1 2450   2.874   2.373   2.513  1.1498 -0.9360  1.2193
  817SOL    HW2 2451   2.993   2.384   2.399 -2.7973  0.2237  0.8896
  818SOL     OW 2452   0.907   1.411   0.340 -0.2566 -0.4670 -0.2493
  818SOL    HW1 2453   0.823   1.402   0.404 -3.3104 -1.1807  1.2317
  818SOL    HW2 2454   0.890   1.382   0.246  2.8005  1.4866  0.7703
  819SOL     OW 2455   1.754   1.495   2.718 -0.3981  0.0375 -0.0770
  819SOL    HW1 2456   1.732   1.398   2.698 -0.8113  1.5281  0.9398
  819SOL    HW2 2457   1.786   1.503   2.812  2.3293 -0.1055 -1.8273
  820SOL     OW 2458   0.519   1.310   0.389  0.5291  0.4619  0.3002
  820SOL    HW1 2459   0.609   1.330   0.432  2.1769  2.2238 -0.2141
  820SOL    HW2 2460   0.521   1.305   0.289 -0.9016  0.3714 -0.9038
  821SOL     OW 2461   0.447   2.972   1.233  0.0596 -0.2848  0.2885
  821SOL    HW1 2462   0.527   2.917   1.201 -0.2813 -0.4363  0.9703
  821SOL    HW2 2463   0.435   2.957   1.336  1.3800 -3.1055 -0.7063
  822SOL     OW 2464   2.104   1.983   2.873 -0.0651  0.3316 -0.5317
  822SOL    HW1 2465   2.143   2.025   2.958  0.1737  1.5738 -1.8839
  822SOL    HW2 2466   2.019   2.031   2.847  1.1308  0.8308  0.7030
  823SOL     OW 2467   0.833   0.778   2.449 -0.0307 -0.4864 -0.1971
  823SOL    HW1 2468   0.850   0.689   2.500  0.2267 -1.7422 -2.6485
  823SOL    HW2 2469   0.748   0.772   2.385 -2.0299  0.5048 -3.3345
  824SOL     OW 2470   2.593   2.723   1.554  0.0564 -0.0764  0.1189
  824SOL    HW1 2471   2.598   2.646   1.622 -1.7507  1.5258  1.6969
  824SOL    HW2 2472   2.621   2.806   1.603  1.6571 -2.2267 -1.2065
  825SOL     OW 2473   0.182   1.727   2.474 -0.3860  0.5538  0.0534
  825SOL    HW1 2474   0.153   1.805   2.414  1.5772  1.5271 -1.0604
  825SOL    HW2 2475   0.118   1.645   2.455 -0.9113 -0.6419 -1.4835
  826SOL     OW 2476   1.592   0.213   0.104  0.0292 -0.3315 -0.5448
  826SOL    HW1 2477   1.643   0.302   0.089 -2.0039  1.0598 -0.7426
  826SOL    HW2 2478   1.654   0.138   0.105 -2.3932  0.8469 -1.2185
  827SOL     OW 2479   3.051   1.831   1.857  0.6668 -0.0420  0.4310
  827SOL    HW1 2480   3.004   1.780   1.933  0.6210 -0.3052  1.9824
  827SOL    HW2 2481   0.041   1.797   1.853 -0.6177 -0.2921  0.0439
  828SOL     OW 2482   0.121   0.199   1.365  0.0373  0.8414 -0.5144
  828SOL    HW1 2483   0.100   0.298   1.340 -1.3622  3.1033 -1.2610
  828SOL    HW2 2484   0.216   0.198   1.400 -1.6324  0.3820  1.6015
  829SOL     OW 2485   1.022   1.651   2.401 -0.1853  0.1186  0.2269
  829SOL    HW1 2486   0.989   1.633   2.499  0.3636 -1.3243  2.1047
  829SOL    HW2 2487   0.983   1.577   2.341 -1.0161 -1.0923 -0.3975
  830SOL     OW 2488   0.955   0.742   1.484 -0.1392  0.4339 -0.0429
  830SOL    HW1 2489   0.908   0.765   1.392  0.1055 -3.2862  0.2586
  830SOL    HW2 2490   0.885   0.723   1.554  3.3544  0.1541 -1.2277
  831SOL     OW 2491   2.660   1.452   2.961 -0.5510  0.4161  0.6685
  831SOL    HW1 2492   2.638   1.432   2.864  0.1166 -2.6030  1.5769
  831SOL    HW2 2493   2.729   1.525   2.967 -1.2254  0.4406 -1.3587
  832SOL     OW 2494   1.130   2.274   2.998  0.0632  0.3373  0.1700
  832SOL    HW1 2495   1.075   2.356   2.968  0.6281 -0.4612  0.1992
  832SOL    HW2 2496   1.124   2.199   2.932 -0.5278  2.0688  0.7012
  833SOL     OW 2497   0.232   0.337   1.755 -0.1698 -0.4786 -0.0730
  833SOL    HW1 2498   0.234   0.334   1.854  0.4651  0.7438 -0.9099
  833SOL    HW2 2499   0.162   0.271   1.718 -0.0978 -2.5276  1.2146
  834SOL     OW 2500   3.085   1.003   1.299  0.3012 -0.3759  0.8728
  834SOL    HW1 2501   0.007   1.100   1.319  1.1813 -1.9322 -2.0887
  834SOL    HW2 2502   0.066   0.951   1.269 -0.6473 -0.1688  0.5171
  835SOL     OW 2503   2.673   0.583   0.715 -0.3604  0.3448  0.0054
  835SOL    HW1 2504   2.762   0.548   0.756 -1.4247  0.2790 -0.8427
  835SOL    HW2 2505   2.621   0.505   0.670  0.5211  0.2080  0.0128
  836SOL     OW 2506   0.585   2.442   0.066 -0.4259 -0.4407  0.2048
  836SOL    HW1 2507   0.630   2.438   0.156 -0.2392 -0.5987 -4.6730
  836SOL    HW2 2508   0.541   2.353   0.052  0.7741  1.7222  2.5726
  837SOL     OW 2509   1.464   2.071   0.340  0.3388 -0.3591  0.4632
  837SOL    HW1 2510   1.531   2.123   0.287 -1.4129 -1.4003  0.9474
  837SOL    HW2 2511   1.369   2.108   0.321  0.0963  1.1050  1.0734
  838SOL     OW 2512   2.155   0.836   2.259  0.3341  0.2205 -0.5196
  838SOL    HW1 2513   2.243   0.793   2.220 -0.2416 -0.1457 -1.8081
  838SOL    HW2 2514   2.144   0.809   2.356  0.4425  0.2875  0.1524
  839SOL     OW 2515   1.217   0.975   2.783  0.2422 -0.1099  0.2349
  839SOL    HW1 2516   1.136   1.022   2.822  2.6047 -3.9923 -1.0727
  839SOL    HW2 2517   1.251   0.907   2.853 -0.8340  0.7208  1.2970
  840SOL     OW 2518   0.819   1.250   0.126  0.5263 -0.3765 -0.2684
  840SOL    HW1 2519   0.716   1.261   0.139 -2.5088  1.3092  0.0320
  840SOL    HW2 2520   0.836   1.241   0.025  0.5956 -1.6770  2.0974
  841SOL     OW 2521   1.363   2.182   0.033  0.0771 -0.1400  0.1304
  841SOL    HW1 2522   1.408   2.267   0.071 -2.2462  2.2383  1.4699
  841SOL    HW2 2523   1.273   2.209   3.095  0.9455  0.6033  3.2220
  842SOL     OW 2524   0.133   0.460   0.354  0.0406 -0.4411  0.1323
  842SOL    HW1 2525   0.158   0.494   0.445 -1.5699  2.9707  0.7020
  842SOL    HW2 2526   0.179   0.366   0.338  2.6356  0.5963  1.2680
  843SOL     OW 2527   0.607   0.839   1.143 -0.3939  0.3771  0.3917
  843SOL    HW1 2528   0.534   0.906   1.105 -1.7304 -1.8312 -1.0047
  843SOL    HW2 2529   0.574   0.744   1.130 -1.9106  2.0044  1.4731
  844SOL     OW 2530   2.155   2.643   2.491 -0.8286  0.2319 -0.2316
  844SOL    HW1 2531   2.221   2.717   2.512 -0.2539  1.9942  2.4905
  844SOL    HW2 2532   2.100   2.671   2.410  1.3137  1.1566  1.8748
  845SOL     OW 2533   2.982   2.704   1.834  0.6343  0.3251 -0.0836
  845SOL    HW1 2534   3.058   2.776   1.844  1.6374  2.5899 -0.6988
  845SOL    HW2 2535   2.976   2.664   1.741  1.3613 -1.3858  1.8483
  846SOL     OW 2536   2.005   0.944   2.579  0.5730  0.4685  0.3023
  846SOL    HW1 2537   1.946   0.927   2.660  1.1977 -4.2620  0.5776
  846SOL    HW2 2538   1.963   1.014   2.518  2.3172  0.5272 -2.8808
  847SOL     OW 2539   2.973   0.344   1.585  0.1103 -0.6076 -0.1703
  847SOL    HW1 2540   2.999   0.407   1.663 -0.2338 -0.3279  0.5071
  847SOL    HW2 2541   3.043   0.264   1.577  1.1777 -1.4145  1.9468
  848SOL     OW 2542   2.561   2.884   0.112 -0.4351 -0.1095  0.0006
  848SOL    HW1 2543   2.655   2.896   0.068  1.6610 -0.4498  1.5533
  848SOL    HW2 2544   2.508   2.805   0.073  1.5373  0.1041 -0.2310
  849SOL     OW 2545   0.494   3.037   0.710  0.1992 -0.4534  0.1491
  849SOL    HW1 2546   0.507   2.945   0.669  0.2406  1.1855  0.9142
  849SOL    HW2 2547   0.404   3.077   0.687 -0.2759  0.2101  0.2140
  850SOL     OW 2548   0.544   2.261   0.442  0.1255  0.0439  0.2894
  850SOL    HW1 2549   0.479   2.307   0.375 -0.1241 -0.4323 -2.1142
  850SOL    HW2 2550   0.642   2.275   0.415 -0.5807 -0.6583 -0.1011
  851SOL     OW 2551   1.816   0.469   2.911  0.0264  0.5080  0.5999
  851SOL    HW1 2552   1.862   0.538   2.849 -1.4540 -2.1938  1.0675
  851SOL    HW2 2553   1.873   0.387   2.930  1.1538 -1.8237 -0.5801
  852SOL     OW 2554   1.685   2.532   2.536 -0.0305 -0.0245 -0.2316
  852SOL    HW1 2555   1.631   2.547   2.451  0.4292  1.6204  2.4190
  852SOL    HW2 2556   1.777   2.492   2.508  2.2837 -2.8155 -1.1895
  853SOL     OW 2557   3.049   2.498   0.027 -0.2146 -0.1212 -0.2366
  853SOL    HW1 2558   0.019   2.515   3.055 -0.3405 -1.7451 -0.0668
  853SOL    HW2 2559   3.094   2.445   0.105  0.4292  0.8719 -1.2205
  854SOL     OW 2560   1.095   0.372   2.469 -0.1586  0.2641 -0.1463
  854SOL    HW1 2561   1.169   0.300   2.474 -1.5782 -1.3702  1.2427
  854SOL    HW2 2562   1.131   0.471   2.472 -0.0280  0.4822  1.2917
  855SOL     OW 2563   0.201   2.875   0.551 -0.0003  0.3509  0.0871
  855SOL    HW1 2564   0.106   2.883   0.585 -0.1887  0.2104  0.4589
  855SOL    HW2 2565   0.200   2.862   0.450  2.6671  0.0809  1.5324
  856SOL     OW 2566   0.326   2.946   2.576  0.0728 -0.7349 -0.1551
  856SOL    HW1 2567   0.290   2.853   2.545 -0.9666 -2.3156 -1.0815
  856SOL    HW2 2568   0.380   2.937   2.661  2.8331 -0.3986  3.0177
  857SOL     OW 2569   1.000   2.984   1.646  0.2944 -0.2135  0.1014
  857SOL    HW1 2570   0.909   3.004   1.690 -2.0925 -4.3606 -1.5330
  857SOL    HW2 2571   1.037   3.075   1.602  0.2644  1.1300 -0.3218
  858SOL     OW 2572   0.274   1.901   1.568 -0.5261 -0.0359  0.5100
  858SOL    HW1 2573   0.359   1.934   1.618  1.3378 -1.4280  0.6267
  858SOL    HW2 2574   0.299   1.894   1.469 -1.0753  2.1461  3.3502
  859SOL     OW 2575   2.046   2.786   1.863  0.2378  0.4544 -0.1167
  859SOL    HW1 2576   2.143   2.822   1.855  0.3520  2.2225 -1.8990
  859SOL    HW2 2577   2.024   2.701   1.812  1.9833 -0.9431 -2.0030
  860SOL     OW 2578   1.759   0.253   0.632 -0.1679  0.2251  0.2028
  860SOL    HW1 2579   1.718   0.185   0.693 -1.1333 -1.0853 -0.6032
  860SOL    HW2 2580   1.809   0.318   0.688 -1.7709 -0.4810  0.1826
  861SOL     OW 2581   2.805   0.806   0.637  0.2239  0.6178  0.2758
  861SOL    HW1 2582   2.756   0.723   0.670  0.1672 -0.6488  1.4118
  861SOL    HW2 2583   2.871   0.830   0.706 -1.2852 -1.4592 -3.4552
  862SOL     OW 2584   1.941   0.648   1.886 -0.0335 -0.2735  0.2663
  862SOL    HW1 2585   2.007   0.581   1.850 -0.5480  0.4715  0.7935
  862SOL    HW2 2586   1.929   0.726   1.822 -2.4014 -1.8239 -0.2916
  863SOL     OW 2587   0.846   0.830   0.938 -0.2421 -0.3859 -0.1930
  863SOL    HW1 2588   0.785   0.877   1.002 -0.4633  1.8393  1.3201
  863SOL    HW2 2589   0.882   0.745   0.985 -1.5941 -1.7856 -0.3152
  864SOL     OW 2590   3.071   2.861   2.357 -0.6306  0.6826 -0.1770
  864SOL    HW1 2591   2.980   2.820   2.349 -0.9556 -1.1417  0.7210
  864SOL    HW2 2592   0.008   2.844   2.445 -3.0671  4.0538 -3.7990
  865SOL     OW 2593   1.126   0.661   2.449 -0.1391 -0.3013 -0.1696
  865SOL    HW1 2594   1.047   0.720   2.414 -1.8826  2.4021 -1.1928
  865SOL    HW2 2595   1.120   0.659   2.553  0.8520 -1.5251  0.9319
  866SOL     OW 2596   2.516   2.669   0.542 -0.1240 -0.2081  0.3453
  866SOL    HW1 2597   2.418   2.667   0.565  0.4781  0.1433  0.2290
  866SOL    HW2 2598   2.573   2.633   0.616 -3.0163  0.6062 -2.1565
  867SOL     OW 2599   2.822   3.008   0.463  0.0518  0.0365 -0.1746
  867SOL    HW1 2600   2.728   2.984   0.434 -1.4285  0.6489  2.7308
  867SOL    HW2 2601   2.819   3.099   0.503 -0.4151  0.9490 -2.1353
  868SOL     OW 2602   1.726   1.086   3.096 -0.1232 -0.5343 -0.0702
  868SOL    HW1 2603   1.636   1.086   3.046  2.5658  1.8982  0.8807
  868SOL    HW2 2604   1.722   1.137   0.084 -0.2099  2.0429 -0.7177
  869SOL     OW 2605   3.000   2.275   0.545  0.0439 -0.1184 -0.8076
  869SOL    HW1 2606   2.918   2.332   0.568 -3.9577 -1.5705  0.3122
  869SOL    HW2 2607   2.998   2.231   0.450  2.0819  0.8537  2.2722
  870SOL     OW 2608   2.154   2.033   0.362  0.1373 -0.0052  0.6133
  870SOL    HW1 2609   2.185   1.990   0.445 -3.0993 -0.0347 -0.5906
  870SOL    HW2 2610   2.189   1.985   0.279 -2.4081  1.8931 -1.3900
  871SOL     OW 2611   0.726   1.162   1.101 -0.4915 -0.0198 -0.1525
  871SOL    HW1 2612   0.725   1.129   1.198  2.0610  1.1755 -1.5416
  871SOL    HW2 2613   0.816   1.209   1.085  0.8188 -0.3898  1.5295
  872SOL     OW 2614   1.147   2.075   2.328 -0.0188  0.2399  0.2820
  872SOL    HW1 2615   1.246   2.076   2.352  1.8274 -3.1303 -0.4956
  872SOL    HW2 2616   1.137   2.126   2.239  4.1583  1.2599 -2.7971
  873SOL     OW 2617   0.552   2.411   1.971 -0.1909 -0.1462  0.3462
  873SOL    HW1 2618   0.596   2.459   2.050 -0.3976 -2.5687  2.6702
  873SOL    HW2 2619   0.471   2.362   2.008 -1.4118  0.6395  0.2146
  874SOL     OW 2620   0.954   0.081   1.049 -0.4026 -0.4209 -0.2378
  874SOL    HW1 2621   1.029   0.087   1.120  2.2491  0.2400  1.8760
  874SOL    HW2 2622   0.874   0.127   1.090  1.9003  1.0821 -0.4745
  875SOL     OW 2623   2.746   0.280   1.233  0.0843  0.4746 -0.2058
  875SOL    HW1 2624   2.652   0.311   1.234  2.6736  0.4276  1.7248
  875SOL    HW2 2625   2.807   0.357   1.252 -0.6852  0.4078 -0.5724
  876SOL     OW 2626   0.595   0.840   0.249 -0.5485  0.2717 -0.2097
  876SOL    HW1 2627   0.543   0.908   0.302 -1.4775 -0.3468  1.0020
  876SOL    HW2 2628   0.601   0.865   0.147  1.5348 -0.6237 -1.4514
  877SOL     OW 2629   0.700   0.391   1.510  0.2053 -0.2302  0.3096
  877SOL    HW1 2630   0.741   0.400   1.606 -0.2148 -0.7689 -0.3927
  877SOL    HW2 2631   0.600   0.418   1.513 -2.1899  0.2186 -0.7218
  878SOL     OW 2632   2.120   2.784   0.236 -0.6668  0.8932  0.5463
  878SOL    HW1 2633   2.112   2.819   0.141  0.2251  0.0099  0.5778
  878SOL    HW2 2634   2.197   2.832   0.288 -0.5945  0.3109  1.0013
  879SOL     OW 2635   2.621   1.500   1.377 -0.5019 -0.1436  0.6757
  879SOL    HW1 2636   2.592   1.491   1.279 -3.9948 -0.2788  2.5411
  879SOL    HW2 2637   2.562   1.562   1.427  4.2679  0.5964 -1.4310
  880SOL     OW 2638   1.261   2.449   0.589 -0.1222  0.4203  0.6585
  880SOL    HW1 2639   1.341   2.385   0.571  2.0217 -3.0418  1.3912
  880SOL    HW2 2640   1.193   2.430   0.514 -0.4871 -1.6304 -1.2535
  881SOL     OW 2641   0.777   2.353   0.302 -0.1994  0.2488 -0.2746
  881SOL    HW1 2642   0.814   2.430   0.354  0.6076  1.3570  2.1160
  881SOL    HW2 2643   0.845   2.310   0.239 -1.2185 -2.0702  0.8098
  882SOL     OW 2644   1.857   0.700   1.329 -0.2064  0.3845 -0.8726
  882SOL    HW1 2645   1.818   0.675   1.417 -0.9511  0.9836 -0.3304
  882SOL    HW2 2646   1.776   0.737   1.277 -0.4939 -0.3902  2.6619
  883SOL     OW 2647   1.694   0.905   1.784 -0.1240 -0.0736  0.3205
  883SOL    HW1 2648   1.779   0.883   1.735 -0.0340 -0.4935 -1.0438
  883SOL    HW2 2649   1.624   0.839   1.753  2.6207  1.2816  5.4018
  884SOL     OW 2650   2.748   0.541   0.257  0.3488  0.4203  0.0064
  884SOL    HW1 2651   2.767   0.629   0.303  3.3402 -1.0107 -1.5099
  884SOL    HW2 2652   2.651   0.527   0.241  3.2913 -1.9559  1.4885
  885SOL     OW 2653   1.227   1.653   3.087  0.2552 -0.6966  0.3361
  885SOL    HW1 2654   1.142   1.596   3.073 -0.1239  1.2927  4.1440
  885SOL    HW2 2655   1.252   1.716   3.005  1.4310  1.7146 -1.9889
  886SOL     OW 2656   1.428   1.641   2.724 -0.4673 -0.5365 -0.4466
  886SOL    HW1 2657   1.398   1.649   2.624  0.0369  0.4337  1.0617
  886SOL    HW2 2658   1.529   1.614   2.727 -0.5004 -2.5347 -0.8077
  887SOL     OW 2659   1.671   0.132   1.501 -0.3090 -0.1403 -0.3428
  887SOL    HW1 2660   1.625   0.097   1.415 -0.3823  0.4806  0.8907
  887SOL    HW2 2661   1.752   0.189   1.474  2.1274  0.4819 -2.1129
  888SOL     OW 2662   2.550   0.596   1.763  0.3147  0.5150  0.1645
  888SOL    HW1 2663   2.594   0.622   1.851  1.3310  1.8177 -0.7897
  888SOL    HW2 2664   2.591   0.655   1.693  0.7106 -1.3539 -0.2083
  889SOL     OW 2665   3.032   2.867   0.872  0.0538 -0.0149 -0.0474
  889SOL    HW1 2666   3.070   2.781   0.911 -1.0081  0.1559 -0.0906
  889SOL    HW2 2667   2.932   2.873   0.894  1.3147  0.9042  0.5765
  890SOL     OW 2668   2.224   2.521   0.137 -0.5624  0.1036 -0.2561
  890SOL    HW1 2669   2.209   2.600   0.202 -1.7760  2.7176 -0.5950
  890SOL    HW2 2670   2.144   2.512   0.075 -0.4553 -0.7446  0.1283
  891SOL     OW 2671   0.430   1.233   2.731  0.2293 -0.2109  0.5543
  891SOL    HW1 2672   0.365   1.261   2.660 -2.0638 -0.4694 -0.3569
  891SOL    HW2 2673   0.496   1.307   2.747  1.8263  1.4455 -1.5441
  892SOL     OW 2674   3.091   3.096   1.251 -0.5516 -0.2738  0.6283
  892SOL    HW1 2675   0.036   0.077   1.295  0.4762 -0.1486 -1.1230
  892SOL    HW2 2676   2.996   0.015   1.218  0.5748 -0.0031 -0.4136
  893SOL     OW 2677   1.578   0.028   1.260  0.0630 -0.6360 -0.7772
  893SOL    HW1 2678   1.625   3.083   1.183  3.4950  0.2135  0.8275
  893SOL    HW2 2679   1.481   0.044   1.233 -0.4065 -1.7362 -1.1901
  894SOL     OW 2680   2.411   0.668   0.733 -0.0356  0.1792 -1.1138
  894SOL    HW1 2681   2.371   0.754   0.773 -1.9327 -1.1541  0.0401
  894SOL    HW2 2682   2.509   0.651   0.758 -2.0000  1.8532  1.1946
  895SOL     OW 2683   2.017   1.564   2.385 -0.0516  0.5793 -0.2565
  895SOL    HW1 2684   2.000   1.466   2.394  0.8794 -0.1761 -3.4325
  895SOL    HW2 2685   2.108   1.585   2.424  0.1550  0.7265  0.7595
  896SOL     OW 2686   1.553   0.360   1.799 -0.1617  0.5007  0.2026
  896SOL    HW1 2687   1.579   0.451   1.829  1.2602 -0.3154 -1.8625
  896SOL    HW2 2688   1.530   0.306   1.887 -0.8891  0.1396  2.1581
  897SOL     OW 2689   0.632   1.503   2.127 -0.2568  0.1731 -0.0986
  897SOL    HW1 2690   0.717   1.475   2.176  0.7662  0.6083 -0.2452
  897SOL    HW2 2691   0.653   1.543   2.038 -1.1675  1.2557 -0.7982
  898SOL     OW 2692   2.465   2.508   2.291 -0.7038 -0.3815 -0.0342
  898SOL    HW1 2693   2.404   2.537   2.212 -1.4591 -2.1901 -0.8887
  898SOL    HW2 2694   2.546   2.445   2.265  2.9547 -2.6040 -0.2651
  899SOL     OW 2695   1.337   1.050   1.515  0.1640 -1.1603  0.0430
  899SOL    HW1 2696   1.305   1.148   1.509 -1.8148  0.1039  1.9983
  899SOL    HW2 2697   1.432   1.055   1.554 -0.2788  1.2766  0.1796
  900SOL     OW 2698   1.547   2.202   2.827  0.0688  0.0927  0.1244
  900SOL    HW1 2699   1.557   2.101   2.823 -0.6929  0.5717  0.3920
  900SOL    HW2 2700   1.541   2.237   2.920  2.2689  3.1665  1.8864
  901SOL     OW 2701   0.581   2.006   2.566  0.2306 -0.0311  0.4608
  901SOL    HW1 2702   0.514   1.933   2.585  2.1718 -2.9488  0.8312
  901SOL    HW2 2703   0.542   2.101   2.564 -0.2687 -1.1292 -0.1939
  902SOL     OW 2704   2.102   1.682   0.152 -0.5383  0.1952  0.0507
  902SOL    HW1 2705   2.081   1.596   0.104  1.9502 -3.2671 -1.1605
  902SOL    HW2 2706   2.091   1.659   0.254 -0.7011  0.1197  1.0121
  903SOL     OW 2707   2.079   1.128   0.264  0.3184 -0.0368 -0.5683
  903SOL    HW1 2708   2.076   1.045   0.209 -0.7805  1.4718  0.3168
  903SOL    HW2 2709   2.146   1.198   0.229  1.6363  1.3228  0.5155
  904SOL     OW 2710   0.782   0.852   2.720 -0.0305  0.1074  0.1306
  904SOL    HW1 2711   0.811   0.848   2.625  0.4501 -1.2886 -0.2527
  904SOL    HW2 2712   0.826   0.784   2.779 -2.0026 -0.9185 -0.7216
  905SOL     OW 2713   2.686   0.495   1.032 -0.0998  0.3975  0.8621
  905SOL    HW1 2714   2.678   0.416   0.965 -0.9439  0.8313 -1.6789
  905SOL    HW2 2715   2.616   0.487   1.103  1.1176  0.2218 -1.2694
  906SOL     OW 2716   2.769   2.090   0.745 -0.0496  0.6120 -0.0155
  906SOL    HW1 2717   2.716   2.100   0.661  0.2580 -0.4505  2.9253
  906SOL    HW2 2718   2.851   2.033   0.725 -0.5664  0.6705  1.2526
  907SOL     OW 2719   1.206   0.513   0.752 -0.3628  0.1664  0.5676
  907SOL    HW1 2720   1.247   0.455   0.674  0.4522  1.8374 -2.2474
  907SOL    HW2 2721   1.224   0.610   0.734  0.6293 -2.3177  2.5975
  908SOL     OW 2722   1.991   2.830   1.525 -0.4569 -0.1386  0.4898
  908SOL    HW1 2723   2.004   2.729   1.508  0.0577  1.2598  0.2709
  908SOL    HW2 2724   1.937   2.845   1.610  0.9289 -0.5524 -1.8417
  909SOL     OW 2725   2.587   0.797   1.583 -0.0908 -0.6212  0.5041
  909SOL    HW1 2726   2.663   0.747   1.533 -1.2732 -2.7036 -0.2888
  909SOL    HW2 2727   2.613   0.888   1.622 -2.7996  0.6144 -0.1313
  910SOL     OW 2728   1.229   2.793   2.217 -0.6581 -0.4250 -0.1331
  910SOL    HW1 2729   1.133   2.801   2.252 -0.5415 -0.8480 -0.1743
  910SOL    HW2 2730   1.257   2.882   2.185 -1.2158  0.2643  1.3540
  911SOL     OW 2731   2.320   0.691   1.870  0.3217 -0.2840  0.3554
  911SOL    HW1 2732   2.402   0.651   1.827  1.3452 -1.9555 -1.5457
  911SOL    HW2 2733   2.233   0.674   1.814  0.4720 -0.5578 -1.0800
  912SOL     OW 2734   2.670   1.870   1.617  0.4180 -0.6295 -0.0638
  912SOL    HW1 2735   2.684   1.914   1.530 -0.6731 -2.2200  4.3207
  912SOL    HW2 2736   2.646   1.946   1.687  3.6303  1.4977  0.4443
  913SOL     OW 2737   2.729   1.986   1.398 -0.0024  0.2790 -0.2489
  913SOL    HW1 2738   2.693   2.081   1.373 -0.8998  2.1126  1.8927
  913SOL    HW2 2739   2.830   1.981   1.382  0.3892 -1.0828  1.8097
  914SOL     OW 2740   2.257   1.750   1.372  0.2288 -0.2470  0.5103
  914SOL    HW1 2741   2.333   1.723   1.436  0.4283  0.4512  0.6013
  914SOL    HW2 2742   2.237   1.676   1.305 -1.9652 -0.9133 -1.8256
  915SOL     OW 2743   1.289   1.305   1.406 -0.3920  0.3576 -0.2049
  915SOL    HW1 2744   1.194   1.339   1.393  3.0172  1.2431  1.6508
  915SOL    HW2 2745   1.340   1.297   1.313  1.1376 -0.2798 -0.7770
  916SOL     OW 2746   2.338   2.525   1.352 -0.3539 -0.1870  0.0767
  916SOL    HW1 2747   2.414   2.460   1.383  2.9818 -1.3313  2.4372
  916SOL    HW2 2748   2.372   2.622   1.347 -0.1791  0.8040  1.1684
  917SOL     OW 2749   2.666   1.842   2.901  0.3945 -0.6431  0.4452
  917SOL    HW1 2750   2.651   1.839   3.002 -1.4684 -0.8193  0.8045
  917SOL    HW2 2751   2.761   1.872   2.876  0.5935 -0.6907  0.0439
  918SOL     OW 2752   1.903   2.342   2.477  0.1572 -0.3807 -0.1485
  918SOL    HW1 2753   1.905   2.243   2.463  0.0801  5.4865  1.4347
  918SOL    HW2 2754   1.983   2.366   2.537 -1.0217  1.2010  2.9313
  919SOL     OW 2755   1.413   2.111   1.789 -0.1047  0.1625  0.0773
  919SOL    HW1 2756   1.469   2.039   1.742 -0.0885 -1.8218  0.4456
  919SOL    HW2 2757   1.373   2.183   1.725 -1.3462  0.3379 -2.8059
  920SOL     OW 2758   2.864   0.213   2.848  0.5762  0.3158 -0.1713
  920SOL    HW1 2759   2.948   0.276   2.858  1.6638 -0.1044  1.1376
  920SOL    HW2 2760   2.831   0.179   2.935 -0.2678  1.5330 -3.7285
  921SOL     OW 2761   2.716   0.200   2.230 -0.0848  0.3568 -0.2010
  921SOL    HW1 2762   2.702   0.168   2.328 -0.8380  0.5542  3.7536
  921SOL    HW2 2763   2.813   0.238   2.220  2.5025  0.4753 -0.3132
  922SOL     OW 2764   2.051   2.255   0.277  0.0448 -0.3416 -0.6276
  922SOL    HW1 2765   2.018   2.239   0.185 -2.8411 -0.5834  0.4384
  922SOL    HW2 2766   2.086   2.170   0.324  0.2447 -0.3605 -0.5148
  923SOL     OW 2767   0.210   1.943   0.180  0.4115 -0.0303  0.0455
  923SOL    HW1 2768   0.135   1.897   0.127 -0.4054  1.2674 -3.9308
  923SOL    HW2 2769   0.221   2.041   0.145  1.9713  0.8801 -0.1707
  924SOL     OW 2770   0.754   0.358   2.935 -0.1635  0.0139 -0.2568
  924SOL    HW1 2771   0.792   0.292   3.005 -1.7605  1.2541  2.3347
  924SOL    HW2 2772   0.690   0.426   2.977 -3.9570 -3.6641  2.5833
  925SOL     OW 2773   2.432   1.151   0.889  0.2312 -0.2744  0.0107
  925SOL    HW1 2774   2.352   1.218   0.902 -1.1971 -0.0296  1.4656
  925SOL    HW2 2775   2.513   1.185   0.831  1.3681 -0.0222 -0.2167
  926SOL     OW 2776   2.854   1.175   0.869  0.5252  0.3514 -0.7320
  926SOL    HW1 2777   2.943   1.142   0.903  1.3518 -1.8039  2.5953
  926SOL    HW2 2778   2.810   1.226   0.941  2.4750 -2.4382 -1.4419
  927SOL     OW 2779   0.245   1.281   0.177  0.0392 -0.1938 -0.4804
  927SOL    HW1 2780   0.291   1.189   0.158  0.1537  1.7372  0.0585
  927SOL    HW2 2781   0.223   1.327   0.091 -0.3668  1.4308  0.3571
  928SOL     OW 2782   0.163   0.518   2.237  0.2588 -0.1640 -0.5582
  928SOL    HW1 2783   0.226   0.597   2.217 -0.1613  1.0165 -0.3666
  928SOL    HW2 2784   0.087   0.543   2.303 -2.9193  0.1562  1.3784
  929SOL     OW 2785   2.857   2.875   1.415 -0.4902  0.1671 -0.0450
  929SOL    HW1 2786   2.799   2.962   1.411  1.8637 -0.4117 -1.9508
  929SOL    HW2 2787   2.833   2.811   1.345  1.5670 -0.8392  1.1387
  930SOL     OW 2788   1.991   1.865   1.428 -0.4599  0.1443 -0.0495
  930SOL    HW1 2789   2.078   1.822   1.391 -0.8811  0.0745 -0.5103
  930SOL    HW2 2790   1.999   1.896   1.523 -2.3570 -0.4264 -0.2032
  931SOL     OW 2791   1.341   1.512   0.760 -0.0424  0.5852 -0.3746
  931SOL    HW1 2792   1.378   1.600   0.805  1.6623  0.9886  1.2838
  931SOL    HW2 2793   1.319   1.531   0.658 -2.7173  0.7948 -2.5526
  932SOL     OW 2794   2.706   1.278   1.082 -0.4814 -0.0918  0.2787
  932SOL    HW1 2795   2.708   1.191   1.134 -3.3008  0.0881 -0.2136
  932SOL    HW2 2796   2.640   1.343   1.123  0.1932  1.0651  0.2765
  933SOL     OW 2797   2.478   1.698   1.527 -0.2668  0.2746  0.3687
  933SOL    HW1 2798   2.418   1.644   1.598 -0.0512 -1.4461  2.4594
  933SOL    HW2 2799   2.544   1.757   1.572  1.9112 -0.2182 -0.7760
  934SOL     OW 2800   1.572   2.820   1.324  0.2812 -0.1624  0.1937
  934SOL    HW1 2801   1.509   2.893   1.346  0.7062  0.3931 -1.9825
  934SOL    HW2 2802   1.668   2.853   1.302  0.4307 -0.2012  1.9136
  935SOL     OW 2803   0.477   1.575   0.817 -0.0330  0.6086  0.5057
  935SOL    HW1 2804   0.421   1.643   0.869  1.1521 -0.3841  3.0141
  935SOL    HW2 2805   0.533   1.625   0.744 -0.3103  2.2429  1.9681
  936SOL     OW 2806   2.941   1.209   0.458  0.2005  0.4525  0.0052
  936SOL    HW1 2807   2.839   1.223   0.456 -0.0431  0.5125  0.1191
  936SOL    HW2 2808   2.988   1.241   0.544  1.3644 -0.6856  2.1508
  937SOL     OW 2809   1.740   2.762   0.923 -0.1679 -0.3148 -0.3635
  937SOL    HW1 2810   1.668   2.690   0.932 -0.0655 -1.5774  1.5905
  937SOL    HW2 2811   1.786   2.754   0.835 -1.0404 -3.8759 -0.0561
  938SOL     OW 2812   2.530   2.388   0.793  0.1439 -0.2818  0.4613
  938SOL    HW1 2813   2.559   2.436   0.880  1.6885 -0.1584 -0.3960
  938SOL    HW2 2814   2.425   2.372   0.789 -3.3321 -0.6914  0.6162
  939SOL     OW 2815   0.509   2.190   0.020  0.2320 -0.3056  0.7981
  939SOL    HW1 2816   0.517   2.102   0.072 -0.4031  1.0297 -0.4010
  939SOL    HW2 2817   0.524   2.171   3.020 -0.2742 -1.8819 -0.4255
  940SOL     OW 2818   2.981   3.078   3.083 -0.4697  0.1910  0.0673
  940SOL    HW1 2819   2.988   0.057   0.049 -2.0575 -0.6979  0.3727
  940SOL    HW2 2820   3.028   3.095   2.993  3.3438 -1.5108 -1.7185
  941SOL     OW 2821   1.165   0.045   2.945 -0.3864  0.4523 -0.6653
  941SOL    HW1 2822   1.213   3.057   2.957 -3.0789 -0.7826  1.6847
  941SOL    HW2 2823   1.141   0.055   2.843  3.0114 -2.2021 -3.7469
  942SOL     OW 2824   1.252   1.709   1.648  0.1247 -0.1628  0.2315
  942SOL    HW1 2825   1.308   1.644   1.596  2.8583 -0.3244  1.0481
  942SOL    HW2 2826   1.187   1.664   1.712 -0.4583  0.8647  0.7672
  943SOL     OW 2827   2.005   1.305   1.684  0.1524 -0.2740  0.5680
  943SOL    HW1 2828   1.965   1.336   1.591 -0.2463  1.1267 -0.4711
  943SOL    HW2 2829   1.938   1.280   1.752 -1.6920 -2.0249  1.1347
  944SOL     OW 2830   1.904   0.784   1.631 -0.2050 -0.2829  0.1357
  944SOL    HW1 2831   1.822   0.728   1.596 -2.1444  0.1703 -0.8120
  944SOL    HW2 2832   1.996   0.739   1.613  1.2522 -0.5378  0.5585
  945SOL     OW 2833   0.076   3.095   0.918  0.1994  0.3272  0.0589
  945SOL    HW1 2834   0.024   3.009   0.905 -1.0300  3.8219  0.0605
  945SOL    HW2 2835   0.019   0.076   0.950 -0.4847 -0.0673  0.8993
  946SOL     OW 2836   0.545   0.747   1.410 -0.8441 -0.0366 -0.5161
  946SOL    HW1 2837   0.514   0.653   1.424 -0.9389  1.9104 -0.2134
  946SOL    HW2 2838   0.588   0.756   1.316 -1.6638 -0.0001 -0.0315
  947SOL     OW 2839   0.439   2.743   0.641  0.8021  0.2008  0.0511
  947SOL    HW1 2840   0.357   2.800   0.609 -1.4249  1.3248  0.7608
  947SOL    HW2 2841   0.404   2.702   0.728  0.8423 -1.1626  0.9621
  948SOL     OW 2842   2.734   1.393   2.066 -0.7164  0.3792  0.1210
  948SOL    HW1 2843   2.644   1.355   2.082  0.9393  2.2793 -0.2506
  948SOL    HW2 2844   2.781   1.343   1.983 -0.6466  0.1280 -4.2957
  949SOL     OW 2845   0.473   1.149   2.282 -0.0243 -0.1303  0.0482
  949SOL    HW1 2846   0.403   1.157   2.210 -0.9818  0.3465  0.7669
  949SOL    HW2 2847   0.426   1.101   2.357  1.6589 -0.1225 -2.0015
  950SOL     OW 2848   0.959   0.446   0.835 -0.1661 -0.3279  0.4536
  950SOL    HW1 2849   0.936   0.492   0.922 -3.0651 -2.5869  0.4577
  950SOL    HW2 2850   1.039   0.496   0.796  0.9357 -0.9500  1.7500
  951SOL     OW 2851   1.125   2.152   2.059  0.3590  0.0794 -0.4627
  951SOL    HW1 2852   1.068   2.072   2.031  1.3392 -1.8567 -0.2955
  951SOL    HW2 2853   1.086   2.241   2.022  0.6096  0.4372 -3.0151
  952SOL     OW 2854   0.560   1.784   3.080  0.1683  0.3303 -0.7025
  952SOL    HW1 2855   0.574   1.867   0.038  1.2419  2.4439  0.3358
  952SOL    HW2 2856   0.470   1.739   0.009 -1.1475  0.3852 -0.2122
  953SOL     OW 2857   1.964   2.940   2.389 -0.3845 -0.4132 -0.3979
  953SOL    HW1 2858   2.051   2.992   2.404 -1.7227 -1.2612  0.7941
  953SOL    HW2 2859   1.918   2.977   2.303  0.0528 -0.7569 -2.3536
  954SOL     OW 2860   1.562   1.342   0.895  0.5083 -0.2424 -0.5021
  954SOL    HW1 2861   1.578   1.291   0.809  1.0971 -0.6287 -0.5184
  954SOL    HW2 2862   1.493   1.414   0.875 -2.5816 -0.4599 -0.1607
  955SOL     OW 2863   0.414   2.138   2.284  0.2916 -0.0792  0.0547
  955SOL    HW1 2864   0.381   2.051   2.242  0.1104  0.3690  0.2111
  955SOL    HW2 2865   0.399   2.222   2.226  0.0441  1.1910 -0.8697
  956SOL     OW 2866   1.714   0.633   1.573 -0.4282  0.1882 -0.1226
  956SOL    HW1 2867   1.622   0.651   1.543  1.9469 -1.8516  2.1331
  956SOL    HW2 2868   1.720   0.559   1.642  0.0778  1.2181  2.0794
  957SOL     OW 2869   2.262   2.001   2.614  0.0320  0.0040 -0.1193
  957SOL    HW1 2870   2.230   2.047   2.531 -3.2381 -1.5652  1.1357
  957SOL    HW2 2871   2.180   1.993   2.673 -0.4552 -1.7984  0.5528
  958SOL     OW 2872   0.977   2.357   0.912  0.8561 -0.3371 -0.0950
  958SOL    HW1 2873   0.875   2.350   0.894  0.9514 -2.4107  0.2894
  958SOL    HW2 2874   0.997   2.386   1.005  3.3064 -1.2072 -0.3386
  959SOL     OW 2875   1.843   2.065   2.746 -0.4362  0.0327  0.1604
  959SOL    HW1 2876   1.753   2.017   2.767 -1.2240  0.2277  0.6206
  959SOL    HW2 2877   1.844   2.084   2.645  2.7539 -1.2429  1.9384
  960SOL     OW 2878   3.040   0.414   2.900  0.6176 -0.1353  0.0105
  960SOL    HW1 2879   0.022   0.371   2.861 -2.8049 -1.0374  0.2990
  960SOL    HW2 2880   3.066   0.495   2.955  1.2733  1.5641  3.3039
  961SOL     OW 2881   0.966   1.201   2.301  0.2286 -0.0287 -0.1663
  961SOL    HW1 2882   1.061   1.240   2.312 -0.5246  1.3720  1.1260
  961SOL    HW2 2883   0.939   1.138   2.378 -1.0418  1.3025 -0.1302
  962SOL     OW 2884   1.084   1.198   0.022 -0.0089  0.0138  0.3667
  962SOL    HW1 2885   1.178   1.219   0.055 -0.6086 -0.6623 -3.0430
  962SOL    HW2 2886   1.014   1.219   0.096 -2.2090  0.7273  0.7973
  963SOL     OW 2887   2.391   1.715   2.955 -0.5562 -0.2581 -0.2014
  963SOL    HW1 2888   2.419   1.703   2.853  1.5706 -0.6608 -1.6469
  963SOL    HW2 2889   2.445   1.789   3.001  2.6285 -1.7715  0.7665
  964SOL     OW 2890   1.517   2.587   0.966 -0.0966 -0.0854 -0.2693
  964SOL    HW1 2891   1.430   2.580   0.913  1.5230 -1.0979  0.5615
  964SOL    HW2 2892   1.501   2.583   1.068  0.5424 -0.0246 -0.6350
  965SOL     OW 2893   0.854   1.985   1.081  0.2693 -0.2240  0.0593
  965SOL    HW1 2894   0.841   1.969   1.180 -2.2760 -1.5734 -0.3935
  965SOL    HW2 2895   0.946   1.956   1.053  0.3801 -1.6113 -0.4331
  966SOL     OW 2896   0.080   1.655   0.065  0.1900 -0.1590  0.2277
  966SOL    HW1 2897   0.102   1.578   0.000  0.5130 -0.5253 -0.5351
  966SOL    HW2 2898   3.083   1.646   0.096  1.0555  2.1087  1.4206
  967SOL     OW 2899   1.526   0.005   1.908  0.3768  0.1208 -0.1891
  967SOL    HW1 2900   1.536   3.030   1.982 -0.6956  0.2382  3.4585
  967SOL    HW2 2901   1.604   3.090   1.842 -1.3303 -0.6536 -1.0081
  968SOL     OW 2902   1.995   0.725   0.779  0.8594  0.2920  0.6912
  968SOL    HW1 2903   1.980   0.711   0.878  2.8663 -0.8052 -2.7036
  968SOL    HW2 2904   2.004   0.824   0.759  0.0800  0.7822 -0.6139
  969SOL     OW 2905   3.028   1.390   1.973  0.3716  0.2591 -0.3144
  969SOL    HW1 2906   2.965   1.356   1.897  1.1626 -0.0234 -1.3990
  969SOL    HW2 2907   0.021   1.385   1.936  0.9187  2.2051 -2.5214
  970SOL     OW 2908   2.504   1.443   1.132 -0.9037  0.2388 -0.1357
  970SOL    HW1 2909   2.437   1.367   1.150  0.2518 -0.0149 -1.1505
  970SOL    HW2 2910   2.465   1.494   1.054 -0.5654 -0.2416 -1.5935
  971SOL     OW 2911   0.642   0.160   1.417  0.0461 -0.5593  0.4145
  971SOL    HW1 2912   0.678   0.248   1.458 -1.7186  2.8845  0.6115
  971SOL    HW2 2913   0.544   0.146   1.426  0.6102  1.6663  0.8294
  972SOL     OW 2914   0.841   0.526   2.582  0.6869 -0.3968 -0.6361
  972SOL    HW1 2915   0.809   0.494   2.675  0.8983 -1.3947 -0.4348
  972SOL    HW2 2916   0.917   0.465   2.544  1.5221 -0.6376  0.1525
  973SOL     OW 2917   0.190   1.379   1.120 -0.3497  0.0123 -0.3593
  973SOL    HW1 2918   0.141   1.330   1.194 -0.9800 -2.9024 -0.4080
  973SOL    HW2 2919   0.287   1.349   1.125 -0.7951 -1.8661  1.0318
  974SOL     OW 2920   2.184   1.089   1.862  0.5040  0.3381 -0.0266
  974SOL    HW1 2921   2.158   1.064   1.766  0.4514 -1.6446 -0.3697
  974SOL    HW2 2922   2.280   1.062   1.883 -0.8130  2.3023  0.5711
  975SOL     OW 2923   2.557   0.190   0.375  0.3181  0.6066  0.4793
  975SOL    HW1 2924   2.548   0.129   0.294 -0.7848 -0.0273  1.2986
  975SOL    HW2 2925   2.646   0.176   0.430  4.0235  0.1745  0.8647
  976SOL     OW 2926   2.849   1.271   1.809  0.0322  0.6778 -0.4945
  976SOL    HW1 2927   2.827   1.306   1.717 -0.1787 -0.1954 -0.4945
  976SOL    HW2 2928   2.890   1.174   1.803  1.9054 -3.2242  0.1072
  977SOL     OW 2929   0.749   2.840   0.011  0.0840  0.2860 -0.0291
  977SOL    HW1 2930   0.653   2.857   3.088 -0.5736  1.1163  0.0552
  977SOL    HW2 2931   0.784   2.873   0.103  1.1828 -0.1939  3.2439
  978SOL     OW 2932   0.441   1.586   0.374  0.1875  0.1095 -0.0421
  978SOL    HW1 2933   0.439   1.491   0.408  1.4277 -0.5001 -2.0418
  978SOL    HW2 2934   0.537   1.623   0.364  3.0693 -0.2154 -2.1585
  979SOL     OW 2935   1.416   1.750   1.387  0.0671 -0.7141 -0.9152
  979SOL    HW1 2936   1.515   1.786   1.401 -0.8738  0.0221  2.7605
  979SOL    HW2 2937   1.404   1.673   1.446  1.2562  1.2581  1.0985
  980SOL     OW 2938   0.362   1.451   2.088 -0.3787  0.0063  0.0141
  980SOL    HW1 2939   0.459   1.455   2.125 -1.5999  0.6544  1.2947
  980SOL    HW2 2940   0.353   1.503   2.001 -0.0148  0.5978 -0.4947
  981SOL     OW 2941   2.963   1.528   0.162 -0.2571 -0.0277 -0.1171
  981SOL    HW1 2942   2.881   1.552   0.222 -2.3938 -1.0666  2.8141
  981SOL    HW2 2943   3.037   1.494   0.222 -0.9102 -1.9049  1.0076
  982SOL     OW 2944   2.568   2.588   2.678 -0.0951 -0.1322  0.3277
  982SOL    HW1 2945   2.594   2.628   2.585 -0.9807  0.5452  0.3462
  982SOL    HW2 2946   2.510   2.652   2.731 -0.0019  1.0745 -1.7544
  983SOL     OW 2947   1.452   0.220   1.611  0.6294 -0.5694 -0.1462
  983SOL    HW1 2948   1.531   0.179   1.556 -2.8133 -0.9682  2.4213
  983SOL    HW2 2949   1.481   0.275   1.692 -1.2902  1.7433  0.2621
  984SOL     OW 2950   1.052   3.041   2.443  0.0562 -0.4532  0.3536
  984SOL    HW1 2951   1.144   3.034   2.396  0.5111  0.4904 -1.6250
  984SOL    HW2 2952   1.063   3.088   2.537  0.5973  1.7145 -0.0166
  985SOL     OW 2953   1.814   2.172   1.749  0.6499 -0.2127 -0.0869
  985SOL    HW1 2954   1.771   2.259   1.782  2.3962  3.3624  0.0113
  985SOL    HW2 2955   1.750   2.099   1.711 -0.4060 -3.6766 -1.4082
  986SOL     OW 2956   2.233   3.025   2.390 -0.0503 -0.2828  0.5391
  986SOL    HW1 2957   2.275   3.014   2.293  1.8456 -0.7450 -0.0798
  986SOL    HW2 2958   2.244   0.021   2.419 -3.7557 -1.1488 -0.8358
  987SOL     OW 2959   2.501   0.348   2.146  0.0997  0.4613  0.3045
  987SOL    HW1 2960   2.580   0.291   2.185 -0.1691 -1.8896  0.2369
  987SOL    HW2 2961   2.462   0.402   2.220 -0.1221  0.6568 -1.4969
  988SOL     OW 2962   2.569   0.456   2.612 -0.3430  0.6820  0.2822
  988SOL    HW1 2963   2.493   0.442   2.680 -0.2442 -1.4932  0.3647
  988SOL    HW2 2964   2.571   0.552   2.586  0.6270  0.6827  0.8274
  989SOL     OW 2965   2.252   2.382   2.359 -0.3883  0.1287  0.2063
  989SOL    HW1 2966   2.344   2.424   2.338  1.1155 -1.6079 -0.7460
  989SOL    HW2 2967   2.198   2.439   2.420 -0.5107  0.6933 -0.0769
  990SOL     OW 2968   0.263   1.152   2.919  0.3391 -0.0349  0.6259
  990SOL    HW1 2969   0.220   1.242   2.946  0.1321 -3.8402 -0.3363
  990SOL    HW2 2970   0.349   1.163   2.863  0.4049  2.2387  0.5873
  991SOL     OW 2971   0.801   1.183   2.656 -0.0565  0.6746  0.3022
  991SOL    HW1 2972   0.847   1.105   2.604 -0.3784 -0.0683  0.1652
  991SOL    HW2 2973   0.744   1.244   2.598 -0.3748 -1.9326  0.6909
  992SOL     OW 2974   2.937   2.205   2.043  0.3656  0.8945  0.1128
  992SOL    HW1 2975   2.955   2.305   2.025  1.4113  0.5961 -1.9877
  992SOL    HW2 2976   2.927   2.160   1.953 -0.7457  0.8890  3.5853
  993SOL     OW 2977   0.702   0.230   1.111  0.2511  0.4516 -0.5266
  993SOL    HW1 2978   0.641   0.170   1.167 -0.0206  0.8059  1.4108
  993SOL    HW2 2979   0.697   0.200   1.012  1.8837 -0.3649 -0.8017
  994SOL     OW 2980   0.282   1.917   1.314  0.1325  0.1777  1.1939
  994SOL    HW1 2981   0.281   1.841   1.251 -0.0141  0.4225  0.5695
  994SOL    HW2 2982   0.233   1.992   1.263 -0.1879  0.0053  0.2543
  995SOL     OW 2983   2.265   1.641   2.481  0.5663  0.0938  0.4595
  995SOL    HW1 2984   2.330   1.564   2.456  1.2468 -2.1933  1.9643
  995SOL    HW2 2985   2.309   1.734   2.488  1.9032 -0.3294 -2.0152
  996SOL     OW 2986   1.976   1.302   2.477 -0.4593  0.3010  0.0648
  996SOL    HW1 2987   2.048   1.316   2.550  0.8580 -1.1478  1.7133
  996SOL    HW2 2988   1.890   1.290   2.530  1.0256  0.7863 -0.3090
  997SOL     OW 2989   1.634   1.053   2.030 -0.4815 -0.5476 -0.3319
  997SOL    HW1 2990   1.661   1.012   1.943 -1.8618  0.0405 -0.3124
  997SOL    HW2 2991   1.713   1.110   2.061 -1.9731  1.2630 -1.7226
  998SOL     OW 2992   2.334   2.094   0.832  0.2987 -0.0501  0.1528
  998SOL    HW1 2993   2.351   2.070   0.737 -1.0063 -0.9367  1.1931
  998SOL    HW2 2994   2.419   2.088   0.888  1.9745 -1.1236 -1.3024
  999SOL     OW 2995   2.361   2.316   0.264  0.2891 -0.9914 -0.8614
  999SOL    HW1 2996   2.293   2.265   0.316  1.2573  2.7610 -0.5317
  999SOL    HW2 2997   2.311   2.388   0.206 -0.8845  0.1604 -1.9997
 1000SOL     OW 2998   0.821   2.906   2.523 -0.1908  0.2320 -0.4516
 1000SOL    HW1 2999   0.896   2.964   2.489  0.0507  0.0669  0.2153
 1000SOL    HW2 3000   0.823   2.896   2.621 -1.6534  0.9070 -1.5806
   3.09956   3.09956   3.09956
