1000 SPC/Fw water molecules t= 193.00000 step= 193000
 3000
    1SOL     OW    1   2.835   3.017   1.054  0.1186  0.1800  0.1365
    1SOL    HW1    2   2.784   2.928   1.057  0.4584 -2.6739 -0.3833
    1SOL    HW2    3   2.854   3.047   0.960  0.3532  0.9576  2.4346
    2SOL     OW    4   1.985   1.847   2.201  0.6889 -0.0146 -1.0978
    2SOL    HW1    5   2.016   1.756   2.249 -0.2033 -4.7591  2.6635
    2SOL    HW2    6   1.898   1.883   2.252 -4.0227  2.3052  0.1315
    3SOL     OW    7   1.942   2.541   2.072 -0.2408 -0.3823  0.2272
    3SOL    HW1    8   1.918   2.604   2.151 -2.8973  0.4226  1.4267
    3SOL    HW2    9   1.978   2.452   2.101 -0.1582 -0.4882  1.4306
    4SOL     OW   10   1.786   2.091   2.025 -0.1762 -0.2275  0.1315
    4SOL    HW1   11   1.861   2.158   2.036 -2.0579 -0.1929 -2.5421
    4SOL    HW2   12   1.703   2.133   1.974 -4.2516  0.1380 -2.8508
    5SOL     OW   13   1.190   0.655   1.795  0.1409 -0.0999 -0.7801
    5SOL    HW1   14   1.153   0.663   1.698 -0.2643  1.7356 -2.8847
    5SOL    HW2   15   1.282   0.702   1.798  0.1271 -1.3084 -0.3086
    6SOL     OW   16   2.857   0.636   2.918  0.4124  0.0608 -0.0740
    6SOL    HW1   17   2.901   0.613   3.013  1.7856  0.2494  2.6453
    6SOL    HW2   18   2.757   0.639   2.925  1.2441 -2.2733  0.9568
    7SOL     OW   19   1.179   0.912   1.604 -0.2905 -1.0813 -0.0969
    7SOL    HW1   20   1.082   0.927   1.613  2.6717 -0.9753  0.1489
    7SOL    HW2   21   1.215   0.979   1.536  1.0017  0.1769 -1.8099
    8SOL     OW   22   1.222   0.405   0.817 -0.1056 -0.6468 -0.3038
    8SOL    HW1   23   1.314   0.381   0.775 -0.8885  0.4568 -0.4541
    8SOL    HW2   24   1.214   0.506   0.823  2.3043 -0.6756 -0.4116
    9SOL     OW   25   1.093   0.937   2.881 -0.2023 -0.5618  0.1486
    9SOL    HW1   26   1.092   1.033   2.848  0.7516 -0.5969 -0.0261
    9SOL    HW2   27   1.045   0.924   2.972 -0.6139 -0.4087 -1.7874
   10SOL     OW   28   0.352   2.802   0.472  0.0189 -0.0122 -0.3032
   10SOL    HW1   29   0.430   2.866   0.484 -0.3698  1.7150 -2.7056
   10SOL    HW2   30   0.306   2.825   0.385 -0.5275 -0.7042  0.1084
   11SOL     OW   31   0.557   1.537   0.010  1.3969 -0.8106 -0.1688
   11SOL    HW1   32   0.545   1.440   0.000  1.8196  1.0209  2.0883
   11SOL    HW2   33   0.464   1.584   0.013 -3.8773  3.4544  0.5585
   12SOL     OW   34   0.607   0.289   1.555 -0.3351 -0.5126  0.4822
   12SOL    HW1   35   0.574   0.191   1.563  0.1960 -0.7960  0.5002
   12SOL    HW2   36   0.542   0.343   1.614 -2.0249 -2.4562  0.0268
   13SOL     OW   37   0.776   2.863   0.592  0.5237 -0.0962 -0.1668
   13SOL    HW1   38   0.855   2.893   0.536 -2.9624 -0.1678 -0.1122
   13SOL    HW2   39   0.773   2.767   0.619 -0.5261 -0.8342  1.8097
   14SOL     OW   40   1.301   2.196   1.077  0.4819 -0.4642 -0.1112
   14SOL    HW1   41   1.269   2.291   1.044  0.6832  1.7053 -1.8021
   14SOL    HW2   42   1.221   2.137   1.110  2.1884 -2.9670  1.0585
   15SOL     OW   43   2.630   0.716   2.010 -0.3485  0.2955 -0.9075
   15SOL    HW1   44   2.645   0.733   1.910 -1.0482 -0.4806  0.5387
   15SOL    HW2   45   2.667   0.623   2.044  2.6829  0.4594  0.2007
   16SOL     OW   46   1.162   2.791   2.872 -0.8160  0.4218  0.4189
   16SOL    HW1   47   1.121   2.866   2.820  2.0312 -0.3765  0.4402
   16SOL    HW2   48   1.101   2.731   2.928  1.7180 -1.4690 -2.2673
   17SOL     OW   49   1.021   0.058   1.325  0.3327 -0.1086  0.3302
   17SOL    HW1   50   0.959   0.135   1.347 -0.7793  1.0456 -0.1772
   17SOL    HW2   51   1.062   0.076   1.232  0.6921  0.3627 -1.0114
   18SOL     OW   52   1.117   0.647   0.476  0.5001 -0.1675  0.5709
   18SOL    HW1   53   1.024   0.608   0.490  1.1855 -1.1508 -1.8872
   18SOL    HW2   54   1.175   0.584   0.420 -1.4521 -0.2452 -2.1499
   19SOL     OW   55   2.057   1.462   3.020  0.7629  0.2355  0.0623
   19SOL    HW1   56   2.141   1.518   3.034 -1.8043  0.1146 -1.3661
   19SOL    HW2   57   2.082   1.366   2.991 -1.8638 -0.1443  1.7846
   20SOL     OW   58   1.906   1.697   1.691  0.3395  0.0618  0.1375
   20SOL    HW1   59   1.879   1.750   1.775  0.8857  2.5032  1.5183
   20SOL    HW2   60   1.840   1.616   1.679 -0.0312  0.9855 -0.8120
   21SOL     OW   61   0.706   1.225   0.105  0.1540 -0.1118 -0.3523
   21SOL    HW1   62   0.770   1.278   0.167  2.8747  1.4336 -0.1374
   21SOL    HW2   63   0.720   1.262   0.010 -1.4930 -1.0431 -1.4214
   22SOL     OW   64   2.251   0.204   1.244 -0.5601 -0.1241  0.2876
   22SOL    HW1   65   2.167   0.191   1.301 -0.4953 -1.1265 -1.0726
   22SOL    HW2   66   2.291   0.302   1.255 -0.2086  2.5291 -0.7363
   23SOL     OW   67   0.159   1.094   1.587 -0.4804 -0.0612 -0.3461
   23SOL    HW1   68   0.188   0.998   1.587  0.5883  1.7727  0.1204
   23SOL    HW2   69   0.192   1.141   1.501 -0.6687 -1.5742 -1.4625
   24SOL     OW   70   2.464   2.481   1.345  0.4827 -0.2540  0.1922
   24SOL    HW1   71   2.469   2.495   1.243 -0.0852  0.9247 -1.6064
   24SOL    HW2   72   2.409   2.544   1.404 -0.5415 -0.6728  1.4966
   25SOL     OW   73   2.003   2.630   2.618  0.2600  0.0380  0.5004
   25SOL    HW1   74   2.065   2.630   2.535  4.5470  1.0848 -0.9249
   25SOL    HW2   75   1.912   2.591   2.587  2.8313  1.2338  2.5882
   26SOL     OW   76   0.979   2.685   3.032  0.1154  0.1781 -0.4650
   26SOL    HW1   77   0.887   2.643   3.038  1.2360  0.5745  0.2720
   26SOL    HW2   78   1.041   2.617   3.076  0.5840 -0.6727 -1.6886
   27SOL     OW   79   0.584   2.198   2.883  0.6395 -0.1473  0.3242
   27SOL    HW1   80   0.572   2.108   2.836  3.9073  0.5552  2.1046
   27SOL    HW2   81   0.528   2.270   2.831 -1.2627  1.1517  0.3692
   28SOL     OW   82   3.081   1.495   1.416  0.1389  0.3141 -0.7968
   28SOL    HW1   83   2.987   1.496   1.379  2.0212  0.6340  1.8146
   28SOL    HW2   84   3.118   1.588   1.400 -0.6711  0.9903  0.1413
   29SOL     OW   85   2.727   2.090   2.140 -0.0467 -0.1572  0.1128
   29SOL    HW1   86   2.741   2.015   2.205  1.5675  3.3862 -1.1442
   29SOL    HW2   87   2.790   2.080   2.055  1.0544 -0.3452 -2.9823
   30SOL     OW   88   1.234   2.872   0.744 -0.2842 -0.0651 -0.2918
   30SOL    HW1   89   1.281   2.782   0.762  0.3099 -0.3846 -1.3533
   30SOL    HW2   90   1.166   2.895   0.813 -1.6971 -0.2077 -0.9232
   31SOL     OW   91   2.893   2.362   1.981  0.2206  0.1004  0.5793
   31SOL    HW1   92   2.857   2.293   2.043  1.3880  2.1974 -3.2233
   31SOL    HW2   93   2.881   2.334   1.881 -1.6639 -1.8788 -3.7407
   32SOL     OW   94   1.219   1.104   1.852 -0.4158 -0.4947 -0.0511
   32SOL    HW1   95   1.266   1.049   1.781  2.0130  0.9780  1.5696
   32SOL    HW2   96   1.196   1.199   1.822 -0.8425 -0.8389  1.4474
   33SOL     OW   97   0.377   2.782   2.418  0.4557  0.2719  0.5360
   33SOL    HW1   98   0.338   2.700   2.468 -1.8057  1.6779 -0.8810
   33SOL    HW2   99   0.371   2.768   2.320  1.6426 -2.5195  1.5720
   34SOL     OW  100   2.077   0.019   0.614  0.0539  0.0408  0.5419
   34SOL    HW1  101   2.157   0.009   0.551 -2.1374  0.9165  1.6140
   34SOL    HW2  102   2.047   3.050   0.654  1.6107 -2.3893  1.3951
   35SOL     OW  103   2.451   0.453   1.242  0.0639  0.4797  0.1804
   35SOL    HW1  104   2.380   0.479   1.175 -1.4812  2.0535  0.5554
   35SOL    HW2  105   2.537   0.503   1.225 -1.5087 -2.2302  0.4122
   36SOL     OW  106   2.224   2.602   2.115 -0.1924  0.3912  0.6809
   36SOL    HW1  107   2.208   2.539   2.036  2.8670  1.7316 -0.1945
   36SOL    HW2  108   2.133   2.632   2.149  0.6814 -1.2541 -0.2422
   37SOL     OW  109   0.953   2.535   2.159  0.3293  0.0165  0.0749
   37SOL    HW1  110   0.939   2.468   2.084  2.7528 -0.9644  0.2494
   37SOL    HW2  111   1.020   2.496   2.223 -1.3882  3.3286 -1.0391
   38SOL     OW  112   2.688   0.333   2.909 -0.4672 -0.4087 -0.1971
   38SOL    HW1  113   2.777   0.344   2.959  1.7851  1.1676  2.0923
   38SOL    HW2  114   2.605   0.355   2.967 -1.2697 -1.5747  0.1341
   39SOL     OW  115   2.156   1.772   1.982  0.5177  1.1465  0.1290
   39SOL    HW1  116   2.096   1.802   2.060 -0.0968 -1.3034 -0.6617
   39SOL    HW2  117   2.179   1.847   1.913  1.1395 -3.2245 -0.2069
   40SOL     OW  118   0.228   3.099   2.722  0.4655 -1.2081 -0.0734
   40SOL    HW1  119   0.138   3.073   2.683  1.2639 -1.7361  0.3778
   40SOL    HW2  120   0.309   3.066   2.667  0.7760 -1.0592 -1.2706
   41SOL     OW  121   1.863   0.438   1.018  0.1011  0.0567 -0.2832
   41SOL    HW1  122   1.933   0.466   1.088  0.3426 -1.4367  1.6394
   41SOL    HW2  123   1.877   0.480   0.930 -0.1775  1.5033  2.7550
   42SOL     OW  124   0.842   0.272   1.385 -0.5342  0.4091 -0.4964
   42SOL    HW1  125   0.924   0.326   1.419  2.5509 -0.3643  0.1620
   42SOL    HW2  126   0.762   0.271   1.446  0.1168  0.4884  1.5507
   43SOL     OW  127   2.534   1.172   2.147 -0.1973  0.2697 -0.8248
   43SOL    HW1  128   2.515   1.171   2.045 -1.3483  2.5292 -1.6315
   43SOL    HW2  129   2.583   1.086   2.173 -0.4442 -1.7084  2.7180
   44SOL     OW  130   2.977   2.950   0.399  0.4351 -0.1589 -0.3215
   44SOL    HW1  131   2.950   3.047   0.381  0.8890 -0.4366 -0.4129
   44SOL    HW2  132   3.031   2.950   0.484  3.3105 -0.0311 -1.0603
   45SOL     OW  133   0.048   2.450   1.962 -0.6230  0.5384  0.4088
   45SOL    HW1  134   3.081   2.396   1.966 -0.2659 -1.2740 -4.2507
   45SOL    HW2  135   0.060   2.500   1.873  1.2334  0.9229 -0.6777
   46SOL     OW  136   2.234   2.442   1.912  0.2998 -0.2946  0.0903
   46SOL    HW1  137   2.173   2.362   1.891 -2.8509 -1.3226 -2.1329
   46SOL    HW2  138   2.331   2.422   1.903 -2.0522 -0.5834  1.6392
   47SOL     OW  139   1.698   2.203   1.382  0.4162 -0.1372 -0.1543
   47SOL    HW1  140   1.643   2.169   1.307 -0.8338  1.1036  4.4858
   47SOL    HW2  141   1.742   2.126   1.433  1.3520 -2.6846  2.3600
   48SOL     OW  142   0.636   1.599   0.354  0.6689 -0.2730  0.1192
   48SOL    HW1  143   0.652   1.635   0.262 -0.9286 -0.7271  1.6044
   48SOL    HW2  144   0.690   1.657   0.417 -0.2375 -1.6926 -0.1184
   49SOL     OW  145   2.939   0.263   2.619  0.0101 -0.1442 -0.4885
   49SOL    HW1  146   2.982   0.233   2.707  0.1644  2.2838  0.4406
   49SOL    HW2  147   2.912   0.361   2.633 -1.2384 -0.7337 -1.4444
   50SOL     OW  148   2.185   0.708   0.588 -0.1181 -0.6137 -0.9049
   50SOL    HW1  149   2.247   0.672   0.667  2.4549 -1.3027 -2.3463
   50SOL    HW2  150   2.252   0.710   0.506  1.1410 -2.9250 -3.1653
   51SOL     OW  151   1.602   0.489   1.075 -0.1665  0.3813 -0.1232
   51SOL    HW1  152   1.587   0.389   1.101 -0.5625 -0.9686 -0.5509
   51SOL    HW2  153   1.702   0.491   1.052  1.3376 -0.2092 -1.2918
   52SOL     OW  154   1.287   1.172   0.074  0.5246 -0.6309  0.2195
   52SOL    HW1  155   1.295   1.091   0.012 -0.4228  0.9747 -2.4761
   52SOL    HW2  156   1.355   1.248   0.058  0.4227  1.2022 -0.6291
   53SOL     OW  157   0.860   1.609   2.515  0.4622 -0.1172 -0.2937
   53SOL    HW1  158   0.818   1.697   2.526  1.9218  3.0575 -0.8381
   53SOL    HW2  159   0.824   1.538   2.580  0.9138 -0.8280  0.9616
   54SOL     OW  160   2.077   0.268   0.945  0.0292 -0.2421 -0.3368
   54SOL    HW1  161   2.068   0.171   0.970  1.3020  0.3706  1.3995
   54SOL    HW2  162   1.995   0.310   0.990  2.7474 -2.0694 -0.8910
   55SOL     OW  163   2.444   2.756   0.658 -0.3148 -0.2313 -0.1848
   55SOL    HW1  164   2.519   2.826   0.646  0.9111 -2.3469  0.5841
   55SOL    HW2  165   2.391   2.745   0.570 -2.8615  1.9674 -1.3155
   56SOL     OW  166   0.511   0.053   1.592  0.2944  0.4815  0.1502
   56SOL    HW1  167   0.434   0.050   1.659  0.5101 -1.7655 -1.0849
   56SOL    HW2  168   0.571   3.093   1.605 -1.8168 -1.5228  1.4951
   57SOL     OW  169   1.667   1.145   0.467  0.0513 -0.0022  0.2122
   57SOL    HW1  170   1.588   1.080   0.457 -1.7258 -1.4078 -1.3975
   57SOL    HW2  171   1.653   1.222   0.400  1.7240  0.8407 -0.8392
   58SOL     OW  172   0.173   0.837   2.358  0.5223  0.2432 -0.2132
   58SOL    HW1  173   0.154   0.935   2.380 -0.5400  1.2810 -1.2039
   58SOL    HW2  174   0.090   0.788   2.328 -0.9432  1.8890 -0.2246
   59SOL     OW  175   0.927   2.803   2.530  0.4380  0.1949  0.2818
   59SOL    HW1  176   0.964   2.706   2.538  1.3681 -0.1335 -0.6720
   59SOL    HW2  177   0.826   2.791   2.528  0.4957  0.0950  2.1771
   60SOL     OW  178   2.411   2.749   0.930 -0.0186 -0.1052 -0.1659
   60SOL    HW1  179   2.409   2.754   0.829  0.3895 -1.9108  1.1806
   60SOL    HW2  180   2.345   2.811   0.978 -1.5812  1.3739  1.4992
   61SOL     OW  181   1.036   2.364   0.645 -0.6613 -0.3621 -0.8657
   61SOL    HW1  182   0.981   2.400   0.566  0.2014 -3.5100  2.2766
   61SOL    HW2  183   1.066   2.437   0.712  0.8129 -2.0793  2.0915
   62SOL     OW  184   2.112   2.272   2.592 -0.3194  0.5286 -0.1368
   62SOL    HW1  185   2.186   2.222   2.539  1.8352 -0.7885 -1.9139
   62SOL    HW2  186   2.149   2.323   2.676 -0.3009  0.9194  3.5020
   63SOL     OW  187   2.197   0.826   2.916 -0.6606 -0.4998 -0.6091
   63SOL    HW1  188   2.218   0.791   3.013  1.8519 -2.2497  0.5853
   63SOL    HW2  189   2.184   0.746   2.857 -0.0849  1.8345 -2.1507
   64SOL     OW  190   0.958   0.579   3.078 -0.0545  0.2924 -0.2106
   64SOL    HW1  191   0.951   0.681   3.086  2.4714  2.7202  1.0796
   64SOL    HW2  192   1.054   0.560   3.046  1.1459  1.7512 -1.2642
   65SOL     OW  193   1.056   2.016   0.532  0.1784  0.2791 -0.3535
   65SOL    HW1  194   1.112   2.008   0.446  2.4505  2.1227 -1.8377
   65SOL    HW2  195   1.117   2.062   0.598  1.3343  0.4392  1.1224
   66SOL     OW  196   0.496   1.317   1.955 -0.2976  0.1306 -0.0895
   66SOL    HW1  197   0.414   1.368   1.970  1.4316 -3.1744  0.0645
   66SOL    HW2  198   0.570   1.361   2.011 -0.0684  1.5381 -1.3583
   67SOL     OW  199   2.258   2.814   2.360  0.3615 -0.3391 -0.4188
   67SOL    HW1  200   2.227   2.908   2.373 -2.2050 -3.5839 -0.6042
   67SOL    HW2  201   2.184   2.754   2.323 -1.9987 -1.2063  0.5119
   68SOL     OW  202   0.520   1.680   1.365 -0.8042 -0.0895 -0.3341
   68SOL    HW1  203   0.540   1.617   1.289 -0.0518 -0.1329  1.2371
   68SOL    HW2  204   0.609   1.703   1.409 -0.1668 -0.3015  0.4761
   69SOL     OW  205   1.134   2.488   0.040  0.1253 -0.1524 -0.0846
   69SOL    HW1  206   1.142   2.493   0.145  1.7992 -0.8252  1.4561
   69SOL    HW2  207   1.226   2.496   3.119 -1.6869  1.0234 -0.9187
   70SOL     OW  208   2.959   1.069   2.782  0.4628  0.2559  0.1015
   70SOL    HW1  209   3.035   1.001   2.793 -0.6331 -2.1349  0.7193
   70SOL    HW2  210   2.928   1.073   2.687  0.5340  0.7268 -0.9602
   71SOL     OW  211   2.964   1.520   2.780 -0.1082  0.3900 -0.1971
   71SOL    HW1  212   3.064   1.523   2.762 -1.3316 -2.5276 -2.8705
   71SOL    HW2  213   2.917   1.567   2.702 -0.4379 -0.6708 -1.3515
   72SOL     OW  214   2.931   2.379   0.222  0.0700 -0.0302 -0.5261
   72SOL    HW1  215   2.912   2.281   0.216 -2.1377  2.1184 -0.9886
   72SOL    HW2  216   3.001   2.404   0.296  1.3640 -1.2386  0.5887
   73SOL     OW  217   0.933   1.432   0.151 -0.5973  0.3498 -0.5605
   73SOL    HW1  218   0.906   1.370   0.228 -1.2082 -1.1916 -0.8697
   73SOL    HW2  219   1.011   1.494   0.180  3.1214  2.1604 -0.3373
   74SOL     OW  220   0.038   1.095   3.011 -0.0555  0.2096  0.3004
   74SOL    HW1  221   0.100   1.173   2.986 -1.1957  1.2760 -0.2894
   74SOL    HW2  222   0.021   1.044   2.925 -2.5296 -0.8300 -1.2526
   75SOL     OW  223   2.064   1.531   1.911  0.4104  0.4964 -0.0316
   75SOL    HW1  224   2.122   1.603   1.954  0.1950 -1.3099  0.2553
   75SOL    HW2  225   1.998   1.563   1.838 -1.8133  0.2139 -0.4831
   76SOL     OW  226   2.035   2.417   1.577  0.0885 -0.3491 -0.2240
   76SOL    HW1  227   2.040   2.327   1.624 -1.4540 -1.4840  1.4559
   76SOL    HW2  228   1.966   2.424   1.503 -0.6619  1.4599 -0.0335
   77SOL     OW  229   2.680   0.640   1.218 -0.0775  0.4110 -0.0512
   77SOL    HW1  230   2.726   0.641   1.311 -1.6611  0.4778 -0.0206
   77SOL    HW2  231   2.745   0.606   1.151 -2.8982 -3.2756 -0.4660
   78SOL     OW  232   1.498   0.950   0.183  0.4652  0.5387 -0.1008
   78SOL    HW1  233   1.478   1.044   0.215  1.1346 -0.2486 -1.6035
   78SOL    HW2  234   1.499   0.877   0.260  2.8962 -2.3569  4.3099
   79SOL     OW  235   0.345   1.712   1.750  0.1625 -0.1694  0.0958
   79SOL    HW1  236   0.446   1.731   1.752 -0.5452 -0.7276  2.0000
   79SOL    HW2  237   0.291   1.745   1.668  0.5176 -0.6364 -2.6532
   80SOL     OW  238   1.650   1.325   1.504  0.1598 -0.8813  0.1522
   80SOL    HW1  239   1.669   1.239   1.551 -1.0441 -0.4078 -0.5301
   80SOL    HW2  240   1.548   1.325   1.475 -2.0058  0.6818 -0.6153
   81SOL     OW  241   0.654   0.015   1.100 -0.2365  0.1686 -0.3172
   81SOL    HW1  242   0.617   0.040   1.008 -1.3930 -0.3849 -2.1284
   81SOL    HW2  243   0.712   0.091   1.128  0.3664 -3.4149 -0.6558
   82SOL     OW  244   1.740   2.629   1.623 -0.8026 -0.1719  0.0946
   82SOL    HW1  245   1.781   2.652   1.526  1.2861  1.8594 -2.3681
   82SOL    HW2  246   1.816   2.629   1.684 -3.6417 -0.1344 -2.1088
   83SOL     OW  247   0.770   2.508   1.150  0.1607  0.3462  0.8070
   83SOL    HW1  248   0.688   2.448   1.118 -3.0777 -0.8761  0.3265
   83SOL    HW2  249   0.846   2.447   1.169 -0.1264 -1.2883  0.4325
   84SOL     OW  250   0.355   1.134   2.553  0.5485 -0.1880  0.4790
   84SOL    HW1  251   0.280   1.131   2.482 -1.2045 -1.1876  2.2933
   84SOL    HW2  252   0.434   1.069   2.533  0.1155 -1.5182  1.4364
   85SOL     OW  253   0.024   2.415   1.337 -0.0281  0.3063 -0.6321
   85SOL    HW1  254   0.002   2.511   1.355 -0.2287 -0.2743  1.0880
   85SOL    HW2  255   0.074   2.402   1.247 -1.5631 -1.0447  1.0440
   86SOL     OW  256   2.703   2.396   1.464  0.1699  0.5925 -0.3610
   86SOL    HW1  257   2.726   2.492   1.431 -1.5235  2.2566  0.8580
   86SOL    HW2  258   2.616   2.360   1.418 -0.4066 -2.1101 -1.2941
   87SOL     OW  259   2.559   2.118   2.948  0.4093  0.0805  0.6527
   87SOL    HW1  260   2.553   2.219   2.933 -2.9161  2.5025  0.1262
   87SOL    HW2  261   2.575   2.097   3.046 -1.2980 -0.2526 -2.7756
   88SOL     OW  262   0.357   1.912   1.185 -0.9863  0.2143  0.1706
   88SOL    HW1  263   0.256   1.926   1.183 -1.5666 -0.9393  0.8030
   88SOL    HW2  264   0.393   1.902   1.279  1.1111 -1.3135  0.2527
   89SOL     OW  265   1.197   0.034   1.816 -0.4745 -0.0703  0.7435
   89SOL    HW1  266   1.238   3.066   1.779 -0.1627 -0.9006 -0.2866
   89SOL    HW2  267   1.204   0.119   1.760 -1.7677  0.8214 -0.3346
   90SOL     OW  268   3.039   1.893   1.594 -0.4698  0.5661  0.4972
   90SOL    HW1  269   2.948   1.916   1.563  1.5715 -1.1475  1.1799
   90SOL    HW2  270   3.078   1.973   1.643 -2.8489 -0.2183  1.8586
   91SOL     OW  271   1.028   1.722   0.593  0.0802 -0.0239 -0.3417
   91SOL    HW1  272   0.937   1.684   0.567  2.0093  2.6468  0.3735
   91SOL    HW2  273   1.035   1.824   0.580  0.3705  3.1537  0.8509
   92SOL     OW  274   2.406   0.031   1.139  0.1327 -0.6308  0.1585
   92SOL    HW1  275   2.330   0.090   1.176  1.6801 -2.3969 -0.0678
   92SOL    HW2  276   2.454   0.077   1.063  0.8304  1.5237  1.5765
   93SOL     OW  277   2.796   1.298   2.805 -0.8995  0.2987 -0.7328
   93SOL    HW1  278   2.851   1.209   2.804  2.7300 -1.4344  0.6350
   93SOL    HW2  279   2.862   1.378   2.800  2.2496  1.0760  3.3085
   94SOL     OW  280   2.730   2.548   2.592  0.2437 -0.3724 -0.0849
   94SOL    HW1  281   2.719   2.452   2.563 -0.6510 -1.0133 -0.0620
   94SOL    HW2  282   2.650   2.604   2.564 -1.6886  0.4994 -0.5203
   95SOL     OW  283   1.641   0.315   1.557  0.4236 -0.1755 -0.1822
   95SOL    HW1  284   1.676   0.329   1.463  1.5587  0.1010  1.4503
   95SOL    HW2  285   1.673   0.227   1.588 -0.8397  1.5275 -3.4791
   96SOL     OW  286   3.031   3.104   1.741 -0.3643 -0.8966  0.2169
   96SOL    HW1  287   3.049   0.014   1.645  1.6461  3.2316 -0.4654
   96SOL    HW2  288   3.114   3.049   1.767  2.5919  0.3714  0.0747
   97SOL     OW  289   2.186   0.316   1.546 -0.5624 -0.0046 -0.0370
   97SOL    HW1  290   2.269   0.256   1.531  0.3899 -1.8103 -1.7428
   97SOL    HW2  291   2.186   0.366   1.637  1.4614  1.2630  2.7047
   98SOL     OW  292   1.254   2.189   1.383 -0.2752 -0.0122  0.0369
   98SOL    HW1  293   1.325   2.207   1.449 -1.6137 -0.4986  0.5658
   98SOL    HW2  294   1.281   2.181   1.284  0.4672 -1.2412 -1.8000
   99SOL     OW  295   0.111   2.935   1.844 -0.4066  0.2252 -0.0001
   99SOL    HW1  296   0.206   2.910   1.820  0.2609 -0.9374 -0.5720
   99SOL    HW2  297   0.092   2.918   1.945  0.6315 -0.8930  1.3128
  100SOL     OW  298   0.110   1.381   2.330 -0.6804 -1.1530  0.4337
  100SOL    HW1  299   0.164   1.407   2.246 -0.8137 -1.0721 -0.3326
  100SOL    HW2  300   0.050   1.455   2.370 -0.6544  4.1207  1.2961
  101SOL     OW  301   1.966   0.604   0.499  0.0116  0.3914 -0.4087
  101SOL    HW1  302   2.047   0.655   0.537 -1.0193 -2.5614  1.7923
  101SOL    HW2  303   1.899   0.675   0.469  1.1447 -0.1804  0.5801
  102SOL     OW  304   0.087   0.732   1.150 -0.1684  0.2408  0.5081
  102SOL    HW1  305   0.027   0.709   1.075  3.0649 -1.6935 -1.7439
  102SOL    HW2  306   0.060   0.822   1.200 -0.3003  1.5455  1.5507
  103SOL     OW  307   2.717   0.800   2.607 -0.0413 -0.2133  0.0403
  103SOL    HW1  308   2.765   0.791   2.697 -2.5476 -0.6065  1.2120
  103SOL    HW2  309   2.641   0.870   2.612 -0.4940 -1.2791  0.7501
  104SOL     OW  310   0.268   0.302   2.354 -0.1772  0.0212 -0.3813
  104SOL    HW1  311   0.363   0.326   2.343 -3.6225 -0.7139  0.0551
  104SOL    HW2  312   0.259   0.274   2.453 -2.1514 -0.7577  2.8714
  105SOL     OW  313   2.061   0.939   1.675  0.1540  0.0417  0.0694
  105SOL    HW1  314   2.044   0.933   1.574 -1.0568  0.6408 -0.3433
  105SOL    HW2  315   2.012   1.020   1.715 -2.4503 -1.1465  0.5575
  106SOL     OW  316   1.081   2.984   0.560 -0.3780 -0.1323 -0.0922
  106SOL    HW1  317   1.062   3.080   0.590 -0.5922  0.8115 -0.3110
  106SOL    HW2  318   1.140   2.932   0.631  0.9727  0.2935  1.6124
  107SOL     OW  319   0.288   1.808   1.475  0.0602  0.1091 -0.0020
  107SOL    HW1  320   0.189   1.775   1.451 -1.7165 -0.2242 -1.8216
  107SOL    HW2  321   0.360   1.756   1.428  0.2629 -0.5689 -0.0674
  108SOL     OW  322   0.427   0.068   2.327  0.4810 -0.9354 -0.6857
  108SOL    HW1  323   0.423   0.012   2.413  0.7641  0.4284  0.1483
  108SOL    HW2  324   0.441   0.162   2.361  4.4642  1.3251 -0.6448
  109SOL     OW  325   2.308   0.031   0.464  0.1260 -0.1559 -0.0992
  109SOL    HW1  326   2.286   3.093   0.386 -0.7114  1.7357  1.0693
  109SOL    HW2  327   2.329   0.124   0.428 -0.3406 -0.5515 -0.6846
  110SOL     OW  328   0.359   2.196   2.502 -0.0909  0.1926  0.0505
  110SOL    HW1  329   0.360   2.273   2.435 -1.5290 -1.8180 -0.0465
  110SOL    HW2  330   0.382   2.234   2.595 -1.8315 -0.1707 -1.0816
  111SOL     OW  331   1.754   2.927   2.199 -0.3161  0.1101  0.1051
  111SOL    HW1  332   1.669   2.957   2.158  0.8286  0.3069  0.3825
  111SOL    HW2  333   1.823   3.001   2.218  0.3333 -0.4670 -0.7542
  112SOL     OW  334   1.881   2.266   2.734  0.3368  0.4485  0.4493
  112SOL    HW1  335   1.828   2.178   2.747 -1.5774  1.4210 -1.2004
  112SOL    HW2  336   1.961   2.255   2.674  1.1546  1.5967 -1.3697
  113SOL     OW  337   2.498   2.408   1.893  0.3706 -0.4524 -0.2876
  113SOL    HW1  338   2.563   2.490   1.906  0.3194  1.9634 -0.3708
  113SOL    HW2  339   2.539   2.337   1.835  1.1028 -0.4043  1.5283
  114SOL     OW  340   2.522   0.937   0.944  0.1580 -0.4348  0.3132
  114SOL    HW1  341   2.565   0.849   0.923 -0.5962  0.9392  3.1005
  114SOL    HW2  342   2.566   1.014   0.898  0.0264 -0.8053 -0.6885
  115SOL     OW  343   0.112   1.539   2.705 -0.3558  0.1463 -0.0245
  115SOL    HW1  344   0.201   1.488   2.723 -0.0765 -0.9027 -2.0557
  115SOL    HW2  345   0.112   1.629   2.755 -0.3744  1.0912  1.1611
  116SOL     OW  346   0.252   1.436   2.094 -0.1841  0.0893  0.7943
  116SOL    HW1  347   0.213   1.511   2.036  0.0686 -1.2267  2.4442
  116SOL    HW2  348   0.218   1.341   2.063 -1.7704 -3.2181 -0.2064
  117SOL     OW  349   2.726   0.380   0.888  0.4368  0.4885 -0.4118
  117SOL    HW1  350   2.795   0.310   0.875 -1.1790 -0.7593  2.2772
  117SOL    HW2  351   2.655   0.383   0.814  0.1024 -0.0767 -0.8308
  118SOL     OW  352   0.944   2.095   1.776  0.0935 -0.4990 -0.0454
  118SOL    HW1  353   0.839   2.086   1.761 -1.5297 -1.1660  0.4146
  118SOL    HW2  354   0.982   2.173   1.726 -0.8991  1.0846  2.1436
  119SOL     OW  355   1.336   2.133   0.124 -0.5252  0.8333  0.4856
  119SOL    HW1  356   1.435   2.120   0.104  1.0787 -1.4108 -0.4719
  119SOL    HW2  357   1.286   2.147   0.033  1.4916 -1.0955 -1.1022
  120SOL     OW  358   0.536   1.476   2.529  0.1707  0.1877 -0.0528
  120SOL    HW1  359   0.496   1.568   2.548  1.9655  2.4321  0.2464
  120SOL    HW2  360   0.519   1.436   2.440 -0.6490  1.6001  1.3732
  121SOL     OW  361   1.927   2.760   1.057 -0.0862 -0.0920 -0.4715
  121SOL    HW1  362   2.008   2.701   1.034  1.0256  0.5494  1.9429
  121SOL    HW2  363   1.845   2.719   1.014  0.4747 -0.0098  1.2164
  122SOL     OW  364   2.378   2.157   1.968  0.7054  0.2759  0.1096
  122SOL    HW1  365   2.436   2.100   2.036  4.7089  0.6028  3.6329
  122SOL    HW2  366   2.416   2.253   1.956  0.4803 -0.5014 -0.8602
  123SOL     OW  367   2.955   0.186   0.838  0.3464 -0.1862 -0.0113
  123SOL    HW1  368   2.980   0.237   0.752 -1.9897 -1.8779 -0.5680
  123SOL    HW2  369   2.937   0.090   0.817 -0.1869 -0.8240  1.9547
  124SOL     OW  370   1.777   0.395   2.534  0.3114 -0.3540  0.0487
  124SOL    HW1  371   1.850   0.418   2.470 -1.4685 -0.6484 -1.8774
  124SOL    HW2  372   1.692   0.373   2.490  1.9030  2.7393  0.6074
  125SOL     OW  373   0.439   1.444   0.415 -0.0065  0.8333 -0.4644
  125SOL    HW1  374   0.508   1.509   0.390  0.6526 -1.7298  0.0079
  125SOL    HW2  375   0.432   1.376   0.342 -1.2581  0.1630 -1.0799
  126SOL     OW  376   2.414   1.853   0.370  0.0553 -0.1170 -0.3316
  126SOL    HW1  377   2.463   1.790   0.308 -2.6015  0.9019 -2.2137
  126SOL    HW2  378   2.456   1.839   0.462  1.8381 -0.3299  0.4521
  127SOL     OW  379   0.037   1.737   1.382  0.5197 -1.0614  0.6831
  127SOL    HW1  380   3.116   1.794   1.454 -0.8942  4.9993  1.7096
  127SOL    HW2  381   0.034   1.790   1.295 -2.0035 -2.4463 -0.2605
  128SOL     OW  382   0.788   0.456   2.887  0.0602 -0.1662  0.4267
  128SOL    HW1  383   0.851   0.499   2.954  0.4955 -2.1589 -0.6240
  128SOL    HW2  384   0.691   0.458   2.918  1.2077 -2.0860  1.5998
  129SOL     OW  385   2.135   1.677   0.992 -0.2205  0.2846  0.6216
  129SOL    HW1  386   2.168   1.606   1.059 -0.2638 -2.2668 -1.4656
  129SOL    HW2  387   2.053   1.724   1.017 -0.3500 -2.0749 -2.4005
  130SOL     OW  388   2.123   1.478   1.314  0.0756 -0.3305 -0.1540
  130SOL    HW1  389   2.148   1.420   1.238 -1.9169 -0.3424  0.9010
  130SOL    HW2  390   2.191   1.466   1.392 -0.2479 -2.1126  1.2810
  131SOL     OW  391   2.790   0.957   3.002 -0.0940 -0.2955 -0.1947
  131SOL    HW1  392   2.722   0.891   2.962 -0.3464 -0.8478 -0.0522
  131SOL    HW2  393   2.872   0.971   2.937  1.1189 -0.0105 -0.9278
  132SOL     OW  394   2.615   2.260   1.701 -0.1246 -0.5224  0.1823
  132SOL    HW1  395   2.637   2.313   1.622 -1.8939  1.1176  2.2297
  132SOL    HW2  396   2.686   2.184   1.711  0.2982 -0.9106 -1.0040
  133SOL     OW  397   0.542   1.087   0.998  0.2266  0.1368  0.3457
  133SOL    HW1  398   0.644   1.074   1.019  1.3104  1.5080 -0.9077
  133SOL    HW2  399   0.492   1.084   1.085  2.4189  0.7252  1.8025
  134SOL     OW  400   0.103   0.909   0.073  0.3578 -0.2228 -1.3416
  134SOL    HW1  401   0.022   0.846   0.070 -2.3052  2.8690  0.9695
  134SOL    HW2  402   0.093   0.970   3.120  0.8417 -0.7276 -0.1905
  135SOL     OW  403   2.233   1.335   1.106 -0.3499 -0.7056 -0.3250
  135SOL    HW1  404   2.291   1.261   1.148  0.2822  2.7003 -1.4027
  135SOL    HW2  405   2.197   1.316   1.010 -2.3385  1.8377 -0.8904
  136SOL     OW  406   2.101   1.009   0.876  0.5324  0.2102 -0.0837
  136SOL    HW1  407   2.175   0.973   0.941 -0.1277 -1.7676  0.1874
  136SOL    HW2  408   2.110   0.972   0.781 -0.7590 -1.0580 -1.4332
  137SOL     OW  409   2.489   1.819   0.636 -0.2906 -0.3641  0.5229
  137SOL    HW1  410   2.407   1.804   0.698 -0.8308  4.2183  0.4396
  137SOL    HW2  411   2.556   1.880   0.682 -0.5364  0.2045  1.8659
  138SOL     OW  412   1.696   0.802   2.096  0.2014  0.0578  0.2767
  138SOL    HW1  413   1.652   0.712   2.072 -1.2043 -0.9933 -0.3556
  138SOL    HW2  414   1.796   0.800   2.078  0.2764  2.2313  1.4429
  139SOL     OW  415   2.251   3.058   0.008 -0.3542 -0.6811  0.4529
  139SOL    HW1  416   2.308   3.079   3.047  1.4156  2.7615  1.1935
  139SOL    HW2  417   2.162   3.101   3.112 -0.1997 -1.5593 -0.5422
  140SOL     OW  418   1.623   2.163   2.396 -0.5654  0.1949 -0.0552
  140SOL    HW1  419   1.656   2.247   2.359  1.1115 -3.8577 -0.3607
  140SOL    HW2  420   1.659   2.081   2.354 -3.3678  2.1647 -1.9608
  141SOL     OW  421   1.698   1.716   1.340 -0.5219  0.2256 -0.3667
  141SOL    HW1  422   1.787   1.726   1.391 -0.3934  0.7263 -0.8726
  141SOL    HW2  423   1.622   1.690   1.403  0.8837 -1.3950 -2.5107
  142SOL     OW  424   2.915   0.256   3.103 -0.2885 -0.5455 -0.1271
  142SOL    HW1  425   2.988   0.222   0.041  0.7068 -0.8993  2.0622
  142SOL    HW2  426   2.826   0.214   0.011  1.8862  1.7884 -0.4756
  143SOL     OW  427   0.230   2.387   2.910 -0.2026  0.1183 -0.1414
  143SOL    HW1  428   0.243   2.378   3.009  0.3204 -0.5160 -3.1058
  143SOL    HW2  429   0.162   2.321   2.873 -1.1355 -0.1504 -0.6363
  144SOL     OW  430   0.763   2.768   1.796 -0.1214 -0.2508  0.0096
  144SOL    HW1  431   0.782   2.688   1.737 -0.1863  0.6379  2.0203
  144SOL    HW2  432   0.726   2.844   1.740  1.7006 -0.4627 -0.4774
  145SOL     OW  433   2.081   1.317   0.309 -0.2594  0.0827  0.1315
  145SOL    HW1  434   2.152   1.352   0.373  1.4289 -1.1260 -1.4391
  145SOL    HW2  435   2.131   1.307   0.222  1.3369  2.2210 -1.6201
  146SOL     OW  436   2.710   2.913   2.783  0.2419 -0.0880 -0.3550
  146SOL    HW1  437   2.629   2.947   2.730  0.1835  1.6324  0.4430
  146SOL    HW2  438   2.783   2.985   2.791  3.6422  0.3199  0.1997
  147SOL     OW  439   2.901   2.640   1.197 -1.4958 -0.0657  0.0194
  147SOL    HW1  440   2.863   2.655   1.288  0.5185  0.1777 -1.1527
  147SOL    HW2  441   2.847   2.568   1.146  0.0500 -1.1220  1.4487
  148SOL     OW  442   1.805   3.090   0.006  0.1380 -0.1498 -0.1716
  148SOL    HW1  443   1.789   3.114   0.103  0.7998  2.4177 -1.1528
  148SOL    HW2  444   1.806   2.988   3.107 -0.5112 -2.4866  1.0769
  149SOL     OW  445   1.143   0.335   2.727  0.4059  0.1234 -0.4201
  149SOL    HW1  446   1.196   0.366   2.809  2.3646 -1.0788  3.0147
  149SOL    HW2  447   1.073   0.405   2.698 -0.8980  1.9855 -2.7658
  150SOL     OW  448   0.875   2.527   0.446  0.0033  0.5435 -0.2561
  150SOL    HW1  449   0.823   2.514   0.358  2.5797  0.2272 -0.6587
  150SOL    HW2  450   0.820   2.561   0.523 -0.8485 -1.8637  0.2354
  151SOL     OW  451   3.019   1.735   0.076 -0.0566  0.4437  0.4132
  151SOL    HW1  452   3.050   1.647   0.034 -2.3844  0.1242 -0.3720
  151SOL    HW2  453   2.999   1.801   0.002 -0.0777  2.8628  1.7208
  152SOL     OW  454   0.151   1.334   0.881  0.7439  0.5627 -0.2991
  152SOL    HW1  455   0.222   1.394   0.849 -0.1075 -2.3173 -1.5699
  152SOL    HW2  456   0.073   1.386   0.928 -0.9637 -0.0835  3.0282
  153SOL     OW  457   2.452   2.570   0.246 -0.1497  0.1313  0.1950
  153SOL    HW1  458   2.430   2.492   0.310 -2.2470  0.6195 -0.4454
  153SOL    HW2  459   2.370   2.579   0.186 -0.1480 -2.3734  1.9121
  154SOL     OW  460   0.828   0.723   1.353  0.0644 -0.1596  0.6341
  154SOL    HW1  461   0.740   0.666   1.369 -2.0831 -0.9432 -0.1926
  154SOL    HW2  462   0.893   0.724   1.431  1.6110 -0.6320  2.2031
  155SOL     OW  463   0.087   2.002   1.209  0.8490  0.4870 -0.6051
  155SOL    HW1  464   0.064   1.981   1.107 -1.3297  0.5197 -2.4650
  155SOL    HW2  465   0.012   2.052   1.258 -1.2260 -0.5521 -0.8799
  156SOL     OW  466   2.080   1.988   2.908 -0.1358  0.3558 -0.0085
  156SOL    HW1  467   2.149   1.948   2.974  0.8310  0.0460 -2.3218
  156SOL    HW2  468   2.115   2.075   2.880 -0.4965  0.2831  0.0666
  157SOL     OW  469   0.866   2.680   0.945 -0.2355  0.1523 -0.3581
  157SOL    HW1  470   0.841   2.623   1.028 -2.4422  2.0713  2.7640
  157SOL    HW2  471   0.892   2.772   0.974  0.5578  1.7773  0.9378
  158SOL     OW  472   2.734   0.470   2.600  0.2578 -0.5409  0.4901
  158SOL    HW1  473   2.707   0.394   2.657 -1.5478  0.7800  0.1738
  158SOL    HW2  474   2.782   0.548   2.644 -1.1668 -3.1894 -0.2441
  159SOL     OW  475   0.764   0.192   2.922 -0.5999  0.1341  0.3332
  159SOL    HW1  476   0.836   0.141   2.872 -0.8246  1.1895 -2.1101
  159SOL    HW2  477   0.775   0.294   2.917 -1.0252 -1.7168  2.4691
  160SOL     OW  478   0.812   2.038   2.931 -0.1703  0.1282  0.5808
  160SOL    HW1  479   0.730   2.103   2.924 -2.3529  1.3255 -0.4601
  160SOL    HW2  480   0.858   2.023   2.838  1.3114  0.0698 -1.8294
  161SOL     OW  481   2.989   2.302   3.043 -0.3709  0.3077  0.2815
  161SOL    HW1  482   3.058   2.293   3.120  2.0372 -0.2265  0.5861
  161SOL    HW2  483   2.974   2.401   3.016 -0.6024 -2.5284  1.1056
  162SOL     OW  484   0.482   2.697   1.103  0.1775 -0.3001  0.0633
  162SOL    HW1  485   0.519   2.605   1.129  0.6774 -1.5089 -1.6786
  162SOL    HW2  486   0.382   2.701   1.115  0.3812  0.9874  0.7193
  163SOL     OW  487   2.608   0.737   2.954  0.5558 -0.3753  0.0335
  163SOL    HW1  488   2.546   0.820   2.950 -2.3966  1.2147 -0.4428
  163SOL    HW2  489   2.567   0.657   3.003  2.3926  1.1383  2.2581
  164SOL     OW  490   3.075   2.443   0.888 -0.1135 -0.0485  0.0195
  164SOL    HW1  491   3.040   2.351   0.863 -0.5310  1.4900  0.8853
  164SOL    HW2  492   2.999   2.511   0.877 -0.8291 -0.6549  1.2272
  165SOL     OW  493   2.794   0.135   1.435  0.4970 -0.1859 -0.1391
  165SOL    HW1  494   2.752   0.170   1.524 -3.2014  1.6121  1.9742
  165SOL    HW2  495   2.716   0.134   1.364 -0.7823 -0.3553 -2.8216
  166SOL     OW  496   2.205   0.224   0.718  0.1335 -0.7289 -0.7206
  166SOL    HW1  497   2.160   0.134   0.683  1.9313 -2.4823  0.4052
  166SOL    HW2  498   2.166   0.254   0.813 -0.0086  0.5961  1.9081
  167SOL     OW  499   0.452   0.397   1.306  0.0421  0.0802  0.9158
  167SOL    HW1  500   0.512   0.340   1.368  0.4954  0.8175  0.9028
  167SOL    HW2  501   0.442   0.350   1.214  1.8270 -2.7956 -1.4189
  168SOL     OW  502   2.531   2.929   2.320 -0.0192  0.6469  0.6735
  168SOL    HW1  503   2.611   2.863   2.333  0.7673 -1.6210 -2.1831
  168SOL    HW2  504   2.444   2.882   2.338  0.2604 -2.3643  2.7349
  169SOL     OW  505   0.062   1.669   0.653  0.0187  0.4562  0.4341
  169SOL    HW1  506   0.124   1.647   0.574  3.2487  0.9486 -0.1534
  169SOL    HW2  507   0.105   1.659   0.743 -0.2545 -1.5282 -1.3818
  170SOL     OW  508   2.701   0.926   1.301 -0.3714 -0.1339  0.0832
  170SOL    HW1  509   2.662   0.856   1.239 -1.1911  3.3654  0.5695
  170SOL    HW2  510   2.648   0.943   1.387 -1.0116 -0.2059  1.5334
  171SOL     OW  511   1.077   2.237   1.576  0.5747  0.1428 -0.1866
  171SOL    HW1  512   1.140   2.208   1.499  0.3433 -1.4647 -2.1375
  171SOL    HW2  513   1.068   2.336   1.588 -1.1203 -1.3022 -1.1588
  172SOL     OW  514   0.500   2.618   1.447  0.3227  0.2013 -0.6005
  172SOL    HW1  515   0.507   2.524   1.411  0.2473  1.4653 -0.5579
  172SOL    HW2  516   0.403   2.645   1.425 -0.3950 -0.1835 -0.6001
  173SOL     OW  517   1.349   2.787   0.240  0.5344 -0.0967 -0.0934
  173SOL    HW1  518   1.433   2.762   0.199 -1.3491  1.1433 -0.2558
  173SOL    HW2  519   1.357   2.847   0.323 -2.1651  1.5262 -2.2755
  174SOL     OW  520   0.959   2.536   2.597 -0.3995 -0.3876  0.7568
  174SOL    HW1  521   1.020   2.493   2.665  1.7596 -1.1241 -1.3051
  174SOL    HW2  522   0.866   2.495   2.600 -1.6106  1.3551  0.7678
  175SOL     OW  523   1.687   0.375   0.197  0.0782  0.1296  0.0247
  175SOL    HW1  524   1.778   0.354   0.239  0.1361  0.8838  0.2837
  175SOL    HW2  525   1.632   0.435   0.257  2.5464 -0.1859 -3.6846
  176SOL     OW  526   1.311   0.060   0.247 -0.0513 -0.9113  1.0548
  176SOL    HW1  527   1.397   0.092   0.200 -0.0912  1.9980  0.7282
  176SOL    HW2  528   1.326   3.103   0.308 -0.5066  1.1323 -0.8904
  177SOL     OW  529   1.375   1.041   0.757 -0.2355  0.6533 -0.3268
  177SOL    HW1  530   1.356   0.982   0.835 -0.9436 -1.1559  0.7370
  177SOL    HW2  531   1.309   1.118   0.745  1.3918 -0.5138  1.8240
  178SOL     OW  532   2.446   1.707   2.097  0.5623  0.0636  0.0432
  178SOL    HW1  533   2.351   1.709   2.056 -1.1268 -0.2992  0.2321
  178SOL    HW2  534   2.444   1.643   2.175 -1.4517  0.6050 -3.2521
  179SOL     OW  535   0.488   2.699   2.778 -0.0198  0.1863  0.8272
  179SOL    HW1  536   0.546   2.749   2.843 -0.7861 -0.7800 -1.2646
  179SOL    HW2  537   0.527   2.699   2.683  0.5915  0.2491 -1.3981
  180SOL     OW  538   1.655   2.003   1.716 -0.0450 -0.0513 -0.0796
  180SOL    HW1  539   1.700   1.927   1.764 -0.9429  1.5365  0.3609
  180SOL    HW2  540   1.635   2.079   1.777  0.8208 -0.0749 -3.2892
  181SOL     OW  541   1.457   1.274   2.488 -0.2030  0.5250 -0.1796
  181SOL    HW1  542   1.521   1.217   2.423  3.2271 -1.6282 -1.0948
  181SOL    HW2  543   1.384   1.209   2.536 -2.1386 -0.1408 -1.7252
  182SOL     OW  544   0.052   0.463   2.655  0.2916 -0.5875  0.8819
  182SOL    HW1  545   0.034   0.373   2.615 -1.4420 -0.7772 -1.0227
  182SOL    HW2  546   0.151   0.476   2.672 -1.2634 -1.2458 -0.2857
  183SOL     OW  547   0.950   0.161   2.680 -0.8978  0.8458  0.0766
  183SOL    HW1  548   1.018   0.236   2.697 -0.9680  1.8790  2.1387
  183SOL    HW2  549   0.971   0.133   2.586 -1.2907  2.2992  0.9677
  184SOL     OW  550   1.497   0.773   1.387 -0.3388  0.3945 -0.2122
  184SOL    HW1  551   1.447   0.856   1.358 -0.8426  1.4357  1.0409
  184SOL    HW2  552   1.440   0.689   1.377  2.3105 -2.3651  2.3037
  185SOL     OW  553   3.036   1.285   1.214 -0.2546 -0.0342  0.2377
  185SOL    HW1  554   3.049   1.346   1.295 -2.6652  0.2147 -2.1738
  185SOL    HW2  555   2.945   1.242   1.224 -0.8556  2.7449 -1.6726
  186SOL     OW  556   0.466   1.953   2.767 -0.1997  0.4526 -0.0319
  186SOL    HW1  557   0.452   1.862   2.812 -0.0072 -3.4673 -1.3747
  186SOL    HW2  558   0.462   1.939   2.665 -0.0401  0.7371 -1.3996
  187SOL     OW  559   2.636   1.402   0.304  0.3644  0.1086  0.0251
  187SOL    HW1  560   2.664   1.355   0.218 -5.2259 -0.2124  1.1744
  187SOL    HW2  561   2.704   1.477   0.327  1.2541  2.2077  0.4777
  188SOL     OW  562   0.153   2.444   0.697  0.2365  0.4807 -0.1206
  188SOL    HW1  563   0.115   2.372   0.634 -2.0994 -1.3972 -1.1829
  188SOL    HW2  564   0.082   2.466   0.769 -2.3357 -1.4693  0.9736
  189SOL     OW  565   2.627   1.043   0.236  0.3678 -0.0252 -0.4164
  189SOL    HW1  566   2.702   1.100   0.197  2.3669 -1.9931 -3.5716
  189SOL    HW2  567   2.652   0.998   0.323  0.1304 -0.1355 -1.1370
  190SOL     OW  568   1.191   1.424   2.463 -0.3010 -0.1688  0.1793
  190SOL    HW1  569   1.284   1.417   2.498 -1.8293  2.8317  0.5811
  190SOL    HW2  570   1.147   1.517   2.481  1.8583 -2.0355  0.1755
  191SOL     OW  571   2.688   0.215   1.675 -0.6652  0.6784 -0.0418
  191SOL    HW1  572   2.727   0.129   1.714 -0.4856  0.7791 -0.9259
  191SOL    HW2  573   2.725   0.295   1.722  0.2885 -1.9814  2.2315
  192SOL     OW  574   2.203   0.402   1.801 -0.1853  1.3379  0.0621
  192SOL    HW1  575   2.213   0.328   1.872  0.2240 -1.3536  1.6370
  192SOL    HW2  576   2.261   0.481   1.826  2.2070 -1.5319  1.3704
  193SOL     OW  577   0.912   0.497   0.419 -0.4250 -0.9627 -0.0690
  193SOL    HW1  578   0.849   0.487   0.501 -0.9227  0.7620  0.7561
  193SOL    HW2  579   0.865   0.535   0.339 -0.2268 -1.0334  1.4729
  194SOL     OW  580   1.183   2.832   1.232 -0.3813  0.3143 -0.6932
  194SOL    HW1  581   1.227   2.908   1.178  1.0238 -0.5212 -0.6338
  194SOL    HW2  582   1.081   2.831   1.215 -0.6807 -3.1422 -0.5194
  195SOL     OW  583   2.380   0.617   0.792 -0.1036  0.3154 -0.3135
  195SOL    HW1  584   2.470   0.651   0.807  0.6162  1.8684 -0.7078
  195SOL    HW2  585   2.354   0.559   0.878 -0.9468  1.1860  1.4517
  196SOL     OW  586   1.388   1.711   1.926  0.3453  0.3097  0.1530
  196SOL    HW1  587   1.414   1.732   1.832  0.7744 -0.8986 -0.0408
  196SOL    HW2  588   1.362   1.791   1.983  2.3969 -2.1066  3.0208
  197SOL     OW  589   3.117   2.978   0.621 -0.5099  0.4787  0.2398
  197SOL    HW1  590   0.058   3.060   0.625  0.8782  0.2474 -0.0920
  197SOL    HW2  591   0.043   2.889   0.633 -0.9361 -0.3198  1.5455
  198SOL     OW  592   1.054   1.199   0.569  0.4687 -0.1713 -0.1632
  198SOL    HW1  593   1.093   1.262   0.637 -1.2564 -0.6734 -3.3310
  198SOL    HW2  594   1.044   1.105   0.607  1.9920  2.4255 -1.7236
  199SOL     OW  595   2.966   0.884   1.800 -0.4261  0.1844 -0.2287
  199SOL    HW1  596   2.949   0.935   1.889  0.4017  0.1474  1.8312
  199SOL    HW2  597   2.970   0.949   1.718 -0.7986  3.6574 -1.9429
  200SOL     OW  598   2.458   1.973   2.555  0.5009 -0.3895 -0.3093
  200SOL    HW1  599   2.412   2.048   2.501 -0.8182  2.4353  0.1054
  200SOL    HW2  600   2.442   1.991   2.654 -1.3984 -1.4849  2.2594
  201SOL     OW  601   2.537   0.130   0.933  0.0138  0.5930 -0.1107
  201SOL    HW1  602   2.569   0.219   0.902 -0.0579 -4.2117 -0.7508
  201SOL    HW2  603   2.531   0.078   0.847 -0.4217  1.0364 -1.5439
  202SOL     OW  604   2.649   0.701   0.544 -0.5589  0.0981 -0.2101
  202SOL    HW1  605   2.702   0.611   0.543  0.6312  0.3219  2.1387
  202SOL    HW2  606   2.685   0.779   0.492 -1.7207 -0.3793 -0.7477
  203SOL     OW  607   1.733   1.934   2.261 -0.0569 -0.4824  0.1325
  203SOL    HW1  608   1.745   1.983   2.172  1.6101  0.2274  0.5295
  203SOL    HW2  609   1.707   1.840   2.240 -1.6938  1.3898 -0.9630
  204SOL     OW  610   0.791   1.893   2.187 -0.3945  0.3802  0.0385
  204SOL    HW1  611   0.845   1.972   2.144  0.2819  1.1077  0.2048
  204SOL    HW2  612   0.854   1.816   2.196  1.5983  1.9643 -1.9808
  205SOL     OW  613   1.181   1.810   1.525  0.0465 -0.1475  0.4342
  205SOL    HW1  614   1.253   1.880   1.516 -1.4409 -0.3729  3.6113
  205SOL    HW2  615   1.150   1.799   1.619 -3.7483  1.4641 -4.3384
  206SOL     OW  616   0.048   0.570   3.077 -0.2078  0.1613  0.4967
  206SOL    HW1  617   3.078   0.595   3.115 -3.0971  0.4304  1.4958
  206SOL    HW2  618   0.056   0.619   2.986  3.4078  1.4227 -4.4776
  207SOL     OW  619   1.692   2.655   2.232 -0.4398  0.1855 -0.3123
  207SOL    HW1  620   1.628   2.652   2.317 -2.1425 -0.3393  2.1870
  207SOL    HW2  621   1.715   2.756   2.215 -0.1132  2.7582 -1.7664
  208SOL     OW  622   0.226   2.214   1.710 -0.6784 -0.5985 -0.1259
  208SOL    HW1  623   0.297   2.155   1.668 -0.9663 -1.1932  2.1601
  208SOL    HW2  624   0.245   2.312   1.690 -0.9285  1.3730 -2.5392
  209SOL     OW  625   1.505   0.630   2.707  0.1103 -0.6507 -0.2867
  209SOL    HW1  626   1.411   0.673   2.721 -3.0758  1.8785  0.8832
  209SOL    HW2  627   1.546   0.644   2.615  1.3961  0.0598  2.7025
  210SOL     OW  628   2.265   0.906   1.049  0.0915 -0.2021  0.0908
  210SOL    HW1  629   2.254   0.899   1.151  0.4141  1.6635 -2.1030
  210SOL    HW2  630   2.360   0.897   1.016  1.2604 -0.8401  0.0725
  211SOL     OW  631   0.697   0.470   0.602  0.2624 -0.2284 -0.3962
  211SOL    HW1  632   0.713   0.549   0.670  1.7639  3.8425 -1.9313
  211SOL    HW2  633   0.607   0.490   0.558 -0.3730 -2.0409 -0.0643
  212SOL     OW  634   1.494   1.336   0.071  0.4221  0.3323  0.1980
  212SOL    HW1  635   1.588   1.318   0.041  0.4164  1.5129 -0.7396
  212SOL    HW2  636   1.477   1.433   0.049 -1.0305 -1.0762 -1.0221
  213SOL     OW  637   1.537   0.298   2.433  0.1859 -0.2272  0.0522
  213SOL    HW1  638   1.450   0.291   2.486  1.5927  0.2273 -2.6989
  213SOL    HW2  639   1.586   0.209   2.441  0.8402  0.7655  2.4100
  214SOL     OW  640   1.653   1.458   2.371  0.3222  0.2348 -0.1316
  214SOL    HW1  641   1.732   1.482   2.429  1.8375  0.9992 -0.1645
  214SOL    HW2  642   1.579   1.414   2.420  1.0312  0.9155  0.7325
  215SOL     OW  643   0.430   1.728   0.797 -0.0970  0.2902 -0.1134
  215SOL    HW1  644   0.529   1.742   0.808 -0.1649  0.1822  1.7076
  215SOL    HW2  645   0.407   1.639   0.752  2.0903 -0.4033  1.1995
  216SOL     OW  646   0.766   2.922   2.192 -0.6644 -0.2769 -0.4566
  216SOL    HW1  647   0.794   2.925   2.091 -1.1020 -0.0000 -4.0742
  216SOL    HW2  648   0.770   3.010   2.245 -2.0566  0.6161  1.2767
  217SOL     OW  649   2.388   0.750   0.406  0.6167 -0.9712  0.2966
  217SOL    HW1  650   2.475   0.727   0.452 -0.0776  1.0140 -1.4405
  217SOL    HW2  651   2.381   0.837   0.356 -3.0144 -2.3963 -1.5802
  218SOL     OW  652   2.167   2.067   2.220  0.2926 -0.0580 -0.9080
  218SOL    HW1  653   2.102   1.985   2.212 -0.8999  0.0148  2.0872
  218SOL    HW2  654   2.261   2.043   2.182  3.1190 -0.9650 -2.0128
  219SOL     OW  655   1.821   1.526   3.113  0.7069  0.2390 -0.7468
  219SOL    HW1  656   1.753   1.573   3.055  1.7528 -0.8912  0.9131
  219SOL    HW2  657   1.900   1.488   3.069 -0.5358  1.2339  0.3368
  220SOL     OW  658   1.393   1.672   1.148  0.0034  0.9517  0.1353
  220SOL    HW1  659   1.394   1.740   1.221 -1.4627 -0.7127 -1.4735
  220SOL    HW2  660   1.465   1.678   1.073  0.9761 -2.2654  2.8925
  221SOL     OW  661   0.368   0.731   2.770 -0.3610 -0.4177  0.5968
  221SOL    HW1  662   0.347   0.831   2.760  2.1023 -0.0966  1.7628
  221SOL    HW2  663   0.456   0.722   2.813 -4.2329  1.4168 -0.0304
  222SOL     OW  664   0.937   1.903   1.408 -0.2584  0.0472 -0.1891
  222SOL    HW1  665   0.912   2.000   1.402  2.1887  0.5720 -2.2684
  222SOL    HW2  666   1.032   1.891   1.436 -3.8994  0.0089  0.4802
  223SOL     OW  667   1.323   3.035   2.713  0.1484 -0.1057  0.3290
  223SOL    HW1  668   1.338   3.068   2.807  2.0916  0.4585 -1.8505
  223SOL    HW2  669   1.225   3.018   2.697  1.0392 -2.9352  0.6370
  224SOL     OW  670   2.980   1.208   0.805  0.1640 -0.3457 -0.3790
  224SOL    HW1  671   2.929   1.279   0.750  0.4018  2.7199  0.7413
  224SOL    HW2  672   3.073   1.199   0.766  1.2416 -3.2467 -2.3993
  225SOL     OW  673   1.405   0.810   1.755  0.4680  0.7210  0.2485
  225SOL    HW1  674   1.354   0.865   1.685  0.2523  0.8994 -1.3307
  225SOL    HW2  675   1.500   0.789   1.715  1.8327  1.6227  0.0062
  226SOL     OW  676   1.465   2.005   2.581  0.1004  0.1516 -0.2947
  226SOL    HW1  677   1.365   2.030   2.591 -0.6458 -1.8127  0.2275
  226SOL    HW2  678   1.515   2.060   2.510  0.1991 -0.5493 -0.6722
  227SOL     OW  679   1.161   1.971   1.162 -0.2057  0.2482 -0.8184
  227SOL    HW1  680   1.244   1.950   1.220  1.5932 -0.7624  0.1098
  227SOL    HW2  681   1.088   1.912   1.198  2.3528 -0.6634 -1.6543
  228SOL     OW  682   0.486   1.975   0.965  0.2747 -0.6489  0.2844
  228SOL    HW1  683   0.425   1.967   1.045  0.4802  0.5456 -1.7768
  228SOL    HW2  684   0.529   1.888   0.948 -0.7511 -1.5885 -1.8380
  229SOL     OW  685   2.119   0.386   0.072 -0.5581  0.1255  0.5023
  229SOL    HW1  686   2.103   0.465   0.127 -1.0385 -2.3318 -0.8959
  229SOL    HW2  687   2.193   0.401   0.002 -1.7415 -0.9120 -1.8752
  230SOL     OW  688   0.964   0.681   2.099 -0.1622 -0.0430  0.4661
  230SOL    HW1  689   0.943   0.603   2.037  0.2420  0.0202 -1.2014
  230SOL    HW2  690   1.061   0.688   2.128  3.2781  0.0569  3.2530
  231SOL     OW  691   1.141   1.833   2.209  0.1439 -0.6190  0.2131
  231SOL    HW1  692   1.063   1.763   2.215  0.3010  0.4777 -1.8602
  231SOL    HW2  693   1.110   1.922   2.256  0.9473  2.4178  0.0395
  232SOL     OW  694   2.176   2.122   1.006  0.0572  0.1479  0.0664
  232SOL    HW1  695   2.115   2.052   0.966 -2.5877 -1.1124  1.2243
  232SOL    HW2  696   2.129   2.160   1.087  1.1690  2.3634 -0.0195
  233SOL     OW  697   2.043   2.689   2.996 -0.4595 -0.1821  0.7574
  233SOL    HW1  698   2.013   2.607   2.949  0.8825 -0.6592 -0.3765
  233SOL    HW2  699   2.117   2.737   2.947  1.3520 -2.1154 -0.8065
  234SOL     OW  700   1.350   2.851   3.041 -0.6097 -0.6142 -0.2081
  234SOL    HW1  701   1.328   2.835   0.015  0.4105 -0.1437  1.0354
  234SOL    HW2  702   1.270   2.823   2.982 -1.2006  0.5872  0.4730
  235SOL     OW  703   2.506   3.029   0.142 -0.1795  0.3569  0.0284
  235SOL    HW1  704   2.420   3.061   0.099  0.2692  0.4130  3.2417
  235SOL    HW2  705   2.521   2.932   0.118 -0.7419  2.5248 -0.1311
  236SOL     OW  706   2.575   2.254   2.299  0.0352  0.4627  0.1152
  236SOL    HW1  707   2.636   2.227   2.221  0.5917 -0.3008 -1.4392
  236SOL    HW2  708   2.628   2.266   2.388  0.1741 -2.1327  1.4301
  237SOL     OW  709   1.327   1.446   2.008 -0.0691  0.3056  0.3712
  237SOL    HW1  710   1.360   1.542   2.006  2.1111  1.3440 -1.7607
  237SOL    HW2  711   1.286   1.425   1.917 -0.5658 -1.8683  2.1039
  238SOL     OW  712   2.195   0.233   2.465 -0.1146  0.2491 -0.6650
  238SOL    HW1  713   2.239   0.259   2.372  0.8572  0.5382 -2.1638
  238SOL    HW2  714   2.138   0.313   2.499 -2.3734  1.8245 -1.3321
  239SOL     OW  715   0.345   1.799   2.210  0.1077  0.4447  0.2040
  239SOL    HW1  716   0.430   1.814   2.161 -0.8177  4.0080 -0.0979
  239SOL    HW2  717   0.277   1.757   2.142 -0.1112  1.0864  0.4090
  240SOL     OW  718   2.669   2.779   1.022  0.1176  0.3311  0.5988
  240SOL    HW1  719   2.714   2.697   1.063  0.7361 -1.1556 -0.6712
  240SOL    HW2  720   2.573   2.763   0.991  3.1800  1.3951 -2.2250
  241SOL     OW  721   1.812   2.077   0.755  0.0897  0.0552  0.4276
  241SOL    HW1  722   1.781   1.998   0.815 -0.2863 -2.3341  0.0819
  241SOL    HW2  723   1.893   2.052   0.699  0.2246  1.0204 -0.9932
  242SOL     OW  724   1.210   1.905   2.696  0.1412 -0.0115  0.5920
  242SOL    HW1  725   1.244   1.907   2.790 -0.0662 -0.2801 -1.4349
  242SOL    HW2  726   1.175   1.818   2.664 -1.5183  3.7624  1.4680
  243SOL     OW  727   0.719   2.642   2.240  0.3406 -0.0802  0.3757
  243SOL    HW1  728   0.726   2.741   2.218 -3.2070  2.1728  3.1023
  243SOL    HW2  729   0.799   2.602   2.193 -3.0027 -0.5711  1.8758
  244SOL     OW  730   2.340   3.071   2.871  0.4725 -0.5997 -0.3497
  244SOL    HW1  731   2.385   0.042   2.872 -0.6743 -1.1305 -1.4902
  244SOL    HW2  732   2.265   3.080   2.802 -1.3171  0.8269 -1.2941
  245SOL     OW  733   1.329   2.331   0.374 -0.7288  0.4695  0.2019
  245SOL    HW1  734   1.274   2.247   0.361  2.4163 -0.4213  0.6478
  245SOL    HW2  735   1.265   2.415   0.365 -5.3166  2.2937  0.2830
  246SOL     OW  736   0.880   2.942   0.225 -0.3082  0.0020  0.6861
  246SOL    HW1  737   0.914   3.039   0.232 -1.1992  0.2800  0.6280
  246SOL    HW2  738   0.943   2.875   0.267  2.4061  1.6864  0.2017
  247SOL     OW  739   0.760   1.034   2.065 -0.0450  0.5176 -0.0429
  247SOL    HW1  740   0.842   0.992   2.023  0.9547 -1.4768  0.9425
  247SOL    HW2  741   0.764   1.021   2.165  0.6974  0.1356 -2.5556
  248SOL     OW  742   1.022   1.273   2.323 -0.1699 -0.0814  0.0499
  248SOL    HW1  743   1.088   1.334   2.383  2.5271  1.7692  4.6900
  248SOL    HW2  744   0.927   1.302   2.340 -1.0289  0.8693 -2.5480
  249SOL     OW  745   2.295   0.285   0.325 -0.1813 -0.3963 -0.0478
  249SOL    HW1  746   2.240   0.335   0.392 -0.5284 -0.2490 -0.7620
  249SOL    HW2  747   2.244   0.287   0.231 -1.2173 -0.0948  0.5501
  250SOL     OW  748   0.634   3.028   0.734 -0.1971  0.0595  0.6576
  250SOL    HW1  749   0.577   2.971   0.797  1.3209 -0.7839  0.1444
  250SOL    HW2  750   0.694   2.963   0.678  1.3487 -2.4921  0.9107
  251SOL     OW  751   1.710   3.065   2.834 -0.3206 -0.6590 -0.3845
  251SOL    HW1  752   1.801   3.034   2.803  2.1431 -1.5452  1.1867
  251SOL    HW2  753   1.642   2.991   2.828  3.0508  0.1383  0.3312
  252SOL     OW  754   1.844   1.468   2.135 -0.6778  0.0425 -0.1942
  252SOL    HW1  755   1.782   1.476   2.213  0.9186  2.3586 -3.0852
  252SOL    HW2  756   1.944   1.457   2.141 -0.2046 -0.2289  1.0034
  253SOL     OW  757   2.455   2.737   2.021 -0.6750  0.1932 -0.2927
  253SOL    HW1  758   2.517   2.734   2.100  2.0030 -1.3505  0.9107
  253SOL    HW2  759   2.360   2.695   2.047 -0.7375  0.4704  0.6043
  254SOL     OW  760   0.811   1.563   1.031  0.0692  0.0964 -0.0212
  254SOL    HW1  761   0.886   1.501   0.987 -0.1049 -2.1323  1.8760
  254SOL    HW2  762   0.770   1.524   1.116 -1.6532 -2.0824  1.2899
  255SOL     OW  763   1.209   1.076   1.413  0.2856  0.4311  0.1667
  255SOL    HW1  764   1.156   1.156   1.379  3.3046  2.3537 -1.4634
  255SOL    HW2  765   1.234   1.017   1.332  1.9834  0.5695 -1.5545
  256SOL     OW  766   1.939   2.651   1.821  0.0066 -0.3749  0.3310
  256SOL    HW1  767   1.931   2.608   1.908  0.5247  1.4673 -0.8874
  256SOL    HW2  768   2.037   2.642   1.789  1.7457  0.3638 -0.3235
  257SOL     OW  769   0.116   2.846   2.994  0.2494 -0.5500  0.6478
  257SOL    HW1  770   0.174   2.928   2.968  1.7683 -1.0573  0.0231
  257SOL    HW2  771   0.150   2.765   2.936 -1.3888 -1.6059 -0.9015
  258SOL     OW  772   0.907   2.912   1.951 -0.1228  0.0576 -0.0288
  258SOL    HW1  773   1.004   2.893   1.965 -1.4251  0.6575  0.8267
  258SOL    HW2  774   0.867   2.842   1.887 -0.5585 -2.4593 -1.3952
  259SOL     OW  775   1.083   3.055   2.209 -0.2400 -0.1828 -0.0920
  259SOL    HW1  776   1.161   3.097   2.158  1.7445  0.8308 -0.0594
  259SOL    HW2  777   1.092   2.954   2.212  1.3078  2.0101  1.3407
  260SOL     OW  778   1.581   0.581   0.703 -0.5019  0.4053 -0.1747
  260SOL    HW1  779   1.532   0.492   0.717 -0.1618 -2.0262 -2.5741
  260SOL    HW2  780   1.678   0.576   0.741  4.4765 -0.8412 -0.1316
  261SOL     OW  781   0.314   0.459   2.742 -0.1951 -0.8840  0.0938
  261SOL    HW1  782   0.396   0.399   2.740  0.2982 -0.2689  0.2112
  261SOL    HW2  783   0.341   0.560   2.744  0.8246  2.0367 -1.1203
  262SOL     OW  784   2.700   2.591   1.960 -0.1075  0.9303 -0.4531
  262SOL    HW1  785   2.773   2.518   1.957 -1.4299 -1.0142 -1.4128
  262SOL    HW2  786   2.701   2.656   1.877 -0.2341  3.6577 -3.8083
  263SOL     OW  787   2.814   1.869   2.277 -0.2130 -0.4014  0.5121
  263SOL    HW1  788   2.911   1.839   2.281 -1.1325 -1.4470  0.0654
  263SOL    HW2  789   2.766   1.875   2.366  2.6725  1.5641 -1.2536
  264SOL     OW  790   0.825   1.182   0.945  0.6851 -0.3594  0.1630
  264SOL    HW1  791   0.821   1.251   0.866  2.8197 -0.4968 -1.6217
  264SOL    HW2  792   0.900   1.119   0.925  1.7815 -1.5845 -1.4652
  265SOL     OW  793   0.568   2.021   0.146 -0.6989  0.4999  0.0240
  265SOL    HW1  794   0.652   1.973   0.110  0.6411  0.5308  0.6991
  265SOL    HW2  795   0.590   2.078   0.227  2.2437 -1.0611 -2.1107
  266SOL     OW  796   1.347   0.731   0.605 -0.0302 -0.2071  0.9163
  266SOL    HW1  797   1.444   0.703   0.599  0.4612  0.5315 -1.2425
  266SOL    HW2  798   1.279   0.671   0.557  0.7118  4.4782 -0.5814
  267SOL     OW  799   3.072   1.201   0.118 -0.3038 -0.2578 -0.4008
  267SOL    HW1  800   0.016   1.258   0.169 -3.1764 -1.0903  1.7552
  267SOL    HW2  801   3.110   1.155   0.034  0.3704  1.0302  0.5679
  268SOL     OW  802   2.042   0.112   3.089 -0.5715  0.1604 -0.0176
  268SOL    HW1  803   2.072   0.195   0.023  0.3170  0.0644  3.6852
  268SOL    HW2  804   1.944   0.084   3.099 -0.6945 -3.5326 -1.9820
  269SOL     OW  805   1.673   0.399   2.798  0.1719  0.2808 -0.5441
  269SOL    HW1  806   1.721   0.387   2.711 -0.9719  0.0202  2.1413
  269SOL    HW2  807   1.604   0.468   2.777  1.3396 -2.4281  0.7303
  270SOL     OW  808   0.571   0.725   3.091 -0.5727  0.3233 -0.0106
  270SOL    HW1  809   0.498   0.772   0.020 -0.5990  1.1136 -2.6504
  270SOL    HW2  810   0.596   0.775   3.003  1.5091  2.1324 -1.8022
  271SOL     OW  811   2.966   1.013   0.308 -0.2734 -0.0979 -0.6708
  271SOL    HW1  812   2.978   0.938   0.239 -0.5194 -2.9208  1.9691
  271SOL    HW2  813   3.019   1.095   0.278 -1.7403  0.6575 -1.4380
  272SOL     OW  814   0.049   1.791   2.837  0.0225  0.0363 -0.0283
  272SOL    HW1  815   3.067   1.816   2.847 -3.6019  1.3300 -1.1164
  272SOL    HW2  816   0.101   1.853   2.898 -2.3814 -1.4744  1.0240
  273SOL     OW  817   2.480   3.092   0.684  0.2151 -0.4444  0.0941
  273SOL    HW1  818   2.529   3.011   0.652 -1.2966 -4.5919  1.5506
  273SOL    HW2  819   2.401   3.109   0.620 -2.9879 -2.6413 -1.7315
  274SOL     OW  820   0.538   2.389   1.067 -0.1300  0.1413 -0.8200
  274SOL    HW1  821   0.588   2.304   1.044  0.8864  1.1349  0.4115
  274SOL    HW2  822   0.463   2.401   0.999  0.4805  1.3335 -1.5909
  275SOL     OW  823   2.333   1.389   0.448  0.7921 -0.2065  0.0194
  275SOL    HW1  824   2.421   1.430   0.423 -1.3305 -0.1039  1.4434
  275SOL    HW2  825   2.347   1.297   0.492  0.3486 -0.3674  0.9837
  276SOL     OW  826   3.035   1.254   2.120  0.0616  0.0849 -0.5707
  276SOL    HW1  827   0.011   1.252   2.108 -1.3312  2.4543  0.3739
  276SOL    HW2  828   3.005   1.257   2.216  0.6393 -1.9356 -0.6425
  277SOL     OW  829   2.000   2.848   1.299 -0.1986  0.2821 -0.2592
  277SOL    HW1  830   2.093   2.807   1.308  1.3873  0.6817  0.0034
  277SOL    HW2  831   1.968   2.845   1.198 -1.7331  3.2722 -2.3531
  278SOL     OW  832   1.286   0.048   2.084 -0.1640 -0.2610  0.9653
  278SOL    HW1  833   1.270   0.038   1.984  0.5181  2.3737  2.9558
  278SOL    HW2  834   1.301   0.143   2.115 -0.0974 -3.2855  1.3707
  279SOL     OW  835   1.822   1.809   0.395 -0.1936 -0.7536  0.1588
  279SOL    HW1  836   1.739   1.794   0.451  1.8176  3.1536 -0.5459
  279SOL    HW2  837   1.861   1.723   0.355 -1.8263 -0.0120 -0.4899
  280SOL     OW  838   0.061   1.945   0.951 -0.5381  0.7550  0.1105
  280SOL    HW1  839   0.113   1.861   0.942 -0.7368  0.0107 -0.4128
  280SOL    HW2  840   3.089   1.922   0.977  1.0152 -0.3545  4.8440
  281SOL     OW  841   3.048   0.642   2.359 -0.1027  0.1166 -0.1162
  281SOL    HW1  842   3.087   0.550   2.332  0.8166 -0.5206 -0.9997
  281SOL    HW2  843   3.046   0.651   2.462  2.0820  1.5183  0.6658
  282SOL     OW  844   0.654   0.872   0.572  0.3430 -0.6583  0.1046
  282SOL    HW1  845   0.631   0.953   0.630 -0.3402  0.7754 -0.8616
  282SOL    HW2  846   0.739   0.892   0.514 -0.3234  0.5504  0.8439
  283SOL     OW  847   1.620   2.072   0.030 -0.4824 -0.0880 -0.3690
  283SOL    HW1  848   1.571   2.107   3.070 -0.3922 -2.4238 -1.6241
  283SOL    HW2  849   1.722   2.051   0.017  2.7887 -1.2940 -0.1061
  284SOL     OW  850   1.235   0.543   0.248 -0.7275 -0.3878 -0.0790
  284SOL    HW1  851   1.276   0.593   0.167  0.3215  1.7120 -1.5711
  284SOL    HW2  852   1.172   0.469   0.214 -0.7782 -0.0666 -3.0631
  285SOL     OW  853   2.060   0.929   2.569 -0.0707  0.1179 -0.2566
  285SOL    HW1  854   1.979   0.981   2.541 -0.9218 -1.8607  1.8178
  285SOL    HW2  855   2.075   0.959   2.665 -3.7116 -1.5132  0.2793
  286SOL     OW  856   1.357   2.592   1.675  0.3698 -0.8377 -0.6651
  286SOL    HW1  857   1.429   2.532   1.705  0.4023 -0.2683 -2.8403
  286SOL    HW2  858   1.397   2.672   1.635  2.0771  1.1357 -1.9688
  287SOL     OW  859   0.942   0.965   0.847  0.0780  0.2555 -0.4338
  287SOL    HW1  860   0.885   0.882   0.875 -2.4925 -0.2158  0.1541
  287SOL    HW2  861   1.006   0.944   0.770 -0.9406 -1.5910 -2.6229
  288SOL     OW  862   1.145   2.513   0.332  0.4166  0.0821 -0.1438
  288SOL    HW1  863   1.186   2.605   0.349  0.1124  1.9957 -0.6160
  288SOL    HW2  864   1.056   2.505   0.381 -1.2193  0.1974  1.5184
  289SOL     OW  865   0.375   1.435   1.683  0.1761  0.3596 -0.4418
  289SOL    HW1  866   0.375   1.531   1.728  3.7480  0.1763  0.8211
  289SOL    HW2  867   0.467   1.392   1.681 -1.4438 -1.7648 -1.2205
  290SOL     OW  868   1.620   2.292   0.980  0.3123  0.0572 -0.1324
  290SOL    HW1  869   1.618   2.259   1.075  1.0834  2.7120 -0.5678
  290SOL    HW2  870   1.588   2.387   0.974  1.7619  0.2896  1.0789
  291SOL     OW  871   1.759   2.793   3.021  0.2813  0.6385 -0.2152
  291SOL    HW1  872   1.700   2.787   2.940  1.2411  0.9444  1.3770
  291SOL    HW2  873   1.856   2.779   3.004  1.3263 -1.6660  1.4926
  292SOL     OW  874   1.144   0.403   1.909 -0.2401 -0.3398  0.1070
  292SOL    HW1  875   1.149   0.502   1.876 -0.2681  0.9669 -1.7544
  292SOL    HW2  876   1.050   0.390   1.953 -0.0303  0.8491  2.4587
  293SOL     OW  877   1.865   2.344   0.821  0.0412  0.3799 -0.3910
  293SOL    HW1  878   1.845   2.249   0.793  1.6282 -2.9939  1.0702
  293SOL    HW2  879   1.779   2.383   0.859  0.5027 -0.1902 -1.2513
  294SOL     OW  880   0.561   0.618   2.333  0.1505 -0.1298  0.3515
  294SOL    HW1  881   0.498   0.666   2.405 -0.5427  1.0838  3.2590
  294SOL    HW2  882   0.534   0.521   2.326 -2.8756  1.9905  1.4300
  295SOL     OW  883   1.527   1.665   0.918  0.0909 -0.0413 -0.2024
  295SOL    HW1  884   1.625   1.671   0.918  1.0583 -0.1302  2.0959
  295SOL    HW2  885   1.489   1.755   0.878 -1.7719  2.5200  0.7115
  296SOL     OW  886   2.279   1.895   3.076 -0.1836  0.5767 -0.1251
  296SOL    HW1  887   2.381   1.881   3.069  0.3568 -0.1962 -0.9763
  296SOL    HW2  888   2.259   1.929   0.048  0.6161 -1.5115  1.3674
  297SOL     OW  889   2.226   2.978   0.273 -0.2229 -0.4267  0.0450
  297SOL    HW1  890   2.125   2.979   0.297  1.0183  0.3915  1.4752
  297SOL    HW2  891   2.234   2.997   0.173 -1.1687 -1.1767 -0.9648
  298SOL     OW  892   1.109   2.428   2.358 -0.0815 -0.7634 -0.1094
  298SOL    HW1  893   1.092   2.489   2.443 -2.0625  2.8837  1.7710
  298SOL    HW2  894   1.207   2.406   2.353  0.1558 -0.1052  1.2546
  299SOL     OW  895   1.355   2.770   2.225 -0.4854 -0.1236  0.4753
  299SOL    HW1  896   1.264   2.778   2.256  3.1588  0.5686 -2.9916
  299SOL    HW2  897   1.410   2.709   2.281 -1.5297  0.8723 -2.3967
  300SOL     OW  898   2.463   0.195   2.861 -0.2390  0.1765  0.0802
  300SOL    HW1  899   2.562   0.226   2.881  3.4752 -0.1484  0.4719
  300SOL    HW2  900   2.446   0.193   2.758 -0.4624 -1.3856 -0.8826
  301SOL     OW  901   1.639   0.880   2.334 -0.7767  0.3072  0.0775
  301SOL    HW1  902   1.633   0.981   2.340 -0.1339  1.6930  1.0459
  301SOL    HW2  903   1.643   0.852   2.233  0.3140 -2.1300 -0.9577
  302SOL     OW  904   2.416   2.364   0.400  0.0745  0.5475 -0.3805
  302SOL    HW1  905   2.477   2.285   0.367  1.5658 -2.1565 -0.6677
  302SOL    HW2  906   2.450   2.404   0.486  0.5994 -0.8161 -0.2967
  303SOL     OW  907   2.900   2.693   2.362  1.1175  0.0539  0.4641
  303SOL    HW1  908   2.982   2.644   2.324  0.1106 -0.6351 -1.6706
  303SOL    HW2  909   2.875   2.661   2.456  1.2759  2.1961 -3.1943
  304SOL     OW  910   2.776   0.670   1.757  0.6560 -0.3808 -0.1221
  304SOL    HW1  911   2.847   0.747   1.768  2.7690  1.7170  0.2222
  304SOL    HW2  912   2.810   0.587   1.804 -3.4954  0.0199 -0.2000
  305SOL     OW  913   0.662   2.081   1.767 -0.2129 -0.5201 -0.4702
  305SOL    HW1  914   0.688   2.165   1.717 -1.4042  1.1589  1.4840
  305SOL    HW2  915   0.607   2.110   1.850 -1.0513  0.6827 -0.8309
  306SOL     OW  916   3.039   1.023   1.479 -0.3284  0.6737 -0.3779
  306SOL    HW1  917   2.960   1.085   1.472 -1.6556 -1.1429  2.7903
  306SOL    HW2  918   3.118   1.060   1.532  1.1176 -2.4685 -3.2339
  307SOL     OW  919   1.382   0.880   2.028  0.2997 -0.0093 -0.1656
  307SOL    HW1  920   1.374   0.981   2.029 -2.0161  2.8038 -2.7555
  307SOL    HW2  921   1.382   0.846   1.931  2.2590  0.7287  0.8044
  308SOL     OW  922   3.026   1.465   0.934  0.1595 -0.1787 -0.3033
  308SOL    HW1  923   2.984   1.375   0.959  0.6274  0.3563  0.7829
  308SOL    HW2  924   2.961   1.520   0.881  1.3188 -1.4243  1.2076
  309SOL     OW  925   2.514   1.483   0.703  0.0328  0.2092 -0.1755
  309SOL    HW1  926   2.531   1.550   0.779 -0.0866 -0.6067  0.4953
  309SOL    HW2  927   2.442   1.513   0.638 -0.3519  0.9459 -5.2467
  310SOL     OW  928   2.926   1.833   2.932 -0.1841  0.0381  0.0369
  310SOL    HW1  929   2.888   1.929   2.930 -3.5229 -2.7817  3.2933
  310SOL    HW2  930   2.854   1.760   2.917 -1.6157 -1.8202  1.1119
  311SOL     OW  931   0.043   2.703   2.672  0.3429  0.1318  0.8808
  311SOL    HW1  932   3.075   2.684   2.720 -0.9199  1.4564  1.2649
  311SOL    HW2  933   0.120   2.690   2.739 -1.8332 -0.3790  2.2361
  312SOL     OW  934   2.105   1.868   0.532 -0.4315  0.1221  0.4406
  312SOL    HW1  935   2.050   1.912   0.458 -0.1722  0.8100 -3.5380
  312SOL    HW2  936   2.130   1.770   0.508 -0.3006 -2.8571  1.3707
  313SOL     OW  937   2.897   3.049   0.764  0.0176 -0.2679 -0.6082
  313SOL    HW1  938   2.982   3.025   0.713  0.5928 -0.5746 -0.7560
  313SOL    HW2  939   2.818   3.032   0.703  2.4304  1.4746 -1.4175
  314SOL     OW  940   1.384   0.941   3.066  0.0851  0.2043 -0.1224
  314SOL    HW1  941   1.378   0.841   3.043 -1.4080  0.9064 -0.8924
  314SOL    HW2  942   1.417   0.944   0.044  3.7763  0.7442  3.1863
  315SOL     OW  943   1.399   2.503   2.114  0.0910  0.2520  0.1464
  315SOL    HW1  944   1.362   2.599   2.108  0.7349 -0.1870  0.2709
  315SOL    HW2  945   1.333   2.436   2.070 -2.4671 -0.8788 -0.1927
  316SOL     OW  946   3.104   0.970   0.565  0.0268 -0.3220  0.2293
  316SOL    HW1  947   3.065   0.977   0.467  0.0337 -0.8277 -3.2013
  316SOL    HW2  948   0.022   1.059   0.592  2.9743  0.1532  1.7088
  317SOL     OW  949   0.417   0.051   0.536 -0.0592 -0.5459  0.1465
  317SOL    HW1  950   0.360   0.020   0.613  3.2011 -0.4269  1.6570
  317SOL    HW2  951   0.489   3.103   0.530 -2.0941  2.2736  3.6842
  318SOL     OW  952   2.140   2.386   0.397 -0.1470 -0.3379  0.4481
  318SOL    HW1  953   2.093   2.314   0.344 -0.3952  2.5575  2.2519
  318SOL    HW2  954   2.245   2.379   0.407  0.2756 -0.3956  1.7438
  319SOL     OW  955   1.165   1.540   2.883 -0.0282 -0.0736  0.6004
  319SOL    HW1  956   1.149   1.457   2.936  1.5433 -2.9814  1.1879
  319SOL    HW2  957   1.095   1.613   2.905  2.3500 -1.7487  1.1399
  320SOL     OW  958   0.326   2.519   1.943  0.2866 -0.3405 -0.0622
  320SOL    HW1  959   0.320   2.618   1.964 -1.5940 -0.0417  0.1535
  320SOL    HW2  960   0.236   2.478   1.966  0.1209  1.8669  1.2790
  321SOL     OW  961   1.371   2.678   2.686 -0.3361  0.0957  0.0919
  321SOL    HW1  962   1.367   2.575   2.685 -0.0594  0.0041 -1.9013
  321SOL    HW2  963   1.296   2.721   2.730  1.2227  2.3263  1.9869
  322SOL     OW  964   2.925   1.450   1.963  0.1628  0.3692 -0.1899
  322SOL    HW1  965   2.953   1.364   2.011  0.5764 -2.2091  2.0977
  322SOL    HW2  966   2.979   1.457   1.875 -1.3715 -1.2648 -1.9405
  323SOL     OW  967   2.316   1.143   0.534  0.7770  0.6195  0.9157
  323SOL    HW1  968   2.260   1.081   0.595 -0.3781  0.0123 -3.7886
  323SOL    HW2  969   2.410   1.110   0.517 -3.0282 -1.6529  0.6898
  324SOL     OW  970   2.934   3.082   2.861  0.2505  0.1467  0.2093
  324SOL    HW1  971   2.979   0.053   2.854 -2.1750  1.8364 -1.2686
  324SOL    HW2  972   2.935   3.056   2.962 -1.6703 -1.0403  2.0373
  325SOL     OW  973   1.318   0.185   2.581  0.6425 -0.1533  0.1050
  325SOL    HW1  974   1.249   0.233   2.641  1.1402 -0.4997  1.2255
  325SOL    HW2  975   1.348   0.091   2.615 -1.9946 -3.0262  2.0480
  326SOL     OW  976   2.166   2.993   1.654  0.3187  0.5863  0.4547
  326SOL    HW1  977   2.240   3.043   1.605  2.3818 -1.0734 -0.4324
  326SOL    HW2  978   2.198   2.946   1.744  2.0169 -0.3742  0.7986
  327SOL     OW  979   2.078   0.171   2.798 -0.1458 -0.7712  0.2836
  327SOL    HW1  980   2.084   0.081   2.753 -0.5298  3.3694  2.1091
  327SOL    HW2  981   2.067   0.158   2.900 -0.7757 -1.6759 -1.8297
  328SOL     OW  982   0.096   1.106   2.384 -0.0439 -0.2778  0.0752
  328SOL    HW1  983   0.110   1.204   2.360  1.9902 -0.3382 -0.2554
  328SOL    HW2  984   3.121   1.089   2.414  0.1299  0.7959  0.3908
  329SOL     OW  985   1.875   0.039   1.885 -0.1586  0.1611 -0.5067
  329SOL    HW1  986   1.951   3.108   1.846  0.3434 -1.4497  2.7542
  329SOL    HW2  987   1.911   0.099   1.958 -3.1924 -2.4939  0.1054
  330SOL     OW  988   2.956   1.655   1.131 -0.3117  0.0721 -0.2952
  330SOL    HW1  989   2.978   1.578   1.067 -3.8602 -0.6233  0.1042
  330SOL    HW2  990   2.908   1.622   1.215 -0.6751  1.0792  3.4159
  331SOL     OW  991   0.569   1.840   2.072  0.1493  0.2099 -0.4951
  331SOL    HW1  992   0.649   1.866   2.129 -1.7048  0.5446 -0.4538
  331SOL    HW2  993   0.588   1.756   2.015  0.8829  1.5208  0.4544
  332SOL     OW  994   3.114   2.797   1.657 -0.2711  0.3422  0.0332
  332SOL    HW1  995   0.015   2.851   1.742  0.2486  0.1283  1.0039
  332SOL    HW2  996   0.036   2.841   1.575 -0.9277 -1.3293  2.0237
  333SOL     OW  997   2.230   2.695   1.205  0.0465 -0.4871  0.0574
  333SOL    HW1  998   2.271   2.695   1.297 -0.3419 -3.5422 -1.5354
  333SOL    HW2  999   2.196   2.601   1.181 -0.2837  2.4439 -1.0788
  334SOL     OW 1000   0.683   1.768   0.885  0.1290  0.0208  0.2758
  334SOL    HW1 1001   0.746   1.701   0.936  0.2992  0.6428  1.3224
  334SOL    HW2 1002   0.736   1.846   0.843 -3.8815  1.4002  1.6338
  335SOL     OW 1003   3.084   2.689   0.037 -0.0006 -0.2117  0.8184
  335SOL    HW1 1004   0.027   2.745   3.098  2.5093  3.3580 -1.1191
  335SOL    HW2 1005   3.027   2.617   3.114  0.8064 -0.0143 -2.4654
  336SOL     OW 1006   0.487   3.062   2.089 -0.1829 -0.1935 -0.6481
  336SOL    HW1 1007   0.463   3.107   2.181 -0.4173  1.8279  1.9092
  336SOL    HW2 1008   0.543   2.982   2.104  0.1345 -0.6296  0.5844
  337SOL     OW 1009   2.402   1.970   2.805 -0.4063 -0.2182 -0.3450
  337SOL    HW1 1010   2.308   1.994   2.840  1.0058 -0.0216 -2.5025
  337SOL    HW2 1011   2.470   2.021   2.861 -3.5220 -0.0559 -2.2520
  338SOL     OW 1012   1.151   1.556   1.230  0.0560 -0.4122 -0.1145
  338SOL    HW1 1013   1.087   1.627   1.199  1.9719  0.5514 -1.1865
  338SOL    HW2 1014   1.248   1.594   1.215  2.0215  3.5820 -0.9474
  339SOL     OW 1015   0.373   0.866   1.835 -0.1718 -0.3363  0.2780
  339SOL    HW1 1016   0.332   0.867   1.928  1.9563  3.4211  1.6899
  339SOL    HW2 1017   0.463   0.917   1.831 -1.1094  3.5355 -1.8590
  340SOL     OW 1018   1.425   2.514   3.112  0.0616  0.2140  0.1603
  340SOL    HW1 1019   1.516   2.485   3.080 -0.4068 -2.3436 -2.6841
  340SOL    HW2 1020   1.449   2.592   0.052 -0.6041  2.2184 -1.1674
  341SOL     OW 1021   1.732   1.533   1.136  0.0590  0.0095 -0.3258
  341SOL    HW1 1022   1.716   1.597   1.217  2.3311  0.9277 -0.0125
  341SOL    HW2 1023   1.673   1.453   1.133  1.4496 -1.0137 -2.0282
  342SOL     OW 1024   2.685   2.677   0.489  0.8559  0.0358  0.2646
  342SOL    HW1 1025   2.627   2.605   0.531 -1.1133  0.9119 -2.2611
  342SOL    HW2 1026   2.782   2.643   0.479 -0.6589  0.5721  0.7393
  343SOL     OW 1027   1.578   2.114   1.178 -0.3061  0.5644  0.5551
  343SOL    HW1 1028   1.631   2.033   1.139  1.0561  0.6564  0.0540
  343SOL    HW2 1029   1.484   2.119   1.142 -0.6587  1.1298  1.0221
  344SOL     OW 1030   2.096   2.522   0.876 -0.5403 -0.5709 -0.3420
  344SOL    HW1 1031   2.126   2.564   0.787 -0.5358  0.5368 -0.3930
  344SOL    HW2 1032   2.004   2.481   0.875 -1.3632 -0.4522 -1.0211
  345SOL     OW 1033   2.830   2.123   2.904 -0.3952  0.4091  0.2822
  345SOL    HW1 1034   2.729   2.120   2.917 -0.3172 -2.2935  1.3446
  345SOL    HW2 1035   2.871   2.166   2.985 -0.4165  0.9945 -0.7878
  346SOL     OW 1036   2.863   1.922   0.731 -0.2504 -0.0608  0.1120
  346SOL    HW1 1037   2.894   1.914   0.826 -1.9628 -0.3333  3.0568
  346SOL    HW2 1038   2.830   1.833   0.701  0.3782 -1.0792 -0.3108
  347SOL     OW 1039   2.286   2.258   1.371  0.2797  0.5422 -0.1154
  347SOL    HW1 1040   2.333   2.187   1.309  0.6905 -0.1626  2.0042
  347SOL    HW2 1041   2.344   2.341   1.393  0.6797  1.3132 -0.4714
  348SOL     OW 1042   0.767   1.741   2.778 -0.5169 -0.1039 -0.0240
  348SOL    HW1 1043   0.735   1.828   2.740 -1.3183  1.1041  0.1041
  348SOL    HW2 1044   0.839   1.756   2.851  0.6049  2.9231 -0.2360
  349SOL     OW 1045   2.292   1.302   1.697  0.3565 -1.0300 -0.0685
  349SOL    HW1 1046   2.311   1.250   1.609 -1.9997  0.8348 -0.2690
  349SOL    HW2 1047   2.294   1.401   1.679 -0.3659 -0.6395 -0.8094
  350SOL     OW 1048   0.113   2.381   1.096  0.3438 -0.2465  0.0628
  350SOL    HW1 1049   0.026   2.390   1.043  0.9199  0.2345  1.4284
  350SOL    HW2 1050   0.191   2.325   1.056  2.8584  1.6092 -1.3297
  351SOL     OW 1051   0.467   0.673   2.084  0.6409  0.1606 -0.4731
  351SOL    HW1 1052   0.421   0.766   2.073 -4.2148 -0.9925 -0.7568
  351SOL    HW2 1053   0.525   0.678   2.166  0.7574  1.5333  3.9422
  352SOL     OW 1054   0.609   2.226   1.544  0.7769  0.2684  0.0444
  352SOL    HW1 1055   0.586   2.319   1.519 -2.5192 -1.6252 -0.6271
  352SOL    HW2 1056   0.526   2.163   1.536 -1.8090  2.2027 -0.5571
  353SOL     OW 1057   1.389   1.840   2.335  0.1895 -0.4960 -0.2391
  353SOL    HW1 1058   1.298   1.812   2.296  0.5525 -1.5961 -1.5648
  353SOL    HW2 1059   1.385   1.861   2.429  0.7163  1.8326 -3.5018
  354SOL     OW 1060   1.257   0.715   0.846  0.0356 -0.1407 -1.0724
  354SOL    HW1 1061   1.288   0.726   0.747  1.5540 -1.4320  0.4205
  354SOL    HW2 1062   1.232   0.803   0.891 -0.3218  0.4822 -0.9169
  355SOL     OW 1063   2.625   1.229   0.502 -0.4277  0.0350  0.1068
  355SOL    HW1 1064   2.680   1.147   0.470 -3.5007 -1.2772  0.2188
  355SOL    HW2 1065   2.617   1.303   0.433  0.0336 -0.8745 -1.9313
  356SOL     OW 1066   2.618   1.394   2.599 -0.7928 -0.2844 -0.6276
  356SOL    HW1 1067   2.664   1.329   2.665  4.5682  1.2112  1.3531
  356SOL    HW2 1068   2.528   1.362   2.559  0.3804  1.9610 -0.7469
  357SOL     OW 1069   0.886   2.671   1.363 -0.0042 -0.2243 -0.0953
  357SOL    HW1 1070   0.839   2.629   1.284 -2.3085  1.5123 -0.7177
  357SOL    HW2 1071   0.853   2.767   1.375  1.6145 -1.2226  0.0965
  358SOL     OW 1072   2.484   1.145   1.862  0.5254  0.4498  0.5566
  358SOL    HW1 1073   2.445   1.235   1.836 -0.6649 -2.5598 -0.2646
  358SOL    HW2 1074   2.420   1.071   1.836 -1.5098  0.6783 -1.6725
  359SOL     OW 1075   2.249   2.220   2.892 -0.5364  0.2709  0.1236
  359SOL    HW1 1076   2.295   2.239   2.979 -5.0896  0.4618 -1.0782
  359SOL    HW2 1077   2.219   2.310   2.847 -2.1659  0.5225  2.1547
  360SOL     OW 1078   2.288   0.476   1.010  0.2772 -0.1404 -0.4189
  360SOL    HW1 1079   2.216   0.540   1.056 -1.5201  0.1973 -1.2454
  360SOL    HW2 1080   2.244   0.388   0.977 -0.5678 -2.9513  0.1244
  361SOL     OW 1081   2.039   0.015   0.970  0.4334  0.0372  0.4218
  361SOL    HW1 1082   2.109   3.062   0.988  4.7302 -1.6830  0.1676
  361SOL    HW2 1083   1.971   3.111   0.898 -0.0448 -0.1251  3.0799
  362SOL     OW 1084   1.432   1.006   0.495 -0.1200 -0.3519  0.4917
  362SOL    HW1 1085   1.399   1.015   0.591 -0.2502  2.4880  0.6805
  362SOL    HW2 1086   1.355   0.975   0.440  0.8004 -2.8969  1.2688
  363SOL     OW 1087   2.444   1.564   2.337  0.2096 -0.1781  0.0952
  363SOL    HW1 1088   2.547   1.553   2.350  2.8175  0.1556  1.2565
  363SOL    HW2 1089   2.398   1.485   2.385  0.5234 -0.6500  0.8770
  364SOL     OW 1090   1.341   0.546   1.355 -0.0745  0.8156 -0.2778
  364SOL    HW1 1091   1.346   0.545   1.251  1.2194 -3.5845  1.9685
  364SOL    HW2 1092   1.348   0.449   1.383  1.5356 -2.5833 -0.2644
  365SOL     OW 1093   0.191   2.915   0.865 -0.3143  0.7189  0.2828
  365SOL    HW1 1094   0.144   2.831   0.825  0.2335  0.5104 -1.6536
  365SOL    HW2 1095   0.150   2.932   0.957 -0.3583 -2.2584 -0.2641
  366SOL     OW 1096   2.893   1.534   0.315 -0.1958 -0.0548  0.3772
  366SOL    HW1 1097   2.955   1.524   0.399  2.7893 -0.2037  2.0064
  366SOL    HW2 1098   2.941   1.593   0.243 -1.2940 -0.4855 -0.7450
  367SOL     OW 1099   2.903   2.575   3.010  0.0468 -0.1443 -0.4023
  367SOL    HW1 1100   2.889   2.621   2.919 -0.3922 -0.3369 -0.2532
  367SOL    HW2 1101   2.820   2.566   3.064 -1.9737  2.2010 -1.8134
  368SOL     OW 1102   0.252   2.144   0.930  0.0099 -0.4154  0.6514
  368SOL    HW1 1103   0.340   2.096   0.925 -0.1292  0.0894  0.1474
  368SOL    HW2 1104   0.170   2.080   0.915 -1.3731 -1.3497 -2.8133
  369SOL     OW 1105   0.352   0.152   0.279 -0.1507 -0.1295  0.2018
  369SOL    HW1 1106   0.365   0.109   0.371 -1.1902  1.3124 -2.2429
  369SOL    HW2 1107   0.434   0.181   0.234 -2.2728  0.2697  2.5683
  370SOL     OW 1108   0.362   1.032   1.182  0.2534 -0.1435 -0.2051
  370SOL    HW1 1109   0.286   1.068   1.116 -1.5998  1.6816 -2.9818
  370SOL    HW2 1110   0.358   1.088   1.264 -1.5381 -2.5168 -2.0497
  371SOL     OW 1111   1.951   2.457   0.600 -0.5754  0.0842 -0.2913
  371SOL    HW1 1112   2.015   2.418   0.530 -0.1452 -0.1529  2.0266
  371SOL    HW2 1113   1.940   2.399   0.683 -0.7450 -0.3358  0.3892
  372SOL     OW 1114   0.322   0.985   2.776  0.3113  0.0717 -0.0624
  372SOL    HW1 1115   0.335   1.062   2.708 -1.8982  0.9275 -0.0452
  372SOL    HW2 1116   0.369   1.017   2.859 -1.7225 -2.1370 -3.0976
  373SOL     OW 1117   2.747   1.685   0.605 -0.4147  0.8199 -0.8455
  373SOL    HW1 1118   2.783   1.635   0.525  2.2374  1.1890 -1.2049
  373SOL    HW2 1119   2.661   1.735   0.582 -0.1784  0.9336  0.6452
  374SOL     OW 1120   0.394   2.435   0.316  0.5656  0.7776 -0.8782
  374SOL    HW1 1121   0.374   2.344   0.358 -0.8970  1.4295  1.9528
  374SOL    HW2 1122   0.315   2.494   0.301  1.0891 -1.3192  0.8311
  375SOL     OW 1123   0.600   0.246   0.184  0.1620  0.3024 -0.2706
  375SOL    HW1 1124   0.675   0.203   0.239  0.7710  0.2738 -0.2916
  375SOL    HW2 1125   0.624   0.347   0.182 -2.0215 -1.7807  0.4518
  376SOL     OW 1126   0.375   3.015   1.823 -0.3974  0.2406  0.3656
  376SOL    HW1 1127   0.311   3.088   1.795  0.8410 -0.1064 -1.5684
  376SOL    HW2 1128   0.409   3.028   1.918 -0.9411 -2.5854 -2.9214
  377SOL     OW 1129   0.872   2.286   2.400 -0.0162  0.3926  1.1666
  377SOL    HW1 1130   0.879   2.220   2.477 -3.2892 -1.6450 -1.0595
  377SOL    HW2 1131   0.964   2.319   2.365  1.3985 -0.8025 -1.2062
  378SOL     OW 1132   1.065   0.929   0.605 -0.3674  0.3572 -0.3714
  378SOL    HW1 1133   0.983   0.921   0.544 -2.1237  1.2798 -2.0769
  378SOL    HW2 1134   1.129   0.857   0.581  1.1102 -0.3136 -1.9236
  379SOL     OW 1135   0.967   1.716   2.963  0.6605 -0.4803  0.6303
  379SOL    HW1 1136   0.895   1.687   3.028  1.2611  1.1476  0.3483
  379SOL    HW2 1137   1.033   1.779   3.009  1.5974 -0.0903 -0.3067
  380SOL     OW 1138   2.775   2.046   1.710  0.7276 -0.2578 -0.0078
  380SOL    HW1 1139   2.733   1.955   1.709  1.8888  2.2533 -0.0336
  380SOL    HW2 1140   2.831   2.059   1.791  2.3431 -0.1183 -0.8878
  381SOL     OW 1141   0.153   1.286   1.763 -0.3149  0.0848  0.4571
  381SOL    HW1 1142   0.226   1.354   1.741 -0.7335  3.8039  1.3274
  381SOL    HW2 1143   0.156   1.203   1.699 -0.9077  1.0950  1.1690
  382SOL     OW 1144   2.479   2.386   3.043 -0.2854  0.2785  0.0512
  382SOL    HW1 1145   2.427   2.335   3.110 -1.4315 -0.7654  1.8575
  382SOL    HW2 1146   2.552   2.437   3.086  0.3942  0.7385  0.2103
  383SOL     OW 1147   2.410   1.976   2.190 -0.2097  0.6577 -0.1092
  383SOL    HW1 1148   2.435   1.876   2.171  0.0752 -1.7484  1.6218
  383SOL    HW2 1149   2.457   2.013   2.266 -0.2210 -2.1635 -2.0978
  384SOL     OW 1150   0.731   2.274   2.168  0.1623 -0.5543 -0.1840
  384SOL    HW1 1151   0.764   2.298   2.264 -1.6786  0.4096  3.8016
  384SOL    HW2 1152   0.688   2.356   2.130  0.9068 -1.3072  2.4161
  385SOL     OW 1153   2.840   2.190   1.103  0.2467 -0.4609  0.0955
  385SOL    HW1 1154   2.873   2.165   1.012 -3.4808 -0.0190 -1.1977
  385SOL    HW2 1155   2.917   2.200   1.170 -1.0102  0.1423  1.0725
  386SOL     OW 1156   2.043   0.599   0.229 -0.3600 -0.7408 -0.0517
  386SOL    HW1 1157   1.964   0.657   0.198  2.2385  1.9450 -0.1402
  386SOL    HW2 1158   2.029   0.556   0.315  1.8099 -0.9300 -2.4675
  387SOL     OW 1159   0.666   0.597   1.617 -0.9195 -0.0738  0.9000
  387SOL    HW1 1160   0.607   0.611   1.539  2.5821  2.5152  1.6568
  387SOL    HW2 1161   0.610   0.556   1.693  0.8545  0.7177  0.1761
  388SOL     OW 1162   2.858   1.093   1.984  0.5034  0.0305  0.5374
  388SOL    HW1 1163   2.927   1.149   2.035 -3.8066  0.1511 -1.3591
  388SOL    HW2 1164   2.787   1.047   2.036  0.0789  1.6923 -2.4246
  389SOL     OW 1165   1.611   0.627   2.448 -0.1145 -0.6510 -0.1222
  389SOL    HW1 1166   1.632   0.723   2.419  0.7941 -0.0822 -0.2447
  389SOL    HW2 1167   1.693   0.575   2.476  0.3772  0.6237  0.0902
  390SOL     OW 1168   2.039   2.398   0.049  0.4113  0.0676  0.6069
  390SOL    HW1 1169   2.020   2.412   3.073 -0.8667 -2.2595  2.7553
  390SOL    HW2 1170   2.011   2.484   0.098  0.7434  0.8880  1.2562
  391SOL     OW 1171   1.877   2.424   1.365 -0.3163  0.1959  0.1654
  391SOL    HW1 1172   1.810   2.349   1.362 -0.0866 -1.9607 -0.7296
  391SOL    HW2 1173   1.840   2.511   1.333  3.4325 -0.3685  0.1040
  392SOL     OW 1174   2.740   2.653   1.425  1.1950 -0.3215 -0.5442
  392SOL    HW1 1175   2.636   2.660   1.432 -0.1799  1.2173 -0.0900
  392SOL    HW2 1176   2.788   2.722   1.481  1.1900 -4.9704 -1.0982
  393SOL     OW 1177   1.790   1.678   2.663  0.5828  0.2801 -0.3866
  393SOL    HW1 1178   1.862   1.749   2.664  0.0026  0.4108  1.8274
  393SOL    HW2 1179   1.823   1.606   2.598 -2.2276  0.3697  3.1542
  394SOL     OW 1180   0.184   2.872   0.272 -0.5369 -0.5953  0.1049
  394SOL    HW1 1181   0.104   2.831   0.323 -0.5556 -0.1471 -1.8180
  394SOL    HW2 1182   0.162   2.953   0.217 -0.5443  0.3360  1.1727
  395SOL     OW 1183   1.401   1.275   1.408  0.1039  0.3633  0.4814
  395SOL    HW1 1184   1.400   1.311   1.309 -1.4184  1.9555 -3.0338
  395SOL    HW2 1185   1.316   1.233   1.431  2.3664 -0.3009  0.2900
  396SOL     OW 1186   1.812   0.677   0.100 -0.2125  0.1761 -0.6011
  396SOL    HW1 1187   1.755   0.616   0.049  2.3817 -0.8599  2.4225
  396SOL    HW2 1188   1.783   0.776   0.084 -0.6603  1.9033 -0.6151
  397SOL     OW 1189   0.061   0.916   2.806  0.6589  0.2704  0.4437
  397SOL    HW1 1190   0.041   0.820   2.773 -2.6774 -3.3693 -3.2560
  397SOL    HW2 1191   0.158   0.936   2.801 -2.3154  0.0156  0.3452
  398SOL     OW 1192   1.049   0.089   0.182 -0.2256  0.1716  0.1933
  398SOL    HW1 1193   1.149   0.068   0.202  0.4019 -1.5844  0.0343
  398SOL    HW2 1194   1.032   0.070   0.083  0.4269 -2.0683  0.4565
  399SOL     OW 1195   2.193   3.049   2.154  0.3167  0.5745 -0.7010
  399SOL    HW1 1196   2.124   3.021   2.079 -0.2489  2.9129  1.6313
  399SOL    HW2 1197   2.283   3.067   2.109 -0.4617 -0.4789  2.1189
  400SOL     OW 1198   3.072   1.555   2.461 -0.2752 -0.6057  0.0047
  400SOL    HW1 1199   0.016   1.552   2.539 -1.1783  0.4491 -0.3072
  400SOL    HW2 1200   2.978   1.565   2.490 -0.3629 -2.6964  0.8462
  401SOL     OW 1201   0.527   0.275   2.822 -0.2756  0.4211  0.3624
  401SOL    HW1 1202   0.491   0.328   2.905  1.9947  0.1107  0.2277
  401SOL    HW2 1203   0.616   0.234   2.848  1.5559 -0.6368  0.8298
  402SOL     OW 1204   0.292   2.504   1.636 -0.2303 -0.0940 -0.2084
  402SOL    HW1 1205   0.279   2.567   1.555  0.2651 -3.4471 -0.0394
  402SOL    HW2 1206   0.325   2.553   1.720 -0.0809 -0.7984 -0.6832
  403SOL     OW 1207   0.719   1.454   1.273 -0.7265 -0.2635  0.6505
  403SOL    HW1 1208   0.761   1.359   1.264  1.4351 -1.4935  1.1512
  403SOL    HW2 1209   0.759   1.495   1.360  0.9263  0.3417  0.3615
  404SOL     OW 1210   2.716   2.759   1.755  0.2987  0.3413 -0.8206
  404SOL    HW1 1211   2.620   2.786   1.740 -0.1263  1.3285  3.3470
  404SOL    HW2 1212   2.787   2.808   1.698 -3.2874  2.4645  1.6474
  405SOL     OW 1213   2.934   0.680   2.101 -0.2053  0.3778 -0.3721
  405SOL    HW1 1214   2.845   0.724   2.114  0.0689 -1.4140  0.9893
  405SOL    HW2 1215   2.978   0.669   2.192 -1.6342  1.6671 -0.1772
  406SOL     OW 1216   1.513   2.447   2.582 -0.3051 -0.2953 -0.5540
  406SOL    HW1 1217   1.502   2.381   2.660 -0.4874 -1.2326  0.9571
  406SOL    HW2 1218   1.603   2.494   2.578 -1.7601 -0.9832  2.0582
  407SOL     OW 1219   1.770   1.856   0.895 -0.0609 -0.0824 -0.4236
  407SOL    HW1 1220   1.758   1.874   0.996 -0.3552 -3.8982  0.6121
  407SOL    HW2 1221   1.792   1.757   0.884 -2.4278  0.1167 -2.2060
  408SOL     OW 1222   0.725   0.290   2.131 -0.1966  0.5054 -0.1271
  408SOL    HW1 1223   0.658   0.243   2.070  1.7461  2.3041  0.2681
  408SOL    HW2 1224   0.812   0.231   2.133  2.1266  0.5199 -2.7128
  409SOL     OW 1225   2.521   2.106   0.374  0.1006 -0.7182 -0.4824
  409SOL    HW1 1226   2.460   2.022   0.373  0.4612  0.4421  0.4567
  409SOL    HW2 1227   2.602   2.098   0.435 -0.2733 -0.0470  0.5662
  410SOL     OW 1228   2.145   1.703   0.232 -0.2873 -0.3375  0.1854
  410SOL    HW1 1229   2.234   1.703   0.177 -0.0428  0.3252 -1.0098
  410SOL    HW2 1230   2.152   1.658   0.322 -0.1467  0.0065 -0.4778
  411SOL     OW 1231   0.093   0.705   0.605 -0.1958  0.1058 -0.0489
  411SOL    HW1 1232   0.178   0.701   0.665  0.0696  0.8330 -0.4258
  411SOL    HW2 1233   0.065   0.800   0.590  1.9350 -0.9881 -0.3506
  412SOL     OW 1234   2.105   0.372   0.505 -0.0284  0.5778  0.5374
  412SOL    HW1 1235   2.116   0.312   0.588  2.5178 -0.3117  1.9847
  412SOL    HW2 1236   2.067   0.464   0.530  0.5130 -2.6918 -1.6823
  413SOL     OW 1237   0.992   0.631   1.157 -0.0510 -0.3413  0.0720
  413SOL    HW1 1238   0.918   0.654   1.227  2.4954  0.7575 -2.6592
  413SOL    HW2 1239   1.055   0.709   1.151  1.8907 -0.5873 -1.5992
  414SOL     OW 1240   0.339   1.703   3.111 -0.1366 -0.3640 -0.2079
  414SOL    HW1 1241   0.274   1.628   0.017 -1.6110 -2.8558 -0.8238
  414SOL    HW2 1242   0.305   1.790   0.027  0.4345 -0.2341 -0.9255
  415SOL     OW 1243   0.302   1.942   0.068 -0.1672 -0.0320  0.1052
  415SOL    HW1 1244   0.393   1.974   0.101 -0.4516 -3.4972  1.5694
  415SOL    HW2 1245   0.294   1.978   3.092  0.4841  0.1728 -1.0384
  416SOL     OW 1246   1.542   0.706   0.310  0.0103 -0.3678  0.0949
  416SOL    HW1 1247   1.636   0.721   0.332 -2.0580 -2.3318  1.8171
  416SOL    HW2 1248   1.511   0.613   0.347 -2.1630  0.8068  0.3689
  417SOL     OW 1249   0.337   0.954   0.847  0.6740 -0.0567  0.3953
  417SOL    HW1 1250   0.239   0.954   0.878 -2.3973 -1.0709  1.3942
  417SOL    HW2 1251   0.394   1.019   0.903 -0.6832  0.3102  0.5417
  418SOL     OW 1252   2.470   1.034   2.699 -0.2889 -0.2477  0.9586
  418SOL    HW1 1253   2.392   1.095   2.686  1.1154 -0.5208 -0.6970
  418SOL    HW2 1254   2.462   0.994   2.792 -0.2418 -1.7140 -0.9308
  419SOL     OW 1255   0.279   0.397   0.329 -0.6675 -0.1742 -0.3137
  419SOL    HW1 1256   0.336   0.459   0.389 -2.5086 -1.0918 -1.2172
  419SOL    HW2 1257   0.318   0.306   0.312 -0.5843 -1.5553 -1.4227
  420SOL     OW 1258   0.182   1.703   0.905 -0.0347  0.1770  0.0016
  420SOL    HW1 1259   0.179   1.666   1.001  1.1132 -1.1996 -3.0973
  420SOL    HW2 1260   0.275   1.688   0.877 -2.2241  1.1941  0.5073
  421SOL     OW 1261   0.385   2.130   0.421  0.0754 -0.2335 -0.3231
  421SOL    HW1 1262   0.466   2.187   0.398 -1.9092 -0.2374  2.0793
  421SOL    HW2 1263   0.397   2.078   0.507 -0.7597 -0.0006  2.3740
  422SOL     OW 1264   2.793   0.612   1.463  0.0610 -0.7903 -0.0308
  422SOL    HW1 1265   2.889   0.585   1.435  1.5951  0.7294  2.1920
  422SOL    HW2 1266   2.801   0.629   1.567 -0.6423  0.4639  0.2129
  423SOL     OW 1267   1.835   1.602   0.907 -0.2694  0.1299  0.3357
  423SOL    HW1 1268   1.813   1.570   1.004  0.5813  1.3995 -0.2132
  423SOL    HW2 1269   1.881   1.532   0.852 -0.8299  3.0454  1.8490
  424SOL     OW 1270   1.935   1.077   0.440 -0.4063 -0.0035  0.5654
  424SOL    HW1 1271   1.997   1.152   0.404 -1.8807  2.7588 -0.9486
  424SOL    HW2 1272   1.839   1.109   0.435  4.4135  0.6173  0.1978
  425SOL     OW 1273   0.076   2.916   2.096  0.5770 -0.2986 -0.1316
  425SOL    HW1 1274   0.110   3.005   2.133 -2.3386 -2.0136  2.0477
  425SOL    HW2 1275   3.104   2.890   2.133  2.8310 -1.6051 -0.7850
  426SOL     OW 1276   2.576   2.741   2.943 -0.1062 -0.0361 -0.2188
  426SOL    HW1 1277   2.603   2.735   3.040  0.9891  0.2041 -1.4839
  426SOL    HW2 1278   2.628   2.820   2.907  1.1402  0.7700  3.0707
  427SOL     OW 1279   0.978   0.973   2.556 -0.0913  0.2347  0.1602
  427SOL    HW1 1280   0.938   0.935   2.641 -0.9969 -2.4344 -3.1691
  427SOL    HW2 1281   1.068   0.929   2.524 -0.1543  0.4977 -1.5221
  428SOL     OW 1282   2.228   0.719   2.501 -0.0846  0.1148  0.5203
  428SOL    HW1 1283   2.307   0.777   2.474 -0.6394 -1.0316 -1.7969
  428SOL    HW2 1284   2.149   0.776   2.497  2.4184 -0.3202  1.0113
  429SOL     OW 1285   2.677   0.245   0.563 -0.3774 -0.6752 -0.9786
  429SOL    HW1 1286   2.682   0.160   0.504  0.2268  1.1290 -0.4626
  429SOL    HW2 1287   2.590   0.263   0.608 -1.7548  0.3364 -2.0195
  430SOL     OW 1288   2.148   1.382   2.237  0.0194  0.0753  0.2542
  430SOL    HW1 1289   2.160   1.298   2.287 -0.8279  1.6949 -4.5901
  430SOL    HW2 1290   2.180   1.368   2.140 -0.5087 -0.2093 -1.8398
  431SOL     OW 1291   3.023   2.189   1.301 -0.2052 -0.1791 -0.0749
  431SOL    HW1 1292   3.062   2.284   1.311  2.9557 -0.5304 -0.9877
  431SOL    HW2 1293   2.947   2.166   1.367 -0.9655 -0.2610  1.9152
  432SOL     OW 1294   1.429   2.941   2.487  0.0156  0.0520  0.1680
  432SOL    HW1 1295   1.392   2.971   2.578 -0.6314  1.5290 -0.8419
  432SOL    HW2 1296   1.426   3.017   2.419  1.1652 -0.0549 -0.8947
  433SOL     OW 1297   1.532   2.787   1.571 -0.3563 -0.3762 -0.4966
  433SOL    HW1 1298   1.612   2.759   1.629  0.2955 -0.6135  1.5615
  433SOL    HW2 1299   1.556   2.874   1.528  2.3819  1.6122  0.7239
  434SOL     OW 1300   0.020   2.583   2.206 -0.0193  0.2196  0.2326
  434SOL    HW1 1301   0.108   2.630   2.202 -2.1022 -0.7396  1.8309
  434SOL    HW2 1302   0.003   2.538   2.116  1.4388  0.2542  0.4001
  435SOL     OW 1303   0.003   1.910   0.244 -0.1184  0.1775  0.2780
  435SOL    HW1 1304   3.091   1.829   0.188  1.0101  0.4005 -1.4470
  435SOL    HW2 1305   0.098   1.894   0.277  1.3830  0.0222 -1.0149
  436SOL     OW 1306   0.969   1.271   1.673  0.4124 -0.1027 -0.0328
  436SOL    HW1 1307   0.965   1.174   1.632  1.2715 -0.0518 -0.3250
  436SOL    HW2 1308   0.918   1.274   1.763  0.6855  0.7044  0.5819
  437SOL     OW 1309   0.357   0.208   2.621  0.2867 -0.6030 -0.3742
  437SOL    HW1 1310   0.425   0.231   2.691 -0.1931 -2.4727  0.7865
  437SOL    HW2 1311   0.304   0.127   2.646  1.2277  2.4240 -0.9732
  438SOL     OW 1312   0.595   1.810   1.734  0.6789 -0.3475  0.0405
  438SOL    HW1 1313   0.611   1.909   1.753 -3.5288 -0.9640  0.4295
  438SOL    HW2 1314   0.649   1.786   1.648 -0.6116  0.2527  1.9274
  439SOL     OW 1315   1.937   1.043   3.007  0.1026  0.0049  0.6002
  439SOL    HW1 1316   1.862   1.042   3.077  0.6251  1.5826 -0.3688
  439SOL    HW2 1317   1.963   0.945   2.979 -2.3089 -0.9849 -0.8293
  440SOL     OW 1318   0.967   0.855   3.121  0.6123  0.4175 -0.2673
  440SOL    HW1 1319   1.044   0.837   0.059 -4.8220  3.9426 -2.9848
  440SOL    HW2 1320   0.882   0.878   0.043 -1.9568  1.8324 -0.2404
  441SOL     OW 1321   0.458   2.759   1.688  0.1758  0.4571  0.2872
  441SOL    HW1 1322   0.480   2.723   1.592  1.0341  0.3586 -3.8008
  441SOL    HW2 1323   0.452   2.861   1.692  0.0042 -1.6644 -2.1010
  442SOL     OW 1324   2.271   2.364   0.995 -0.7754 -0.0457 -0.2903
  442SOL    HW1 1325   2.247   2.265   0.994 -0.2061 -0.9537  0.3128
  442SOL    HW2 1326   2.205   2.422   0.943  0.7996 -2.0449  0.7077
  443SOL     OW 1327   2.932   1.308   2.377  0.4234 -0.3655  0.0771
  443SOL    HW1 1328   2.988   1.385   2.414  1.7083 -0.9030  0.9880
  443SOL    HW2 1329   2.851   1.347   2.330 -0.1302  0.4827 -1.0105
  444SOL     OW 1330   1.265   0.717   2.842  0.0848 -0.4914 -0.7151
  444SOL    HW1 1331   1.255   0.656   2.928  0.0839  0.3266 -0.5088
  444SOL    HW2 1332   1.207   0.799   2.845  1.5894 -1.6114  2.9612
  445SOL     OW 1333   2.267   2.832   1.852 -0.2211 -0.0353  0.0511
  445SOL    HW1 1334   2.355   2.810   1.901 -1.6478  2.8347 -1.7892
  445SOL    HW2 1335   2.252   2.772   1.777  1.1666  3.4255  3.2622
  446SOL     OW 1336   2.934   2.114   0.305  0.4861 -0.4752  0.0863
  446SOL    HW1 1337   2.979   2.024   0.302  0.7130 -0.6820  1.2223
  446SOL    HW2 1338   2.865   2.120   0.383 -1.2848  2.0875 -0.5581
  447SOL     OW 1339   1.084   2.529   1.505  0.6687 -0.0880  0.2381
  447SOL    HW1 1340   1.098   2.577   1.597 -2.5444  3.2020 -0.8900
  447SOL    HW2 1341   1.001   2.578   1.460  0.5527 -1.5366 -0.3280
  448SOL     OW 1342   1.666   1.640   1.958  0.2638  0.6532  0.1973
  448SOL    HW1 1343   1.585   1.681   2.003 -1.8118  1.4559 -0.7687
  448SOL    HW2 1344   1.706   1.565   2.016 -0.6190 -0.8932  0.6880
  449SOL     OW 1345   0.150   1.921   2.326  0.4143 -0.0268 -0.1512
  449SOL    HW1 1346   0.151   2.017   2.290  2.0737  2.5499 -0.1207
  449SOL    HW2 1347   0.231   1.866   2.294  1.2210 -0.0001  0.0758
  450SOL     OW 1348   2.798   1.622   2.552  0.2598  0.1814  0.0748
  450SOL    HW1 1349   2.726   1.545   2.550  0.9379 -2.0246 -0.3108
  450SOL    HW2 1350   2.762   1.716   2.526  1.6029 -0.6423  1.1879
  451SOL     OW 1351   2.212   0.569   1.424  0.1766 -0.2536  0.5363
  451SOL    HW1 1352   2.296   0.628   1.415 -0.3679  1.6280 -0.6280
  451SOL    HW2 1353   2.220   0.495   1.493 -0.7820 -2.0491 -1.7901
  452SOL     OW 1354   0.964   1.756   1.175  0.5535  0.8568  0.0547
  452SOL    HW1 1355   0.926   1.792   1.262 -1.7617  1.0820  2.3019
  452SOL    HW2 1356   0.889   1.704   1.127 -1.7643 -1.8683 -4.0209
  453SOL     OW 1357   1.197   2.163   0.709 -0.4045  0.4433  0.0546
  453SOL    HW1 1358   1.292   2.197   0.718 -0.7269 -0.0930 -0.6610
  453SOL    HW2 1359   1.134   2.240   0.673 -0.1765 -2.1594 -2.7926
  454SOL     OW 1360   0.298   1.060   0.578 -0.3936  0.1818  0.5387
  454SOL    HW1 1361   0.294   1.024   0.671  0.3749  1.3231  1.2992
  454SOL    HW2 1362   0.233   1.137   0.579 -0.7925 -2.1902 -0.2755
  455SOL     OW 1363   0.870   0.944   0.404  0.0682  0.1757 -0.1907
  455SOL    HW1 1364   0.835   0.904   0.313 -0.5822 -1.5170 -3.2115
  455SOL    HW2 1365   0.902   1.035   0.386 -1.0385 -2.4553 -3.4026
  456SOL     OW 1366   2.045   2.246   1.237 -0.4213 -0.0131 -0.3755
  456SOL    HW1 1367   2.127   2.255   1.301  1.0452 -2.6438  2.2471
  456SOL    HW2 1368   1.971   2.311   1.269  2.0483  0.9447 -1.5377
  457SOL     OW 1369   1.547   2.826   2.840  0.1738 -0.4306  0.3167
  457SOL    HW1 1370   1.488   2.814   2.758  2.3938  0.3451 -1.5167
  457SOL    HW2 1371   1.490   2.831   2.924  1.0209  0.5045 -1.1028
  458SOL     OW 1372   2.678   0.143   0.072 -0.7122 -0.2381 -0.2614
  458SOL    HW1 1373   2.612   0.210   0.104  1.1001 -0.7447 -1.5540
  458SOL    HW2 1374   2.637   0.052   0.082  3.3214  0.8414 -0.8423
  459SOL     OW 1375   2.358   0.321   2.257 -0.4558 -0.0358 -0.3070
  459SOL    HW1 1376   2.297   0.400   2.243 -0.4461  0.5533 -0.7950
  459SOL    HW2 1377   2.451   0.348   2.297  3.2513  2.3658  0.7049
  460SOL     OW 1378   3.064   0.693   2.737 -0.2534 -0.0296 -0.3151
  460SOL    HW1 1379   0.002   0.606   2.725  0.5922 -0.4131 -1.1803
  460SOL    HW2 1380   2.980   0.659   2.787 -1.6797 -3.0077 -0.0916
  461SOL     OW 1381   2.985   2.181   0.854  0.5231 -0.1997 -0.4175
  461SOL    HW1 1382   3.063   2.117   0.829  0.9440  0.5595  1.3569
  461SOL    HW2 1383   2.921   2.204   0.779  0.6810  1.5673  0.5775
  462SOL     OW 1384   3.057   0.231   1.077 -0.2766 -0.5973 -0.6674
  462SOL    HW1 1385   3.023   0.225   0.980  2.0944 -0.0436  2.5126
  462SOL    HW2 1386   2.979   0.244   1.142  2.5805  0.0268 -1.5160
  463SOL     OW 1387   2.326   1.265   0.098 -0.6121 -0.1539 -0.0060
  463SOL    HW1 1388   2.376   1.242   0.185  1.0560 -4.1351 -0.1302
  463SOL    HW2 1389   2.369   1.341   0.054 -3.5437 -1.4813 -0.7692
  464SOL     OW 1390   0.843   2.963   1.401 -0.0133  0.4895  0.1842
  464SOL    HW1 1391   0.923   3.021   1.368  0.5305  0.2229  0.9622
  464SOL    HW2 1392   0.765   2.963   1.339  1.5749  0.4698 -3.1216
  465SOL     OW 1393   1.383   0.289   1.439 -0.1436 -0.3344  0.3035
  465SOL    HW1 1394   1.478   0.294   1.484  2.3638 -0.4289 -2.2366
  465SOL    HW2 1395   1.313   0.271   1.507  1.1427 -0.0133 -2.1011
  466SOL     OW 1396   1.665   2.457   1.992  0.3837 -0.3058  0.2743
  466SOL    HW1 1397   1.754   2.481   2.032 -0.9107  1.8125  2.8965
  466SOL    HW2 1398   1.588   2.506   2.046  0.4764 -0.6600  1.5858
  467SOL     OW 1399   0.725   2.562   1.604  0.4540  0.1217 -0.3932
  467SOL    HW1 1400   0.635   2.566   1.560  0.1558 -0.3297  0.1866
  467SOL    HW2 1401   0.801   2.565   1.539  0.8056  0.7479  0.1370
  468SOL     OW 1402   2.726   1.616   2.065  0.3517  0.7178 -0.2510
  468SOL    HW1 1403   2.805   1.570   2.017  0.2226  1.1767  3.3274
  468SOL    HW2 1404   2.754   1.703   2.111  1.5358 -0.4458 -1.1081
  469SOL     OW 1405   0.901   1.924   0.821  0.5128 -0.2059 -0.2198
  469SOL    HW1 1406   0.913   2.019   0.794  1.9125 -1.2294  1.5230
  469SOL    HW2 1407   0.990   1.881   0.831  0.5268 -0.3947  1.0986
  470SOL     OW 1408   2.373   1.330   2.476 -0.2559  0.0010  0.1172
  470SOL    HW1 1409   2.343   1.264   2.404  1.0363  0.3566  0.9177
  470SOL    HW2 1410   2.345   1.299   2.571 -0.2110 -0.2716 -1.4640
  471SOL     OW 1411   0.166   2.565   0.217  0.8048  0.7362 -0.6439
  471SOL    HW1 1412   0.107   2.639   0.183 -0.9351  0.6545  1.4297
  471SOL    HW2 1413   0.209   2.508   0.145  0.8235 -1.4669 -1.4284
  472SOL     OW 1414   0.309   2.769   2.140  0.1226  0.6182  0.4302
  472SOL    HW1 1415   0.235   2.827   2.111  2.3197 -0.9723  1.8298
  472SOL    HW2 1416   0.396   2.801   2.102  0.5361  0.7793 -0.2036
  473SOL     OW 1417   0.481   2.973   0.206 -0.9153 -0.5372  0.5400
  473SOL    HW1 1418   0.379   2.959   0.214  0.2303  0.1747 -2.0493
  473SOL    HW2 1419   0.496   3.047   0.140  0.1204 -0.0638  2.6187
  474SOL     OW 1420   1.759   2.965   0.979 -0.5005  0.0519 -0.1382
  474SOL    HW1 1421   1.843   2.905   0.987  2.4447  0.5493 -0.3043
  474SOL    HW2 1422   1.684   2.939   1.042 -0.3678 -0.7319 -2.0841
  475SOL     OW 1423   1.550   3.037   1.441  0.6752  0.8471 -0.7799
  475SOL    HW1 1424   1.622   3.104   1.426 -2.5077 -2.4512 -1.4547
  475SOL    HW2 1425   1.470   3.083   1.485  2.7627 -0.2501  1.1606
  476SOL     OW 1426   0.508   1.364   0.917 -0.0234 -0.7661  0.0727
  476SOL    HW1 1427   0.475   1.389   1.012  0.0421  0.5350  1.7878
  476SOL    HW2 1428   0.523   1.264   0.912  0.0247 -1.9291  0.0416
  477SOL     OW 1429   0.430   1.991   0.648 -0.1756 -0.0604 -0.5923
  477SOL    HW1 1430   0.389   1.912   0.693  0.4015  0.9615  0.3212
  477SOL    HW2 1431   0.482   2.048   0.715 -0.2855  0.8160  1.8902
  478SOL     OW 1432   0.253   2.572   2.535 -0.5400  0.5078 -0.4393
  478SOL    HW1 1433   0.177   2.619   2.583  0.3940 -2.9737 -1.0866
  478SOL    HW2 1434   0.218   2.487   2.492 -1.3669  1.3386 -2.8819
  479SOL     OW 1435   3.068   0.523   1.447  0.8902  0.3155 -0.3259
  479SOL    HW1 1436   0.033   0.563   1.412 -0.2696  0.4878  1.6750
  479SOL    HW2 1437   3.087   0.499   1.546  1.1865  0.8026 -1.3533
  480SOL     OW 1438   2.729   2.497   0.090  0.3063 -0.4035 -0.0551
  480SOL    HW1 1439   2.792   2.431   0.133 -0.0609 -0.5327 -3.1406
  480SOL    HW2 1440   2.673   2.543   0.160  0.6997 -3.0625 -2.8322
  481SOL     OW 1441   2.274   1.970   1.822  0.0903 -0.1690  0.4369
  481SOL    HW1 1442   2.302   2.045   1.886 -0.6239  1.1009 -2.2520
  481SOL    HW2 1443   2.260   2.015   1.732 -0.6208  0.2316 -1.3233
  482SOL     OW 1444   1.931   2.019   2.465  0.9769 -0.0093  0.0773
  482SOL    HW1 1445   1.998   2.082   2.424  0.9525  1.2325  1.1987
  482SOL    HW2 1446   1.862   1.990   2.400  1.2572 -0.7870 -1.6249
  483SOL     OW 1447   0.907   1.276   1.985  0.1547 -0.1461 -0.0269
  483SOL    HW1 1448   0.912   1.175   2.002  0.6025 -0.1970  0.6842
  483SOL    HW2 1449   0.985   1.324   2.027 -0.9967 -1.4099 -1.3937
  484SOL     OW 1450   0.270   0.613   1.352 -0.2405  0.2550 -0.3052
  484SOL    HW1 1451   0.333   0.536   1.329  2.4082  0.7795 -0.9281
  484SOL    HW2 1452   0.251   0.656   1.266  0.0455 -2.0951  1.8679
  485SOL     OW 1453   2.396   1.000   0.114  0.4677  0.0813  0.6865
  485SOL    HW1 1454   2.485   1.003   0.164  1.2725  1.7211  0.8535
  485SOL    HW2 1455   2.373   1.088   0.076 -1.0694 -1.9281 -0.9111
  486SOL     OW 1456   1.601   0.335   2.145 -0.4765  0.9675  0.6448
  486SOL    HW1 1457   1.614   0.245   2.092 -2.3153  1.4173 -1.2390
  486SOL    HW2 1458   1.573   0.312   2.239  0.2302  0.8584 -2.5445
  487SOL     OW 1459   0.854   2.161   1.434  0.9953 -0.4502 -0.0193
  487SOL    HW1 1460   0.760   2.193   1.463 -0.2895  0.4961 -0.5403
  487SOL    HW2 1461   0.925   2.189   1.502 -0.1396 -3.1020 -3.0129
  488SOL     OW 1462   2.452   1.493   3.109 -0.4771  0.1014  0.0930
  488SOL    HW1 1463   2.536   1.447   3.080 -0.2130 -1.0242 -0.0028
  488SOL    HW2 1464   2.411   1.554   3.038  0.0747  1.3387  1.2115
  489SOL     OW 1465   2.110   2.698   0.623  0.2475 -0.6344 -0.2332
  489SOL    HW1 1466   2.058   2.616   0.603  1.1145  0.7678 -1.1422
  489SOL    HW2 1467   2.181   2.718   0.547  1.3003  0.4228  0.2970
  490SOL     OW 1468   0.800   2.273   0.010 -0.4393 -0.2110 -0.1063
  490SOL    HW1 1469   0.719   2.333   0.012  0.4654 -1.1549  0.0546
  490SOL    HW2 1470   0.799   2.216   0.091  1.0579 -1.3052 -1.0584
  491SOL     OW 1471   1.086   1.297   1.306  0.5361 -0.7247 -0.4801
  491SOL    HW1 1472   1.110   1.383   1.253  2.9598  1.9288  0.6139
  491SOL    HW2 1473   0.994   1.259   1.286  2.3128  2.4442  0.2601
  492SOL     OW 1474   1.198   0.304   2.355  0.0336  0.0214  0.1963
  492SOL    HW1 1475   1.250   0.299   2.272 -0.3543 -1.6261 -0.1516
  492SOL    HW2 1476   1.246   0.248   2.426  0.9518 -1.7927  1.4365
  493SOL     OW 1477   1.979   2.026   0.329 -0.2471 -0.5955 -0.0807
  493SOL    HW1 1478   1.938   2.117   0.304 -0.5757  0.0075 -1.3739
  493SOL    HW2 1479   1.898   1.961   0.351 -1.2442  0.9976 -0.4283
  494SOL     OW 1480   0.764   1.405   0.757  1.1220 -0.3096  0.3567
  494SOL    HW1 1481   0.715   1.392   0.666 -1.5580  0.2955 -2.3674
  494SOL    HW2 1482   0.698   1.446   0.824 -2.8303  1.6336  1.9012
  495SOL     OW 1483   2.542   2.310   0.826 -0.5453  0.1879  0.1140
  495SOL    HW1 1484   2.510   2.216   0.795  0.5408 -1.0822 -1.4602
  495SOL    HW2 1485   2.479   2.332   0.904  0.4920  0.5639  0.2948
  496SOL     OW 1486   2.537   3.053   1.649 -0.2379  0.3677 -0.3137
  496SOL    HW1 1487   2.623   3.075   1.702  0.1680  1.0317  1.2708
  496SOL    HW2 1488   2.491   0.017   1.615  1.1399 -2.2683 -1.3388
  497SOL     OW 1489   2.426   0.930   2.444  0.5842 -0.2356 -0.1343
  497SOL    HW1 1490   2.372   1.013   2.411 -1.8926  2.1807 -2.0490
  497SOL    HW2 1491   2.461   0.952   2.541 -0.8869 -1.0374  0.1784
  498SOL     OW 1492   0.458   2.365   1.336  0.2549 -0.5202  0.2580
  498SOL    HW1 1493   0.365   2.327   1.328 -1.8619  1.6327 -2.0975
  498SOL    HW2 1494   0.494   2.370   1.239  1.4769 -0.9015  0.9057
  499SOL     OW 1495   1.109   2.627   1.767  0.0411  0.5955 -0.4940
  499SOL    HW1 1496   1.093   2.712   1.820  2.0289  0.9616 -0.9606
  499SOL    HW2 1497   1.207   2.624   1.734 -1.9747 -0.8790 -1.8112
  500SOL     OW 1498   0.790   1.919   0.065  0.1342 -0.0635  0.3502
  500SOL    HW1 1499   0.794   1.947   3.089  1.2352  1.9337 -0.2148
  500SOL    HW2 1500   0.795   1.815   0.077  2.5192 -0.7947  1.3501
  501SOL     OW 1501   1.811   0.067   1.180  0.5458 -0.1866 -0.6858
  501SOL    HW1 1502   1.838   0.023   1.092 -0.7298 -0.9674  0.2981
  501SOL    HW2 1503   1.888   0.079   1.244 -0.6165  0.5647 -0.2964
  502SOL     OW 1504   2.805   0.398   1.874 -0.4329 -0.0669 -0.1653
  502SOL    HW1 1505   2.891   0.337   1.894  0.0410 -2.1585 -0.2798
  502SOL    HW2 1506   2.751   0.418   1.959 -0.0262 -0.3134  1.2427
  503SOL     OW 1507   2.739   1.242   1.790 -0.0023 -0.5718 -0.0803
  503SOL    HW1 1508   2.640   1.212   1.809 -0.5331 -0.2656  0.5701
  503SOL    HW2 1509   2.807   1.193   1.846 -0.4471 -1.8545 -2.7973
  504SOL     OW 1510   1.646   1.072   1.974 -0.6149 -0.2057 -0.2420
  504SOL    HW1 1511   1.670   0.976   1.998 -2.0360  0.4815 -0.7969
  504SOL    HW2 1512   1.563   1.096   2.023  3.7202 -1.7616  0.1205
  505SOL     OW 1513   0.926   0.033   1.843 -0.2885 -0.2244  0.2990
  505SOL    HW1 1514   0.895   3.072   1.891 -0.4276  0.7049 -0.3445
  505SOL    HW2 1515   1.027   0.034   1.835 -1.2338 -1.4858 -2.9840
  506SOL     OW 1516   0.170   0.290   0.744  0.3628  0.0387 -0.0782
  506SOL    HW1 1517   0.263   0.304   0.700 -2.9845  2.8045 -2.1820
  506SOL    HW2 1518   0.159   0.334   0.837  1.1783  0.5771  0.1142
  507SOL     OW 1519   2.502   0.527   3.058  0.2197 -0.1480 -0.1859
  507SOL    HW1 1520   2.514   0.482   0.026  0.7277  0.9612  1.1038
  507SOL    HW2 1521   2.415   0.492   3.021  0.2444 -1.4439  0.0369
  508SOL     OW 1522   1.857   0.447   2.089  0.6390  0.2510 -0.4795
  508SOL    HW1 1523   1.765   0.407   2.109 -0.1596  0.4317  1.1624
  508SOL    HW2 1524   1.858   0.491   1.998 -0.3467  1.4262 -0.2102
  509SOL     OW 1525   1.516   1.648   1.539 -0.4563  0.0326 -0.3223
  509SOL    HW1 1526   1.598   1.612   1.595  0.7034  1.1000  2.2526
  509SOL    HW2 1527   1.438   1.582   1.535  0.3460  1.2124  0.3392
  510SOL     OW 1528   2.803   1.599   0.861  0.2145  0.0672  0.3004
  510SOL    HW1 1529   2.791   1.641   0.765 -0.9310 -0.4297 -2.2335
  510SOL    HW2 1530   2.726   1.633   0.920 -2.7981  0.5391  2.0003
  511SOL     OW 1531   1.734   1.899   1.145  0.6718 -0.3018  0.0587
  511SOL    HW1 1532   1.712   1.817   1.198 -0.2181  1.9457 -3.1636
  511SOL    HW2 1533   1.823   1.937   1.174 -2.8394  2.2286 -0.1477
  512SOL     OW 1534   0.225   1.619   0.432 -0.3127 -0.0714 -0.1564
  512SOL    HW1 1535   0.314   1.573   0.410 -0.1484 -0.7980 -3.9486
  512SOL    HW2 1536   0.227   1.717   0.414 -1.4421 -0.9910  1.3542
  513SOL     OW 1537   0.122   2.192   0.221  0.0227 -0.3152  0.1637
  513SOL    HW1 1538   0.077   2.111   0.181  2.1747 -0.3282 -2.4576
  513SOL    HW2 1539   0.116   2.192   0.322 -1.2587  0.5428  0.6181
  514SOL     OW 1540   2.720   1.899   2.521 -0.2220 -0.3056 -0.0050
  514SOL    HW1 1541   2.782   1.961   2.568 -2.4411 -2.4885 -2.5360
  514SOL    HW2 1542   2.625   1.938   2.527  1.0591 -1.0452  2.0262
  515SOL     OW 1543   2.079   1.282   0.889 -0.5560  0.1479 -0.4162
  515SOL    HW1 1544   2.001   1.328   0.834 -1.3611  2.3870 -0.9456
  515SOL    HW2 1545   2.087   1.183   0.887  1.1241  2.4181  2.4690
  516SOL     OW 1546   1.976   2.944   0.311 -0.2287 -0.0101  0.5421
  516SOL    HW1 1547   1.906   3.012   0.329  1.3514 -3.0946  0.7001
  516SOL    HW2 1548   1.931   2.857   0.336  0.3117 -1.8962  0.8011
  517SOL     OW 1549   0.730   1.880   2.453 -0.2466  0.2314  0.5712
  517SOL    HW1 1550   0.777   1.881   2.363 -1.1538 -1.2251 -2.4412
  517SOL    HW2 1551   0.633   1.899   2.431  2.6156  1.0239 -2.0199
  518SOL     OW 1552   0.393   0.420   1.998  0.0894 -0.2145  0.7487
  518SOL    HW1 1553   0.444   0.502   2.035  0.4855 -0.1719 -4.7114
  518SOL    HW2 1554   0.448   0.336   2.020  0.7157  1.3898 -1.9020
  519SOL     OW 1555   0.189   1.098   0.295  0.2079 -0.3813  0.3788
  519SOL    HW1 1556   0.146   1.024   0.242  0.5717  0.5111 -0.2549
  519SOL    HW2 1557   0.246   1.062   0.371  0.6209 -0.7314 -1.0342
  520SOL     OW 1558   2.766   1.855   1.431 -0.1966 -0.0084  0.0045
  520SOL    HW1 1559   2.721   1.814   1.515 -1.2030  0.6863  0.0961
  520SOL    HW2 1560   2.768   1.957   1.441 -3.1768  1.4674  0.2884
  521SOL     OW 1561   0.646   2.770   2.521 -0.0281  0.1506 -0.1695
  521SOL    HW1 1562   0.695   2.683   2.501  1.1962  0.0316 -0.8899
  521SOL    HW2 1563   0.567   2.786   2.455  0.9047  3.0730 -0.2064
  522SOL     OW 1564   2.005   0.207   2.068 -0.3207  0.4042 -0.7974
  522SOL    HW1 1565   2.103   0.215   2.037  0.4053 -0.8029  1.1970
  522SOL    HW2 1566   1.962   0.296   2.099  0.3482  2.7819  3.2922
  523SOL     OW 1567   1.806   1.849   1.889 -0.2520  0.4856 -0.4609
  523SOL    HW1 1568   1.797   1.932   1.953 -1.9375  2.6538 -0.1374
  523SOL    HW2 1569   1.745   1.771   1.922 -0.4249  1.4953 -0.1801
  524SOL     OW 1570   0.557   2.965   0.464  0.6565  0.5694 -0.0680
  524SOL    HW1 1571   0.554   2.977   0.363 -0.9310  0.1214  0.0155
  524SOL    HW2 1572   0.645   2.925   0.495 -1.7917  0.8487 -0.0577
  525SOL     OW 1573   0.050   0.538   0.377 -0.6889  0.4565 -0.2520
  525SOL    HW1 1574   0.076   0.599   0.460 -2.7846  1.0462  3.4705
  525SOL    HW2 1575   0.124   0.468   0.372  1.3419 -0.7232  1.4976
  526SOL     OW 1576   0.761   2.615   0.683  0.0756  0.1414  0.4330
  526SOL    HW1 1577   0.818   2.614   0.772 -1.3418  0.9880  2.3646
  526SOL    HW2 1578   0.661   2.591   0.698 -2.3806 -0.6890  2.4094
  527SOL     OW 1579   2.345   1.815   0.878 -0.4742 -0.1302 -0.1468
  527SOL    HW1 1580   2.250   1.795   0.901  0.0201  1.0503 -0.3350
  527SOL    HW2 1581   2.411   1.771   0.941 -3.2603 -1.1762 -1.9599
  528SOL     OW 1582   3.082   3.104   2.413 -0.8088  0.0743 -0.3603
  528SOL    HW1 1583   2.988   0.024   2.418  2.5224  0.3976 -2.5162
  528SOL    HW2 1584   3.114   3.072   2.503  0.5984  1.4437  1.5231
  529SOL     OW 1585   1.102   1.670   2.622  0.0841 -0.0851  0.6687
  529SOL    HW1 1586   1.004   1.674   2.598 -0.2420  1.5932 -0.7040
  529SOL    HW2 1587   1.128   1.597   2.689 -0.9227  4.2273  0.7154
  530SOL     OW 1588   1.876   1.242   2.825 -0.2159  0.0083 -0.3673
  530SOL    HW1 1589   1.786   1.227   2.785  2.9028 -0.9030  1.8410
  530SOL    HW2 1590   1.915   1.170   2.884  0.8516  1.2335  3.0455
  531SOL     OW 1591   0.741   1.476   2.728 -0.2483 -0.4347 -0.1750
  531SOL    HW1 1592   0.755   1.566   2.777  0.1378  2.2525  2.1703
  531SOL    HW2 1593   0.657   1.483   2.667 -2.1032  2.6445 -0.2350
  532SOL     OW 1594   1.634   1.348   0.320  0.0746 -0.3605 -0.4190
  532SOL    HW1 1595   1.568   1.358   0.242 -0.1293  0.4810 -1.1033
  532SOL    HW2 1596   1.721   1.398   0.305 -1.0810 -0.6512  0.4670
  533SOL     OW 1597   0.544   0.333   2.329  0.0059  0.1438 -0.0171
  533SOL    HW1 1598   0.601   0.338   2.243  3.1161  2.0627 -2.7887
  533SOL    HW2 1599   0.601   0.293   2.406 -1.0042 -1.0296  0.1583
  534SOL     OW 1600   0.650   2.623   3.037 -0.2087  0.0430  0.2757
  534SOL    HW1 1601   0.589   2.547   3.045 -1.6309 -2.0767 -0.4865
  534SOL    HW2 1602   0.631   2.687   3.111 -1.8505 -0.8674 -0.1750
  535SOL     OW 1603   0.219   0.007   0.715 -0.0594 -0.1084  0.3727
  535SOL    HW1 1604   0.211   3.060   0.793  2.0343  0.1982  3.5557
  535SOL    HW2 1605   0.181   0.098   0.744 -1.6355  1.5846  0.6087
  536SOL     OW 1606   0.163   1.195   2.024 -0.0239  0.0524  0.1182
  536SOL    HW1 1607   0.133   1.213   1.930  1.5422  2.9738  1.9110
  536SOL    HW2 1608   0.194   1.098   2.033 -0.8231 -0.0908 -2.0417
  537SOL     OW 1609   1.160   2.972   1.488 -0.1879  0.0767 -0.2765
  537SOL    HW1 1610   1.102   3.055   1.469  0.4661 -0.5183 -0.6168
  537SOL    HW2 1611   1.168   2.908   1.408 -0.4879  1.6083 -0.6571
  538SOL     OW 1612   3.110   2.017   0.641  0.5234  0.1771  0.1590
  538SOL    HW1 1613   0.042   1.939   0.614 -2.7459  2.1270 -0.9922
  538SOL    HW2 1614   3.017   1.981   0.674 -3.7661 -1.3048  0.9976
  539SOL     OW 1615   2.688   0.941   2.140 -0.0411  0.7409 -0.0527
  539SOL    HW1 1616   2.738   0.913   2.225 -0.2870 -0.7353  2.0607
  539SOL    HW2 1617   2.664   0.856   2.087  0.7941 -4.0407  1.1172
  540SOL     OW 1618   1.615   1.156   2.289  0.0723  0.3855 -0.1991
  540SOL    HW1 1619   1.687   1.224   2.269 -0.9059  3.6152  1.1072
  540SOL    HW2 1620   1.546   1.152   2.216  0.6071  0.9416  2.4281
  541SOL     OW 1621   0.884   0.757   1.696  0.1420 -0.1424  0.9400
  541SOL    HW1 1622   0.948   0.691   1.741  2.4364  0.0919  1.9142
  541SOL    HW2 1623   0.805   0.703   1.664  0.9949  0.7272  0.8145
  542SOL     OW 1624   2.151   3.025   2.673 -0.6149 -0.7470 -0.2269
  542SOL    HW1 1625   2.069   2.986   2.721 -0.2766  1.0717 -1.7345
  542SOL    HW2 1626   2.148   3.025   2.571 -0.6146 -4.0766 -1.0147
  543SOL     OW 1627   0.817   0.133   0.321 -0.1346 -0.2954  0.4173
  543SOL    HW1 1628   0.843   0.153   0.418  0.6101  1.1867  1.1462
  543SOL    HW2 1629   0.899   0.122   0.262 -0.1168  1.8611 -0.1530
  544SOL     OW 1630   2.688   1.759   1.677  0.2667 -0.2344 -0.3385
  544SOL    HW1 1631   2.723   1.663   1.681 -2.4119  0.8209 -1.6395
  544SOL    HW2 1632   2.635   1.782   1.768 -0.6637 -0.8683  3.0276
  545SOL     OW 1633   2.060   2.227   1.826  0.0109  0.2067  0.5620
  545SOL    HW1 1634   2.152   2.196   1.786  0.8833  1.0403  1.2692
  545SOL    HW2 1635   1.989   2.157   1.842  1.8044 -0.1503 -2.1952
  546SOL     OW 1636   0.277   0.073   2.976  0.0692 -0.1444 -0.1469
  546SOL    HW1 1637   0.234   0.011   2.910 -1.5452  1.3802 -0.5243
  546SOL    HW2 1638   0.258   0.174   2.950  2.0625  3.3747  0.1285
  547SOL     OW 1639   1.794   0.826   0.476  0.3413  0.5528 -0.1609
  547SOL    HW1 1640   1.836   0.897   0.423  1.5043 -2.8039 -0.0339
  547SOL    HW2 1641   1.742   0.864   0.557 -1.1662  0.3505  0.4342
  548SOL     OW 1642   2.063   1.607   2.333  0.1893 -0.3357  0.4827
  548SOL    HW1 1643   2.099   1.521   2.293  0.5154  0.0439 -1.5973
  548SOL    HW2 1644   2.137   1.663   2.374 -2.0509 -1.5568  2.8790
  549SOL     OW 1645   1.923   0.280   0.288 -0.1690  0.1051  0.1712
  549SOL    HW1 1646   1.962   0.298   0.382  1.8766 -1.9191  0.8752
  549SOL    HW2 1647   1.990   0.298   0.214  1.6547 -0.0970  1.5241
  550SOL     OW 1648   2.055   1.930   0.822  0.0657 -0.4328 -0.1098
  550SOL    HW1 1649   1.971   1.871   0.832  1.2841  0.5139 -1.8098
  550SOL    HW2 1650   2.093   1.907   0.729  1.2918 -0.5121 -0.2902
  551SOL     OW 1651   0.729   3.025   1.645 -0.0601 -0.2827  0.1165
  551SOL    HW1 1652   0.769   3.003   1.550  3.4576  0.6952  0.9787
  551SOL    HW2 1653   0.796   3.076   1.699  2.4395 -1.4605  0.1043
  552SOL     OW 1654   2.885   2.090   2.639 -0.6215 -0.4424  0.4574
  552SOL    HW1 1655   2.846   2.119   2.729 -0.2539  1.1690  0.0627
  552SOL    HW2 1656   2.989   2.102   2.632  0.2130  2.2813 -1.1534
  553SOL     OW 1657   0.276   0.026   1.194 -0.0727  0.0918  0.0270
  553SOL    HW1 1658   0.331   3.101   1.269  1.1362 -2.1112  0.4708
  553SOL    HW2 1659   0.198   3.094   1.151 -2.3965  0.5011  1.6391
  554SOL     OW 1660   2.286   2.177   1.656 -0.5803  0.5494  1.1118
  554SOL    HW1 1661   2.275   2.200   1.555 -3.6955  3.0638  0.2268
  554SOL    HW2 1662   2.382   2.153   1.690  3.8123  1.7597  2.6060
  555SOL     OW 1663   1.230   2.322   2.001 -0.6830  0.1244  0.1152
  555SOL    HW1 1664   1.255   2.269   1.913 -1.4614  1.2414 -2.4996
  555SOL    HW2 1665   1.131   2.335   1.998  1.4775  1.3855  0.4458
  556SOL     OW 1666   1.068   1.859   1.816 -0.5078  0.5840 -0.1422
  556SOL    HW1 1667   1.017   1.946   1.799 -1.5306  0.7941  3.1705
  556SOL    HW2 1668   1.156   1.892   1.860  0.6608  2.3519 -0.7793
  557SOL     OW 1669   2.007   2.300   2.207 -0.2932  0.3429  0.3451
  557SOL    HW1 1670   2.074   2.225   2.193  0.5308 -1.4786 -0.7182
  557SOL    HW2 1671   2.020   2.332   2.301  1.4953 -2.0404 -0.2936
  558SOL     OW 1672   0.523   2.792   1.967  0.3563  0.3124 -0.1844
  558SOL    HW1 1673   0.483   2.775   1.876 -1.1711 -1.1060 -0.1459
  558SOL    HW2 1674   0.625   2.776   1.965 -0.1586  0.3940  2.5761
  559SOL     OW 1675   2.220   2.954   1.067 -0.1101 -0.1833  0.4621
  559SOL    HW1 1676   2.291   3.017   1.099 -0.9517  0.5136  2.0981
  559SOL    HW2 1677   2.217   2.870   1.119 -0.1812  0.5401  0.9291
  560SOL     OW 1678   1.707   2.485   0.230  0.3711 -0.0782  0.5513
  560SOL    HW1 1679   1.689   2.399   0.280  0.8473 -1.3622 -3.6562
  560SOL    HW2 1680   1.804   2.501   0.238  0.6434  0.0817  0.3631
  561SOL     OW 1681   1.049   0.394   0.140 -0.0107 -0.5858 -0.7887
  561SOL    HW1 1682   1.046   0.291   0.133 -3.2347 -4.5357  0.7054
  561SOL    HW2 1683   0.993   0.449   0.074 -0.0242 -2.4093  1.1219
  562SOL     OW 1684   0.751   0.261   2.501 -0.4996 -0.3406  0.1084
  562SOL    HW1 1685   0.774   0.225   2.594  0.6923  1.5098  0.0026
  562SOL    HW2 1686   0.835   0.310   2.466 -0.2091 -2.1263 -0.4059
  563SOL     OW 1687   1.340   1.942   2.987  0.4399  0.1521 -0.0356
  563SOL    HW1 1688   1.375   2.031   2.955 -1.3374 -1.6361 -3.2457
  563SOL    HW2 1689   1.382   1.864   2.945  0.7907  4.7325  1.3477
  564SOL     OW 1690   2.473   1.144   1.131 -0.4052  0.3275  0.1130
  564SOL    HW1 1691   2.542   1.139   1.204 -3.4907 -2.0955  1.9013
  564SOL    HW2 1692   2.503   1.077   1.060 -0.9849 -0.4308 -3.3646
  565SOL     OW 1693   1.053   0.046   3.041 -0.1401 -0.7034  0.0475
  565SOL    HW1 1694   0.971   3.112   3.033  2.4642 -0.5760  0.3435
  565SOL    HW2 1695   1.125   0.016   2.972  1.6961  0.1761 -3.3833
  566SOL     OW 1696   1.676   0.051   2.433 -0.2253 -0.0080  0.1470
  566SOL    HW1 1697   1.761   0.036   2.377 -3.9935  2.1383  0.7124
  566SOL    HW2 1698   1.647   3.097   2.496 -1.0241  1.5119  0.9405
  567SOL     OW 1699   2.172   1.596   0.505  0.1616 -0.2191 -0.2370
  567SOL    HW1 1700   2.160   1.587   0.603  2.1730  0.2433 -1.1517
  567SOL    HW2 1701   2.227   1.516   0.476  0.5534 -0.0619 -1.6653
  568SOL     OW 1702   1.877   2.032   0.020  0.0794  0.3061 -0.3833
  568SOL    HW1 1703   1.905   1.941   0.059 -1.8460 -0.9517  1.8190
  568SOL    HW2 1704   1.910   2.044   3.045 -0.3090 -1.1792  1.6642
  569SOL     OW 1705   2.167   1.201   3.001 -0.1964 -0.2724 -0.8561
  569SOL    HW1 1706   2.108   1.123   3.012  0.1751  0.2100 -1.2096
  569SOL    HW2 1707   2.234   1.215   3.077  1.9672 -1.4273  1.2753
  570SOL     OW 1708   0.029   2.527   1.667 -0.3063 -0.0771 -0.9141
  570SOL    HW1 1709   0.013   2.628   1.668  1.3299 -1.7809 -0.9333
  570SOL    HW2 1710   0.117   2.503   1.628 -0.5944  0.9792 -0.3299
  571SOL     OW 1711   0.600   1.084   1.825  0.1986  0.2182 -0.3198
  571SOL    HW1 1712   0.676   1.077   1.895  2.5711 -1.2561  0.2024
  571SOL    HW2 1713   0.539   1.161   1.862 -0.9711  0.9425  3.3500
  572SOL     OW 1714   0.999   1.519   0.826 -0.0594  0.4463  0.2719
  572SOL    HW1 1715   0.912   1.489   0.788  0.0629 -1.5686  2.9963
  572SOL    HW2 1716   1.049   1.587   0.767  1.5325 -2.1681 -1.4305
  573SOL     OW 1717   1.108   1.879   0.004 -0.2588  0.3924  0.7930
  573SOL    HW1 1718   1.105   1.967   0.061 -0.8067 -1.8603 -0.6735
  573SOL    HW2 1719   1.202   1.881   3.082 -0.8939 -1.0292 -0.0365
  574SOL     OW 1720   0.878   0.082   0.664 -0.1716 -0.1141 -0.1762
  574SOL    HW1 1721   0.798   0.022   0.678 -0.6923 -0.0787 -0.5860
  574SOL    HW2 1722   0.873   0.173   0.707 -1.7264 -0.0651  0.1456
  575SOL     OW 1723   0.507   0.972   1.542 -0.6859  0.2004  0.4950
  575SOL    HW1 1724   0.428   0.909   1.529  0.8799  0.4513  0.3885
  575SOL    HW2 1725   0.532   0.993   1.638  0.2479 -0.7239  1.3845
  576SOL     OW 1726   1.947   3.052   1.500 -0.2655 -0.0899  0.1613
  576SOL    HW1 1727   2.031   3.036   1.554 -0.5519 -0.4944 -0.9427
  576SOL    HW2 1728   1.953   2.987   1.416  2.7425  1.7896 -2.9111
  577SOL     OW 1729   1.020   0.988   1.973 -0.2333  0.1625 -0.7056
  577SOL    HW1 1730   1.100   1.040   1.937 -0.5128  0.6139 -0.9509
  577SOL    HW2 1731   1.032   0.889   1.976  0.1292  1.0766 -2.1709
  578SOL     OW 1732   2.172   0.601   2.758 -0.5392  0.1566 -0.0246
  578SOL    HW1 1733   2.105   0.525   2.728  1.6900 -0.6934 -0.5941
  578SOL    HW2 1734   2.231   0.634   2.676 -1.5229  1.8012 -1.9278
  579SOL     OW 1735   2.198   2.603   1.686  0.3555 -0.7726  0.7514
  579SOL    HW1 1736   2.198   2.551   1.773  0.1550  1.3181 -1.8355
  579SOL    HW2 1737   2.135   2.557   1.622  2.5969  0.8757 -0.2356
  580SOL     OW 1738   2.246   1.210   2.721  0.5796 -0.0033 -0.3277
  580SOL    HW1 1739   2.166   1.259   2.675 -0.9978  1.1195 -1.0922
  580SOL    HW2 1740   2.226   1.210   2.819  0.7127 -0.2151 -2.4720
  581SOL     OW 1741   1.445   1.067   2.838  0.3367  0.0905 -0.3203
  581SOL    HW1 1742   1.432   1.014   2.927  3.1396  1.7489  3.1374
  581SOL    HW2 1743   1.354   1.090   2.788 -0.7951 -3.2315  1.1579
  582SOL     OW 1744   0.978   1.602   1.875 -0.2102 -0.5638  0.3408
  582SOL    HW1 1745   1.047   1.526   1.869 -0.4617 -0.4206 -0.4731
  582SOL    HW2 1746   1.021   1.694   1.870 -0.2870  0.2035 -1.1867
  583SOL     OW 1747   1.869   1.284   1.330  0.1097 -0.1305 -0.8578
  583SOL    HW1 1748   1.810   1.300   1.414  0.2792 -1.2492  2.5060
  583SOL    HW2 1749   1.914   1.366   1.300  0.5328 -2.1443  1.3175
  584SOL     OW 1750   1.674   2.567   0.518  0.0611  0.1147  0.0828
  584SOL    HW1 1751   1.594   2.506   0.541  0.8434 -0.1489 -0.4603
  584SOL    HW2 1752   1.767   2.524   0.533  0.4983  0.5220  0.3512
  585SOL     OW 1753   1.954   2.885   2.782  0.9979 -0.2480  0.0769
  585SOL    HW1 1754   1.918   2.828   2.708  0.6709  0.0516  0.6271
  585SOL    HW2 1755   2.018   2.827   2.838 -0.0065 -0.7330  2.0517
  586SOL     OW 1756   2.754   2.468   1.057 -0.0576  0.1940  0.0791
  586SOL    HW1 1757   2.656   2.466   1.037  0.7650  0.1104 -1.6853
  586SOL    HW2 1758   2.786   2.379   1.084 -1.0634  3.1263 -0.7255
  587SOL     OW 1759   1.116   1.637   0.150 -0.6137  0.8944  0.2368
  587SOL    HW1 1760   1.102   1.727   0.105 -2.6836 -1.2079  2.0004
  587SOL    HW2 1761   1.211   1.600   0.132  4.4555 -0.3089  1.4317
  588SOL     OW 1762   0.416   0.241   1.065 -0.4370 -0.2468  0.1540
  588SOL    HW1 1763   0.481   0.215   0.991 -0.9946  1.5027  3.0550
  588SOL    HW2 1764   0.353   0.165   1.086 -0.8438  2.1865  1.2438
  589SOL     OW 1765   1.114   0.284   0.411  0.1998 -0.2900 -0.5038
  589SOL    HW1 1766   1.070   0.370   0.393 -1.4444 -1.7447 -0.2745
  589SOL    HW2 1767   1.104   0.212   0.335  1.8618 -1.1848 -0.8354
  590SOL     OW 1768   1.400   3.115   2.959  0.3626  0.4356  0.0791
  590SOL    HW1 1769   1.490   0.043   2.956 -1.6095  2.2691  0.4662
  590SOL    HW2 1770   1.404   3.028   3.020  1.7451 -5.4449  2.7379
  591SOL     OW 1771   0.099   2.359   2.348 -0.7076  0.2004  0.1635
  591SOL    HW1 1772   0.048   2.284   2.312 -0.2459  1.2452 -3.9972
  591SOL    HW2 1773   0.043   2.444   2.349  1.3962  0.0687  4.1618
  592SOL     OW 1774   2.514   1.520   1.806 -0.7510 -0.6172  0.2493
  592SOL    HW1 1775   2.606   1.516   1.764  0.8007  1.5791  0.3808
  592SOL    HW2 1776   2.524   1.534   1.903  0.8788 -0.9554 -1.2947
  593SOL     OW 1777   1.719   1.506   1.673 -0.7420 -0.3641 -0.0500
  593SOL    HW1 1778   1.696   1.436   1.605  0.3596  2.2252  0.5935
  593SOL    HW2 1779   1.726   1.465   1.768  0.4913  1.0458 -0.0970
  594SOL     OW 1780   2.813   1.176   0.075 -0.1018  0.2409  0.0526
  594SOL    HW1 1781   2.910   1.188   0.101  1.0666 -0.1584 -0.4786
  594SOL    HW2 1782   2.815   1.080   0.033 -0.9871 -1.2267  2.9043
  595SOL     OW 1783   0.561   0.703   0.367  0.4026  0.6930  0.1482
  595SOL    HW1 1784   0.498   0.632   0.410  2.1377 -2.6329 -1.1515
  595SOL    HW2 1785   0.583   0.766   0.440  0.0852 -2.5991 -1.4999
  596SOL     OW 1786   0.355   1.174   1.406 -0.7373  0.1878  0.0655
  596SOL    HW1 1787   0.320   1.264   1.436 -0.2899  0.3911 -1.5139
  596SOL    HW2 1788   0.410   1.126   1.482 -1.4450 -1.0340  1.7600
  597SOL     OW 1789   1.166   1.942   0.887  0.2621 -0.0968  0.4121
  597SOL    HW1 1790   1.165   1.941   0.988  0.1567  0.5381  0.7194
  597SOL    HW2 1791   1.174   2.031   0.834 -1.4874  1.1780 -0.5139
  598SOL     OW 1792   3.031   0.250   1.912 -0.1757  0.4024  0.2451
  598SOL    HW1 1793   2.994   0.242   2.010 -3.6257  0.7033  0.6865
  598SOL    HW2 1794   3.099   0.172   1.887  1.8097 -1.4176 -2.2735
  599SOL     OW 1795   0.348   1.450   2.789  0.1325  0.4347 -0.0784
  599SOL    HW1 1796   0.427   1.409   2.743  2.5774  1.4781 -1.1645
  599SOL    HW2 1797   0.374   1.542   2.819 -1.2758 -1.9501  1.3458
  600SOL     OW 1798   0.638   0.867   2.877  0.4182 -0.2744  0.7586
  600SOL    HW1 1799   0.621   0.959   2.842 -0.9624 -1.6926 -0.8714
  600SOL    HW2 1800   0.713   0.829   2.821  0.0790  1.8429  0.8171
  601SOL     OW 1801   0.726   0.997   1.371 -0.6538 -0.0750 -0.3787
  601SOL    HW1 1802   0.750   0.899   1.351 -0.1997 -2.4759 -1.0472
  601SOL    HW2 1803   0.643   0.998   1.425  4.4126 -1.7170  0.7074
  602SOL     OW 1804   0.522   0.042   0.016 -0.1266 -0.0637 -0.4716
  602SOL    HW1 1805   0.584   0.124   0.026  3.0721 -0.2350  2.4916
  602SOL    HW2 1806   0.448   0.058   3.070  1.9076 -0.0703  0.8583
  603SOL     OW 1807   1.506   2.689   2.424  0.2438  0.1662  0.5011
  603SOL    HW1 1808   1.487   2.618   2.491 -0.7122  0.0708  0.2782
  603SOL    HW2 1809   1.491   2.784   2.451  0.3116 -0.4927 -0.3697
  604SOL     OW 1810   0.234   2.655   2.856 -0.4462 -0.5467  0.7307
  604SOL    HW1 1811   0.217   2.564   2.896 -1.9629 -1.2397 -2.3965
  604SOL    HW2 1812   0.335   2.670   2.838  4.2791 -0.8919 -0.3001
  605SOL     OW 1813   2.298   1.192   1.387 -0.1454 -0.5925  0.1072
  605SOL    HW1 1814   2.321   1.289   1.384  0.5362  3.2681  0.5553
  605SOL    HW2 1815   2.209   1.189   1.438 -0.1989 -0.5439  2.0479
  606SOL     OW 1816   1.028   1.186   2.793  0.9714  0.2194  0.3301
  606SOL    HW1 1817   1.037   1.243   2.879 -3.0094  0.6308 -0.7642
  606SOL    HW2 1818   0.961   1.231   2.730 -0.6934  0.8278 -1.2067
  607SOL     OW 1819   0.827   0.330   0.790  0.0417 -0.1504  0.1976
  607SOL    HW1 1820   0.787   0.382   0.713  0.3029 -2.2168 -0.1799
  607SOL    HW2 1821   0.897   0.388   0.834  1.6190  2.1302  0.5693
  608SOL     OW 1822   2.804   1.581   1.336  0.0025 -0.1093 -0.9613
  608SOL    HW1 1823   2.782   1.679   1.376  0.6191  2.1630  2.1138
  608SOL    HW2 1824   2.719   1.522   1.342 -0.0215  2.6152  1.9583
  609SOL     OW 1825   2.475   0.359   0.742  0.3589 -0.2102  0.6433
  609SOL    HW1 1826   2.396   0.300   0.727  1.1624  0.3973 -1.3870
  609SOL    HW2 1827   2.443   0.454   0.755 -0.7106 -1.7160  1.5740
  610SOL     OW 1828   0.240   2.665   1.407 -0.1726  0.5621  0.4365
  610SOL    HW1 1829   0.213   2.762   1.437 -0.1427 -0.7913 -1.2426
  610SOL    HW2 1830   0.228   2.651   1.305  0.4195  0.6921 -1.1864
  611SOL     OW 1831   1.588   1.832   0.148 -0.5097  0.0488  0.2645
  611SOL    HW1 1832   1.664   1.812   0.209  0.1526  0.6014 -1.0336
  611SOL    HW2 1833   1.617   1.909   0.084  0.5153 -1.0994 -0.8208
  612SOL     OW 1834   0.517   0.184   1.973 -0.1090  0.4116  0.1903
  612SOL    HW1 1835   0.518   0.092   2.012  2.6572  2.1344  0.3568
  612SOL    HW2 1836   0.447   0.197   1.899 -0.8134 -0.8849 -2.2447
  613SOL     OW 1837   0.602   2.289   0.666 -0.2493 -0.2260 -0.7795
  613SOL    HW1 1838   0.530   2.341   0.720  1.1429  0.7121  0.9121
  613SOL    HW2 1839   0.581   2.282   0.566  0.1387 -0.2097  0.3574
  614SOL     OW 1840   2.280   0.216   1.988 -0.1967  0.4086  0.0776
  614SOL    HW1 1841   2.306   0.274   2.071 -0.0193  1.6156  1.7607
  614SOL    HW2 1842   2.342   0.135   1.977 -0.6517 -0.8959 -0.4885
  615SOL     OW 1843   1.436   1.555   0.462  0.4664 -0.3021 -0.3020
  615SOL    HW1 1844   1.484   1.499   0.391 -1.5403 -0.5933 -1.9430
  615SOL    HW2 1845   1.369   1.621   0.426  0.3076  2.1310  0.9689
  616SOL     OW 1846   1.901   1.396   0.719  0.0834 -0.1902 -0.0685
  616SOL    HW1 1847   1.819   1.332   0.722  0.0414  2.1673 -1.9599
  616SOL    HW2 1848   1.910   1.416   0.622 -0.8350 -0.0106  2.5035
  617SOL     OW 1849   1.419   0.643   0.054 -0.0907 -0.1659  0.1886
  617SOL    HW1 1850   1.492   0.595   0.001  0.1628 -0.7348  0.1918
  617SOL    HW2 1851   1.447   0.679   0.144  1.6200 -3.6436  0.8670
  618SOL     OW 1852   0.871   0.457   1.964  1.0599 -0.4641 -0.7557
  618SOL    HW1 1853   0.805   0.426   2.034  1.7526 -1.3885  0.3980
  618SOL    HW2 1854   0.859   0.403   1.882  1.4155  1.2726  0.5726
  619SOL     OW 1855   0.211   1.389   1.455  0.7174  0.4098 -0.0572
  619SOL    HW1 1856   0.124   1.438   1.443 -0.9042  1.5185 -2.3089
  619SOL    HW2 1857   0.252   1.408   1.545 -0.3130  0.5313  1.7708
  620SOL     OW 1858   2.520   3.012   2.615  0.3382 -0.5684 -0.5273
  620SOL    HW1 1859   2.563   3.054   2.534  0.3273 -1.2444  1.4948
  620SOL    HW2 1860   2.444   3.072   2.649  1.5609  0.3524 -2.0388
  621SOL     OW 1861   2.539   1.714   2.754  0.0543 -0.0749  0.3094
  621SOL    HW1 1862   2.497   1.646   2.697  1.1222  2.3642  0.4968
  621SOL    HW2 1863   2.512   1.812   2.737  0.1450 -0.1588  0.5925
  622SOL     OW 1864   1.227   0.529   3.045  0.5631  0.7810 -0.0240
  622SOL    HW1 1865   1.235   0.426   3.039  1.6137  1.0368 -3.8018
  622SOL    HW2 1866   1.311   0.572   3.091  2.0523 -0.5678 -1.9053
  623SOL     OW 1867   0.771   1.492   1.539 -0.2044  0.0994  0.1767
  623SOL    HW1 1868   0.870   1.472   1.567  0.8371 -1.3415  2.1409
  623SOL    HW2 1869   0.704   1.421   1.577 -0.6652 -3.9304  2.4904
  624SOL     OW 1870   2.942   0.099   0.357 -0.3548  0.2791  0.6362
  624SOL    HW1 1871   2.993   0.122   0.270  0.7605  0.0596  1.4396
  624SOL    HW2 1872   2.987   0.144   0.440  0.1718  2.5334  1.0122
  625SOL     OW 1873   0.853   2.210   0.764  0.5056 -0.0876 -0.2114
  625SOL    HW1 1874   0.761   2.232   0.728  0.0477  0.9518 -0.1486
  625SOL    HW2 1875   0.921   2.265   0.719 -1.8457 -0.7568  0.3053
  626SOL     OW 1876   2.839   0.833   2.370  0.0973 -0.2595 -0.2767
  626SOL    HW1 1877   2.922   0.779   2.369  0.4755 -0.2188 -1.5802
  626SOL    HW2 1878   2.789   0.814   2.456  0.7731  0.3155 -0.5687
  627SOL     OW 1879   0.865   2.000   2.656  0.0389  0.2696 -0.2908
  627SOL    HW1 1880   0.827   1.943   2.581 -1.5273 -1.0363  0.5357
  627SOL    HW2 1881   0.947   2.047   2.624 -0.9874  0.5698 -1.1591
  628SOL     OW 1882   2.867   2.687   2.766  0.8354  0.1310  0.1922
  628SOL    HW1 1883   2.832   2.620   2.692  0.1803 -2.9327 -1.3190
  628SOL    HW2 1884   2.806   2.767   2.775 -0.0164  2.7593 -0.2577
  629SOL     OW 1885   1.045   3.002   2.726 -0.0035  0.6309 -0.3269
  629SOL    HW1 1886   0.994   2.948   2.655 -1.1852 -0.1182 -0.1800
  629SOL    HW2 1887   1.003   3.094   2.719  1.4073 -0.3267 -1.8964
  630SOL     OW 1888   0.930   0.122   2.105  0.1254 -0.2862 -0.2682
  630SOL    HW1 1889   0.985   0.052   2.156 -1.5092 -1.5848  0.0236
  630SOL    HW2 1890   0.921   0.098   2.006  1.5135 -0.1407 -1.4560
  631SOL     OW 1891   2.146   0.957   0.599  0.3202 -0.2123 -0.3395
  631SOL    HW1 1892   2.170   0.859   0.600  0.5957  2.5519  0.7922
  631SOL    HW2 1893   2.072   0.982   0.536  0.0632  2.3990 -0.9816
  632SOL     OW 1894   2.780   3.110   1.786  0.2234 -0.2999 -0.2745
  632SOL    HW1 1895   2.774   3.078   1.883  0.9611  0.0561  1.0264
  632SOL    HW2 1896   2.883   3.113   1.770  0.5690  0.0492 -0.1426
  633SOL     OW 1897   1.167   1.064   0.330 -0.7469  0.2927  0.0577
  633SOL    HW1 1898   1.204   1.098   0.240  0.0519  0.8697  3.6399
  633SOL    HW2 1899   1.148   1.143   0.392 -0.1628 -2.3122 -1.4720
  634SOL     OW 1900   2.675   2.706   2.191 -0.7539 -0.1703 -0.1976
  634SOL    HW1 1901   2.670   2.648   2.105 -2.2439  0.0322 -1.6716
  634SOL    HW2 1902   2.757   2.686   2.253  1.9789  1.2230  0.8261
  635SOL     OW 1903   1.550   0.198   0.470 -0.2336 -0.2209 -0.6810
  635SOL    HW1 1904   1.491   0.111   0.466  1.8523  0.5514 -0.3659
  635SOL    HW2 1905   1.649   0.168   0.493  0.2467  0.6220  0.8504
  636SOL     OW 1906   0.644   1.327   0.531  0.0197 -1.1390  0.2062
  636SOL    HW1 1907   0.566   1.353   0.469 -0.6936 -1.4388 -0.5793
  636SOL    HW2 1908   0.620   1.250   0.595 -1.5164 -0.6817  0.5848
  637SOL     OW 1909   2.589   1.997   0.086 -0.3119  0.2574  0.4243
  637SOL    HW1 1910   2.653   1.917   0.099 -0.3183 -1.4437  1.5422
  637SOL    HW2 1911   2.557   2.042   0.170  0.9094 -2.1802 -2.6778
  638SOL     OW 1912   1.378   2.370   2.358 -0.3630  0.6862  0.5119
  638SOL    HW1 1913   1.405   2.429   2.279 -0.3063 -0.6904 -0.6434
  638SOL    HW2 1914   1.422   2.396   2.447  0.9471 -0.7657 -3.1192
  639SOL     OW 1915   1.425   1.888   0.790 -0.0252  0.1387 -0.0732
  639SOL    HW1 1916   1.467   1.977   0.786 -0.0020 -2.3943 -0.1647
  639SOL    HW2 1917   1.334   1.898   0.835 -0.4696  1.7916  0.0661
  640SOL     OW 1918   2.308   2.765   0.429  0.5569 -0.2099 -0.6014
  640SOL    HW1 1919   2.368   2.703   0.372  1.1654 -2.7152  0.0572
  640SOL    HW2 1920   2.271   2.842   0.368 -1.2962 -2.0591 -1.3881
  641SOL     OW 1921   2.917   0.533   0.047 -0.1071  0.7723 -0.2016
  641SOL    HW1 1922   2.917   0.570   0.143 -0.7560 -0.1266 -0.3015
  641SOL    HW2 1923   2.927   0.428   0.043 -1.5414 -1.1102  0.6628
  642SOL     OW 1924   0.291   0.608   1.016 -0.0276  0.3081 -0.0410
  642SOL    HW1 1925   0.215   0.671   1.048 -0.7118  2.7316 -1.3145
  642SOL    HW2 1926   0.267   0.509   1.017 -1.1504  0.4751 -0.7404
  643SOL     OW 1927   0.741   1.353   2.369 -0.4619  0.0070 -0.4707
  643SOL    HW1 1928   0.710   1.401   2.286 -0.2231  0.3879 -0.6545
  643SOL    HW2 1929   0.681   1.382   2.447  0.7388 -0.1346  1.7470
  644SOL     OW 1930   1.634   2.109   0.552 -0.2565  0.0746  0.7849
  644SOL    HW1 1931   1.602   2.018   0.544  1.0404  2.1738 -2.6186
  644SOL    HW2 1932   1.718   2.119   0.611 -1.1002  0.0960 -2.9577
  645SOL     OW 1933   1.588   2.272   0.347  0.0507  0.3306 -0.6121
  645SOL    HW1 1934   1.488   2.290   0.359  0.3911  0.4832  0.5188
  645SOL    HW2 1935   1.603   2.198   0.416 -1.0638 -0.1094 -3.4824
  646SOL     OW 1936   0.261   2.001   2.930  0.0998  0.2554 -0.9503
  646SOL    HW1 1937   0.338   2.014   2.862 -1.9533 -1.0108 -2.7654
  646SOL    HW2 1938   0.189   2.072   2.908 -2.7903  2.9203 -2.3489
  647SOL     OW 1939   1.100   0.181   1.085  0.3765  0.8645 -0.2464
  647SOL    HW1 1940   1.191   0.212   1.113  0.4130  1.2505  0.7084
  647SOL    HW2 1941   1.049   0.263   1.055 -3.0905 -0.1201  0.4174
  648SOL     OW 1942   1.489   0.303   0.746 -0.4830  0.4035  0.2694
  648SOL    HW1 1943   1.537   0.244   0.814 -0.9943  1.4480 -1.0281
  648SOL    HW2 1944   1.511   0.267   0.653 -0.0224  1.5097  2.0928
  649SOL     OW 1945   1.242   1.737   0.378  0.6464  0.0047 -0.0132
  649SOL    HW1 1946   1.200   1.702   0.293  1.6427  0.8228 -0.7280
  649SOL    HW2 1947   1.177   1.741   0.455  0.6306  0.7015  1.2746
  650SOL     OW 1948   2.315   1.602   1.671  0.5064 -0.0142 -0.2541
  650SOL    HW1 1949   2.398   1.581   1.723  1.9858 -1.9914  0.9924
  650SOL    HW2 1950   2.241   1.629   1.735 -0.7496  1.6301  0.7076
  651SOL     OW 1951   1.529   2.171   2.917  0.5665 -0.1739 -0.0147
  651SOL    HW1 1952   1.470   2.249   2.896 -1.5946 -2.8453 -2.6765
  651SOL    HW2 1953   1.584   2.140   2.837  1.5541  1.1375 -2.0608
  652SOL     OW 1954   2.503   1.671   0.201  0.3498 -0.7780 -0.0272
  652SOL    HW1 1955   2.598   1.682   0.162  0.0872  1.9237 -2.4111
  652SOL    HW2 1956   2.464   1.590   0.156  2.2177 -0.7911  1.4923
  653SOL     OW 1957   0.172   0.364   1.004 -0.2847  0.0962 -0.2114
  653SOL    HW1 1958   0.261   0.335   1.054  2.9037 -1.0963  0.5169
  653SOL    HW2 1959   0.089   0.330   1.052 -1.4373  1.1846  2.9876
  654SOL     OW 1960   2.916   0.297   2.203  0.6105 -0.1256 -0.5797
  654SOL    HW1 1961   2.876   0.235   2.267  0.3923 -0.4166 -2.8457
  654SOL    HW2 1962   3.005   0.337   2.237 -1.4493 -1.3357  1.1009
  655SOL     OW 1963   0.388   2.413   0.810 -0.2502 -0.1270 -0.0644
  655SOL    HW1 1964   0.417   2.506   0.773  0.5520  0.6466 -1.2907
  655SOL    HW2 1965   0.294   2.399   0.779  1.3344 -0.3375  0.4358
  656SOL     OW 1966   3.110   2.996   2.664 -0.3833 -0.3535 -0.2794
  656SOL    HW1 1967   3.120   2.894   2.660 -1.1549 -0.7252  0.2331
  656SOL    HW2 1968   3.046   3.019   2.739  0.7366 -2.1415 -0.8782
  657SOL     OW 1969   0.217   1.279   2.966  0.0685 -0.1977 -0.3976
  657SOL    HW1 1970   0.209   1.374   3.008 -0.1263  0.8217  0.1644
  657SOL    HW2 1971   0.264   1.294   2.877 -0.3177  0.5384 -0.4074
  658SOL     OW 1972   2.612   1.875   1.191 -0.1786  0.2277  0.1660
  658SOL    HW1 1973   2.536   1.939   1.190  2.7162 -1.8323 -1.4581
  658SOL    HW2 1974   2.661   1.878   1.279  0.4716 -0.0849 -1.6740
  659SOL     OW 1975   1.599   2.701   0.111 -0.4429 -0.2309 -0.3607
  659SOL    HW1 1976   1.651   2.622   0.147  1.2004  0.1838 -3.3755
  659SOL    HW2 1977   1.647   2.756   0.034  1.1261 -0.2271 -3.3052
  660SOL     OW 1978   1.635   0.849   2.906 -0.5882 -0.4803 -0.3381
  660SOL    HW1 1979   1.607   0.752   2.885 -1.9055 -0.6603 -0.3475
  660SOL    HW2 1980   1.576   0.920   2.856 -1.7554 -1.8545 -0.4725
  661SOL     OW 1981   0.234   2.218   1.344 -0.6716  0.1770  0.6673
  661SOL    HW1 1982   0.212   2.155   1.271  1.8032 -1.0305  0.9583
  661SOL    HW2 1983   0.156   2.266   1.389  1.4326 -3.0277  0.2860
  662SOL     OW 1984   0.275   0.469   0.064  0.8332 -0.3848  0.0025
  662SOL    HW1 1985   0.184   0.514   0.042 -1.3155  0.4573 -2.8190
  662SOL    HW2 1986   0.277   0.435   0.161 -2.0569 -1.2028  3.1170
  663SOL     OW 1987   2.207   1.840   1.313 -0.2751  0.4194 -0.3245
  663SOL    HW1 1988   2.128   1.898   1.297  1.6446  1.2988  0.0429
  663SOL    HW2 1989   2.191   1.763   1.380 -0.5624 -1.4028  2.3950
  664SOL     OW 1990   1.268   1.220   1.006  0.5601 -0.2072  0.1479
  664SOL    HW1 1991   1.333   1.286   1.051 -0.6825  0.7738  0.7617
  664SOL    HW2 1992   1.223   1.255   0.919 -1.5610  1.8115  0.7918
  665SOL     OW 1993   1.994   2.781   2.205 -0.2956 -0.2193 -0.2452
  665SOL    HW1 1994   1.893   2.801   2.211 -1.9230 -2.6823 -1.9620
  665SOL    HW2 1995   2.034   2.841   2.130  0.1072  0.7076 -1.7902
  666SOL     OW 1996   2.879   2.795   0.184  0.6158 -0.3505  0.0352
  666SOL    HW1 1997   2.956   2.743   0.138  1.5843  1.8282  0.5794
  666SOL    HW2 1998   2.917   2.844   0.268  0.7021 -1.9892  1.1091
  667SOL     OW 1999   2.784   1.152   1.543  0.2687  0.4733 -0.4827
  667SOL    HW1 2000   2.698   1.102   1.517 -2.8495  1.8288  3.1637
  667SOL    HW2 2001   2.768   1.183   1.641 -0.0439 -1.7253 -1.0368
  668SOL     OW 2002   0.396   0.764   2.483  0.3252  0.6247  0.2552
  668SOL    HW1 2003   0.368   0.731   2.574  2.0911  0.0795  0.5874
  668SOL    HW2 2004   0.316   0.792   2.426  1.7864 -0.2877 -1.8839
  669SOL     OW 2005   2.309   2.159   2.429 -0.3680 -0.3806 -0.1262
  669SOL    HW1 2006   2.254   2.117   2.355 -0.1163  0.0252 -0.9592
  669SOL    HW2 2007   2.366   2.236   2.389 -0.7629 -0.0314  2.4386
  670SOL     OW 2008   2.783   1.508   1.702 -0.1861 -0.1241 -0.4524
  670SOL    HW1 2009   2.760   1.412   1.717  1.7525  1.4787 -0.9570
  670SOL    HW2 2010   2.889   1.517   1.705 -0.3767  0.3670  0.1246
  671SOL     OW 2011   3.053   1.417   0.572 -1.0849 -0.0246 -0.0798
  671SOL    HW1 2012   3.092   1.510   0.596  0.8833  1.0662  1.3408
  671SOL    HW2 2013   2.962   1.398   0.616 -0.2859  1.9334  0.8807
  672SOL     OW 2014   2.512   0.708   2.335  0.0587 -0.0831  0.4155
  672SOL    HW1 2015   2.469   0.738   2.246 -1.0821  0.3309  0.4258
  672SOL    HW2 2016   2.520   0.790   2.395  2.0409  0.2264 -0.1311
  673SOL     OW 2017   2.566   0.061   2.378  0.1844  0.0870  0.0944
  673SOL    HW1 2018   2.509   0.124   2.324  1.4341 -0.1135  1.9053
  673SOL    HW2 2019   2.546   3.084   2.355  0.3129 -2.0020  0.6585
  674SOL     OW 2020   1.480   2.237   1.560  0.1997  0.3432  0.2083
  674SOL    HW1 2021   1.498   2.322   1.615 -0.0079  0.4758  2.0310
  674SOL    HW2 2022   1.549   2.218   1.484  2.8125 -0.3763  0.1479
  675SOL     OW 2023   0.740   0.673   0.786 -0.1281 -0.0935 -0.3107
  675SOL    HW1 2024   0.717   0.700   0.881  1.3468  0.7495  1.7374
  675SOL    HW2 2025   0.710   0.745   0.717 -0.4898  1.5095 -1.1082
  676SOL     OW 2026   1.626   0.861   0.703 -0.4013  0.4738 -0.4466
  676SOL    HW1 2027   1.542   0.891   0.651  2.1502  0.9982 -1.1563
  676SOL    HW2 2028   1.620   0.763   0.725  0.0998 -0.3174  1.0408
  677SOL     OW 2029   2.663   1.408   2.242  0.3901  0.0533 -0.4936
  677SOL    HW1 2030   2.618   1.318   2.227  4.0060 -3.2958 -0.7909
  677SOL    HW2 2031   2.660   1.457   2.156  0.3137 -0.3155  3.3988
  678SOL     OW 2032   2.909   1.887   0.995 -0.1652  0.3721 -0.5732
  678SOL    HW1 2033   2.926   1.796   1.035  1.0515  1.1808 -0.6994
  678SOL    HW2 2034   2.862   1.942   1.068 -2.2466  0.9587  2.0862
  679SOL     OW 2035   2.206   2.673   0.102 -0.2069  0.4291  0.1840
  679SOL    HW1 2036   2.252   2.766   0.109  0.1770  0.5200 -0.9642
  679SOL    HW2 2037   2.151   2.655   0.014 -1.1876 -0.4795 -1.4310
  680SOL     OW 2038   0.026   2.139   2.186 -0.0106 -0.3564  0.5444
  680SOL    HW1 2039   0.101   2.163   2.123  1.2281  0.6490 -1.2728
  680SOL    HW2 2040   3.091   2.065   2.148 -0.2198  2.9805  0.0565
  681SOL     OW 2041   0.623   1.341   1.680 -0.4624  0.0559  0.1005
  681SOL    HW1 2042   0.642   1.244   1.694 -2.3401 -1.7107  0.1622
  681SOL    HW2 2043   0.627   1.391   1.771 -0.5521  1.7397  4.8540
  682SOL     OW 2044   1.328   2.619   0.780  0.6630 -0.4118 -0.0042
  682SOL    HW1 2045   1.371   2.549   0.720  3.2719 -2.8851  0.4538
  682SOL    HW2 2046   1.226   2.604   0.782 -1.2546  1.9503 -0.3466
  683SOL     OW 2047   2.189   1.524   0.762  0.0055 -0.3252 -0.8427
  683SOL    HW1 2048   2.185   1.581   0.846  1.8717 -2.1964 -2.0977
  683SOL    HW2 2049   2.161   1.423   0.784  1.0455 -2.8091  3.3849
  684SOL     OW 2050   0.230   2.174   2.011 -0.7078 -0.2915  0.0990
  684SOL    HW1 2051   0.325   2.146   2.013  0.0980  0.1177 -0.0961
  684SOL    HW2 2052   0.199   2.198   1.916 -0.1448  0.9587 -0.2166
  685SOL     OW 2053   1.647   1.662   2.956 -0.2238  0.2019 -0.1544
  685SOL    HW1 2054   1.549   1.677   2.929 -1.5775 -1.1979  0.0314
  685SOL    HW2 2055   1.712   1.677   2.875  1.5936  1.1657 -2.2774
  686SOL     OW 2056   3.118   0.966   1.248  0.4824 -0.4046 -0.0625
  686SOL    HW1 2057   0.046   1.051   1.219 -1.4613 -0.3743  0.8149
  686SOL    HW2 2058   3.086   0.969   1.350  0.0092 -0.5529  0.7068
  687SOL     OW 2059   0.886   2.373   2.852 -0.1937  0.2174 -0.2077
  687SOL    HW1 2060   0.888   2.330   2.947  0.7563  1.1191  1.8751
  687SOL    HW2 2061   0.796   2.358   2.806 -0.6069  2.0677 -0.0538
  688SOL     OW 2062   2.538   1.871   1.881 -0.3778 -0.0025 -0.5810
  688SOL    HW1 2063   2.446   1.909   1.852 -1.3875  0.4003 -1.2989
  688SOL    HW2 2064   2.536   1.811   1.965 -0.6304 -0.9571 -2.3404
  689SOL     OW 2065   2.323   0.755   2.127 -0.0638  0.0144 -0.1611
  689SOL    HW1 2066   2.322   0.709   2.035 -0.4697 -1.3491  0.5274
  689SOL    HW2 2067   2.293   0.849   2.114  0.1949  0.7153  1.3810
  690SOL     OW 2068   2.279   0.923   1.370  0.4380 -0.2813 -0.0483
  690SOL    HW1 2069   2.267   1.023   1.352 -1.0973 -1.2364 -1.2357
  690SOL    HW2 2070   2.194   0.874   1.396  1.1326 -2.1228  0.4889
  691SOL     OW 2071   0.704   1.630   1.913  0.9692  0.7877  0.3581
  691SOL    HW1 2072   0.656   1.693   1.843 -2.6700  1.9966 -2.9654
  691SOL    HW2 2073   0.806   1.633   1.905  2.1394 -0.1846  3.3099
  692SOL     OW 2074   1.996   0.180   1.394  0.1561 -0.9251  0.0679
  692SOL    HW1 2075   2.036   0.245   1.462 -1.1286  1.4087 -0.2044
  692SOL    HW2 2076   1.970   0.096   1.437  2.1452  2.1519 -1.1425
  693SOL     OW 2077   0.503   1.111   2.187 -0.9952  0.1594  0.3173
  693SOL    HW1 2078   0.521   1.066   2.275  0.1431  0.6163 -2.0733
  693SOL    HW2 2079   0.584   1.105   2.128 -1.5992 -0.2970  0.4625
  694SOL     OW 2080   1.767   2.715   1.361  0.2194 -0.4885  0.1681
  694SOL    HW1 2081   1.711   2.742   1.281  1.9234  0.1700  3.5505
  694SOL    HW2 2082   1.855   2.768   1.355  0.2790 -0.2314 -0.1246
  695SOL     OW 2083   1.416   1.199   2.100  0.6038 -0.4393 -0.1420
  695SOL    HW1 2084   1.325   1.166   2.130 -0.7203  3.4639  0.9906
  695SOL    HW2 2085   1.404   1.289   2.056  0.0125  0.2464  0.7196
  696SOL     OW 2086   1.387   3.104   0.744 -0.3756  0.5293 -0.1610
  696SOL    HW1 2087   1.314   0.040   0.706  1.2358 -1.1598 -0.0771
  696SOL    HW2 2088   1.352   3.010   0.752 -1.0872  2.4135  1.3892
  697SOL     OW 2089   1.202   0.141   0.618  0.6292  0.2567  0.2812
  697SOL    HW1 2090   1.222   0.219   0.681  0.5098 -3.7359 -0.1856
  697SOL    HW2 2091   1.177   0.179   0.527 -1.1318  0.4180  1.8055
  698SOL     OW 2092   1.629   1.222   2.699  0.0613  0.1490  0.0302
  698SOL    HW1 2093   1.578   1.260   2.620  1.1844  0.6220 -0.1015
  698SOL    HW2 2094   1.567   1.166   2.758 -1.6899  1.0822 -1.0094
  699SOL     OW 2095   1.428   1.383   1.143 -0.0618 -0.0787  0.3146
  699SOL    HW1 2096   1.442   1.487   1.131 -2.7070  1.1729  1.4643
  699SOL    HW2 2097   1.520   1.331   1.159  1.6044 -0.1785  0.4960
  700SOL     OW 2098   1.336   2.969   0.425 -0.2144  0.5484 -0.1707
  700SOL    HW1 2099   1.256   3.005   0.474  0.2077 -3.1296 -1.4947
  700SOL    HW2 2100   1.421   2.987   0.480 -2.3737  0.4931 -0.5377
  701SOL     OW 2101   0.156   0.135   1.980 -0.1387 -0.1349 -0.1812
  701SOL    HW1 2102   0.145   0.233   2.008 -0.5566 -0.8039  1.3027
  701SOL    HW2 2103   0.158   0.075   2.062 -1.9869 -0.6613 -2.2817
  702SOL     OW 2104   1.098   2.811   0.332  0.3554 -0.2438 -0.1403
  702SOL    HW1 2105   1.185   2.799   0.274  3.9526 -0.2839  0.6354
  702SOL    HW2 2106   1.108   2.875   0.407  0.3020  0.6941 -0.2918
  703SOL     OW 2107   2.518   2.704   2.547 -0.0310  0.0734  0.7769
  703SOL    HW1 2108   2.445   2.709   2.470  2.6801  0.5572 -0.5009
  703SOL    HW2 2109   2.521   2.792   2.595 -0.5443  0.1132 -1.8942
  704SOL     OW 2110   0.725   2.168   1.009 -0.7306  0.1157  0.2116
  704SOL    HW1 2111   0.775   2.171   0.919  1.3320 -0.7269  0.3828
  704SOL    HW2 2112   0.649   2.103   1.009  1.3757  1.9814 -0.1143
  705SOL     OW 2113   3.080   0.633   1.872 -0.1580 -0.1654 -0.2014
  705SOL    HW1 2114   3.012   0.621   1.949 -0.8591 -1.9088 -0.8202
  705SOL    HW2 2115   3.067   0.728   1.833  0.7520  2.7090  0.1383
  706SOL     OW 2116   1.593   3.014   0.497  0.3510 -0.6263 -0.5324
  706SOL    HW1 2117   1.639   2.937   0.448 -0.5608  4.1101  0.7280
  706SOL    HW2 2118   1.667   3.082   0.508 -0.3582  0.2534 -0.4016
  707SOL     OW 2119   1.307   1.953   2.025  0.6627  0.6247  0.7316
  707SOL    HW1 2120   1.233   1.895   2.070 -2.2755  1.4304 -2.4974
  707SOL    HW2 2121   1.335   2.030   2.085 -0.1385 -2.5778  1.8968
  708SOL     OW 2122   2.950   2.345   1.658 -0.0042 -0.0291 -0.1240
  708SOL    HW1 2123   2.867   2.385   1.609 -1.0634  0.8436 -1.0854
  708SOL    HW2 2124   3.029   2.408   1.646 -0.5292 -0.3659 -2.0216
  709SOL     OW 2125   1.946   0.560   1.855  0.2688 -0.0339 -0.3062
  709SOL    HW1 2126   2.027   0.496   1.850  0.6376  1.6253 -0.8830
  709SOL    HW2 2127   1.875   0.560   1.781 -0.9211  0.7354  0.4423
  710SOL     OW 2128   2.440   0.187   1.551 -0.1741  0.2789 -0.0922
  710SOL    HW1 2129   2.489   0.238   1.623 -1.4716 -2.5133 -1.0590
  710SOL    HW2 2130   2.504   0.162   1.475 -0.0363 -0.5962  2.3040
  711SOL     OW 2131   0.116   2.204   0.496 -0.4385 -0.1870 -0.1865
  711SOL    HW1 2132   0.217   2.191   0.487  1.9699  0.5515 -0.9984
  711SOL    HW2 2133   0.083   2.138   0.566  0.9283 -1.1893 -0.3632
  712SOL     OW 2134   0.540   2.527   2.393  0.3335 -0.3605  0.7110
  712SOL    HW1 2135   0.460   2.483   2.347 -0.4251 -0.6256  2.4419
  712SOL    HW2 2136   0.613   2.557   2.330 -1.7373  0.6026  2.0787
  713SOL     OW 2137   2.228   0.782   0.050 -0.1557 -0.4565  0.4134
  713SOL    HW1 2138   2.295   0.846   0.087  0.2780  1.2809 -2.2191
  713SOL    HW2 2139   2.173   0.748   0.126 -1.1633  0.5745  1.9348
  714SOL     OW 2140   0.711   1.794   0.539 -0.0045 -0.5953  0.0952
  714SOL    HW1 2141   0.626   1.841   0.562 -0.2197  0.2683  1.0761
  714SOL    HW2 2142   0.786   1.836   0.593  1.6633  0.0629 -3.1481
  715SOL     OW 2143   1.718   0.046   0.259 -0.0804 -0.7211 -0.2115
  715SOL    HW1 2144   1.785   0.121   0.271 -2.8196  0.3755  2.8185
  715SOL    HW2 2145   1.635   0.070   0.208 -0.6190  0.4771  2.1284
  716SOL     OW 2146   0.440   0.432   1.717 -0.1286  0.4768  0.0952
  716SOL    HW1 2147   0.422   0.430   1.816 -2.2795  1.7029 -2.5837
  716SOL    HW2 2148   0.352   0.414   1.665  0.5870 -1.1287  0.1787
  717SOL     OW 2149   2.973   0.802   0.152  0.0093 -0.3044  0.9925
  717SOL    HW1 2150   2.901   0.807   0.080 -0.9556  1.3331  0.6582
  717SOL    HW2 2151   2.946   0.732   0.222 -1.2296  0.4308  1.7230
  718SOL     OW 2152   1.127   0.823   0.226  1.2203 -0.2020 -0.2307
  718SOL    HW1 2153   1.145   0.912   0.272 -1.2795 -0.6106  0.6872
  718SOL    HW2 2154   1.144   0.748   0.288  1.9875  2.2696 -2.8563
  719SOL     OW 2155   3.040   1.475   3.076 -0.2074  0.4948  0.3363
  719SOL    HW1 2156   2.980   1.403   3.115 -0.8748 -0.0548 -1.8615
  719SOL    HW2 2157   3.012   1.505   2.980  1.7318  3.1519  0.6084
  720SOL     OW 2158   1.264   0.842   1.220 -0.2039 -0.0701  0.0223
  720SOL    HW1 2159   1.225   0.894   1.138 -0.4757 -0.8659  0.7185
  720SOL    HW2 2160   1.299   0.755   1.188  1.1852  1.4000  0.2987
  721SOL     OW 2161   2.753   0.962   0.485  0.2476 -0.2284 -0.2040
  721SOL    HW1 2162   2.838   0.998   0.442  1.3026  2.2210  0.9549
  721SOL    HW2 2163   2.773   0.926   0.579  2.4880 -1.0476  1.4663
  722SOL     OW 2164   0.659   1.301   2.970  0.3508  0.3166 -0.3097
  722SOL    HW1 2165   0.697   1.351   2.889 -1.0788  0.7208  2.7840
  722SOL    HW2 2166   0.604   1.219   2.934 -0.3387  1.2233  1.0033
  723SOL     OW 2167   0.560   1.102   0.683  0.5330 -0.3094  0.1033
  723SOL    HW1 2168   0.538   1.065   0.775 -0.8493 -0.5692  2.9310
  723SOL    HW2 2169   0.475   1.087   0.627  0.5119 -0.1871  0.7812
  724SOL     OW 2170   0.978   2.416   1.922  0.2274 -0.4798 -0.2605
  724SOL    HW1 2171   0.886   2.414   1.877 -1.1935  0.0087 -0.4077
  724SOL    HW2 2172   1.028   2.492   1.875  3.4621  1.9675 -1.5601
  725SOL     OW 2173   2.532   1.034   1.484  0.3364  0.0472  0.2452
  725SOL    HW1 2174   2.473   1.082   1.414 -0.3647  0.4764  1.1835
  725SOL    HW2 2175   2.474   1.000   1.560  0.3868  1.2317  0.9462
  726SOL     OW 2176   1.705   2.788   0.368  1.1240 -0.4628  0.1726
  726SOL    HW1 2177   1.690   2.698   0.418 -0.8131 -0.1758  0.3822
  726SOL    HW2 2178   1.701   2.773   0.267  2.2471 -2.0954 -2.2293
  727SOL     OW 2179   1.241   0.849   2.526 -0.1057  0.3803 -0.6695
  727SOL    HW1 2180   1.215   0.766   2.584  0.5144 -1.2487  1.1941
  727SOL    HW2 2181   1.297   0.811   2.449 -2.4900  0.1975 -0.4602
  728SOL     OW 2182   1.509   2.639   1.286 -0.1043 -0.6023  0.2574
  728SOL    HW1 2183   1.446   2.570   1.315  1.4719  0.9741  1.1204
  728SOL    HW2 2184   1.553   2.681   1.369  1.8195  1.0723 -1.9795
  729SOL     OW 2185   1.701   0.663   1.245  0.0374 -0.7738 -0.1946
  729SOL    HW1 2186   1.656   0.597   1.184  0.7075  3.2836  3.2290
  729SOL    HW2 2187   1.642   0.719   1.302  1.0484  0.8037  0.2509
  730SOL     OW 2188   0.535   2.103   2.003  0.6233  0.9539  0.0246
  730SOL    HW1 2189   0.578   2.139   2.081  0.1482 -1.0475 -3.2329
  730SOL    HW2 2190   0.524   2.003   2.013 -0.7100  3.1401  0.9914
  731SOL     OW 2191   0.443   0.302   0.677 -0.2952  0.1198  0.1440
  731SOL    HW1 2192   0.487   0.299   0.770 -2.1739  0.0086  1.7067
  731SOL    HW2 2193   0.455   0.220   0.623 -1.1978  2.8131  1.4710
  732SOL     OW 2194   0.515   0.469   3.017  0.3049  0.1240  0.9618
  732SOL    HW1 2195   0.540   0.568   3.039  0.8575  3.8101  1.0808
  732SOL    HW2 2196   0.457   0.433   3.092  1.6811  1.2015  2.8778
  733SOL     OW 2197   1.125   2.436   1.058  0.4911  0.0004  0.6518
  733SOL    HW1 2198   1.052   2.383   1.103 -1.2695 -3.8097 -3.2073
  733SOL    HW2 2199   1.174   2.484   1.130  1.0994  0.4653  0.0343
  734SOL     OW 2200   0.066   2.167   2.872  0.3073 -0.3164 -0.0706
  734SOL    HW1 2201   0.049   2.125   2.780 -1.0838  1.7259 -0.2937
  734SOL    HW2 2202   3.102   2.215   2.900 -2.2634 -2.4852 -2.9089
  735SOL     OW 2203   0.913   2.942   1.059  0.3098  0.2183 -0.4634
  735SOL    HW1 2204   0.830   3.001   1.067 -2.5688  2.3109 -2.0200
  735SOL    HW2 2205   0.977   2.986   0.990 -0.9233  1.4298 -1.4503
  736SOL     OW 2206   1.642   0.517   3.062  0.6553  0.0899 -0.1539
  736SOL    HW1 2207   1.668   0.477   2.974  0.7685  0.2748  1.7496
  736SOL    HW2 2208   1.635   0.442   0.010  1.7410 -0.8317 -0.0445
  737SOL     OW 2209   3.058   0.254   0.551  0.1211  0.3408  0.1747
  737SOL    HW1 2210   0.023   0.275   0.599 -0.6805  1.5366  0.9200
  737SOL    HW2 2211   3.006   0.335   0.517  0.7372 -0.9450 -0.8107
  738SOL     OW 2212   2.528   2.924   1.200 -0.0084  0.3906 -0.6936
  738SOL    HW1 2213   2.477   3.009   1.177 -2.2646 -0.3295 -0.4314
  738SOL    HW2 2214   2.595   2.886   1.131 -1.2710 -1.6892 -1.4604
  739SOL     OW 2215   1.686   2.419   3.071  0.0355 -0.0165  0.1544
  739SOL    HW1 2216   1.732   2.439   0.038 -3.4096  0.9895 -1.4821
  739SOL    HW2 2217   1.678   2.316   3.065  0.9140 -1.6930 -0.6253
  740SOL     OW 2218   1.587   2.901   1.173 -0.1092 -0.0504  0.6295
  740SOL    HW1 2219   1.587   2.965   1.253  3.4028  0.1033  0.1675
  740SOL    HW2 2220   1.493   2.869   1.160  4.4155 -0.8439  0.2655
  741SOL     OW 2221   1.841   0.646   0.769  0.2698  0.0485  0.1300
  741SOL    HW1 2222   1.894   0.626   0.687 -0.1197  2.0245  0.8252
  741SOL    HW2 2223   1.854   0.746   0.789 -0.6809  4.0677 -0.6669
  742SOL     OW 2224   1.357   2.154   2.185  0.1203  0.3466  0.2414
  742SOL    HW1 2225   1.397   2.210   2.264  1.4349  0.8165  1.5549
  742SOL    HW2 2226   1.319   2.218   2.118 -1.9551 -0.9038  1.3853
  743SOL     OW 2227   2.382   0.641   1.894  0.7107 -0.5704 -0.1800
  743SOL    HW1 2228   2.413   0.665   1.801 -1.0914  2.2703 -0.5781
  743SOL    HW2 2229   2.457   0.636   1.958 -2.0472 -2.4581 -0.0049
  744SOL     OW 2230   2.568   0.184   1.297  0.7799 -0.2163 -0.2903
  744SOL    HW1 2231   2.537   0.277   1.273  0.4265 -2.1354 -0.0906
  744SOL    HW2 2232   2.516   0.116   1.240 -1.2972  0.4909 -2.7222
  745SOL     OW 2233   1.896   1.169   1.734  0.0297  0.5699  0.3748
  745SOL    HW1 2234   1.811   1.121   1.692 -3.3223 -0.0955 -4.3526
  745SOL    HW2 2235   1.870   1.250   1.788  1.4253  1.1482  2.5857
  746SOL     OW 2236   1.186   1.311   0.782 -0.5181  0.2509  0.2535
  746SOL    HW1 2237   1.108   1.372   0.817 -3.4967 -1.3021  0.2895
  746SOL    HW2 2238   1.269   1.370   0.769  0.3833 -1.2930 -1.1145
  747SOL     OW 2239   1.671   1.262   1.124 -0.3868  0.1204  1.1650
  747SOL    HW1 2240   1.673   1.215   1.031  0.0895 -1.3039  1.5037
  747SOL    HW2 2241   1.738   1.221   1.191 -0.2524  2.5046 -1.4698
  748SOL     OW 2242   2.936   2.712   0.807 -0.0831  0.5372 -0.0904
  748SOL    HW1 2243   2.962   2.693   0.712  0.4996  1.6351  1.2022
  748SOL    HW2 2244   2.838   2.709   0.822  0.9321  2.8941 -0.5453
  749SOL     OW 2245   0.164   0.015   2.241  0.0602 -0.5028  0.3477
  749SOL    HW1 2246   0.097   0.001   2.316 -0.3499  2.1515 -0.2308
  749SOL    HW2 2247   0.254   0.049   2.275 -0.4039 -1.1735 -0.2585
  750SOL     OW 2248   2.058   0.535   1.200  0.0616 -0.0099 -0.5105
  750SOL    HW1 2249   2.105   0.546   1.292  1.7198  0.3615 -1.1361
  750SOL    HW2 2250   2.026   0.630   1.171 -0.8777  1.7142 -0.5031
  751SOL     OW 2251   3.021   0.548   0.728 -0.0688 -0.5546 -0.2878
  751SOL    HW1 2252   3.043   0.602   0.814 -2.2660  1.0619  1.0134
  751SOL    HW2 2253   3.087   0.573   0.657 -2.7657  2.2537  0.2813
  752SOL     OW 2254   0.183   2.641   1.142  0.1818  0.2702  0.2473
  752SOL    HW1 2255   0.096   2.688   1.104 -0.2963 -3.2242 -2.0621
  752SOL    HW2 2256   0.168   2.539   1.118  1.0523 -1.3903 -0.5478
  753SOL     OW 2257   1.319   0.311   2.109 -0.2816 -0.4661 -0.5465
  753SOL    HW1 2258   1.254   0.331   2.034  1.7157 -2.1609 -0.2761
  753SOL    HW2 2259   1.416   0.294   2.078 -0.1255  1.2240 -1.3808
  754SOL     OW 2260   1.576   2.438   1.732  0.2537  0.0626 -0.2432
  754SOL    HW1 2261   1.641   2.495   1.672  1.8246  1.7911  1.1769
  754SOL    HW2 2262   1.594   2.463   1.826 -0.9875  1.8108 -1.1294
  755SOL     OW 2263   2.799   1.375   0.669 -0.4278 -0.3357 -0.2271
  755SOL    HW1 2264   2.745   1.442   0.719  2.4496  0.4823  0.2958
  755SOL    HW2 2265   2.727   1.315   0.629  0.4055 -1.8336  2.3204
  756SOL     OW 2266   1.599   1.690   2.247  0.0389  0.0335  0.3100
  756SOL    HW1 2267   1.618   1.603   2.293  1.6051  2.7683  2.5942
  756SOL    HW2 2268   1.513   1.737   2.278 -0.9915 -2.4715 -1.0210
  757SOL     OW 2269   1.668   2.803   0.694  0.1058 -0.6575 -0.5431
  757SOL    HW1 2270   1.604   2.880   0.661 -0.5756  2.6362 -1.7829
  757SOL    HW2 2271   1.657   2.721   0.642  2.7115  2.0205  1.0625
  758SOL     OW 2272   0.592   2.916   1.276 -0.1750 -0.4275  0.0010
  758SOL    HW1 2273   0.560   2.826   1.239 -3.2422 -0.4188  0.0089
  758SOL    HW2 2274   0.606   2.982   1.202  0.5347 -2.3081  2.2033
  759SOL     OW 2275   0.070   0.967   0.899 -0.1978 -0.2699  0.1315
  759SOL    HW1 2276   3.099   0.943   0.885  2.0907  0.2999 -0.9193
  759SOL    HW2 2277   0.077   1.028   0.981  1.4272 -1.9749  1.4559
  760SOL     OW 2278   2.512   1.443   1.084  0.6215  0.4333 -0.0497
  760SOL    HW1 2279   2.575   1.371   1.049  0.0926  1.9828 -0.1047
  760SOL    HW2 2280   2.414   1.421   1.080  2.8205 -3.9049 -0.2590
  761SOL     OW 2281   1.196   0.956   0.999 -0.2962 -0.0282 -0.3365
  761SOL    HW1 2282   1.240   1.054   1.008 -0.1370  1.8358 -0.6879
  761SOL    HW2 2283   1.106   0.964   0.958  2.0389 -1.3374  0.3155
  762SOL     OW 2284   2.372   2.034   1.204 -0.1701 -0.3458 -0.0066
  762SOL    HW1 2285   2.307   1.964   1.245  2.2040 -1.1111 -1.5743
  762SOL    HW2 2286   2.343   2.064   1.106  2.4540  0.5828 -3.0751
  763SOL     OW 2287   1.086   1.452   2.132 -0.0423  0.0552  0.5737
  763SOL    HW1 2288   1.067   1.381   2.202  0.9295  2.9266  1.6399
  763SOL    HW2 2289   1.178   1.448   2.096 -2.1246  0.9997  0.4514
  764SOL     OW 2290   3.068   1.761   2.264  0.0244  0.6890 -0.1979
  764SOL    HW1 2291   0.013   1.829   2.286 -2.7481 -3.2834  1.4896
  764SOL    HW2 2292   3.057   1.686   2.333  1.4906  1.8413 -0.4919
  765SOL     OW 2293   1.224   2.558   1.274  0.4019 -0.3458 -0.0263
  765SOL    HW1 2294   1.160   2.544   1.353 -1.9672  1.3953  0.7935
  765SOL    HW2 2295   1.238   2.661   1.270 -2.9098  0.7420  2.4995
  766SOL     OW 2296   0.725   2.405   2.554  0.0090  0.0520  0.4744
  766SOL    HW1 2297   0.781   2.355   2.482  1.0990 -2.0814 -2.1838
  766SOL    HW2 2298   0.636   2.445   2.520  0.7300 -0.6721  0.5013
  767SOL     OW 2299   1.627   0.169   2.948  0.0817  0.3918 -0.3378
  767SOL    HW1 2300   1.664   0.080   2.908 -1.3778  0.8252 -0.5301
  767SOL    HW2 2301   1.641   0.255   2.891  2.0097 -0.7959  0.6109
  768SOL     OW 2302   1.387   2.413   2.841  0.3548 -0.2940 -0.2242
  768SOL    HW1 2303   1.291   2.390   2.817 -1.1652 -0.3495  2.4302
  768SOL    HW2 2304   1.373   2.471   2.923  0.6644 -1.3672  2.7337
  769SOL     OW 2305   2.873   2.850   1.552  0.2772  0.1002  0.4771
  769SOL    HW1 2306   2.891   2.912   1.473  0.9214  0.2574 -1.2902
  769SOL    HW2 2307   2.955   2.845   1.609 -3.0293  0.7177  1.8685
  770SOL     OW 2308   0.628   2.974   2.911  0.4418 -0.6265 -0.0156
  770SOL    HW1 2309   0.552   3.035   2.948  0.0307  0.7434 -1.8308
  770SOL    HW2 2310   0.708   2.982   2.975 -2.3875 -0.5978  0.8273
  771SOL     OW 2311   0.672   3.004   2.654  0.4819  0.2004 -0.0341
  771SOL    HW1 2312   0.652   2.992   2.756  0.3992 -0.8229  1.3372
  771SOL    HW2 2313   0.672   2.916   2.603 -2.1739 -1.3195  1.4448
  772SOL     OW 2314   2.467   3.084   2.078 -0.4308  0.4269 -0.1975
  772SOL    HW1 2315   2.491   3.035   2.165 -1.9749  2.9912  1.0759
  772SOL    HW2 2316   2.552   3.095   2.023  1.7657 -1.4418  1.8394
  773SOL     OW 2317   0.727   2.359   1.801  0.4455 -0.3039 -0.5826
  773SOL    HW1 2318   0.704   2.421   1.724  1.1213 -2.4377 -2.7168
  773SOL    HW2 2319   0.675   2.391   1.883  1.5144 -1.7026 -5.0676
  774SOL     OW 2320   1.567   0.545   1.954 -0.1643  0.3725 -0.0903
  774SOL    HW1 2321   1.574   0.468   2.027  0.6190 -1.2363  2.0168
  774SOL    HW2 2322   1.471   0.568   1.931 -0.7506 -0.0280 -0.7022
  775SOL     OW 2323   2.258   2.784   2.890 -0.0664 -0.3178 -0.0235
  775SOL    HW1 2324   2.309   2.872   2.879 -2.3982 -1.1074  1.4253
  775SOL    HW2 2325   2.318   2.707   2.886 -1.5071  3.5387 -1.6671
  776SOL     OW 2326   2.208   1.003   2.076  0.2625 -0.2580  0.2675
  776SOL    HW1 2327   2.236   1.085   2.022 -0.6357 -1.2534 -2.8554
  776SOL    HW2 2328   2.129   0.953   2.028  0.2491 -1.8869 -0.7513
  777SOL     OW 2329   2.964   1.091   2.509 -0.2142  0.5277 -0.2239
  777SOL    HW1 2330   2.913   1.008   2.476 -0.7672  0.1268  3.4537
  777SOL    HW2 2331   2.944   1.181   2.462  2.2903 -0.0028  0.0941
  778SOL     OW 2332   2.215   0.544   2.278  0.2656 -0.0612  0.0560
  778SOL    HW1 2333   2.229   0.593   2.373  1.8614  2.7699  0.3821
  778SOL    HW2 2334   2.263   0.602   2.206 -1.6914  1.2910 -1.1212
  779SOL     OW 2335   3.062   0.082   0.113  0.8083  0.1867 -0.3524
  779SOL    HW1 2336   3.033   3.119   0.062 -1.1915 -1.2564  1.5922
  779SOL    HW2 2337   0.034   0.064   0.137 -0.2743 -2.2242  0.1262
  780SOL     OW 2338   2.419   0.197   2.607  0.2159 -0.4038  0.4585
  780SOL    HW1 2339   2.323   0.218   2.574 -1.0286 -1.0534  1.7094
  780SOL    HW2 2340   2.489   0.199   2.531  2.3491  0.7495 -3.6324
  781SOL     OW 2341   0.273   0.123   1.729 -0.4005  0.2635 -0.1749
  781SOL    HW1 2342   0.267   0.195   1.657  1.3108 -1.7022 -3.2356
  781SOL    HW2 2343   0.211   0.141   1.809  1.3434 -1.0406 -1.5804
  782SOL     OW 2344   1.916   2.446   2.915  0.0206  0.4188 -0.4018
  782SOL    HW1 2345   1.906   2.372   2.842  1.9432 -1.1873  1.4165
  782SOL    HW2 2346   1.824   2.469   2.952  0.3023  2.3047  0.0702
  783SOL     OW 2347   0.738   1.751   1.510  0.4012 -0.0945  0.5637
  783SOL    HW1 2348   0.803   1.822   1.484 -2.9402 -2.3793 -2.5405
  783SOL    HW2 2349   0.785   1.661   1.509  1.6863 -1.0468 -1.1561
  784SOL     OW 2350   1.959   0.435   2.340  0.1476 -0.1238  0.5299
  784SOL    HW1 2351   2.053   0.469   2.335 -2.2362 -1.1763 -0.6730
  784SOL    HW2 2352   1.926   0.427   2.244  2.2687  1.0518  0.2580
  785SOL     OW 2353   3.016   0.681   0.967  0.0143 -0.2929 -0.5121
  785SOL    HW1 2354   2.957   0.759   0.985  0.0296  0.7922  2.3555
  785SOL    HW2 2355   2.975   0.599   1.014 -5.5313  1.5244  1.3685
  786SOL     OW 2356   1.945   2.903   0.724 -0.2348  0.1560  0.2488
  786SOL    HW1 2357   1.850   2.860   0.716 -0.8557 -0.1862  0.8104
  786SOL    HW2 2358   2.014   2.841   0.687 -0.7418  2.7706  0.8872
  787SOL     OW 2359   1.067   3.093   0.868 -0.1763 -0.3084  0.6253
  787SOL    HW1 2360   1.012   3.112   0.784  4.0062  0.0538 -1.6548
  787SOL    HW2 2361   1.096   0.057   0.917 -0.1711 -1.3606 -1.1463
  788SOL     OW 2362   0.125   1.172   1.107 -0.4907  0.6776  0.6042
  788SOL    HW1 2363   0.050   1.228   1.154 -2.4413  1.3709 -1.0165
  788SOL    HW2 2364   0.140   1.232   1.026 -1.2128  1.7909  0.2494
  789SOL     OW 2365   0.323   0.922   2.110  0.1586 -0.0889  0.0171
  789SOL    HW1 2366   0.278   0.894   2.200 -2.5058  1.4429  0.7728
  789SOL    HW2 2367   0.377   1.011   2.130  0.2629  0.9721 -0.0677
  790SOL     OW 2368   0.945   0.529   2.647 -0.1071 -0.2852  0.3174
  790SOL    HW1 2369   0.878   0.478   2.699  3.4313  0.6055 -4.2920
  790SOL    HW2 2370   0.947   0.502   2.548 -1.5072 -0.6638 -1.6839
  791SOL     OW 2371   2.523   0.352   0.209 -0.0846 -0.7558  0.1651
  791SOL    HW1 2372   2.433   0.325   0.257  0.9437 -1.4614 -1.7067
  791SOL    HW2 2373   2.571   0.426   0.256 -0.2376 -0.6457 -0.9917
  792SOL     OW 2374   1.345   0.609   1.090  0.2151  0.2202  0.2650
  792SOL    HW1 2375   1.314   0.646   0.999  0.5714  0.4674  1.7867
  792SOL    HW2 2376   1.445   0.595   1.083 -0.8794  0.7021 -1.4952
  793SOL     OW 2377   0.125   2.940   1.489  0.4336  0.1453  0.0393
  793SOL    HW1 2378   0.227   2.948   1.465 -1.8704 -0.4985  1.6748
  793SOL    HW2 2379   0.065   3.018   1.467 -0.7587 -0.2749  2.5703
  794SOL     OW 2380   0.128   0.423   1.996 -0.5188 -0.1913  0.0448
  794SOL    HW1 2381   0.075   0.487   1.940  0.0981  3.4830 -0.2840
  794SOL    HW2 2382   0.223   0.456   2.014 -0.8748 -0.2215 -1.4797
  795SOL     OW 2383   0.386   2.386   2.693 -0.1803  0.5791  0.0759
  795SOL    HW1 2384   0.368   2.470   2.637  3.5405 -1.9490  0.0739
  795SOL    HW2 2385   0.336   2.382   2.785  0.7865 -1.8938  0.8701
  796SOL     OW 2386   2.049   0.398   2.672 -0.0054  0.0208 -0.6729
  796SOL    HW1 2387   1.961   0.421   2.630  0.5830 -0.7965  2.7476
  796SOL    HW2 2388   2.056   0.309   2.720 -0.0128  1.2803 -1.8898
  797SOL     OW 2389   2.502   2.314   2.723 -0.3889 -0.3385 -0.1588
  797SOL    HW1 2390   2.475   2.406   2.756  3.5278  2.5398 -0.2373
  797SOL    HW2 2391   2.428   2.249   2.748 -3.1450 -0.4584 -1.4817
  798SOL     OW 2392   0.254   0.805   1.569 -0.4222  0.2373 -0.1256
  798SOL    HW1 2393   0.254   0.722   1.511  2.2961 -1.3520 -3.1172
  798SOL    HW2 2394   0.295   0.790   1.667 -1.2747  2.4589  3.0083
  799SOL     OW 2395   0.856   0.285   1.770 -0.1005  0.5785  0.2794
  799SOL    HW1 2396   0.765   0.268   1.728 -0.8554  1.3658  0.8193
  799SOL    HW2 2397   0.894   0.195   1.781 -0.9069  5.6129 -0.8585
  800SOL     OW 2398   2.966   2.648   0.516 -0.0366 -0.3875 -0.3950
  800SOL    HW1 2399   3.014   2.563   0.470 -0.7912 -0.1208 -2.6338
  800SOL    HW2 2400   2.989   2.738   0.477  0.4335  1.0166  0.8243
  801SOL     OW 2401   1.588   1.814   0.556 -0.2975  0.3420 -0.2548
  801SOL    HW1 2402   1.528   1.831   0.638  0.1880 -0.8671 -1.5008
  801SOL    HW2 2403   1.560   1.723   0.516 -0.5980 -0.1688 -1.3195
  802SOL     OW 2404   0.694   0.518   0.199  0.0281  0.6149  0.3325
  802SOL    HW1 2405   0.648   0.583   0.261  0.0005 -0.9296  1.8429
  802SOL    HW2 2406   0.681   0.541   0.101  0.7080 -1.9396  1.7841
  803SOL     OW 2407   1.208   1.086   2.234 -0.0107  0.2449 -0.3155
  803SOL    HW1 2408   1.198   0.983   2.244 -0.1736  1.3608  0.6102
  803SOL    HW2 2409   1.122   1.137   2.260 -3.6238 -0.3005  1.3532
  804SOL     OW 2410   1.968   1.984   1.230  0.0184  0.7207  0.6565
  804SOL    HW1 2411   1.923   1.975   1.324 -2.1506 -0.9724  1.3636
  804SOL    HW2 2412   1.976   2.085   1.215  1.3380  0.3529  0.5536
  805SOL     OW 2413   0.066   2.068   2.622  0.0779 -0.4596  0.1851
  805SOL    HW1 2414   0.041   1.976   2.586 -1.0567 -0.1845 -1.2410
  805SOL    HW2 2415   0.137   2.105   2.561 -0.0402 -2.2249  2.9079
  806SOL     OW 2416   0.657   2.516   0.260  0.6794  0.2676  0.3820
  806SOL    HW1 2417   0.673   2.580   0.185 -1.6138 -0.8701  2.5694
  806SOL    HW2 2418   0.561   2.527   0.300  3.2187 -1.9084  0.4516
  807SOL     OW 2419   2.436   0.955   2.960  0.1134 -0.0469  0.3040
  807SOL    HW1 2420   2.454   0.960   3.060 -0.4910 -0.3637  0.7946
  807SOL    HW2 2421   2.343   0.916   2.941  0.2313  1.6066  0.3380
  808SOL     OW 2422   1.478   2.226   0.752 -0.3540 -0.0656  0.2120
  808SOL    HW1 2423   1.531   2.182   0.676 -2.1816 -1.4435 -1.7538
  808SOL    HW2 2424   1.539   2.242   0.830  1.1325 -2.4225 -0.8212
  809SOL     OW 2425   0.327   0.715   0.742  0.2335  0.2995 -0.1125
  809SOL    HW1 2426   0.351   0.808   0.774 -0.4389 -1.0971  0.6512
  809SOL    HW2 2427   0.331   0.648   0.819  0.7883  4.4096  0.3818
  810SOL     OW 2428   1.402   1.651   0.102 -0.6001  0.0341  0.2826
  810SOL    HW1 2429   1.398   1.658   0.004 -1.7111 -2.1287  3.3886
  810SOL    HW2 2430   1.470   1.726   0.132  1.6482  1.6094  0.2128
  811SOL     OW 2431   1.289   2.910   1.720 -0.1745  0.0884 -0.4734
  811SOL    HW1 2432   1.390   2.897   1.705 -0.7386  0.8791  1.0103
  811SOL    HW2 2433   1.229   2.920   1.636  0.9337 -0.0577  1.5022
  812SOL     OW 2434   1.626   0.051   0.852 -0.5557 -0.6553 -0.3165
  812SOL    HW1 2435   1.533   0.024   0.823 -1.5427 -0.6139  0.6342
  812SOL    HW2 2436   1.671   3.101   0.908 -1.2900  0.3807 -2.4053
  813SOL     OW 2437   1.498   3.015   2.120  0.3072  0.9274 -0.3047
  813SOL    HW1 2438   1.467   2.921   2.154 -0.3800 -4.7574  0.6871
  813SOL    HW2 2439   1.415   3.072   2.118  1.5416  0.4782 -0.6093
  814SOL     OW 2440   1.192   2.853   1.965  0.1497 -0.2437  0.4948
  814SOL    HW1 2441   1.260   2.828   2.036 -1.3879  0.1637 -2.9279
  814SOL    HW2 2442   1.233   2.856   1.871  2.0716  1.8180  0.9932
  815SOL     OW 2443   0.203   0.001   0.114 -0.0686 -0.1146 -0.3099
  815SOL    HW1 2444   0.272   0.044   0.180  0.4063  0.4770  1.5619
  815SOL    HW2 2445   0.225   0.025   0.010 -0.6501  1.4906 -6.3828
  816SOL     OW 2446   2.686   1.372   3.030  0.1842 -0.2763  0.4489
  816SOL    HW1 2447   2.729   1.349   2.936  1.3977  3.5351 -0.1827
  816SOL    HW2 2448   2.706   1.291   3.091  2.0030 -2.3967 -1.7475
  817SOL     OW 2449   2.690   2.280   2.529  0.1472 -0.2050  0.1741
  817SOL    HW1 2450   2.603   2.287   2.587  0.3707 -2.0500  0.9590
  817SOL    HW2 2451   2.760   2.217   2.573 -0.8427 -2.0864  1.7036
  818SOL     OW 2452   0.878   1.290   0.379  0.0870 -0.4340  0.7656
  818SOL    HW1 2453   0.940   1.263   0.456 -0.5693  0.2358 -0.9851
  818SOL    HW2 2454   0.785   1.307   0.422 -2.4380 -0.8458  1.8919
  819SOL     OW 2455   1.729   1.258   3.091  0.0019 -0.6093 -0.0883
  819SOL    HW1 2456   1.744   1.208   3.000  0.8496 -0.5871 -1.6009
  819SOL    HW2 2457   1.783   1.346   3.102  0.9810  2.6110  0.0398
  820SOL     OW 2458   0.353   1.476   0.730  0.8292  0.0393  0.2207
  820SOL    HW1 2459   0.415   1.459   0.810  1.6541  0.1193  2.1082
  820SOL    HW2 2460   0.399   1.464   0.635  0.9271 -0.5472 -3.9649
  821SOL     OW 2461   0.381   3.000   1.421  0.0055  0.3432  0.1761
  821SOL    HW1 2462   0.461   2.949   1.376  0.0276  2.2872  2.0854
  821SOL    HW2 2463   0.410   3.093   1.443  0.0265 -2.4655 -0.8041
  822SOL     OW 2464   1.965   1.864   2.678 -0.2292 -0.5498 -0.1274
  822SOL    HW1 2465   2.032   1.894   2.752 -0.7508 -0.7424 -0.1841
  822SOL    HW2 2466   1.973   1.929   2.601 -0.6263 -3.2751  1.5046
  823SOL     OW 2467   0.821   0.660   2.329 -0.5680  0.2924  0.0601
  823SOL    HW1 2468   0.861   0.675   2.235 -1.7911  1.1125 -0.6207
  823SOL    HW2 2469   0.718   0.649   2.321 -0.9097  1.0021 -2.3309
  824SOL     OW 2470   2.452   2.883   1.465  0.5496 -0.0226 -0.1363
  824SOL    HW1 2471   2.498   2.942   1.535  1.0803  1.5502 -0.8607
  824SOL    HW2 2472   2.488   2.909   1.372 -1.5509 -0.9312  0.7926
  825SOL     OW 2473   0.403   1.717   2.544 -0.5503 -0.7504  0.6198
  825SOL    HW1 2474   0.302   1.720   2.529 -2.7323  2.0693  1.4784
  825SOL    HW2 2475   0.450   1.785   2.487  0.1053 -2.3762 -2.0396
  826SOL     OW 2476   1.519   0.163   0.091  0.0688  0.2723 -0.0425
  826SOL    HW1 2477   1.539   0.255   0.126  0.8427 -2.0609 -2.9649
  826SOL    HW2 2478   1.570   0.150   0.002  1.8896 -1.8230  0.7468
  827SOL     OW 2479   3.061   1.839   2.008 -0.4300  0.6386  0.0935
  827SOL    HW1 2480   3.086   1.773   1.934 -0.7679  1.3325 -1.9241
  827SOL    HW2 2481   3.056   1.793   2.100 -1.5542 -2.0825 -1.3140
  828SOL     OW 2482   0.099   0.195   1.313 -0.0635  0.0387  0.5192
  828SOL    HW1 2483   0.179   0.141   1.273 -0.9442  0.5409  1.3284
  828SOL    HW2 2484   0.043   0.225   1.231 -1.0913  0.8665  1.9556
  829SOL     OW 2485   0.931   1.663   2.275  0.0929  0.5325  0.7002
  829SOL    HW1 2486   0.889   1.616   2.353 -0.0720  2.7531  0.1672
  829SOL    HW2 2487   0.992   1.593   2.229  0.7529 -0.5102 -2.1199
  830SOL     OW 2488   0.901   1.016   1.616  0.5414  0.5072 -0.3787
  830SOL    HW1 2489   0.838   1.023   1.536  0.9090 -0.4371 -0.1097
  830SOL    HW2 2490   0.888   0.931   1.668  1.1970  1.7754  1.0990
  831SOL     OW 2491   2.733   1.713   0.084  0.2546 -0.3255  0.3974
  831SOL    HW1 2492   2.709   1.671   3.120  0.6960  0.1275  1.3951
  831SOL    HW2 2493   2.831   1.748   0.078  0.7533  2.4908 -0.1575
  832SOL     OW 2494   1.128   2.348   2.746  0.0608  0.5103 -0.3296
  832SOL    HW1 2495   1.034   2.349   2.790  0.8366 -0.7268 -1.8961
  832SOL    HW2 2496   1.142   2.276   2.677  0.7547  0.7217 -0.0675
  833SOL     OW 2497   0.214   0.328   1.573 -0.2112 -0.0094 -0.2944
  833SOL    HW1 2498   0.127   0.354   1.621 -0.4121 -0.5496  1.0118
  833SOL    HW2 2499   0.186   0.305   1.477  0.3172 -2.0069 -0.0637
  834SOL     OW 2500   2.899   0.918   1.080 -0.6727 -0.0415 -0.3961
  834SOL    HW1 2501   2.980   0.968   1.119  0.1110  1.6034  0.3125
  834SOL    HW2 2502   2.828   0.905   1.153  1.6326  1.5670 -0.5753
  835SOL     OW 2503   2.820   0.482   0.545 -0.2398  0.9446  0.1147
  835SOL    HW1 2504   2.881   0.496   0.627  0.9400  0.4364  0.5137
  835SOL    HW2 2505   2.773   0.392   0.541 -1.5351  1.7214 -0.0168
  836SOL     OW 2506   0.507   2.245   0.002  0.1580 -0.3090 -0.3500
  836SOL    HW1 2507   0.531   2.161   0.062  0.9513 -3.3210  1.9508
  836SOL    HW2 2508   0.534   2.226   3.027  0.0027  1.6495 -2.8311
  837SOL     OW 2509   1.269   1.996   0.358 -0.7511  0.2889  0.3262
  837SOL    HW1 2510   1.315   2.036   0.279  0.8358 -0.2205 -1.0805
  837SOL    HW2 2511   1.300   1.899   0.366  1.8963  2.9365 -1.4383
  838SOL     OW 2512   2.294   1.130   2.305  0.3398  0.4572  0.0335
  838SOL    HW1 2513   2.388   1.141   2.278 -1.4037  0.9647  0.7867
  838SOL    HW2 2514   2.239   1.069   2.246 -0.7486 -0.2672  1.9492
  839SOL     OW 2515   1.240   1.106   2.628 -0.3307  0.1006  0.4340
  839SOL    HW1 2516   1.237   1.012   2.585  0.3449 -0.8937  0.4183
  839SOL    HW2 2517   1.147   1.128   2.660 -1.5068 -0.8265  1.3063
  840SOL     OW 2518   0.746   0.950   0.144  0.0951  0.5513 -0.1249
  840SOL    HW1 2519   0.667   0.890   0.146 -0.2515 -0.9388  2.6333
  840SOL    HW2 2520   0.725   1.051   0.141 -1.6052 -0.0681  0.5225
  841SOL     OW 2521   1.097   2.192   3.110  0.4291  0.1076 -0.0287
  841SOL    HW1 2522   1.102   2.295   0.012  0.7090  1.7351  1.6658
  841SOL    HW2 2523   0.994   2.163   3.093 -3.7083 -0.0156  2.2499
  842SOL     OW 2524   0.417   0.527   0.521 -0.3185  0.6072  0.4663
  842SOL    HW1 2525   0.378   0.594   0.586  0.4644 -0.8027 -0.5367
  842SOL    HW2 2526   0.444   0.440   0.573 -0.8223 -2.1894  0.1842
  843SOL     OW 2527   0.497   0.751   1.119 -0.0208 -0.3635  0.5037
  843SOL    HW1 2528   0.449   0.840   1.118  0.5391 -0.0222 -0.3261
  843SOL    HW2 2529   0.434   0.684   1.073 -3.8556  1.4668 -0.5389
  844SOL     OW 2530   2.189   2.467   2.762 -0.0844 -0.2260 -0.0609
  844SOL    HW1 2531   2.269   2.531   2.786 -0.6247  3.2066  0.6993
  844SOL    HW2 2532   2.122   2.523   2.715  0.4404 -3.7836  2.4219
  845SOL     OW 2533   2.738   2.992   2.033 -0.4281 -0.6918 -0.4691
  845SOL    HW1 2534   2.812   2.974   2.099  0.8395  0.2381  1.4157
  845SOL    HW2 2535   2.671   2.916   2.044  0.9083  0.7969  2.7520
  846SOL     OW 2536   1.827   1.054   2.516 -0.3492  0.0978  0.1871
  846SOL    HW1 2537   1.803   1.002   2.434  0.8235  1.2724 -0.5441
  846SOL    HW2 2538   1.751   1.105   2.556 -0.0086  0.1375  1.1838
  847SOL     OW 2539   3.116   0.415   1.701  0.3733 -0.1725  0.0604
  847SOL    HW1 2540   0.001   0.500   1.757 -0.2739 -0.3934  1.9242
  847SOL    HW2 2541   3.096   0.329   1.757 -0.3688 -2.5204 -0.6689
  848SOL     OW 2542   2.580   2.767   0.118  0.5155 -0.2998 -0.1020
  848SOL    HW1 2543   2.677   2.791   0.131  0.1139  2.1995  0.8241
  848SOL    HW2 2544   2.541   2.710   0.191 -3.9571 -2.5528  0.9383
  849SOL     OW 2545   0.450   2.843   0.884 -0.6158  0.2161 -0.1318
  849SOL    HW1 2546   0.468   2.798   0.976 -0.8034 -0.4933  1.2783
  849SOL    HW2 2547   0.352   2.875   0.868  2.8542 -1.5479 -1.1565
  850SOL     OW 2548   0.612   2.245   0.338  0.2704 -0.3286 -0.3595
  850SOL    HW1 2549   0.591   2.341   0.309 -0.6723 -1.8503  0.2606
  850SOL    HW2 2550   0.711   2.228   0.359  0.6137 -0.6128 -2.0904
  851SOL     OW 2551   2.287   0.389   2.974 -0.1905  0.0867  0.2161
  851SOL    HW1 2552   2.234   0.441   2.904  0.1963 -1.0386 -0.1981
  851SOL    HW2 2553   2.324   0.303   2.936 -0.4963  1.3593  0.8513
  852SOL     OW 2554   1.774   2.479   2.544 -0.3217 -0.5470 -0.3302
  852SOL    HW1 2555   1.814   2.415   2.611  0.7746  0.2986 -0.1483
  852SOL    HW2 2556   1.747   2.434   2.454  1.2578 -1.7140 -2.7959
  853SOL     OW 2557   0.023   2.450   0.420  0.0039  0.4062  0.1057
  853SOL    HW1 2558   0.088   2.484   0.347 -1.0497 -0.8238 -1.9663
  853SOL    HW2 2559   0.042   2.353   0.445 -1.3334  0.4914  1.0991
  854SOL     OW 2560   1.204   0.742   2.205  0.2039  0.6933  0.3526
  854SOL    HW1 2561   1.264   0.786   2.138 -0.9164 -3.4206 -0.5174
  854SOL    HW2 2562   1.257   0.708   2.281 -0.2481 -1.1626 -0.4870
  855SOL     OW 2563   0.146   2.723   0.645  0.4172  0.3357  0.2716
  855SOL    HW1 2564   0.175   2.630   0.679  0.2101  1.3183 -0.1120
  855SOL    HW2 2565   0.213   2.755   0.574 -1.0859  0.3289  0.4768
  856SOL     OW 2566   0.413   3.021   2.541 -0.2161 -0.7435  0.5495
  856SOL    HW1 2567   0.376   2.935   2.507  0.6842  0.3680  0.2960
  856SOL    HW2 2568   0.506   3.006   2.585  0.6123 -1.0156 -0.2792
  857SOL     OW 2569   1.208   0.260   1.682 -0.3476  0.8017  0.1629
  857SOL    HW1 2570   1.214   0.310   1.767  2.6239  2.3170 -0.9802
  857SOL    HW2 2571   1.137   0.294   1.624 -0.5187 -1.0430 -1.7479
  858SOL     OW 2572   3.107   2.136   1.745  0.0826  0.0978  0.2672
  858SOL    HW1 2573   3.051   2.210   1.707 -2.0065  2.0743 -0.3266
  858SOL    HW2 2574   0.081   2.164   1.731 -0.3661  2.5358 -0.0262
  859SOL     OW 2575   2.037   2.887   1.970  0.3402 -0.0146 -0.7865
  859SOL    HW1 2576   2.126   2.848   1.934 -1.3593 -1.2841  3.8563
  859SOL    HW2 2577   1.959   2.843   1.922  0.3055 -0.8319 -2.0489
  860SOL     OW 2578   1.770   0.074   0.589  0.1208  0.1903  0.3567
  860SOL    HW1 2579   1.712   0.062   0.671  0.4888 -1.3778 -2.2681
  860SOL    HW2 2580   1.860   0.031   0.598 -0.3659  1.7138  1.5543
  861SOL     OW 2581   2.896   0.816   0.674  0.8449  0.2036  0.7332
  861SOL    HW1 2582   2.927   0.721   0.686 -0.5639  1.5642  1.4749
  861SOL    HW2 2583   2.980   0.863   0.647 -2.5703  0.2784  1.6319
  862SOL     OW 2584   2.020   0.826   1.949  0.0292 -0.0875 -0.3006
  862SOL    HW1 2585   1.990   0.729   1.944 -0.2425 -0.3252 -1.4693
  862SOL    HW2 2586   2.056   0.851   1.856  1.8539 -0.2457 -4.0618
  863SOL     OW 2587   0.742   0.790   1.015  0.0315 -0.6240  0.2477
  863SOL    HW1 2588   0.662   0.774   1.068  0.1578  1.1287 -0.9634
  863SOL    HW2 2589   0.820   0.741   1.052 -2.1926 -0.0145 -0.9507
  864SOL     OW 2590   2.939   2.928   2.215 -0.4116  0.3980  0.2447
  864SOL    HW1 2591   2.896   2.840   2.253 -1.2844  1.5707  1.7742
  864SOL    HW2 2592   2.996   2.972   2.286 -0.5588 -0.1305  0.3684
  865SOL     OW 2593   1.343   0.622   2.393  0.5154  0.0259 -0.0210
  865SOL    HW1 2594   1.302   0.529   2.384  0.7204 -0.8520  0.2491
  865SOL    HW2 2595   1.446   0.610   2.403 -2.6916  0.5330  0.7686
  866SOL     OW 2596   2.497   2.500   0.624  0.1569 -0.1951 -0.6835
  866SOL    HW1 2597   2.454   2.588   0.647 -0.1479  0.2076  0.0555
  866SOL    HW2 2598   2.496   2.444   0.713 -0.2647  1.6383  2.2939
  867SOL     OW 2599   2.673   2.935   0.573 -0.0501 -0.0708  0.1646
  867SOL    HW1 2600   2.705   2.847   0.535 -0.9343 -0.8166  0.7767
  867SOL    HW2 2601   2.682   3.000   0.497  1.7615 -0.6381  0.4439
  868SOL     OW 2602   1.719   0.944   0.026 -0.0841  0.1302 -0.5907
  868SOL    HW1 2603   1.681   0.916   3.060  3.1511 -1.6597  2.1448
  868SOL    HW2 2604   1.646   0.969   0.092  1.9061 -0.8786 -2.2723
  869SOL     OW 2605   2.790   2.321   0.676  1.1099  0.0902  0.0505
  869SOL    HW1 2606   2.832   2.407   0.640 -1.0961 -2.0885 -1.5547
  869SOL    HW2 2607   2.684   2.328   0.702 -1.5088  0.1431  1.9939
  870SOL     OW 2608   2.242   2.023   0.225 -0.4818  0.3991  0.5788
  870SOL    HW1 2609   2.156   2.021   0.275  2.5375  1.6428  0.6584
  870SOL    HW2 2610   2.310   1.954   0.262  2.0215 -0.0869  2.8649
  871SOL     OW 2611   0.819   1.215   1.226 -0.0806  0.3612  0.1677
  871SOL    HW1 2612   0.808   1.205   1.123 -0.2882 -1.7738 -2.6435
  871SOL    HW2 2613   0.798   1.132   1.279 -1.0218  1.3576 -1.7938
  872SOL     OW 2614   1.092   2.114   2.270 -0.2171  0.1811  0.1689
  872SOL    HW1 2615   1.183   2.118   2.232 -1.6000 -2.1936  1.0191
  872SOL    HW2 2616   1.021   2.116   2.193 -1.5875  1.4368 -2.7091
  873SOL     OW 2617   0.588   2.473   2.030  0.1026  0.3195 -0.0588
  873SOL    HW1 2618   0.595   2.552   2.090 -0.8464 -0.2743  1.5309
  873SOL    HW2 2619   0.490   2.469   1.995 -0.5054  0.9885 -0.8048
  874SOL     OW 2620   0.796   0.256   1.120 -0.1256  0.5788  0.4603
  874SOL    HW1 2621   0.860   0.328   1.080 -0.0428  0.0938 -1.4107
  874SOL    HW2 2622   0.811   0.256   1.222 -1.9925 -1.0741  0.8164
  875SOL     OW 2623   2.938   0.327   1.292  0.5725  0.2386  0.1645
  875SOL    HW1 2624   2.968   0.414   1.345  0.1279  2.3985 -1.0850
  875SOL    HW2 2625   2.889   0.258   1.351  0.0317 -3.2802  0.3013
  876SOL     OW 2626   0.392   0.839   0.116  0.3951 -0.3272 -0.5991
  876SOL    HW1 2627   0.429   0.781   0.192  0.5919  0.7286  0.6222
  876SOL    HW2 2628   0.293   0.839   0.111  0.0905 -1.1343  1.5996
  877SOL     OW 2629   1.153   0.654   1.521 -0.0157  0.3199 -0.5229
  877SOL    HW1 2630   1.212   0.624   1.441 -0.3633  2.9831 -1.6634
  877SOL    HW2 2631   1.162   0.758   1.530  0.7525  1.7230  2.1074
  878SOL     OW 2632   1.982   2.591   0.251 -0.3248 -0.0073 -0.3030
  878SOL    HW1 2633   2.047   2.649   0.196 -3.2606  1.3260 -0.1401
  878SOL    HW2 2634   2.036   2.520   0.305 -0.4894 -1.5420 -3.1602
  879SOL     OW 2635   2.601   1.374   1.330 -0.2954  0.2670  0.4794
  879SOL    HW1 2636   2.688   1.318   1.317  2.8307 -0.0775  0.3218
  879SOL    HW2 2637   2.571   1.416   1.242 -1.5406 -2.7184  0.6990
  880SOL     OW 2638   1.426   2.429   0.593  0.3840 -0.2100 -0.1915
  880SOL    HW1 2639   1.453   2.351   0.651 -0.4140 -1.3151  1.3130
  880SOL    HW2 2640   1.386   2.393   0.507  0.7333  1.4399  0.4447
  881SOL     OW 2641   0.878   2.101   0.339 -0.4672  0.1792  0.1164
  881SOL    HW1 2642   0.959   2.079   0.393 -0.6160 -0.2706  0.9855
  881SOL    HW2 2643   0.868   2.054   0.247 -1.4170  1.4274  0.0391
  882SOL     OW 2644   1.935   0.770   1.120  0.1997 -0.1528  0.0426
  882SOL    HW1 2645   1.932   0.799   1.022  1.2904  0.1925 -0.3673
  882SOL    HW2 2646   1.842   0.742   1.157 -2.1962 -1.5400  0.5380
  883SOL     OW 2647   1.642   1.086   1.679 -0.1655  0.3122  0.0601
  883SOL    HW1 2648   1.651   0.988   1.654  0.2905  2.3433  1.3773
  883SOL    HW2 2649   1.645   1.089   1.777 -0.5867  0.5393 -3.5499
  884SOL     OW 2650   2.922   0.613   0.314 -0.0593  0.3447  0.4107
  884SOL    HW1 2651   2.868   0.569   0.388  2.0530 -0.2295  0.3267
  884SOL    HW2 2652   3.018   0.586   0.321 -2.6010  1.3216 -0.3288
  885SOL     OW 2653   1.398   1.681   2.899 -0.0831 -0.0549  0.0194
  885SOL    HW1 2654   1.428   1.706   2.803  0.3931 -0.8832 -1.7897
  885SOL    HW2 2655   1.314   1.623   2.908 -0.6914  0.7541 -0.6064
  886SOL     OW 2656   1.519   1.766   2.677  0.2090  0.1763  0.1696
  886SOL    HW1 2657   1.504   1.860   2.640 -1.5325  1.3286 -1.1384
  886SOL    HW2 2658   1.615   1.733   2.664  3.8313 -0.4733 -1.0808
  887SOL     OW 2659   1.340   0.217   1.177  0.2219  0.2850  0.5725
  887SOL    HW1 2660   1.439   0.227   1.152  0.7918  0.8053 -0.1585
  887SOL    HW2 2661   1.321   0.238   1.275  1.3059 -0.0762  2.8303
  888SOL     OW 2662   2.517   0.694   1.663  0.1684 -0.4860  0.0879
  888SOL    HW1 2663   2.615   0.680   1.685  0.0516  0.4491 -0.2767
  888SOL    HW2 2664   2.499   0.690   1.560 -3.8226  0.7681 -1.6123
  889SOL     OW 2665   3.081   2.750   1.031  0.0873  0.3712  0.6012
  889SOL    HW1 2666   3.034   2.746   0.939 -1.0110  1.4757 -0.7155
  889SOL    HW2 2667   3.011   2.709   1.097 -1.1187 -0.5691 -1.1017
  890SOL     OW 2668   1.879   2.245   0.211 -0.5056  0.2883  0.3406
  890SOL    HW1 2669   1.828   2.175   0.158  1.1687 -2.7828 -1.1839
  890SOL    HW2 2670   1.948   2.300   0.151 -2.4475  2.5945  0.1874
  891SOL     OW 2671   0.586   1.135   2.719  0.0331 -0.4839 -0.4469
  891SOL    HW1 2672   0.518   1.164   2.654 -0.4610 -1.0206  1.3220
  891SOL    HW2 2673   0.680   1.158   2.684 -0.4901 -0.7713  1.1712
  892SOL     OW 2674   3.091   0.059   1.494  0.2725 -0.2202 -0.0879
  892SOL    HW1 2675   0.026   0.113   1.434 -2.7419 -0.4282  3.2717
  892SOL    HW2 2676   2.992   0.058   1.464 -1.8025  2.4956 -1.3233
  893SOL     OW 2677   1.293   3.024   1.062 -0.1670  0.4930 -0.1888
  893SOL    HW1 2678   1.287   3.118   1.102  0.2121  1.7970  0.1898
  893SOL    HW2 2679   1.252   3.017   0.972 -1.6510 -3.6525 -1.1268
  894SOL     OW 2680   2.648   0.689   0.835 -0.0240 -0.3984  0.5474
  894SOL    HW1 2681   2.689   0.596   0.849 -1.1074  0.7598  2.1007
  894SOL    HW2 2682   2.681   0.735   0.753  1.4194 -0.2591  0.7086
  895SOL     OW 2683   1.891   1.499   2.505 -0.1047  0.4577 -0.6826
  895SOL    HW1 2684   1.956   1.462   2.577  1.5671 -2.4138 -0.6868
  895SOL    HW2 2685   1.945   1.544   2.427  0.6485  2.4489 -1.4083
  896SOL     OW 2686   1.713   0.543   1.709 -0.2657  0.5163  0.8034
  896SOL    HW1 2687   1.682   0.534   1.809 -2.1845  2.0665  1.1792
  896SOL    HW2 2688   1.683   0.465   1.649  1.2818  1.9802  1.9266
  897SOL     OW 2689   0.714   1.427   2.092  0.2443 -0.0481  0.3039
  897SOL    HW1 2690   0.781   1.363   2.046  1.4309 -2.8792 -2.7954
  897SOL    HW2 2691   0.715   1.520   2.046 -1.1896 -1.6818 -0.0153
  898SOL     OW 2692   2.362   2.419   2.293  0.2119 -0.1949 -0.3107
  898SOL    HW1 2693   2.345   2.462   2.204  0.7338 -1.5759  2.5559
  898SOL    HW2 2694   2.454   2.382   2.298 -3.6547 -0.3073  2.6478
  899SOL     OW 2695   1.176   1.417   1.766  0.2428  0.5448 -1.6333
  899SOL    HW1 2696   1.092   1.379   1.724  3.7823  2.3279 -0.0708
  899SOL    HW2 2697   1.219   1.465   1.694 -1.5066  1.5655  3.3789
  900SOL     OW 2698   1.104   2.119   2.541  0.1204  0.4445 -0.8840
  900SOL    HW1 2699   1.156   2.035   2.565 -0.5098  0.3328 -0.5157
  900SOL    HW2 2700   1.099   2.133   2.439 -2.0280 -0.1972 -2.4717
  901SOL     OW 2701   0.462   1.951   2.433 -0.4192  0.6646  0.0385
  901SOL    HW1 2702   0.402   1.922   2.351 -2.7915  0.1573 -1.7166
  901SOL    HW2 2703   0.440   2.042   2.465  3.4594 -3.3595  1.9338
  902SOL     OW 2704   1.930   1.783   0.088  0.6054  0.1316  0.1125
  902SOL    HW1 2705   1.896   1.691   0.060 -0.1243  1.1977  1.7369
  902SOL    HW2 2706   2.012   1.770   0.146 -1.5997 -1.1725  3.3610
  903SOL     OW 2707   1.869   1.483   0.288 -0.7641 -0.0890 -0.2314
  903SOL    HW1 2708   1.858   1.513   0.193  1.5248 -1.1309  0.9619
  903SOL    HW2 2709   1.947   1.419   0.296  2.4834  1.0438 -2.1378
  904SOL     OW 2710   0.849   0.781   2.740 -0.0415  0.0089 -0.5561
  904SOL    HW1 2711   0.879   0.706   2.676 -3.1449 -2.5736  1.0844
  904SOL    HW2 2712   0.900   0.782   2.828  0.9570  0.0178 -1.4401
  905SOL     OW 2713   2.864   0.499   1.082  0.5055  0.4003  0.7336
  905SOL    HW1 2714   2.805   0.465   1.004 -1.2522  0.9315 -1.2711
  905SOL    HW2 2715   2.897   0.420   1.142 -0.5103  0.9841  2.3868
  906SOL     OW 2716   2.758   2.086   0.524  0.3112  0.0052 -0.2645
  906SOL    HW1 2717   2.774   2.009   0.594  1.1717 -2.0456  1.4228
  906SOL    HW2 2718   2.771   2.176   0.568  0.7749  1.9418  0.0309
  907SOL     OW 2719   1.482   0.433   0.362  0.3065 -0.6037 -0.2710
  907SOL    HW1 2720   1.502   0.337   0.397  0.3370 -1.2717  0.4902
  907SOL    HW2 2721   1.387   0.437   0.330 -0.8587 -0.8932  3.7870
  908SOL     OW 2722   1.760   0.093   1.626  0.2529  0.6319  0.0838
  908SOL    HW1 2723   1.810   0.026   1.563 -0.3816 -1.0893 -0.6401
  908SOL    HW2 2724   1.797   0.088   1.720 -1.7476 -1.5677 -3.2164
  909SOL     OW 2725   2.452   0.716   1.390 -0.3225  0.3355 -0.5457
  909SOL    HW1 2726   2.521   0.691   1.320  2.8108  1.3439  0.6019
  909SOL    HW2 2727   2.395   0.798   1.362  2.1715  0.8070  1.5535
  910SOL     OW 2728   1.063   2.778   2.288 -0.1825 -0.0864 -0.0729
  910SOL    HW1 2729   0.996   2.805   2.362 -0.1631  0.4594  1.9551
  910SOL    HW2 2730   1.031   2.693   2.243 -2.4052  0.7389 -1.1373
  911SOL     OW 2731   2.335   0.941   1.721 -0.1036 -0.1744 -0.1494
  911SOL    HW1 2732   2.366   0.847   1.701 -0.2337 -3.2314  0.7148
  911SOL    HW2 2733   2.238   0.948   1.697 -0.7139  2.1988  2.3730
  912SOL     OW 2734   2.805   2.122   1.444 -0.4584  0.7124  0.4842
  912SOL    HW1 2735   2.777   2.217   1.422 -1.5696 -1.0775 -0.1958
  912SOL    HW2 2736   2.807   2.112   1.543  0.3606 -0.0700 -2.4091
  913SOL     OW 2737   2.573   2.219   1.224 -0.3471  0.2817 -0.2679
  913SOL    HW1 2738   2.504   2.142   1.229  0.2709  1.5079  3.9904
  913SOL    HW2 2739   2.654   2.188   1.170 -1.8900  0.0326 -0.0000
  914SOL     OW 2740   1.953   1.719   1.431 -0.1133  0.0459 -0.0057
  914SOL    HW1 2741   2.009   1.645   1.382  0.8944 -1.5150 -1.2277
  914SOL    HW2 2742   1.949   1.692   1.528  0.2464 -0.8486  0.1770
  915SOL     OW 2743   1.243   1.549   1.538 -0.7816 -0.2540 -0.2616
  915SOL    HW1 2744   1.232   1.651   1.536  1.2821 -1.3541 -1.7148
  915SOL    HW2 2745   1.199   1.508   1.462 -0.5706 -2.6626  5.4407
  916SOL     OW 2746   2.318   2.671   1.461  0.3967 -0.1999  0.0064
  916SOL    HW1 2747   2.369   2.765   1.463 -0.8093  1.8735  1.4623
  916SOL    HW2 2748   2.258   2.659   1.543 -1.2095 -0.6421 -1.5180
  917SOL     OW 2749   2.720   1.636   2.941 -0.0772  0.3976  0.0193
  917SOL    HW1 2750   2.672   1.660   2.853 -0.0548 -0.4759 -4.2830
  917SOL    HW2 2751   2.718   1.536   2.968 -0.3294 -1.5387  0.9031
  918SOL     OW 2752   1.740   2.379   2.275 -0.2084 -0.0767  0.2173
  918SOL    HW1 2753   1.718   2.475   2.253  0.8911 -0.9495 -1.2454
  918SOL    HW2 2754   1.828   2.352   2.228  1.3880 -1.2796  0.2422
  919SOL     OW 2755   1.280   2.204   1.769 -0.5251 -0.1168 -0.0331
  919SOL    HW1 2756   1.363   2.173   1.716 -0.1820  3.1988 -2.3458
  919SOL    HW2 2757   1.201   2.220   1.707 -1.2835  0.7767  0.1924
  920SOL     OW 2758   3.055   0.226   2.869 -0.4229  0.4296  0.7030
  920SOL    HW1 2759   0.029   0.261   2.884  3.0797  0.3941 -0.5400
  920SOL    HW2 2760   3.007   0.226   2.960 -0.5547  0.4884  3.6409
  921SOL     OW 2761   2.827   0.109   2.422  0.0116 -0.0592  0.2954
  921SOL    HW1 2762   2.856   0.177   2.491 -1.6930 -0.7845 -2.1634
  921SOL    HW2 2763   2.725   0.106   2.408 -0.2525 -2.3268  0.7449
  922SOL     OW 2764   2.254   2.094   0.596 -0.1138 -0.6732 -0.0584
  922SOL    HW1 2765   2.285   2.150   0.515 -0.8407  0.8484 -2.7814
  922SOL    HW2 2766   2.199   2.012   0.567  0.0921  1.2176  0.3758
  923SOL     OW 2767   0.251   1.884   0.326  0.3971  0.0791 -0.0097
  923SOL    HW1 2768   0.265   1.879   0.225  0.0779  1.3195  2.3646
  923SOL    HW2 2769   0.272   1.984   0.346 -0.5078 -1.7281 -2.3044
  924SOL     OW 2770   1.253   0.253   3.022  0.2927  0.0957 -0.0004
  924SOL    HW1 2771   1.180   0.181   3.020  1.0285  1.1402 -0.2291
  924SOL    HW2 2772   1.346   0.212   3.039  3.4699 -1.6266 -1.6139
  925SOL     OW 2773   2.555   1.154   0.745  0.0470 -0.1905 -0.3548
  925SOL    HW1 2774   2.467   1.202   0.764 -0.8523  0.6835 -0.1116
  925SOL    HW2 2775   2.576   1.169   0.646 -0.4343  0.2539  0.3723
  926SOL     OW 2776   2.731   1.163   0.965  0.5539  0.0227 -0.0426
  926SOL    HW1 2777   2.689   1.197   0.877 -0.4619  0.8858  0.7207
  926SOL    HW2 2778   2.828   1.132   0.945  0.4472 -0.4435  1.8880
  927SOL     OW 2779   0.453   1.238   0.232  0.0963 -0.2830 -0.0836
  927SOL    HW1 2780   0.365   1.185   0.215  2.0646 -2.6223 -1.1818
  927SOL    HW2 2781   0.535   1.214   0.178  1.3398  1.6757  3.0020
  928SOL     OW 2782   0.044   0.399   2.257  0.2045  0.3468  0.5024
  928SOL    HW1 2783   0.081   0.417   2.162  0.4626 -0.7350 -1.5143
  928SOL    HW2 2784   0.123   0.355   2.310 -0.4831  2.4449  0.1851
  929SOL     OW 2785   2.898   3.022   1.315  0.5758  0.1832 -0.0862
  929SOL    HW1 2786   2.875   3.002   1.215 -1.2353  1.5128 -0.1980
  929SOL    HW2 2787   2.858   3.113   1.333  1.2736  2.7828  0.9797
  930SOL     OW 2788   1.834   1.982   1.476  0.4895  0.1390  0.3271
  930SOL    HW1 2789   1.887   1.890   1.485 -1.2892 -1.5385  1.6995
  930SOL    HW2 2790   1.780   2.000   1.560  0.2223 -1.3643 -2.6009
  931SOL     OW 2791   1.420   1.460   0.722  0.7215 -0.3793  0.1338
  931SOL    HW1 2792   1.465   1.541   0.770 -0.3722 -0.4432 -0.1442
  931SOL    HW2 2793   1.414   1.477   0.620 -0.5728 -0.2339 -0.8754
  932SOL     OW 2794   2.767   1.172   1.227 -0.2933 -0.0081 -0.0081
  932SOL    HW1 2795   2.753   1.078   1.263 -0.2557 -2.5904 -1.6317
  932SOL    HW2 2796   2.747   1.177   1.128 -1.7227  1.2542 -0.4276
  933SOL     OW 2797   2.357   1.441   1.448 -0.2882  0.1215 -0.5304
  933SOL    HW1 2798   2.349   1.504   1.525 -1.5974  0.5410 -0.9882
  933SOL    HW2 2799   2.452   1.420   1.430 -2.0762 -1.7488 -0.9192
  934SOL     OW 2800   1.610   0.210   1.089  0.4803  0.0477  0.4209
  934SOL    HW1 2801   1.618   0.166   0.998  1.9448 -0.5506 -0.1417
  934SOL    HW2 2802   1.690   0.185   1.148 -2.3562 -1.7843 -1.3969
  935SOL     OW 2803   0.353   1.609   1.102  0.1507 -0.1505  0.1268
  935SOL    HW1 2804   0.374   1.529   1.166 -0.4221 -0.7035  0.4130
  935SOL    HW2 2805   0.394   1.697   1.118 -1.6788 -0.0896 -0.0055
  936SOL     OW 2806   0.094   1.232   0.640  0.2707 -0.3118 -0.1653
  936SOL    HW1 2807   0.011   1.282   0.598 -1.3384 -1.5761 -1.3190
  936SOL    HW2 2808   0.135   1.286   0.717 -0.5180 -0.8149  0.9511
  937SOL     OW 2809   1.745   2.609   0.906  0.0649 -0.1275  0.2951
  937SOL    HW1 2810   1.662   2.598   0.968  0.0214 -1.9107 -3.2370
  937SOL    HW2 2811   1.719   2.673   0.832 -1.6347  0.5643 -4.5161
  938SOL     OW 2812   2.477   2.515   1.082  0.0987 -0.3266  0.3402
  938SOL    HW1 2813   2.444   2.604   1.043 -0.1135 -0.1210  1.1326
  938SOL    HW2 2814   2.405   2.447   1.073 -0.8846 -0.7285 -0.6142
  939SOL     OW 2815   0.250   2.350   0.051 -0.1735  0.1545  0.4256
  939SOL    HW1 2816   0.350   2.331   0.048  0.4202  0.8563  1.0953
  939SOL    HW2 2817   0.206   2.281   0.118  2.9495 -2.2093  2.9628
  940SOL     OW 2818   3.005   2.975   3.091 -0.3016  0.3930  0.3839
  940SOL    HW1 2819   2.956   2.899   0.013 -0.0658  1.2462 -0.8065
  940SOL    HW2 2820   3.102   2.947   3.065  0.9000 -2.5213 -3.0282
  941SOL     OW 2821   0.874   2.961   3.060  0.1869 -0.4454 -0.4133
  941SOL    HW1 2822   0.904   2.879   3.015 -2.5489  1.1233  3.4046
  941SOL    HW2 2823   0.853   2.939   0.031  0.6941 -2.5165 -2.1869
  942SOL     OW 2824   1.448   1.913   1.566  0.5197 -0.1707  0.3165
  942SOL    HW1 2825   1.492   1.983   1.630  0.4649 -0.0728  1.5129
  942SOL    HW2 2826   1.487   1.821   1.581  0.2351 -1.6423 -0.7538
  943SOL     OW 2827   2.066   1.183   1.529  0.1780 -0.2633 -0.1728
  943SOL    HW1 2828   2.016   1.222   1.450 -2.3013 -1.0199  1.0169
  943SOL    HW2 2829   2.016   1.197   1.616  2.0065  1.5535 -1.6196
  944SOL     OW 2830   2.026   0.792   1.432 -0.3508  0.7201 -0.2071
  944SOL    HW1 2831   1.931   0.786   1.396  0.6714 -1.4205 -0.3947
  944SOL    HW2 2832   2.056   0.704   1.473 -2.2334 -1.8238 -0.8131
  945SOL     OW 2833   0.076   2.985   1.123 -0.8561 -0.0569 -0.6201
  945SOL    HW1 2834   0.030   2.903   1.093 -0.7589  2.8774 -2.1670
  945SOL    HW2 2835   0.003   3.042   1.172  1.0753 -0.9309  0.5637
  946SOL     OW 2836   0.574   0.628   1.369 -0.2048 -0.2871  0.5574
  946SOL    HW1 2837   0.533   0.540   1.339  1.3728  1.3646  1.8548
  946SOL    HW2 2838   0.537   0.700   1.313  3.7993  0.8375 -0.5974
  947SOL     OW 2839   0.492   2.663   0.691  0.0404  0.4234  0.2339
  947SOL    HW1 2840   0.499   2.707   0.598  3.0760  0.1778  1.4908
  947SOL    HW2 2841   0.462   2.733   0.762 -0.7017  0.6361 -0.8118
  948SOL     OW 2842   3.068   1.464   1.716 -0.0365 -0.1856 -0.1231
  948SOL    HW1 2843   3.055   1.447   1.617  0.0695  1.2092 -0.4205
  948SOL    HW2 2844   0.014   1.400   1.762 -2.0285 -0.8897  2.1635
  949SOL     OW 2845   0.542   0.985   2.425 -0.5480 -0.8403 -0.5090
  949SOL    HW1 2846   0.644   0.962   2.415  1.0497 -0.7838  1.1451
  949SOL    HW2 2847   0.495   0.898   2.453  0.3454 -1.0719 -1.4589
  950SOL     OW 2848   0.987   0.421   1.009 -0.3510 -0.1396 -0.0341
  950SOL    HW1 2849   0.986   0.495   1.077  0.1017 -0.8460 -0.1174
  950SOL    HW2 2850   1.078   0.423   0.956  1.6014 -0.1271  1.8351
  951SOL     OW 2851   0.931   2.139   2.065 -0.1420 -0.0334  0.1294
  951SOL    HW1 2852   0.937   2.144   1.961  3.9824 -1.1530  0.5845
  951SOL    HW2 2853   0.848   2.194   2.096  0.8321  0.1618  1.3889
  952SOL     OW 2854   0.448   1.684   2.881  0.3308 -0.5988  0.2097
  952SOL    HW1 2855   0.541   1.705   2.910 -1.0977  0.0065  2.3013
  952SOL    HW2 2856   0.386   1.685   2.961 -0.3657 -2.9100  0.1168
  953SOL     OW 2857   1.894   0.028   2.281  0.3474  0.4121 -0.0027
  953SOL    HW1 2858   1.979   3.117   2.333  0.2518 -1.8693  1.0881
  953SOL    HW2 2859   1.919   0.092   2.208 -0.8006 -0.4909 -1.4096
  954SOL     OW 2860   1.683   1.256   0.711  0.6597 -0.2831  0.9858
  954SOL    HW1 2861   1.694   1.206   0.625 -1.6022  0.2639 -0.1046
  954SOL    HW2 2862   1.589   1.294   0.717 -1.5545  2.5419  1.6746
  955SOL     OW 2863   0.358   2.342   2.283 -0.3510  0.4883 -0.1458
  955SOL    HW1 2864   0.364   2.302   2.187 -0.2071 -4.0874 -0.1479
  955SOL    HW2 2865   0.261   2.350   2.315  1.6560  0.3744  1.1854
  956SOL     OW 2866   1.630   0.802   1.617 -0.0584 -0.0276 -0.0988
  956SOL    HW1 2867   1.585   0.789   1.528 -0.4312 -0.7457 -2.0116
  956SOL    HW2 2868   1.685   0.720   1.638  1.3028  0.7712  0.0623
  957SOL     OW 2869   2.285   1.554   2.658 -0.5493 -0.1675 -0.0808
  957SOL    HW1 2870   2.283   1.619   2.576  0.1961 -0.2873 -1.6894
  957SOL    HW2 2871   2.200   1.495   2.662 -0.4883  1.4912  1.0241
  958SOL     OW 2872   1.063   2.554   0.827 -0.3616  0.4376  0.1981
  958SOL    HW1 2873   0.976   2.604   0.858  0.0654  0.2822 -3.7724
  958SOL    HW2 2874   1.086   2.486   0.899 -2.2484 -0.1820 -1.0884
  959SOL     OW 2875   1.702   2.040   2.760 -0.0174 -0.0035  0.3611
  959SOL    HW1 2876   1.695   2.006   2.661  0.0864 -1.3600 -1.2683
  959SOL    HW2 2877   1.711   1.957   2.820 -0.3870 -0.0939 -0.3851
  960SOL     OW 2878   0.179   0.333   2.943 -0.2194 -0.4145 -0.2605
  960SOL    HW1 2879   0.213   0.364   2.853  0.6511 -0.7044  0.4617
  960SOL    HW2 2880   0.191   0.402   3.013 -0.2428  1.1805 -1.0113
  961SOL     OW 2881   0.803   0.937   2.357 -0.2064 -0.1364  0.4766
  961SOL    HW1 2882   0.879   0.958   2.419  2.6482  1.1731  0.6494
  961SOL    HW2 2883   0.801   0.837   2.344  0.4475 -0.7786 -0.3628
  962SOL     OW 2884   1.089   1.326   3.062 -0.1841 -0.1124 -0.0226
  962SOL    HW1 2885   1.171   1.278   3.104 -1.1431 -1.2038 -0.9981
  962SOL    HW2 2886   1.031   1.363   0.014 -0.2584  0.9453 -0.5085
  963SOL     OW 2887   2.291   1.625   2.930 -0.1889  0.5445 -0.0445
  963SOL    HW1 2888   2.305   1.596   2.830 -0.8710 -1.8349  0.2528
  963SOL    HW2 2889   2.273   1.725   2.942 -1.4415  1.9744 -0.7212
  964SOL     OW 2890   1.502   2.572   1.012 -0.1507 -0.4896 -0.0736
  964SOL    HW1 2891   1.430   2.610   0.947 -0.2712 -0.5778 -2.0595
  964SOL    HW2 2892   1.474   2.607   1.105  0.6271  1.7737  4.2202
  965SOL     OW 2893   0.918   2.273   1.170 -0.1117 -0.1238 -0.1243
  965SOL    HW1 2894   0.919   2.232   1.264 -1.9522 -1.0076 -0.0659
  965SOL    HW2 2895   0.866   2.210   1.109 -0.4088  0.8032  0.2726
  966SOL     OW 2896   0.169   1.495   0.044 -0.5344 -0.7424  0.2173
  966SOL    HW1 2897   0.079   1.519   0.004  1.0394 -0.5958 -0.8569
  966SOL    HW2 2898   0.154   1.435   0.125 -0.4961  2.1278  0.5608
  967SOL     OW 2899   1.629   0.087   1.997  0.2252 -0.5993  0.1165
  967SOL    HW1 2900   1.574   0.013   2.039 -1.0469  1.6728 -0.3769
  967SOL    HW2 2901   1.718   0.048   1.961  1.4770 -0.3364  1.6809
  968SOL     OW 2902   1.865   0.892   0.883 -0.2660 -0.0972 -0.1112
  968SOL    HW1 2903   1.953   0.941   0.901  1.1721  0.2967 -0.4691
  968SOL    HW2 2904   1.808   0.948   0.820 -2.0487  1.1514  0.4920
  969SOL     OW 2905   0.221   1.685   1.997  0.0990  0.1931  0.2978
  969SOL    HW1 2906   0.283   1.701   1.914  2.5420  2.1812 -1.3240
  969SOL    HW2 2907   0.132   1.708   1.958 -0.7263  1.4490  0.1623
  970SOL     OW 2908   2.588   1.679   0.997 -0.3270 -0.0197  0.0213
  970SOL    HW1 2909   2.537   1.605   1.045  0.8165 -0.3931 -0.4157
  970SOL    HW2 2910   2.601   1.755   1.063 -0.6200 -1.6300 -0.6166
  971SOL     OW 2911   1.003   0.389   1.559  0.2064 -0.0433  0.6198
  971SOL    HW1 2912   1.030   0.487   1.537 -2.4077 -2.3382 -0.3120
  971SOL    HW2 2913   0.954   0.375   1.648  0.3674  1.1492  1.5385
  972SOL     OW 2914   0.946   0.414   2.400  0.1291  0.1390  0.2777
  972SOL    HW1 2915   1.032   0.363   2.362  1.7737 -1.4578 -0.0160
  972SOL    HW2 2916   0.918   0.491   2.338 -1.3410  0.3500 -1.2204
  973SOL     OW 2917   0.456   1.383   1.217  0.2283 -0.4490  0.2757
  973SOL    HW1 2918   0.417   1.316   1.280  2.0339  1.4097 -3.3955
  973SOL    HW2 2919   0.547   1.399   1.236 -4.8154 -0.3455 -2.4058
  974SOL     OW 2920   2.186   1.296   1.972 -0.1281 -0.6357 -0.2353
  974SOL    HW1 2921   2.110   1.363   1.952 -1.6749  1.6742 -1.1838
  974SOL    HW2 2922   2.231   1.286   1.883  0.1390  1.5894  1.6187
  975SOL     OW 2923   2.652   3.112   0.375 -0.0469 -0.2226 -0.0686
  975SOL    HW1 2924   2.580   3.075   0.308 -1.5170  0.1367  0.7427
  975SOL    HW2 2925   2.722   0.041   0.324  1.0743  1.8092  0.2114
  976SOL     OW 2926   0.035   1.707   1.785 -0.0214 -0.0567 -0.0069
  976SOL    HW1 2927   3.108   1.626   1.750 -0.7790  0.5691  0.4547
  976SOL    HW2 2928   3.117   1.786   1.738 -0.4055  0.4833 -1.0578
  977SOL     OW 2929   0.646   2.769   0.140 -0.4226 -0.1691  0.3667
  977SOL    HW1 2930   0.575   2.839   0.168  0.0929  0.3165 -0.8180
  977SOL    HW2 2931   0.738   2.800   0.163  0.9635 -0.6528 -0.4273
  978SOL     OW 2932   0.795   1.651   0.054  0.0166  0.3542 -0.0221
  978SOL    HW1 2933   0.708   1.605   0.038 -0.8392 -2.5204 -1.3601
  978SOL    HW2 2934   0.858   1.583   0.093 -1.4014  2.0758 -2.4192
  979SOL     OW 2935   1.410   1.896   1.296 -0.5311 -0.0169 -0.5770
  979SOL    HW1 2936   1.411   1.910   1.398  0.1733 -0.2632  0.3915
  979SOL    HW2 2937   1.488   1.947   1.256  1.6948 -1.2054 -2.9526
  980SOL     OW 2938   0.426   1.366   2.284 -0.2280  0.4992 -0.1714
  980SOL    HW1 2939   0.445   1.273   2.247 -2.1896  2.7523 -0.3952
  980SOL    HW2 2940   0.382   1.426   2.214  0.0844  0.5244 -2.0507
  981SOL     OW 2941   0.112   1.377   0.290  0.0518 -0.3020 -0.1657
  981SOL    HW1 2942   0.146   1.448   0.354  1.0637 -0.7955  0.1869
  981SOL    HW2 2943   0.132   1.283   0.316 -0.9962 -2.0608 -1.0935
  982SOL     OW 2944   2.432   2.576   2.771 -0.8708  0.2858 -0.2802
  982SOL    HW1 2945   2.450   2.610   2.676 -0.9124  3.2215  0.3284
  982SOL    HW2 2946   2.494   2.614   2.840  0.7354 -1.3668  1.3965
  983SOL     OW 2947   1.774   0.376   1.316  0.1761  0.0524  0.2999
  983SOL    HW1 2948   1.764   0.473   1.294  2.4493  0.7356  2.0522
  983SOL    HW2 2949   1.874   0.348   1.334  1.8379 -1.4209 -1.3195
  984SOL     OW 2950   1.020   0.063   2.442  0.9002  0.3692  0.1718
  984SOL    HW1 2951   0.920   0.054   2.422 -1.6029 -0.3889  1.3066
  984SOL    HW2 2952   1.076   0.011   2.374  2.5419  0.6039  0.0526
  985SOL     OW 2953   1.590   2.205   1.892  0.3455 -0.4757  0.6087
  985SOL    HW1 2954   1.592   2.306   1.891 -2.5867 -1.3951 -0.1097
  985SOL    HW2 2955   1.491   2.180   1.903 -0.3948 -0.1625  0.2460
  986SOL     OW 2956   2.141   3.101   2.403  0.1936  0.1873 -0.1450
  986SOL    HW1 2957   2.159   3.087   2.305  0.0964 -0.8336  0.2563
  986SOL    HW2 2958   2.176   0.073   2.426  2.7771 -1.9017  0.3647
  987SOL     OW 2959   2.694   0.464   2.112 -0.5074  0.2748  0.1829
  987SOL    HW1 2960   2.783   0.417   2.131 -0.0192 -2.1429  0.2428
  987SOL    HW2 2961   2.633   0.466   2.196 -1.0790  3.5391  1.2387
  988SOL     OW 2962   2.576   0.445   2.356 -0.0346 -0.4523 -0.4458
  988SOL    HW1 2963   2.647   0.446   2.427  4.4361  0.5653 -0.5213
  988SOL    HW2 2964   2.535   0.537   2.362  0.7292  2.6156 -1.3931
  989SOL     OW 2965   2.117   2.490   2.422  0.1163 -0.1667  0.7984
  989SOL    HW1 2966   2.175   2.489   2.337  1.6652 -0.0517  0.3966
  989SOL    HW2 2967   2.136   2.416   2.489 -1.7322 -0.8950  1.2986
  990SOL     OW 2968   0.397   1.053   3.018  0.8353  0.1291  0.1088
  990SOL    HW1 2969   0.327   1.120   3.033  1.1676  1.8898 -0.4164
  990SOL    HW2 2970   0.411   0.987   3.093 -0.5039 -0.4862 -1.5564
  991SOL     OW 2971   0.827   1.205   2.583  0.9584  0.4911  0.6301
  991SOL    HW1 2972   0.895   1.135   2.564 -2.8886  0.4376  1.3746
  991SOL    HW2 2973   0.801   1.258   2.498  0.2088 -0.7386  0.8101
  992SOL     OW 2974   2.920   2.057   1.939 -0.2444 -0.0648 -0.1447
  992SOL    HW1 2975   2.991   2.121   1.912 -2.6583  2.1208 -0.2607
  992SOL    HW2 2976   2.959   1.971   1.971 -2.2581  2.8580  0.2158
  993SOL     OW 2977   0.621   0.149   0.858 -0.0095 -0.5163 -0.0511
  993SOL    HW1 2978   0.702   0.211   0.850 -1.8124  3.7117  0.0459
  993SOL    HW2 2979   0.629   0.070   0.796  2.0495  1.6314 -1.1620
  994SOL     OW 2980   0.387   2.064   1.529  0.0181 -0.1099  0.4615
  994SOL    HW1 2981   0.365   1.967   1.560  0.8603 -0.8335  1.7983
  994SOL    HW2 2982   0.318   2.107   1.461 -0.7903  2.1622 -2.4554
  995SOL     OW 2983   2.272   1.731   2.441  0.3974 -0.0741  0.0839
  995SOL    HW1 2984   2.340   1.679   2.385  0.0337  1.2683 -3.4568
  995SOL    HW2 2985   2.316   1.817   2.470  1.3453  1.3861  1.4963
  996SOL     OW 2986   2.059   1.415   2.707 -0.7134 -0.1341 -0.6002
  996SOL    HW1 2987   2.057   1.488   2.781  1.9459  2.8333  4.0818
  996SOL    HW2 2988   1.993   1.348   2.746  0.3901  1.7272  0.1851
  997SOL     OW 2989   1.797   1.355   1.903 -0.6341  0.0360 -0.3145
  997SOL    HW1 2990   1.775   1.269   1.952 -1.8017 -1.7183 -0.9554
  997SOL    HW2 2991   1.821   1.425   1.978  0.2315  0.8898  2.0045
  998SOL     OW 2992   2.411   2.072   0.794  0.2918 -0.1895 -0.0558
  998SOL    HW1 2993   2.342   2.094   0.724  0.6895 -0.5628 -0.6362
  998SOL    HW2 2994   2.391   1.983   0.838  2.9573  0.3959  0.2957
  999SOL     OW 2995   2.296   2.244   0.077 -0.3925  0.8225  0.2655
  999SOL    HW1 2996   2.211   2.298   0.082  0.4357  0.3874 -0.7707
  999SOL    HW2 2997   2.290   2.158   0.137 -0.5029 -3.0269  0.3680
 1000SOL     OW 2998   0.739   3.120   2.404  0.3769  0.2237  0.1485
 1000SOL    HW1 2999   0.717   0.098   2.406  0.3008  1.2100  0.0800
 1000SOL    HW2 3000   0.708   3.064   2.485  0.9131  2.7762 -3.1365
   3.12195   3.12195   3.12195
