1000 SPC/Fw water molecules t=   5.00000 step= 5000
 3000
    1SOL     OW    1   1.418   2.599   0.269 -0.4856  0.4250  0.1073
    1SOL    HW1    2   1.434   2.693   0.232  0.2042 -0.0221 -0.3052
    1SOL    HW2    3   1.338   2.599   0.321  4.8935 -0.1384 -3.9055
    2SOL     OW    4   1.505   1.069   1.691  0.3152  0.3953 -0.0230
    2SOL    HW1    5   1.538   1.013   1.609  0.4186 -1.6880 -2.8385
    2SOL    HW2    6   1.540   1.163   1.687  1.4592 -0.2459  1.6164
    3SOL     OW    7   0.674   0.122   2.623 -0.6023  0.4964 -0.1844
    3SOL    HW1    8   0.649   0.199   2.562 -0.5368  1.0893 -1.0364
    3SOL    HW2    9   0.600   0.100   2.690 -1.3786 -0.9968  3.0979
    4SOL     OW   10   1.459   1.632   2.910  0.3283 -0.2619  0.4591
    4SOL    HW1   11   1.512   1.717   2.885 -0.9002 -0.6873 -0.6122
    4SOL    HW2   12   1.438   1.630   3.009 -2.3706 -4.1024 -0.5243
    5SOL     OW   13   0.708   1.158   2.109  0.0074  0.2100  0.3143
    5SOL    HW1   14   0.719   1.053   2.106 -0.9207 -1.6358 -0.1111
    5SOL    HW2   15   0.793   1.206   2.112 -3.5966 -1.5897 -1.8785
    6SOL     OW   16   2.451   1.080   2.145  0.5419  0.1107 -0.7627
    6SOL    HW1   17   2.519   1.008   2.139 -0.3820  0.7943  0.5305
    6SOL    HW2   18   2.374   1.061   2.078 -0.8239 -0.2630 -0.5630
    7SOL     OW   19   0.219   1.019   1.082  0.4091 -0.5565 -0.0087
    7SOL    HW1   20   0.260   1.106   1.045 -0.0532 -0.2574  0.2125
    7SOL    HW2   21   0.234   0.944   1.018  0.3184 -3.6063  1.7225
    8SOL     OW   22   2.249   2.604   2.021 -0.4692 -0.0024  0.6366
    8SOL    HW1   23   2.255   2.607   1.922  0.0864 -2.1553 -0.5637
    8SOL    HW2   24   2.271   2.693   2.065 -0.0571 -3.4421  1.1052
    9SOL     OW   25   0.143   2.538   0.408 -0.3060  0.3216 -0.2908
    9SOL    HW1   26   0.188   2.464   0.456  0.6177  2.1122  0.5424
    9SOL    HW2   27   0.199   2.564   0.326  0.3870 -0.4797 -0.0994
   10SOL     OW   28   3.080   2.420   2.532 -0.3126 -0.1487 -0.1476
   10SOL    HW1   29   0.008   2.484   2.452 -0.8228 -1.5794  0.7697
   10SOL    HW2   30   0.046   2.329   2.515 -3.2085  0.7833 -0.2293
   11SOL     OW   31   0.148   1.720   0.115 -0.2758 -0.2622  0.2447
   11SOL    HW1   32   0.155   1.677   0.023  3.1123  3.0729 -1.3770
   11SOL    HW2   33   0.230   1.772   0.137 -0.8423 -1.0317  0.7548
   12SOL     OW   34   2.279   0.153   0.515 -0.6456 -0.0082  0.3631
   12SOL    HW1   35   2.286   0.214   0.600  1.1396  1.5012 -3.1670
   12SOL    HW2   36   2.374   0.119   0.477 -0.4439 -0.5295 -2.0736
   13SOL     OW   37   0.223   0.343   2.711 -0.5505  0.4649  0.1314
   13SOL    HW1   38   0.155   0.271   2.677 -1.2894 -2.9961  3.3597
   13SOL    HW2   39   0.180   0.431   2.728 -0.1465 -1.2556  0.2998
   14SOL     OW   40   1.278   0.823   1.439 -0.1442 -0.5756  0.0517
   14SOL    HW1   41   1.205   0.794   1.498  3.9269  1.7909  1.0510
   14SOL    HW2   42   1.244   0.821   1.345  0.1915 -0.6579 -0.7852
   15SOL     OW   43   0.671   1.522   2.239  0.1389  0.4952 -0.2528
   15SOL    HW1   44   0.608   1.602   2.235  0.0122  2.6650  1.6073
   15SOL    HW2   45   0.685   1.471   2.151 -1.7128 -2.0949 -2.3101
   16SOL     OW   46   1.709   1.236   2.638 -0.2715 -0.3059 -0.2958
   16SOL    HW1   47   1.649   1.155   2.630 -0.1826  0.6504  0.4882
   16SOL    HW2   48   1.759   1.252   2.550 -0.3022 -0.1507 -2.1703
   17SOL     OW   49   0.153   2.049   2.060  0.0672 -0.0696  0.1697
   17SOL    HW1   50   0.100   2.140   2.070  0.1670 -1.0402  2.0297
   17SOL    HW2   51   0.180   2.043   1.968 -0.7215 -1.2879  0.9101
   18SOL     OW   52   1.503   1.193   0.656  0.1031  0.6461  0.6625
   18SOL    HW1   53   1.560   1.111   0.665  0.5402  0.4664  0.9765
   18SOL    HW2   54   1.405   1.170   0.629 -1.8792 -1.8377  0.0808
   19SOL     OW   55   0.025   1.300   1.968 -0.4003  0.5325 -0.4676
   19SOL    HW1   56   0.120   1.325   1.935  0.1072 -0.6904  0.5600
   19SOL    HW2   57   0.022   1.219   2.030 -0.0229 -0.3065  0.8389
   20SOL     OW   58   2.002   2.163   2.942  0.0993  0.5181  0.2445
   20SOL    HW1   59   1.931   2.235   2.923  0.6948 -1.7404 -1.2695
   20SOL    HW2   60   2.008   2.134   3.039  0.7382  1.3891 -0.6472
   21SOL     OW   61   1.846   1.697   1.077  0.1094 -0.6595  0.0628
   21SOL    HW1   62   1.811   1.668   1.165  2.5213 -1.3707 -3.2884
   21SOL    HW2   63   1.945   1.697   1.079 -1.7832  1.1079 -0.1161
   22SOL     OW   64   2.021   2.176   1.377  0.0180 -0.0388 -0.0148
   22SOL    HW1   65   1.952   2.106   1.352 -1.3302  0.7354  1.5613
   22SOL    HW2   66   1.988   2.271   1.347 -3.4688  2.5496 -2.1447
   23SOL     OW   67   2.781   1.070   1.309  0.3192  0.4103  0.7430
   23SOL    HW1   68   2.832   0.979   1.324 -0.9907 -2.6744 -0.9941
   23SOL    HW2   69   2.765   1.085   1.211  0.1589  0.0470 -0.3404
   24SOL     OW   70   2.004   1.217   1.673 -0.0959  0.2433  0.4714
   24SOL    HW1   71   1.932   1.194   1.604 -2.5414  1.5726 -1.3695
   24SOL    HW2   72   2.033   1.130   1.719  2.5000 -4.3152  2.6530
   25SOL     OW   73   1.812   3.082   2.348  0.2729 -0.3876 -0.0699
   25SOL    HW1   74   1.887   0.056   2.317  0.0753  0.1569 -2.5871
   25SOL    HW2   75   1.734   0.060   2.365  1.4574  1.3342 -0.4225
   26SOL     OW   76   0.604   2.741   0.705 -0.0284  0.5442 -0.1560
   26SOL    HW1   77   0.657   2.830   0.704  1.7421  2.4412  2.2006
   26SOL    HW2   78   0.636   2.696   0.619  1.5165  1.5715  2.7381
   27SOL     OW   79   1.074   1.139   0.794 -0.8621  0.1486  0.3129
   27SOL    HW1   80   1.082   1.115   0.893  0.7300 -0.5574  1.8414
   27SOL    HW2   81   1.052   1.237   0.785 -1.2306  0.0205  1.9878
   28SOL     OW   82   1.988   2.400   1.165  0.1103 -0.1407 -0.2093
   28SOL    HW1   83   2.036   2.487   1.178 -0.3774 -1.1805 -1.1040
   28SOL    HW2   84   1.905   2.402   1.224  0.0183  1.8493  0.2245
   29SOL     OW   85   2.132   2.790   2.387 -0.1614 -0.4363  0.1349
   29SOL    HW1   86   2.159   2.693   2.390 -1.6738  0.6284  0.9779
   29SOL    HW2   87   2.097   2.816   2.478  2.4892 -1.1499  1.1974
   30SOL     OW   88   0.041   2.657   1.956 -0.0455  0.0556  0.3069
   30SOL    HW1   89   0.037   2.562   1.987  2.5578 -0.2568  1.4747
   30SOL    HW2   90   0.027   2.727   2.028 -0.2282  0.2447 -1.1666
   31SOL     OW   91   3.079   1.894   2.228  0.2778 -0.0800 -0.4100
   31SOL    HW1   92   0.054   1.947   2.162 -2.9737  4.1452  1.3221
   31SOL    HW2   93   0.028   1.795   2.240  3.2463 -1.0671 -3.5782
   32SOL     OW   94   0.900   2.264   2.217  0.3877 -0.0398 -0.7473
   32SOL    HW1   95   0.858   2.316   2.293  0.2993 -1.5000 -0.7591
   32SOL    HW2   96   0.999   2.295   2.195  1.2825  0.4569 -0.7212
   33SOL     OW   97   0.178   0.446   3.078  0.2159  0.0268  0.1742
   33SOL    HW1   98   0.151   0.546   3.068  0.8216 -1.0115 -0.0882
   33SOL    HW2   99   0.271   0.435   3.038  0.2891  0.5797  0.0310
   34SOL     OW  100   2.844   0.128   3.033 -0.3274  0.1972 -0.5085
   34SOL    HW1  101   2.850   0.064   0.026 -1.8333  0.9260 -0.1106
   34SOL    HW2  102   2.758   0.106   2.980  1.1948 -0.4480 -1.9112
   35SOL     OW  103   3.043   2.596   1.687  0.2688 -0.3734  0.4031
   35SOL    HW1  104   0.022   2.605   1.764 -0.5743 -0.0426 -3.2758
   35SOL    HW2  105   3.007   2.686   1.657  1.1731 -1.8926  0.7922
   36SOL     OW  106   2.328   3.068   2.505  0.0018  0.1646  0.0650
   36SOL    HW1  107   2.261   0.058   2.530  1.6534 -0.4341  0.3375
   36SOL    HW2  108   2.329   2.986   2.569 -0.3759 -0.5512 -0.4247
   37SOL     OW  109   1.756   2.761   0.097 -0.2362  0.5034 -0.2439
   37SOL    HW1  110   1.708   2.740   0.010 -0.9001  0.6600 -2.3919
   37SOL    HW2  111   1.691   2.755   0.179 -0.8289  1.6335  0.1462
   38SOL     OW  112   0.500   0.110   0.648 -0.0595 -0.2080  0.0626
   38SOL    HW1  113   0.422   0.171   0.618  0.1248  0.8302  0.1986
   38SOL    HW2  114   0.558   0.089   0.568 -1.7927 -0.2139  1.2487
   39SOL     OW  115   1.041   1.812   2.190  0.8865  0.6883 -0.3510
   39SOL    HW1  116   0.981   1.771   2.262 -2.2300 -1.3181  3.3814
   39SOL    HW2  117   1.102   1.882   2.227  0.7463 -2.2076 -0.7443
   40SOL     OW  118   0.069   1.015   0.245  0.6012  0.2919 -0.0212
   40SOL    HW1  119   0.021   1.006   0.154  1.7827 -1.3278  0.3945
   40SOL    HW2  120   0.010   1.057   0.316  2.1644  0.3899 -0.5344
   41SOL     OW  121   1.604   0.275   2.156 -0.0201  0.0431  0.0395
   41SOL    HW1  122   1.527   0.331   2.125  1.1374 -2.6102  3.7572
   41SOL    HW2  123   1.571   0.209   2.228 -2.0317 -0.4066 -2.5752
   42SOL     OW  124   2.503   0.076   1.175 -0.2457  0.2924 -0.6196
   42SOL    HW1  125   2.554   0.121   1.101  0.9534  0.3998  0.3526
   42SOL    HW2  126   2.490   3.058   1.177 -0.4629 -1.9938  0.7159
   43SOL     OW  127   1.523   0.448   1.329 -0.7687 -0.0876 -0.1064
   43SOL    HW1  128   1.518   0.489   1.422 -0.1784  0.5104  1.8831
   43SOL    HW2  129   1.448   0.385   1.315  0.6976 -1.6543  2.7621
   44SOL     OW  130   0.326   0.875   2.971  0.4590  0.4282 -0.0529
   44SOL    HW1  131   0.415   0.825   2.963 -3.1017  0.2380 -3.8016
   44SOL    HW2  132   0.328   0.926   3.061 -1.4832 -0.8903  2.4485
   45SOL     OW  133   0.597   1.535   1.777  0.2420 -0.4224  0.5130
   45SOL    HW1  134   0.605   1.526   1.674  4.3208 -1.2361 -1.1744
   45SOL    HW2  135   0.602   1.439   1.819  1.1705  1.2264  0.8398
   46SOL     OW  136   2.150   2.371   1.706  0.2969  0.3998 -0.2205
   46SOL    HW1  137   2.111   2.320   1.788 -1.2411  0.3356  1.7660
   46SOL    HW2  138   2.235   2.325   1.669 -0.6752 -1.6874  1.9122
   47SOL     OW  139   0.361   1.784   1.432  0.4382  0.7432  0.7482
   47SOL    HW1  140   0.398   1.858   1.362  0.0959  1.4830  0.6839
   47SOL    HW2  141   0.395   1.818   1.522  1.2814  1.2019  0.4062
   48SOL     OW  142   0.943   2.494   2.792  0.1404 -0.0767  0.2528
   48SOL    HW1  143   0.960   2.524   2.695  0.1724  2.0575 -1.0486
   48SOL    HW2  144   0.844   2.497   2.809 -0.8797 -0.5219 -2.7936
   49SOL     OW  145   2.647   1.586   1.901  0.5096  0.1069  0.4055
   49SOL    HW1  146   2.627   1.617   1.807 -4.3636  0.1475  0.7916
   49SOL    HW2  147   2.663   1.483   1.908  1.0387 -0.0700 -1.0269
   50SOL     OW  148   0.934   2.807   0.448  0.4748 -0.4109 -0.3223
   50SOL    HW1  149   1.007   2.814   0.518  3.5431  0.4917 -0.7142
   50SOL    HW2  150   0.955   2.855   0.359 -1.1359  0.8058 -0.2713
   51SOL     OW  151   1.348   0.256   1.244  0.3261 -0.1823 -0.2449
   51SOL    HW1  152   1.420   0.193   1.224 -1.9978  0.7534 -1.7245
   51SOL    HW2  153   1.266   0.244   1.178 -3.7608  0.2279 -2.4781
   52SOL     OW  154   0.253   0.821   0.555 -0.2411  0.2355 -0.2248
   52SOL    HW1  155   0.266   0.804   0.453 -0.4039  0.3627 -2.1765
   52SOL    HW2  156   0.340   0.868   0.587  1.1486 -0.9331  0.9552
   53SOL     OW  157   1.273   0.079   2.787  0.2685 -0.0072  0.4304
   53SOL    HW1  158   1.329   0.036   2.714  1.5988 -2.6663  0.0637
   53SOL    HW2  159   1.188   0.022   2.809 -1.7069 -0.8688  2.4173
   54SOL     OW  160   2.229   0.591   2.161 -0.2041 -0.1287  0.2918
   54SOL    HW1  161   2.321   0.551   2.190  1.7577 -2.4997 -2.2888
   54SOL    HW2  162   2.168   0.527   2.111  1.7199  0.2669  3.2421
   55SOL     OW  163   2.663   2.953   0.067 -0.4443 -0.5695 -0.3007
   55SOL    HW1  164   2.719   2.879   0.110 -0.2569 -0.4968  1.1740
   55SOL    HW2  165   2.683   2.942   3.056 -0.5094 -0.0794  2.1939
   56SOL     OW  166   0.843   0.305   2.184  0.5954  0.4537  0.0125
   56SOL    HW1  167   0.755   0.279   2.134 -1.4142  0.7188  2.1190
   56SOL    HW2  168   0.875   0.246   2.259  0.2333  1.0056 -2.1310
   57SOL     OW  169   1.713   0.944   2.353  0.2279 -0.4637 -0.0533
   57SOL    HW1  170   1.675   1.036   2.334  1.3835 -1.5040  2.8300
   57SOL    HW2  171   1.783   0.918   2.286 -1.6443  0.5133 -0.0927
   58SOL     OW  172   0.049   1.017   2.019  0.2328  0.0826 -0.0569
   58SOL    HW1  173   0.101   1.002   1.932  0.0138 -1.6042 -1.8775
   58SOL    HW2  174   0.076   0.925   2.064  0.6389 -3.2920  1.1767
   59SOL     OW  175   0.668   2.749   1.842  0.0667 -0.0354  0.3535
   59SOL    HW1  176   0.594   2.815   1.835 -0.9353  0.0881 -1.5147
   59SOL    HW2  177   0.754   2.803   1.839  1.3708 -1.3369  0.8055
   60SOL     OW  178   2.088   2.971   0.304  0.0056  0.3491  0.3619
   60SOL    HW1  179   2.042   2.949   0.394 -0.0285 -0.9035  0.2379
   60SOL    HW2  180   2.188   2.996   0.313  1.7420  0.4412  3.1568
   61SOL     OW  181   1.524   2.332   0.328  0.3885  0.2362  0.0684
   61SOL    HW1  182   1.512   2.316   0.426  2.1406  2.5531  0.0193
   61SOL    HW2  183   1.492   2.421   0.296 -0.4875 -1.8346  1.2111
   62SOL     OW  184   2.037   2.562   2.985  0.2888 -0.7721  0.0477
   62SOL    HW1  185   1.953   2.504   2.990 -1.2264  0.2530 -1.7695
   62SOL    HW2  186   2.038   2.633   3.059 -1.0669 -2.9257 -2.4854
   63SOL     OW  187   2.484   0.748   0.601 -0.1161  0.2908  0.2221
   63SOL    HW1  188   2.508   0.786   0.511  0.3515 -1.1884  0.2891
   63SOL    HW2  189   2.397   0.786   0.642 -1.4593  3.2763  2.2980
   64SOL     OW  190   1.635   1.001   2.998  0.3194 -0.3225  0.1585
   64SOL    HW1  191   1.636   1.074   3.067 -0.5004 -0.4580  0.4914
   64SOL    HW2  192   1.536   0.972   2.983 -2.2357 -0.5601 -0.0169
   65SOL     OW  193   0.565   2.225   1.601  0.1456  0.2256  0.3248
   65SOL    HW1  194   0.511   2.274   1.534  0.0737 -0.5959  1.2404
   65SOL    HW2  195   0.529   2.234   1.696  0.4633 -0.9333  0.1861
   66SOL     OW  196   0.922   1.257   1.279 -0.3724  0.2251  0.4212
   66SOL    HW1  197   0.928   1.160   1.252 -4.6959  2.6386 -1.1165
   66SOL    HW2  198   0.905   1.318   1.198  0.1922  1.1129 -1.3666
   67SOL     OW  199   2.200   1.912   1.987  0.2560 -0.3385 -0.1548
   67SOL    HW1  200   2.295   1.882   1.976 -2.9368  0.6450  1.1980
   67SOL    HW2  201   2.152   1.852   2.054  1.0096 -1.4063 -2.6058
   68SOL     OW  202   1.093   1.688   1.792 -0.0092 -0.3900 -0.1220
   68SOL    HW1  203   1.098   1.627   1.711  1.2479  1.5046  1.5712
   68SOL    HW2  204   1.028   1.655   1.868 -2.4514 -1.3713  0.9541
   69SOL     OW  205   2.854   0.377   0.071 -0.2191  0.3470  0.2866
   69SOL    HW1  206   2.830   0.335   0.159  2.1173 -1.6867  2.3790
   69SOL    HW2  207   2.856   0.298   0.005 -3.8724 -1.6195 -0.6492
   70SOL     OW  208   2.309   1.167   2.352  0.0773 -0.2515  0.7204
   70SOL    HW1  209   2.383   1.136   2.290  0.3244 -2.4271  1.7011
   70SOL    HW2  210   2.243   1.090   2.373  3.1523 -1.9173 -0.9942
   71SOL     OW  211   0.925   2.026   0.720 -0.1387 -0.2109 -0.0931
   71SOL    HW1  212   0.947   2.002   0.625  0.6533  0.7457  0.4419
   71SOL    HW2  213   1.002   2.079   0.766 -1.3199  0.0517  0.8073
   72SOL     OW  214   2.324   1.764   0.554  0.2680 -0.4492  0.2759
   72SOL    HW1  215   2.228   1.740   0.586 -0.4736  1.6842  1.1832
   72SOL    HW2  216   2.341   1.862   0.579 -0.6429  0.7692  0.4118
   73SOL     OW  217   1.230   0.891   0.803  0.2348  0.1560  0.5040
   73SOL    HW1  218   1.193   0.983   0.816 -0.9664  2.3692 -2.3620
   73SOL    HW2  219   1.185   0.846   0.721  1.2065  1.4432  1.2526
   74SOL     OW  220   2.455   2.118   2.186 -0.6383 -0.0756  0.0791
   74SOL    HW1  221   2.482   2.043   2.248 -0.7282  0.6708  0.3207
   74SOL    HW2  222   2.519   2.117   2.106  0.1124  0.1702  0.1279
   75SOL     OW  223   1.552   1.666   2.005  0.3977  0.7809  0.0404
   75SOL    HW1  224   1.465   1.613   1.981 -0.1585  0.1692 -1.2860
   75SOL    HW2  225   1.616   1.604   2.048  0.3607  1.8166 -3.0836
   76SOL     OW  226   1.268   1.624   1.092 -0.0500  0.2714  0.4445
   76SOL    HW1  227   1.210   1.673   1.026  2.5427  0.1956  1.3452
   76SOL    HW2  228   1.365   1.623   1.058 -0.6353 -1.7571 -1.9309
   77SOL     OW  229   2.383   1.117   1.550 -0.1897 -0.3185 -0.3515
   77SOL    HW1  230   2.425   1.178   1.480 -2.6105  0.9142 -0.0190
   77SOL    HW2  231   2.290   1.145   1.572 -0.2746 -2.7493 -2.3327
   78SOL     OW  232   1.790   0.690   0.337 -0.1698 -0.3508  0.3284
   78SOL    HW1  233   1.810   0.712   0.237  0.7579  0.2250 -1.5076
   78SOL    HW2  234   1.689   0.693   0.355 -3.4277  0.2012 -0.2732
   79SOL     OW  235   0.988   1.590   2.019  0.4323  0.3827 -0.8719
   79SOL    HW1  236   1.026   1.670   2.073 -0.3310  2.6327  1.6520
   79SOL    HW2  237   0.888   1.619   2.002 -0.4347  0.2822  1.8211
   80SOL     OW  238   1.044   0.295   1.375 -0.3459  0.0576  0.4549
   80SOL    HW1  239   1.055   0.392   1.363 -0.3218 -1.9944  1.5819
   80SOL    HW2  240   1.105   0.262   1.453 -2.0268  0.0509  0.3213
   81SOL     OW  241   0.449   2.521   0.286  0.2392  0.0617  0.4030
   81SOL    HW1  242   0.538   2.521   0.243 -1.8596 -0.8629 -0.6833
   81SOL    HW2  243   0.459   2.525   0.387 -0.4905  1.5654 -0.3253
   82SOL     OW  244   1.177   0.181   1.587 -0.3940 -0.3286  0.0138
   82SOL    HW1  245   1.186   0.222   1.678  0.2421  2.7335 -0.2860
   82SOL    HW2  246   1.256   0.115   1.577 -0.6213  1.7064  2.6747
   83SOL     OW  247   0.363   2.301   1.065  0.1996 -0.5125 -0.2440
   83SOL    HW1  248   0.294   2.290   1.140 -1.9191 -1.0830  1.4842
   83SOL    HW2  249   0.320   2.344   0.983  0.1281 -0.2035 -3.0332
   84SOL     OW  250   2.639   1.390   0.954 -0.6384  0.1601 -0.0099
   84SOL    HW1  251   2.631   1.292   0.981 -0.9596 -0.9143  0.6868
   84SOL    HW2  252   2.733   1.402   0.912  0.1897  2.0256  1.5026
   85SOL     OW  253   2.276   2.071   1.227 -0.2279  0.1946  0.0326
   85SOL    HW1  254   2.182   2.047   1.245  4.8860 -0.7323 -0.7112
   85SOL    HW2  255   2.334   1.995   1.184 -1.1882  0.4589  0.5271
   86SOL     OW  256   1.316   2.176   2.093  0.2002  0.0210  1.1192
   86SOL    HW1  257   1.255   2.134   2.021 -1.0301 -0.5400 -2.1523
   86SOL    HW2  258   1.406   2.204   2.050  1.0936 -0.6999  0.6642
   87SOL     OW  259   2.366   1.328   0.828  0.2637 -0.3230 -0.5542
   87SOL    HW1  260   2.308   1.365   0.756  0.4112 -1.6051 -3.0007
   87SOL    HW2  261   2.455   1.381   0.833  3.0118  2.2377  0.3541
   88SOL     OW  262   0.461   3.039   1.082  0.0783  0.6309 -0.5835
   88SOL    HW1  263   0.414   3.048   0.988 -0.4732  1.2424 -2.1418
   88SOL    HW2  264   0.564   3.058   1.077  0.5313 -0.0571 -0.9275
   89SOL     OW  265   0.626   1.068   1.534  0.1461  0.6449 -0.8632
   89SOL    HW1  266   0.729   1.066   1.557  2.9362  0.7155  0.5327
   89SOL    HW2  267   0.608   1.032   1.443  2.0949  1.7400  0.8190
   90SOL     OW  268   2.651   1.987   0.365 -0.9715  0.5021  0.1432
   90SOL    HW1  269   2.630   2.079   0.402  0.6703 -2.6583 -1.5180
   90SOL    HW2  270   2.725   1.936   0.412  0.9327  1.3859 -0.2393
   91SOL     OW  271   0.844   1.856   0.943 -0.3215 -0.9842 -0.5609
   91SOL    HW1  272   0.849   1.953   0.904 -1.4740  0.3473 -2.2425
   91SOL    HW2  273   0.786   1.847   1.026  2.1033 -2.2523  2.7667
   92SOL     OW  274   2.083   2.955   1.913  0.1702  0.5080 -0.0830
   92SOL    HW1  275   2.163   3.010   1.927 -1.8222 -2.4507  1.2438
   92SOL    HW2  276   2.059   2.912   2.004 -0.5923 -1.0588 -1.2609
   93SOL     OW  277   0.333   1.867   2.947 -0.2516 -0.2561 -0.1911
   93SOL    HW1  278   0.426   1.833   2.969 -2.1570 -0.5376  0.9654
   93SOL    HW2  279   0.281   1.807   2.884  0.9452  0.0764  2.1841
   94SOL     OW  280   2.300   3.076   1.997  0.1909 -0.4719 -0.6304
   94SOL    HW1  281   2.259   0.073   2.050 -3.9458  1.5652  2.4722
   94SOL    HW2  282   2.385   0.009   1.952 -3.0539 -0.2409  3.0073
   95SOL     OW  283   1.830   3.051   1.858  0.0781 -0.2874  0.1279
   95SOL    HW1  284   1.922   3.014   1.873  2.6481 -1.0916  2.7041
   95SOL    HW2  285   1.774   2.970   1.875  0.3659 -0.2626 -0.5721
   96SOL     OW  286   0.496   0.637   2.136 -0.2966  0.0513 -0.0068
   96SOL    HW1  287   0.433   0.609   2.206  1.0042  1.5317 -0.3223
   96SOL    HW2  288   0.465   0.715   2.083 -0.4013 -1.9975 -0.1141
   97SOL     OW  289   2.010   2.876   1.455 -0.1040  0.2980 -0.3609
   97SOL    HW1  290   1.920   2.925   1.454  0.4177  3.9782 -1.2922
   97SOL    HW2  291   2.002   2.787   1.404 -0.4372 -2.8183 -2.6144
   98SOL     OW  292   1.695   2.137   1.608  0.2504 -0.2819  0.3815
   98SOL    HW1  293   1.735   2.191   1.681  0.1783  0.2851  1.0438
   98SOL    HW2  294   1.714   2.038   1.625 -2.3088  0.7620 -0.5779
   99SOL     OW  295   0.430   0.652   0.971  0.7601  0.6838 -0.4208
   99SOL    HW1  296   0.400   0.734   0.919  0.3132 -1.5269 -1.5170
   99SOL    HW2  297   0.492   0.597   0.907 -0.6321 -2.0299 -1.6711
  100SOL     OW  298   2.874   1.973   2.024 -0.7463  1.1137 -0.2002
  100SOL    HW1  299   2.900   1.878   2.036  1.4154 -1.9631 -1.1274
  100SOL    HW2  300   2.875   2.025   2.110 -0.4083  0.6234  1.5775
  101SOL     OW  301   1.257   0.201   3.061 -0.1395 -0.1568  0.2246
  101SOL    HW1  302   1.305   0.294   3.067  2.6499  0.2341  0.0993
  101SOL    HW2  303   1.279   0.148   2.978 -0.8011  0.5102  0.3106
  102SOL     OW  304   2.947   3.065   1.277  0.2826 -0.0709  0.0022
  102SOL    HW1  305   3.033   0.013   1.234 -0.6223  0.2571  1.0628
  102SOL    HW2  306   2.883   0.057   1.298 -1.7419 -0.4874  1.8364
  103SOL     OW  307   0.081   2.864   2.435  0.0057  0.8093  0.2125
  103SOL    HW1  308   0.161   2.928   2.450 -0.1146 -0.8462  0.2431
  103SOL    HW2  309   0.003   2.916   2.390 -3.6005 -0.4314 -0.6399
  104SOL     OW  310   0.404   2.345   1.397 -0.5922  0.0210  0.4028
  104SOL    HW1  311   0.457   2.431   1.391  0.6414  3.3654  0.4681
  104SOL    HW2  312   0.324   2.355   1.337  1.6357 -2.0244  1.1674
  105SOL     OW  313   0.535   1.742   2.153  0.2139 -1.3322 -0.0115
  105SOL    HW1  314   0.440   1.738   2.120  0.5407 -0.8181 -0.0428
  105SOL    HW2  315   0.540   1.824   2.221  0.7310  0.1573  0.5348
  106SOL     OW  316   2.516   2.846   0.576 -0.1771 -0.2618 -0.5680
  106SOL    HW1  317   2.482   2.752   0.610 -0.2566  0.7080 -2.0629
  106SOL    HW2  318   2.610   2.864   0.601  2.3991  1.6511  0.6790
  107SOL     OW  319   0.617   1.144   0.941  0.7175 -0.1518  0.3290
  107SOL    HW1  320   0.569   1.182   1.021 -1.5366  1.1151  0.5836
  107SOL    HW2  321   0.664   1.054   0.965 -1.4908  0.9208  1.6046
  108SOL     OW  322   2.869   1.116   1.965  0.1133 -0.3924  0.3443
  108SOL    HW1  323   2.813   1.202   1.964 -0.9383  2.9271 -0.6114
  108SOL    HW2  324   2.971   1.133   1.967 -2.8895 -0.4081  0.0126
  109SOL     OW  325   2.021   2.766   0.110 -0.2725  0.3408  0.0391
  109SOL    HW1  326   2.059   2.837   0.170  0.0454 -0.5843  0.5378
  109SOL    HW2  327   1.923   2.776   0.093  1.6149  1.7437 -1.9933
  110SOL     OW  328   0.143   2.059   2.999  0.2768 -0.0402 -0.0237
  110SOL    HW1  329   0.235   2.025   3.009 -1.1196  0.3816  1.0461
  110SOL    HW2  330   0.078   1.982   2.996  1.8268  0.7806 -0.9046
  111SOL     OW  331   2.883   0.803   2.609  0.2747 -0.2569  0.3475
  111SOL    HW1  332   2.800   0.810   2.548  0.3194  0.3197  0.6713
  111SOL    HW2  333   2.961   0.860   2.576 -0.2857  1.4441 -3.5428
  112SOL     OW  334   2.294   2.609   1.753  0.0368  0.8798 -0.1236
  112SOL    HW1  335   2.247   2.690   1.718  0.6053 -2.5618 -1.8271
  112SOL    HW2  336   2.236   2.523   1.733  1.3098 -1.0022 -0.3023
  113SOL     OW  337   2.237   1.869   2.752 -0.2240 -0.0011 -0.4527
  113SOL    HW1  338   2.287   1.797   2.799 -0.3004 -0.7870  1.0971
  113SOL    HW2  339   2.145   1.827   2.727 -0.8455 -4.1714 -0.9248
  114SOL     OW  340   0.702   0.034   0.478  0.2832 -0.2308 -0.6118
  114SOL    HW1  341   0.704   3.052   0.555  1.3281  2.9161  0.2435
  114SOL    HW2  342   0.771   0.102   0.491  1.6645 -0.4342  2.3420
  115SOL     OW  343   3.008   1.774   2.871  0.5311  0.3287 -0.0850
  115SOL    HW1  344   2.923   1.715   2.854  1.1090 -1.5985 -0.4355
  115SOL    HW2  345   2.998   1.833   2.956  1.4988  1.9030  0.7272
  116SOL     OW  346   2.952   1.356   1.746  0.5269  0.3345  0.0693
  116SOL    HW1  347   3.003   1.317   1.825 -0.2092  1.5482  1.3675
  116SOL    HW2  348   2.951   1.457   1.758 -0.3878 -0.0061  0.6329
  117SOL     OW  349   2.005   0.139   1.449  0.0564 -0.1630  0.1821
  117SOL    HW1  350   1.959   0.089   1.522 -0.3135  1.4598  0.3241
  117SOL    HW2  351   1.937   0.190   1.390  0.2685 -1.7977  0.4088
  118SOL     OW  352   2.793   2.429   2.116  0.0009  0.0471  0.1805
  118SOL    HW1  353   2.769   2.448   2.018  1.6662  1.0687 -1.9663
  118SOL    HW2  354   2.845   2.509   2.143 -0.4481  0.8811 -1.6631
  119SOL     OW  355   0.334   1.629   1.713  0.0397 -0.1004 -1.0648
  119SOL    HW1  356   0.327   1.635   1.610 -1.6906  0.3762 -1.9022
  119SOL    HW2  357   0.427   1.599   1.746  0.5929 -0.4985 -2.2798
  120SOL     OW  358   0.276   1.370   1.863 -0.1090  0.1057  0.8712
  120SOL    HW1  359   0.356   1.306   1.830  0.0450  0.7306 -0.9527
  120SOL    HW2  360   0.288   1.458   1.810  0.5626  0.0236 -2.3660
  121SOL     OW  361   1.689   1.000   0.654 -0.5153 -0.1456  0.0073
  121SOL    HW1  362   1.608   0.939   0.648  3.0486  3.6822 -0.0217
  121SOL    HW2  363   1.778   0.958   0.627  0.6814  0.3481 -0.8649
  122SOL     OW  364   2.378   2.368   2.712 -0.4307  0.1050  0.1713
  122SOL    HW1  365   2.352   2.420   2.628 -0.4553 -3.3393  0.5392
  122SOL    HW2  366   2.320   2.285   2.710 -0.0236 -0.6769 -2.3074
  123SOL     OW  367   0.033   0.302   0.446 -0.1965 -0.2743 -0.5336
  123SOL    HW1  368   3.064   0.371   0.499 -0.3216  0.1176  2.6048
  123SOL    HW2  369   3.070   0.213   0.430 -0.4349 -0.1225  0.4465
  124SOL     OW  370   1.687   1.243   0.077  0.4510 -0.6403  0.0967
  124SOL    HW1  371   1.684   1.281   3.066 -0.8966 -2.9363 -2.4877
  124SOL    HW2  372   1.773   1.270   0.126 -0.5899 -0.9945  1.7190
  125SOL     OW  373   3.034   0.710   2.206 -0.2504  0.4935 -0.5378
  125SOL    HW1  374   3.026   0.643   2.284  2.0002  0.4697  0.4952
  125SOL    HW2  375   0.045   0.718   2.173  0.1332 -3.8292 -2.1687
  126SOL     OW  376   2.872   2.737   0.116 -0.3041 -0.0910  0.2449
  126SOL    HW1  377   2.888   2.681   0.034  0.5899 -2.7293 -1.2463
  126SOL    HW2  378   2.928   2.704   0.193 -0.4164  1.6270 -1.4921
  127SOL     OW  379   2.504   1.855   0.164 -0.3221  0.0645 -0.7396
  127SOL    HW1  380   2.545   1.905   0.245  2.8830 -0.4934 -0.4823
  127SOL    HW2  381   2.477   1.923   0.093  1.4625  0.1438  0.8508
  128SOL     OW  382   0.846   0.954   0.780 -0.3132 -0.4298  0.3682
  128SOL    HW1  383   0.907   1.034   0.763  1.2047 -1.0344 -0.5448
  128SOL    HW2  384   0.828   0.950   0.878  0.0320 -0.4058 -2.8132
  129SOL     OW  385   2.145   2.233   1.021 -0.0841  0.0964  0.2110
  129SOL    HW1  386   2.213   2.187   1.084  1.7307  0.2293  2.4408
  129SOL    HW2  387   2.083   2.296   1.075  0.7909 -0.0496 -3.3764
  130SOL     OW  388   2.007   0.836   0.151 -0.5365  0.2365  0.1005
  130SOL    HW1  389   2.042   0.861   0.057 -0.9574  0.7510 -1.5365
  130SOL    HW2  390   1.911   0.819   0.144  3.1088 -1.8842 -2.0849
  131SOL     OW  391   2.973   1.813   2.476  0.4101  0.3238 -0.0450
  131SOL    HW1  392   2.987   1.866   2.392  0.0126  0.0822 -1.7295
  131SOL    HW2  393   2.975   1.882   2.548 -2.3982 -3.5378 -1.0168
  132SOL     OW  394   1.113   1.152   1.801  0.1996  0.1422  0.7451
  132SOL    HW1  395   1.146   1.138   1.703  0.9016 -0.1676 -1.0785
  132SOL    HW2  396   1.019   1.194   1.801  0.9395  0.4058  2.6200
  133SOL     OW  397   0.384   1.131   0.778  0.0882  0.2820  0.4211
  133SOL    HW1  398   0.472   1.156   0.825  0.3403  1.9341 -1.6080
  133SOL    HW2  399   0.314   1.201   0.789  0.7364 -1.2683  0.3248
  134SOL     OW  400   2.880   1.622   0.078  0.0286  0.8402  0.4024
  134SOL    HW1  401   2.931   1.655   0.157 -1.8636 -0.1793 -2.2727
  134SOL    HW2  402   2.940   1.568   0.012 -1.0663  0.6593  0.4410
  135SOL     OW  403   1.734   0.816   0.084 -0.0410  0.5884  0.3794
  135SOL    HW1  404   1.693   0.895   0.031 -1.7564  0.1298 -0.1803
  135SOL    HW2  405   1.707   0.728   0.038 -0.8854 -0.0135 -1.2409
  136SOL     OW  406   2.163   2.069   1.592 -0.2784  0.1031  0.5243
  136SOL    HW1  407   2.093   2.029   1.655  2.8621 -0.6095 -0.5335
  136SOL    HW2  408   2.121   2.124   1.523  1.5908 -2.1703 -0.2961
  137SOL     OW  409   2.170   2.567   0.714  0.3013  0.5423 -0.5688
  137SOL    HW1  410   2.156   2.639   0.785 -1.9242  0.4193  1.5220
  137SOL    HW2  411   2.092   2.564   0.646 -1.4363  0.7122 -2.2244
  138SOL     OW  412   2.266   0.254   1.815 -0.2528 -0.1357  0.1759
  138SOL    HW1  413   2.169   0.238   1.840  1.2731  1.8969  0.6354
  138SOL    HW2  414   2.293   0.206   1.725  1.8943 -1.3130 -0.7301
  139SOL     OW  415   2.741   2.576   2.841  0.0798 -0.2209 -0.3399
  139SOL    HW1  416   2.713   2.484   2.808  1.7872 -0.4256  1.0518
  139SOL    HW2  417   2.764   2.635   2.763 -2.1375  1.1099  1.7026
  140SOL     OW  418   1.612   1.963   2.625  0.5208 -0.0617 -0.1560
  140SOL    HW1  419   1.666   2.043   2.598 -1.1593 -0.9634  1.2839
  140SOL    HW2  420   1.582   1.905   2.547  0.2066  1.1037  1.9776
  141SOL     OW  421   1.139   1.305   2.499  0.4358  0.0077  0.3760
  141SOL    HW1  422   1.091   1.267   2.582  0.2374 -0.1221 -1.4414
  141SOL    HW2  423   1.240   1.304   2.525 -0.5663 -1.7638  0.2362
  142SOL     OW  424   2.014   2.519   2.117 -0.3221 -0.0577 -0.4534
  142SOL    HW1  425   2.016   2.423   2.087 -0.6162 -0.6503 -0.6701
  142SOL    HW2  426   2.101   2.567   2.079  0.0261 -1.5932 -0.2505
  143SOL     OW  427   0.953   2.414   0.456  0.1646 -0.2138  0.0887
  143SOL    HW1  428   1.009   2.425   0.539 -0.3934 -1.4962  0.4642
  143SOL    HW2  429   0.934   2.316   0.438  0.1407  0.0278  3.5178
  144SOL     OW  430   0.707   2.619   0.487  0.5792  0.1098 -0.0413
  144SOL    HW1  431   0.785   2.683   0.468 -0.9318  2.0056 -0.7245
  144SOL    HW2  432   0.742   2.526   0.494 -2.1141  3.2004  0.2111
  145SOL     OW  433   1.804   2.346   2.953  0.2118  0.7322 -0.3496
  145SOL    HW1  434   1.724   2.369   2.891 -2.6487 -0.6300 -2.9974
  145SOL    HW2  435   1.769   2.342   3.051 -0.6125  0.0207 -3.8093
  146SOL     OW  436   2.000   2.542   0.272  0.0331 -0.0352  0.1312
  146SOL    HW1  437   2.018   2.615   0.203  1.6492 -0.1307  0.2027
  146SOL    HW2  438   2.052   2.457   0.246  1.1789 -1.2616  0.9637
  147SOL     OW  439   0.099   1.660   1.885  0.8727  0.0512 -0.1488
  147SOL    HW1  440   0.161   1.653   1.806 -1.1141 -0.2910  2.0818
  147SOL    HW2  441   3.083   1.671   1.852 -3.1343  0.3353 -0.2538
  148SOL     OW  442   1.424   2.891   0.133  0.3274  0.4806 -0.0423
  148SOL    HW1  443   1.429   2.990   0.145  1.0240  2.1477 -0.1219
  148SOL    HW2  444   1.341   2.868   0.077 -0.8163  2.0855 -2.0974
  149SOL     OW  445   0.503   2.047   0.088  0.4288 -0.3451 -0.0999
  149SOL    HW1  446   0.564   2.084   0.015 -1.5376  0.3464 -0.9841
  149SOL    HW2  447   0.460   2.123   0.142  0.7057  1.3669  0.6727
  150SOL     OW  448   0.485   2.587   1.305 -0.8659 -0.1107 -0.7253
  150SOL    HW1  449   0.587   2.581   1.327  0.0340 -0.3918  0.8664
  150SOL    HW2  450   0.459   2.653   1.238  1.1227 -1.6821  1.0065
  151SOL     OW  451   0.168   1.505   3.001 -0.2070  0.7115  0.1616
  151SOL    HW1  452   0.174   1.494   2.901 -0.5002 -2.5925  0.7434
  151SOL    HW2  453   0.254   1.486   3.046 -0.7868  0.5592  1.3493
  152SOL     OW  454   2.883   2.049   0.805 -0.3289 -0.3932  0.1200
  152SOL    HW1  455   2.838   1.957   0.791  1.7861  3.9547 -0.2897
  152SOL    HW2  456   2.815   2.129   0.799 -1.4158  1.1412 -1.7343
  153SOL     OW  457   1.515   2.215   0.568 -0.2839 -0.3203 -0.3300
  153SOL    HW1  458   1.600   2.162   0.544  0.7782 -0.0566 -0.1476
  153SOL    HW2  459   1.431   2.160   0.584  0.1596  2.4858 -1.2701
  154SOL     OW  460   0.790   0.014   1.504  0.4762  0.1429 -0.7657
  154SOL    HW1  461   0.783   3.006   1.464  0.4479 -0.3772  5.4781
  154SOL    HW2  462   0.695   0.053   1.490 -0.2176  0.5862  1.5282
  155SOL     OW  463   2.588   2.234   0.468 -0.4116  0.0012 -0.0594
  155SOL    HW1  464   2.649   2.314   0.498 -1.2131  0.2978  0.7753
  155SOL    HW2  465   2.506   2.271   0.426 -3.1619  0.5511  4.5435
  156SOL     OW  466   2.364   2.116   0.180 -0.5419 -0.5038 -0.4070
  156SOL    HW1  467   2.418   2.119   0.095 -2.1050 -0.1844  0.9197
  156SOL    HW2  468   2.385   2.196   0.238 -2.1463 -0.0544 -1.0735
  157SOL     OW  469   0.691   3.073   1.976 -1.1176 -0.6133 -0.5463
  157SOL    HW1  470   0.651   0.073   2.015 -0.1011  2.1509 -2.0309
  157SOL    HW2  471   0.726   3.013   2.050 -0.2146  4.2482  0.7110
  158SOL     OW  472   1.049   0.580   1.095  0.3951  0.2969  0.3960
  158SOL    HW1  473   1.136   0.621   1.048  1.9191 -0.4883 -1.9676
  158SOL    HW2  474   1.067   0.569   1.196  0.0138  0.6626  2.7404
  159SOL     OW  475   1.846   1.064   2.847 -0.5237  0.7316  0.2258
  159SOL    HW1  476   1.805   1.119   2.776  1.2079  0.6027  2.0321
  159SOL    HW2  477   1.764   1.014   2.894  0.8793  0.6932  0.2793
  160SOL     OW  478   1.093   1.962   0.481  0.3736  0.0646  0.4352
  160SOL    HW1  479   1.020   1.986   0.415  1.6456 -1.2288 -0.0974
  160SOL    HW2  480   1.140   1.881   0.447 -1.4860  1.7721 -0.5879
  161SOL     OW  481   2.608   2.138   2.642 -0.1843  0.1206  0.3336
  161SOL    HW1  482   2.677   2.139   2.566 -0.8436  1.3463 -0.7532
  161SOL    HW2  483   2.542   2.065   2.619 -0.1522  1.2278 -1.0170
  162SOL     OW  484   0.156   2.314   1.268 -0.4027  0.0648  0.0089
  162SOL    HW1  485   0.147   2.410   1.302 -0.6383  0.4055  2.1680
  162SOL    HW2  486   0.069   2.260   1.257 -3.0190 -0.3919  0.0776
  163SOL     OW  487   0.483   0.932   2.624  0.2709 -0.6457  0.1354
  163SOL    HW1  488   0.536   1.019   2.637 -1.3605  2.1166 -0.0434
  163SOL    HW2  489   0.457   0.896   2.715 -0.0782  3.3608 -0.1467
  164SOL     OW  490   0.224   2.510   2.707 -0.3149 -0.5292 -0.4425
  164SOL    HW1  491   0.138   2.474   2.746  1.6911  0.6106  1.4260
  164SOL    HW2  492   0.212   2.600   2.657 -0.3989  0.0250  0.6667
  165SOL     OW  493   2.432   0.839   1.544 -1.1000 -0.2546  0.3081
  165SOL    HW1  494   2.433   0.944   1.541 -1.5809  2.2509 -1.2645
  165SOL    HW2  495   2.507   0.800   1.601  0.1277 -1.9693 -0.6140
  166SOL     OW  496   2.075   1.662   1.390  0.1515  0.2178  0.6976
  166SOL    HW1  497   2.142   1.734   1.419  0.5198  1.5479  1.2121
  166SOL    HW2  498   2.082   1.574   1.437 -0.8898  1.3943  0.4643
  167SOL     OW  499   0.114   0.698   3.040  0.8173 -0.1543 -0.7435
  167SOL    HW1  500   0.038   0.762   3.022  0.6312 -0.8277  1.3979
  167SOL    HW2  501   0.196   0.753   3.049 -1.6137 -4.2696  0.8766
  168SOL     OW  502   2.089   0.352   2.822  0.5258  0.4399  0.1231
  168SOL    HW1  503   2.025   0.428   2.805  0.1305  0.4094  1.2177
  168SOL    HW2  504   2.076   0.312   2.915  2.0829  1.4332  0.3974
  169SOL     OW  505   0.414   1.234   2.959  0.3178 -0.0953  0.3063
  169SOL    HW1  506   0.423   1.313   3.018  0.7758  0.1898 -1.4578
  169SOL    HW2  507   0.317   1.216   2.934  3.8157  0.9727 -0.3602
  170SOL     OW  508   1.169   1.126   1.528  0.3386  0.3793 -0.0704
  170SOL    HW1  509   1.235   1.050   1.509 -0.3364  2.3166 -2.2108
  170SOL    HW2  510   1.194   1.210   1.472 -1.0856 -0.7480 -1.6594
  171SOL     OW  511   1.556   2.674   1.119  0.2409 -0.4956 -0.1830
  171SOL    HW1  512   1.569   2.607   1.198 -2.7271 -0.8064  2.0566
  171SOL    HW2  513   1.477   2.741   1.153 -2.9244  0.2064 -2.8394
  172SOL     OW  514   1.078   3.063   1.892 -0.0209 -0.0092  0.2712
  172SOL    HW1  515   0.992   3.031   1.847 -0.1453 -0.7883  0.8522
  172SOL    HW2  516   1.135   2.980   1.902 -0.1980 -1.0090 -1.6845
  173SOL     OW  517   0.739   2.445   0.798  0.1255 -0.0370  0.0899
  173SOL    HW1  518   0.829   2.491   0.798 -1.0743 -1.4342 -0.3000
  173SOL    HW2  519   0.679   2.497   0.864  0.4207 -0.5309  1.0130
  174SOL     OW  520   2.194   0.298   0.305  0.6467  0.1036 -0.1851
  174SOL    HW1  521   2.204   0.228   0.233  1.7968  2.9969 -0.5031
  174SOL    HW2  522   2.213   0.255   0.396  2.1913 -1.1323  1.2619
  175SOL     OW  523   0.979   1.418   0.858  0.1309 -0.3615 -0.2635
  175SOL    HW1  524   1.021   1.507   0.825  0.3948  0.4346 -1.8233
  175SOL    HW2  525   0.906   1.380   0.804  0.0326 -1.4311 -0.0179
  176SOL     OW  526   1.115   1.817   0.920  0.1781  0.0278 -0.3830
  176SOL    HW1  527   1.167   1.881   0.978  1.1255  0.9262 -0.5461
  176SOL    HW2  528   1.013   1.834   0.926  2.0976  0.9437  2.3001
  177SOL     OW  529   1.408   0.965   1.078  0.1375  0.1516  0.4304
  177SOL    HW1  530   1.430   0.882   1.132  0.6959  1.2582  0.9259
  177SOL    HW2  531   1.487   0.976   1.009  2.0836 -3.0217  0.6362
  178SOL     OW  532   2.243   1.390   0.587  0.5136  0.2307 -0.3996
  178SOL    HW1  533   2.286   1.451   0.514  2.3232  2.4444 -0.2246
  178SOL    HW2  534   2.140   1.372   0.565 -2.9754 -1.0026  0.4004
  179SOL     OW  535   1.221   2.807   3.027  0.4405  0.1066 -0.4197
  179SOL    HW1  536   1.152   2.814   0.019  0.2898  0.4078 -1.5904
  179SOL    HW2  537   1.209   2.721   2.973  1.5534  1.1692  1.6379
  180SOL     OW  538   1.872   1.247   1.425  0.4181 -0.0443  0.0865
  180SOL    HW1  539   1.848   1.339   1.466 -1.2553 -0.0733  0.6708
  180SOL    HW2  540   1.963   1.249   1.391 -1.0342 -0.4648 -0.9608
  181SOL     OW  541   0.903   1.035   1.610 -0.4182 -0.3424  0.9629
  181SOL    HW1  542   0.987   1.088   1.576  0.5433  1.9806 -2.3314
  181SOL    HW2  543   0.910   1.013   1.709  0.9134 -0.3407 -1.3140
  182SOL     OW  544   2.989   1.011   0.017 -0.0706 -0.0192  0.3627
  182SOL    HW1  545   2.967   1.019   3.003  0.8186 -2.6825 -1.3221
  182SOL    HW2  546   2.951   1.092   0.063  0.3956 -0.5961 -0.9053
  183SOL     OW  547   1.728   0.207   1.922 -0.4718 -0.3993 -0.2707
  183SOL    HW1  548   1.747   0.107   1.906 -3.9616 -1.7253  0.1753
  183SOL    HW2  549   1.679   0.215   2.005  1.5610  3.5907 -3.6883
  184SOL     OW  550   0.789   0.656   1.042 -0.0912 -0.1056  0.2975
  184SOL    HW1  551   0.882   0.626   1.069  0.3136 -0.1245 -0.3820
  184SOL    HW2  552   0.756   0.613   0.959  2.1226  0.0442  0.6464
  185SOL     OW  553   2.201   0.996   0.502  0.2516 -0.1068  0.1847
  185SOL    HW1  554   2.251   1.030   0.586  1.2935 -2.0869 -2.0380
  185SOL    HW2  555   2.262   1.018   0.427 -3.1744 -1.0368  0.5798
  186SOL     OW  556   0.385   2.135   0.438  0.2252 -0.0896  0.4565
  186SOL    HW1  557   0.485   2.114   0.451 -2.7162  0.1075  0.5817
  186SOL    HW2  558   0.375   2.168   0.342 -1.6834  0.0915  2.7301
  187SOL     OW  559   1.939   1.946   2.798 -0.1673  0.1018  0.4393
  187SOL    HW1  560   1.934   2.022   2.866  0.6956  0.3737 -1.5976
  187SOL    HW2  561   1.878   1.967   2.716 -3.3185  1.8039 -2.2773
  188SOL     OW  562   1.155   2.509   1.439 -0.2973  0.5422 -0.0682
  188SOL    HW1  563   1.135   2.608   1.422 -2.0621 -0.9249  1.5519
  188SOL    HW2  564   1.221   2.501   1.517  0.0281  0.2800  0.7513
  189SOL     OW  565   2.786   1.334   2.555  0.1033 -0.4270 -0.5676
  189SOL    HW1  566   2.777   1.439   2.547  1.3716  3.4979 -2.4058
  189SOL    HW2  567   2.845   1.304   2.634  1.0957  0.7021  1.1374
  190SOL     OW  568   0.805   2.904   2.152 -0.5280 -0.2696  0.2322
  190SOL    HW1  569   0.830   2.805   2.131  0.4483  1.3638 -0.4043
  190SOL    HW2  570   0.894   2.955   2.165  1.2498  0.2119  1.3653
  191SOL     OW  571   2.372   0.986   0.995  0.3742 -0.1260 -0.4989
  191SOL    HW1  572   2.390   0.889   1.025  0.2310 -0.6209  1.2268
  191SOL    HW2  573   2.306   1.029   1.060  0.9507  0.5773 -3.5384
  192SOL     OW  574   2.159   0.386   1.110 -0.4523 -0.3633 -0.5305
  192SOL    HW1  575   2.130   0.428   1.197  1.7184  1.0888 -1.1945
  192SOL    HW2  576   2.088   0.378   1.037  0.5106 -0.4305 -0.6795
  193SOL     OW  577   1.050   0.098   0.347 -0.0775 -0.0164  0.0501
  193SOL    HW1  578   1.057   0.169   0.270  2.0044  1.3897 -1.0550
  193SOL    HW2  579   0.998   0.132   0.426  1.2358 -1.7093 -0.2900
  194SOL     OW  580   1.601   2.330   0.982  0.2004  0.1164 -0.6072
  194SOL    HW1  581   1.573   2.381   0.898 -1.2187 -0.3732 -3.5857
  194SOL    HW2  582   1.620   2.234   0.968  0.2451  0.3058 -0.9358
  195SOL     OW  583   2.634   0.958   0.758 -0.0245  0.3675 -0.4895
  195SOL    HW1  584   2.634   0.881   0.826  2.1074 -0.9397  0.0928
  195SOL    HW2  585   2.542   0.995   0.736 -3.0998  1.6388  0.1399
  196SOL     OW  586   0.701   2.500   1.703  0.8647 -0.2363 -0.4491
  196SOL    HW1  587   0.662   2.578   1.759 -2.9259  2.6889 -1.4034
  196SOL    HW2  588   0.634   2.425   1.718  0.5521  0.2825  0.1596
  197SOL     OW  589   2.563   0.308   2.399 -0.2319  0.1985 -0.4294
  197SOL    HW1  590   2.505   0.379   2.356  1.6880 -1.7957  0.7769
  197SOL    HW2  591   2.531   0.213   2.377 -0.5590  1.1395  1.1343
  198SOL     OW  592   2.001   1.566   0.322 -0.5310 -0.9532  0.3588
  198SOL    HW1  593   2.088   1.567   0.267  2.1137 -0.8893 -2.0405
  198SOL    HW2  594   1.918   1.602   0.274  0.5617  0.3922 -1.4050
  199SOL     OW  595   2.281   0.525   1.771  0.0418 -0.0825 -0.0559
  199SOL    HW1  596   2.325   0.575   1.849  3.3871  0.3182  0.1137
  199SOL    HW2  597   2.311   0.430   1.777 -1.2081  4.3968  1.9126
  200SOL     OW  598   1.643   3.039   2.841 -0.1475  0.3347 -0.4643
  200SOL    HW1  599   1.691   3.073   2.928  2.5725  2.0302  2.7789
  200SOL    HW2  600   1.563   2.983   2.866 -2.1834  1.8236 -0.4432
  201SOL     OW  601   2.776   0.167   1.402  0.4404  0.3570  0.0710
  201SOL    HW1  602   2.679   0.129   1.414 -0.7156 -2.1752 -0.1716
  201SOL    HW2  603   2.775   0.249   1.340  1.6230 -3.5861  0.3241
  202SOL     OW  604   2.780   2.938   0.640 -0.0978 -1.0203 -0.2056
  202SOL    HW1  605   2.748   3.002   0.712  0.5178 -2.7655 -0.1080
  202SOL    HW2  606   2.868   2.981   0.603  0.0186  1.9860  2.7001
  203SOL     OW  607   1.720   1.766   0.682 -0.8055 -0.0239 -0.3273
  203SOL    HW1  608   1.633   1.813   0.699  3.6877 -0.7672 -1.3837
  203SOL    HW2  609   1.783   1.842   0.668 -0.5649  0.4316  0.0970
  204SOL     OW  610   0.301   1.799   2.057 -0.5187 -0.0338 -0.1371
  204SOL    HW1  611   0.252   1.887   2.061  2.3096  3.9571 -0.5341
  204SOL    HW2  612   0.260   1.729   2.001  1.1839  0.1904  1.5662
  205SOL     OW  613   0.582   0.510   0.790 -0.1317  0.2132 -0.1241
  205SOL    HW1  614   0.668   0.468   0.822 -2.9923  2.0542 -0.0046
  205SOL    HW2  615   0.590   0.541   0.694  2.7117 -0.7665  4.2354
  206SOL     OW  616   0.244   1.057   2.621  0.3670 -0.2060  0.1392
  206SOL    HW1  617   0.204   1.143   2.600 -1.5419 -2.0232  0.7898
  206SOL    HW2  618   0.342   1.047   2.595 -0.1747 -1.3693  0.6219
  207SOL     OW  619   1.191   2.385   1.871 -0.3744  0.4984 -0.4217
  207SOL    HW1  620   1.204   2.285   1.892 -0.5831 -0.4148 -1.7010
  207SOL    HW2  621   1.096   2.406   1.852  3.0153  0.3190  1.3889
  208SOL     OW  622   2.235   0.116   1.144 -0.3925  0.0979 -0.6512
  208SOL    HW1  623   2.333   0.120   1.174 -0.3349 -2.2501  2.1015
  208SOL    HW2  624   2.209   0.215   1.130  1.6910  0.8998  1.4440
  209SOL     OW  625   2.002   0.914   0.813  0.3579  0.0074 -0.1374
  209SOL    HW1  626   2.019   0.841   0.884 -1.9097  1.1629 -2.5759
  209SOL    HW2  627   1.959   0.875   0.730 -0.2925 -1.1247  2.1147
  210SOL     OW  628   2.314   1.079   0.758  0.0643  0.2159  0.2136
  210SOL    HW1  629   2.330   1.045   0.852 -0.2489 -0.5915 -2.4525
  210SOL    HW2  630   2.324   1.179   0.760 -0.8479 -1.5954  0.7466
  211SOL     OW  631   1.073   3.009   2.853  0.3202 -0.6066  0.6747
  211SOL    HW1  632   0.981   3.041   2.892 -1.8408 -0.4934  0.3138
  211SOL    HW2  633   1.115   2.947   2.920  0.3932 -0.3538  0.4814
  212SOL     OW  634   1.934   1.969   0.608  0.7848 -0.0519 -0.5289
  212SOL    HW1  635   2.003   2.010   0.674 -3.3512  1.2638  1.2846
  212SOL    HW2  636   1.987   1.911   0.541  0.3622  0.4264  3.9605
  213SOL     OW  637   2.355   2.835   0.162  0.2949 -1.2863  0.3799
  213SOL    HW1  638   2.423   2.770   0.131 -0.9419  1.5940  1.0013
  213SOL    HW2  639   2.297   2.853   0.079 -1.0592 -0.8559 -1.0041
  214SOL     OW  640   1.143   2.363   2.202 -0.2948 -0.4857  0.3113
  214SOL    HW1  641   1.173   2.458   2.171  1.4457 -0.5962 -3.1200
  214SOL    HW2  642   1.200   2.295   2.157  1.6975  1.7238  0.4848
  215SOL     OW  643   0.227   1.307   1.072 -0.5707 -0.1655  0.1621
  215SOL    HW1  644   0.129   1.293   1.086  0.3826  0.8415  1.6163
  215SOL    HW2  645   0.252   1.382   1.010 -0.4988 -3.4539  3.3195
  216SOL     OW  646   0.261   3.056   2.536  0.1248 -0.6380  0.0417
  216SOL    HW1  647   0.258   3.001   2.623 -2.9970  1.4666  1.5783
  216SOL    HW2  648   0.206   0.058   2.545 -0.4887  0.3397 -0.9997
  217SOL     OW  649   2.830   1.465   1.458  0.1728  0.1695 -0.2148
  217SOL    HW1  650   2.930   1.468   1.438  1.8041  1.1941  0.4767
  217SOL    HW2  651   2.810   1.372   1.503  0.2937 -1.2189  1.3796
  218SOL     OW  652   0.819   2.156   1.587  0.1287 -0.3628 -0.0551
  218SOL    HW1  653   0.720   2.177   1.588  1.3391 -1.0722 -1.0306
  218SOL    HW2  654   0.859   2.150   1.681  1.4053  0.2443  1.0450
  219SOL     OW  655   2.151   1.960   0.016  0.6797  0.0306 -0.0915
  219SOL    HW1  656   2.216   2.029   0.049 -1.1967  0.0068  1.7971
  219SOL    HW2  657   2.195   1.883   3.045  1.4753 -0.5420  0.5097
  220SOL     OW  658   1.792   0.076   3.028  0.7423  0.3369  0.1763
  220SOL    HW1  659   1.868   0.142   3.026 -0.9179 -0.3442 -2.1543
  220SOL    HW2  660   1.768   0.048   0.041 -1.6525 -1.8425  1.7226
  221SOL     OW  661   2.843   0.823   0.185  0.2414  0.0741 -0.0209
  221SOL    HW1  662   2.904   0.742   0.187 -0.4858 -2.0021  1.5548
  221SOL    HW2  663   2.883   0.894   0.122  0.0812  0.1569 -0.0686
  222SOL     OW  664   1.560   1.454   0.753 -0.0226  0.0427  0.3467
  222SOL    HW1  665   1.547   1.350   0.753 -1.3106 -0.4216  2.5749
  222SOL    HW2  666   1.662   1.474   0.762  0.3860  0.0051  0.7312
  223SOL     OW  667   0.922   0.284   2.879  0.2035 -0.2714 -0.7287
  223SOL    HW1  668   0.994   0.301   2.813 -2.1361 -0.7088  0.5251
  223SOL    HW2  669   0.915   0.356   2.951 -0.1628 -1.8238 -0.7524
  224SOL     OW  670   1.006   2.754   1.129  0.1238 -0.3596  0.5234
  224SOL    HW1  671   0.977   2.847   1.101 -2.0817  1.7679 -2.6510
  224SOL    HW2  672   0.922   2.697   1.140 -1.2385  0.4951  0.7602
  225SOL     OW  673   1.046   3.041   2.169 -0.3646  0.0587  0.0182
  225SOL    HW1  674   1.056   3.074   2.075 -0.2150 -1.4713 -1.9517
  225SOL    HW2  675   1.006   0.030   2.227  0.7071 -0.1050  1.1366
  226SOL     OW  676   1.359   1.582   0.614 -0.2870 -0.0932  0.2532
  226SOL    HW1  677   1.388   1.679   0.617 -0.6812 -1.4305 -0.0796
  226SOL    HW2  678   1.418   1.528   0.675 -3.6665  2.6396  0.3954
  227SOL     OW  679   0.290   2.109   1.471 -0.1339  0.0120 -0.4928
  227SOL    HW1  680   0.333   2.199   1.473 -2.9128 -3.3387 -0.2488
  227SOL    HW2  681   0.319   2.050   1.391 -0.8988  0.3944  0.0486
  228SOL     OW  682   3.033   1.862   0.482  0.0461  0.0681  0.4621
  228SOL    HW1  683   0.024   1.818   0.433  0.5356  1.6392 -1.7541
  228SOL    HW2  684   3.055   1.951   0.526 -0.7135  0.6679 -0.3334
  229SOL     OW  685   2.623   0.091   2.879  0.2166 -0.2090 -0.6245
  229SOL    HW1  686   2.593   0.151   2.801 -0.6715  0.1625  1.6958
  229SOL    HW2  687   2.548   0.014   2.890 -3.3112  0.3996 -0.4820
  230SOL     OW  688   2.524   0.503   0.268 -0.6998 -0.0900  0.3618
  230SOL    HW1  689   2.560   0.588   0.229 -0.6941 -1.1303 -0.1450
  230SOL    HW2  690   2.426   0.507   0.256  2.0632  4.1207 -3.3000
  231SOL     OW  691   1.781   1.647   0.144 -0.1255 -0.3497  0.4378
  231SOL    HW1  692   1.760   1.611   0.055  0.3760  1.7274  0.4217
  231SOL    HW2  693   1.816   1.741   0.132  0.6042 -4.2581  0.8394
  232SOL     OW  694   1.838   1.958   1.009 -0.4450 -0.0737  0.0802
  232SOL    HW1  695   1.833   1.854   1.014 -2.8165 -1.0697  0.4741
  232SOL    HW2  696   1.913   1.974   0.938  2.3130 -0.8558 -0.6666
  233SOL     OW  697   0.438   2.903   1.930 -0.0068  0.0318  0.1202
  233SOL    HW1  698   0.492   2.980   1.898  1.1759  0.5847 -0.1664
  233SOL    HW2  699   0.381   2.862   1.858  2.2835 -0.6279  1.1258
  234SOL     OW  700   0.662   0.417   2.577  0.9338 -0.3531  0.4631
  234SOL    HW1  701   0.729   0.460   2.517 -0.8851 -1.7480  0.5163
  234SOL    HW2  702   0.697   0.396   2.669 -1.7542 -0.3207  0.1026
  235SOL     OW  703   2.570   1.105   1.746 -0.3783  0.1791 -0.1192
  235SOL    HW1  704   2.615   1.015   1.764 -3.4287 -0.1114 -0.4762
  235SOL    HW2  705   2.480   1.094   1.697  0.9759  1.5403 -0.8321
  236SOL     OW  706   1.394   2.832   1.552  0.6703 -0.1694  0.3127
  236SOL    HW1  707   1.389   2.811   1.451  0.9148  1.3060 -2.2133
  236SOL    HW2  708   1.393   2.746   1.607  1.7650 -0.1610  0.3467
  237SOL     OW  709   0.517   1.565   2.696 -0.6932 -0.1914 -0.1206
  237SOL    HW1  710   0.538   1.509   2.608 -0.3181 -0.7155 -1.4797
  237SOL    HW2  711   0.476   1.656   2.672 -0.7511  2.8847  1.5266
  238SOL     OW  712   0.746   0.906   2.213 -0.1914 -0.1050  0.1585
  238SOL    HW1  713   0.703   0.821   2.171 -0.3968  0.1069  0.3522
  238SOL    HW2  714   0.838   0.888   2.252 -2.3636  0.8547 -1.3433
  239SOL     OW  715   0.863   1.783   2.616  0.2213  0.3396 -0.4783
  239SOL    HW1  716   0.781   1.823   2.654  2.9515 -3.3548 -2.7449
  239SOL    HW2  717   0.932   1.847   2.594 -1.4481  0.5611 -0.3264
  240SOL     OW  718   2.359   2.972   0.395 -0.5946 -0.0939 -0.1617
  240SOL    HW1  719   2.360   2.919   0.312 -1.1221  0.1411  2.3110
  240SOL    HW2  720   2.407   2.916   0.470 -1.8972  1.6446  0.8521
  241SOL     OW  721   0.477   1.213   0.222  0.0676  0.3884  0.2701
  241SOL    HW1  722   0.454   1.290   0.164 -1.2938 -0.7908 -2.6851
  241SOL    HW2  723   0.450   1.230   0.321 -2.7628  1.3568  2.3185
  242SOL     OW  724   1.486   2.599   1.663  0.6384  0.7089  0.2890
  242SOL    HW1  725   1.442   2.511   1.636 -2.0989  0.4813 -0.4523
  242SOL    HW2  726   1.584   2.592   1.645 -1.7209  0.6907  0.4579
  243SOL     OW  727   0.954   2.509   1.801 -0.2670  0.8342  0.0044
  243SOL    HW1  728   0.986   2.585   1.744  1.8397 -1.0832 -0.2116
  243SOL    HW2  729   0.864   2.490   1.755 -0.8363  0.2413  2.0344
  244SOL     OW  730   2.181   0.624   2.466 -0.2973  0.3111 -0.0328
  244SOL    HW1  731   2.176   0.636   2.365 -1.0024 -1.6238  2.6786
  244SOL    HW2  732   2.271   0.646   2.497 -1.0241  1.7124 -3.5487
  245SOL     OW  733   1.546   2.407   1.243  0.4243  0.2641 -0.3316
  245SOL    HW1  734   1.560   2.327   1.302 -0.9506  1.3934 -0.2962
  245SOL    HW2  735   1.573   2.388   1.140 -0.9273  1.2230 -0.6104
  246SOL     OW  736   1.455   0.073   0.164  0.2277  0.4227 -0.4732
  246SOL    HW1  737   1.497   0.156   0.204  1.6680  0.6844 -0.3787
  246SOL    HW2  738   1.374   0.102   0.110  0.9712 -0.2685  0.7996
  247SOL     OW  739   1.650   0.413   1.779 -0.3330  0.8313  0.2259
  247SOL    HW1  740   1.731   0.457   1.738  0.4615  0.8565 -0.0519
  247SOL    HW2  741   1.681   0.344   1.849 -0.0607  1.8181 -1.3648
  248SOL     OW  742   0.043   2.002   1.459 -0.1124  0.3283  0.2414
  248SOL    HW1  743   0.134   2.044   1.449  0.0299  1.2443 -1.2066
  248SOL    HW2  744   0.036   1.907   1.424  1.7427  3.0728 -1.8780
  249SOL     OW  745   0.425   0.253   0.276  0.3762 -0.3644  0.4555
  249SOL    HW1  746   0.369   0.275   0.354  2.5339  0.8922  1.3574
  249SOL    HW2  747   0.422   0.153   0.253 -1.3473 -0.3731  0.6777
  250SOL     OW  748   2.315   0.223   2.163  0.4285 -0.5921 -0.1792
  250SOL    HW1  749   2.265   0.288   2.225 -1.9084 -0.1253 -0.0090
  250SOL    HW2  750   2.355   0.278   2.089  0.9590 -1.9272 -0.2710
  251SOL     OW  751   1.228   0.658   0.055  0.3333  0.4491  0.1086
  251SOL    HW1  752   1.179   0.619   0.132  1.7027  1.1436 -2.2028
  251SOL    HW2  753   1.170   0.650   3.054 -0.6418  1.9594 -0.9396
  252SOL     OW  754   1.259   2.608   2.143  0.2305  0.1685 -1.0168
  252SOL    HW1  755   1.316   2.663   2.204  0.2068 -0.7106 -1.1786
  252SOL    HW2  756   1.294   2.614   2.046 -1.3222  0.9200  4.5212
  253SOL     OW  757   2.843   2.682   0.588  0.1640  0.1513 -0.5715
  253SOL    HW1  758   2.819   2.772   0.624 -0.2862 -1.8765 -1.8066
  253SOL    HW2  759   2.898   2.632   0.658  0.2768 -4.8102 -0.9264
  254SOL     OW  760   2.529   1.247   1.359  0.1345 -0.6138 -0.1341
  254SOL    HW1  761   2.484   1.211   1.271 -0.2234  0.7580 -1.2384
  254SOL    HW2  762   2.624   1.229   1.369 -0.6092  0.3121  1.6441
  255SOL     OW  763   0.757   2.811   1.357  0.4441 -0.2307  0.6074
  255SOL    HW1  764   0.741   2.845   1.263  0.4973 -0.5629 -0.9890
  255SOL    HW2  765   0.768   2.710   1.363 -0.2721 -0.8636 -0.3400
  256SOL     OW  766   2.057   1.854   1.737  0.7964  0.0952  0.3092
  256SOL    HW1  767   2.141   1.819   1.690  3.7902  1.5054  0.0156
  256SOL    HW2  768   2.082   1.875   1.834  0.6444 -2.1883 -1.3335
  257SOL     OW  769   0.416   2.297   2.645  0.4042  0.5877 -0.7612
  257SOL    HW1  770   0.430   2.230   2.719 -0.3997  1.3472 -2.5972
  257SOL    HW2  771   0.357   2.374   2.680  0.3448 -0.0519  1.3150
  258SOL     OW  772   0.602   2.613   0.954  0.6929 -0.0955 -0.2784
  258SOL    HW1  773   0.524   2.652   1.009 -1.3639 -0.1083  1.3431
  258SOL    HW2  774   0.624   2.676   0.880  0.3876 -1.2996 -0.2024
  259SOL     OW  775   1.474   0.602   2.574  0.1834  0.0673  0.2110
  259SOL    HW1  776   1.532   0.667   2.627  1.6137  0.0180  1.3364
  259SOL    HW2  777   1.505   0.598   2.481  0.5796 -1.9365  4.5334
  260SOL     OW  778   0.404   0.365   1.175 -0.4696 -0.2448  0.0502
  260SOL    HW1  779   0.390   0.266   1.210  1.1407 -0.9253  0.8775
  260SOL    HW2  780   0.500   0.385   1.143  0.8825  1.4374  1.4780
  261SOL     OW  781   0.975   0.136   2.362 -0.8838  0.0201  0.6580
  261SOL    HW1  782   0.955   0.096   2.451 -3.6831 -0.4874 -1.9070
  261SOL    HW2  783   1.058   0.188   2.351 -1.6002  3.1339  0.5726
  262SOL     OW  784   1.133   2.787   1.913  0.0828  0.0903 -0.1391
  262SOL    HW1  785   1.118   2.732   1.996 -2.2598  0.1099 -1.7997
  262SOL    HW2  786   1.068   2.758   1.840 -0.5531  0.2250 -1.5291
  263SOL     OW  787   0.724   2.091   2.992 -0.0310  0.2982  0.0907
  263SOL    HW1  788   0.765   2.169   3.039 -0.6367 -0.2599  0.1971
  263SOL    HW2  789   0.795   2.034   2.940  1.5078  0.6212 -4.4089
  264SOL     OW  790   1.514   1.611   0.977 -0.0794  0.0884 -0.1319
  264SOL    HW1  791   1.560   1.704   0.964 -0.2257  1.0714 -0.9877
  264SOL    HW2  792   1.519   1.557   0.890  1.2079 -1.9497  0.6496
  265SOL     OW  793   0.908   2.154   0.361 -0.4375 -0.1203  0.4280
  265SOL    HW1  794   1.004   2.159   0.326  2.3918  0.5230 -4.4105
  265SOL    HW2  795   0.845   2.109   0.292 -0.2018 -0.1025 -0.0286
  266SOL     OW  796   2.855   0.949   0.998 -0.0226 -0.0663  0.9321
  266SOL    HW1  797   2.794   0.872   1.007  0.3829 -1.3446 -0.2043
  266SOL    HW2  798   2.947   0.927   1.039 -0.5967  0.7937  1.1463
  267SOL     OW  799   3.068   1.596   0.283  0.2093 -0.2016 -0.1083
  267SOL    HW1  800   0.027   1.536   0.354 -0.4446  0.3331 -2.8853
  267SOL    HW2  801   0.056   1.643   0.223 -1.0741  0.7462 -2.6043
  268SOL     OW  802   1.391   0.504   0.294  0.3055  0.3142 -0.0296
  268SOL    HW1  803   1.293   0.503   0.263 -1.8513  0.2127  0.5041
  268SOL    HW2  804   1.419   0.588   0.339 -2.0663 -0.1569 -2.3878
  269SOL     OW  805   2.600   0.675   2.052 -0.0069  0.1003 -0.1935
  269SOL    HW1  806   2.621   0.739   2.128  0.3898  2.4130  2.5560
  269SOL    HW2  807   2.693   0.657   2.013  0.5565 -1.2643 -0.3358
  270SOL     OW  808   2.755   0.977   0.525 -0.0204 -0.2553  0.2486
  270SOL    HW1  809   2.715   1.004   0.617  1.5365  1.0272  0.7321
  270SOL    HW2  810   2.686   0.968   0.451 -2.6944 -1.4415 -1.0604
  271SOL     OW  811   0.176   1.035   2.271  0.9713 -0.3408 -0.4099
  271SOL    HW1  812   0.131   1.066   2.186 -0.0923 -0.9539  1.9647
  271SOL    HW2  813   0.276   1.014   2.270  1.4300  0.0694  0.5002
  272SOL     OW  814   2.551   2.260   1.809 -0.3862  0.0645 -0.9970
  272SOL    HW1  815   2.516   2.345   1.860 -1.0079  2.9539  0.1132
  272SOL    HW2  816   2.583   2.187   1.875  1.9576 -2.2324  0.6731
  273SOL     OW  817   0.066   2.499   0.096  0.0064 -0.2975 -0.3956
  273SOL    HW1  818   0.125   2.421   0.069 -1.6498  0.3315 -0.8924
  273SOL    HW2  819   3.084   2.521   0.021 -1.0965  0.2540 -2.3313
  274SOL     OW  820   0.702   2.185   0.864  0.0172  0.6527  0.4887
  274SOL    HW1  821   0.725   2.280   0.849 -1.1168 -1.9197  0.1294
  274SOL    HW2  822   0.753   2.117   0.804 -0.7002 -1.7390 -1.4865
  275SOL     OW  823   1.295   1.942   2.607 -0.0215  0.3975 -0.5090
  275SOL    HW1  824   1.218   1.963   2.545  1.7560 -1.3428 -0.4947
  275SOL    HW2  825   1.381   1.989   2.585 -0.5823 -0.9879 -1.5912
  276SOL     OW  826   2.782   1.703   2.141  0.1232  0.0186 -0.0429
  276SOL    HW1  827   2.715   1.684   2.066  0.5332 -0.6923 -1.2071
  276SOL    HW2  828   2.743   1.770   2.211  1.2419 -0.4795  0.4785
  277SOL     OW  829   2.236   0.155   0.836 -0.1116 -0.6922  0.4595
  277SOL    HW1  830   2.254   0.251   0.829  0.2985 -1.7898 -3.1015
  277SOL    HW2  831   2.145   0.131   0.797 -2.9566  1.3674 -3.9272
  278SOL     OW  832   1.221   0.264   2.396  0.3502  0.0031 -0.7119
  278SOL    HW1  833   1.278   0.348   2.377  0.2895  1.4508 -0.5742
  278SOL    HW2  834   1.184   0.279   2.491 -0.8210  2.3905  1.0094
  279SOL     OW  835   1.255   2.698   0.986  0.0592 -0.8416 -0.0518
  279SOL    HW1  836   1.285   2.636   1.064 -1.7975 -1.6505  0.1806
  279SOL    HW2  837   1.163   2.731   1.011  0.8635 -4.9248 -0.6190
  280SOL     OW  838   1.218   1.154   0.559  0.4528 -0.1435 -0.0205
  280SOL    HW1  839   1.191   1.095   0.480 -0.0818  0.3470  1.1485
  280SOL    HW2  840   1.145   1.147   0.626 -0.9596  0.5181  0.2142
  281SOL     OW  841   2.059   1.770   0.469 -0.2082  0.2545  0.2309
  281SOL    HW1  842   2.060   1.728   0.560 -0.9170 -0.6824  0.0169
  281SOL    HW2  843   2.037   1.693   0.404  2.4986  0.2124  1.9598
  282SOL     OW  844   2.902   1.326   0.595  0.2457 -0.4250 -0.0470
  282SOL    HW1  845   2.945   1.249   0.548 -1.6695 -0.6607  0.9360
  282SOL    HW2  846   2.850   1.377   0.527  1.0219 -0.2791  1.5133
  283SOL     OW  847   1.650   2.647   2.909  0.1165  0.0818 -0.0611
  283SOL    HW1  848   1.602   2.558   2.893  0.6032  1.3817  0.6398
  283SOL    HW2  849   1.591   2.727   2.889 -0.9057  0.4916  0.1240
  284SOL     OW  850   0.389   0.355   2.496 -0.1135  0.1387 -0.3130
  284SOL    HW1  851   0.485   0.379   2.528  1.2511  0.6187  1.0197
  284SOL    HW2  852   0.333   0.336   2.582  0.0422  3.2298  0.6670
  285SOL     OW  853   1.753   1.601   2.963  0.8422 -0.0885  0.6471
  285SOL    HW1  854   1.700   1.676   2.915  0.0580  1.7343 -1.3669
  285SOL    HW2  855   1.854   1.621   2.945  0.7477  3.3658  0.9947
  286SOL     OW  856   1.243   1.899   1.736  0.0361 -0.0041 -0.1601
  286SOL    HW1  857   1.169   1.840   1.757  2.6226  3.3159  0.2206
  286SOL    HW2  858   1.242   1.925   1.640  1.1395  2.4466  0.4685
  287SOL     OW  859   1.773   2.902   1.268 -0.3630 -0.5108  0.0225
  287SOL    HW1  860   1.720   2.870   1.349 -1.3531 -2.0715 -0.3706
  287SOL    HW2  861   1.778   3.007   1.266  3.6219  1.4924 -0.4072
  288SOL     OW  862   0.588   2.664   2.131 -1.1585  0.2617  0.3796
  288SOL    HW1  863   0.546   2.739   2.178  0.1446 -0.1498  0.0018
  288SOL    HW2  864   0.613   2.687   2.035  2.1506  1.2085  1.1318
  289SOL     OW  865   0.027   1.721   0.832  0.4860 -0.0797  0.5215
  289SOL    HW1  866   3.029   1.761   0.781 -0.5469 -0.2556  3.2400
  289SOL    HW2  867   0.021   1.757   0.927  2.0194 -2.1920 -1.7738
  290SOL     OW  868   0.899   2.133   1.842 -0.4837  0.0698  0.3046
  290SOL    HW1  869   0.887   2.044   1.888  0.7324  2.6003 -3.9552
  290SOL    HW2  870   0.845   2.204   1.896  1.0975 -3.4648  1.1177
  291SOL     OW  871   1.799   0.265   0.414 -0.0062  0.2749 -0.3672
  291SOL    HW1  872   1.707   0.275   0.366  0.9532  1.2904 -0.3543
  291SOL    HW2  873   1.866   0.224   0.347  1.0987 -1.1708 -1.1096
  292SOL     OW  874   0.647   0.364   1.526 -0.5043  0.5757 -0.3359
  292SOL    HW1  875   0.553   0.336   1.554  0.6877 -1.3649  3.1138
  292SOL    HW2  876   0.715   0.318   1.584 -1.5997 -0.3158  0.4630
  293SOL     OW  877   2.271   1.459   1.048 -0.2328 -0.0339  0.1315
  293SOL    HW1  878   2.358   1.512   1.050 -2.3191 -0.8938 -3.0220
  293SOL    HW2  879   2.266   1.390   0.981  1.1036 -2.1118  2.1903
  294SOL     OW  880   0.410   0.214   2.274  0.7424 -0.1555  0.6198
  294SOL    HW1  881   0.456   0.124   2.291  1.4984 -0.1114 -0.1411
  294SOL    HW2  882   0.387   0.257   2.355  1.6203 -1.2827 -1.7210
  295SOL     OW  883   1.017   1.515   0.325 -0.1076  0.3646  0.1592
  295SOL    HW1  884   1.082   1.482   0.392 -3.5504 -1.2878 -3.0287
  295SOL    HW2  885   0.963   1.438   0.291 -0.6587 -0.5905 -0.7849
  296SOL     OW  886   2.194   1.082   1.174  0.4475  0.1021 -0.2835
  296SOL    HW1  887   2.138   1.105   1.092  0.0226 -0.2891 -0.0296
  296SOL    HW2  888   2.175   1.141   1.260  1.1519  3.5464  0.3740
  297SOL     OW  889   1.832   0.896   2.606  0.0831  0.1662  0.4526
  297SOL    HW1  890   1.905   0.961   2.640  1.2897  0.2968  1.9600
  297SOL    HW2  891   1.798   0.916   2.511 -0.7733 -0.2298 -1.0090
  298SOL     OW  892   0.906   0.569   2.545  0.6507  0.0330 -0.4117
  298SOL    HW1  893   0.980   0.506   2.571 -1.1946  2.6446 -0.5018
  298SOL    HW2  894   0.926   0.634   2.462 -0.6466  1.1559 -0.1554
  299SOL     OW  895   1.352   0.328   2.050 -0.2805  0.1990 -0.2538
  299SOL    HW1  896   1.313   0.280   1.972  0.0628  1.0372  1.1914
  299SOL    HW2  897   1.320   0.420   2.058 -1.9508 -2.8078 -1.4755
  300SOL     OW  898   2.525   0.008   1.839 -0.4602  0.3136 -0.6156
  300SOL    HW1  899   2.497   3.045   1.754  0.7448 -0.5040  2.6074
  300SOL    HW2  900   2.625   0.020   1.855  1.4010  0.8501  1.7051
  301SOL     OW  901   1.759   0.748   1.592 -0.5651 -0.1471 -0.3900
  301SOL    HW1  902   1.689   0.804   1.540 -2.8290  4.8782  2.2852
  301SOL    HW2  903   1.792   0.802   1.676 -0.3643 -0.5705  1.3350
  302SOL     OW  904   0.577   2.683   2.594 -0.1766 -0.2578 -1.1037
  302SOL    HW1  905   0.590   2.596   2.542  2.6258  0.1173 -1.6462
  302SOL    HW2  906   0.610   2.768   2.549 -1.0122 -3.3631  0.7784
  303SOL     OW  907   1.774   1.897   1.683  0.5194 -0.2275 -0.0038
  303SOL    HW1  908   1.871   1.881   1.694  1.3353 -0.1578  3.1447
  303SOL    HW2  909   1.722   1.807   1.661 -0.3631 -4.3352 -2.3687
  304SOL     OW  910   0.343   2.785   0.732 -0.2703 -0.7042 -0.1590
  304SOL    HW1  911   0.449   2.778   0.738 -0.7747 -0.2029  1.9083
  304SOL    HW2  912   0.301   2.703   0.776  2.0161 -1.3220 -0.3966
  305SOL     OW  913   1.511   0.710   0.439  0.3018  0.3378  0.5210
  305SOL    HW1  914   1.495   0.795   0.395  0.2513 -5.6129  0.9184
  305SOL    HW2  915   1.534   0.720   0.539 -0.7005 -1.3096  1.8258
  306SOL     OW  916   0.382   1.437   0.061  0.3906  0.1019 -0.4812
  306SOL    HW1  917   0.453   1.514   0.075 -0.1723  0.7749  2.7937
  306SOL    HW2  918   0.334   1.428   0.150  0.6185  1.4315  0.0354
  307SOL     OW  919   0.497   0.928   1.764  0.5237 -0.1148 -0.2517
  307SOL    HW1  920   0.588   0.883   1.753 -1.1185  0.5334 -0.7820
  307SOL    HW2  921   0.496   1.007   1.707 -3.4580 -3.7164  1.9746
  308SOL     OW  922   0.719   0.042   1.122 -0.4582 -0.1776  0.2177
  308SOL    HW1  923   0.686   0.090   1.039  1.3771 -0.0094  1.6008
  308SOL    HW2  924   0.746   0.106   1.198  1.0026 -0.5499 -0.9940
  309SOL     OW  925   2.089   0.915   2.985  0.6198 -0.4679  0.1963
  309SOL    HW1  926   2.189   0.899   2.957 -0.2281  1.2632 -2.4767
  309SOL    HW2  927   2.076   1.012   3.002  1.3317  1.4041 -1.2313
  310SOL     OW  928   1.189   1.112   0.026 -0.3952  0.1650 -0.6753
  310SOL    HW1  929   1.127   1.179   3.066  0.0864 -0.2493  1.3848
  310SOL    HW2  930   1.216   1.136   0.125  1.1115 -0.8588  1.8666
  311SOL     OW  931   1.609   2.466   2.554 -0.4292 -0.6039 -0.0942
  311SOL    HW1  932   1.575   2.439   2.462  1.1322 -0.1237 -0.5748
  311SOL    HW2  933   1.674   2.543   2.545  1.0898 -0.4852  0.2614
  312SOL     OW  934   1.956   2.936   2.925  0.2198  0.3023  0.4169
  312SOL    HW1  935   1.876   2.999   2.925  2.2181 -0.5128  0.1649
  312SOL    HW2  936   1.930   2.840   2.952  0.9486 -1.0326 -0.2891
  313SOL     OW  937   0.568   0.576   0.476 -0.1713  0.0088  0.5491
  313SOL    HW1  938   0.525   0.652   0.421 -0.8015 -0.1912  0.9781
  313SOL    HW2  939   0.604   0.508   0.406  1.6972 -0.5909 -3.6482
  314SOL     OW  940   2.528   1.406   3.036 -0.1482 -0.0469  0.1780
  314SOL    HW1  941   2.505   1.380   2.940  2.3353 -2.7693 -0.4263
  314SOL    HW2  942   2.541   1.504   3.047 -0.1508 -2.1321 -1.9455
  315SOL     OW  943   1.821   0.878   1.816 -0.2242 -0.1211  0.0176
  315SOL    HW1  944   1.838   0.794   1.872  0.2657  0.8564  1.7261
  315SOL    HW2  945   1.776   0.958   1.860  0.3943  2.8280  2.7675
  316SOL     OW  946   0.070   0.815   0.737  0.2353  0.5247  0.0540
  316SOL    HW1  947   3.080   0.882   0.731 -0.5702  0.5878 -0.9244
  316SOL    HW2  948   0.120   0.815   0.648 -2.2516  0.2116  1.3612
  317SOL     OW  949   0.819   0.142   0.119 -0.8100  0.2145 -0.2876
  317SOL    HW1  950   0.740   0.202   0.096  1.4362  1.2636 -0.9891
  317SOL    HW2  951   0.784   0.054   0.151  0.8225 -0.0325  0.8481
  318SOL     OW  952   2.609   2.773   1.438 -0.2276  0.6266  0.2835
  318SOL    HW1  953   2.647   2.868   1.451 -0.4931 -1.1120  2.2690
  318SOL    HW2  954   2.624   2.714   1.520  0.0140 -1.0485  0.7139
  319SOL     OW  955   1.201   1.403   0.482  0.1974 -0.4828  0.1991
  319SOL    HW1  956   1.230   1.314   0.522 -0.9853  2.2281 -1.3676
  319SOL    HW2  957   1.253   1.482   0.522  0.9475 -1.7062 -1.5978
  320SOL     OW  958   0.571   2.128   1.087  0.8063  0.8183 -0.1207
  320SOL    HW1  959   0.482   2.181   1.082 -3.0488 -2.5977  0.6429
  320SOL    HW2  960   0.626   2.152   1.006 -0.7942 -4.0747  0.1199
  321SOL     OW  961   1.970   2.464   2.445  0.6025 -0.0189  0.4935
  321SOL    HW1  962   1.933   2.503   2.530  1.7718  1.8041 -3.5789
  321SOL    HW2  963   1.907   2.493   2.369  0.6038  2.4142  0.2299
  322SOL     OW  964   2.854   2.571   2.449 -0.1354  0.4785 -0.2672
  322SOL    HW1  965   2.909   2.507   2.503 -0.8202 -1.1020  1.1832
  322SOL    HW2  966   2.827   2.651   2.501  2.1603 -1.7960 -0.6748
  323SOL     OW  967   2.801   0.558   0.878 -0.2436 -0.0867 -0.1065
  323SOL    HW1  968   2.902   0.557   0.897  0.1561  1.0048  0.5743
  323SOL    HW2  969   2.770   0.549   0.783  2.5923 -0.3648  2.0561
  324SOL     OW  970   2.404   1.966   2.570 -0.6573 -0.0214 -0.0954
  324SOL    HW1  971   2.398   1.890   2.499 -0.7586 -4.1076 -2.7009
  324SOL    HW2  972   2.347   1.937   2.650 -0.5363  1.2146 -2.2911
  325SOL     OW  973   1.585   0.603   2.312 -0.3935 -0.3531  0.3926
  325SOL    HW1  974   1.564   0.704   2.292  0.8905 -0.4399 -2.3916
  325SOL    HW2  975   1.633   0.564   2.232 -2.6192 -1.4213 -0.3120
  326SOL     OW  976   2.758   2.425   0.536 -0.4905  0.0896 -0.4445
  326SOL    HW1  977   2.769   2.522   0.560  0.8128  0.6149 -1.3963
  326SOL    HW2  978   2.848   2.378   0.520 -1.4182 -0.7070  0.0548
  327SOL     OW  979   2.454   2.989   2.913  0.0979 -0.8303 -0.6141
  327SOL    HW1  980   2.367   2.962   2.962  1.6283 -0.0758  2.3937
  327SOL    HW2  981   2.528   2.925   2.944 -0.7422 -1.9358  1.7146
  328SOL     OW  982   0.996   0.443   0.642 -0.0279 -0.0443 -0.0344
  328SOL    HW1  983   0.949   0.510   0.576  0.1971 -1.1100 -0.1336
  328SOL    HW2  984   1.098   0.458   0.651  1.4556 -0.9576 -0.7469
  329SOL     OW  985   1.990   0.725   1.417  0.3434 -0.0618 -0.1865
  329SOL    HW1  986   1.887   0.722   1.437  0.9188  0.3427  1.1287
  329SOL    HW2  987   2.046   0.742   1.500  1.2875  1.1726  1.8157
  330SOL     OW  988   1.291   0.212   0.644 -0.2748  0.2094 -0.5374
  330SOL    HW1  989   1.243   0.289   0.693  0.7204  0.4258 -0.1762
  330SOL    HW2  990   1.392   0.223   0.634 -0.4187 -2.1388 -1.3472
  331SOL     OW  991   0.513   1.980   1.902 -0.1025 -0.0069 -0.2938
  331SOL    HW1  992   0.501   1.910   1.974  0.9331  1.9330  1.5569
  331SOL    HW2  993   0.574   2.046   1.950  0.7331  3.9419  0.6308
  332SOL     OW  994   2.373   2.234   1.611 -0.2745  0.2896 -0.1880
  332SOL    HW1  995   2.438   2.230   1.692 -1.5970 -0.8585  2.3008
  332SOL    HW2  996   2.298   2.165   1.616 -0.5093  1.1035 -0.2077
  333SOL     OW  997   2.826   2.942   1.037  0.2957  0.2410  0.4189
  333SOL    HW1  998   2.842   2.971   1.131 -1.0109  0.5145 -5.4584
  333SOL    HW2  999   2.793   3.027   0.989 -2.0187  0.6710  0.6243
  334SOL     OW 1000   2.954   1.565   1.068 -0.4181 -0.0277  0.5724
  334SOL    HW1 1001   3.013   1.646   1.077 -3.9630 -0.9206 -1.6932
  334SOL    HW2 1002   2.933   1.545   0.969  0.8065  1.5148 -2.5641
  335SOL     OW 1003   0.371   2.852   2.731  0.0381 -0.0603 -0.5200
  335SOL    HW1 1004   0.285   2.795   2.737 -0.1871  0.7214 -0.3536
  335SOL    HW2 1005   0.447   2.804   2.691 -1.3360  2.1545  1.2823
  336SOL     OW 1006   0.217   2.809   1.789 -0.2513 -0.2484 -0.2218
  336SOL    HW1 1007   0.180   2.896   1.750 -1.2328  0.5131  0.5004
  336SOL    HW2 1008   0.147   2.752   1.838  0.7009 -3.0118  1.2714
  337SOL     OW 1009   1.051   1.989   2.469 -0.6207  0.4030  0.6882
  337SOL    HW1 1010   1.115   2.012   2.393 -0.3992  1.6708  1.4773
  337SOL    HW2 1011   0.980   2.060   2.480  2.5596 -1.3735  1.6945
  338SOL     OW 1012   0.965   2.855   2.481  0.3597  0.3413  0.1035
  338SOL    HW1 1013   1.043   2.854   2.415  2.4597 -1.3186 -0.1184
  338SOL    HW2 1014   0.951   2.951   2.515 -0.0822  2.2832  0.9691
  339SOL     OW 1015   3.006   1.416   3.030 -0.0413  0.6862  0.8554
  339SOL    HW1 1016   3.001   1.370   2.933 -1.3008 -1.9163 -1.1751
  339SOL    HW2 1017   0.014   1.450   3.048  0.7236  2.3031 -0.1316
  340SOL     OW 1018   2.010   0.483   1.336 -0.0546 -0.0572 -0.6756
  340SOL    HW1 1019   1.998   0.582   1.355  1.1237  0.2033 -2.3231
  340SOL    HW2 1020   2.061   0.435   1.407 -1.1161  1.0223 -0.9489
  341SOL     OW 1021   2.040   1.165   0.936  0.1471 -0.2949 -0.1888
  341SOL    HW1 1022   2.069   1.238   0.876 -0.4571 -0.0645 -0.8096
  341SOL    HW2 1023   2.020   1.090   0.873  0.2065  3.2625 -2.2373
  342SOL     OW 1024   1.971   2.209   2.473 -0.0049 -0.2554  0.1083
  342SOL    HW1 1025   2.068   2.206   2.509 -0.6676 -0.8755 -1.0107
  342SOL    HW2 1026   1.951   2.309   2.455  0.7120 -0.0964  1.5422
  343SOL     OW 1027   3.062   2.500   1.060  0.3840  0.2940  0.0563
  343SOL    HW1 1028   0.019   2.440   0.986  1.7371  0.2136 -1.5400
  343SOL    HW2 1029   2.989   2.455   1.117 -1.3286 -0.6936  0.2166
  344SOL     OW 1030   2.577   2.602   0.858 -0.3026 -0.1207  0.1953
  344SOL    HW1 1031   2.509   2.675   0.885 -0.6080  1.0081  2.6620
  344SOL    HW2 1032   2.670   2.610   0.902  2.5371  0.6084  1.2609
  345SOL     OW 1033   2.346   2.322   0.357  0.1116 -0.1389  0.4907
  345SOL    HW1 1034   2.281   2.300   0.433  1.9914  2.0956 -0.5895
  345SOL    HW2 1035   2.362   2.421   0.354 -2.6037  0.7995  0.9966
  346SOL     OW 1036   1.171   2.124   1.861 -0.8704 -0.0382 -0.2504
  346SOL    HW1 1037   1.075   2.140   1.830 -1.9257 -1.1195  0.3932
  346SOL    HW2 1038   1.200   2.026   1.833 -2.5676  0.0573  0.8138
  347SOL     OW 1039   1.467   1.873   2.176  0.1657 -0.1527 -0.1183
  347SOL    HW1 1040   1.475   1.792   2.112 -3.3666 -1.4252 -1.0584
  347SOL    HW2 1041   1.526   1.948   2.149 -0.1094  1.3362  1.4020
  348SOL     OW 1042   0.382   1.990   1.243  0.7160 -0.4742 -0.1165
  348SOL    HW1 1043   0.325   1.953   1.168  1.9303  0.7096 -0.6764
  348SOL    HW2 1044   0.452   2.054   1.206  1.5237 -1.3688  0.0278
  349SOL     OW 1045   1.787   1.492   1.489  0.3683 -0.2284  0.1368
  349SOL    HW1 1046   1.747   1.551   1.564 -2.0923  1.7939  1.9963
  349SOL    HW2 1047   1.767   1.529   1.398 -1.2620  1.8198 -0.1052
  350SOL     OW 1048   2.314   2.376   0.882  0.0409 -0.1550 -0.1302
  350SOL    HW1 1049   2.244   2.320   0.931 -0.0786  1.3889 -1.5403
  350SOL    HW2 1050   2.278   2.435   0.807  1.7821  0.9498 -3.6052
  351SOL     OW 1051   0.509   0.133   1.749  0.2157  0.1940 -0.0264
  351SOL    HW1 1052   0.580   0.167   1.817  1.7772 -1.2698  1.7328
  351SOL    HW2 1053   0.415   0.163   1.781  2.6122  2.2944  1.9202
  352SOL     OW 1054   0.750   1.038   0.177  0.1329  0.7167  0.2528
  352SOL    HW1 1055   0.691   1.038   0.260 -2.2787 -0.0037  1.1526
  352SOL    HW2 1056   0.697   1.048   0.091  2.8112 -0.3453 -0.8950
  353SOL     OW 1057   0.663   1.531   2.930  0.2564 -0.4376 -0.5805
  353SOL    HW1 1058   0.760   1.549   2.890  1.7129  1.3784  2.3154
  353SOL    HW2 1059   0.594   1.554   2.858  1.7891 -1.0590 -0.0333
  354SOL     OW 1060   1.769   2.370   1.884  0.5817  0.1807 -0.2111
  354SOL    HW1 1061   1.802   2.389   1.789 -1.3647  0.7819 -1.8056
  354SOL    HW2 1062   1.842   2.342   1.952 -0.0046  1.5826  0.5552
  355SOL     OW 1063   1.933   0.699   2.905 -0.1595 -0.1425  0.4587
  355SOL    HW1 1064   1.941   0.666   2.811  1.2922  1.2068  2.6841
  355SOL    HW2 1065   1.978   0.789   2.915 -0.4126 -3.6189 -0.6493
  356SOL     OW 1066   0.704   1.933   1.202  0.1207  0.4567 -0.4965
  356SOL    HW1 1067   0.644   2.009   1.165 -1.0009 -2.2880  1.8675
  356SOL    HW2 1068   0.768   1.967   1.274  0.6698 -0.3056  0.1011
  357SOL     OW 1069   0.294   0.197   1.868 -0.3385  0.5262  0.1212
  357SOL    HW1 1070   0.224   0.135   1.911 -2.3653 -2.1531  3.7041
  357SOL    HW2 1071   0.267   0.291   1.848  0.6377  0.7651  0.7887
  358SOL     OW 1072   2.445   1.925   1.641 -0.0800 -0.0685 -0.3681
  358SOL    HW1 1073   2.360   1.962   1.599 -2.0784  0.7199 -0.6110
  358SOL    HW2 1074   2.526   1.966   1.589  2.4213 -0.6359 -0.0809
  359SOL     OW 1075   2.026   1.961   2.321 -0.1539  0.4915  0.3646
  359SOL    HW1 1076   1.953   1.986   2.250  2.4356 -0.2315  1.8496
  359SOL    HW2 1077   2.043   2.045   2.370 -2.7220 -3.6335 -0.9683
  360SOL     OW 1078   1.328   2.624   0.733 -0.2904 -0.1885  0.0876
  360SOL    HW1 1079   1.307   2.661   0.830 -0.1562  2.7291 -0.9788
  360SOL    HW2 1080   1.400   2.687   0.690  0.1497  3.3231  1.4584
  361SOL     OW 1081   1.940   0.133   0.219 -0.5901 -0.3221  0.4111
  361SOL    HW1 1082   1.856   0.079   0.203 -2.5752  2.8915 -0.5259
  361SOL    HW2 1083   2.017   0.076   0.255  2.5190  1.4157  0.1549
  362SOL     OW 1084   1.555   0.915   1.445 -0.0694 -0.3884  0.2773
  362SOL    HW1 1085   1.595   0.963   1.364  1.2862 -0.3229 -1.7440
  362SOL    HW2 1086   1.457   0.891   1.415 -5.2347  1.5856 -1.7484
  363SOL     OW 1087   1.749   1.562   2.198  0.7863  0.3708 -0.3324
  363SOL    HW1 1088   1.669   1.577   2.255  1.8948  0.8174 -0.0721
  363SOL    HW2 1089   1.833   1.538   2.250  0.2634 -0.4726 -0.8024
  364SOL     OW 1090   0.532   0.615   1.466 -0.3961  0.0570 -0.5545
  364SOL    HW1 1091   0.550   0.512   1.482  2.3434 -1.3508  1.9578
  364SOL    HW2 1092   0.521   0.641   1.366  0.1432  3.0100 -1.5165
  365SOL     OW 1093   0.749   0.703   2.716 -0.0286  0.1845 -0.1665
  365SOL    HW1 1094   0.809   0.674   2.645 -1.1454  2.1876  0.8577
  365SOL    HW2 1095   0.751   0.807   2.718 -0.0163  2.6679 -1.8773
  366SOL     OW 1096   2.133   1.246   2.796 -0.4262 -0.4055  0.3543
  366SOL    HW1 1097   2.111   1.224   2.892 -2.5020 -1.2596 -2.3347
  366SOL    HW2 1098   2.071   1.323   2.761 -0.9304 -0.1392 -2.6815
  367SOL     OW 1099   2.949   2.663   2.215  0.0163 -0.0123  0.3276
  367SOL    HW1 1100   2.901   2.655   2.307 -0.3097 -0.7011  2.9180
  367SOL    HW2 1101   2.893   2.728   2.152 -1.1423  1.2626 -1.3990
  368SOL     OW 1102   3.020   1.210   1.333 -0.1236 -0.1559  0.0854
  368SOL    HW1 1103   3.057   1.181   1.423  1.9611  1.2037  0.9753
  368SOL    HW2 1104   2.933   1.162   1.311  0.9526 -1.7218 -0.9502
  369SOL     OW 1105   0.343   2.911   2.193  0.0082  0.1808 -0.3195
  369SOL    HW1 1106   0.399   2.910   2.104  2.0107 -2.4113 -0.9985
  369SOL    HW2 1107   0.392   2.968   2.264  0.9692  3.4608  2.2626
  370SOL     OW 1108   2.885   0.203   0.646  0.4166  0.1455  0.0295
  370SOL    HW1 1109   2.888   0.180   0.550  0.9952 -1.0667 -0.3391
  370SOL    HW2 1110   2.897   0.305   0.659 -2.2559 -0.3313 -0.7238
  371SOL     OW 1111   0.930   2.345   1.400 -0.2422 -0.1670 -0.1019
  371SOL    HW1 1112   1.020   2.389   1.425 -0.8908  0.3684 -2.4337
  371SOL    HW2 1113   0.891   2.297   1.481 -0.7248 -1.3743  0.5284
  372SOL     OW 1114   2.226   0.349   2.393  0.1498 -0.0520 -0.4604
  372SOL    HW1 1115   2.207   0.450   2.403 -0.5486  0.1782 -1.4075
  372SOL    HW2 1116   2.193   0.296   2.469  1.8088  0.4036 -1.7529
  373SOL     OW 1117   3.055   2.079   0.605 -0.3360  0.1599 -0.2288
  373SOL    HW1 1118   3.032   2.171   0.569 -0.1966 -3.7133  1.6786
  373SOL    HW2 1119   3.008   2.067   0.697  1.7742 -0.4177  2.4331
  374SOL     OW 1120   2.971   0.365   2.273 -0.1429 -0.3836  0.2468
  374SOL    HW1 1121   2.925   0.280   2.242  1.4841  3.1652 -0.0220
  374SOL    HW2 1122   3.072   0.365   2.248 -0.2974  0.7558 -0.3308
  375SOL     OW 1123   0.680   0.455   2.852 -0.0976  0.5301  0.4440
  375SOL    HW1 1124   0.693   0.537   2.790  0.2782 -1.7551 -1.8446
  375SOL    HW2 1125   0.747   0.449   2.926 -1.5126 -0.3812  0.7090
  376SOL     OW 1126   0.032   2.198   1.673 -0.4754 -0.5764  0.7998
  376SOL    HW1 1127   0.009   2.278   1.614  0.7888 -0.2532 -1.3408
  376SOL    HW2 1128   3.063   2.117   1.646 -0.9711 -0.2271  0.4877
  377SOL     OW 1129   1.132   0.312   2.706  0.2540  0.1372 -0.2835
  377SOL    HW1 1130   1.153   0.222   2.749 -2.0872 -0.3554  1.7338
  377SOL    HW2 1131   1.212   0.377   2.724  2.1428  0.6259 -0.4407
  378SOL     OW 1132   2.937   0.977   2.835  0.5036 -0.1836  0.6881
  378SOL    HW1 1133   3.031   0.938   2.819  1.6007  1.2400  0.5738
  378SOL    HW2 1134   2.860   0.916   2.807  0.2440 -1.5293  2.1464
  379SOL     OW 1135   1.041   0.849   2.761 -0.3754 -0.5940  0.4074
  379SOL    HW1 1136   0.951   0.884   2.721 -0.7522 -0.1580 -1.4932
  379SOL    HW2 1137   1.120   0.907   2.737  0.2463  3.6663  2.9857
  380SOL     OW 1138   3.014   1.944   1.754 -0.2651 -0.2382  0.1151
  380SOL    HW1 1139   0.029   1.951   1.761  3.3911  0.3733 -0.9616
  380SOL    HW2 1140   2.972   1.940   1.848  0.1186  1.6613  0.8563
  381SOL     OW 1141   2.926   1.253   2.814  0.1094  0.2260  0.7341
  381SOL    HW1 1142   3.012   1.256   2.764  0.4845 -0.3397  0.6991
  381SOL    HW2 1143   2.914   1.154   2.845  1.1024 -4.6970  1.6413
  382SOL     OW 1144   1.899   2.292   0.597 -0.1213 -0.2906 -0.3666
  382SOL    HW1 1145   1.824   2.226   0.579 -0.3913 -0.8418 -0.1323
  382SOL    HW2 1146   1.907   2.315   0.697 -0.6441  0.5268 -1.1914
  383SOL     OW 1147   0.586   1.607   0.187  0.3332 -0.1488 -0.1056
  383SOL    HW1 1148   0.673   1.660   0.173  0.5594  1.0516  3.9057
  383SOL    HW2 1149   0.584   1.549   0.273  1.5465  1.6397 -1.4240
  384SOL     OW 1150   0.816   2.391   2.426 -0.1349 -0.5918 -0.2224
  384SOL    HW1 1151   0.717   2.411   2.425  1.5867 -1.0672  1.0816
  384SOL    HW2 1152   0.836   2.301   2.468 -2.5941  2.2550  1.6611
  385SOL     OW 1153   2.346   2.044   0.627  0.3503 -0.3396  0.7337
  385SOL    HW1 1154   2.272   2.113   0.628 -1.3438 -0.4823  2.0211
  385SOL    HW2 1155   2.403   2.063   0.546 -1.0349 -0.1310  0.7896
  386SOL     OW 1156   2.379   0.728   1.094  0.0871 -0.5726  0.0652
  386SOL    HW1 1157   2.364   0.641   1.049  1.3770 -1.2341  1.2665
  386SOL    HW2 1158   2.300   0.753   1.154  4.5077 -1.1291 -0.7478
  387SOL     OW 1159   0.398   0.885   2.022 -0.1431 -0.3166 -0.2382
  387SOL    HW1 1160   0.424   0.963   2.085 -3.0610  2.8274  2.7004
  387SOL    HW2 1161   0.448   0.888   1.934 -0.0744  0.7142  1.6536
  388SOL     OW 1162   0.880   1.677   2.354  0.1694  0.3075  0.7506
  388SOL    HW1 1163   0.858   1.711   2.444 -1.7030 -1.1519  0.8575
  388SOL    HW2 1164   0.798   1.632   2.313  0.9620  3.3885  1.1427
  389SOL     OW 1165   0.843   1.259   1.808  0.4747  0.6039  0.1654
  389SOL    HW1 1166   0.744   1.266   1.823  1.4138 -0.0798 -1.2666
  389SOL    HW2 1167   0.861   1.305   1.721  0.9466 -1.1080  1.0016
  390SOL     OW 1168   0.028   2.950   0.970  0.3510  0.1245 -0.1365
  390SOL    HW1 1169   3.022   2.921   0.995  0.7227  0.9634  1.1261
  390SOL    HW2 1170   0.024   3.007   0.884  1.6404  2.0556 -0.7504
  391SOL     OW 1171   1.673   1.492   1.186 -0.3325  0.0270 -0.1934
  391SOL    HW1 1172   1.612   1.519   1.111 -0.6967 -0.9594  0.0292
  391SOL    HW2 1173   1.745   1.426   1.150  1.8290 -2.4107  0.6026
  392SOL     OW 1174   2.957   3.043   0.126 -0.4724 -0.0662  0.3167
  392SOL    HW1 1175   3.050   3.007   0.096  1.8254  0.3249 -1.5144
  392SOL    HW2 1176   2.887   2.970   0.104 -3.0189 -3.4667  0.3738
  393SOL     OW 1177   1.466   2.157   2.754 -0.0166 -0.1112  0.4892
  393SOL    HW1 1178   1.528   2.083   2.721 -0.5010  0.0127 -1.8884
  393SOL    HW2 1179   1.420   2.127   2.840  0.7698  1.1048 -3.0396
  394SOL     OW 1180   3.075   2.420   2.795 -0.3781 -0.1534  0.6554
  394SOL    HW1 1181   3.064   2.434   2.696  1.0934 -1.5345 -0.8215
  394SOL    HW2 1182   3.039   2.328   2.825 -0.8235 -1.4229  1.7774
  395SOL     OW 1183   0.202   0.164   0.920 -0.7426 -0.4028 -0.0560
  395SOL    HW1 1184   0.243   0.250   0.877 -0.7182  1.1606 -0.6561
  395SOL    HW2 1185   0.255   0.080   0.889  0.4159 -0.3839  0.6147
  396SOL     OW 1186   2.339   0.396   0.725  0.0029  0.3086 -0.4916
  396SOL    HW1 1187   2.256   0.440   0.679 -2.3049 -1.5849 -1.7073
  396SOL    HW2 1188   2.418   0.415   0.661  0.2594  1.5365 -0.4428
  397SOL     OW 1189   0.101   0.646   2.509 -0.4730  0.1845  0.0205
  397SOL    HW1 1190   0.108   0.627   2.611 -0.6492  1.9119  0.6670
  397SOL    HW2 1191   0.070   0.738   2.497  1.8193  0.2696  2.2400
  398SOL     OW 1192   0.813   0.043   2.901 -0.0330  0.1024 -0.3328
  398SOL    HW1 1193   0.725   0.042   2.854 -0.5661 -1.0544  0.8631
  398SOL    HW2 1194   0.846   0.137   2.904  0.5726 -2.4428  3.2270
  399SOL     OW 1195   2.027   0.202   1.962 -0.3772  0.5832  0.0518
  399SOL    HW1 1196   2.020   0.180   2.058 -0.8020 -0.4610 -4.2477
  399SOL    HW2 1197   1.941   0.169   1.912 -0.2487 -0.9345 -1.4997
  400SOL     OW 1198   0.981   2.217   2.749 -0.0230  0.3054 -0.7567
  400SOL    HW1 1199   1.079   2.205   2.714  2.0531 -0.2065 -1.7339
  400SOL    HW2 1200   0.961   2.319   2.753 -0.7817  4.1228 -2.5516
  401SOL     OW 1201   0.194   1.307   2.528  0.4322  0.1901 -0.0262
  401SOL    HW1 1202   0.255   1.291   2.449 -0.0987  0.1127  4.9462
  401SOL    HW2 1203   0.116   1.375   2.512 -1.2190  0.7639 -0.3711
  402SOL     OW 1204   0.241   2.920   0.291  0.0115 -0.1484  0.4103
  402SOL    HW1 1205   0.271   2.820   0.268  0.5505 -4.3349 -0.2148
  402SOL    HW2 1206   0.201   2.924   0.383  0.8047 -0.6949  0.7777
  403SOL     OW 1207   0.440   1.197   1.688  0.3199 -0.6808 -0.2003
  403SOL    HW1 1208   0.516   1.165   1.627 -3.6566 -0.4438  0.1414
  403SOL    HW2 1209   0.357   1.214   1.629  2.8576  2.2224 -0.3994
  404SOL     OW 1210   2.249   2.520   2.442  0.3799  0.4337  0.3288
  404SOL    HW1 1211   2.156   2.481   2.438  0.5346 -1.6351 -1.4181
  404SOL    HW2 1212   2.313   2.458   2.390 -1.8945 -1.7231 -1.8471
  405SOL     OW 1213   0.097   0.527   1.892 -0.6817 -0.5832 -0.3789
  405SOL    HW1 1214   0.040   0.448   1.928  1.3835 -0.8909  2.3153
  405SOL    HW2 1215   0.158   0.492   1.817  0.4275 -0.1165 -0.8253
  406SOL     OW 1216   1.200   1.577   2.794  0.2594 -0.1100 -0.0980
  406SOL    HW1 1217   1.210   1.571   2.693 -0.5476  3.4972 -0.7041
  406SOL    HW2 1218   1.288   1.546   2.837  1.7311 -0.6880 -2.1031
  407SOL     OW 1219   1.968   0.662   2.643 -0.1670  0.3988  0.0524
  407SOL    HW1 1220   1.923   0.741   2.601  1.6758  0.1622 -1.4869
  407SOL    HW2 1221   2.052   0.642   2.591  0.3038 -1.5408 -1.1391
  408SOL     OW 1222   0.357   2.547   2.314  0.0888  0.1671 -0.1222
  408SOL    HW1 1223   0.254   2.564   2.334  0.8623  0.5781  0.9067
  408SOL    HW2 1224   0.393   2.617   2.255 -1.6861  1.9087  0.7756
  409SOL     OW 1225   0.155   2.579   1.350 -0.4462  0.2302  0.3449
  409SOL    HW1 1226   0.175   2.649   1.276  0.4601  0.7131 -2.8821
  409SOL    HW2 1227   0.066   2.597   1.399 -2.2532  2.6747  3.5338
  410SOL     OW 1228   2.793   1.747   0.496  0.2088  0.0431 -0.7032
  410SOL    HW1 1229   2.890   1.784   0.485  1.0560 -2.2701  0.9614
  410SOL    HW2 1230   2.773   1.676   0.430  0.6761  2.2673  3.1385
  411SOL     OW 1231   2.481   0.075   1.456 -0.1686  0.1231  0.3005
  411SOL    HW1 1232   2.463   0.062   1.359  0.2984 -0.5280  1.8828
  411SOL    HW2 1233   2.464   3.075   1.509 -2.4665  0.0406 -0.9555
  412SOL     OW 1234   2.274   0.219   1.528 -0.5370  0.1285 -0.0183
  412SOL    HW1 1235   2.376   0.194   1.531  2.3087  0.5630 -0.5115
  412SOL    HW2 1236   2.216   0.157   1.470 -0.9789 -0.8477 -1.9521
  413SOL     OW 1237   0.172   0.338   2.251 -0.5383 -0.5806 -0.7082
  413SOL    HW1 1238   0.192   0.425   2.303 -0.8914 -1.5617 -1.6198
  413SOL    HW2 1239   0.252   0.275   2.254  1.1432 -0.2420 -1.0710
  414SOL     OW 1240   2.666   1.329   0.176  0.0682  0.1532 -0.0834
  414SOL    HW1 1241   2.621   1.363   0.088  0.8252  0.5084 -0.1575
  414SOL    HW2 1242   2.597   1.325   0.254 -2.1288  0.0807  0.2014
  415SOL     OW 1243   0.922   2.493   0.181  0.4432  0.1531  0.3159
  415SOL    HW1 1244   0.982   2.572   0.167 -1.6255 -1.8192 -2.5528
  415SOL    HW2 1245   0.935   2.446   0.271 -2.0767  1.3002  0.3233
  416SOL     OW 1246   1.470   2.777   2.610 -0.0951 -0.4320 -0.3567
  416SOL    HW1 1247   1.405   2.699   2.618 -1.3672 -1.7427 -0.2652
  416SOL    HW2 1248   1.557   2.736   2.577 -0.3092  0.4912  0.8046
  417SOL     OW 1249   0.318   1.017   1.332 -0.1774 -0.2340  0.3726
  417SOL    HW1 1250   0.270   1.005   1.243 -0.4533  0.6445 -0.2121
  417SOL    HW2 1251   0.422   1.013   1.327  1.3456  1.8012  0.4368
  418SOL     OW 1252   2.743   0.047   0.863  0.4561  0.2309 -0.8625
  418SOL    HW1 1253   2.643   0.032   0.854  2.4940  1.8807  0.5694
  418SOL    HW2 1254   2.769   0.135   0.834  0.1210 -3.6596  2.2238
  419SOL     OW 1255   0.431   3.075   0.188 -0.4229 -0.0730  0.0729
  419SOL    HW1 1256   0.371   3.012   0.245 -0.1207 -0.4752 -0.9624
  419SOL    HW2 1257   0.528   3.040   0.170 -2.1817  0.8080  4.0467
  420SOL     OW 1258   0.236   1.205   1.514  0.1515 -0.3373  0.2073
  420SOL    HW1 1259   0.260   1.127   1.453 -0.9514 -1.8590 -0.2446
  420SOL    HW2 1260   0.143   1.194   1.550  3.7914 -1.2939 -0.1484
  421SOL     OW 1261   1.741   2.620   0.728 -0.1424  0.0072  0.5516
  421SOL    HW1 1262   1.818   2.588   0.670 -0.9294 -0.5794  1.2136
  421SOL    HW2 1263   1.661   2.556   0.738  0.4335 -1.2519 -0.7612
  422SOL     OW 1264   0.351   0.397   1.449 -0.0507 -0.5823  0.5089
  422SOL    HW1 1265   0.381   0.364   1.353 -0.2074 -0.1719 -4.2324
  422SOL    HW2 1266   0.293   0.483   1.439  1.3328  0.4303  0.1645
  423SOL     OW 1267   0.949   1.329   2.041 -0.2026 -0.2406  0.1872
  423SOL    HW1 1268   0.919   1.296   1.945 -3.0295  1.9310 -0.7362
  423SOL    HW2 1269   0.958   1.432   2.042 -1.0502 -1.0969  0.1878
  424SOL     OW 1270   1.730   2.066   0.478  0.3725  0.0463 -0.2351
  424SOL    HW1 1271   1.726   2.041   0.377 -1.1639  0.2322 -2.3328
  424SOL    HW2 1272   1.802   2.014   0.529 -3.4700  0.6633 -2.4362
  425SOL     OW 1273   2.790   2.855   2.071  0.2279  0.6699 -0.1085
  425SOL    HW1 1274   2.691   2.837   2.095  1.4166 -2.7728 -1.6132
  425SOL    HW2 1275   2.797   2.897   1.979 -2.2642 -0.5160  1.7243
  426SOL     OW 1276   0.105   2.768   2.698 -0.0046 -0.0166  0.0891
  426SOL    HW1 1277   0.038   2.799   2.768  0.6022 -0.7253  1.8258
  426SOL    HW2 1278   0.082   2.821   2.613  2.9621 -1.0087  0.0331
  427SOL     OW 1279   0.992   2.950   0.223 -0.2462 -0.5685  0.3062
  427SOL    HW1 1280   1.018   3.045   0.251 -4.3620 -2.6112 -0.5337
  427SOL    HW2 1281   0.955   2.948   0.127  0.0892 -2.0233  1.3413
  428SOL     OW 1282   2.992   0.519   1.518  0.8564  0.1013 -0.1371
  428SOL    HW1 1283   2.966   0.427   1.557 -1.7361 -1.8944  0.0147
  428SOL    HW2 1284   2.925   0.557   1.452 -0.1157  0.1659 -0.6396
  429SOL     OW 1285   2.064   0.044   0.625 -0.4063 -1.0518  0.4148
  429SOL    HW1 1286   2.040   3.032   0.639 -1.6036 -1.1260  0.7792
  429SOL    HW2 1287   2.153   0.064   0.577  2.0510 -0.5912  0.4830
  430SOL     OW 1288   0.887   1.587   2.798  0.2879  0.2263  0.5739
  430SOL    HW1 1289   0.981   1.560   2.831  1.5263 -1.3386  0.3937
  430SOL    HW2 1290   0.894   1.660   2.724  0.1684  2.0269 -1.1615
  431SOL     OW 1291   2.985   2.122   1.251  0.4716 -0.3803 -0.0459
  431SOL    HW1 1292   2.911   2.059   1.232  2.1038 -0.0312 -0.8664
  431SOL    HW2 1293   3.039   2.102   1.339  1.7369  0.9324 -0.5712
  432SOL     OW 1294   1.595   2.394   2.805 -0.4349 -0.2395  0.4965
  432SOL    HW1 1295   1.629   2.427   2.714 -0.8764 -0.8243  0.0698
  432SOL    HW2 1296   1.516   2.338   2.788  1.5511  1.5197  1.2486
  433SOL     OW 1297   1.251   0.546   2.415 -0.5375  0.1321  0.3160
  433SOL    HW1 1298   1.198   0.633   2.412  0.5377 -0.2924  0.2300
  433SOL    HW2 1299   1.337   0.553   2.471  0.2428 -0.3943  1.2198
  434SOL     OW 1300   0.877   2.636   2.045 -0.1615 -0.4419 -0.2854
  434SOL    HW1 1301   0.909   2.587   1.963 -2.0441  2.4092  0.3111
  434SOL    HW2 1302   0.841   2.576   2.120 -0.2228  0.0026 -1.0471
  435SOL     OW 1303   0.279   0.041   3.039 -0.0957  0.1414  0.1360
  435SOL    HW1 1304   0.331   0.041   0.039 -1.2866  0.1933 -2.9566
  435SOL    HW2 1305   0.192   0.103   3.041 -0.0285  1.0573 -0.9020
  436SOL     OW 1306   0.586   1.421   2.468  0.4762 -0.9616 -0.3108
  436SOL    HW1 1307   0.514   1.362   2.426  0.7134 -0.0239  1.4204
  436SOL    HW2 1308   0.646   1.453   2.394 -0.3635 -0.6867  1.6606
  437SOL     OW 1309   1.217   2.439   2.441 -0.0188 -0.2611 -0.1650
  437SOL    HW1 1310   1.185   2.399   2.357  3.1278  0.2098  2.5570
  437SOL    HW2 1311   1.155   2.508   2.480  1.8231  1.9113  2.5661
  438SOL     OW 1312   0.715   0.846   0.574 -0.5957 -0.0557  0.4858
  438SOL    HW1 1313   0.768   0.876   0.657 -1.1276  1.9609  1.6694
  438SOL    HW2 1314   0.741   0.754   0.541 -0.1984 -2.1430 -0.5463
  439SOL     OW 1315   2.930   1.516   2.263 -0.1959 -0.0065  0.7553
  439SOL    HW1 1316   2.872   1.442   2.296  0.3479  0.9803 -0.5332
  439SOL    HW2 1317   2.875   1.602   2.254  1.7522 -1.9641 -0.3367
  440SOL     OW 1318   2.887   0.538   2.702 -0.4136 -0.1696  0.2888
  440SOL    HW1 1319   2.849   0.491   2.622  0.1436 -1.5189  1.3815
  440SOL    HW2 1320   2.904   0.637   2.681  3.6811 -1.8476 -1.3678
  441SOL     OW 1321   0.641   1.709   1.349 -0.2974 -0.5045  0.0563
  441SOL    HW1 1322   0.648   1.784   1.280  1.1345  1.2858  2.2678
  441SOL    HW2 1323   0.558   1.722   1.405 -0.9784  0.4886  0.2242
  442SOL     OW 1324   1.992   1.385   0.790  0.1623  0.0802 -0.1481
  442SOL    HW1 1325   1.983   1.364   0.691  2.1839 -2.0824  1.0295
  442SOL    HW2 1326   1.921   1.451   0.817  0.6263  1.9367 -1.2095
  443SOL     OW 1327   2.490   2.063   3.013  0.3018 -0.1748 -0.0551
  443SOL    HW1 1328   2.410   2.108   2.965 -0.1870 -0.0330  0.9876
  443SOL    HW2 1329   2.571   2.036   2.954  1.1067 -0.4837 -0.9074
  444SOL     OW 1330   1.681   1.331   2.906  0.0376  0.2852  0.9205
  444SOL    HW1 1331   1.717   1.323   2.810  1.2716  0.9426 -2.6012
  444SOL    HW2 1332   1.682   1.432   2.926  0.9861  0.7721 -0.7379
  445SOL     OW 1333   0.488   2.364   2.125 -0.4571 -0.7925 -0.4774
  445SOL    HW1 1334   0.481   2.448   2.177  1.4175 -2.1138 -0.4247
  445SOL    HW2 1335   0.433   2.287   2.165 -2.0282 -0.9404 -1.8835
  446SOL     OW 1336   0.836   0.876   1.872  0.3894  0.0485 -0.3168
  446SOL    HW1 1337   0.807   0.821   1.787 -0.5998 -2.0014 -1.6000
  446SOL    HW2 1338   0.898   0.815   1.921  0.9037  1.0772  0.4852
  447SOL     OW 1339   1.126   0.756   0.584  0.3121  0.4438  0.4007
  447SOL    HW1 1340   1.182   0.804   0.512  1.8999 -2.5195 -1.6364
  447SOL    HW2 1341   1.170   0.672   0.622  1.4748 -0.2568 -0.9405
  448SOL     OW 1342   1.253   1.049   2.022 -0.2593 -0.1046 -0.1157
  448SOL    HW1 1343   1.182   1.081   1.957 -1.1518  1.9623 -1.2236
  448SOL    HW2 1344   1.328   0.997   1.979 -1.2106  2.0716 -1.2295
  449SOL     OW 1345   0.246   1.646   2.358  0.1990  0.0075  0.0176
  449SOL    HW1 1346   0.178   1.646   2.433 -1.5398  1.7411  2.5843
  449SOL    HW2 1347   0.202   1.597   2.279 -1.3660 -0.8680 -2.4490
  450SOL     OW 1348   2.118   1.303   2.093  0.1983  0.0757 -0.0502
  450SOL    HW1 1349   2.093   1.399   2.059  0.1432  0.7753 -1.3701
  450SOL    HW2 1350   2.217   1.282   2.107  0.3752 -0.8981 -0.9206
  451SOL     OW 1351   2.560   1.511   1.436  0.1626  0.4465  0.4039
  451SOL    HW1 1352   2.654   1.505   1.468 -0.3380  0.6734 -0.0288
  451SOL    HW2 1353   2.529   1.413   1.423  3.8550  1.2353  0.9605
  452SOL     OW 1354   0.856   0.957   1.305 -0.0017  0.1412  0.1866
  452SOL    HW1 1355   0.862   0.998   1.398  0.9200 -2.0283 -0.0721
  452SOL    HW2 1356   0.939   0.899   1.292  0.8479  0.4752  1.4605
  453SOL     OW 1357   0.249   1.969   0.996  0.1722 -0.2052 -0.0113
  453SOL    HW1 1358   0.155   2.017   0.982 -4.4588  1.2672 -1.4110
  453SOL    HW2 1359   0.308   1.988   0.913 -0.5016 -0.6247 -0.3410
  454SOL     OW 1360   1.279   1.198   0.279 -0.0636 -0.0320  0.1959
  454SOL    HW1 1361   1.380   1.182   0.274 -0.9044 -0.0516  2.3354
  454SOL    HW2 1362   1.264   1.284   0.332 -1.5564  3.6738  1.3377
  455SOL     OW 1363   1.859   0.567   1.011 -0.1247 -0.1440 -0.0515
  455SOL    HW1 1364   1.874   0.468   0.992 -0.0187 -2.9006 -0.3530
  455SOL    HW2 1365   1.947   0.618   1.014  0.0509 -3.5092 -3.0579
  456SOL     OW 1366   1.778   2.862   0.395  0.5471 -0.4269  0.1544
  456SOL    HW1 1367   1.753   2.760   0.394 -0.7668 -0.9898  0.4630
  456SOL    HW2 1368   1.707   2.919   0.443  0.2122  0.9153  2.4836
  457SOL     OW 1369   1.930   1.138   2.158 -0.3576  0.5249  0.0352
  457SOL    HW1 1370   2.000   1.209   2.127  0.1390 -0.4945  0.5232
  457SOL    HW2 1371   1.903   1.153   2.253  1.3252  1.1666 -3.8018
  458SOL     OW 1372   2.465   0.486   2.212  0.5534 -0.1510 -0.2462
  458SOL    HW1 1373   2.532   0.558   2.206  1.0161 -2.5305 -1.7880
  458SOL    HW2 1374   2.466   0.442   2.120 -0.2212 -0.1065 -1.4554
  459SOL     OW 1375   2.501   1.536   2.404 -0.0127  0.1595 -0.2621
  459SOL    HW1 1376   2.518   1.468   2.329 -0.2848 -0.9838  0.3215
  459SOL    HW2 1377   2.584   1.555   2.463  1.4396  0.1050  4.1769
  460SOL     OW 1378   0.822   0.981   2.664  0.3464  0.3445 -0.5426
  460SOL    HW1 1379   0.813   1.011   2.568 -0.8253  1.3663 -1.0538
  460SOL    HW2 1380   0.785   1.047   2.735 -1.9338  4.0227 -0.1477
  461SOL     OW 1381   0.402   2.266   0.201  0.2249 -0.2401 -0.5778
  461SOL    HW1 1382   0.426   2.347   0.257 -0.5305  0.5005  2.4501
  461SOL    HW2 1383   0.328   2.286   0.137 -0.1634 -0.7714  2.5699
  462SOL     OW 1384   1.198   2.888   2.363 -0.0950 -0.1516  0.1760
  462SOL    HW1 1385   1.285   2.834   2.342  3.1484 -0.0117 -0.2990
  462SOL    HW2 1386   1.155   2.931   2.281 -2.6800 -0.7708  2.2162
  463SOL     OW 1387   1.969   2.248   2.035 -0.1142  0.2663  0.0178
  463SOL    HW1 1388   1.926   2.173   2.096 -2.4374 -0.3434  0.3161
  463SOL    HW2 1389   2.044   2.201   1.979  0.5808 -0.7949 -1.6715
  464SOL     OW 1390   2.439   2.598   0.642  0.2665  0.4417  0.1518
  464SOL    HW1 1391   2.340   2.599   0.674 -1.6956  0.4473 -2.1453
  464SOL    HW2 1392   2.498   2.574   0.723 -1.1726 -1.3732 -1.9361
  465SOL     OW 1393   0.100   0.180   1.483  0.2242  0.0742 -0.4599
  465SOL    HW1 1394   0.084   0.112   1.406 -0.0724 -4.6294 -3.6007
  465SOL    HW2 1395   0.183   0.232   1.476 -1.3654  0.8312  2.0191
  466SOL     OW 1396   1.352   2.536   2.645 -0.0447  0.0169 -0.3433
  466SOL    HW1 1397   1.446   2.493   2.646  0.0458 -0.9309  3.1134
  466SOL    HW2 1398   1.305   2.499   2.562  2.4935 -2.0234 -1.9477
  467SOL     OW 1399   3.047   2.241   0.222 -0.4896 -0.1017  0.4570
  467SOL    HW1 1400   2.968   2.196   0.181 -0.3504  0.3954  2.7009
  467SOL    HW2 1401   3.052   2.335   0.186 -0.5052 -1.0328  1.7611
  468SOL     OW 1402   2.263   2.133   2.861  0.4016 -0.4265 -0.2306
  468SOL    HW1 1403   2.168   2.161   2.884  1.9908  0.0909 -2.4445
  468SOL    HW2 1404   2.256   2.045   2.813 -1.6839 -3.5253  1.0845
  469SOL     OW 1405   0.718   1.861   0.644 -0.1304  0.2006 -0.6488
  469SOL    HW1 1406   0.737   1.843   0.743  1.0989  0.9377 -2.1321
  469SOL    HW2 1407   0.786   1.811   0.591  2.0263 -2.9401  2.8461
  470SOL     OW 1408   2.078   0.722   0.986 -0.4496  0.1189  0.1480
  470SOL    HW1 1409   2.158   0.698   0.928  0.5167 -2.1779  0.6582
  470SOL    HW2 1410   2.108   0.771   1.073  1.4663  2.0026 -2.0786
  471SOL     OW 1411   0.311   1.867   0.438 -0.1569  0.1440 -0.4016
  471SOL    HW1 1412   0.331   1.825   0.345  0.4522 -1.1621 -0.3785
  471SOL    HW2 1413   0.309   1.968   0.437 -2.8435 -1.8106 -0.1404
  472SOL     OW 1414   2.725   1.981   2.843  0.1473 -0.5342 -0.4937
  472SOL    HW1 1415   2.820   1.992   2.872 -0.6879  0.3009  0.0309
  472SOL    HW2 1416   2.709   2.034   2.759  0.4975  2.6598 -2.0295
  473SOL     OW 1417   1.462   1.852   0.699 -0.7154  0.2036 -0.4840
  473SOL    HW1 1418   1.404   1.930   0.669 -0.2423 -0.5030 -1.2924
  473SOL    HW2 1419   1.502   1.874   0.793  2.1597  0.1939  3.8422
  474SOL     OW 1420   2.817   0.353   1.201  0.1823  0.8758 -0.2146
  474SOL    HW1 1421   2.741   0.342   1.140  1.1509  2.0688  1.2557
  474SOL    HW2 1422   2.909   0.333   1.168  1.1561  1.3115  0.2657
  475SOL     OW 1423   2.840   2.956   1.829 -0.1828  0.2503  0.8559
  475SOL    HW1 1424   2.887   2.916   1.744  1.4953 -1.9519 -1.7446
  475SOL    HW2 1425   2.831   3.056   1.820  1.8249 -2.7839 -1.2453
  476SOL     OW 1426   0.678   0.130   0.861 -0.0412  0.1626  0.2142
  476SOL    HW1 1427   0.741   0.208   0.845  0.1311 -0.3571 -0.2308
  476SOL    HW2 1428   0.593   0.136   0.804  0.9706  1.4926  0.6666
  477SOL     OW 1429   1.277   2.476   1.206 -0.0386  0.0278  0.0242
  477SOL    HW1 1430   1.226   2.489   1.292  0.6079 -2.5440 -0.4398
  477SOL    HW2 1431   1.377   2.462   1.229  2.2167 -1.7553 -1.0606
  478SOL     OW 1432   1.296   2.438   0.019  0.3988  0.0952  0.7294
  478SOL    HW1 1433   1.262   2.501   3.032  2.0980  1.0290 -2.6908
  478SOL    HW2 1434   1.317   2.482   0.108  0.3547  0.5306  1.0151
  479SOL     OW 1435   2.371   1.285   1.882 -0.1142  0.5203  0.2749
  479SOL    HW1 1436   2.291   1.224   1.885 -1.4753  1.1198 -1.3464
  479SOL    HW2 1437   2.453   1.231   1.903 -2.2519  2.4798 -1.1744
  480SOL     OW 1438   2.621   2.333   2.815  0.0027 -0.0628  0.0776
  480SOL    HW1 1439   2.661   2.256   2.761  1.3213  0.3477  2.5376
  480SOL    HW2 1440   2.526   2.361   2.782 -0.3870  0.1252 -2.8080
  481SOL     OW 1441   1.677   2.826   1.506 -0.0130 -0.3126  0.0357
  481SOL    HW1 1442   1.704   2.751   1.561  1.0562  2.1014 -2.9314
  481SOL    HW2 1443   1.576   2.841   1.510  0.4787 -2.0344 -0.7156
  482SOL     OW 1444   1.491   2.438   2.305 -0.1551  0.0379  0.0419
  482SOL    HW1 1445   1.524   2.490   2.226 -1.7122 -0.7956  0.1506
  482SOL    HW2 1446   1.392   2.467   2.315 -2.2586 -0.2574  1.7247
  483SOL     OW 1447   1.207   2.579   2.870 -0.4814  0.0520  0.2061
  483SOL    HW1 1448   1.128   2.521   2.838 -1.0877  0.1188  0.4098
  483SOL    HW2 1449   1.288   2.568   2.808  0.1920 -1.8659 -1.7415
  484SOL     OW 1450   2.420   2.964   1.613  0.9894 -0.1594 -0.3294
  484SOL    HW1 1451   2.319   2.949   1.624 -1.4717  0.1993 -1.2678
  484SOL    HW2 1452   2.476   2.889   1.663  2.1696 -0.4007 -0.2531
  485SOL     OW 1453   2.195   0.574   0.562 -0.3529  0.1322  0.3607
  485SOL    HW1 1454   2.245   0.640   0.500  5.2173  5.1711 -0.1435
  485SOL    HW2 1455   2.111   0.541   0.511 -0.1890  2.4883  1.3875
  486SOL     OW 1456   2.437   2.693   2.536 -0.2884  0.3983  0.3061
  486SOL    HW1 1457   2.386   2.765   2.586 -1.6754  0.1842 -0.9652
  486SOL    HW2 1458   2.378   2.618   2.509  2.8152  0.4635  0.1228
  487SOL     OW 1459   1.473   0.824   0.689 -0.2920 -0.1848  0.5267
  487SOL    HW1 1460   1.403   0.874   0.735  1.5712 -1.2647 -1.2633
  487SOL    HW2 1461   1.472   0.722   0.713 -2.4744 -1.4776 -1.2384
  488SOL     OW 1462   2.653   2.938   2.377 -0.0591  0.2481 -0.2450
  488SOL    HW1 1463   2.618   2.856   2.325  1.6354  2.0940  0.9344
  488SOL    HW2 1464   2.596   3.021   2.349 -0.0111 -0.9413 -1.6537
  489SOL     OW 1465   1.177   2.606   0.385  0.3254 -0.0451  0.1482
  489SOL    HW1 1466   1.165   2.668   0.462 -0.0997  0.4448  0.9616
  489SOL    HW2 1467   1.125   2.523   0.402  3.5336  0.3250  0.3116
  490SOL     OW 1468   1.405   0.444   3.023 -0.5093  0.5730 -0.0370
  490SOL    HW1 1469   1.506   0.449   3.026  0.3758  2.9844  0.5585
  490SOL    HW2 1470   1.367   0.496   0.016 -1.9018  0.8044  2.0206
  491SOL     OW 1471   0.946   2.995   1.046  0.0646 -0.6265 -0.0928
  491SOL    HW1 1472   0.856   3.043   1.060  0.3972  1.9939 -1.3829
  491SOL    HW2 1473   1.019   3.028   1.111  1.5999 -0.4411 -1.0139
  492SOL     OW 1474   1.738   2.606   0.363  0.2943  0.4962  0.1761
  492SOL    HW1 1475   1.824   2.582   0.316  0.2564  2.1914 -0.5924
  492SOL    HW2 1476   1.671   2.535   0.382  1.5702  0.0781 -2.0709
  493SOL     OW 1477   0.952   1.977   2.900 -0.3607  0.1697 -0.1793
  493SOL    HW1 1478   1.003   1.901   2.855  1.8079  2.3907 -1.0866
  493SOL    HW2 1479   0.973   2.065   2.852  0.2421 -3.0122 -1.1131
  494SOL     OW 1480   0.897   0.632   0.493  0.1464  0.2200 -0.1688
  494SOL    HW1 1481   0.898   0.633   0.391 -0.4896 -0.7919 -0.7154
  494SOL    HW2 1482   0.966   0.695   0.530 -4.0222  0.8776 -0.2093
  495SOL     OW 1483   2.810   0.144   1.850  0.4219  0.1147 -0.2887
  495SOL    HW1 1484   2.834   0.180   1.755 -0.4249 -0.6300 -0.5831
  495SOL    HW2 1485   2.815   0.219   1.915  0.8242 -3.4371 -0.1696
  496SOL     OW 1486   2.244   2.190   2.498 -0.0534  0.1580 -0.2476
  496SOL    HW1 1487   2.296   2.248   2.435  0.0607  0.6669  1.4286
  496SOL    HW2 1488   2.294   2.107   2.520  1.0003  2.9985  0.6592
  497SOL     OW 1489   1.393   1.318   2.608 -0.3480 -0.1934 -0.5834
  497SOL    HW1 1490   1.387   1.259   2.687 -1.0104  0.1277 -1.2205
  497SOL    HW2 1491   1.473   1.384   2.627  0.4784 -1.8537 -0.6456
  498SOL     OW 1492   0.810   2.567   1.111 -0.6971 -0.4291 -0.1573
  498SOL    HW1 1493   0.716   2.576   1.074  0.3478 -0.3603  1.0062
  498SOL    HW2 1494   0.840   2.471   1.124 -0.8060  1.6189 -0.6504
  499SOL     OW 1495   0.013   2.104   0.984  0.0390  0.0434  0.2579
  499SOL    HW1 1496   3.024   2.060   0.930 -0.5083 -1.2347  2.8897
  499SOL    HW2 1497   3.060   2.115   1.077 -1.5858  0.2063 -1.9671
  500SOL     OW 1498   0.676   2.547   2.833 -0.1817  0.6468  0.4318
  500SOL    HW1 1499   0.589   2.505   2.872 -1.4891 -2.6866 -2.4317
  500SOL    HW2 1500   0.648   2.606   2.753 -0.6614  1.1553  0.6649
  501SOL     OW 1501   1.731   3.073   0.194  0.5176  0.3810 -1.1446
  501SOL    HW1 1502   1.767   2.991   0.240  0.0045 -0.7563 -1.5732
  501SOL    HW2 1503   1.629   3.068   0.198 -1.1097  0.9212 -0.0902
  502SOL     OW 1504   0.006   0.052   0.761  0.1633  0.0291  0.1687
  502SOL    HW1 1505   3.019   0.122   0.739 -1.2521  3.4189 -0.7124
  502SOL    HW2 1506   0.096   0.088   0.798  4.3417  2.7364 -0.1470
  503SOL     OW 1507   1.960   2.860   2.129  0.0525 -0.5685 -0.1581
  503SOL    HW1 1508   1.994   2.814   2.213 -0.7003  0.1514 -2.4428
  503SOL    HW2 1509   1.863   2.883   2.156 -2.1293  2.0554  2.0684
  504SOL     OW 1510   2.368   1.553   1.909  0.2644 -0.0557  0.0456
  504SOL    HW1 1511   2.467   1.573   1.924 -2.9406  0.2104 -2.3120
  504SOL    HW2 1512   2.364   1.452   1.908 -2.7730  2.4448 -1.3909
  505SOL     OW 1513   1.686   2.915   2.210  0.2772  0.7094 -0.3255
  505SOL    HW1 1514   1.739   2.986   2.259  0.1756 -0.4977  2.3270
  505SOL    HW2 1515   1.593   2.945   2.174 -1.7591  1.7788 -1.4888
  506SOL     OW 1516   0.169   0.754   2.053  0.2431 -0.0353  0.3013
  506SOL    HW1 1517   0.166   0.677   1.982 -1.3495 -1.3348 -1.2668
  506SOL    HW2 1518   0.247   0.816   2.033 -1.2967  0.8084  0.6771
  507SOL     OW 1519   1.924   0.505   0.474 -0.0819  0.0947 -0.2789
  507SOL    HW1 1520   1.892   0.582   0.412  0.3428  2.4518 -1.2773
  507SOL    HW2 1521   1.887   0.417   0.440  1.6972 -2.3706  0.3339
  508SOL     OW 1522   2.013   0.482   1.970  0.5566  0.1143 -0.3929
  508SOL    HW1 1523   1.978   0.513   1.881 -0.6892  1.0065  0.3300
  508SOL    HW2 1524   2.029   0.384   1.974 -2.3649  2.6763 -0.7120
  509SOL     OW 1525   0.589   1.795   2.988 -0.3829 -0.1376 -0.6031
  509SOL    HW1 1526   0.646   1.860   3.045  0.9635  2.4522 -1.5017
  509SOL    HW2 1527   0.634   1.702   2.984 -0.3543 -1.2594 -3.3575
  510SOL     OW 1528   0.328   0.881   0.853  0.1013  0.3791 -0.1559
  510SOL    HW1 1529   0.242   0.857   0.808  1.1106 -2.0561  3.1646
  510SOL    HW2 1530   0.362   0.973   0.827 -0.7616 -2.2976  0.1804
  511SOL     OW 1531   1.490   1.282   1.224  0.2995  0.1097  0.5583
  511SOL    HW1 1532   1.548   1.199   1.247  1.3546 -1.0409 -0.5140
  511SOL    HW2 1533   1.552   1.364   1.237 -2.2976  1.8311 -2.8421
  512SOL     OW 1534   0.332   2.029   0.757  0.3387  0.2588  0.3121
  512SOL    HW1 1535   0.259   1.995   0.695  0.0438 -1.4827  2.8401
  512SOL    HW2 1536   0.414   2.076   0.720 -2.4925  1.1604  1.9364
  513SOL     OW 1537   0.276   2.569   0.867  0.4722  0.3237  0.4889
  513SOL    HW1 1538   0.218   2.483   0.850  1.0718 -1.4646 -1.7842
  513SOL    HW2 1539   0.333   2.565   0.948 -2.8685 -0.8235 -2.1929
  514SOL     OW 1540   0.633   2.070   0.483  0.4555  0.0184 -0.1762
  514SOL    HW1 1541   0.714   2.103   0.437  1.8236  1.3495  2.7829
  514SOL    HW2 1542   0.653   1.989   0.539  0.4219  0.6231 -0.9022
  515SOL     OW 1543   0.041   0.203   3.028 -0.1706 -0.0042  0.3730
  515SOL    HW1 1544   3.041   0.178   3.077  1.3503 -1.5926 -2.0332
  515SOL    HW2 1545   0.086   0.286   3.054  0.8153 -0.7068 -2.9142
  516SOL     OW 1546   2.221   2.959   1.297 -0.8138  0.1546  0.2091
  516SOL    HW1 1547   2.141   2.939   1.362 -2.8765  0.5341 -2.0099
  516SOL    HW2 1548   2.212   3.049   1.252 -0.6160 -0.2923  0.9705
  517SOL     OW 1549   1.803   1.584   0.841  0.0581 -0.1533 -0.2732
  517SOL    HW1 1550   1.777   1.642   0.759  0.0962  0.3836  0.4460
  517SOL    HW2 1551   1.803   1.636   0.932  2.0694  1.6732  1.5307
  518SOL     OW 1552   1.702   2.803   0.935 -0.6265  0.0405  0.8066
  518SOL    HW1 1553   1.657   2.751   1.010  1.9935 -0.2529 -2.1206
  518SOL    HW2 1554   1.717   2.744   0.854 -0.7056 -0.2738 -2.2563
  519SOL     OW 1555   2.964   2.630   0.340 -0.1440 -0.5583  0.3812
  519SOL    HW1 1556   3.052   2.579   0.361  1.0837 -0.8742  1.0766
  519SOL    HW2 1557   2.909   2.650   0.428 -0.8335  1.2488  1.8606
  520SOL     OW 1558   2.123   1.727   2.214  0.1691  0.8672  0.8837
  520SOL    HW1 1559   2.095   1.821   2.251  1.3208 -2.3369 -2.0925
  520SOL    HW2 1560   2.064   1.651   2.255 -1.0173  2.6179  2.6724
  521SOL     OW 1561   1.391   2.904   1.858 -0.1041 -0.2044 -0.1579
  521SOL    HW1 1562   1.433   2.901   1.767 -0.1660  1.1301 -0.2607
  521SOL    HW2 1563   1.296   2.868   1.861  1.3081 -0.4732  1.8762
  522SOL     OW 1564   0.529   2.309   1.844 -0.2793  0.0940 -0.5862
  522SOL    HW1 1565   0.451   2.331   1.902 -0.5934  0.9906 -2.5621
  522SOL    HW2 1566   0.612   2.289   1.899 -1.0902 -1.4480  0.3111
  523SOL     OW 1567   0.731   2.290   2.009  0.2723  0.1891  0.4135
  523SOL    HW1 1568   0.648   2.329   2.059  0.0205 -0.3396  0.0463
  523SOL    HW2 1569   0.801   2.275   2.083  0.2280 -0.9154  0.0504
  524SOL     OW 1570   2.145   2.229   0.520  0.1221  0.5294 -0.1127
  524SOL    HW1 1571   2.135   2.168   0.438  0.7535 -0.2687 -0.0089
  524SOL    HW2 1572   2.051   2.256   0.559 -1.8157  1.7534  1.9812
  525SOL     OW 1573   2.667   0.710   2.439 -0.1805 -0.0073 -0.3854
  525SOL    HW1 1574   2.719   0.622   2.436 -1.7135  3.1008 -0.4967
  525SOL    HW2 1575   2.576   0.701   2.474  0.4187  1.4222 -0.5789
  526SOL     OW 1576   0.407   2.546   0.562  0.0605  0.3680 -0.2196
  526SOL    HW1 1577   0.488   2.486   0.570 -0.6706 -0.0514 -0.8122
  526SOL    HW2 1578   0.417   2.642   0.594 -0.8551 -0.0285  0.2714
  527SOL     OW 1579   2.959   0.981   0.746 -0.2785 -0.1386  0.1707
  527SOL    HW1 1580   2.900   0.972   0.662  0.2354 -0.3711 -0.6054
  527SOL    HW2 1581   2.906   0.990   0.830 -1.5795  1.7516 -0.8676
  528SOL     OW 1582   0.971   1.239   2.295 -0.1761 -0.0169  0.0749
  528SOL    HW1 1583   1.049   1.280   2.345 -0.9809  1.1800 -0.6578
  528SOL    HW2 1584   0.971   1.268   2.197 -2.3576  0.9407 -0.4818
  529SOL     OW 1585   0.885   1.295   0.253  0.1925  0.0268 -0.3373
  529SOL    HW1 1586   0.943   1.213   0.242 -2.6436  0.6830  1.0841
  529SOL    HW2 1587   0.817   1.306   0.174  1.3968 -0.5355  2.9002
  530SOL     OW 1588   1.271   0.731   1.800 -0.2966 -0.0626  0.4183
  530SOL    HW1 1589   1.333   0.808   1.773 -1.4099 -3.6852 -1.7754
  530SOL    HW2 1590   1.302   0.646   1.752  0.2683  0.8521  0.3138
  531SOL     OW 1591   1.146   2.152   0.233 -0.2375  0.9007  0.1295
  531SOL    HW1 1592   1.156   2.178   0.133  0.4066  0.6966 -2.1245
  531SOL    HW2 1593   1.236   2.131   0.276 -0.0341  0.7339 -0.0437
  532SOL     OW 1594   2.674   0.886   2.224 -0.5171  0.2035 -0.4534
  532SOL    HW1 1595   2.680   0.836   2.313  2.2424  0.6511 -2.6541
  532SOL    HW2 1596   2.765   0.929   2.208  2.3480  1.2269  1.0761
  533SOL     OW 1597   0.054   0.277   2.021  0.4121  0.5919  0.1333
  533SOL    HW1 1598   0.113   0.302   2.104 -0.9049  1.7879  0.0295
  533SOL    HW2 1599   0.018   0.179   2.017 -1.1331  1.4824 -0.3459
  534SOL     OW 1600   2.245   0.107   0.108 -0.4883 -0.3452  0.1102
  534SOL    HW1 1601   2.331   0.148   0.079 -2.0271 -2.2869 -0.0451
  534SOL    HW2 1602   2.241   0.011   0.089 -1.8469 -1.9241  1.9616
  535SOL     OW 1603   0.599   0.344   0.069  0.0866 -0.5004  0.3375
  535SOL    HW1 1604   0.515   0.327   0.126  0.7587  1.6295 -2.0530
  535SOL    HW2 1605   0.569   0.348   3.055 -1.5291 -2.3428 -1.4302
  536SOL     OW 1606   1.186   2.013   1.083 -0.0943  0.6881 -0.6313
  536SOL    HW1 1607   1.126   1.978   1.156  2.6340  1.6171 -0.8671
  536SOL    HW2 1608   1.176   2.112   1.074  2.0460  0.7473 -1.6689
  537SOL     OW 1609   2.976   2.395   1.514 -0.8902  0.3819 -0.1092
  537SOL    HW1 1610   3.003   2.465   1.583 -0.3422  0.8634 -1.4189
  537SOL    HW2 1611   2.890   2.342   1.542 -2.4876 -0.8047 -0.4410
  538SOL     OW 1612   0.617   2.355   0.572 -0.2261 -0.0126 -0.4722
  538SOL    HW1 1613   0.619   2.258   0.562  1.3365 -0.1833  3.6223
  538SOL    HW2 1614   0.679   2.382   0.651  1.3438  0.1888  2.0563
  539SOL     OW 1615   1.867   1.254   2.388 -0.1816  0.3677  0.1068
  539SOL    HW1 1616   1.772   1.253   2.364  1.4038  0.9533  1.2149
  539SOL    HW2 1617   1.905   1.348   2.379 -0.4720 -4.5073  0.9103
  540SOL     OW 1618   1.664   0.626   2.947  0.6859 -0.1634  0.2974
  540SOL    HW1 1619   1.667   0.541   2.899  3.0881  1.9819 -1.2154
  540SOL    HW2 1620   1.751   0.679   2.938 -0.9403  1.5275  0.3030
  541SOL     OW 1621   0.782   1.066   2.412  0.0556 -0.3943 -0.0579
  541SOL    HW1 1622   0.770   1.008   2.327  2.0948  0.8520 -2.8638
  541SOL    HW2 1623   0.862   1.130   2.401  0.6580  0.7241  1.7738
  542SOL     OW 1624   1.380   2.572   1.904 -0.6199 -0.2124  0.2813
  542SOL    HW1 1625   1.302   2.508   1.885  0.6334 -2.1747 -0.8284
  542SOL    HW2 1626   1.421   2.600   1.812 -0.4100  3.3046 -0.7910
  543SOL     OW 1627   0.711   2.706   3.045 -0.5561  0.4830  0.1047
  543SOL    HW1 1628   0.719   2.643   2.966 -3.3164 -0.7014  0.6621
  543SOL    HW2 1629   0.620   2.750   3.037  1.7132 -1.7083 -0.2858
  544SOL     OW 1630   2.900   2.174   2.197 -0.2813  0.6015 -0.5012
  544SOL    HW1 1631   2.834   2.250   2.181 -0.8017  1.6146 -0.1123
  544SOL    HW2 1632   2.998   2.205   2.192  2.3506  0.9563 -2.1467
  545SOL     OW 1633   1.425   1.694   1.694  0.0052 -0.3940 -0.1523
  545SOL    HW1 1634   1.351   1.766   1.703 -1.9124  0.6444 -0.9889
  545SOL    HW2 1635   1.419   1.631   1.776  2.4277  0.8868 -0.9284
  546SOL     OW 1636   2.787   0.460   2.441  0.2130 -0.0723  0.1626
  546SOL    HW1 1637   2.700   0.418   2.423  2.8945 -0.1595 -1.1690
  546SOL    HW2 1638   2.863   0.425   2.382 -0.2340 -1.7426  0.1059
  547SOL     OW 1639   1.591   3.043   0.991  0.4731  0.0583  0.0854
  547SOL    HW1 1640   1.630   3.080   1.080  1.4279 -2.6308  2.5388
  547SOL    HW2 1641   1.634   2.948   0.980  0.6547 -0.3402 -0.1454
  548SOL     OW 1642   1.349   2.047   2.954 -0.0339 -0.9609  0.3138
  548SOL    HW1 1643   1.289   1.969   2.930  0.0976 -0.0258  0.6487
  548SOL    HW2 1644   1.284   2.120   2.984 -1.2746 -2.6287 -0.2794
  549SOL     OW 1645   1.878   0.479   0.011 -0.0030 -0.0225 -0.3313
  549SOL    HW1 1646   1.955   0.520   0.064  0.6529  1.3913 -0.6521
  549SOL    HW2 1647   1.864   0.535   3.012 -0.1555  0.0290 -0.5386
  550SOL     OW 1648   2.483   1.917   0.829  0.0184 -0.4369  0.4631
  550SOL    HW1 1649   2.449   1.979   0.755 -0.6542 -0.3759  0.1444
  550SOL    HW2 1650   2.532   1.842   0.790 -0.8334  1.2688  0.5290
  551SOL     OW 1651   1.184   0.205   1.047 -0.1216  0.0080  0.1174
  551SOL    HW1 1652   1.091   0.230   1.067  2.0748 -1.8726  1.9668
  551SOL    HW2 1653   1.189   0.151   0.960 -1.2391  0.1431  2.1087
  552SOL     OW 1654   0.162   1.728   2.775 -0.4890 -0.0965 -0.2724
  552SOL    HW1 1655   0.178   1.631   2.746 -2.1369 -0.7908  0.8037
  552SOL    HW2 1656   0.067   1.731   2.818 -1.2176 -1.0623  0.8766
  553SOL     OW 1657   2.557   2.582   0.143 -0.0926  0.2831 -0.3260
  553SOL    HW1 1658   2.651   2.547   0.149 -2.4830  1.0054  0.7997
  553SOL    HW2 1659   2.517   2.594   0.237  1.9895  0.2040  0.5719
  554SOL     OW 1660   2.117   1.445   1.557 -0.2792  0.3682  0.6696
  554SOL    HW1 1661   2.151   1.518   1.615 -0.7222  2.1561 -1.4184
  554SOL    HW2 1662   2.085   1.363   1.610  0.9246  0.6068  1.0560
  555SOL     OW 1663   0.563   2.442   2.460 -0.0036 -0.3701 -0.7459
  555SOL    HW1 1664   0.513   2.382   2.521  2.1342  3.5228 -3.0626
  555SOL    HW2 1665   0.499   2.481   2.391 -1.1161  1.2003  0.1606
  556SOL     OW 1666   1.253   1.325   1.354 -0.0689  0.2824 -0.2586
  556SOL    HW1 1667   1.337   1.296   1.303 -2.5095  0.9251  1.4894
  556SOL    HW2 1668   1.182   1.367   1.292 -1.5510 -4.6273 -1.1764
  557SOL     OW 1669   1.403   2.876   1.252 -0.2087 -0.4516  0.0539
  557SOL    HW1 1670   1.479   2.940   1.239  1.2368 -0.4975 -0.5626
  557SOL    HW2 1671   1.317   2.922   1.215  1.3214  0.4967 -2.5050
  558SOL     OW 1672   0.388   0.849   2.382 -0.3160  0.2957 -0.9861
  558SOL    HW1 1673   0.367   0.748   2.365 -1.5626 -1.0445 -1.1307
  558SOL    HW2 1674   0.426   0.859   2.475  0.0023 -0.6119  1.6423
  559SOL     OW 1675   1.086   2.703   0.153 -0.3082  0.7939  0.0631
  559SOL    HW1 1676   1.050   2.798   0.174 -0.0336 -0.7149 -0.7666
  559SOL    HW2 1677   1.132   2.662   0.234 -0.5023  1.5678 -0.0549
  560SOL     OW 1678   1.633   1.928   0.196  0.1670  0.0764 -0.3401
  560SOL    HW1 1679   1.667   1.829   0.177  3.0515 -1.8197 -0.4425
  560SOL    HW2 1680   1.648   1.988   0.122 -0.1711  1.2226 -1.5256
  561SOL     OW 1681   1.182   2.800   0.585  0.1244 -0.5234 -0.0630
  561SOL    HW1 1682   1.218   2.888   0.553  1.4082 -1.0993 -0.8682
  561SOL    HW2 1683   1.247   2.739   0.635 -1.6935 -0.5422  2.1263
  562SOL     OW 1684   0.462   1.062   2.234 -0.1265 -0.4315 -0.1474
  562SOL    HW1 1685   0.551   1.110   2.231 -3.3970 -0.2598  1.7524
  562SOL    HW2 1686   0.475   0.976   2.284 -0.2861  1.7842 -1.3927
  563SOL     OW 1687   1.236   1.999   2.263  0.0662 -0.0044 -0.8610
  563SOL    HW1 1688   1.252   2.087   2.211  1.7572  0.4105  1.0836
  563SOL    HW2 1689   1.296   1.926   2.224 -2.7789  2.9107  0.1082
  564SOL     OW 1690   2.553   0.681   1.312  0.4399 -0.0704  0.1500
  564SOL    HW1 1691   2.513   0.695   1.216  0.2278  1.2316 -0.5534
  564SOL    HW2 1692   2.494   0.722   1.386 -0.1918 -1.1690  1.8786
  565SOL     OW 1693   1.484   0.942   0.279  0.1186 -0.4106  0.0333
  565SOL    HW1 1694   1.454   0.948   0.182  0.7870 -1.2409 -0.5469
  565SOL    HW2 1695   1.570   0.995   0.298  3.6073  0.2607  1.2320
  566SOL     OW 1696   2.263   2.704   2.900 -0.1325 -0.0927 -0.1950
  566SOL    HW1 1697   2.356   2.668   2.927  0.3191 -1.2103 -1.5116
  566SOL    HW2 1698   2.191   2.630   2.914  0.0628 -0.2730 -2.2999
  567SOL     OW 1699   1.696   1.016   0.953  0.0921  0.6065 -0.4183
  567SOL    HW1 1700   1.766   1.086   0.943  1.3773 -1.2879 -1.0675
  567SOL    HW2 1701   1.696   0.953   0.876  0.4396  3.6179 -0.8421
  568SOL     OW 1702   1.008   1.261   2.769 -0.5475 -0.2092  0.2867
  568SOL    HW1 1703   1.024   1.296   2.860 -1.9630 -1.8009  0.7273
  568SOL    HW2 1704   0.917   1.286   2.730 -0.2835  0.1316 -0.3894
  569SOL     OW 1705   2.096   1.689   0.718  0.1007 -0.1627  0.1160
  569SOL    HW1 1706   2.071   1.608   0.775  0.1573  0.1273 -1.8707
  569SOL    HW2 1707   2.106   1.774   0.776 -0.3613  0.3348  2.1767
  570SOL     OW 1708   2.621   2.470   2.316  0.0464 -0.3304  0.3069
  570SOL    HW1 1709   2.691   2.435   2.249 -0.2441  1.3759 -0.6351
  570SOL    HW2 1710   2.673   2.518   2.391  0.4018  2.8970 -1.0347
  571SOL     OW 1711   2.852   1.832   1.562  0.0910 -0.0634  0.5220
  571SOL    HW1 1712   2.922   1.866   1.630 -0.0924  3.2905  0.4303
  571SOL    HW2 1713   2.784   1.908   1.534 -2.5995 -0.4435 -1.5913
  572SOL     OW 1714   1.217   2.226   2.635 -0.0958  0.5424  0.1008
  572SOL    HW1 1715   1.229   2.300   2.565  0.8135 -1.2459 -0.3055
  572SOL    HW2 1716   1.302   2.207   2.691  1.1204 -0.3961 -0.1005
  573SOL     OW 1717   1.601   2.160   1.346 -0.3483 -0.2107  0.4346
  573SOL    HW1 1718   1.558   2.075   1.306  0.5161 -1.4206  2.2646
  573SOL    HW2 1719   1.633   2.149   1.440 -0.4787  0.8269  1.6374
  574SOL     OW 1720   1.102   2.784   1.401  0.9655  0.1638 -0.3813
  574SOL    HW1 1721   1.107   2.878   1.428  2.1640 -0.7901  0.9350
  574SOL    HW2 1722   1.091   2.772   1.301  0.1435  1.1362 -0.2762
  575SOL     OW 1723   0.813   0.383   0.847  0.2837 -0.3317  0.0106
  575SOL    HW1 1724   0.877   0.404   0.767  1.0140 -0.1170 -1.5741
  575SOL    HW2 1725   0.874   0.358   0.930  1.7234 -1.6668  2.9135
  576SOL     OW 1726   2.128   0.438   1.569  0.0374  0.1320  0.1524
  576SOL    HW1 1727   2.166   0.478   1.653  0.7260  1.8627 -0.5924
  576SOL    HW2 1728   2.171   0.343   1.558  3.7975  1.4376 -0.3280
  577SOL     OW 1729   2.059   0.230   3.057  0.2365  0.1478 -0.0743
  577SOL    HW1 1730   2.131   0.172   0.009  3.4662  0.3929  0.2276
  577SOL    HW2 1731   1.994   0.263   0.044 -0.4134 -1.4732  0.7612
  578SOL     OW 1732   1.699   1.878   1.960  0.2291  0.0139  0.0132
  578SOL    HW1 1733   1.635   1.797   1.942  0.4183 -2.8671  0.5833
  578SOL    HW2 1734   1.740   1.896   1.868 -1.1725 -1.9310  1.3249
  579SOL     OW 1735   0.651   1.548   1.060 -0.1309  0.9564 -0.5678
  579SOL    HW1 1736   0.626   1.583   0.966  0.6845 -1.5621 -1.8705
  579SOL    HW2 1737   0.597   1.467   1.092 -0.4681  0.7104  1.1845
  580SOL     OW 1738   1.441   2.856   2.860 -0.0346 -0.2089  0.5933
  580SOL    HW1 1739   1.412   2.849   2.764  1.0303 -3.1657  2.3914
  580SOL    HW2 1740   1.363   2.841   2.919  1.2231  2.2263 -2.8816
  581SOL     OW 1741   1.047   0.727   1.962  0.1370  0.4256  0.0016
  581SOL    HW1 1742   1.082   0.678   2.049  1.1886 -1.0117 -1.9027
  581SOL    HW2 1743   1.122   0.763   1.908  0.2573  0.6442  1.7238
  582SOL     OW 1744   0.328   0.384   0.809  0.1917 -0.1009 -0.1102
  582SOL    HW1 1745   0.298   0.469   0.763  4.5386 -1.4464 -1.5887
  582SOL    HW2 1746   0.433   0.378   0.803  0.3587  2.5759  0.4182
  583SOL     OW 1747   0.862   1.876   1.973 -0.1939  0.2990  0.0218
  583SOL    HW1 1748   0.791   1.808   1.960  0.3460  0.4333  0.5470
  583SOL    HW2 1749   0.926   1.852   2.054  3.0463 -0.5532  1.1329
  584SOL     OW 1750   2.388   2.575   0.370  0.2830  0.0121  0.1195
  584SOL    HW1 1751   2.423   2.585   0.465  1.9940  1.0127  1.5510
  584SOL    HW2 1752   2.311   2.638   0.351 -0.0471 -1.1037  0.2933
  585SOL     OW 1753   2.360   0.402   2.802 -0.6489  0.1698  0.5564
  585SOL    HW1 1754   2.363   0.457   2.887 -3.2234 -0.3432 -1.9017
  585SOL    HW2 1755   2.268   0.370   2.788  0.7404 -1.6654 -0.1167
  586SOL     OW 1756   0.298   1.422   0.314  0.1074  0.0179  0.7891
  586SOL    HW1 1757   0.374   1.455   0.370 -1.1125  0.8920 -1.0533
  586SOL    HW2 1758   0.219   1.409   0.368  0.3330 -0.1893  0.0866
  587SOL     OW 1759   1.565   1.887   0.946  0.3133  0.3914 -0.1335
  587SOL    HW1 1760   1.644   1.941   0.971 -0.8102  0.9497 -1.1551
  587SOL    HW2 1761   1.485   1.912   1.004  1.0444 -0.7053  0.5629
  588SOL     OW 1762   0.554   0.673   1.202  0.1191  0.0790  0.1156
  588SOL    HW1 1763   0.644   0.666   1.156 -0.0839  0.9662 -1.1977
  588SOL    HW2 1764   0.483   0.674   1.126 -2.8809  2.3716 -0.3569
  589SOL     OW 1765   1.945   2.938   0.892 -0.1276 -0.4664 -0.1272
  589SOL    HW1 1766   1.941   2.933   0.794 -0.4474  1.8472  1.2913
  589SOL    HW2 1767   1.861   2.904   0.933  4.3067 -0.0336 -1.7960
  590SOL     OW 1768   1.723   1.093   0.369 -0.0544  0.1017 -0.1039
  590SOL    HW1 1769   1.815   1.051   0.344  1.7368 -0.6785 -3.0895
  590SOL    HW2 1770   1.732   1.172   0.428  0.8982 -1.3847 -1.5245
  591SOL     OW 1771   2.171   2.170   1.894 -0.0035 -0.5907  0.2684
  591SOL    HW1 1772   2.200   2.074   1.918  0.6264  0.2087 -1.2322
  591SOL    HW2 1773   2.238   2.240   1.931  0.8144  0.9306 -0.7607
  592SOL     OW 1774   1.465   1.962   1.207  0.3813  0.5476 -0.4779
  592SOL    HW1 1775   1.490   1.879   1.264  0.5256  1.9490 -1.1667
  592SOL    HW2 1776   1.364   1.977   1.196  0.8219 -1.9765  1.3271
  593SOL     OW 1777   0.735   2.987   0.722  0.3297 -0.1515 -0.3766
  593SOL    HW1 1778   0.831   2.964   0.735  0.3469  1.7052  3.3718
  593SOL    HW2 1779   0.725   3.064   0.781 -2.6769 -2.8602 -0.1243
  594SOL     OW 1780   2.937   0.980   2.206  0.1879 -0.3230  0.3354
  594SOL    HW1 1781   2.987   1.025   2.131 -1.7871  0.7246 -0.2133
  594SOL    HW2 1782   2.984   0.887   2.217 -0.8034 -1.2481 -2.1174
  595SOL     OW 1783   3.023   2.972   0.545  0.2902 -0.0029  0.3102
  595SOL    HW1 1784   0.003   2.898   0.529 -2.8434  1.9688 -0.7435
  595SOL    HW2 1785   3.049   3.032   0.623 -1.3613 -0.3158 -0.3283
  596SOL     OW 1786   0.145   0.611   1.403  0.0675 -0.2897 -0.0576
  596SOL    HW1 1787   0.189   0.688   1.455  2.3923  3.2936  1.7929
  596SOL    HW2 1788   0.054   0.581   1.438 -0.2857 -1.0368 -2.9536
  597SOL     OW 1789   2.537   0.892   0.389  0.1565 -0.6369 -0.1040
  597SOL    HW1 1790   2.568   0.829   0.316 -0.0803  1.5660  0.6333
  597SOL    HW2 1791   2.472   0.962   0.361  1.9495  0.7802 -1.5288
  598SOL     OW 1792   0.596   0.233   2.035 -0.2069 -0.1703  0.5775
  598SOL    HW1 1793   0.605   0.324   1.981 -1.4249  0.8709 -2.0386
  598SOL    HW2 1794   0.525   0.239   2.108  1.5547  0.5324 -0.1214
  599SOL     OW 1795   2.439   1.669   0.336 -0.2680  0.2190  0.4748
  599SOL    HW1 1796   2.382   1.716   0.409 -0.1227  0.1926 -0.1638
  599SOL    HW2 1797   2.471   1.736   0.265 -0.1104 -1.3740 -0.6586
  600SOL     OW 1798   1.005   0.919   0.176 -0.1762 -0.0213  0.2865
  600SOL    HW1 1799   1.067   0.967   0.111 -1.3170 -0.6031 -2.0240
  600SOL    HW2 1800   0.919   0.966   0.182  2.0274 -0.1310  0.0012
  601SOL     OW 1801   1.374   0.900   0.025  0.2998  0.2254 -0.0916
  601SOL    HW1 1802   1.296   0.967   0.023  0.7051 -1.4844  0.5007
  601SOL    HW2 1803   1.334   0.808   0.046 -0.3525 -0.0289  0.5933
  602SOL     OW 1804   1.068   3.062   1.453 -0.2452  0.1661  0.2939
  602SOL    HW1 1805   1.103   0.051   1.509  2.2510  0.5870  2.0827
  602SOL    HW2 1806   0.963   3.065   1.447 -0.0661 -2.5703 -0.3631
  603SOL     OW 1807   0.685   2.876   2.413 -0.1766 -0.2738 -0.0009
  603SOL    HW1 1808   0.785   2.881   2.433  0.9745  2.1733  0.5901
  603SOL    HW2 1809   0.682   2.870   2.315 -0.9848 -0.3889  2.5111
  604SOL     OW 1810   3.075   0.013   1.980  0.2515  0.4279  0.9300
  604SOL    HW1 1811   0.006   3.024   2.045  0.0739  3.6490  0.3423
  604SOL    HW2 1812   2.980   0.013   1.944  0.8064 -1.2858  2.2799
  605SOL     OW 1813   2.599   2.807   1.748  0.1636  0.1847 -0.2065
  605SOL    HW1 1814   2.594   2.705   1.765 -2.2345 -0.2855  0.9773
  605SOL    HW2 1815   2.677   2.841   1.796 -4.0401  0.0377 -0.4308
  606SOL     OW 1816   2.994   2.059   2.666 -0.4476  0.0739  0.3161
  606SOL    HW1 1817   2.977   2.118   2.741 -0.5958 -0.6728 -0.0719
  606SOL    HW2 1818   0.004   2.026   2.669 -0.2375  1.6881 -0.6756
  607SOL     OW 1819   0.886   0.241   0.492  0.1111  0.4273 -0.0659
  607SOL    HW1 1820   0.807   0.284   0.443 -2.0674 -1.1322  0.1437
  607SOL    HW2 1821   0.930   0.304   0.555  0.3700 -1.2884 -0.0788
  608SOL     OW 1822   1.586   1.797   2.416 -0.0578 -0.2080  0.5160
  608SOL    HW1 1823   1.570   1.699   2.403  0.5357  1.2889  0.7142
  608SOL    HW2 1824   1.563   1.841   2.325 -0.5116 -2.2356  0.1657
  609SOL     OW 1825   0.005   0.327   1.076  0.4742 -0.2859 -0.2784
  609SOL    HW1 1826   0.038   0.241   1.034 -2.8085  3.8980  0.4529
  609SOL    HW2 1827   0.083   0.389   1.111  0.4947  1.2969  1.7470
  610SOL     OW 1828   0.893   2.344   3.036  0.1832  0.1988 -0.2364
  610SOL    HW1 1829   0.921   2.404   2.958  0.1515 -2.2623  0.6607
  610SOL    HW2 1830   0.901   2.392   0.041  2.6599 -0.6711 -1.5342
  611SOL     OW 1831   1.977   1.369   0.502 -0.2526  0.5772  0.4301
  611SOL    HW1 1832   1.980   1.441   0.431 -1.0818  0.4025  1.5352
  611SOL    HW2 1833   1.882   1.333   0.512  2.0896 -0.7455 -0.4300
  612SOL     OW 1834   0.998   2.572   2.535 -0.2566 -0.2761 -0.1823
  612SOL    HW1 1835   0.973   2.667   2.510 -0.5906 -2.4621 -2.6694
  612SOL    HW2 1836   0.923   2.511   2.500 -0.4039 -0.2780 -0.9407
  613SOL     OW 1837   1.246   1.840   0.283  0.0158  0.2667 -0.1995
  613SOL    HW1 1838   1.302   1.920   0.309 -2.5250 -2.6959 -1.1790
  613SOL    HW2 1839   1.184   1.859   0.204  1.6583 -1.7792 -0.0107
  614SOL     OW 1840   2.722   2.280   1.574 -0.1700  0.8455 -0.0340
  614SOL    HW1 1841   2.679   2.361   1.533 -1.3541 -1.1251  0.6022
  614SOL    HW2 1842   2.681   2.266   1.667 -0.9026 -0.5796 -0.5270
  615SOL     OW 1843   2.281   1.248   0.078  0.4015 -0.2709  0.2042
  615SOL    HW1 1844   2.350   1.270   0.007  1.2415 -1.8146 -0.7061
  615SOL    HW2 1845   2.190   1.235   0.031  1.3014 -0.9608  0.3957
  616SOL     OW 1846   1.698   0.038   0.740  0.3663  0.2777 -0.0829
  616SOL    HW1 1847   1.652   0.026   0.833 -3.1622 -2.3231  1.1511
  616SOL    HW2 1848   1.787   0.081   0.747 -2.1086 -0.7971 -0.3869
  617SOL     OW 1849   0.268   1.444   2.754  0.5729 -0.3506 -0.0050
  617SOL    HW1 1850   0.365   1.482   2.745  3.5290 -1.6348 -1.5891
  617SOL    HW2 1851   0.251   1.385   2.671 -2.8217 -0.9793 -1.4822
  618SOL     OW 1852   0.443   0.648   1.722 -0.1867 -0.1594  0.0582
  618SOL    HW1 1853   0.415   0.744   1.722 -0.3390 -1.7276  2.0109
  618SOL    HW2 1854   0.482   0.629   1.630 -0.9829  0.8829 -1.3087
  619SOL     OW 1855   2.743   0.908   1.830 -0.4995 -0.3762 -0.3510
  619SOL    HW1 1856   2.793   0.978   1.888 -2.2194  0.6521  0.5287
  619SOL    HW2 1857   2.780   0.813   1.836 -3.3757  1.8877 -0.7281
  620SOL     OW 1858   2.039   1.179   3.048  0.5414 -0.1759  0.3894
  620SOL    HW1 1859   1.960   1.135   2.998  0.6780 -3.8756  0.3936
  620SOL    HW2 1860   2.015   1.222   0.052  0.5939 -2.5870 -0.3929
  621SOL     OW 1861   2.463   2.883   1.227 -0.0975  0.1424 -0.0319
  621SOL    HW1 1862   2.509   2.833   1.306  1.8134 -0.2760  1.4573
  621SOL    HW2 1863   2.363   2.891   1.249 -0.5762  0.2081 -0.4758
  622SOL     OW 1864   1.631   0.567   2.019 -0.2377 -0.4178 -0.5828
  622SOL    HW1 1865   1.638   0.508   1.935  1.2410 -1.6256  1.0091
  622SOL    HW2 1866   1.548   0.617   2.034  3.3733  0.5274  0.2180
  623SOL     OW 1867   1.277   1.016   2.443 -0.1449  0.3891  0.6464
  623SOL    HW1 1868   1.275   1.093   2.375 -0.1711 -2.1289  0.0550
  623SOL    HW2 1869   1.221   1.035   2.526 -0.5787  1.1105  0.6622
  624SOL     OW 1870   1.900   0.245   0.693 -0.0464 -0.1812  0.1442
  624SOL    HW1 1871   1.851   0.269   0.606  1.5357  1.4496 -0.4250
  624SOL    HW2 1872   1.954   0.161   0.674 -0.4487 -1.1498 -1.0199
  625SOL     OW 1873   0.557   1.489   0.430 -0.0121  0.4093 -0.1694
  625SOL    HW1 1874   0.584   1.399   0.465 -1.0551 -1.7386  0.2208
  625SOL    HW2 1875   0.543   1.561   0.501  2.0347  0.9611 -0.2273
  626SOL     OW 1876   1.623   1.219   2.312  0.2858  0.1132  0.6625
  626SOL    HW1 1877   1.616   1.264   2.218  1.5299 -0.2107 -0.8808
  626SOL    HW2 1878   1.535   1.183   2.346 -0.9265  2.5939  1.9091
  627SOL     OW 1879   0.843   0.520   1.825  0.0185  0.1510  0.1122
  627SOL    HW1 1880   0.918   0.535   1.898 -0.1670 -0.4147 -0.6384
  627SOL    HW2 1881   0.751   0.523   1.869 -2.0004  1.3597  0.1946
  628SOL     OW 1882   1.966   0.867   2.215 -0.0531  0.0379 -0.1340
  628SOL    HW1 1883   1.932   0.790   2.154  0.4784 -1.7625  2.2022
  628SOL    HW2 1884   1.959   0.959   2.174 -0.2452 -2.8804  2.4411
  629SOL     OW 1885   0.735   1.346   0.024 -0.1091  0.2541 -0.2912
  629SOL    HW1 1886   0.710   1.430   3.059  2.1816  0.9437 -1.3594
  629SOL    HW2 1887   0.675   1.266   0.008  2.4238  1.8668  0.3281
  630SOL     OW 1888   1.223   0.560   2.151 -0.5255  0.3103  0.0422
  630SOL    HW1 1889   1.272   0.645   2.128 -0.7312 -1.2996  1.2208
  630SOL    HW2 1890   1.238   0.539   2.252  1.2917 -1.5181 -1.1999
  631SOL     OW 1891   2.643   0.772   0.945  0.1004 -0.2612 -0.4758
  631SOL    HW1 1892   2.682   0.694   0.890 -1.0941 -0.8252  2.0193
  631SOL    HW2 1893   2.547   0.759   0.970 -0.9425  2.8560  0.0346
  632SOL     OW 1894   2.600   1.415   0.624  0.1947 -0.1993  0.2386
  632SOL    HW1 1895   2.686   1.377   0.665  1.6265  1.5655  0.7969
  632SOL    HW2 1896   2.575   1.512   0.654  1.8383  0.7064  2.4470
  633SOL     OW 1897   0.775   1.281   0.766  0.2368  0.3791  0.9342
  633SOL    HW1 1898   0.715   1.222   0.821 -0.7463 -0.0759  0.6687
  633SOL    HW2 1899   0.752   1.280   0.669 -2.6712 -1.8525 -0.1223
  634SOL     OW 1900   1.564   3.006   0.508  0.6455 -0.7390 -0.1831
  634SOL    HW1 1901   1.473   3.035   0.483 -1.0958 -2.0571  0.7020
  634SOL    HW2 1902   1.596   3.053   0.595 -1.4259  0.2623 -0.9931
  635SOL     OW 1903   1.885   0.555   1.737  0.4911 -0.1402  0.0202
  635SOL    HW1 1904   1.937   0.505   1.670  0.5078  0.4808 -0.3203
  635SOL    HW2 1905   1.818   0.625   1.697  0.2183 -0.5068 -0.5788
  636SOL     OW 1906   1.255   0.509   0.637 -0.4150 -0.2836 -0.0124
  636SOL    HW1 1907   1.344   0.514   0.683 -1.6201 -2.5384 -0.6543
  636SOL    HW2 1908   1.263   0.504   0.534 -2.3475  2.4061 -1.7040
  637SOL     OW 1909   2.011   1.714   2.891 -0.5128  0.4013  0.0802
  637SOL    HW1 1910   1.976   1.808   2.869 -1.2899  0.5345  0.2544
  637SOL    HW2 1911   2.103   1.720   2.938  3.0626 -0.2190 -1.1678
  638SOL     OW 1912   0.934   0.013   2.609  0.2631 -0.3524  0.2973
  638SOL    HW1 1913   0.977   3.072   2.696 -0.8993  0.6164 -1.0735
  638SOL    HW2 1914   0.843   0.048   2.629  0.3192 -1.3487 -0.2514
  639SOL     OW 1915   1.308   1.874   1.436 -0.1134  0.3085 -0.1534
  639SOL    HW1 1916   1.229   1.812   1.399 -0.3237 -0.6638  0.9985
  639SOL    HW2 1917   1.394   1.818   1.421 -1.2474 -0.1804  1.9797
  640SOL     OW 1918   0.500   0.016   2.817  0.0270 -0.4068 -0.3940
  640SOL    HW1 1919   0.435   0.082   2.863 -0.1559 -0.8998  0.8223
  640SOL    HW2 1920   0.460   3.016   2.778  0.9037 -0.5579  0.4572
  641SOL     OW 1921   0.516   0.769   0.277 -0.7580 -0.5742 -0.3620
  641SOL    HW1 1922   0.421   0.778   0.248 -0.6259  0.6859  0.0136
  641SOL    HW2 1923   0.552   0.858   0.304  0.0699 -0.4869 -1.5580
  642SOL     OW 1924   0.282   1.691   1.041 -0.3508 -0.7811  0.5491
  642SOL    HW1 1925   0.284   1.790   1.017  2.7824 -1.7399  0.0106
  642SOL    HW2 1926   0.287   1.635   0.958 -0.9002 -0.0095  1.8604
  643SOL     OW 1927   0.656   1.885   2.747 -0.6601  0.7952  0.5894
  643SOL    HW1 1928   0.618   1.974   2.719 -0.7438  0.2973  2.0834
  643SOL    HW2 1929   0.610   1.850   2.834  1.4399 -0.5519  2.5065
  644SOL     OW 1930   1.721   2.299   0.111 -0.3415  0.2200 -0.1319
  644SOL    HW1 1931   1.806   2.277   0.164  2.3083  0.3480 -0.3294
  644SOL    HW2 1932   1.638   2.333   0.160  1.3580  0.0696 -0.5886
  645SOL     OW 1933   1.356   2.110   1.521  0.3756 -0.9582  0.4623
  645SOL    HW1 1934   1.324   2.020   1.492  2.3634  0.9040 -2.7484
  645SOL    HW2 1935   1.452   2.126   1.489  1.1565 -0.2267  0.9599
  646SOL     OW 1936   0.653   2.509   0.132  0.2058  0.2713 -0.7005
  646SOL    HW1 1937   0.749   2.480   0.160 -0.7561 -1.3570 -1.2859
  646SOL    HW2 1938   0.656   2.566   0.049 -2.1266  0.0324 -0.5954
  647SOL     OW 1939   0.081   2.870   2.130 -0.3489 -0.0506 -0.2301
  647SOL    HW1 1940   0.019   2.894   2.208 -0.1033 -1.7752  0.6957
  647SOL    HW2 1941   0.179   2.890   2.151  1.8501 -0.9026  0.7893
  648SOL     OW 1942   2.645   1.119   1.063 -0.3394 -0.6718  0.5277
  648SOL    HW1 1943   2.709   1.093   0.991  0.0200  1.7390  1.4666
  648SOL    HW2 1944   2.549   1.085   1.042  1.0744  0.0245 -0.3881
  649SOL     OW 1945   1.866   2.559   2.679  0.2704 -0.4889  0.3702
  649SOL    HW1 1946   1.885   2.528   2.775  1.3394 -0.6196  0.9023
  649SOL    HW2 1947   1.869   2.662   2.674  0.3082  0.3473  2.0298
  650SOL     OW 1948   2.624   2.064   1.971 -0.1053 -0.2920 -0.5036
  650SOL    HW1 1949   2.574   1.984   1.944  0.5714  0.9768  2.7542
  650SOL    HW2 1950   2.725   2.050   1.975  2.1482 -0.9767 -0.0826
  651SOL     OW 1951   1.192   1.841   2.837  0.1971 -0.1081  0.0462
  651SOL    HW1 1952   1.219   1.880   2.741 -1.3484 -0.4527 -0.7547
  651SOL    HW2 1953   1.184   1.739   2.828  4.5727 -3.1708  1.0212
  652SOL     OW 1954   0.477   3.063   2.387  0.3870 -0.7234 -0.0203
  652SOL    HW1 1955   0.401   3.063   2.460 -2.9080 -1.4198  1.1507
  652SOL    HW2 1956   0.563   3.016   2.417 -1.4722  3.0201  0.0686
  653SOL     OW 1957   2.212   1.842   0.927 -0.1866  0.5233  0.2775
  653SOL    HW1 1958   2.182   1.792   1.010  0.5720  3.2300 -0.7702
  653SOL    HW2 1959   2.313   1.858   0.924 -0.4716 -0.6132 -0.9703
  654SOL     OW 1960   2.311   2.834   2.149 -0.8068  0.2237 -0.4010
  654SOL    HW1 1961   2.252   2.845   2.232  0.2766 -1.3499  1.8100
  654SOL    HW2 1962   2.329   2.921   2.103  0.4992 -3.2179  0.6640
  655SOL     OW 1963   2.537   2.323   1.048  0.1610  0.3125  0.3356
  655SOL    HW1 1964   2.574   2.387   1.119  1.8474  0.1975  0.9100
  655SOL    HW2 1965   2.461   2.367   0.996 -0.8714 -0.8980 -1.0885
  656SOL     OW 1966   2.744   1.696   2.818  0.1006  0.3069 -0.0999
  656SOL    HW1 1967   2.739   1.796   2.830  0.5296  0.4965  2.7953
  656SOL    HW2 1968   2.682   1.648   2.889 -0.8676 -1.3473  2.4958
  657SOL     OW 1969   0.087   1.181   0.585  0.2664 -0.2212 -0.1685
  657SOL    HW1 1970   0.036   1.101   0.547  3.2752  2.5746  0.8540
  657SOL    HW2 1971   0.084   1.176   0.687 -1.7875  1.2427 -0.8521
  658SOL     OW 1972   1.166   1.670   1.350  0.1366  0.3979 -0.0461
  658SOL    HW1 1973   1.212   1.634   1.266  0.6264 -0.6957 -1.4600
  658SOL    HW2 1974   1.066   1.655   1.352  2.5793  0.6725  1.8878
  659SOL     OW 1975   1.170   3.047   1.191  0.3228 -0.1434 -0.6885
  659SOL    HW1 1976   1.195   0.043   1.132  1.7766  1.6108  0.3652
  659SOL    HW2 1977   1.169   3.072   1.291  0.2759 -1.3358  0.7919
  660SOL     OW 1978   2.359   0.480   0.968 -0.2195 -0.1631 -0.2515
  660SOL    HW1 1979   2.353   0.448   0.871  0.5844  2.1476  0.5418
  660SOL    HW2 1980   2.278   0.447   1.027 -0.4979 -2.7846  0.5783
  661SOL     OW 1981   0.393   1.815   0.186 -0.0381 -0.9980 -0.4645
  661SOL    HW1 1982   0.458   1.739   0.178  0.3620  1.8643 -1.7431
  661SOL    HW2 1983   0.419   1.904   0.139 -1.7189  0.6541 -1.3330
  662SOL     OW 1984   2.279   0.998   1.936  0.0966 -0.2799  0.5607
  662SOL    HW1 1985   2.314   0.901   1.935 -0.7228  1.0412  0.5120
  662SOL    HW2 1986   2.191   1.007   1.883 -0.1862 -2.3570  1.7956
  663SOL     OW 1987   1.867   1.301   1.109  0.1848 -0.1567 -0.0884
  663SOL    HW1 1988   1.919   1.274   1.027 -1.2651 -2.4698 -0.4503
  663SOL    HW2 1989   1.917   1.311   1.196  1.5987  1.2808 -1.3175
  664SOL     OW 1990   0.365   0.116   1.264 -0.5749  0.2230  0.3542
  664SOL    HW1 1991   0.399   0.048   1.194 -1.2999  1.4060  1.7800
  664SOL    HW2 1992   0.407   0.095   1.358  1.7740 -0.6131  2.1468
  665SOL     OW 1993   1.338   0.470   2.771 -0.1907 -0.6996 -0.1767
  665SOL    HW1 1994   1.356   0.453   2.869 -1.0078  0.2820 -1.1087
  665SOL    HW2 1995   1.415   0.529   2.726  1.4361 -0.8547  1.4536
  666SOL     OW 1996   0.783   0.598   2.143  0.4393 -0.1309  0.5555
  666SOL    HW1 1997   0.821   0.501   2.145  0.6137 -3.2844  2.6868
  666SOL    HW2 1998   0.675   0.595   2.150 -2.2604  0.5308  0.0771
  667SOL     OW 1999   1.429   1.476   1.506  0.3450  0.1594  0.1614
  667SOL    HW1 2000   1.399   1.551   1.565  0.0439 -0.9214  0.5508
  667SOL    HW2 2001   1.345   1.426   1.473 -0.2248  1.2680  1.3898
  668SOL     OW 2002   0.370   1.316   2.329  0.3436  0.6278  0.0245
  668SOL    HW1 2003   0.405   1.230   2.299 -0.4151  1.1920  1.0117
  668SOL    HW2 2004   0.367   1.386   2.260  0.1842 -0.7217  0.7313
  669SOL     OW 2005   2.496   2.584   2.953  0.4385 -0.0917 -0.1539
  669SOL    HW1 2006   2.583   2.581   2.899 -1.2071  1.2801 -0.9496
  669SOL    HW2 2007   2.510   2.565   3.052 -2.4658 -2.2758 -2.7444
  670SOL     OW 2008   2.699   1.319   1.870 -0.1504 -0.0254  0.3793
  670SOL    HW1 2009   2.785   1.339   1.818  1.7946  0.5384 -0.1803
  670SOL    HW2 2010   2.641   1.257   1.807  0.7035 -1.4049  1.3064
  671SOL     OW 2011   2.578   1.726   0.671 -0.8130 -0.1385 -0.1423
  671SOL    HW1 2012   2.487   1.713   0.622 -2.0299 -1.5636  0.0892
  671SOL    HW2 2013   2.652   1.746   0.607 -1.3710  0.8774  1.8707
  672SOL     OW 2014   1.492   0.944   1.932 -0.3081 -0.1031 -0.3085
  672SOL    HW1 2015   1.556   0.997   1.984 -3.4839 -1.6189 -1.0621
  672SOL    HW2 2016   1.520   0.955   1.831 -0.5246  0.3405 -0.3948
  673SOL     OW 2017   2.673   2.026   1.470  0.4087 -0.1811 -0.5138
  673SOL    HW1 2018   2.707   2.119   1.485  1.8586 -0.3776 -1.7556
  673SOL    HW2 2019   2.687   2.004   1.371 -0.1398  4.3371  3.2948
  674SOL     OW 2020   0.989   1.958   1.576 -0.1507  0.2857 -0.6201
  674SOL    HW1 2021   0.957   1.885   1.637 -0.1639  0.5677  0.2131
  674SOL    HW2 2022   0.924   2.038   1.566  1.1859  3.0636  0.9707
  675SOL     OW 2023   0.009   0.859   1.127  0.2046  0.3912  0.1303
  675SOL    HW1 2024   0.087   0.924   1.123 -1.6607 -0.5052 -0.2821
  675SOL    HW2 2025   0.039   0.759   1.132 -1.4503 -0.3020  0.8199
  676SOL     OW 2026   3.002   0.882   1.592 -0.0196 -0.1510  0.0198
  676SOL    HW1 2027   2.993   0.810   1.664 -1.0675  0.0379 -4.1261
  676SOL    HW2 2028   2.946   0.865   1.507  3.1629  0.6303 -2.1547
  677SOL     OW 2029   2.044   1.100   2.566 -0.2552  0.1406  0.4018
  677SOL    HW1 2030   1.996   1.169   2.502  0.5070  0.4225 -0.2731
  677SOL    HW2 2031   2.103   1.147   2.637  0.9066 -0.8823  1.8853
  678SOL     OW 2032   2.545   1.627   1.080 -0.0795 -0.7398 -0.4473
  678SOL    HW1 2033   2.570   1.544   1.028  0.1346 -0.7659  1.2132
  678SOL    HW2 2034   2.622   1.648   1.149  1.5211 -0.9041  0.5871
  679SOL     OW 2035   0.258   2.668   0.180 -0.6243 -0.2400  0.5909
  679SOL    HW1 2036   0.187   2.613   0.137  0.7431  0.5861  1.5900
  679SOL    HW2 2037   0.345   2.623   0.215  4.2326 -0.8394 -1.3231
  680SOL     OW 2038   0.027   1.794   1.107 -0.2979 -0.1539 -0.1652
  680SOL    HW1 2039   0.126   1.798   1.109 -1.3774  0.3736  0.1208
  680SOL    HW2 2040   3.078   1.802   1.203  1.3602 -1.2962  1.7215
  681SOL     OW 2041   1.177   0.050   0.820 -0.6536  0.4096  0.2383
  681SOL    HW1 2042   1.200   0.110   0.739 -0.9612  1.0652 -1.1841
  681SOL    HW2 2043   1.246   3.059   0.828  1.4934 -1.2421  0.0503
  682SOL     OW 2044   1.901   2.388   1.640  0.3164 -0.3744  0.8328
  682SOL    HW1 2045   2.003   2.389   1.637  1.7921  0.5746 -2.2265
  682SOL    HW2 2046   1.851   2.382   1.549 -2.0830  1.5181  0.2164
  683SOL     OW 2047   2.499   1.861   1.887  0.3389 -0.2392 -0.4244
  683SOL    HW1 2048   2.482   1.864   1.786  0.5461 -1.4587  1.6847
  683SOL    HW2 2049   2.557   1.786   1.918 -0.1089 -1.5569 -2.0831
  684SOL     OW 2050   2.907   1.629   1.801 -0.2453  0.0402  0.1276
  684SOL    HW1 2051   2.847   1.618   1.883 -0.2282 -0.8270  0.9494
  684SOL    HW2 2052   2.847   1.658   1.722 -1.6520  2.9326 -0.3939
  685SOL     OW 2053   1.490   1.386   0.166  0.3631  0.0135 -0.0486
  685SOL    HW1 2054   1.510   1.420   0.262  2.4891 -0.5874 -0.2944
  685SOL    HW2 2055   1.561   1.320   0.128  1.9577 -0.8056 -1.6606
  686SOL     OW 2056   3.019   0.664   1.742  0.0728  0.2101 -0.1046
  686SOL    HW1 2057   0.014   0.643   1.800 -3.8003 -2.3833 -2.2962
  686SOL    HW2 2058   3.012   0.598   1.666  0.4216 -1.2309 -0.0816
  687SOL     OW 2059   1.570   0.209   2.709 -0.2150  0.2864  0.4249
  687SOL    HW1 2060   1.610   0.131   2.761 -0.1325  0.3612  1.3814
  687SOL    HW2 2061   1.469   0.211   2.729  2.1195  0.1370  0.4333
  688SOL     OW 2062   1.283   1.660   2.532  0.4324 -0.2798  0.2957
  688SOL    HW1 2063   1.226   1.633   2.451 -2.6356 -1.2025 -0.4992
  688SOL    HW2 2064   1.270   1.758   2.559 -1.4325 -1.4802  1.6267
  689SOL     OW 2065   2.249   1.677   1.660  0.3487 -0.1763 -0.0426
  689SOL    HW1 2066   2.306   1.653   1.743  0.2086  0.4291  1.3126
  689SOL    HW2 2067   2.309   1.702   1.582 -2.3899 -1.1988  2.0006
  690SOL     OW 2068   2.382   2.294   1.350 -0.1127  0.3692  0.5960
  690SOL    HW1 2069   2.386   2.270   1.446 -1.2228  1.5720 -0.3437
  690SOL    HW2 2070   2.340   2.216   1.295  0.1485  1.0805 -1.5389
  691SOL     OW 2071   0.217   1.619   0.676 -0.2008  0.3803  0.0302
  691SOL    HW1 2072   0.287   1.683   0.650  1.0178  2.2600 -1.0120
  691SOL    HW2 2073   0.143   1.665   0.730  1.5512 -0.5227  2.1765
  692SOL     OW 2074   2.795   2.977   2.608 -0.8372 -0.0230  0.2732
  692SOL    HW1 2075   2.815   3.073   2.635 -1.2908  1.4558 -0.2526
  692SOL    HW2 2076   2.747   2.976   2.525  0.2761 -1.2240  1.0627
  693SOL     OW 2077   0.364   1.483   2.119 -0.1016 -0.0784 -0.6945
  693SOL    HW1 2078   0.327   1.441   2.033  0.3890 -1.7492  0.0770
  693SOL    HW2 2079   0.322   1.570   2.151  2.0381 -2.5359 -1.0071
  694SOL     OW 2080   2.497   0.359   1.980 -0.4594  0.4634 -0.0811
  694SOL    HW1 2081   2.600   0.329   1.977  2.4106  0.1068  1.8005
  694SOL    HW2 2082   2.459   0.314   1.895 -2.1705  0.1821 -0.4391
  695SOL     OW 2083   1.393   0.756   2.115  0.1819  0.4848  0.3755
  695SOL    HW1 2084   1.421   0.809   2.198  0.5253  0.1267 -1.0994
  695SOL    HW2 2085   1.411   0.811   2.030 -0.3991 -0.5253 -0.2655
  696SOL     OW 2086   2.171   2.853   1.677 -0.1479  0.4949  0.2530
  696SOL    HW1 2087   2.117   2.884   1.757  3.6426  1.7403 -0.9903
  696SOL    HW2 2088   2.113   2.873   1.595 -1.3916 -3.6833  0.8724
  697SOL     OW 2089   1.014   0.379   2.002 -0.3211 -0.8602  0.0100
  697SOL    HW1 2090   0.943   0.330   2.061 -1.5091  1.1734  0.3166
  697SOL    HW2 2091   1.091   0.426   2.053  1.9848 -0.1600  0.7661
  698SOL     OW 2092   2.372   1.588   2.781 -0.3765 -0.0378 -0.4939
  698SOL    HW1 2093   2.353   1.491   2.798  0.7332  0.8464 -0.7421
  698SOL    HW2 2094   2.393   1.604   2.687  0.2968 -0.7985  2.2429
  699SOL     OW 2095   2.183   0.752   0.344 -0.1945 -0.0781  0.1582
  699SOL    HW1 2096   2.119   0.779   0.268  1.8925 -1.2250  0.4603
  699SOL    HW2 2097   2.188   0.818   0.418 -2.1342 -2.2829 -0.6961
  700SOL     OW 2098   1.360   2.942   0.886 -0.0441 -0.6518  0.1686
  700SOL    HW1 2099   1.447   2.982   0.925  3.0414  2.2975 -0.9878
  700SOL    HW2 2100   1.329   2.852   0.922 -0.7392 -1.4521  2.4545
  701SOL     OW 2101   3.005   0.464   0.622  0.0209  0.8967  0.1143
  701SOL    HW1 2102   2.975   0.541   0.564 -0.7630  2.2688  0.3917
  701SOL    HW2 2103   3.063   0.492   0.702  1.2357 -2.1683 -0.3436
  702SOL     OW 2104   1.785   2.435   1.372  0.3611  0.1806  0.0911
  702SOL    HW1 2105   1.701   2.430   1.316  0.8304 -1.0315  0.3324
  702SOL    HW2 2106   1.831   2.520   1.343  1.7475 -0.2964 -0.8412
  703SOL     OW 2107   0.192   0.567   1.121  0.1323 -0.0092 -0.3463
  703SOL    HW1 2108   0.150   0.580   1.214 -0.6839  1.4161  0.1844
  703SOL    HW2 2109   0.287   0.528   1.137  0.7124 -2.0898  1.7802
  704SOL     OW 2110   1.000   2.748   1.659  0.4849 -0.2215 -0.2235
  704SOL    HW1 2111   1.048   2.756   1.564  1.4936 -2.5467 -2.3549
  704SOL    HW2 2112   0.941   2.829   1.685 -2.3363  1.2927 -0.4588
  705SOL     OW 2113   3.009   1.913   0.018  0.2575 -0.4191 -0.2067
  705SOL    HW1 2114   3.039   1.838   0.071 -2.4782  0.8292 -0.5967
  705SOL    HW2 2115   2.927   1.951   0.064  2.7877 -0.0818  1.6551
  706SOL     OW 2116   0.137   0.491   0.261  0.3735  0.1153 -0.4602
  706SOL    HW1 2117   0.182   0.467   0.170  0.6565  0.7611 -2.2789
  706SOL    HW2 2118   0.097   0.413   0.315 -1.5150  0.9200  0.6188
  707SOL     OW 2119   1.662   2.852   1.896 -0.7387 -0.3070 -0.0188
  707SOL    HW1 2120   1.569   2.882   1.920 -2.0088 -0.2053  0.4639
  707SOL    HW2 2121   1.685   2.767   1.953 -0.5231 -1.7839  1.2797
  708SOL     OW 2122   0.468   0.042   1.510 -0.7582 -0.1169 -0.4493
  708SOL    HW1 2123   0.490   3.028   1.499  1.1701  2.2094  0.1330
  708SOL    HW2 2124   0.485   0.073   1.606 -0.9680 -2.8968  0.7493
  709SOL     OW 2125   0.200   0.952   1.795 -0.3428  0.5658  0.3084
  709SOL    HW1 2126   0.169   0.929   1.700 -1.4767  1.3465 -2.8365
  709SOL    HW2 2127   0.303   0.949   1.793 -2.9966  0.0895  0.8873
  710SOL     OW 2128   0.249   0.547   0.589  0.4116  0.3684 -0.1084
  710SOL    HW1 2129   0.302   0.525   0.509  2.0358 -1.0077  0.4122
  710SOL    HW2 2130   0.202   0.637   0.575 -0.8195 -0.1554  1.8345
  711SOL     OW 2131   2.314   2.355   2.036  0.3667  0.2171 -0.4930
  711SOL    HW1 2132   2.341   2.333   2.131  1.4015 -2.9222 -3.0299
  711SOL    HW2 2133   2.268   2.445   2.033  0.2448 -0.3643 -0.0467
  712SOL     OW 2134   0.098   2.617   2.348  0.2469  0.0239  0.6257
  712SOL    HW1 2135   0.110   2.709   2.388  0.2694 -0.2062 -0.0632
  712SOL    HW2 2136   0.013   2.618   2.292 -0.0894  1.1325 -0.2078
  713SOL     OW 2137   2.563   0.110   0.574 -0.0429  0.7432  0.2122
  713SOL    HW1 2138   2.551   0.206   0.553  1.7528 -1.8251 -0.1521
  713SOL    HW2 2139   2.621   0.054   0.507 -2.8290  0.9243 -1.9575
  714SOL     OW 2140   1.786   1.527   2.574 -0.2986  0.0069 -0.6645
  714SOL    HW1 2141   1.694   1.525   2.615 -0.0052  0.2838 -1.4221
  714SOL    HW2 2142   1.789   1.608   2.512  0.8756 -0.1185  3.6686
  715SOL     OW 2143   0.012   0.593   0.901 -0.1413 -0.4071  0.0092
  715SOL    HW1 2144   0.064   0.559   0.982  0.1272  0.8960 -0.7447
  715SOL    HW2 2145   0.056   0.674   0.857  0.5582  0.1093  0.7178
  716SOL     OW 2146   0.747   0.721   1.651 -0.3248  0.1665  0.1833
  716SOL    HW1 2147   0.683   0.701   1.570 -3.6579 -0.4674 -1.0375
  716SOL    HW2 2148   0.778   0.640   1.698  2.0573  0.8647 -1.1467
  717SOL     OW 2149   1.076   0.928   2.216  0.2576  0.5393 -0.2052
  717SOL    HW1 2150   1.073   1.018   2.264  0.0933  3.0788 -0.8013
  717SOL    HW2 2151   1.127   0.940   2.131 -0.0200 -2.0117 -2.2202
  718SOL     OW 2152   1.257   3.072   0.502  0.2844 -0.3675  0.0987
  718SOL    HW1 2153   1.284   0.071   0.559  0.1363  0.5196  0.0406
  718SOL    HW2 2154   1.186   0.012   0.436  0.1731  1.6240 -2.2721
  719SOL     OW 2155   2.974   2.592   2.965  0.0113 -0.4804  0.1797
  719SOL    HW1 2156   2.883   2.570   2.935  1.0498 -2.1360  1.4101
  719SOL    HW2 2157   3.049   2.560   2.906 -1.2425  0.2623  2.3529
  720SOL     OW 2158   1.396   0.507   1.681 -0.4465 -0.0598  0.0811
  720SOL    HW1 2159   1.341   0.433   1.638  0.1239  0.5261 -0.3782
  720SOL    HW2 2160   1.468   0.474   1.748 -1.0617 -2.7517 -2.1796
  721SOL     OW 2161   0.116   2.739   1.123  0.1487  0.2069 -0.6195
  721SOL    HW1 2162   0.090   2.811   1.054  0.2950 -1.0671 -0.8099
  721SOL    HW2 2163   0.063   2.653   1.102  2.2138  1.1045 -2.5976
  722SOL     OW 2164   0.611   1.163   2.733  1.0028  0.0665 -0.2563
  722SOL    HW1 2165   0.678   1.227   2.693 -1.6275 -0.1373  2.1840
  722SOL    HW2 2166   0.557   1.210   2.807  0.7247 -0.2509  4.2045
  723SOL     OW 2167   2.121   1.348   1.309  0.2771 -0.6093 -0.2430
  723SOL    HW1 2168   2.139   1.429   1.252  1.4088  1.4471 -1.9419
  723SOL    HW2 2169   2.153   1.380   1.407  0.7581 -0.9376  2.2238
  724SOL     OW 2170   0.837   1.727   0.214 -0.4470  0.5276  0.4420
  724SOL    HW1 2171   0.835   1.725   0.318  0.7775 -2.5503  0.3534
  724SOL    HW2 2172   0.936   1.724   0.176  0.8890 -2.8468  0.0631
  725SOL     OW 2173   0.188   0.855   1.532  0.1507 -0.2259 -0.2028
  725SOL    HW1 2174   0.229   0.911   1.456  1.4270 -2.8098 -0.3454
  725SOL    HW2 2175   0.089   0.876   1.556  1.0522 -0.4563 -2.4513
  726SOL     OW 2176   2.346   0.922   2.903 -0.1229  0.4534  0.2415
  726SOL    HW1 2177   2.338   0.954   2.807 -0.9666  0.8408 -4.1907
  726SOL    HW2 2178   2.427   0.859   2.922  2.0020 -1.4992 -0.8567
  727SOL     OW 2179   2.186   0.946   2.405 -0.1848 -0.3211 -0.0003
  727SOL    HW1 2180   2.128   0.983   2.478  1.8417 -1.9570 -3.9838
  727SOL    HW2 2181   2.128   0.917   2.327 -0.1060 -3.4441  1.0952
  728SOL     OW 2182   1.808   2.019   1.263  0.1031  0.0885  0.0735
  728SOL    HW1 2183   1.732   2.086   1.272  0.7079 -1.6873  3.0564
  728SOL    HW2 2184   1.842   2.005   1.170 -0.2348 -0.2121  0.8853
  729SOL     OW 2185   1.727   1.079   2.029  0.2977  0.2441  0.3405
  729SOL    HW1 2186   1.665   1.162   2.016 -0.6170 -1.6769 -2.0039
  729SOL    HW2 2187   1.818   1.103   2.070 -1.7731 -1.7669 -1.4384
  730SOL     OW 2188   1.503   0.568   0.776 -0.3668 -0.6995 -0.3161
  730SOL    HW1 2189   1.516   0.589   0.876  1.6063  1.3407 -0.3710
  730SOL    HW2 2190   1.588   0.524   0.739 -2.2400  1.4733  0.9430
  731SOL     OW 2191   0.549   0.737   2.929 -0.8351 -0.8980  0.0559
  731SOL    HW1 2192   0.603   0.729   2.845  2.4772 -0.7095  1.2796
  731SOL    HW2 2193   0.592   0.685   3.005 -1.1534 -0.4128 -0.3023
  732SOL     OW 2194   0.602   1.013   0.416 -0.1444  0.0891 -0.2203
  732SOL    HW1 2195   0.640   0.943   0.480 -0.4135 -0.2086 -0.1460
  732SOL    HW2 2196   0.508   1.035   0.443 -1.1841  0.9512 -0.1248
  733SOL     OW 2197   1.315   1.489   2.195 -0.1103  0.6161  1.1008
  733SOL    HW1 2198   1.239   1.491   2.260  3.5430 -1.5201 -0.2601
  733SOL    HW2 2199   1.283   1.494   2.098  2.2006 -0.9966 -4.2281
  734SOL     OW 2200   0.217   2.315   3.062  0.2663 -0.4015 -0.7502
  734SOL    HW1 2201   0.198   2.220   3.028  0.9418 -2.1961 -0.5964
  734SOL    HW2 2202   0.286   2.355   3.000 -1.0254  1.7309 -0.9839
  735SOL     OW 2203   2.631   0.370   0.980  0.1908 -0.0015  0.9710
  735SOL    HW1 2204   2.532   0.396   0.994 -3.8980 -0.9297 -1.2535
  735SOL    HW2 2205   2.685   0.445   0.936  1.2522  0.9445  0.8762
  736SOL     OW 2206   1.985   1.519   2.314 -0.4583  0.5150  0.3834
  736SOL    HW1 2207   2.077   1.467   2.335  2.4881 -1.7137  2.0779
  736SOL    HW2 2208   1.959   1.578   2.393  3.5570  0.0258  0.5760
  737SOL     OW 2209   0.231   0.767   0.287 -0.2171  0.2469  0.0303
  737SOL    HW1 2210   0.166   0.841   0.264 -2.8761 -0.5200 -0.6629
  737SOL    HW2 2211   0.190   0.679   0.260  0.3679  0.2286 -0.3866
  738SOL     OW 2212   1.030   1.921   1.289  0.3949  0.6197  0.6691
  738SOL    HW1 2213   1.005   1.826   1.305  1.6658 -0.0090 -2.1241
  738SOL    HW2 2214   1.042   1.966   1.380 -0.3105 -0.2683  1.3616
  739SOL     OW 2215   1.437   2.777   2.300  0.1866  0.0648  0.0052
  739SOL    HW1 2216   1.520   2.754   2.350 -0.8219  0.7434 -1.7075
  739SOL    HW2 2217   1.455   2.854   2.236  1.2235  1.5814  1.4467
  740SOL     OW 2218   2.344   2.604   1.314  0.0724  0.0835  0.2079
  740SOL    HW1 2219   2.328   2.505   1.309  1.5052 -3.0253 -1.1885
  740SOL    HW2 2220   2.423   2.620   1.372 -2.0832  1.2624 -1.9474
  741SOL     OW 2221   2.368   0.487   3.051  0.3095 -0.1193  0.2457
  741SOL    HW1 2222   2.434   0.409   0.005  0.1274 -3.0499 -0.7405
  741SOL    HW2 2223   2.293   0.512   0.033 -1.3176  0.3516  1.7943
  742SOL     OW 2224   1.168   2.221   3.033  0.0093  0.5379  0.3846
  742SOL    HW1 2225   1.072   2.242   3.013 -1.1710 -1.2915  2.6214
  742SOL    HW2 2226   1.222   2.307   3.051  1.3655  2.2763  0.3772
  743SOL     OW 2227   2.548   1.333   2.207 -0.2081 -0.2201 -0.0461
  743SOL    HW1 2228   2.651   1.324   2.204 -0.8090  1.2071  0.3075
  743SOL    HW2 2229   2.498   1.248   2.183 -1.8632  2.6699  0.2235
  744SOL     OW 2230   3.005   0.076   0.365 -0.4276 -0.0404 -0.0262
  744SOL    HW1 2231   3.023   3.070   0.408  0.2039 -0.8715 -1.0832
  744SOL    HW2 2232   2.964   0.061   0.270 -2.0972 -1.5799 -1.0411
  745SOL     OW 2233   2.361   1.728   1.404 -0.1914  0.3085  0.0471
  745SOL    HW1 2234   2.431   1.658   1.372  2.1302 -0.7184 -1.3356
  745SOL    HW2 2235   2.353   1.803   1.339 -2.6090 -2.6396 -1.0547
  746SOL     OW 2236   0.898   1.690   0.513  0.4516 -0.1511  0.0642
  746SOL    HW1 2237   0.969   1.682   0.587  2.1698  1.0720  0.4789
  746SOL    HW2 2238   0.929   1.630   0.437 -0.0650 -2.4830 -1.3359
  747SOL     OW 2239   1.128   1.509   1.593  0.1547 -0.4355 -0.6058
  747SOL    HW1 2240   1.152   1.563   1.514 -2.8831  0.2382  2.5550
  747SOL    HW2 2241   1.039   1.462   1.579  2.5956  0.7892  1.2021
  748SOL     OW 2242   0.429   2.782   3.020  0.0366 -0.4003  0.2934
  748SOL    HW1 2243   0.369   2.809   0.012  1.2643 -1.9503  1.0060
  748SOL    HW2 2244   0.394   2.818   2.932 -2.3473  2.6158 -1.2399
  749SOL     OW 2245   0.116   0.934   2.822  0.1265  0.5384 -0.4019
  749SOL    HW1 2246   0.189   0.900   2.882 -4.7407 -0.6491 -1.3895
  749SOL    HW2 2247   0.157   0.968   2.732  0.7292 -0.0468 -1.5593
  750SOL     OW 2248   1.596   1.331   1.658 -0.8555  0.0456  0.2853
  750SOL    HW1 2249   1.542   1.380   1.587  0.1992 -0.5290  1.9290
  750SOL    HW2 2250   1.697   1.350   1.646 -1.5209  1.2288  2.4245
  751SOL     OW 2251   2.899   0.694   0.438  0.0861  0.2762 -0.3538
  751SOL    HW1 2252   2.924   0.648   0.351  0.5204 -1.6214 -1.3769
  751SOL    HW2 2253   2.858   0.788   0.415 -0.6896 -0.4840 -1.9328
  752SOL     OW 2254   2.797   2.671   1.008 -0.0312 -0.0843  0.1541
  752SOL    HW1 2255   2.785   2.772   1.007 -1.4460 -2.4905  0.8411
  752SOL    HW2 2256   2.898   2.652   1.019  1.7973  0.7610 -0.9996
  753SOL     OW 2257   0.864   2.297   1.143 -0.1714 -0.2840 -0.0107
  753SOL    HW1 2258   0.891   2.319   1.244  3.6131  0.0839  1.7358
  753SOL    HW2 2259   0.781   2.238   1.140  1.3494  0.1071 -1.0999
  754SOL     OW 2260   0.077   2.308   2.120 -0.1147 -0.8833 -0.2241
  754SOL    HW1 2261   0.156   2.372   2.143  0.1335  1.9243 -2.7152
  754SOL    HW2 2262   0.030   2.346   2.036  2.2541 -0.5712 -1.7884
  755SOL     OW 2263   2.530   0.714   2.982  0.2809 -0.2885 -0.4148
  755SOL    HW1 2264   2.624   0.669   2.967  1.5646 -0.7547 -1.3651
  755SOL    HW2 2265   2.470   0.638   3.000  3.5300  2.7742  1.0828
  756SOL     OW 2266   1.955   2.186   0.208  0.3350 -0.3727 -0.3836
  756SOL    HW1 2267   2.014   2.252   0.157  1.0329 -0.7329  0.2334
  756SOL    HW2 2268   2.012   2.112   0.251  0.5301  1.9092  0.1288
  757SOL     OW 2269   2.534   0.383   0.517 -0.3750 -0.5319  0.0492
  757SOL    HW1 2270   2.541   0.431   0.428  2.0690 -0.1188  1.2720
  757SOL    HW2 2271   2.602   0.421   0.584 -2.0822 -0.5912 -1.2986
  758SOL     OW 2272   2.082   0.983   1.759 -0.4029 -0.1373  0.2499
  758SOL    HW1 2273   1.989   0.955   1.791 -0.7654  0.3911 -0.5609
  758SOL    HW2 2274   2.124   0.906   1.703  1.1249  0.0843 -1.4924
  759SOL     OW 2275   2.824   0.595   1.324 -0.3369 -0.6757 -0.4243
  759SOL    HW1 2276   2.725   0.613   1.329  0.5026  1.9368  0.4595
  759SOL    HW2 2277   2.838   0.514   1.261  1.8302  0.9263 -1.7148
  760SOL     OW 2278   0.405   1.388   1.390 -0.0209 -0.2977  0.6893
  760SOL    HW1 2279   0.358   1.463   1.339 -1.5404  1.0156 -0.9482
  760SOL    HW2 2280   0.340   1.331   1.443  1.5185 -2.0090  0.7032
  761SOL     OW 2281   0.913   0.673   0.213  0.5757 -0.0362 -1.0669
  761SOL    HW1 2282   0.823   0.665   0.162 -1.9242  0.1911 -1.7509
  761SOL    HW2 2283   0.968   0.759   0.189  0.2083  0.6839 -0.3600
  762SOL     OW 2284   0.910   1.664   1.317 -0.1881  0.0091  0.5600
  762SOL    HW1 2285   0.919   1.600   1.238  2.1160 -0.0338 -1.3759
  762SOL    HW2 2286   0.813   1.686   1.339 -0.2592  1.7524 -0.0152
  763SOL     OW 2287   1.018   0.726   1.574  0.1626  0.4201 -0.3732
  763SOL    HW1 2288   1.047   0.691   1.664 -1.3544  2.2949 -1.5301
  763SOL    HW2 2289   0.930   0.773   1.582  2.3724 -0.2410  1.6304
  764SOL     OW 2290   3.023   2.882   2.916 -1.0848  0.2207  0.3388
  764SOL    HW1 2291   0.004   2.887   2.990 -1.1659 -0.4381 -0.8067
  764SOL    HW2 2292   2.946   2.817   2.932 -1.5555  0.1687  2.6202
  765SOL     OW 2293   0.863   2.982   1.758 -0.4820  0.3748 -0.4292
  765SOL    HW1 2294   0.790   3.019   1.821  0.0647 -0.9549  0.0925
  765SOL    HW2 2295   0.843   3.013   1.665  3.1102 -0.3336  1.5454
  766SOL     OW 2296   2.667   1.881   2.306 -0.3116 -0.6802  0.0173
  766SOL    HW1 2297   2.580   1.843   2.347 -1.0431 -0.4177 -0.3088
  766SOL    HW2 2298   2.717   1.944   2.365  1.1294 -0.0624 -3.3914
  767SOL     OW 2299   1.281   1.203   2.240  0.1459  0.0741 -0.6704
  767SOL    HW1 2300   1.296   1.301   2.217  0.1831  1.2262 -0.9440
  767SOL    HW2 2301   1.297   1.141   2.158  0.2785 -0.8263  1.2382
  768SOL     OW 2302   1.594   1.565   0.369 -0.3004  0.6483  0.8491
  768SOL    HW1 2303   1.595   1.641   0.434  0.2110  0.1827  0.2277
  768SOL    HW2 2304   1.653   1.584   0.285 -2.5153 -1.2617 -0.6461
  769SOL     OW 2305   0.328   1.460   0.877  0.6977  0.1134 -0.3311
  769SOL    HW1 2306   0.277   1.487   0.790 -0.3988  1.5441 -2.4731
  769SOL    HW2 2307   0.424   1.484   0.869 -0.1868  1.2867 -1.3746
  770SOL     OW 2308   1.469   0.861   2.333 -0.4550 -0.1934  0.4745
  770SOL    HW1 2309   1.555   0.902   2.353  0.7557 -2.8437  0.4222
  770SOL    HW2 2310   1.389   0.913   2.363 -1.0548 -0.6183 -0.5388
  771SOL     OW 2311   2.490   0.061   2.314 -0.0710 -0.1162 -0.3730
  771SOL    HW1 2312   2.425   0.120   2.259  0.6230  2.9092  0.8958
  771SOL    HW2 2313   2.440   0.005   2.383  0.9252  0.9627 -2.7321
  772SOL     OW 2314   2.367   1.770   2.380  0.1207  0.0827 -0.1097
  772SOL    HW1 2315   2.277   1.760   2.330 -3.1296 -0.5696  4.2311
  772SOL    HW2 2316   2.408   1.677   2.394 -0.9002  1.0361 -1.0526
  773SOL     OW 2317   0.894   1.362   1.529 -0.3831  0.2411 -0.4790
  773SOL    HW1 2318   0.925   1.326   1.441 -0.5302 -1.3762  2.7650
  773SOL    HW2 2319   0.813   1.418   1.514  0.4315 -1.0301  1.5561
  774SOL     OW 2320   1.096   0.612   2.887  0.2980 -0.0664 -0.5548
  774SOL    HW1 2321   1.079   0.700   2.841  0.5416 -0.1447  0.8604
  774SOL    HW2 2322   1.150   0.550   2.828  0.8202  1.3100  0.9988
  775SOL     OW 2323   1.612   2.074   3.030  0.3138  0.4927 -0.5103
  775SOL    HW1 2324   1.639   2.168   3.052 -1.8672 -1.1575 -0.9880
  775SOL    HW2 2325   1.511   2.072   3.005 -0.4653 -0.3351 -0.6579
  776SOL     OW 2326   3.070   1.150   1.585 -0.3084  0.5608 -0.0034
  776SOL    HW1 2327   3.040   1.056   1.604 -1.5760 -3.1572 -1.8480
  776SOL    HW2 2328   3.009   1.219   1.631  0.7119  0.9804 -1.9728
  777SOL     OW 2329   2.392   2.337   2.313  0.0433  0.1917 -0.2261
  777SOL    HW1 2330   2.479   2.386   2.326 -1.5494  0.6345  0.9726
  777SOL    HW2 2331   2.409   2.249   2.264  0.0441  2.9878 -0.3984
  778SOL     OW 2332   1.600   1.322   2.003 -0.0847 -0.2535 -0.1313
  778SOL    HW1 2333   1.514   1.315   1.951  1.9847  1.2034 -0.1822
  778SOL    HW2 2334   1.658   1.403   1.976 -0.9332  1.9491 -2.3937
  779SOL     OW 2335   2.942   1.115   0.387 -0.5504 -0.7801 -0.2919
  779SOL    HW1 2336   2.863   1.055   0.417 -1.5855 -1.2732 -0.8231
  779SOL    HW2 2337   2.912   1.197   0.327 -1.5978  2.1292 -0.9696
  780SOL     OW 2338   1.980   2.813   2.664 -0.3110  0.4961 -0.4114
  780SOL    HW1 2339   1.896   2.865   2.632 -1.4158  1.5658  0.1953
  780SOL    HW2 2340   2.016   2.857   2.752 -1.4015 -0.0326  3.8660
  781SOL     OW 2341   2.750   1.660   1.239  0.0771 -0.1726  0.2115
  781SOL    HW1 2342   2.815   1.632   1.166 -0.1738 -0.5677  0.8658
  781SOL    HW2 2343   2.752   1.593   1.317 -0.5380 -0.3628  1.3796
  782SOL     OW 2344   2.756   2.298   3.069 -0.6293 -0.3829  0.1172
  782SOL    HW1 2345   2.736   2.362   0.060  0.7512 -1.5755 -0.3612
  782SOL    HW2 2346   2.691   2.320   2.989  0.5417  0.8163 -1.4150
  783SOL     OW 2347   0.597   1.522   0.771 -0.3037 -0.0668 -0.5129
  783SOL    HW1 2348   0.681   1.464   0.777  2.9767 -1.3050 -0.1503
  783SOL    HW2 2349   0.594   1.581   0.684  1.1237  1.0330 -3.4325
  784SOL     OW 2350   2.372   1.115   0.328  0.0833 -0.3997  0.4302
  784SOL    HW1 2351   2.369   1.131   0.229  0.7773 -1.1750 -0.0364
  784SOL    HW2 2352   2.398   1.199   0.379 -0.4632  0.4264  0.6576
  785SOL     OW 2353   1.946   2.879   0.608  0.0967  0.2597  0.0427
  785SOL    HW1 2354   1.890   2.889   0.522 -0.3258  0.6276  1.2933
  785SOL    HW2 2355   1.931   2.784   0.649  1.7258 -0.3982  1.3290
  786SOL     OW 2356   0.601   2.087   2.548 -0.3153  0.4570  0.2717
  786SOL    HW1 2357   0.595   2.054   2.445  4.7529 -0.9599 -0.0169
  786SOL    HW2 2358   0.520   2.141   2.571 -0.0189  0.2196  0.6063
  787SOL     OW 2359   1.590   0.537   1.073  0.7720  0.1213  0.0272
  787SOL    HW1 2360   1.576   0.465   1.140  0.7116  0.0589 -1.0801
  787SOL    HW2 2361   1.689   0.553   1.050 -2.8283 -0.5279  0.2780
  788SOL     OW 2362   0.611   1.061   3.022 -0.2232 -0.7005  0.3399
  788SOL    HW1 2363   0.651   0.998   2.955  0.0563  1.2188  0.6401
  788SOL    HW2 2364   0.535   1.123   2.989  0.2850  1.1189  1.0415
  789SOL     OW 2365   2.781   1.967   1.198  0.0858  0.1687  0.2383
  789SOL    HW1 2366   2.770   1.861   1.212  0.6080 -3.4921  2.6978
  789SOL    HW2 2367   2.705   2.000   1.133 -2.5155  1.4969 -0.0787
  790SOL     OW 2368   1.360   0.129   2.213  0.7095 -0.2120 -0.2342
  790SOL    HW1 2369   1.302   0.145   2.295 -2.8039 -1.3735  0.9353
  790SOL    HW2 2370   1.361   0.213   2.152  0.1357 -0.7958 -2.7262
  791SOL     OW 2371   1.129   0.501   0.253  1.0675  0.0216  0.2003
  791SOL    HW1 2372   1.087   0.405   0.239  0.3002 -1.4859  1.1214
  791SOL    HW2 2373   1.052   0.572   0.246 -0.9349  1.1461 -3.3144
  792SOL     OW 2374   1.391   0.030   1.552 -0.4273 -0.1495  0.2535
  792SOL    HW1 2375   1.381   3.015   1.567  2.5236 -0.2262  2.9818
  792SOL    HW2 2376   1.488   0.056   1.585  2.1932 -2.1075  0.1788
  793SOL     OW 2377   1.027   2.854   0.790 -0.0540 -0.7851  0.0410
  793SOL    HW1 2378   1.094   2.846   0.714  0.5809 -1.9082 -0.8508
  793SOL    HW2 2379   1.046   2.936   0.845 -0.9601  0.9605  1.1138
  794SOL     OW 2380   0.590   1.305   1.904 -0.1350  0.1754  0.1225
  794SOL    HW1 2381   0.622   1.257   1.992  1.2241  2.9004 -0.4738
  794SOL    HW2 2382   0.520   1.249   1.850 -1.2665 -0.5912 -0.8022
  795SOL     OW 2383   0.073   1.616   2.165  0.0405  0.4866  0.1006
  795SOL    HW1 2384   3.070   1.570   2.193 -0.8691  1.7653  2.0428
  795SOL    HW2 2385   0.082   1.635   2.063 -0.9586  0.7383 -0.8412
  796SOL     OW 2386   1.814   1.519   1.947 -0.1661 -0.1586 -0.2407
  796SOL    HW1 2387   1.907   1.511   1.917 -1.7394  2.1224 -1.4598
  796SOL    HW2 2388   1.815   1.556   2.039 -0.1952 -1.4605 -3.0487
  797SOL     OW 2389   0.061   0.136   2.604 -0.0121 -0.2559  0.0386
  797SOL    HW1 2390   3.075   0.162   2.538  1.0889 -0.4378  0.4843
  797SOL    HW2 2391   0.019   0.099   2.692 -1.3222  0.1021  2.8545
  798SOL     OW 2392   0.197   2.025   1.779  0.1058 -0.2927  0.0533
  798SOL    HW1 2393   0.171   2.102   1.714 -1.2644 -0.8823  0.7960
  798SOL    HW2 2394   0.286   1.982   1.748  0.3837  0.8682 -0.1900
  799SOL     OW 2395   2.766   2.430   0.238 -0.4676 -0.4463 -0.0282
  799SOL    HW1 2396   2.845   2.492   0.270  1.0688  1.3224 -1.1277
  799SOL    HW2 2397   2.706   2.391   0.311 -1.7732 -2.5818 -1.1392
  800SOL     OW 2398   1.087   1.642   0.709 -0.6201 -0.7101  0.3506
  800SOL    HW1 2399   1.098   1.711   0.783  0.4249 -0.4973  0.9501
  800SOL    HW2 2400   1.176   1.628   0.661  1.1028 -0.9776 -0.5226
  801SOL     OW 2401   2.706   0.585   0.628  0.0773 -0.2511  0.5874
  801SOL    HW1 2402   2.775   0.614   0.563  0.8285 -1.8777  0.6968
  801SOL    HW2 2403   2.625   0.651   0.619  0.0133  2.1129 -0.0796
  802SOL     OW 2404   2.476   1.395   0.387  0.9423  0.1667 -0.1998
  802SOL    HW1 2405   2.481   1.493   0.366 -1.6783 -1.8621 -0.0759
  802SOL    HW2 2406   2.523   1.373   0.476 -0.2562 -1.1344 -1.6788
  803SOL     OW 2407   1.644   1.853   2.853 -0.4537  0.2882 -0.0332
  803SOL    HW1 2408   1.646   1.890   2.754 -0.2331  0.2304  0.7457
  803SOL    HW2 2409   1.649   1.933   2.923  0.0453 -1.0615  1.0010
  804SOL     OW 2410   2.147   2.019   0.351 -0.2516  0.3578  0.2652
  804SOL    HW1 2411   2.141   1.915   0.358 -0.2185 -0.1852  0.3307
  804SOL    HW2 2412   2.233   2.039   0.302 -2.6802  2.0937  1.9899
  805SOL     OW 2413   2.770   1.615   2.548  0.0428  0.1884  0.5833
  805SOL    HW1 2414   2.776   1.628   2.649  0.8937  1.4599 -2.2720
  805SOL    HW2 2415   2.827   1.678   2.496 -1.5193  0.0376  1.1807
  806SOL     OW 2416   0.286   0.260   0.563 -0.4166  0.6018 -0.3122
  806SOL    HW1 2417   0.309   0.335   0.622  1.1066 -0.2229 -0.8828
  806SOL    HW2 2418   0.193   0.264   0.528 -2.4205  3.7705  0.2656
  807SOL     OW 2419   2.390   1.313   2.787  0.2119 -0.5423 -0.5610
  807SOL    HW1 2420   2.294   1.278   2.798 -0.4341 -1.1385  0.3506
  807SOL    HW2 2421   2.440   1.266   2.713 -1.2164  2.7071  1.3758
  808SOL     OW 2422   0.081   1.443   0.489 -0.0101 -0.3120  0.0583
  808SOL    HW1 2423   0.079   1.344   0.518 -1.1898 -2.0328 -0.8740
  808SOL    HW2 2424   0.111   1.502   0.569  0.0784 -0.6042  0.5126
  809SOL     OW 2425   2.441   0.648   2.604 -0.4136  0.3485 -0.1096
  809SOL    HW1 2426   2.436   0.575   2.671 -0.6721  0.3547  2.7023
  809SOL    HW2 2427   2.430   0.739   2.643  0.5763 -1.2881  1.1308
  810SOL     OW 2428   1.221   0.888   0.384  0.5403  0.1637  0.1497
  810SOL    HW1 2429   1.324   0.905   0.363  2.1530 -0.6556 -0.1451
  810SOL    HW2 2430   1.156   0.929   0.316 -1.9764  0.3869  0.2755
  811SOL     OW 2431   1.524   2.442   0.727  0.4794 -0.2986 -0.1980
  811SOL    HW1 2432   1.440   2.502   0.729 -3.6934  2.6898  0.1074
  811SOL    HW2 2433   1.508   2.375   0.653  1.7895 -1.1324  0.3275
  812SOL     OW 2434   0.728   2.550   1.429  0.4352 -0.2081 -0.3257
  812SOL    HW1 2435   0.807   2.492   1.403  0.4908  0.3876  0.9088
  812SOL    HW2 2436   0.709   2.529   1.528 -1.3587  0.2863 -1.4805
  813SOL     OW 2437   1.177   0.241   1.849 -0.2466 -0.1654  0.4117
  813SOL    HW1 2438   1.148   0.142   1.851 -1.1393  1.3955 -0.6615
  813SOL    HW2 2439   1.109   0.298   1.899  1.3690 -1.5038  1.1630
  814SOL     OW 2440   1.357   3.046   2.543 -0.7137 -0.3122  0.1516
  814SOL    HW1 2441   1.282   3.038   2.477  0.7008 -0.0696  1.8444
  814SOL    HW2 2442   1.402   2.957   2.569 -0.5595 -0.6986 -0.7325
  815SOL     OW 2443   0.582   0.483   1.927  0.1132  0.2845  0.2879
  815SOL    HW1 2444   0.542   0.504   1.834 -0.0781  1.1618  0.6800
  815SOL    HW2 2445   0.550   0.543   2.006 -0.5571  1.3715 -0.1689
  816SOL     OW 2446   2.483   0.240   0.040  0.1976 -0.7939 -0.0309
  816SOL    HW1 2447   2.506   0.221   0.137  0.8803  0.9152 -2.6816
  816SOL    HW2 2448   2.550   0.210   3.058  2.6299 -0.9834 -0.4951
  817SOL     OW 2449   1.726   0.411   2.792 -0.1594  0.4167 -0.2371
  817SOL    HW1 2450   1.776   0.441   2.707  1.1226 -1.9025 -0.7932
  817SOL    HW2 2451   1.661   0.337   2.759  0.4931 -1.8263  1.9459
  818SOL     OW 2452   2.241   0.530   0.191 -0.1451 -1.0365  0.0737
  818SOL    HW1 2453   2.211   0.444   0.237  0.6738 -2.2796 -2.1784
  818SOL    HW2 2454   2.221   0.615   0.247  0.2381  2.0967  0.0964
  819SOL     OW 2455   2.227   1.502   0.159 -0.2347  0.5965  0.2276
  819SOL    HW1 2456   2.311   1.544   0.201  0.4578 -1.0974 -1.7852
  819SOL    HW2 2457   2.248   1.409   0.115 -2.0595  2.9011  0.2755
  820SOL     OW 2458   2.812   2.082   0.127 -0.1067 -0.3554 -0.6683
  820SOL    HW1 2459   2.780   2.153   0.061  1.8437  0.0595  3.0084
  820SOL    HW2 2460   2.760   2.094   0.215  3.1109  0.3387  0.2358
  821SOL     OW 2461   0.398   2.709   1.604 -0.8296  0.2851 -1.2448
  821SOL    HW1 2462   0.323   2.761   1.651  1.2553 -0.2988  1.7311
  821SOL    HW2 2463   0.363   2.628   1.553 -0.2596 -1.0952 -1.9814
  822SOL     OW 2464   2.702   2.725   2.605 -0.7598 -0.3171  0.3554
  822SOL    HW1 2465   2.745   2.818   2.607  0.1640 -0.5694  0.1899
  822SOL    HW2 2466   2.609   2.724   2.566 -0.2020  0.4397 -0.1702
  823SOL     OW 2467   1.561   0.119   2.414  0.4905  0.2500  0.1756
  823SOL    HW1 2468   1.487   0.050   2.432 -0.4719 -0.9558  1.6211
  823SOL    HW2 2469   1.566   0.185   2.488 -0.7548 -1.5025 -1.0509
  824SOL     OW 2470   2.431   1.858   1.146 -0.4177  0.1436  0.2471
  824SOL    HW1 2471   2.498   1.936   1.144 -4.6999  1.8118  0.3796
  824SOL    HW2 2472   2.466   1.774   1.102  2.3336  0.1628 -1.7274
  825SOL     OW 2473   2.812   2.116   2.471  0.0880  0.1019 -0.0679
  825SOL    HW1 2474   2.847   2.142   2.379 -2.7527 -1.6523 -1.1601
  825SOL    HW2 2475   2.888   2.091   2.531  0.1818  1.7790  0.7849
  826SOL     OW 2476   2.816   1.256   2.282 -0.2382  0.2464 -0.1782
  826SOL    HW1 2477   2.783   1.261   2.376  2.6229 -0.5289  1.4540
  826SOL    HW2 2478   2.835   1.157   2.263  0.2759  0.2753 -1.5594
  827SOL     OW 2479   2.542   2.543   1.702  0.2789  0.3536 -0.9289
  827SOL    HW1 2480   2.538   2.496   1.617 -3.0076  3.7047  2.8406
  827SOL    HW2 2481   2.445   2.555   1.733 -1.6851 -0.3656  0.0427
  828SOL     OW 2482   2.994   2.872   1.637  0.3088 -0.1003 -0.1655
  828SOL    HW1 2483   3.058   2.940   1.670 -3.0432 -3.2211 -1.8596
  828SOL    HW2 2484   3.025   2.850   1.538  0.4166 -1.0603 -1.4406
  829SOL     OW 2485   1.633   2.115   2.286 -0.4913 -0.2675 -0.5988
  829SOL    HW1 2486   1.563   2.174   2.242 -1.1010 -1.4126  1.1577
  829SOL    HW2 2487   1.654   2.136   2.385 -2.4956  1.3110  2.3699
  830SOL     OW 2488   1.755   0.519   0.729 -0.0112 -0.2307  0.4879
  830SOL    HW1 2489   1.809   0.524   0.814  1.6431  0.6379 -0.2807
  830SOL    HW2 2490   1.807   0.525   0.641  1.5655  0.7393 -0.2050
  831SOL     OW 2491   2.889   1.439   0.834 -0.2497  0.3958  0.1675
  831SOL    HW1 2492   2.968   1.397   0.889  0.6140  0.7443  2.5236
  831SOL    HW2 2493   2.886   1.396   0.741  0.1542  0.4591  0.4139
  832SOL     OW 2494   1.616   2.568   2.046  0.0493  0.0817 -0.3140
  832SOL    HW1 2495   1.530   2.591   1.998  0.8134 -0.1419  2.5890
  832SOL    HW2 2496   1.662   2.490   1.998  0.3224 -1.0141  0.9179
  833SOL     OW 2497   2.957   2.950   2.290 -0.2710 -0.0252 -0.1245
  833SOL    HW1 2498   2.904   2.907   2.215  0.2298 -2.2307  1.1580
  833SOL    HW2 2499   2.914   3.042   2.311 -1.7241  0.0788 -1.2504
  834SOL     OW 2500   1.116   0.863   1.217 -0.4795 -0.5786  0.2881
  834SOL    HW1 2501   1.149   0.946   1.170  0.4079 -1.7329  0.0739
  834SOL    HW2 2502   1.089   0.793   1.148  0.1988  1.9036  1.4563
  835SOL     OW 2503   0.073   0.568   2.787 -0.7063  0.0625  0.0688
  835SOL    HW1 2504   3.060   0.554   2.776  1.7511 -0.1909  1.5947
  835SOL    HW2 2505   0.095   0.573   2.887  0.9376  0.2967  0.5890
  836SOL     OW 2506   1.133   2.297   1.064  0.2808 -0.1390  0.1170
  836SOL    HW1 2507   1.036   2.309   1.086  1.4031 -0.7395 -0.8695
  836SOL    HW2 2508   1.187   2.361   1.117 -0.3836 -1.6057 -0.3738
  837SOL     OW 2509   2.164   0.809   1.239 -0.0650  0.2850  0.0604
  837SOL    HW1 2510   2.192   0.900   1.251  0.0277 -1.0276 -0.7581
  837SOL    HW2 2511   2.096   0.778   1.304  3.6627  0.9891 -2.4186
  838SOL     OW 2512   1.521   1.558   2.645 -0.0566 -0.1076 -0.6375
  838SOL    HW1 2513   1.497   1.574   2.742  1.2408  2.4116 -1.9317
  838SOL    HW2 2514   1.460   1.606   2.579  0.3594 -1.4586  0.3775
  839SOL     OW 2515   0.470   2.106   2.850  0.4169 -0.6514  0.4408
  839SOL    HW1 2516   0.418   2.030   2.888 -1.2160  2.7686  1.9816
  839SOL    HW2 2517   0.562   2.117   2.886 -1.5170  1.1579 -1.4726
  840SOL     OW 2518   0.395   2.477   2.929  0.3289  0.0916 -0.4068
  840SOL    HW1 2519   0.384   2.537   3.010 -0.6071 -1.3493 -1.0176
  840SOL    HW2 2520   0.342   2.511   2.846 -3.8124  2.7403  0.3693
  841SOL     OW 2521   1.906   1.890   0.120  0.6128  0.0266 -0.0915
  841SOL    HW1 2522   1.985   1.900   0.064  0.0732 -0.5660  2.9432
  841SOL    HW2 2523   1.881   1.984   0.146 -0.4156 -1.3396  0.3227
  842SOL     OW 2524   1.532   1.029   2.598 -0.5768  0.0405 -0.0619
  842SOL    HW1 2525   1.558   0.937   2.622  3.8283 -0.6341 -1.7449
  842SOL    HW2 2526   1.447   1.025   2.546  1.6010 -0.7940  1.9184
  843SOL     OW 2527   1.517   2.719   0.577  0.5944 -0.1997 -0.1813
  843SOL    HW1 2528   1.604   2.668   0.585 -1.4631 -1.1715 -1.3241
  843SOL    HW2 2529   1.536   2.811   0.541 -1.4883 -2.1534  1.7753
  844SOL     OW 2530   2.319   2.880   2.701 -0.4297 -0.1877  0.3985
  844SOL    HW1 2531   2.296   2.794   2.754  2.3389  0.6665 -3.6919
  844SOL    HW2 2532   2.381   2.932   2.759  2.4460 -1.1954 -0.8085
  845SOL     OW 2533   0.022   2.870   1.389 -0.5980  0.2575 -0.9658
  845SOL    HW1 2534   0.094   2.879   1.318  1.2815  2.1968  0.8205
  845SOL    HW2 2535   3.023   2.920   1.364  1.3005 -0.4903  2.0024
  846SOL     OW 2536   0.329   2.138   2.249 -0.0537  0.8765  0.4024
  846SOL    HW1 2537   0.255   2.111   2.183 -1.2634 -1.1597 -1.1166
  846SOL    HW2 2538   0.291   2.172   2.336 -2.2008 -0.5991  0.1105
  847SOL     OW 2539   1.608   0.185   1.604 -0.3326 -0.5522 -0.3664
  847SOL    HW1 2540   1.622   0.282   1.638  1.0463  0.4965  0.4466
  847SOL    HW2 2541   1.699   0.136   1.600 -0.3977  1.0164 -0.9770
  848SOL     OW 2542   2.975   0.593   0.200  0.2333 -0.6102 -0.0833
  848SOL    HW1 2543   3.063   0.542   0.203 -0.3475  0.5126 -0.2672
  848SOL    HW2 2544   2.898   0.539   0.164 -1.1790 -0.7338  2.6159
  849SOL     OW 2545   0.656   0.620   0.097 -0.1759  0.0417  0.6784
  849SOL    HW1 2546   0.597   0.675   0.159 -1.6123  0.9764  0.4714
  849SOL    HW2 2547   0.628   0.522   0.090 -0.4259  0.3015 -0.7126
  850SOL     OW 2548   0.388   2.736   1.104 -0.2002 -0.3943  0.7305
  850SOL    HW1 2549   0.289   2.725   1.097  3.6584  0.3065 -0.1607
  850SOL    HW2 2550   0.417   2.832   1.099 -1.5330  2.0126  0.9998
  851SOL     OW 2551   2.011   0.176   2.256 -0.1284 -0.5634  0.0128
  851SOL    HW1 2552   1.939   0.247   2.265 -0.5395 -1.6935 -0.4432
  851SOL    HW2 2553   2.093   0.209   2.310  1.6994  4.9664 -2.9663
  852SOL     OW 2554   1.534   1.546   2.349  0.2650  0.5263 -0.3564
  852SOL    HW1 2555   1.534   1.466   2.416 -0.1665  0.6286  0.8819
  852SOL    HW2 2556   1.449   1.536   2.293  0.3914  0.6451 -0.1287
  853SOL     OW 2557   0.152   2.820   0.522 -0.4732  0.1932  0.3423
  853SOL    HW1 2558   0.117   2.728   0.502  0.5367  0.7209  0.4710
  853SOL    HW2 2559   0.229   2.813   0.585 -3.9601 -0.9945 -0.7599
  854SOL     OW 2560   2.475   3.081   0.835  0.7265 -0.6971  0.0483
  854SOL    HW1 2561   2.384   0.038   0.865 -1.3162 -0.7062  1.4006
  854SOL    HW2 2562   2.499   0.022   0.741  1.6552 -2.0019  5.0675
  855SOL     OW 2563   1.304   2.061   0.609  0.3101  0.3853 -0.7399
  855SOL    HW1 2564   1.227   2.028   0.556  1.2653  2.8227 -1.6923
  855SOL    HW2 2565   1.273   2.113   0.693 -2.4725  0.6377  1.0253
  856SOL     OW 2566   2.706   0.264   0.278  0.1298 -0.4226  0.2344
  856SOL    HW1 2567   2.673   0.170   0.283  1.3310  2.0490  1.0782
  856SOL    HW2 2568   2.633   0.332   0.282 -1.0862  0.6998 -0.0587
  857SOL     OW 2569   1.765   2.620   1.657 -0.6963 -0.6611 -0.2784
  857SOL    HW1 2570   1.797   2.688   1.728 -0.1394 -0.0824  1.5338
  857SOL    HW2 2571   1.840   2.554   1.635  0.0359  1.7598 -4.0566
  858SOL     OW 2572   2.578   2.467   1.449 -0.1522  0.7651  0.6977
  858SOL    HW1 2573   2.632   2.507   1.369  1.2060  1.0988 -3.2601
  858SOL    HW2 2574   2.507   2.404   1.405  2.1289 -1.9041 -1.1716
  859SOL     OW 2575   1.099   2.446   0.689  0.3887  0.2254 -0.1951
  859SOL    HW1 2576   1.025   2.496   0.738 -0.8060 -2.0812 -0.4002
  859SOL    HW2 2577   1.190   2.495   0.687  1.2744  2.7920 -1.9603
  860SOL     OW 2578   2.164   2.361   0.148  0.0864  0.7684  0.2228
  860SOL    HW1 2579   2.230   2.321   0.212  1.0625  0.1326 -3.7526
  860SOL    HW2 2580   2.211   2.389   0.064  1.2131  0.3778  0.6187
  861SOL     OW 2581   2.126   2.652   1.158  0.1014 -0.0083 -0.0235
  861SOL    HW1 2582   2.144   2.703   1.072 -1.7225  2.0760  0.1938
  861SOL    HW2 2583   2.206   2.658   1.222  1.2390  0.6775 -2.0282
  862SOL     OW 2584   1.769   2.950   2.601  0.3539 -0.0062  0.1811
  862SOL    HW1 2585   1.793   3.012   2.524  1.1843  2.7713 -1.1043
  862SOL    HW2 2586   1.706   2.989   2.668  3.2649  1.6222  0.7901
  863SOL     OW 2587   0.702   3.001   0.226 -0.4944  0.0769  0.6982
  863SOL    HW1 2588   0.693   3.032   0.320 -2.3225 -0.5366  1.6931
  863SOL    HW2 2589   0.776   2.933   0.224  0.5788 -1.7492 -0.3849
  864SOL     OW 2590   2.798   2.471   1.839 -0.0595  0.0718 -0.4974
  864SOL    HW1 2591   2.874   2.534   1.805  1.0982  1.7092 -0.9196
  864SOL    HW2 2592   2.717   2.469   1.781 -1.2935 -1.5473  1.7434
  865SOL     OW 2593   2.974   2.192   2.918  0.0365  0.0603 -0.4736
  865SOL    HW1 2594   3.053   2.152   2.970  1.7134  1.7104 -0.7031
  865SOL    HW2 2595   2.915   2.239   2.986  1.6965 -0.2941 -2.3140
  866SOL     OW 2596   2.609   0.291   2.662  0.6894 -0.7681 -0.3899
  866SOL    HW1 2597   2.594   0.274   2.566  1.4546  2.2744  1.3594
  866SOL    HW2 2598   2.529   0.341   2.703 -1.9118 -0.7961 -1.1198
  867SOL     OW 2599   2.791   0.119   2.327 -0.0747 -0.1265  0.2641
  867SOL    HW1 2600   2.697   0.138   2.297  0.3723  1.1770  0.0038
  867SOL    HW2 2601   2.802   0.138   2.425  1.2832  1.5048 -0.1962
  868SOL     OW 2602   0.944   2.599   0.859 -0.5342  0.1176 -0.1030
  868SOL    HW1 2603   0.918   2.585   0.957  0.0316  0.2657 -1.9674
  868SOL    HW2 2604   0.968   2.695   0.829 -0.1843  0.8532 -2.3463
  869SOL     OW 2605   1.263   1.340   1.066  0.2232  0.4238 -0.0600
  869SOL    HW1 2606   1.249   1.439   1.048  2.1192  1.1394 -2.4445
  869SOL    HW2 2607   1.362   1.330   1.093  1.3173  0.7550  3.1712
  870SOL     OW 2608   1.795   1.775   1.396  0.1703 -0.4367  0.4527
  870SOL    HW1 2609   1.883   1.738   1.430  0.3603  2.4235  1.1176
  870SOL    HW2 2610   1.813   1.864   1.355 -1.4754 -0.1863  0.2546
  871SOL     OW 2611   0.914   1.493   1.106  0.1209 -0.2984 -0.2396
  871SOL    HW1 2612   0.941   1.438   1.026 -1.2262  0.7913  1.5608
  871SOL    HW2 2613   0.818   1.524   1.090 -0.3187 -0.8675  2.8516
  872SOL     OW 2614   1.260   0.701   1.020  0.4055 -0.4275 -0.5121
  872SOL    HW1 2615   1.247   0.767   0.946  1.0512  0.5450  0.6883
  872SOL    HW2 2616   1.347   0.714   1.070  0.8321 -2.3230 -2.1880
  873SOL     OW 2617   1.609   0.761   2.714 -0.3705  0.5153 -0.7049
  873SOL    HW1 2618   1.614   0.722   2.809 -0.6994 -3.1426 -2.1830
  873SOL    HW2 2619   1.694   0.820   2.703  1.0126 -2.4406 -0.9444
  874SOL     OW 2620   0.502   1.302   1.152  0.6123 -0.4592  0.4488
  874SOL    HW1 2621   0.482   1.322   1.251  0.7884  0.4313 -2.1988
  874SOL    HW2 2622   0.420   1.326   1.094  0.9576 -1.0557 -0.5947
  875SOL     OW 2623   2.713   2.860   2.896  0.5019 -0.3427  0.4039
  875SOL    HW1 2624   2.700   2.766   2.863 -1.4535  0.9071  0.6775
  875SOL    HW2 2625   2.739   2.925   2.824 -0.3247 -0.5090  1.0664
  876SOL     OW 2626   0.903   0.494   3.030  0.0095 -0.0954  0.2551
  876SOL    HW1 2627   0.890   0.546   0.031 -1.8274 -3.0895  0.8423
  876SOL    HW2 2628   0.999   0.508   3.000 -1.2515 -0.3550  1.5674
  877SOL     OW 2629   0.100   3.047   1.718 -0.1073  0.2445 -0.1111
  877SOL    HW1 2630   0.077   3.079   1.812  3.2386  1.6539 -0.6908
  877SOL    HW2 2631   0.129   0.034   1.651  0.6597 -0.3140 -1.2250
  878SOL     OW 2632   1.720   2.188   2.548 -0.2573  0.1925 -0.2561
  878SOL    HW1 2633   1.681   2.279   2.573 -0.0016 -0.5001 -0.9254
  878SOL    HW2 2634   1.820   2.186   2.535 -0.9481  0.1858 -0.1388
  879SOL     OW 2635   2.086   1.567   1.988  0.5270  0.0956 -0.1670
  879SOL    HW1 2636   2.095   1.625   2.070 -0.6888 -1.1160 -1.1310
  879SOL    HW2 2637   2.175   1.560   1.940  0.0122 -1.0753 -0.8214
  880SOL     OW 2638   0.773   0.931   1.021  0.1465  0.5123 -0.0644
  880SOL    HW1 2639   0.805   0.956   1.118  0.2945 -0.6416  2.2842
  880SOL    HW2 2640   0.780   0.828   1.014  0.3224 -0.6152  0.5690
  881SOL     OW 2641   1.413   1.649   0.096  0.4693  0.0539 -0.1579
  881SOL    HW1 2642   1.370   1.720   0.159 -1.5025  2.3457  3.3981
  881SOL    HW2 2643   1.448   1.567   0.145 -1.5730  0.1634  2.7568
  882SOL     OW 2644   1.807   0.085   1.225 -0.4951  0.0476  0.2264
  882SOL    HW1 2645   1.784   0.178   1.262 -0.4705  1.1165 -0.3487
  882SOL    HW2 2646   1.879   0.093   1.154  0.5376  1.5420  1.5166
  883SOL     OW 2647   1.867   0.687   2.039  0.4108 -0.0016  0.2570
  883SOL    HW1 2648   1.775   0.640   2.050  0.3618  1.3564  1.5896
  883SOL    HW2 2649   1.940   0.620   2.023 -1.1910  1.5710  2.1735
  884SOL     OW 2650   2.739   0.548   2.960  0.8371 -0.0382  0.5067
  884SOL    HW1 2651   2.758   0.539   2.855 -0.0924  0.9978 -4.1984
  884SOL    HW2 2652   2.791   0.495   3.024  0.7559  0.6954 -0.7709
  885SOL     OW 2653   1.139   2.199   0.799  0.5928 -0.5999  0.3366
  885SOL    HW1 2654   1.110   2.288   0.766  0.0159 -2.5835  1.8697
  885SOL    HW2 2655   1.156   2.209   0.900  0.7067 -0.1814 -0.4526
  886SOL     OW 2656   1.210   1.095   2.710 -0.2444  0.5493 -0.0566
  886SOL    HW1 2657   1.299   1.118   2.759  0.9187 -0.9223  2.3855
  886SOL    HW2 2658   1.133   1.151   2.739  2.6268  0.7658  0.0574
  887SOL     OW 2659   1.820   3.080   1.598 -0.1250  0.4872 -0.0175
  887SOL    HW1 2660   1.816   0.002   1.703  0.2378  0.2138  0.0184
  887SOL    HW2 2661   1.761   3.007   1.561  0.6410 -0.7776  0.5618
  888SOL     OW 2662   2.638   1.684   1.650  0.4047 -0.6170  0.2656
  888SOL    HW1 2663   2.714   1.738   1.607 -1.0298 -2.0027 -1.4824
  888SOL    HW2 2664   2.561   1.654   1.587  0.3464  1.1483 -1.1566
  889SOL     OW 2665   2.981   2.497   0.721  0.6302  0.0374 -0.2021
  889SOL    HW1 2666   3.006   2.433   0.647  0.5003 -0.0563 -0.2661
  889SOL    HW2 2667   2.907   2.460   0.779 -1.2868 -2.5798  0.2628
  890SOL     OW 2668   0.544   1.977   2.301 -0.3738  0.0505  0.0750
  890SOL    HW1 2669   0.619   1.997   2.229  0.9346 -0.5812 -1.2607
  890SOL    HW2 2670   0.459   2.029   2.277  1.0982 -2.3582  0.0872
  891SOL     OW 2671   0.491   1.718   0.577  0.2800 -0.0308 -0.1632
  891SOL    HW1 2672   0.575   1.767   0.606 -0.9470 -0.2277 -1.4364
  891SOL    HW2 2673   0.429   1.775   0.524  1.1801 -1.8297  0.2536
  892SOL     OW 2674   2.902   2.367   1.259  0.2006 -0.2492 -0.1349
  892SOL    HW1 2675   2.927   2.392   1.355 -2.0241  0.3287  2.3554
  892SOL    HW2 2676   2.914   2.267   1.248 -3.6428  0.9306  0.0921
  893SOL     OW 2677   0.277   0.425   1.707 -0.2929  0.5016 -0.0438
  893SOL    HW1 2678   0.301   0.378   1.620 -0.9691 -0.3056  1.9447
  893SOL    HW2 2679   0.343   0.504   1.732  0.1650  2.5109  1.0868
  894SOL     OW 2680   2.864   1.774   0.764 -0.6210  0.2920  0.3193
  894SOL    HW1 2681   2.845   1.762   0.667  3.4146  1.8278  1.8888
  894SOL    HW2 2682   2.852   1.683   0.813 -0.3868 -3.8392  0.8445
  895SOL     OW 2683   1.351   2.368   1.632  0.0255  0.0038 -0.6545
  895SOL    HW1 2684   1.281   2.373   1.704 -1.8851 -0.1208  0.0863
  895SOL    HW2 2685   1.357   2.281   1.581 -0.8485  1.8100 -1.2309
  896SOL     OW 2686   0.785   0.279   1.292  1.0253  0.1866 -0.1380
  896SOL    HW1 2687   0.718   0.305   1.364  2.0589 -0.5701  0.8556
  896SOL    HW2 2688   0.874   0.282   1.338 -2.6392  1.2430 -0.6313
  897SOL     OW 2689   1.171   1.086   1.037  0.2513  0.4668  0.1446
  897SOL    HW1 2690   1.187   1.185   1.042 -1.6598 -1.1788 -1.3142
  897SOL    HW2 2691   1.261   1.043   1.060  1.6826  4.0992  0.3819
  898SOL     OW 2692   0.815   0.278   1.716  0.5587  0.2844 -0.5985
  898SOL    HW1 2693   0.814   0.375   1.746 -2.5049 -1.6122 -1.3285
  898SOL    HW2 2694   0.902   0.231   1.741  0.5800 -1.6020 -1.6157
  899SOL     OW 2695   1.595   0.316   0.269 -0.2970  0.0597 -0.3606
  899SOL    HW1 2696   1.642   0.330   0.177  0.1325  1.6400 -2.1417
  899SOL    HW2 2697   1.526   0.393   0.287 -0.0078  2.1387  2.3807
  900SOL     OW 2698   0.953   0.698   2.330  0.9835 -0.3613  0.3226
  900SOL    HW1 2699   0.986   0.789   2.298 -0.4463 -2.1906  1.3665
  900SOL    HW2 2700   0.895   0.655   2.261  2.2158  1.6087 -0.3457
  901SOL     OW 2701   0.733   1.998   0.233  0.0730  0.0041  0.2707
  901SOL    HW1 2702   0.749   1.895   0.222  1.7468 -0.6439  1.7603
  901SOL    HW2 2703   0.639   2.014   0.195 -0.9561 -3.1863  1.9875
  902SOL     OW 2704   1.939   0.304   0.962  0.2305  0.0401 -0.4494
  902SOL    HW1 2705   1.941   0.299   0.860 -0.0223 -3.1847 -2.3826
  902SOL    HW2 2706   1.960   0.208   0.998  0.8489 -1.0615  0.8998
  903SOL     OW 2707   0.005   1.524   2.493  0.2842  0.1072  0.1473
  903SOL    HW1 2708   3.039   1.609   2.514  0.5832 -2.2052  1.1767
  903SOL    HW2 2709   3.069   1.489   2.400  0.5034  0.1507  0.3678
  904SOL     OW 2710   1.707   1.335   0.501  0.1282  0.7464 -0.3182
  904SOL    HW1 2711   1.661   1.419   0.463 -0.6384  0.6832  2.4097
  904SOL    HW2 2712   1.645   1.281   0.561  0.4106 -0.9703 -0.4725
  905SOL     OW 2713   1.890   2.659   1.282  0.2934  0.2614  1.2833
  905SOL    HW1 2714   1.838   2.750   1.271 -0.8598  0.4221 -0.9753
  905SOL    HW2 2715   1.972   2.665   1.222 -1.5296 -2.2197 -1.9524
  906SOL     OW 2716   2.140   2.750   0.892 -0.0136 -0.0366  0.6189
  906SOL    HW1 2717   2.070   2.823   0.912 -1.8135  0.5183 -0.3590
  906SOL    HW2 2718   2.230   2.796   0.887 -0.9386 -0.7018  1.7911
  907SOL     OW 2719   1.989   1.030   0.338  0.2921 -0.3543 -0.9946
  907SOL    HW1 2720   2.008   0.954   0.270 -0.6425 -3.8230  0.9338
  907SOL    HW2 2721   2.066   1.051   0.397  0.0672 -1.8482 -2.1529
  908SOL     OW 2722   1.795   0.336   1.363 -0.3609  0.1939 -0.0009
  908SOL    HW1 2723   1.888   0.377   1.342  3.2420 -2.6452  0.5169
  908SOL    HW2 2724   1.723   0.401   1.345 -0.8911 -3.5036  0.2229
  909SOL     OW 2725   2.410   2.855   0.933  0.2169 -0.0834 -0.7214
  909SOL    HW1 2726   2.438   2.932   0.875 -0.2364 -0.1711 -1.6844
  909SOL    HW2 2727   2.439   2.869   1.032 -1.4239 -1.3380  1.2787
  910SOL     OW 2728   2.358   0.708   1.949 -0.0211  0.1793  0.4539
  910SOL    HW1 2729   2.288   0.692   2.020  3.6766  1.3849  0.1326
  910SOL    HW2 2730   2.447   0.717   1.994 -2.7346 -0.4586 -0.4646
  911SOL     OW 2731   2.128   0.177   2.601  0.2710 -0.6061  0.5034
  911SOL    HW1 2732   2.115   0.227   2.689  0.1756 -0.2933 -0.3702
  911SOL    HW2 2733   2.094   0.083   2.610  0.0911  3.8895  0.1415
  912SOL     OW 2734   0.581   0.954   1.291  0.4723  0.3019  0.1139
  912SOL    HW1 2735   0.684   0.956   1.284  0.1986 -3.0273 -0.0946
  912SOL    HW2 2736   0.552   0.859   1.263  1.8543 -1.8667 -2.2408
  913SOL     OW 2737   2.682   2.523   1.192 -0.0862  0.3342 -0.3184
  913SOL    HW1 2738   2.705   2.595   1.127 -3.3729 -0.7709 -2.2737
  913SOL    HW2 2739   2.767   2.468   1.203  0.6897 -0.5466  2.1261
  914SOL     OW 2740   1.458   0.733   1.188  0.5262 -0.1004 -0.4250
  914SOL    HW1 2741   1.462   0.714   1.285  3.6272  0.2956 -3.6445
  914SOL    HW2 2742   1.508   0.654   1.144 -0.1382 -1.6219 -1.5371
  915SOL     OW 2743   0.271   1.588   1.280  0.1028 -0.5255 -0.1300
  915SOL    HW1 2744   0.282   1.629   1.187 -0.4572  1.6009  0.7476
  915SOL    HW2 2745   0.293   1.665   1.352 -0.3640  3.0079  1.0710
  916SOL     OW 2746   1.899   2.366   0.886  0.1436 -0.1249  0.0944
  916SOL    HW1 2747   1.974   2.356   0.952  0.3925 -0.1578  2.0432
  916SOL    HW2 2748   1.817   2.399   0.928 -0.2374  0.7229 -0.9638
  917SOL     OW 2749   1.798   2.595   2.246  0.6500 -0.0871  0.1228
  917SOL    HW1 2750   1.879   2.571   2.192 -0.4536 -1.1173  1.3912
  917SOL    HW2 2751   1.718   2.608   2.185 -0.3315  0.2460  2.3247
  918SOL     OW 2752   1.853   1.746   2.423  0.2923  0.4149 -0.4972
  918SOL    HW1 2753   1.916   1.818   2.401 -3.0535 -1.2544 -3.9711
  918SOL    HW2 2754   1.760   1.788   2.427  0.6841  0.1532 -0.0232
  919SOL     OW 2755   0.950   0.330   1.065 -0.0322  0.4987 -0.0501
  919SOL    HW1 2756   0.884   0.328   1.140  1.5394 -1.8880 -1.4814
  919SOL    HW2 2757   1.001   0.414   1.063 -1.3842 -2.0000  0.5804
  920SOL     OW 2758   2.863   0.670   1.978 -0.0345  0.1406 -0.1354
  920SOL    HW1 2759   2.926   0.665   1.896  2.4722 -3.1457  0.1895
  920SOL    HW2 2760   2.923   0.699   2.056 -1.2422 -3.0174  0.8021
  921SOL     OW 2761   2.743   1.202   1.547  0.1167  0.4458 -0.0483
  921SOL    HW1 2762   2.757   1.142   1.467  2.3725 -0.3885 -0.8474
  921SOL    HW2 2763   2.682   1.152   1.610 -1.4483  2.1620 -1.0830
  922SOL     OW 2764   2.683   2.256   0.814 -0.5739  0.3331  0.1041
  922SOL    HW1 2765   2.640   2.290   0.896 -1.3309 -0.9337 -1.5905
  922SOL    HW2 2766   2.650   2.302   0.735 -1.1719 -1.8098  0.5104
  923SOL     OW 2767   0.213   2.298   0.579  0.1338 -0.2468 -1.0174
  923SOL    HW1 2768   0.274   2.217   0.556 -0.8052  0.3608 -2.5106
  923SOL    HW2 2769   0.271   2.378   0.594 -0.6852 -2.3968 -0.8874
  924SOL     OW 2770   1.027   1.331   3.028 -0.0345  0.6210 -0.7903
  924SOL    HW1 2771   1.082   1.411   3.064 -0.2857  2.9518  0.0556
  924SOL    HW2 2772   0.940   1.321   3.077 -0.1938 -0.3356 -0.0646
  925SOL     OW 2773   0.046   1.165   0.856 -0.2098  0.1807 -0.2203
  925SOL    HW1 2774   0.044   1.205   0.951 -0.3249 -2.1703  0.0733
  925SOL    HW2 2775   3.060   1.091   0.839  0.2575  2.5069  0.0823
  926SOL     OW 2776   0.110   0.035   1.186  0.6770 -0.2557 -0.7654
  926SOL    HW1 2777   0.195   0.080   1.211  0.1774 -0.9635 -0.1522
  926SOL    HW2 2778   0.105   0.009   1.087  0.8368 -1.4594  0.3436
  927SOL     OW 2779   0.424   1.781   2.540  0.1507  0.1823 -0.5307
  927SOL    HW1 2780   0.382   1.704   2.493  0.4701  2.3643  0.1069
  927SOL    HW2 2781   0.450   1.849   2.476 -1.6547 -0.4686  0.6714
  928SOL     OW 2782   0.319   0.586   2.348 -0.3388  0.0253 -0.1130
  928SOL    HW1 2783   0.362   0.521   2.404  0.0642  1.4918 -4.2510
  928SOL    HW2 2784   0.236   0.623   2.401  0.5460 -0.7539  1.4636
  929SOL     OW 2785   2.601   2.060   1.043 -0.5309  0.4315  0.1245
  929SOL    HW1 2786   2.592   2.163   1.036  1.9282  4.8160  1.5954
  929SOL    HW2 2787   2.559   2.016   0.960 -1.8326  0.4150  0.7107
  930SOL     OW 2788   1.807   0.342   2.293  0.1266  0.0794 -0.4811
  930SOL    HW1 2789   1.717   0.338   2.241 -0.6009  2.0690  2.8152
  930SOL    HW2 2790   1.807   0.410   2.372  1.6991  0.3251  0.7506
  931SOL     OW 2791   2.390   0.958   2.619  0.0099  0.1253 -0.4117
  931SOL    HW1 2792   2.323   0.959   2.545 -2.9275 -1.5919 -1.6108
  931SOL    HW2 2793   2.464   1.028   2.617  2.2947 -0.1900  0.3067
  932SOL     OW 2794   1.902   0.846   0.554  0.2792 -0.3132  0.0184
  932SOL    HW1 2795   1.961   0.907   0.494  1.1042  0.7206  0.9273
  932SOL    HW2 2796   1.852   0.772   0.503  2.4628  0.1650  0.6069
  933SOL     OW 2797   2.245   0.794   0.720  0.1276  0.5698 -0.1693
  933SOL    HW1 2798   2.179   0.738   0.677  0.9149  3.2181  1.1624
  933SOL    HW2 2799   2.206   0.889   0.728 -1.4109  1.5895  0.6641
  934SOL     OW 2800   2.531   1.208   2.570 -0.5735  0.1404 -0.5355
  934SOL    HW1 2801   2.621   1.252   2.551 -0.5323  0.7953  1.1718
  934SOL    HW2 2802   2.460   1.241   2.510  2.1676 -1.4965  0.7180
  935SOL     OW 2803   3.056   1.312   1.079 -0.1464  1.0621  0.2633
  935SOL    HW1 2804   3.013   1.408   1.093 -1.4397  1.8270  0.1611
  935SOL    HW2 2805   3.043   1.257   1.164  0.5498  1.4054  1.0523
  936SOL     OW 2806   0.099   2.930   0.058 -0.2831  0.3592  0.0296
  936SOL    HW1 2807   0.140   2.907   0.149  3.1734 -2.7805 -1.2705
  936SOL    HW2 2808   0.167   2.990   0.011  0.9278 -0.1732  1.9070
  937SOL     OW 2809   3.046   2.368   1.891 -0.1832  0.3499 -0.1382
  937SOL    HW1 2810   2.939   2.366   1.894 -1.8421 -0.3543  0.8046
  937SOL    HW2 2811   3.081   2.315   1.810  1.0888  1.6890  2.9521
  938SOL     OW 2812   2.338   2.358   3.005  0.6363 -0.5506  0.9690
  938SOL    HW1 2813   2.403   2.413   2.948  1.8533 -0.0657 -0.0554
  938SOL    HW2 2814   2.287   2.295   2.943  0.3484  3.3138 -0.0388
  939SOL     OW 2815   0.972   0.557   1.373  0.3505 -0.3740 -0.2300
  939SOL    HW1 2816   0.998   0.623   1.450 -0.2278  2.5373 -0.6251
  939SOL    HW2 2817   0.876   0.533   1.371  0.7602  0.9992  0.3251
  940SOL     OW 2818   2.217   2.935   3.025  0.0391 -0.1358 -0.2654
  940SOL    HW1 2819   2.123   2.974   3.013 -0.0996  0.8037  0.5363
  940SOL    HW2 2820   2.224   2.849   2.973  1.5762  2.0845  2.5158
  941SOL     OW 2821   2.568   2.741   2.205 -0.3192  0.1555 -0.2303
  941SOL    HW1 2822   2.474   2.779   2.188 -1.1341 -2.9112 -1.9267
  941SOL    HW2 2823   2.567   2.645   2.248 -0.3104  0.0174  0.1808
  942SOL     OW 2824   1.555   0.054   1.322 -0.1625 -0.6266  0.1627
  942SOL    HW1 2825   1.494   0.048   1.404  0.2727  1.3231  2.5767
  942SOL    HW2 2826   1.648   0.096   1.340  0.8094  2.1583 -0.2333
  943SOL     OW 2827   1.102   1.523   2.334 -0.0863 -0.2049  0.1382
  943SOL    HW1 2828   1.099   1.436   2.388  0.6718  0.1675  0.2222
  943SOL    HW2 2829   1.016   1.574   2.321  0.6807 -2.5927  0.4260
  944SOL     OW 2830   2.920   0.845   1.337  0.1647  0.5785 -0.4295
  944SOL    HW1 2831   2.978   0.853   1.255  2.0389  0.3465  3.2462
  944SOL    HW2 2832   2.880   0.751   1.343  0.7924 -1.6626  0.6967
  945SOL     OW 2833   2.852   0.163   2.625 -0.2218  0.4209 -0.1702
  945SOL    HW1 2834   2.786   0.232   2.649  1.5702 -1.5504 -1.2299
  945SOL    HW2 2835   2.907   0.137   2.706 -0.6093  2.6694  0.7647
  946SOL     OW 2836   0.046   1.500   1.388  0.2310 -0.6724  0.4507
  946SOL    HW1 2837   0.133   1.529   1.341  0.2455 -0.0776  1.5444
  946SOL    HW2 2838   0.033   1.400   1.390 -0.9809  3.9072  2.6243
  947SOL     OW 2839   0.432   0.357   2.911  0.1332  0.2569 -0.0700
  947SOL    HW1 2840   0.511   0.408   2.882  0.2691 -2.2165 -0.6028
  947SOL    HW2 2841   0.374   0.340   2.832 -1.0756 -0.0195  0.9371
  948SOL     OW 2842   2.109   1.683   1.123  0.5980  0.3802  0.2926
  948SOL    HW1 2843   2.086   1.692   1.222 -2.4239  0.5350  4.0187
  948SOL    HW2 2844   2.173   1.607   1.107 -1.7313 -1.5678  0.0944
  949SOL     OW 2845   0.153   1.211   2.932 -0.1850  0.1902 -0.7204
  949SOL    HW1 2846   0.159   1.235   3.033  1.7265 -0.1269  2.1331
  949SOL    HW2 2847   0.131   1.110   2.919 -1.0958 -1.3536  1.9373
  950SOL     OW 2848   0.583   2.884   1.543  0.3318  0.0605  0.2628
  950SOL    HW1 2849   0.528   2.799   1.566 -1.0662  3.2832  0.7493
  950SOL    HW2 2850   0.666   2.854   1.483  0.1139  0.2117 -0.1284
  951SOL     OW 2851   0.851   2.148   2.531  0.4641 -0.0052  0.5092
  951SOL    HW1 2852   0.756   2.101   2.539 -2.8079 -0.4014 -3.1836
  951SOL    HW2 2853   0.897   2.170   2.619  1.0347 -1.2420 -0.3831
  952SOL     OW 2854   0.716   1.278   0.491 -0.0073 -0.1926  0.3740
  952SOL    HW1 2855   0.693   1.179   0.480  0.0257  1.0700  2.2876
  952SOL    HW2 2856   0.766   1.311   0.404  2.8789  0.1374 -1.3939
  953SOL     OW 2857   2.247   1.692   3.032  0.2517  0.5060  0.8723
  953SOL    HW1 2858   2.301   1.658   2.954  2.3808  2.0197 -2.9799
  953SOL    HW2 2859   2.254   1.633   0.030  0.3243  0.0765 -0.6491
  954SOL     OW 2860   1.569   0.252   0.614  0.0358  0.0224  0.3419
  954SOL    HW1 2861   1.610   0.292   0.527  1.4197  2.4683  1.7619
  954SOL    HW2 2862   1.636   0.193   0.666 -2.3275  0.8221  1.1220
  955SOL     OW 2863   1.147   1.536   0.069  0.0620 -0.5952 -0.5564
  955SOL    HW1 2864   1.113   1.523   0.161 -1.2592 -0.3459 -3.0032
  955SOL    HW2 2865   1.242   1.573   0.065 -0.0688  0.0224 -1.6376
  956SOL     OW 2866   2.813   0.364   2.013  0.0148 -0.6837  0.1655
  956SOL    HW1 2867   2.802   0.448   1.955 -1.8379  3.5168 -1.1045
  956SOL    HW2 2868   2.877   0.387   2.090  3.2062 -0.6175 -2.5940
  957SOL     OW 2869   1.841   2.033   2.149 -0.3806 -0.0916  0.4939
  957SOL    HW1 2870   1.813   1.970   2.075  2.3496  2.8782 -0.4380
  957SOL    HW2 2871   1.758   2.066   2.195  1.3785  0.0809  1.4188
  958SOL     OW 2872   1.678   1.112   1.293  0.2709 -0.4644 -0.0716
  958SOL    HW1 2873   1.746   1.161   1.347 -0.1821  2.2883 -2.0459
  958SOL    HW2 2874   1.716   1.085   1.203 -2.0825  2.4645  0.1364
  959SOL     OW 2875   1.568   2.136   1.950 -0.3233 -0.0759  0.6563
  959SOL    HW1 2876   1.572   2.051   1.898 -0.1015  1.5469 -0.2696
  959SOL    HW2 2877   1.634   2.209   1.913  2.1096 -0.7798 -3.5628
  960SOL     OW 2878   0.778   1.370   2.668  0.2047  0.8788  0.2560
  960SOL    HW1 2879   0.828   1.445   2.722  0.5257 -3.0457  1.3811
  960SOL    HW2 2880   0.722   1.415   2.600  2.0219 -0.9812  0.4684
  961SOL     OW 2881   2.920   1.258   0.150  0.3131 -0.0565  0.8029
  961SOL    HW1 2882   2.970   1.318   0.090 -5.1888  2.6033  0.0492
  961SOL    HW2 2883   2.821   1.283   0.145  0.1031  1.2713 -1.0304
  962SOL     OW 2884   1.086   1.831   0.071  0.6053  0.5446 -0.0462
  962SOL    HW1 2885   1.118   1.737   0.052 -0.1945 -0.8158 -0.6727
  962SOL    HW2 2886   1.032   1.873   3.076 -2.4487  0.8575 -2.6126
  963SOL     OW 2887   2.616   1.678   3.076 -0.1533  0.4508 -0.0093
  963SOL    HW1 2888   2.717   1.673   0.012  0.6302 -1.0784  0.4973
  963SOL    HW2 2889   2.567   1.733   0.060  0.5807  0.4359  0.0621
  964SOL     OW 2890   0.749   2.039   2.150 -0.1415 -0.3855  0.0892
  964SOL    HW1 2891   0.818   2.109   2.182  1.3093  1.5315 -0.3047
  964SOL    HW2 2892   0.787   1.968   2.084 -1.0084 -1.4374 -0.7322
  965SOL     OW 2893   1.527   1.744   1.374 -0.3056 -0.2479  0.1197
  965SOL    HW1 2894   1.622   1.781   1.391 -0.7045  2.1100  1.4908
  965SOL    HW2 2895   1.533   1.642   1.369  0.6651  0.0504 -2.3211
  966SOL     OW 2896   2.831   1.481   0.372 -0.6069 -0.0566 -0.3070
  966SOL    HW1 2897   2.921   1.526   0.351 -1.7052 -0.6473 -0.7819
  966SOL    HW2 2898   2.810   1.432   0.290  2.6834 -0.1419  2.6749
  967SOL     OW 2899   1.697   2.729   2.476 -0.1734  0.0283  0.2101
  967SOL    HW1 2900   1.722   2.819   2.502 -2.1078 -2.1750  0.6574
  967SOL    HW2 2901   1.762   2.690   2.411 -3.8758 -1.7043  1.0166
  968SOL     OW 2902   1.422   1.193   2.864 -0.2464 -0.0083  0.6440
  968SOL    HW1 2903   1.376   1.247   2.936  0.9380  1.6750 -2.6088
  968SOL    HW2 2904   1.517   1.226   2.861 -4.3364 -2.9628 -0.4905
  969SOL     OW 2905   0.024   0.917   2.470  0.2993  0.2485 -0.3842
  969SOL    HW1 2906   0.025   0.974   2.386 -0.4679 -3.0263  2.8865
  969SOL    HW2 2907   0.111   0.935   2.523  0.5285 -2.2582 -1.6972
  970SOL     OW 2908   2.548   0.034   0.247  0.5232 -0.2439 -0.3556
  970SOL    HW1 2909   2.466   3.060   0.275 -2.9669 -2.0487 -0.1019
  970SOL    HW2 2910   2.607   3.067   0.185 -0.9289  0.3786 -1.9375
  971SOL     OW 2911   2.066   2.038   0.834 -0.1070  0.3203 -0.6585
  971SOL    HW1 2912   2.066   2.127   0.877 -3.7403 -3.3591 -3.7125
  971SOL    HW2 2913   2.133   1.977   0.884  1.1700  2.1228 -0.1464
  972SOL     OW 2914   0.169   1.952   2.644  0.2272 -0.0152  0.3930
  972SOL    HW1 2915   0.251   1.923   2.591 -0.0933 -1.8170  0.0491
  972SOL    HW2 2916   0.143   1.872   2.705  0.0798 -0.7284  0.9469
  973SOL     OW 2917   0.674   0.357   0.330 -0.3198 -0.2710  0.0645
  973SOL    HW1 2918   0.665   0.365   0.226  1.7001  1.6736 -0.0640
  973SOL    HW2 2919   0.589   0.309   0.358  0.3598  2.3608  0.2709
  974SOL     OW 2920   2.174   0.761   1.634 -0.6474 -0.2447  0.0041
  974SOL    HW1 2921   2.256   0.785   1.577  0.0418  0.0851  1.2601
  974SOL    HW2 2922   2.205   0.684   1.688  0.5752  1.0906 -0.5928
  975SOL     OW 2923   0.359   3.034   0.838 -0.8609  0.0902 -0.1743
  975SOL    HW1 2924   0.360   2.935   0.807  3.1774 -2.7345  0.3403
  975SOL    HW2 2925   0.418   0.002   0.778  0.3066 -1.5430  0.0146
  976SOL     OW 2926   0.656   1.486   1.510 -0.1757 -0.4952  0.3686
  976SOL    HW1 2927   0.579   1.441   1.465  2.2442  2.9885  2.6834
  976SOL    HW2 2928   0.680   1.571   1.457 -2.0507  0.5516 -1.3922
  977SOL     OW 2929   1.415   2.069   0.290  0.2309  0.0632  0.3081
  977SOL    HW1 2930   1.496   2.010   0.264  1.3881 -1.5425  0.5100
  977SOL    HW2 2931   1.443   2.158   0.322 -3.1727  0.3748  0.1643
  978SOL     OW 2932   0.299   1.019   0.109 -0.2850  0.2576 -0.1480
  978SOL    HW1 2933   0.212   1.037   0.152  2.8203  1.9265 -0.5420
  978SOL    HW2 2934   0.371   1.071   0.154 -2.3464  0.6536 -1.9279
  979SOL     OW 2935   1.934   1.317   0.174 -0.4592  0.2576  0.1716
  979SOL    HW1 2936   1.940   1.418   0.198  2.6666 -2.6433 -0.9737
  979SOL    HW2 2937   1.955   1.256   0.255 -0.8391 -0.1486 -1.4030
  980SOL     OW 2938   0.714   1.649   1.988 -0.6489 -0.4216  0.3570
  980SOL    HW1 2939   0.659   1.600   1.915  0.4400  2.3479  0.0559
  980SOL    HW2 2940   0.650   1.697   2.054 -0.2175 -1.1815 -2.0056
  981SOL     OW 2941   2.220   1.432   2.376 -0.3295  0.4350 -0.0996
  981SOL    HW1 2942   2.297   1.492   2.411 -0.1159  1.0121  0.7211
  981SOL    HW2 2943   2.249   1.332   2.372 -0.6399 -2.2511 -1.7032
  982SOL     OW 2944   0.452   1.929   1.631 -0.0173 -0.5114 -0.1926
  982SOL    HW1 2945   0.431   2.027   1.602 -2.9470  1.4741 -0.8993
  982SOL    HW2 2946   0.502   1.933   1.718  1.0670 -0.3529 -0.6060
  983SOL     OW 2947   1.460   2.999   2.108 -0.5100  0.2586  0.1825
  983SOL    HW1 2948   1.421   2.969   2.017  1.9621 -0.5865  1.0400
  983SOL    HW2 2949   1.422   0.004   2.145 -0.8202  3.0470 -0.2305
  984SOL     OW 2950   3.042   0.034   2.820  0.3880 -0.2376  0.3280
  984SOL    HW1 2951   3.048   0.113   2.882  0.6332 -3.5893 -1.6661
  984SOL    HW2 2952   3.021   3.029   2.867  2.9564  0.5050 -2.4103
  985SOL     OW 2953   1.374   1.289   1.841  0.2849 -0.4915  0.2248
  985SOL    HW1 2954   1.427   1.303   1.754  0.1581 -2.2224 -2.4163
  985SOL    HW2 2955   1.292   1.229   1.819  2.2695  2.6398 -1.7237
  986SOL     OW 2956   1.658   0.341   0.010  0.0124 -0.2999  0.4386
  986SOL    HW1 2957   1.744   0.397   0.010 -0.1643 -1.5081 -1.4200
  986SOL    HW2 2958   1.667   0.262   3.033  1.5771  1.3188  1.4166
  987SOL     OW 2959   0.173   2.206   2.510 -0.3105  0.7597 -0.6293
  987SOL    HW1 2960   0.245   2.262   2.558  1.1462 -0.8019  2.6344
  987SOL    HW2 2961   0.145   2.119   2.567 -1.8609 -1.4474  3.5568
  988SOL     OW 2962   2.906   0.260   1.618 -0.5473  0.9280  0.4129
  988SOL    HW1 2963   3.000   0.218   1.609  0.3467  2.9644 -2.3384
  988SOL    HW2 2964   2.854   0.244   1.529  1.7034  0.5191 -2.0365
  989SOL     OW 2965   1.995   0.065   1.041  0.0034 -0.3421  0.2095
  989SOL    HW1 2966   1.985   3.071   0.974 -3.1896  0.6245 -0.6904
  989SOL    HW2 2967   2.094   0.077   1.081  0.4749 -0.7722  0.7774
  990SOL     OW 2968   2.589   0.754   0.185 -0.2329  0.0792 -0.4783
  990SOL    HW1 2969   2.546   0.749   0.088 -0.6975  0.2854 -1.1141
  990SOL    HW2 2970   2.687   0.786   0.177  3.1060 -0.3365  1.7745
  991SOL     OW 2971   0.364   1.146   0.517 -0.3998 -0.3249 -0.1390
  991SOL    HW1 2972   0.264   1.156   0.500  1.0409 -2.8532  1.8386
  991SOL    HW2 2973   0.394   1.156   0.613 -0.1521  2.0870  0.9981
  992SOL     OW 2974   1.697   1.654   1.694 -0.0339  0.3510 -0.2402
  992SOL    HW1 2975   1.601   1.678   1.702  0.7671 -4.8806 -0.4292
  992SOL    HW2 2976   1.746   1.626   1.783  0.3342  0.6045  0.2310
  993SOL     OW 2977   0.132   2.334   0.857  0.4877 -0.2059  0.0395
  993SOL    HW1 2978   0.087   2.256   0.902 -0.6904  1.7417  1.2816
  993SOL    HW2 2979   0.149   2.311   0.762 -2.2450 -1.0154  0.5854
  994SOL     OW 2980   3.070   1.759   1.362 -0.1549 -0.3398  0.5212
  994SOL    HW1 2981   3.006   1.772   1.441 -2.3496  1.2542  1.2023
  994SOL    HW2 2982   0.020   1.661   1.356  1.1829 -0.2427 -1.4750
  995SOL     OW 2983   1.981   1.495   2.757  0.1321  0.7476  0.0224
  995SOL    HW1 2984   1.896   1.488   2.696  1.4407  0.3313  1.2329
  995SOL    HW2 2985   1.995   1.590   2.786 -1.1893  0.2558 -0.8013
  996SOL     OW 2986   1.961   2.551   0.562 -0.0009  0.5492  0.3114
  996SOL    HW1 2987   1.963   2.585   0.465 -0.4151 -1.9068  0.2386
  996SOL    HW2 2988   1.949   2.448   0.568 -3.6521 -0.8615 -1.3834
  997SOL     OW 2989   1.313   1.546   1.922 -0.2552 -0.1800 -0.1655
  997SOL    HW1 2990   1.233   1.595   1.876 -2.1881  1.0968 -6.0748
  997SOL    HW2 2991   1.317   1.451   1.883 -0.7206  0.8018  0.6368
  998SOL     OW 2992   3.035   2.323   0.472  0.0766 -0.3097  0.1634
  998SOL    HW1 2993   3.038   2.291   0.374  1.0928 -0.8819  4.2598
  998SOL    HW2 2994   0.041   2.332   0.516 -0.8051 -0.2122  1.1996
  999SOL     OW 2995   0.889   2.914   3.071  0.1917 -0.7277  0.2591
  999SOL    HW1 2996   0.815   2.841   3.069 -2.8342 -1.1480 -0.7106
  999SOL    HW2 2997   0.852   2.999   3.023  0.5090  0.3885 -0.4943
 1000SOL     OW 2998   1.051   0.259   0.130  0.1835  0.0961  0.2397
 1000SOL    HW1 2999   1.125   0.231   0.067  1.5568 -0.9858  1.3822
 1000SOL    HW2 3000   0.972   0.203   0.113 -0.3148 -1.3547  1.7391
   3.08487   3.08487   3.08487
