1000 SPC/Fw water molecules t= 441.00000 step= 441000
 3000
    1SOL     OW    1   0.188   0.155   1.513 -0.4942  0.2650 -0.0091
    1SOL    HW1    2   0.213   0.155   1.410 -0.9148 -0.8791 -2.7056
    1SOL    HW2    3   0.267   0.192   1.564 -0.1617 -1.1053 -3.2405
    2SOL     OW    4   2.870   3.026   0.025  0.1313  0.1014 -0.3008
    2SOL    HW1    5   2.941   2.996   0.092  0.5950  3.4172 -0.5802
    2SOL    HW2    6   2.773   3.039   0.064  0.1460  0.1181  1.1824
    3SOL     OW    7   1.244   2.783   0.032 -0.5323  0.0421  0.2506
    3SOL    HW1    8   1.256   2.684   0.003 -2.0065 -1.5937 -0.3831
    3SOL    HW2    9   1.312   2.803   0.106 -1.6025 -0.2625 -0.9656
    4SOL     OW   10   1.200   2.714   2.322  0.0478  0.1254  0.5425
    4SOL    HW1   11   1.278   2.649   2.336 -0.5335  0.1035 -2.8767
    4SOL    HW2   12   1.111   2.669   2.289 -4.0972 -1.7372 -1.5851
    5SOL     OW   13   2.340   0.410   1.614 -0.4180  0.2309 -0.3212
    5SOL    HW1   14   2.403   0.386   1.688  0.1802  0.7508  2.4812
    5SOL    HW2   15   2.364   0.501   1.575 -0.0165  1.1005  1.1342
    6SOL     OW   16   2.749   2.588   0.831 -0.0519 -0.1981 -0.4996
    6SOL    HW1   17   2.832   2.621   0.875  1.2139 -2.3518 -2.5170
    6SOL    HW2   18   2.724   2.498   0.873  0.3483  2.2607  2.0483
    7SOL     OW   19   1.464   1.912   0.549 -0.1833 -0.9935  0.5243
    7SOL    HW1   20   1.382   1.899   0.498 -0.2251  3.1335  2.8114
    7SOL    HW2   21   1.428   1.933   0.642 -1.2472  1.9296  1.0333
    8SOL     OW   22   0.434   1.136   0.823 -0.3206 -1.0383  0.0063
    8SOL    HW1   23   0.433   1.219   0.759  1.3593  1.9302 -2.4809
    8SOL    HW2   24   0.462   1.055   0.768 -0.8047  2.3887  0.2338
    9SOL     OW   25   0.112   3.019   1.422  0.8066 -0.1683 -0.2070
    9SOL    HW1   26   0.135   3.105   1.477  2.1346 -1.2900  2.9925
    9SOL    HW2   27   0.070   2.947   1.479  1.6417 -0.4678 -2.4740
   10SOL     OW   28   1.126   2.321   0.515 -0.0880  0.4328 -0.3792
   10SOL    HW1   29   1.213   2.355   0.556  1.1507 -3.7199 -1.0785
   10SOL    HW2   30   1.047   2.380   0.537  0.7569 -0.4171  0.1118
   11SOL     OW   31   2.094   1.609   1.259  0.1883 -0.2347  0.2076
   11SOL    HW1   32   2.009   1.597   1.201 -1.7779 -1.7569  1.2632
   11SOL    HW2   33   2.118   1.707   1.271 -1.1035  0.6010 -1.4924
   12SOL     OW   34   0.158   0.993   2.011 -0.1115 -0.2049 -0.1495
   12SOL    HW1   35   0.106   0.981   1.925  0.3032 -1.2743 -1.5356
   12SOL    HW2   36   0.130   0.922   2.085 -0.2595  3.3575 -1.0997
   13SOL     OW   37   2.416   3.012   0.001 -0.0491 -0.4539  0.0531
   13SOL    HW1   38   2.384   2.915   0.015 -0.7784 -1.9962 -0.6094
   13SOL    HW2   39   2.338   3.077   3.103 -0.8700 -0.3711 -3.7122
   14SOL     OW   40   1.405   1.956   0.159 -0.3380  0.1639  0.3456
   14SOL    HW1   41   1.347   1.943   0.244  0.9278  1.3251  0.1717
   14SOL    HW2   42   1.409   2.055   0.138  0.0192 -0.0802 -1.0622
   15SOL     OW   43   2.959   2.622   1.828  0.2525  0.0430  0.4134
   15SOL    HW1   44   3.017   2.580   1.755  1.0275 -1.1409  3.2536
   15SOL    HW2   45   2.922   2.711   1.796  0.6911  0.6163 -0.8537
   16SOL     OW   46   2.967   0.554   0.784 -0.1349 -0.3655  0.3036
   16SOL    HW1   47   2.975   0.459   0.751  0.8266  2.2269  0.9843
   16SOL    HW2   48   2.904   0.569   0.866 -1.2256  2.4735  1.2710
   17SOL     OW   49   0.763   0.278   0.748  0.3459 -0.3366 -0.1369
   17SOL    HW1   50   0.847   0.282   0.689  1.0102  1.8009  0.0898
   17SOL    HW2   51   0.766   0.193   0.803  0.3978 -0.6156  0.8327
   18SOL     OW   52   1.104   0.268   0.841  0.0188 -0.3451 -0.2465
   18SOL    HW1   53   1.066   0.280   0.747  0.4897 -1.2123  2.6625
   18SOL    HW2   54   1.032   0.222   0.901 -0.0857 -0.8032  1.5390
   19SOL     OW   55   1.617   1.048   1.016 -0.8129  0.4511  0.1377
   19SOL    HW1   56   1.567   1.137   0.999 -1.7300  0.1693  2.0052
   19SOL    HW2   57   1.574   0.957   1.003  0.6881 -4.0729 -0.7641
   20SOL     OW   58   2.146   1.740   2.860 -0.0489 -0.2352  0.3689
   20SOL    HW1   59   2.098   1.750   2.771  2.1828 -1.1525 -0.0838
   20SOL    HW2   60   2.220   1.813   2.867 -1.2151  1.5363 -2.0146
   21SOL     OW   61   1.559   3.047   0.497 -0.2984  0.7563  0.1829
   21SOL    HW1   62   1.542   3.003   0.404  1.8796 -1.5199 -4.2205
   21SOL    HW2   63   1.570   0.027   0.476  1.2240 -2.1151 -2.6702
   22SOL     OW   64   2.650   0.799   0.610  0.0048 -0.3433  0.1956
   22SOL    HW1   65   2.585   0.867   0.648 -5.0005  0.8632 -1.3311
   22SOL    HW2   66   2.617   0.705   0.634  1.9104  1.4246  1.0777
   23SOL     OW   67   0.735   0.277   1.753  0.0703 -0.1933 -0.2259
   23SOL    HW1   68   0.834   0.277   1.772  1.4409 -1.4751 -0.6035
   23SOL    HW2   69   0.703   0.373   1.740  0.9317 -0.5478 -0.6251
   24SOL     OW   70   1.785   2.463   0.600  0.3302 -0.3898 -0.0654
   24SOL    HW1   71   1.868   2.441   0.653 -0.5087  0.5157 -3.7319
   24SOL    HW2   72   1.757   2.379   0.554  0.5487  0.8274  2.0423
   25SOL     OW   73   1.859   0.200   2.498 -0.2956 -0.2785 -0.4108
   25SOL    HW1   74   1.791   0.131   2.535 -0.8982 -1.8101  1.6176
   25SOL    HW2   75   1.841   0.231   2.405  2.3128 -0.2008 -0.2534
   26SOL     OW   76   1.506   2.767   2.881 -0.0315  0.3257  0.2530
   26SOL    HW1   77   1.574   2.784   2.955 -1.9671  0.3050  2.4291
   26SOL    HW2   78   1.524   2.675   2.833  1.7603 -2.4127 -0.7455
   27SOL     OW   79   1.374   0.401   1.166  0.1229 -0.3754  0.3350
   27SOL    HW1   80   1.283   0.376   1.135  0.4256  1.3439 -2.0825
   27SOL    HW2   81   1.411   0.340   1.239  2.6934 -1.2739  0.0388
   28SOL     OW   82   0.515   1.486   0.885 -0.1590 -0.5682 -0.3619
   28SOL    HW1   83   0.591   1.425   0.918  0.0700  1.5586 -0.1227
   28SOL    HW2   84   0.472   1.539   0.962 -1.0834  1.2746 -1.6114
   29SOL     OW   85   2.506   0.519   1.323  0.3224 -0.6790  1.0134
   29SOL    HW1   86   2.534   0.555   1.228 -1.7458 -3.1698  0.0602
   29SOL    HW2   87   2.541   0.423   1.333  0.3003  1.6379  0.0480
   30SOL     OW   88   1.698   2.425   1.436 -0.5337 -0.0396  0.0233
   30SOL    HW1   89   1.766   2.366   1.388  0.0008  1.6359 -1.5159
   30SOL    HW2   90   1.635   2.465   1.363 -0.7882  1.2640  0.0826
   31SOL     OW   91   1.732   2.828   1.404  0.2759 -0.1099  0.1484
   31SOL    HW1   92   1.775   2.740   1.440  1.7219 -0.5409 -0.2435
   31SOL    HW2   93   1.748   2.838   1.304  1.6792 -2.3479 -0.1019
   32SOL     OW   94   2.059   1.535   2.109  0.3365  0.0993 -0.0779
   32SOL    HW1   95   2.097   1.442   2.092  0.1734 -0.7222 -1.1650
   32SOL    HW2   96   2.082   1.594   2.030  1.1132 -1.4939  2.4371
   33SOL     OW   97   2.465   0.003   2.512  0.0352 -0.1195  0.0259
   33SOL    HW1   98   2.386   3.118   2.577 -0.6076 -0.1454 -0.9496
   33SOL    HW2   99   2.439   3.070   2.424 -0.3883  0.6652 -0.7104
   34SOL     OW  100   2.046   0.465   0.644  0.1803 -0.6588  0.1636
   34SOL    HW1  101   2.021   0.499   0.554  1.7401 -0.8559  3.5478
   34SOL    HW2  102   1.967   0.463   0.710  0.3940  1.6253  1.9527
   35SOL     OW  103   0.077   1.701   1.818 -0.1068 -0.0379 -0.0246
   35SOL    HW1  104   0.115   1.776   1.759 -0.1282  0.1526 -0.6163
   35SOL    HW2  105   0.152   1.670   1.887  0.4169  0.7004  0.9521
   36SOL     OW  106   2.644   2.005   2.726 -0.0093 -0.0824 -0.0320
   36SOL    HW1  107   2.619   1.938   2.799 -0.7928  0.8229  1.1057
   36SOL    HW2  108   2.741   2.032   2.734 -2.1074 -2.0591  0.0195
   37SOL     OW  109   1.353   0.008   1.826 -0.5205  0.8892 -0.1072
   37SOL    HW1  110   1.429   0.036   1.890  3.8608  0.0046 -2.3590
   37SOL    HW2  111   1.378   3.042   1.780  0.4711  0.4385 -3.0467
   38SOL     OW  112   0.969   0.598   2.534 -0.1702 -0.1932  0.3629
   38SOL    HW1  113   1.016   0.681   2.502 -1.1303 -0.2823  0.9448
   38SOL    HW2  114   0.979   0.576   2.631  0.0496 -0.4964 -2.7000
   39SOL     OW  115   1.809   0.926   1.623  0.6017 -0.3047  0.1392
   39SOL    HW1  116   1.901   0.966   1.643 -0.2163  1.4206  0.9114
   39SOL    HW2  117   1.782   0.956   1.527 -1.2548  1.2517 -1.4777
   40SOL     OW  118   0.969   2.323   0.963 -0.2709  0.9194 -0.3398
   40SOL    HW1  119   0.930   2.230   0.973  0.8112 -0.2022 -0.7040
   40SOL    HW2  120   1.065   2.317   0.937 -0.8530  0.1529 -0.0809
   41SOL     OW  121   2.285   2.187   1.105  0.6626 -0.1035 -0.1845
   41SOL    HW1  122   2.241   2.272   1.133  2.0522  0.5401  0.3445
   41SOL    HW2  123   2.237   2.133   1.030 -1.0948 -4.4962  2.5376
   42SOL     OW  124   2.661   0.289   0.301  0.0979  0.5445 -0.3720
   42SOL    HW1  125   2.579   0.261   0.358  0.0651 -1.2902 -0.7167
   42SOL    HW2  126   2.652   0.254   0.201  1.9485 -3.4837 -3.5869
   43SOL     OW  127   0.867   1.073   2.563 -0.3086  0.5466 -0.1087
   43SOL    HW1  128   0.779   1.040   2.595 -0.0545  1.1446  1.1452
   43SOL    HW2  129   0.852   1.171   2.540  0.6349 -1.4164  1.0592
   44SOL     OW  130   1.900   2.611   1.443  0.4428 -0.0006  0.0560
   44SOL    HW1  131   1.832   2.534   1.425  2.5656  0.7878 -3.7955
   44SOL    HW2  132   1.989   2.584   1.403 -1.4370 -1.0664  1.9176
   45SOL     OW  133   0.770   2.559   2.820  0.2190 -0.0623 -0.1920
   45SOL    HW1  134   0.770   2.635   2.887 -0.1822 -0.6371  1.1620
   45SOL    HW2  135   0.861   2.559   2.772 -2.1475  0.8427  1.3748
   46SOL     OW  136   0.490   2.695   2.046 -0.2522  0.0262 -0.6541
   46SOL    HW1  137   0.536   2.784   2.038 -0.8218 -0.9405  1.8519
   46SOL    HW2  138   0.497   2.660   2.144 -2.3484  0.1907  0.7379
   47SOL     OW  139   0.623   1.985   0.727 -0.1117  0.4192 -0.5227
   47SOL    HW1  140   0.619   1.887   0.763  1.4900 -3.4682  2.7968
   47SOL    HW2  141   0.531   2.020   0.708  0.6526 -0.7334 -0.1153
   48SOL     OW  142   0.813   2.965   1.100  0.0577 -0.5312  0.2854
   48SOL    HW1  143   0.786   3.019   1.177  2.1255  0.3646 -4.2245
   48SOL    HW2  144   0.761   2.875   1.096 -3.0046  0.7248  0.2611
   49SOL     OW  145   2.987   2.725   2.756  0.3463  0.5625  0.2900
   49SOL    HW1  146   2.900   2.722   2.705  0.7714 -0.1503  0.2412
   49SOL    HW2  147   2.998   2.803   2.821 -1.4354  0.7319  1.2125
   50SOL     OW  148   1.463   1.213   0.328 -0.2325  0.1057 -0.4728
   50SOL    HW1  149   1.376   1.191   0.376  1.4698  0.0410 -1.0856
   50SOL    HW2  150   1.540   1.161   0.368 -1.4793 -1.5346 -0.4238
   51SOL     OW  151   2.041   3.095   0.567 -0.0310 -0.3916 -0.1883
   51SOL    HW1  152   2.130   3.100   0.517  0.2599 -1.3411  0.9652
   51SOL    HW2  153   2.030   0.058   0.622 -0.5846 -0.2753  0.0348
   52SOL     OW  154   0.633   1.714   0.755 -0.1252  0.2329  0.2045
   52SOL    HW1  155   0.592   1.623   0.782 -0.1442 -1.2203  1.1173
   52SOL    HW2  156   0.736   1.706   0.745  4.6753  1.4360 -3.1501
   53SOL     OW  157   0.366   1.117   2.886  0.3180  0.3768 -0.4624
   53SOL    HW1  158   0.287   1.059   2.861 -1.0027 -0.3264 -0.3595
   53SOL    HW2  159   0.351   1.138   2.986 -3.1691 -0.8296 -1.4526
   54SOL     OW  160   2.558   2.089   0.261  0.5352 -0.7942 -0.4498
   54SOL    HW1  161   2.607   2.115   0.348  0.4073 -0.3085  0.7223
   54SOL    HW2  162   2.528   1.990   0.264  2.4817  0.0068  0.2278
   55SOL     OW  163   2.615   2.242   1.192  0.0541 -0.5714  0.5584
   55SOL    HW1  164   2.605   2.298   1.276  2.1051 -0.3264  0.8274
   55SOL    HW2  165   2.564   2.155   1.207  1.0936  1.9894 -2.8674
   56SOL     OW  166   1.555   0.097   1.544 -0.0256 -0.1106  0.2717
   56SOL    HW1  167   1.551   0.190   1.516  0.0993 -1.9166  1.6786
   56SOL    HW2  168   1.640   0.072   1.598  0.5026 -1.6256  1.7422
   57SOL     OW  169   1.862   1.674   1.109  0.0573  0.3692  0.4407
   57SOL    HW1  170   1.780   1.724   1.150  0.4852  0.5709 -1.4911
   57SOL    HW2  171   1.822   1.588   1.074  0.8525 -0.0861  3.7437
   58SOL     OW  172   2.580   0.292   1.791  0.1405 -0.0244  0.1019
   58SOL    HW1  173   2.553   0.356   1.864 -2.1746 -0.4283  1.2021
   58SOL    HW2  174   2.671   0.249   1.805  1.5689  3.2374 -4.6466
   59SOL     OW  175   1.107   2.486   2.106 -0.2150 -0.2783 -0.0861
   59SOL    HW1  176   1.055   2.540   2.173 -0.6468 -2.0758  2.9333
   59SOL    HW2  177   1.055   2.464   2.021  1.4894  1.6610  4.1432
   60SOL     OW  178   0.863   3.003   2.591  0.3895  0.0894  0.2281
   60SOL    HW1  179   0.796   3.059   2.542 -0.1365 -2.0288 -1.5621
   60SOL    HW2  180   0.832   2.968   2.682  0.6846 -1.0302  2.7037
   61SOL     OW  181   0.790   2.172   0.673  0.0502 -0.2615  0.2488
   61SOL    HW1  182   0.858   2.147   0.596  0.3648 -0.4045 -2.3262
   61SOL    HW2  183   0.721   2.095   0.682  0.9023  1.0679 -1.3787
   62SOL     OW  184   1.087   1.592   1.783  0.2825  0.0387 -0.4255
   62SOL    HW1  185   0.995   1.572   1.743  1.4595 -2.4695  2.8756
   62SOL    HW2  186   1.074   1.608   1.885 -1.1087  0.9473  4.1284
   63SOL     OW  187   1.014   1.995   0.710  0.3119  0.5145 -0.1230
   63SOL    HW1  188   0.938   1.925   0.716 -1.5039 -3.8166 -0.6165
   63SOL    HW2  189   1.011   2.022   0.611 -1.8512  1.2614 -0.8614
   64SOL     OW  190   1.390   1.600   2.994 -0.2305  0.4154 -0.0669
   64SOL    HW1  191   1.300   1.608   2.951  1.4580  1.8867  0.8990
   64SOL    HW2  192   1.432   1.509   2.965  0.5716 -1.1272 -0.1110
   65SOL     OW  193   1.610   2.216   2.205 -0.2002  0.1333 -0.0838
   65SOL    HW1  194   1.622   2.142   2.133  1.0942 -1.2128 -1.3625
   65SOL    HW2  195   1.690   2.222   2.265 -1.6615  1.5626 -0.6895
   66SOL     OW  196   0.122   0.956   0.946  0.0021  0.1035 -0.7115
   66SOL    HW1  197   0.204   0.944   1.008  0.7623  0.8285  0.7099
   66SOL    HW2  198   0.084   0.863   0.931  3.7246 -2.3559 -0.3473
   67SOL     OW  199   2.401   2.422   0.439 -0.0075 -0.0115  0.7359
   67SOL    HW1  200   2.359   2.353   0.502 -2.1472  1.5737 -3.9256
   67SOL    HW2  201   2.373   2.407   0.347 -0.0733  1.7190  1.1917
   68SOL     OW  202   2.629   2.507   1.375 -0.1201 -0.2499 -0.2693
   68SOL    HW1  203   2.717   2.561   1.365  1.3064  3.6153 -0.6405
   68SOL    HW2  204   2.613   2.470   1.469 -0.6769 -0.0365  0.4136
   69SOL     OW  205   2.632   2.518   2.846  0.2914 -0.4047  0.3100
   69SOL    HW1  206   2.681   2.469   2.772 -0.6960  2.1314  0.5272
   69SOL    HW2  207   2.559   2.577   2.800 -0.1111 -0.1198  0.2983
   70SOL     OW  208   0.472   1.316   2.682 -0.1393  0.0848 -0.1323
   70SOL    HW1  209   0.492   1.284   2.586 -3.5490  0.1135  2.2472
   70SOL    HW2  210   0.452   1.240   2.742  1.4785  0.7167 -0.2501
   71SOL     OW  211   0.867   1.237   2.091  0.2907  0.5941  0.6613
   71SOL    HW1  212   0.772   1.202   2.087  1.2650 -1.4236 -0.7296
   71SOL    HW2  213   0.874   1.326   2.040  1.1011  2.7287 -1.2239
   72SOL     OW  214   2.624   1.237   2.049  0.2330  0.0008 -0.1897
   72SOL    HW1  215   2.606   1.144   2.092 -0.5323 -2.4780  2.5345
   72SOL    HW2  216   2.654   1.295   2.128  0.7433 -1.0800 -0.3333
   73SOL     OW  217   0.613   1.952   2.808  0.3443 -0.2569  0.2648
   73SOL    HW1  218   0.551   1.964   2.730  2.5102 -2.5865  1.3215
   73SOL    HW2  219   0.654   1.856   2.807  0.2800 -3.4930  0.9551
   74SOL     OW  220   1.536   2.906   1.759 -0.1616 -0.0680 -0.5462
   74SOL    HW1  221   1.465   2.854   1.809  0.1268 -1.9672 -0.5857
   74SOL    HW2  222   1.627   2.861   1.770 -2.0713 -2.5149  1.3961
   75SOL     OW  223   1.011   2.752   0.608  0.3987 -0.1059 -0.7799
   75SOL    HW1  224   1.030   2.755   0.712  0.3791 -0.5609  0.5213
   75SOL    HW2  225   1.072   2.812   0.551  2.6406 -0.7255  0.4416
   76SOL     OW  226   0.269   1.695   2.898 -0.0881 -0.5650  0.3413
   76SOL    HW1  227   0.353   1.637   2.882  0.7207 -2.9513 -0.4460
   76SOL    HW2  228   0.205   1.656   2.968 -1.9934 -0.8897 -0.4963
   77SOL     OW  229   0.376   2.479   1.276  0.4307 -0.1209 -0.1860
   77SOL    HW1  230   0.389   2.572   1.234  1.6416 -0.1283 -0.6224
   77SOL    HW2  231   0.411   2.479   1.371  1.0527  1.0683 -0.6497
   78SOL     OW  232   2.596   1.237   0.355  0.1544 -0.1348  0.3629
   78SOL    HW1  233   2.585   1.136   0.375  0.0827 -0.9106  0.1668
   78SOL    HW2  234   2.671   1.269   0.412 -2.2297  0.1904  0.5404
   79SOL     OW  235   0.512   1.725   0.042 -0.2463  0.2235 -0.0380
   79SOL    HW1  236   0.444   1.649   0.034  1.5858  1.5738 -0.2302
   79SOL    HW2  237   0.496   1.811   3.109  0.4635 -0.2003 -0.0662
   80SOL     OW  238   1.901   1.711   1.552  0.5084 -0.4745  0.4133
   80SOL    HW1  239   1.853   1.758   1.627  2.0258  0.2262 -0.2864
   80SOL    HW2  240   1.835   1.661   1.491  2.2542 -2.2256 -0.6904
   81SOL     OW  241   2.231   0.962   2.440 -0.0002 -0.2859  0.5766
   81SOL    HW1  242   2.148   0.920   2.485  0.5253 -0.1129  0.5016
   81SOL    HW2  243   2.240   1.059   2.466 -5.0727 -0.4992  1.2063
   82SOL     OW  244   1.552   1.611   1.689  0.0234 -0.6953 -0.2919
   82SOL    HW1  245   1.580   1.591   1.784  0.2621  1.4278 -1.0088
   82SOL    HW2  246   1.466   1.664   1.680 -2.9090  1.7994 -0.2736
   83SOL     OW  247   0.225   0.122   2.953 -0.2683 -0.3612 -0.1897
   83SOL    HW1  248   0.200   0.062   2.876 -0.7429 -1.4918  0.2147
   83SOL    HW2  249   0.276   0.068   3.027 -0.6827 -2.6548  1.0931
   84SOL     OW  250   0.801   1.036   0.335 -0.0596 -0.1558 -0.6804
   84SOL    HW1  251   0.776   1.026   0.239 -1.3040 -2.6049  2.3676
   84SOL    HW2  252   0.846   1.127   0.349  0.9941 -1.4384  0.0048
   85SOL     OW  253   2.264   1.713   1.640 -0.0057  0.1816  0.1114
   85SOL    HW1  254   2.222   1.626   1.600 -0.5773 -3.8448  0.7183
   85SOL    HW2  255   2.203   1.795   1.618 -0.5220  3.8581 -1.5337
   86SOL     OW  256   0.480   0.568   1.023 -0.1315 -0.4150 -0.5565
   86SOL    HW1  257   0.511   0.663   1.000  1.0997  2.1854 -1.9616
   86SOL    HW2  258   0.509   0.547   1.122 -1.2630  0.0704 -1.1728
   87SOL     OW  259   2.538   2.234   2.604 -0.0303  0.4923  0.0874
   87SOL    HW1  260   2.580   2.161   2.660  1.3334  1.6174 -0.7327
   87SOL    HW2  261   2.590   2.323   2.620 -0.2499  1.4644 -1.3715
   88SOL     OW  262   0.188   2.914   0.082  0.5142  0.4516  0.0339
   88SOL    HW1  263   0.223   2.816   0.061  5.5672 -1.7369 -0.5360
   88SOL    HW2  264   0.256   2.979   0.044 -0.3163  1.2979  0.7579
   89SOL     OW  265   1.547   0.130   3.097  0.2053  0.6389  0.7657
   89SOL    HW1  266   1.517   0.085   3.008 -0.1603 -3.1779 -1.2594
   89SOL    HW2  267   1.482   0.194   0.016 -0.5403  2.1660  1.8827
   90SOL     OW  268   2.998   1.526   2.447  0.1330 -0.2072  0.1629
   90SOL    HW1  269   2.972   1.553   2.543  2.3122  0.4954  0.1210
   90SOL    HW2  270   2.961   1.435   2.423  0.6795 -2.8418  0.3779
   91SOL     OW  271   2.018   2.990   1.149 -0.4082 -0.0535  0.0785
   91SOL    HW1  272   2.082   3.046   1.205  1.0223  0.4973  0.1896
   91SOL    HW2  273   2.072   2.913   1.107 -2.7910 -0.3971  0.5092
   92SOL     OW  274   1.803   1.337   0.728 -0.5228 -0.8873 -0.0721
   92SOL    HW1  275   1.802   1.240   0.694  0.6831 -0.0620  0.5464
   92SOL    HW2  276   1.723   1.352   0.788  0.0664  0.9786 -3.9175
   93SOL     OW  277   0.357   1.536   0.376 -0.3630  0.4582 -0.4508
   93SOL    HW1  278   0.344   1.625   0.432  1.3634  2.1476  0.5575
   93SOL    HW2  279   0.456   1.532   0.346  0.2510  1.0984  0.0248
   94SOL     OW  280   0.947   2.627   1.372 -0.1943 -0.6292  0.4349
   94SOL    HW1  281   1.029   2.582   1.415 -0.8524  1.5884 -0.1247
   94SOL    HW2  282   0.885   2.663   1.446 -0.4907 -0.7869 -2.0323
   95SOL     OW  283   0.060   0.707   0.622 -0.1712  0.4016  0.1928
   95SOL    HW1  284   0.093   0.801   0.639  3.0295 -3.1705 -0.2480
   95SOL    HW2  285   0.063   0.661   0.714  0.2193  0.7374  0.2447
   96SOL     OW  286   0.555   2.995   1.758 -0.1966 -0.5616  0.4925
   96SOL    HW1  287   0.656   3.007   1.753  2.3178 -0.6086 -0.2472
   96SOL    HW2  288   0.523   2.930   1.686 -2.0147 -2.5342  0.9631
   97SOL     OW  289   2.191   0.630   0.826  0.1766  0.0556 -0.0362
   97SOL    HW1  290   2.150   0.567   0.756 -3.1473 -0.4380  1.6327
   97SOL    HW2  291   2.195   0.723   0.789 -1.8124  2.2886 -0.3493
   98SOL     OW  292   2.844   2.320   1.588  0.0463 -0.4809  0.0881
   98SOL    HW1  293   2.789   2.397   1.614  0.6264 -0.2049 -0.8710
   98SOL    HW2  294   2.839   2.313   1.487 -0.0501 -0.7287  0.1742
   99SOL     OW  295   2.876   0.383   1.514  0.0137 -0.3300 -0.2678
   99SOL    HW1  296   2.939   0.320   1.564  0.5739  0.7770 -0.5778
   99SOL    HW2  297   2.835   0.452   1.579 -1.0686  1.0313 -1.3988
  100SOL     OW  298   2.066   0.438   2.788 -0.3224  0.3033 -0.0956
  100SOL    HW1  299   2.125   0.437   2.704  0.0407  0.2458  0.0270
  100SOL    HW2  300   1.976   0.393   2.770 -0.2771  0.4626 -0.1334
  101SOL     OW  301   0.868   0.023   2.198 -0.0566  0.0721  0.5210
  101SOL    HW1  302   0.872   3.051   2.169  0.6350  1.7869 -0.3559
  101SOL    HW2  303   0.965   0.056   2.210  3.6478  0.3888 -0.8042
  102SOL     OW  304   0.805   0.554   1.439 -0.8291 -0.0083  0.3620
  102SOL    HW1  305   0.775   0.484   1.371  0.9759  0.2492 -1.5744
  102SOL    HW2  306   0.782   0.647   1.403  0.4887  1.1730 -0.8848
  103SOL     OW  307   1.047   0.919   2.704  0.0336 -0.0420  0.1097
  103SOL    HW1  308   1.069   0.871   2.617 -2.3976 -0.0872  0.2587
  103SOL    HW2  309   0.977   0.989   2.682  1.4582  0.1972 -0.1750
  104SOL     OW  310   0.434   0.196   1.938  0.1484  0.5988 -0.5339
  104SOL    HW1  311   0.533   0.189   1.962  1.3846 -0.0312 -0.2533
  104SOL    HW2  312   0.403   0.103   1.906 -0.5200 -1.4286 -0.0565
  105SOL     OW  313   2.456   2.250   1.570 -0.2327 -0.2345 -0.3146
  105SOL    HW1  314   2.508   2.167   1.545  2.6614  1.9073  1.7776
  105SOL    HW2  315   2.485   2.271   1.665  2.5670  1.4374  0.0224
  106SOL     OW  316   1.156   2.915   0.472 -0.1645  0.1310 -0.3222
  106SOL    HW1  317   1.187   2.951   0.380  0.2631 -0.2478 -0.2805
  106SOL    HW2  318   1.225   2.948   0.545 -0.6816  0.2176  0.5305
  107SOL     OW  319   2.630   1.931   1.254  0.1799  0.2889 -0.2365
  107SOL    HW1  320   2.695   1.965   1.320 -3.1082 -2.6729  0.4212
  107SOL    HW2  321   2.672   1.937   1.164 -2.6477  0.9939 -3.5028
  108SOL     OW  322   0.056   2.341   0.572 -0.1952 -0.1502 -0.1904
  108SOL    HW1  323   0.131   2.281   0.541 -0.8955 -2.1018 -0.5264
  108SOL    HW2  324   0.077   2.443   0.583  0.3086  1.2481  0.0266
  109SOL     OW  325   1.727   3.092   0.866 -0.2954 -0.0185 -0.1234
  109SOL    HW1  326   1.766   3.020   0.802  2.1046 -2.4232  1.3142
  109SOL    HW2  327   1.727   0.063   0.818  0.5309  1.3459 -0.1848
  110SOL     OW  328   1.538   1.295   0.953 -0.3709  0.2519  0.1297
  110SOL    HW1  329   1.489   1.366   1.008  1.0816  0.4418  1.9992
  110SOL    HW2  330   1.483   1.251   0.875  2.8972  1.4322 -0.7866
  111SOL     OW  331   1.787   2.519   1.925  0.3761  0.1398  1.0237
  111SOL    HW1  332   1.705   2.498   1.976 -1.2049  1.2792  0.2085
  111SOL    HW2  333   1.846   2.441   1.924 -0.3407  2.1475  0.9778
  112SOL     OW  334   1.935   2.314   2.777 -0.4012 -0.1515 -0.6287
  112SOL    HW1  335   1.937   2.302   2.877  1.8606  0.7836 -2.6264
  112SOL    HW2  336   2.001   2.387   2.747 -0.0916 -0.3632 -2.0321
  113SOL     OW  337   2.063   1.931   1.852 -0.2188  0.3542 -0.4438
  113SOL    HW1  338   2.092   1.838   1.876 -0.7037  0.5928 -2.3697
  113SOL    HW2  339   2.089   1.955   1.754  0.4279 -1.1127 -1.0817
  114SOL     OW  340   0.185   1.133   1.464 -0.3971 -0.0852 -0.2467
  114SOL    HW1  341   0.104   1.149   1.413  1.1261 -3.5713  0.4021
  114SOL    HW2  342   0.235   1.219   1.461  0.4308  1.4738  0.7448
  115SOL     OW  343   2.939   0.773   2.750 -0.5954 -0.0502  0.2627
  115SOL    HW1  344   3.011   0.818   2.693  1.9734  2.6537 -1.0781
  115SOL    HW2  345   2.845   0.769   2.700 -4.3059 -1.6444  0.2931
  116SOL     OW  346   2.684   0.389   2.703  0.4629  0.2871 -0.3367
  116SOL    HW1  347   2.764   0.433   2.752  2.2655  0.6999 -1.2249
  116SOL    HW2  348   2.688   0.413   2.606  0.6511  0.4981 -0.5621
  117SOL     OW  349   2.715   2.811   0.290  0.0496  0.3478  0.2267
  117SOL    HW1  350   2.766   2.739   0.342 -0.1889 -1.8993 -1.0820
  117SOL    HW2  351   2.678   2.758   0.212  1.4185  1.1813  3.4513
  118SOL     OW  352   0.502   1.908   2.213 -0.2000  0.3485  0.4989
  118SOL    HW1  353   0.466   1.992   2.254  3.1921 -1.1143 -2.5581
  118SOL    HW2  354   0.542   1.921   2.119 -1.2020  1.7109 -1.0971
  119SOL     OW  355   0.579   2.731   0.232 -0.2505 -0.0071  0.0791
  119SOL    HW1  356   0.624   2.668   0.299 -0.1991  0.7005  0.7643
  119SOL    HW2  357   0.647   2.790   0.184  1.6718 -0.7442 -2.0475
  120SOL     OW  358   1.449   0.879   0.455 -0.2329  0.0029  0.2377
  120SOL    HW1  359   1.374   0.901   0.522  1.5605  1.2565  0.3006
  120SOL    HW2  360   1.533   0.941   0.462  0.9418 -2.3311  0.9939
  121SOL     OW  361   1.821   0.487   0.772 -0.0159  0.2584  0.0683
  121SOL    HW1  362   1.758   0.459   0.851 -4.1908  0.4774  2.2281
  121SOL    HW2  363   1.763   0.552   0.718  0.0008  3.2231 -1.4818
  122SOL     OW  364   2.069   1.468   2.382  0.6058 -0.2779 -0.0485
  122SOL    HW1  365   2.003   1.507   2.453 -0.6281  1.6474  0.3276
  122SOL    HW2  366   2.065   1.522   2.294  1.3989 -1.5330 -0.6241
  123SOL     OW  367   1.070   1.102   0.861 -0.3320  0.5940 -0.2160
  123SOL    HW1  368   1.086   1.006   0.896 -0.6958  0.8372 -0.9397
  123SOL    HW2  369   1.015   1.096   0.777  1.2406 -1.3084  0.8388
  124SOL     OW  370   0.618   0.646   2.743 -0.1047 -0.3901 -0.2150
  124SOL    HW1  371   0.590   0.587   2.671  0.8590  4.2683  5.2956
  124SOL    HW2  372   0.624   0.598   2.834  0.3972  0.3593 -4.0126
  125SOL     OW  373   1.052   0.371   0.060  0.3528 -0.2627 -0.0334
  125SOL    HW1  374   0.951   0.342   0.038 -3.7018  1.9064  2.1394
  125SOL    HW2  375   1.069   0.380   0.161 -1.4565  1.0757  0.1184
  126SOL     OW  376   0.502   1.758   0.525 -0.0208 -0.5146 -0.1381
  126SOL    HW1  377   0.406   1.778   0.557 -0.2959  0.8432 -0.9871
  126SOL    HW2  378   0.570   1.735   0.597 -0.0820 -0.7000  0.7435
  127SOL     OW  379   0.939   2.564   1.708  0.1788 -0.9018 -0.1036
  127SOL    HW1  380   0.857   2.608   1.667 -0.5542 -0.0913  0.0043
  127SOL    HW2  381   1.011   2.631   1.713 -0.7647  1.1508  0.6538
  128SOL     OW  382   0.919   1.754   0.383 -0.2908  0.1670  0.7762
  128SOL    HW1  383   0.943   1.683   0.312 -3.0462  1.0644 -1.3849
  128SOL    HW2  384   0.900   1.840   0.334 -0.9090 -0.8649 -2.1282
  129SOL     OW  385   1.885   1.696   2.248  0.0460  0.0619 -0.5741
  129SOL    HW1  386   1.790   1.652   2.247 -3.8078  0.4710  2.2387
  129SOL    HW2  387   1.949   1.659   2.185 -3.3838 -3.5592  0.3870
  130SOL     OW  388   2.092   1.911   1.573 -0.1812 -0.0839 -0.2123
  130SOL    HW1  389   2.139   1.947   1.492 -1.7198 -2.0842  0.1754
  130SOL    HW2  390   2.012   1.850   1.541 -0.4121  0.2436  0.8019
  131SOL     OW  391   0.270   2.260   2.035  0.5407 -0.2505  0.2735
  131SOL    HW1  392   0.209   2.180   2.042  0.8235  1.4429 -0.6781
  131SOL    HW2  393   0.235   2.316   1.959  0.0034 -0.9354 -0.7874
  132SOL     OW  394   2.694   1.857   0.631  0.1303  0.2863  0.1608
  132SOL    HW1  395   2.728   1.791   0.560 -0.2902 -1.1088  0.3595
  132SOL    HW2  396   2.763   1.912   0.674 -1.7582 -4.4407 -1.9278
  133SOL     OW  397   0.649   0.978   1.729 -0.4602  0.2006  0.3484
  133SOL    HW1  398   0.647   1.080   1.716  1.0124 -0.5683 -0.4939
  133SOL    HW2  399   0.745   0.940   1.756  1.8532  1.0021 -0.7260
  134SOL     OW  400   2.735   1.228   0.641 -0.2813  0.0714  0.6371
  134SOL    HW1  401   2.837   1.226   0.621 -1.7517  0.5779 -2.6580
  134SOL    HW2  402   2.717   1.297   0.716 -1.4987 -0.6665  2.1050
  135SOL     OW  403   1.794   1.108   2.972  0.5506 -0.1010 -0.1004
  135SOL    HW1  404   1.856   1.172   3.025  2.1540  0.3036 -0.3935
  135SOL    HW2  405   1.818   1.116   2.874  3.3168  3.3757  0.8548
  136SOL     OW  406   2.700   1.640   1.113  0.0830  0.1436  0.2974
  136SOL    HW1  407   2.667   1.717   1.056 -0.3249 -0.6865 -0.3704
  136SOL    HW2  408   2.629   1.576   1.147  2.2544  0.1633  2.1939
  137SOL     OW  409   2.400   1.854   0.598 -0.0957  0.4184  0.6790
  137SOL    HW1  410   2.349   1.772   0.634  0.9231 -1.2518 -1.2191
  137SOL    HW2  411   2.499   1.824   0.595  2.6497 -0.2739  0.3794
  138SOL     OW  412   2.565   0.537   0.620  0.0744 -0.1375  0.1579
  138SOL    HW1  413   2.650   0.492   0.582  3.2059  0.3040 -1.9392
  138SOL    HW2  414   2.495   0.546   0.546  0.1211 -0.7940  0.6571
  139SOL     OW  415   2.942   2.945   2.891  0.1433 -0.3953  0.3359
  139SOL    HW1  416   2.933   2.949   2.992  0.6220 -0.8687  0.4569
  139SOL    HW2  417   2.885   3.010   2.835 -0.7333  0.1185 -1.1436
  140SOL     OW  418   0.649   1.247   1.674  0.0876  0.5516  0.0159
  140SOL    HW1  419   0.608   1.244   1.769  1.5431  1.5593  1.6717
  140SOL    HW2  420   0.632   1.338   1.626  1.0653  0.9761  0.3778
  141SOL     OW  421   1.327   1.672   0.776 -0.2465  0.1870 -0.4058
  141SOL    HW1  422   1.337   1.608   0.860  1.3916 -0.0677  1.4110
  141SOL    HW2  423   1.355   1.766   0.800  0.6320 -1.9211 -0.2588
  142SOL     OW  424   1.333   1.000   1.130  0.9110 -0.6920  0.0149
  142SOL    HW1  425   1.349   0.899   1.126  2.2432  1.1429  2.5709
  142SOL    HW2  426   1.340   1.049   1.037 -0.0761  2.1458  0.5517
  143SOL     OW  427   0.696   0.903   2.699 -0.1341 -0.3460  0.3353
  143SOL    HW1  428   0.671   0.975   2.770 -2.3696 -1.5728  3.7516
  143SOL    HW2  429   0.672   0.811   2.739 -1.1463  0.2850 -2.6218
  144SOL     OW  430   2.633   3.041   0.155  0.2442 -0.1314  0.4795
  144SOL    HW1  431   2.648   2.972   0.230  1.1283 -1.5450  1.5120
  144SOL    HW2  432   2.540   3.027   0.117 -0.8888 -0.9512  1.6426
  145SOL     OW  433   2.334   0.265   2.840 -0.2494 -0.8273 -0.1362
  145SOL    HW1  434   2.275   0.270   2.920  3.0718  3.0542 -1.9689
  145SOL    HW2  435   2.345   0.366   2.807  1.9692  3.2898 -2.3802
  146SOL     OW  436   3.005   3.072   0.383 -0.0201  0.3875  0.2933
  146SOL    HW1  437   3.021   3.004   0.305  1.8366 -1.7385 -1.0480
  146SOL    HW2  438   2.916   3.119   0.371 -1.8428 -1.5049 -0.5466
  147SOL     OW  439   1.463   1.380   2.865 -0.6367  0.2561  0.1084
  147SOL    HW1  440   1.507   1.302   2.919 -1.2106 -0.4656 -1.6345
  147SOL    HW2  441   1.368   1.347   2.843  1.0618 -0.2413  0.1349
  148SOL     OW  442   1.269   3.028   0.241 -0.3058 -0.2707 -0.3923
  148SOL    HW1  443   1.348   2.988   0.195  1.4161 -1.3271  2.1144
  148SOL    HW2  444   1.217   3.085   0.174 -1.4903  1.3138 -1.8755
  149SOL     OW  445   1.553   0.861   2.087 -0.2139  0.3055 -0.2774
  149SOL    HW1  446   1.566   0.934   2.157 -1.9868  3.8390  0.5096
  149SOL    HW2  447   1.479   0.884   2.021 -1.0612  2.6746 -0.8957
  150SOL     OW  448   1.850   3.018   2.894  0.1290 -0.2138  0.4625
  150SOL    HW1  449   1.855   3.106   2.945 -2.2005  0.2341 -0.2411
  150SOL    HW2  450   1.944   2.981   2.884 -3.7209  1.8947  1.1011
  151SOL     OW  451   0.495   1.238   0.315 -1.0083  0.1761  0.5139
  151SOL    HW1  452   0.445   1.312   0.266 -1.3984 -2.0314  1.9125
  151SOL    HW2  453   0.443   1.151   0.310 -0.8334 -0.2741  1.1067
  152SOL     OW  454   0.529   0.533   1.280  0.4168 -0.6467 -0.2958
  152SOL    HW1  455   0.534   0.583   1.369 -0.1783 -0.9103  0.0059
  152SOL    HW2  456   0.588   0.449   1.283  1.7946 -3.4439 -0.4597
  153SOL     OW  457   2.502   3.031   2.054  0.1858 -0.2911 -0.3041
  153SOL    HW1  458   2.447   3.097   1.997  1.0546  1.1551  1.9141
  153SOL    HW2  459   2.489   3.041   2.154  0.9259 -0.9910  0.9831
  154SOL     OW  460   2.140   2.987   2.256 -0.0364 -0.1595  0.7335
  154SOL    HW1  461   2.147   3.074   2.204 -0.7027  0.0292  1.0457
  154SOL    HW2  462   2.135   2.916   2.180 -1.0359 -0.3755 -1.7288
  155SOL     OW  463   0.161   0.974   0.688 -0.7653 -0.1561  0.1733
  155SOL    HW1  464   0.168   1.068   0.653  1.4128 -1.7706  2.1552
  155SOL    HW2  465   0.142   0.976   0.790 -1.1377 -3.0990  0.5137
  156SOL     OW  466   2.289   1.608   0.596 -0.3947  0.4621  0.3355
  156SOL    HW1  467   2.370   1.543   0.595  2.4662 -0.4623  0.3537
  156SOL    HW2  468   2.206   1.565   0.563  3.4527 -3.0038 -0.4980
  157SOL     OW  469   0.930   0.210   2.968  0.1885 -0.1152 -0.1817
  157SOL    HW1  470   0.924   0.114   3.004 -0.9479  1.4094 -3.1046
  157SOL    HW2  471   0.849   0.259   3.008  2.1266  2.7400  3.1441
  158SOL     OW  472   1.791   1.320   1.405  0.2604  0.0150 -0.2254
  158SOL    HW1  473   1.871   1.310   1.466  0.5335  0.2373  0.0381
  158SOL    HW2  474   1.788   1.247   1.333 -0.5896  1.6421 -1.5027
  159SOL     OW  475   2.955   0.376   0.213  0.1237 -0.0062  0.7738
  159SOL    HW1  476   3.019   0.363   0.291 -1.7593 -0.6127  1.3430
  159SOL    HW2  477   2.860   0.408   0.234  1.3363 -0.8779  0.1298
  160SOL     OW  478   2.563   2.313   1.832  0.0982  0.5312  0.2418
  160SOL    HW1  479   2.644   2.359   1.867 -0.1781  2.0947 -1.9724
  160SOL    HW2  480   2.478   2.353   1.867  2.3481 -1.5038  0.8266
  161SOL     OW  481   0.440   0.764   2.960  0.3911  0.1158 -0.0919
  161SOL    HW1  482   0.472   0.751   2.863  0.5801 -1.6352  0.3500
  161SOL    HW2  483   0.351   0.720   2.975  2.6584 -3.1938 -2.6224
  162SOL     OW  484   0.712   0.541   1.689 -0.3774  0.2556  0.4892
  162SOL    HW1  485   0.636   0.602   1.657 -1.3127 -1.2232 -0.7592
  162SOL    HW2  486   0.778   0.539   1.611  1.3920 -1.9027  1.7968
  163SOL     OW  487   2.565   0.187   2.305  0.3141 -0.4175 -0.2181
  163SOL    HW1  488   2.548   0.143   2.397 -1.4021 -0.7588 -0.9677
  163SOL    HW2  489   2.641   0.138   2.256  0.5252  3.7786  0.0143
  164SOL     OW  490   2.310   1.797   0.323  0.1545  0.5919 -0.5174
  164SOL    HW1  491   2.221   1.814   0.280 -2.8157 -1.1000  1.1697
  164SOL    HW2  492   2.312   1.851   0.412  3.2359  1.9583  2.2616
  165SOL     OW  493   0.300   3.087   0.974  0.4792  0.2973  0.2064
  165SOL    HW1  494   0.270   0.038   0.907 -2.5854  0.3523 -0.6911
  165SOL    HW2  495   0.387   3.118   1.019  0.3327  0.1773  2.8823
  166SOL     OW  496   2.854   0.132   2.997  0.5707 -0.4570  0.0683
  166SOL    HW1  497   2.769   0.148   2.940 -0.8447 -1.4805 -1.0141
  166SOL    HW2  498   2.863   0.039   3.033 -3.2176  1.7300  0.1713
  167SOL     OW  499   2.216   0.716   0.307 -0.3844  0.6992  0.2490
  167SOL    HW1  500   2.141   0.778   0.277 -4.2202 -2.3823  1.8529
  167SOL    HW2  501   2.268   0.679   0.228  0.3352 -1.3012  0.9829
  168SOL     OW  502   1.530   3.029   2.206  0.1615  0.4986 -0.5090
  168SOL    HW1  503   1.497   3.110   2.264 -0.6245  2.3365 -0.3173
  168SOL    HW2  504   1.455   2.976   2.170  2.8511 -1.2326  2.7253
  169SOL     OW  505   0.343   2.098   0.720 -0.1194  0.0141  0.4397
  169SOL    HW1  506   0.283   2.024   0.761 -1.0688  0.0015  3.9269
  169SOL    HW2  507   0.362   2.155   0.804  0.4647 -2.0197  1.3651
  170SOL     OW  508   0.268   0.456   1.599  0.2890 -0.0900 -0.1645
  170SOL    HW1  509   0.184   0.431   1.648  0.0772  0.2286 -0.5766
  170SOL    HW2  510   0.335   0.381   1.616 -1.2390 -0.0081  1.8711
  171SOL     OW  511   2.680   1.398   2.622  0.1257 -0.3565 -0.1570
  171SOL    HW1  512   2.691   1.336   2.545  1.0651  1.7987  3.3570
  171SOL    HW2  513   2.612   1.474   2.608 -1.8618 -1.1710 -0.1384
  172SOL     OW  514   0.875   1.835   1.012 -0.0983  0.1884 -0.0127
  172SOL    HW1  515   0.912   1.753   0.961  0.6226 -2.6812  0.8815
  172SOL    HW2  516   0.942   1.853   1.088  1.5257  2.1114 -0.1456
  173SOL     OW  517   1.948   2.212   3.044 -0.2888  0.4731  0.3096
  173SOL    HW1  518   1.917   2.113   3.034  2.6385  0.3391  1.1857
  173SOL    HW2  519   1.941   2.235   0.022 -0.3827 -0.8851  0.4850
  174SOL     OW  520   1.931   0.750   2.993  0.7477  0.0606  0.2503
  174SOL    HW1  521   1.884   0.720   2.907 -1.2801 -1.7896 -1.5236
  174SOL    HW2  522   1.877   0.825   3.035 -2.1667  0.6993  0.0803
  175SOL     OW  523   0.438   1.611   1.764  0.2269  0.3504  0.0143
  175SOL    HW1  524   0.385   1.649   1.683  2.5710  0.5126 -1.1072
  175SOL    HW2  525   0.381   1.583   1.842  4.4727 -1.2966  0.8655
  176SOL     OW  526   0.663   0.463   0.405 -0.7312  0.3382  0.6116
  176SOL    HW1  527   0.687   0.539   0.466  0.5463 -2.6637 -0.0414
  176SOL    HW2  528   0.699   0.374   0.431 -1.8208  2.3091  0.1502
  177SOL     OW  529   0.143   1.556   0.039 -0.1492 -0.3668 -0.3492
  177SOL    HW1  530   0.050   1.527   0.001 -1.0585 -0.8676 -0.9064
  177SOL    HW2  531   0.214   1.489   0.004  0.4484  1.1189 -0.7641
  178SOL     OW  532   0.020   2.078   2.378  0.2234 -0.1323 -0.2981
  178SOL    HW1  533   0.094   2.142   2.386 -1.1245 -1.2225 -0.8175
  178SOL    HW2  534   3.120   2.052   2.282  2.0314 -0.1549 -3.1387
  179SOL     OW  535   2.597   2.987   2.903  0.0352  0.2837 -0.3918
  179SOL    HW1  536   2.595   3.060   2.831 -0.6431  2.0870 -2.8145
  179SOL    HW2  537   2.520   2.995   2.965  2.3285 -0.9082  1.5974
  180SOL     OW  538   2.432   0.538   0.876 -0.2139 -0.3555  0.0840
  180SOL    HW1  539   2.343   0.593   0.862  0.3413 -0.2115  0.3244
  180SOL    HW2  540   2.478   0.519   0.789 -0.1763 -1.0336  2.3081
  181SOL     OW  541   2.958   0.041   2.448  0.3850  0.3224  0.2820
  181SOL    HW1  542   2.875   0.062   2.385 -1.2691  0.9232 -3.7777
  181SOL    HW2  543   3.019   3.082   2.412 -0.0782 -2.9304 -1.3355
  182SOL     OW  544   2.347   2.589   2.520 -0.1262 -0.1042  0.1614
  182SOL    HW1  545   2.358   2.519   2.595  0.1500 -1.1221 -1.3717
  182SOL    HW2  546   2.255   2.572   2.479 -1.5587 -2.3321  1.2671
  183SOL     OW  547   2.709   1.160   1.775  0.0966 -0.1034  0.9083
  183SOL    HW1  548   2.690   1.200   1.867 -3.0082 -0.3389 -1.3355
  183SOL    HW2  549   2.791   1.105   1.790 -1.1512  4.2166 -1.7677
  184SOL     OW  550   2.779   1.588   0.807  0.2187  0.3405 -0.3049
  184SOL    HW1  551   2.780   1.582   0.908  0.0081 -1.1803  1.1478
  184SOL    HW2  552   2.872   1.604   0.768  0.2439  0.5488 -1.3559
  185SOL     OW  553   3.070   0.341   0.622  0.5725  0.0448 -0.7265
  185SOL    HW1  554   3.090   0.320   0.523 -1.4720 -0.8891 -0.1217
  185SOL    HW2  555   0.014   0.295   0.683 -1.0887  0.9932 -1.2038
  186SOL     OW  556   2.153   2.468   2.371  0.1850  0.3873 -0.2545
  186SOL    HW1  557   2.064   2.498   2.412 -0.8095 -0.4735  0.1378
  186SOL    HW2  558   2.166   2.369   2.375  0.8020  0.1683 -1.1791
  187SOL     OW  559   0.374   1.379   0.684 -0.1291 -0.0083  0.6885
  187SOL    HW1  560   0.388   1.431   0.597 -1.8146  1.5059 -2.0924
  187SOL    HW2  561   0.424   1.419   0.765 -0.5909  1.6255  1.5316
  188SOL     OW  562   1.760   1.807   0.549 -0.0256  0.2029  0.0512
  188SOL    HW1  563   1.785   1.708   0.554 -1.2175  1.5414  2.6815
  188SOL    HW2  564   1.666   1.824   0.594 -2.5674 -1.7964  1.0397
  189SOL     OW  565   3.035   1.479   3.007  0.2408 -0.5210  0.6216
  189SOL    HW1  566   3.071   1.443   2.919  0.7000  1.0157 -1.7494
  189SOL    HW2  567   2.951   1.431   3.039 -0.0234  1.5091  1.0907
  190SOL     OW  568   2.446   0.410   2.240  0.2337  0.1532 -0.1774
  190SOL    HW1  569   2.343   0.411   2.255 -0.6253 -1.6726 -0.0918
  190SOL    HW2  570   2.486   0.315   2.262  0.3550 -2.2311  2.5212
  191SOL     OW  571   1.057   0.825   2.145  0.0496 -0.0694  0.5712
  191SOL    HW1  572   0.964   0.783   2.155  0.1403 -0.8362 -0.5283
  191SOL    HW2  573   1.060   0.898   2.071 -3.1766  0.2417  0.6100
  192SOL     OW  574   1.670   1.547   2.239  0.1327  0.1078  0.5650
  192SOL    HW1  575   1.618   1.560   2.151  0.3538  2.0654  0.2756
  192SOL    HW2  576   1.717   1.458   2.233 -1.7764  0.5435 -1.3592
  193SOL     OW  577   1.452   2.761   1.169 -0.6988 -0.0470 -0.0045
  193SOL    HW1  578   1.361   2.792   1.208 -3.0581  0.4966 -0.6835
  193SOL    HW2  579   1.494   2.834   1.121 -4.6487 -2.4112  2.8840
  194SOL     OW  580   1.534   1.518   1.994 -0.2179  0.7470 -0.3956
  194SOL    HW1  581   1.607   1.451   1.963  3.6250  0.2041  0.3920
  194SOL    HW2  582   1.448   1.499   1.935 -2.5015  1.0999  2.7079
  195SOL     OW  583   2.031   0.208   0.727  0.2925  0.3780  0.3531
  195SOL    HW1  584   2.074   0.208   0.817  0.9382 -0.0962  0.2412
  195SOL    HW2  585   2.041   0.295   0.682  0.9097 -2.1462  0.3678
  196SOL     OW  586   1.299   1.483   2.592  0.2939 -0.1000 -0.4706
  196SOL    HW1  587   1.208   1.529   2.595 -1.4411 -0.1361  3.0684
  196SOL    HW2  588   1.281   1.383   2.608 -0.0440  0.3444  2.1993
  197SOL     OW  589   0.315   0.117   2.204 -0.4699  0.2907  0.6132
  197SOL    HW1  590   0.335   0.148   2.110  1.3549 -0.7163  1.7852
  197SOL    HW2  591   0.355   0.020   2.221  3.3492  2.7708  0.2757
  198SOL     OW  592   0.007   1.196   1.027  0.5796 -0.6810 -0.1786
  198SOL    HW1  593   0.054   1.115   0.989 -2.3125  0.8075  3.6814
  198SOL    HW2  594   3.059   1.236   0.958 -0.2766  0.6883 -2.1566
  199SOL     OW  595   0.420   2.250   0.925  0.8514 -0.5202  0.0555
  199SOL    HW1  596   0.491   2.295   0.874 -1.5704 -1.4154  0.3114
  199SOL    HW2  597   0.443   2.213   1.011 -2.2664  0.1066 -2.2168
  200SOL     OW  598   2.559   1.825   2.921 -0.0627 -0.4188 -0.2136
  200SOL    HW1  599   2.589   1.832   3.017 -0.3508  1.9514  0.7104
  200SOL    HW2  600   2.564   1.729   2.881  0.4068  0.7404  1.3888
  201SOL     OW  601   0.854   2.117   1.490  0.2673  0.2770 -0.1026
  201SOL    HW1  602   0.886   2.023   1.477  2.2799  1.2280  0.3412
  201SOL    HW2  603   0.806   2.153   1.405 -0.4128 -1.1053  0.5597
  202SOL     OW  604   1.096   2.341   0.059 -0.6270 -0.0626  0.2766
  202SOL    HW1  605   1.014   2.383   0.107  3.1045  1.1109 -0.5579
  202SOL    HW2  606   1.140   2.406   3.116 -1.1124  1.8705 -1.6239
  203SOL     OW  607   1.896   0.291   2.185  0.4647  0.3967 -0.5279
  203SOL    HW1  608   1.901   0.293   2.084 -1.0865  1.9054 -1.2142
  203SOL    HW2  609   1.798   0.282   2.211 -0.6886  2.6577 -1.0131
  204SOL     OW  610   0.285   1.395   1.411 -0.6645 -0.1395 -0.2552
  204SOL    HW1  611   0.239   1.376   1.320 -3.5699  0.9581 -1.1919
  204SOL    HW2  612   0.383   1.430   1.401  1.4553  0.2425 -0.0014
  205SOL     OW  613   2.579   1.513   2.868 -0.1094 -0.1076  0.2166
  205SOL    HW1  614   2.552   1.553   2.774  1.0652  1.2120 -1.8925
  205SOL    HW2  615   2.504   1.459   2.912 -0.1765  0.1135  1.2025
  206SOL     OW  616   0.061   1.831   2.535  1.1579 -0.5424  0.3817
  206SOL    HW1  617   3.094   1.780   2.540  0.2431  1.1702 -1.0615
  206SOL    HW2  618   0.067   1.888   2.452 -0.9372  1.7469  0.3426
  207SOL     OW  619   0.842   2.982   1.700 -0.2987 -0.5320 -0.5967
  207SOL    HW1  620   0.875   2.965   1.799 -0.9689 -1.5589  1.3608
  207SOL    HW2  621   0.925   3.017   1.653  1.5496 -4.4554  0.5792
  208SOL     OW  622   0.516   2.506   1.530 -0.2833  0.0804  0.4565
  208SOL    HW1  623   0.520   2.443   1.608 -0.1678  0.5796 -2.6736
  208SOL    HW2  624   0.581   2.476   1.459 -1.4131  0.3864  3.0005
  209SOL     OW  625   1.028   2.624   2.686  0.2891 -0.1371  0.8031
  209SOL    HW1  626   0.973   2.654   2.608 -0.4039 -0.5093  0.2604
  209SOL    HW2  627   1.078   2.699   2.733  1.2301  4.1869  2.7406
  210SOL     OW  628   2.814   1.389   2.235  0.0093  0.2416  0.5949
  210SOL    HW1  629   2.883   1.405   2.160 -0.3368  1.9104 -0.3303
  210SOL    HW2  630   2.760   1.474   2.250 -1.0198  0.9207 -1.7851
  211SOL     OW  631   1.144   0.001   2.013  0.1724 -1.2529  0.3971
  211SOL    HW1  632   1.095   0.094   2.015 -2.4694  0.7089  2.6301
  211SOL    HW2  633   1.235   0.031   1.977 -1.6509 -1.5583  0.4363
  212SOL     OW  634   1.315   2.438   1.714 -0.0783 -0.1587  0.2497
  212SOL    HW1  635   1.318   2.460   1.815 -0.2140  1.8206 -0.5046
  212SOL    HW2  636   1.412   2.421   1.687  0.7585  0.3295  1.1124
  213SOL     OW  637   2.574   0.720   1.959 -0.1032  0.0585  0.1137
  213SOL    HW1  638   2.479   0.746   1.993 -3.6135 -2.0164 -0.1165
  213SOL    HW2  639   2.593   0.787   1.879  0.9940  1.4081 -0.8754
  214SOL     OW  640   0.923   1.851   1.504 -0.2855 -0.0325 -0.2693
  214SOL    HW1  641   0.972   1.815   1.425  2.1884 -0.6101  0.1816
  214SOL    HW2  642   0.990   1.859   1.584  2.0813 -2.1393  0.3552
  215SOL     OW  643   2.662   2.352   0.946 -0.3075  0.0097  0.2703
  215SOL    HW1  644   2.573   2.370   0.902  1.3008 -0.7039 -0.8189
  215SOL    HW2  645   2.651   2.318   1.042 -0.1436  1.1426  1.0099
  216SOL     OW  646   2.861   0.830   1.487  1.0162  0.1964 -0.4063
  216SOL    HW1  647   2.909   0.770   1.422  1.1599 -1.2691  1.8093
  216SOL    HW2  648   2.782   0.880   1.443 -0.0615 -0.3473  0.0559
  217SOL     OW  649   1.965   0.297   1.423 -0.1242  0.1662  0.3302
  217SOL    HW1  650   2.037   0.323   1.354 -0.1744  0.8755 -1.0000
  217SOL    HW2  651   1.883   0.265   1.371  0.9795  1.4367 -1.1629
  218SOL     OW  652   1.639   2.354   1.052 -0.2122  0.1686  0.0311
  218SOL    HW1  653   1.699   2.423   1.010 -0.4758 -1.1936 -0.7904
  218SOL    HW2  654   1.593   2.401   1.130  0.9457  1.1909 -1.5773
  219SOL     OW  655   1.423   2.228   0.071 -0.2714  0.7561  0.5038
  219SOL    HW1  656   1.463   2.314   0.032  0.2032 -2.3994  0.8112
  219SOL    HW2  657   1.367   2.258   0.150  0.3621 -0.7935  0.4145
  220SOL     OW  658   1.672   2.392   2.847  0.0505  0.2892  0.1795
  220SOL    HW1  659   1.623   2.451   2.779  1.9735  1.7732  0.8897
  220SOL    HW2  660   1.712   2.312   2.800 -0.7008 -0.0405 -2.6026
  221SOL     OW  661   0.117   2.472   1.352  0.2665  0.4101 -0.2027
  221SOL    HW1  662   0.212   2.465   1.316  0.1829 -0.0139 -2.7489
  221SOL    HW2  663   0.064   2.393   1.322 -0.2586  1.9328 -3.0871
  222SOL     OW  664   1.981   2.585   0.930  0.1849 -0.7091  0.6829
  222SOL    HW1  665   1.878   2.596   0.959 -1.9181 -2.1703 -0.7267
  222SOL    HW2  666   2.034   2.663   0.974  0.4183  1.5243  1.1309
  223SOL     OW  667   0.723   2.266   2.039  0.3428 -0.1377  0.3756
  223SOL    HW1  668   0.711   2.172   1.998 -0.4642  0.7149 -1.5525
  223SOL    HW2  669   0.637   2.324   2.028 -3.4467 -0.5733 -0.2061
  224SOL     OW  670   2.858   2.337   1.303 -0.0673 -1.0808  0.2639
  224SOL    HW1  671   2.886   2.435   1.297  0.3611  0.4090  0.2911
  224SOL    HW2  672   2.791   2.308   1.228 -1.1728 -0.8950 -0.2146
  225SOL     OW  673   2.283   2.297   0.663 -0.4938  0.4098 -0.2663
  225SOL    HW1  674   2.328   2.306   0.757  2.0469  0.3374  1.0567
  225SOL    HW2  675   2.260   2.197   0.648  1.9586 -0.5449  2.0149
  226SOL     OW  676   1.498   2.446   0.376  0.1840 -0.6805  0.6597
  226SOL    HW1  677   1.410   2.402   0.343  0.3908 -1.0245  0.8465
  226SOL    HW2  678   1.487   2.451   0.479 -1.2537 -0.1391  1.5491
  227SOL     OW  679   1.828   0.765   0.910  0.0562 -0.3640  0.1099
  227SOL    HW1  680   1.887   0.844   0.917 -1.0545 -2.2042  0.6668
  227SOL    HW2  681   1.863   0.689   0.964 -3.3082  1.2939 -1.1757
  228SOL     OW  682   1.153   0.554   2.167  0.0418 -0.0206  0.3078
  228SOL    HW1  683   1.125   0.650   2.186  1.6703  3.6766 -1.5735
  228SOL    HW2  684   1.102   0.493   2.227  1.3881  0.4464 -0.7552
  229SOL     OW  685   0.090   0.984   2.908 -0.1018  0.7889 -1.1195
  229SOL    HW1  686   0.021   1.052   2.882  1.9215  0.9014 -1.6704
  229SOL    HW2  687   0.052   0.921   2.980  0.0920 -1.1353 -0.4226
  230SOL     OW  688   0.765   1.344   1.277  0.1092  0.3164 -0.1016
  230SOL    HW1  689   0.747   1.245   1.266 -2.3627 -1.6277 -1.3274
  230SOL    HW2  690   0.845   1.360   1.339 -2.3657 -1.2219  0.6823
  231SOL     OW  691   2.616   2.923   2.595 -0.3033 -0.1257  0.2781
  231SOL    HW1  692   2.702   2.961   2.630 -1.0530  0.7844  1.2344
  231SOL    HW2  693   2.567   3.001   2.545 -0.8955  1.4026  0.2411
  232SOL     OW  694   0.434   2.337   0.120  0.1441 -0.5210  0.5948
  232SOL    HW1  695   0.382   2.364   0.202 -0.7716  0.3194 -0.4091
  232SOL    HW2  696   0.403   2.243   0.091 -0.5853 -1.6880  0.5602
  233SOL     OW  697   1.110   2.241   2.229 -0.0778 -0.3014  0.0053
  233SOL    HW1  698   1.107   2.338   2.193 -0.7705  0.5289 -2.7102
  233SOL    HW2  699   1.166   2.244   2.313 -1.0551  1.6086 -0.9875
  234SOL     OW  700   1.307   1.447   1.825  0.2737 -0.0494 -0.0291
  234SOL    HW1  701   1.278   1.348   1.815 -0.2664 -0.5550  0.0880
  234SOL    HW2  702   1.230   1.514   1.807  0.3412  0.5644 -0.0404
  235SOL     OW  703   1.080   1.874   1.708 -0.2584 -0.4534  0.1588
  235SOL    HW1  704   1.049   1.938   1.783 -0.8231 -1.1083  0.3083
  235SOL    HW2  705   1.091   1.782   1.746 -0.1969  2.8099 -2.9197
  236SOL     OW  706   1.475   2.963   2.695  0.3957  0.2798  0.2052
  236SOL    HW1  707   1.570   2.986   2.669 -2.4826 -0.2623 -1.4925
  236SOL    HW2  708   1.470   2.883   2.759 -1.0879  2.0399 -2.5001
  237SOL     OW  709   1.244   0.193   1.358  0.7439  0.8322  0.1037
  237SOL    HW1  710   1.254   0.223   1.454  1.5010  1.2657 -0.1085
  237SOL    HW2  711   1.313   0.122   1.334 -0.2936  0.9820 -0.7118
  238SOL     OW  712   1.343   0.688   2.711 -0.5617 -0.3117 -0.0945
  238SOL    HW1  713   1.360   0.762   2.647 -1.5438 -0.0870  1.5630
  238SOL    HW2  714   1.247   0.652   2.710 -2.7068  0.3154 -1.3213
  239SOL     OW  715   0.004   0.872   2.582  0.2740 -0.2853  0.3193
  239SOL    HW1  716   3.044   0.935   2.559  0.0793  3.4098 -0.1476
  239SOL    HW2  717   0.087   0.922   2.553 -0.2048 -1.9754 -1.1330
  240SOL     OW  718   2.352   2.602   0.653  0.1601 -0.0329  0.3629
  240SOL    HW1  719   2.325   2.548   0.735 -1.6636  0.1196 -0.8682
  240SOL    HW2  720   2.362   2.542   0.572  1.6628 -2.6380  0.3992
  241SOL     OW  721   1.136   1.304   1.028 -0.3805  0.2994  0.2157
  241SOL    HW1  722   1.113   1.270   1.123 -0.8439 -2.2680 -0.0280
  241SOL    HW2  723   1.099   1.237   0.957 -2.4113  0.6331  0.3031
  242SOL     OW  724   0.537   0.831   0.910  0.3315  0.3312 -0.8058
  242SOL    HW1  725   0.631   0.867   0.917 -1.7504  0.5373  0.0195
  242SOL    HW2  726   0.512   0.798   0.815 -1.6228  0.1590 -3.7310
  243SOL     OW  727   0.241   0.512   0.965 -0.3752 -0.1161 -0.0592
  243SOL    HW1  728   0.330   0.555   0.990 -2.1644  0.3156 -1.5912
  243SOL    HW2  729   0.246   0.478   0.869 -0.6721 -0.2481 -0.3511
  244SOL     OW  730   0.862   0.017   0.296 -0.0108  0.1344  0.2163
  244SOL    HW1  731   0.912   0.084   0.237  3.2478  1.0362  0.0387
  244SOL    HW2  732   0.898   0.019   0.391 -0.4610 -1.1574  1.1782
  245SOL     OW  733   2.034   0.884   0.202 -0.7676  0.0953 -0.4833
  245SOL    HW1  734   1.954   0.901   0.144 -1.3825 -2.8686  0.5070
  245SOL    HW2  735   2.086   0.973   0.200  3.7700  2.5570 -1.4238
  246SOL     OW  736   3.029   0.850   1.701 -0.2516 -0.6407  0.0891
  246SOL    HW1  737   3.112   0.906   1.675  0.4792  0.0582 -1.8333
  246SOL    HW2  738   2.978   0.828   1.615  0.7678  2.9895 -0.7222
  247SOL     OW  739   0.618   2.973   2.061 -0.2700  0.8389 -0.0905
  247SOL    HW1  740   0.624   3.067   2.027  0.9395 -1.2010  1.5652
  247SOL    HW2  741   0.707   2.942   2.103 -1.2891  1.0760 -2.5024
  248SOL     OW  742   0.525   1.288   2.424  0.1384 -0.2424  0.5719
  248SOL    HW1  743   0.615   1.309   2.464  0.0402 -0.8378 -0.3324
  248SOL    HW2  744   0.535   1.206   2.367  0.0103  0.0470 -0.2908
  249SOL     OW  745   0.799   2.913   2.843 -0.0496 -0.5381 -0.0132
  249SOL    HW1  746   0.698   2.928   2.831  0.2749 -2.9077 -1.9534
  249SOL    HW2  747   0.826   2.858   2.922 -0.0332 -1.6560  0.3903
  250SOL     OW  748   0.564   0.235   2.311 -0.1873  0.1648 -0.4432
  250SOL    HW1  749   0.636   0.189   2.369  2.3885 -0.5676 -0.6020
  250SOL    HW2  750   0.487   0.169   2.299  1.4429 -0.9548  4.0337
  251SOL     OW  751   2.950   1.620   1.169 -0.1556 -0.2626 -0.4444
  251SOL    HW1  752   2.847   1.610   1.158 -0.7170  0.5174  2.9394
  251SOL    HW2  753   2.990   1.554   1.237  0.4381 -1.7332 -1.1083
  252SOL     OW  754   1.878   2.959   1.990  0.2085  0.1666 -0.5042
  252SOL    HW1  755   1.830   2.891   1.927  0.9588  0.3238  0.2148
  252SOL    HW2  756   1.981   2.952   1.975  0.6033 -1.4387 -1.1779
  253SOL     OW  757   2.206   1.469   2.803 -0.6285  0.2481 -0.0101
  253SOL    HW1  758   2.276   1.422   2.855  0.8574 -0.3862 -0.0437
  253SOL    HW2  759   2.182   1.562   2.846  2.7807  0.0648 -0.7827
  254SOL     OW  760   0.626   1.565   1.979 -0.0826 -0.1650 -0.0406
  254SOL    HW1  761   0.584   1.571   1.886 -1.9861  0.3230  1.0811
  254SOL    HW2  762   0.558   1.566   2.057  0.6425  1.0088  0.0842
  255SOL     OW  763   0.736   0.137   1.499  0.1057  0.3113  0.5194
  255SOL    HW1  764   0.831   0.108   1.502  0.3207 -2.1853 -0.7029
  255SOL    HW2  765   0.704   0.145   1.598  0.4764  1.3759  0.3713
  256SOL     OW  766   0.218   2.403   0.895  0.0921  0.1789  0.1304
  256SOL    HW1  767   0.304   2.357   0.925 -2.2049 -0.3872 -1.6093
  256SOL    HW2  768   0.171   2.345   0.826  0.1909 -1.4139  3.5776
  257SOL     OW  769   0.283   2.533   2.322 -0.1670 -0.4795  0.0016
  257SOL    HW1  770   0.272   2.454   2.391 -1.0428 -1.4875 -0.6175
  257SOL    HW2  771   0.381   2.536   2.297 -1.2463 -0.8099  0.2944
  258SOL     OW  772   1.563   1.803   1.943 -0.1903  0.1007 -0.1135
  258SOL    HW1  773   1.543   1.707   1.977  0.0071  1.7409 -0.8010
  258SOL    HW2  774   1.476   1.857   1.928  1.0859  2.9987 -0.7407
  259SOL     OW  775   1.208   1.519   2.097 -0.0524  0.2440 -0.2764
  259SOL    HW1  776   1.178   1.610   2.065 -3.3954 -1.5229  1.5786
  259SOL    HW2  777   1.292   1.523   2.150 -0.6951  0.2113  0.1202
  260SOL     OW  778   2.387   0.777   2.318 -0.4621  0.0784 -0.6001
  260SOL    HW1  779   2.346   0.850   2.381 -0.2041 -1.3741  1.2635
  260SOL    HW2  780   2.337   0.766   2.231  3.1890  2.7167 -0.7827
  261SOL     OW  781   0.975   1.046   0.619  0.2214  0.0385  0.9645
  261SOL    HW1  782   0.905   1.112   0.640  2.2433  0.9545 -2.2255
  261SOL    HW2  783   0.936   0.965   0.575  0.3117  3.4199 -0.3760
  262SOL     OW  784   2.299   2.102   2.651  0.0077  0.2546  0.3779
  262SOL    HW1  785   2.378   2.166   2.661 -2.0398  0.2755 -0.6741
  262SOL    HW2  786   2.283   2.039   2.727 -2.4613  0.7999  2.1624
  263SOL     OW  787   1.052   2.154   1.247  0.2307  0.8065  0.0475
  263SOL    HW1  788   1.095   2.135   1.337 -1.1557  1.1624 -0.8270
  263SOL    HW2  789   0.956   2.109   1.242 -3.0761 -2.9430 -2.6630
  264SOL     OW  790   0.319   2.434   0.361  0.2755  0.2961 -0.7123
  264SOL    HW1  791   0.393   2.466   0.425 -0.5825 -0.5844  1.4921
  264SOL    HW2  792   0.284   2.343   0.397  0.4866  0.4058 -2.2231
  265SOL     OW  793   1.224   1.430   0.135 -0.0598  0.8062 -0.7000
  265SOL    HW1  794   1.308   1.380   0.108 -1.7098  0.7490  1.4896
  265SOL    HW2  795   1.140   1.372   0.139 -1.1505  2.8595 -2.1526
  266SOL     OW  796   0.762   1.865   2.314  0.3979 -0.1814 -0.0773
  266SOL    HW1  797   0.808   1.953   2.326 -1.9224 -1.1249  0.7224
  266SOL    HW2  798   0.667   1.877   2.271 -0.3126 -0.0772 -1.3669
  267SOL     OW  799   2.200   1.238   2.395  0.1344  0.2303  0.1832
  267SOL    HW1  800   2.169   1.237   2.497 -0.9182  0.5625  3.7029
  267SOL    HW2  801   2.148   1.319   2.358 -2.2944  1.2382  1.4555
  268SOL     OW  802   0.937   1.257   0.384 -0.0678 -0.0465  0.5512
  268SOL    HW1  803   0.956   1.275   0.286  1.6788 -0.4943  0.5930
  268SOL    HW2  804   1.025   1.246   0.435  2.4534  0.5201  0.1271
  269SOL     OW  805   2.537   1.879   2.509 -0.1625  0.5524 -0.7698
  269SOL    HW1  806   2.574   1.934   2.592 -3.0492  0.9995 -0.2272
  269SOL    HW2  807   2.603   1.888   2.429  0.0769  1.6671 -0.1992
  270SOL     OW  808   0.819   2.137   2.826  0.1219  0.7506  0.1998
  270SOL    HW1  809   0.771   2.046   2.819  0.3374  1.5076 -0.0121
  270SOL    HW2  810   0.755   2.196   2.873  3.5570 -0.9089  0.5094
  271SOL     OW  811   0.161   0.432   0.154 -0.6437 -0.5107  0.2664
  271SOL    HW1  812   0.265   0.439   0.165  1.5142 -0.5697  2.4348
  271SOL    HW2  813   0.139   0.390   0.062 -1.2117 -1.4671  0.3092
  272SOL     OW  814   2.734   0.072   0.429 -0.6358 -0.1620 -0.3673
  272SOL    HW1  815   2.738   0.129   0.514  0.7037 -0.4973 -0.8178
  272SOL    HW2  816   2.745   0.129   0.346  1.0977 -0.7939  1.0049
  273SOL     OW  817   0.347   3.066   1.909  0.0034  0.1265  0.6896
  273SOL    HW1  818   0.429   3.021   1.863 -2.0549  1.5384 -2.9256
  273SOL    HW2  819   0.271   2.998   1.917 -1.7957 -0.2118 -1.2149
  274SOL     OW  820   2.983   0.593   1.340 -0.5731  0.0368 -0.6530
  274SOL    HW1  821   2.953   0.507   1.389 -2.2731  1.3125  0.7010
  274SOL    HW2  822   3.083   0.605   1.356  2.1691  0.2876  0.0734
  275SOL     OW  823   0.754   1.392   1.007 -0.7645 -0.4395  0.5006
  275SOL    HW1  824   0.829   1.449   0.971 -1.3269  0.1118 -3.0319
  275SOL    HW2  825   0.761   1.376   1.108 -0.9871 -1.0274 -1.2458
  276SOL     OW  826   0.591   1.213   2.019 -0.1146 -0.7092 -0.2852
  276SOL    HW1  827   0.528   1.289   2.042 -0.9424 -1.8736 -0.0734
  276SOL    HW2  828   0.541   1.125   2.018 -0.8044  1.5698 -3.2507
  277SOL     OW  829   1.330   1.996   1.903 -0.3077 -0.4238 -0.5335
  277SOL    HW1  830   1.336   2.008   2.004 -0.7492  0.5635  0.4479
  277SOL    HW2  831   1.252   2.055   1.868 -0.6439 -0.6325  0.6039
  278SOL     OW  832   2.497   2.616   2.298 -0.9050  0.0532  0.1325
  278SOL    HW1  833   2.450   2.602   2.390  0.3632 -0.8327  0.5409
  278SOL    HW2  834   2.474   2.540   2.233 -1.0079 -0.8220 -1.5974
  279SOL     OW  835   1.181   1.885   0.026 -0.0576  0.2270  0.1160
  279SOL    HW1  836   1.273   1.909   0.067 -0.0403 -1.6944  1.4463
  279SOL    HW2  837   1.117   1.958   0.022  1.9471 -4.5095  0.9067
  280SOL     OW  838   1.415   0.309   0.396 -0.0058 -0.2164  0.2835
  280SOL    HW1  839   1.483   0.306   0.474 -1.5051 -1.8228  3.7579
  280SOL    HW2  840   1.460   0.356   0.311  1.7380 -0.3977 -1.1037
  281SOL     OW  841   0.474   0.647   1.555  0.0708 -0.2257  0.4259
  281SOL    HW1  842   0.461   0.745   1.588  1.2676 -0.1561  1.7415
  281SOL    HW2  843   0.393   0.590   1.573 -0.9671 -1.6715 -3.3858
  282SOL     OW  844   0.342   2.524   0.661  0.3708 -0.5334  0.2098
  282SOL    HW1  845   0.317   2.491   0.749  1.4008 -0.1954 -1.7244
  282SOL    HW2  846   0.254   2.563   0.619 -0.5951 -0.7334 -0.2240
  283SOL     OW  847   1.344   1.839   1.683 -0.0401  0.3805  0.2536
  283SOL    HW1  848   1.244   1.843   1.665  1.9455  1.9622 -1.5717
  283SOL    HW2  849   1.365   1.907   1.752 -0.7342  0.8645 -1.0735
  284SOL     OW  850   2.692   2.839   1.549  0.3927 -0.4823 -0.0321
  284SOL    HW1  851   2.705   2.924   1.494  3.4005  0.0097 -4.0420
  284SOL    HW2  852   2.690   2.759   1.487 -0.2605  0.5057  1.4986
  285SOL     OW  853   0.177   2.547   0.166 -0.0160 -0.3089  0.0249
  285SOL    HW1  854   0.077   2.570   0.185  0.7128  1.0842  0.7647
  285SOL    HW2  855   0.223   2.517   0.254 -1.2596  0.7227  1.0713
  286SOL     OW  856   0.392   2.736   1.140 -0.3662 -0.0926  0.0222
  286SOL    HW1  857   0.412   2.818   1.202  0.6287 -0.8505 -1.2741
  286SOL    HW2  858   0.307   2.758   1.090 -0.2627  3.7365 -1.1757
  287SOL     OW  859   0.680   1.348   0.500  0.8431 -0.1271  0.0390
  287SOL    HW1  860   0.621   1.308   0.429 -0.8949 -0.2117  1.7549
  287SOL    HW2  861   0.777   1.368   0.471 -2.1658  0.4362  1.1676
  288SOL     OW  862   1.816   2.166   2.603 -0.2704 -0.0786 -0.2872
  288SOL    HW1  863   1.745   2.111   2.647  0.4300 -0.5139  1.5268
  288SOL    HW2  864   1.874   2.215   2.674  2.3908 -0.1545 -2.7906
  289SOL     OW  865   2.556   1.669   0.299  0.2624  0.3583  0.0005
  289SOL    HW1  866   2.479   1.718   0.249 -2.5591 -0.5295 -6.2806
  289SOL    HW2  867   2.591   1.591   0.246 -0.9885 -0.3257  2.7037
  290SOL     OW  868   1.310   1.499   0.982 -0.3163 -0.3822  0.2118
  290SOL    HW1  869   1.331   1.523   1.077 -0.0221 -0.7989 -1.2190
  290SOL    HW2  870   1.235   1.428   0.984  1.3019 -0.5772 -0.2452
  291SOL     OW  871   1.461   1.267   0.062  0.3001 -0.0142  0.1739
  291SOL    HW1  872   1.442   1.219   0.147  1.2215 -1.0971 -2.3024
  291SOL    HW2  873   1.500   1.202   3.115 -1.5526 -0.2589 -0.2025
  292SOL     OW  874   1.340   1.647   0.225 -0.0665  0.6324  0.1598
  292SOL    HW1  875   1.308   1.548   0.221 -1.1854  0.7374 -1.1121
  292SOL    HW2  876   1.361   1.674   0.133 -0.1450 -0.2416  0.9926
  293SOL     OW  877   1.309   0.002   1.071 -0.3798  0.0281  0.4474
  293SOL    HW1  878   1.332   3.115   1.173 -3.6800 -2.0273  1.9691
  293SOL    HW2  879   1.219   3.079   1.055  0.4671  1.1212  1.2219
  294SOL     OW  880   2.207   0.871   2.809  0.8144 -0.1894  0.5993
  294SOL    HW1  881   2.289   0.902   2.756 -0.8604  3.1934 -0.1391
  294SOL    HW2  882   2.224   0.880   2.908  1.0874 -0.6796 -1.0362
  295SOL     OW  883   1.823   1.983   2.998 -0.1834  0.2962  0.0398
  295SOL    HW1  884   1.752   1.971   3.071 -0.4815  2.5739  3.8344
  295SOL    HW2  885   1.811   1.915   2.925 -0.3995 -0.9094  1.4378
  296SOL     OW  886   1.095   1.084   1.231 -0.1910  0.3889 -0.1025
  296SOL    HW1  887   1.078   1.032   1.316 -1.4398 -2.0070 -0.1797
  296SOL    HW2  888   1.184   1.060   1.182  3.0994  1.2070 -1.3138
  297SOL     OW  889   0.118   0.741   2.133 -0.0836  0.6292  0.1268
  297SOL    HW1  890   0.155   0.718   2.036  1.1204 -2.5192 -1.8098
  297SOL    HW2  891   0.152   0.675   2.204  0.5416  1.0855  0.8712
  298SOL     OW  892   1.583   1.703   1.231  0.1158  0.3132 -0.0658
  298SOL    HW1  893   1.552   1.787   1.282 -1.3570 -1.1764 -0.1530
  298SOL    HW2  894   1.630   1.646   1.303 -1.2332  0.6744  0.4343
  299SOL     OW  895   1.105   0.028   2.530 -0.5417  0.1190 -0.0801
  299SOL    HW1  896   1.176   3.076   2.532  1.9914 -1.2637 -1.6250
  299SOL    HW2  897   1.015   3.108   2.562 -1.9804 -2.6294 -1.4422
  300SOL     OW  898   2.720   2.191   0.459 -0.5235 -0.5236 -1.0150
  300SOL    HW1  899   2.816   2.195   0.490  0.7142 -0.8308  2.2417
  300SOL    HW2  900   2.690   2.289   0.443 -1.8656  1.6213 -1.5623
  301SOL     OW  901   2.178   0.466   2.537 -0.3773 -0.2426 -0.1180
  301SOL    HW1  902   2.142   0.437   2.445 -0.2416  0.7851  0.5195
  301SOL    HW2  903   2.273   0.499   2.532 -2.1999  0.7997 -1.4479
  302SOL     OW  904   2.523   2.311   0.085 -0.3361  0.2907  0.6246
  302SOL    HW1  905   2.542   2.226   0.142 -0.3613  2.0752 -0.8273
  302SOL    HW2  906   2.578   2.317   3.118 -1.2176  0.0856 -1.4981
  303SOL     OW  907   0.012   2.342   2.628  0.2532  0.1004 -0.8191
  303SOL    HW1  908   3.101   2.420   2.573 -0.4987  0.8886  0.4581
  303SOL    HW2  909   3.103   2.354   2.724 -2.1753  2.4102 -2.1433
  304SOL     OW  910   0.115   1.629   1.141 -0.0262 -0.0819  0.1150
  304SOL    HW1  911   0.016   1.635   1.121 -2.7156  2.0246  2.5598
  304SOL    HW2  912   0.161   1.714   1.117  2.1087  0.6269 -0.0830
  305SOL     OW  913   2.951   0.619   1.830 -0.4639 -0.3045 -0.1311
  305SOL    HW1  914   2.987   0.705   1.784  1.4432 -1.4575 -0.1019
  305SOL    HW2  915   2.864   0.587   1.778 -3.7256  0.9355 -1.5362
  306SOL     OW  916   1.432   1.482   0.612 -0.0279 -0.4406 -0.3319
  306SOL    HW1  917   1.387   1.553   0.677 -1.5339 -0.3897  0.5428
  306SOL    HW2  918   1.451   1.524   0.521 -2.5472 -0.9776 -0.7566
  307SOL     OW  919   0.155   0.129   0.734 -0.7399 -0.3451 -0.3944
  307SOL    HW1  920   0.170   0.107   0.636  0.2493 -2.2081  1.2880
  307SOL    HW2  921   0.221   0.205   0.755  1.5255  2.0976 -0.9632
  308SOL     OW  922   0.134   1.175   2.228  0.1036  0.2447  0.0970
  308SOL    HW1  923   0.163   1.127   2.311 -1.1033  1.7024 -2.1294
  308SOL    HW2  924   0.119   1.112   2.151 -0.1248  1.9815 -0.0698
  309SOL     OW  925   2.772   1.859   2.350  0.5238  0.1772  1.0545
  309SOL    HW1  926   2.831   1.850   2.267 -1.9746  1.3160 -0.1992
  309SOL    HW2  927   2.824   1.849   2.438  0.8270  1.5496  1.0021
  310SOL     OW  928   2.410   0.626   0.145  0.0622 -0.6419 -0.1488
  310SOL    HW1  929   2.511   0.636   0.131  0.8220  2.0973 -0.4049
  310SOL    HW2  930   2.372   0.603   0.053  1.0120 -1.1890 -1.0492
  311SOL     OW  931   2.173   0.808   3.095 -0.3555  0.1365  0.0094
  311SOL    HW1  932   2.156   0.825   0.075  1.6937 -1.8571  0.3288
  311SOL    HW2  933   2.082   0.798   3.046 -1.3491 -2.6150  0.3579
  312SOL     OW  934   1.494   2.119   2.424  0.2109  0.5035 -0.1376
  312SOL    HW1  935   1.528   2.179   2.352 -0.2002  1.2750  1.8495
  312SOL    HW2  936   1.559   2.101   2.498 -1.8887  4.4416  0.5275
  313SOL     OW  937   0.234   0.517   0.493 -0.1708 -0.1689  0.5881
  313SOL    HW1  938   0.174   0.454   0.437  1.5336  1.1206  0.8659
  313SOL    HW2  939   0.186   0.605   0.519  2.2872  4.2008  1.6037
  314SOL     OW  940   0.707   1.804   1.249 -0.3588  0.0767 -0.2253
  314SOL    HW1  941   0.732   1.840   1.157 -0.8355 -1.8467 -0.9219
  314SOL    HW2  942   0.797   1.777   1.293  0.2329  1.5864  0.1168
  315SOL     OW  943   0.825   1.752   2.063  0.3586  0.5031 -0.0578
  315SOL    HW1  944   0.754   1.681   2.034 -0.8126  1.3957  0.9720
  315SOL    HW2  945   0.820   1.761   2.163 -1.1662 -2.0245 -2.0349
  316SOL     OW  946   0.592   2.640   0.642  0.4372  0.1745  0.0218
  316SOL    HW1  947   0.494   2.604   0.642 -5.8526 -0.2563 -1.9326
  316SOL    HW2  948   0.601   2.717   0.706 -2.6710 -2.4666 -0.2517
  317SOL     OW  949   2.148   0.353   1.216 -0.4496  0.0480 -0.0188
  317SOL    HW1  950   2.240   0.333   1.260  1.8273 -0.0281 -1.5870
  317SOL    HW2  951   2.163   0.433   1.153 -0.5252  0.9501 -1.5669
  318SOL     OW  952   1.689   0.172   0.391  0.6117 -0.0223 -0.6390
  318SOL    HW1  953   1.710   0.266   0.359  0.7718  1.0568 -1.2215
  318SOL    HW2  954   1.728   0.101   0.323  2.2390  0.7994 -1.4303
  319SOL     OW  955   1.813   0.697   2.759  0.2198  0.6103  0.3490
  319SOL    HW1  956   1.735   0.633   2.763  0.0540 -1.6041 -1.4481
  319SOL    HW2  957   1.867   0.680   2.670 -0.7289 -1.4681 -0.9036
  320SOL     OW  958   3.000   2.144   1.760 -0.5496  0.4610 -0.2924
  320SOL    HW1  959   2.939   2.191   1.697 -0.8222 -1.8237 -0.1400
  320SOL    HW2  960   2.954   2.125   1.849 -0.2330 -2.4252 -1.0794
  321SOL     OW  961   0.410   2.315   2.914  0.1961  0.1314  0.2984
  321SOL    HW1  962   0.489   2.340   2.977  0.2340 -0.8176  0.4858
  321SOL    HW2  963   0.321   2.352   2.949 -0.2150  2.4890  3.5758
  322SOL     OW  964   2.439   0.557   2.490 -0.3230 -0.4230 -0.1484
  322SOL    HW1  965   2.428   0.623   2.417  0.2766  0.7923  3.9166
  322SOL    HW2  966   2.508   0.489   2.464  0.5172  1.3837 -1.4077
  323SOL     OW  967   2.301   1.034   0.829  0.6604 -0.1894 -0.3783
  323SOL    HW1  968   2.401   1.049   0.817  1.2579 -0.6097  3.3727
  323SOL    HW2  969   2.274   0.950   0.779  0.5111 -1.4148 -0.2454
  324SOL     OW  970   0.142   0.395   1.175  0.7935 -0.3187 -0.6239
  324SOL    HW1  971   0.174   0.443   1.091 -0.6740  1.0427  0.9025
  324SOL    HW2  972   0.142   0.451   1.261 -0.4030  0.2282  0.1148
  325SOL     OW  973   2.570   0.138   1.575 -0.1132  0.9878 -0.0404
  325SOL    HW1  974   2.583   0.189   1.663 -0.8109 -0.3971  0.3145
  325SOL    HW2  975   2.615   0.189   1.503 -0.6471 -0.5540  0.8325
  326SOL     OW  976   1.504   2.882   0.157 -0.1770 -0.3148  0.9743
  326SOL    HW1  977   1.523   2.784   0.150 -4.2506  1.6127 -0.5597
  326SOL    HW2  978   1.593   2.938   0.160  3.5457  1.4764  0.0827
  327SOL     OW  979   1.802   1.969   0.336 -0.4658  0.0339 -0.7646
  327SOL    HW1  980   1.758   2.061   0.342  0.5191  1.1692  1.0456
  327SOL    HW2  981   1.772   1.912   0.413 -3.4739  0.9636  1.3099
  328SOL     OW  982   3.055   1.997   2.122 -0.3710  0.8406 -0.5234
  328SOL    HW1  983   3.036   1.908   2.075  0.9914 -2.1204 -1.7626
  328SOL    HW2  984   2.971   2.056   2.115  0.1306  0.5156 -0.4090
  329SOL     OW  985   3.116   2.243   1.210 -0.0629  0.3211  0.9656
  329SOL    HW1  986   3.017   2.263   1.229  3.1264  0.0065  0.4285
  329SOL    HW2  987   0.015   2.158   1.258  0.1606  0.9926 -2.2654
  330SOL     OW  988   2.700   0.728   2.618 -0.5782 -0.2067 -0.1218
  330SOL    HW1  989   2.688   0.651   2.551  4.4989  0.5176  0.7199
  330SOL    HW2  990   2.679   0.815   2.571 -2.3384  0.2547  1.6665
  331SOL     OW  991   2.414   1.985   0.899 -0.3326 -0.5534  0.1912
  331SOL    HW1  992   2.315   2.012   0.910  0.3750 -1.3211 -1.3734
  331SOL    HW2  993   2.455   2.045   0.824 -3.7946 -0.7842 -1.4981
  332SOL     OW  994   0.309   2.866   0.822  0.0959  0.0761  0.1291
  332SOL    HW1  995   0.308   2.958   0.868  2.0878 -0.9276  0.3869
  332SOL    HW2  996   0.244   2.802   0.871  1.8130  1.2670 -0.5955
  333SOL     OW  997   2.422   1.890   2.233 -0.2374  0.1396  0.0835
  333SOL    HW1  998   2.334   1.936   2.202  1.8188  1.4645  1.2374
  333SOL    HW2  999   2.425   1.885   2.335 -1.2793  2.6512  1.9524
  334SOL     OW 1000   0.779   0.951   0.859  0.1523 -0.2534  0.2563
  334SOL    HW1 1001   0.828   0.956   0.945 -0.8216 -0.0970 -3.5789
  334SOL    HW2 1002   0.758   1.047   0.826  0.0278  2.7356 -0.3543
  335SOL     OW 1003   3.026   1.724   2.265 -0.1235 -0.2146  0.3708
  335SOL    HW1 1004   2.999   1.661   2.337 -2.8603  2.1346 -3.2993
  335SOL    HW2 1005   3.055   1.674   2.182  3.0554 -1.7852  1.4954
  336SOL     OW 1006   2.420   2.948   2.329 -0.0005  0.1589 -0.2823
  336SOL    HW1 1007   2.465   2.862   2.293 -1.2083 -0.8275 -0.6864
  336SOL    HW2 1008   2.322   2.946   2.310  1.3573 -0.6252 -1.3168
  337SOL     OW 1009   0.912   0.538   0.656  0.0991  1.0399 -0.4319
  337SOL    HW1 1010   0.866   0.630   0.640 -0.7303  0.6705 -0.2446
  337SOL    HW2 1011   0.885   0.501   0.747  4.4444 -2.5834 -0.5633
  338SOL     OW 1012   1.621   1.877   1.021  0.1663 -0.4383  0.6215
  338SOL    HW1 1013   1.593   1.814   1.095  0.1322  3.0812 -0.3407
  338SOL    HW2 1014   1.675   1.956   1.049 -2.8029 -0.8296 -2.4491
  339SOL     OW 1015   0.489   1.667   1.142 -0.1576  0.0772  0.1894
  339SOL    HW1 1016   0.566   1.725   1.171  0.8904  0.1527 -0.8089
  339SOL    HW2 1017   0.409   1.723   1.114  0.7493 -0.4465  0.4298
  340SOL     OW 1018   1.015   2.907   1.907  0.4479 -0.2173 -0.0309
  340SOL    HW1 1019   1.068   2.854   1.835 -1.3672 -0.0884  1.0927
  340SOL    HW2 1020   1.067   2.981   1.951 -1.8923 -1.7839 -1.4787
  341SOL     OW 1021   2.194   1.589   0.858  0.4927  0.2345 -0.0060
  341SOL    HW1 1022   2.195   1.485   0.880 -0.7168  0.8201 -3.1351
  341SOL    HW2 1023   2.241   1.600   0.768 -0.0759  1.1397 -0.3887
  342SOL     OW 1024   2.225   1.090   0.277  0.1513 -0.5024  0.0274
  342SOL    HW1 1025   2.285   1.043   0.345 -1.4717 -0.9775  2.5105
  342SOL    HW2 1026   2.273   1.167   0.227 -2.9044  1.3623 -2.8558
  343SOL     OW 1027   2.096   0.174   1.014 -0.0639 -0.1769  0.4384
  343SOL    HW1 1028   2.087   0.245   1.091  0.8220  2.2248  0.3969
  343SOL    HW2 1029   2.163   0.103   1.042 -0.5420  0.4570 -2.5246
  344SOL     OW 1030   2.652   0.188   0.061 -0.1310  0.5308 -0.6710
  344SOL    HW1 1031   2.714   0.188   3.101 -0.5212  0.1950  0.3933
  344SOL    HW2 1032   2.634   0.091   0.087 -2.6267 -1.2672 -0.1235
  345SOL     OW 1033   0.939   2.401   1.933  1.2225  0.6733  0.7075
  345SOL    HW1 1034   0.925   2.460   1.845  1.4597  1.2514  0.4129
  345SOL    HW2 1035   0.850   2.355   1.961 -0.1123  1.9948  1.1683
  346SOL     OW 1036   2.348   2.403   0.944 -0.4611 -0.3180  0.2903
  346SOL    HW1 1037   2.346   2.320   1.004 -0.9355 -1.1904  3.2294
  346SOL    HW2 1038   2.372   2.479   1.001 -0.9400  0.6211 -0.7983
  347SOL     OW 1039   2.202   0.012   1.298  0.6032 -0.2645  0.3784
  347SOL    HW1 1040   2.243   0.004   1.206  0.1155 -1.3103  0.2399
  347SOL    HW2 1041   2.239   0.093   1.349  2.5619  0.9003 -1.3530
  348SOL     OW 1042   0.764   0.815   1.379 -0.0004 -0.6815  0.1120
  348SOL    HW1 1043   0.682   0.877   1.383  1.0670  1.2475 -1.5738
  348SOL    HW2 1044   0.792   0.786   1.285  2.5255  0.0865 -1.7786
  349SOL     OW 1045   2.455   0.521   2.783 -0.3255  0.3153 -0.1641
  349SOL    HW1 1046   2.442   0.588   2.707 -2.2108 -0.0321  0.2650
  349SOL    HW2 1047   2.531   0.458   2.755 -0.7041  2.3272 -0.4454
  350SOL     OW 1048   2.251   2.181   2.999 -0.1515  0.3011 -0.1146
  350SOL    HW1 1049   2.149   2.198   2.997 -0.2871  3.1252  0.4104
  350SOL    HW2 1050   2.295   2.233   3.071 -0.6570 -2.5957 -0.6238
  351SOL     OW 1051   1.125   0.386   0.346 -0.0940 -0.2753  0.5411
  351SOL    HW1 1052   1.124   0.486   0.379  0.0928  0.9925  1.6764
  351SOL    HW2 1053   1.209   0.338   0.371 -3.3120 -0.3032 -2.7890
  352SOL     OW 1054   1.583   2.026   2.668 -0.0132  0.1390 -0.0559
  352SOL    HW1 1055   1.579   1.925   2.674  2.9297  1.8783  3.4629
  352SOL    HW2 1056   1.520   2.067   2.736 -0.2137  0.3629 -1.4139
  353SOL     OW 1057   0.648   1.110   2.908 -0.2441  0.3607  0.2514
  353SOL    HW1 1058   0.544   1.098   2.916 -2.4920  1.6106  0.3928
  353SOL    HW2 1059   0.687   1.188   2.960 -1.0055 -0.0899 -0.6913
  354SOL     OW 1060   0.516   2.528   2.730  1.4684  0.0866 -0.4639
  354SOL    HW1 1061   0.492   2.434   2.705  1.3650 -2.0796 -1.6045
  354SOL    HW2 1062   0.609   2.529   2.767  0.5350  0.3711 -0.3021
  355SOL     OW 1063   2.479   2.876   1.723  0.1035  0.0507  0.0432
  355SOL    HW1 1064   2.465   2.976   1.734  1.2218 -0.6082  0.3025
  355SOL    HW2 1065   2.566   2.854   1.678 -1.9353 -1.7361  0.3899
  356SOL     OW 1066   2.755   1.220   1.309 -0.0118 -0.3849 -0.1475
  356SOL    HW1 1067   2.848   1.185   1.320 -0.1811  1.3971 -0.2777
  356SOL    HW2 1068   2.730   1.239   1.211 -1.2438  1.1948  1.4368
  357SOL     OW 1069   2.673   0.278   1.371 -0.8296  0.1362 -0.7185
  357SOL    HW1 1070   2.749   0.328   1.420 -3.5357 -0.5730 -0.0919
  357SOL    HW2 1071   2.695   0.260   1.270  1.8588  2.6521 -0.4168
  358SOL     OW 1072   0.359   1.731   1.518  0.8483 -0.4286  0.1778
  358SOL    HW1 1073   0.447   1.789   1.508  2.1867  0.7635  0.0959
  358SOL    HW2 1074   0.293   1.786   1.575  0.7033  1.1892  1.6837
  359SOL     OW 1075   2.807   2.681   2.534 -0.5427 -0.5111  0.1489
  359SOL    HW1 1076   2.730   2.742   2.555  0.2861  1.4748 -0.5707
  359SOL    HW2 1077   2.838   2.684   2.435 -0.8821 -0.1165 -0.4509
  360SOL     OW 1078   1.057   0.620   1.447  0.2370  0.2323 -0.9789
  360SOL    HW1 1079   0.958   0.601   1.429  1.8800 -2.3483 -1.1000
  360SOL    HW2 1080   1.074   0.583   1.541 -0.3475 -1.1107  0.5146
  361SOL     OW 1081   2.295   2.937   0.817 -0.2777 -0.3392 -0.0036
  361SOL    HW1 1082   2.221   2.891   0.763  0.2341  1.9456 -1.3816
  361SOL    HW2 1083   2.363   2.968   0.738  1.4863  1.8232 -0.6284
  362SOL     OW 1084   0.971   3.102   0.541  0.0872  0.1146  0.2162
  362SOL    HW1 1085   0.909   3.053   0.609 -0.3589 -1.7742 -1.8824
  362SOL    HW2 1086   1.041   3.036   0.501  0.6715 -1.5008 -2.6367
  363SOL     OW 1087   1.074   1.558   0.698  0.5490  0.3220 -0.6017
  363SOL    HW1 1088   1.108   1.485   0.632 -0.5123 -1.4729 -1.0993
  363SOL    HW2 1089   1.156   1.597   0.747 -1.1531 -2.0943  0.2628
  364SOL     OW 1090   0.396   0.868   1.724 -0.0428  0.1122  0.7226
  364SOL    HW1 1091   0.351   0.790   1.773 -4.1224  0.0127  0.1853
  364SOL    HW2 1092   0.486   0.889   1.759 -1.8467 -3.2828 -0.8327
  365SOL     OW 1093   2.939   0.903   0.993  0.5365 -0.2714 -0.0499
  365SOL    HW1 1094   3.033   0.930   1.018  0.1893  0.9497 -0.2721
  365SOL    HW2 1095   2.941   0.871   0.896 -1.2093  1.2716  1.5611
  366SOL     OW 1096   2.559   1.503   0.661  0.4591  0.2020  0.1824
  366SOL    HW1 1097   2.642   1.542   0.704 -3.6772  0.0587 -0.0039
  366SOL    HW2 1098   2.570   1.450   0.574 -0.2545 -0.1626 -1.4351
  367SOL     OW 1099   2.226   2.059   2.173  1.0913  0.1522  0.4743
  367SOL    HW1 1100   2.133   2.043   2.137  1.9714 -0.6113 -2.1781
  367SOL    HW2 1101   2.270   2.136   2.125  0.7143 -0.4461  1.6293
  368SOL     OW 1102   2.638   1.823   0.911  0.3147 -0.4063  0.0555
  368SOL    HW1 1103   2.636   1.784   0.818  2.4115  2.5662  0.9674
  368SOL    HW2 1104   2.558   1.882   0.922  2.3053 -2.0227  1.2742
  369SOL     OW 1105   2.119   2.546   2.943 -0.0739  0.2235 -0.0600
  369SOL    HW1 1106   2.187   2.625   2.926  1.5540 -0.2821 -1.3256
  369SOL    HW2 1107   2.024   2.581   2.963  0.0357  1.1104 -1.3686
  370SOL     OW 1108   0.219   0.144   1.251  0.0967 -0.1419 -0.3730
  370SOL    HW1 1109   0.195   0.244   1.233 -2.6598  2.9029 -2.6647
  370SOL    HW2 1110   0.232   0.100   1.162  1.5658  0.3697 -0.7936
  371SOL     OW 1111   0.602   2.044   0.206  0.1310 -0.2484 -0.4847
  371SOL    HW1 1112   0.597   2.055   0.105 -0.8833 -0.4542  2.1867
  371SOL    HW2 1113   0.518   1.996   0.232  0.3753  5.1388 -0.9494
  372SOL     OW 1114   1.007   1.255   0.132 -0.3179  0.1570 -0.1003
  372SOL    HW1 1115   1.053   1.162   0.131  2.6542 -1.3492 -1.1514
  372SOL    HW2 1116   0.953   1.263   0.046  1.2986 -1.1542  0.7857
  373SOL     OW 1117   1.408   2.525   2.356  0.4183  0.1773  0.4151
  373SOL    HW1 1118   1.379   2.434   2.390  1.3122  0.3512  3.3226
  373SOL    HW2 1119   1.464   2.514   2.268  3.2248 -1.1986 -0.0538
  374SOL     OW 1120   0.513   2.039   3.062 -0.2698  0.2602 -0.5674
  374SOL    HW1 1121   0.578   2.002   2.994  1.7407 -1.4577  2.8885
  374SOL    HW2 1122   0.424   2.049   3.009  0.2936  1.4805  0.9548
  375SOL     OW 1123   0.890   0.876   1.802  0.8488  0.0812  0.2380
  375SOL    HW1 1124   0.928   0.951   1.858  1.9579 -4.1776 -0.6332
  375SOL    HW2 1125   0.939   0.791   1.832 -0.0032  0.6510  0.5719
  376SOL     OW 1126   0.475   2.271   1.722 -0.2723  0.1787  0.5737
  376SOL    HW1 1127   0.431   2.183   1.748 -2.5997  0.4975 -0.8444
  376SOL    HW2 1128   0.496   2.324   1.803  0.0048 -3.4020  0.5512
  377SOL     OW 1129   2.915   1.561   2.707 -0.6108  0.2856 -0.3517
  377SOL    HW1 1130   2.829   1.511   2.687 -0.2030  0.0563 -1.7885
  377SOL    HW2 1131   2.988   1.499   2.744  1.1275 -1.2934 -3.5459
  378SOL     OW 1132   1.394   0.035   2.874  0.0062 -0.0273  0.3546
  378SOL    HW1 1133   1.421   3.105   2.790  1.0678 -0.3833 -2.3396
  378SOL    HW2 1134   1.315   3.116   2.919  0.9717 -0.8186 -1.4995
  379SOL     OW 1135   1.683   0.714   0.668 -0.3083  0.4716 -0.0406
  379SOL    HW1 1136   1.729   0.768   0.744  0.4192  0.6622  0.2047
  379SOL    HW2 1137   1.715   0.749   0.579  0.0462 -3.5925 -0.4230
  380SOL     OW 1138   0.334   1.980   1.291  0.5189 -0.6134 -0.2613
  380SOL    HW1 1139   0.240   2.000   1.326 -2.5605  2.6231  0.4470
  380SOL    HW2 1140   0.398   1.935   1.357 -1.1700 -2.0908 -1.0242
  381SOL     OW 1141   2.491   1.627   2.635  0.4089 -0.0454  0.5516
  381SOL    HW1 1142   2.486   1.725   2.604  0.5837 -0.1214 -1.5919
  381SOL    HW2 1143   2.405   1.571   2.603 -1.7964 -1.0022 -0.8789
  382SOL     OW 1144   0.069   0.152   2.558  0.0165  0.0512  0.5413
  382SOL    HW1 1145   3.106   0.145   2.498 -1.6921 -1.9243 -0.6624
  382SOL    HW2 1146   0.148   0.192   2.510 -2.8327  3.4612 -3.2039
  383SOL     OW 1147   1.958   1.288   3.095  0.0728  0.7615 -0.5410
  383SOL    HW1 1148   2.034   1.355   3.111 -0.3718  3.0405 -0.6623
  383SOL    HW2 1149   1.869   1.328   0.008 -2.6562 -1.9226  1.2167
  384SOL     OW 1150   1.202   2.139   1.500 -0.6790 -0.3349  0.3417
  384SOL    HW1 1151   1.147   2.177   1.576 -1.1504 -1.8454 -0.1021
  384SOL    HW2 1152   1.297   2.175   1.496 -0.0213  0.2728 -0.5582
  385SOL     OW 1153   1.727   2.602   0.977 -0.1045  0.0135  0.0099
  385SOL    HW1 1154   1.727   2.696   1.020 -1.0070 -0.1150  2.8310
  385SOL    HW2 1155   1.700   2.603   0.882 -1.6795  0.1194  0.1325
  386SOL     OW 1156   1.809   2.120   1.065 -0.3591  0.0542  0.2580
  386SOL    HW1 1157   1.869   2.110   0.978 -1.1527 -1.8138  0.0844
  386SOL    HW2 1158   1.743   2.194   1.046 -0.3908 -0.7495 -3.4162
  387SOL     OW 1159   2.831   2.010   1.416  0.3910  0.3439  0.3033
  387SOL    HW1 1160   2.910   1.955   1.443 -0.1569 -2.0193  0.6432
  387SOL    HW2 1161   2.755   2.017   1.488 -2.2082 -1.5124  2.9653
  388SOL     OW 1162   2.578   0.903   1.758 -0.2963  0.3956  0.8344
  388SOL    HW1 1163   2.610   0.997   1.766 -1.7617 -0.5166  0.2436
  388SOL    HW2 1164   2.564   0.888   1.657  1.1705  0.8063 -3.2402
  389SOL     OW 1165   1.838   0.812   0.398 -0.0832  0.1732  0.0741
  389SOL    HW1 1166   1.911   0.820   0.331 -0.7373  0.0912  3.1600
  389SOL    HW2 1167   1.768   0.747   0.361 -2.2144 -1.5529 -1.1582
  390SOL     OW 1168   1.313   1.860   2.736 -0.1171 -0.0008 -0.2885
  390SOL    HW1 1169   1.303   1.913   2.647 -1.1063  2.5210 -0.2799
  390SOL    HW2 1170   1.395   1.797   2.734 -2.9954  0.0610 -0.0651
  391SOL     OW 1171   0.999   2.090   0.014 -0.4715  0.3098 -0.0175
  391SOL    HW1 1172   1.021   2.191   0.020 -0.3348 -0.7542  0.2388
  391SOL    HW2 1173   0.923   2.080   3.073 -0.9084  0.2699  1.1575
  392SOL     OW 1174   0.045   2.891   1.658 -0.1767  0.2186  0.3108
  392SOL    HW1 1175   0.109   2.856   1.722 -2.3242  0.3230 -0.7259
  392SOL    HW2 1176   3.070   2.902   1.699  2.9035  2.3046 -0.7899
  393SOL     OW 1177   1.602   2.622   0.172 -0.3571 -0.3009  0.4076
  393SOL    HW1 1178   1.701   2.600   0.170 -0.3550 -0.8304  2.4831
  393SOL    HW2 1179   1.563   2.574   0.253  1.2278 -0.6428  0.1160
  394SOL     OW 1180   0.511   0.582   2.277 -0.5832 -0.3260 -0.4893
  394SOL    HW1 1181   0.411   0.573   2.273  2.5219  2.7211 -1.1046
  394SOL    HW2 1182   0.550   0.635   2.353 -1.1116  0.4120  0.2411
  395SOL     OW 1183   0.433   1.195   1.080  0.2826 -0.0173  0.2215
  395SOL    HW1 1184   0.361   1.270   1.078 -2.8190  1.9214 -1.5081
  395SOL    HW2 1185   0.452   1.167   0.982 -2.1456 -0.4617  1.4672
  396SOL     OW 1186   1.800   1.310   2.220 -0.0600  0.0370 -0.2283
  396SOL    HW1 1187   1.876   1.346   2.274  0.2412  1.0439 -0.2508
  396SOL    HW2 1188   1.733   1.267   2.285 -1.6656  0.4747 -3.0147
  397SOL     OW 1189   0.775   0.355   0.018  0.4654 -0.1687 -0.1256
  397SOL    HW1 1190   0.720   0.417   3.080 -0.7123  0.9828 -2.1517
  397SOL    HW2 1191   0.713   0.307   0.087  0.1721  0.8419  1.7289
  398SOL     OW 1192   1.011   2.068   2.655 -0.3158 -0.1332  0.3925
  398SOL    HW1 1193   0.939   2.086   2.728 -2.7910 -1.2437  0.6434
  398SOL    HW2 1194   0.991   1.974   2.611 -0.7712 -5.3224  0.3504
  399SOL     OW 1195   2.277   1.514   2.563  0.2103 -0.3185 -0.5348
  399SOL    HW1 1196   2.241   1.495   2.657 -0.3860  0.1340 -2.1425
  399SOL    HW2 1197   2.202   1.525   2.493  0.5400  0.4895 -0.8592
  400SOL     OW 1198   2.304   1.241   1.465  0.0905  0.0194  0.4177
  400SOL    HW1 1199   2.354   1.177   1.405  1.6176 -0.9326 -1.4295
  400SOL    HW2 1200   2.325   1.336   1.447  1.0511 -2.7077  2.1045
  401SOL     OW 1201   1.078   1.572   1.176  0.0924 -0.7370 -0.2287
  401SOL    HW1 1202   1.178   1.572   1.202  1.1023  1.4838  1.5892
  401SOL    HW2 1203   1.039   1.482   1.193 -2.0603  0.5091  1.6454
  402SOL     OW 1204   0.162   2.449   1.871 -0.4906  0.3027 -0.1545
  402SOL    HW1 1205   0.062   2.452   1.899 -5.0343 -1.6561  3.3273
  402SOL    HW2 1206   0.209   2.539   1.885 -0.2992  0.6692  0.7686
  403SOL     OW 1207   0.220   1.031   2.489 -0.2077 -0.1016  0.2035
  403SOL    HW1 1208   0.230   1.127   2.530 -0.5629 -1.8701  1.8679
  403SOL    HW2 1209   0.303   0.996   2.447 -0.2046 -0.7105  1.3720
  404SOL     OW 1210   2.183   1.861   1.261 -0.0141 -0.5722 -0.2704
  404SOL    HW1 1211   2.206   1.952   1.294 -1.9102 -0.0930 -0.5602
  404SOL    HW2 1212   2.264   1.831   1.204  3.1197 -0.4628  0.1276
  405SOL     OW 1213   2.689   0.398   2.427  0.4330  0.6407 -0.1375
  405SOL    HW1 1214   2.745   0.471   2.386 -1.6927 -1.0753  0.0402
  405SOL    HW2 1215   2.671   0.321   2.359 -0.2231 -0.3342 -1.2605
  406SOL     OW 1216   0.793   1.299   3.068  0.0512  0.3681  0.3067
  406SOL    HW1 1217   0.745   1.387   3.080 -0.2261  0.8924 -1.2006
  406SOL    HW2 1218   0.866   1.306   2.998 -3.3412 -0.3137 -0.0018
  407SOL     OW 1219   1.836   2.579   2.979 -0.5105  0.8248  0.0799
  407SOL    HW1 1220   1.785   2.512   2.928 -0.1831 -0.1826  1.6434
  407SOL    HW2 1221   1.789   2.666   2.994  1.9165 -2.1943 -1.6738
  408SOL     OW 1222   0.393   3.083   3.113 -0.3277  0.2127 -0.3382
  408SOL    HW1 1223   0.461   3.097   0.065 -3.7772  0.2725 -2.1743
  408SOL    HW2 1224   0.435   3.060   3.021 -0.7274  1.4357 -0.6314
  409SOL     OW 1225   2.346   1.738   1.043 -0.1549  0.2041  0.1786
  409SOL    HW1 1226   2.298   1.687   0.968 -0.9880  0.2468 -1.3904
  409SOL    HW2 1227   2.386   1.821   1.005 -1.8003 -0.5901  3.2288
  410SOL     OW 1228   2.333   1.959   2.874 -0.0280 -0.3388  0.1012
  410SOL    HW1 1229   2.422   1.912   2.893  0.5210  0.7727  0.0558
  410SOL    HW2 1230   2.327   2.046   2.924  0.8050 -0.7012 -0.3384
  411SOL     OW 1231   2.963   1.343   0.863  0.0681  0.0426  0.0603
  411SOL    HW1 1232   2.985   1.294   0.777 -0.4989 -3.3610 -0.8867
  411SOL    HW2 1233   2.983   1.443   0.860 -2.2348 -2.3199  0.7001
  412SOL     OW 1234   1.707   2.908   0.673 -0.7456 -0.8369 -0.8127
  412SOL    HW1 1235   1.792   2.883   0.625  0.0425  1.9052  1.0162
  412SOL    HW2 1236   1.648   2.970   0.621 -0.1235  0.9286 -0.5329
  413SOL     OW 1237   1.820   0.567   2.278 -0.2059  0.1627 -0.1913
  413SOL    HW1 1238   1.867   0.486   2.243 -0.4895 -0.0625  1.4318
  413SOL    HW2 1239   1.794   0.621   2.198  0.7679 -1.2511  2.3987
  414SOL     OW 1240   2.784   0.427   0.484 -0.1131  0.1292 -0.3883
  414SOL    HW1 1241   2.732   0.379   0.411 -0.4071 -1.7053  2.0850
  414SOL    HW2 1242   2.818   0.356   0.549 -0.4688  2.9734 -1.0679
  415SOL     OW 1243   0.847   1.609   1.650  0.0916  0.2553  0.1377
  415SOL    HW1 1244   0.858   1.691   1.595 -0.8529 -1.7624  3.1315
  415SOL    HW2 1245   0.762   1.564   1.615  2.7567  0.1705  2.1333
  416SOL     OW 1246   0.542   3.016   2.869 -0.3608 -0.3017 -0.5207
  416SOL    HW1 1247   0.585   3.102   2.830 -1.4108  1.0409 -0.8050
  416SOL    HW2 1248   0.459   2.989   2.818 -0.2368 -2.6149  0.0620
  417SOL     OW 1249   2.550   2.934   1.203 -0.0228  0.1397 -0.1038
  417SOL    HW1 1250   2.504   2.859   1.250  2.0870  3.7238 -0.5405
  417SOL    HW2 1251   2.617   2.970   1.270  1.5821  2.3305 -2.7119
  418SOL     OW 1252   0.530   0.457   2.557  0.2301 -0.1558 -0.4233
  418SOL    HW1 1253   0.435   0.437   2.594 -1.9119 -0.7814  0.4099
  418SOL    HW2 1254   0.533   0.435   2.457 -2.3128  1.0496 -4.0839
  419SOL     OW 1255   0.233   1.375   1.130  0.4820  0.0697  0.1855
  419SOL    HW1 1256   0.196   1.471   1.125 -0.2961 -0.7196  1.4816
  419SOL    HW2 1257   0.169   1.304   1.096  0.3966  0.2802 -1.2007
  420SOL     OW 1258   0.732   2.173   1.199 -0.4370 -0.2471 -0.2259
  420SOL    HW1 1259   0.746   2.153   1.097  0.1327  0.6896 -0.6727
  420SOL    HW2 1260   0.632   2.193   1.202 -0.5141 -1.1152 -2.9808
  421SOL     OW 1261   1.935   2.381   2.127  0.8347  0.0938  0.4835
  421SOL    HW1 1262   1.964   2.293   2.085  3.1633 -1.1636 -0.3083
  421SOL    HW2 1263   1.884   2.363   2.212 -0.0037  0.6115 -0.4522
  422SOL     OW 1264   0.003   0.419   2.631  0.2367  0.1810 -0.0375
  422SOL    HW1 1265   0.007   0.319   2.613 -1.5913  1.0065  0.9623
  422SOL    HW2 1266   3.062   0.431   2.711 -2.2968  1.0277 -0.9598
  423SOL     OW 1267   1.283   2.255   0.930 -0.2177  0.3176  0.3254
  423SOL    HW1 1268   1.235   2.162   0.927  1.2594 -0.8607 -0.6351
  423SOL    HW2 1269   1.290   2.281   1.026  1.8762 -0.6540 -0.1944
  424SOL     OW 1270   0.609   1.501   1.587 -0.5630 -0.9481  0.1242
  424SOL    HW1 1271   0.548   1.550   1.653 -0.3625  0.1262 -1.5917
  424SOL    HW2 1272   0.578   1.522   1.492 -0.2922 -0.2875 -1.5495
  425SOL     OW 1273   3.058   2.713   2.060  0.0749  0.1274 -0.1519
  425SOL    HW1 1274   3.111   2.624   2.084 -1.0961  0.3203 -0.9262
  425SOL    HW2 1275   3.032   2.719   1.964 -1.6845  0.7952  0.6501
  426SOL     OW 1276   1.780   0.173   0.663  0.1426 -0.0443 -0.1229
  426SOL    HW1 1277   1.778   0.182   0.561 -0.0969  0.8811  0.3638
  426SOL    HW2 1278   1.877   0.187   0.694 -0.5204 -2.0645 -0.5495
  427SOL     OW 1279   1.055   0.668   2.784  0.2309  0.1461 -0.0984
  427SOL    HW1 1280   1.047   0.639   2.882  1.1280 -2.0651 -1.3103
  427SOL    HW2 1281   1.024   0.764   2.765 -1.2530  0.8030  2.2619
  428SOL     OW 1282   1.788   1.165   0.254  0.8515 -0.0111  0.8694
  428SOL    HW1 1283   1.759   1.245   0.198  3.0060  2.5971  0.0637
  428SOL    HW2 1284   1.786   1.080   0.197  0.0413 -0.5527 -0.3347
  429SOL     OW 1285   3.072   2.979   0.618 -0.1663 -0.4943  0.1507
  429SOL    HW1 1286   0.053   2.982   0.610 -1.9966  1.2695  0.6737
  429SOL    HW2 1287   3.020   2.982   0.527 -1.9539 -0.6757 -1.4606
  430SOL     OW 1288   0.404   2.976   2.227  0.3570 -0.2564 -0.2014
  430SOL    HW1 1289   0.447   2.974   2.320  0.6482  2.1531  2.0138
  430SOL    HW2 1290   0.469   2.962   2.148  1.1448 -0.5797 -0.3909
  431SOL     OW 1291   2.412   0.942   1.523  0.7753  0.4942  0.4976
  431SOL    HW1 1292   2.333   0.944   1.459 -0.9043  0.0454 -2.9463
  431SOL    HW2 1293   2.383   0.958   1.620  1.1956 -0.4613  2.6339
  432SOL     OW 1294   2.067   2.625   2.145  0.3563 -0.0992 -0.4195
  432SOL    HW1 1295   2.120   2.618   2.230 -3.4869 -0.5249 -1.0161
  432SOL    HW2 1296   2.021   2.536   2.135  2.3217 -1.1608 -1.3879
  433SOL     OW 1297   1.330   2.442   0.626 -0.1277  0.2360  0.2241
  433SOL    HW1 1298   1.403   2.407   0.689 -0.4196 -3.2825 -0.2332
  433SOL    HW2 1299   1.315   2.539   0.647  0.7070 -1.1128  2.1212
  434SOL     OW 1300   0.185   1.977   2.030  0.5230  0.6419  0.1110
  434SOL    HW1 1301   0.229   1.919   2.103 -2.5403  0.1090  0.7854
  434SOL    HW2 1302   0.089   1.991   2.062  0.3142 -0.1539  0.1766
  435SOL     OW 1303   0.229   0.878   0.209  0.0442  0.0961  0.0160
  435SOL    HW1 1304   0.169   0.794   0.205  2.0747  1.5341  0.1489
  435SOL    HW2 1305   0.288   0.888   0.128 -1.2148  1.9757 -2.6367
  436SOL     OW 1306   0.312   2.688   1.789  0.7172 -0.1600  0.2513
  436SOL    HW1 1307   0.368   2.696   1.874 -0.6961 -1.7583 -0.5789
  436SOL    HW2 1308   0.370   2.693   1.703 -0.6316 -0.6825 -1.5334
  437SOL     OW 1309   1.590   2.455   1.680 -0.0254  0.0395  0.0906
  437SOL    HW1 1310   1.618   2.428   1.585  1.6686  0.4402  1.1990
  437SOL    HW2 1311   1.658   2.513   1.725  0.9264  0.2841 -1.6220
  438SOL     OW 1312   0.252   1.789   0.600 -0.3763 -0.4181  0.4388
  438SOL    HW1 1313   0.212   1.716   0.659  0.9675  0.3035  0.8133
  438SOL    HW2 1314   0.229   1.880   0.642  0.9524 -0.3019  0.5408
  439SOL     OW 1315   0.035   0.706   0.974  0.0295 -0.1836 -0.1145
  439SOL    HW1 1316   0.091   0.622   0.991  1.0301 -1.0986 -2.4739
  439SOL    HW2 1317   3.058   0.683   0.951 -1.1075 -2.4087  0.3249
  440SOL     OW 1318   0.131   2.762   2.402  0.1204 -0.3764 -0.1413
  440SOL    HW1 1319   0.099   2.727   2.491 -0.2401 -0.6677 -0.6580
  440SOL    HW2 1320   0.208   2.705   2.369 -1.9016  2.5334 -0.1284
  441SOL     OW 1321   2.787   0.213   0.677 -0.4037 -0.4313  0.6824
  441SOL    HW1 1322   2.864   0.182   0.732  1.8601  0.9142  2.0911
  441SOL    HW2 1323   2.700   0.222   0.731 -2.5772  0.4753 -0.0346
  442SOL     OW 1324   1.291   2.291   2.454 -0.4795 -0.0034 -0.1264
  442SOL    HW1 1325   1.242   2.294   2.546  0.1502 -0.8059  1.6519
  442SOL    HW2 1326   1.365   2.224   2.452  0.0397  0.2770 -2.2059
  443SOL     OW 1327   0.754   0.994   0.062  0.0376 -0.1981  0.6177
  443SOL    HW1 1328   0.772   1.070   3.116 -0.7179 -0.9529  0.7943
  443SOL    HW2 1329   0.779   0.902   0.031 -0.4018  0.2853 -0.3376
  444SOL     OW 1330   1.564   1.429   2.605  0.0502 -0.1741  0.0624
  444SOL    HW1 1331   1.463   1.457   2.609 -0.1540  0.0675 -0.8698
  444SOL    HW2 1332   1.577   1.370   2.684 -0.4954 -1.5187 -1.5754
  445SOL     OW 1333   0.002   0.015   0.936 -0.1157 -0.4704 -0.4775
  445SOL    HW1 1334   0.049   0.070   0.867  2.3039 -0.2736 -0.1282
  445SOL    HW2 1335   3.037   3.095   0.894  1.8474  2.6571 -1.5359
  446SOL     OW 1336   2.131   0.571   1.079 -0.6568 -0.5406 -0.2814
  446SOL    HW1 1337   2.149   0.587   0.977 -0.5021  0.7592 -0.9540
  446SOL    HW2 1338   2.029   0.581   1.103 -1.4636  0.7731  2.3704
  447SOL     OW 1339   0.183   0.672   3.001 -0.7379  0.4805 -0.2862
  447SOL    HW1 1340   0.156   0.571   3.005  0.3702 -1.1518  0.9770
  447SOL    HW2 1341   0.133   0.736   3.063  0.7966  3.1362 -0.9897
  448SOL     OW 1342   1.455   1.844   1.438  0.3934  0.0784  0.6844
  448SOL    HW1 1343   1.518   1.922   1.435 -0.4937 -0.6626  2.3668
  448SOL    HW2 1344   1.419   1.835   1.531 -2.2144  1.3593 -2.0463
  449SOL     OW 1345   0.951   1.559   0.925  0.2458 -0.0025 -0.1110
  449SOL    HW1 1346   1.021   1.566   1.000 -1.4469 -1.1776 -0.3615
  449SOL    HW2 1347   0.991   1.552   0.829  1.6188  1.1526  0.8958
  450SOL     OW 1348   2.846   2.167   2.012  0.8188  0.4254  0.0701
  450SOL    HW1 1349   2.834   2.269   2.013 -0.2771  0.5024  2.4497
  450SOL    HW2 1350   2.762   2.116   2.039 -0.6884 -0.4371 -0.5705
  451SOL     OW 1351   2.456   1.204   2.697  0.0436 -0.1239  0.2928
  451SOL    HW1 1352   2.366   1.242   2.662 -0.1965 -2.7382 -1.1396
  451SOL    HW2 1353   2.527   1.271   2.720  0.2509  1.7356 -0.9709
  452SOL     OW 1354   1.723   0.986   1.364 -0.3069  0.1391 -0.4932
  452SOL    HW1 1355   1.628   1.030   1.360  1.1515  1.0762 -0.8768
  452SOL    HW2 1356   1.783   1.031   1.290 -1.3964  1.3785 -0.8055
  453SOL     OW 1357   2.079   0.952   1.604  0.3445  0.5996 -0.3720
  453SOL    HW1 1358   2.143   1.023   1.646  1.9540 -0.6972  0.0183
  453SOL    HW2 1359   2.094   0.930   1.504  0.7755 -2.2324 -0.4506
  454SOL     OW 1360   3.101   1.083   0.185  0.0853  0.3673 -0.2002
  454SOL    HW1 1361   0.037   1.043   0.106  3.3229 -1.5958 -0.9248
  454SOL    HW2 1362   3.059   1.000   0.231  0.5792  0.0919  0.7517
  455SOL     OW 1363   2.453   1.489   1.141  0.6861 -0.0114  0.2952
  455SOL    HW1 1364   2.462   1.452   1.045  1.6024  0.5883 -0.4799
  455SOL    HW2 1365   2.391   1.570   1.140  0.0168 -2.5146 -1.6117
  456SOL     OW 1366   0.704   0.326   1.290 -0.1845  0.6703  0.1841
  456SOL    HW1 1367   0.718   0.271   1.372 -0.5355  1.8129 -1.5976
  456SOL    HW2 1368   0.749   0.270   1.212 -0.2857 -3.2634 -1.2287
  457SOL     OW 1369   1.778   2.833   1.130 -0.1552  0.5294  1.0093
  457SOL    HW1 1370   1.874   2.878   1.143  0.7812  3.1917 -0.2308
  457SOL    HW2 1371   1.711   2.898   1.092 -1.8575  2.4452  1.9666
  458SOL     OW 1372   2.452   0.242   0.450  0.1853 -0.6558 -0.0571
  458SOL    HW1 1373   2.408   0.331   0.465 -0.5148 -0.0019 -1.0367
  458SOL    HW2 1374   2.390   0.162   0.473  1.7214  0.0963 -0.9370
  459SOL     OW 1375   1.585   0.762   0.029 -0.1366 -0.1825 -0.1468
  459SOL    HW1 1376   1.611   0.673   3.101  0.3006 -0.4168 -0.3301
  459SOL    HW2 1377   1.482   0.777   0.042 -3.4859  1.0619  0.1631
  460SOL     OW 1378   0.087   2.632   2.628  0.3218  0.0430 -0.1910
  460SOL    HW1 1379   0.003   2.678   2.663 -1.7053  2.5628  2.4289
  460SOL    HW2 1380   0.165   2.659   2.687  1.4286  1.9235 -0.4616
  461SOL     OW 1381   0.409   1.828   0.271  0.4414 -0.0154 -0.0259
  461SOL    HW1 1382   0.450   1.800   0.358  2.0516 -2.0058 -1.2001
  461SOL    HW2 1383   0.467   1.794   0.194 -0.6349 -1.5020  0.8516
  462SOL     OW 1384   2.021   2.409   0.730 -0.3671  0.4473 -0.3642
  462SOL    HW1 1385   2.107   2.367   0.693  0.6988  1.1357 -2.8041
  462SOL    HW2 1386   2.041   2.479   0.805  1.7465  0.5701 -1.3072
  463SOL     OW 1387   2.985   0.653   0.439 -0.0369  0.4248  0.5069
  463SOL    HW1 1388   3.064   0.656   0.504 -1.3670 -0.0690 -0.5139
  463SOL    HW2 1389   2.920   0.579   0.464  0.7982  0.2663  0.6127
  464SOL     OW 1390   0.676   2.525   0.403 -0.4254 -0.4343  0.0859
  464SOL    HW1 1391   0.636   2.564   0.486 -0.2348  1.0238 -1.4680
  464SOL    HW2 1392   0.672   2.424   0.403  0.4576 -0.9563 -0.3408
  465SOL     OW 1393   2.310   0.503   0.491 -0.1952 -0.1227  0.1191
  465SOL    HW1 1394   2.244   0.471   0.565 -3.2313  1.8354 -1.4010
  465SOL    HW2 1395   2.264   0.575   0.439 -1.6892  0.5783  1.8515
  466SOL     OW 1396   2.109   0.255   0.309 -0.0960 -0.3876  0.6398
  466SOL    HW1 1397   2.189   0.285   0.255 -3.4223  0.5934  1.4482
  466SOL    HW2 1398   2.065   0.174   0.270 -1.3259 -2.1671 -1.1843
  467SOL     OW 1399   1.195   0.357   1.989 -0.6729 -0.2782 -0.7792
  467SOL    HW1 1400   1.179   0.447   2.036 -1.1673 -1.0310 -0.3386
  467SOL    HW2 1401   1.291   0.358   1.960 -1.4925  1.1810  0.7227
  468SOL     OW 1402   2.962   0.772   2.156 -0.1379 -0.6594 -0.2014
  468SOL    HW1 1403   3.061   0.750   2.152 -0.2252 -0.7312 -2.8053
  468SOL    HW2 1404   2.916   0.689   2.123  0.1144  1.5118  0.7931
  469SOL     OW 1405   0.755   2.408   2.269 -0.0670 -0.3506  0.1979
  469SOL    HW1 1406   0.815   2.373   2.347  3.0031 -0.9917  1.4814
  469SOL    HW2 1407   0.757   2.344   2.194  0.7399  1.3716  3.0269
  470SOL     OW 1408   2.177   1.288   2.064 -0.1991  0.1176 -0.2102
  470SOL    HW1 1409   2.278   1.293   2.041  1.4318 -0.8367  0.5317
  470SOL    HW2 1410   2.161   1.206   2.120  0.6712 -0.2297  0.8775
  471SOL     OW 1411   2.730   0.965   0.175 -0.0889  0.0939 -0.1450
  471SOL    HW1 1412   2.685   1.032   0.114 -0.6752 -1.5844 -0.5332
  471SOL    HW2 1413   2.830   0.979   0.180  0.7070  1.2066  0.9104
  472SOL     OW 1414   0.356   2.840   0.338  0.4860  0.1070  0.1709
  472SOL    HW1 1415   0.282   2.815   0.272  0.8416 -0.1175  1.1752
  472SOL    HW2 1416   0.441   2.798   0.302 -1.8337  3.6266  1.6490
  473SOL     OW 1417   0.949   2.621   2.274  0.1077 -0.1038 -0.6609
  473SOL    HW1 1418   0.894   2.539   2.246  2.7740  1.1390 -1.7667
  473SOL    HW2 1419   0.906   2.666   2.353  1.6780  0.1335  0.9604
  474SOL     OW 1420   1.444   0.140   2.319  0.1563 -0.0584  0.5188
  474SOL    HW1 1421   1.353   0.170   2.299  1.5811 -0.0278  1.2703
  474SOL    HW2 1422   1.460   0.130   2.418 -1.1434 -3.2062 -3.5348
  475SOL     OW 1423   0.864   2.403   0.185  0.5202  0.5086  0.2853
  475SOL    HW1 1424   0.828   2.500   0.182  1.9980 -0.2779 -0.3465
  475SOL    HW2 1425   0.810   2.350   0.255  0.0378  0.8427  1.9001
  476SOL     OW 1426   0.530   0.414   0.803  0.2165  0.2738 -0.1583
  476SOL    HW1 1427   0.538   0.470   0.886  0.3904 -2.1037 -1.4131
  476SOL    HW2 1428   0.620   0.406   0.762 -1.7123  0.8431 -0.2871
  477SOL     OW 1429   1.865   1.944   1.254 -0.0105  0.2769 -0.3717
  477SOL    HW1 1430   1.834   1.994   1.172 -0.4273  1.1609 -0.7052
  477SOL    HW2 1431   1.961   1.915   1.240  0.0863  1.9699 -1.6084
  478SOL     OW 1432   0.210   0.708   2.721  0.9111  0.2097 -0.2935
  478SOL    HW1 1433   0.130   0.769   2.694 -0.8908 -0.4564  0.1451
  478SOL    HW2 1434   0.215   0.688   2.821  0.6644 -0.1798  4.3451
  479SOL     OW 1435   0.513   0.136   0.756  0.1908  0.3013  0.1670
  479SOL    HW1 1436   0.543   0.098   0.667 -2.3269 -2.1640 -3.1748
  479SOL    HW2 1437   0.537   0.232   0.762 -1.3695 -1.4173 -0.1549
  480SOL     OW 1438   2.586   2.627   0.109  0.1119 -0.3179  0.0434
  480SOL    HW1 1439   2.629   2.664   0.026 -1.7148 -0.7247  1.1403
  480SOL    HW2 1440   2.568   2.524   0.111 -0.0279 -0.7377  2.1646
  481SOL     OW 1441   2.902   0.641   1.065  0.5972 -0.3885 -0.0668
  481SOL    HW1 1442   2.906   0.744   1.070  2.4303  2.9974  0.8876
  481SOL    HW2 1443   2.923   0.604   1.159  1.9642 -0.5619  0.9706
  482SOL     OW 1444   1.190   2.519   1.472 -0.6518 -0.1008  0.1868
  482SOL    HW1 1445   1.191   2.452   1.395  0.7809 -2.0811  1.8726
  482SOL    HW2 1446   1.246   2.490   1.558  3.4706  0.2492  2.2839
  483SOL     OW 1447   0.318   1.428   3.012  0.4130  0.8783 -0.4803
  483SOL    HW1 1448   0.396   1.446   2.950 -1.8869  2.2062  1.1691
  483SOL    HW2 1449   0.306   1.331   3.032 -4.0444  1.5890 -0.0951
  484SOL     OW 1450   1.388   1.603   2.347  0.1765 -0.4743 -0.4322
  484SOL    HW1 1451   1.358   1.561   2.431  1.1848  1.8171 -1.1422
  484SOL    HW2 1452   1.480   1.569   2.318  0.0953 -2.2733 -0.8621
  485SOL     OW 1453   0.213   0.305   2.363 -0.0842 -0.1837 -0.7794
  485SOL    HW1 1454   0.251   0.401   2.365  1.0678  0.9216 -2.2492
  485SOL    HW2 1455   0.266   0.240   2.305  0.0800 -1.0777 -0.0792
  486SOL     OW 1456   1.346   2.996   0.649  0.0071  0.1327  0.1672
  486SOL    HW1 1457   1.369   3.046   0.734  0.0820 -1.4944  1.1160
  486SOL    HW2 1458   1.423   3.010   0.585 -0.9839 -2.7221  2.2755
  487SOL     OW 1459   1.559   2.991   1.049 -0.3396 -0.0133 -0.0342
  487SOL    HW1 1460   1.484   3.053   1.083 -2.3217  0.6397  1.8436
  487SOL    HW2 1461   1.594   3.020   0.958 -0.8096 -0.1560 -1.8957
  488SOL     OW 1462   1.971   0.979   0.972 -0.3488  0.6548  0.4299
  488SOL    HW1 1463   1.951   1.077   0.975 -0.9532 -1.0998 -1.4627
  488SOL    HW2 1464   2.063   0.964   1.011 -2.5439 -0.5176  0.5799
  489SOL     OW 1465   1.099   2.987   1.309  0.1489  1.0792  0.5764
  489SOL    HW1 1466   1.135   2.908   1.368 -0.3453 -2.0968  1.8214
  489SOL    HW2 1467   1.094   2.957   1.208 -0.0297 -0.3958 -0.2747
  490SOL     OW 1468   0.951   0.784   0.300  0.0573  0.1666 -0.4941
  490SOL    HW1 1469   0.894   0.810   0.384 -2.3752 -0.0048 -1.5208
  490SOL    HW2 1470   1.014   0.710   0.324  1.3404  1.0564 -2.9463
  491SOL     OW 1471   0.977   2.751   0.093 -0.6850  0.2849 -0.5225
  491SOL    HW1 1472   0.979   2.705   0.187  0.1238 -1.1375  0.3255
  491SOL    HW2 1473   1.071   2.764   0.060 -1.9044 -0.9091  0.8400
  492SOL     OW 1474   1.209   1.246   2.125 -0.1882 -0.2410 -0.2383
  492SOL    HW1 1475   1.201   1.338   2.083  0.0169  0.2984  0.5432
  492SOL    HW2 1476   1.140   1.185   2.083 -1.0116  1.3752 -1.8914
  493SOL     OW 1477   3.013   2.102   0.246  0.3869  1.1391 -0.4700
  493SOL    HW1 1478   3.077   2.142   0.185 -0.4436 -2.1292 -0.0095
  493SOL    HW2 1479   2.928   2.097   0.197 -0.5586  0.4224  3.3540
  494SOL     OW 1480   2.065   1.484   0.499  0.3662 -0.2048 -0.1558
  494SOL    HW1 1481   1.980   1.537   0.491  3.3977  0.7175 -0.8234
  494SOL    HW2 1482   2.061   1.385   0.523  0.8713  0.7822 -0.8732
  495SOL     OW 1483   0.458   1.025   2.325 -0.4455  0.5746  0.5504
  495SOL    HW1 1484   0.429   1.015   2.229  0.5821  4.7180 -1.6013
  495SOL    HW2 1485   0.529   0.955   2.348  0.4036  2.1170  2.0467
  496SOL     OW 1486   2.985   3.028   2.104  0.2328  0.3876  0.2926
  496SOL    HW1 1487   3.041   3.077   2.042  1.0526  1.8890 -2.5376
  496SOL    HW2 1488   3.041   3.004   2.184 -2.4974 -0.9180 -0.9975
  497SOL     OW 1489   2.195   0.846   0.664  0.2150 -0.4582  0.6060
  497SOL    HW1 1490   2.263   0.853   0.589  1.3065 -3.0289 -2.1604
  497SOL    HW2 1491   2.111   0.896   0.637  0.9578 -0.9653  1.5433
  498SOL     OW 1492   2.924   2.636   3.010  0.7367  0.0968  0.0648
  498SOL    HW1 1493   2.829   2.649   3.009  1.3942 -2.0033  0.1492
  498SOL    HW2 1494   2.967   2.658   2.921 -1.5931  0.2224  0.3234
  499SOL     OW 1495   1.629   2.652   0.706 -0.0313 -0.2607  0.6921
  499SOL    HW1 1496   1.665   2.752   0.699  0.1313  0.6918  0.2942
  499SOL    HW2 1497   1.690   2.584   0.662  0.6156 -0.4369 -2.6865
  500SOL     OW 1498   1.365   0.830   2.475 -0.0740 -0.7498  0.1986
  500SOL    HW1 1499   1.446   0.771   2.480 -0.6647 -0.0866  0.3395
  500SOL    HW2 1500   1.389   0.925   2.447 -0.7954  0.7962 -0.6723
  501SOL     OW 1501   0.985   0.102   1.291  0.8831 -0.7556  0.8336
  501SOL    HW1 1502   1.066   0.158   1.316  1.9714  0.7435  0.6711
  501SOL    HW2 1503   1.012   0.001   1.293  0.6351  0.4936 -1.5418
  502SOL     OW 1504   3.106   0.073   1.932 -0.1337  0.2412 -0.4678
  502SOL    HW1 1505   0.081   0.030   1.939  2.7388 -2.6836 -0.6448
  502SOL    HW2 1506   3.097   0.126   1.847 -0.6997  1.0307 -1.0221
  503SOL     OW 1507   1.578   2.473   2.144  0.4372  0.8476 -0.2659
  503SOL    HW1 1508   1.642   2.539   2.187  0.8175  2.0935  1.6507
  503SOL    HW2 1509   1.614   2.376   2.158  2.4780 -1.8328  1.3959
  504SOL     OW 1510   1.953   0.284   1.890  0.6925  0.4256  0.1835
  504SOL    HW1 1511   2.027   0.299   1.824  0.5894  4.1429  0.7175
  504SOL    HW2 1512   1.898   0.203   1.874  0.1277  2.1802  1.0222
  505SOL     OW 1513   2.662   1.322   1.543 -0.0133 -0.5718 -0.4432
  505SOL    HW1 1514   2.695   1.270   1.464 -3.1704  0.3693  3.4066
  505SOL    HW2 1515   2.673   1.262   1.626 -1.8919 -1.0938 -1.1854
  506SOL     OW 1516   0.271   1.327   2.057  0.4382 -0.2026 -0.2427
  506SOL    HW1 1517   0.223   1.269   2.128 -0.8124  0.1329  1.5279
  506SOL    HW2 1518   0.268   1.283   1.964 -0.5326 -2.8282  1.7269
  507SOL     OW 1519   0.091   2.943   1.132  0.4817 -0.1738  0.2679
  507SOL    HW1 1520   0.087   3.016   1.065 -1.1359 -2.6882 -0.7521
  507SOL    HW2 1521   0.103   2.975   1.226  1.1488  0.8429  1.1507
  508SOL     OW 1522   1.277   0.773   1.428 -0.1687 -0.1469  0.3162
  508SOL    HW1 1523   1.317   0.741   1.339 -1.7388  1.8118 -0.0245
  508SOL    HW2 1524   1.190   0.723   1.446 -1.0614 -2.2886 -0.7220
  509SOL     OW 1525   1.458   2.227   1.488 -0.2325 -0.0021 -0.3105
  509SOL    HW1 1526   1.449   2.290   1.569 -2.0167 -0.3482  0.2335
  509SOL    HW2 1527   1.546   2.179   1.489  0.1708  2.1344  1.0315
  510SOL     OW 1528   2.689   1.471   0.181  0.1686  0.0872  0.0470
  510SOL    HW1 1529   2.724   1.399   0.241  0.0732 -1.8549 -0.0606
  510SOL    HW2 1530   2.716   1.447   0.085  1.1961  0.2468 -0.1437
  511SOL     OW 1531   0.541   1.477   1.318  0.2722 -0.2892 -0.6201
  511SOL    HW1 1532   0.623   1.425   1.299 -3.7062 -1.1910  0.3919
  511SOL    HW2 1533   0.515   1.561   1.260 -1.0527  3.0393 -1.1754
  512SOL     OW 1534   2.930   2.405   0.277  0.4079  0.5680  0.3754
  512SOL    HW1 1535   3.000   2.379   0.352  2.3163 -0.8485  3.2069
  512SOL    HW2 1536   2.837   2.416   0.311  0.9716  0.6488 -2.5010
  513SOL     OW 1537   0.717   1.707   2.784 -0.3482 -0.1243 -0.2035
  513SOL    HW1 1538   0.807   1.673   2.827  1.1305 -2.1969  0.8097
  513SOL    HW2 1539   0.707   1.667   2.693 -1.1011 -0.9585  4.4770
  514SOL     OW 1540   0.227   2.314   2.476  0.3046  0.0049  0.1203
  514SOL    HW1 1541   0.310   2.291   2.536  1.2115  0.5746  0.2253
  514SOL    HW2 1542   0.140   2.328   2.531 -0.4484  1.2631 -1.2154
  515SOL     OW 1543   2.021   1.326   1.844 -0.0680 -0.2008 -0.4525
  515SOL    HW1 1544   2.089   1.324   1.923 -1.1371  1.1373  1.6066
  515SOL    HW2 1545   2.051   1.279   1.762  0.3830 -0.3861  0.3741
  516SOL     OW 1546   1.855   2.528   0.164  0.0404  0.0311 -0.1366
  516SOL    HW1 1547   1.882   2.527   0.063 -0.7176 -0.2046 -0.8035
  516SOL    HW2 1548   1.875   2.432   0.193 -0.1425 -0.7431 -0.3717
  517SOL     OW 1549   0.891   1.741   0.661 -0.0777 -0.1162 -0.4146
  517SOL    HW1 1550   0.864   1.753   0.566  4.1465 -0.7902  1.1553
  517SOL    HW2 1551   0.972   1.677   0.666  1.8741  0.7695 -0.6308
  518SOL     OW 1552   2.111   2.513   1.739 -0.2999 -0.0962  0.4178
  518SOL    HW1 1553   2.057   2.597   1.712  2.1877 -1.5553  0.5860
  518SOL    HW2 1554   2.064   2.425   1.749 -0.0064  1.4237 -0.3990
  519SOL     OW 1555   2.114   2.413   1.158  0.2815 -0.4137  0.4148
  519SOL    HW1 1556   2.118   2.471   1.244 -1.0066 -0.5405  2.3887
  519SOL    HW2 1557   2.095   2.467   1.077 -1.4426 -0.8385  2.4903
  520SOL     OW 1558   2.825   2.268   2.406 -0.1000 -0.4181  0.1747
  520SOL    HW1 1559   2.727   2.267   2.379 -2.0616 -0.8444  3.8918
  520SOL    HW2 1560   2.889   2.288   2.330 -0.7441 -0.0608 -1.3745
  521SOL     OW 1561   2.893   1.018   2.512  0.0501  0.3494  0.1960
  521SOL    HW1 1562   2.902   1.102   2.458  0.8316  0.0305  2.1760
  521SOL    HW2 1563   2.794   0.990   2.506 -1.0268 -1.1232  0.2433
  522SOL     OW 1564   0.786   0.544   1.965  0.2584 -0.0060  0.5468
  522SOL    HW1 1565   0.888   0.540   1.959  1.1570  0.7094 -3.8005
  522SOL    HW2 1566   0.748   0.544   1.870 -0.7326  1.1827  2.2249
  523SOL     OW 1567   0.294   1.843   1.080 -0.8151  0.2456  0.0181
  523SOL    HW1 1568   0.310   1.886   1.172  1.1425  0.9886 -1.1853
  523SOL    HW2 1569   0.259   1.909   1.010 -0.3752 -0.5703  0.5493
  524SOL     OW 1570   1.988   2.841   0.274 -0.6756 -0.0058 -0.0396
  524SOL    HW1 1571   1.958   2.846   0.370  0.7164 -2.7376 -2.3620
  524SOL    HW2 1572   2.012   2.745   0.246 -0.3939 -0.7264 -0.7951
  525SOL     OW 1573   2.199   0.923   1.355  0.0824  0.2001 -0.2756
  525SOL    HW1 1574   2.217   0.827   1.323  1.0531  2.5258  1.3996
  525SOL    HW2 1575   2.220   0.988   1.275 -0.0701  0.1199  1.9786
  526SOL     OW 1576   0.933   2.470   0.618  0.1167 -0.6549 -0.8846
  526SOL    HW1 1577   0.945   2.570   0.616  0.8255  1.8620  2.1225
  526SOL    HW2 1578   0.917   2.439   0.712 -0.2508  0.2520 -0.0054
  527SOL     OW 1579   2.115   2.723   0.704 -0.1980  0.2831 -0.0895
  527SOL    HW1 1580   2.192   2.660   0.674  1.0694  1.1338  0.0207
  527SOL    HW2 1581   2.050   2.678   0.766  1.3267  2.1258  1.8879
  528SOL     OW 1582   1.575   0.661   0.369 -0.3800 -0.3053 -0.4518
  528SOL    HW1 1583   1.515   0.726   0.423 -1.1174 -0.0853  1.6916
  528SOL    HW2 1584   1.556   0.652   0.267 -0.2195 -3.1625 -1.2391
  529SOL     OW 1585   1.533   1.680   2.760 -0.2449 -0.2025 -0.0038
  529SOL    HW1 1586   1.506   1.669   2.857  0.7096 -2.6812  0.4115
  529SOL    HW2 1587   1.541   1.592   2.714 -0.3766 -0.5397  1.3633
  530SOL     OW 1588   2.319   0.361   0.174 -0.0011  0.2250  0.6299
  530SOL    HW1 1589   2.349   0.452   0.193  0.0779 -4.3800  0.1745
  530SOL    HW2 1590   2.397   0.294   0.195 -0.1324 -1.0360  0.2980
  531SOL     OW 1591   1.519   1.093   2.959  0.2655 -0.0240 -0.1873
  531SOL    HW1 1592   1.617   1.063   2.959 -2.1879  2.0128 -1.0317
  531SOL    HW2 1593   1.458   1.016   2.933 -0.1920  0.0495 -0.7522
  532SOL     OW 1594   1.489   0.543   0.687  0.1768 -0.3356 -0.0898
  532SOL    HW1 1595   1.517   0.447   0.674  2.6553  0.9548  2.5511
  532SOL    HW2 1596   1.568   0.606   0.671  2.6280 -0.2869 -1.0367
  533SOL     OW 1597   0.645   0.853   2.411  0.2618  0.0351 -0.2082
  533SOL    HW1 1598   0.709   0.788   2.361  1.3301 -1.6051  1.6103
  533SOL    HW2 1599   0.686   0.875   2.502 -0.0838  0.3626 -2.3812
  534SOL     OW 1600   1.569   0.132   2.586  0.4603  0.0285  0.3645
  534SOL    HW1 1601   1.602   0.042   2.621 -1.0558  0.2136 -0.5255
  534SOL    HW2 1602   1.526   0.190   2.659  1.0293 -0.2116 -0.4894
  535SOL     OW 1603   0.335   2.925   2.703  0.0210  0.2724 -0.5295
  535SOL    HW1 1604   0.324   2.825   2.724 -2.0215 -3.0088 -0.0858
  535SOL    HW2 1605   0.249   2.975   2.698  1.3357  2.3519 -0.7000
  536SOL     OW 1606   0.279   0.374   0.731  0.1717  0.0815  0.3229
  536SOL    HW1 1607   0.258   0.434   0.647 -1.3999  1.5558 -0.1582
  536SOL    HW2 1608   0.382   0.377   0.750  3.4388 -2.5343  1.5533
  537SOL     OW 1609   1.465   0.435   0.082  0.1164 -0.4427 -0.1092
  537SOL    HW1 1610   1.547   0.446   0.018  2.2506  0.0825 -1.4524
  537SOL    HW2 1611   1.399   0.375   0.030  1.1504  0.4102 -0.1341
  538SOL     OW 1612   2.931   2.143   3.004 -0.6136 -0.4883  0.4602
  538SOL    HW1 1613   2.959   2.054   2.962  0.1658  0.4974 -0.7147
  538SOL    HW2 1614   2.886   2.136   3.093 -0.0458  0.3136  1.6451
  539SOL     OW 1615   2.066   1.842   0.217 -0.4593 -0.3501 -0.3573
  539SOL    HW1 1616   1.994   1.832   0.287  2.0033  0.1616  0.9268
  539SOL    HW2 1617   2.032   1.821   0.127  1.7148  2.8095 -0.4889
  540SOL     OW 1618   0.514   2.771   1.559 -0.2798 -0.3603 -0.2899
  540SOL    HW1 1619   0.528   2.669   1.550 -1.0491  0.7624 -3.1207
  540SOL    HW2 1620   0.453   2.812   1.489  0.0018  4.7109  0.7606
  541SOL     OW 1621   2.202   0.152   2.135  0.0812 -0.0363  0.8674
  541SOL    HW1 1622   2.271   0.146   2.055  0.2613  0.2346 -0.0788
  541SOL    HW2 1623   2.117   0.201   2.105  0.6409  0.9309 -0.2090
  542SOL     OW 1624   0.273   0.465   2.645  0.3182 -0.0565 -0.4153
  542SOL    HW1 1625   0.191   0.406   2.628 -1.6408 -1.7955  0.7692
  542SOL    HW2 1626   0.248   0.560   2.672 -3.5039 -1.1236  0.0934
  543SOL     OW 1627   0.252   0.862   1.335 -0.2100  0.2406 -0.6073
  543SOL    HW1 1628   0.270   0.869   1.236  1.6019 -1.2830  1.5321
  543SOL    HW2 1629   0.209   0.948   1.365 -2.4588  0.5758  1.5221
  544SOL     OW 1630   2.609   0.605   1.082  0.4821 -0.6513 -0.4218
  544SOL    HW1 1631   2.706   0.578   1.086  0.2023 -0.5647  2.0453
  544SOL    HW2 1632   2.563   0.560   1.001  1.5428 -0.4824 -1.4465
  545SOL     OW 1633   1.615   2.145   0.579  0.2345 -0.4914  0.6463
  545SOL    HW1 1634   1.554   2.062   0.563  0.0148 -1.8750  1.9379
  545SOL    HW2 1635   1.595   2.199   0.669  1.4204 -0.7299  0.0735
  546SOL     OW 1636   2.094   3.042   1.539 -0.1313  0.1895  0.1867
  546SOL    HW1 1637   2.180   3.069   1.586 -1.0171 -1.6683 -1.6557
  546SOL    HW2 1638   2.115   3.054   1.441  2.1750 -2.3611 -2.7412
  547SOL     OW 1639   0.524   3.034   2.463  0.6353  0.1332 -0.2951
  547SOL    HW1 1640   0.466   3.031   2.548 -2.3213 -2.5550 -1.9823
  547SOL    HW2 1641   0.601   3.106   2.474  1.6928  1.2638  1.4579
  548SOL     OW 1642   1.773   0.936   0.091 -0.3515 -0.9821 -0.3697
  548SOL    HW1 1643   1.765   0.988   3.120  0.2318  0.7816 -0.9351
  548SOL    HW2 1644   1.702   0.865   0.083  0.0840 -0.3999  1.7421
  549SOL     OW 1645   2.954   0.915   0.347 -0.1911 -0.1396  0.3020
  549SOL    HW1 1646   2.962   0.821   0.374  0.6136  0.4896 -1.1654
  549SOL    HW2 1647   2.878   0.965   0.395 -2.1624  1.7194 -3.0616
  550SOL     OW 1648   2.011   1.868   0.617 -0.4695 -0.0625 -0.1376
  550SOL    HW1 1649   1.915   1.873   0.582  2.1456  0.6851 -2.6649
  550SOL    HW2 1650   2.014   1.853   0.717  0.7430 -0.8295  0.9556
  551SOL     OW 1651   1.339   0.149   0.849 -0.7117  0.0666  0.2431
  551SOL    HW1 1652   1.344   0.101   0.936 -2.5599  0.7714 -0.9745
  551SOL    HW2 1653   1.265   0.211   0.836  1.4596 -2.9699  0.8136
  552SOL     OW 1654   2.955   2.734   2.308  0.0092 -0.3369 -0.3077
  552SOL    HW1 1655   3.042   2.729   2.359 -2.1735  1.4832  0.1033
  552SOL    HW2 1656   2.974   2.730   2.208 -3.6450 -0.1529  0.9177
  553SOL     OW 1657   0.034   3.016   2.319  0.3639 -0.6599 -0.4252
  553SOL    HW1 1658   0.088   2.932   2.332 -0.0268  1.4870 -1.3946
  553SOL    HW2 1659   0.099   3.094   2.296  1.7257  4.1206 -0.1164
  554SOL     OW 1660   0.594   3.095   1.303  0.8018  0.5304  0.0498
  554SOL    HW1 1661   0.548   0.042   1.241 -1.1706 -0.4084  0.0894
  554SOL    HW2 1662   0.647   0.017   1.376  1.1061 -1.8352 -0.2375
  555SOL     OW 1663   2.570   2.243   2.295  0.3558  0.3916  0.1725
  555SOL    HW1 1664   2.538   2.222   2.390  0.2761  0.7113  1.1480
  555SOL    HW2 1665   2.504   2.308   2.246  0.3872  0.9721  0.3708
  556SOL     OW 1666   1.213   0.249   2.617  0.4366 -0.1345  0.5495
  556SOL    HW1 1667   1.144   0.312   2.664  0.3006  0.7021  0.6358
  556SOL    HW2 1668   1.165   0.161   2.585 -0.2228  1.0047 -0.9278
  557SOL     OW 1669   0.405   1.588   2.457  0.0624 -0.0514 -0.7027
  557SOL    HW1 1670   0.367   1.644   2.535 -1.7550 -1.6736 -0.5052
  557SOL    HW2 1671   0.400   1.490   2.475  0.7228  0.4638  2.2315
  558SOL     OW 1672   2.547   0.803   2.927 -0.4461 -0.0887  0.3095
  558SOL    HW1 1673   2.520   0.831   2.831 -3.0757  0.0503 -1.3451
  558SOL    HW2 1674   2.480   0.749   2.975  0.4801  0.8536  0.4702
  559SOL     OW 1675   2.530   2.024   1.869 -0.4104  0.0584  0.3583
  559SOL    HW1 1676   2.519   2.006   1.968 -1.5884 -1.4573  0.1275
  559SOL    HW2 1677   2.523   2.124   1.854 -0.2990 -1.1357  1.0879
  560SOL     OW 1678   2.558   0.966   2.170 -0.0246 -0.1852  0.5723
  560SOL    HW1 1679   2.482   0.904   2.142 -1.5992 -3.2264  0.2427
  560SOL    HW2 1680   2.650   0.933   2.143  1.5451 -3.5759 -2.2060
  561SOL     OW 1681   0.080   3.063   2.743 -0.5614  0.5462 -0.3253
  561SOL    HW1 1682   0.058   0.011   2.674 -1.8582  0.1377  0.8990
  561SOL    HW2 1683   3.112   3.023   2.780 -1.3444 -6.3637  3.1770
  562SOL     OW 1684   0.928   1.222   1.607 -0.3848  0.8419 -0.7353
  562SOL    HW1 1685   0.938   1.131   1.556  1.9083  1.6684 -3.5121
  562SOL    HW2 1686   0.830   1.257   1.614 -1.5615  0.5082 -0.6373
  563SOL     OW 1687   1.436   0.283   2.765 -0.3996  0.3672 -0.7489
  563SOL    HW1 1688   1.417   0.201   2.823  2.3654 -0.8923  1.3937
  563SOL    HW2 1689   1.362   0.294   2.696 -0.9494 -1.5467  2.1085
  564SOL     OW 1690   0.033   2.133   0.918 -0.4511 -0.3288  0.1957
  564SOL    HW1 1691   0.029   2.166   1.011 -0.5472 -0.2872 -0.0868
  564SOL    HW2 1692   3.061   2.156   0.885  2.5699 -2.6985  2.0037
  565SOL     OW 1693   0.700   2.092   1.749  0.2115  0.1833 -0.0067
  565SOL    HW1 1694   0.622   2.155   1.737 -2.3044  1.3716  4.8997
  565SOL    HW2 1695   0.772   2.099   1.675  0.9367  2.3013  1.6026
  566SOL     OW 1696   1.347   2.528   1.976 -0.4781 -0.1163 -0.1969
  566SOL    HW1 1697   1.257   2.494   2.016 -0.1088 -0.8964  0.6058
  566SOL    HW2 1698   1.427   2.489   2.021 -2.9596 -1.5627 -2.4994
  567SOL     OW 1699   2.154   2.777   1.014  0.0714 -0.2988 -0.4455
  567SOL    HW1 1700   2.238   2.738   1.051 -1.6317  2.0408  0.4516
  567SOL    HW2 1701   2.179   2.841   0.941 -0.6748 -1.3955  2.5811
  568SOL     OW 1702   1.968   0.996   0.571 -0.1227  0.5769  0.1269
  568SOL    HW1 1703   1.928   0.930   0.500 -3.2454  0.3293 -0.9122
  568SOL    HW2 1704   1.993   1.089   0.537  0.7772 -1.1813 -1.2551
  569SOL     OW 1705   2.912   1.817   2.591  0.1573 -0.3954 -0.5438
  569SOL    HW1 1706   2.894   1.907   2.635  0.0470  1.8981 -0.1246
  569SOL    HW2 1707   2.912   1.742   2.662 -2.9150 -0.7506 -0.0351
  570SOL     OW 1708   2.949   0.016   1.280 -0.1771 -0.5665 -0.4727
  570SOL    HW1 1709   2.956   0.094   1.215 -0.8511 -0.3682  0.8303
  570SOL    HW2 1710   3.037   0.001   1.326 -1.3560 -1.5384 -1.4237
  571SOL     OW 1711   3.088   0.381   1.779 -0.4381 -0.0473  0.0695
  571SOL    HW1 1712   0.060   0.363   1.816 -1.3206  0.9517  0.9558
  571SOL    HW2 1713   3.048   0.470   1.800  2.2576 -1.7004  0.4636
  572SOL     OW 1714   0.040   2.532   1.090  0.3943 -0.6399 -0.1729
  572SOL    HW1 1715   0.107   2.482   1.032  1.4620  2.8179  2.6230
  572SOL    HW2 1716   0.066   2.518   1.188 -0.3088 -3.7316 -1.6047
  573SOL     OW 1717   1.036   0.605   3.051  0.3965  0.8787  0.0874
  573SOL    HW1 1718   0.972   0.666   3.100 -0.9830 -2.4167  0.8075
  573SOL    HW2 1719   1.028   0.505   3.087 -1.8757 -2.2341  0.3810
  574SOL     OW 1720   2.668   2.732   3.001 -0.0362 -0.2017 -0.0699
  574SOL    HW1 1721   2.641   2.674   2.921 -1.7803 -0.7130  0.6042
  574SOL    HW2 1722   2.686   2.834   2.976  2.1786  0.9027  0.8309
  575SOL     OW 1723   1.523   2.516   1.239 -0.5120 -0.3083  0.2213
  575SOL    HW1 1724   1.436   2.471   1.263  0.3728  0.1685  1.0192
  575SOL    HW2 1725   1.510   2.608   1.193 -0.8548 -0.2339 -0.6776
  576SOL     OW 1726   1.096   2.967   1.040  0.2315  0.0456 -1.2564
  576SOL    HW1 1727   1.132   2.910   0.962 -0.4114 -1.3525  0.5135
  576SOL    HW2 1728   0.992   2.968   1.030  0.3877  1.9068 -1.6625
  577SOL     OW 1729   2.490   1.375   0.898  0.4586  0.4312  0.4307
  577SOL    HW1 1730   2.516   1.431   0.816  3.9327  1.6030  0.0576
  577SOL    HW2 1731   2.572   1.332   0.932 -0.8253 -1.1181 -1.0930
  578SOL     OW 1732   1.537   0.281   0.676  0.1281 -0.4538  0.3670
  578SOL    HW1 1733   1.634   0.244   0.678 -0.7309  0.3383 -0.3134
  578SOL    HW2 1734   1.466   0.214   0.708 -0.1732  0.6749 -0.7387
  579SOL     OW 1735   2.356   0.599   3.007  0.1452 -0.3681 -0.0727
  579SOL    HW1 1736   2.384   0.563   2.914 -1.3080 -0.7721  1.4800
  579SOL    HW2 1737   2.257   0.631   3.004 -2.1678  0.5400 -2.7542
  580SOL     OW 1738   1.770   0.902   2.388  0.4826 -0.5415 -0.5454
  580SOL    HW1 1739   1.844   0.891   2.462 -1.0575 -1.1484  2.3700
  580SOL    HW2 1740   1.802   0.914   2.297 -2.4073 -2.4045  2.7900
  581SOL     OW 1741   0.340   0.943   1.090 -0.1611 -0.1551  0.0597
  581SOL    HW1 1742   0.375   1.034   1.116  0.7751  2.0946  0.2819
  581SOL    HW2 1743   0.407   0.887   1.033  2.0231 -1.0979 -4.6003
  582SOL     OW 1744   2.795   0.141   1.833  0.1804 -0.0810  0.4791
  582SOL    HW1 1745   2.800   0.046   1.872  0.3818 -1.3007  0.7037
  582SOL    HW2 1746   2.880   0.163   1.779  0.2490 -0.8675  1.0674
  583SOL     OW 1747   0.228   0.395   1.927 -0.0135  0.8259  0.1656
  583SOL    HW1 1748   0.151   0.392   1.993 -1.2859 -3.2479  2.4603
  583SOL    HW2 1749   0.285   0.312   1.940 -3.8050 -1.5564  1.0735
  584SOL     OW 1750   1.385   2.080   2.937  0.1765 -0.4330 -0.0878
  584SOL    HW1 1751   1.335   1.995   2.923 -0.6207  0.8198 -0.7869
  584SOL    HW2 1752   1.389   2.112   3.033 -1.0977  0.6855 -1.5478
  585SOL     OW 1753   0.304   2.698   2.809 -0.4930 -0.2514 -0.5362
  585SOL    HW1 1754   0.299   2.710   2.911 -0.3523  3.2473  0.2985
  585SOL    HW2 1755   0.378   2.636   2.779  0.2305  2.7119 -0.4962
  586SOL     OW 1756   1.995   1.784   2.631  0.2320  0.0182  0.5831
  586SOL    HW1 1757   2.000   1.867   2.570 -2.8405 -0.0709 -2.1735
  586SOL    HW2 1758   1.946   1.701   2.591 -0.1300  0.1732  0.2421
  587SOL     OW 1759   2.283   2.333   0.195  0.5507 -0.4747 -0.4192
  587SOL    HW1 1760   2.372   2.325   0.151 -2.1406 -0.9481  0.1197
  587SOL    HW2 1761   2.258   2.245   0.239  1.1330 -1.4357 -2.5566
  588SOL     OW 1762   2.622   0.339   0.955 -0.6170 -0.2144  0.3822
  588SOL    HW1 1763   2.533   0.382   0.972  0.7335 -0.1825 -0.1957
  588SOL    HW2 1764   2.608   0.248   0.914  2.4621  2.2773  1.2218
  589SOL     OW 1765   0.403   0.861   0.663 -0.0721  0.5676  0.5626
  589SOL    HW1 1766   0.465   0.884   0.588  0.3395  0.9990  1.7510
  589SOL    HW2 1767   0.307   0.892   0.645  0.6597 -0.8899 -0.1901
  590SOL     OW 1768   2.136   2.107   0.277 -0.1919  0.5104 -0.4425
  590SOL    HW1 1769   2.142   2.096   0.382 -2.3725 -0.0767  1.0021
  590SOL    HW2 1770   2.138   2.012   0.238 -2.1087 -0.9421 -1.5709
  591SOL     OW 1771   0.470   2.219   1.200  0.1747 -0.1529 -0.0901
  591SOL    HW1 1772   0.405   2.151   1.230  2.4532  1.1364 -0.6968
  591SOL    HW2 1773   0.427   2.313   1.193  0.4284  0.2961 -0.8714
  592SOL     OW 1774   1.104   0.707   1.183  0.4703 -0.7733 -0.9175
  592SOL    HW1 1775   1.097   0.675   1.280 -0.3926  3.1499  2.2467
  592SOL    HW2 1776   1.181   0.657   1.146 -2.4021  1.3826  3.1056
  593SOL     OW 1777   1.024   1.359   1.369 -0.4453 -0.0685  0.1583
  593SOL    HW1 1778   1.118   1.398   1.370  2.1128 -1.2466  0.5274
  593SOL    HW2 1779   1.004   1.317   1.458 -0.9148  0.1645  1.0610
  594SOL     OW 1780   0.956   2.102   0.474  0.8525 -0.3910 -0.0343
  594SOL    HW1 1781   0.937   2.054   0.388  0.7636  0.1757  0.1364
  594SOL    HW2 1782   1.004   2.191   0.455 -1.0358  0.7122 -3.5626
  595SOL     OW 1783   1.564   0.693   1.511  0.0400 -0.2914 -0.4399
  595SOL    HW1 1784   1.592   0.681   1.608 -0.4734  0.7952 -0.6860
  595SOL    HW2 1785   1.466   0.712   1.496  1.5279  1.2501  0.0370
  596SOL     OW 1786   2.648   0.955   1.382  0.4313  0.3902  0.0319
  596SOL    HW1 1787   2.685   1.050   1.360 -0.9251  0.5682 -1.0871
  596SOL    HW2 1788   2.570   0.969   1.446  0.3777  1.6246 -3.2334
  597SOL     OW 1789   0.548   2.581   2.272  0.5102  0.1013  0.1923
  597SOL    HW1 1790   0.560   2.642   2.356 -1.2879  1.9424  1.1573
  597SOL    HW2 1791   0.626   2.514   2.261  0.3639  1.1339  1.2328
  598SOL     OW 1792   2.523   1.772   1.766 -0.4371  0.0419 -0.2435
  598SOL    HW1 1793   2.538   1.852   1.827  1.5119  0.2238 -0.1016
  598SOL    HW2 1794   2.443   1.778   1.704 -0.5036  1.9666  2.6336
  599SOL     OW 1795   0.898   3.078   3.039  0.1304  0.3094 -0.2135
  599SOL    HW1 1796   0.872   3.033   2.945  0.6903  0.4607 -2.8191
  599SOL    HW2 1797   0.857   3.017   3.110 -0.8323 -0.4611  0.4502
  600SOL     OW 1798   0.042   2.070   2.704  0.3674 -0.3053  0.1993
  600SOL    HW1 1799   0.048   2.166   2.672  2.1873  0.4598  0.7477
  600SOL    HW2 1800   0.032   2.003   2.627  0.1675  1.5643  2.9223
  601SOL     OW 1801   0.534   0.959   1.452  0.2281  0.1993 -0.0872
  601SOL    HW1 1802   0.439   0.928   1.425  0.2301  2.0015 -0.8025
  601SOL    HW2 1803   0.540   0.949   1.554 -3.2857  0.4365  1.1865
  602SOL     OW 1804   0.816   2.943   0.708  0.9223 -0.0184 -0.6884
  602SOL    HW1 1805   0.882   2.865   0.681  3.2912 -0.0534 -0.0532
  602SOL    HW2 1806   0.730   2.897   0.736 -1.6979 -0.4122  0.3930
  603SOL     OW 1807   0.409   0.320   2.900  0.0433 -0.0972  0.3289
  603SOL    HW1 1808   0.408   0.344   2.803 -2.2474 -0.0729 -0.2074
  603SOL    HW2 1809   0.327   0.272   2.926 -2.1566  2.2939  1.0528
  604SOL     OW 1810   0.772   2.740   1.583 -0.1089 -0.0328 -0.4571
  604SOL    HW1 1811   0.812   2.828   1.613 -0.0270 -1.2752 -1.4362
  604SOL    HW2 1812   0.672   2.754   1.591  1.0219 -2.4307  1.3018
  605SOL     OW 1813   1.474   1.178   2.154  0.0873  0.1230  0.1095
  605SOL    HW1 1814   1.375   1.195   2.140  0.7744 -1.0771 -0.4552
  605SOL    HW2 1815   1.514   1.168   2.063 -1.4803  2.0001 -0.7685
  606SOL     OW 1816   2.281   2.746   2.897  0.2535 -0.1989 -0.2542
  606SOL    HW1 1817   2.311   2.720   2.996  4.1877 -0.4657  2.8961
  606SOL    HW2 1818   2.365   2.740   2.836  1.4608  1.7165 -0.4917
  607SOL     OW 1819   0.897   0.212   1.044  0.0185  0.0103 -0.7050
  607SOL    HW1 1820   0.927   0.185   1.137 -0.2422 -1.5160 -1.4813
  607SOL    HW2 1821   0.852   0.139   0.997 -1.7213  3.5280  1.9338
  608SOL     OW 1822   0.126   1.431   2.375  0.0481 -0.2102 -0.0062
  608SOL    HW1 1823   0.165   1.465   2.286  0.7234  4.1166 -0.0605
  608SOL    HW2 1824   0.037   1.477   2.405 -2.9982  0.9943  0.4868
  609SOL     OW 1825   1.579   1.460   0.371 -0.5156 -0.2196 -0.1403
  609SOL    HW1 1826   1.605   1.507   0.284  0.1319 -1.6196 -1.1237
  609SOL    HW2 1827   1.530   1.374   0.353  1.8693  0.1206 -1.9455
  610SOL     OW 1828   3.038   0.206   1.103  0.5868  0.1798  0.3243
  610SOL    HW1 1829   3.083   0.124   1.060  0.7625  2.3891 -2.1117
  610SOL    HW2 1830   3.106   0.275   1.118 -3.2002 -3.7939 -0.8125
  611SOL     OW 1831   1.493   1.227   0.698 -1.0570  0.4517  0.0509
  611SOL    HW1 1832   1.467   1.315   0.656 -3.0576  0.1000  1.3939
  611SOL    HW2 1833   1.559   1.171   0.644  2.9217  0.6779  0.4052
  612SOL     OW 1834   2.270   1.527   0.288  0.4579 -0.0888 -0.5415
  612SOL    HW1 1835   2.201   1.488   0.361 -1.0548 -2.3859 -0.8027
  612SOL    HW2 1836   2.293   1.622   0.302 -0.9960  0.3945 -2.3118
  613SOL     OW 1837   1.656   1.076   0.499 -0.5817  0.6284  0.2149
  613SOL    HW1 1838   1.701   1.057   0.590 -0.9848  1.2482  1.2562
  613SOL    HW2 1839   1.717   1.124   0.429 -0.4689 -0.5172  0.7776
  614SOL     OW 1840   2.807   0.116   2.199  0.5747 -0.4219 -0.1138
  614SOL    HW1 1841   2.877   0.054   2.161  0.9697  1.7969 -0.9492
  614SOL    HW2 1842   2.839   0.218   2.204 -0.9792  2.1077  0.9855
  615SOL     OW 1843   0.805   2.089   0.958 -0.1856 -0.4247 -0.2984
  615SOL    HW1 1844   0.831   1.991   0.964 -0.3732  1.2950 -1.6223
  615SOL    HW2 1845   0.792   2.110   0.861 -1.3799  1.1908  0.4677
  616SOL     OW 1846   1.901   1.120   2.702 -0.2026 -0.4935 -0.2553
  616SOL    HW1 1847   1.828   1.158   2.643 -1.2822  0.7400 -0.3451
  616SOL    HW2 1848   1.912   1.024   2.681  0.4236  3.4151  1.9223
  617SOL     OW 1849   1.300   0.291   3.066  0.0790 -0.3026 -0.5797
  617SOL    HW1 1850   1.209   0.300   3.106  1.5058 -0.9649  0.0269
  617SOL    HW2 1851   1.308   0.282   2.964  1.4335 -1.2652  1.3351
  618SOL     OW 1852   2.235   2.197   2.398  0.0098 -0.8605  0.2313
  618SOL    HW1 1853   2.254   2.139   2.319  0.2433  1.6216  0.6091
  618SOL    HW2 1854   2.271   2.156   2.480 -1.3419  0.3841 -2.8588
  619SOL     OW 1855   2.156   2.027   0.927  0.0003 -0.0875 -0.4960
  619SOL    HW1 1856   2.084   2.077   0.872 -1.3444 -1.5162 -2.2116
  619SOL    HW2 1857   2.117   1.931   0.940  0.0098 -0.1033 -1.3769
  620SOL     OW 1858   2.156   2.847   2.019 -0.2237 -0.5697 -0.0699
  620SOL    HW1 1859   2.250   2.843   1.978  0.0782  1.4016 -1.4165
  620SOL    HW2 1860   2.126   2.752   2.041  0.2062  2.0521 -1.2549
  621SOL     OW 1861   3.053   1.570   0.723 -0.2347 -0.1404  0.2111
  621SOL    HW1 1862   0.032   1.541   0.741  3.4813  1.1650 -0.7020
  621SOL    HW2 1863   3.047   1.667   0.696 -0.9836  0.7557 -0.3856
  622SOL     OW 1864   1.121   1.777   2.908 -0.3497 -0.0309  0.6106
  622SOL    HW1 1865   1.174   1.818   2.830  0.0853 -0.0829  1.9006
  622SOL    HW2 1866   1.159   1.812   2.999 -2.4438  1.1567 -0.9807
  623SOL     OW 1867   2.716   2.704   2.128 -0.1353 -0.2572 -0.3107
  623SOL    HW1 1868   2.644   2.685   2.204 -2.2595  0.0684  0.2813
  623SOL    HW2 1869   2.787   2.766   2.159  0.8915 -0.1401  0.7125
  624SOL     OW 1870   0.699   2.244   0.367 -0.7370  0.2353  0.1942
  624SOL    HW1 1871   0.729   2.206   0.458  0.7498  0.9372 -0.2401
  624SOL    HW2 1872   0.668   2.173   0.305 -0.1021  2.6089 -0.0495
  625SOL     OW 1873   0.315   1.710   2.233 -0.1716  0.5260 -0.0082
  625SOL    HW1 1874   0.319   1.641   2.311 -0.3182  1.3542 -0.4618
  625SOL    HW2 1875   0.399   1.771   2.227  1.9956  1.2432 -0.3993
  626SOL     OW 1876   0.783   2.709   3.035 -0.0780  0.4823 -0.1534
  626SOL    HW1 1877   0.854   2.732   3.109  2.2578 -0.6116  1.6981
  626SOL    HW2 1878   0.728   2.630   3.065  2.3537  1.2505  1.8245
  627SOL     OW 1879   1.630   1.636   0.023  0.3423 -0.1867  0.0533
  627SOL    HW1 1880   1.546   1.650   3.090 -0.7876  3.4076 -0.1680
  627SOL    HW2 1881   1.664   1.729   0.041  1.2640 -0.9140 -0.0649
  628SOL     OW 1882   1.536   2.285   0.810  0.0408  0.1341  0.0063
  628SOL    HW1 1883   1.458   2.236   0.847 -0.2756 -1.8808 -0.8155
  628SOL    HW2 1884   1.597   2.310   0.884 -0.5786 -2.4524 -1.0689
  629SOL     OW 1885   0.422   0.265   1.671  0.9631 -0.5090 -0.2441
  629SOL    HW1 1886   0.520   0.286   1.650  0.3054  1.8178  2.7320
  629SOL    HW2 1887   0.412   0.244   1.770 -1.3089 -0.8896 -2.5610
  630SOL     OW 1888   2.473   0.643   1.572 -0.0625 -0.0695  0.1920
  630SOL    HW1 1889   2.396   0.710   1.561 -1.2979 -1.7854 -0.2681
  630SOL    HW2 1890   2.519   0.624   1.483 -1.1816  0.6529  0.0935
  631SOL     OW 1891   1.377   0.671   1.171 -0.1867 -0.4155 -0.2940
  631SOL    HW1 1892   1.444   0.705   1.100 -1.4457 -3.5465 -0.6855
  631SOL    HW2 1893   1.386   0.568   1.172 -1.0415  1.9663 -0.2512
  632SOL     OW 1894   2.825   1.008   2.108  0.0226  0.5261  0.2599
  632SOL    HW1 1895   2.860   1.062   2.029 -0.7687 -1.5714 -0.5941
  632SOL    HW2 1896   2.885   0.924   2.118 -0.5736  2.5013  2.4163
  633SOL     OW 1897   1.360   0.866   2.930 -0.6115  0.2428  0.3175
  633SOL    HW1 1898   1.337   0.805   3.009 -0.7529 -1.2533  2.3046
  633SOL    HW2 1899   1.390   0.802   2.851  0.0039 -3.6743 -1.1519
  634SOL     OW 1900   0.577   2.547   0.031  0.4826  0.0536  0.8499
  634SOL    HW1 1901   0.567   2.621   0.101 -0.0498  2.2029  1.8719
  634SOL    HW2 1902   0.526   2.464   0.058 -0.0445  2.0857  1.9560
  635SOL     OW 1903   2.865   1.525   1.541 -0.2500 -0.1289 -0.3202
  635SOL    HW1 1904   2.782   1.468   1.534  2.3282  1.6231 -0.4881
  635SOL    HW2 1905   2.845   1.619   1.572  2.1910 -0.1565  0.8114
  636SOL     OW 1906   0.135   1.753   0.226 -0.7749 -0.5905  0.5680
  636SOL    HW1 1907   0.129   1.675   0.157  0.4358  0.5628  1.8987
  636SOL    HW2 1908   0.227   1.745   0.267 -1.1531  0.2072  1.4221
  637SOL     OW 1909   0.111   2.629   0.582 -0.3831 -0.2041  0.0845
  637SOL    HW1 1910   0.013   2.639   0.608  1.1518 -0.7751 -0.7756
  637SOL    HW2 1911   0.156   2.722   0.577 -1.6456 -2.4170 -2.3719
  638SOL     OW 1912   3.053   2.912   0.187  0.4266 -0.0886 -0.4057
  638SOL    HW1 1913   3.022   2.813   0.181 -0.1784  1.7490 -2.5336
  638SOL    HW2 1914   0.021   2.920   0.142  1.2212 -0.8497  1.6222
  639SOL     OW 1915   1.582   0.508   2.744 -0.1626 -0.1816 -0.2819
  639SOL    HW1 1916   1.517   0.588   2.720  1.6084  0.7741  0.5412
  639SOL    HW2 1917   1.526   0.426   2.751 -2.5453  1.9106  0.4487
  640SOL     OW 1918   2.209   2.116   1.363 -0.3969 -0.5838 -0.2840
  640SOL    HW1 1919   2.235   2.141   1.266  1.0561 -0.9920 -0.1954
  640SOL    HW2 1920   2.264   2.171   1.428  1.3438 -1.1618  0.0079
  641SOL     OW 1921   2.953   2.868   1.237 -0.1697 -0.1014  0.2090
  641SOL    HW1 1922   3.048   2.885   1.202  0.7857 -1.9764 -0.4093
  641SOL    HW2 1923   2.913   2.943   1.296 -1.0801  0.0940  1.6919
  642SOL     OW 1924   1.515   1.331   1.588  0.1614  0.1442 -0.1482
  642SOL    HW1 1925   1.539   1.423   1.626 -0.5918 -1.1056  1.4762
  642SOL    HW2 1926   1.583   1.268   1.632 -0.6461  0.3995 -1.6447
  643SOL     OW 1927   0.698   1.641   2.491  0.1512 -0.0116 -0.3473
  643SOL    HW1 1928   0.600   1.625   2.469 -0.4649  1.0626  0.0036
  643SOL    HW2 1929   0.738   1.723   2.447  1.1461 -0.2975  2.6989
  644SOL     OW 1930   1.903   2.967   2.434  0.2863  0.2858 -0.0425
  644SOL    HW1 1931   1.997   2.951   2.405 -3.2042  0.1252  2.3655
  644SOL    HW2 1932   1.840   2.937   2.360 -0.2642  0.4128  1.4882
  645SOL     OW 1933   1.429   0.954   1.854  0.3973  0.6914 -0.5867
  645SOL    HW1 1934   1.370   1.033   1.864 -3.2763 -0.6069  0.8621
  645SOL    HW2 1935   1.497   0.954   1.777  1.3341 -1.6307  1.4313
  646SOL     OW 1936   1.266   2.552   3.024 -0.1252  0.0666  0.2755
  646SOL    HW1 1937   1.262   2.560   2.921 -2.1302  1.1359  1.6573
  646SOL    HW2 1938   1.357   2.505   3.050 -0.2970 -1.0908  0.0964
  647SOL     OW 1939   1.116   2.746   0.876 -0.0639 -0.0684 -0.2260
  647SOL    HW1 1940   1.108   2.682   0.956  0.7240  1.2076 -0.0588
  647SOL    HW2 1941   1.196   2.718   0.820 -0.9815  1.5937 -1.5345
  648SOL     OW 1942   2.856   2.637   1.351 -0.4386 -0.3931 -0.6304
  648SOL    HW1 1943   2.921   2.625   1.430  1.5004 -0.0711 -1.6572
  648SOL    HW2 1944   2.887   2.716   1.290 -0.1715 -0.5926 -0.0373
  649SOL     OW 1945   0.864   2.253   2.529 -0.0236 -0.1119  0.0832
  649SOL    HW1 1946   0.944   2.208   2.576  0.8655  0.5533  2.0427
  649SOL    HW2 1947   0.796   2.278   2.596 -0.6188 -1.0778 -0.7472
  650SOL     OW 1948   2.871   2.093   2.626  0.0274  0.5211  0.1700
  650SOL    HW1 1949   2.969   2.115   2.643  0.7303 -1.4465 -0.3714
  650SOL    HW2 1950   2.844   2.111   2.527 -1.9133  2.7924 -0.7713
  651SOL     OW 1951   2.361   2.377   2.170 -0.1861  0.1746  0.1230
  651SOL    HW1 1952   2.276   2.401   2.221 -0.4935  2.5618  4.4912
  651SOL    HW2 1953   2.351   2.419   2.076 -3.7090  1.1215 -2.0548
  652SOL     OW 1954   2.433   2.695   1.314 -0.2518  0.2335 -0.6956
  652SOL    HW1 1955   2.373   2.733   1.391 -1.8421 -0.6782  1.1210
  652SOL    HW2 1956   2.494   2.618   1.340 -0.0550 -0.8701 -0.9674
  653SOL     OW 1957   2.728   1.299   0.983  0.4727  0.2500  0.1059
  653SOL    HW1 1958   2.730   1.201   0.973  2.1259  0.2483  0.7098
  653SOL    HW2 1959   2.808   1.340   0.945  0.1082 -0.9434  2.2603
  654SOL     OW 1960   1.008   0.384   2.767 -0.4565 -0.5445  0.1927
  654SOL    HW1 1961   1.029   0.474   2.799 -0.7154  1.9173  0.5017
  654SOL    HW2 1962   1.012   0.319   2.847 -1.1428  0.9401 -2.6100
  655SOL     OW 1963   0.850   0.520   0.929  0.6040 -0.2308  0.2063
  655SOL    HW1 1964   0.829   0.594   0.992 -1.3990 -5.4870 -0.0295
  655SOL    HW2 1965   0.814   0.432   0.968  1.8884 -2.7845  1.5304
  656SOL     OW 1966   0.490   2.403   1.973 -0.1562 -0.0863  0.6070
  656SOL    HW1 1967   0.398   2.364   1.998 -2.2348 -2.0805 -1.4210
  656SOL    HW2 1968   0.510   2.502   1.997  0.3646  2.5425  1.1274
  657SOL     OW 1969   2.368   0.899   0.435 -0.2124  0.1922 -0.0077
  657SOL    HW1 1970   2.347   0.818   0.378 -0.0567  0.4836  2.9297
  657SOL    HW2 1971   2.466   0.928   0.433 -3.5907  2.1388  0.0212
  658SOL     OW 1972   1.681   2.009   1.461 -0.5937  0.3059  0.0943
  658SOL    HW1 1973   1.721   2.080   1.528 -1.1479  3.6494  1.1068
  658SOL    HW2 1974   1.745   1.983   1.388  3.1017  1.9598  0.6202
  659SOL     OW 1975   2.791   1.777   0.039 -0.1055  0.5030  0.1116
  659SOL    HW1 1976   2.885   1.773   3.120 -0.3177 -0.8344 -0.0570
  659SOL    HW2 1977   2.753   1.681   0.043 -0.9084  2.8236 -2.0296
  660SOL     OW 1978   0.977   0.249   0.597 -0.3776  0.6090  0.0842
  660SOL    HW1 1979   0.974   0.151   0.570  2.7839  1.3158 -2.7475
  660SOL    HW2 1980   1.018   0.309   0.521  1.8996 -0.1431 -1.0891
  661SOL     OW 1981   1.765   0.440   0.346  0.1330  0.3012 -0.0095
  661SOL    HW1 1982   1.685   0.504   0.361 -0.3694  1.3316 -1.6632
  661SOL    HW2 1983   1.857   0.478   0.381  1.6047  1.9822 -2.0454
  662SOL     OW 1984   0.600   0.018   0.521  0.2514 -1.1345  0.1756
  662SOL    HW1 1985   0.557   3.050   0.512  2.8429  3.3492 -0.2608
  662SOL    HW2 1986   0.675   0.028   0.452  0.0678  1.5443 -1.6179
  663SOL     OW 1987   1.269   2.914   2.145 -0.1748 -0.3494  0.5149
  663SOL    HW1 1988   1.218   3.003   2.136 -1.6960  1.3682 -0.0091
  663SOL    HW2 1989   1.224   2.841   2.205 -2.5694 -3.4126  4.5440
  664SOL     OW 1990   1.039   2.281   1.657 -0.0954 -0.6573 -0.7132
  664SOL    HW1 1991   0.962   2.254   1.599  1.2577 -1.7863  1.8104
  664SOL    HW2 1992   1.034   2.377   1.688 -0.2335 -0.9593  2.4364
  665SOL     OW 1993   1.107   2.158   1.900 -0.4111 -0.2179 -0.6601
  665SOL    HW1 1994   1.052   2.213   1.960  1.4360 -0.1469  0.5688
  665SOL    HW2 1995   1.097   2.193   1.806 -1.5215  0.2646  0.7349
  666SOL     OW 1996   0.847   2.732   2.520 -0.2514  0.2991  0.0364
  666SOL    HW1 1997   0.866   2.832   2.527  0.0588  1.5572 -0.3761
  666SOL    HW2 1998   0.746   2.721   2.517  1.2671 -1.5784 -1.2692
  667SOL     OW 1999   2.284   1.141   1.711  0.5082 -0.3427 -0.3243
  667SOL    HW1 2000   2.296   1.191   1.623 -2.1173 -0.9515  0.9514
  667SOL    HW2 2001   2.328   1.187   1.790  0.5794  1.2187  0.4585
  668SOL     OW 2002   1.783   0.078   1.907  0.4367  0.4380 -0.8508
  668SOL    HW1 2003   1.808   3.109   1.949 -0.3266 -3.0625  0.4678
  668SOL    HW2 2004   1.687   0.098   1.929  2.8672 -0.6768 -0.5942
  669SOL     OW 2005   2.389   2.649   1.057  0.3828 -0.1028  0.8341
  669SOL    HW1 2006   2.387   2.671   1.154 -1.3964  1.5476 -1.1107
  669SOL    HW2 2007   2.455   2.714   1.014  0.1453  0.2042  1.7034
  670SOL     OW 2008   1.530   2.543   2.669 -0.1448 -0.1664 -0.1439
  670SOL    HW1 2009   1.431   2.514   2.674 -0.2570 -0.1128 -0.0438
  670SOL    HW2 2010   1.553   2.565   2.572 -1.0122 -0.5865 -0.4330
  671SOL     OW 2011   0.600   0.898   0.469 -0.2641 -0.0239  0.1945
  671SOL    HW1 2012   0.686   0.944   0.430 -0.6407  2.9556  1.7805
  671SOL    HW2 2013   0.522   0.962   0.444 -4.1524 -2.4672  1.2155
  672SOL     OW 2014   2.716   1.134   2.984 -0.6246  0.4710  0.4879
  672SOL    HW1 2015   2.614   1.125   2.998 -0.9623 -0.7937  1.0314
  672SOL    HW2 2016   2.761   1.042   2.966  1.6076 -2.2464 -0.7641
  673SOL     OW 2017   0.109   2.056   1.426  0.4271  0.0128 -0.3433
  673SOL    HW1 2018   0.137   2.109   1.511 -1.5215 -0.9567 -2.0770
  673SOL    HW2 2019   0.044   1.977   1.442 -1.0271 -0.7175  0.0989
  674SOL     OW 2020   0.926   2.085   2.337  0.1736 -0.0085 -0.2973
  674SOL    HW1 2021   0.990   2.154   2.293 -1.4117 -1.4041  2.0361
  674SOL    HW2 2022   0.889   2.143   2.416 -2.5604 -1.0257  2.6601
  675SOL     OW 2023   0.946   0.965   1.520  0.2428  0.6304 -0.6362
  675SOL    HW1 2024   0.956   0.938   1.618 -0.1320  1.5905  2.9700
  675SOL    HW2 2025   0.877   0.900   1.478  0.3922 -1.8149 -0.8279
  676SOL     OW 2026   1.748   0.176   1.326 -0.0048 -0.1473 -0.3686
  676SOL    HW1 2027   1.763   0.160   1.230 -0.3732 -0.4058  2.7885
  676SOL    HW2 2028   1.796   0.109   1.387  1.3103 -1.0097  0.9741
  677SOL     OW 2029   2.638   0.979   0.415 -0.1752  0.4785 -0.0657
  677SOL    HW1 2030   2.661   0.903   0.480  2.8334  0.7656 -0.4822
  677SOL    HW2 2031   2.673   0.967   0.321  0.7441 -1.0279  2.2595
  678SOL     OW 2032   2.482   1.203   1.198  0.0009 -0.1346  0.1928
  678SOL    HW1 2033   2.470   1.305   1.196  0.3880  1.7356 -2.6026
  678SOL    HW2 2034   2.406   1.156   1.149  0.0984  0.8370  0.2605
  679SOL     OW 2035   2.899   0.487   2.820 -0.0795  0.4664 -0.0790
  679SOL    HW1 2036   2.904   0.582   2.791  0.2513 -1.0903 -0.5664
  679SOL    HW2 2037   2.922   0.481   2.913 -0.2860  2.1597 -5.4779
  680SOL     OW 2038   0.481   1.445   2.189 -0.0775 -0.0868  0.2844
  680SOL    HW1 2039   0.497   1.407   2.281 -0.1793  0.5123 -2.7384
  680SOL    HW2 2040   0.395   1.407   2.147 -0.1142  1.2197 -3.5958
  681SOL     OW 2041   2.587   2.001   1.586 -0.7160  0.0955 -0.1061
  681SOL    HW1 2042   2.597   2.011   1.690 -1.5345 -1.5177 -1.2384
  681SOL    HW2 2043   2.573   1.906   1.553 -1.0733  1.8818 -1.4294
  682SOL     OW 2044   0.066   2.133   0.041  0.1876  0.0640  0.3212
  682SOL    HW1 2045   0.119   2.209   0.002 -1.6450  0.4839 -0.8518
  682SOL    HW2 2046   0.009   2.084   3.090 -1.2845 -3.1466 -0.5544
  683SOL     OW 2047   2.875   2.181   0.939  0.1989 -0.0807 -0.2642
  683SOL    HW1 2048   2.870   2.130   1.030  0.5656 -0.4155 -0.1158
  683SOL    HW2 2049   2.798   2.252   0.942 -1.1773  0.8874  1.6737
  684SOL     OW 2050   2.988   1.249   2.388  0.8393  0.1382 -0.3336
  684SOL    HW1 2051   3.083   1.218   2.378 -1.5641  2.5164 -1.9115
  684SOL    HW2 2052   2.945   1.292   2.306 -1.7391 -1.9632 -1.0788
  685SOL     OW 2053   1.274   0.695   0.805 -0.4315  0.7462 -0.0804
  685SOL    HW1 2054   1.227   0.639   0.877 -1.1372 -0.7290  0.6193
  685SOL    HW2 2055   1.337   0.635   0.752  2.2504 -1.4940 -0.8258
  686SOL     OW 2056   0.437   0.493   0.278  0.0140 -0.2998 -0.2123
  686SOL    HW1 2057   0.520   0.454   0.325 -0.5978 -0.3037 -1.8476
  686SOL    HW2 2058   0.372   0.524   0.346  2.4423 -0.0168 -1.3416
  687SOL     OW 2059   0.435   1.968   2.580 -0.0795 -0.4415 -0.0591
  687SOL    HW1 2060   0.416   1.995   2.483 -1.1303  1.1636 -1.9173
  687SOL    HW2 2061   0.400   1.874   2.603  0.8375 -1.1652  1.0690
  688SOL     OW 2062   1.937   0.526   1.547  0.1681  0.5417  0.0552
  688SOL    HW1 2063   1.936   0.436   1.509 -0.2425  3.7781  1.4325
  688SOL    HW2 2064   1.901   0.595   1.475 -1.2452  0.4484 -0.6863
  689SOL     OW 2065   1.537   0.764   0.980 -0.2248 -0.1677 -0.4182
  689SOL    HW1 2066   1.633   0.744   0.976 -2.6929  3.6498  2.2077
  689SOL    HW2 2067   1.485   0.728   0.899  1.5038 -1.1952 -0.7710
  690SOL     OW 2068   3.100   1.213   1.309  0.7114 -0.6456 -0.5547
  690SOL    HW1 2069   3.092   1.320   1.323  2.5547  2.3421  0.1370
  690SOL    HW2 2070   3.119   1.190   1.214  0.7722 -0.4143  1.2952
  691SOL     OW 2071   3.081   1.473   1.346 -0.6998 -0.4710  0.2291
  691SOL    HW1 2072   0.017   1.556   1.365  1.9649  1.0229 -0.7173
  691SOL    HW2 2073   3.001   1.470   1.407  1.1444 -0.2609  0.0535
  692SOL     OW 2074   1.236   0.188   1.630 -0.4876  0.2557 -0.0739
  692SOL    HW1 2075   1.288   0.106   1.673 -1.2043 -2.5398  0.0048
  692SOL    HW2 2076   1.287   0.276   1.649  3.7573 -0.1961 -0.8682
  693SOL     OW 2077   0.985   1.420   2.277 -0.2599 -0.0735 -0.2391
  693SOL    HW1 2078   1.074   1.444   2.235 -2.6094  0.5429 -0.0755
  693SOL    HW2 2079   0.936   1.351   2.221 -3.2400 -3.6151 -0.1308
  694SOL     OW 2080   1.789   1.538   0.527  0.5153  0.1230  0.3359
  694SOL    HW1 2081   1.796   1.461   0.594  1.9769  2.0073  0.9369
  694SOL    HW2 2082   1.704   1.517   0.466 -4.1461  0.0512 -0.6865
  695SOL     OW 2083   0.638   1.108   1.245 -0.3293  0.0573  0.2696
  695SOL    HW1 2084   0.572   1.133   1.176  0.4083 -0.8584 -0.5158
  695SOL    HW2 2085   0.593   1.074   1.331 -1.9375 -1.7031 -0.3414
  696SOL     OW 2086   0.139   0.051   0.469  0.1536 -0.5252 -0.2917
  696SOL    HW1 2087   0.044   0.014   0.445 -1.0570 -1.6921 -1.2204
  696SOL    HW2 2088   0.198   3.089   0.482  1.5753  0.3537  1.7536
  697SOL     OW 2089   1.852   0.574   1.112  0.1103  0.5032  0.0699
  697SOL    HW1 2090   1.832   0.612   1.206 -2.8193  1.9394  3.8520
  697SOL    HW2 2091   1.782   0.511   1.074  1.3152  2.0101  0.0330
  698SOL     OW 2092   1.731   1.386   1.853  0.4591  0.1956 -0.5940
  698SOL    HW1 2093   1.825   1.405   1.875 -0.4078 -2.3880 -0.6309
  698SOL    HW2 2094   1.731   1.293   1.807 -2.6170 -1.5829 -2.0021
  699SOL     OW 2095   0.046   0.375   2.132  0.2615 -0.5188 -0.2923
  699SOL    HW1 2096   0.113   0.360   2.208 -0.2187  0.0751 -0.0217
  699SOL    HW2 2097   3.077   0.331   2.147 -3.0400  0.6017 -1.1857
  700SOL     OW 2098   1.370   2.712   0.725  0.0285  0.0440 -0.1765
  700SOL    HW1 2099   1.470   2.695   0.742 -1.2344 -3.3254 -1.9992
  700SOL    HW2 2100   1.358   2.804   0.684  2.2333  0.8528  0.4594
  701SOL     OW 2101   0.202   1.280   2.578 -0.0203 -0.1170  0.0516
  701SOL    HW1 2102   0.172   1.331   2.492 -3.1738  0.9945 -2.0585
  701SOL    HW2 2103   0.277   1.325   2.628 -0.2625  2.4025 -1.1756
  702SOL     OW 2104   0.604   0.209   0.195  0.5322  0.1180 -0.1545
  702SOL    HW1 2105   0.504   0.226   0.209  0.4971  0.2174  2.1884
  702SOL    HW2 2106   0.624   0.108   0.189  3.2907 -1.4034  0.4409
  703SOL     OW 2107   1.738   3.048   2.635 -0.2246 -0.0007 -0.2780
  703SOL    HW1 2108   1.773   3.007   2.721  0.7798  0.5710 -0.1871
  703SOL    HW2 2109   1.803   3.029   2.557 -0.0005 -0.7276 -1.6827
  704SOL     OW 2110   2.558   2.116   0.681  0.5058 -0.2622 -0.5131
  704SOL    HW1 2111   2.586   2.182   0.610 -2.7848  2.2272 -1.3342
  704SOL    HW2 2112   2.587   2.022   0.658 -2.2986 -0.1566  1.4100
  705SOL     OW 2113   2.631   2.038   2.132  0.1587 -0.1785  0.2221
  705SOL    HW1 2114   2.573   1.955   2.165 -0.7241 -1.5981  0.6900
  705SOL    HW2 2115   2.613   2.113   2.191 -2.0785  0.1260 -4.3557
  706SOL     OW 2116   3.001   2.709   0.692  0.3940  0.2244 -0.2043
  706SOL    HW1 2117   2.993   2.701   0.794  0.0182  0.1715  1.8328
  706SOL    HW2 2118   3.015   2.806   0.659  0.7232  0.2633  0.1321
  707SOL     OW 2119   0.784   2.919   0.153  0.7749 -0.4976  0.3454
  707SOL    HW1 2120   0.862   2.861   0.138 -2.5158  0.6797 -0.4872
  707SOL    HW2 2121   0.809   3.007   0.206  0.5329  2.7408 -1.1865
  708SOL     OW 2122   0.344   2.058   1.807 -0.5046  0.7588 -0.4350
  708SOL    HW1 2123   0.275   2.121   1.768  0.4453  0.9750  0.9234
  708SOL    HW2 2124   0.311   2.019   1.897 -1.1687  0.9145 -1.3273
  709SOL     OW 2125   1.319   2.792   1.911 -0.0008  0.8410 -0.0787
  709SOL    HW1 2126   1.341   2.695   1.939  1.1672  1.3250 -0.4168
  709SOL    HW2 2127   1.298   2.847   1.994 -1.2352  0.0236  0.8753
  710SOL     OW 2128   1.921   2.551   2.483 -0.3615  0.2127  0.1329
  710SOL    HW1 2129   1.952   2.622   2.549  0.2020 -3.2019  0.7731
  710SOL    HW2 2130   1.843   2.589   2.424  1.9456  0.5483 -1.0476
  711SOL     OW 2131   1.275   2.500   2.712 -0.2764 -0.3776 -0.2744
  711SOL    HW1 2132   1.211   2.572   2.680 -0.4410  1.4535 -2.9577
  711SOL    HW2 2133   1.233   2.411   2.729  1.2020 -1.2532 -0.7754
  712SOL     OW 2134   1.213   2.215   2.726  0.0122  0.0699 -0.6475
  712SOL    HW1 2135   1.269   2.181   2.807 -1.3575 -0.9188 -0.2693
  712SOL    HW2 2136   1.134   2.154   2.699 -2.3243 -1.3378 -1.1203
  713SOL     OW 2137   1.333   1.032   1.570  0.6303 -0.0725  0.6290
  713SOL    HW1 2138   1.312   0.940   1.532  1.4544  0.0639  1.5868
  713SOL    HW2 2139   1.410   1.070   1.517  1.0279 -1.0406  2.6187
  714SOL     OW 2140   1.317   1.342   1.415  0.1442  0.2616 -0.0984
  714SOL    HW1 2141   1.263   1.261   1.447 -1.0212 -1.4353  0.0851
  714SOL    HW2 2142   1.397   1.359   1.475 -0.2430  0.1527 -2.6174
  715SOL     OW 2143   2.660   2.962   0.538 -0.5435 -0.1457  0.1102
  715SOL    HW1 2144   2.708   3.042   0.493 -0.6972  0.1182 -0.3937
  715SOL    HW2 2145   2.667   2.875   0.484  0.9678 -2.4152 -2.1794
  716SOL     OW 2146   0.668   2.736   1.070  0.5289 -0.3580 -0.3649
  716SOL    HW1 2147   0.704   2.645   1.043 -3.1325 -0.0029  1.0410
  716SOL    HW2 2148   0.575   2.720   1.112 -0.8279 -1.7513 -0.4990
  717SOL     OW 2149   2.978   0.358   3.059  0.0864 -0.0055 -0.0494
  717SOL    HW1 2150   2.929   0.273   3.030  0.0781  3.1581 -0.5721
  717SOL    HW2 2151   2.966   0.384   0.038  0.8670 -0.3631  0.1042
  718SOL     OW 2152   1.677   1.568   1.442 -0.0367 -0.1743  0.0883
  718SOL    HW1 2153   1.630   1.574   1.534 -0.5553  0.2502 -1.2950
  718SOL    HW2 2154   1.727   1.478   1.424  0.6917 -0.3318 -1.2564
  719SOL     OW 2155   3.019   2.629   0.152  0.0077  0.0256 -0.2152
  719SOL    HW1 2156   2.991   2.632   0.053  0.1327  1.0813  1.0848
  719SOL    HW2 2157   2.982   2.554   0.204  0.6777  1.6712 -0.4462
  720SOL     OW 2158   1.067   0.839   0.918 -0.2439 -0.0253 -0.5048
  720SOL    HW1 2159   1.146   0.790   0.872 -0.2602  0.6253 -0.9988
  720SOL    HW2 2160   1.058   0.818   1.016 -0.3809 -0.4124 -1.1343
  721SOL     OW 2161   1.667   0.405   0.988 -0.2198  0.4472  0.8488
  721SOL    HW1 2162   1.717   0.318   0.982 -0.4507 -0.4992 -0.1957
  721SOL    HW2 2163   1.568   0.398   0.990  0.7318  2.2001 -0.3022
  722SOL     OW 2164   1.103   1.780   2.026 -0.3810 -0.1316  0.2142
  722SOL    HW1 2165   1.005   1.787   2.023 -1.2253 -2.0379 -0.7887
  722SOL    HW2 2166   1.153   1.870   2.036 -0.2860  0.7006 -2.8817
  723SOL     OW 2167   1.038   0.032   1.555 -0.0339 -0.0767  0.4412
  723SOL    HW1 2168   1.066   3.090   1.476  2.2298 -1.0648 -1.2986
  723SOL    HW2 2169   1.124   0.085   1.585  0.9783 -0.0583 -1.0534
  724SOL     OW 2170   1.951   2.125   2.023  0.2711 -0.2144  0.0572
  724SOL    HW1 2171   1.860   2.102   2.052  2.5347 -0.3715 -3.5919
  724SOL    HW2 2172   1.994   2.048   1.967  0.2428 -1.1614  1.7933
  725SOL     OW 2173   1.243   2.774   1.439  0.1537  0.1060  0.4428
  725SOL    HW1 2174   1.339   2.790   1.460 -1.5881  0.5641 -1.6499
  725SOL    HW2 2175   1.227   2.671   1.439  0.5789 -1.3807 -0.4600
  726SOL     OW 2176   1.767   3.005   0.134 -0.0748 -0.4069  0.6387
  726SOL    HW1 2177   1.787   3.079   0.065  1.7894 -1.8998 -2.8325
  726SOL    HW2 2178   1.853   2.964   0.177  1.1918 -0.5559  1.9314
  727SOL     OW 2179   1.385   1.928   0.837  0.0594 -0.2649 -0.3549
  727SOL    HW1 2180   1.311   1.979   0.883  0.1510  1.6498 -0.9426
  727SOL    HW2 2181   1.474   1.930   0.886 -0.3895 -0.1083  0.3670
  728SOL     OW 2182   1.983   2.801   2.658  0.5308 -0.1123  0.4705
  728SOL    HW1 2183   1.951   2.866   2.585 -0.7399 -0.1099 -0.5522
  728SOL    HW2 2184   2.037   2.851   2.722 -2.2378 -0.6632  0.3319
  729SOL     OW 2185   2.275   2.438   1.503 -0.5722  0.1118  0.0894
  729SOL    HW1 2186   2.212   2.443   1.582  0.2157 -1.0009  0.7515
  729SOL    HW2 2187   2.351   2.374   1.531 -0.4043 -0.7639  1.6976
  730SOL     OW 2188   1.934   0.626   2.518 -0.2829 -0.0508  0.1463
  730SOL    HW1 2189   1.895   0.596   2.430  1.6466  1.7604 -2.5579
  730SOL    HW2 2190   2.016   0.571   2.546 -1.8524 -0.6972  0.3892
  731SOL     OW 2191   0.492   0.147   1.053  0.0537  0.3131  0.2752
  731SOL    HW1 2192   0.517   0.115   0.959 -0.3904  0.5157  0.7237
  731SOL    HW2 2193   0.478   0.246   1.057  0.5070  1.8469 -2.9807
  732SOL     OW 2194   1.815   0.155   1.043 -0.6993 -0.2283 -0.4002
  732SOL    HW1 2195   1.782   0.069   1.004 -1.0857  1.5700  1.0310
  732SOL    HW2 2196   1.921   0.153   1.021  1.3618  0.4016 -0.7774
  733SOL     OW 2197   0.854   0.999   1.129 -0.1099  0.0449 -0.4863
  733SOL    HW1 2198   0.772   1.050   1.157  2.2106 -2.1011  0.6307
  733SOL    HW2 2199   0.942   1.050   1.148  0.4868  0.3959 -1.3598
  734SOL     OW 2200   2.664   2.447   0.409  0.0524  0.3066  0.4238
  734SOL    HW1 2201   2.561   2.456   0.419  1.4078 -0.9058  0.9539
  734SOL    HW2 2202   2.707   2.533   0.447 -0.6656  1.3175 -0.6501
  735SOL     OW 2203   0.572   0.620   0.062 -0.0177 -0.1560 -0.1254
  735SOL    HW1 2204   0.503   0.677   0.018  0.6747 -0.2815  4.1317
  735SOL    HW2 2205   0.537   0.570   0.146  0.7061  0.6299  1.5594
  736SOL     OW 2206   1.813   2.311   2.384 -0.4986  0.1073 -0.0900
  736SOL    HW1 2207   1.843   2.399   2.429  1.2944  1.2845  0.2020
  736SOL    HW2 2208   1.805   2.236   2.457 -2.5583 -0.1847  0.5100
  737SOL     OW 2209   1.178   2.391   1.191  0.6422  0.2446  0.2029
  737SOL    HW1 2210   1.130   2.467   1.143 -0.5576  1.6413 -2.1524
  737SOL    HW2 2211   1.120   2.310   1.199 -0.3246  2.0203  0.0521
  738SOL     OW 2212   1.764   2.903   2.231  0.1342 -0.8602  0.3335
  738SOL    HW1 2213   1.674   2.946   2.236  3.4854 -0.7059 -0.3489
  738SOL    HW2 2214   1.806   2.932   2.140  2.9955  2.3238  0.4266
  739SOL     OW 2215   1.312   2.048   2.171 -0.2683 -0.0621 -0.1663
  739SOL    HW1 2216   1.397   2.090   2.200  2.3314  1.3083  1.4971
  739SOL    HW2 2217   1.237   2.121   2.161 -1.1759 -1.0320 -0.5006
  740SOL     OW 2218   1.889   2.169   1.540  0.1486  0.9967 -0.1302
  740SOL    HW1 2219   1.962   2.101   1.548 -0.3364  1.2935 -1.7529
  740SOL    HW2 2220   1.898   2.218   1.451  2.1380 -1.5204  1.8070
  741SOL     OW 2221   2.004   1.677   3.068 -0.1227  0.0951  0.3081
  741SOL    HW1 2222   1.911   1.716   3.057 -0.4647 -1.9551  2.3983
  741SOL    HW2 2223   2.066   1.702   2.986  0.9844  1.9847 -0.0679
  742SOL     OW 2224   1.008   1.289   2.907  0.1094 -0.1096 -0.2911
  742SOL    HW1 2225   0.998   1.345   2.827  1.8439 -0.4391  0.8848
  742SOL    HW2 2226   1.061   1.201   2.894 -0.0022 -1.8024  3.0741
  743SOL     OW 2227   2.455   0.939   2.696 -0.2856  0.0684 -0.6300
  743SOL    HW1 2228   2.486   0.923   2.602  0.1013  2.5015  1.2716
  743SOL    HW2 2229   2.442   1.039   2.714 -1.8023 -2.7106 -0.1548
  744SOL     OW 2230   2.007   2.779   1.632 -0.2060 -0.2131  0.1907
  744SOL    HW1 2231   1.961   2.724   1.561  2.7420  0.5435  1.0264
  744SOL    HW2 2232   2.022   2.879   1.606  1.8350 -0.5253  2.1791
  745SOL     OW 2233   2.612   1.731   1.471  0.1459  0.2637 -0.0871
  745SOL    HW1 2234   2.610   1.778   1.382 -0.2538  1.0927  1.0833
  745SOL    HW2 2235   2.546   1.650   1.476 -1.8575 -4.8469 -1.4758
  746SOL     OW 2236   2.860   1.892   1.051 -0.6859  0.1132  0.2521
  746SOL    HW1 2237   2.792   1.856   0.985  1.7549  0.0790 -0.4238
  746SOL    HW2 2238   2.904   1.815   1.103 -1.0848  0.9654 -0.3233
  747SOL     OW 2239   2.038   2.528   0.395  0.4936  0.3956  0.2127
  747SOL    HW1 2240   1.984   2.554   0.313  0.0905  0.0626 -0.5490
  747SOL    HW2 2241   1.976   2.481   0.458  0.8119 -0.6352 -1.8345
  748SOL     OW 2242   0.890   1.988   0.241  0.0475  0.0486 -0.0036
  748SOL    HW1 2243   0.960   2.026   0.172  0.9721 -1.0977 -2.2108
  748SOL    HW2 2244   0.794   2.011   0.218 -0.8442 -0.3026 -1.5842
  749SOL     OW 2245   2.896   0.368   2.214  0.0142 -0.1147 -0.2326
  749SOL    HW1 2246   2.914   0.429   2.291  0.9216 -0.5602 -0.6618
  749SOL    HW2 2247   2.860   0.423   2.132 -1.8680  0.7847  0.9319
  750SOL     OW 2248   1.212   0.620   1.692  0.3262  0.1273  0.2447
  750SOL    HW1 2249   1.263   0.706   1.694  2.8195  2.0898  0.0353
  750SOL    HW2 2250   1.276   0.541   1.678  0.8750  0.8050  2.3198
  751SOL     OW 2251   2.361   2.484   1.884 -0.3506 -0.4741  0.3009
  751SOL    HW1 2252   2.285   2.517   1.825 -0.9977  1.8863 -0.4173
  751SOL    HW2 2253   2.406   2.570   1.920 -2.5569 -1.7519 -2.0072
  752SOL     OW 2254   2.024   1.796   0.909  0.4160 -0.2689 -0.0004
  752SOL    HW1 2255   1.949   1.774   0.974 -1.5468  0.0422  1.2163
  752SOL    HW2 2256   2.066   1.708   0.880  1.2935  3.0202  1.5000
  753SOL     OW 2257   1.415   1.072   2.393  0.1479 -0.2194  0.4671
  753SOL    HW1 2258   1.467   1.101   2.311  0.5951 -0.9412 -0.0013
  753SOL    HW2 2259   1.333   1.133   2.397  0.3801  1.7506 -0.7924
  754SOL     OW 2260   0.155   2.728   0.972  0.3577 -0.2830  0.0309
  754SOL    HW1 2261   0.126   2.808   1.024  1.3264 -0.3208 -1.0248
  754SOL    HW2 2262   0.100   2.642   1.001 -2.4255 -1.2280  1.2264
  755SOL     OW 2263   2.132   0.267   1.637 -0.1773 -0.3609  0.1389
  755SOL    HW1 2264   2.206   0.340   1.622  2.3980  3.8848 -0.4869
  755SOL    HW2 2265   2.057   0.273   1.566  0.3272 -1.3410 -1.3058
  756SOL     OW 2266   1.717   1.192   2.496 -0.3842 -0.3718 -0.3442
  756SOL    HW1 2267   1.686   1.284   2.530  2.3299  1.3948  0.3105
  756SOL    HW2 2268   1.639   1.135   2.476 -1.1657 -0.1564 -0.9411
  757SOL     OW 2269   2.895   2.882   1.739 -0.7030 -0.1998 -0.4080
  757SOL    HW1 2270   2.840   2.933   1.806  2.1504 -0.3495 -2.1189
  757SOL    HW2 2271   2.840   2.885   1.653  0.4874 -0.3524 -0.1769
  758SOL     OW 2272   0.367   2.911   1.362 -0.3110 -0.4292 -0.2447
  758SOL    HW1 2273   0.268   2.937   1.368 -0.5562 -1.0253 -1.7010
  758SOL    HW2 2274   0.427   2.993   1.369  1.4044 -1.2562 -1.9786
  759SOL     OW 2275   2.228   1.311   0.898 -0.0700  0.1687 -0.3915
  759SOL    HW1 2276   2.327   1.328   0.918  2.1991  2.4297 -0.0216
  759SOL    HW2 2277   2.219   1.211   0.873  0.5350 -2.5715 -1.9268
  760SOL     OW 2278   1.534   0.089   2.025  0.2898  0.1911  0.5485
  760SOL    HW1 2279   1.541   0.168   2.084 -0.9455 -0.4461 -1.2797
  760SOL    HW2 2280   1.551   0.002   2.076  2.3551  0.6851  1.4202
  761SOL     OW 2281   2.022   0.504   0.373  0.1979 -0.8465 -0.1863
  761SOL    HW1 2282   2.060   0.416   0.351  0.3710  0.6979  0.3749
  761SOL    HW2 2283   2.069   0.577   0.312  1.9785  0.4721 -2.7154
  762SOL     OW 2284   2.349   2.725   0.048  0.1901  0.5164 -0.0876
  762SOL    HW1 2285   2.438   2.706   0.082 -0.0419  1.4760 -1.2655
  762SOL    HW2 2286   2.278   2.664   0.092 -0.9003 -0.0063 -0.0480
  763SOL     OW 2287   0.850   0.719   1.136  0.0144 -0.7126  0.0544
  763SOL    HW1 2288   0.942   0.709   1.172  3.9772  1.3505 -2.3617
  763SOL    HW2 2289   0.832   0.819   1.114  1.3245  0.6993 -0.9761
  764SOL     OW 2290   2.288   2.401   2.752  0.2161  0.0570 -0.6035
  764SOL    HW1 2291   2.292   2.305   2.776  1.4655 -0.4750 -2.2288
  764SOL    HW2 2292   2.235   2.453   2.821 -0.8158  1.7900 -2.7298
  765SOL     OW 2293   0.255   0.593   2.336 -0.8235  0.1427  0.1976
  765SOL    HW1 2294   0.161   0.582   2.371 -0.4852 -0.9955  2.1473
  765SOL    HW2 2295   0.307   0.663   2.392 -1.7918  2.1052  0.1140
  766SOL     OW 2296   2.775   1.379   3.050 -0.3680  0.2651  0.1734
  766SOL    HW1 2297   2.721   1.430   2.975  0.7468  0.7037 -0.0511
  766SOL    HW2 2298   2.751   1.279   3.037  1.1497 -2.5353  1.0304
  767SOL     OW 2299   2.972   1.790   1.971 -0.5580 -0.6244 -0.2618
  767SOL    HW1 2300   2.873   1.764   1.979  0.6824 -0.6529  1.4992
  767SOL    HW2 2301   3.021   1.748   1.889  1.1928  3.6574 -0.1350
  768SOL     OW 2302   1.102   0.995   0.148  0.1958 -0.0820  0.0759
  768SOL    HW1 2303   1.028   0.938   0.187  1.9127  2.6395  1.0563
  768SOL    HW2 2304   1.187   0.942   0.153 -1.8128  1.5911  0.2165
  769SOL     OW 2305   1.738   2.820   3.049 -0.3218 -0.1120  0.4504
  769SOL    HW1 2306   1.788   2.866   2.968  1.1447  1.1342 -1.7207
  769SOL    HW2 2307   1.735   2.893   0.003 -1.3036  2.0467  2.5580
  770SOL     OW 2308   0.753   0.080   2.436 -0.4893  0.0118 -0.3860
  770SOL    HW1 2309   0.806   0.062   2.348  3.2632 -0.8408 -1.9392
  770SOL    HW2 2310   0.786   0.166   2.482  1.5115  0.8714 -1.1521
  771SOL     OW 2311   0.772   2.505   0.978 -0.1102 -0.2686  0.5766
  771SOL    HW1 2312   0.697   2.466   0.922 -0.7816 -1.9854  3.1178
  771SOL    HW2 2313   0.839   2.433   0.995 -1.5442  1.4786 -0.5460
  772SOL     OW 2314   0.050   0.660   0.205  0.2298 -0.2366 -0.3872
  772SOL    HW1 2315   0.078   0.565   0.174  1.0241 -0.5749  0.3766
  772SOL    HW2 2316   3.108   0.653   0.288 -2.2604 -2.5918 -0.9025
  773SOL     OW 2317   1.885   0.937   2.133 -0.1394  0.4261  0.4560
  773SOL    HW1 2318   1.853   0.854   2.081  3.2650  2.0814  2.2113
  773SOL    HW2 2319   1.875   1.018   2.072  0.0299 -0.6874 -1.1803
  774SOL     OW 2320   0.795   0.777   0.606 -0.6433  0.2549 -0.2427
  774SOL    HW1 2321   0.708   0.800   0.563  0.1084 -2.5765  0.2664
  774SOL    HW2 2322   0.793   0.826   0.693  4.1070  2.1120  0.6485
  775SOL     OW 2323   1.816   0.110   3.096  0.7480 -0.1004 -0.0045
  775SOL    HW1 2324   1.717   0.091   3.104  0.3279 -0.0757  0.6044
  775SOL    HW2 2325   1.841   0.208   0.001  3.5013  1.7031  0.4774
  776SOL     OW 2326   2.153   0.154   2.475  0.0834 -0.1536  0.6766
  776SOL    HW1 2327   2.056   0.147   2.474  4.9251  1.6746  1.1179
  776SOL    HW2 2328   2.188   0.196   2.391 -1.6905 -5.1234  2.7399
  777SOL     OW 2329   0.786   1.595   0.055 -0.1284 -0.0571 -0.3963
  777SOL    HW1 2330   0.870   1.633   0.102  1.4476  0.6634 -1.7157
  777SOL    HW2 2331   0.704   1.640   0.088  0.7207 -0.2891  2.0187
  778SOL     OW 2332   0.310   2.702   0.008  0.7528 -0.4103  0.4061
  778SOL    HW1 2333   0.262   2.628   0.062  0.4586 -0.9584  1.9550
  778SOL    HW2 2334   0.408   2.675   3.116 -0.0415 -1.5398  1.6581
  779SOL     OW 2335   0.345   1.190   0.025  0.0659 -0.5492  0.0592
  779SOL    HW1 2336   0.301   1.248   0.096  0.4669 -1.4216 -0.4285
  779SOL    HW2 2337   0.389   1.107   0.054  0.6677  3.3271 -0.8049
  780SOL     OW 2338   2.101   0.424   2.290 -0.5566  0.0723  0.4357
  780SOL    HW1 2339   2.125   0.488   2.216  0.4953 -0.8439 -0.5645
  780SOL    HW2 2340   2.025   0.356   2.268  0.2760 -1.5604  2.8696
  781SOL     OW 2341   1.678   1.117   1.790 -0.1006  0.0742 -0.6067
  781SOL    HW1 2342   1.727   1.117   1.882  0.4701 -1.5982 -0.4402
  781SOL    HW2 2343   1.711   1.042   1.729 -1.6640  2.4986 -0.2167
  782SOL     OW 2344   1.828   1.953   2.274 -0.0247  0.1943 -0.0744
  782SOL    HW1 2345   1.900   1.989   2.335 -1.9687  0.1070 -0.8268
  782SOL    HW2 2346   1.843   1.854   2.262  2.2289 -1.5413  3.4672
  783SOL     OW 2347   1.436   3.098   1.348  0.5117 -0.5924  0.4921
  783SOL    HW1 2348   1.482   0.040   1.414  0.9446 -0.4885 -2.1708
  783SOL    HW2 2349   1.448   3.000   1.376  1.2585 -0.5822  1.9861
  784SOL     OW 2350   2.035   0.871   2.609  0.4006 -0.4322 -0.9329
  784SOL    HW1 2351   2.093   0.873   2.693  2.3182 -0.9649  0.0064
  784SOL    HW2 2352   2.029   0.770   2.580 -0.5972 -1.5443 -1.7312
  785SOL     OW 2353   1.812   0.350   0.089  0.0103 -0.1696 -0.0297
  785SOL    HW1 2354   1.792   0.398   0.177  0.5214  1.8664  0.0558
  785SOL    HW2 2355   1.871   0.404   0.026 -3.8531  0.0319  0.2172
  786SOL     OW 2356   3.082   1.844   0.627 -0.0262 -0.3737  0.6065
  786SOL    HW1 2357   3.101   1.808   0.535  0.8905  0.9422  0.0691
  786SOL    HW2 2358   3.026   1.929   0.623  0.6913  0.1310 -0.3156
  787SOL     OW 2359   1.699   2.233   0.346 -0.3332 -0.4141  0.0684
  787SOL    HW1 2360   1.675   2.197   0.442  2.1258  1.5997 -0.4103
  787SOL    HW2 2361   1.638   2.305   0.310  1.7494  0.8629 -2.0508
  788SOL     OW 2362   2.095   1.524   1.523 -0.1269  0.5559 -0.6276
  788SOL    HW1 2363   2.094   1.513   1.426 -0.6535  0.3654  4.9876
  788SOL    HW2 2364   2.029   1.597   1.552  1.0273  0.3767  2.6986
  789SOL     OW 2365   3.078   1.360   2.760 -0.4357  0.3541  0.3875
  789SOL    HW1 2366   0.042   1.341   2.700  0.8634 -1.3093  0.8715
  789SOL    HW2 2367   3.016   1.278   2.758  1.2241 -0.0648 -2.1898
  790SOL     OW 2368   0.601   0.133   2.747  0.3347  0.4519  0.3769
  790SOL    HW1 2369   0.550   0.201   2.798  0.3308 -1.5682  0.3804
  790SOL    HW2 2370   0.688   0.178   2.710  1.0838  2.4683 -2.4283
  791SOL     OW 2371   0.778   0.302   2.584  0.6855  0.0609  0.3596
  791SOL    HW1 2372   0.851   0.355   2.627 -0.0394  3.0972 -2.4396
  791SOL    HW2 2373   0.690   0.357   2.572 -1.7685 -2.9160  1.0804
  792SOL     OW 2374   1.588   0.694   2.393  0.5505 -0.3171 -0.1641
  792SOL    HW1 2375   1.659   0.624   2.365  0.8977 -1.0983 -1.3089
  792SOL    HW2 2376   1.641   0.781   2.410  1.1640  0.5723 -1.9597
  793SOL     OW 2377   2.741   0.604   1.641 -0.2722 -0.4365  0.2220
  793SOL    HW1 2378   2.763   0.699   1.607  0.6678 -0.2728 -0.0579
  793SOL    HW2 2379   2.642   0.586   1.647 -1.0793  0.7089 -0.8155
  794SOL     OW 2380   0.316   0.660   1.898 -0.3043  0.0359 -0.4381
  794SOL    HW1 2381   0.405   0.665   1.948  1.2385  0.1169  1.0179
  794SOL    HW2 2382   0.281   0.566   1.913  0.4680  1.4487  0.3155
  795SOL     OW 2383   2.916   1.458   0.485  0.1187  0.5167  0.3697
  795SOL    HW1 2384   2.847   1.528   0.456  1.0199 -1.5747 -2.8527
  795SOL    HW2 2385   2.958   1.473   0.578  2.2527 -0.9016 -0.6367
  796SOL     OW 2386   0.160   2.401   3.056 -0.3971  0.3553  0.1678
  796SOL    HW1 2387   0.170   2.454   0.024  1.8028 -0.3923 -1.9239
  796SOL    HW2 2388   0.067   2.418   3.014 -0.5149  0.3646  0.0023
  797SOL     OW 2389   2.192   2.571   0.189 -0.2002  0.1952 -0.0354
  797SOL    HW1 2390   2.151   2.566   0.283 -1.8561  0.0474  2.5419
  797SOL    HW2 2391   2.243   2.482   0.173 -0.9770 -0.5012  1.7414
  798SOL     OW 2392   0.149   1.003   1.711 -0.2798  0.4958 -0.7043
  798SOL    HW1 2393   0.234   0.959   1.741 -3.5111 -0.6637 -0.0739
  798SOL    HW2 2394   0.157   1.058   1.627  0.3829 -2.7677  1.2911
  799SOL     OW 2395   2.831   0.618   2.366 -0.1397 -0.3645 -0.2176
  799SOL    HW1 2396   2.931   0.608   2.393  1.7540 -1.4965  1.9159
  799SOL    HW2 2397   2.830   0.706   2.317 -1.1206 -2.5933  0.4046
  800SOL     OW 2398   2.891   2.043   0.713 -0.6968 -0.4760 -0.0881
  800SOL    HW1 2399   2.928   2.098   0.635  0.9682  1.4016 -1.1861
  800SOL    HW2 2400   2.870   2.097   0.800  1.8585 -0.9059  2.0562
  801SOL     OW 2401   1.343   1.084   0.877 -0.0406  0.2000 -0.3695
  801SOL    HW1 2402   1.398   1.121   0.800 -0.8382  1.2996  3.7361
  801SOL    HW2 2403   1.253   1.131   0.884  0.0785 -3.2710  0.0782
  802SOL     OW 2404   1.207   1.897   1.391  0.4309  0.0649  0.7649
  802SOL    HW1 2405   1.306   1.866   1.401  0.7051 -3.6871 -0.2045
  802SOL    HW2 2406   1.200   1.986   1.435  2.5692 -0.6556  0.1029
  803SOL     OW 2407   3.015   1.830   0.328 -0.1699  0.2304 -0.0885
  803SOL    HW1 2408   3.105   1.796   0.296 -0.5574  2.1450  0.4412
  803SOL    HW2 2409   3.005   1.930   0.310  2.1127 -0.7875  0.7869
  804SOL     OW 2410   1.028   2.588   1.106  0.3916  0.0522 -0.2645
  804SOL    HW1 2411   1.011   2.602   1.205  2.7189 -2.3360  0.7992
  804SOL    HW2 2412   0.950   2.605   1.051  4.9418  0.7823  0.5232
  805SOL     OW 2413   1.712   1.368   0.079  0.0103  0.5700  0.1580
  805SOL    HW1 2414   1.695   1.464   0.054  1.1896 -0.0218  2.0125
  805SOL    HW2 2415   1.622   1.321   0.094 -2.9301 -0.4515  0.1626
  806SOL     OW 2416   1.484   2.860   1.494  0.6134  0.1411  0.0346
  806SOL    HW1 2417   1.499   2.904   1.585 -0.6761  1.1515  2.0030
  806SOL    HW2 2418   1.573   2.842   1.459 -2.8012  0.1938  1.0647
  807SOL     OW 2419   2.121   2.954   2.846 -0.0003  0.2967 -0.3414
  807SOL    HW1 2420   2.182   3.026   2.806  2.1213 -0.2036 -1.7555
  807SOL    HW2 2421   2.179   2.874   2.870  1.8384  0.1796 -0.9934
  808SOL     OW 2422   0.232   1.335   0.223  0.0066  0.5779 -0.3555
  808SOL    HW1 2423   0.130   1.309   0.226 -1.4723  1.5388  1.0847
  808SOL    HW2 2424   0.255   1.413   0.281  0.9072 -1.5332 -1.8943
  809SOL     OW 2425   2.618   0.928   2.449 -0.5436  0.1039  0.5337
  809SOL    HW1 2426   2.584   1.023   2.448 -0.0255 -0.6908  1.8231
  809SOL    HW2 2427   2.587   0.874   2.370  0.8457 -0.7711 -1.2745
  810SOL     OW 2428   2.386   0.131   1.922  0.2197 -0.0848 -0.3671
  810SOL    HW1 2429   2.464   0.196   1.917  0.0017 -1.1608  1.0309
  810SOL    HW2 2430   2.349   0.091   1.835  0.0277 -0.2324  2.2813
  811SOL     OW 2431   2.680   2.526   1.655 -0.6877  0.1783  0.1027
  811SOL    HW1 2432   2.631   2.470   1.725 -0.9929 -2.3908 -1.6994
  811SOL    HW2 2433   2.713   2.613   1.699 -1.1354  0.1481  1.8972
  812SOL     OW 2434   1.637   0.506   3.002 -0.6928  0.1727 -0.4482
  812SOL    HW1 2435   1.601   0.510   2.904 -0.5124 -1.2026 -1.9713
  812SOL    HW2 2436   1.711   0.438   3.010  1.1950  0.5542  0.2681
  813SOL     OW 2437   1.775   0.484   1.923 -0.3145 -0.1739 -0.2936
  813SOL    HW1 2438   1.850   0.416   1.907  1.9774 -2.1722 -0.1179
  813SOL    HW2 2439   1.762   0.545   1.845  2.4178  1.2921  0.0165
  814SOL     OW 2440   2.024   1.281   1.571 -0.3235 -0.4391  0.0877
  814SOL    HW1 2441   2.092   1.222   1.521  1.8240 -0.6138 -1.3018
  814SOL    HW2 2442   2.042   1.382   1.576  0.7607  1.2308  1.4238
  815SOL     OW 2443   0.371   1.027   0.396 -0.4211  0.0236 -0.5006
  815SOL    HW1 2444   0.313   0.983   0.325 -2.4191  0.4361  0.3280
  815SOL    HW2 2445   0.312   1.092   0.441  0.2565 -0.0343 -1.5287
  816SOL     OW 2446   1.804   1.753   2.842  0.3125 -0.5328  0.4325
  816SOL    HW1 2447   1.872   1.776   2.771  0.3708 -2.5544 -0.4964
  816SOL    HW2 2448   1.714   1.722   2.804 -0.3254  0.7054  0.0006
  817SOL     OW 2449   0.240   2.925   0.568  0.0088  0.2010  0.2084
  817SOL    HW1 2450   0.265   2.908   0.665 -0.5153 -0.2028  3.6443
  817SOL    HW2 2451   0.311   2.885   0.504  1.9640 -0.5149  0.4964
  818SOL     OW 2452   1.813   0.362   2.723 -0.5502 -0.1488 -0.6777
  818SOL    HW1 2453   1.722   0.411   2.724 -0.0509 -1.9667  2.1801
  818SOL    HW2 2454   1.820   0.286   2.655 -1.7469  0.5054 -0.7356
  819SOL     OW 2455   1.207   1.114   0.421  0.0867  0.1514  0.1767
  819SOL    HW1 2456   1.167   1.096   0.329  0.5355  0.1864 -0.7274
  819SOL    HW2 2457   1.174   1.036   0.484 -3.1017 -2.1294  1.8322
  820SOL     OW 2458   2.321   1.017   1.088  0.4595  0.1701 -0.3101
  820SOL    HW1 2459   2.393   0.950   1.119  1.8745  0.8861 -1.4874
  820SOL    HW2 2460   2.308   1.022   0.990  0.2123  1.9195  2.4305
  821SOL     OW 2461   2.330   3.091   0.355  0.4498 -0.2071 -0.1301
  821SOL    HW1 2462   2.411   3.044   0.323  1.6810  1.7024  3.0816
  821SOL    HW2 2463   2.254   3.080   0.286 -1.9604  0.6471  0.4355
  822SOL     OW 2464   0.561   2.719   2.512  0.1968 -0.1278 -0.5247
  822SOL    HW1 2465   0.534   2.651   2.584  0.8219 -0.0511  1.9245
  822SOL    HW2 2466   0.502   2.796   2.521  1.7957 -2.7548  5.6904
  823SOL     OW 2467   0.148   2.189   1.680 -0.9354  0.2936  0.2394
  823SOL    HW1 2468   0.059   2.154   1.711  1.7212 -1.2934 -0.4444
  823SOL    HW2 2469   0.153   2.291   1.668  1.2151  2.3556  1.2669
  824SOL     OW 2470   0.875   2.879   2.134 -0.2898 -0.3745 -0.3647
  824SOL    HW1 2471   0.914   2.880   2.037  0.0881  0.8226 -1.8732
  824SOL    HW2 2472   0.876   2.784   2.162 -0.7212 -0.1861 -0.7780
  825SOL     OW 2473   1.222   1.848   0.350  0.0212  0.2190  0.0151
  825SOL    HW1 2474   1.269   1.770   0.308 -2.1158 -0.3291  2.0453
  825SOL    HW2 2475   1.140   1.818   0.396  2.3638  0.2719 -0.0220
  826SOL     OW 2476   1.173   3.020   3.001  0.7554 -0.0092 -0.1449
  826SOL    HW1 2477   1.073   3.022   3.025 -0.8087  0.9203  0.1607
  826SOL    HW2 2478   1.210   2.934   3.036 -0.2551  1.6772  2.1712
  827SOL     OW 2479   0.106   1.675   1.412  0.6353 -0.5595 -0.2384
  827SOL    HW1 2480   0.121   1.654   1.310  1.5099  0.0028 -2.1178
  827SOL    HW2 2481   0.199   1.676   1.458  0.3098  1.2546  0.6160
  828SOL     OW 2482   2.481   1.490   1.414 -0.8673 -0.2515  0.4930
  828SOL    HW1 2483   2.463   1.494   1.315 -0.7713  0.7467 -0.1584
  828SOL    HW2 2484   2.547   1.415   1.438  2.6448  1.8679 -0.8734
  829SOL     OW 2485   2.989   2.171   0.506  0.4968  0.4979 -0.6508
  829SOL    HW1 2486   3.043   2.252   0.543 -0.8429 -1.8861  1.2503
  829SOL    HW2 2487   3.000   2.155   0.407  1.3646  0.8259  1.4061
  830SOL     OW 2488   1.098   0.623   0.496 -0.3532 -0.7217 -0.9387
  830SOL    HW1 2489   1.168   0.675   0.546 -3.1820  0.0949 -1.0284
  830SOL    HW2 2490   1.030   0.588   0.564 -1.6013 -0.5980 -0.3275
  831SOL     OW 2491   2.784   2.042   0.112 -0.2243  0.5074  0.1145
  831SOL    HW1 2492   2.776   1.950   0.066  2.4645 -1.5299  0.4201
  831SOL    HW2 2493   2.705   2.052   0.175  0.2008  0.4545  0.7852
  832SOL     OW 2494   0.923   2.639   0.348 -0.3373 -0.3449  0.0506
  832SOL    HW1 2495   0.850   2.580   0.384 -0.2635  0.1126  0.7393
  832SOL    HW2 2496   0.997   2.627   0.409 -2.2098  0.7752 -0.8188
  833SOL     OW 2497   1.110   0.795   2.413 -0.1786 -0.2488  0.4345
  833SOL    HW1 2498   1.087   0.834   2.323 -0.2834  0.9846 -0.6914
  833SOL    HW2 2499   1.209   0.816   2.435  0.4267  0.0075 -1.4537
  834SOL     OW 2500   2.895   0.809   0.732 -0.1137 -0.0254  0.4333
  834SOL    HW1 2501   2.812   0.833   0.681  1.4701 -0.4922  1.7957
  834SOL    HW2 2502   2.927   0.712   0.725  1.2813 -2.0900 -1.1605
  835SOL     OW 2503   2.489   0.471   1.983  0.4889 -0.5546 -0.0539
  835SOL    HW1 2504   2.531   0.566   1.964  0.1446  0.1285 -0.0440
  835SOL    HW2 2505   2.485   0.452   2.083 -1.1105 -0.8295 -0.4695
  836SOL     OW 2506   0.629   2.379   0.785 -0.1049  0.4440 -0.3060
  836SOL    HW1 2507   0.644   2.462   0.732  0.5890 -0.4259  1.0723
  836SOL    HW2 2508   0.670   2.302   0.734 -2.0011  0.7275  0.5316
  837SOL     OW 2509   2.364   1.663   2.101 -0.0348  0.2505 -0.2745
  837SOL    HW1 2510   2.383   1.597   2.178  4.0328 -1.2840 -0.7602
  837SOL    HW2 2511   2.382   1.751   2.133  0.5893 -1.3947 -1.2811
  838SOL     OW 2512   0.109   1.451   1.620 -0.0107  0.3819  0.1350
  838SOL    HW1 2513   0.161   1.435   1.534 -0.0143 -0.3101 -0.4908
  838SOL    HW2 2514   0.112   1.544   1.655 -0.0350 -2.0513 -1.6446
  839SOL     OW 2515   0.057   0.295   0.361 -0.3437 -0.2080 -0.4997
  839SOL    HW1 2516   0.096   0.315   0.272  0.4067 -3.3631  3.9992
  839SOL    HW2 2517   0.094   0.209   0.402 -1.3397  0.6433 -1.5570
  840SOL     OW 2518   3.116   0.636   2.448  0.7871  0.2726 -0.4587
  840SOL    HW1 2519   0.016   0.732   2.487 -1.5083  4.5086 -2.0377
  840SOL    HW2 2520   3.101   0.569   2.525 -0.7162  1.7396  1.2763
  841SOL     OW 2521   0.410   2.236   2.658  0.3662  0.4331  0.5643
  841SOL    HW1 2522   0.416   2.141   2.622  1.5677 -3.6716 -2.2680
  841SOL    HW2 2523   0.413   2.235   2.760 -1.8488  0.6796 -0.7633
  842SOL     OW 2524   0.768   0.015   0.898 -0.6339  0.2282  0.3631
  842SOL    HW1 2525   0.765   3.072   0.977  0.5942 -2.5785  1.7750
  842SOL    HW2 2526   0.775   3.090   0.808 -2.2674  0.9031  2.4692
  843SOL     OW 2527   0.486   1.556   2.844 -0.1739  0.0759 -0.3060
  843SOL    HW1 2528   0.555   1.623   2.824 -2.1193 -1.8058  0.4563
  843SOL    HW2 2529   0.501   1.470   2.791  0.8945  0.5360  0.6936
  844SOL     OW 2530   1.034   1.860   2.451  0.2871 -0.4839 -0.4732
  844SOL    HW1 2531   0.997   1.935   2.396  0.6829 -2.0358 -0.6520
  844SOL    HW2 2532   1.132   1.858   2.447  0.1742  3.3433 -2.3754
  845SOL     OW 2533   2.497   2.720   2.737 -0.0304 -0.1218  0.0104
  845SOL    HW1 2534   2.531   2.811   2.701  1.1485  1.2228  2.3513
  845SOL    HW2 2535   2.444   2.677   2.658  0.0992  1.0379 -0.5569
  846SOL     OW 2536   2.145   1.471   0.050  0.0478 -0.5888 -0.2202
  846SOL    HW1 2537   2.098   1.561   0.017 -0.5315  0.1737  0.4479
  846SOL    HW2 2538   2.208   1.489   0.130 -2.0218  1.9474 -2.1334
  847SOL     OW 2539   2.627   0.140   2.795  0.0905  0.3574 -0.2046
  847SOL    HW1 2540   2.673   0.218   2.750 -2.7408 -2.0512  0.5570
  847SOL    HW2 2541   2.532   0.171   2.824 -3.1058  1.9935  2.2408
  848SOL     OW 2542   3.090   0.811   3.115  0.1183 -0.6618 -0.0384
  848SOL    HW1 2543   2.989   0.809   3.098  1.4587 -0.7743  0.4063
  848SOL    HW2 2544   3.108   0.763   0.081  0.3007 -1.9922 -3.0545
  849SOL     OW 2545   1.612   0.306   2.205 -0.0657 -0.2579  0.5070
  849SOL    HW1 2546   1.568   0.239   2.265 -1.0603  1.8247 -2.0945
  849SOL    HW2 2547   1.558   0.395   2.207  0.2314  0.8122  0.1787
  850SOL     OW 2548   3.009   1.187   0.634  0.0756 -0.5247  0.3260
  850SOL    HW1 2549   3.059   1.233   0.558  0.9429 -1.1603  0.6906
  850SOL    HW2 2550   3.008   1.087   0.628 -0.0079  0.1662  2.8761
  851SOL     OW 2551   0.220   1.204   0.567 -0.1335  0.6120  0.2437
  851SOL    HW1 2552   0.147   1.245   0.502 -0.2286  1.7641 -3.1432
  851SOL    HW2 2553   0.279   1.280   0.599 -0.2840 -0.9221 -1.2288
  852SOL     OW 2554   1.157   1.154   1.766  0.1002  0.7422  0.0582
  852SOL    HW1 2555   1.085   1.210   1.727  1.3741  0.3443  0.0533
  852SOL    HW2 2556   1.207   1.102   1.694 -0.4865  0.7767  3.3540
  853SOL     OW 2557   2.400   1.302   0.196  0.4215  0.7422  0.4016
  853SOL    HW1 2558   2.494   1.280   0.229  1.5019  0.3004 -2.4730
  853SOL    HW2 2559   2.367   1.397   0.221 -1.5370  4.1129  2.4765
  854SOL     OW 2560   1.858   1.165   2.002  0.2456  0.3062  0.2957
  854SOL    HW1 2561   1.827   1.201   2.092 -1.4564 -0.5125 -2.4307
  854SOL    HW2 2562   1.926   1.221   1.951  3.2324 -3.5377  2.0448
  855SOL     OW 2563   0.347   2.132   2.297  0.1221  0.6196 -0.3050
  855SOL    HW1 2564   0.344   2.168   2.202 -2.1300 -1.3125 -2.3513
  855SOL    HW2 2565   0.312   2.208   2.353  2.6595  2.1672 -1.5711
  856SOL     OW 2566   1.032   1.038   1.968 -0.5356 -0.2580  0.2322
  856SOL    HW1 2567   0.968   1.113   2.001 -1.8628 -0.4731 -0.0503
  856SOL    HW2 2568   1.095   1.077   1.897 -0.0470  0.9156  0.9985
  857SOL     OW 2569   1.134   1.169   2.419  0.0538  0.7064  0.0845
  857SOL    HW1 2570   1.056   1.110   2.430  2.2427 -3.1823 -2.1233
  857SOL    HW2 2571   1.131   1.222   2.336 -0.2794 -0.8873  1.7608
  858SOL     OW 2572   2.960   1.069   1.873 -0.0761 -0.1830 -0.1041
  858SOL    HW1 2573   2.976   1.165   1.843  0.1166  3.7515  0.4728
  858SOL    HW2 2574   3.003   0.997   1.815 -2.0446  0.1907  0.7014
  859SOL     OW 2575   2.648   2.954   0.933 -0.4033 -0.0408  0.1181
  859SOL    HW1 2576   2.601   2.888   0.871 -0.7194  2.5592 -0.1745
  859SOL    HW2 2577   2.625   2.941   1.031 -1.2351  0.0943  0.1838
  860SOL     OW 2578   1.561   0.364   1.429  0.2411 -0.1351 -0.4817
  860SOL    HW1 2579   1.573   0.458   1.387  0.3161  0.0208  2.5646
  860SOL    HW2 2580   1.622   0.292   1.386  2.4215  0.3389 -2.2451
  861SOL     OW 2581   1.801   0.691   1.368 -0.3566  0.0235  0.5157
  861SOL    HW1 2582   1.827   0.781   1.328  1.2951  2.9509  0.3402
  861SOL    HW2 2583   1.718   0.702   1.420  2.1447 -0.8040  0.3294
  862SOL     OW 2584   1.271   2.913   2.516 -0.3229 -0.0577 -0.0648
  862SOL    HW1 2585   1.260   2.854   2.435  1.0393 -0.3649 -1.3530
  862SOL    HW2 2586   1.360   2.885   2.559  1.1797 -0.4372  1.2352
  863SOL     OW 2587   2.700   3.063   1.416  0.4354  0.0035  0.0295
  863SOL    HW1 2588   2.640   3.118   1.482 -2.6691 -1.4776  2.8475
  863SOL    HW2 2589   2.769   3.120   1.369 -1.2373  0.1651  0.8148
  864SOL     OW 2590   2.775   3.004   1.935 -0.1520 -0.3354 -0.2455
  864SOL    HW1 2591   2.852   2.997   2.004  0.4668 -0.2197  3.2393
  864SOL    HW2 2592   2.689   2.986   1.987  0.0505  1.8456  2.9379
  865SOL     OW 2593   1.273   1.234   2.659  0.4486 -0.1973 -0.3621
  865SOL    HW1 2594   1.250   1.177   2.739  0.4513 -2.5692 -0.5802
  865SOL    HW2 2595   1.219   1.211   2.578  1.8681  1.2495  0.5569
  866SOL     OW 2596   2.325   3.099   1.058 -0.4231 -0.2411 -0.2225
  866SOL    HW1 2597   2.327   3.051   0.970 -0.5032 -0.5654  1.7418
  866SOL    HW2 2598   2.417   3.073   1.102 -5.4899 -1.2986  0.1593
  867SOL     OW 2599   2.944   2.688   0.977  0.2276  0.6107 -0.0115
  867SOL    HW1 2600   2.919   2.770   1.040 -3.1057  2.1392  1.6048
  867SOL    HW2 2601   3.010   2.620   1.016 -1.3953 -1.7423  0.9013
  868SOL     OW 2602   3.049   1.848   1.568  0.4203  0.5034  0.6231
  868SOL    HW1 2603   3.090   1.776   1.510  1.1831  0.1594 -0.7244
  868SOL    HW2 2604   2.976   1.808   1.624 -0.2111  4.1223  2.1944
  869SOL     OW 2605   2.005   2.035   2.447  0.0136  0.2749  0.1238
  869SOL    HW1 2606   1.935   2.092   2.496 -0.6063  0.0727  0.6853
  869SOL    HW2 2607   2.096   2.083   2.456  3.3057 -0.1521 -1.0207
  870SOL     OW 2608   1.230   0.890   0.623  0.2234  0.5208 -0.2896
  870SOL    HW1 2609   1.164   0.957   0.664 -0.1565 -1.3410  1.0362
  870SOL    HW2 2610   1.258   0.816   0.689 -1.2556  2.4920 -0.4794
  871SOL     OW 2611   2.710   1.713   1.978 -0.0763  0.0012 -0.6460
  871SOL    HW1 2612   2.628   1.716   1.918 -0.0976  0.8821  1.7111
  871SOL    HW2 2613   2.690   1.664   2.067 -1.5029  2.6507  0.3535
  872SOL     OW 2614   0.910   1.604   2.944 -0.4746  1.0005 -0.1524
  872SOL    HW1 2615   1.000   1.649   2.952 -3.9986  1.4186  1.5570
  872SOL    HW2 2616   0.876   1.580   3.040 -2.1896 -3.3520 -1.5206
  873SOL     OW 2617   0.849   1.427   1.903  0.6829 -0.0270  0.4291
  873SOL    HW1 2618   0.771   1.481   1.933  2.3617 -1.5295 -1.1609
  873SOL    HW2 2619   0.856   1.427   1.798  1.4517 -0.6025 -5.5113
  874SOL     OW 2620   1.488   1.106   1.343 -0.0442 -0.2171  0.0464
  874SOL    HW1 2621   1.502   1.204   1.356  0.7749  1.3957  0.1893
  874SOL    HW2 2622   1.454   1.087   1.249  1.8477  0.7595  2.0306
  875SOL     OW 2623   2.823   3.090   2.689  0.2074 -0.2925 -0.0164
  875SOL    HW1 2624   2.753   0.046   2.699  0.1188  3.6521  0.1340
  875SOL    HW2 2625   2.881   3.102   2.601 -0.6174  0.4023 -1.4209
  876SOL     OW 2626   1.197   1.364   0.541 -0.0953 -0.0612 -0.1843
  876SOL    HW1 2627   1.214   1.264   0.522  1.1853 -0.6192  1.7100
  876SOL    HW2 2628   1.291   1.407   0.540  0.8039 -0.9091  4.2601
  877SOL     OW 2629   1.946   2.859   0.538 -0.2338 -0.2897  0.3752
  877SOL    HW1 2630   1.978   2.958   0.563  0.9342  0.9355  0.5968
  877SOL    HW2 2631   2.001   2.790   0.595 -1.3242 -2.5883  3.0662
  878SOL     OW 2632   1.916   2.269   0.205 -0.0555  0.3556 -0.1185
  878SOL    HW1 2633   1.989   2.202   0.232  2.1124  2.0251  0.8175
  878SOL    HW2 2634   1.831   2.244   0.247  1.9671  2.0729 -1.2476
  879SOL     OW 2635   0.181   1.882   1.653 -0.1087  0.1872 -0.6588
  879SOL    HW1 2636   0.076   1.895   1.641  2.0986  0.4350  0.4925
  879SOL    HW2 2637   0.227   1.963   1.695 -0.2896 -1.4243 -0.1433
  880SOL     OW 2638   0.149   1.914   0.819  0.1464 -0.2941 -0.4723
  880SOL    HW1 2639   0.110   1.997   0.871  1.7127 -0.3699  0.9747
  880SOL    HW2 2640   0.078   1.870   0.759 -1.3448 -1.9547 -0.1015
  881SOL     OW 2641   1.105   0.161   2.294 -0.4132 -0.6097  0.7966
  881SOL    HW1 2642   1.102   0.109   2.386  1.6807 -2.6794  2.6183
  881SOL    HW2 2643   1.095   0.262   2.302  0.8397 -0.6869 -1.0455
  882SOL     OW 2644   2.706   1.024   0.991 -0.1751  0.3014 -0.0525
  882SOL    HW1 2645   2.796   0.983   1.008 -2.4037  2.7608  3.0390
  882SOL    HW2 2646   2.636   0.977   1.050  0.1115 -1.4256 -3.1869
  883SOL     OW 2647   1.503   0.474   1.918 -0.1851  0.4029  0.0551
  883SOL    HW1 2648   1.484   0.528   2.001  1.3409 -2.0283 -0.7720
  883SOL    HW2 2649   1.605   0.469   1.907  0.2093  0.4801  0.2872
  884SOL     OW 2650   3.027   0.163   1.643 -0.4552 -0.5738 -0.3334
  884SOL    HW1 2651   3.106   0.144   1.581 -2.4702 -1.2459 -1.3705
  884SOL    HW2 2652   3.044   0.249   1.691  3.7131  0.6431 -2.0327
  885SOL     OW 2653   2.133   1.255   2.658  0.3879  0.3092  0.5821
  885SOL    HW1 2654   2.156   1.325   2.729  1.1726 -2.8786 -0.3822
  885SOL    HW2 2655   2.049   1.197   2.687 -1.7941  0.2040  1.6691
  886SOL     OW 2656   2.182   0.279   3.075  0.4278 -0.0196  0.7241
  886SOL    HW1 2657   2.235   0.311   0.032 -0.1466 -1.2832  0.3543
  886SOL    HW2 2658   2.084   0.315   3.085 -2.1238  0.8617  1.0570
  887SOL     OW 2659   1.121   2.780   1.698  0.4378 -0.0913  0.1042
  887SOL    HW1 2660   1.182   2.745   1.771 -0.5162  0.3687 -2.6345
  887SOL    HW2 2661   1.168   2.775   1.607 -0.4336  0.3955 -0.5783
  888SOL     OW 2662   2.187   1.706   1.899 -0.3736  0.8646 -0.1908
  888SOL    HW1 2663   2.257   1.686   1.976 -1.4288 -0.0582  2.6383
  888SOL    HW2 2664   2.233   1.712   1.807 -0.2460 -1.7880  1.7933
  889SOL     OW 2665   1.885   2.304   1.281  0.1618 -0.2015  0.2970
  889SOL    HW1 2666   1.971   2.335   1.242  0.2815  1.1923 -2.3696
  889SOL    HW2 2667   1.844   2.226   1.228 -3.1508 -1.1470 -0.2551
  890SOL     OW 2668   1.159   2.030   0.976 -0.1509 -0.1007 -0.1043
  890SOL    HW1 2669   1.113   2.014   1.062 -2.3640  0.9966 -3.0035
  890SOL    HW2 2670   1.095   2.014   0.897  0.5754 -1.4767 -2.9155
  891SOL     OW 2671   3.109   1.260   0.376  0.3649 -0.3225  0.2017
  891SOL    HW1 2672   3.101   1.172   0.320 -3.1010 -1.4213 -2.3056
  891SOL    HW2 2673   3.022   1.307   0.378  2.3180 -0.6532  0.8153
  892SOL     OW 2674   2.390   1.338   2.973  0.3876  0.3271 -0.2387
  892SOL    HW1 2675   2.362   1.250   2.931  1.1731  2.6400 -0.8685
  892SOL    HW2 2676   2.400   1.326   3.074 -0.1948 -0.1865  3.1105
  893SOL     OW 2677   2.152   2.613   1.358  0.4923  0.4258 -0.1160
  893SOL    HW1 2678   2.172   2.709   1.376  0.9180 -1.0011 -0.7842
  893SOL    HW2 2679   2.213   2.548   1.406 -1.6997 -0.5365  0.3955
  894SOL     OW 2680   2.588   0.079   0.828  0.2240  0.5148 -0.1137
  894SOL    HW1 2681   2.512   0.057   0.761 -0.4521 -2.5579 -0.1432
  894SOL    HW2 2682   2.622   3.116   0.872 -0.0434  0.2924  0.3261
  895SOL     OW 2683   2.786   2.414   2.633  0.1182 -0.1840 -0.0338
  895SOL    HW1 2684   2.789   2.504   2.583  0.3974 -1.2281 -1.5948
  895SOL    HW2 2685   2.818   2.340   2.571  2.1300 -1.1323  2.3587
  896SOL     OW 2686   2.246   0.034   2.711 -0.0842 -0.2210 -0.6358
  896SOL    HW1 2687   2.195   0.062   2.630 -0.0159 -0.8360  1.3833
  896SOL    HW2 2688   2.273   0.117   2.766  0.4232  0.3691  0.3063
  897SOL     OW 2689   0.262   1.597   1.981 -0.7828 -0.1076 -0.0430
  897SOL    HW1 2690   0.275   1.497   1.995  1.0265  0.2781 -2.1541
  897SOL    HW2 2691   0.275   1.652   2.067 -0.2329  2.0529  0.1327
  898SOL     OW 2692   2.820   1.753   1.674  0.2390  1.0438 -0.0083
  898SOL    HW1 2693   2.785   1.780   1.764 -1.2512 -0.5842 -0.7644
  898SOL    HW2 2694   2.735   1.728   1.622 -2.5674  0.0448  2.1480
  899SOL     OW 2695   1.810   3.080   1.479 -0.2329  0.4263  0.2725
  899SOL    HW1 2696   1.894   3.083   1.535 -1.8655 -1.7769 -0.7338
  899SOL    HW2 2697   1.785   2.985   1.447 -1.3944 -1.3552 -1.3894
  900SOL     OW 2698   1.310   0.846   0.182  0.2733 -0.1410  0.1880
  900SOL    HW1 2699   1.293   0.751   0.149 -1.5072 -3.4721  2.4786
  900SOL    HW2 2700   1.322   0.857   0.285 -0.7029 -0.9487  3.5842
  901SOL     OW 2701   1.195   1.079   2.872  0.2052 -0.6376 -0.2925
  901SOL    HW1 2702   1.256   1.016   2.928  0.3054 -1.1681  3.4101
  901SOL    HW2 2703   1.144   1.021   2.814  2.3015  2.7045  2.6341
  902SOL     OW 2704   2.787   2.635   0.545  0.3939 -0.3475  0.1908
  902SOL    HW1 2705   2.873   2.679   0.576 -0.4693  0.5045 -0.3988
  902SOL    HW2 2706   2.735   2.618   0.630  2.1115  0.7228  1.4067
  903SOL     OW 2707   3.011   1.332   2.024  0.0762  0.1133 -0.4426
  903SOL    HW1 2708   3.009   1.341   1.924 -0.2598 -1.9371 -0.1447
  903SOL    HW2 2709   3.104   1.302   2.056  2.7407 -1.9213 -1.5465
  904SOL     OW 2710   1.765   1.067   0.773 -0.0810  0.4081  0.6628
  904SOL    HW1 2711   1.697   1.077   0.848  4.9340  2.7030  0.2359
  904SOL    HW2 2712   1.849   1.021   0.801 -3.1579  1.0331 -0.2552
  905SOL     OW 2713   2.292   2.815   1.547 -0.1751  0.0038 -0.0815
  905SOL    HW1 2714   2.194   2.816   1.572  1.4539  0.8266 -0.8370
  905SOL    HW2 2715   2.351   2.825   1.627  0.4861  0.1585  0.7408
  906SOL     OW 2716   1.523   2.469   3.094 -0.8699 -0.0245 -0.7125
  906SOL    HW1 2717   1.570   2.532   0.043  2.6752 -0.1081 -0.3733
  906SOL    HW2 2718   1.577   2.459   3.007  0.2762 -0.2580 -1.2010
  907SOL     OW 2719   0.593   2.819   0.827  0.1001 -0.9373  0.0423
  907SOL    HW1 2720   0.627   2.791   0.918  1.1252  1.4082 -0.4428
  907SOL    HW2 2721   0.494   2.850   0.837 -3.3239  0.1227  0.0241
  908SOL     OW 2722   0.691   0.125   1.984  0.1461 -0.0230  0.1467
  908SOL    HW1 2723   0.770   0.117   2.048 -0.2447  0.5806 -0.4018
  908SOL    HW2 2724   0.724   0.166   1.892 -0.0890  1.9328 -0.5244
  909SOL     OW 2725   2.159   0.681   1.618 -0.2061 -0.0641 -0.2972
  909SOL    HW1 2726   2.080   0.620   1.604  1.0757 -1.8835  0.0817
  909SOL    HW2 2727   2.133   0.779   1.638  3.1027 -0.2884 -2.0839
  910SOL     OW 2728   1.320   0.634   3.082  0.2403  0.1121  0.2262
  910SOL    HW1 2729   1.223   0.606   3.080 -0.4165  0.5768 -0.2960
  910SOL    HW2 2730   1.378   0.558   0.002 -1.7015  0.1810  1.9475
  911SOL     OW 2731   0.113   0.357   3.007 -0.4675  0.3373  0.2693
  911SOL    HW1 2732   0.008   0.351   3.005 -0.2868 -1.9272 -0.6986
  911SOL    HW2 2733   0.158   0.269   2.985  1.5258  0.4048 -1.4042
  912SOL     OW 2734   3.029   2.374   2.907  0.5398 -0.2055 -0.2246
  912SOL    HW1 2735   2.968   2.446   2.944  0.2011 -2.4598 -1.0002
  912SOL    HW2 2736   3.000   2.285   2.940 -1.8378  1.3789  0.2356
  913SOL     OW 2737   2.725   2.325   3.029  0.5031 -0.1294  0.1496
  913SOL    HW1 2738   2.813   2.277   2.994  1.7884 -0.7875  0.5647
  913SOL    HW2 2739   2.704   2.394   2.955 -1.3363 -1.0953 -2.2995
  914SOL     OW 2740   1.793   1.842   1.746  0.0486  0.0717 -0.0460
  914SOL    HW1 2741   1.703   1.807   1.783 -0.1797 -0.2361 -0.5963
  914SOL    HW2 2742   1.845   1.886   1.820 -1.1592 -0.3317 -0.6991
  915SOL     OW 2743   0.064   2.494   2.158 -0.0770 -0.0076 -0.5410
  915SOL    HW1 2744   0.129   2.537   2.226  0.1511 -0.0884  2.2755
  915SOL    HW2 2745   0.088   2.399   2.138 -1.9204  0.6748  1.3046
  916SOL     OW 2746   3.002   1.328   1.729  0.3494  0.5397  1.0093
  916SOL    HW1 2747   3.089   1.361   1.687 -1.2751  0.5857 -0.7947
  916SOL    HW2 2748   2.925   1.377   1.682  2.0792 -0.5857 -1.3087
  917SOL     OW 2749   2.179   0.014   3.059  0.2932  0.6673 -0.1365
  917SOL    HW1 2750   2.147   3.091   2.970 -1.4638 -1.8270 -0.4872
  917SOL    HW2 2751   2.177   0.116   3.057 -1.4437  0.7882  0.3321
  918SOL     OW 2752   1.780   2.638   2.241  0.1465  0.0866 -0.0627
  918SOL    HW1 2753   1.865   2.605   2.198 -1.5968 -1.6616  1.8682
  918SOL    HW2 2754   1.777   2.740   2.244 -0.1821 -0.6129  0.7146
  919SOL     OW 2755   1.980   2.285   1.796 -0.3762  0.2962 -0.3869
  919SOL    HW1 2756   1.958   2.251   1.705  0.5715 -0.4082  0.4675
  919SOL    HW2 2757   1.955   2.230   1.876  0.5101 -0.7826  3.1243
  920SOL     OW 2758   0.452   0.946   0.044 -0.3909 -0.0761  0.4468
  920SOL    HW1 2759   0.555   0.958   0.059  1.9471 -1.2908 -0.9081
  920SOL    HW2 2760   0.439   0.882   3.085  1.5293  1.3040  1.3694
  921SOL     OW 2761   2.919   1.125   2.758  0.0338 -0.5407 -0.3140
  921SOL    HW1 2762   2.828   1.144   2.802 -0.5204  1.4380  1.3179
  921SOL    HW2 2763   2.911   1.078   2.666  0.1333  1.3944 -1.4739
  922SOL     OW 2764   0.286   2.069   0.219  0.4835 -0.0095  0.0786
  922SOL    HW1 2765   0.210   2.088   0.156  2.6148 -0.7550  1.0032
  922SOL    HW2 2766   0.302   1.971   0.237 -2.0123 -0.6379  0.1124
  923SOL     OW 2767   0.443   0.976   2.044 -0.2014 -0.8080 -0.0504
  923SOL    HW1 2768   0.352   0.997   1.998 -2.1674 -1.6485 -0.0473
  923SOL    HW2 2769   0.466   0.879   2.032 -3.4293  1.3020 -0.0636
  924SOL     OW 2770   1.142   2.861   2.755  0.5900 -0.0159  0.1611
  924SOL    HW1 2771   1.182   2.899   2.669 -0.8061 -0.5979 -1.7492
  924SOL    HW2 2772   1.179   2.903   2.845  0.8158  0.0942  5.0454
  925SOL     OW 2773   1.973   1.282   0.970 -0.0336  0.5877 -0.4272
  925SOL    HW1 2774   1.922   1.318   0.893  2.4412 -3.4396  0.9179
  925SOL    HW2 2775   2.072   1.303   0.955 -0.7092  0.3575 -0.5447
  926SOL     OW 2776   1.781   0.727   2.046 -0.0566 -0.0405 -0.0959
  926SOL    HW1 2777   1.782   0.639   1.995 -1.6140 -1.3714 -1.9045
  926SOL    HW2 2778   1.686   0.763   2.060  0.2278 -0.8869 -1.0291
  927SOL     OW 2779   2.786   2.475   1.974  0.1817  0.6493  0.1269
  927SOL    HW1 2780   2.846   2.527   1.907  0.3476 -1.0201  0.3246
  927SOL    HW2 2781   2.751   2.532   2.046 -2.1593  0.4789  1.1086
  928SOL     OW 2782   0.383   0.774   2.473  0.5679  0.1897  0.1347
  928SOL    HW1 2783   0.376   0.786   2.578  1.4415 -1.0383  1.0921
  928SOL    HW2 2784   0.480   0.791   2.444  0.0085 -1.7274  0.6666
  929SOL     OW 2785   2.896   3.036   0.850  0.4297 -0.1668  0.0494
  929SOL    HW1 2786   2.803   2.994   0.874 -0.9787 -0.5975  2.8156
  929SOL    HW2 2787   2.929   3.015   0.756 -0.3399 -0.2968 -0.6579
  930SOL     OW 2788   2.379   0.233   1.396 -0.1986  0.4009 -0.2052
  930SOL    HW1 2789   2.340   0.290   1.474 -0.7262 -0.1348  1.7409
  930SOL    HW2 2790   2.478   0.211   1.402  3.0749 -1.5476 -2.4917
  931SOL     OW 2791   2.457   1.050   3.041  0.0612  0.5222 -0.3829
  931SOL    HW1 2792   2.485   0.952   3.043  2.0571  1.0589 -0.1324
  931SOL    HW2 2793   2.378   1.078   3.099 -1.7644  2.5500 -0.0074
  932SOL     OW 2794   2.518   1.488   1.749  0.4541 -0.5561  0.5521
  932SOL    HW1 2795   2.506   1.588   1.747 -2.4062 -1.0210  0.2394
  932SOL    HW2 2796   2.525   1.445   1.659  0.4573 -1.5355  1.6043
  933SOL     OW 2797   3.025   2.548   1.568  0.7559 -0.6319 -0.3029
  933SOL    HW1 2798   3.104   2.568   1.508 -0.6374  0.3446  0.6926
  933SOL    HW2 2799   2.997   2.453   1.555  0.1250  1.3025  1.7427
  934SOL     OW 2800   0.732   2.421   1.403 -0.0800  0.7252 -0.3507
  934SOL    HW1 2801   0.750   2.340   1.343  1.5394 -0.9657  1.0211
  934SOL    HW2 2802   0.793   2.496   1.381 -0.1130  2.1475 -1.2337
  935SOL     OW 2803   2.417   1.520   2.320 -0.5172 -0.0616  0.2313
  935SOL    HW1 2804   2.363   1.529   2.410 -1.3201  2.5531  2.7655
  935SOL    HW2 2805   2.413   1.428   2.277  2.0679 -1.5088 -1.4765
  936SOL     OW 2806   2.405   1.307   1.927  0.1831 -0.1596 -0.1007
  936SOL    HW1 2807   2.407   1.387   1.861 -1.1549 -0.3681 -0.2929
  936SOL    HW2 2808   2.491   1.305   1.983  0.9369  0.0270  4.2481
  937SOL     OW 2809   2.145   1.018   2.166 -0.0292  0.1962  0.0998
  937SOL    HW1 2810   2.045   1.004   2.168  3.4316 -0.4696  0.1518
  937SOL    HW2 2811   2.193   0.984   2.253  3.4016  0.3011  2.7794
  938SOL     OW 2812   0.732   2.333   2.995  0.1811  0.4055 -0.3831
  938SOL    HW1 2813   0.758   2.347   3.091 -0.4434 -1.5586 -3.7700
  938SOL    HW2 2814   0.750   2.413   2.936 -4.5824  0.0866  1.9001
  939SOL     OW 2815   2.820   0.842   2.995  0.2397  0.0368  0.3458
  939SOL    HW1 2816   2.877   0.825   2.912 -0.8255  0.5971  0.5574
  939SOL    HW2 2817   2.725   0.811   2.979  2.1989 -3.0284 -0.7475
  940SOL     OW 2818   1.022   1.837   1.222 -0.3876  0.2411 -0.2173
  940SOL    HW1 2819   1.027   1.738   1.188 -2.6999 -3.2398  0.2911
  940SOL    HW2 2820   1.109   1.862   1.277 -0.6436  0.5759  0.9189
  941SOL     OW 2821   0.641   1.961   1.993  0.0954  0.3156 -0.7885
  941SOL    HW1 2822   0.727   1.911   2.021  0.1885  0.9366  2.2847
  941SOL    HW2 2823   0.658   1.995   1.903 -0.8409 -0.9776  0.2638
  942SOL     OW 2824   0.281   1.984   2.913 -0.5069 -0.5619  0.1909
  942SOL    HW1 2825   0.245   2.029   2.829  1.4554  0.6091 -2.9024
  942SOL    HW2 2826   0.279   1.884   2.906  1.8684  0.6832  0.1551
  943SOL     OW 2827   1.797   2.765   1.808  0.4011 -0.5700 -0.2221
  943SOL    HW1 2828   1.793   2.669   1.833  0.4188  2.6247 -2.9003
  943SOL    HW2 2829   1.866   2.780   1.736  0.9230 -0.4178  1.3069
  944SOL     OW 2830   1.026   1.640   0.142 -0.9090 -0.2084  0.1235
  944SOL    HW1 2831   1.065   1.730   0.103  1.7716  2.7639 -0.5196
  944SOL    HW2 2832   1.100   1.571   0.148 -0.7595  2.9919  0.3333
  945SOL     OW 2833   2.520   2.731   0.833  0.1013 -0.3825  0.1519
  945SOL    HW1 2834   2.600   2.681   0.800 -2.4476 -1.3595  1.0114
  945SOL    HW2 2835   2.443   2.707   0.765 -1.0996 -1.5016 -2.0662
  946SOL     OW 2836   0.925   1.461   2.717 -0.0885  0.0096 -0.1403
  946SOL    HW1 2837   0.989   1.513   2.653  0.7817 -0.7118 -0.5644
  946SOL    HW2 2838   0.915   1.517   2.801 -0.3453  0.0993  0.0550
  947SOL     OW 2839   2.805   0.577   2.044 -0.3764  0.4863 -0.1977
  947SOL    HW1 2840   2.707   0.600   2.033 -1.5643 -0.7624 -1.0466
  947SOL    HW2 2841   2.858   0.587   1.956  2.0757  0.8525 -0.6257
  948SOL     OW 2842   0.197   1.564   0.800  0.6257  0.0335  0.2163
  948SOL    HW1 2843   0.260   1.486   0.769 -0.7524  0.5117  0.1976
  948SOL    HW2 2844   0.237   1.624   0.870  0.7021 -2.4758 -1.2644
  949SOL     OW 2845   0.788   0.656   2.328 -0.0444  0.4791  0.5784
  949SOL    HW1 2846   0.779   0.574   2.275 -1.4533  1.0755 -1.3588
  949SOL    HW2 2847   0.842   0.641   2.408  0.3764 -0.1511 -1.2230
  950SOL     OW 2848   0.130   0.603   1.379  0.6234 -0.3097  0.4712
  950SOL    HW1 2849   0.176   0.688   1.341 -0.8865 -2.9773 -2.0986
  950SOL    HW2 2850   0.166   0.588   1.470  1.6766 -2.5658 -0.8500
  951SOL     OW 2851   0.782   1.347   2.510 -0.5645  0.2058  0.3061
  951SOL    HW1 2852   0.811   1.403   2.593 -0.8437 -0.8295 -0.5724
  951SOL    HW2 2853   0.831   1.371   2.428  0.5434 -3.0885  0.2461
  952SOL     OW 2854   1.957   2.153   0.803 -0.4505  0.5964  0.0070
  952SOL    HW1 2855   1.910   2.103   0.726 -2.8813  1.3494  0.5570
  952SOL    HW2 2856   1.972   2.251   0.772 -0.1140 -1.1811  0.8102
  953SOL     OW 2857   0.829   0.725   0.040  0.0598  0.1256  0.1637
  953SOL    HW1 2858   0.861   0.742   0.140  1.4539 -0.4372  1.0926
  953SOL    HW2 2859   0.738   0.686   0.036  0.8813 -0.0819 -2.7547
  954SOL     OW 2860   2.294   0.691   1.268  0.3491  0.3192 -0.0592
  954SOL    HW1 2861   2.357   0.615   1.300  1.3255 -2.5892  3.9377
  954SOL    HW2 2862   2.237   0.659   1.189  3.8986  1.6948 -1.9926
  955SOL     OW 2863   2.015   1.210   0.409  0.0244 -0.3882 -0.5186
  955SOL    HW1 2864   2.083   1.169   0.344 -1.7091  1.0361 -0.8223
  955SOL    HW2 2865   1.926   1.214   0.359 -0.0553 -1.8652  0.6924
  956SOL     OW 2866   1.038   0.653   1.899  0.1439  0.3519  0.3305
  956SOL    HW1 2867   1.097   0.625   1.819  0.2502  2.2854  1.2406
  956SOL    HW2 2868   1.096   0.657   1.982  0.0621 -1.2076  1.4822
  957SOL     OW 2869   1.387   0.424   1.657 -0.0590  0.5239  0.3832
  957SOL    HW1 2870   1.440   0.420   1.745  0.2116 -0.5332  0.8063
  957SOL    HW2 2871   1.451   0.395   1.583  1.9936  0.2159 -1.1981
  958SOL     OW 2872   0.252   2.183   0.478  0.0412 -0.0239  0.7141
  958SOL    HW1 2873   0.273   2.135   0.387  0.4808  0.2014 -0.9745
  958SOL    HW2 2874   0.291   2.141   0.560  1.6102  0.4557 -0.5959
  959SOL     OW 2875   2.314   0.821   2.057  0.1243  0.1913  0.0950
  959SOL    HW1 2876   2.281   0.742   1.996 -0.1564 -0.7236 -2.5579
  959SOL    HW2 2877   2.251   0.902   2.046  0.2189  2.7090 -0.9439
  960SOL     OW 2878   3.004   1.903   2.894  0.1339  0.3154 -0.0844
  960SOL    HW1 2879   3.073   1.947   2.833 -0.5149 -0.5268 -0.3048
  960SOL    HW2 2880   3.042   1.840   2.962 -2.2863  0.7408 -0.6775
  961SOL     OW 2881   0.548   1.921   1.454 -0.2269 -0.4818  0.6916
  961SOL    HW1 2882   0.615   1.916   1.376 -0.2145  0.0454  0.5132
  961SOL    HW2 2883   0.587   1.957   1.539 -0.5809 -1.7489 -2.4023
  962SOL     OW 2884   0.791   1.231   0.725 -0.1178 -0.1393  0.0285
  962SOL    HW1 2885   0.727   1.282   0.662  0.8153 -1.1553  0.2866
  962SOL    HW2 2886   0.830   1.284   0.801  0.4831 -0.7874 -0.4170
  963SOL     OW 2887   1.312   1.886   2.461  0.5247  0.3909  0.3399
  963SOL    HW1 2888   1.350   1.802   2.417  3.2870 -0.0524 -3.7818
  963SOL    HW2 2889   1.360   1.966   2.421 -0.7761  0.0912  1.3414
  964SOL     OW 2890   0.136   2.926   2.038  0.1330  0.2387  0.0673
  964SOL    HW1 2891   0.070   2.855   2.059 -0.5833 -1.0590 -2.4185
  964SOL    HW2 2892   0.220   2.908   2.091 -0.7067  0.1642 -0.0595
  965SOL     OW 2893   0.293   1.757   2.646 -0.2048  0.4052  0.0682
  965SOL    HW1 2894   0.283   1.734   2.746 -0.8645  1.9693 -2.6383
  965SOL    HW2 2895   0.203   1.764   2.599 -0.8275  0.0901 -0.5385
  966SOL     OW 2896   3.062   1.755   3.099 -0.0947  0.0576 -0.2800
  966SOL    HW1 2897   3.071   1.662   3.054  1.0056  1.9910 -1.9892
  966SOL    HW2 2898   0.016   1.785   0.038 -3.2980 -0.5692 -2.5603
  967SOL     OW 2899   2.134   3.067   0.191  0.8016  0.4039  0.1541
  967SOL    HW1 2900   2.089   2.981   0.228  1.6998 -0.1108 -0.7955
  967SOL    HW2 2901   2.127   3.086   0.091 -1.7079  0.8108  0.2601
  968SOL     OW 2902   2.424   3.053   0.609 -0.3034 -0.1722  0.4899
  968SOL    HW1 2903   2.518   3.010   0.593  4.3089 -0.5969 -1.8137
  968SOL    HW2 2904   2.373   3.061   0.522  2.3497 -0.2966  1.8999
  969SOL     OW 2905   0.212   1.249   1.791 -0.0204 -0.3216 -0.2419
  969SOL    HW1 2906   0.182   1.316   1.719 -2.8640 -0.6948 -0.5108
  969SOL    HW2 2907   0.174   1.154   1.775  0.3755  0.1632  0.8445
  970SOL     OW 2908   1.657   1.891   0.085  0.4367 -0.1136  0.0342
  970SOL    HW1 2909   1.716   1.913   0.167 -1.6094  1.8809 -1.3466
  970SOL    HW2 2910   1.559   1.912   0.106 -0.5399  0.8938  1.0028
  971SOL     OW 2911   2.320   0.060   1.666 -0.3624 -0.9316  0.3971
  971SOL    HW1 2912   2.401   0.093   1.607  1.4374  3.1150 -3.0937
  971SOL    HW2 2913   2.252   0.133   1.652  2.8504 -1.7299 -0.0570
  972SOL     OW 2914   2.774   0.240   1.137 -0.1265  0.4671 -0.1022
  972SOL    HW1 2915   2.873   0.223   1.106  2.6597 -0.7453 -0.1732
  972SOL    HW2 2916   2.718   0.300   1.081  2.0514 -0.1281  0.8101
  973SOL     OW 2917   0.776   0.422   2.196  0.2345  0.2023 -0.1655
  973SOL    HW1 2918   0.688   0.372   2.224  0.6547 -1.8455  2.3354
  973SOL    HW2 2919   0.768   0.462   2.104 -0.9640  1.5686  3.9210
  974SOL     OW 2920   2.669   1.208   2.407 -0.0278 -0.0736  0.2033
  974SOL    HW1 2921   2.579   1.225   2.371  3.2974  1.6266  1.6879
  974SOL    HW2 2922   2.738   1.249   2.345  0.5546  0.9054 -0.1327
  975SOL     OW 2923   1.009   0.204   1.840  0.1140 -0.1667 -0.4934
  975SOL    HW1 2924   1.082   0.266   1.877  0.7739  0.5583 -0.8826
  975SOL    HW2 2925   1.048   0.134   1.778  0.0670 -0.4309 -2.3316
  976SOL     OW 2926   1.340   1.557   1.242  0.1007  0.3052 -0.3073
  976SOL    HW1 2927   1.417   1.618   1.261  0.5671 -2.0020 -2.5077
  976SOL    HW2 2928   1.342   1.478   1.309 -1.1867  0.6251  1.2407
  977SOL     OW 2929   0.554   3.056   0.212 -0.2170  0.3606 -0.0632
  977SOL    HW1 2930   0.484   2.991   0.245 -0.5997 -0.3202 -0.1385
  977SOL    HW2 2931   0.651   3.019   0.222  3.4019 -1.2224 -1.5974
  978SOL     OW 2932   2.435   1.234   2.272  0.0304 -0.2039 -0.1369
  978SOL    HW1 2933   2.465   1.155   2.216  0.8172  0.1795  0.0457
  978SOL    HW2 2934   2.343   1.230   2.308  1.1844  0.2428 -0.9801
  979SOL     OW 2935   1.438   0.539   2.196  0.1790 -1.1188 -0.1851
  979SOL    HW1 2936   1.464   0.626   2.241 -0.1383 -2.6342  0.5748
  979SOL    HW2 2937   1.339   0.519   2.216 -0.9692 -0.0034  3.2299
  980SOL     OW 2938   1.865   1.566   2.539  0.1885  0.2173  0.4577
  980SOL    HW1 2939   1.787   1.575   2.477 -0.0282 -0.8288  0.5823
  980SOL    HW2 2940   1.833   1.527   2.625 -0.5276  1.8405 -0.5217
  981SOL     OW 2941   1.774   0.665   1.715  0.1315 -0.5309 -0.4767
  981SOL    HW1 2942   1.795   0.763   1.690  1.6205  1.3514 -1.7185
  981SOL    HW2 2943   1.816   0.604   1.644 -1.2749  3.7255 -2.8718
  982SOL     OW 2944   0.621   0.478   2.951 -0.0872  0.4155 -0.0385
  982SOL    HW1 2945   0.610   0.530   3.037  0.9793 -0.2249 -1.4876
  982SOL    HW2 2946   0.538   0.422   2.930 -3.5959  2.1887  2.9603
  983SOL     OW 2947   2.658   0.700   0.119  0.8978  0.7070 -0.4032
  983SOL    HW1 2948   2.680   0.798   0.120 -1.3651 -0.4095 -1.8530
  983SOL    HW2 2949   2.699   0.657   0.041 -0.5146  3.7187  0.1392
  984SOL     OW 2950   1.002   0.422   2.325 -0.5576 -0.0509  0.1781
  984SOL    HW1 2951   0.996   0.462   2.423  2.2195  1.4578  0.6551
  984SOL    HW2 2952   0.908   0.407   2.282  0.8286  0.3822 -0.8122
  985SOL     OW 2953   1.678   2.014   2.065 -0.1825  0.0745  0.0473
  985SOL    HW1 2954   1.637   1.947   1.996  1.0502  0.2257 -2.9951
  985SOL    HW2 2955   1.719   1.971   2.150 -0.2129 -0.8519 -0.1151
  986SOL     OW 2956   2.496   2.706   1.967  0.1516  0.2598  1.4466
  986SOL    HW1 2957   2.506   2.753   1.874  0.2261 -1.0420 -1.8148
  986SOL    HW2 2958   2.577   2.709   2.030 -1.7186 -0.2721  0.5938
  987SOL     OW 2959   1.773   1.175   1.178  0.0088  0.2286  1.1445
  987SOL    HW1 2960   1.828   1.237   1.124  1.9062 -0.4366  0.6749
  987SOL    HW2 2961   1.707   1.127   1.112 -2.9018 -0.4334 -2.7924
  988SOL     OW 2962   2.672   1.608   2.281 -0.3225  0.0729 -0.0535
  988SOL    HW1 2963   2.693   1.704   2.309  1.2118 -3.1778  0.8597
  988SOL    HW2 2964   2.581   1.576   2.310 -0.8867  2.4852 -0.5220
  989SOL     OW 2965   1.272   2.342   0.272 -0.1038  0.2585  0.3229
  989SOL    HW1 2966   1.201   2.350   0.199 -0.4446 -3.3811  1.7502
  989SOL    HW2 2967   1.226   2.321   0.359  0.1118 -0.2956 -0.7649
  990SOL     OW 2968   1.962   0.477   3.030 -0.3513 -0.1688 -0.0046
  990SOL    HW1 2969   1.955   0.575   3.060 -1.3378  0.1063 -0.6020
  990SOL    HW2 2970   2.025   0.465   2.952 -1.1782 -0.5172  1.3371
  991SOL     OW 2971   1.157   0.500   0.979  0.2577  0.4919 -0.4950
  991SOL    HW1 2972   1.178   0.402   0.953  1.1055 -2.6836 -0.6910
  991SOL    HW2 2973   1.063   0.517   0.954  0.2688  1.2342 -0.0305
  992SOL     OW 2974   2.552   0.873   1.148  0.4579  0.4491 -0.1960
  992SOL    HW1 2975   2.568   0.881   1.249  0.8126  0.0887  0.8987
  992SOL    HW2 2976   2.568   0.777   1.109  2.0480 -1.3579 -0.1793
  993SOL     OW 2977   2.241   0.613   1.861 -0.0682  0.1104 -0.6182
  993SOL    HW1 2978   2.275   0.521   1.869 -1.4047 -0.5664  0.0787
  993SOL    HW2 2979   2.223   0.636   1.763  0.0790 -1.6265 -0.7791
  994SOL     OW 2980   1.032   1.589   2.490 -0.1181  0.3972 -0.3958
  994SOL    HW1 2981   1.013   1.688   2.480  0.7868  0.3785 -0.8941
  994SOL    HW2 2982   0.985   1.537   2.418 -2.7313  1.3552  0.2592
  995SOL     OW 2983   2.164   1.144   2.939 -0.3190  0.8482 -0.4682
  995SOL    HW1 2984   2.122   1.063   2.893  1.9153 -0.7691  0.1510
  995SOL    HW2 2985   2.093   1.206   2.979  0.3415  0.1023  1.8971
  996SOL     OW 2986   2.214   2.051   0.587  0.1018  0.0134  0.5576
  996SOL    HW1 2987   2.123   2.013   0.601 -2.6279  1.9818  0.3390
  996SOL    HW2 2988   2.288   1.982   0.611  0.0042  0.8946  0.9933
  997SOL     OW 2989   2.027   0.583   2.039  0.1642  0.4021  0.1958
  997SOL    HW1 2990   1.953   0.652   2.028  1.0586  1.3070 -1.2411
  997SOL    HW2 2991   2.091   0.589   1.964 -1.9078 -0.8481  2.2289
  998SOL     OW 2992   2.596   1.016   0.740 -0.0452 -0.2469  0.0768
  998SOL    HW1 2993   2.642   1.016   0.828  0.3215  2.1836 -0.4768
  998SOL    HW2 2994   2.635   1.088   0.673  2.7486 -0.1201 -0.1882
  999SOL     OW 2995   2.790   1.711   0.424  0.3678  0.0816 -0.4345
  999SOL    HW1 2996   2.705   1.713   0.370  1.1750 -2.9653 -0.2001
  999SOL    HW2 2997   2.865   1.761   0.374 -0.5311 -1.1011 -0.6679
 1000SOL     OW 2998   0.565   0.714   2.044  0.5394 -0.2201 -0.0585
 1000SOL    HW1 2999   0.644   0.671   1.996 -3.0406  0.0733 -0.9115
 1000SOL    HW2 3000   0.549   0.661   2.130  2.1847 -1.8571  0.3389
   3.12059   3.12059   3.12059
