1000 SPC/Fw water molecules t= 346.00000 step= 346000
 3000
    1SOL     OW    1   2.369   0.199   1.330  0.1494  0.0755 -0.6306
    1SOL    HW1    2   2.286   0.252   1.350  1.4455  0.3418 -1.8040
    1SOL    HW2    3   2.379   0.119   1.394 -0.2357  0.6331  3.5765
    2SOL     OW    4   2.763   2.456   1.006  0.5345  1.2630  0.8588
    2SOL    HW1    5   2.716   2.528   1.061  2.6979 -1.0282  3.3347
    2SOL    HW2    6   2.727   2.362   1.027 -2.5324 -0.4338 -0.8059
    3SOL     OW    7   1.279   2.845   2.712  0.3969  0.3001  1.0960
    3SOL    HW1    8   1.310   2.932   2.755  0.0791  1.0197  1.3416
    3SOL    HW2    9   1.182   2.825   2.739 -0.5463  2.6217  0.3826
    4SOL     OW   10   1.853   2.430   2.442 -0.4344 -0.8328 -0.0914
    4SOL    HW1   11   1.903   2.483   2.375 -2.0892 -0.0589  2.5693
    4SOL    HW2   12   1.910   2.390   2.517  2.0715  1.9518  2.9810
    5SOL     OW   13   1.663   0.869   1.930 -0.5472 -0.1698  0.2810
    5SOL    HW1   14   1.765   0.886   1.905  1.3197  1.7933  1.5728
    5SOL    HW2   15   1.592   0.890   1.860 -1.8003  0.3747  1.2040
    6SOL     OW   16   2.104   2.697   0.637  0.1002 -0.4009 -0.2585
    6SOL    HW1   17   2.012   2.667   0.612  1.4392 -4.1908 -0.8079
    6SOL    HW2   18   2.132   2.773   0.574 -3.5440 -1.9439  2.3949
    7SOL     OW   19   1.714   1.221   1.178  0.0065  0.0687  0.4928
    7SOL    HW1   20   1.718   1.283   1.257  1.9478 -1.7957 -1.1041
    7SOL    HW2   21   1.642   1.244   1.114 -1.7326 -0.2673  2.2129
    8SOL     OW   22   0.769   2.041   1.383  0.2562 -0.2126 -0.6166
    8SOL    HW1   23   0.722   1.963   1.428  1.1244 -1.8485  0.3077
    8SOL    HW2   24   0.865   2.018   1.372 -1.2206  1.8022 -2.6728
    9SOL     OW   25   1.097   2.372   2.108 -0.2376 -0.2459  0.5097
    9SOL    HW1   26   0.994   2.373   2.116 -0.7323  1.1776 -2.3040
    9SOL    HW2   27   1.127   2.382   2.012  1.2346 -0.6250 -0.1776
   10SOL     OW   28   0.467   2.145   0.834  0.4976 -0.0627 -0.2877
   10SOL    HW1   29   0.558   2.116   0.870  1.5836  0.2383  0.9516
   10SOL    HW2   30   0.402   2.178   0.905  0.1320 -0.2052 -0.8840
   11SOL     OW   31   1.474   2.316   1.547 -0.5835 -0.4206 -0.1609
   11SOL    HW1   32   1.534   2.368   1.482 -0.4225  1.9586  1.1320
   11SOL    HW2   33   1.450   2.228   1.509 -1.7438  2.2930  0.7762
   12SOL     OW   34   2.481   0.420   2.288  0.0766  0.5797 -0.1990
   12SOL    HW1   35   2.489   0.319   2.297  1.4601  1.8692  0.0507
   12SOL    HW2   36   2.429   0.451   2.205  0.7806 -0.6784 -2.0991
   13SOL     OW   37   2.766   2.889   0.688 -0.2735 -0.1173 -0.3758
   13SOL    HW1   38   2.809   2.808   0.740  0.2846 -0.1065  0.3224
   13SOL    HW2   39   2.823   2.969   0.710 -1.4289 -1.0770 -1.9115
   14SOL     OW   40   1.516   1.537   2.680 -0.3430 -0.4708 -0.0090
   14SOL    HW1   41   1.598   1.523   2.618  1.2802 -0.5619 -1.0612
   14SOL    HW2   42   1.516   1.638   2.690 -0.3695  0.0214  2.2607
   15SOL     OW   43   2.480   2.849   1.446  0.1388 -0.3037 -0.5821
   15SOL    HW1   44   2.474   2.784   1.526 -1.2819 -0.4663  0.3246
   15SOL    HW2   45   2.448   2.802   1.360  0.5336 -0.2262 -1.2390
   16SOL     OW   46   2.816   2.774   0.450 -0.2964 -0.2249  0.1415
   16SOL    HW1   47   2.796   2.812   0.543  2.2975  1.5321  0.6292
   16SOL    HW2   48   2.918   2.776   0.430  0.5493 -0.1364  2.2179
   17SOL     OW   49   0.149   0.513   1.137 -0.0771  0.1688 -0.4890
   17SOL    HW1   50   0.165   0.610   1.160 -0.9454  0.1032  0.7397
   17SOL    HW2   51   0.233   0.453   1.156 -1.0528  2.4339  2.6785
   18SOL     OW   52   2.009   0.240   0.185 -0.0469 -0.4187 -0.3620
   18SOL    HW1   53   1.927   0.288   0.216  0.4826 -0.0549  1.4496
   18SOL    HW2   54   2.003   0.140   0.202 -0.3753 -4.0075  0.1548
   19SOL     OW   55   1.926   1.663   3.066  0.0750 -0.0508  0.7235
   19SOL    HW1   56   1.840   1.714   3.038 -2.8552  1.6631 -0.6039
   19SOL    HW2   57   1.899   1.582   0.030  2.3143  1.2804 -0.1904
   20SOL     OW   58   2.446   1.965   2.189  0.3873 -0.5095  0.2632
   20SOL    HW1   59   2.427   1.867   2.169 -1.1609 -0.9671  0.0626
   20SOL    HW2   60   2.377   2.005   2.253 -0.9099  5.0032 -2.4805
   21SOL     OW   61   1.866   3.052   0.508  0.0235 -0.3017  0.3651
   21SOL    HW1   62   1.936   3.020   0.572 -4.1549 -1.2316 -2.6973
   21SOL    HW2   63   1.905   3.062   0.414  0.2010  1.5765 -1.2969
   22SOL     OW   64   2.742   0.489   1.674 -0.2585 -0.0222  0.3088
   22SOL    HW1   65   2.640   0.478   1.660 -0.1299  2.9065 -0.2277
   22SOL    HW2   66   2.791   0.467   1.589 -3.3095 -2.0676 -0.5907
   23SOL     OW   67   0.367   0.752   1.943 -0.4081  0.0276 -0.2806
   23SOL    HW1   68   0.336   0.752   2.041 -1.5817  2.2918  0.5672
   23SOL    HW2   69   0.357   0.656   1.910  0.9636 -0.0457  0.7622
   24SOL     OW   70   2.726   2.531   0.532  0.0068  0.1647 -0.4881
   24SOL    HW1   71   2.804   2.599   0.540 -0.0264 -0.7766 -0.7290
   24SOL    HW2   72   2.638   2.577   0.555 -0.7517  0.3444  1.7872
   25SOL     OW   73   1.019   2.803   2.836  0.4474 -0.4129  0.3632
   25SOL    HW1   74   0.962   2.746   2.893  0.0663  4.1108 -2.2756
   25SOL    HW2   75   1.012   2.898   2.871  0.0816 -0.9728 -1.1925
   26SOL     OW   76   1.210   2.701   0.278  0.1559  0.1563 -0.4049
   26SOL    HW1   77   1.213   2.600   0.271  0.7945  0.3804 -1.6487
   26SOL    HW2   78   1.235   2.731   0.375 -1.1940 -1.6911  3.1108
   27SOL     OW   79   2.243   0.726   0.201  0.0063  0.2671  0.0740
   27SOL    HW1   80   2.152   0.738   0.245 -2.2337  1.6496 -0.3337
   27SOL    HW2   81   2.304   0.803   0.234  1.2555 -1.7348 -3.3791
   28SOL     OW   82   1.025   1.617   0.996  0.1985  0.2477  0.1524
   28SOL    HW1   83   1.014   1.541   0.928 -0.5586 -0.2584  1.5306
   28SOL    HW2   84   1.119   1.649   0.985 -0.3553 -0.0862 -1.4434
   29SOL     OW   85   2.763   2.860   1.616  0.6915 -0.4497 -0.1641
   29SOL    HW1   86   2.862   2.858   1.595  0.2996  2.2597  2.0103
   29SOL    HW2   87   2.709   2.774   1.618  1.8264 -1.3476  0.5754
   30SOL     OW   88   1.284   0.055   1.204 -0.4078 -0.3381  0.2668
   30SOL    HW1   89   1.318   3.058   1.169 -1.8389  2.1992  1.1767
   30SOL    HW2   90   1.302   0.128   1.136 -0.0352 -0.0097 -0.6456
   31SOL     OW   91   2.370   2.988   2.384  0.2089  0.0008  0.1031
   31SOL    HW1   92   2.295   2.979   2.455 -1.2682 -1.4609 -1.6485
   31SOL    HW2   93   2.324   3.006   2.293  0.8502  1.9807 -0.3751
   32SOL     OW   94   1.030   1.285   0.431  0.0169 -0.1367 -0.4236
   32SOL    HW1   95   1.017   1.379   0.394 -1.1247 -0.2076 -2.1542
   32SOL    HW2   96   0.958   1.267   0.498 -0.1844  0.2413 -1.3930
   33SOL     OW   97   3.084   1.125   2.516  0.1592  0.4351 -0.2285
   33SOL    HW1   98   3.040   1.053   2.456 -3.6386 -0.7189 -1.8216
   33SOL    HW2   99   0.029   1.194   2.457  0.4892 -0.9187  0.8998
   34SOL     OW  100   2.580   3.081   0.600  0.1812 -0.0192 -0.4328
   34SOL    HW1  101   2.649   3.007   0.591 -3.1761 -1.8151  0.4169
   34SOL    HW2  102   2.542   3.076   0.694 -0.7072  1.9939  1.1369
   35SOL     OW  103   2.450   3.006   2.006  0.5306 -1.0290 -0.0466
   35SOL    HW1  104   2.488   2.921   1.973 -2.4701  4.4541  0.3431
   35SOL    HW2  105   2.367   2.983   2.066 -2.8392  1.9766  2.2798
   36SOL     OW  106   2.165   2.058   0.003  0.2515 -0.2275 -0.1265
   36SOL    HW1  107   2.175   2.141   3.036  0.7413 -1.3458  0.0708
   36SOL    HW2  108   2.150   1.972   3.046 -3.5728  0.4972 -0.5075
   37SOL     OW  109   1.820   3.066   2.111  0.6778  0.5775  0.4363
   37SOL    HW1  110   1.863   0.057   2.143 -0.3106 -1.2748 -0.1050
   37SOL    HW2  111   1.856   3.038   2.025  0.4871  0.6685  4.0347
   38SOL     OW  112   0.175   0.549   2.922 -0.0756 -0.0950  0.7763
   38SOL    HW1  113   0.229   0.510   2.999 -0.5583  2.8784 -0.7557
   38SOL    HW2  114   0.126   0.635   2.946  2.8267 -2.0364 -3.7555
   39SOL     OW  115   1.924   1.387   1.536  0.1730 -0.0866 -0.0305
   39SOL    HW1  116   2.005   1.325   1.517 -1.8910  1.1944  2.7153
   39SOL    HW2  117   1.895   1.361   1.631 -2.3743  0.8002 -0.4902
   40SOL     OW  118   1.238   2.447   0.306  0.1914 -0.2692 -0.3108
   40SOL    HW1  119   1.164   2.375   0.317 -2.4255  0.2390 -0.3366
   40SOL    HW2  120   1.290   2.422   0.226 -1.8458 -1.9099  3.4474
   41SOL     OW  121   2.004   1.353   0.849  0.2201  0.2106  0.5123
   41SOL    HW1  122   1.954   1.433   0.889  0.7673 -1.3285  0.1668
   41SOL    HW2  123   2.031   1.377   0.753  1.0965 -1.7048 -2.9906
   42SOL     OW  124   0.695   0.252   1.251 -0.4604  0.4935  0.3608
   42SOL    HW1  125   0.699   0.246   1.150  1.2634  0.0149 -1.3280
   42SOL    HW2  126   0.768   0.189   1.292  1.1673 -0.3270  0.4377
   43SOL     OW  127   0.197   1.685   2.497 -0.1238  0.2848 -0.1573
   43SOL    HW1  128   0.206   1.585   2.517  1.6282 -0.1037 -2.1799
   43SOL    HW2  129   0.287   1.730   2.506  3.2455  0.4392 -1.2415
   44SOL     OW  130   2.153   2.970   1.583  0.1853  0.0144  0.2523
   44SOL    HW1  131   2.123   3.025   1.499 -1.1310 -1.4850  0.3335
   44SOL    HW2  132   2.236   3.009   1.627 -1.6667 -0.4196 -1.0145
   45SOL     OW  133   1.094   0.013   2.290 -0.1828 -0.1996 -0.2000
   45SOL    HW1  134   1.190   0.002   2.318 -0.1645 -0.0635 -2.2294
   45SOL    HW2  135   1.033   3.057   2.356  0.6589 -2.5166 -1.6366
   46SOL     OW  136   0.967   2.277   2.418 -0.1756 -0.5447 -0.2539
   46SOL    HW1  137   1.063   2.256   2.450 -1.9191 -0.0702  1.3809
   46SOL    HW2  138   0.962   2.378   2.430 -0.2853  0.6395 -2.0996
   47SOL     OW  139   1.254   1.735   0.695 -0.0170 -0.0316 -0.5694
   47SOL    HW1  140   1.342   1.729   0.641 -1.2056  0.3236 -2.0300
   47SOL    HW2  141   1.266   1.731   0.799  0.1452  0.7244  0.0021
   48SOL     OW  142   1.307   2.480   0.844  0.0741  0.4979 -0.3405
   48SOL    HW1  143   1.270   2.483   0.748 -0.9402  1.5706 -2.0863
   48SOL    HW2  144   1.408   2.485   0.839 -0.4028 -1.4243 -0.3800
   49SOL     OW  145   2.313   0.113   2.973  0.2780 -0.0751 -0.0657
   49SOL    HW1  146   2.277   0.038   3.033 -2.8343  0.2344 -1.6890
   49SOL    HW2  147   2.258   0.197   2.997 -1.0057 -1.6638  0.6791
   50SOL     OW  148   1.551   0.013   0.070  0.0029 -0.3419 -0.4215
   50SOL    HW1  149   1.646   0.021   0.034 -3.0804  1.0197  0.6194
   50SOL    HW2  150   1.489   0.060   0.005  0.0907  1.6532 -1.5667
   51SOL     OW  151   2.333   0.667   1.433 -0.1446  0.6062 -0.3848
   51SOL    HW1  152   2.361   0.755   1.472  1.3964 -0.0565  0.7547
   51SOL    HW2  153   2.418   0.615   1.411 -1.0606  4.0925 -1.0477
   52SOL     OW  154   1.057   1.537   0.298 -0.4223 -0.1847 -0.2132
   52SOL    HW1  155   1.083   1.595   0.380  0.6944  3.2271 -0.1726
   52SOL    HW2  156   1.084   1.589   0.217  2.3250 -2.3432  1.4707
   53SOL     OW  157   0.068   1.468   2.754  0.0200  0.0366 -0.3749
   53SOL    HW1  158   0.063   1.408   2.840  2.3157 -0.6276  2.2296
   53SOL    HW2  159   3.085   1.534   2.745  0.4305  2.2672 -0.7203
   54SOL     OW  160   2.821   1.288   1.695  0.0949  0.0410  0.1106
   54SOL    HW1  161   2.745   1.357   1.697 -0.8655 -0.1445 -1.5099
   54SOL    HW2  162   2.836   1.250   1.786  1.3068  0.9272  0.6971
   55SOL     OW  163   2.087   1.857   0.517 -0.5445 -0.4964 -0.2888
   55SOL    HW1  164   2.120   1.775   0.575 -0.3659 -2.7363  2.1747
   55SOL    HW2  165   2.093   1.940   0.579  3.4326  1.7144 -0.8402
   56SOL     OW  166   1.704   0.288   1.783 -0.0797 -0.1878  0.4513
   56SOL    HW1  167   1.733   0.379   1.755 -0.4081 -2.2491  1.8015
   56SOL    HW2  168   1.614   0.257   1.744  1.4252  1.1266 -0.3789
   57SOL     OW  169   1.387   1.148   2.578 -0.4394 -0.2150  0.2351
   57SOL    HW1  170   1.429   1.209   2.510 -1.2391  2.5415  1.3626
   57SOL    HW2  171   1.438   1.068   2.601 -1.0845  3.5409 -1.6760
   58SOL     OW  172   3.056   0.782   1.120 -0.3493 -0.7523  0.0675
   58SOL    HW1  173   0.055   0.775   1.160 -0.9511 -0.9282 -2.7307
   58SOL    HW2  174   3.007   0.696   1.144  0.2870  0.8449 -0.1003
   59SOL     OW  175   1.690   2.852   0.163 -0.1695 -0.2483  0.5552
   59SOL    HW1  176   1.643   2.935   0.124  0.2399  0.1571 -1.8715
   59SOL    HW2  177   1.710   2.865   0.260 -1.5014  1.8745 -2.8991
   60SOL     OW  178   2.801   1.832   2.829  0.0675  0.7286 -0.3744
   60SOL    HW1  179   2.841   1.927   2.843 -0.2222 -0.4041  2.9305
   60SOL    HW2  180   2.708   1.840   2.786 -1.0993 -1.2473  1.7844
   61SOL     OW  181   0.815   2.618   0.854 -0.6517 -0.1232 -0.2532
   61SOL    HW1  182   0.824   2.692   0.789 -0.4723  2.0525  4.5328
   61SOL    HW2  183   0.862   2.649   0.939  2.9941 -0.2372  0.1437
   62SOL     OW  184   1.731   1.451   2.542  0.0796  0.7808 -0.2080
   62SOL    HW1  185   1.768   1.392   2.467 -0.5322  1.4142 -1.5368
   62SOL    HW2  186   1.733   1.399   2.631 -0.3152 -1.5777  0.2079
   63SOL     OW  187   2.221   2.199   0.238  0.0564 -0.1859 -0.3195
   63SOL    HW1  188   2.141   2.185   0.298 -1.0833  0.7817 -0.1188
   63SOL    HW2  189   2.200   2.157   0.144  0.9979 -0.8338 -0.9845
   64SOL     OW  190   1.741   1.014   3.031 -0.1553 -0.0537  0.3589
   64SOL    HW1  191   1.672   0.970   2.979  2.9858  0.9651  0.9172
   64SOL    HW2  192   1.784   1.090   2.978 -1.1217 -1.7045  1.4617
   65SOL     OW  193   2.069   1.757   2.140 -0.6874 -0.0392  0.6604
   65SOL    HW1  194   2.163   1.764   2.099  2.3809  3.1668 -0.7988
   65SOL    HW2  195   2.007   1.701   2.083  2.0252 -0.1969  0.8828
   66SOL     OW  196   0.292   1.200   1.169 -0.3285  0.4680  0.7329
   66SOL    HW1  197   0.313   1.223   1.270  1.7896  0.1713  1.9376
   66SOL    HW2  198   0.332   1.275   1.112 -0.2358  0.6520 -2.0428
   67SOL     OW  199   2.162   3.042   2.594  0.0399  0.1859 -0.3651
   67SOL    HW1  200   2.138   0.050   2.605  1.8455  1.4968 -1.1563
   67SOL    HW2  201   2.080   2.984   2.613 -2.7635  1.1604  0.3472
   68SOL     OW  202   1.085   2.445   1.504 -0.5401  0.1727  0.0228
   68SOL    HW1  203   1.178   2.481   1.483  2.0409  1.8678  1.8221
   68SOL    HW2  204   1.086   2.353   1.550  2.3623 -1.0654 -1.0825
   69SOL     OW  205   0.877   2.484   0.103  0.1648 -0.2357  0.0386
   69SOL    HW1  206   0.779   2.491   0.136 -0.8146  1.3187  0.8768
   69SOL    HW2  207   0.938   2.442   0.173 -0.5623 -0.9120  0.1830
   70SOL     OW  208   0.296   0.795   2.210  0.0669  0.1894  0.6206
   70SOL    HW1  209   0.218   0.856   2.176 -2.1126  0.9661 -1.2235
   70SOL    HW2  210   0.357   0.855   2.262  0.2782 -0.2282 -0.5237
   71SOL     OW  211   0.462   1.285   2.756 -0.2974 -0.9386  0.4625
   71SOL    HW1  212   0.527   1.332   2.815 -1.3225 -0.5542 -2.2391
   71SOL    HW2  213   0.419   1.353   2.688 -2.1276  1.1892 -4.1315
   72SOL     OW  214   2.866   1.421   2.281 -0.6618 -0.2238  0.5263
   72SOL    HW1  215   2.959   1.454   2.285 -0.6186 -0.3880  2.4535
   72SOL    HW2  216   2.806   1.497   2.249 -1.5938 -0.8911 -1.7826
   73SOL     OW  217   1.622   1.257   0.590 -0.0163  0.0633 -0.0482
   73SOL    HW1  218   1.715   1.301   0.615  2.7193  2.2589 -0.7893
   73SOL    HW2  219   1.611   1.160   0.599 -0.5791  1.4134  0.8737
   74SOL     OW  220   2.630   2.681   2.546  0.4477  0.0543 -0.0374
   74SOL    HW1  221   2.650   2.767   2.495 -1.9605  0.0110  0.0228
   74SOL    HW2  222   2.535   2.686   2.580  1.8454 -1.8121 -1.7990
   75SOL     OW  223   2.069   2.177   1.111  0.0663  0.5006  0.0890
   75SOL    HW1  224   2.030   2.273   1.125 -3.2574  1.4957 -0.2454
   75SOL    HW2  225   2.020   2.116   1.179  0.5113  0.0677 -2.6548
   76SOL     OW  226   2.674   2.114   2.133  0.1630 -0.4664  0.1121
   76SOL    HW1  227   2.590   2.060   2.161  0.3366  1.8522  0.9439
   76SOL    HW2  228   2.683   2.132   2.033  0.3640 -0.5381 -0.4680
   77SOL     OW  229   3.088   0.265   2.049  0.1271  0.3757 -0.0875
   77SOL    HW1  230   3.037   0.239   1.964 -2.3231 -1.4287 -1.6263
   77SOL    HW2  231   3.026   0.317   2.110  0.3486  0.6142 -1.2364
   78SOL     OW  232   2.226   1.072   3.073 -0.7063  0.0847 -0.0201
   78SOL    HW1  233   2.204   1.153   3.020  0.0353 -2.7915  2.3929
   78SOL    HW2  234   2.180   1.079   0.071 -1.2778 -3.1723  0.2267
   79SOL     OW  235   2.712   1.476   2.536  0.4901  0.0789  0.1963
   79SOL    HW1  236   2.748   1.464   2.633 -1.0219  0.7124 -0.7418
   79SOL    HW2  237   2.784   1.481   2.461  1.4595  2.3539 -1.2241
   80SOL     OW  238   1.477   1.432   1.493  0.5225  0.8598  0.2666
   80SOL    HW1  239   1.483   1.514   1.553  0.1015 -2.3332 -1.6728
   80SOL    HW2  240   1.478   1.345   1.548 -1.0284 -0.8010 -1.2105
   81SOL     OW  241   1.940   0.844   1.874 -0.1423  0.0470 -0.2828
   81SOL    HW1  242   1.959   0.876   1.971  0.3322 -2.3460 -1.3557
   81SOL    HW2  243   2.001   0.888   1.803 -0.7726 -0.2142 -2.3623
   82SOL     OW  244   1.824   1.838   1.634 -0.0500 -0.0505  0.1591
   82SOL    HW1  245   1.829   1.867   1.732 -0.2572  0.2652  2.6287
   82SOL    HW2  246   1.905   1.777   1.623  0.9275  2.6191  2.9832
   83SOL     OW  247   0.070   3.017   0.243 -0.5245  0.2104 -0.1066
   83SOL    HW1  248   0.092   3.045   0.146  0.9621 -1.2488 -1.5935
   83SOL    HW2  249   0.005   3.080   0.289  1.0766  0.1042  0.8562
   84SOL     OW  250   0.399   0.959   0.038  0.0606  0.6591 -0.1354
   84SOL    HW1  251   0.397   0.947   3.031 -0.2264 -1.8249  1.6846
   84SOL    HW2  252   0.367   0.875   0.080  2.4224  3.8602  1.8386
   85SOL     OW  253   2.647   1.871   1.263  1.0277  0.6405 -0.3288
   85SOL    HW1  254   2.584   1.840   1.187 -0.2483 -0.7671 -1.9185
   85SOL    HW2  255   2.681   1.965   1.255 -0.5127  0.7348  0.2991
   86SOL     OW  256   0.570   2.606   1.248  0.0190  0.2928  0.3268
   86SOL    HW1  257   0.597   2.507   1.256  1.2473 -0.9834  1.3708
   86SOL    HW2  258   0.550   2.634   1.152  2.2398  0.1437  0.0093
   87SOL     OW  259   0.668   2.243   2.468 -0.3218 -0.0444  0.6359
   87SOL    HW1  260   0.762   2.240   2.425  0.0720  0.3576  1.0731
   87SOL    HW2  261   0.678   2.227   2.569  0.2146  0.0596 -1.4842
   88SOL     OW  262   0.083   1.863   0.534 -0.2732 -0.0648  0.0626
   88SOL    HW1  263   0.060   1.936   0.463  1.0666 -1.1782 -3.0728
   88SOL    HW2  264   0.059   1.768   0.507  1.8574 -2.6409  0.6519
   89SOL     OW  265   0.944   1.054   0.984  0.1180  0.5714  0.0154
   89SOL    HW1  266   0.913   1.021   0.893  0.0441  2.1951  2.3085
   89SOL    HW2  267   0.913   0.981   1.046 -1.4524  0.2331 -0.0765
   90SOL     OW  268   0.348   1.356   1.874 -0.3296  0.1470  0.1159
   90SOL    HW1  269   0.311   1.395   1.789 -0.7956  2.0637 -0.8981
   90SOL    HW2  270   0.444   1.318   1.855  1.5509  0.7775  1.7004
   91SOL     OW  271   1.067   0.770   0.898 -0.4094  0.4221 -0.3059
   91SOL    HW1  272   0.994   0.700   0.900  1.4258  0.3479  1.4257
   91SOL    HW2  273   1.113   0.786   0.990 -1.1402 -0.0757  2.6852
   92SOL     OW  274   1.948   1.116   1.093 -0.2930  0.3936  0.0519
   92SOL    HW1  275   1.874   1.185   1.123  0.2891  0.2125  1.2416
   92SOL    HW2  276   2.034   1.173   1.071  3.2335  0.8263 -0.3085
   93SOL     OW  277   2.665   1.022   2.427 -0.5794 -0.8438 -0.5160
   93SOL    HW1  278   2.603   0.949   2.399  0.6707 -0.9788 -0.7823
   93SOL    HW2  279   2.708   0.996   2.518  2.3998  0.7082  1.4803
   94SOL     OW  280   2.054   1.549   2.587  0.1488  0.3116 -0.2520
   94SOL    HW1  281   2.018   1.639   2.556 -0.6261 -0.3481 -0.2921
   94SOL    HW2  282   2.113   1.507   2.515 -0.6481 -2.2279  0.1569
   95SOL     OW  283   2.746   0.737   1.340 -0.1493  0.5871  0.4168
   95SOL    HW1  284   2.822   0.694   1.285  0.0849  2.3577  0.2858
   95SOL    HW2  285   2.674   0.667   1.360 -1.0160  0.2146  0.4014
   96SOL     OW  286   2.426   0.000   1.501 -0.0947 -0.1676  0.0946
   96SOL    HW1  287   2.421   0.011   1.603 -1.0871  3.0217 -0.5499
   96SOL    HW2  288   2.439   2.993   1.479 -2.3601  1.7236 -0.8196
   97SOL     OW  289   2.537   1.161   1.406  0.3454  0.3467  0.0696
   97SOL    HW1  290   2.538   1.101   1.324 -0.3744 -0.2926  0.2534
   97SOL    HW2  291   2.628   1.186   1.440 -2.1931  1.0370  0.2784
   98SOL     OW  292   1.516   2.389   2.005 -0.3402  0.3961  0.5707
   98SOL    HW1  293   1.536   2.333   1.920 -0.5867  1.9577  2.6105
   98SOL    HW2  294   1.509   2.339   2.092  1.7613 -1.6354 -2.5325
   99SOL     OW  295   0.306   2.603   1.350  0.4444 -0.5722  0.1520
   99SOL    HW1  296   0.399   2.600   1.314 -3.4482 -0.8783 -1.0146
   99SOL    HW2  297   0.314   2.617   1.450 -0.9014  0.3133 -0.4535
  100SOL     OW  298   1.466   0.474   2.625 -0.5481 -0.3249 -0.1282
  100SOL    HW1  299   1.527   0.408   2.573  2.2508 -0.0227 -0.4784
  100SOL    HW2  300   1.397   0.430   2.684 -0.0300 -0.7879  1.9703
  101SOL     OW  301   2.507   0.147   2.411 -0.4541  0.0279 -0.4159
  101SOL    HW1  302   2.465   0.056   2.410 -2.3483 -0.7350 -2.0215
  101SOL    HW2  303   2.540   0.172   2.503  0.1907  0.7219 -1.9141
  102SOL     OW  304   0.427   0.707   1.400 -0.0880 -0.2985  0.2531
  102SOL    HW1  305   0.454   0.784   1.461  0.6726  2.2540  2.2115
  102SOL    HW2  306   0.493   0.628   1.412  0.7370 -0.1713  2.1505
  103SOL     OW  307   0.799   0.890   2.425  0.4723  0.0059 -0.2013
  103SOL    HW1  308   0.754   0.817   2.372  1.1288 -0.0438 -0.6844
  103SOL    HW2  309   0.744   0.913   2.507  0.9651 -0.3158 -3.5347
  104SOL     OW  310   0.637   0.920   2.627 -0.4882  0.0715 -0.2127
  104SOL    HW1  311   0.650   0.857   2.704  0.1941  1.5666  1.0936
  104SOL    HW2  312   0.565   0.991   2.645 -1.2792  1.0198 -1.1122
  105SOL     OW  313   2.045   2.163   1.645 -0.0830  0.1005 -0.9859
  105SOL    HW1  314   2.088   2.074   1.606 -1.4381 -1.4218  0.7662
  105SOL    HW2  315   1.957   2.189   1.599  0.1170  1.8782 -2.5801
  106SOL     OW  316   1.677   2.878   0.419  0.0979  0.1371  0.5238
  106SOL    HW1  317   1.697   2.786   0.463  2.7336 -1.3357  2.4583
  106SOL    HW2  318   1.751   2.941   0.448 -0.2993 -0.5078 -1.9766
  107SOL     OW  319   2.258   1.987   1.003 -0.0931 -0.1795  0.3779
  107SOL    HW1  320   2.213   2.061   1.056  1.0295 -0.8385 -0.8456
  107SOL    HW2  321   2.189   1.919   0.967 -3.1069 -0.2238  1.7294
  108SOL     OW  322   2.708   3.089   1.354 -0.1236  0.0591 -0.3436
  108SOL    HW1  323   2.614   3.080   1.392  0.5701 -0.0601 -0.4307
  108SOL    HW2  324   2.777   3.063   1.427  1.7082 -0.1667  0.9773
  109SOL     OW  325   1.960   2.482   0.845  0.0421 -0.7117  0.1563
  109SOL    HW1  326   1.919   2.427   0.917 -0.0724  3.1392 -1.6717
  109SOL    HW2  327   2.046   2.529   0.876 -1.3559  1.5488  1.7132
  110SOL     OW  328   0.835   1.784   2.007  0.2571 -0.1030  0.2507
  110SOL    HW1  329   0.800   1.687   1.992  1.8414  0.3777  2.2688
  110SOL    HW2  330   0.764   1.849   2.044 -0.8337  2.6835  0.0942
  111SOL     OW  331   1.727   2.132   2.092 -0.3970  0.3294  0.2691
  111SOL    HW1  332   1.762   2.190   2.018  2.7103 -0.2063  0.5037
  111SOL    HW2  333   1.654   2.178   2.150 -1.1201 -0.0240  2.2350
  112SOL     OW  334   1.830   1.741   2.527  0.1841  0.0341  0.2127
  112SOL    HW1  335   1.791   1.646   2.501 -1.0475 -1.6741 -1.8035
  112SOL    HW2  336   1.906   1.772   2.462 -0.6592  0.9457 -3.0886
  113SOL     OW  337   1.531   1.952   1.718 -0.4015  0.2862 -0.2790
  113SOL    HW1  338   1.615   1.921   1.770  1.2096 -2.0221 -1.0791
  113SOL    HW2  339   1.451   1.938   1.776  1.3211 -1.2131 -0.4048
  114SOL     OW  340   0.016   1.190   1.122  0.0310 -0.3905  1.4274
  114SOL    HW1  341   0.115   1.197   1.133 -1.9094  1.3518  0.4159
  114SOL    HW2  342   3.064   1.154   1.209 -2.0850  0.3258  1.5063
  115SOL     OW  343   0.436   0.465   0.305  0.0069  0.6412 -0.1116
  115SOL    HW1  344   0.461   0.551   0.347  0.3561 -3.8822 -2.7544
  115SOL    HW2  345   0.520   0.413   0.285 -0.1737  0.4005  0.1110
  116SOL     OW  346   2.769   1.785   2.438 -0.1772  0.0904 -0.1372
  116SOL    HW1  347   2.725   1.859   2.490  0.4975 -0.4533 -1.9771
  116SOL    HW2  348   2.869   1.784   2.468  1.1517  0.4230  0.5489
  117SOL     OW  349   0.005   2.612   0.744  0.4447  0.0184 -0.1645
  117SOL    HW1  350   3.077   2.527   0.688  0.6819  0.1720 -1.5312
  117SOL    HW2  351   0.050   2.587   0.831  1.8691  1.1882 -2.6935
  118SOL     OW  352   0.626   1.515   2.876  0.2805 -0.0290  0.3837
  118SOL    HW1  353   0.620   1.606   2.919  0.2162 -1.3689 -1.6849
  118SOL    HW2  354   0.689   1.517   2.795  0.5654  0.7939 -1.4509
  119SOL     OW  355   0.490   2.059   0.577  0.4844 -0.6983  0.3569
  119SOL    HW1  356   0.485   2.056   0.679 -1.3160 -0.5743 -1.3025
  119SOL    HW2  357   0.503   2.158   0.550 -0.9533  1.5410  1.5372
  120SOL     OW  358   1.365   0.416   0.308  0.1910  0.1857 -0.7140
  120SOL    HW1  359   1.430   0.360   0.255  1.2369  0.4694 -0.0445
  120SOL    HW2  360   1.417   0.493   0.344 -0.7128  0.3935 -0.2495
  121SOL     OW  361   1.581   2.430   0.844 -0.1050 -0.2167  0.1637
  121SOL    HW1  362   1.611   2.383   0.931  0.8500 -1.0334 -0.5942
  121SOL    HW2  363   1.563   2.366   0.763 -0.1084  0.2127  0.3651
  122SOL     OW  364   2.520   2.336   1.732 -0.2475 -0.4591  0.0736
  122SOL    HW1  365   2.421   2.316   1.741  0.7119 -0.0657  0.6251
  122SOL    HW2  366   2.581   2.262   1.768  1.6867  0.0349  1.3674
  123SOL     OW  367   0.751   1.514   0.521  0.0116  0.1954  0.1483
  123SOL    HW1  368   0.710   1.568   0.448  2.9703 -0.7093  1.4516
  123SOL    HW2  369   0.846   1.550   0.535  0.1601 -1.3653 -2.7103
  124SOL     OW  370   2.911   0.797   0.347  0.1741  0.0805 -0.1054
  124SOL    HW1  371   2.846   0.723   0.376 -1.0805 -3.3700  0.5596
  124SOL    HW2  372   2.858   0.864   0.291 -2.0913  1.4924  0.5586
  125SOL     OW  373   0.474   0.708   0.419  0.7057  0.5411  0.5923
  125SOL    HW1  374   0.403   0.692   0.489  1.3726  1.6472  1.0113
  125SOL    HW2  375   0.552   0.759   0.458  0.9826 -0.8785 -0.0456
  126SOL     OW  376   2.810   1.851   0.788  0.1222  0.4465  0.7989
  126SOL    HW1  377   2.894   1.853   0.856  2.4529  2.4110  0.1526
  126SOL    HW2  378   2.800   1.942   0.742 -1.6263 -1.0919 -1.2478
  127SOL     OW  379   1.258   2.443   1.876  0.0877  0.5939 -0.7827
  127SOL    HW1  380   1.339   2.442   1.940 -1.6940  0.8397  0.7826
  127SOL    HW2  381   1.239   2.352   1.832 -0.2134 -2.6111 -3.9916
  128SOL     OW  382   0.945   1.110   0.243 -0.1251 -0.0489 -0.0916
  128SOL    HW1  383   0.866   1.151   0.196  0.0513 -3.0345 -1.3143
  128SOL    HW2  384   0.984   1.173   0.312 -0.0888  1.9923 -1.4250
  129SOL     OW  385   1.682   1.959   1.435 -0.0441  0.3837 -0.3384
  129SOL    HW1  386   1.719   1.898   1.512  2.8380 -0.2788  1.4012
  129SOL    HW2  387   1.584   1.976   1.443  0.8661 -0.9287  2.0267
  130SOL     OW  388   2.295   1.564   1.494 -1.0155  0.2202 -0.2361
  130SOL    HW1  389   2.237   1.622   1.552 -0.7673  0.0207 -1.5870
  130SOL    HW2  390   2.335   1.483   1.543  0.2488  0.1953 -2.0544
  131SOL     OW  391   3.011   2.736   2.942  0.1908  0.3263  0.5289
  131SOL    HW1  392   3.046   2.727   2.846  1.1986  1.0990  0.7157
  131SOL    HW2  393   3.059   2.673   3.005 -2.5790 -1.7309 -1.3312
  132SOL     OW  394   2.453   1.679   0.649 -0.2446 -0.1600 -0.1872
  132SOL    HW1  395   2.506   1.630   0.576 -1.5875 -0.5403 -3.1644
  132SOL    HW2  396   2.493   1.673   0.744 -0.7741 -0.8029  1.8229
  133SOL     OW  397   0.529   0.075   1.828  0.2640  0.1984  0.0288
  133SOL    HW1  398   0.431   0.059   1.857 -1.4956 -1.9177  2.0190
  133SOL    HW2  399   0.560   0.165   1.860 -2.1744 -0.8638  0.9476
  134SOL     OW  400   3.083   1.870   0.055  0.0210 -0.4480 -0.4438
  134SOL    HW1  401   2.995   1.819   0.047  0.2747  1.3298 -1.6231
  134SOL    HW2  402   0.005   1.932   3.070 -2.3777  0.6444 -0.6296
  135SOL     OW  403   1.592   0.536   1.994 -0.9313 -0.4585 -0.4221
  135SOL    HW1  404   1.583   0.635   2.025 -1.3657  0.8954  1.8451
  135SOL    HW2  405   1.536   0.471   2.047 -2.6081 -0.9643 -2.8810
  136SOL     OW  406   2.565   1.626   0.348  0.1086  0.4624 -0.1814
  136SOL    HW1  407   2.663   1.639   0.318 -1.3722  0.8646  1.4253
  136SOL    HW2  408   2.517   1.550   0.298 -0.6898 -0.9293 -0.6395
  137SOL     OW  409   2.661   1.642   0.843  0.1930  0.5782  0.1233
  137SOL    HW1  410   2.690   1.561   0.901 -0.1800  0.8360  0.8192
  137SOL    HW2  411   2.721   1.721   0.851  1.3148 -1.2879 -1.0403
  138SOL     OW  412   2.720   0.665   0.997  0.2111  0.9657  0.1592
  138SOL    HW1  413   2.651   0.631   0.931  1.5455  2.3539 -0.6143
  138SOL    HW2  414   2.732   0.762   1.008  2.5625 -1.7690 -1.4449
  139SOL     OW  415   0.830   2.645   2.988 -0.6107 -0.3346  0.2251
  139SOL    HW1  416   0.850   2.577   3.061  3.6614  3.0460 -0.9857
  139SOL    HW2  417   0.802   2.730   3.041 -1.0234  3.2341 -0.4990
  140SOL     OW  418   1.064   1.998   1.067 -0.1866 -0.1906  0.0067
  140SOL    HW1  419   1.148   2.034   1.020 -0.3916 -0.6818  1.1373
  140SOL    HW2  420   1.001   1.960   0.991  0.3403 -1.7802 -0.6914
  141SOL     OW  421   1.514   2.264   0.621 -0.0453  0.0759 -0.3372
  141SOL    HW1  422   1.451   2.236   0.546 -0.6108 -1.3096  2.5327
  141SOL    HW2  423   1.502   2.196   0.692  0.8551  2.3337 -2.9639
  142SOL     OW  424   0.972   0.337   1.052  0.2955 -0.4290 -0.5140
  142SOL    HW1  425   0.888   0.392   1.024  1.1076 -0.5657  1.8739
  142SOL    HW2  426   0.945   0.242   1.075  0.0133  0.1028 -2.3046
  143SOL     OW  427   0.822   1.351   2.966  0.0463 -0.1155  0.3338
  143SOL    HW1  428   0.727   1.384   2.958  1.0182 -0.2128 -0.7712
  143SOL    HW2  429   0.821   1.251   2.952  1.8978  0.3052  0.4869
  144SOL     OW  430   1.806   2.726   0.816 -0.0893  0.1353  0.3869
  144SOL    HW1  431   1.757   2.774   0.893 -0.4938 -0.6175  1.8034
  144SOL    HW2  432   1.846   2.642   0.856  1.4604 -0.2299 -0.1467
  145SOL     OW  433   1.851   0.520   2.751  0.2984 -0.1281 -0.0264
  145SOL    HW1  434   1.877   0.488   2.657  0.1517  2.0903  1.9291
  145SOL    HW2  435   1.938   0.537   2.800 -0.6798 -0.5031 -0.7656
  146SOL     OW  436   0.009   2.811   0.419  0.0575 -0.6641  0.3124
  146SOL    HW1  437   0.052   2.816   0.513  0.1738  0.7763  1.8082
  146SOL    HW2  438   0.045   2.882   0.350  0.4511  2.7347 -1.7455
  147SOL     OW  439   2.044   0.163   2.189 -0.3461  0.4932 -0.3862
  147SOL    HW1  440   2.115   0.198   2.256  2.6832 -0.5267  2.2503
  147SOL    HW2  441   2.043   0.214   2.101  0.9762 -1.2648  0.3421
  148SOL     OW  442   1.433   0.273   1.926 -0.0304  0.3121  0.3783
  148SOL    HW1  443   1.499   0.349   1.940 -1.7514 -1.0126 -0.5065
  148SOL    HW2  444   1.462   0.190   1.976  0.6765  1.7380  1.2547
  149SOL     OW  445   1.495   0.107   2.258  0.1195 -0.3992  0.2100
  149SOL    HW1  446   1.507   0.070   2.162  2.5462  0.3117  1.2344
  149SOL    HW2  447   1.420   0.058   2.307 -0.9742  1.1223  1.6200
  150SOL     OW  448   3.080   3.003   2.901  0.6025  0.3733  0.9196
  150SOL    HW1  449   3.046   2.904   2.913  1.5633  0.5716 -0.1881
  150SOL    HW2  450   3.009   3.066   2.930  0.7034 -1.5110 -0.3281
  151SOL     OW  451   0.644   1.244   0.247 -0.5365  0.2693  0.5247
  151SOL    HW1  452   0.574   1.215   0.181 -0.3537 -0.0217 -2.3183
  151SOL    HW2  453   0.661   1.342   0.232 -1.8906 -0.7585 -2.2069
  152SOL     OW  454   0.030   0.228   0.584  0.0716 -0.2873  0.2726
  152SOL    HW1  455   0.119   0.235   0.531  1.7410  0.0513 -0.8747
  152SOL    HW2  456   3.090   0.322   0.602  2.4447 -0.1238  1.1568
  153SOL     OW  457   2.557   0.545   1.385 -0.4480 -0.6263 -0.1588
  153SOL    HW1  458   2.600   0.470   1.441  0.4289 -0.7317  0.1505
  153SOL    HW2  459   2.532   0.505   1.292 -0.6403  1.2971 -3.0554
  154SOL     OW  460   1.552   0.036   2.007  0.6136 -0.2146 -1.0401
  154SOL    HW1  461   1.647   0.019   2.034 -0.7289 -1.6377  2.0225
  154SOL    HW2  462   1.510   3.040   1.975  1.2380 -2.1779 -4.0567
  155SOL     OW  463   2.863   1.636   0.601 -0.2228  0.4851  0.1604
  155SOL    HW1  464   2.824   1.715   0.656  2.6231 -0.5091  0.4613
  155SOL    HW2  465   2.946   1.603   0.652  2.2386  2.8776  1.3240
  156SOL     OW  466   2.396   1.924   2.935  0.1279 -0.6695  0.6462
  156SOL    HW1  467   2.404   2.006   2.998  1.3588 -1.1716 -0.0462
  156SOL    HW2  468   2.309   1.877   2.950  1.1016 -0.5238 -2.0314
  157SOL     OW  469   0.707   0.162   0.715  0.3835  0.4913  0.2703
  157SOL    HW1  470   0.648   0.220   0.657 -0.7109 -0.2409 -1.1834
  157SOL    HW2  471   0.803   0.192   0.700 -0.0690  2.6574  0.3481
  158SOL     OW  472   2.324   0.505   1.985 -0.0578 -0.3483 -0.0610
  158SOL    HW1  473   2.395   0.438   1.950  2.0805  2.5545 -1.4570
  158SOL    HW2  474   2.349   0.601   1.973 -1.8775 -1.8262  2.1016
  159SOL     OW  475   0.291   0.307   0.472  0.2868 -0.1071  0.5917
  159SOL    HW1  476   0.328   0.375   0.408  0.4685  0.2254 -1.2850
  159SOL    HW2  477   0.305   0.215   0.436 -0.3175  1.3391  0.0268
  160SOL     OW  478   1.703   1.928   1.909  0.0527 -0.0485 -0.2377
  160SOL    HW1  479   1.694   2.002   1.977 -1.3797  0.9067 -0.6167
  160SOL    HW2  480   1.737   1.844   1.953  0.6127 -1.2340 -1.3164
  161SOL     OW  481   2.774   0.495   2.577 -0.4160 -0.3963  0.0426
  161SOL    HW1  482   2.807   0.536   2.665 -2.1762 -2.3800  1.7937
  161SOL    HW2  483   2.834   0.418   2.555 -1.8500  0.8818 -1.6927
  162SOL     OW  484   1.146   2.710   1.877 -0.1177  0.2996  0.5067
  162SOL    HW1  485   1.108   2.628   1.829  1.6063 -0.2350  0.6002
  162SOL    HW2  486   1.136   2.790   1.816 -0.5685 -1.4629 -2.9521
  163SOL     OW  487   2.790   0.185   2.304 -0.2433 -0.6003  0.5542
  163SOL    HW1  488   2.828   0.110   2.250  0.4526  4.1370  2.9851
  163SOL    HW2  489   2.693   0.168   2.331  2.7250 -1.6130  0.5248
  164SOL     OW  490   2.228   1.769   0.108  0.2138 -0.1426 -0.5531
  164SOL    HW1  491   2.160   1.780   0.032 -3.3031 -1.5491 -0.4363
  164SOL    HW2  492   2.315   1.726   0.076  0.6758  0.7934 -2.2349
  165SOL     OW  493   2.920   0.443   1.475  0.7093  0.3508 -0.1222
  165SOL    HW1  494   2.973   0.512   1.524 -0.4480 -0.1219 -1.1045
  165SOL    HW2  495   2.964   0.421   1.387  0.0961  1.6031  3.0088
  166SOL     OW  496   2.310   0.628   3.046  0.1092  0.1191  0.2575
  166SOL    HW1  497   2.411   0.620   3.028  1.4779  1.1864  0.4841
  166SOL    HW2  498   2.293   0.690   0.031  0.1800 -1.2678 -1.6640
  167SOL     OW  499   2.702   0.833   0.100  0.4075 -0.3407 -0.3660
  167SOL    HW1  500   2.607   0.876   0.091 -4.5611 -0.6692  0.4675
  167SOL    HW2  501   2.777   0.899   0.102  0.5312 -1.4639  1.5472
  168SOL     OW  502   1.763   2.886   2.871 -0.1268  0.1780 -0.0306
  168SOL    HW1  503   1.776   2.923   2.966 -0.6443  0.6415 -3.1884
  168SOL    HW2  504   1.735   2.960   2.807 -2.6462 -1.6193  0.7120
  169SOL     OW  505   3.079   1.513   0.739 -0.1858 -0.3640  0.0788
  169SOL    HW1  506   3.050   1.440   0.805 -0.2054  1.0629  1.3784
  169SOL    HW2  507   0.072   1.474   0.696  1.8618 -1.9549 -1.8193
  170SOL     OW  508   2.913   0.955   1.377  0.2175 -0.3052  0.3881
  170SOL    HW1  509   3.008   0.916   1.388 -0.2384 -0.4325  0.5371
  170SOL    HW2  510   2.853   0.880   1.348  1.9664  0.0365 -0.8481
  171SOL     OW  511   2.387   2.067   1.948  0.0932 -0.1084  0.4351
  171SOL    HW1  512   2.389   2.010   1.861 -1.1433 -0.7563  1.3486
  171SOL    HW2  513   2.390   2.002   2.032  1.0161 -2.5597  0.0792
  172SOL     OW  514   0.254   2.351   1.458 -0.1081  0.0313  0.1157
  172SOL    HW1  515   0.236   2.263   1.412  0.8371 -0.3205  0.1665
  172SOL    HW2  516   0.249   2.429   1.395  0.0144  2.6591 -0.5601
  173SOL     OW  517   1.311   1.041   3.007 -0.2416  0.7663  0.3836
  173SOL    HW1  518   1.302   0.954   2.954 -0.9239  1.9524 -0.7029
  173SOL    HW2  519   1.365   1.109   2.952  1.0477  0.0982  0.8947
  174SOL     OW  520   1.323   0.126   2.578 -0.1493 -0.1061 -0.6308
  174SOL    HW1  521   1.399   0.191   2.565  0.5367  1.3315  0.0907
  174SOL    HW2  522   1.349   0.047   2.634 -1.2656  2.8895 -0.4097
  175SOL     OW  523   1.587   1.906   1.000  0.6009 -0.4818  0.1988
  175SOL    HW1  524   1.691   1.911   1.006  0.6170  1.5044  1.5101
  175SOL    HW2  525   1.551   1.813   1.027 -0.8802 -3.5366  1.0751
  176SOL     OW  526   1.433   3.015   0.343  0.2334  0.1353 -0.0434
  176SOL    HW1  527   1.520   2.976   0.382  0.0419  0.7866  2.0008
  176SOL    HW2  528   1.448   3.049   0.246 -0.5595 -1.0265 -2.7833
  177SOL     OW  529   0.730   1.069   2.902 -0.7425 -0.5658  0.1598
  177SOL    HW1  530   0.753   0.978   2.939  0.8100 -0.1912  0.0008
  177SOL    HW2  531   0.635   1.074   2.867  0.0361 -1.4799  1.0859
  178SOL     OW  532   2.371   2.388   2.363 -0.6592 -0.1849 -0.0367
  178SOL    HW1  533   2.400   2.374   2.265 -0.2776  0.7789 -3.5553
  178SOL    HW2  534   2.349   2.487   2.386 -1.3227  1.4438 -0.4353
  179SOL     OW  535   2.969   0.251   2.778  0.3440 -0.0755 -0.3808
  179SOL    HW1  536   2.901   0.182   2.807 -0.9793  0.4823  1.1630
  179SOL    HW2  537   2.961   0.265   2.678 -0.1911 -2.0192  2.6965
  180SOL     OW  538   1.912   1.088   0.681 -0.1445  0.3592  0.4009
  180SOL    HW1  539   1.957   1.029   0.753 -2.3451  1.2177 -0.4195
  180SOL    HW2  540   1.885   1.184   0.709 -0.8878 -1.1444  1.3601
  181SOL     OW  541   1.971   1.240   2.556  0.5910  0.5221  0.0699
  181SOL    HW1  542   2.004   1.335   2.559 -0.4465 -3.0098  1.4198
  181SOL    HW2  543   1.875   1.236   2.599  0.4528  0.0746 -1.1907
  182SOL     OW  544   2.572   2.589   2.199 -0.6693 -0.0545  0.7268
  182SOL    HW1  545   2.483   2.613   2.234  4.6913  0.7933 -2.1714
  182SOL    HW2  546   2.620   2.525   2.261  0.9235 -0.0535 -0.6488
  183SOL     OW  547   1.877   0.726   2.307  0.4563  0.2792  0.0947
  183SOL    HW1  548   1.899   0.751   2.401 -2.0445  1.2904 -2.4162
  183SOL    HW2  549   1.929   0.783   2.241 -0.0528 -0.6360 -0.6677
  184SOL     OW  550   0.192   1.586   1.413 -0.5287  0.5446 -0.2079
  184SOL    HW1  551   0.191   1.594   1.313  1.8142  1.5242  2.5739
  184SOL    HW2  552   0.286   1.558   1.440 -0.8580 -0.2770  0.0074
  185SOL     OW  553   1.950   0.274   0.610  0.3201  0.0030  0.2536
  185SOL    HW1  554   1.910   0.303   0.700  1.6592 -0.3377  0.1649
  185SOL    HW2  555   2.004   0.188   0.621 -0.4285 -1.2505  0.3819
  186SOL     OW  556   0.082   2.510   2.870 -0.1263 -0.4546  0.1593
  186SOL    HW1  557   0.016   2.505   2.795 -3.8320  1.2776  3.8074
  186SOL    HW2  558   0.176   2.541   2.836 -0.1643  1.9439 -1.7807
  187SOL     OW  559   2.719   1.158   0.373  0.0489  0.4974 -0.6180
  187SOL    HW1  560   2.758   1.237   0.424 -0.7336  1.3638  0.2879
  187SOL    HW2  561   2.615   1.162   0.380  1.6563 -2.2668 -0.3888
  188SOL     OW  562   2.378   1.470   1.081 -0.5037  0.6865 -0.3731
  188SOL    HW1  563   2.469   1.469   1.118 -0.4136 -0.1756 -0.1872
  188SOL    HW2  564   2.368   1.445   0.983  0.1520 -0.5678 -0.3292
  189SOL     OW  565   2.955   0.298   2.511 -0.3484 -0.3353 -0.0174
  189SOL    HW1  566   2.894   0.238   2.456  0.2668  2.1310  0.8271
  189SOL    HW2  567   3.050   0.308   2.482 -0.0832  0.5243  0.7389
  190SOL     OW  568   1.311   1.029   1.455  0.1838 -0.2218 -0.3011
  190SOL    HW1  569   1.370   0.953   1.471  0.1459  1.7398  0.3004
  190SOL    HW2  570   1.299   1.083   1.544 -2.2681  2.3005 -0.0324
  191SOL     OW  571   0.901   0.395   1.908  1.0557 -0.2514 -0.1216
  191SOL    HW1  572   0.977   0.342   1.871  0.7030 -0.9276 -1.6980
  191SOL    HW2  573   0.880   0.474   1.845 -0.3184  0.3019 -1.9452
  192SOL     OW  574   1.583   2.234   1.781  0.4354  0.2371  0.2011
  192SOL    HW1  575   1.569   2.132   1.766 -2.5577 -2.7904  1.9618
  192SOL    HW2  576   1.559   2.282   1.694  0.9223  0.4316  0.1039
  193SOL     OW  577   1.747   0.502   1.138  0.0931 -0.4787 -0.2467
  193SOL    HW1  578   1.681   0.453   1.189  3.1745  1.9367 -0.0146
  193SOL    HW2  579   1.714   0.597   1.109  2.2997 -1.2400 -3.4481
  194SOL     OW  580   0.581   2.194   1.537 -0.6141  0.7204 -0.0947
  194SOL    HW1  581   0.517   2.116   1.530 -0.2895  1.0046 -0.2003
  194SOL    HW2  582   0.677   2.159   1.526 -0.1210  0.6753  1.0936
  195SOL     OW  583   1.600   0.258   0.202 -0.2133  0.2870  0.0606
  195SOL    HW1  584   1.585   0.182   0.136 -0.6751  0.6301  1.4501
  195SOL    HW2  585   1.603   0.230   0.298 -0.3333 -0.8146 -0.5566
  196SOL     OW  586   0.471   1.531   1.440  0.2333  0.1593 -0.2511
  196SOL    HW1  587   0.496   1.628   1.469  2.1714 -1.4459 -3.0751
  196SOL    HW2  588   0.532   1.459   1.480 -0.7835  0.1722 -2.3523
  197SOL     OW  589   1.095   0.312   1.647 -0.1871 -0.0981  0.1654
  197SOL    HW1  590   1.132   0.248   1.581 -2.7545  0.7936 -0.5370
  197SOL    HW2  591   1.146   0.311   1.739 -0.2391  0.7058 -1.5783
  198SOL     OW  592   0.679   1.348   1.223 -0.3753 -0.0662  0.1813
  198SOL    HW1  593   0.667   1.440   1.181 -2.4011  2.0083 -3.1309
  198SOL    HW2  594   0.686   1.357   1.323  0.0622  1.2198 -0.1055
  199SOL     OW  595   0.035   2.469   1.618 -0.4953  0.2313  0.0273
  199SOL    HW1  596   0.082   2.555   1.641 -0.4045  2.3962 -2.0512
  199SOL    HW2  597   0.094   2.389   1.630  1.5613  0.5019  0.8987
  200SOL     OW  598   1.800   1.254   1.749  0.4360 -0.8232 -0.0043
  200SOL    HW1  599   1.873   1.189   1.775 -0.6997 -0.6140  0.0276
  200SOL    HW2  600   1.712   1.207   1.763  0.2059 -2.5023  0.5002
  201SOL     OW  601   0.606   1.900   2.117 -0.3485 -0.2206  0.0409
  201SOL    HW1  602   0.609   1.920   2.217  2.3902  1.7437 -0.1639
  201SOL    HW2  603   0.535   1.835   2.088 -0.1594 -0.5104  1.2722
  202SOL     OW  604   1.391   0.425   2.964 -0.1213  0.0556 -0.6086
  202SOL    HW1  605   1.479   0.470   2.962 -2.9770 -2.9463 -0.0084
  202SOL    HW2  606   1.327   0.469   3.034 -1.5521  0.2544  2.8719
  203SOL     OW  607   1.421   2.821   2.221  0.2930 -0.2987  0.1985
  203SOL    HW1  608   1.499   2.774   2.268 -4.5089 -0.0038  1.2404
  203SOL    HW2  609   1.384   2.896   2.279 -0.9487 -0.1919  0.8875
  204SOL     OW  610   0.611   1.789   1.720 -0.0270 -0.1679  0.2941
  204SOL    HW1  611   0.652   1.878   1.744 -2.1873  0.6874  0.6171
  204SOL    HW2  612   0.572   1.736   1.802 -2.6771 -0.0125  0.3594
  205SOL     OW  613   1.715   1.533   1.810  0.2804 -0.1095  0.2293
  205SOL    HW1  614   1.722   1.433   1.790  1.9451 -0.4420  1.3006
  205SOL    HW2  615   1.640   1.548   1.877 -0.8658  1.4397 -0.9279
  206SOL     OW  616   0.025   1.523   2.291  0.4262 -0.1955 -0.1798
  206SOL    HW1  617   0.107   1.498   2.236 -0.7055  1.3433 -3.2872
  206SOL    HW2  618   0.054   1.591   2.354 -2.7381 -1.7579 -3.1618
  207SOL     OW  619   0.744   2.883   2.001  0.1257  0.1603 -0.4651
  207SOL    HW1  620   0.771   2.938   1.920 -0.8070  0.3656  3.3481
  207SOL    HW2  621   0.677   2.934   2.052 -2.2168 -1.2433  0.1879
  208SOL     OW  622   0.498   2.736   1.898 -0.1661 -0.0360  0.2463
  208SOL    HW1  623   0.567   2.806   1.892 -2.9361 -0.4616  1.2985
  208SOL    HW2  624   0.467   2.706   1.805  0.2514  1.0324 -1.0313
  209SOL     OW  625   1.297   2.812   0.521 -0.0283  0.5676 -0.0842
  209SOL    HW1  626   1.377   2.760   0.557 -0.1318 -0.2771  0.1868
  209SOL    HW2  627   1.325   2.905   0.485 -0.4456  1.2575  0.6504
  210SOL     OW  628   2.576   0.592   0.784 -0.1273  0.2180  0.0517
  210SOL    HW1  629   2.657   0.532   0.756  1.3568 -1.0301 -2.0102
  210SOL    HW2  630   2.556   0.669   0.721  0.1807  0.1667  2.4879
  211SOL     OW  631   0.635   0.311   1.913  0.1012  0.0430 -0.7391
  211SOL    HW1  632   0.734   0.341   1.900  0.5242 -1.0828 -0.3927
  211SOL    HW2  633   0.570   0.385   1.894  1.0641 -2.9222 -0.6484
  212SOL     OW  634   1.421   2.558   1.703 -0.2455  0.0312 -0.2372
  212SOL    HW1  635   1.359   2.545   1.778  1.6177 -1.1735 -1.5919
  212SOL    HW2  636   1.427   2.474   1.645  0.7600  0.3368 -3.2450
  213SOL     OW  637   2.913   0.315   1.780  0.3658  0.0668 -0.6394
  213SOL    HW1  638   2.853   0.396   1.773  0.8528  0.6116  0.0316
  213SOL    HW2  639   2.858   0.228   1.780  0.6695 -2.1719 -1.2228
  214SOL     OW  640   0.665   2.589   2.073  0.4523 -0.1671 -0.0582
  214SOL    HW1  641   0.603   2.639   2.007 -0.5721  1.4468 -0.2723
  214SOL    HW2  642   0.733   2.653   2.112 -0.4120  0.1760 -1.9710
  215SOL     OW  643   2.688   1.555   1.615 -0.0052  0.5159  0.2806
  215SOL    HW1  644   2.785   1.564   1.601  0.0580 -1.9583 -0.5888
  215SOL    HW2  645   2.634   1.569   1.533 -1.8101 -1.7776  2.8483
  216SOL     OW  646   0.631   1.121   2.070 -0.1600  0.6245  0.4538
  216SOL    HW1  647   0.643   1.022   2.092  1.0761 -0.9491  1.3692
  216SOL    HW2  648   0.573   1.166   2.140 -0.3966  0.1800 -1.1437
  217SOL     OW  649   2.549   0.426   1.141  0.1227  0.1951  0.3936
  217SOL    HW1  650   2.546   0.340   1.193 -0.8192 -3.2802  1.5732
  217SOL    HW2  651   2.632   0.416   1.077  3.8345  1.3840 -2.6315
  218SOL     OW  652   1.456   2.084   1.171 -0.2918 -0.0921 -0.5023
  218SOL    HW1  653   1.517   2.008   1.139  1.7729 -0.9934  0.9572
  218SOL    HW2  654   1.368   2.100   1.118 -0.4400  0.5728  0.4419
  219SOL     OW  655   1.834   2.635   0.527 -0.4660 -0.2596 -0.2219
  219SOL    HW1  656   1.812   2.676   0.618 -0.3219  1.3393  2.2607
  219SOL    HW2  657   1.804   2.542   0.512 -0.6982  2.6247 -0.5816
  220SOL     OW  658   1.721   2.382   0.239 -0.1856 -0.0816 -0.1127
  220SOL    HW1  659   1.667   2.467   0.228 -0.0882 -2.8215 -0.1455
  220SOL    HW2  660   1.776   2.367   0.156 -0.2084  0.6468 -2.5206
  221SOL     OW  661   2.596   1.881   0.116 -0.0802 -0.1677  0.3038
  221SOL    HW1  662   2.599   1.981   0.091 -1.8454  4.8368 -0.9479
  221SOL    HW2  663   2.550   1.868   0.206 -0.5759 -0.0594 -2.4360
  222SOL     OW  664   0.867   2.345   0.892 -0.0560  0.2020  0.2768
  222SOL    HW1  665   0.832   2.439   0.879 -0.0429  0.4098 -2.2814
  222SOL    HW2  666   0.963   2.352   0.928 -0.1903 -0.2911 -0.8022
  223SOL     OW  667   0.843   0.140   0.204 -0.2079 -0.4516 -0.2234
  223SOL    HW1  668   0.816   0.102   0.296 -0.2571  1.0706 -2.2430
  223SOL    HW2  669   0.908   0.077   0.164 -3.6063  4.3632  0.8101
  224SOL     OW  670   2.714   0.951   1.004 -0.4652  0.3712  0.1853
  224SOL    HW1  671   2.644   0.984   0.932 -0.4009  0.5146 -3.6210
  224SOL    HW2  672   2.678   0.974   1.096  0.1800 -0.0635 -1.5498
  225SOL     OW  673   3.025   1.885   0.952  0.4837 -0.8101  0.0512
  225SOL    HW1  674   3.039   1.986   0.950  0.3949 -1.6340 -2.5747
  225SOL    HW2  675   3.040   1.856   1.049  2.5649 -0.8767  2.0946
  226SOL     OW  676   0.881   2.913   1.032 -0.5699  0.2972 -0.2609
  226SOL    HW1  677   0.891   2.817   1.067 -0.1929 -0.9073  0.3420
  226SOL    HW2  678   0.788   2.952   1.050 -2.1997 -0.0987 -2.1927
  227SOL     OW  679   1.193   1.589   1.493 -0.2875 -0.3893 -0.1264
  227SOL    HW1  680   1.208   1.494   1.530 -0.4670 -1.3863  1.0010
  227SOL    HW2  681   1.126   1.581   1.414  0.6590 -1.5481 -0.3306
  228SOL     OW  682   1.152   0.245   1.901  0.1880  0.4137  0.0702
  228SOL    HW1  683   1.125   0.147   1.914 -0.6616  2.6227 -2.1640
  228SOL    HW2  684   1.248   0.263   1.925 -0.3746  0.0398 -0.8764
  229SOL     OW  685   3.005   0.932   2.330 -0.0571 -0.0224 -0.5226
  229SOL    HW1  686   2.907   0.927   2.311  0.0982  0.3878 -0.0396
  229SOL    HW2  687   3.063   0.940   2.245 -1.2547  0.8884 -1.1157
  230SOL     OW  688   2.967   0.965   0.947  0.4579 -0.3279  0.2544
  230SOL    HW1  689   3.011   0.909   1.020  2.2921 -1.7135  2.3319
  230SOL    HW2  690   2.869   0.970   0.968  0.6729 -0.0370 -2.6574
  231SOL     OW  691   1.347   3.015   2.409  0.2171  0.5055  0.3696
  231SOL    HW1  692   1.387   2.942   2.471  1.6576 -0.1650 -1.1416
  231SOL    HW2  693   1.321   0.004   2.461  0.8715 -1.0646 -2.1865
  232SOL     OW  694   0.047   2.022   0.333  0.6062  0.3279  0.2196
  232SOL    HW1  695   0.108   2.096   0.302 -1.4058 -0.4452 -0.8760
  232SOL    HW2  696   0.005   1.975   0.249  0.2120  0.3141 -0.8945
  233SOL     OW  697   1.477   2.495   3.035  0.0979  0.3546  0.5867
  233SOL    HW1  698   1.436   2.403   3.007  1.2635  1.4710  2.4503
  233SOL    HW2  699   1.421   2.565   2.986 -0.6889  1.0005 -0.6618
  234SOL     OW  700   0.879   1.137   1.741 -0.1261  0.3194  0.4340
  234SOL    HW1  701   0.931   1.074   1.679 -0.8979 -2.8856 -0.0870
  234SOL    HW2  702   0.940   1.207   1.780  0.2512 -1.5672 -0.8577
  235SOL     OW  703   0.292   2.433   2.236 -0.2053 -0.1272  0.4187
  235SOL    HW1  704   0.265   2.363   2.160  3.2432 -1.3741 -3.5818
  235SOL    HW2  705   0.334   2.511   2.185  1.9253  0.0639 -1.7382
  236SOL     OW  706   1.626   1.830   2.703 -0.3351  0.4780 -0.1874
  236SOL    HW1  707   1.701   1.801   2.641  0.6852  0.7305 -0.4936
  236SOL    HW2  708   1.618   1.931   2.707 -0.9051 -2.2151  1.9466
  237SOL     OW  709   1.452   0.644   0.392 -0.1373 -0.4312 -0.1906
  237SOL    HW1  710   1.520   0.678   0.464  0.5804  0.5077  1.3727
  237SOL    HW2  711   1.468   0.699   0.307 -1.6114  2.3309 -0.4777
  238SOL     OW  712   0.854   2.749   2.205  0.2307 -0.3710  0.2583
  238SOL    HW1  713   0.809   2.819   2.143  1.2006  1.4326 -2.6212
  238SOL    HW2  714   0.953   2.742   2.178  1.4709  1.6972  0.7379
  239SOL     OW  715   1.109   2.698   2.139  0.1929 -0.2756  0.3967
  239SOL    HW1  716   1.147   2.712   2.042  2.3365  0.6922  0.5473
  239SOL    HW2  717   1.121   2.608   2.182 -2.8453  2.0654 -1.0946
  240SOL     OW  718   1.974   2.941   0.736  0.6691 -0.3065 -0.6547
  240SOL    HW1  719   1.907   2.866   0.750  1.2163 -1.5661 -0.7024
  240SOL    HW2  720   2.072   2.906   0.746  2.2877 -0.3810  1.6944
  241SOL     OW  721   1.079   1.237   2.177 -0.6553  0.3105 -0.3405
  241SOL    HW1  722   1.130   1.154   2.151 -0.3785 -0.4514 -1.6305
  241SOL    HW2  723   1.038   1.225   2.274 -1.5993 -1.7873 -0.2653
  242SOL     OW  724   2.580   0.635   3.014  0.5870 -0.3688  0.2996
  242SOL    HW1  725   2.623   0.711   3.063 -0.8970  1.6840 -1.2717
  242SOL    HW2  726   2.565   0.660   2.913 -0.9933 -2.9965 -1.1407
  243SOL     OW  727   0.847   0.834   1.173 -0.4417 -0.2891 -0.0472
  243SOL    HW1  728   0.944   0.792   1.182  0.8142 -1.3144  1.7180
  243SOL    HW2  729   0.821   0.854   1.271 -0.4304  0.0012  2.3386
  244SOL     OW  730   1.397   3.067   2.813 -0.7494  0.3167  0.2209
  244SOL    HW1  731   1.373   0.051   2.877  0.2333 -0.2841 -0.3961
  244SOL    HW2  732   1.498   3.076   2.784 -1.3024 -1.0415 -0.8998
  245SOL     OW  733   1.944   2.935   0.012  0.4188  0.2604  0.3131
  245SOL    HW1  734   1.927   2.839   0.043 -0.9154 -0.3819 -0.3728
  245SOL    HW2  735   2.044   2.937   3.085  0.2242 -0.7687  2.3030
  246SOL     OW  736   0.873   0.738   1.457  0.0447 -0.2534  0.1513
  246SOL    HW1  737   0.776   0.709   1.471  0.2461  2.0770 -1.5467
  246SOL    HW2  738   0.937   0.655   1.456 -0.1088  0.5666 -0.5632
  247SOL     OW  739   0.417   0.487   1.850 -0.1689  0.3740  0.3058
  247SOL    HW1  740   0.370   0.438   1.924 -0.5961 -0.2736 -0.6717
  247SOL    HW2  741   0.356   0.486   1.767 -1.4496 -0.8858 -3.9145
  248SOL     OW  742   2.969   1.721   2.032  0.0862  0.4730 -0.5655
  248SOL    HW1  743   3.039   1.650   2.018 -0.2706  2.2313 -0.6741
  248SOL    HW2  744   3.001   1.789   2.099 -0.6400 -1.1417 -0.8161
  249SOL     OW  745   2.937   0.212   3.085 -0.1694 -0.2531 -0.2263
  249SOL    HW1  746   2.933   0.251   2.990  2.5136 -1.0225  0.8300
  249SOL    HW2  747   2.885   0.122   3.088 -2.2007 -0.8235 -1.2732
  250SOL     OW  748   3.014   0.169   0.254 -0.1832  0.0934 -0.1692
  250SOL    HW1  749   3.000   0.179   0.152  0.2271 -0.9883 -0.1092
  250SOL    HW2  750   2.942   0.107   0.291  0.5297  0.9455  0.1795
  251SOL     OW  751   1.048   1.813   1.835  0.3914 -0.2488  0.2768
  251SOL    HW1  752   1.025   1.882   1.761 -1.0799 -0.3598 -3.2641
  251SOL    HW2  753   0.970   1.805   1.902  1.1987 -0.5827 -0.3088
  252SOL     OW  754   1.810   2.493   1.426  0.0790  0.2199 -0.2034
  252SOL    HW1  755   1.796   2.568   1.488 -0.4300 -0.6382 -2.3292
  252SOL    HW2  756   1.911   2.474   1.421  0.0515 -0.7364  0.5892
  253SOL     OW  757   2.107   1.759   2.415  0.6094  0.3687 -0.3184
  253SOL    HW1  758   2.081   1.740   2.317 -0.5799  0.7967  2.6341
  253SOL    HW2  759   2.210   1.761   2.425  1.9805 -0.3541 -0.9633
  254SOL     OW  760   0.667   2.160   2.109 -0.4630  0.3424  0.0004
  254SOL    HW1  761   0.646   2.062   2.110  0.4370  1.9055 -1.0195
  254SOL    HW2  762   0.619   2.197   2.025  1.4999  0.9387 -3.4623
  255SOL     OW  763   1.182   0.153   1.452  0.2569  0.5177 -0.7746
  255SOL    HW1  764   1.190   0.138   1.354  1.0454  0.8557  0.6792
  255SOL    HW2  765   1.267   0.121   1.502 -0.2243 -1.3412  0.8305
  256SOL     OW  766   2.424   2.071   1.438  0.0019  0.3100 -0.6036
  256SOL    HW1  767   2.357   2.031   1.376 -1.3056 -0.1348  3.6486
  256SOL    HW2  768   2.522   2.068   1.403  0.1582 -0.2293 -1.0779
  257SOL     OW  769   0.601   2.177   3.041  0.0033 -0.2206 -0.6137
  257SOL    HW1  770   0.691   2.224   3.031 -0.2276  0.4692 -1.2079
  257SOL    HW2  771   0.527   2.245   3.061 -0.7289 -2.4878 -0.6214
  258SOL     OW  772   0.462   1.226   0.068  0.4378 -0.0621 -0.1589
  258SOL    HW1  773   0.390   1.294   0.104  0.0868  1.0162 -2.4844
  258SOL    HW2  774   0.426   1.131   0.060 -2.5020 -1.1865 -2.0631
  259SOL     OW  775   0.750   1.447   2.648  0.2110 -0.9200 -0.0068
  259SOL    HW1  776   0.789   1.357   2.665 -1.8186 -0.3211  1.2124
  259SOL    HW2  777   0.804   1.496   2.576  0.0599 -1.6358 -2.6798
  260SOL     OW  778   1.962   0.878   1.218 -0.3119 -0.3154  0.4741
  260SOL    HW1  779   1.869   0.883   1.258  0.5810  0.5159  2.6499
  260SOL    HW2  780   1.992   0.973   1.184 -0.1262  1.3298 -0.2476
  261SOL     OW  781   1.143   0.333   0.849  0.0438  0.4124 -0.4109
  261SOL    HW1  782   1.084   0.285   0.787  4.3749  0.6429  2.1550
  261SOL    HW2  783   1.102   0.346   0.943 -0.5278  0.7482  0.5216
  262SOL     OW  784   2.071   2.035   2.466 -0.1427  0.1329 -0.4589
  262SOL    HW1  785   2.062   2.034   2.570 -4.5999  0.5416  0.6347
  262SOL    HW2  786   2.074   1.942   2.428  1.0784 -0.3977  1.8049
  263SOL     OW  787   2.935   1.481   3.012 -0.1501 -0.3960 -0.0974
  263SOL    HW1  788   2.935   1.582   3.035 -3.1919 -1.4796  1.4992
  263SOL    HW2  789   3.031   1.445   3.017  0.2701  0.3306 -0.0712
  264SOL     OW  790   0.427   1.827   1.068 -0.2039 -0.7517 -0.1973
  264SOL    HW1  791   0.511   1.878   1.105 -0.5595  2.5098 -0.0477
  264SOL    HW2  792   0.453   1.786   0.979  1.6856  2.9574  1.6767
  265SOL     OW  793   0.617   1.009   0.871  0.3493 -0.1083 -0.5002
  265SOL    HW1  794   0.554   1.055   0.802  1.9538 -0.6340  0.3167
  265SOL    HW2  795   0.599   1.049   0.963 -0.3315  0.9869 -2.9975
  266SOL     OW  796   1.464   1.687   3.092 -0.0144 -0.0811  0.1097
  266SOL    HW1  797   1.549   1.723   3.046 -1.6344  0.0505  1.7916
  266SOL    HW2  798   1.495   1.646   0.084 -1.4830  1.3171 -3.8873
  267SOL     OW  799   0.760   1.174   2.397  0.3549  0.6043 -0.1322
  267SOL    HW1  800   0.854   1.216   2.405  2.5044 -2.2840 -2.6260
  267SOL    HW2  801   0.781   1.071   2.412 -2.9258 -2.5982  1.5862
  268SOL     OW  802   0.722   0.863   0.030  0.8536 -0.0208 -0.0057
  268SOL    HW1  803   0.791   0.863   0.102  3.3128 -1.7948 -3.1366
  268SOL    HW2  804   0.628   0.884   0.066 -0.2590 -1.7995  1.8373
  269SOL     OW  805   1.925   2.892   2.582  0.3675 -0.1634  0.4011
  269SOL    HW1  806   1.875   2.883   2.492  0.8767  1.0037 -0.4479
  269SOL    HW2  807   1.860   2.883   2.662 -1.3243 -1.5519  1.0666
  270SOL     OW  808   1.149   1.266   2.684 -0.4726 -0.0936  0.3065
  270SOL    HW1  809   1.244   1.226   2.663  0.5982  1.4309 -1.9634
  270SOL    HW2  810   1.084   1.189   2.683  1.7285  1.8618 -0.8648
  271SOL     OW  811   2.914   0.542   3.060  0.9021 -0.4207  0.0649
  271SOL    HW1  812   2.995   0.518   0.022 -0.5605 -0.1262  0.1104
  271SOL    HW2  813   2.942   0.590   2.977  0.8499  0.8651 -1.8194
  272SOL     OW  814   2.306   0.869   2.811  0.1321  0.2553  0.0575
  272SOL    HW1  815   2.250   0.883   2.893 -0.5980 -1.2525 -0.9597
  272SOL    HW2  816   2.326   0.957   2.767 -0.4658  1.3228  2.6427
  273SOL     OW  817   0.253   0.354   2.036  0.1737  0.2247  0.7016
  273SOL    HW1  818   0.163   0.305   2.027 -0.2353 -1.3975 -0.9503
  273SOL    HW2  819   0.271   0.383   2.134 -0.3499  0.3516  0.4635
  274SOL     OW  820   3.084   0.526   1.915 -0.2252  0.6034  0.2987
  274SOL    HW1  821   0.023   0.467   1.990  0.3708 -1.3340 -1.0638
  274SOL    HW2  822   3.057   0.471   1.834 -0.8106 -1.7182 -0.3636
  275SOL     OW  823   1.743   1.792   0.716  0.0306  0.4999  0.1470
  275SOL    HW1  824   1.780   1.720   0.653 -2.6274 -2.0992 -2.3868
  275SOL    HW2  825   1.651   1.820   0.679  0.1755  0.1569 -2.7766
  276SOL     OW  826   0.505   1.254   2.289 -1.0515  0.1889  0.2606
  276SOL    HW1  827   0.591   1.234   2.335 -1.1007  0.9862  0.6488
  276SOL    HW2  828   0.465   1.345   2.315 -0.8782  1.6050  0.0833
  277SOL     OW  829   2.117   2.739   2.455  0.5731  0.4423  0.3641
  277SOL    HW1  830   2.071   2.669   2.391 -3.3948 -2.9123 -1.4075
  277SOL    HW2  831   2.044   2.799   2.502  0.2553 -1.0075 -1.1569
  278SOL     OW  832   2.007   2.910   1.830  0.0832 -0.8575  0.4799
  278SOL    HW1  833   1.938   2.990   1.820 -2.3575 -0.5856 -2.8095
  278SOL    HW2  834   2.069   2.916   1.749  0.6666  2.1430 -1.2883
  279SOL     OW  835   1.576   1.342   0.054 -0.6172 -0.6177 -0.6973
  279SOL    HW1  836   1.487   1.334   0.007  0.4152 -0.0574  0.7442
  279SOL    HW2  837   1.607   1.253   0.095 -2.5295  0.4700 -0.5538
  280SOL     OW  838   0.824   1.471   0.173 -0.4087  0.5321 -0.3580
  280SOL    HW1  839   0.916   1.485   0.216  0.1559  1.2121  1.7938
  280SOL    HW2  840   0.827   1.429   0.083  0.7401 -1.3402  0.4855
  281SOL     OW  841   3.010   2.923   1.506 -0.1735  0.1739  0.3658
  281SOL    HW1  842   3.088   2.925   1.575  2.1278 -0.9572 -1.5360
  281SOL    HW2  843   3.004   3.012   1.455 -0.2432 -0.2513  0.0497
  282SOL     OW  844   2.864   2.135   0.727  0.3623  0.2289 -0.3601
  282SOL    HW1  845   2.963   2.151   0.709 -1.9806 -0.0222 -1.5479
  282SOL    HW2  846   2.802   2.216   0.714  0.2719  2.2235 -0.4161
  283SOL     OW  847   1.155   2.031   2.040 -0.1972  0.0949  0.0933
  283SOL    HW1  848   1.213   2.085   2.104  0.8137 -0.9874 -0.0649
  283SOL    HW2  849   1.125   1.938   2.072 -0.2573 -0.1351 -1.6032
  284SOL     OW  850   1.995   3.033   0.272 -0.0914 -0.2857  0.5287
  284SOL    HW1  851   2.081   3.088   0.253  2.3065  2.4838 -3.3404
  284SOL    HW2  852   1.940   3.019   0.183 -0.2928 -0.1074 -1.3113
  285SOL     OW  853   0.205   2.730   2.473  0.0969  1.0254 -0.3937
  285SOL    HW1  854   0.254   2.641   2.493  0.0436 -1.5104 -0.1798
  285SOL    HW2  855   0.275   2.806   2.484 -2.2051 -0.8584 -0.0587
  286SOL     OW  856   2.110   2.490   1.395  0.0071 -0.1415  0.3086
  286SOL    HW1  857   2.102   2.573   1.454  1.8789  1.0557 -3.2999
  286SOL    HW2  858   2.174   2.419   1.431 -0.3075 -2.6351 -2.2779
  287SOL     OW  859   0.528   1.497   0.699  0.0003 -0.1450  0.1302
  287SOL    HW1  860   0.524   1.433   0.777  1.0543  0.6330 -1.7985
  287SOL    HW2  861   0.622   1.490   0.654 -0.0848 -0.9207 -1.4243
  288SOL     OW  862   2.003   2.015   2.724  0.5058  0.0416 -0.4027
  288SOL    HW1  863   1.909   2.048   2.698  1.0448  1.0900  1.3427
  288SOL    HW2  864   2.073   2.090   2.741  0.2538  0.8338  1.0575
  289SOL     OW  865   0.491   1.741   2.487 -0.0992 -0.3155  0.2580
  289SOL    HW1  866   0.520   1.821   2.435 -1.8487 -0.4645  2.2543
  289SOL    HW2  867   0.546   1.747   2.569  0.0481  1.6324  0.0260
  290SOL     OW  868   1.070   2.221   1.247  0.2295 -0.0549  0.4142
  290SOL    HW1  869   1.096   2.177   1.335 -0.9802  1.3894  0.2300
  290SOL    HW2  870   1.043   2.144   1.181  0.8111 -3.3450 -1.0972
  291SOL     OW  871   1.731   1.315   2.922  0.0854 -0.1277  0.0639
  291SOL    HW1  872   1.808   1.378   2.892 -1.0921  0.2631  0.8089
  291SOL    HW2  873   1.660   1.353   2.987 -0.2716  0.7211  2.5125
  292SOL     OW  874   1.034   1.381   0.808  0.1757 -0.0128 -0.1210
  292SOL    HW1  875   0.969   1.335   0.875 -0.4010 -1.9024  3.3008
  292SOL    HW2  876   1.096   1.310   0.768  3.1450  1.5434 -0.3449
  293SOL     OW  877   1.348   2.914   1.109 -0.2918  0.5253  0.0200
  293SOL    HW1  878   1.435   2.877   1.151 -0.5109  0.4937  2.1828
  293SOL    HW2  879   1.331   2.887   1.010 -1.5068 -1.7621  1.2712
  294SOL     OW  880   2.897   0.925   2.828 -0.3135 -0.1943 -0.9364
  294SOL    HW1  881   2.922   1.024   2.814  1.4668 -0.4717 -1.9503
  294SOL    HW2  882   2.799   0.909   2.811  0.7739 -2.2974  0.0945
  295SOL     OW  883   1.618   2.080   2.656  0.4720  0.7174  0.6144
  295SOL    HW1  884   1.599   2.148   2.735  0.7573  0.0771  3.5581
  295SOL    HW2  885   1.687   2.106   2.584  0.4468  1.9170 -1.8699
  296SOL     OW  886   1.961   0.963   2.136 -0.2025 -0.1535 -0.1989
  296SOL    HW1  887   1.864   0.991   2.147  0.1736  0.8591 -1.1065
  296SOL    HW2  888   2.013   0.980   2.226 -0.2792  3.4100  2.3806
  297SOL     OW  889   0.079   0.954   2.115 -0.1011 -0.0863  0.0646
  297SOL    HW1  890   0.008   0.905   2.057 -4.0503  2.6378  0.2207
  297SOL    HW2  891   0.130   1.023   2.065  0.9831 -1.0702 -1.8490
  298SOL     OW  892   1.262   2.203   2.237 -0.1787 -0.0514 -0.7146
  298SOL    HW1  893   1.196   2.269   2.199  3.0189  0.3516  0.0597
  298SOL    HW2  894   1.259   2.204   2.340 -0.0975  0.5712  0.0010
  299SOL     OW  895   0.574   2.759   2.550 -0.1028  0.0467 -0.1270
  299SOL    HW1  896   0.672   2.790   2.534  0.6519  2.5559  0.7840
  299SOL    HW2  897   0.569   2.661   2.536 -0.5288 -0.1971 -0.5082
  300SOL     OW  898   0.171   0.903   2.515  0.1981  0.0236  0.5202
  300SOL    HW1  899   0.125   0.838   2.449 -2.0913 -1.0407 -1.5433
  300SOL    HW2  900   0.119   0.990   2.505 -2.8044 -0.3365 -1.3174
  301SOL     OW  901   1.593   0.913   1.577  0.3498 -0.1886 -0.2067
  301SOL    HW1  902   1.682   0.865   1.595  0.1211  0.9954 -2.5296
  301SOL    HW2  903   1.530   0.893   1.650 -0.3258  2.6089 -2.0045
  302SOL     OW  904   2.584   2.017   2.520 -0.0556  0.0021 -0.1564
  302SOL    HW1  905   2.560   1.937   2.586 -0.3909 -2.3670  0.6011
  302SOL    HW2  906   2.512   2.026   2.450  1.4568  1.8615  1.9487
  303SOL     OW  907   0.092   0.064   2.471 -0.3846  0.1452 -0.5541
  303SOL    HW1  908   0.115   0.006   2.554  0.2323  1.5086  0.0519
  303SOL    HW2  909   0.121   0.159   2.483 -1.6739 -1.7113  0.5100
  304SOL     OW  910   0.098   0.915   1.401 -0.2148  0.3542  0.2859
  304SOL    HW1  911   0.137   1.009   1.427 -0.8297  0.1738  0.8669
  304SOL    HW2  912   0.120   0.845   1.475 -0.4838 -1.9704  2.7305
  305SOL     OW  913   2.941   0.106   1.485  0.6407  0.1794  0.3093
  305SOL    HW1  914   2.883   0.116   1.573 -1.6407  0.3453 -0.3274
  305SOL    HW2  915   2.978   0.195   1.457  0.7934 -1.1976  0.8594
  306SOL     OW  916   2.622   1.398   1.215 -0.2383 -0.2700 -0.3513
  306SOL    HW1  917   2.673   1.488   1.226 -1.2143  1.7941  0.7846
  306SOL    HW2  918   2.611   1.348   1.306 -2.2701 -0.7275 -0.5789
  307SOL     OW  919   2.129   0.221   0.866  0.3749  0.1680  0.0700
  307SOL    HW1  920   2.136   0.274   0.958 -1.4930  0.9180  2.1976
  307SOL    HW2  921   2.219   0.225   0.819  3.4701 -2.8049 -1.1391
  308SOL     OW  922   2.859   2.070   1.232 -0.1318  0.3443 -0.3227
  308SOL    HW1  923   2.835   2.102   1.139  0.2470 -0.0066  0.0847
  308SOL    HW2  924   2.929   1.991   1.229  1.0670  1.0933  0.1164
  309SOL     OW  925   2.151   1.911   1.570 -0.1204  0.2525 -0.6378
  309SOL    HW1  926   2.186   1.918   1.472  2.0552  1.3459  2.3431
  309SOL    HW2  927   2.107   1.820   1.586  0.7418 -0.1764 -1.1676
  310SOL     OW  928   2.397   1.475   2.912 -0.1877 -0.2637  0.0550
  310SOL    HW1  929   2.439   1.557   2.959 -0.6344  1.6797 -0.0044
  310SOL    HW2  930   2.296   1.461   2.934 -1.1504  1.1399 -0.9917
  311SOL     OW  931   2.080   1.084   2.751 -0.4438  0.0661  0.2718
  311SOL    HW1  932   2.036   1.128   2.665 -1.8032  0.7804 -3.9832
  311SOL    HW2  933   2.024   1.010   2.800 -1.0807 -0.2106  2.7273
  312SOL     OW  934   1.534   2.264   2.262  0.6980  0.1254  0.0750
  312SOL    HW1  935   1.516   2.334   2.333  0.4692 -2.1568 -1.6769
  312SOL    HW2  936   1.442   2.243   2.222 -1.6381 -0.7226  1.1771
  313SOL     OW  937   0.424   2.868   1.106 -0.4459 -0.1536 -0.4124
  313SOL    HW1  938   0.327   2.832   1.110  0.1114  3.5951 -0.0707
  313SOL    HW2  939   0.491   2.807   1.060  1.4501 -3.0486  2.8992
  314SOL     OW  940   0.749   1.709   1.304  0.4986 -0.0898  0.6284
  314SOL    HW1  941   0.671   1.726   1.360 -0.2297  0.0398 -0.0817
  314SOL    HW2  942   0.719   1.681   1.208  0.6880  0.1984  0.3813
  315SOL     OW  943   0.574   3.044   2.153  0.0915 -0.1134  0.2776
  315SOL    HW1  944   0.628   3.067   2.236  0.0457 -2.6746 -2.3896
  315SOL    HW2  945   0.478   3.023   2.173 -0.3165  2.6898 -0.9900
  316SOL     OW  946   0.027   2.158   0.973  0.5579 -0.1416  0.1773
  316SOL    HW1  947   0.002   2.236   1.033  1.6711 -0.5767 -1.4000
  316SOL    HW2  948   0.117   2.114   0.999 -1.0847  2.2972 -1.4324
  317SOL     OW  949   1.871   0.550   0.418 -0.3820 -0.7952  0.2762
  317SOL    HW1  950   1.827   0.502   0.341  2.8428 -0.2870 -0.5408
  317SOL    HW2  951   1.948   0.492   0.451  0.0997  0.0280  0.9902
  318SOL     OW  952   2.803   2.531   0.069 -0.1590 -0.5941 -0.3663
  318SOL    HW1  953   2.745   2.475   0.134  0.2196  0.4380  0.5132
  318SOL    HW2  954   2.768   2.623   0.068  0.1003  1.1513  0.3856
  319SOL     OW  955   1.602   1.585   0.213  0.3441 -0.3415 -0.2101
  319SOL    HW1  956   1.563   1.518   0.280 -0.7046  3.1430 -0.7835
  319SOL    HW2  957   1.689   1.544   0.178  1.7297 -0.5956 -2.3613
  320SOL     OW  958   0.705   2.270   2.747  0.3787 -0.2165  0.2848
  320SOL    HW1  959   0.624   2.208   2.756  3.0656 -2.1142  0.6772
  320SOL    HW2  960   0.754   2.290   2.837  1.3851 -0.9637  1.8993
  321SOL     OW  961   1.078   2.953   0.294 -0.1006 -0.4318 -0.0513
  321SOL    HW1  962   1.072   3.013   0.212  1.3929  0.5266  0.2983
  321SOL    HW2  963   1.120   2.863   0.267  1.2385 -3.3349 -0.4520
  322SOL     OW  964   2.140   0.714   2.152  0.1048 -0.1446 -0.1685
  322SOL    HW1  965   2.183   0.808   2.160  0.9924  3.6952 -0.4515
  322SOL    HW2  966   2.167   0.684   2.057 -0.1836  0.8109  2.0350
  323SOL     OW  967   2.725   0.944   0.540  0.5081 -0.5049  0.0199
  323SOL    HW1  968   2.812   0.927   0.592 -0.0366 -1.2274  0.7793
  323SOL    HW2  969   2.738   1.018   0.471 -0.0860 -0.4791  1.2955
  324SOL     OW  970   0.297   0.464   2.267 -0.0906 -0.6165 -0.0027
  324SOL    HW1  971   0.300   0.564   2.246  2.0235 -0.0960 -0.6313
  324SOL    HW2  972   0.390   0.420   2.270  0.7033 -0.0228  2.5446
  325SOL     OW  973   0.779   0.028   2.353  0.3237 -0.3729  0.0333
  325SOL    HW1  974   0.808   0.076   2.267 -0.9068  0.5430 -0.9031
  325SOL    HW2  975   0.742   0.098   2.422 -0.8337  1.0847 -0.6638
  326SOL     OW  976   2.441   2.620   1.000  0.5883 -0.2221 -0.0591
  326SOL    HW1  977   2.518   2.606   1.068  1.1709 -0.3144  2.5153
  326SOL    HW2  978   2.462   2.697   0.931  1.5089  1.8305 -3.4601
  327SOL     OW  979   1.673   1.113   0.179 -0.2458  0.1153 -0.2446
  327SOL    HW1  980   1.604   1.080   0.248  3.8646 -1.2440  0.1082
  327SOL    HW2  981   1.682   1.048   0.105 -1.2194 -1.1000  1.0274
  328SOL     OW  982   0.265   1.983   2.143  0.2076  0.8625 -0.3399
  328SOL    HW1  983   0.289   2.053   2.214 -0.7887  0.4546  1.1584
  328SOL    HW2  984   0.170   1.956   2.169 -1.8939  2.2061  1.1667
  329SOL     OW  985   2.553   2.660   1.625  0.1656  0.0784 -0.0124
  329SOL    HW1  986   2.528   2.574   1.575  1.7275  0.5670 -1.6512
  329SOL    HW2  987   2.553   2.635   1.728 -2.3895 -1.8896  1.7940
  330SOL     OW  988   2.406   1.285   1.838 -0.6956 -0.3144  0.6820
  330SOL    HW1  989   2.347   1.353   1.889  1.4737 -1.3512  0.3683
  330SOL    HW2  990   2.500   1.283   1.881 -1.9037 -1.1259  0.1154
  331SOL     OW  991   2.773   2.176   0.992  0.1956  0.0095 -0.3294
  331SOL    HW1  992   2.817   2.166   0.897  0.7550  0.7728 -1.8207
  331SOL    HW2  993   2.673   2.173   0.986 -1.3255  0.7528 -2.3048
  332SOL     OW  994   0.655   2.583   0.202 -0.0174  0.3793 -0.3266
  332SOL    HW1  995   0.576   2.647   0.196 -2.8541 -2.3325  0.4296
  332SOL    HW2  996   0.729   2.621   0.257 -2.7501 -3.7014 -1.7080
  333SOL     OW  997   1.912   0.179   2.433 -0.4002  0.6120 -0.3239
  333SOL    HW1  998   1.831   0.123   2.433  0.7146  0.3347 -2.2939
  333SOL    HW2  999   1.961   0.163   2.345 -1.8621 -0.9315 -1.1362
  334SOL     OW 1000   0.681   0.864   0.522  0.1889 -0.3221 -0.2045
  334SOL    HW1 1001   0.738   0.924   0.579  1.2634  0.1398  1.3816
  334SOL    HW2 1002   0.616   0.926   0.465  0.3259  1.7547 -3.0087
  335SOL     OW 1003   0.323   2.971   2.194 -0.3263 -0.4574  0.0821
  335SOL    HW1 1004   0.333   2.965   2.294  2.0343 -1.0023  1.7282
  335SOL    HW2 1005   0.235   3.016   2.173  1.7776 -2.1714  2.2645
  336SOL     OW 1006   2.886   3.089   2.127  0.4876  0.2572  0.2643
  336SOL    HW1 1007   2.837   3.000   2.139  1.9560 -1.0976 -1.3881
  336SOL    HW2 1008   2.987   3.081   2.113 -1.1067 -1.0375 -0.7228
  337SOL     OW 1009   1.300   1.613   0.940 -0.2217 -0.4572  0.2798
  337SOL    HW1 1010   1.378   1.619   1.002  1.0511 -0.9939 -0.0179
  337SOL    HW2 1011   1.285   1.519   0.905  2.4402  2.8647 -2.0055
  338SOL     OW 1012   0.922   1.846   0.884  0.0497  0.1455 -0.2271
  338SOL    HW1 1013   0.956   1.758   0.922  1.6427 -1.3198  2.1300
  338SOL    HW2 1014   0.836   1.843   0.825  0.2059 -1.4834 -0.3412
  339SOL     OW 1015   0.330   1.262   1.444 -0.8249  0.0742 -0.1547
  339SOL    HW1 1016   0.268   1.304   1.509  0.6408 -1.4129 -0.4708
  339SOL    HW2 1017   0.427   1.261   1.484  1.7212  0.1529  2.1974
  340SOL     OW 1018   1.624   2.679   2.310 -0.0365  0.0347  0.4476
  340SOL    HW1 1019   1.689   2.633   2.243  0.6517  0.7636 -1.9646
  340SOL    HW2 1020   1.624   2.641   2.406  0.8079 -0.5604  1.6451
  341SOL     OW 1021   1.843   1.575   0.913 -0.3988  0.0146 -0.4271
  341SOL    HW1 1022   1.854   1.586   1.015 -0.2089  2.6400  1.9136
  341SOL    HW2 1023   1.751   1.601   0.873  1.7005 -0.8724  0.5915
  342SOL     OW 1024   2.793   1.375   0.558 -0.3183 -0.2991  0.1270
  342SOL    HW1 1025   2.805   1.478   0.573  0.3723  3.2315 -2.0525
  342SOL    HW2 1026   2.776   1.326   0.648  0.6850 -1.0343  3.5326
  343SOL     OW 1027   2.803   1.177   1.436 -0.0752  0.1501 -0.3555
  343SOL    HW1 1028   2.833   1.232   1.519 -0.4543 -0.4742  0.9611
  343SOL    HW2 1029   2.861   1.091   1.416 -0.7922  0.0952  0.8965
  344SOL     OW 1030   1.945   0.496   0.961  0.6469 -0.0745  0.3761
  344SOL    HW1 1031   1.866   0.490   1.022  4.0203  3.9920  0.5806
  344SOL    HW2 1032   1.992   0.586   0.971  1.0347 -0.2868 -2.4235
  345SOL     OW 1033   0.421   2.950   2.427  0.3923  0.0745  0.0415
  345SOL    HW1 1034   0.479   2.875   2.451 -0.4333  0.3013  0.4071
  345SOL    HW2 1035   0.449   3.035   2.462 -0.8953 -2.5260 -1.0799
  346SOL     OW 1036   2.290   1.326   0.267 -0.5018 -0.7360 -0.0304
  346SOL    HW1 1037   2.223   1.403   0.254  0.0327 -2.5615 -0.5837
  346SOL    HW2 1038   2.238   1.240   0.252 -2.4868 -2.0514 -0.5174
  347SOL     OW 1039   1.989   2.785   2.074  0.3992  0.1072  0.1631
  347SOL    HW1 1040   1.893   2.751   2.078  1.0963  0.4950  2.0048
  347SOL    HW2 1041   2.004   2.832   1.981 -1.5404 -1.2564  0.6346
  348SOL     OW 1042   0.936   1.341   1.471 -0.7079 -0.2833  0.3082
  348SOL    HW1 1043   0.957   1.408   1.395 -0.2177  2.9080 -0.8037
  348SOL    HW2 1044   0.938   1.243   1.442 -1.3299 -0.1073  0.2724
  349SOL     OW 1045   2.344   1.035   1.829 -0.0120  0.1619  0.1249
  349SOL    HW1 1046   2.417   0.962   1.822 -0.5625  0.5323  0.7230
  349SOL    HW2 1047   2.374   1.134   1.839 -1.8629 -1.9352  0.8268
  350SOL     OW 1048   2.258   2.484   0.271 -0.0966  0.0390  0.4856
  350SOL    HW1 1049   2.251   2.389   0.234  2.7058 -1.2858 -1.0391
  350SOL    HW2 1050   2.327   2.481   0.345 -2.4828  2.4516 -1.0723
  351SOL     OW 1051   0.369   0.305   1.538  0.0133  0.1252  0.2175
  351SOL    HW1 1052   0.429   0.221   1.528  0.1598 -0.6246  0.4339
  351SOL    HW2 1053   0.283   0.278   1.586 -0.0386  0.2692 -0.9503
  352SOL     OW 1054   1.916   2.376   2.050  0.4517 -0.1058 -0.1799
  352SOL    HW1 1055   1.951   2.320   2.129  2.0671 -2.1084  1.6650
  352SOL    HW2 1056   1.893   2.318   1.968  0.8645  1.3311  1.1121
  353SOL     OW 1057   0.847   1.294   2.053  0.3079  0.1108  0.1975
  353SOL    HW1 1058   0.774   1.224   2.068  0.5904  0.3987 -1.9702
  353SOL    HW2 1059   0.926   1.271   2.112 -2.1929  2.6039  0.3588
  354SOL     OW 1060   1.446   1.691   0.495  0.3540  0.0503  0.2466
  354SOL    HW1 1061   1.465   1.592   0.491  1.5385  1.3191  0.7624
  354SOL    HW2 1062   1.425   1.730   0.400  0.9169 -1.1387  0.9140
  355SOL     OW 1063   1.919   0.029   0.938  0.6230 -0.2350 -0.3658
  355SOL    HW1 1064   1.957   3.060   0.869  3.2536  1.1302  1.3872
  355SOL    HW2 1065   1.968   0.116   0.930 -0.4246  0.3902 -1.2855
  356SOL     OW 1066   2.691   1.161   3.014 -0.6469  0.6743 -0.3809
  356SOL    HW1 1067   2.723   1.231   3.083  2.8558  0.5529  3.7576
  356SOL    HW2 1068   2.762   1.098   2.981  0.7069  0.2454 -0.9257
  357SOL     OW 1069   0.107   0.046   2.182  0.5258 -0.2879  0.4071
  357SOL    HW1 1070   0.123   0.053   2.284  0.1121  1.1883 -2.0056
  357SOL    HW2 1071   0.060   0.125   2.143  2.0750  0.0433  0.1075
  358SOL     OW 1072   0.123   1.171   0.329  0.1108  0.2729 -0.0666
  358SOL    HW1 1073   0.176   1.093   0.369  0.1168 -0.9081 -1.9518
  358SOL    HW2 1074   0.044   1.198   0.389 -1.6194  0.5678 -0.6690
  359SOL     OW 1075   2.640   3.064   2.635  0.5904 -0.2833 -0.0341
  359SOL    HW1 1076   2.651   3.005   2.553 -3.4034 -0.5640 -0.8949
  359SOL    HW2 1077   2.548   3.086   2.670  0.5346  0.6668 -0.6448
  360SOL     OW 1078   1.440   0.847   1.280  0.2149 -0.4949  0.2991
  360SOL    HW1 1079   1.538   0.852   1.300  1.3709 -2.8626  2.4554
  360SOL    HW2 1080   1.412   0.913   1.207 -0.0762 -1.1033  1.9470
  361SOL     OW 1081   2.317   2.385   1.070 -0.4810 -0.3504  0.2480
  361SOL    HW1 1082   2.225   2.412   1.103  2.4052 -0.0665  0.6953
  361SOL    HW2 1083   2.357   2.470   1.026  0.3115 -0.3135  0.2859
  362SOL     OW 1084   1.370   0.479   1.111  0.4661  0.6954  0.2366
  362SOL    HW1 1085   1.450   0.480   1.178  0.7786 -2.3489 -0.8108
  362SOL    HW2 1086   1.355   0.383   1.075  1.6602 -2.1914  0.4758
  363SOL     OW 1087   1.950   2.135   0.392  0.2558  0.0099 -1.0601
  363SOL    HW1 1088   1.993   2.067   0.455  2.0176  2.8375  1.5607
  363SOL    HW2 1089   1.892   2.210   0.442 -3.0885  3.3140  1.5641
  364SOL     OW 1090   0.043   0.438   0.869 -0.2022 -0.8559 -0.1771
  364SOL    HW1 1091   0.012   0.350   0.913 -1.0429 -1.2574 -0.3772
  364SOL    HW2 1092   0.071   0.506   0.938 -0.0427 -0.8944  0.7578
  365SOL     OW 1093   0.376   2.954   0.576 -0.0317 -0.6549 -0.0389
  365SOL    HW1 1094   0.285   2.920   0.611 -0.3609 -0.0152 -0.3843
  365SOL    HW2 1095   0.436   2.983   0.649 -4.2691  1.3900 -3.1225
  366SOL     OW 1096   3.061   1.675   0.295 -0.3140  0.3231  0.5939
  366SOL    HW1 1097   0.023   1.591   0.309 -2.8862 -1.4512  0.6148
  366SOL    HW2 1098   0.012   1.744   0.233  2.5059  2.5575  0.9497
  367SOL     OW 1099   2.740   2.442   2.596  0.0173  0.3920 -0.4153
  367SOL    HW1 1100   2.677   2.515   2.569  0.9355  1.0564  2.3091
  367SOL    HW2 1101   2.749   2.373   2.523  0.9791 -0.3624  0.0335
  368SOL     OW 1102   2.192   1.640   0.677 -0.0378 -0.4801 -0.0372
  368SOL    HW1 1103   2.182   1.540   0.651 -0.9827 -3.8990  0.9471
  368SOL    HW2 1104   2.290   1.673   0.673 -0.8141 -0.0797  1.2819
  369SOL     OW 1105   1.212   0.570   0.031  0.2167  0.1117  0.0896
  369SOL    HW1 1106   1.125   0.617   0.050 -0.7214  1.2953  0.8247
  369SOL    HW2 1107   1.260   0.530   0.113  0.6066 -1.1932  2.3387
  370SOL     OW 1108   0.644   3.031   1.076 -0.3030 -0.3014 -0.0057
  370SOL    HW1 1109   0.658   0.038   1.090  1.0108 -0.4914 -1.1490
  370SOL    HW2 1110   0.551   2.996   1.100 -1.6322 -0.1090  2.8691
  371SOL     OW 1111   2.794   1.384   2.780  0.1102 -0.3076 -0.3159
  371SOL    HW1 1112   2.830   1.440   2.859  4.0607  2.9837  2.4863
  371SOL    HW2 1113   2.706   1.342   2.800 -1.1472 -0.2635 -0.3314
  372SOL     OW 1114   0.492   0.549   2.468  0.3235 -0.0617  0.4490
  372SOL    HW1 1115   0.410   0.495   2.439 -0.0812  1.8978  1.4380
  372SOL    HW2 1116   0.483   0.580   2.563  1.1618 -1.9593  1.4891
  373SOL     OW 1117   0.363   0.210   3.051 -0.3618 -0.5955 -0.3990
  373SOL    HW1 1118   0.386   0.259   2.960  1.9392  0.8954 -3.0384
  373SOL    HW2 1119   0.450   0.186   0.005 -0.3540 -0.9588 -1.8985
  374SOL     OW 1120   1.333   2.034   0.068 -0.2221  0.2317  0.0462
  374SOL    HW1 1121   1.258   2.102   0.090 -1.1173  0.4808  1.8572
  374SOL    HW2 1122   1.317   2.005   3.063 -0.6974  2.1430 -0.6478
  375SOL     OW 1123   0.863   0.147   1.613 -0.4272 -0.4325  0.2820
  375SOL    HW1 1124   0.862   0.122   1.514  0.4885  2.1034  0.9627
  375SOL    HW2 1125   0.935   0.216   1.622 -2.4067 -2.7936  0.0353
  376SOL     OW 1126   0.128   2.570   2.001  0.0313 -0.0654  0.2442
  376SOL    HW1 1127   0.123   2.476   2.040 -0.5978 -0.6550 -1.3932
  376SOL    HW2 1128   0.208   2.623   2.036  0.1973 -0.9912  0.5876
  377SOL     OW 1129   2.732   2.251   3.028  0.1493  0.9766 -0.4090
  377SOL    HW1 1130   2.804   2.242   3.092 -1.7048  0.0697 -1.1345
  377SOL    HW2 1131   2.638   2.250   3.074 -0.1595 -3.4538  3.0880
  378SOL     OW 1132   2.333   0.275   0.487  0.7608  0.2632 -0.4074
  378SOL    HW1 1133   2.431   0.248   0.496  1.8423 -0.7260 -1.2928
  378SOL    HW2 1134   2.271   0.211   0.541  0.8193 -1.9924  1.5351
  379SOL     OW 1135   1.225   0.655   0.522  0.1537 -0.0032 -0.6882
  379SOL    HW1 1136   1.322   0.652   0.485  1.4088  0.1060 -0.6099
  379SOL    HW2 1137   1.173   0.730   0.474 -0.5271  0.3247 -0.8109
  380SOL     OW 1138   2.735   2.175   1.812 -0.1379  0.2919 -0.4850
  380SOL    HW1 1139   2.814   2.233   1.789  1.0303 -0.8397  0.8048
  380SOL    HW2 1140   2.716   2.111   1.736  1.6184 -0.1120 -0.3611
  381SOL     OW 1141   2.636   1.264   1.979  0.1666 -0.0435  0.5730
  381SOL    HW1 1142   2.664   1.360   1.965  2.6015  1.8977 -0.2725
  381SOL    HW2 1143   2.690   1.203   2.038 -1.0500 -0.3359 -0.8728
  382SOL     OW 1144   2.888   2.123   2.781  0.2397 -0.0895 -0.4116
  382SOL    HW1 1145   2.834   2.187   2.842  0.2123 -2.3899 -1.2539
  382SOL    HW2 1146   2.873   2.144   2.683 -2.3103 -0.7702  0.4186
  383SOL     OW 1147   1.229   0.893   2.429 -0.0452  0.5958 -0.0375
  383SOL    HW1 1148   1.163   0.885   2.349  1.0269  0.1616  1.4040
  383SOL    HW2 1149   1.248   0.990   2.447  0.8515 -2.0735 -2.4743
  384SOL     OW 1150   1.644   1.898   2.352 -0.7512 -0.3109  0.2174
  384SOL    HW1 1151   1.710   1.867   2.422  0.0131  1.4442  0.2173
  384SOL    HW2 1152   1.668   1.995   2.326  0.3976 -1.8645  0.8785
  385SOL     OW 1153   2.597   2.712   0.286 -0.1688  0.9942  0.1200
  385SOL    HW1 1154   2.586   2.616   0.262  1.7466 -2.1920  2.7038
  385SOL    HW2 1155   2.668   2.720   0.360 -1.9838 -2.8601 -1.0870
  386SOL     OW 1156   1.570   0.986   0.624  0.0725  0.5446 -0.3120
  386SOL    HW1 1157   1.490   0.946   0.679 -0.1258 -0.3691  0.2240
  386SOL    HW2 1158   1.639   0.915   0.622 -0.0550 -0.9545  2.1734
  387SOL     OW 1159   3.006   1.848   1.226 -0.1798  0.4466 -0.2299
  387SOL    HW1 1160   3.084   1.847   1.290 -0.7633 -1.9089  0.5365
  387SOL    HW2 1161   2.960   1.758   1.238  0.8254  2.2692  2.3099
  388SOL     OW 1162   0.618   1.259   1.543 -0.2744 -0.3199  0.0750
  388SOL    HW1 1163   0.625   1.232   1.638 -2.0673  0.4542  0.6979
  388SOL    HW2 1164   0.667   1.185   1.487  0.2907 -2.4624 -1.4706
  389SOL     OW 1165   2.222   0.757   2.556  0.9078  0.1063 -0.4121
  389SOL    HW1 1166   2.256   0.770   2.649  1.2014  0.3033 -0.9609
  389SOL    HW2 1167   2.120   0.771   2.559 -0.5758  1.6155 -1.4591
  390SOL     OW 1168   1.063   1.711   0.075 -0.1935 -0.0516 -0.3411
  390SOL    HW1 1169   0.991   1.782   0.097 -0.9892  0.7841 -1.4511
  390SOL    HW2 1170   1.111   1.738   3.079  1.7947  1.5379 -2.9610
  391SOL     OW 1171   1.426   1.867   0.271 -0.1211  0.1351 -0.2736
  391SOL    HW1 1172   1.524   1.886   0.284 -1.5591 -0.4541  2.1401
  391SOL    HW2 1173   1.381   1.908   0.190  2.2814  0.4748 -0.0507
  392SOL     OW 1174   2.782   2.841   2.172  0.0926 -0.2067  0.4546
  392SOL    HW1 1175   2.705   2.817   2.108 -0.8679 -0.4808 -1.0583
  392SOL    HW2 1176   2.868   2.799   2.143  2.2343 -1.1942  2.6915
  393SOL     OW 1177   1.570   2.159   0.288 -0.3315  0.4812  0.0449
  393SOL    HW1 1178   1.612   2.253   0.282 -1.3264  1.5283 -1.5547
  393SOL    HW2 1179   1.478   2.170   0.330  0.0834 -0.4552 -1.4566
  394SOL     OW 1180   0.797   0.183   2.120  0.3137 -0.5721  0.0268
  394SOL    HW1 1181   0.861   0.269   2.113  1.1414  3.4002  1.1549
  394SOL    HW2 1182   0.717   0.203   2.060  2.0561  1.4928 -0.6519
  395SOL     OW 1183   0.382   2.016   1.546  0.5475 -0.3383 -0.0976
  395SOL    HW1 1184   0.316   1.982   1.615  0.0095 -0.2418 -1.4114
  395SOL    HW2 1185   0.332   2.044   1.457 -0.6578  1.5349 -3.5717
  396SOL     OW 1186   2.133   1.302   2.922  0.1315  0.2613  0.1235
  396SOL    HW1 1187   2.116   1.227   2.859  1.0183  0.0998  1.5276
  396SOL    HW2 1188   2.064   1.379   2.917 -1.9009 -2.1845  1.4386
  397SOL     OW 1189   0.031   0.488   0.123  0.4011 -0.0715  0.0882
  397SOL    HW1 1190   0.121   0.459   0.089 -2.4239 -1.1945 -0.0463
  397SOL    HW2 1191   0.009   0.444   0.212 -0.8171  0.7405  1.3570
  398SOL     OW 1192   0.849   2.468   0.446  0.4762  0.1189 -0.1457
  398SOL    HW1 1193   0.934   2.431   0.402 -0.4287 -1.3450 -1.2479
  398SOL    HW2 1194   0.848   2.569   0.438  1.4620 -2.1749 -0.7435
  399SOL     OW 1195   1.990   2.309   2.664 -0.0464  0.0069  0.0542
  399SOL    HW1 1196   1.946   2.332   2.755  3.3865  1.5397 -0.6408
  399SOL    HW2 1197   2.082   2.354   2.653 -0.7016 -0.8208  2.2058
  400SOL     OW 1198   0.158   1.386   1.602 -0.0790  0.5988  0.1699
  400SOL    HW1 1199   0.107   1.377   1.518 -0.6818  0.2535  4.3619
  400SOL    HW2 1200   0.167   1.486   1.626  0.4762 -0.0808 -0.1803
  401SOL     OW 1201   0.835   0.546   0.903 -0.4163  0.0195  0.4131
  401SOL    HW1 1202   0.834   0.554   0.802 -2.1218 -2.3676  2.6669
  401SOL    HW2 1203   0.744   0.567   0.943  0.1104  2.3083 -3.0806
  402SOL     OW 1204   0.787   0.083   2.652 -0.9222 -0.3759 -0.4374
  402SOL    HW1 1205   0.885   0.106   2.636 -1.1317 -0.0984 -0.5340
  402SOL    HW2 1206   0.764   0.077   2.750  1.7333  1.4062  1.9189
  403SOL     OW 1207   2.630   1.532   1.883  0.2806 -0.3414 -0.0515
  403SOL    HW1 1208   2.636   1.625   1.923  1.0785  0.3347  3.3586
  403SOL    HW2 1209   2.658   1.529   1.789  0.1635  0.3049 -0.8482
  404SOL     OW 1210   2.704   2.136   1.458  0.2573  0.4997  0.4500
  404SOL    HW1 1211   2.697   2.214   1.523  1.3827  1.7907  0.4084
  404SOL    HW2 1212   2.769   2.155   1.381  1.2945  1.0616 -1.3736
  405SOL     OW 1213   2.074   0.224   2.665  0.4093  0.0575  0.0120
  405SOL    HW1 1214   2.032   0.220   2.572  0.4374  0.6547  2.5283
  405SOL    HW2 1215   2.146   0.298   2.676  0.0995 -0.2474  0.3466
  406SOL     OW 1216   1.237   1.768   2.951 -0.2623 -0.4663  0.2697
  406SOL    HW1 1217   1.323   1.737   2.994 -1.1511 -1.4518 -2.3625
  406SOL    HW2 1218   1.216   1.709   2.871 -0.9215  0.1437  1.6698
  407SOL     OW 1219   1.963   1.943   0.805 -0.1720 -0.1594  0.1012
  407SOL    HW1 1220   1.881   1.885   0.769  0.7628  0.4201  1.2235
  407SOL    HW2 1221   1.995   1.998   0.726  0.6516  1.3339 -1.8132
  408SOL     OW 1222   3.045   0.360   1.243 -0.1935  0.1358  0.0737
  408SOL    HW1 1223   0.019   0.429   1.211 -0.6258 -2.5259  1.6094
  408SOL    HW2 1224   3.083   0.265   1.232  2.7777  0.4008 -0.6589
  409SOL     OW 1225   1.885   1.382   0.580  0.1749  0.0728 -0.2808
  409SOL    HW1 1226   1.825   1.458   0.549  1.5512  2.0905 -1.1668
  409SOL    HW2 1227   1.980   1.391   0.548  0.2871  1.2207  0.4513
  410SOL     OW 1228   2.396   2.400   0.520 -0.3272  0.5332 -0.3718
  410SOL    HW1 1229   2.337   2.372   0.603 -1.1927  0.1302 -0.6645
  410SOL    HW2 1230   2.473   2.329   0.508 -0.9882 -3.0735 -1.8740
  411SOL     OW 1231   0.401   0.058   0.374  0.0982 -0.8399  0.2648
  411SOL    HW1 1232   0.402   0.016   0.283 -3.3539 -0.6427  0.4783
  411SOL    HW2 1233   0.390   3.080   0.449 -0.8804  0.7451 -0.9402
  412SOL     OW 1234   1.509   2.715   0.668  0.2742 -0.4066 -0.0134
  412SOL    HW1 1235   1.526   2.818   0.682 -1.2619  0.0217  1.4186
  412SOL    HW2 1236   1.575   2.659   0.707 -3.3302  4.3727 -2.0305
  413SOL     OW 1237   1.691   0.036   2.433 -0.2759 -0.0804  0.7183
  413SOL    HW1 1238   1.624   0.066   2.359 -0.5093  0.3304 -2.1397
  413SOL    HW2 1239   1.720   3.031   2.417  0.7216  1.0291  1.1583
  414SOL     OW 1240   0.019   0.749   0.558  0.1594 -0.0136 -0.1224
  414SOL    HW1 1241   3.068   0.776   0.469 -0.2288  4.1576 -3.9828
  414SOL    HW2 1242   0.116   0.783   0.571  0.4818  0.6238  0.4440
  415SOL     OW 1243   3.014   1.297   0.893  0.8054  0.5563 -0.2719
  415SOL    HW1 1244   3.051   1.262   0.980 -1.9734  2.6547  0.3994
  415SOL    HW2 1245   2.992   1.221   0.830  2.4317  2.7726 -3.1468
  416SOL     OW 1246   0.254   0.870   2.801 -0.0695 -0.4459  0.0068
  416SOL    HW1 1247   0.169   0.837   2.850  1.0108  0.9096 -1.9965
  416SOL    HW2 1248   0.251   0.870   2.699 -0.9023  0.0626 -1.6339
  417SOL     OW 1249   2.493   0.199   0.897 -0.0004  0.1502 -0.3754
  417SOL    HW1 1250   2.588   0.235   0.900 -0.1528  0.5417 -2.7597
  417SOL    HW2 1251   2.434   0.266   0.851 -1.9040 -1.4238 -0.1015
  418SOL     OW 1252   0.729   0.023   2.919  0.5001 -0.0638  0.1182
  418SOL    HW1 1253   0.673   0.055   2.996 -0.0205 -1.9162 -1.1112
  418SOL    HW2 1254   0.706   3.018   2.898 -1.7470 -2.5542 -0.0243
  419SOL     OW 1255   0.199   1.167   0.663 -0.0856  0.0538  0.1124
  419SOL    HW1 1256   0.130   1.177   0.588  1.6597 -0.6179 -0.6399
  419SOL    HW2 1257   0.158   1.109   0.736  1.2588  0.5295  1.1691
  420SOL     OW 1258   2.819   1.632   1.275 -0.5603 -0.2656 -0.0367
  420SOL    HW1 1259   2.871   1.602   1.358  2.0187 -1.3863  0.0604
  420SOL    HW2 1260   2.750   1.703   1.295 -2.6597 -1.4554 -2.4213
  421SOL     OW 1261   1.241   2.010   2.885 -0.4068 -0.0352 -0.3025
  421SOL    HW1 1262   1.254   2.012   2.784 -0.5081 -0.1106  1.5253
  421SOL    HW2 1263   1.231   1.915   2.919 -0.0102  1.0972 -0.9918
  422SOL     OW 1264   2.501   0.710   2.772 -0.4015 -0.2818 -0.2449
  422SOL    HW1 1265   2.426   0.780   2.797 -0.4934 -0.5591 -0.3274
  422SOL    HW2 1266   2.476   0.665   2.685  0.3140 -0.4556  2.1689
  423SOL     OW 1267   1.822   1.444   0.128 -0.2445  0.0004  0.1141
  423SOL    HW1 1268   1.872   1.371   0.179 -0.0284 -0.5298 -1.6413
  423SOL    HW2 1269   1.744   1.401   0.077 -1.0834 -1.0103 -0.9419
  424SOL     OW 1270   0.730   0.889   1.769  0.2560  0.1725  0.1776
  424SOL    HW1 1271   0.682   0.871   1.857 -0.4268  1.0982  0.4171
  424SOL    HW2 1272   0.775   0.981   1.763  0.8910 -0.2632 -1.6722
  425SOL     OW 1273   3.033   2.755   2.095 -0.5090 -0.4107 -0.0794
  425SOL    HW1 1274   0.010   2.693   2.053 -0.2604  1.6620 -0.1955
  425SOL    HW2 1275   3.075   2.793   2.181  2.2899  1.3165  1.1876
  426SOL     OW 1276   1.993   2.596   0.292  0.0546 -0.0427  0.1842
  426SOL    HW1 1277   2.097   2.582   0.302  0.2442 -1.5255  1.0188
  426SOL    HW2 1278   1.939   2.588   0.379 -2.3956 -0.5005  1.7181
  427SOL     OW 1279   0.679   0.762   2.853 -0.3102 -0.3365  0.0407
  427SOL    HW1 1280   0.761   0.691   2.855 -1.3895 -2.9517 -1.7425
  427SOL    HW2 1281   0.664   0.811   2.940 -0.5870 -0.5701 -2.3103
  428SOL     OW 1282   2.551   1.278   2.828  0.4003 -0.1077 -0.0892
  428SOL    HW1 1283   2.597   1.241   2.910 -2.7910 -0.8804 -1.7491
  428SOL    HW2 1284   2.479   1.340   2.867 -1.4040  0.2114  1.2284
  429SOL     OW 1285   2.548   0.279   0.223 -0.0765 -0.2171 -0.5121
  429SOL    HW1 1286   2.472   0.336   0.265 -0.0886  1.0191 -0.4210
  429SOL    HW2 1287   2.590   0.316   0.135  2.4824  0.9981 -1.7733
  430SOL     OW 1288   1.236   2.731   2.427 -0.2279 -0.3518 -0.2845
  430SOL    HW1 1289   1.335   2.740   2.436 -0.3256 -0.0318  0.7083
  430SOL    HW2 1290   1.206   2.719   2.332  2.3789  0.3008  1.3406
  431SOL     OW 1291   0.111   1.846   1.421  0.3304  0.0546  0.1145
  431SOL    HW1 1292   0.086   1.887   1.512 -1.2354 -0.3094  2.2808
  431SOL    HW2 1293   0.159   1.757   1.437 -2.9554  0.0395  1.0517
  432SOL     OW 1294   2.321   2.701   1.944 -0.7802  0.2228 -0.2174
  432SOL    HW1 1295   2.288   2.770   1.883 -1.3245  0.0164  0.0799
  432SOL    HW2 1296   2.287   2.610   1.924 -0.1765 -0.1441  2.7236
  433SOL     OW 1297   1.351   2.112   0.455 -0.0512  0.0700 -0.1287
  433SOL    HW1 1298   1.259   2.138   0.490 -2.2746  1.1355  0.2460
  433SOL    HW2 1299   1.359   2.017   0.420  0.8236 -1.4974  2.7874
  434SOL     OW 1300   0.218   1.960   2.782  0.8735  0.0258 -0.1571
  434SOL    HW1 1301   0.221   1.857   2.766 -0.2692  2.5219  0.5718
  434SOL    HW2 1302   0.153   1.986   2.854  2.3393  0.5520 -0.2484
  435SOL     OW 1303   3.021   1.193   0.530  0.1565 -0.0922  0.5742
  435SOL    HW1 1304   2.967   1.277   0.546 -1.5151 -1.7632 -0.1540
  435SOL    HW2 1305   2.982   1.107   0.568 -0.6447 -0.4225 -1.6396
  436SOL     OW 1306   0.725   2.774   1.659 -0.0316 -0.3409  0.1460
  436SOL    HW1 1307   0.689   2.802   1.565  0.0593 -2.4217 -0.4489
  436SOL    HW2 1308   0.742   2.848   1.722  0.2604  1.0658  2.0536
  437SOL     OW 1309   0.870   2.872   0.751  0.1973  0.0835  0.4549
  437SOL    HW1 1310   0.854   2.896   0.849 -0.2953 -1.1917  0.0948
  437SOL    HW2 1311   0.965   2.833   0.737  0.3969  1.3785  0.8449
  438SOL     OW 1312   0.048   2.134   0.710  0.3977  0.0996 -0.1999
  438SOL    HW1 1313   0.020   2.043   0.671 -2.7455  0.5806  1.2436
  438SOL    HW2 1314   0.024   2.151   0.809 -2.7449 -0.1227 -0.2451
  439SOL     OW 1315   0.895   2.356   1.847 -0.1197 -0.0902  0.1975
  439SOL    HW1 1316   0.903   2.444   1.802 -3.6834 -3.3659 -1.5596
  439SOL    HW2 1317   0.861   2.360   1.941  1.1180 -0.6083 -0.4480
  440SOL     OW 1318   2.186   2.986   2.165  0.3475 -0.0824  0.0264
  440SOL    HW1 1319   2.120   3.065   2.160  1.0581  3.6835 -3.3197
  440SOL    HW2 1320   2.145   2.896   2.163  0.9894 -0.5451 -1.7842
  441SOL     OW 1321   0.022   0.602   1.571  0.2929  0.4232  0.2890
  441SOL    HW1 1322   0.115   0.569   1.576 -2.7414 -0.7637 -0.0492
  441SOL    HW2 1323   3.093   0.683   1.633 -1.9992 -2.6544 -0.8734
  442SOL     OW 1324   1.919   2.258   0.701  0.6411  0.0360  0.4358
  442SOL    HW1 1325   1.847   2.294   0.633 -3.7033 -0.3784  0.1555
  442SOL    HW2 1326   1.969   2.325   0.757 -0.1678  2.6565 -1.3313
  443SOL     OW 1327   2.846   0.708   2.386 -0.0440 -0.2243 -0.3432
  443SOL    HW1 1328   2.803   0.655   2.462 -0.6321 -0.6302 -1.1478
  443SOL    HW2 1329   2.933   0.751   2.416  0.7146  1.8579 -1.3155
  444SOL     OW 1330   1.687   1.053   2.101 -0.2072 -0.5900 -0.0528
  444SOL    HW1 1331   1.674   0.965   2.049 -0.0627 -0.9307  1.9197
  444SOL    HW2 1332   1.647   1.137   2.060 -1.4275 -0.3523 -0.8781
  445SOL     OW 1333   3.013   2.506   1.387  0.6492 -0.1562  0.0913
  445SOL    HW1 1334   3.066   2.493   1.473  0.6475 -1.7253  1.7201
  445SOL    HW2 1335   3.001   2.607   1.365 -1.0154  0.2761  2.6700
  446SOL     OW 1336   2.765   1.438   0.971  0.6616  0.3733 -0.2818
  446SOL    HW1 1337   2.726   1.404   1.059 -0.7091  1.9585  0.5925
  446SOL    HW2 1338   2.866   1.445   0.972  1.5141 -0.0987 -0.4003
  447SOL     OW 1339   0.456   1.124   0.696 -0.3210 -0.4797 -0.2521
  447SOL    HW1 1340   0.357   1.137   0.685  0.0238  0.6262 -3.6759
  447SOL    HW2 1341   0.498   1.112   0.603  1.6324  2.1150 -2.1716
  448SOL     OW 1342   1.506   1.620   1.970  0.0371 -0.2546  0.2753
  448SOL    HW1 1343   1.446   1.688   1.921  1.5651 -0.3893  2.0200
  448SOL    HW2 1344   1.453   1.543   2.006 -0.3612  1.4160  0.5087
  449SOL     OW 1345   1.510   1.423   0.429  0.1865 -0.1450  0.1534
  449SOL    HW1 1346   1.562   1.359   0.486  0.6040 -1.7786 -1.8914
  449SOL    HW2 1347   1.425   1.375   0.391 -0.0264 -1.9539 -1.2974
  450SOL     OW 1348   2.699   2.810   1.899  0.1832  0.3111 -0.1710
  450SOL    HW1 1349   2.671   2.713   1.894 -1.3498 -2.0246 -1.8223
  450SOL    HW2 1350   2.707   2.845   1.805 -0.1027  1.1014  0.9927
  451SOL     OW 1351   2.239   0.459   2.632  0.0514 -0.1428 -0.0470
  451SOL    HW1 1352   2.167   0.496   2.566 -1.1214  0.6284  2.6092
  451SOL    HW2 1353   2.328   0.423   2.596  0.2560  0.0654  0.2176
  452SOL     OW 1354   1.778   0.286   0.831 -0.2066  0.8381 -0.5834
  452SOL    HW1 1355   1.713   0.336   0.768 -0.2703 -2.6297  0.6285
  452SOL    HW2 1356   1.826   0.349   0.892 -2.1666 -0.0313  2.5905
  453SOL     OW 1357   1.837   0.785   1.598  0.3026  0.0338 -0.0515
  453SOL    HW1 1358   1.798   0.707   1.653 -0.4338 -0.4801  3.7139
  453SOL    HW2 1359   1.930   0.761   1.556  0.3558 -0.5496 -0.0558
  454SOL     OW 1360   2.808   1.727   0.323 -0.2408 -0.2699 -0.1378
  454SOL    HW1 1361   2.902   1.685   0.320 -0.6470 -1.4101  1.4496
  454SOL    HW2 1362   2.785   1.741   0.418 -2.0746 -0.6857 -1.4394
  455SOL     OW 1363   2.927   0.028   0.583  0.1387 -0.7241 -0.4498
  455SOL    HW1 1364   3.011   0.085   0.583  1.6912  0.7490  1.3874
  455SOL    HW2 1365   2.900   0.017   0.486  0.2336  0.2767 -1.4787
  456SOL     OW 1366   0.196   3.017   1.285  0.3472 -0.4243 -0.0814
  456SOL    HW1 1367   0.239   2.998   1.377 -1.1234 -0.1759  2.4780
  456SOL    HW2 1368   0.201   2.951   1.213 -2.6704  0.2126 -1.8655
  457SOL     OW 1369   1.389   0.089   0.555  0.6244  0.3052 -0.3080
  457SOL    HW1 1370   1.456   0.169   0.545 -0.1109  3.3533  3.3089
  457SOL    HW2 1371   1.399   0.030   0.471  1.0937  0.5917  1.1069
  458SOL     OW 1372   2.250   2.957   0.847  0.1035 -0.6154  0.3571
  458SOL    HW1 1373   2.239   2.962   0.944 -1.8972 -1.7733 -0.0687
  458SOL    HW2 1374   2.340   2.913   0.827 -0.9648 -0.5121 -2.4458
  459SOL     OW 1375   2.128   0.603   2.832  0.1413 -0.0071  0.4249
  459SOL    HW1 1376   2.194   0.551   2.772  1.1459 -0.2529 -3.7287
  459SOL    HW2 1377   2.182   0.634   2.914  1.4510  2.2198  2.5819
  460SOL     OW 1378   2.753   2.783   3.070 -0.0728 -0.0458 -0.4455
  460SOL    HW1 1379   2.667   2.780   3.017  3.1624  1.8506  2.1774
  460SOL    HW2 1380   2.831   2.762   3.012 -1.1679  0.7774  3.0819
  461SOL     OW 1381   0.940   1.831   0.404 -0.4934  0.7253 -0.0619
  461SOL    HW1 1382   0.996   1.878   0.477  2.1131 -0.5903  2.0762
  461SOL    HW2 1383   0.845   1.830   0.429  0.2027 -4.5179  2.4182
  462SOL     OW 1384   2.246   2.339   0.759  0.2862 -0.4619 -0.0218
  462SOL    HW1 1385   2.297   2.266   0.804 -2.3219  1.3422 -0.3750
  462SOL    HW2 1386   2.230   2.424   0.813  2.3876 -0.0621  0.2152
  463SOL     OW 1387   2.274   0.911   0.656  0.6076 -0.4265 -0.4982
  463SOL    HW1 1388   2.283   0.897   0.757  2.2048  0.1245 -1.9269
  463SOL    HW2 1389   2.340   0.850   0.603 -1.1579  0.6256  1.5566
  464SOL     OW 1390   0.399   0.103   1.268  0.0228 -0.3734 -0.0286
  464SOL    HW1 1391   0.318   0.044   1.297  0.4646  0.6098 -2.3399
  464SOL    HW2 1392   0.469   0.110   1.339 -1.1569  0.6160 -1.5910
  465SOL     OW 1393   2.517   1.437   0.151  0.0104 -0.1823 -0.6141
  465SOL    HW1 1394   2.458   1.360   0.155  2.0415  0.5679  1.1752
  465SOL    HW2 1395   2.614   1.406   0.133  0.4024 -2.5568 -0.5438
  466SOL     OW 1396   1.710   0.279   2.801  0.5748  0.2458  0.1877
  466SOL    HW1 1397   1.798   0.264   2.848 -1.8401  0.9398 -0.5518
  466SOL    HW2 1398   1.647   0.341   2.848 -0.7576 -0.1449 -1.8339
  467SOL     OW 1399   1.000   0.477   1.461 -0.0920 -0.0403 -0.0892
  467SOL    HW1 1400   1.031   0.413   1.535  0.4572  0.2152  1.2771
  467SOL    HW2 1401   1.064   0.488   1.386  0.1106  1.3255 -0.7947
  468SOL     OW 1402   0.454   1.030   2.818 -1.0721  0.3330 -0.0943
  468SOL    HW1 1403   0.381   0.960   2.819  2.1217 -2.0248 -1.1889
  468SOL    HW2 1404   0.431   1.123   2.779  0.3689  0.3503  0.1346
  469SOL     OW 1405   0.264   2.125   0.151  1.0163 -0.2404  0.3403
  469SOL    HW1 1406   0.273   2.199   0.222  0.9303  0.7459  0.7553
  469SOL    HW2 1407   0.203   2.150   0.074  0.9616  1.5061 -1.2217
  470SOL     OW 1408   2.356   1.651   2.442  0.0097  0.2511 -0.1949
  470SOL    HW1 1409   2.374   1.643   2.542  0.4464  0.9962 -0.9058
  470SOL    HW2 1410   2.442   1.621   2.388  1.4951  0.0762 -2.3433
  471SOL     OW 1411   2.782   1.150   2.196  0.3601  0.2748 -0.0057
  471SOL    HW1 1412   2.709   1.113   2.253  1.3111  1.3604 -1.8219
  471SOL    HW2 1413   2.805   1.245   2.222  0.4774 -1.6812 -0.8771
  472SOL     OW 1414   0.511   2.725   0.508 -0.6424 -0.9334  0.1877
  472SOL    HW1 1415   0.452   2.682   0.434  1.1087  0.3093 -1.0503
  472SOL    HW2 1416   0.468   2.815   0.535 -0.2001  1.9255 -0.1435
  473SOL     OW 1417   0.596   0.148   0.059 -0.0276  0.2135  0.3228
  473SOL    HW1 1418   0.673   0.199   0.088 -3.4970  0.5753 -1.7700
  473SOL    HW2 1419   0.609   0.044   0.082  0.8179 -5.3465  0.3177
  474SOL     OW 1420   1.789   2.897   2.354  0.1167  0.2866  0.0871
  474SOL    HW1 1421   1.721   2.822   2.344 -1.7861  2.7879 -0.7068
  474SOL    HW2 1422   1.807   2.937   2.264 -3.0832 -0.5416  1.6565
  475SOL     OW 1423   1.749   2.330   0.504 -0.3779  0.5409 -0.4150
  475SOL    HW1 1424   1.662   2.291   0.543  0.0415  1.0057 -1.3567
  475SOL    HW2 1425   1.735   2.361   0.408  0.1164  1.1291 -0.3464
  476SOL     OW 1426   0.117   1.014   0.867  0.2732 -0.8541  0.2026
  476SOL    HW1 1427   0.026   1.001   0.907  1.1699 -1.5580 -1.6222
  476SOL    HW2 1428   0.188   0.958   0.914 -1.2265  0.1840 -0.5710
  477SOL     OW 1429   1.609   2.284   1.056  0.0374  0.2884  0.3520
  477SOL    HW1 1430   1.531   2.237   1.095  1.0120  2.3800 -0.5344
  477SOL    HW2 1431   1.672   2.214   1.018 -0.6736  1.5984 -1.6219
  478SOL     OW 1432   0.530   1.999   2.375  0.8470  0.3158 -0.4692
  478SOL    HW1 1433   0.579   2.079   2.405 -0.0952  2.1704 -0.3587
  478SOL    HW2 1434   0.432   2.026   2.358 -0.6444  2.3266 -4.2597
  479SOL     OW 1435   2.330   0.528   1.058  0.1181  0.0215  0.3069
  479SOL    HW1 1436   2.314   0.518   0.957  1.2389 -2.7223  1.7860
  479SOL    HW2 1437   2.417   0.484   1.082 -3.2571  0.5872 -0.8408
  480SOL     OW 1438   0.055   2.583   0.262 -0.2331 -0.5475  0.0114
  480SOL    HW1 1439   0.019   2.657   0.319  0.0768 -0.5012 -0.4941
  480SOL    HW2 1440   0.066   2.618   0.163  0.6287  0.6868 -0.1682
  481SOL     OW 1441   2.640   2.617   1.172  0.0006  0.0012 -0.2734
  481SOL    HW1 1442   2.603   2.549   1.241 -1.0079  4.3041 -1.2790
  481SOL    HW2 1443   2.637   2.713   1.206 -0.5213  1.8893  0.0142
  482SOL     OW 1444   1.300   2.301   2.902  0.2794 -0.0966  0.3424
  482SOL    HW1 1445   1.309   2.203   2.881 -0.2385  0.5365 -0.8835
  482SOL    HW2 1446   1.286   2.359   2.819 -2.6435 -0.3941 -1.9469
  483SOL     OW 1447   0.505   2.072   2.812  0.0300  0.1826  0.3049
  483SOL    HW1 1448   0.550   2.106   2.902  1.4956  2.3156  0.0205
  483SOL    HW2 1449   0.403   2.053   2.814 -0.7671 -2.5514 -0.3845
  484SOL     OW 1450   0.980   1.090   1.368 -0.0880 -0.1254 -0.2698
  484SOL    HW1 1451   0.994   1.035   1.451  2.0653  0.1208 -1.0379
  484SOL    HW2 1452   1.040   1.064   1.291  2.0438  2.8218 -1.9730
  485SOL     OW 1453   2.312   0.456   0.216  0.3282 -0.4310  0.5681
  485SOL    HW1 1454   2.254   0.425   0.295 -0.1107  0.0269 -0.1847
  485SOL    HW2 1455   2.287   0.551   0.184  2.1895  1.9218  0.7806
  486SOL     OW 1456   1.716   3.081   1.140 -0.0857 -0.3990  0.5584
  486SOL    HW1 1457   1.679   0.039   1.218 -0.4455  0.5687  0.4768
  486SOL    HW2 1458   1.795   0.040   1.099 -2.5558 -1.6975 -2.3301
  487SOL     OW 1459   0.383   2.286   1.112 -0.7207  0.0587  0.3043
  487SOL    HW1 1460   0.380   2.366   1.045  1.2011  0.0546  0.5318
  487SOL    HW2 1461   0.442   2.309   1.194  0.2019  2.0354  1.7512
  488SOL     OW 1462   2.342   1.190   0.615 -0.5072  0.4620 -0.2922
  488SOL    HW1 1463   2.406   1.187   0.533  1.8207 -0.6558 -1.8736
  488SOL    HW2 1464   2.285   1.106   0.619  1.3359 -0.2340 -0.5960
  489SOL     OW 1465   1.608   0.106   0.923  0.3677 -1.1111  0.0090
  489SOL    HW1 1466   1.676   0.169   0.881 -0.1175  1.3292  2.8867
  489SOL    HW2 1467   1.642   0.064   1.006 -2.7748  1.7487  1.7417
  490SOL     OW 1468   1.002   0.510   0.594  0.3781  0.1458  0.4108
  490SOL    HW1 1469   0.916   0.561   0.571 -0.8335 -0.5762 -3.1364
  490SOL    HW2 1470   1.087   0.567   0.592  2.3857 -1.5462 -3.0769
  491SOL     OW 1471   0.441   2.492   0.646 -0.7553 -0.1332 -0.5465
  491SOL    HW1 1472   0.493   2.426   0.585 -0.3221 -0.9642 -0.2834
  491SOL    HW2 1473   0.464   2.587   0.613  0.3272  4.1477 -0.0829
  492SOL     OW 1474   0.979   1.319   2.439  0.5077 -0.0743 -0.0474
  492SOL    HW1 1475   1.044   1.306   2.518  2.6297 -0.1863  1.2268
  492SOL    HW2 1476   0.940   1.412   2.441  0.2375 -2.7024 -2.4314
  493SOL     OW 1477   0.104   2.566   0.997 -0.2184 -0.0534 -0.4719
  493SOL    HW1 1478   0.037   2.501   1.041  0.1255 -0.5127 -3.2777
  493SOL    HW2 1479   0.117   2.647   1.058 -2.4670  0.3922  0.3112
  494SOL     OW 1480   2.468   2.172   0.034  0.2886 -0.1545 -0.0995
  494SOL    HW1 1481   2.403   2.240   0.003  1.8541  0.8291  0.1150
  494SOL    HW2 1482   2.470   2.175   0.135 -1.7181  3.4218 -2.5271
  495SOL     OW 1483   2.528   1.844   2.715  0.2191 -0.8817 -0.0278
  495SOL    HW1 1484   2.462   1.876   2.785  0.1795  1.7804  0.6996
  495SOL    HW2 1485   2.518   1.744   2.703  0.1378 -0.4707 -1.0948
  496SOL     OW 1486   2.677   0.296   1.400  0.2816 -0.2780  0.0545
  496SOL    HW1 1487   2.771   0.336   1.415  3.9349  0.4848 -0.4102
  496SOL    HW2 1488   2.681   0.195   1.383  1.0932 -4.2104  0.2152
  497SOL     OW 1489   2.453   0.905   0.270  0.0923  0.3031  0.6113
  497SOL    HW1 1490   2.451   0.935   0.171  0.4392  1.3792  2.4551
  497SOL    HW2 1491   2.519   0.831   0.296  0.5794  0.7776 -0.9895
  498SOL     OW 1492   0.290   2.149   2.337  0.0413 -0.1301 -0.0935
  498SOL    HW1 1493   0.316   2.245   2.313  0.4096 -0.4478 -0.6620
  498SOL    HW2 1494   0.216   2.149   2.412  2.6351 -0.4557 -0.7743
  499SOL     OW 1495   1.002   2.299   0.290  0.4477  0.0740  0.0214
  499SOL    HW1 1496   0.938   2.234   0.342 -0.3808  1.1681  0.6001
  499SOL    HW2 1497   1.053   2.253   0.217 -2.2920  0.8073  0.1407
  500SOL     OW 1498   1.346   2.818   0.078 -0.4744  0.3684 -0.4397
  500SOL    HW1 1499   1.388   2.907   0.113  2.4737 -0.8049  0.8621
  500SOL    HW2 1500   1.295   2.772   0.153 -0.6782 -0.9429  0.2615
  501SOL     OW 1501   1.818   0.050   1.811  0.0351  0.6143  0.0338
  501SOL    HW1 1502   1.784   0.014   1.723  1.2675 -1.2219  1.2923
  501SOL    HW2 1503   1.782   0.144   1.815  3.8223  1.4085 -0.5019
  502SOL     OW 1504   2.802   0.756   2.128  0.1423 -0.2722  0.0758
  502SOL    HW1 1505   2.816   0.730   2.229 -1.4795 -0.4433  1.9965
  502SOL    HW2 1506   2.766   0.676   2.072 -0.8747 -0.7167  0.9195
  503SOL     OW 1507   2.328   2.101   2.413  0.2875  0.1341  0.3639
  503SOL    HW1 1508   2.342   2.199   2.423 -0.1894 -0.5425 -1.1680
  503SOL    HW2 1509   2.231   2.074   2.422  3.0225 -0.7601 -1.2334
  504SOL     OW 1510   1.539   0.461   1.539  0.0389  0.1794  0.1981
  504SOL    HW1 1511   1.634   0.479   1.572  1.7681 -0.4815 -2.0288
  504SOL    HW2 1512   1.515   0.370   1.583 -1.0067 -2.8402 -0.0877
  505SOL     OW 1513   0.999   0.932   1.597  0.6152  0.0406  0.4927
  505SOL    HW1 1514   0.947   0.856   1.550 -0.4689 -2.6939 -0.6000
  505SOL    HW2 1515   1.022   0.896   1.693 -1.3759 -2.1201  3.7817
  506SOL     OW 1516   0.433   0.940   2.429 -0.4859  0.1715 -0.2170
  506SOL    HW1 1517   0.343   0.931   2.478 -3.7138  0.7487  1.4396
  506SOL    HW2 1518   0.518   0.904   2.480  0.0165 -0.7479  1.7732
  507SOL     OW 1519   0.307   2.834   3.038  0.5408 -0.2735 -0.1076
  507SOL    HW1 1520   0.330   2.828   2.938  0.0793  2.0888 -0.8219
  507SOL    HW2 1521   0.259   2.921   3.057  3.1056 -0.8605  1.6872
  508SOL     OW 1522   1.369   0.673   1.510  0.3229 -0.2714  0.2238
  508SOL    HW1 1523   1.446   0.602   1.518 -1.5162 -0.4481 -1.9072
  508SOL    HW2 1524   1.388   0.735   1.432  0.3736  2.2881 -1.5533
  509SOL     OW 1525   1.000   1.954   1.583  0.1068  0.1382  0.5425
  509SOL    HW1 1526   1.068   2.029   1.565  0.4434  0.2341 -0.8536
  509SOL    HW2 1527   1.004   1.888   1.505  0.9064  1.1871 -0.3053
  510SOL     OW 1528   2.324   1.132   2.407 -0.1149 -0.0055 -0.0342
  510SOL    HW1 1529   2.413   1.187   2.415  1.4795 -0.1081  1.6188
  510SOL    HW2 1530   2.329   1.071   2.327  0.2578  3.7224  3.0093
  511SOL     OW 1531   0.631   1.988   1.125  0.1280 -0.3657 -0.3476
  511SOL    HW1 1532   0.682   2.019   1.043  2.3524 -0.8117 -0.2418
  511SOL    HW2 1533   0.683   2.018   1.210  1.5131 -0.4930 -1.7375
  512SOL     OW 1534   2.492   2.174   0.286 -0.1027  0.1658 -0.3585
  512SOL    HW1 1535   2.392   2.151   0.300 -3.0650 -1.3331  0.1998
  512SOL    HW2 1536   2.546   2.148   0.367 -0.3400 -1.0439 -0.7574
  513SOL     OW 1537   3.041   1.813   2.510 -1.1102  0.0605  0.3633
  513SOL    HW1 1538   0.042   1.770   2.501  0.1011 -0.6690 -0.7804
  513SOL    HW2 1539   2.999   1.779   2.597  0.7409  2.1083 -0.6583
  514SOL     OW 1540   0.295   2.477   2.523 -0.2516 -0.0374 -0.1446
  514SOL    HW1 1541   0.230   2.401   2.554 -0.2545  0.4490  1.4102
  514SOL    HW2 1542   0.311   2.467   2.422 -0.8561 -0.3659  1.6393
  515SOL     OW 1543   2.166   1.248   1.422 -0.5128  0.3161  0.0398
  515SOL    HW1 1544   2.170   1.317   1.349  1.8367  0.1891  0.1579
  515SOL    HW2 1545   2.246   1.261   1.484  0.9124  1.0249  1.3479
  516SOL     OW 1546   2.629   2.463   2.841 -0.1644 -0.1673  0.4447
  516SOL    HW1 1547   2.681   2.476   2.753 -1.2029 -0.1163  0.3218
  516SOL    HW2 1548   2.645   2.365   2.879  0.1240 -1.6191 -3.1482
  517SOL     OW 1549   1.277   0.798   2.926  0.1666 -0.2177 -0.1161
  517SOL    HW1 1550   1.187   0.796   2.876 -0.2019 -2.2952  1.0936
  517SOL    HW2 1551   1.276   0.740   3.009  0.6187  0.8180  0.5600
  518SOL     OW 1552   0.040   2.867   2.317 -0.2139 -0.3829 -0.0935
  518SOL    HW1 1553   0.020   2.955   2.363 -2.5713 -0.4169  0.7023
  518SOL    HW2 1554   0.080   2.794   2.379  2.7933 -0.0048  1.0746
  519SOL     OW 1555   1.653   1.682   2.211 -0.2093 -0.0819 -0.4413
  519SOL    HW1 1556   1.606   1.698   2.121 -0.7610  0.4349  4.2444
  519SOL    HW2 1557   1.640   1.765   2.272 -1.6196 -0.0214 -1.1491
  520SOL     OW 1558   0.014   2.757   2.692  0.1099 -0.1069 -0.3971
  520SOL    HW1 1559   3.079   2.852   2.673 -0.4637  0.8408 -2.2221
  520SOL    HW2 1560   0.086   2.725   2.624 -1.2422 -1.9948  0.3318
  521SOL     OW 1561   0.491   1.660   1.950  0.3608 -0.1785 -0.0369
  521SOL    HW1 1562   0.446   1.696   2.033  1.6769 -0.6802 -1.3214
  521SOL    HW2 1563   0.573   1.600   1.964  0.5523  1.0956 -0.0407
  522SOL     OW 1564   1.126   2.967   1.770 -0.2453 -0.1213  0.3858
  522SOL    HW1 1565   1.059   2.964   1.693  1.5538 -2.4088  0.4767
  522SOL    HW2 1566   1.087   2.993   1.862 -0.5503 -0.1660 -1.0104
  523SOL     OW 1567   0.147   2.767   1.157  0.8142 -0.5467 -0.2711
  523SOL    HW1 1568   0.051   2.756   1.197 -0.0525 -1.9048  2.2713
  523SOL    HW2 1569   0.210   2.733   1.234  1.8900 -1.9667  2.5741
  524SOL     OW 1570   1.556   2.693   0.954  0.0194 -0.1428  0.0262
  524SOL    HW1 1571   1.554   2.596   0.916 -0.4707 -0.9042 -0.2394
  524SOL    HW2 1572   1.492   2.748   0.899 -1.2657 -2.3972  2.0102
  525SOL     OW 1573   2.290   0.968   0.959 -0.2601 -0.3386  0.1301
  525SOL    HW1 1574   2.238   1.053   0.965 -1.5230 -1.0497 -2.3905
  525SOL    HW2 1575   2.317   0.933   1.051 -1.0519  0.1793 -0.9568
  526SOL     OW 1576   1.118   2.195   0.628  0.3253 -0.5456 -0.0563
  526SOL    HW1 1577   1.017   2.218   0.637  2.0136  0.4946  0.6413
  526SOL    HW2 1578   1.125   2.092   0.631  0.5073 -0.5529 -0.8149
  527SOL     OW 1579   2.392   2.102   0.794 -0.0343  0.8136  0.4750
  527SOL    HW1 1580   2.414   2.043   0.712  2.3407 -0.4554  0.2437
  527SOL    HW2 1581   2.354   2.053   0.878  1.0400  0.9414 -3.1686
  528SOL     OW 1582   2.154   0.347   3.079  0.2419 -0.0871 -0.0137
  528SOL    HW1 1583   2.212   0.427   0.010  1.8813  0.5756 -2.9650
  528SOL    HW2 1584   2.089   0.331   0.063  3.5986  0.9421 -1.7038
  529SOL     OW 1585   1.231   1.107   1.727  0.3557 -0.4193  0.1916
  529SOL    HW1 1586   1.155   1.052   1.695  1.7897 -0.0673 -0.7026
  529SOL    HW2 1587   1.187   1.186   1.778  0.6284  2.2692  0.0481
  530SOL     OW 1588   2.409   1.083   2.677  0.7817 -0.3344 -0.3345
  530SOL    HW1 1589   2.444   1.168   2.719 -2.5106 -0.2466 -0.7882
  530SOL    HW2 1590   2.390   1.091   2.578  2.1901 -0.7497  0.8337
  531SOL     OW 1591   1.080   0.958   0.052  0.3232  0.0641 -0.1596
  531SOL    HW1 1592   1.162   0.997   0.007 -3.6929 -0.0463  2.3640
  531SOL    HW2 1593   1.036   1.023   0.120 -0.3200  0.8982  2.3198
  532SOL     OW 1594   2.106   0.407   0.453  0.1694  0.2726  0.2983
  532SOL    HW1 1595   2.196   0.359   0.475  1.7213  0.0981  1.3234
  532SOL    HW2 1596   2.029   0.360   0.498 -1.2324 -0.9664 -2.0322
  533SOL     OW 1597   0.639   0.843   2.001  0.1868 -0.5272 -0.0452
  533SOL    HW1 1598   0.543   0.810   1.991 -0.3360 -0.7598 -0.5742
  533SOL    HW2 1599   0.682   0.807   2.086 -0.1995  2.2929 -2.0240
  534SOL     OW 1600   1.651   0.000   2.723  0.9124 -0.5645  0.3056
  534SOL    HW1 1601   1.647   0.014   2.623 -0.3318 -0.5106  2.1626
  534SOL    HW2 1602   1.691   0.088   2.767  3.9464 -1.5064  1.3025
  535SOL     OW 1603   0.668   0.010   0.390 -0.5287  0.6312  0.0784
  535SOL    HW1 1604   0.583   0.055   0.415  1.6028  0.4507 -1.1622
  535SOL    HW2 1605   0.708   3.049   0.466  0.4360 -0.7735 -2.3591
  536SOL     OW 1606   1.194   2.803   1.409 -0.5153  0.1584 -0.0947
  536SOL    HW1 1607   1.194   2.860   1.325 -2.1735 -0.8039 -0.3590
  536SOL    HW2 1608   1.254   2.720   1.404 -0.7641 -1.7424 -2.4111
  537SOL     OW 1609   2.028   2.555   2.257 -0.0679 -0.4395  0.0254
  537SOL    HW1 1610   1.990   2.613   2.184 -0.1825 -1.6047  0.1300
  537SOL    HW2 1611   2.055   2.466   2.219  0.3186 -0.2811  0.9354
  538SOL     OW 1612   0.388   2.488   2.795 -0.5686 -0.0272 -0.0480
  538SOL    HW1 1613   0.488   2.516   2.788 -0.0496 -0.0522  2.9406
  538SOL    HW2 1614   0.348   2.462   2.704 -0.6054  1.1459 -0.5640
  539SOL     OW 1615   2.974   1.802   1.668  0.1634 -0.3463  0.0844
  539SOL    HW1 1616   2.996   1.906   1.657 -1.0903 -0.1747 -0.7391
  539SOL    HW2 1617   2.996   1.772   1.761 -1.0281  0.1344  1.1378
  540SOL     OW 1618   2.602   2.562   1.921  0.0754 -0.0663  0.3947
  540SOL    HW1 1619   2.571   2.567   2.019 -1.8703 -0.9961  0.5145
  540SOL    HW2 1620   2.557   2.482   1.880  0.1183  1.6984 -0.2067
  541SOL     OW 1621   0.177   2.945   1.687  0.2927  0.6356 -0.0934
  541SOL    HW1 1622   0.136   3.034   1.699  1.0367 -1.5024  0.3664
  541SOL    HW2 1623   0.266   2.959   1.641  1.4458 -1.0241  1.2525
  542SOL     OW 1624   3.010   0.800   1.973 -1.1577 -0.4243  0.0657
  542SOL    HW1 1625   2.929   0.801   2.033  3.0639 -0.6228 -1.8193
  542SOL    HW2 1626   3.052   0.707   1.972 -1.8702 -2.1629  0.0187
  543SOL     OW 1627   0.651   0.652   1.116 -0.3463  0.2404  0.0088
  543SOL    HW1 1628   0.732   0.708   1.150  2.6257  1.9805  0.0432
  543SOL    HW2 1629   0.600   0.595   1.181  4.3147 -0.2833 -4.1614
  544SOL     OW 1630   2.218   1.886   1.305 -0.8130  0.2333 -0.4445
  544SOL    HW1 1631   2.290   1.867   1.236 -0.6090  0.7053  0.2210
  544SOL    HW2 1632   2.134   1.933   1.263  1.4712  0.8108 -1.5021
  545SOL     OW 1633   1.015   1.590   0.621  0.1687  0.4939 -0.3595
  545SOL    HW1 1634   1.099   1.654   0.619 -0.3802  0.0823 -2.2886
  545SOL    HW2 1635   1.023   1.518   0.693 -2.7648  0.0297  1.1974
  546SOL     OW 1636   2.907   0.408   2.165 -0.1812  0.3221  0.4406
  546SOL    HW1 1637   2.832   0.445   2.111  0.5779 -0.3225  2.4706
  546SOL    HW2 1638   2.877   0.338   2.233  1.6401 -1.8392 -0.6082
  547SOL     OW 1639   0.136   0.330   2.459  0.3969  0.4192  0.1387
  547SOL    HW1 1640   0.129   0.372   2.554 -1.8962  2.9515  0.2794
  547SOL    HW2 1641   0.200   0.383   2.397  1.3702  3.2766  0.9965
  548SOL     OW 1642   2.378   2.390   2.774  0.0429 -0.6354  0.5993
  548SOL    HW1 1643   2.474   2.432   2.782  0.7959  1.2066 -2.6427
  548SOL    HW2 1644   2.332   2.448   2.705  0.0467  1.7487 -1.9982
  549SOL     OW 1645   2.360   0.419   0.794 -0.3710  0.5786  0.2168
  549SOL    HW1 1646   2.277   0.453   0.757  0.6668  0.0044 -0.1334
  549SOL    HW2 1647   2.438   0.484   0.778  0.3119  1.8338  1.5274
  550SOL     OW 1648   2.172   1.402   0.526 -0.2537  0.3809 -0.1026
  550SOL    HW1 1649   2.182   1.435   0.431  0.2571  1.1238 -2.4837
  550SOL    HW2 1650   2.223   1.312   0.542  0.2731 -2.4721 -1.8061
  551SOL     OW 1651   1.414   2.803   1.580 -0.7375 -0.4636  0.3216
  551SOL    HW1 1652   1.398   2.708   1.616  0.5246 -0.4475  1.0025
  551SOL    HW2 1653   1.326   2.831   1.534 -3.0435  0.7110 -1.8412
  552SOL     OW 1654   2.192   2.472   2.580 -0.6020  0.0080 -0.3038
  552SOL    HW1 1655   2.226   2.452   2.485  2.5073 -1.6314  1.5979
  552SOL    HW2 1656   2.187   2.572   2.598  0.7876  0.6003 -0.2952
  553SOL     OW 1657   0.694   2.896   0.555  0.5271  0.7951 -0.1052
  553SOL    HW1 1658   0.760   2.892   0.632 -1.2273  0.6862  1.6976
  553SOL    HW2 1659   0.642   2.810   0.545 -2.6490 -0.1147 -0.2918
  554SOL     OW 1660   1.760   2.602   2.072  0.6088  0.1250 -0.2002
  554SOL    HW1 1661   1.809   2.513   2.052 -1.1642 -3.4275  2.2947
  554SOL    HW2 1662   1.706   2.618   1.987 -0.5170 -1.6822  1.0144
  555SOL     OW 1663   2.084   2.277   2.239 -0.4441  0.3770  0.1770
  555SOL    HW1 1664   2.181   2.298   2.218 -0.8962  0.5957  1.4755
  555SOL    HW2 1665   2.055   2.178   2.230  2.2238 -3.3147  1.4638
  556SOL     OW 1666   0.962   0.237   0.667  0.4595 -0.2212 -0.2326
  556SOL    HW1 1667   0.975   0.335   0.633 -3.4901  1.9609 -1.1992
  556SOL    HW2 1668   0.987   0.164   0.598  1.2789 -0.6268 -0.6998
  557SOL     OW 1669   0.798   2.116   1.711  0.6601 -0.5429  0.6105
  557SOL    HW1 1670   0.861   2.051   1.665 -0.5437 -0.9246 -1.1228
  557SOL    HW2 1671   0.843   2.201   1.742  1.2910  1.2975  0.7477
  558SOL     OW 1672   2.538   1.272   2.431 -0.1233  0.4955 -0.1471
  558SOL    HW1 1673   2.592   1.184   2.440 -1.0748 -0.7121 -1.9427
  558SOL    HW2 1674   2.581   1.348   2.482  0.3135  0.8959  0.5355
  559SOL     OW 1675   2.339   2.298   2.108  0.8510  0.5257  0.4797
  559SOL    HW1 1676   2.374   2.216   2.057 -0.1349  0.5801 -0.3362
  559SOL    HW2 1677   2.274   2.352   2.046 -0.3181  1.4250 -1.4553
  560SOL     OW 1678   0.531   0.338   2.300 -0.1082 -0.1583 -0.2016
  560SOL    HW1 1679   0.609   0.393   2.332 -2.4964  1.2081 -1.2326
  560SOL    HW2 1680   0.551   0.242   2.284  0.8103 -1.4426 -0.1852
  561SOL     OW 1681   1.107   0.318   0.350 -0.4546 -0.0376 -0.1978
  561SOL    HW1 1682   1.202   0.360   0.356  1.8988 -0.8499 -0.9078
  561SOL    HW2 1683   1.101   0.240   0.417 -1.2187 -0.5423  1.6618
  562SOL     OW 1684   1.164   1.521   1.787 -0.0178 -0.4958  0.2247
  562SOL    HW1 1685   1.113   1.600   1.829  0.0375 -0.4299 -0.6725
  562SOL    HW2 1686   1.208   1.543   1.699 -1.4900 -0.3052 -0.1297
  563SOL     OW 1687   1.948   2.356   0.071  0.0524 -0.0395  0.1119
  563SOL    HW1 1688   1.955   2.253   0.089 -0.9338  1.1940  1.5671
  563SOL    HW2 1689   1.996   2.408   0.145 -0.1775  1.7653  0.3494
  564SOL     OW 1690   2.581   2.199   0.541  0.3196 -0.0850 -1.2040
  564SOL    HW1 1691   2.637   2.233   0.619 -2.5659  0.7118 -0.6453
  564SOL    HW2 1692   2.543   2.104   0.565  0.6519 -0.5127 -1.1079
  565SOL     OW 1693   0.551   0.081   2.512 -0.0759 -0.0652  0.5636
  565SOL    HW1 1694   0.487   0.153   2.542 -2.6562 -2.1123  3.3935
  565SOL    HW2 1695   0.634   0.065   2.570  0.5715 -1.2813 -1.2232
  566SOL     OW 1696   1.699   2.610   2.590 -0.4449  0.0722  0.8999
  566SOL    HW1 1697   1.711   2.592   2.689 -1.5487 -0.5947 -0.9740
  566SOL    HW2 1698   1.769   2.551   2.535 -0.5259  0.0833  2.9043
  567SOL     OW 1699   1.909   2.026   1.242 -0.0077 -0.2515  0.0334
  567SOL    HW1 1700   1.914   1.968   1.155  1.7105  0.9601 -0.8845
  567SOL    HW2 1701   1.826   1.993   1.296 -0.9507  1.0858  0.7466
  568SOL     OW 1702   1.933   0.837   2.829  0.6677 -0.2082 -0.1730
  568SOL    HW1 1703   1.877   0.844   2.920 -0.2591 -2.6244  3.8282
  568SOL    HW2 1704   1.989   0.749   2.839 -3.4509 -0.9061 -0.8905
  569SOL     OW 1705   2.326   1.730   2.079  0.6477 -0.2789 -0.4900
  569SOL    HW1 1706   2.348   1.716   1.983 -1.3128 -0.0708  1.9845
  569SOL    HW2 1707   2.367   1.660   2.142 -1.0770 -0.1689 -0.5004
  570SOL     OW 1708   2.751   0.088   1.726 -0.0060  0.2415 -0.0817
  570SOL    HW1 1709   2.675   0.096   1.797  0.8090  1.0954  0.9511
  570SOL    HW2 1710   2.788   3.088   1.718  2.0952  0.9610 -0.2381
  571SOL     OW 1711   0.241   0.768   1.212  0.0264 -0.0805  0.0483
  571SOL    HW1 1712   0.320   0.729   1.266  0.4107 -1.0341 -3.6739
  571SOL    HW2 1713   0.202   0.847   1.262  0.3571  0.2250 -0.2348
  572SOL     OW 1714   0.172   1.795   0.820  0.2157 -0.0150  0.2784
  572SOL    HW1 1715   0.075   1.798   0.860 -0.9025 -0.6690  2.3317
  572SOL    HW2 1716   0.186   1.869   0.750 -0.3375 -0.0102 -3.4040
  573SOL     OW 1717   0.895   0.492   0.279 -0.0763 -0.0465 -0.3816
  573SOL    HW1 1718   0.922   0.592   0.269 -3.0617 -1.1724 -0.1618
  573SOL    HW2 1719   0.964   0.425   0.325 -1.7067 -1.2818  0.8533
  574SOL     OW 1720   0.183   3.072   3.085 -0.2668  0.1067  0.2589
  574SOL    HW1 1721   0.250   0.060   3.075  1.8582  1.3842  3.3746
  574SOL    HW2 1722   0.117   3.083   3.005 -2.8009 -1.6954  2.5676
  575SOL     OW 1723   1.116   2.355   0.993  0.1922  0.7613 -0.0976
  575SOL    HW1 1724   1.122   2.311   1.087  1.1250  0.5236 -1.2576
  575SOL    HW2 1725   1.203   2.399   0.966  0.5445 -0.7010  1.5757
  576SOL     OW 1726   2.967   2.770   1.286  0.0674  0.1314  0.3980
  576SOL    HW1 1727   2.869   2.797   1.261 -1.2111  0.4857  0.6572
  576SOL    HW2 1728   2.990   2.821   1.374 -1.5169 -1.0631  1.4909
  577SOL     OW 1729   2.722   1.778   1.924  0.1007 -0.7732 -0.4096
  577SOL    HW1 1730   2.720   1.866   1.871  2.0492  0.4523 -0.4147
  577SOL    HW2 1731   2.811   1.758   1.969 -3.0962 -0.9990  1.8034
  578SOL     OW 1732   1.055   2.961   2.553  0.0307 -0.0993  0.2444
  578SOL    HW1 1733   0.961   2.929   2.519 -3.9930  0.4630 -2.4536
  578SOL    HW2 1734   1.134   2.897   2.538 -0.0909 -0.8839 -2.4962
  579SOL     OW 1735   1.924   1.620   1.955  0.0460 -0.2276 -0.4642
  579SOL    HW1 1736   1.852   1.582   1.894  1.6207 -2.8998 -0.5932
  579SOL    HW2 1737   2.013   1.602   1.909 -2.6368  3.4134 -0.5470
  580SOL     OW 1738   1.861   0.522   2.009 -0.5302  0.0127 -0.6277
  580SOL    HW1 1739   1.766   0.542   1.975  1.0600 -1.1205 -2.3585
  580SOL    HW2 1740   1.873   0.556   2.103  1.6055  0.3390  0.0135
  581SOL     OW 1741   1.080   1.277   1.859  0.7019  0.0761  0.2654
  581SOL    HW1 1742   1.034   1.287   1.953 -1.2664  0.6538  0.7985
  581SOL    HW2 1743   1.109   1.369   1.828  0.8477  0.7307 -0.0329
  582SOL     OW 1744   0.138   2.693   1.748 -0.1862  0.4277 -0.1950
  582SOL    HW1 1745   0.140   2.662   1.849  1.3897 -0.5959  3.1063
  582SOL    HW2 1746   0.139   2.795   1.738  1.3783 -1.5768 -1.1701
  583SOL     OW 1747   1.393   1.439   1.222  0.4106  0.0688 -0.0439
  583SOL    HW1 1748   1.418   1.416   1.321 -0.8213 -2.7992  2.6924
  583SOL    HW2 1749   1.295   1.419   1.208  0.5646  3.0436  0.6131
  584SOL     OW 1750   1.345   2.012   2.625  0.4190  0.1823  0.2577
  584SOL    HW1 1751   1.340   1.934   2.558  0.0284 -3.1829  2.6324
  584SOL    HW2 1752   1.443   2.044   2.640  4.8094  0.6766 -1.0310
  585SOL     OW 1753   0.174   2.332   0.294 -0.6092  0.2395 -0.3995
  585SOL    HW1 1754   0.183   2.334   0.396 -1.0550  0.4069 -1.2981
  585SOL    HW2 1755   0.103   2.398   0.258 -1.6173 -1.6640  1.3249
  586SOL     OW 1756   1.888   2.072   0.133  0.2230  0.2496  0.1501
  586SOL    HW1 1757   1.899   2.103   0.228  2.3596 -2.0149 -2.0619
  586SOL    HW2 1758   1.971   2.035   0.090  0.7161 -3.2886  1.8110
  587SOL     OW 1759   2.469   1.943   0.574 -0.0544  0.4759  0.3377
  587SOL    HW1 1760   2.470   1.846   0.613 -1.5413 -2.7819 -0.3412
  587SOL    HW2 1761   2.419   1.939   0.484 -0.6628  0.8116 -2.4263
  588SOL     OW 1762   2.128   0.354   1.106  0.2185  0.3426 -0.0367
  588SOL    HW1 1763   2.073   0.404   1.036  0.2278  2.0318 -0.5093
  588SOL    HW2 1764   2.220   0.401   1.103 -0.0224  0.6507 -0.0001
  589SOL     OW 1765   0.553   0.740   0.889  0.1883 -0.2813 -0.4628
  589SOL    HW1 1766   0.597   0.703   0.976  1.0934 -0.9020  0.4375
  589SOL    HW2 1767   0.592   0.833   0.867  0.5063 -2.2585  0.4402
  590SOL     OW 1768   2.662   2.399   0.277  0.0064  0.0182 -0.6629
  590SOL    HW1 1769   2.601   2.318   0.265 -1.2225 -1.6529 -0.8253
  590SOL    HW2 1770   2.697   2.410   0.371 -0.4145 -2.0062 -0.5198
  591SOL     OW 1771   0.398   2.665   1.655 -0.6873 -0.6091 -0.7090
  591SOL    HW1 1772   0.441   2.571   1.656  0.9513 -0.7906 -1.4213
  591SOL    HW2 1773   0.297   2.664   1.675 -0.6009  0.9688 -0.6503
  592SOL     OW 1774   0.793   1.541   1.669  0.1951 -0.0762 -0.4767
  592SOL    HW1 1775   0.792   1.636   1.645  1.3376 -1.0902  0.5275
  592SOL    HW2 1776   0.848   1.491   1.602 -2.5501  2.5846 -0.1699
  593SOL     OW 1777   0.972   1.883   1.307 -0.0074  0.1605  0.2076
  593SOL    HW1 1778   0.896   1.820   1.297  1.9366 -0.9259 -0.0058
  593SOL    HW2 1779   1.008   1.888   1.210  1.6967 -1.0968 -0.2900
  594SOL     OW 1780   0.163   1.712   2.861 -0.2809  0.1034 -0.1860
  594SOL    HW1 1781   0.213   1.731   2.949  2.0826 -1.1356  2.1034
  594SOL    HW2 1782   0.177   1.617   2.822 -1.8951  0.7547  1.1927
  595SOL     OW 1783   1.397   0.671   0.930  0.5425  0.1243  0.1555
  595SOL    HW1 1784   1.399   0.607   0.847 -2.7019 -1.8638 -0.9075
  595SOL    HW2 1785   1.387   0.612   1.015  1.0568  0.7933 -1.3434
  596SOL     OW 1786   0.229   1.434   0.628  0.0938 -0.4817 -0.3764
  596SOL    HW1 1787   0.313   1.486   0.641 -0.4723 -0.6781  0.6393
  596SOL    HW2 1788   0.242   1.340   0.657  2.6720  1.7103 -1.5217
  597SOL     OW 1789   0.001   2.052   2.934 -0.0525  0.5551 -0.3708
  597SOL    HW1 1790   3.016   2.070   2.870  0.4624  1.5995 -1.0084
  597SOL    HW2 1791   0.037   2.143   2.972  1.9024  1.1058  3.5561
  598SOL     OW 1792   1.980   2.028   2.162 -0.5801 -0.1940  0.1769
  598SOL    HW1 1793   1.881   2.036   2.153  1.8637  0.4245  1.1899
  598SOL    HW2 1794   2.016   1.934   2.166  3.6128 -0.7086 -0.4626
  599SOL     OW 1795   1.602   0.431   0.663  0.6823 -0.2158  0.7847
  599SOL    HW1 1796   1.618   0.520   0.612 -0.5906  3.8030 -2.9288
  599SOL    HW2 1797   1.509   0.419   0.706 -0.9756 -3.3563  0.3484
  600SOL     OW 1798   0.825   2.744   0.345  0.2302 -0.8419  0.2367
  600SOL    HW1 1799   0.816   2.823   0.406  1.2827 -1.2586  0.7456
  600SOL    HW2 1800   0.846   2.772   0.248 -0.0387 -2.2897 -1.0292
  601SOL     OW 1801   0.583   0.493   1.348 -0.3786 -0.2248 -0.1646
  601SOL    HW1 1802   0.609   0.490   1.442  0.4609 -0.8931 -0.8428
  601SOL    HW2 1803   0.632   0.417   1.297 -0.7079 -1.9636  1.6425
  602SOL     OW 1804   0.119   2.855   0.655  0.3065  0.0042 -0.2497
  602SOL    HW1 1805   0.088   2.761   0.679  2.7239 -1.6832  1.8035
  602SOL    HW2 1806   0.086   2.925   0.720  2.9015  0.4516 -1.4262
  603SOL     OW 1807   1.032   2.579   2.668  0.1207  0.2284 -0.3221
  603SOL    HW1 1808   0.975   2.590   2.586  0.8967  1.9133  0.3054
  603SOL    HW2 1809   1.048   2.663   2.722  3.5699  1.5094  0.5173
  604SOL     OW 1810   0.629   2.868   2.866 -0.8661  0.1614 -0.2818
  604SOL    HW1 1811   0.535   2.859   2.901  1.1793 -0.9822 -0.6985
  604SOL    HW2 1812   0.652   2.786   2.814 -2.1747 -1.9180 -0.2295
  605SOL     OW 1813   0.887   0.638   1.759 -0.1085 -0.4665  0.0248
  605SOL    HW1 1814   0.987   0.663   1.772  3.3139  0.4737 -2.7998
  605SOL    HW2 1815   0.823   0.725   1.763  0.0346  3.4265  0.8008
  606SOL     OW 1816   1.653   0.301   2.546 -0.3326 -0.0537 -0.0512
  606SOL    HW1 1817   1.683   0.307   2.647  0.4072  0.9778  0.4928
  606SOL    HW2 1818   1.693   0.216   2.505  2.4755 -0.2529 -1.0012
  607SOL     OW 1819   0.380   1.470   1.163 -0.3939  0.1782 -0.1081
  607SOL    HW1 1820   0.407   1.463   1.263 -1.9802  0.8203  2.2033
  607SOL    HW2 1821   0.323   1.551   1.154  2.1771  0.1231  1.9250
  608SOL     OW 1822   2.993   2.387   2.216  0.4275  0.3189  0.4033
  608SOL    HW1 1823   2.953   2.432   2.135  2.5780 -0.2204 -0.0809
  608SOL    HW2 1824   3.059   2.450   2.262  2.6772  1.4202 -1.1451
  609SOL     OW 1825   1.795   0.439   0.165  0.7828 -0.0746 -0.8248
  609SOL    HW1 1826   1.843   0.459   0.082 -3.1957  0.4039  0.6283
  609SOL    HW2 1827   1.709   0.386   0.153 -0.7511 -0.8267 -0.3833
  610SOL     OW 1828   0.930   2.655   1.116 -0.2946  0.6843  0.7773
  610SOL    HW1 1829   1.027   2.634   1.092  1.1067  1.8878 -1.8099
  610SOL    HW2 1830   0.887   2.585   1.175  0.9878  1.8620 -0.2350
  611SOL     OW 1831   0.868   0.770   0.261  0.1073 -0.4275 -0.0675
  611SOL    HW1 1832   0.786   0.759   0.324 -1.6484 -0.6164  1.1662
  611SOL    HW2 1833   0.948   0.813   0.306 -1.1050 -1.9326  2.4458
  612SOL     OW 1834   1.240   0.672   2.551 -0.0531  0.2070 -0.0517
  612SOL    HW1 1835   1.239   0.761   2.501 -0.8916 -2.4174  0.8350
  612SOL    HW2 1836   1.338   0.637   2.551 -0.1199 -0.1387  0.4738
  613SOL     OW 1837   1.994   0.781   0.306 -0.1068 -0.4114  0.0499
  613SOL    HW1 1838   1.990   0.860   0.370 -2.1472 -2.9528 -5.3873
  613SOL    HW2 1839   1.959   0.695   0.353  0.0256 -1.7299 -1.5090
  614SOL     OW 1840   1.990   0.576   1.784  0.0287 -0.1925 -0.6678
  614SOL    HW1 1841   1.947   0.526   1.863 -3.2796 -1.5691  0.7884
  614SOL    HW2 1842   1.984   0.675   1.803  0.2629 -0.3889  1.5655
  615SOL     OW 1843   0.732   2.104   0.913  0.0599 -0.2744  0.4813
  615SOL    HW1 1844   0.781   2.035   0.863 -0.7617  0.6090 -0.5253
  615SOL    HW2 1845   0.773   2.199   0.914 -0.9595  0.2495 -0.7545
  616SOL     OW 1846   1.599   1.045   2.343  0.0880 -0.0492  0.2849
  616SOL    HW1 1847   1.552   1.128   2.381  2.0879  0.1584 -0.6068
  616SOL    HW2 1848   1.629   1.058   2.247  0.2691 -0.8339  0.4239
  617SOL     OW 1849   1.872   2.685   0.073 -0.5275  0.0269  0.2171
  617SOL    HW1 1850   1.784   2.730   0.105 -1.1537 -0.2597  1.2779
  617SOL    HW2 1851   1.919   2.644   0.151 -0.6140 -2.5706  1.3766
  618SOL     OW 1852   1.001   1.026   2.710 -0.1218 -0.1225 -0.2273
  618SOL    HW1 1853   0.900   1.018   2.700  2.2314  0.7448  1.9543
  618SOL    HW2 1854   1.047   0.937   2.724  0.2732  1.6405 -0.0612
  619SOL     OW 1855   2.346   1.390   0.814  0.2455 -0.0439  0.1119
  619SOL    HW1 1856   2.339   1.314   0.747 -0.2781 -0.8884 -0.1513
  619SOL    HW2 1857   2.430   1.441   0.784  0.6301  1.3711 -1.4293
  620SOL     OW 1858   2.446   2.822   0.039 -0.0526 -0.8309 -0.3055
  620SOL    HW1 1859   2.483   2.807   3.043 -0.2508  0.4445  0.3896
  620SOL    HW2 1860   2.503   2.787   0.110 -1.3279  1.5722 -1.6064
  621SOL     OW 1861   2.131   1.112   0.244  0.0355 -0.6800  0.3449
  621SOL    HW1 1862   2.033   1.150   0.246 -2.3386  0.6653 -0.0221
  621SOL    HW2 1863   2.145   1.044   0.317  0.2304  2.2832  3.3071
  622SOL     OW 1864   1.295   2.500   2.696  0.6832 -0.0024  0.2751
  622SOL    HW1 1865   1.203   2.506   2.655  1.3281 -2.2427  2.0926
  622SOL    HW2 1866   1.330   2.595   2.714  2.0568 -1.9208 -0.0023
  623SOL     OW 1867   0.241   1.762   0.026  0.4962  0.4442  0.0660
  623SOL    HW1 1868   0.150   1.810   0.042  1.5357  3.8145  0.1788
  623SOL    HW2 1869   0.314   1.802   0.083 -0.2283 -1.7364  0.0134
  624SOL     OW 1870   0.315   0.162   2.655  0.4197  0.3365  0.2992
  624SOL    HW1 1871   0.240   0.232   2.669  0.6599 -0.3146 -0.1369
  624SOL    HW2 1872   0.278   0.069   2.682  1.9313  1.2593 -0.7500
  625SOL     OW 1873   0.916   1.908   0.146  0.7395  0.2955 -0.3001
  625SOL    HW1 1874   0.928   1.873   0.239  0.9360  2.3038  1.4749
  625SOL    HW2 1875   0.816   1.910   0.119 -2.6092 -4.1808 -0.4825
  626SOL     OW 1876   2.799   0.546   0.230  0.2849  0.4391 -0.0460
  626SOL    HW1 1877   2.822   0.565   0.133 -1.0329 -2.1969  2.8380
  626SOL    HW2 1878   2.870   0.490   0.276  0.8259 -0.4861  0.3331
  627SOL     OW 1879   1.430   1.250   2.865 -0.4505 -0.4758 -0.1283
  627SOL    HW1 1880   1.360   1.312   2.911 -0.9795  0.1866  3.6419
  627SOL    HW2 1881   1.457   1.279   2.776 -2.7300  0.2559  2.6914
  628SOL     OW 1882   1.065   0.767   2.754 -0.2945 -0.5758  0.0046
  628SOL    HW1 1883   0.993   0.704   2.795 -1.9463 -0.5315 -0.1482
  628SOL    HW2 1884   1.118   0.727   2.678  1.3671  0.6258 -0.0736
  629SOL     OW 1885   0.064   0.118   1.746 -0.2506 -0.5822  0.1477
  629SOL    HW1 1886   0.011   0.208   1.737 -2.7786  2.0440  0.7938
  629SOL    HW2 1887   0.119   0.118   1.834 -0.2458  0.7435  1.2338
  630SOL     OW 1888   2.527   0.851   2.174  0.4179 -0.2471 -0.0223
  630SOL    HW1 1889   2.508   0.810   2.268  1.6772  1.4095  2.1138
  630SOL    HW2 1890   2.622   0.825   2.138  1.1972 -1.9679 -1.6373
  631SOL     OW 1891   1.970   0.931   0.886 -0.4010 -0.2229  0.0269
  631SOL    HW1 1892   1.940   0.999   0.958  1.5273  3.0756  3.2787
  631SOL    HW2 1893   2.030   0.861   0.933 -0.8214 -2.8586 -1.0186
  632SOL     OW 1894   2.808   0.889   1.637 -0.5353  0.0540 -0.0727
  632SOL    HW1 1895   2.903   0.893   1.682  0.2429 -1.2882  0.4971
  632SOL    HW2 1896   2.821   0.857   1.540  0.9480 -2.7883 -1.0787
  633SOL     OW 1897   0.846   2.854   0.100  0.0210 -0.3789 -0.3117
  633SOL    HW1 1898   0.915   2.921   0.071 -1.6000  2.4110  0.4244
  633SOL    HW2 1899   0.756   2.906   0.124 -0.5799 -1.6813  1.6879
  634SOL     OW 1900   1.279   2.691   2.952 -0.1731  0.3381  0.2476
  634SOL    HW1 1901   1.309   2.758   3.024  0.6684 -2.5434  1.3191
  634SOL    HW2 1902   1.190   2.715   2.911 -1.3184 -0.7087 -0.9782
  635SOL     OW 1903   3.027   0.411   0.362  0.2919  0.5663  0.1558
  635SOL    HW1 1904   3.016   0.433   0.462  0.0730 -1.5092  0.5385
  635SOL    HW2 1905   3.025   0.312   0.343  0.4251 -0.6140 -0.9244
  636SOL     OW 1906   0.516   1.070   0.447 -0.0972  0.0112  0.0561
  636SOL    HW1 1907   0.568   1.128   0.387  0.2100 -0.0364  0.1593
  636SOL    HW2 1908   0.435   1.032   0.399 -2.2170  0.7901  2.6553
  637SOL     OW 1909   0.316   2.623   0.340 -0.3163  0.1300 -0.1892
  637SOL    HW1 1910   0.346   2.547   0.277 -0.4350  1.1738 -2.4647
  637SOL    HW2 1911   0.217   2.624   0.335  5.0145  1.7573 -0.2878
  638SOL     OW 1912   3.065   2.406   0.564  0.1148 -0.2299 -0.3298
  638SOL    HW1 1913   3.043   2.456   0.479 -0.6800 -0.2855  2.1522
  638SOL    HW2 1914   0.068   2.373   0.572  1.2272  0.0033 -0.7596
  639SOL     OW 1915   1.260   1.233   0.108 -0.4086 -0.5380  0.1500
  639SOL    HW1 1916   1.278   1.138   0.069 -0.0949 -3.6784 -3.4963
  639SOL    HW2 1917   1.277   1.306   0.033 -1.7281 -1.0276 -1.2758
  640SOL     OW 1918   1.568   2.443   1.312 -0.2497  0.3705 -0.0139
  640SOL    HW1 1919   1.655   2.491   1.343  4.3157  2.1131 -1.0612
  640SOL    HW2 1920   1.595   2.391   1.229 -1.5092 -0.0958 -1.5522
  641SOL     OW 1921   3.024   2.401   1.123  0.6574  0.2358 -0.1003
  641SOL    HW1 1922   3.018   2.434   1.224 -1.2389 -0.2863  0.2091
  641SOL    HW2 1923   2.934   2.393   1.081 -1.9340  0.0585 -1.0992
  642SOL     OW 1924   0.779   3.053   1.767 -0.8508  0.5361  0.5854
  642SOL    HW1 1925   0.830   0.032   1.714 -0.8130  0.3229 -1.4199
  642SOL    HW2 1926   0.688   3.086   1.804  0.4597 -0.9992 -1.3705
  643SOL     OW 1927   0.838   2.262   2.990  0.1797  0.2476  0.8559
  643SOL    HW1 1928   0.874   2.322   3.065 -1.3368 -0.1166 -2.4640
  643SOL    HW2 1929   0.895   2.180   2.979 -1.2678  1.9682 -0.5132
  644SOL     OW 1930   1.172   2.453   0.605 -0.0857  0.9426  0.0539
  644SOL    HW1 1931   1.195   2.476   0.507  2.1389  1.8611 -2.6737
  644SOL    HW2 1932   1.150   2.354   0.618 -0.0455  1.7080 -3.4027
  645SOL     OW 1933   1.349   1.372   1.952  0.2821  0.1864 -0.0218
  645SOL    HW1 1934   1.281   1.404   1.888  1.9043 -1.3268  3.2031
  645SOL    HW2 1935   1.327   1.280   1.989 -0.3201 -0.3799 -1.5037
  646SOL     OW 1936   0.290   0.944   0.345  0.2322 -0.3170 -0.5680
  646SOL    HW1 1937   0.267   0.913   0.438  0.3362  2.6376  0.4073
  646SOL    HW2 1938   0.283   0.861   0.286  0.1383  1.9646  1.5562
  647SOL     OW 1939   1.339   0.484   0.736  0.1891  0.2989  0.4427
  647SOL    HW1 1940   1.299   0.521   0.649 -0.3417  0.9761 -1.2425
  647SOL    HW2 1941   1.267   0.426   0.786 -0.9370 -1.3317 -1.6042
  648SOL     OW 1942   2.339   2.703   1.239 -0.4622 -0.4683 -0.2416
  648SOL    HW1 1943   2.355   2.625   1.303  0.4676  1.3280 -0.8742
  648SOL    HW2 1944   2.333   2.671   1.140 -0.0788  1.2416 -0.3517
  649SOL     OW 1945   0.656   1.913   0.064 -0.2852  0.5477  0.3264
  649SOL    HW1 1946   0.634   2.006   0.030  0.8496  1.3941 -2.1062
  649SOL    HW2 1947   0.574   1.872   0.109 -2.2827 -2.0611 -4.1863
  650SOL     OW 1948   2.407   1.916   1.717 -0.6408  0.4030 -0.0969
  650SOL    HW1 1949   2.340   1.907   1.638  1.1310 -0.3432  0.5124
  650SOL    HW2 1950   2.502   1.914   1.677  2.5182 -3.8321  1.5254
  651SOL     OW 1951   0.193   3.018   2.707  0.5376 -0.0491 -0.0074
  651SOL    HW1 1952   0.261   2.967   2.754  0.8659  1.5110 -2.5920
  651SOL    HW2 1953   0.113   3.038   2.764 -1.7761 -0.9346  0.7022
  652SOL     OW 1954   2.460   1.674   0.007  0.3817 -0.0848 -0.2336
  652SOL    HW1 1955   2.498   1.769   0.034  1.4540  1.2170  1.5233
  652SOL    HW2 1956   2.486   1.599   0.070  1.4659 -4.3150 -1.7595
  653SOL     OW 1957   0.115   0.150   0.873 -0.5714  0.3922  0.0890
  653SOL    HW1 1958   0.210   0.173   0.901 -1.9731  1.2168  0.2037
  653SOL    HW2 1959   0.107   0.162   0.774  1.9602 -1.4180 -0.1534
  654SOL     OW 1960   1.106   0.066   0.472  0.1827 -0.2272  0.0574
  654SOL    HW1 1961   1.103   3.080   0.410 -1.3265  0.3928  3.2349
  654SOL    HW2 1962   1.198   0.084   0.513  0.8400  1.7735  0.4306
  655SOL     OW 1963   0.625   2.835   1.394  0.1052  0.1584  0.0408
  655SOL    HW1 1964   0.685   2.897   1.339  0.3448  0.4010 -2.8755
  655SOL    HW2 1965   0.604   2.754   1.334  2.3666  0.9119 -2.4780
  656SOL     OW 1966   0.288   0.103   1.945 -0.2866  0.0710 -0.1891
  656SOL    HW1 1967   0.246   0.057   2.025 -1.3838 -1.8064 -0.1239
  656SOL    HW2 1968   0.299   0.203   1.967  1.1641  2.9413 -0.5048
  657SOL     OW 1969   1.945   0.437   2.508  0.0734  0.6805 -0.1432
  657SOL    HW1 1970   1.924   0.345   2.469 -1.3450 -0.1247 -1.1444
  657SOL    HW2 1971   2.018   0.481   2.450  3.3776  0.8648 -1.9559
  658SOL     OW 1972   1.915   1.579   1.184 -0.4307  0.1552  0.1065
  658SOL    HW1 1973   1.842   1.538   1.245  0.9771  0.9399  0.2858
  658SOL    HW2 1974   2.004   1.529   1.201  0.4448 -1.1405 -0.2908
  659SOL     OW 1975   2.537   2.727   2.904 -0.2194 -0.2029  0.1560
  659SOL    HW1 1976   2.519   2.769   2.813 -0.1255 -1.3118 -0.0730
  659SOL    HW2 1977   2.544   2.623   2.896 -0.9427 -0.1593  1.4517
  660SOL     OW 1978   0.978   0.710   0.020 -0.1509  0.1334  0.2540
  660SOL    HW1 1979   0.923   0.695   0.107  1.4974  0.7988 -0.6250
  660SOL    HW2 1980   1.008   0.809   0.019 -0.4313 -3.4159  0.6769
  661SOL     OW 1981   2.484   2.838   0.811  0.1147  0.7931  0.1956
  661SOL    HW1 1982   2.527   2.787   0.731 -0.2969 -0.5038 -1.1027
  661SOL    HW2 1983   2.554   2.884   0.873  0.4267  3.4473  0.8814
  662SOL     OW 1984   0.541   0.412   0.866 -0.0064 -0.1170  0.4375
  662SOL    HW1 1985   0.540   0.397   0.772  0.6823 -0.7043  3.6320
  662SOL    HW2 1986   0.447   0.445   0.887 -3.4937 -0.2747 -1.8825
  663SOL     OW 1987   1.423   2.460   2.425 -0.1745  0.3713 -0.1994
  663SOL    HW1 1988   1.384   2.468   2.518  2.6632 -2.8080  0.0135
  663SOL    HW2 1989   1.419   2.536   2.366  0.8737 -1.0327  1.1460
  664SOL     OW 1990   0.604   2.325   1.282  0.1432  0.3027 -0.1425
  664SOL    HW1 1991   0.693   2.304   1.241 -1.0242  1.4106 -0.7822
  664SOL    HW2 1992   0.586   2.273   1.371 -0.8670 -0.0801  0.1276
  665SOL     OW 1993   1.178   2.157   1.543  0.0852 -0.7041 -0.2657
  665SOL    HW1 1994   1.169   2.199   1.639 -1.6014  2.2504  2.7960
  665SOL    HW2 1995   1.274   2.145   1.514  1.0469 -2.6617  0.7512
  666SOL     OW 1996   0.381   2.825   2.745  0.0060  0.0910  0.0452
  666SOL    HW1 1997   0.456   2.861   2.685 -0.7567  4.1637  0.9349
  666SOL    HW2 1998   0.391   2.720   2.753 -0.6331  0.8559  2.5193
  667SOL     OW 1999   1.475   1.703   1.153 -0.3316  0.6379 -0.4248
  667SOL    HW1 2000   1.453   1.608   1.176  0.2511  0.2116  0.4621
  667SOL    HW2 2001   1.433   1.774   1.214  2.2485  0.8302 -0.5576
  668SOL     OW 2002   1.069   0.292   2.264  0.0754 -0.3518  0.2072
  668SOL    HW1 2003   1.035   0.342   2.342  2.5172  0.7003  2.2623
  668SOL    HW2 2004   1.069   0.193   2.278 -1.2626  3.4314 -1.2410
  669SOL     OW 2005   2.248   2.257   1.791  0.0239  0.6664  0.7102
  669SOL    HW1 2006   2.284   2.183   1.852 -0.9973 -0.4588 -0.2104
  669SOL    HW2 2007   2.160   2.226   1.746 -1.2683  0.4882 -0.8591
  670SOL     OW 2008   1.957   1.754   0.312 -0.0128  0.4062 -0.6885
  670SOL    HW1 2009   2.007   1.799   0.389 -0.8892 -1.4664 -3.1267
  670SOL    HW2 2010   1.995   1.784   0.227 -1.0930 -1.4200  3.3524
  671SOL     OW 2011   1.400   0.986   1.030  0.2183  0.1379 -0.1163
  671SOL    HW1 2012   1.388   0.953   0.937 -0.7614 -1.3177 -0.2132
  671SOL    HW2 2013   1.449   1.074   1.033 -0.8286 -1.4963 -0.9131
  672SOL     OW 2014   2.491   1.534   2.224  0.5098 -0.2320  0.6757
  672SOL    HW1 2015   2.584   1.577   2.199  2.7146  0.2678 -0.8025
  672SOL    HW2 2016   2.506   1.440   2.251  2.0696  1.2903 -0.9900
  673SOL     OW 2017   2.748   1.643   2.218 -0.2390 -0.6613 -0.4032
  673SOL    HW1 2018   2.788   1.688   2.135  0.4112 -2.2128 -0.1337
  673SOL    HW2 2019   2.750   1.704   2.300  0.7299 -1.8286  0.3568
  674SOL     OW 2020   0.888   2.559   2.437 -0.1408 -1.0065  0.0115
  674SOL    HW1 2021   0.884   2.650   2.387 -0.2443  2.4800 -2.2039
  674SOL    HW2 2022   0.796   2.514   2.429 -3.3287  0.7394 -0.5595
  675SOL     OW 2023   0.721   1.022   1.369  0.1595  0.3095  0.1917
  675SOL    HW1 2024   0.675   1.034   1.275 -0.0380  1.2944 -3.0103
  675SOL    HW2 2025   0.820   1.052   1.361  0.3367  0.2094  1.5774
  676SOL     OW 2026   2.130   0.545   0.740 -0.0141 -0.3158  0.4387
  676SOL    HW1 2027   2.112   0.545   0.641  0.6345  0.4303  1.1749
  676SOL    HW2 2028   2.051   0.519   0.802 -0.8012 -0.1650  1.0878
  677SOL     OW 2029   2.483   1.566   2.667 -0.0729 -0.9293  0.0988
  677SOL    HW1 2030   2.553   1.513   2.610  1.8474  0.3955 -1.0154
  677SOL    HW2 2031   2.475   1.532   2.764  1.5294  1.9372 -1.2813
  678SOL     OW 2032   3.029   2.994   0.899  0.0853  0.0895 -0.2102
  678SOL    HW1 2033   3.066   2.942   0.978  1.9622  0.3258  2.3246
  678SOL    HW2 2034   3.083   3.077   0.899  0.2921 -4.5829 -0.5977
  679SOL     OW 2035   2.472   0.055   0.358  0.4270 -0.1935  0.8451
  679SOL    HW1 2036   2.515   0.138   0.315  2.4203  0.9440  0.6146
  679SOL    HW2 2037   2.511   0.029   0.452 -2.2161  1.3389  0.4742
  680SOL     OW 2038   0.176   2.298   2.055 -0.3710 -0.4662 -0.2206
  680SOL    HW1 2039   0.205   2.228   1.990 -1.3237 -1.0516  1.3319
  680SOL    HW2 2040   0.090   2.265   2.088  2.2921  0.6533  1.1032
  681SOL     OW 2041   2.532   1.618   1.379 -0.1615 -0.5653 -0.0697
  681SOL    HW1 2042   2.526   1.706   1.329 -0.3746  0.7145  1.3369
  681SOL    HW2 2043   2.447   1.596   1.429  1.3027 -4.1649 -0.3801
  682SOL     OW 2044   2.960   2.130   2.193  0.3013  0.3429  0.5498
  682SOL    HW1 2045   2.866   2.120   2.156 -4.9083  1.1252 -1.9336
  682SOL    HW2 2046   2.978   2.227   2.223 -1.1469 -0.7209  0.6745
  683SOL     OW 2047   3.034   2.204   1.383  0.0391 -0.0325  0.1320
  683SOL    HW1 2048   2.960   2.163   1.325 -1.3598 -2.9863 -0.6911
  683SOL    HW2 2049   3.035   2.306   1.402  1.9645  0.0974 -1.7029
  684SOL     OW 2050   2.060   1.037   2.378 -0.3699  0.0393  0.2537
  684SOL    HW1 2051   2.005   1.105   2.429 -0.0943  1.6628 -1.9155
  684SOL    HW2 2052   2.159   1.053   2.402 -0.8461 -0.0700 -0.0279
  685SOL     OW 2053   1.490   1.034   0.359 -0.1994 -0.2952 -0.0039
  685SOL    HW1 2054   1.401   1.083   0.360  0.9190  0.6516 -0.7811
  685SOL    HW2 2055   1.508   1.001   0.449 -1.4555  3.2228 -4.3159
  686SOL     OW 2056   0.532   3.030   0.764 -0.2913 -0.1182 -0.1530
  686SOL    HW1 2057   0.561   2.996   0.854 -1.4098 -0.4857 -1.5774
  686SOL    HW2 2058   0.602   3.093   0.724 -1.5913 -1.2414 -0.0583
  687SOL     OW 2059   1.491   1.302   2.371 -0.2730  0.0646  0.2621
  687SOL    HW1 2060   1.565   1.360   2.332  0.6868  2.6161 -1.3863
  687SOL    HW2 2061   1.399   1.341   2.338 -2.3850  0.8637 -1.7177
  688SOL     OW 2062   1.369   1.787   1.381  0.1196  0.0397  0.2490
  688SOL    HW1 2063   1.278   1.743   1.396  0.4320  1.0249  0.2711
  688SOL    HW2 2064   1.438   1.745   1.445 -0.0146  0.3596  2.4473
  689SOL     OW 2065   1.993   0.223   1.311  0.1578  0.3361 -0.1528
  689SOL    HW1 2066   2.050   0.264   1.241 -0.3761  1.9417  0.3000
  689SOL    HW2 2067   2.045   0.225   1.403 -2.6429  1.5299  0.9454
  690SOL     OW 2068   0.188   1.655   1.117 -0.1062  0.4997 -0.4396
  690SOL    HW1 2069   0.244   1.740   1.097  2.9734 -0.2873  1.9559
  690SOL    HW2 2070   0.114   1.649   1.051  1.0574  1.9551 -0.6838
  691SOL     OW 2071   0.557   2.674   0.956 -0.4215 -0.1600 -0.8348
  691SOL    HW1 2072   0.629   2.627   0.904 -2.1021 -1.3962 -2.2028
  691SOL    HW2 2073   0.470   2.626   0.934 -0.1815  0.9069  1.4063
  692SOL     OW 2074   2.247   0.501   1.636 -0.1424 -0.2771 -0.1965
  692SOL    HW1 2075   2.283   0.564   1.560 -0.3986  1.6818 -2.7409
  692SOL    HW2 2076   2.163   0.538   1.675  2.0809  1.0751 -1.3864
  693SOL     OW 2077   0.303   2.099   1.901 -0.2505  0.4251  0.1083
  693SOL    HW1 2078   0.398   2.132   1.906 -1.6936 -2.5547 -0.9974
  693SOL    HW2 2079   0.283   2.041   1.991  1.3521 -0.9601  1.0350
  694SOL     OW 2080   1.479   1.209   1.681  0.1335 -0.0462 -0.0994
  694SOL    HW1 2081   1.533   1.122   1.658  0.6427 -4.1322 -1.3533
  694SOL    HW2 2082   1.387   1.176   1.719  0.2552  1.2516  2.7516
  695SOL     OW 2083   0.571   1.116   1.127  0.4257 -0.0379  0.4199
  695SOL    HW1 2084   0.470   1.119   1.122  0.5400 -0.9546  0.4575
  695SOL    HW2 2085   0.613   1.200   1.169  0.5201 -0.1416  0.8986
  696SOL     OW 2086   1.503   2.992   0.744  0.0206  0.3743 -0.3056
  696SOL    HW1 2087   1.455   3.050   0.675  0.6792  0.3637  1.3338
  696SOL    HW2 2088   1.551   3.053   0.810  0.9523 -0.1099 -0.7070
  697SOL     OW 2089   1.447   0.224   1.669  0.4910 -0.1226 -0.1254
  697SOL    HW1 2090   1.430   0.259   1.761  1.3338  1.6459  1.8347
  697SOL    HW2 2091   1.430   0.123   1.665 -0.3273  2.1857 -1.1379
  698SOL     OW 2092   2.069   1.205   2.048 -0.1528  0.1492  0.6590
  698SOL    HW1 2093   2.021   1.110   2.050  0.8179 -0.9532 -0.6481
  698SOL    HW2 2094   2.031   1.280   2.112  0.0347  3.2087  2.2138
  699SOL     OW 2095   2.124   0.268   1.548 -0.1805 -0.5500  0.5041
  699SOL    HW1 2096   2.160   0.358   1.583  0.1137 -0.1561  0.3477
  699SOL    HW2 2097   2.116   0.204   1.625  2.1761  2.1508 -0.8066
  700SOL     OW 2098   0.843   2.121   0.417 -0.2128 -0.3432  0.0597
  700SOL    HW1 2099   0.791   2.036   0.417  1.1891  1.2610  0.5983
  700SOL    HW2 2100   0.823   2.181   0.499  1.1772  2.6872  0.1533
  701SOL     OW 2101   2.338   2.713   2.642 -0.1485 -0.5070  0.3661
  701SOL    HW1 2102   2.273   2.755   2.574 -0.0119 -0.4715 -1.5388
  701SOL    HW2 2103   2.283   2.693   2.731 -1.3506  0.0501  1.1033
  702SOL     OW 2104   0.977   0.075   1.135  0.6595  0.2640 -0.2441
  702SOL    HW1 2105   0.941   3.093   1.077 -0.4567 -0.5730 -2.1267
  702SOL    HW2 2106   1.074   0.089   1.124 -4.6994 -2.8186  0.7943
  703SOL     OW 2107   2.210   0.269   2.360  0.4356  0.4652  0.1670
  703SOL    HW1 2108   2.271   0.229   2.434 -0.7587  0.1093  1.7074
  703SOL    HW2 2109   2.231   0.366   2.335  2.0487 -1.3876  2.4855
  704SOL     OW 2110   2.926   2.203   0.380  0.0530 -0.4528 -0.3352
  704SOL    HW1 2111   2.954   2.262   0.459  0.1659  1.2032  2.6390
  704SOL    HW2 2112   2.950   2.109   0.403 -1.0500 -2.1560  1.1123
  705SOL     OW 2113   2.524   0.341   1.910  0.1620  0.2068 -0.0077
  705SOL    HW1 2114   2.532   0.339   1.804  1.0581  0.4340 -0.2709
  705SOL    HW2 2115   2.575   0.260   1.948 -0.1740  0.6006  1.8390
  706SOL     OW 2116   2.211   2.930   1.132  0.3557  0.7050  0.0007
  706SOL    HW1 2117   2.252   2.854   1.188 -0.5030 -2.1961  1.1410
  706SOL    HW2 2118   2.259   3.016   1.142 -0.6816 -0.6692  1.3459
  707SOL     OW 2119   0.807   2.873   2.440 -0.4732 -0.0753 -0.1523
  707SOL    HW1 2120   0.814   2.822   2.350 -0.3030 -2.4743  1.0076
  707SOL    HW2 2121   0.791   2.974   2.422 -1.8595  0.9064  0.2728
  708SOL     OW 2122   2.922   2.370   1.771 -0.2592 -0.1346 -0.1593
  708SOL    HW1 2123   2.909   2.428   1.850  1.7870 -0.5816  0.1458
  708SOL    HW2 2124   3.008   2.400   1.727  0.6883  1.8332  0.4446
  709SOL     OW 2125   1.799   0.497   1.599  0.5042  0.5813  0.6222
  709SOL    HW1 2126   1.846   0.480   1.508 -1.0105 -0.6671 -1.5858
  709SOL    HW2 2127   1.877   0.509   1.663 -2.2288 -0.6535 -1.9821
  710SOL     OW 2128   1.078   0.089   2.677 -0.2575 -0.9200  0.2456
  710SOL    HW1 2129   1.061   0.005   2.621  1.9805  0.4870 -1.6430
  710SOL    HW2 2130   1.161   0.134   2.632  2.9559  1.4741  0.7335
  711SOL     OW 2131   0.616   1.826   2.704 -0.3931 -0.3673  0.0275
  711SOL    HW1 2132   0.578   1.919   2.722 -0.8225 -0.7846 -0.0544
  711SOL    HW2 2133   0.679   1.800   2.785  0.2187  1.9669  0.2446
  712SOL     OW 2134   0.995   2.038   3.017 -0.1498 -0.0631 -0.1755
  712SOL    HW1 2135   0.957   1.970   3.085  1.6715 -0.3385 -1.3297
  712SOL    HW2 2136   1.090   2.010   2.986  2.4574 -2.6023 -0.5626
  713SOL     OW 2137   1.948   0.818   2.550 -0.2769 -0.4192  0.2951
  713SOL    HW1 2138   1.978   0.899   2.493  0.6343  2.3143 -1.6586
  713SOL    HW2 2139   1.929   0.849   2.642  1.1355  0.7297 -1.6290
  714SOL     OW 2140   1.343   1.818   1.905 -0.6754  0.0299  0.1167
  714SOL    HW1 2141   1.323   1.860   1.996  0.9179 -0.1914  0.3876
  714SOL    HW2 2142   1.264   1.815   1.836 -2.5442 -0.0083 -0.2400
  715SOL     OW 2143   1.959   0.225   2.913 -0.2225 -0.3328  0.5886
  715SOL    HW1 2144   2.001   0.297   2.971  1.1907 -2.2406 -1.9600
  715SOL    HW2 2145   2.002   0.219   2.817 -1.7818  2.4620  1.7912
  716SOL     OW 2146   2.742   2.430   1.511  0.5131  0.6419 -0.2097
  716SOL    HW1 2147   2.729   2.449   1.611  0.6646  0.0641 -0.6023
  716SOL    HW2 2148   2.842   2.438   1.487  1.0558  1.1947  0.0615
  717SOL     OW 2149   2.519   1.064   0.822  0.6170 -0.1548  0.5432
  717SOL    HW1 2150   2.438   1.019   0.861  3.0027  3.2349  2.0567
  717SOL    HW2 2151   2.503   1.087   0.725  0.9614 -1.5424  1.8424
  718SOL     OW 2152   1.537   1.702   1.599  0.5058 -0.1120 -0.1055
  718SOL    HW1 2153   1.636   1.688   1.605 -0.0643  0.1636 -3.3643
  718SOL    HW2 2154   1.514   1.790   1.640  2.5458  0.2464 -1.7532
  719SOL     OW 2155   2.684   0.383   0.014 -0.2282  0.0918 -0.3426
  719SOL    HW1 2156   2.667   0.467   3.052  1.9750  1.2042 -0.3339
  719SOL    HW2 2157   2.786   0.379   0.033 -3.8501 -0.0791  0.9015
  720SOL     OW 2158   0.706   0.217   0.993  0.0640  0.3259  0.2111
  720SOL    HW1 2159   0.634   0.286   0.968  1.0686 -1.0244  0.4750
  720SOL    HW2 2160   0.749   0.188   0.908  1.0226  0.0801  1.8547
  721SOL     OW 2161   2.501   0.781   0.549  0.5399  0.6559 -0.0397
  721SOL    HW1 2162   2.499   0.705   0.485 -1.2835  3.5886 -0.8063
  721SOL    HW2 2163   2.577   0.849   0.533  1.1683  0.8208  0.3992
  722SOL     OW 2164   0.636   2.513   2.375 -0.1044  0.1900  0.4109
  722SOL    HW1 2165   0.630   2.411   2.389  3.9348 -0.3073 -0.4380
  722SOL    HW2 2166   0.613   2.535   2.280  0.3099 -1.9347  0.7714
  723SOL     OW 2167   1.601   0.223   0.461  0.7289 -0.4939  0.0097
  723SOL    HW1 2168   1.684   0.169   0.483  0.0168 -0.5604  0.0492
  723SOL    HW2 2169   1.598   0.311   0.516  1.1242 -1.1803 -1.1892
  724SOL     OW 2170   1.007   1.863   2.219  0.0689  0.7263  0.2490
  724SOL    HW1 2171   0.973   1.950   2.261  0.1077  2.0707  0.2599
  724SOL    HW2 2172   0.942   1.830   2.146 -0.2453  1.7286 -1.4019
  725SOL     OW 2173   1.542   0.087   1.348 -0.1368  0.2668 -0.0995
  725SOL    HW1 2174   1.442   0.068   1.327 -2.7440  0.2808  0.0338
  725SOL    HW2 2175   1.582   0.019   1.411 -0.1403  0.6520  0.4290
  726SOL     OW 2176   2.421   2.862   0.407 -0.2825  0.5683  0.0290
  726SOL    HW1 2177   2.456   2.958   0.396  0.7810  0.9951  0.6430
  726SOL    HW2 2178   2.476   2.794   0.358 -1.2486  0.0818  1.8797
  727SOL     OW 2179   1.269   2.123   0.954 -0.0085  0.1728  0.3072
  727SOL    HW1 2180   1.341   2.088   0.890  0.8343 -0.9347  1.3271
  727SOL    HW2 2181   1.222   2.210   0.924 -1.9892 -1.1999  0.0852
  728SOL     OW 2182   2.317   2.676   2.226  0.2598 -0.3887 -0.1784
  728SOL    HW1 2183   2.311   2.673   2.126 -0.2759 -2.1762 -0.0282
  728SOL    HW2 2184   2.233   2.714   2.275 -2.5930  3.9598 -1.1931
  729SOL     OW 2185   1.796   2.180   1.532 -0.4815  0.5063 -0.6895
  729SOL    HW1 2186   1.769   2.264   1.481  1.5311  0.2848  0.3658
  729SOL    HW2 2187   1.735   2.103   1.502 -1.1029 -0.4579  1.4342
  730SOL     OW 2188   1.557   0.823   2.902  0.0378 -0.0043 -0.2279
  730SOL    HW1 2189   1.454   0.830   2.898  0.8688 -1.9804  1.3202
  730SOL    HW2 2190   1.587   0.744   2.844 -0.6532  2.7059  0.3826
  731SOL     OW 2191   0.856   0.041   1.375  0.6781  0.2473 -0.4555
  731SOL    HW1 2192   0.901   0.039   1.284  3.7493  0.3641 -0.7239
  731SOL    HW2 2193   0.897   3.064   1.436  0.1502  2.1842  0.7947
  732SOL     OW 2194   1.359   0.225   0.990 -0.1507 -0.2452  0.7585
  732SOL    HW1 2195   1.289   0.243   0.918  0.0010 -0.1575  1.8428
  732SOL    HW2 2196   1.449   0.191   0.957  2.1930  1.0144  1.7452
  733SOL     OW 2197   0.896   1.317   1.032  0.4713 -0.5107 -0.2400
  733SOL    HW1 2198   0.912   1.219   1.008  0.1661  2.3523 -2.0012
  733SOL    HW2 2199   0.799   1.328   1.069 -1.7552  2.8345 -0.5073
  734SOL     OW 2200   2.996   2.504   2.659  0.7192 -0.1081 -0.5792
  734SOL    HW1 2201   2.896   2.481   2.642  0.9910 -1.8566  0.1105
  734SOL    HW2 2202   3.003   2.601   2.684  0.4906  1.4015  1.3101
  735SOL     OW 2203   0.980   2.939   1.527  0.0565 -0.1162  0.4989
  735SOL    HW1 2204   1.039   2.872   1.477 -1.6842  3.6870 -3.1952
  735SOL    HW2 2205   0.896   2.894   1.574 -2.0437 -2.2255  2.1114
  736SOL     OW 2206   1.708   1.800   2.974 -0.0836  0.3360 -0.0817
  736SOL    HW1 2207   1.672   1.785   2.881  3.8017 -0.2120  2.4590
  736SOL    HW2 2208   1.698   1.894   3.011  1.2757  0.0243  1.9181
  737SOL     OW 2209   0.224   2.102   1.333  0.1378  0.0206  0.5653
  737SOL    HW1 2210   0.245   2.091   1.233 -1.2769 -1.6449 -2.3253
  737SOL    HW2 2211   0.124   2.096   1.328  0.9271 -0.5203 -1.2297
  738SOL     OW 2212   1.897   2.440   2.903  0.4028  0.5763  0.4713
  738SOL    HW1 2213   1.831   2.518   2.894 -0.4812  1.1624  0.3495
  738SOL    HW2 2214   1.923   2.435   3.004  1.0784  0.4271 -1.6184
  739SOL     OW 2215   1.226   2.221   2.505 -0.3544 -0.1488  0.6041
  739SOL    HW1 2216   1.288   2.293   2.536  1.9305 -2.8730  0.5183
  739SOL    HW2 2217   1.252   2.138   2.563 -0.2178  1.0297 -0.2054
  740SOL     OW 2218   1.266   2.628   1.076  0.5185 -0.6309 -0.4814
  740SOL    HW1 2219   1.267   2.573   0.991 -1.3612  1.0395 -3.0718
  740SOL    HW2 2220   1.270   2.723   1.043 -2.7595 -0.2654  0.1355
  741SOL     OW 2221   2.862   1.032   0.171 -0.1538  0.2555 -0.0747
  741SOL    HW1 2222   2.824   1.079   0.250  2.7717 -1.1168  1.8013
  741SOL    HW2 2223   2.961   1.060   0.151 -1.3818 -0.6751  0.4715
  742SOL     OW 2224   0.931   1.578   2.463 -0.1827  0.4856  0.2673
  742SOL    HW1 2225   1.021   1.597   2.415 -1.3869 -1.5979  1.4378
  742SOL    HW2 2226   0.870   1.663   2.452 -3.0857  0.9160  0.4616
  743SOL     OW 2227   0.997   0.883   2.244  0.1811  0.2219 -0.0022
  743SOL    HW1 2228   0.931   0.882   2.323 -1.5608 -0.2906  2.7079
  743SOL    HW2 2229   1.038   0.791   2.228 -0.3323  1.4631  2.0194
  744SOL     OW 2230   2.073   2.680   1.578  0.0852 -0.2998 -0.9378
  744SOL    HW1 2231   1.972   2.679   1.599  0.7600  0.7904  1.5019
  744SOL    HW2 2232   2.112   2.771   1.596 -0.6275  1.8552 -3.2245
  745SOL     OW 2233   1.724   1.435   1.352  0.0683 -0.5743 -0.1813
  745SOL    HW1 2234   1.640   1.468   1.403 -3.5187 -2.5295 -0.4922
  745SOL    HW2 2235   1.806   1.433   1.413  2.3887 -1.3135  2.2931
  746SOL     OW 2236   1.759   0.784   0.797 -0.2167 -0.4763  0.0925
  746SOL    HW1 2237   1.838   0.854   0.803 -2.0308  2.7248 -1.7150
  746SOL    HW2 2238   1.731   0.770   0.894 -0.6197 -0.9046  1.1837
  747SOL     OW 2239   2.169   1.709   0.925  0.5221  0.1912 -0.5140
  747SOL    HW1 2240   2.176   1.702   0.824  2.5909  1.8461 -0.3000
  747SOL    HW2 2241   2.084   1.667   0.951 -0.1818 -0.5953  1.3129
  748SOL     OW 2242   0.264   1.476   0.107 -0.0975  0.8256 -0.3482
  748SOL    HW1 2243   0.289   1.551   0.041 -0.7423  0.5091  0.0625
  748SOL    HW2 2244   0.253   1.516   0.202 -1.4948 -1.4141  0.9881
  749SOL     OW 2245   0.074   2.297   2.546  0.0386  0.1205 -0.2439
  749SOL    HW1 2246   0.075   2.194   2.545 -1.6480 -1.9744  2.7174
  749SOL    HW2 2247   3.071   2.326   2.570 -0.4040 -1.0634 -1.6327
  750SOL     OW 2248   2.107   0.711   1.044  0.1584 -0.4589 -0.2072
  750SOL    HW1 2249   2.205   0.674   1.051 -0.5789  0.0624  0.2100
  750SOL    HW2 2250   2.080   0.763   1.125  0.6486 -0.6151 -1.5653
  751SOL     OW 2251   2.837   3.048   0.330  0.4361  0.1532 -0.5745
  751SOL    HW1 2252   2.834   3.036   0.228  1.2673  0.4608 -1.6010
  751SOL    HW2 2253   2.842   2.951   0.364  0.3428 -3.2473 -0.5852
  752SOL     OW 2254   2.478   2.659   0.576  0.5506  0.3089 -0.5084
  752SOL    HW1 2255   2.432   2.734   0.524  1.3314 -0.2269  1.1830
  752SOL    HW2 2256   2.452   2.564   0.554  1.2323  1.6607 -0.6971
  753SOL     OW 2257   1.962   1.435   2.159  0.7792  0.0533  0.1526
  753SOL    HW1 2258   2.046   1.455   2.211 -0.6347  0.3035 -0.6513
  753SOL    HW2 2259   1.950   1.499   2.079  0.6661  1.4435 -1.2962
  754SOL     OW 2260   2.307   2.295   1.498 -0.9211  0.0674 -0.3846
  754SOL    HW1 2261   2.358   2.207   1.479  1.8639  1.5452  0.0134
  754SOL    HW2 2262   2.285   2.295   1.600  0.9574 -2.1423  0.0677
  755SOL     OW 2263   2.373   0.788   1.177  0.2878 -0.5610 -0.2613
  755SOL    HW1 2264   2.373   0.702   1.130 -0.8889  0.0558  1.3563
  755SOL    HW2 2265   2.361   0.773   1.276 -0.4454  0.6761 -1.7572
  756SOL     OW 2266   1.080   1.401   2.898 -0.1516 -0.3037 -0.0392
  756SOL    HW1 2267   1.109   1.331   2.829 -0.5829  0.1456 -1.2333
  756SOL    HW2 2268   0.981   1.396   2.928 -0.3080  1.0567 -1.4403
  757SOL     OW 2269   1.807   2.617   1.106  0.0423  0.4094  0.3185
  757SOL    HW1 2270   1.878   2.691   1.131 -0.6994  2.4772  1.4371
  757SOL    HW2 2271   1.714   2.647   1.127  2.0921 -3.0256 -1.6467
  758SOL     OW 2272   0.892   2.431   1.283 -0.6066  0.6161  0.0436
  758SOL    HW1 2273   0.926   2.468   1.371 -2.7584  1.9576 -0.2765
  758SOL    HW2 2274   0.954   2.354   1.253 -0.4360  2.7471 -0.3454
  759SOL     OW 2275   2.170   1.218   0.983  0.1519 -0.0950  0.6629
  759SOL    HW1 2276   2.255   1.271   0.978  0.8020 -0.1581  0.6025
  759SOL    HW2 2277   2.092   1.262   0.929 -2.1554 -1.3474  2.7590
  760SOL     OW 2278   2.155   0.969   1.427 -0.2322 -0.3290 -0.1086
  760SOL    HW1 2279   2.081   0.914   1.382  1.7751 -3.1577  2.7487
  760SOL    HW2 2280   2.151   1.072   1.405  1.9254 -0.5439  1.0527
  761SOL     OW 2281   2.165   2.900   0.458 -0.1360  0.0536  0.2781
  761SOL    HW1 2282   2.110   2.930   0.376 -0.9905  0.7817 -1.2627
  761SOL    HW2 2283   2.264   2.884   0.428 -1.2331 -1.4575 -1.2080
  762SOL     OW 2284   1.945   1.488   2.846 -0.5394  0.2884  0.6979
  762SOL    HW1 2285   1.977   1.525   2.755  1.8392 -2.3969  0.9587
  762SOL    HW2 2286   1.947   1.557   2.922  2.4343 -0.9278  0.2864
  763SOL     OW 2287   0.552   1.808   1.470  0.0333 -0.1247  0.1899
  763SOL    HW1 2288   0.487   1.887   1.459 -0.6468 -3.0477  0.4604
  763SOL    HW2 2289   0.586   1.812   1.567 -3.6022  1.2908 -0.8830
  764SOL     OW 2290   0.101   2.289   3.074 -0.2053 -0.6250 -0.2149
  764SOL    HW1 2291   0.034   2.284   0.059 -0.5031 -1.5737  2.6117
  764SOL    HW2 2292   0.090   2.373   3.016 -0.3281 -1.6783 -0.8521
  765SOL     OW 2293   0.577   0.089   1.529  0.4584  0.0721  0.3150
  765SOL    HW1 2294   0.659   0.142   1.499  0.0099  2.8232 -1.3885
  765SOL    HW2 2295   0.580   0.073   1.629  2.7073 -0.2554  0.4119
  766SOL     OW 2296   0.021   1.898   2.232 -0.0984 -0.3219 -0.3865
  766SOL    HW1 2297   3.060   1.981   2.205 -0.9022 -1.4040 -2.6049
  766SOL    HW2 2298   3.090   1.860   2.323  1.3259  1.4515  0.0803
  767SOL     OW 2299   0.006   1.255   1.863  0.1399  0.2625  0.0436
  767SOL    HW1 2300   0.050   1.203   1.937 -1.2961 -2.0710  1.3040
  767SOL    HW2 2301   0.015   1.200   1.778  1.0993 -0.4899  1.9926
  768SOL     OW 2302   0.875   0.325   2.809  0.2927 -0.6086  0.2234
  768SOL    HW1 2303   0.885   0.297   2.906  0.3605 -1.3211  1.2430
  768SOL    HW2 2304   0.780   0.331   2.777  0.1430 -2.4950  0.7286
  769SOL     OW 2305   2.211   2.598   0.858 -0.0337  0.2029 -0.1865
  769SOL    HW1 2306   2.301   2.633   0.887 -1.3952  0.3966 -0.8675
  769SOL    HW2 2307   2.169   2.650   0.780  0.4346 -0.0126 -1.9089
  770SOL     OW 2308   2.794   0.048   2.864  0.0175 -0.5888  0.4108
  770SOL    HW1 2309   2.724   0.081   2.927  3.1249 -1.6151 -2.3800
  770SOL    HW2 2310   2.753   0.005   2.786  2.6707 -0.6121  3.1047
  771SOL     OW 2311   1.855   2.230   1.838  0.8404 -0.1160  0.4133
  771SOL    HW1 2312   1.915   2.179   1.775  0.8519  0.4284 -0.7311
  771SOL    HW2 2313   1.762   2.245   1.800 -1.1621 -1.2662  1.6719
  772SOL     OW 2314   1.172   0.235   0.078 -0.0807  0.1188  0.0441
  772SOL    HW1 2315   1.181   0.261   0.174 -0.6294 -4.0200 -1.2953
  772SOL    HW2 2316   1.088   0.278   0.039 -1.7045  1.7759  1.8371
  773SOL     OW 2317   3.093   0.851   1.723 -0.2793 -0.1471 -0.3483
  773SOL    HW1 2318   3.050   0.849   1.815 -1.4478  1.6282 -1.8102
  773SOL    HW2 2319   0.056   0.929   1.702 -2.5254 -3.5424  1.0854
  774SOL     OW 2320   1.095   0.887   0.391 -0.2422  0.1357  0.1365
  774SOL    HW1 2321   1.090   0.978   0.340 -0.2144  2.7641  0.5661
  774SOL    HW2 2322   1.081   0.917   0.488 -1.4201 -0.9625  1.1340
  775SOL     OW 2323   2.774   3.058   0.070 -0.0582  0.0916 -0.4757
  775SOL    HW1 2324   2.689   0.009   0.029 -1.9619 -0.2568 -5.1842
  775SOL    HW2 2325   2.771   2.958   0.039 -3.4547  1.9281 -1.5279
  776SOL     OW 2326   2.282   0.968   2.156 -0.2319 -0.5504 -0.1180
  776SOL    HW1 2327   2.261   1.032   2.075 -0.9003  0.0572 -0.3580
  776SOL    HW2 2328   2.376   0.925   2.144  1.5865 -0.7309 -0.2381
  777SOL     OW 2329   2.991   1.200   2.754 -0.1917 -0.3252 -0.0076
  777SOL    HW1 2330   3.033   1.184   2.663 -0.5719 -1.4908  0.6334
  777SOL    HW2 2331   2.924   1.280   2.756 -1.5866  1.0207  3.3593
  778SOL     OW 2332   0.677   0.362   0.329 -0.1379  0.2958  0.1826
  778SOL    HW1 2333   0.743   0.436   0.300 -2.3260  1.4229  0.1129
  778SOL    HW2 2334   0.705   0.270   0.291 -2.8984 -1.3099 -0.4477
  779SOL     OW 2335   0.438   0.623   2.760 -0.7124  0.0855  0.5826
  779SOL    HW1 2336   0.524   0.673   2.785  0.7761  0.4439  2.7819
  779SOL    HW2 2337   0.358   0.678   2.780  0.4222 -1.5248  0.4954
  780SOL     OW 2338   1.633   0.685   2.700  0.0063  0.0168 -0.2806
  780SOL    HW1 2339   1.563   0.622   2.658  0.1727 -0.6867 -0.9454
  780SOL    HW2 2340   1.723   0.640   2.707 -1.4622 -0.0156  0.8456
  781SOL     OW 2341   0.144   1.084   1.638 -0.2611  0.7136  0.6124
  781SOL    HW1 2342   0.232   1.055   1.684 -0.6982  0.9142 -0.4599
  781SOL    HW2 2343   0.136   1.186   1.632 -1.1398  0.3781  0.3372
  782SOL     OW 2344   0.750   1.778   2.963 -0.4082 -0.0806  0.2595
  782SOL    HW1 2345   0.709   1.838   3.037  1.0623  1.5359  1.4529
  782SOL    HW2 2346   0.837   1.736   3.001  1.9992 -1.1777  0.5085
  783SOL     OW 2347   0.954   2.602   1.700  0.2869  0.3348 -0.4938
  783SOL    HW1 2348   0.865   2.641   1.667  0.9095 -2.9595 -2.1406
  783SOL    HW2 2349   1.012   2.570   1.625  0.1160 -0.2650  0.5841
  784SOL     OW 2350   1.388   0.174   3.014  0.4437 -0.4124 -0.2462
  784SOL    HW1 2351   1.303   0.178   3.075  0.3964 -0.4923  0.3275
  784SOL    HW2 2352   1.396   0.265   2.966  0.5826 -0.4472  1.5747
  785SOL     OW 2353   1.224   0.444   2.127  0.0736 -0.0846  0.1256
  785SOL    HW1 2354   1.159   0.371   2.167 -1.0899 -1.2270 -1.9399
  785SOL    HW2 2355   1.318   0.422   2.156 -0.8498 -3.8961  0.7810
  786SOL     OW 2356   0.663   1.882   0.466 -0.1956 -0.3622 -0.0928
  786SOL    HW1 2357   0.631   1.822   0.389  1.0548 -0.9479  0.1660
  786SOL    HW2 2358   0.595   1.954   0.477  1.5233 -1.5383  3.5908
  787SOL     OW 2359   1.456   0.792   0.161 -0.1478 -0.2962 -0.4567
  787SOL    HW1 2360   1.461   0.810   0.063  0.3023  0.0915  3.6563
  787SOL    HW2 2361   1.412   0.868   0.214 -0.3654  0.3404  0.7831
  788SOL     OW 2362   2.169   1.477   1.263  0.2860 -0.1847 -0.2809
  788SOL    HW1 2363   2.236   1.467   1.190 -2.5811  0.1809 -0.4878
  788SOL    HW2 2364   2.214   1.506   1.352 -0.6688 -1.7116  1.3180
  789SOL     OW 2365   0.072   1.510   1.936 -0.1377  0.1174 -0.2105
  789SOL    HW1 2366   0.120   1.494   2.023  1.2949 -0.5971  1.1852
  789SOL    HW2 2367   0.048   1.419   1.896  1.8977  0.8481  1.6305
  790SOL     OW 2368   0.627   2.984   0.143 -0.1757  0.1461 -0.2364
  790SOL    HW1 2369   0.568   2.899   0.161 -1.7213 -3.7145  0.7050
  790SOL    HW2 2370   0.650   3.017   0.236 -1.0376 -0.7667  1.6913
  791SOL     OW 2371   0.289   0.435   0.065  0.1617  0.3663  0.4491
  791SOL    HW1 2372   0.331   0.450   0.159 -0.9725 -1.3754  0.4242
  791SOL    HW2 2373   0.310   0.338   0.028  3.1614 -3.3269  2.0621
  792SOL     OW 2374   1.685   0.536   2.356  0.1760  0.3166 -0.5727
  792SOL    HW1 2375   1.689   0.474   2.440  0.1549 -4.5840  1.5532
  792SOL    HW2 2376   1.771   0.589   2.344  1.7549 -0.8117 -0.7128
  793SOL     OW 2377   3.035   0.491   0.623  0.4451  0.1348 -0.3087
  793SOL    HW1 2378   3.065   0.582   0.594  0.1892  2.0167  0.2166
  793SOL    HW2 2379   3.046   0.493   0.725 -0.4157 -2.2256  1.3356
  794SOL     OW 2380   0.279   0.549   1.569  0.1514  0.5892 -0.9614
  794SOL    HW1 2381   0.328   0.624   1.521 -0.1648  3.0766 -0.0772
  794SOL    HW2 2382   0.316   0.464   1.540 -2.8860  1.5029 -1.3919
  795SOL     OW 2383   0.024   1.081   0.090  0.1066 -0.3830  0.5022
  795SOL    HW1 2384   0.078   1.134   0.163 -0.4745  2.9416 -0.5953
  795SOL    HW2 2385   0.062   1.099   3.092 -0.3456  0.9024 -0.2452
  796SOL     OW 2386   0.288   0.735   0.146 -0.0780  0.5337  0.1121
  796SOL    HW1 2387   0.310   0.642   0.172  2.6949 -0.4017 -1.6085
  796SOL    HW2 2388   0.191   0.738   0.114  1.0503  0.5766 -1.9627
  797SOL     OW 2389   1.573   2.595   0.186 -0.0684 -0.3499  0.4566
  797SOL    HW1 2390   1.594   2.695   0.171  0.3428  3.2104 -1.3013
  797SOL    HW2 2391   1.521   2.562   0.105  0.5795  0.5670  2.1200
  798SOL     OW 2392   2.892   0.579   1.167  0.2366  0.0363 -0.3625
  798SOL    HW1 2393   2.930   0.487   1.178  1.6352  2.3191 -0.1241
  798SOL    HW2 2394   2.824   0.596   1.092 -2.2162  0.9818  1.4046
  799SOL     OW 2395   2.448   0.733   1.951  0.4419  0.0539  0.2439
  799SOL    HW1 2396   2.492   0.777   2.030  0.5163  1.4301  0.4419
  799SOL    HW2 2397   2.492   0.765   1.863 -0.0826  0.5494 -3.1559
  800SOL     OW 2398   0.344   1.867   0.452  0.1773 -0.1233  0.3423
  800SOL    HW1 2399   0.243   1.865   0.476 -2.5630  1.3564 -1.7920
  800SOL    HW2 2400   0.388   1.949   0.500 -0.3190 -2.1096  1.4562
  801SOL     OW 2401   1.475   2.054   0.792  0.3878  0.4591 -0.2547
  801SOL    HW1 2402   1.499   1.993   0.713  0.0795  0.4140  1.4784
  801SOL    HW2 2403   1.521   2.020   0.877  1.1639 -1.0848  1.6701
  802SOL     OW 2404   1.206   1.592   2.735 -0.0902 -0.0567 -0.2402
  802SOL    HW1 2405   1.140   1.525   2.770  3.1075  1.4990 -0.7815
  802SOL    HW2 2406   1.303   1.556   2.725 -0.3827 -0.5121 -1.3653
  803SOL     OW 2407   3.033   2.064   1.615 -0.5650 -0.3042 -0.1979
  803SOL    HW1 2408   3.014   2.115   1.528 -0.8688 -1.1041 -2.8697
  803SOL    HW2 2409   0.023   2.112   1.662  2.4069  0.1433  1.5055
  804SOL     OW 2410   1.315   2.547   1.360  0.4799  0.2846  0.2844
  804SOL    HW1 2411   1.412   2.515   1.356  0.9215 -1.0124  0.9903
  804SOL    HW2 2412   1.282   2.553   1.261 -2.4982  0.4620 -1.6954
  805SOL     OW 2413   2.268   2.141   2.708  0.0804 -0.0541  0.3069
  805SOL    HW1 2414   2.311   2.229   2.734 -2.5730  0.6902 -0.1081
  805SOL    HW2 2415   2.327   2.083   2.651 -3.5122  2.5274  0.2541
  806SOL     OW 2416   2.168   0.040   0.583 -0.3680  0.5355 -0.1631
  806SOL    HW1 2417   2.164   0.011   0.680 -0.7261 -0.1676 -0.7398
  806SOL    HW2 2418   2.169   3.052   0.522 -1.6037  1.5945  1.7934
  807SOL     OW 2419   2.641   0.943   2.744 -0.1939  0.3035 -0.1600
  807SOL    HW1 2420   2.625   0.842   2.729 -3.8909 -1.2224 -2.5619
  807SOL    HW2 2421   2.558   0.993   2.712 -0.3210  1.7329 -0.9398
  808SOL     OW 2422   0.763   1.244   0.486 -0.4380  0.1415 -0.2173
  808SOL    HW1 2423   0.739   1.238   0.386 -1.1125  1.2683  0.2031
  808SOL    HW2 2424   0.760   1.341   0.514  2.8400 -2.4652  0.5819
  809SOL     OW 2425   2.738   0.535   1.965 -0.0029 -0.6589 -0.2889
  809SOL    HW1 2426   2.652   0.483   1.956  1.2546 -0.6617  2.6278
  809SOL    HW2 2427   2.768   0.547   1.868  0.7142 -0.5751 -2.9847
  810SOL     OW 2428   1.124   0.504   1.198 -0.2484 -0.1829  0.0790
  810SOL    HW1 2429   1.059   0.431   1.169 -1.1610  3.6063 -2.4432
  810SOL    HW2 2430   1.220   0.486   1.156  0.2279  0.7347 -2.3814
  811SOL     OW 2431   2.338   0.028   1.756  0.1368 -0.2182  0.1856
  811SOL    HW1 2432   2.256   0.084   1.780  0.8779 -0.0982 -1.4886
  811SOL    HW2 2433   2.399   0.021   1.838  1.9489  0.9615  0.8547
  812SOL     OW 2434   1.626   2.058   3.081 -0.3338  1.0877  0.4101
  812SOL    HW1 2435   1.536   2.053   0.034 -0.1773 -3.8551 -1.8488
  812SOL    HW2 2436   1.704   2.070   0.055  2.0934 -2.0314 -1.4435
  813SOL     OW 2437   1.164   0.630   1.665  0.1323 -0.0949  0.4740
  813SOL    HW1 2438   1.128   0.548   1.624  2.0976  1.8664 -1.1911
  813SOL    HW2 2439   1.246   0.669   1.619 -0.5403  2.4678  0.4939
  814SOL     OW 2440   0.372   0.380   1.202 -0.6896 -0.2017  0.1976
  814SOL    HW1 2441   0.419   0.437   1.272  1.9454  0.7989  0.7382
  814SOL    HW2 2442   0.392   0.281   1.211 -0.9165  0.5367 -0.6745
  815SOL     OW 2443   0.557   0.345   0.573 -0.3820  0.1320  0.6964
  815SOL    HW1 2444   0.599   0.348   0.480 -3.0742 -3.4007  2.7520
  815SOL    HW2 2445   0.460   0.337   0.564  1.4439  0.3464  0.8165
  816SOL     OW 2446   2.188   1.434   2.378  0.0925 -0.3705  0.0754
  816SOL    HW1 2447   2.255   1.357   2.385  2.7482 -2.5079  0.5839
  816SOL    HW2 2448   2.238   1.522   2.384 -3.1209 -0.1683  0.9507
  817SOL     OW 2449   1.100   2.713   0.690 -0.0119 -0.0050  0.5334
  817SOL    HW1 2450   1.103   2.611   0.674  1.9123  0.4247  0.8196
  817SOL    HW2 2451   1.166   2.759   0.625  0.6773  0.9267 -0.3483
  818SOL     OW 2452   1.646   0.538   2.960  0.3409  0.2197  0.1308
  818SOL    HW1 2453   1.674   0.601   3.040  2.4934  1.3385  2.6445
  818SOL    HW2 2454   1.727   0.527   2.905 -3.5045  1.3605  0.8381
  819SOL     OW 2455   1.799   0.062   3.093 -0.3224  0.4743  0.1021
  819SOL    HW1 2456   1.855   3.067   3.086 -1.1692 -1.3682 -1.8658
  819SOL    HW2 2457   1.843   0.141   3.040 -3.5303 -0.5546  0.3093
  820SOL     OW 2458   1.943   0.544   3.046  0.0388 -0.1332  0.5489
  820SOL    HW1 2459   1.937   0.637   3.079  1.8135 -0.8107  0.5274
  820SOL    HW2 2460   2.033   0.532   2.995  2.7000 -1.0096 -0.2370
  821SOL     OW 2461   2.753   0.435   0.681 -0.0766  0.4879  0.4042
  821SOL    HW1 2462   2.851   0.447   0.657 -1.1301  0.4002  0.7164
  821SOL    HW2 2463   2.719   0.350   0.634  0.5607 -0.3133 -1.8034
  822SOL     OW 2464   0.823   2.378   2.124  0.7937  0.1962 -0.1100
  822SOL    HW1 2465   0.759   2.456   2.100  0.7221  2.2387 -0.6392
  822SOL    HW2 2466   0.763   2.295   2.138 -0.8374 -2.2421 -0.1442
  823SOL     OW 2467   0.263   1.642   1.801  0.2794 -0.3493  0.1756
  823SOL    HW1 2468   0.349   1.653   1.858  0.5716 -1.0796  0.7444
  823SOL    HW2 2469   0.183   1.599   1.855 -1.1543 -1.4329 -2.2259
  824SOL     OW 2470   1.486   2.813   2.544  0.3816 -0.1124  0.0765
  824SOL    HW1 2471   1.561   2.743   2.556 -0.6342  1.1290 -0.3824
  824SOL    HW2 2472   1.422   2.818   2.625 -1.9338  0.2600 -2.3861
  825SOL     OW 2473   1.662   0.701   0.566  0.3184  0.0981  0.0308
  825SOL    HW1 2474   1.729   0.678   0.494  0.1529 -1.7009  2.3961
  825SOL    HW2 2475   1.709   0.720   0.655  2.0554 -0.6227 -0.1335
  826SOL     OW 2476   1.915   0.826   0.016 -0.1801  0.6047  0.4910
  826SOL    HW1 2477   1.968   0.833   0.106  0.7592 -0.3696  0.1210
  826SOL    HW2 2478   1.834   0.894   0.017 -1.4023  2.1697  0.5918
  827SOL     OW 2479   0.390   1.749   2.171 -0.4542  0.3026 -0.8509
  827SOL    HW1 2480   0.336   1.834   2.181  0.0676 -2.3436 -2.0967
  827SOL    HW2 2481   0.387   1.697   2.258 -1.9854 -0.8045  0.8388
  828SOL     OW 2482   2.386   1.323   1.561 -0.3096 -0.0032  0.4261
  828SOL    HW1 2483   2.412   1.312   1.662 -1.9919  0.5589  1.3086
  828SOL    HW2 2484   2.435   1.251   1.506  0.5936 -2.6750  0.5156
  829SOL     OW 2485   0.378   1.611   0.337  0.5037  0.2640  0.4334
  829SOL    HW1 2486   0.330   1.553   0.401 -0.3766  0.6246  2.4998
  829SOL    HW2 2487   0.366   1.710   0.359  0.4122 -1.0521  4.1370
  830SOL     OW 2488   1.344   0.854   0.735 -0.9682  0.0905  0.2341
  830SOL    HW1 2489   1.247   0.839   0.714  0.5351  0.7580 -2.2286
  830SOL    HW2 2490   1.375   0.786   0.804 -0.2250  1.9919 -1.3516
  831SOL     OW 2491   2.854   1.736   0.034 -0.5237  0.0563 -0.0943
  831SOL    HW1 2492   2.797   1.779   3.059  1.1603 -0.2005  0.1301
  831SOL    HW2 2493   2.788   1.724   0.112 -1.7161 -0.3500 -1.4501
  832SOL     OW 2494   0.934   0.325   0.015  0.1955 -0.3965  0.3728
  832SOL    HW1 2495   0.958   0.418   0.049  2.1157 -2.3180  0.1410
  832SOL    HW2 2496   0.906   0.270   0.098  1.9116 -0.3660  2.0749
  833SOL     OW 2497   0.670   0.699   2.264 -1.1163 -0.5413 -0.1467
  833SOL    HW1 2498   0.723   0.627   2.210 -1.3994  2.0681  1.3298
  833SOL    HW2 2499   0.591   0.663   2.313 -0.1583  0.0449  1.0322
  834SOL     OW 2500   0.277   0.394   0.727 -0.2760 -0.4189 -0.2943
  834SOL    HW1 2501   0.185   0.414   0.767 -1.0690  2.0750  0.4826
  834SOL    HW2 2502   0.274   0.390   0.627  0.0055  0.5232 -0.5646
  835SOL     OW 2503   2.697   2.867   1.213 -0.5990  0.4737 -0.2197
  835SOL    HW1 2504   2.700   2.942   1.281 -0.3572 -0.3287  1.5673
  835SOL    HW2 2505   2.657   2.897   1.124  0.6446  1.1859 -1.2288
  836SOL     OW 2506   0.409   1.909   0.179 -0.0052  0.0670 -0.5416
  836SOL    HW1 2507   0.353   1.985   0.141  0.0773 -0.6580  0.0145
  836SOL    HW2 2508   0.403   1.903   0.280  3.7680  0.0046  1.6326
  837SOL     OW 2509   1.712   1.413   2.249  0.1475  0.6622 -0.1021
  837SOL    HW1 2510   1.683   1.508   2.232  1.4965 -3.2250  0.2680
  837SOL    HW2 2511   1.814   1.412   2.227  0.5801  1.3000 -3.1063
  838SOL     OW 2512   0.588   0.870   1.555 -0.4377  0.0850  0.0026
  838SOL    HW1 2513   0.647   0.918   1.486  0.5087 -0.3573 -0.9792
  838SOL    HW2 2514   0.633   0.868   1.645 -2.4087  2.2707 -1.4801
  839SOL     OW 2515   0.533   1.380   0.947 -0.2417 -0.1743 -0.1291
  839SOL    HW1 2516   0.495   1.431   1.029 -0.7582 -2.2422  1.0918
  839SOL    HW2 2517   0.497   1.284   0.946 -0.3486  1.4643  0.0514
  840SOL     OW 2518   2.084   0.159   1.810 -0.0181 -0.2777  0.1113
  840SOL    HW1 2519   1.992   0.122   1.804  2.4968  0.2632 -0.2845
  840SOL    HW2 2520   2.090   0.232   1.884 -0.4676 -0.7085  0.5814
  841SOL     OW 2521   0.557   2.329   0.461 -0.2428 -0.3675 -0.0444
  841SOL    HW1 2522   0.655   2.366   0.456  0.8472  0.8560  0.4648
  841SOL    HW2 2523   0.530   2.309   0.361  0.7088  1.3733  2.2248
  842SOL     OW 2524   0.367   0.177   0.967 -0.5837 -0.6282  0.1844
  842SOL    HW1 2525   0.401   0.154   1.060 -2.1112 -0.3408 -1.1471
  842SOL    HW2 2526   0.432   0.148   0.894  2.4619 -1.6585  0.1470
  843SOL     OW 2527   0.092   1.382   3.018 -0.0501 -0.4555  0.2348
  843SOL    HW1 2528   0.155   1.410   0.001 -0.6029 -3.9585 -0.8181
  843SOL    HW2 2529   0.134   1.296   2.981  0.6146  2.6506 -2.8735
  844SOL     OW 2530   1.131   2.269   0.024 -0.0470 -0.3811 -0.3487
  844SOL    HW1 2531   1.071   2.203   3.072 -2.1712 -0.5516  0.8684
  844SOL    HW2 2532   1.193   2.313   3.053 -0.4860  0.6972  0.4340
  845SOL     OW 2533   2.652   2.934   2.389 -0.1300 -0.2264  0.3871
  845SOL    HW1 2534   2.702   2.899   2.304 -0.3762  1.3297  0.4545
  845SOL    HW2 2535   2.552   2.942   2.366 -1.9384  1.5064  0.1111
  846SOL     OW 2536   2.084   1.854   2.952 -0.5165 -0.1989 -0.6559
  846SOL    HW1 2537   2.058   1.911   2.873  1.5468 -3.5543  1.1924
  846SOL    HW2 2538   2.024   1.777   2.981 -1.5309  2.8990 -2.1180
  847SOL     OW 2539   2.598   0.150   3.033 -0.2789 -0.6293 -0.4714
  847SOL    HW1 2540   2.500   0.164   3.006  1.1089  0.1766  0.7839
  847SOL    HW2 2541   2.634   0.239   3.069  0.7283 -0.0345  2.1132
  848SOL     OW 2542   0.396   0.639   0.696  0.1419 -0.1935  0.0149
  848SOL    HW1 2543   0.470   0.667   0.760  0.6280 -1.7913 -0.4098
  848SOL    HW2 2544   0.338   0.561   0.737 -0.1649  0.4876  1.9400
  849SOL     OW 2545   1.457   2.856   1.957 -0.0001 -0.7409  0.3262
  849SOL    HW1 2546   1.447   2.827   2.054 -0.4445 -0.4043  1.6339
  849SOL    HW2 2547   1.381   2.814   1.899 -1.9437  0.3554 -0.4292
  850SOL     OW 2548   0.648   1.656   0.307  0.2038  0.3663  0.7224
  850SOL    HW1 2549   0.559   1.610   0.319  1.0487  1.0116 -2.9480
  850SOL    HW2 2550   0.707   1.609   0.241  0.6252 -0.2335 -0.9360
  851SOL     OW 2551   0.119   1.444   0.355 -0.0324  0.2223  0.4239
  851SOL    HW1 2552   0.128   1.424   0.455 -2.9688  0.3880  0.2161
  851SOL    HW2 2553   0.133   1.356   0.302  0.1002  0.3708 -1.3943
  852SOL     OW 2554   1.644   2.667   1.831 -0.2004  0.7357  0.7402
  852SOL    HW1 2555   1.566   2.611   1.789 -0.9127 -0.9224 -1.4713
  852SOL    HW2 2556   1.613   2.755   1.866 -0.5839  1.4050 -0.6038
  853SOL     OW 2557   2.779   1.348   0.082 -0.0517 -0.0670 -0.2259
  853SOL    HW1 2558   2.837   1.407   0.020 -1.4324  1.5216 -1.1097
  853SOL    HW2 2559   2.829   1.297   0.155 -0.4571  0.3561 -0.6363
  854SOL     OW 2560   1.597   1.300   2.007 -0.0876 -0.1813 -0.0444
  854SOL    HW1 2561   1.623   1.346   2.093 -1.6977  0.0358  0.4242
  854SOL    HW2 2562   1.506   1.338   1.980 -3.9110  0.9203 -0.1050
  855SOL     OW 2563   0.358   2.365   3.043  0.1803 -0.2277 -0.0700
  855SOL    HW1 2564   0.268   2.331   3.076  0.9680  1.4701 -0.5965
  855SOL    HW2 2565   0.352   2.419   2.952  1.3676  2.3122 -1.2622
  856SOL     OW 2566   0.363   0.973   1.771 -0.5065  0.4650  0.2394
  856SOL    HW1 2567   0.364   0.877   1.798  0.6247  0.6360 -0.7002
  856SOL    HW2 2568   0.443   1.000   1.713 -0.0326  1.2081 -2.7232
  857SOL     OW 2569   1.334   1.121   2.086 -0.5174 -0.7390  0.0603
  857SOL    HW1 2570   1.303   1.038   2.041 -0.8673  1.4911 -1.2811
  857SOL    HW2 2571   1.432   1.110   2.115 -0.6868  3.3501  0.7798
  858SOL     OW 2572   0.230   1.425   2.549 -0.1606 -0.7043  0.0821
  858SOL    HW1 2573   0.164   1.423   2.627 -1.6224 -1.4483 -1.6185
  858SOL    HW2 2574   0.219   1.349   2.483  1.2168 -1.5515  2.1613
  859SOL     OW 2575   2.614   2.994   0.979 -0.5248  0.2917  0.1332
  859SOL    HW1 2576   2.534   3.049   1.008  1.6566 -3.1950  0.6681
  859SOL    HW2 2577   2.689   3.064   0.971 -1.5802  3.0192  2.0608
  860SOL     OW 2578   2.245   2.985   0.007 -0.2958 -0.1540  0.2154
  860SOL    HW1 2579   2.229   3.024   0.097 -0.0864  1.2769 -4.5709
  860SOL    HW2 2580   2.331   2.933   0.006  1.6114  0.1470  0.0715
  861SOL     OW 2581   0.744   0.602   0.607 -0.0063 -0.2291 -0.2568
  861SOL    HW1 2582   0.661   0.541   0.610 -1.7113 -1.0861 -0.9457
  861SOL    HW2 2583   0.723   0.698   0.608  0.2875 -0.2885 -1.4982
  862SOL     OW 2584   1.473   0.381   2.212  0.1628 -0.0118  0.1198
  862SOL    HW1 2585   1.545   0.444   2.259 -0.1528 -0.7788 -2.7164
  862SOL    HW2 2586   1.477   0.284   2.246 -1.6784 -3.3582  0.2029
  863SOL     OW 2587   2.512   2.228   0.987 -0.2449  0.5984  0.3386
  863SOL    HW1 2588   2.432   2.280   1.024 -1.3411 -0.5168  3.1118
  863SOL    HW2 2589   2.475   2.176   0.897 -1.9692 -2.7084 -5.0412
  864SOL     OW 2590   2.651   0.107   1.978 -0.5696  0.5507  0.1778
  864SOL    HW1 2591   2.577   0.037   1.995  2.7927 -1.3688 -0.6499
  864SOL    HW2 2592   2.739   0.079   2.029 -0.2857  1.4730  0.3011
  865SOL     OW 2593   1.182   0.653   1.944  0.0544  0.5253  0.5466
  865SOL    HW1 2594   1.185   0.572   2.004  1.3539  1.9722 -2.5855
  865SOL    HW2 2595   1.203   0.630   1.847 -0.2259 -1.5050 -0.8769
  866SOL     OW 2596   1.933   2.883   1.083  0.3370 -0.1450  0.6212
  866SOL    HW1 2597   2.036   2.887   1.088 -0.0933 -0.6606  0.1185
  866SOL    HW2 2598   1.887   2.954   1.037  2.2762  0.0339  1.4528
  867SOL     OW 2599   2.708   2.350   0.727  0.1973  0.3714 -0.4268
  867SOL    HW1 2600   2.707   2.428   0.660 -0.5763  5.3134 -1.3473
  867SOL    HW2 2601   2.715   2.387   0.824 -0.3201  0.4128  0.0334
  868SOL     OW 2602   0.449   2.384   1.675 -0.5198  0.0729  0.1272
  868SOL    HW1 2603   0.363   2.386   1.623 -0.2733 -0.8019 -0.1952
  868SOL    HW2 2604   0.503   2.307   1.641  1.5573  2.3443  1.9892
  869SOL     OW 2605   2.303   2.348   3.021  0.1760 -0.1085  0.1115
  869SOL    HW1 2606   2.331   2.360   2.921 -2.9711  0.9699  2.1420
  869SOL    HW2 2607   2.266   2.436   3.059 -2.4624 -2.4332 -2.3578
  870SOL     OW 2608   1.899   1.829   1.068 -0.0192  0.5381  0.1898
  870SOL    HW1 2609   1.879   1.823   0.972  2.0381 -0.8470  3.1394
  870SOL    HW2 2610   1.924   1.738   1.113  0.5209 -0.6516 -2.1588
  871SOL     OW 2611   0.211   1.902   1.723 -0.3730 -0.1305  0.2193
  871SOL    HW1 2612   0.219   1.803   1.740 -1.2335  0.9513 -0.4267
  871SOL    HW2 2613   0.245   1.962   1.801  0.5118 -1.3573  3.2582
  872SOL     OW 2614   0.409   1.522   2.366  0.1208 -0.0189 -0.2467
  872SOL    HW1 2615   0.462   1.603   2.403  1.6754  2.6850  0.6895
  872SOL    HW2 2616   0.345   1.484   2.435  1.3660 -1.1426 -0.1027
  873SOL     OW 2617   1.121   2.193   1.812 -0.1477 -0.5129 -0.4834
  873SOL    HW1 2618   1.132   2.130   1.895 -2.7736  1.1460  2.1160
  873SOL    HW2 2619   1.034   2.241   1.831 -0.5087  1.4411 -1.3540
  874SOL     OW 2620   1.441   0.941   1.794 -0.3092 -0.3164  0.1168
  874SOL    HW1 2621   1.363   0.994   1.763 -0.2589 -2.0017 -0.6721
  874SOL    HW2 2622   1.425   0.897   1.884 -2.7815 -0.8839 -0.4024
  875SOL     OW 2623   2.841   2.678   0.850 -0.5144  0.0005 -0.1292
  875SOL    HW1 2624   2.818   2.635   0.939 -2.3665  1.9105 -0.2465
  875SOL    HW2 2625   2.940   2.660   0.832  0.5846  0.1520 -0.0211
  876SOL     OW 2626   1.286   1.243   0.361 -0.5023  0.6780  0.0804
  876SOL    HW1 2627   1.288   1.243   0.261  1.0735  0.9269  1.4073
  876SOL    HW2 2628   1.195   1.255   0.396  2.2245 -0.6036  1.9322
  877SOL     OW 2629   2.749   0.283   0.930 -0.3771 -0.6471  0.6397
  877SOL    HW1 2630   2.790   0.189   0.936 -0.1448  1.0713 -0.8036
  877SOL    HW2 2631   2.783   0.342   0.850 -0.3011  1.4789  0.3715
  878SOL     OW 2632   2.104   1.502   0.262 -0.0743  0.0161  0.0811
  878SOL    HW1 2633   2.026   1.498   0.198  1.3852 -2.4813  1.9168
  878SOL    HW2 2634   2.092   1.577   0.328 -1.9993  3.2174 -0.6334
  879SOL     OW 2635   2.450   1.784   1.076  0.0202  0.3395 -0.3845
  879SOL    HW1 2636   2.382   1.855   1.061 -0.4521 -2.3841  0.3047
  879SOL    HW2 2637   2.425   1.692   1.031 -0.6113 -2.4099  1.9806
  880SOL     OW 2638   0.363   2.473   0.922 -0.3553 -0.6291 -0.7774
  880SOL    HW1 2639   0.261   2.481   0.923 -0.9267  0.9609 -1.3444
  880SOL    HW2 2640   0.398   2.468   0.826  2.2900 -0.8076 -0.8297
  881SOL     OW 2641   1.076   0.950   0.706 -0.1629 -0.1856 -0.3089
  881SOL    HW1 2642   0.978   0.982   0.699 -2.1982 -0.9190  0.9393
  881SOL    HW2 2643   1.081   0.883   0.787 -0.4386 -0.1269  0.8376
  882SOL     OW 2644   2.475   0.972   0.012  0.4838  0.0688  0.2459
  882SOL    HW1 2645   2.379   1.004   3.084 -0.8563  1.0597  0.7966
  882SOL    HW2 2646   2.545   1.041   3.078  3.3995 -3.0052  1.3805
  883SOL     OW 2647   1.363   3.056   1.672  0.2379  0.2059  0.5170
  883SOL    HW1 2648   1.283   3.012   1.714  2.1499  0.7335 -0.1488
  883SOL    HW2 2649   1.419   2.980   1.636 -1.6975  0.5328  2.4998
  884SOL     OW 2650   2.844   0.049   0.993 -0.1574 -0.2535  0.0284
  884SOL    HW1 2651   2.884   0.058   1.088  2.0512 -1.1077 -0.3650
  884SOL    HW2 2652   2.903   3.073   0.942  0.8222 -0.8775 -2.5961
  885SOL     OW 2653   1.215   1.101   1.211 -0.3802  0.0546  0.3837
  885SOL    HW1 2654   1.267   1.084   1.298  1.5392 -0.5791  0.6322
  885SOL    HW2 2655   1.256   1.053   1.133 -0.8191 -0.2521  0.2861
  886SOL     OW 2656   1.588   0.933   2.628  0.3544  0.1441  0.0549
  886SOL    HW1 2657   1.612   0.941   2.531  0.8276 -1.1538 -0.1872
  886SOL    HW2 2658   1.613   0.844   2.663  0.5455 -1.0930  1.4357
  887SOL     OW 2659   1.642   0.731   1.064 -0.5053  0.0647  0.0567
  887SOL    HW1 2660   1.555   0.704   1.016 -3.7401 -0.3292 -1.4173
  887SOL    HW2 2661   1.636   0.815   1.124  2.4374  1.2662 -0.7268
  888SOL     OW 2662   2.132   1.534   1.821  0.2376 -0.0845  0.3595
  888SOL    HW1 2663   2.134   1.433   1.805  0.3131  2.4394 -3.1791
  888SOL    HW2 2664   2.228   1.580   1.837  2.8416  1.6965 -0.9806
  889SOL     OW 2665   2.118   2.095   0.639 -0.0187  0.6530 -0.4547
  889SOL    HW1 2666   2.203   2.110   0.690  0.0161 -2.4378 -0.6455
  889SOL    HW2 2667   2.052   2.169   0.656  0.3934 -2.0437 -1.1777
  890SOL     OW 2668   1.068   1.927   0.640 -1.0351 -0.8855  0.2175
  890SOL    HW1 2669   1.150   1.871   0.653 -1.7011  2.3051  0.5737
  890SOL    HW2 2670   0.994   1.887   0.702 -1.5333 -0.3113  0.2298
  891SOL     OW 2671   2.509   0.545   2.531  0.2108  0.0109 -0.3622
  891SOL    HW1 2672   2.601   0.527   2.567  1.1334  4.0132 -0.0682
  891SOL    HW2 2673   2.489   0.493   2.446  2.2911 -1.4379 -0.1743
  892SOL     OW 2674   1.060   0.603   2.278 -0.2565  0.2541  0.0203
  892SOL    HW1 2675   1.064   0.582   2.380 -0.5032 -0.6491  1.9317
  892SOL    HW2 2676   1.126   0.547   2.227  1.3146 -0.7043  2.2418
  893SOL     OW 2677   1.567   0.362   1.295 -0.1739  0.0406  0.7307
  893SOL    HW1 2678   1.545   0.263   1.302 -1.6065  3.5633  1.4992
  893SOL    HW2 2679   1.543   0.403   1.381  2.2176  0.0465 -1.1641
  894SOL     OW 2680   2.644   0.244   0.515  0.5648  0.6154 -0.1393
  894SOL    HW1 2681   2.627   0.149   0.547 -0.7144  1.4935 -1.5840
  894SOL    HW2 2682   2.680   0.256   0.420  0.1369  0.2468  0.3971
  895SOL     OW 2683   2.175   2.646   2.855  0.0926 -0.4252  0.1198
  895SOL    HW1 2684   2.082   2.609   2.837 -0.2647 -1.6591 -0.7683
  895SOL    HW2 2685   2.204   2.631   2.952  0.2272 -0.1441 -1.5183
  896SOL     OW 2686   1.824   2.981   1.570 -0.1922 -0.2199 -0.2050
  896SOL    HW1 2687   1.899   3.008   1.505  0.7632  2.5292  1.3134
  896SOL    HW2 2688   1.742   2.957   1.514  2.9997  1.5054  2.8362
  897SOL     OW 2689   0.174   2.237   1.688 -0.7395  0.1976 -0.9223
  897SOL    HW1 2690   0.227   2.250   1.603  0.2885  0.9550  0.8701
  897SOL    HW2 2691   0.236   2.204   1.761  0.3937 -2.6328  1.5404
  898SOL     OW 2692   2.377   1.651   1.831 -0.2264 -0.1485 -0.3971
  898SOL    HW1 2693   2.467   1.599   1.836  2.3956  1.6064  1.0353
  898SOL    HW2 2694   2.393   1.747   1.793 -2.7208 -2.6681  1.6579
  899SOL     OW 2695   1.838   2.158   0.943 -0.0424  0.3701 -0.6900
  899SOL    HW1 2696   1.913   2.157   1.014  1.4509  0.7705  5.0685
  899SOL    HW2 2697   1.874   2.169   0.852  0.5817  1.3408  1.6227
  900SOL     OW 2698   0.988   3.061   2.892 -0.1523  0.5982 -0.2752
  900SOL    HW1 2699   0.890   3.087   2.891  0.7798  0.8147  0.0377
  900SOL    HW2 2700   1.037   0.024   2.820  0.4447  0.5995  0.1482
  901SOL     OW 2701   1.170   1.685   2.344  0.5916  0.5516 -0.3856
  901SOL    HW1 2702   1.259   1.712   2.382  0.7261 -0.3021  3.8265
  901SOL    HW2 2703   1.101   1.753   2.315 -3.1992  0.0806 -0.7371
  902SOL     OW 2704   2.931   0.639   2.771 -0.2898 -0.4542 -0.2958
  902SOL    HW1 2705   2.918   0.740   2.802  0.7037  0.7649  0.0709
  902SOL    HW2 2706   3.025   0.615   2.779 -2.7134  1.4655  0.1446
  903SOL     OW 2707   2.174   0.555   2.381 -0.6458 -0.0602  0.4257
  903SOL    HW1 2708   2.211   0.627   2.445 -0.0413 -3.2917 -0.1374
  903SOL    HW2 2709   2.162   0.586   2.287 -0.3186 -1.3102  0.5662
  904SOL     OW 2710   1.509   0.787   2.251 -0.1181  0.3291 -0.3371
  904SOL    HW1 2711   1.566   0.721   2.306  0.7832  1.5074  0.2696
  904SOL    HW2 2712   1.518   0.879   2.291  0.3895  0.2547 -1.1423
  905SOL     OW 2713   2.187   2.474   1.942 -0.9418  0.4056 -0.2829
  905SOL    HW1 2714   2.090   2.462   1.960  2.6538  3.0833  1.0409
  905SOL    HW2 2715   2.218   2.408   1.872  1.2308  0.4363 -3.7373
  906SOL     OW 2716   1.698   1.905   0.342 -0.7578  0.5874  0.5722
  906SOL    HW1 2717   1.781   1.880   0.291  0.3375 -0.0875 -1.7137
  906SOL    HW2 2718   1.667   1.996   0.315 -1.3965 -1.3640 -0.1384
  907SOL     OW 2719   1.310   2.826   0.861  0.0976  0.4780 -0.1620
  907SOL    HW1 2720   1.376   2.882   0.805  1.3660  0.5026 -1.8083
  907SOL    HW2 2721   1.230   2.795   0.798 -1.1613  0.2684 -3.9984
  908SOL     OW 2722   1.794   2.136   2.449 -0.7279  0.2393 -0.2874
  908SOL    HW1 2723   1.762   2.218   2.397 -1.0576  0.2123  3.2165
  908SOL    HW2 2724   1.900   2.139   2.452  0.6394  2.5785  1.5452
  909SOL     OW 2725   2.091   0.353   2.015 -0.0286  0.1297  0.0167
  909SOL    HW1 2726   2.014   0.417   2.016  1.6003  0.2254 -0.6363
  909SOL    HW2 2727   2.184   0.397   2.006  1.0178 -0.8452 -0.9277
  910SOL     OW 2728   0.895   0.599   2.879  0.0003  0.3270 -0.3501
  910SOL    HW1 2729   0.918   0.503   2.863  0.6551  0.3615  0.7900
  910SOL    HW2 2730   0.949   0.643   2.958  1.5748  0.8941 -1.9428
  911SOL     OW 2731   0.022   0.814   0.111  0.5742 -0.2907 -0.3540
  911SOL    HW1 2732   0.026   0.917   0.103 -1.2123 -0.9354 -0.4646
  911SOL    HW2 2733   3.038   0.785   0.168  2.1492 -1.0111 -1.6102
  912SOL     OW 2734   0.221   2.295   0.560  0.2796 -0.0704  0.0853
  912SOL    HW1 2735   0.195   2.222   0.624  0.8068  0.5431 -2.0439
  912SOL    HW2 2736   0.299   2.355   0.587 -0.0607 -0.0702 -1.3828
  913SOL     OW 2737   2.663   2.328   2.315  0.8247  0.1304 -0.1395
  913SOL    HW1 2738   2.680   2.247   2.264  1.6573  3.2157  0.7959
  913SOL    HW2 2739   2.570   2.324   2.355  3.7852 -0.1805 -1.7052
  914SOL     OW 2740   1.404   2.064   1.434 -0.3245 -0.0089  0.4533
  914SOL    HW1 2741   1.376   1.965   1.441  1.1211 -1.1853  0.4745
  914SOL    HW2 2742   1.432   2.080   1.332  3.7822 -1.4733 -4.7489
  915SOL     OW 2743   0.335   2.718   2.122 -0.2846  0.1720  0.4853
  915SOL    HW1 2744   0.413   2.721   2.057 -0.9758  0.1849  0.6746
  915SOL    HW2 2745   0.316   2.811   2.161  0.7757  0.4891  0.3030
  916SOL     OW 2746   0.743   0.491   1.575 -0.5189 -0.1690  0.1135
  916SOL    HW1 2747   0.828   0.456   1.533  0.0749  0.0384  1.8606
  916SOL    HW2 2748   0.773   0.542   1.659 -1.6412  0.8572  2.3340
  917SOL     OW 2749   2.557   0.628   0.328  0.5156  0.2149 -0.3888
  917SOL    HW1 2750   2.646   0.623   0.278 -1.4034  1.7043  3.4968
  917SOL    HW2 2751   2.494   0.552   0.297  0.8129 -0.6560  0.0461
  918SOL     OW 2752   1.645   2.234   2.864 -0.7026 -0.4645  0.1146
  918SOL    HW1 2753   1.700   2.316   2.894  2.0155  2.4112 -1.0231
  918SOL    HW2 2754   1.644   2.170   2.942 -2.2708 -0.4431 -0.0992
  919SOL     OW 2755   1.612   2.844   1.174  0.8252 -0.2278  0.3510
  919SOL    HW1 2756   1.672   2.931   1.173 -0.9530  0.0330  2.0778
  919SOL    HW2 2757   1.606   2.802   1.084 -2.3439  0.4417  2.7941
  920SOL     OW 2758   1.019   0.521   2.539 -0.0318  0.2166  0.0521
  920SOL    HW1 2759   0.992   0.489   2.631 -2.9730 -0.3044  1.8536
  920SOL    HW2 2760   1.095   0.593   2.549  1.1117 -1.2894 -0.5726
  921SOL     OW 2761   0.034   0.793   2.929  0.7971  0.2205  0.2446
  921SOL    HW1 2762   3.053   0.847   2.889  2.7544 -0.2594  0.1112
  921SOL    HW2 2763   0.047   0.797   3.028 -0.1306 -1.2105 -0.2290
  922SOL     OW 2764   0.259   2.059   1.073  0.4768  0.1515  0.3260
  922SOL    HW1 2765   0.315   1.974   1.088 -0.2201 -1.0958 -2.6355
  922SOL    HW2 2766   0.317   2.146   1.072 -0.2125  2.1037 -0.6131
  923SOL     OW 2767   0.755   1.537   1.963 -0.3212 -0.1324  0.5991
  923SOL    HW1 2768   0.769   1.551   1.862 -0.8138  0.4878 -2.0884
  923SOL    HW2 2769   0.789   1.450   2.001  2.0272 -0.7024 -0.0521
  924SOL     OW 2770   1.679   2.614   2.880 -0.1765 -0.2217  0.3130
  924SOL    HW1 2771   1.612   2.567   2.940  2.0099 -0.7285 -3.3397
  924SOL    HW2 2772   1.687   2.715   2.892  1.2023 -0.7064 -1.3800
  925SOL     OW 2773   2.727   1.238   0.786 -0.0199  0.2103 -0.1059
  925SOL    HW1 2774   2.646   1.178   0.799 -0.6009 -2.1372  0.6774
  925SOL    HW2 2775   2.743   1.305   0.863 -0.9278  1.0097  0.7332
  926SOL     OW 2776   2.060   0.704   1.479 -0.2694 -0.4615  0.1056
  926SOL    HW1 2777   2.159   0.689   1.466 -0.4958 -0.1569  0.0144
  926SOL    HW2 2778   2.004   0.646   1.416 -2.2273 -0.9313  0.7005
  927SOL     OW 2779   1.981   3.037   1.360 -0.7438 -0.2349  0.1087
  927SOL    HW1 2780   1.956   0.037   1.333  1.2911 -2.0002 -1.8682
  927SOL    HW2 2781   1.994   2.977   1.277 -3.5746 -0.2057  0.5648
  928SOL     OW 2782   0.206   1.234   2.359  0.9679  0.2098 -0.3878
  928SOL    HW1 2783   0.148   1.214   2.277  0.6435 -1.1869  0.8583
  928SOL    HW2 2784   0.302   1.218   2.330 -0.9130 -1.3725 -0.5241
  929SOL     OW 2785   2.401   0.909   1.518  0.2364  0.0431 -0.4772
  929SOL    HW1 2786   2.305   0.932   1.485 -1.4507  1.8077  1.0213
  929SOL    HW2 2787   2.464   0.981   1.492  1.3390  0.3391 -1.4300
  930SOL     OW 2788   2.881   2.528   2.005  0.3291  0.0024 -0.5220
  930SOL    HW1 2789   2.918   2.616   2.017 -2.2471 -0.3278 -0.9535
  930SOL    HW2 2790   2.785   2.537   1.986  2.8705  1.3981  2.9711
  931SOL     OW 2791   1.689   0.946   1.306 -0.2183 -0.1614 -0.2626
  931SOL    HW1 2792   1.674   0.936   1.404  1.3045  2.2774 -1.3047
  931SOL    HW2 2793   1.686   1.040   1.269  0.7402 -0.9998  0.2925
  932SOL     OW 2794   0.584   1.211   1.810 -0.0141 -0.1530 -0.3629
  932SOL    HW1 2795   0.577   1.149   1.889 -0.0378  1.3129  0.0549
  932SOL    HW2 2796   0.686   1.228   1.800 -1.6326 -1.4154 -0.3048
  933SOL     OW 2797   2.699   1.946   1.652  0.4010  1.0509  0.2271
  933SOL    HW1 2798   2.690   1.998   1.565 -0.2141 -2.9211 -1.3749
  933SOL    HW2 2799   2.771   1.876   1.647 -0.0775 -1.5453 -1.2815
  934SOL     OW 2800   0.551   2.228   1.875 -0.1110  0.1602 -0.6266
  934SOL    HW1 2801   0.630   2.196   1.815 -0.7245  0.4891  1.5214
  934SOL    HW2 2802   0.506   2.316   1.846  1.2672 -1.1968 -0.1700
  935SOL     OW 2803   3.010   1.612   1.472 -0.8123  0.3712  0.0470
  935SOL    HW1 2804   2.988   1.693   1.532 -1.2096 -0.5101 -0.1315
  935SOL    HW2 2805   0.019   1.603   1.467 -2.1603 -1.3524  4.2626
  936SOL     OW 2806   3.056   1.345   1.416 -0.1430  0.0886  0.1784
  936SOL    HW1 2807   2.974   1.300   1.377 -0.0386  2.1734  1.0409
  936SOL    HW2 2808   3.046   1.445   1.408  0.8266 -3.4935  0.4738
  937SOL     OW 2809   1.928   0.499   1.344  0.4716 -0.4193  0.5439
  937SOL    HW1 2810   1.944   0.396   1.337  0.5153 -2.5549  1.9739
  937SOL    HW2 2811   1.877   0.537   1.265  1.0155 -0.2439 -1.1433
  938SOL     OW 2812   0.466   2.768   0.164  0.3841 -0.0508 -0.3053
  938SOL    HW1 2813   0.404   2.732   0.239 -2.6305  1.7169 -0.7469
  938SOL    HW2 2814   0.413   2.792   0.080  1.6509  0.3801  2.5394
  939SOL     OW 2815   2.838   2.147   2.508  0.2526 -0.0735  0.2586
  939SOL    HW1 2816   2.858   2.173   2.411 -1.2807  0.1623  0.4193
  939SOL    HW2 2817   2.745   2.114   2.519  0.2365  1.3547  1.2397
  940SOL     OW 2818   1.534   1.908   0.584  0.1291 -0.2202 -0.2428
  940SOL    HW1 2819   1.489   1.835   0.536  2.5235  1.0834  3.1696
  940SOL    HW2 2820   1.598   1.958   0.528  0.5727  1.1577  1.7022
  941SOL     OW 2821   2.263   2.608   0.034 -0.7558 -0.4634  0.1815
  941SOL    HW1 2822   2.245   2.598   0.135  0.2797 -0.5037  0.1736
  941SOL    HW2 2823   2.345   2.668   0.026  1.7791  2.6698  0.7026
  942SOL     OW 2824   1.999   2.421   1.156  0.1692 -0.0600  0.4823
  942SOL    HW1 2825   1.927   2.490   1.131 -0.9188 -2.2941  1.1560
  942SOL    HW2 2826   2.049   2.444   1.240 -0.2938  0.7997  0.1368
  943SOL     OW 2827   2.112   0.980   1.712  0.2480 -0.1946  0.0468
  943SOL    HW1 2828   2.118   0.971   1.610  0.5471 -0.4741  1.0848
  943SOL    HW2 2829   2.202   1.002   1.765  0.3789 -2.0646  2.7226
  944SOL     OW 2830   1.355   0.827   2.011 -0.7606 -0.0806 -0.5335
  944SOL    HW1 2831   1.414   0.808   2.091  2.3358 -0.9594 -2.1436
  944SOL    HW2 2832   1.303   0.745   1.979  0.5522 -2.7531 -0.1875
  945SOL     OW 2833   2.505   2.492   1.383 -0.4491  0.3248 -0.3486
  945SOL    HW1 2834   2.596   2.469   1.424  0.5821 -0.6891 -1.4707
  945SOL    HW2 2835   2.430   2.431   1.423 -0.3715 -2.4065  1.2185
  946SOL     OW 2836   0.229   0.870   0.636  0.2358  0.3780  0.0253
  946SOL    HW1 2837   0.241   0.931   0.717  0.3596  0.7320  0.0922
  946SOL    HW2 2838   0.287   0.789   0.649  0.7893  0.6175  0.5960
  947SOL     OW 2839   1.808   2.714   1.635  0.1164  0.0851  0.0725
  947SOL    HW1 2840   1.748   2.700   1.717  2.1948  1.3931 -2.4879
  947SOL    HW2 2841   1.810   2.813   1.614  0.3897  0.7171  0.0132
  948SOL     OW 2842   0.432   1.731   0.795  0.3499  0.1938 -0.0233
  948SOL    HW1 2843   0.329   1.728   0.811  1.5084  2.0861  0.1720
  948SOL    HW2 2844   0.456   1.650   0.736 -1.1520 -1.5658 -2.9719
  949SOL     OW 2845   1.154   1.355   1.151  0.1402  0.0506  0.2218
  949SOL    HW1 2846   1.058   1.373   1.114 -1.0107  0.1886 -1.2625
  949SOL    HW2 2847   1.168   1.253   1.166  0.3858  0.0198 -2.8513
  950SOL     OW 2848   0.307   0.854   0.976  0.0993 -0.4044 -0.4826
  950SOL    HW1 2849   0.393   0.810   0.949  0.2433 -0.0594  2.6889
  950SOL    HW2 2850   0.279   0.829   1.076  0.6976 -1.1965  3.0466
  951SOL     OW 2851   0.845   2.068   2.304  0.1459  0.0600  0.1302
  951SOL    HW1 2852   0.771   2.085   2.234  3.0037  0.1193 -1.4397
  951SOL    HW2 2853   0.892   2.157   2.332  0.1167  2.3740  0.9415
  952SOL     OW 2854   1.312   1.443   3.051 -0.4957  0.1695  0.0053
  952SOL    HW1 2855   1.344   1.530   0.005  1.7772  1.6651 -0.3911
  952SOL    HW2 2856   1.218   1.459   3.013  3.3677 -0.1843  2.6675
  953SOL     OW 2857   1.029   3.090   0.059 -0.1070 -0.7103 -0.1240
  953SOL    HW1 2858   1.083   0.088   0.055  0.0236  1.9308  0.0084
  953SOL    HW2 2859   1.007   3.065   3.058  0.9269 -0.1619  2.0927
  954SOL     OW 2860   1.874   1.213   0.306  0.2771  0.3014 -0.0078
  954SOL    HW1 2861   1.798   1.170   0.254  0.8302 -2.0464  0.6427
  954SOL    HW2 2862   1.846   1.231   0.400  1.5678 -0.5027 -1.8545
  955SOL     OW 2863   0.120   2.651   0.021 -0.2910 -0.2568  0.3754
  955SOL    HW1 2864   0.176   2.734   0.005  0.6268  2.3973  0.5251
  955SOL    HW2 2865   0.119   2.600   3.029 -0.3482  1.8611  2.1623
  956SOL     OW 2866   1.112   0.769   1.184 -0.3401 -0.2440  0.2890
  956SOL    HW1 2867   1.189   0.817   1.224 -0.7491  0.1937 -0.8766
  956SOL    HW2 2868   1.118   0.668   1.196 -0.6074 -1.6035 -2.8586
  957SOL     OW 2869   0.974   1.563   1.301 -0.2452 -0.0436  0.4578
  957SOL    HW1 2870   0.889   1.619   1.299 -0.8240 -1.7379 -2.6217
  957SOL    HW2 2871   1.024   1.565   1.211 -2.0656 -0.7372 -0.0511
  958SOL     OW 2872   0.702   1.864   0.740  0.7087  0.5593 -0.2763
  958SOL    HW1 2873   0.611   1.834   0.777 -3.5985 -1.6028 -0.8006
  958SOL    HW2 2874   0.685   1.895   0.643  0.3530  0.2849  2.2055
  959SOL     OW 2875   1.479   1.271   1.019  0.7379  0.7785  0.6467
  959SOL    HW1 2876   1.429   1.323   0.944 -2.5840  0.6110  0.9993
  959SOL    HW2 2877   1.460   1.317   1.107 -0.7596  0.8323 -1.1961
  960SOL     OW 2878   0.117   1.137   2.888 -0.2671 -0.3527 -0.3219
  960SOL    HW1 2879   0.034   1.184   2.847 -1.2713  0.2516 -0.9600
  960SOL    HW2 2880   0.164   1.078   2.821 -3.3820  0.7000  1.4151
  961SOL     OW 2881   0.715   1.585   1.052 -0.6163  0.5526 -0.1798
  961SOL    HW1 2882   0.666   1.554   0.969 -1.5833 -0.3743  1.1078
  961SOL    HW2 2883   0.812   1.593   1.031 -0.4931  0.7783 -3.1640
  962SOL     OW 2884   0.813   1.033   0.692 -0.1224  0.5725 -0.6425
  962SOL    HW1 2885   0.801   1.114   0.629  3.1053  1.6888 -0.4475
  962SOL    HW2 2886   0.738   1.024   0.765 -1.9539  1.3544 -2.4525
  963SOL     OW 2887   1.389   1.809   2.431 -0.6160 -1.0345 -0.0998
  963SOL    HW1 2888   1.486   1.841   2.411  0.0383  2.3872 -1.0281
  963SOL    HW2 2889   1.399   1.718   2.472  4.3685 -4.0984 -1.2493
  964SOL     OW 2890   0.654   2.592   2.784 -0.1885 -0.1138 -0.6860
  964SOL    HW1 2891   0.706   2.618   2.869 -1.2035 -1.7289 -0.7471
  964SOL    HW2 2892   0.703   2.516   2.739  0.4155  0.4136  0.6718
  965SOL     OW 2893   0.464   2.383   0.196  0.1678  0.2874 -0.4819
  965SOL    HW1 2894   0.531   2.456   0.185 -0.2674 -0.5698  1.2316
  965SOL    HW2 2895   0.413   2.354   0.114  1.7321  1.0653 -0.2336
  966SOL     OW 2896   2.981   1.668   2.743 -0.0828 -0.1857  0.2772
  966SOL    HW1 2897   3.068   1.689   2.791 -0.7621 -0.1938 -2.7229
  966SOL    HW2 2898   2.906   1.720   2.793 -0.1669  0.4104 -1.2910
  967SOL     OW 2899   2.404   0.038   2.734  0.5507 -0.4842  0.2491
  967SOL    HW1 2900   2.318   0.008   2.688  0.4754  0.1271  0.5102
  967SOL    HW2 2901   2.383   0.076   2.829 -1.7921 -0.8325 -1.6116
  968SOL     OW 2902   2.235   0.054   0.238 -0.1778  0.1988  0.1637
  968SOL    HW1 2903   2.223   0.152   0.205 -1.4544  1.6097  2.0505
  968SOL    HW2 2904   2.325   0.051   0.287 -0.4586 -1.2629 -1.7910
  969SOL     OW 2905   0.256   1.468   2.138  0.3666 -0.2540  0.2082
  969SOL    HW1 2906   0.296   1.448   2.044 -1.9321 -0.3373 -1.6077
  969SOL    HW2 2907   0.327   1.488   2.210  2.1136 -1.7679 -2.0987
  970SOL     OW 2908   1.360   1.384   0.800 -0.9294  0.3075 -0.0190
  970SOL    HW1 2909   1.434   1.376   0.728  0.9868 -0.4838 -2.7606
  970SOL    HW2 2910   1.287   1.317   0.781  2.4395 -0.6495 -0.0060
  971SOL     OW 2911   2.415   0.046   1.099 -0.1078  0.5194 -0.5071
  971SOL    HW1 2912   2.418   0.107   1.184  0.0780  1.6789 -0.8590
  971SOL    HW2 2913   2.430   0.103   1.015  1.7644 -0.9259 -1.7644
  972SOL     OW 2914   0.368   2.980   1.478 -0.0376 -0.0344  0.2500
  972SOL    HW1 2915   0.415   2.891   1.475  2.6659  1.8261 -1.7631
  972SOL    HW2 2916   0.437   3.058   1.483  2.3448 -0.9528 -0.7671
  973SOL     OW 2917   0.459   0.317   2.826  0.1934  0.2228 -0.1042
  973SOL    HW1 2918   0.476   0.410   2.791 -1.9575 -1.5630 -1.2209
  973SOL    HW2 2919   0.415   0.262   2.755  2.3173  1.6415 -0.1216
  974SOL     OW 2920   2.284   1.387   2.060  0.3543  0.0795 -0.2169
  974SOL    HW1 2921   2.214   1.313   2.060  0.6096  0.8579 -3.5500
  974SOL    HW2 2922   2.329   1.410   2.147  3.1580 -0.5686  0.3893
  975SOL     OW 2923   0.056   0.121   1.156  0.1278  0.3031  0.0441
  975SOL    HW1 2924   0.106   0.049   1.212  0.3300 -0.2164 -0.6233
  975SOL    HW2 2925   0.084   0.142   1.060  1.1061  3.6521  1.4962
  976SOL     OW 2926   0.806   1.805   2.464  0.1167 -0.6294 -0.1409
  976SOL    HW1 2927   0.741   1.802   2.543  0.0821  0.7767  0.2405
  976SOL    HW2 2928   0.837   1.900   2.445 -0.3439 -1.6637  0.3382
  977SOL     OW 2929   0.866   2.269   0.640 -0.6241 -0.0089 -0.1642
  977SOL    HW1 2930   0.871   2.295   0.739  0.2202  2.8335  0.8837
  977SOL    HW2 2931   0.854   2.349   0.579 -0.4341 -2.3620 -3.8864
  978SOL     OW 2932   3.059   1.224   2.201  0.4751  0.0956  0.1336
  978SOL    HW1 2933   2.999   1.144   2.166 -1.6211 -0.6778 -1.4311
  978SOL    HW2 2934   3.006   1.309   2.211  2.4941 -1.6169  2.3866
  979SOL     OW 2935   1.594   2.929   1.437 -0.3736 -0.1426  0.0747
  979SOL    HW1 2936   1.614   2.870   1.353  0.4728 -1.6138 -2.7558
  979SOL    HW2 2937   1.517   2.877   1.484 -2.8819  1.3909 -0.8819
  980SOL     OW 2938   1.270   1.431   2.280  0.1759  0.9282  0.0354
  980SOL    HW1 2939   1.206   1.364   2.244 -0.0030 -0.7196 -2.0994
  980SOL    HW2 2940   1.231   1.522   2.293  1.7489 -1.6885  0.9048
  981SOL     OW 2941   2.492   0.376   1.629  0.4286  0.4223 -0.0314
  981SOL    HW1 2942   2.407   0.431   1.642  0.7767 -1.2258 -2.3249
  981SOL    HW2 2943   2.487   0.304   1.556 -0.9183 -1.3152 -0.0088
  982SOL     OW 2944   0.123   0.358   2.726 -0.0609  0.4837  0.1778
  982SOL    HW1 2945   0.046   0.303   2.764 -0.5292 -1.6250 -1.3360
  982SOL    HW2 2946   0.150   0.429   2.795 -3.7705 -1.1965 -0.9522
  983SOL     OW 2947   2.489   0.793   2.428 -0.4181 -0.1046  0.4774
  983SOL    HW1 2948   2.406   0.831   2.460  2.4675 -0.3928 -0.9273
  983SOL    HW2 2949   2.507   0.695   2.455 -1.1810  0.6614 -0.3234
  984SOL     OW 2950   1.037   3.059   1.994  0.2728 -0.0906 -0.3408
  984SOL    HW1 2951   1.082   3.071   2.086 -0.7499  3.0649 -1.3315
  984SOL    HW2 2952   0.940   3.089   1.995 -1.0561 -0.8172  2.8485
  985SOL     OW 2953   2.020   1.636   1.605  0.4379  0.0958 -0.1883
  985SOL    HW1 2954   1.984   1.556   1.562  3.3455 -0.7607  3.7206
  985SOL    HW2 2955   2.069   1.615   1.689  0.0922  1.1098 -0.4457
  986SOL     OW 2956   2.563   0.865   1.738  0.4740 -0.5972 -0.0865
  986SOL    HW1 2957   2.653   0.875   1.697 -0.8631  1.0342  0.5476
  986SOL    HW2 2958   2.491   0.868   1.661 -0.6113  2.6505 -2.1950
  987SOL     OW 2959   2.583   0.946   1.237  0.3325 -0.4577 -0.7634
  987SOL    HW1 2960   2.645   0.876   1.275 -1.2723  2.3957 -3.4069
  987SOL    HW2 2961   2.492   0.903   1.222  1.1510  0.5926  1.9788
  988SOL     OW 2962   0.242   1.124   1.962 -0.1223  0.2585  0.0810
  988SOL    HW1 2963   0.250   1.225   1.962 -1.9110 -0.6758  1.4759
  988SOL    HW2 2964   0.305   1.079   1.896  1.9250  1.3545  3.3100
  989SOL     OW 2965   1.771   1.616   0.462  0.1111 -0.6068  0.1754
  989SOL    HW1 2966   1.852   1.660   0.416  0.7195  0.5517  1.2454
  989SOL    HW2 2967   1.690   1.645   0.409  0.9476 -0.8067  0.8596
  990SOL     OW 2968   0.831   0.523   2.144 -0.2260  0.3390 -0.2254
  990SOL    HW1 2969   0.899   0.559   2.210 -3.8989  1.8525 -2.2426
  990SOL    HW2 2970   0.873   0.488   2.057  0.4660 -0.7787  0.1086
  991SOL     OW 2971   1.190   1.193   0.673  0.5595  0.4198  0.4373
  991SOL    HW1 2972   1.164   1.095   0.698 -1.6212 -1.8085  1.3732
  991SOL    HW2 2973   1.255   1.198   0.591  1.3910  1.9726 -2.3289
  992SOL     OW 2974   2.052   0.964   0.485  0.1595  0.1771  0.4592
  992SOL    HW1 2975   2.120   0.935   0.552 -4.6584 -2.5203  0.9664
  992SOL    HW2 2976   1.988   1.035   0.527  0.7346  2.7686 -0.5181
  993SOL     OW 2977   2.962   0.954   0.673  0.1931 -0.6407  0.1170
  993SOL    HW1 2978   2.960   0.965   0.776  0.5109 -0.3457  3.7940
  993SOL    HW2 2979   3.020   0.873   0.649  0.9072 -1.4656  0.6353
  994SOL     OW 2980   0.112   2.037   2.534 -0.4697 -0.0879 -0.3153
  994SOL    HW1 2981   0.036   1.970   2.530  0.1076 -0.9340 -2.4282
  994SOL    HW2 2982   0.167   2.011   2.612  1.5572  1.0458  0.3533
  995SOL     OW 2983   1.715   1.194   2.677  0.2022 -0.3269  0.2741
  995SOL    HW1 2984   1.688   1.098   2.674  0.3947  0.9874  2.9518
  995SOL    HW2 2985   1.716   1.228   2.772  0.0758 -1.2118  2.1415
  996SOL     OW 2986   2.462   1.153   0.376  0.0392  0.4229 -0.1486
  996SOL    HW1 2987   2.413   1.221   0.320  0.9157  0.7701  0.6349
  996SOL    HW2 2988   2.430   1.058   0.353  1.8800 -0.1810  1.7899
  997SOL     OW 2989   2.080   1.255   1.771 -0.4215 -0.1835  0.1062
  997SOL    HW1 2990   2.113   1.171   1.724 -0.5143 -0.7563 -2.2048
  997SOL    HW2 2991   2.089   1.242   1.871  1.7044 -1.9774  0.7496
  998SOL     OW 2992   2.411   1.856   0.330  0.3707 -0.3446 -0.0721
  998SOL    HW1 2993   2.347   1.847   0.251 -0.4978 -1.3545 -0.9166
  998SOL    HW2 2994   2.468   1.773   0.347 -0.9533 -0.1930  1.2786
  999SOL     OW 2995   2.996   2.303   0.139  0.2397  0.1144  0.8445
  999SOL    HW1 2996   2.956   2.279   0.228  0.8493  1.9638 -0.2481
  999SOL    HW2 2997   2.955   2.394   0.110  0.0667  4.6980 -0.2169
 1000SOL     OW 2998   1.018   0.866   1.870 -0.2632 -0.0104 -0.3056
 1000SOL    HW1 2999   1.071   0.793   1.908 -4.8150  2.0292 -1.2196
 1000SOL    HW2 3000   0.980   0.930   1.941  1.6526 -0.9135  0.2465
   3.09362   3.09362   3.09362
