1000 SPC/Fw water molecules t= 439.00000 step= 439000
 3000
    1SOL     OW    1   3.119   0.143   1.274  0.2593  0.0848 -0.0788
    1SOL    HW1    2   0.070   0.190   1.229  3.4229 -1.9801  1.9288
    1SOL    HW2    3   0.025   0.079   1.344  0.2347 -2.0754 -0.9580
    2SOL     OW    4   2.871   3.088   3.106 -0.1670 -0.4217  0.7339
    2SOL    HW1    5   2.931   3.024   0.028 -0.6864 -1.5826 -3.6308
    2SOL    HW2    6   2.781   3.040   3.083 -0.0688 -0.5697 -2.4687
    3SOL     OW    7   1.306   2.747   3.118 -0.1230  0.7289  0.3726
    3SOL    HW1    8   1.286   2.649   3.086 -0.2795 -3.0798 -1.5451
    3SOL    HW2    9   1.408   2.759   3.124  2.9890  2.5532  4.3753
    4SOL     OW   10   1.143   2.754   2.291 -0.0993 -0.1160 -0.1813
    4SOL    HW1   11   1.182   2.658   2.293 -0.0722  1.1361 -1.1332
    4SOL    HW2   12   1.042   2.753   2.293 -0.5049 -0.4340  0.2861
    5SOL     OW   13   2.375   0.370   1.603  0.3699  0.2757 -0.5227
    5SOL    HW1   14   2.450   0.346   1.671  2.2650  0.3581 -0.9425
    5SOL    HW2   15   2.306   0.436   1.638 -0.9293 -1.7580  2.2726
    6SOL     OW   16   2.762   2.499   1.006 -0.1846 -0.3641  0.3343
    6SOL    HW1   17   2.843   2.515   1.065  1.4824  0.4055 -0.6341
    6SOL    HW2   18   2.713   2.420   1.037  2.3329 -0.2179  0.0904
    7SOL     OW   19   1.485   1.938   0.546  0.0390  0.4899  0.1713
    7SOL    HW1   20   1.401   1.911   0.490  0.1160 -0.2008 -0.7983
    7SOL    HW2   21   1.467   1.926   0.644  1.7591  1.7715  0.2629
    8SOL     OW   22   0.327   1.252   0.918  0.2315 -0.2671  0.1605
    8SOL    HW1   23   0.247   1.225   0.863  3.1053  0.3855 -1.4950
    8SOL    HW2   24   0.386   1.320   0.867  3.6884  1.2213 -2.8799
    9SOL     OW   25   0.016   2.860   1.511 -0.7903  0.4889 -0.1931
    9SOL    HW1   26   3.054   2.857   1.559 -0.8661 -0.2372  1.4392
    9SOL    HW2   27   0.098   2.854   1.578  0.4894 -3.3999 -1.2470
   10SOL     OW   28   1.060   2.457   0.510  0.6786 -0.1785  0.4163
   10SOL    HW1   29   1.124   2.448   0.592  1.1539 -1.1734  1.3963
   10SOL    HW2   30   0.993   2.531   0.527  1.8668 -1.2754  1.4513
   11SOL     OW   31   1.839   1.654   1.280  0.9359 -0.2151 -0.2145
   11SOL    HW1   32   1.815   1.723   1.213  0.8076 -2.0519  0.0435
   11SOL    HW2   33   1.770   1.577   1.278 -2.6623  1.2594  2.1375
   12SOL     OW   34   0.224   0.955   2.035  0.2116  0.4930 -0.2787
   12SOL    HW1   35   0.216   0.876   1.972  0.8492 -1.2094 -0.5057
   12SOL    HW2   36   0.241   0.916   2.129 -0.8834 -1.4756  0.9842
   13SOL     OW   37   2.412   3.016   0.017  0.5171 -0.1197  0.1203
   13SOL    HW1   38   2.390   2.916   0.029 -1.0797 -1.7629  0.9176
   13SOL    HW2   39   2.329   3.072   3.126 -1.5589 -1.5398  1.3049
   14SOL     OW   40   1.378   1.945   0.169  0.3800 -0.8661 -0.4335
   14SOL    HW1   41   1.347   1.924   0.265  0.1452 -2.4759 -2.5994
   14SOL    HW2   42   1.379   2.048   0.157 -0.1175  1.2679 -2.4184
   15SOL     OW   43   2.996   2.643   1.792 -0.2914 -0.0836  0.2312
   15SOL    HW1   44   3.042   2.589   1.715  0.9393 -2.5034 -0.7412
   15SOL    HW2   45   2.967   2.739   1.761 -3.1679  2.1221  0.1517
   16SOL     OW   46   3.031   0.649   0.802 -0.9652 -0.3383  0.2990
   16SOL    HW1   47   3.063   0.579   0.731 -0.1652 -0.6312 -3.6054
   16SOL    HW2   48   2.931   0.644   0.813  2.6350  0.3756  0.5612
   17SOL     OW   49   0.777   0.569   0.717 -0.1881  0.2256  0.2229
   17SOL    HW1   50   0.849   0.639   0.729 -1.6479 -0.6085  0.2668
   17SOL    HW2   51   0.812   0.498   0.647 -1.8207 -0.9677 -0.0430
   18SOL     OW   52   1.012   0.126   0.757  0.3321  0.0285  0.1939
   18SOL    HW1   53   0.965   0.111   0.663 -2.1963 -0.7072 -4.7320
   18SOL    HW2   54   0.946   0.089   0.826 -0.2781 -0.6618  2.6513
   19SOL     OW   55   1.774   1.064   1.020  0.4914  0.1366 -0.6254
   19SOL    HW1   56   1.700   1.131   1.007  1.3839  1.8520 -1.6797
   19SOL    HW2   57   1.783   1.014   0.936 -1.4496  2.6645  1.2344
   20SOL     OW   58   2.176   1.770   2.931  0.7173  0.0620 -0.3245
   20SOL    HW1   59   2.184   1.848   2.867 -1.2633  0.4913  1.1573
   20SOL    HW2   60   2.268   1.742   2.965  2.8625 -0.0045 -0.5292
   21SOL     OW   61   1.468   3.000   0.276 -0.5306 -0.0839 -0.2057
   21SOL    HW1   62   1.375   3.012   0.242  1.8271 -1.3577  0.5249
   21SOL    HW2   63   1.542   3.023   0.209 -0.1181 -3.1099  0.6638
   22SOL     OW   64   2.766   0.988   0.556 -0.4403 -0.2545  0.0946
   22SOL    HW1   65   2.709   1.070   0.580  2.1971  3.3204 -1.6926
   22SOL    HW2   66   2.717   0.902   0.585 -2.1181  2.4595 -0.8581
   23SOL     OW   67   0.801   0.183   1.812 -0.2207  0.2769 -0.2007
   23SOL    HW1   68   0.901   0.203   1.821  1.0438  0.5535  0.2490
   23SOL    HW2   69   0.746   0.257   1.773  0.0670 -1.5839 -1.3577
   24SOL     OW   70   1.726   2.470   0.553  0.4103 -0.2850  0.2437
   24SOL    HW1   71   1.795   2.444   0.624  1.9793 -1.1665 -0.1255
   24SOL    HW2   72   1.668   2.393   0.519  0.3292 -0.9723 -1.0427
   25SOL     OW   73   1.785   0.067   2.199  0.6599 -0.1540 -0.2387
   25SOL    HW1   74   1.819   3.097   2.191  1.0075 -0.2074 -0.6855
   25SOL    HW2   75   1.728   0.080   2.283 -0.1226  0.3111 -1.8040
   26SOL     OW   76   1.682   2.746   2.597 -0.0525  0.1712 -0.2043
   26SOL    HW1   77   1.676   2.790   2.691 -0.3355  0.7777 -1.3412
   26SOL    HW2   78   1.630   2.660   2.601 -3.5569  2.8202  0.7625
   27SOL     OW   79   1.360   0.482   1.013  0.2502 -0.1797 -0.2220
   27SOL    HW1   80   1.365   0.398   1.064 -0.7328  1.6391 -0.0798
   27SOL    HW2   81   1.302   0.462   0.929 -3.2154 -1.0091 -2.1590
   28SOL     OW   82   0.560   1.728   0.911 -0.0993 -0.0380 -0.0415
   28SOL    HW1   83   0.572   1.674   0.997 -0.1787  0.0964  1.1415
   28SOL    HW2   84   0.507   1.811   0.933  1.7681  2.1128  1.3573
   29SOL     OW   85   2.522   0.637   1.303  0.3070 -0.3199  0.2319
   29SOL    HW1   86   2.500   0.673   1.211  2.4042  1.0301  1.1681
   29SOL    HW2   87   2.471   0.553   1.326 -2.1584 -1.0092 -1.7333
   30SOL     OW   88   1.672   2.466   1.375 -0.5971  0.3377 -0.1976
   30SOL    HW1   89   1.740   2.392   1.387 -1.1284 -1.1608 -1.0153
   30SOL    HW2   90   1.648   2.482   1.281  0.8221 -0.5186  1.2460
   31SOL     OW   91   1.963   2.888   1.573  0.1771 -0.0102  0.1075
   31SOL    HW1   92   1.918   2.794   1.571  0.1240 -3.9062  1.6359
   31SOL    HW2   93   2.016   2.898   1.486 -0.6051  0.3074  0.3436
   32SOL     OW   94   2.015   1.658   2.034 -0.1043 -0.1771  0.3242
   32SOL    HW1   95   2.039   1.563   2.003 -2.2193 -1.3253 -0.5355
   32SOL    HW2   96   2.089   1.720   1.995 -0.8719 -1.4441 -1.5673
   33SOL     OW   97   2.463   0.021   2.435 -0.3748 -0.0594 -0.0738
   33SOL    HW1   98   2.372   0.050   2.472  2.7483 -1.3771 -3.3880
   33SOL    HW2   99   2.449   3.085   2.357  1.1604  0.1506 -0.2362
   34SOL     OW  100   1.981   0.455   0.718 -0.0056  0.0103 -0.3564
   34SOL    HW1  101   2.037   0.406   0.647  2.2551  0.4124  0.3003
   34SOL    HW2  102   1.921   0.395   0.774  1.0507 -0.9909  0.0458
   35SOL     OW  103   0.327   1.897   1.947  0.0673 -0.4949 -0.1567
   35SOL    HW1  104   0.317   1.998   1.972 -1.2876  0.0700 -0.6867
   35SOL    HW2  105   0.247   1.844   1.922  0.1712  0.4916 -0.1803
   36SOL     OW  106   2.459   1.915   2.853  0.2567  0.0731  0.2758
   36SOL    HW1  107   2.458   1.846   2.928  0.7456  1.0305 -0.2946
   36SOL    HW2  108   2.530   1.985   2.867 -0.7366 -0.1780 -2.1664
   37SOL     OW  109   1.408   0.009   1.839 -0.1068  0.1093  0.0610
   37SOL    HW1  110   1.429   0.061   1.930  0.8637  2.8521  0.0481
   37SOL    HW2  111   1.484   3.076   1.825 -0.8170  2.1429 -0.4989
   38SOL     OW  112   0.960   0.714   2.483  0.1030 -0.0079  0.1991
   38SOL    HW1  113   1.061   0.705   2.493  0.2945  1.9870  1.7409
   38SOL    HW2  114   0.908   0.658   2.555 -0.5258 -1.1097  1.2744
   39SOL     OW  115   1.830   0.826   1.674  0.0253  0.2782  0.1370
   39SOL    HW1  116   1.907   0.882   1.708  0.8151 -0.8356 -3.9361
   39SOL    HW2  117   1.798   0.867   1.583 -2.0094  0.7443 -1.2476
   40SOL     OW  118   0.972   2.460   0.877  0.4108 -0.2921 -0.2812
   40SOL    HW1  119   1.005   2.403   0.803  1.0781  1.8765 -0.5363
   40SOL    HW2  120   0.998   2.555   0.868 -0.9249 -2.0550 -0.9512
   41SOL     OW  121   2.194   2.182   1.242  0.6825 -0.6783 -0.1212
   41SOL    HW1  122   2.224   2.202   1.147 -1.8746 -1.2893 -1.5969
   41SOL    HW2  123   2.094   2.159   1.254  0.9634 -2.1330  1.0656
   42SOL     OW  124   2.750   0.297   0.391 -0.2542  0.7014  0.0069
   42SOL    HW1  125   2.671   0.258   0.437 -3.7177  2.1976 -3.8500
   42SOL    HW2  126   2.762   0.251   0.303  2.3326 -2.4382  0.5400
   43SOL     OW  127   0.874   1.057   2.516 -0.5180  0.2104  0.8469
   43SOL    HW1  128   0.840   1.013   2.599 -1.2755 -0.0744  0.0811
   43SOL    HW2  129   0.844   1.155   2.518 -2.0570  1.2310  0.1511
   44SOL     OW  130   1.880   2.643   1.477 -0.3981  0.6633 -0.2063
   44SOL    HW1  131   1.809   2.587   1.424 -2.1072 -0.5571 -2.4191
   44SOL    HW2  132   1.971   2.599   1.472 -0.1821  1.3073 -2.4557
   45SOL     OW  133   0.847   2.560   2.871 -0.1232  0.2842  0.6367
   45SOL    HW1  134   0.824   2.630   2.940  1.1200 -0.8946 -1.2466
   45SOL    HW2  135   0.913   2.595   2.800 -2.0251  3.1187 -0.7254
   46SOL     OW  136   0.543   2.723   1.958  0.3763 -0.4149  0.4088
   46SOL    HW1  137   0.644   2.744   1.945  0.2793 -0.3901 -0.6726
   46SOL    HW2  138   0.497   2.783   2.025  1.0258 -1.1348 -1.4843
   47SOL     OW  139   0.516   2.035   0.549 -0.0077 -0.7331 -0.0335
   47SOL    HW1  140   0.539   1.936   0.551 -0.1762  0.6062  0.9369
   47SOL    HW2  141   0.430   2.051   0.599  0.6055  1.7267 -2.3945
   48SOL     OW  142   0.744   2.905   1.028  0.1858  0.1585  0.3737
   48SOL    HW1  143   0.721   2.973   1.105  0.1555 -0.6047  1.8940
   48SOL    HW2  144   0.684   2.819   1.034  1.8620  0.1491  0.5081
   49SOL     OW  145   3.025   2.783   2.694 -0.3673 -0.1482 -0.0419
   49SOL    HW1  146   2.961   2.803   2.614  0.7179  0.0852  0.5159
   49SOL    HW2  147   3.019   2.859   2.760 -0.7420 -1.9185 -5.0740
   50SOL     OW  148   1.501   1.238   0.537 -0.1269  0.4598 -0.0502
   50SOL    HW1  149   1.429   1.172   0.524 -0.8327  0.3436 -1.3371
   50SOL    HW2  150   1.593   1.191   0.540 -0.5029  1.1588  2.2469
   51SOL     OW  151   2.213   0.101   0.628  0.2524 -0.3693  0.0925
   51SOL    HW1  152   2.188   0.041   0.548 -0.0095 -0.7374 -1.3502
   51SOL    HW2  153   2.127   0.111   0.691 -0.0762 -1.4207  2.1698
   52SOL     OW  154   0.583   1.787   0.638 -1.1464  0.6271 -0.7926
   52SOL    HW1  155   0.583   1.767   0.735  1.0246  0.6044 -1.5808
   52SOL    HW2  156   0.678   1.766   0.603 -1.0389  0.3926 -1.7012
   53SOL     OW  157   0.378   1.070   2.911 -0.1149  0.2685  0.3349
   53SOL    HW1  158   0.282   1.042   2.910  2.8997 -0.5210 -0.3833
   53SOL    HW2  159   0.407   1.063   3.010  0.8107 -1.8026  1.4989
   54SOL     OW  160   2.513   2.097   0.262 -0.2280  0.7240 -0.2420
   54SOL    HW1  161   2.545   2.132   0.350 -0.1095 -1.2208  0.0487
   54SOL    HW2  162   2.455   2.012   0.271 -2.3513 -1.1641 -1.2153
   55SOL     OW  163   2.519   2.247   1.350  0.5198 -0.3495  0.0027
   55SOL    HW1  164   2.539   2.313   1.429 -0.2000 -2.6083 -2.1736
   55SOL    HW2  165   2.420   2.224   1.345  2.7195  0.4025  0.7595
   56SOL     OW  166   1.555   3.119   1.528 -0.1029 -0.0152 -0.0605
   56SOL    HW1  167   1.496   3.044   1.568  0.2272 -1.3931  2.1249
   56SOL    HW2  168   1.652   3.108   1.552  0.2689  1.5375  0.6194
   57SOL     OW  169   1.761   1.775   1.037 -0.1712  0.1991  0.0574
   57SOL    HW1  170   1.696   1.851   1.039  1.6305 -2.8260 -0.0931
   57SOL    HW2  171   1.707   1.691   1.021  0.1137 -0.7824  1.0895
   58SOL     OW  172   2.591   0.280   1.797  0.3673 -0.2007  0.5247
   58SOL    HW1  173   2.627   0.372   1.793  1.0130 -0.6530  1.3688
   58SOL    HW2  174   2.667   0.211   1.775  0.4261  0.8268  1.7035
   59SOL     OW  175   1.112   2.468   2.086 -0.2794 -0.1627  0.4565
   59SOL    HW1  176   1.150   2.511   2.170 -0.9947  1.6735 -0.2124
   59SOL    HW2  177   1.015   2.500   2.064 -0.6058  2.2070 -2.5965
   60SOL     OW  178   0.876   3.057   2.688  0.1689 -0.7050  0.3040
   60SOL    HW1  179   0.842   0.013   2.642 -0.2385 -0.0420  1.5901
   60SOL    HW2  180   0.854   3.058   2.786 -2.6251  1.2449 -4.1431
   61SOL     OW  181   0.720   2.196   0.644  0.2202  0.0394 -0.7034
   61SOL    HW1  182   0.794   2.193   0.579 -0.6811  0.6569 -1.4799
   61SOL    HW2  183   0.639   2.133   0.618  0.2564 -5.9926 -0.9195
   62SOL     OW  184   1.154   1.568   2.003  0.1903  0.2995 -0.4624
   62SOL    HW1  185   1.072   1.518   1.977  2.4737 -0.0625 -1.3937
   62SOL    HW2  186   1.132   1.666   2.022  3.1439 -0.1879 -0.6791
   63SOL     OW  187   0.859   1.812   0.878  0.2619 -0.0091  0.2905
   63SOL    HW1  188   0.829   1.779   0.967  1.6204 -2.0110 -3.2878
   63SOL    HW2  189   0.839   1.742   0.806 -1.1569 -0.1230  0.2924
   64SOL     OW  190   1.401   1.511   2.980  0.3896  0.3367  0.2209
   64SOL    HW1  191   1.314   1.560   2.972  0.5237 -0.0969 -2.9643
   64SOL    HW2  192   1.397   1.410   2.962  0.2477 -0.5206 -0.8674
   65SOL     OW  193   1.636   2.244   2.275  0.0364 -0.1700 -0.0499
   65SOL    HW1  194   1.619   2.147   2.251 -1.9875 -0.0185 -3.9231
   65SOL    HW2  195   1.734   2.265   2.252  2.2508 -0.3878  3.2966
   66SOL     OW  196   0.075   0.935   1.086  0.1831 -0.1290  0.0932
   66SOL    HW1  197   0.145   0.896   1.147 -0.2367 -1.0845  2.7737
   66SOL    HW2  198   0.088   0.903   0.989 -1.4247 -0.7203  0.0367
   67SOL     OW  199   2.348   2.502   0.482 -0.1615  0.2983 -0.5228
   67SOL    HW1  200   2.298   2.472   0.566 -2.6899  1.4376  0.3449
   67SOL    HW2  201   2.320   2.448   0.403 -2.6095 -1.1174  0.6030
   68SOL     OW  202   2.590   2.445   1.513 -0.2984 -0.6021 -0.0402
   68SOL    HW1  203   2.620   2.527   1.455  0.3776  0.8698 -0.5778
   68SOL    HW2  204   2.596   2.471   1.612  1.2815  2.8246 -1.5349
   69SOL     OW  205   2.657   2.587   2.838  0.1218  0.8362  0.2611
   69SOL    HW1  206   2.712   2.533   2.767  2.0621 -0.6167 -1.5812
   69SOL    HW2  207   2.597   2.657   2.796  1.0725  2.3551 -1.3187
   70SOL     OW  208   0.431   1.281   2.737 -0.2172  0.4096  0.1764
   70SOL    HW1  209   0.460   1.250   2.644  0.9072 -0.5697  0.9861
   70SOL    HW2  210   0.424   1.197   2.795  0.9226 -0.1016 -0.4749
   71SOL     OW  211   0.922   1.228   2.000 -0.0672 -0.3676  0.0502
   71SOL    HW1  212   0.830   1.203   1.984  0.8111  1.1321 -0.0990
   71SOL    HW2  213   0.930   1.329   1.988 -5.3728 -1.2212 -0.9078
   72SOL     OW  214   2.580   1.414   1.773  0.5494  0.5862  0.0980
   72SOL    HW1  215   2.624   1.415   1.866  2.8394 -0.5615  0.2286
   72SOL    HW2  216   2.651   1.380   1.710  2.0071 -0.1889 -0.6389
   73SOL     OW  217   0.680   1.861   2.985 -0.3860 -0.2519 -0.0125
   73SOL    HW1  218   0.601   1.888   2.922 -0.9170  2.2335  0.8827
   73SOL    HW2  219   0.723   1.781   2.945 -0.3290  0.4413  0.1782
   74SOL     OW  220   1.541   2.874   1.799 -0.3780  0.1672 -0.3222
   74SOL    HW1  221   1.472   2.824   1.856 -0.2353  1.7022  0.5999
   74SOL    HW2  222   1.640   2.861   1.834 -0.1661  1.3013  2.1980
   75SOL     OW  223   1.007   2.903   0.689  0.1352  0.3284 -0.1652
   75SOL    HW1  224   1.023   2.932   0.787 -0.9716  0.6646  0.7094
   75SOL    HW2  225   1.064   2.959   0.625  0.5349 -0.1432 -0.4180
   76SOL     OW  226   0.181   1.597   2.832 -0.7630 -0.2152  0.0462
   76SOL    HW1  227   0.272   1.578   2.875  0.2454  2.0098  4.4335
   76SOL    HW2  228   0.110   1.600   2.908 -0.3571  0.9294  1.1426
   77SOL     OW  229   0.342   2.419   1.306  0.2562  0.2851  0.1558
   77SOL    HW1  230   0.343   2.521   1.302  2.0172  2.8398  3.8680
   77SOL    HW2  231   0.397   2.380   1.381 -0.7375 -0.7338 -2.9540
   78SOL     OW  232   2.428   1.126   0.296  0.1794 -0.5474 -0.3623
   78SOL    HW1  233   2.523   1.089   0.291 -0.7956  2.8865 -1.8765
   78SOL    HW2  234   2.431   1.197   0.371 -0.1581  1.5760  1.0866
   79SOL     OW  235   0.626   1.604   0.075 -0.7259 -0.1833  0.0737
   79SOL    HW1  236   0.544   1.545   0.071  2.5727  1.7818 -0.4620
   79SOL    HW2  237   0.629   1.672   3.127  2.2600  2.0907 -1.8068
   80SOL     OW  238   1.756   1.618   1.652  0.8055  0.4327 -0.3548
   80SOL    HW1  239   1.748   1.664   1.740 -0.0635  0.7321  0.9383
   80SOL    HW2  240   1.670   1.576   1.625 -1.4369 -0.3530 -1.3424
   81SOL     OW  241   2.268   0.920   2.344  0.4732 -0.1726  0.0674
   81SOL    HW1  242   2.227   0.835   2.309  1.5603  1.1683 -0.6941
   81SOL    HW2  243   2.189   0.987   2.363 -2.5154  1.9770 -0.3683
   82SOL     OW  244   1.488   1.537   1.547 -0.0223  0.4666  0.2634
   82SOL    HW1  245   1.406   1.503   1.593  2.3237  1.9326  1.4029
   82SOL    HW2  246   1.489   1.618   1.486 -1.6502 -2.8293  0.8237
   83SOL     OW  247   0.270   0.172   2.948 -0.5751 -0.2684  0.0546
   83SOL    HW1  248   0.187   0.129   2.903 -1.4045 -2.2270 -1.8358
   83SOL    HW2  249   0.314   0.103   3.011 -1.6228 -2.6867  0.0939
   84SOL     OW  250   0.608   1.135   0.275 -0.1784  0.4303  0.0999
   84SOL    HW1  251   0.642   1.130   0.180 -0.7550 -1.3872  0.4508
   84SOL    HW2  252   0.552   1.221   0.296 -1.9854 -1.2444 -0.8425
   85SOL     OW  253   2.379   1.861   1.725 -0.6571  0.0613  0.4168
   85SOL    HW1  254   2.364   1.777   1.666 -0.4228  0.4355 -0.4225
   85SOL    HW2  255   2.399   1.936   1.662 -1.8201 -3.5355 -0.0175
   86SOL     OW  256   0.525   0.534   1.103  0.6451 -0.1571 -0.2897
   86SOL    HW1  257   0.584   0.610   1.127 -3.0643 -0.9624 -0.2839
   86SOL    HW2  258   0.518   0.464   1.176 -0.7851  1.5341 -1.5265
   87SOL     OW  259   2.613   2.286   2.642 -0.1074 -0.7221  0.4735
   87SOL    HW1  260   2.689   2.302   2.574  1.3995 -2.4207 -1.4326
   87SOL    HW2  261   2.543   2.358   2.627  2.2785  1.9712 -0.5604
   88SOL     OW  262   0.216   2.927   0.125 -0.2636 -0.2363 -0.2639
   88SOL    HW1  263   0.263   2.833   0.117  2.1892  0.1579 -0.6375
   88SOL    HW2  264   0.256   2.983   0.051  2.4630  0.3416 -0.6713
   89SOL     OW  265   1.447   0.015   3.059 -0.3023  0.0474  0.0822
   89SOL    HW1  266   1.396   3.059   3.026  0.6794 -3.4294 -1.1147
   89SOL    HW2  267   1.390   0.099   3.065 -0.2833 -2.7967  0.7365
   90SOL     OW  268   3.050   1.562   2.330 -0.1523 -0.1595  0.3556
   90SOL    HW1  269   3.018   1.587   2.422  1.4260 -0.8887  2.1185
   90SOL    HW2  270   3.020   1.468   2.300 -0.9299  0.7922  0.7647
   91SOL     OW  271   2.081   2.922   1.315 -0.2064 -0.2424  0.0377
   91SOL    HW1  272   2.149   2.947   1.245 -4.7603 -2.6276  1.6199
   91SOL    HW2  273   1.992   2.965   1.293 -1.2520  1.2439  2.5306
   92SOL     OW  274   1.847   1.417   0.889  0.4192  0.5781 -0.0383
   92SOL    HW1  275   1.781   1.456   0.957 -0.2043 -1.9323  2.2358
   92SOL    HW2  276   1.928   1.389   0.934 -0.9573 -1.5309 -3.2353
   93SOL     OW  277   0.252   1.467   0.456  0.3536 -0.0386 -0.2735
   93SOL    HW1  278   0.305   1.551   0.454 -1.1750 -2.4208  1.9651
   93SOL    HW2  279   0.161   1.491   0.500 -0.7128  0.7269 -0.5020
   94SOL     OW  280   1.172   2.659   1.386 -0.0049  0.4973  0.0257
   94SOL    HW1  281   1.253   2.600   1.398  1.4745  0.0619 -1.1143
   94SOL    HW2  282   1.113   2.645   1.469 -0.3327  0.0228  1.8035
   95SOL     OW  283   0.221   0.733   0.578  0.3721 -0.4070 -0.0392
   95SOL    HW1  284   0.318   0.755   0.542  4.2074 -0.4834  2.1144
   95SOL    HW2  285   0.200   0.782   0.664  3.0554  1.9862  2.0967
   96SOL     OW  286   0.414   3.029   1.667 -0.0002 -0.9507 -0.1544
   96SOL    HW1  287   0.508   3.009   1.670 -3.5327  0.7614  0.5467
   96SOL    HW2  288   0.362   2.952   1.625  0.1334 -2.5574 -0.0696
   97SOL     OW  289   2.181   0.611   0.820  0.1665 -0.1648 -0.4754
   97SOL    HW1  290   2.104   0.554   0.782  2.6421  1.1137  0.5437
   97SOL    HW2  291   2.214   0.686   0.758 -1.7089  1.9971 -0.1532
   98SOL     OW  292   2.856   2.205   1.713  0.0015  0.0458  0.1572
   98SOL    HW1  293   2.858   2.298   1.754 -0.1012 -0.5333 -2.2634
   98SOL    HW2  294   2.840   2.223   1.610  1.6628  0.4561 -1.0068
   99SOL     OW  295   2.990   0.367   1.364  0.6919  0.4084  0.0825
   99SOL    HW1  296   3.010   0.272   1.327 -1.1873  2.7161  1.9425
   99SOL    HW2  297   3.019   0.379   1.464  0.6497  2.1983  0.0098
  100SOL     OW  298   2.146   0.445   2.774 -0.2662 -0.2465 -0.2989
  100SOL    HW1  299   2.143   0.505   2.693  2.5328 -0.1559  0.4081
  100SOL    HW2  300   2.124   0.347   2.757 -2.2365 -3.6607 -1.2374
  101SOL     OW  301   0.649   0.011   2.400  0.0055  0.4535  0.7762
  101SOL    HW1  302   0.655   0.002   2.299 -0.2174 -3.2616  0.5835
  101SOL    HW2  303   0.654   3.045   2.437  0.5926 -2.3961  1.5544
  102SOL     OW  304   0.870   0.452   1.548  0.6303 -0.2881 -0.3378
  102SOL    HW1  305   0.862   0.360   1.503  0.4849  0.6327 -2.2030
  102SOL    HW2  306   0.870   0.515   1.466 -0.8201 -1.3109  0.0733
  103SOL     OW  307   1.255   0.707   2.484  0.7848  0.1850 -0.0355
  103SOL    HW1  308   1.323   0.644   2.465 -4.2436  0.8607  0.7180
  103SOL    HW2  309   1.258   0.771   2.405  2.2592 -1.4747  0.3010
  104SOL     OW  310   0.333   0.218   1.783 -0.2866  0.3220 -0.0539
  104SOL    HW1  311   0.428   0.247   1.772 -1.2258 -3.1238  2.1679
  104SOL    HW2  312   0.326   0.141   1.852  3.2682 -1.9685 -1.0495
  105SOL     OW  313   2.447   2.078   1.604 -0.1295 -0.2423 -0.1963
  105SOL    HW1  314   2.537   2.060   1.564 -0.6863  0.8225  1.0835
  105SOL    HW2  315   2.463   2.142   1.686  0.5317  1.7742  1.5454
  106SOL     OW  316   1.152   3.038   0.502  0.2891  0.0624 -0.6996
  106SOL    HW1  317   1.176   2.978   0.423 -2.7589 -0.5239  1.0232
  106SOL    HW2  318   1.235   3.089   0.532 -2.7356 -2.1150  1.7359
  107SOL     OW  319   2.534   1.970   1.261 -0.1738 -1.0452  0.1435
  107SOL    HW1  320   2.531   2.066   1.288  2.3216 -0.7478 -0.8136
  107SOL    HW2  321   2.550   1.974   1.159 -0.0556 -1.4816 -2.5830
  108SOL     OW  322   0.040   2.297   0.435 -0.2482  0.2224  0.0791
  108SOL    HW1  323   0.090   2.223   0.384 -0.1003  0.8432 -0.2383
  108SOL    HW2  324   0.079   2.314   0.527 -1.4252  3.2183 -2.4524
  109SOL     OW  325   1.559   3.011   0.610 -0.4596 -0.0262 -0.1575
  109SOL    HW1  326   1.589   2.937   0.548 -0.0014  1.0565  1.1220
  109SOL    HW2  327   1.646   3.049   0.648  0.9726  0.5598 -0.4745
  110SOL     OW  328   1.644   1.524   1.036  0.1880  0.2583  0.2196
  110SOL    HW1  329   1.622   1.516   1.135 -1.1457  1.7135 -0.5968
  110SOL    HW2  330   1.565   1.535   0.977  3.6643 -1.1967 -1.1878
  111SOL     OW  331   1.670   2.552   1.954 -0.1574  0.1355 -0.2173
  111SOL    HW1  332   1.575   2.566   1.931  3.1303 -0.2447  1.0018
  111SOL    HW2  333   1.697   2.456   1.931  1.1930 -0.6426 -0.6482
  112SOL     OW  334   2.085   2.217   2.629 -0.1445  0.5079  0.2128
  112SOL    HW1  335   2.145   2.160   2.686  2.2211 -0.2244  0.0762
  112SOL    HW2  336   2.098   2.312   2.654 -2.4375 -2.2715 -1.4458
  113SOL     OW  337   2.002   2.018   1.902  0.5521 -0.7153 -0.4187
  113SOL    HW1  338   2.088   1.961   1.879  3.2038 -0.1372  0.6615
  113SOL    HW2  339   1.961   2.057   1.817 -0.1490 -1.0104 -3.4500
  114SOL     OW  340   0.220   1.089   1.498 -0.3617 -0.0878 -0.4892
  114SOL    HW1  341   0.123   1.084   1.466  0.1633  1.5471  1.1434
  114SOL    HW2  342   0.259   1.178   1.465 -1.9484 -1.5207  5.8342
  115SOL     OW  343   3.028   0.748   2.848  0.0192  0.1173 -0.1028
  115SOL    HW1  344   3.085   0.824   2.806 -2.7623 -1.8528 -0.8159
  115SOL    HW2  345   2.943   0.789   2.880 -0.8987 -0.8875  1.5729
  116SOL     OW  346   2.864   0.280   2.753 -0.1941 -0.1463 -0.0456
  116SOL    HW1  347   2.940   0.319   2.797  0.1884  1.9939 -0.4596
  116SOL    HW2  348   2.827   0.348   2.687 -1.5022  0.7724 -0.8616
  117SOL     OW  349   2.724   2.858   0.282  0.2573  0.6498 -0.4404
  117SOL    HW1  350   2.809   2.807   0.309 -0.4467  1.4452 -1.4470
  117SOL    HW2  351   2.657   2.798   0.234 -0.7424 -1.7665 -1.9769
  118SOL     OW  352   0.429   2.023   2.270  0.1586 -0.9280  0.2096
  118SOL    HW1  353   0.441   2.081   2.357  1.4445  0.4947  4.5352
  118SOL    HW2  354   0.511   2.025   2.210 -0.4970 -3.2918  1.6423
  119SOL     OW  355   0.653   2.799   0.333 -0.2235  0.1051  0.3510
  119SOL    HW1  356   0.654   2.720   0.404 -0.5712 -2.0035  0.4570
  119SOL    HW2  357   0.742   2.850   0.334  0.7381  1.5904  2.6226
  120SOL     OW  358   1.600   0.827   0.387  0.5786  0.0740  0.4475
  120SOL    HW1  359   1.576   0.818   0.482  1.4790 -0.9507 -3.0187
  120SOL    HW2  360   1.635   0.920   0.377 -2.1140 -1.5093 -0.9767
  121SOL     OW  361   1.816   0.289   0.849  0.4377  0.2666 -0.6806
  121SOL    HW1  362   1.789   0.304   0.945 -3.7048  2.2613  2.7024
  121SOL    HW2  363   1.731   0.276   0.794 -1.6718  2.4842 -0.5896
  122SOL     OW  364   2.009   1.343   2.220 -1.0239 -0.0286 -0.2278
  122SOL    HW1  365   1.944   1.405   2.272  1.0105 -0.8811 -1.9871
  122SOL    HW2  366   2.054   1.395   2.146  0.1305 -1.2010 -0.3897
  123SOL     OW  367   1.084   1.108   0.993  0.1361  0.0775  0.0101
  123SOL    HW1  368   1.137   1.025   0.957  1.7959 -0.9099  1.4354
  123SOL    HW2  369   1.014   1.087   1.060 -0.4012  0.0024 -2.8322
  124SOL     OW  370   0.667   0.654   2.780 -0.2669 -0.1361 -0.2133
  124SOL    HW1  371   0.620   0.577   2.736  1.8006  1.4718 -2.1119
  124SOL    HW2  372   0.766   0.650   2.790 -2.3364 -0.7458  0.6376
  125SOL     OW  373   0.957   0.416   0.283  0.2433 -0.0972  0.1648
  125SOL    HW1  374   1.002   0.354   0.219  0.7234  2.9640  2.3610
  125SOL    HW2  375   1.020   0.454   0.354  1.4050 -0.6130  0.4738
  126SOL     OW  376   0.375   1.730   0.469  0.2634 -0.0350  0.5879
  126SOL    HW1  377   0.299   1.755   0.531 -0.0820 -1.4188  1.3143
  126SOL    HW2  378   0.462   1.722   0.521 -3.7676  2.0276  0.0819
  127SOL     OW  379   0.995   2.623   1.606 -0.8108 -0.1650 -0.2100
  127SOL    HW1  380   0.899   2.649   1.641 -3.3286  0.0223 -0.7082
  127SOL    HW2  381   1.066   2.693   1.632  0.8718  1.1155  1.0032
  128SOL     OW  382   1.004   1.784   0.401  0.3071 -0.8108 -0.0591
  128SOL    HW1  383   1.041   1.703   0.348 -0.1633 -1.7472  0.3643
  128SOL    HW2  384   0.982   1.867   0.347  2.2070 -0.7338 -2.6092
  129SOL     OW  385   1.728   1.515   2.048  0.6460 -0.2507 -0.0140
  129SOL    HW1  386   1.687   1.589   1.994  1.4593 -3.1910 -0.4938
  129SOL    HW2  387   1.815   1.550   2.088 -2.1791 -0.5372 -1.4094
  130SOL     OW  388   2.005   2.006   1.606  0.6113 -0.1196  0.1960
  130SOL    HW1  389   2.098   2.006   1.563  0.9848 -2.4900 -2.9281
  130SOL    HW2  390   1.940   1.945   1.554 -0.0515 -0.1460  0.4162
  131SOL     OW  391   0.261   2.343   1.999  0.3447 -0.1399  0.3156
  131SOL    HW1  392   0.234   2.274   2.069 -3.2994  2.5994  0.9962
  131SOL    HW2  393   0.252   2.306   1.905 -0.4277  0.8226 -2.5393
  132SOL     OW  394   2.674   1.874   0.786  0.3214  0.2288  0.1734
  132SOL    HW1  395   2.698   1.774   0.794  1.1203  1.1000  2.7326
  132SOL    HW2  396   2.752   1.929   0.754 -2.0290 -0.2968  1.6234
  133SOL     OW  397   0.700   0.862   1.729  0.0226  0.1567  0.0299
  133SOL    HW1  398   0.725   0.961   1.712 -0.9764  1.6281  1.2212
  133SOL    HW2  399   0.774   0.812   1.777 -0.6715 -1.7198  1.7472
  134SOL     OW  400   2.477   1.358   0.444  0.3936  0.1657  0.8243
  134SOL    HW1  401   2.563   1.336   0.400  1.4299  1.4680 -0.4972
  134SOL    HW2  402   2.472   1.453   0.469 -2.6577  0.4354  0.0433
  135SOL     OW  403   1.813   1.109   2.986 -0.2113  0.1857 -0.0660
  135SOL    HW1  404   1.843   1.185   3.047  1.5785 -3.0057  0.0404
  135SOL    HW2  405   1.887   1.077   2.923 -1.6248  1.9836 -2.9654
  136SOL     OW  406   2.728   1.437   1.062  0.1953  0.5859 -0.9993
  136SOL    HW1  407   2.642   1.485   1.087 -0.9085  0.9010 -0.2288
  136SOL    HW2  408   2.751   1.382   1.142  2.5660  2.0492  2.0039
  137SOL     OW  409   2.261   1.906   0.612  0.3796 -0.2301 -0.1672
  137SOL    HW1  410   2.239   1.807   0.623 -1.4715  0.6080 -1.5117
  137SOL    HW2  411   2.361   1.925   0.591 -0.0531 -1.3885  0.9699
  138SOL     OW  412   2.605   0.778   0.621 -0.0162 -0.2700  0.4809
  138SOL    HW1  413   2.664   0.694   0.596 -1.1677 -0.7951 -0.9074
  138SOL    HW2  414   2.509   0.752   0.607  0.8643 -1.1379  0.2323
  139SOL     OW  415   2.954   3.011   2.831 -0.2166  0.3464  0.5898
  139SOL    HW1  416   2.923   3.026   2.928  0.7092 -0.4343 -0.8020
  139SOL    HW2  417   2.907   3.072   2.760 -0.3626  0.6947 -1.1583
  140SOL     OW  418   0.789   1.132   1.724  0.2348 -0.1796 -0.1355
  140SOL    HW1  419   0.748   1.177   1.810 -1.3656 -0.5274  0.0615
  140SOL    HW2  420   0.777   1.196   1.649  0.8702 -1.1365  2.6331
  141SOL     OW  421   1.140   1.607   0.913 -0.4373  0.5230  0.3758
  141SOL    HW1  422   1.162   1.553   0.993 -0.7472 -1.1587 -2.5703
  141SOL    HW2  423   1.130   1.708   0.933 -1.2325  2.7641 -0.5177
  142SOL     OW  424   1.459   1.018   1.143  0.0685 -0.8352 -0.3714
  142SOL    HW1  425   1.495   0.939   1.090 -3.0600 -0.2532 -0.3769
  142SOL    HW2  426   1.457   1.098   1.078  2.7532  1.3250 -0.4707
  143SOL     OW  427   0.750   0.965   2.783 -0.2286 -0.3513  0.1427
  143SOL    HW1  428   0.729   1.059   2.819  2.4500  0.7932 -1.2840
  143SOL    HW2  429   0.666   0.917   2.761 -1.5021 -0.4565 -1.4425
  144SOL     OW  430   2.582   3.088   0.233 -0.3014  0.0587  0.4362
  144SOL    HW1  431   2.640   3.017   0.280 -0.6139 -2.1518  1.1589
  144SOL    HW2  432   2.524   3.046   0.161  0.5533 -0.3465  0.2423
  145SOL     OW  433   2.431   0.319   2.784 -0.0130 -0.0228 -0.0855
  145SOL    HW1  434   2.393   0.335   2.876 -2.8256  1.4338  0.8483
  145SOL    HW2  435   2.453   0.408   2.744 -0.4222 -1.7250  0.0612
  146SOL     OW  436   3.001   2.991   0.400 -0.5363 -0.6661  0.8529
  146SOL    HW1  437   2.998   2.962   0.299  0.6180  1.3219  1.0046
  146SOL    HW2  438   2.958   3.082   0.409  1.8734 -1.0807  1.1754
  147SOL     OW  439   1.360   1.242   2.897  0.1930 -0.6493 -0.2058
  147SOL    HW1  440   1.418   1.159   2.907  4.2311 -0.3691  1.9826
  147SOL    HW2  441   1.279   1.211   2.844 -0.1591 -0.9159  1.4891
  148SOL     OW  442   1.208   3.038   0.190  0.1570 -0.1616 -0.1177
  148SOL    HW1  443   1.169   0.003   0.187  2.2018 -3.0351  2.0559
  148SOL    HW2  444   1.205   2.990   0.100 -1.1265  1.4536 -0.8913
  149SOL     OW  445   1.499   0.719   2.205  0.2513  0.1646 -0.2719
  149SOL    HW1  446   1.596   0.728   2.240 -1.1111 -0.5489  0.1896
  149SOL    HW2  447   1.469   0.807   2.170  0.0585 -3.1919  0.3160
  150SOL     OW  448   1.909   3.058   2.883 -0.3813  0.2077 -0.0514
  150SOL    HW1  449   1.871   3.108   2.958  0.2340 -4.2447 -1.2901
  150SOL    HW2  450   2.009   3.078   2.877  0.0938 -0.7906  1.2597
  151SOL     OW  451   0.476   1.355   0.309  0.5851 -0.2221 -0.0091
  151SOL    HW1  452   0.463   1.362   0.206  1.5196  0.7155 -3.1947
  151SOL    HW2  453   0.387   1.357   0.356  2.9163  0.5073  1.0336
  152SOL     OW  454   0.584   0.360   1.337 -0.1715 -0.0348 -0.3254
  152SOL    HW1  455   0.542   0.428   1.395 -3.1837 -0.5692 -1.1418
  152SOL    HW2  456   0.676   0.338   1.371 -0.1936  0.3556  0.3531
  153SOL     OW  457   2.496   2.954   1.941  0.4162  0.1965 -0.2208
  153SOL    HW1  458   2.444   3.036   1.908 -1.4009  0.5470  0.4825
  153SOL    HW2  459   2.502   2.953   2.044  0.1436 -1.2949 -2.0045
  154SOL     OW  460   2.136   3.006   2.185  0.2725 -0.0952 -0.0503
  154SOL    HW1  461   2.152   3.095   2.140  0.7192 -0.4077  1.1604
  154SOL    HW2  462   2.132   2.927   2.121  1.9607 -2.5181 -0.7385
  155SOL     OW  463   0.440   1.074   0.605 -0.3276  0.0315 -0.6305
  155SOL    HW1  464   0.373   1.147   0.582 -1.6144 -0.9188 -0.7633
  155SOL    HW2  465   0.498   1.099   0.683 -0.4626  1.5495 -0.5374
  156SOL     OW  466   2.179   1.633   0.623  0.3123  0.6341  0.2437
  156SOL    HW1  467   2.274   1.609   0.594  0.5970 -2.3040  0.7346
  156SOL    HW2  468   2.106   1.568   0.598  0.6018 -1.1380 -1.4498
  157SOL     OW  469   0.969   0.209   3.010 -0.4042  0.1191 -0.1334
  157SOL    HW1  470   1.003   0.120   3.048  3.7304  0.0602  2.4790
  157SOL    HW2  471   0.878   0.224   3.052 -0.5933 -1.0575  1.5547
  158SOL     OW  472   1.806   1.262   1.399 -0.0811  0.0753 -0.4533
  158SOL    HW1  473   1.832   1.255   1.501 -2.7731 -2.5199  2.5970
  158SOL    HW2  474   1.878   1.248   1.330 -0.1903  0.3368  0.7368
  159SOL     OW  475   2.944   0.427   0.259 -0.5682  0.1988 -0.2190
  159SOL    HW1  476   3.026   0.403   0.317  1.1665  0.5347  0.4551
  159SOL    HW2  477   2.863   0.381   0.299  0.1806  1.8223  1.0014
  160SOL     OW  478   2.490   2.236   1.833  0.3276 -0.2398  0.3826
  160SOL    HW1  479   2.548   2.317   1.848 -2.2833  0.8395 -2.3676
  160SOL    HW2  480   2.398   2.258   1.863  0.7890 -2.0222 -1.0183
  161SOL     OW  481   0.542   0.610   3.021 -0.1436  0.2171  0.0510
  161SOL    HW1  482   0.607   0.624   2.944  0.5040  1.7970  0.0042
  161SOL    HW2  483   0.450   0.643   2.997  1.0601 -0.7901 -0.0752
  162SOL     OW  484   0.650   0.392   1.689 -0.5344  0.9529  0.2467
  162SOL    HW1  485   0.575   0.427   1.631 -2.4327 -0.5799 -0.0557
  162SOL    HW2  486   0.745   0.408   1.649  1.9041  1.9824  0.9891
  163SOL     OW  487   2.673   0.195   2.429  0.1027  0.0061 -1.0726
  163SOL    HW1  488   2.599   0.125   2.421  0.9570  1.4593  0.6729
  163SOL    HW2  489   2.759   0.165   2.382 -1.6323  1.6449 -0.2968
  164SOL     OW  490   2.320   1.892   0.336 -0.1951 -0.3128  0.1807
  164SOL    HW1  491   2.235   1.931   0.290 -2.9884  1.7657 -1.0110
  164SOL    HW2  492   2.319   1.898   0.437 -2.0295 -1.2746  1.5881
  165SOL     OW  493   0.341   0.040   0.982  0.2693  0.1851  0.2749
  165SOL    HW1  494   0.289   0.101   0.920 -1.4571 -1.2842  0.9841
  165SOL    HW2  495   0.415   0.090   1.037  0.9034 -1.9393  0.2955
  166SOL     OW  496   2.886   0.214   3.022 -0.0272 -0.4337  0.3614
  166SOL    HW1  497   2.832   0.237   2.937  1.0669 -1.0360 -1.4295
  166SOL    HW2  498   2.866   0.116   3.048 -0.2506  1.6927  1.2653
  167SOL     OW  499   2.373   0.619   0.329 -0.3800 -0.4449  0.6146
  167SOL    HW1  500   2.271   0.615   0.341  2.2379  0.7645  0.4337
  167SOL    HW2  501   2.392   0.624   0.228 -0.0189  0.7923  2.3694
  168SOL     OW  502   1.532   2.988   2.147 -0.0249  0.0503 -0.2374
  168SOL    HW1  503   1.522   3.042   2.235  0.3795 -0.9212 -0.1218
  168SOL    HW2  504   1.445   2.962   2.103  0.5571 -1.0515 -0.8522
  169SOL     OW  505   0.279   2.068   0.644  0.2116  0.7835 -0.1206
  169SOL    HW1  506   0.256   1.972   0.671  0.5229  1.4900  0.3957
  169SOL    HW2  507   0.255   2.140   0.712  1.1036 -1.4607 -2.9856
  170SOL     OW  508   0.239   0.350   1.442 -0.3394  0.1248  0.4942
  170SOL    HW1  509   0.200   0.282   1.511 -3.4939 -2.4806 -0.3802
  170SOL    HW2  510   0.245   0.311   1.350  0.1850  3.9399 -0.2163
  171SOL     OW  511   2.701   1.410   2.480  0.0573  0.7545 -0.1333
  171SOL    HW1  512   2.678   1.379   2.384  0.3360  1.0904 -0.5224
  171SOL    HW2  513   2.619   1.403   2.540  2.6989 -1.3242 -1.1170
  172SOL     OW  514   0.653   1.680   1.174 -0.5213 -0.3938 -0.0163
  172SOL    HW1  515   0.648   1.581   1.149 -1.0314 -0.3713 -0.6032
  172SOL    HW2  516   0.751   1.706   1.175 -1.2662  0.0946 -1.1693
  173SOL     OW  517   2.008   2.192   3.114 -0.5933 -1.2657 -0.3874
  173SOL    HW1  518   2.020   2.094   3.126  0.5333  1.6004 -1.6224
  173SOL    HW2  519   1.931   2.229   0.042  0.2703 -0.0051  0.1336
  174SOL     OW  520   1.935   0.754   2.971  0.2277  0.2298 -0.2039
  174SOL    HW1  521   1.899   0.744   2.878 -0.7799 -0.4167  0.0817
  174SOL    HW2  522   1.859   0.750   3.035  1.6606 -0.1872 -1.7168
  175SOL     OW  523   0.585   1.813   1.938  0.1082  0.5224 -0.1389
  175SOL    HW1  524   0.641   1.885   1.897  1.1237 -2.2669 -1.8775
  175SOL    HW2  525   0.489   1.849   1.947 -0.7159 -0.4841  1.1089
  176SOL     OW  526   0.541   0.178   0.340 -0.7041  0.5809 -0.1308
  176SOL    HW1  527   0.571   0.114   0.413  0.5047  1.0055 -2.4530
  176SOL    HW2  528   0.446   0.163   0.310  2.9284 -0.4016 -0.7265
  177SOL     OW  529   0.058   1.476   0.111 -0.0140  0.3233 -0.5681
  177SOL    HW1  530   3.115   1.428   0.165  0.5492  2.6992 -0.6127
  177SOL    HW2  531   0.026   1.491   0.018 -4.3535 -0.0977 -2.2256
  178SOL     OW  532   3.062   2.279   2.463  0.7298  0.2607  0.3558
  178SOL    HW1  533   3.091   2.284   2.561 -1.6333  0.2922  2.2040
  178SOL    HW2  534   3.098   2.196   2.417 -0.1846  0.3187 -1.2914
  179SOL     OW  535   2.623   3.057   2.972 -0.1414 -0.2279 -0.7423
  179SOL    HW1  536   2.628   3.127   2.894  0.2212  1.6710 -0.1035
  179SOL    HW2  537   2.535   3.050   3.022 -0.2638 -0.0182  0.0253
  180SOL     OW  538   2.494   0.639   0.870 -0.4444 -0.4623 -0.7663
  180SOL    HW1  539   2.416   0.574   0.860 -2.7541  1.6529 -1.7524
  180SOL    HW2  540   2.510   0.698   0.789 -0.6599 -0.1478 -1.6503
  181SOL     OW  541   3.107   0.032   2.464  0.0413 -0.3115  0.3046
  181SOL    HW1  542   3.049   0.065   2.385  2.1818 -1.4947 -0.9554
  181SOL    HW2  543   0.049   3.092   2.434  1.6193 -0.2205  2.0374
  182SOL     OW  544   2.374   2.515   2.575 -0.2238  0.1269 -0.1422
  182SOL    HW1  545   2.307   2.484   2.646 -3.8749  1.0797  1.3527
  182SOL    HW2  546   2.331   2.512   2.482 -0.3278 -1.3129 -0.5804
  183SOL     OW  547   2.647   1.108   1.714 -0.2839  0.1123 -0.0765
  183SOL    HW1  548   2.616   1.096   1.808 -0.4153  3.1502 -3.4125
  183SOL    HW2  549   2.751   1.091   1.711  2.0440  1.1334 -1.8407
  184SOL     OW  550   2.769   1.616   0.786 -0.2884 -0.1916  0.9329
  184SOL    HW1  551   2.772   1.581   0.882 -1.0481  1.3257 -1.0314
  184SOL    HW2  552   2.844   1.580   0.732  1.2103  2.5885  2.2837
  185SOL     OW  553   3.076   0.443   0.626 -0.1924  0.0717 -0.1371
  185SOL    HW1  554   3.094   0.379   0.552 -0.9904  0.4881  1.0641
  185SOL    HW2  555   3.118   0.411   0.714  1.9866  0.2122  1.2207
  186SOL     OW  556   2.249   2.506   2.332  0.0752 -0.0965  0.2644
  186SOL    HW1  557   2.154   2.489   2.362  1.3596  1.6498 -0.6484
  186SOL    HW2  558   2.274   2.429   2.274 -2.4289  2.5609  2.6602
  187SOL     OW  559   0.457   1.477   0.774 -0.0674 -0.4842  0.0995
  187SOL    HW1  560   0.509   1.452   0.687  2.0832 -0.0976 -2.0221
  187SOL    HW2  561   0.504   1.556   0.823  1.3938  1.7012  1.0258
  188SOL     OW  562   1.746   1.855   0.565 -0.0363 -0.4575 -0.1666
  188SOL    HW1  563   1.741   1.765   0.619  0.8370 -0.8046  2.8602
  188SOL    HW2  564   1.652   1.889   0.538 -2.8067  1.9613 -1.7028
  189SOL     OW  565   3.045   1.555   2.943  0.2791 -0.4926 -0.0635
  189SOL    HW1  566   3.071   1.488   2.871 -1.1549 -5.0221  0.7019
  189SOL    HW2  567   2.943   1.545   2.945  1.0700  2.1548 -0.8707
  190SOL     OW  568   2.542   0.351   2.194 -0.3090  0.3003 -0.3458
  190SOL    HW1  569   2.449   0.391   2.226 -2.2455 -1.1942 -1.3209
  190SOL    HW2  570   2.594   0.305   2.269 -1.5512 -1.7721  1.2408
  191SOL     OW  571   1.104   0.759   2.139  0.1860 -0.0904 -0.6834
  191SOL    HW1  572   1.135   0.830   2.201 -1.8539 -2.6916 -3.0249
  191SOL    HW2  573   1.112   0.800   2.050  1.5866 -1.1001 -0.4111
  192SOL     OW  574   1.604   1.319   2.257  0.1543  0.1312  0.0102
  192SOL    HW1  575   1.654   1.391   2.200 -0.9581 -0.9151  0.2213
  192SOL    HW2  576   1.512   1.299   2.210 -0.0362  0.4370 -1.4000
  193SOL     OW  577   1.375   2.772   1.084  0.2976 -0.3709 -0.2892
  193SOL    HW1  578   1.448   2.782   1.153 -1.1570 -0.2073 -2.5516
  193SOL    HW2  579   1.390   2.843   1.011  0.5292 -0.2902 -1.9427
  194SOL     OW  580   1.413   1.621   1.895  0.2241 -0.6382 -0.0162
  194SOL    HW1  581   1.445   1.535   1.855 -0.5352  0.7118 -2.0111
  194SOL    HW2  582   1.315   1.614   1.916  0.5645  0.1327 -2.1675
  195SOL     OW  583   2.020   0.110   0.803 -0.5106 -0.4587  0.4625
  195SOL    HW1  584   2.041   0.089   0.898 -0.5205  2.4811 -0.2664
  195SOL    HW2  585   1.933   0.167   0.792  0.7254 -1.2358 -1.6045
  196SOL     OW  586   1.141   1.384   2.398  0.1710  0.4436 -0.2073
  196SOL    HW1  587   1.051   1.400   2.435 -2.2627  1.4046  0.6509
  196SOL    HW2  588   1.147   1.298   2.349 -0.9538  3.9976  0.4337
  197SOL     OW  589   0.402   0.148   2.103  0.2274 -0.5818  0.1648
  197SOL    HW1  590   0.502   0.170   2.110 -0.1634 -2.6529  0.3706
  197SOL    HW2  591   0.397   0.075   2.031 -1.6337  1.2152 -1.1590
  198SOL     OW  592   0.049   1.226   1.081 -0.4817 -0.0536 -0.6334
  198SOL    HW1  593   0.048   1.127   1.102  1.1951 -3.5444 -0.0789
  198SOL    HW2  594   0.050   1.249   0.983  1.0539  2.2808  0.4721
  199SOL     OW  595   0.343   2.204   0.880 -0.3324 -0.0617  0.2761
  199SOL    HW1  596   0.427   2.253   0.834  2.4680  2.6725 -2.1569
  199SOL    HW2  597   0.372   2.178   0.975 -0.8546 -0.6428  2.4923
  200SOL     OW  598   2.435   1.701   3.022  0.6798  0.5995  0.3098
  200SOL    HW1  599   2.457   1.720   3.125  2.6773 -0.9461  2.5393
  200SOL    HW2  600   2.469   1.612   2.988 -1.5448  0.4378  2.6296
  201SOL     OW  601   0.695   2.144   1.481  0.0680  0.3055 -0.0480
  201SOL    HW1  602   0.660   2.050   1.470  1.8237  0.2985 -2.3728
  201SOL    HW2  603   0.751   2.157   1.399 -0.7603  1.3906  0.4487
  202SOL     OW  604   1.113   2.331   0.048  0.1823 -0.6557  0.3214
  202SOL    HW1  605   1.054   2.409   0.076 -0.5899 -1.4207 -1.4350
  202SOL    HW2  606   1.177   2.354   3.102 -0.3624  0.7294  0.4903
  203SOL     OW  607   1.858   0.417   2.236  0.2509  0.2083  0.3394
  203SOL    HW1  608   1.940   0.369   2.199 -1.3696 -2.2424 -2.4149
  203SOL    HW2  609   1.773   0.398   2.187 -2.0747  1.1647  0.8186
  204SOL     OW  610   0.273   1.344   1.439 -0.2603 -0.0333 -0.1256
  204SOL    HW1  611   0.219   1.377   1.357 -3.0684  0.6909 -1.1663
  204SOL    HW2  612   0.364   1.387   1.429  2.1290  1.7603 -0.6364
  205SOL     OW  613   2.509   1.439   2.902  0.1432 -0.1041  0.0365
  205SOL    HW1  614   2.449   1.443   2.817 -2.0248  0.0584 -1.2445
  205SOL    HW2  615   2.461   1.376   2.965  2.5158 -0.6647 -0.1236
  206SOL     OW  616   0.065   1.903   2.524 -0.4886  0.0419  0.4551
  206SOL    HW1  617   3.100   1.866   2.545  0.1101 -1.0193 -0.7877
  206SOL    HW2  618   0.066   1.946   2.431  1.2002  0.0702 -0.6749
  207SOL     OW  619   0.813   3.047   1.740  0.4471  0.1465 -0.0579
  207SOL    HW1  620   0.901   3.029   1.785  1.0742  2.6739 -0.6576
  207SOL    HW2  621   0.766   3.121   1.788  1.3428  1.4652  0.1194
  208SOL     OW  622   0.571   2.388   1.481  0.0941  0.0988 -0.1800
  208SOL    HW1  623   0.543   2.390   1.581  0.6670  1.8909 -0.0850
  208SOL    HW2  624   0.608   2.298   1.464 -2.5009  1.0227 -0.7997
  209SOL     OW  625   1.010   2.628   2.650  0.1003  0.3887  0.0751
  209SOL    HW1  626   0.979   2.668   2.559  1.3864 -0.0357  2.0771
  209SOL    HW2  627   1.070   2.690   2.697 -1.1165 -4.0440  0.8470
  210SOL     OW  628   2.753   1.445   1.988 -0.0568 -0.3292  0.2983
  210SOL    HW1  629   2.837   1.396   1.963 -3.5062 -1.5918 -2.0006
  210SOL    HW2  630   2.776   1.545   2.003  0.1576 -1.2954  0.8254
  211SOL     OW  631   1.100   3.124   2.085 -0.4713 -0.3539 -0.7099
  211SOL    HW1  632   1.070   0.004   2.180 -1.9160 -0.5968 -0.3232
  211SOL    HW2  633   1.156   0.075   2.050 -0.5985  0.5055 -0.3445
  212SOL     OW  634   1.420   2.390   1.724  0.3727 -0.4942 -0.0638
  212SOL    HW1  635   1.389   2.416   1.822  1.4258 -1.8178  0.1520
  212SOL    HW2  636   1.445   2.291   1.712  0.3966  1.2945 -2.2938
  213SOL     OW  637   2.531   0.856   1.860  0.3483 -0.2357 -0.1255
  213SOL    HW1  638   2.472   0.937   1.871 -0.0942 -1.8670 -0.1177
  213SOL    HW2  639   2.520   0.820   1.763  0.1100 -0.8369  1.7177
  214SOL     OW  640   0.909   1.833   1.591  0.1416 -0.0530  0.4374
  214SOL    HW1  641   0.974   1.874   1.520  0.1071 -2.3523 -0.9490
  214SOL    HW2  642   0.939   1.866   1.684  2.9921 -0.6378  0.9843
  215SOL     OW  643   2.630   2.251   1.102  0.8177 -0.1292 -0.0396
  215SOL    HW1  644   2.547   2.246   1.047  0.0022 -2.5902  0.7816
  215SOL    HW2  645   2.599   2.244   1.201 -0.9295  1.6018  1.2878
  216SOL     OW  646   3.092   0.797   1.355  0.1693 -0.0785  0.6876
  216SOL    HW1  647   0.054   0.751   1.351 -2.6211 -1.5898  0.8375
  216SOL    HW2  648   3.098   0.897   1.355 -2.2924  1.2683 -2.9160
  217SOL     OW  649   2.055   0.334   1.377 -0.0761 -0.3389 -0.5378
  217SOL    HW1  650   2.116   0.305   1.303  1.5039 -0.4968 -0.9474
  217SOL    HW2  651   1.961   0.300   1.368  2.1741  1.4410 -1.0428
  218SOL     OW  652   1.629   2.461   1.083  0.0613  0.5456  0.0671
  218SOL    HW1  653   1.676   2.534   1.032  1.4348 -0.2037  1.2457
  218SOL    HW2  654   1.531   2.482   1.102 -2.3932 -0.3343 -1.6359
  219SOL     OW  655   1.411   2.232   0.168  0.2369  0.2426  0.1082
  219SOL    HW1  656   1.443   2.311   0.115  1.4047 -0.0091  1.5167
  219SOL    HW2  657   1.336   2.267   0.224  0.1089 -1.2389 -1.1203
  220SOL     OW  658   1.668   2.353   2.815  0.5181  0.2076 -0.7103
  220SOL    HW1  659   1.625   2.407   2.738  1.7087 -0.9196  0.7712
  220SOL    HW2  660   1.687   2.261   2.782 -2.5428  5.2660 -0.6954
  221SOL     OW  661   0.110   2.330   1.180 -0.2627  0.3682  0.0758
  221SOL    HW1  662   0.204   2.355   1.212 -2.9227  0.9832 -2.0033
  221SOL    HW2  663   0.086   2.241   1.216  0.5647  3.4730 -0.7119
  222SOL     OW  664   1.935   2.597   0.985 -0.8658 -0.0450  0.1243
  222SOL    HW1  665   1.854   2.657   0.969  1.4067  0.2169  1.5294
  222SOL    HW2  666   2.014   2.649   1.022  0.6810 -1.3153  2.2222
  223SOL     OW  667   0.736   2.371   2.097 -0.1253 -0.1367 -0.1282
  223SOL    HW1  668   0.723   2.271   2.098 -2.4190  1.5727 -1.1067
  223SOL    HW2  669   0.656   2.418   2.049  0.6612 -0.5548 -0.1399
  224SOL     OW  670   2.821   2.279   1.462 -0.0807  0.1215  0.3168
  224SOL    HW1  671   2.743   2.328   1.500 -3.4551  0.5334 -0.1784
  224SOL    HW2  672   2.794   2.206   1.395  0.0503 -1.9317  0.5450
  225SOL     OW  673   2.151   2.393   0.648  0.0043 -0.1125  0.1838
  225SOL    HW1  674   2.177   2.408   0.748  1.0027 -0.4732  0.6303
  225SOL    HW2  675   2.140   2.293   0.631 -0.8564 -0.1221  1.7997
  226SOL     OW  676   1.475   2.524   0.306  0.2998  0.1715 -0.1566
  226SOL    HW1  677   1.392   2.470   0.324  0.9524 -2.0304 -0.1396
  226SOL    HW2  678   1.511   2.561   0.392 -1.3275 -2.1911 -3.4512
  227SOL     OW  679   1.803   0.723   0.915  0.4187  0.0646 -0.0229
  227SOL    HW1  680   1.877   0.784   0.939  0.0034 -3.5710  0.7142
  227SOL    HW2  681   1.826   0.632   0.953  1.6762 -0.4351  1.1962
  228SOL     OW  682   1.116   0.477   2.146 -0.3948 -0.6050  0.1396
  228SOL    HW1  683   1.106   0.576   2.172 -0.2702  0.1852 -0.7119
  228SOL    HW2  684   1.043   0.422   2.188  1.0111  0.3129 -3.2576
  229SOL     OW  685   0.120   0.977   2.907 -0.3965  0.3856 -0.1806
  229SOL    HW1  686   0.053   1.049   2.887  1.7877 -0.4146  1.0967
  229SOL    HW2  687   0.083   0.925   2.987  1.2035 -1.7593  0.8599
  230SOL     OW  688   0.672   1.344   1.330 -0.0673  0.2167  0.0564
  230SOL    HW1  689   0.665   1.245   1.306  1.0158 -1.4411  0.1313
  230SOL    HW2  690   0.749   1.354   1.395  1.6645 -1.2780  0.2528
  231SOL     OW  691   2.621   2.975   2.569 -0.0625  0.1023  0.1717
  231SOL    HW1  692   2.696   3.026   2.617  0.9836 -1.0659 -0.4704
  231SOL    HW2  693   2.558   3.041   2.524  1.6514 -0.4957  0.2687
  232SOL     OW  694   0.547   2.371   0.125 -0.0868  0.7888 -0.7513
  232SOL    HW1  695   0.480   2.364   0.207 -0.6889 -0.3841  1.7677
  232SOL    HW2  696   0.582   2.279   0.104  2.5234 -0.6592 -0.3181
  233SOL     OW  697   1.060   2.239   2.254  0.6424  0.4770  0.3860
  233SOL    HW1  698   1.051   2.325   2.205  0.6561  0.1206  1.4925
  233SOL    HW2  699   1.125   2.252   2.328 -2.0471  1.4968 -3.1339
  234SOL     OW  700   1.348   1.370   2.103 -0.0470 -0.0337  0.1218
  234SOL    HW1  701   1.414   1.398   2.028  1.2731 -0.4052 -1.1782
  234SOL    HW2  702   1.260   1.420   2.099  1.0136 -2.2859  2.8317
  235SOL     OW  703   0.977   1.980   1.821  0.3727  0.0382 -0.0060
  235SOL    HW1  704   1.025   2.064   1.790 -0.9430 -2.4249 -0.6191
  235SOL    HW2  705   1.019   1.936   1.905 -2.1386 -1.8788  3.9785
  236SOL     OW  706   1.525   2.938   2.441 -0.5140 -0.2166  0.2866
  236SOL    HW1  707   1.549   3.035   2.472 -2.2032 -1.9423  0.2250
  236SOL    HW2  708   1.593   2.872   2.479  3.6505 -1.6207  0.1970
  237SOL     OW  709   1.363   0.250   1.161 -0.0107  1.0485  0.1354
  237SOL    HW1  710   1.375   0.148   1.165  2.3600 -1.8935 -0.6480
  237SOL    HW2  711   1.444   0.297   1.194 -1.7073  1.0746  1.2703
  238SOL     OW  712   1.474   0.585   2.730  0.1847 -0.2864  0.2275
  238SOL    HW1  713   1.514   0.660   2.674 -0.4878  0.0622  0.3438
  238SOL    HW2  714   1.453   0.502   2.673  1.4931  1.6553 -1.2528
  239SOL     OW  715   3.099   0.944   2.469 -0.2214 -0.1939  0.0121
  239SOL    HW1  716   3.012   0.986   2.501 -1.2773  0.0617  1.1553
  239SOL    HW2  717   0.047   1.012   2.466 -0.6081 -1.7885 -0.7651
  240SOL     OW  718   2.060   2.965   0.584 -0.2211  0.0238  0.0813
  240SOL    HW1  719   2.000   3.042   0.577  0.3965 -2.4457 -1.7272
  240SOL    HW2  720   2.049   2.909   0.500 -2.6595 -0.3725 -0.4244
  241SOL     OW  721   1.193   1.246   1.171  0.7924  0.5564 -0.0411
  241SOL    HW1  722   1.145   1.185   1.102  1.3864  1.1995  1.5796
  241SOL    HW2  723   1.221   1.189   1.249 -3.4612  0.8940 -1.4021
  242SOL     OW  724   0.549   0.830   0.962 -0.5740  0.6112 -0.1241
  242SOL    HW1  725   0.556   0.930   0.953 -0.1253 -2.1249  1.9924
  242SOL    HW2  726   0.533   0.793   0.865  0.0145 -0.8344  0.9476
  243SOL     OW  727   0.333   0.630   0.949  0.1823 -0.1798 -0.1370
  243SOL    HW1  728   0.394   0.587   1.015  0.2515  1.1344  2.0899
  243SOL    HW2  729   0.365   0.619   0.855  1.1144 -1.7133  1.4196
  244SOL     OW  730   1.069   0.146   0.225  0.2053 -0.5893  0.3699
  244SOL    HW1  731   0.972   0.116   0.258  0.1803 -3.3153 -0.1650
  244SOL    HW2  732   1.112   0.201   0.298 -0.2970  1.2344  0.0625
  245SOL     OW  733   1.970   0.877   0.254  0.1402  0.1985  0.2589
  245SOL    HW1  734   1.887   0.901   0.194 -2.9327 -1.0870 -2.9507
  245SOL    HW2  735   2.047   0.938   0.235 -0.3205 -2.5781 -0.2821
  246SOL     OW  736   3.074   0.836   1.642 -0.0985 -0.0438  0.8436
  246SOL    HW1  737   0.039   0.858   1.678  1.9894  3.1800 -4.2174
  246SOL    HW2  738   3.085   0.813   1.542 -1.3744 -0.1638  2.0352
  247SOL     OW  739   0.680   3.037   2.137  0.0759 -0.3356  0.3762
  247SOL    HW1  740   0.669   0.005   2.099 -0.6568  1.6134  0.1565
  247SOL    HW2  741   0.751   2.977   2.096 -0.2913 -2.4426 -2.4792
  248SOL     OW  742   0.503   1.254   2.491  0.0204 -0.3890  0.0198
  248SOL    HW1  743   0.608   1.253   2.486  0.4770  0.4349  1.2563
  248SOL    HW2  744   0.473   1.183   2.427 -1.2353 -0.2218  0.1261
  249SOL     OW  745   0.733   2.978   2.905  0.1036 -0.3143  0.4742
  249SOL    HW1  746   0.636   2.994   2.891 -0.0949  0.9461 -2.0124
  249SOL    HW2  747   0.748   2.890   2.955  0.6615 -2.2915 -1.0652
  250SOL     OW  748   0.420   0.388   2.354 -0.0190 -1.1941 -0.3263
  250SOL    HW1  749   0.435   0.313   2.416  0.6239  0.3692 -0.5015
  250SOL    HW2  750   0.335   0.373   2.301  0.3046  1.7667  1.2449
  251SOL     OW  751   2.937   1.635   1.123  0.1064 -0.7960 -0.3575
  251SOL    HW1  752   2.886   1.548   1.108  0.3321 -0.0313  0.9305
  251SOL    HW2  753   3.000   1.627   1.200 -1.6924  1.6799 -2.3910
  252SOL     OW  754   1.882   2.898   1.968  0.0803 -0.2527 -0.1421
  252SOL    HW1  755   1.844   2.821   1.912  0.4766  1.2553  2.5328
  252SOL    HW2  756   1.983   2.897   1.963 -0.7762 -2.3379  2.7578
  253SOL     OW  757   2.168   1.457   2.904  0.4066  0.2438 -0.2641
  253SOL    HW1  758   2.107   1.476   2.984  2.6011  0.8423  1.6070
  253SOL    HW2  759   2.205   1.548   2.876  0.2896  1.5252 -2.0428
  254SOL     OW  760   0.639   1.555   1.912 -0.1132  0.1277 -0.4923
  254SOL    HW1  761   0.632   1.654   1.908  0.2951 -3.0938 -1.4755
  254SOL    HW2  762   0.600   1.515   1.997  0.0582  0.4220  1.4409
  255SOL     OW  763   0.865   3.061   1.478  0.1129 -0.5414 -0.0209
  255SOL    HW1  764   0.960   3.099   1.475  1.9996  1.7947 -1.5340
  255SOL    HW2  765   0.845   3.043   1.577  0.2179 -3.0593 -1.3042
  256SOL     OW  766   0.157   2.325   0.736 -0.4560  0.1826  0.1733
  256SOL    HW1  767   0.234   2.295   0.797  0.2572  1.0199 -0.7221
  256SOL    HW2  768   0.071   2.305   0.782 -1.6859  0.4352  1.8974
  257SOL     OW  769   0.223   2.504   2.479  0.3343 -0.0068  0.5817
  257SOL    HW1  770   0.213   2.418   2.529  0.7171 -0.3098 -1.9899
  257SOL    HW2  771   0.324   2.526   2.467  0.1971  1.5138  1.9209
  258SOL     OW  772   1.470   1.843   2.062  0.2944  0.0728 -0.2908
  258SOL    HW1  773   1.468   1.765   1.993  0.6757 -0.8769 -1.8615
  258SOL    HW2  774   1.428   1.925   2.020  0.2084  2.9254 -1.0379
  259SOL     OW  775   0.934   1.754   2.349  0.6241  0.3364 -0.3381
  259SOL    HW1  776   1.031   1.737   2.315  2.0363 -0.4778 -0.8171
  259SOL    HW2  777   0.913   1.710   2.441  0.0904 -0.9634  1.2676
  260SOL     OW  778   2.450   1.094   2.248 -0.4548 -0.2950 -0.1683
  260SOL    HW1  779   2.386   1.026   2.292 -2.4533  1.6128  1.8748
  260SOL    HW2  780   2.502   1.040   2.178 -1.6815  1.8639  1.0784
  261SOL     OW  781   1.048   1.174   0.738  0.2273 -0.4036 -0.1635
  261SOL    HW1  782   1.073   1.187   0.836 -1.1905  0.5752 -0.6554
  261SOL    HW2  783   0.970   1.115   0.730 -0.1913 -0.2361 -1.4316
  262SOL     OW  784   2.399   2.134   2.541 -0.0108  0.0973  0.1384
  262SOL    HW1  785   2.489   2.172   2.557 -2.1593 -0.6267  1.1518
  262SOL    HW2  786   2.342   2.146   2.626  1.1383 -2.1392 -0.7410
  263SOL     OW  787   1.025   2.089   1.059  0.2174  0.2519  0.1938
  263SOL    HW1  788   1.027   2.132   1.151  0.3105 -2.0696 -1.1956
  263SOL    HW2  789   0.938   2.122   1.011  0.6313  2.3565  2.2445
  264SOL     OW  790   0.420   2.331   0.383 -0.4219 -0.3028 -0.8309
  264SOL    HW1  791   0.389   2.369   0.474  0.2413  2.5384  1.5942
  264SOL    HW2  792   0.365   2.247   0.363 -1.5137 -1.2023 -2.5024
  265SOL     OW  793   1.218   1.398   0.288  0.5448  0.2680  0.1342
  265SOL    HW1  794   1.276   1.320   0.253  1.3549 -1.7719 -1.4089
  265SOL    HW2  795   1.170   1.375   0.378 -2.6438  0.5910  2.6988
  266SOL     OW  796   0.667   1.936   2.522  0.0186 -0.7306  0.4937
  266SOL    HW1  797   0.744   2.002   2.498  0.4283 -0.9802 -1.3385
  266SOL    HW2  798   0.610   1.934   2.439 -4.3555 -3.2685 -0.3839
  267SOL     OW  799   2.037   1.094   2.340  0.7067  0.4207  0.1441
  267SOL    HW1  800   1.971   1.080   2.416  1.6242  2.2534 -0.3040
  267SOL    HW2  801   2.028   1.187   2.303  0.9756  2.8948  0.3872
  268SOL     OW  802   0.851   1.247   0.353  0.1843 -0.1821 -0.3429
  268SOL    HW1  803   0.764   1.195   0.351 -1.1300 -0.6668  0.7834
  268SOL    HW2  804   0.853   1.323   0.287  4.0873 -0.8594  1.0355
  269SOL     OW  805   2.520   1.753   2.607  0.2404 -0.2025  0.6644
  269SOL    HW1  806   2.494   1.798   2.695 -1.3062  2.3912  1.1752
  269SOL    HW2  807   2.600   1.807   2.568  1.2244 -0.4760 -0.1612
  270SOL     OW  808   0.852   2.057   3.002 -0.2106 -0.2245 -0.2693
  270SOL    HW1  809   0.781   1.986   2.982 -3.0637  2.4375 -1.7373
  270SOL    HW2  810   0.807   2.151   3.019 -3.0497  3.0734 -0.3026
  271SOL     OW  811   0.396   0.413   0.249 -0.2012  0.1871 -0.0599
  271SOL    HW1  812   0.474   0.415   0.185  2.5560 -2.5973  3.3869
  271SOL    HW2  813   0.340   0.327   0.253  1.0939  1.9612 -3.0834
  272SOL     OW  814   2.905   0.084   0.516  0.1124  0.2076  0.2415
  272SOL    HW1  815   2.954   0.071   0.603 -0.8758 -0.0509 -2.7869
  272SOL    HW2  816   2.862   0.178   0.503  0.3376  0.4230 -3.0048
  273SOL     OW  817   0.356   3.078   1.930 -0.5128 -0.2774 -0.6976
  273SOL    HW1  818   0.392   3.071   1.836  2.3589  0.8287  1.0149
  273SOL    HW2  819   0.302   2.994   1.953 -0.1593 -1.2461 -0.7522
  274SOL     OW  820   3.038   0.578   1.203  0.5178 -0.4963  0.1147
  274SOL    HW1  821   3.020   0.502   1.268 -1.2110 -0.4194 -1.1791
  274SOL    HW2  822   3.055   0.662   1.255 -2.3862 -0.3023  1.3816
  275SOL     OW  823   0.603   1.426   1.069  0.2139  0.3884  0.7839
  275SOL    HW1  824   0.669   1.370   1.014  2.6359 -0.3941  0.2102
  275SOL    HW2  825   0.578   1.378   1.154 -3.6344  0.5176  3.2837
  276SOL     OW  826   0.649   1.222   1.938  0.0196  0.0508 -0.4442
  276SOL    HW1  827   0.608   1.307   1.977 -2.5969  2.0434 -0.7407
  276SOL    HW2  828   0.594   1.142   1.968  1.9663  0.8772  3.3250
  277SOL     OW  829   1.274   2.034   1.897  0.1219  0.2772 -0.8214
  277SOL    HW1  830   1.252   2.032   2.002  2.6536 -2.4461 -0.9551
  277SOL    HW2  831   1.225   2.113   1.853 -2.6224  0.4246  0.6224
  278SOL     OW  832   2.462   2.696   2.275 -0.4486 -0.0085 -0.1809
  278SOL    HW1  833   2.407   2.639   2.334  1.0190  1.1812 -1.6241
  278SOL    HW2  834   2.429   2.679   2.180  1.0790 -3.5101  0.4781
  279SOL     OW  835   1.162   1.812   0.046  0.0860 -0.4651 -0.1095
  279SOL    HW1  836   1.251   1.829   0.092  1.5741 -0.7976  0.3476
  279SOL    HW2  837   1.129   1.904   0.011  0.8282 -0.0125 -0.0484
  280SOL     OW  838   1.236   0.278   0.389 -0.0659 -0.3708 -0.1096
  280SOL    HW1  839   1.289   0.215   0.449 -1.1165  0.2325 -0.6990
  280SOL    HW2  840   1.286   0.305   0.303 -2.2824  0.0125  1.9220
  281SOL     OW  841   0.467   0.528   1.513  0.2701  0.2141  0.2981
  281SOL    HW1  842   0.455   0.618   1.557 -0.0572 -0.2038  2.8319
  281SOL    HW2  843   0.377   0.484   1.496  2.6436 -0.1052  3.2013
  282SOL     OW  844   0.255   2.490   0.536  0.0489  0.7055 -0.2534
  282SOL    HW1  845   0.214   2.442   0.619 -0.7259  0.6045  0.8388
  282SOL    HW2  846   0.180   2.533   0.481 -1.3042  0.1351 -1.8011
  283SOL     OW  847   1.402   1.850   1.709 -0.0429 -0.0042  0.1773
  283SOL    HW1  848   1.418   1.756   1.745 -1.5422 -2.1954  0.9437
  283SOL    HW2  849   1.359   1.914   1.778 -0.4748 -0.4883  4.7922
  284SOL     OW  850   2.703   2.839   1.471  0.6285 -0.5258  0.1753
  284SOL    HW1  851   2.712   2.925   1.417 -0.8140  0.7172 -0.8650
  284SOL    HW2  852   2.756   2.764   1.420  1.0878  1.2647 -3.0880
  285SOL     OW  853   0.276   2.531   0.218 -0.3173 -0.8083 -0.4573
  285SOL    HW1  854   0.193   2.558   0.272  0.5710 -1.7786  0.0218
  285SOL    HW2  855   0.340   2.462   0.266  0.3268 -0.6021  0.8452
  286SOL     OW  856   0.443   2.691   1.239 -0.0421 -0.7234  0.3851
  286SOL    HW1  857   0.473   2.773   1.294  0.6314  1.1314 -1.1243
  286SOL    HW2  858   0.390   2.725   1.159  0.1382 -0.7444  0.7229
  287SOL     OW  859   0.619   1.438   0.539 -0.7779  0.1157  0.4209
  287SOL    HW1  860   0.586   1.418   0.446  1.7616 -1.7214 -1.4283
  287SOL    HW2  861   0.697   1.504   0.531  1.8143 -1.0414 -1.8944
  288SOL     OW  862   1.934   2.069   2.474  0.7630  0.0609 -0.0867
  288SOL    HW1  863   1.863   2.012   2.524 -2.0665  2.4446  0.6075
  288SOL    HW2  864   1.988   2.127   2.540  0.6820 -0.8610  0.8730
  289SOL     OW  865   2.429   1.713   0.166  1.0220  0.0572 -0.5255
  289SOL    HW1  866   2.403   1.773   0.239 -1.1853 -2.0362 -0.1974
  289SOL    HW2  867   2.393   1.619   0.183  1.5714  2.9493  1.5652
  290SOL     OW  868   1.281   1.503   1.143  0.1303 -0.1643  0.1541
  290SOL    HW1  869   1.265   1.521   1.243 -2.0100  1.6168  0.9559
  290SOL    HW2  870   1.279   1.402   1.126  0.4796  0.3001 -0.3085
  291SOL     OW  871   1.390   1.213   0.165  0.5512 -0.3425  0.0068
  291SOL    HW1  872   1.321   1.140   0.188 -1.8345  0.3531 -0.1786
  291SOL    HW2  873   1.363   1.255   0.078  0.2771 -0.5928  1.2160
  292SOL     OW  874   1.408   1.603   0.319 -0.8362 -0.2361 -0.1635
  292SOL    HW1  875   1.338   1.529   0.319 -1.6218 -1.4716  1.1959
  292SOL    HW2  876   1.463   1.608   0.232 -4.6059  2.0487 -2.5801
  293SOL     OW  877   1.204   0.006   0.898 -0.6884  0.5864 -0.2075
  293SOL    HW1  878   1.146   3.067   0.947  2.3648 -0.6677  1.2217
  293SOL    HW2  879   1.146   0.066   0.838  0.2555  0.2326  1.4038
  294SOL     OW  880   2.169   0.938   2.652  0.2433 -0.0506  0.1390
  294SOL    HW1  881   2.270   0.920   2.658  1.2736 -1.1645 -0.8543
  294SOL    HW2  882   2.133   0.991   2.734  1.4482  3.5328 -0.7920
  295SOL     OW  883   1.798   1.860   3.016  0.3863  0.2131 -0.3665
  295SOL    HW1  884   1.726   1.834   3.087 -1.4712 -3.0984 -0.0613
  295SOL    HW2  885   1.771   1.832   2.921 -0.0547  1.2226 -3.1421
  296SOL     OW  886   1.198   0.955   1.239  0.2240 -0.2897  0.6760
  296SOL    HW1  887   1.200   0.885   1.317 -1.5562 -1.1830  0.7592
  296SOL    HW2  888   1.293   0.987   1.212  0.9765  0.8402  1.0303
  297SOL     OW  889   0.068   0.597   2.148  0.0392  0.1529 -0.1970
  297SOL    HW1  890   0.150   0.630   2.098  0.4629  0.0682 -2.0372
  297SOL    HW2  891   0.084   0.601   2.248 -0.3698 -1.5338 -3.9339
  298SOL     OW  892   1.423   1.736   1.150  0.0812 -0.1860 -0.0249
  298SOL    HW1  893   1.372   1.785   1.225 -1.5076  0.5712  0.5887
  298SOL    HW2  894   1.375   1.648   1.136  0.8295 -0.7555 -0.7109
  299SOL     OW  895   1.107   0.005   2.574  0.2918  0.0294 -0.0976
  299SOL    HW1  896   1.168   3.053   2.564  0.8062 -1.1510 -1.3576
  299SOL    HW2  897   1.020   3.103   2.621 -0.9195 -1.8787 -2.8442
  300SOL     OW  898   2.606   2.247   0.485  0.6131  0.0946 -0.1778
  300SOL    HW1  899   2.699   2.236   0.517 -0.1396  0.4553 -0.2125
  300SOL    HW2  900   2.587   2.348   0.501 -0.9804  2.1351  1.0789
  301SOL     OW  901   2.171   0.654   2.564  0.5639  0.1080 -0.7709
  301SOL    HW1  902   2.265   0.636   2.536 -1.8369 -2.2181 -0.6200
  301SOL    HW2  903   2.169   0.742   2.610 -0.6828  0.1590 -1.7386
  302SOL     OW  904   2.421   2.276   0.050  0.4267  0.0267 -0.2761
  302SOL    HW1  905   2.465   2.217   0.121  1.5578  1.5261 -0.1282
  302SOL    HW2  906   2.487   2.345   0.017 -0.3725 -0.8687  0.8686
  303SOL     OW  907   3.013   2.364   2.962 -0.3940  0.2233  0.6617
  303SOL    HW1  908   3.060   2.453   2.948 -1.8171  0.4754 -4.9432
  303SOL    HW2  909   2.918   2.386   2.986  2.7545  1.1671 -1.4642
  304SOL     OW  910   0.101   1.634   1.050  0.1168 -0.0348  0.1973
  304SOL    HW1  911   0.003   1.636   1.066  2.2799 -1.7974 -0.6107
  304SOL    HW2  912   0.142   1.724   1.071 -0.2386 -1.4238  1.4046
  305SOL     OW  913   2.904   0.615   1.672  0.4199 -0.4770 -0.1395
  305SOL    HW1  914   2.977   0.685   1.689 -0.9369 -1.3548 -0.7279
  305SOL    HW2  915   2.849   0.650   1.592 -1.6636  3.1279  0.4656
  306SOL     OW  916   1.417   1.591   0.853 -0.3289  0.5910 -0.3030
  306SOL    HW1  917   1.312   1.584   0.859 -2.4988  1.0230  0.3288
  306SOL    HW2  918   1.442   1.679   0.819  0.3775 -0.8203  1.6644
  307SOL     OW  919   0.261   0.178   0.758  0.0009 -0.1914  0.5786
  307SOL    HW1  920   0.209   0.151   0.681  0.9596 -0.2219  1.9509
  307SOL    HW2  921   0.330   0.251   0.740 -1.0693 -2.1567  0.1093
  308SOL     OW  922   0.043   1.122   2.204  0.2798 -0.3931  0.4613
  308SOL    HW1  923   0.085   1.126   2.295 -0.3182 -0.0961 -1.1130
  308SOL    HW2  924   0.104   1.084   2.133  0.2950  0.3723 -0.2248
  309SOL     OW  925   2.692   1.915   2.499 -0.0430 -0.3152 -0.4050
  309SOL    HW1  926   2.684   1.983   2.426  0.8877 -2.0816 -0.5715
  309SOL    HW2  927   2.790   1.909   2.524 -0.2900 -0.3745 -1.5394
  310SOL     OW  928   2.473   0.589   0.084  0.3815 -0.2920  0.3493
  310SOL    HW1  929   2.564   0.622   0.100 -4.4351 -1.1971 -2.1190
  310SOL    HW2  930   2.441   0.601   3.115 -1.0447  1.6411 -0.3457
  311SOL     OW  931   2.040   0.998   2.880 -0.1255  0.2481  0.2607
  311SOL    HW1  932   2.067   1.066   2.943 -3.0499 -2.7129 -2.1075
  311SOL    HW2  933   2.012   0.907   2.920  1.6122 -1.0194  1.4687
  312SOL     OW  934   1.503   2.230   2.527 -0.3729  0.3367 -0.6039
  312SOL    HW1  935   1.569   2.234   2.450 -3.5242  0.0242  1.7745
  312SOL    HW2  936   1.517   2.138   2.575  0.9793 -4.3587 -1.9506
  313SOL     OW  937   0.232   0.466   0.461 -0.4020 -0.1937  0.5695
  313SOL    HW1  938   0.308   0.466   0.392 -1.1140 -2.1287  0.1940
  313SOL    HW2  939   0.238   0.548   0.524 -0.4201 -0.6820 -1.3108
  314SOL     OW  940   0.671   1.866   1.452  0.4398 -0.2427 -0.1757
  314SOL    HW1  941   0.661   1.816   1.365 -0.6211  0.9665  2.8936
  314SOL    HW2  942   0.754   1.841   1.501 -2.9599  0.3016 -1.6200
  315SOL     OW  943   0.753   1.841   2.172 -0.5190  0.0245  0.0237
  315SOL    HW1  944   0.710   1.772   2.108 -0.2493 -2.7487  0.5932
  315SOL    HW2  945   0.802   1.798   2.250 -0.8778 -0.8316 -1.4906
  316SOL     OW  946   0.463   2.598   0.678 -0.1401  0.1180 -0.0977
  316SOL    HW1  947   0.387   2.556   0.634  2.8819  1.2117  2.6131
  316SOL    HW2  948   0.443   2.690   0.730 -0.7786  4.7102  0.5520
  317SOL     OW  949   2.233   0.325   1.167 -0.3999 -0.6089  0.0481
  317SOL    HW1  950   2.302   0.345   1.236  0.6320  1.3091 -1.9041
  317SOL    HW2  951   2.211   0.406   1.107  2.6826  1.0063  0.7923
  318SOL     OW  952   1.940   0.071   0.467 -0.3996 -0.4552 -0.3913
  318SOL    HW1  953   1.922   0.173   0.460 -0.3296  2.4690 -1.3133
  318SOL    HW2  954   1.931   0.028   0.379 -0.7356  0.6822  2.2004
  319SOL     OW  955   1.785   0.798   2.744  0.0135 -0.4202  0.2710
  319SOL    HW1  956   1.702   0.823   2.692 -0.2461 -0.1948 -2.1106
  319SOL    HW2  957   1.819   0.710   2.711 -0.5950  0.3998  0.3511
  320SOL     OW  958   3.040   2.074   1.846 -0.0524 -0.3083  0.6692
  320SOL    HW1  959   2.967   2.118   1.786 -0.6174  0.3420 -0.8848
  320SOL    HW2  960   3.014   2.085   1.943  0.6676  0.7751 -2.4630
  321SOL     OW  961   0.529   2.345   2.957  0.5780  0.1628  0.2806
  321SOL    HW1  962   0.622   2.324   2.996  0.2702  1.4757 -0.6713
  321SOL    HW2  963   0.462   2.346   3.036 -2.3362  1.0955 -1.2331
  322SOL     OW  964   2.433   0.628   2.449  0.1393  0.0225 -0.2620
  322SOL    HW1  965   2.407   0.713   2.395  1.9980  1.5863 -1.9277
  322SOL    HW2  966   2.411   0.543   2.402  2.8275  1.5103  0.4681
  323SOL     OW  967   2.363   1.001   0.791 -0.3825 -0.0761  0.1018
  323SOL    HW1  968   2.436   1.042   0.732 -0.2853  2.0327  1.9978
  323SOL    HW2  969   2.291   0.960   0.730 -0.9952  0.3689  0.4984
  324SOL     OW  970   0.109   0.471   1.071 -0.0295 -0.1707  0.0375
  324SOL    HW1  971   0.172   0.543   1.029  2.0958  3.7554 -0.6778
  324SOL    HW2  972   0.045   0.513   1.141 -0.8890  0.8579  1.9014
  325SOL     OW  973   2.626   0.122   1.510 -0.6439  0.2366 -0.0307
  325SOL    HW1  974   2.692   0.109   1.586 -1.6771  1.4672  0.5728
  325SOL    HW2  975   2.655   0.193   1.443 -0.1088  1.6346  0.1794
  326SOL     OW  976   1.566   2.826   0.004 -0.1427 -0.0043  0.0409
  326SOL    HW1  977   1.589   2.728   0.029  0.7880  1.2742 -2.3152
  326SOL    HW2  978   1.625   2.896   0.042 -2.4615 -0.0033 -0.5852
  327SOL     OW  979   1.813   1.946   0.318 -0.2593 -0.4339  0.2207
  327SOL    HW1  980   1.754   2.032   0.320 -1.1755  3.7685 -1.5365
  327SOL    HW2  981   1.812   1.903   0.410 -1.9710 -1.7334  2.4888
  328SOL     OW  982   3.098   1.989   2.254 -0.2220 -0.2106 -0.1140
  328SOL    HW1  983   3.087   1.896   2.214 -0.1234 -1.3928 -0.6749
  328SOL    HW2  984   3.038   2.058   2.202 -2.0541  1.4110  1.2384
  329SOL     OW  985   3.094   2.070   1.231 -0.0143 -0.0410 -0.5031
  329SOL    HW1  986   2.994   2.053   1.239 -0.5438  0.6720  1.0685
  329SOL    HW2  987   0.007   2.056   1.326  0.7183 -1.9795  2.8401
  330SOL     OW  988   2.743   0.831   2.596  0.0617 -0.1885  0.4182
  330SOL    HW1  989   2.776   0.752   2.541 -0.0351  2.4789  1.9973
  330SOL    HW2  990   2.701   0.895   2.536 -0.3309 -3.5283  0.0582
  331SOL     OW  991   2.279   2.156   0.948 -0.6218  0.0009 -0.1155
  331SOL    HW1  992   2.196   2.108   0.970  1.1526  0.2840  0.4697
  331SOL    HW2  993   2.257   2.252   0.927  2.7287  1.6515  1.4955
  332SOL     OW  994   0.447   3.083   0.732  0.0040 -0.0647  0.4815
  332SOL    HW1  995   0.496   0.013   0.671  0.2668 -2.7731  0.3146
  332SOL    HW2  996   0.442   3.119   0.826 -2.6735 -0.3699  0.9869
  333SOL     OW  997   2.391   1.918   2.383 -0.3469  0.9929 -0.1902
  333SOL    HW1  998   2.392   1.997   2.452  0.9723  0.4776 -0.7454
  333SOL    HW2  999   2.452   1.847   2.421 -0.7419  0.4851 -2.9820
  334SOL     OW 1000   0.573   1.097   0.925 -0.0771 -0.5441  0.5319
  334SOL    HW1 1001   0.619   1.154   0.857  0.7743  0.1468  1.6740
  334SOL    HW2 1002   0.499   1.144   0.961  3.8774 -1.8324 -1.0465
  335SOL     OW 1003   0.026   1.719   2.127  0.6139  0.5403 -0.3974
  335SOL    HW1 1004   3.110   1.678   2.209  0.2814 -0.7814 -0.6564
  335SOL    HW2 1005   3.102   1.691   2.043 -0.7149 -0.8744 -2.4373
  336SOL     OW 1006   2.393   2.970   2.264  0.1458  0.4396  0.0145
  336SOL    HW1 1007   2.413   2.871   2.276 -1.7291 -0.2504 -1.4300
  336SOL    HW2 1008   2.302   2.979   2.217  0.1638  0.4425 -0.8774
  337SOL     OW 1009   0.951   0.781   0.747 -0.1459  0.0547 -0.6094
  337SOL    HW1 1010   0.892   0.861   0.714 -0.1757  1.3840 -0.4238
  337SOL    HW2 1011   1.028   0.814   0.803 -1.5533  1.0056  0.7164
  338SOL     OW 1012   1.564   1.952   1.048 -0.1489 -0.6403  0.0799
  338SOL    HW1 1013   1.495   1.894   1.091  3.3150  4.1851 -1.4418
  338SOL    HW2 1014   1.547   2.048   1.068  1.2119 -0.2462 -1.2561
  339SOL     OW 1015   0.383   1.756   1.218  0.3278  0.0633  0.6387
  339SOL    HW1 1016   0.481   1.740   1.195  0.0421  0.2078 -0.6195
  339SOL    HW2 1017   0.365   1.853   1.235  0.5256 -0.4678  1.2023
  340SOL     OW 1018   1.033   2.977   1.864 -0.8099 -0.1163 -0.4050
  340SOL    HW1 1019   1.107   2.923   1.819  2.3186  0.0670 -0.2252
  340SOL    HW2 1020   1.068   3.047   1.930  0.8620 -2.4846  0.8046
  341SOL     OW 1021   2.226   1.632   0.889  0.4924 -0.0768 -0.4595
  341SOL    HW1 1022   2.237   1.531   0.903  1.9410 -3.5084  2.2336
  341SOL    HW2 1023   2.202   1.654   0.795 -3.1989 -2.0810  1.7188
  342SOL     OW 1024   2.158   1.084   0.213  0.0048  0.2514 -0.1509
  342SOL    HW1 1025   2.251   1.123   0.217 -0.2168  1.1522 -0.4169
  342SOL    HW2 1026   2.119   1.107   0.123 -0.1442  0.6241 -1.3017
  343SOL     OW 1027   2.085   0.107   1.072  0.3888  0.1379  0.2948
  343SOL    HW1 1028   2.139   0.189   1.088 -1.9658 -1.6007 -1.2476
  343SOL    HW2 1029   2.148   0.024   1.074  0.0538 -1.6624  0.4280
  344SOL     OW 1030   2.704   0.196   0.134 -0.4114 -0.4211 -0.2283
  344SOL    HW1 1031   2.757   0.181   0.045  2.7590 -2.4068 -1.2181
  344SOL    HW2 1032   2.664   0.111   0.176 -0.9989 -0.1256  1.7352
  345SOL     OW 1033   0.877   2.552   1.963 -0.0788  0.0618  0.2308
  345SOL    HW1 1034   0.851   2.568   1.865  2.3850  2.3637 -2.6383
  345SOL    HW2 1035   0.840   2.460   1.989  0.2926 -1.5810 -2.9577
  346SOL     OW 1036   2.178   2.424   0.931  0.0630 -0.1113  0.8063
  346SOL    HW1 1037   2.085   2.413   0.969  0.3328  1.1774 -2.5862
  346SOL    HW2 1038   2.209   2.520   0.949 -1.2154  2.0599 -1.2438
  347SOL     OW 1039   2.308   0.098   1.302 -0.2517  0.1695  0.0172
  347SOL    HW1 1040   2.305   0.017   1.238 -2.5220  0.1096 -0.3432
  347SOL    HW2 1041   2.302   0.184   1.251 -0.0266 -2.3326 -0.0484
  348SOL     OW 1042   0.802   0.651   1.355 -0.1054  0.6480  0.0276
  348SOL    HW1 1043   0.720   0.701   1.391 -2.2721 -1.0236  0.5598
  348SOL    HW2 1044   0.805   0.644   1.253  3.6217 -1.3612  1.5315
  349SOL     OW 1045   2.498   0.587   2.716 -0.1316  0.1175  0.0178
  349SOL    HW1 1046   2.486   0.598   2.617  0.0480  1.6934  3.3392
  349SOL    HW2 1047   2.597   0.598   2.743  1.5709  0.5231 -1.6629
  350SOL     OW 1048   2.243   2.262   2.975  0.1951  0.3324  0.4050
  350SOL    HW1 1049   2.153   2.243   3.014 -0.8448 -2.2925 -1.7029
  350SOL    HW2 1050   2.314   2.270   3.050  1.8060 -1.1553 -1.5318
  351SOL     OW 1051   1.096   0.458   0.537 -0.4021  0.2716 -0.3422
  351SOL    HW1 1052   1.129   0.548   0.511 -2.2096 -1.3115  1.1795
  351SOL    HW2 1053   1.149   0.388   0.485  1.9631 -0.2290  0.1882
  352SOL     OW 1054   1.492   1.946   2.609  0.3225  0.1267  0.4312
  352SOL    HW1 1055   1.428   1.873   2.651 -0.6552 -2.5278 -3.5300
  352SOL    HW2 1056   1.586   1.940   2.641 -3.2841 -0.3636 -1.8791
  353SOL     OW 1057   0.714   1.210   2.885  0.0270  0.1265 -0.0116
  353SOL    HW1 1058   0.657   1.267   2.824  2.4540  1.7211 -0.7778
  353SOL    HW2 1059   0.774   1.268   2.949  1.4711  0.3103 -1.0242
  354SOL     OW 1060   0.571   2.555   2.785  0.0457 -0.3119  0.0297
  354SOL    HW1 1061   0.526   2.479   2.828  2.2882  0.2402 -2.9134
  354SOL    HW2 1062   0.670   2.553   2.795 -3.1855  0.5520 -0.2991
  355SOL     OW 1063   2.445   2.883   1.544 -0.3542  0.1466  0.2540
  355SOL    HW1 1064   2.432   2.988   1.561  0.2411  1.5416 -1.7887
  355SOL    HW2 1065   2.536   2.859   1.504 -1.5488  1.7328 -2.4322
  356SOL     OW 1066   2.774   1.249   1.307  0.2057  0.2686  0.2466
  356SOL    HW1 1067   2.877   1.245   1.305 -0.6945  0.8926  0.0734
  356SOL    HW2 1068   2.737   1.183   1.235 -0.9007  0.4125  0.3485
  357SOL     OW 1069   2.713   0.362   1.307 -0.0237  0.2787  0.1307
  357SOL    HW1 1070   2.790   0.406   1.354 -1.3801 -1.2414  1.9489
  357SOL    HW2 1071   2.746   0.350   1.213 -0.4234  1.8672 -2.6258
  358SOL     OW 1072   0.310   1.664   1.729  0.3696  0.1000  0.5188
  358SOL    HW1 1073   0.351   1.756   1.704 -0.6409  1.4471  0.0982
  358SOL    HW2 1074   0.302   1.646   1.828 -1.6383  0.5412 -4.0094
  359SOL     OW 1075   2.873   2.800   2.478  0.3185  0.0070  0.4055
  359SOL    HW1 1076   2.778   2.838   2.482  1.2065  1.2197  1.6972
  359SOL    HW2 1077   2.921   2.821   2.389 -1.5092 -4.1877  2.1143
  360SOL     OW 1078   1.134   0.599   1.612 -0.0627 -0.4314 -0.0120
  360SOL    HW1 1079   1.043   0.561   1.626  1.8156  0.8493  1.4808
  360SOL    HW2 1080   1.201   0.538   1.663  0.4553  0.4386  2.8871
  361SOL     OW 1081   2.145   2.890   0.835  0.1030  0.5414  0.2836
  361SOL    HW1 1082   2.104   2.936   0.756 -2.3715 -1.0941  1.6385
  361SOL    HW2 1083   2.210   2.820   0.797  0.6906 -1.9736 -0.3348
  362SOL     OW 1084   0.924   0.064   0.503 -0.0528  0.0485 -0.6170
  362SOL    HW1 1085   0.854   0.003   0.458 -0.4842  1.9179 -1.2119
  362SOL    HW2 1086   1.005   0.011   0.519 -1.6377  1.7612 -0.8899
  363SOL     OW 1087   0.982   1.541   0.702  0.7305 -0.4096 -0.4903
  363SOL    HW1 1088   1.037   1.481   0.645 -2.1865  1.2542 -1.8906
  363SOL    HW2 1089   1.049   1.583   0.768 -1.2492  0.8828 -0.4702
  364SOL     OW 1090   0.450   0.786   1.714 -0.9411  0.0046  0.2814
  364SOL    HW1 1091   0.409   0.745   1.799 -0.8359  0.1218  0.6028
  364SOL    HW2 1092   0.544   0.827   1.731 -1.4969  1.7401  2.1987
  365SOL     OW 1093   2.950   1.005   1.030  0.4371 -0.2185  0.3089
  365SOL    HW1 1094   3.037   0.994   1.083 -2.4697 -0.4992  1.1881
  365SOL    HW2 1095   2.971   1.003   0.926  0.3965 -2.5807 -1.6153
  366SOL     OW 1096   2.472   1.620   0.585  0.1331  0.0376  0.5151
  366SOL    HW1 1097   2.519   1.629   0.668  0.6290 -0.5764 -2.1376
  366SOL    HW2 1098   2.520   1.667   0.510 -1.8221  1.1706 -1.4995
  367SOL     OW 1099   2.238   2.090   2.068 -0.1210 -0.2851 -0.6569
  367SOL    HW1 1100   2.269   1.994   2.085 -2.0176 -0.0873 -2.6472
  367SOL    HW2 1101   2.141   2.097   2.048 -0.0468 -2.0281 -1.2035
  368SOL     OW 1102   2.505   1.983   0.990  0.0247  0.3778 -0.1645
  368SOL    HW1 1103   2.561   1.976   0.902 -0.4511 -1.1836  0.0405
  368SOL    HW2 1104   2.418   2.031   0.973  2.8913  0.3838  0.5027
  369SOL     OW 1105   2.050   2.666   2.804 -0.3238  0.0686  0.0603
  369SOL    HW1 1106   2.011   2.696   2.717 -1.1290  0.4547  1.2701
  369SOL    HW2 1107   2.096   2.745   2.846  1.7149 -0.2551 -3.8250
  370SOL     OW 1108   0.234   0.254   1.191  0.4091  0.2805  0.1979
  370SOL    HW1 1109   0.182   0.322   1.135  1.1032 -1.9112  2.1334
  370SOL    HW2 1110   0.329   0.253   1.169 -3.3727  0.2025 -1.2678
  371SOL     OW 1111   0.672   2.082   0.318 -0.2195 -0.1466 -0.2085
  371SOL    HW1 1112   0.635   2.054   0.230  1.1611  0.8440  1.8795
  371SOL    HW2 1113   0.601   2.086   0.392 -2.7333 -0.1632 -1.7650
  372SOL     OW 1114   0.992   1.104   0.043  0.3024 -0.7836 -0.3675
  372SOL    HW1 1115   1.065   1.096   0.116  0.0322 -0.8890  2.2940
  372SOL    HW2 1116   1.014   1.045   3.095 -2.3549 -1.2540  2.0904
  373SOL     OW 1117   1.248   2.510   2.310 -0.0194  0.1302  0.1373
  373SOL    HW1 1118   1.216   2.435   2.373 -1.9406 -1.5381 -0.0297
  373SOL    HW2 1119   1.346   2.510   2.288  0.1409  1.7208 -1.8793
  374SOL     OW 1120   0.575   2.065   0.038 -0.1277  0.4448 -0.3343
  374SOL    HW1 1121   0.632   1.996   3.119 -0.0301 -1.7654 -1.0000
  374SOL    HW2 1122   0.482   2.027   0.042  1.8945  1.4101 -0.0913
  375SOL     OW 1123   0.883   0.731   1.866 -0.1137 -0.3084 -0.1490
  375SOL    HW1 1124   0.964   0.787   1.888 -0.5303  1.7279 -1.3144
  375SOL    HW2 1125   0.911   0.636   1.850 -1.5801  0.8384 -2.3302
  376SOL     OW 1126   0.481   2.332   1.746  0.5333 -0.6502 -0.2301
  376SOL    HW1 1127   0.428   2.246   1.756 -0.0550  3.0789 -4.0557
  376SOL    HW2 1128   0.513   2.380   1.832 -1.2183 -1.9233  1.3940
  377SOL     OW 1129   2.922   1.543   2.561  0.3570  0.1058  0.1851
  377SOL    HW1 1130   2.853   1.474   2.533  3.2827 -0.3988  1.7944
  377SOL    HW2 1131   2.987   1.496   2.626  0.5654 -0.4762  2.2850
  378SOL     OW 1132   1.457   3.020   2.743 -0.2465 -0.1314 -0.3947
  378SOL    HW1 1133   1.546   2.974   2.756 -1.2218  2.0952 -1.9020
  378SOL    HW2 1134   1.395   3.000   2.822 -1.2541  1.3615 -1.6682
  379SOL     OW 1135   1.807   0.639   0.652 -0.3246  0.0769 -0.3938
  379SOL    HW1 1136   1.786   0.689   0.742  0.5761  1.0205  3.9130
  379SOL    HW2 1137   1.886   0.568   0.662  1.6178 -2.3064 -1.0701
  380SOL     OW 1138   0.343   1.996   1.317  0.0300 -0.4354  0.0526
  380SOL    HW1 1139   0.262   2.033   1.369  1.1728  0.3639  0.6529
  380SOL    HW2 1140   0.396   1.951   1.388 -0.5160  1.1249 -2.3931
  381SOL     OW 1141   2.448   1.498   2.623 -0.3596 -0.0066  0.4430
  381SOL    HW1 1142   2.495   1.589   2.620 -1.3265  2.3438  2.6189
  381SOL    HW2 1143   2.353   1.514   2.593  1.3194  0.2723 -0.5428
  382SOL     OW 1144   0.095   0.227   2.598  0.4490  0.0043 -0.1903
  382SOL    HW1 1145   0.038   0.166   2.533 -1.5404 -1.8341 -2.1753
  382SOL    HW2 1146   0.195   0.213   2.581 -0.2395 -2.0553 -2.7380
  383SOL     OW 1147   1.923   1.353   0.034 -0.0176  0.0872  0.2038
  383SOL    HW1 1148   1.948   1.454   0.031 -0.8875  1.7343  1.6291
  383SOL    HW2 1149   1.830   1.338   0.080 -0.1423 -0.5923  1.3731
  384SOL     OW 1150   1.059   2.206   1.316 -0.2532 -0.0827  0.0333
  384SOL    HW1 1151   0.983   2.265   1.336 -2.1148 -0.4952  1.0391
  384SOL    HW2 1152   1.144   2.235   1.367  1.5034 -1.7843  2.3100
  385SOL     OW 1153   1.721   2.747   0.948  0.5865 -0.2024 -0.1339
  385SOL    HW1 1154   1.704   2.829   1.005 -1.2754  0.2468  2.5292
  385SOL    HW2 1155   1.660   2.753   0.868 -2.2283 -2.5295  1.4322
  386SOL     OW 1156   1.691   2.197   1.167 -0.8528  0.6033  0.0032
  386SOL    HW1 1157   1.754   2.181   1.089  1.8351  0.1921 -0.1834
  386SOL    HW2 1158   1.677   2.296   1.170  1.6951 -1.7708 -0.7904
  387SOL     OW 1159   2.843   2.034   1.306  0.1961 -0.2134  0.4162
  387SOL    HW1 1160   2.815   1.972   1.226  0.1981 -1.8747  0.1362
  387SOL    HW2 1161   2.804   1.997   1.394  0.4110 -2.3347  2.3786
  388SOL     OW 1162   2.841   0.941   1.433 -0.5966 -0.0844  0.2210
  388SOL    HW1 1163   2.860   0.845   1.457  2.3800  0.6939  2.9624
  388SOL    HW2 1164   2.741   0.955   1.412 -0.1917  1.1965 -0.2850
  389SOL     OW 1165   1.961   0.619   0.349 -0.2805  0.0466  0.3239
  389SOL    HW1 1166   1.991   0.708   0.313  0.6148  1.4585 -0.7552
  389SOL    HW2 1167   1.865   0.600   0.329 -1.2026 -0.0739 -2.2584
  390SOL     OW 1168   1.355   1.734   2.712 -0.2983  0.7885  0.5797
  390SOL    HW1 1169   1.308   1.692   2.633  2.0002  0.2902  0.8037
  390SOL    HW2 1170   1.442   1.681   2.730 -0.1772  0.6126 -0.3882
  391SOL     OW 1171   1.075   2.073   0.022 -0.1019 -0.3352  0.0210
  391SOL    HW1 1172   1.098   2.172   0.016  0.2575  1.8360 -0.7567
  391SOL    HW2 1173   0.990   2.067   3.090  0.0266 -0.0306 -1.8260
  392SOL     OW 1174   0.179   2.822   1.710 -0.2724  0.3255 -0.4512
  392SOL    HW1 1175   0.217   2.732   1.677  2.1381 -0.4536  0.1187
  392SOL    HW2 1176   0.168   2.829   1.812 -1.2346 -0.8498 -0.0489
  393SOL     OW 1177   1.619   2.589   0.087  0.0157  0.6391 -0.1942
  393SOL    HW1 1178   1.717   2.571   0.110 -0.0259 -1.1652  1.6095
  393SOL    HW2 1179   1.565   2.579   0.174 -2.2467 -2.7342  1.3328
  394SOL     OW 1180   0.458   0.649   2.365 -0.1575 -0.3627  0.0311
  394SOL    HW1 1181   0.414   0.703   2.441 -0.0418  1.3025 -2.1871
  394SOL    HW2 1182   0.433   0.551   2.373 -0.0992  1.4660  2.0256
  395SOL     OW 1183   0.387   1.170   1.167 -0.4117 -0.4893 -0.0077
  395SOL    HW1 1184   0.394   1.228   1.250  0.1728  0.9822 -0.6336
  395SOL    HW2 1185   0.332   1.221   1.095 -0.3889 -2.3678  2.1516
  396SOL     OW 1186   1.654   1.047   2.341 -0.0399  0.2743 -0.5655
  396SOL    HW1 1187   1.648   1.151   2.342 -0.7566  1.2830 -0.0071
  396SOL    HW2 1188   1.721   1.018   2.268 -0.9546  0.0622 -0.3202
  397SOL     OW 1189   0.718   0.069   0.169  0.0212 -0.3473  0.4460
  397SOL    HW1 1190   0.726   0.119   0.080 -0.9150  1.4578  0.2004
  397SOL    HW2 1191   0.661   0.116   0.240  0.2131  1.9037  0.4785
  398SOL     OW 1192   1.003   2.081   2.772  0.1956  0.2647  0.0780
  398SOL    HW1 1193   0.948   2.067   2.859  0.6399 -0.8759  0.0196
  398SOL    HW2 1194   1.015   1.993   2.719  2.7881  0.3793 -2.3553
  399SOL     OW 1195   2.188   1.521   2.562  0.2292 -0.6932  0.5524
  399SOL    HW1 1196   2.137   1.455   2.618 -1.2878 -2.2957  0.2251
  399SOL    HW2 1197   2.134   1.589   2.508 -2.3041 -1.6099  2.6809
  400SOL     OW 1198   2.218   1.332   1.400 -0.4182  0.4622  0.3749
  400SOL    HW1 1199   2.269   1.306   1.316  0.3131  3.1528 -1.0472
  400SOL    HW2 1200   2.167   1.420   1.389  1.8732  0.7746  3.4095
  401SOL     OW 1201   0.993   1.422   1.182  0.3484 -0.3969  0.1181
  401SOL    HW1 1202   1.078   1.372   1.162  0.6112  0.3679 -3.1828
  401SOL    HW2 1203   0.967   1.410   1.277 -2.8949 -1.8059 -0.9432
  402SOL     OW 1204   3.125   2.518   1.597  0.3335  0.0309  0.2609
  402SOL    HW1 1205   3.073   2.510   1.510  1.1262 -1.7051 -0.0644
  402SOL    HW2 1206   0.072   2.583   1.595 -0.9889  0.1288 -1.5814
  403SOL     OW 1207   0.180   1.110   2.445 -0.0899  0.6233  0.0290
  403SOL    HW1 1208   0.179   1.202   2.491  0.3613  2.4490 -0.5376
  403SOL    HW2 1209   0.274   1.085   2.423 -2.0131  1.7889 -0.2284
  404SOL     OW 1210   2.210   1.776   1.346 -0.1402  0.0543 -0.5154
  404SOL    HW1 1211   2.198   1.864   1.393 -0.5164  0.5578 -0.3550
  404SOL    HW2 1212   2.271   1.781   1.263  1.3420  1.1601 -0.3696
  405SOL     OW 1213   2.751   0.441   2.525  0.2376 -0.1539 -0.1075
  405SOL    HW1 1214   2.799   0.487   2.451 -1.0565  1.8560  0.8586
  405SOL    HW2 1215   2.703   0.358   2.504  0.2760  2.0864 -1.4031
  406SOL     OW 1216   0.867   1.313   3.080  0.8217  0.1202  0.2684
  406SOL    HW1 1217   0.849   1.363   0.040 -1.7257  1.8936  0.2272
  406SOL    HW2 1218   0.944   1.248   3.097 -0.1608  1.1909  0.8580
  407SOL     OW 1219   1.832   2.528   2.967  0.3741  0.2126 -0.6894
  407SOL    HW1 1220   1.765   2.466   2.918 -1.3441  1.0003 -0.6062
  407SOL    HW2 1221   1.886   2.587   2.903 -0.6818 -0.1017  1.0304
  408SOL     OW 1222   0.388   3.093   3.096 -0.1612  0.5472 -0.1525
  408SOL    HW1 1223   0.456   3.058   0.038 -1.7896 -0.4510  3.6422
  408SOL    HW2 1224   0.418   3.068   3.003 -0.4584 -0.6960  0.3950
  409SOL     OW 1225   2.349   1.745   1.102 -0.7540 -0.1837  0.1347
  409SOL    HW1 1226   2.307   1.700   1.019  1.0100 -1.5108  0.2117
  409SOL    HW2 1227   2.396   1.835   1.082  2.2094  1.9967 -0.9917
  410SOL     OW 1228   2.251   2.064   2.762 -0.1611 -0.1136 -0.0082
  410SOL    HW1 1229   2.334   2.012   2.768 -2.0491  2.0653 -2.4752
  410SOL    HW2 1230   2.224   2.108   2.850 -1.7526  2.5130  0.6041
  411SOL     OW 1231   0.064   1.215   0.806 -0.5251  0.1372 -0.3085
  411SOL    HW1 1232   3.113   1.150   0.804  0.4500  0.4753 -1.1068
  411SOL    HW2 1233   0.110   1.225   0.712  0.7938 -2.3045 -0.8371
  412SOL     OW 1234   1.560   2.769   0.428  0.0220  0.0724 -0.4626
  412SOL    HW1 1235   1.645   2.736   0.385  0.4569 -0.6968 -0.6294
  412SOL    HW2 1236   1.501   2.819   0.359  0.5880  2.1336 -0.0848
  413SOL     OW 1237   1.805   0.376   2.506 -0.0067 -0.5378  0.1529
  413SOL    HW1 1238   1.709   0.355   2.535 -0.4904  0.3321 -0.7845
  413SOL    HW2 1239   1.808   0.390   2.406 -1.0589 -2.6108  0.8045
  414SOL     OW 1240   2.776   0.535   0.578  0.1137 -0.1139 -0.1238
  414SOL    HW1 1241   2.708   0.468   0.538  0.3997 -0.4702 -0.4541
  414SOL    HW2 1242   2.871   0.514   0.554  2.5787  2.4166 -1.6354
  415SOL     OW 1243   0.925   1.555   1.672 -0.2960 -0.6540  0.1748
  415SOL    HW1 1244   0.935   1.648   1.626  2.8182  1.6169 -0.7672
  415SOL    HW2 1245   0.844   1.505   1.634  2.0152  1.4603 -0.0069
  416SOL     OW 1246   0.486   3.076   2.823 -0.5549 -0.3046 -0.5188
  416SOL    HW1 1247   0.527   0.039   2.800 -0.3644 -2.9950 -4.3626
  416SOL    HW2 1248   0.409   3.057   2.756  0.3947 -2.1512  0.5003
  417SOL     OW 1249   2.542   2.961   1.102  0.6295 -0.4218  0.7498
  417SOL    HW1 1250   2.598   2.879   1.087  0.1693 -0.2107 -2.1851
  417SOL    HW2 1251   2.585   3.008   1.180 -1.7820  2.2560  1.6551
  418SOL     OW 1252   0.559   0.476   2.619 -0.1512  0.1449 -0.0946
  418SOL    HW1 1253   0.484   0.432   2.668 -0.6082  1.3289  1.5752
  418SOL    HW2 1254   0.523   0.536   2.543 -0.7157  0.7294  1.2901
  419SOL     OW 1255   0.194   1.437   1.191  0.3609 -0.4525 -0.5708
  419SOL    HW1 1256   0.179   1.523   1.143 -3.3705 -3.5651  1.8458
  419SOL    HW2 1257   0.166   1.361   1.130 -1.8578  0.9021 -1.3833
  420SOL     OW 1258   0.705   2.114   1.138  0.3605  0.2182  0.2083
  420SOL    HW1 1259   0.727   2.088   1.044  3.4744  1.0406 -0.2478
  420SOL    HW2 1260   0.607   2.131   1.157  1.6181  0.0764  1.3823
  421SOL     OW 1261   1.982   2.334   2.016  0.4481  0.0674 -0.2069
  421SOL    HW1 1262   1.910   2.319   1.949  0.2984  3.3427  0.9545
  421SOL    HW2 1263   1.955   2.295   2.109 -0.0024 -4.3323 -0.0643
  422SOL     OW 1264   3.095   0.480   2.597 -0.3770  0.4135 -0.0971
  422SOL    HW1 1265   0.017   0.394   2.586  0.1909 -0.8876  0.9424
  422SOL    HW2 1266   3.061   0.488   2.688  1.9559 -1.8657  0.2670
  423SOL     OW 1267   1.282   2.199   0.916  0.1247  0.4586 -0.7471
  423SOL    HW1 1268   1.230   2.123   0.874 -2.9538  0.3112  1.9287
  423SOL    HW2 1269   1.226   2.244   0.990  0.1512 -1.8588 -0.7593
  424SOL     OW 1270   0.675   1.479   1.629  0.0010  0.1613 -0.0481
  424SOL    HW1 1271   0.607   1.491   1.555  1.9117  1.3847 -0.7209
  424SOL    HW2 1272   0.633   1.503   1.723  0.6967  0.5777  2.1875
  425SOL     OW 1273   3.113   2.663   2.040  0.4573 -0.7120 -0.2082
  425SOL    HW1 1274   0.018   2.582   2.079 -1.0090  0.0004 -1.3717
  425SOL    HW2 1275   3.085   2.651   1.941 -1.0592  2.2003  2.2148
  426SOL     OW 1276   1.787   0.015   0.689 -0.5862  0.0981  0.3423
  426SOL    HW1 1277   1.840   0.044   0.603 -0.0457  1.5585 -0.9759
  426SOL    HW2 1278   1.847   3.126   0.765 -0.2296  1.3547 -1.5364
  427SOL     OW 1279   0.932   0.681   2.913  0.3956 -0.4224 -0.3608
  427SOL    HW1 1280   0.925   0.660   3.013 -0.5344  1.3855  0.4573
  427SOL    HW2 1281   0.951   0.780   2.911 -0.5687  1.9152  0.3144
  428SOL     OW 1282   1.815   1.158   0.301 -0.0318  0.1075 -0.2506
  428SOL    HW1 1283   1.757   1.232   0.258  2.2219 -1.1777  0.2061
  428SOL    HW2 1284   1.833   1.092   0.225  0.2669  1.6366  1.1887
  429SOL     OW 1285   0.024   2.834   0.605 -0.0691  0.3449 -0.2510
  429SOL    HW1 1286   0.107   2.887   0.626  0.5722  2.0863 -0.3966
  429SOL    HW2 1287   3.086   2.888   0.557  1.9930 -2.0482  3.6459
  430SOL     OW 1288   0.460   2.868   2.195  0.1831 -0.1005  0.3649
  430SOL    HW1 1289   0.478   2.803   2.268  0.6206 -0.1012  0.5785
  430SOL    HW2 1290   0.531   2.936   2.190 -0.0867  0.1897  0.4164
  431SOL     OW 1291   2.572   1.018   1.441 -0.3815 -0.0487  0.2231
  431SOL    HW1 1292   2.591   1.094   1.375  0.7041  1.6276 -2.9584
  431SOL    HW2 1293   2.592   1.050   1.534 -0.7112  0.9277 -0.7605
  432SOL     OW 1294   2.093   2.562   2.086 -0.1766  0.4069 -0.2905
  432SOL    HW1 1295   2.076   2.561   2.190  0.7558 -0.8278  1.7598
  432SOL    HW2 1296   2.043   2.486   2.039 -0.9670 -1.2414  0.2240
  433SOL     OW 1297   1.200   2.399   0.727  0.3918 -0.3072  0.5412
  433SOL    HW1 1298   1.222   2.309   0.762 -2.4854  3.1308 -2.7548
  433SOL    HW2 1299   1.269   2.466   0.754 -0.6931 -1.1217 -0.8818
  434SOL     OW 1300   0.210   2.147   2.175  0.9728 -0.5895 -0.5399
  434SOL    HW1 1301   0.293   2.103   2.208  1.4571  3.7901 -0.0948
  434SOL    HW2 1302   0.128   2.086   2.191  0.5158 -2.7789  0.1530
  435SOL     OW 1303   0.342   0.887   0.245  0.0523 -0.0820  0.2261
  435SOL    HW1 1304   0.258   0.846   0.197 -1.1719  0.7239 -2.0412
  435SOL    HW2 1305   0.428   0.868   0.190  1.5809  0.4645  0.1108
  436SOL     OW 1306   0.310   2.599   1.655 -0.0176 -0.1455 -0.6752
  436SOL    HW1 1307   0.346   2.517   1.702  1.8566 -2.4622 -1.1420
  436SOL    HW2 1308   0.387   2.636   1.603 -0.0882  0.3771 -1.5526
  437SOL     OW 1309   1.545   2.179   1.551 -0.1248 -0.0163 -0.0677
  437SOL    HW1 1310   1.631   2.220   1.585 -0.2021  0.3549 -1.0785
  437SOL    HW2 1311   1.572   2.084   1.519  0.5922 -0.8802 -0.6931
  438SOL     OW 1312   0.185   1.801   0.658 -0.0162  0.3212  0.2299
  438SOL    HW1 1313   0.198   1.709   0.702 -0.0952 -0.8401 -0.4126
  438SOL    HW2 1314   0.083   1.821   0.640 -4.5244  0.9975 -2.0341
  439SOL     OW 1315   0.137   0.791   0.866 -0.7241  0.2493  0.1000
  439SOL    HW1 1316   0.219   0.728   0.894  1.7251  0.8670 -0.3002
  439SOL    HW2 1317   0.054   0.733   0.841  3.4114  0.4625  1.7675
  440SOL     OW 1318   0.135   2.756   2.530  0.0510 -0.4891  0.1740
  440SOL    HW1 1319   0.037   2.767   2.561 -2.3373 -1.5205  0.9114
  440SOL    HW2 1320   0.171   2.659   2.528  3.4338 -0.9352  1.4183
  441SOL     OW 1321   2.997   0.130   0.787 -0.1759 -0.0639 -0.2683
  441SOL    HW1 1322   3.040   0.223   0.800 -1.8773  0.5779 -0.6781
  441SOL    HW2 1323   2.895   0.133   0.804 -0.3088  0.9838  0.7349
  442SOL     OW 1324   1.230   2.283   2.455 -0.3322  0.2926  0.3112
  442SOL    HW1 1325   1.179   2.253   2.535  0.2867 -1.2116  2.2159
  442SOL    HW2 1326   1.325   2.244   2.452  0.8831 -0.3817 -0.5617
  443SOL     OW 1327   0.725   1.061   0.030 -0.1622 -0.5635  0.2887
  443SOL    HW1 1328   0.676   1.124   3.093 -3.1823  1.8395  1.6686
  443SOL    HW2 1329   0.826   1.074   0.029  0.9459 -0.2078  2.6648
  444SOL     OW 1330   1.608   1.417   2.540  0.1710 -0.3614 -0.5708
  444SOL    HW1 1331   1.586   1.396   2.440 -1.0577 -0.6024 -0.3224
  444SOL    HW2 1332   1.586   1.333   2.593 -0.1869  0.3528  2.7290
  445SOL     OW 1333   0.150   3.003   1.092  0.2966 -0.0954 -0.1285
  445SOL    HW1 1334   0.237   3.051   1.064 -2.0171  1.2509  0.4661
  445SOL    HW2 1335   0.075   3.023   1.028 -1.7244 -1.9385  1.3139
  446SOL     OW 1336   2.138   0.576   1.085  0.2465  0.2391  0.3237
  446SOL    HW1 1337   2.146   0.587   0.984  0.3691  0.6014 -1.0668
  446SOL    HW2 1338   2.042   0.564   1.116  1.2122 -1.9005  1.0528
  447SOL     OW 1339   0.270   0.715   2.992 -0.8756 -0.0211  0.8291
  447SOL    HW1 1340   0.216   0.634   3.013 -0.1370 -0.6190 -1.8154
  447SOL    HW2 1341   0.231   0.756   2.904  0.8137  1.0723  1.6410
  448SOL     OW 1342   1.354   1.884   1.452  0.0659  0.1142  0.0719
  448SOL    HW1 1343   1.433   1.933   1.408  0.1210  0.4936 -0.4008
  448SOL    HW2 1344   1.378   1.857   1.547  0.7307 -0.1321  0.1689
  449SOL     OW 1345   0.866   1.395   0.920 -0.3904  0.2679  0.4709
  449SOL    HW1 1346   0.917   1.390   1.006 -1.4359 -1.4369 -1.3020
  449SOL    HW2 1347   0.899   1.466   0.854 -0.5559  1.2141  1.3887
  450SOL     OW 1348   2.903   2.129   2.082 -0.0342  0.2919 -0.4806
  450SOL    HW1 1349   2.900   2.226   2.115 -1.3297  3.1452  2.0003
  450SOL    HW2 1350   2.810   2.089   2.081  1.0417  0.4895 -2.7589
  451SOL     OW 1351   2.343   1.231   2.650  0.3930  0.5214  0.2595
  451SOL    HW1 1352   2.245   1.250   2.671 -0.3665 -0.0875 -1.9743
  451SOL    HW2 1353   2.393   1.316   2.659 -1.7683  1.0972  0.0212
  452SOL     OW 1354   1.778   0.885   1.411  0.4880 -0.5320 -0.1499
  452SOL    HW1 1355   1.693   0.938   1.396  0.9292 -0.9845 -0.9610
  452SOL    HW2 1356   1.853   0.938   1.368 -1.1272 -0.6031  0.4896
  453SOL     OW 1357   2.082   0.970   1.669 -0.4991 -0.0564 -0.4166
  453SOL    HW1 1358   2.092   1.065   1.693 -4.2576 -2.3574 -0.4066
  453SOL    HW2 1359   2.092   0.975   1.565 -1.2018 -1.5337 -1.8812
  454SOL     OW 1360   3.056   1.050   0.156 -0.1063 -0.3155  0.1701
  454SOL    HW1 1361   3.103   0.998   0.085 -1.2930  1.3412  1.9497
  454SOL    HW2 1362   3.043   0.987   0.237 -0.4415 -0.8025 -1.3073
  455SOL     OW 1363   2.511   1.551   1.182  0.0944 -0.0767  0.4754
  455SOL    HW1 1364   2.443   1.631   1.169 -0.9248 -0.1628 -4.1634
  455SOL    HW2 1365   2.528   1.530   1.277 -0.3812 -1.4502 -2.2439
  456SOL     OW 1366   0.814   0.223   1.432 -0.1443  0.0197 -0.5754
  456SOL    HW1 1367   0.811   0.147   1.502  0.2289  1.4646  1.8286
  456SOL    HW2 1368   0.837   0.191   1.336 -1.2043  1.3944  0.0235
  457SOL     OW 1369   1.649   2.967   1.120 -0.1715  0.3264 -0.4265
  457SOL    HW1 1370   1.640   2.905   1.203 -0.8422 -0.9933 -1.7263
  457SOL    HW2 1371   1.570   3.028   1.109  1.8892 -1.1140  3.1302
  458SOL     OW 1372   2.569   0.331   0.657 -0.0048  0.0978  0.0987
  458SOL    HW1 1373   2.499   0.404   0.648  0.0920 -0.2198 -3.1457
  458SOL    HW2 1374   2.524   0.241   0.656 -1.3898  0.7209 -0.5907
  459SOL     OW 1375   1.692   0.733   0.032  0.0887 -0.4327 -0.1601
  459SOL    HW1 1376   1.677   0.679   0.116  0.8381 -0.9694  0.1870
  459SOL    HW2 1377   1.604   0.733   3.101  1.1643 -1.4280 -1.5416
  460SOL     OW 1378   3.116   2.603   2.898  0.2660  0.2150  0.0008
  460SOL    HW1 1379   3.066   2.624   2.808 -3.5744  0.5805 -0.0138
  460SOL    HW2 1380   0.061   2.669   2.918  1.4262 -2.6783  0.0376
  461SOL     OW 1381   0.512   1.834   0.240 -0.1357 -0.2381 -0.2934
  461SOL    HW1 1382   0.483   1.805   0.336  2.2916  0.2301  0.3618
  461SOL    HW2 1383   0.588   1.775   0.209 -1.2820 -2.4666  2.1934
  462SOL     OW 1384   1.909   2.421   0.783 -0.1271 -0.2819 -0.1957
  462SOL    HW1 1385   1.994   2.432   0.726 -3.4158 -1.2737  3.2649
  462SOL    HW2 1386   1.912   2.478   0.871  1.1437 -0.5694 -0.2381
  463SOL     OW 1387   3.074   0.657   0.409  0.1522  0.2749 -0.1066
  463SOL    HW1 1388   3.112   0.639   0.502  0.4524 -1.2862  0.8854
  463SOL    HW2 1389   3.051   0.563   0.372  1.2720 -1.7164  0.6487
  464SOL     OW 1390   0.681   2.599   0.532  0.2581  0.1477  0.2510
  464SOL    HW1 1391   0.606   2.598   0.602 -0.4508  0.0490  0.8685
  464SOL    HW2 1392   0.687   2.509   0.488 -1.1673  1.3221 -2.5811
  465SOL     OW 1393   2.381   0.550   0.598 -0.1062  0.1508  0.5818
  465SOL    HW1 1394   2.288   0.508   0.583 -0.1983  0.4907  1.9756
  465SOL    HW2 1395   2.416   0.572   0.508  1.0384  0.5722  1.5967
  466SOL     OW 1396   2.258   0.245   0.333  0.5773  0.0567 -0.2042
  466SOL    HW1 1397   2.345   0.256   0.275  1.4412  1.1123  0.3796
  466SOL    HW2 1398   2.216   0.157   0.312 -0.3063  1.7741 -1.5080
  467SOL     OW 1399   1.210   0.236   2.023  0.2155 -0.2132 -0.5810
  467SOL    HW1 1400   1.186   0.321   2.078  0.2307 -0.6155  0.4249
  467SOL    HW2 1401   1.313   0.226   2.028 -0.2722  1.7868  2.7751
  468SOL     OW 1402   2.935   0.737   2.128  0.0852  0.2185 -0.0095
  468SOL    HW1 1403   3.024   0.688   2.104  1.9143 -1.9547  2.7760
  468SOL    HW2 1404   2.868   0.739   2.043 -1.2019  1.0278 -4.1832
  469SOL     OW 1405   0.739   2.416   2.375 -0.4544 -0.0243  0.7311
  469SOL    HW1 1406   0.783   2.337   2.421  0.2207 -2.2738 -1.4954
  469SOL    HW2 1407   0.766   2.407   2.276 -1.4709 -1.3100  1.0406
  470SOL     OW 1408   2.118   1.410   1.976  0.1165  0.4915  0.0308
  470SOL    HW1 1409   2.180   1.416   1.893  0.7629 -0.6084 -1.6026
  470SOL    HW2 1410   2.077   1.319   1.986  2.4368 -0.3798 -0.7235
  471SOL     OW 1411   2.818   0.970   0.050  0.4273 -0.2408 -0.2437
  471SOL    HW1 1412   2.821   0.936   3.084 -1.6184  1.9373  0.5023
  471SOL    HW2 1413   2.899   1.028   0.072 -2.2405 -2.1269  0.8051
  472SOL     OW 1414   0.386   2.895   0.392 -0.4774 -0.0929 -0.7448
  472SOL    HW1 1415   0.320   2.908   0.316 -0.5409 -0.1098  1.0309
  472SOL    HW2 1416   0.446   2.809   0.379  1.3891 -4.3684 -1.6136
  473SOL     OW 1417   0.862   2.689   2.346  0.0908  0.1398  0.1521
  473SOL    HW1 1418   0.803   2.607   2.356  1.4170  0.7048  1.8545
  473SOL    HW2 1419   0.808   2.764   2.394 -1.5448  1.7196 -1.1788
  474SOL     OW 1420   1.394   0.111   2.321 -0.8709 -0.5481  0.1207
  474SOL    HW1 1421   1.296   0.130   2.348  0.1685  1.0170 -1.1744
  474SOL    HW2 1422   1.456   0.135   2.400 -1.6742  2.0927 -0.0738
  475SOL     OW 1423   0.935   2.495   0.179  0.2587  0.1764 -0.4266
  475SOL    HW1 1424   0.959   2.578   0.226 -1.1797  0.3035 -0.9137
  475SOL    HW2 1425   0.857   2.447   0.225  0.0407 -1.0708 -0.8788
  476SOL     OW 1426   0.638   0.405   0.915  0.1660  0.2053 -0.2318
  476SOL    HW1 1427   0.598   0.468   0.989 -0.2673 -0.2315  2.2009
  476SOL    HW2 1428   0.709   0.458   0.861  0.6893 -0.6387 -0.7141
  477SOL     OW 1429   1.857   1.824   1.481  0.0735 -0.2520  0.5571
  477SOL    HW1 1430   1.834   1.772   1.563  0.3607 -1.4947 -1.6090
  477SOL    HW2 1431   1.861   1.754   1.404  0.3833 -0.1403 -1.4650
  478SOL     OW 1432   0.286   0.837   2.743 -0.0164  0.5586  0.0406
  478SOL    HW1 1433   0.382   0.862   2.712  0.6532 -3.2809 -0.5733
  478SOL    HW2 1434   0.256   0.903   2.814  2.3887 -2.2856  2.8271
  479SOL     OW 1435   0.631   0.186   0.738  0.0934  0.2634  0.0509
  479SOL    HW1 1436   0.658   0.268   0.683 -1.8899  2.0158  0.8151
  479SOL    HW2 1437   0.599   0.217   0.832  1.5347  1.9352  2.8563
  480SOL     OW 1438   2.572   2.693   0.119  0.0584  0.1602 -0.3588
  480SOL    HW1 1439   2.605   2.732   0.032 -0.6907  2.9011 -3.6737
  480SOL    HW2 1440   2.614   2.598   0.127  1.3555 -0.5467  2.9698
  481SOL     OW 1441   2.845   0.778   1.152 -0.2725 -0.4728 -0.4584
  481SOL    HW1 1442   2.901   0.858   1.129 -0.3282 -0.2573 -2.2088
  481SOL    HW2 1443   2.899   0.695   1.130 -0.0692  0.2494  2.6988
  482SOL     OW 1444   1.423   2.523   1.486  0.1577 -0.3992 -0.1171
  482SOL    HW1 1445   1.514   2.494   1.444  1.2387 -0.0977 -1.5900
  482SOL    HW2 1446   1.421   2.490   1.583  1.9893 -1.3647  0.7582
  483SOL     OW 1447   0.471   1.383   0.031 -0.0226 -0.5404  0.1077
  483SOL    HW1 1448   0.432   1.424   3.074 -0.1647  1.7674 -0.2753
  483SOL    HW2 1449   0.454   1.287   0.044 -1.5298 -0.3231 -2.1938
  484SOL     OW 1450   1.309   1.681   2.303  0.6848 -0.4865  0.0589
  484SOL    HW1 1451   1.308   1.576   2.300 -1.5755 -0.7023 -2.0733
  484SOL    HW2 1452   1.361   1.726   2.232  4.2977 -0.2546 -1.1553
  485SOL     OW 1453   0.202   0.289   2.218  0.2033 -0.0717  0.4539
  485SOL    HW1 1454   0.125   0.308   2.156 -0.0270  0.7601  1.4098
  485SOL    HW2 1455   0.276   0.248   2.165  0.2899 -0.4179  1.2425
  486SOL     OW 1456   1.378   0.075   0.539 -0.1161 -0.2367 -0.3477
  486SOL    HW1 1457   1.403   0.150   0.600 -4.1167  1.7899 -1.5330
  486SOL    HW2 1458   1.447   3.126   0.539  0.6180 -1.2712 -1.5795
  487SOL     OW 1459   1.430   2.948   0.867  0.4393 -0.4780 -0.2590
  487SOL    HW1 1460   1.345   3.000   0.852  3.3397 -0.2976 -3.1911
  487SOL    HW2 1461   1.482   2.942   0.783 -4.1422 -0.8563  0.7732
  488SOL     OW 1462   2.042   0.916   0.944 -0.1207  0.2941  0.2065
  488SOL    HW1 1463   2.083   0.993   1.002  1.5036  1.0337  0.2882
  488SOL    HW2 1464   2.112   0.852   0.919 -0.4079  1.2853  1.6350
  489SOL     OW 1465   1.201   2.935   1.286 -0.0328 -0.4055 -0.4605
  489SOL    HW1 1466   1.217   2.846   1.334 -0.5080 -0.3508  1.3444
  489SOL    HW2 1467   1.167   2.925   1.192  0.3199 -0.9482 -1.8251
  490SOL     OW 1468   0.981   0.915   0.358  0.1078 -0.0735  0.0938
  490SOL    HW1 1469   0.882   0.922   0.377  3.1677 -1.6322  0.7972
  490SOL    HW2 1470   1.031   0.844   0.416  1.0097 -3.5180 -0.2822
  491SOL     OW 1471   1.041   2.792   0.062  0.2526  0.0316  0.0908
  491SOL    HW1 1472   1.035   2.772   0.168  1.6575 -0.3344  2.9184
  491SOL    HW2 1473   1.135   2.782   0.026 -1.7885  2.3167 -1.4362
  492SOL     OW 1474   1.149   1.167   2.181  0.2626 -0.5592  0.6447
  492SOL    HW1 1475   1.224   1.234   2.148  3.3362  0.7888 -1.8400
  492SOL    HW2 1476   1.066   1.172   2.126  1.8676 -1.8790  1.9756
  493SOL     OW 1477   2.972   2.077   0.248 -0.1906  0.2405  0.7142
  493SOL    HW1 1478   3.027   2.134   0.183  2.3639 -0.7428  1.0795
  493SOL    HW2 1479   2.885   2.036   0.206 -1.3182 -0.4056 -1.9909
  494SOL     OW 1480   1.961   1.523   0.487  0.0758  0.1970 -0.2693
  494SOL    HW1 1481   1.893   1.557   0.560 -1.4533  2.5861  1.3470
  494SOL    HW2 1482   1.952   1.423   0.481 -0.4771 -0.1973 -0.5998
  495SOL     OW 1483   0.436   1.065   2.303  0.4876  0.0301  0.1626
  495SOL    HW1 1484   0.430   1.084   2.201 -0.8787  0.6220 -0.4137
  495SOL    HW2 1485   0.530   1.023   2.329  2.9819 -1.4055  0.6946
  496SOL     OW 1486   2.932   3.026   2.106 -0.4192  1.1979  0.0893
  496SOL    HW1 1487   3.002   3.088   2.063  2.0072  0.5083 -0.2243
  496SOL    HW2 1488   2.976   2.954   2.166  1.2456 -2.0771  3.3823
  497SOL     OW 1489   2.181   0.879   0.634  0.2175 -0.5605  0.2019
  497SOL    HW1 1490   2.236   0.867   0.552 -2.6874  1.3652  1.0092
  497SOL    HW2 1491   2.082   0.879   0.609 -2.1322 -0.3066  2.5265
  498SOL     OW 1492   2.932   2.735   3.068  0.4005 -0.8146  0.3419
  498SOL    HW1 1493   2.833   2.744   3.045  0.2703 -1.1850 -3.9508
  498SOL    HW2 1494   2.980   2.684   2.995 -0.0367 -1.9654  0.3946
  499SOL     OW 1495   1.596   2.673   0.698  0.2409 -0.3208 -0.1393
  499SOL    HW1 1496   1.575   2.731   0.618  0.7604 -0.1928 -2.6545
  499SOL    HW2 1497   1.659   2.598   0.670 -0.1838  2.2416  0.2268
  500SOL     OW 1498   1.550   0.800   2.575 -0.3622 -0.3164 -0.2726
  500SOL    HW1 1499   1.593   0.757   2.494 -2.0248 -2.1956  0.5520
  500SOL    HW2 1500   1.482   0.869   2.543  1.8617  0.7417 -2.8713
  501SOL     OW 1501   1.109   0.216   1.229 -0.0405 -0.0292 -0.0853
  501SOL    HW1 1502   1.208   0.230   1.212 -1.7169 -2.2710 -0.8685
  501SOL    HW2 1503   1.101   0.150   1.308 -0.0218 -0.5634  0.5451
  502SOL     OW 1504   0.017   0.040   1.972 -0.3356 -0.2931  0.4501
  502SOL    HW1 1505   0.114   0.026   2.003 -1.3342 -0.4006  1.5021
  502SOL    HW2 1506   0.011   0.057   1.873 -3.2014  1.5009  0.7181
  503SOL     OW 1507   1.514   2.475   2.215  0.0561  0.5469  0.0506
  503SOL    HW1 1508   1.587   2.548   2.217  0.7544  1.2823  2.7174
  503SOL    HW2 1509   1.549   2.388   2.246  0.0627  3.3150  0.1802
  504SOL     OW 1510   2.037   0.243   1.883  0.9392  0.4944  0.3122
  504SOL    HW1 1511   2.096   0.240   1.799 -1.5446 -1.5219 -1.8270
  504SOL    HW2 1512   1.967   0.172   1.879  1.9074 -1.4446 -0.0289
  505SOL     OW 1513   2.681   1.338   1.535  0.0317  0.8078 -0.1928
  505SOL    HW1 1514   2.694   1.306   1.442 -0.6400  1.0820 -0.9022
  505SOL    HW2 1515   2.649   1.260   1.588  1.6775  3.3033 -3.6829
  506SOL     OW 1516   0.248   1.373   2.146 -0.6179  0.1041 -0.4597
  506SOL    HW1 1517   0.205   1.400   2.234 -1.4570 -1.7322 -0.4198
  506SOL    HW2 1518   0.186   1.305   2.101 -3.3727 -0.5343  0.6960
  507SOL     OW 1519   0.192   3.031   1.395  0.4140 -0.0669 -0.4051
  507SOL    HW1 1520   0.200   3.020   1.291  2.3824 -1.8082 -0.5205
  507SOL    HW2 1521   0.126   2.964   1.440  0.1607 -1.1351  1.9817
  508SOL     OW 1522   1.426   0.668   1.506 -0.9821  0.4961  0.5218
  508SOL    HW1 1523   1.435   0.675   1.407 -1.1770  0.5465 -0.6461
  508SOL    HW2 1524   1.330   0.670   1.535  2.4070  1.2638 -1.9271
  509SOL     OW 1525   1.319   2.278   1.422  0.5069 -0.0675 -0.7834
  509SOL    HW1 1526   1.390   2.227   1.476  0.7026  0.1143  0.5987
  509SOL    HW2 1527   1.347   2.376   1.422 -0.7724 -0.8242  0.1600
  510SOL     OW 1528   2.852   1.499   0.117 -0.0398  0.5270 -0.8113
  510SOL    HW1 1529   2.819   1.494   0.020  1.2632  1.1925 -0.2197
  510SOL    HW2 1530   2.928   1.428   0.129  2.8602  2.5960 -1.1067
  511SOL     OW 1531   0.505   1.530   1.412 -0.2127  0.1038 -0.1355
  511SOL    HW1 1532   0.577   1.475   1.363  0.8612  0.3519  1.0144
  511SOL    HW2 1533   0.472   1.613   1.363  1.9744  2.6948 -1.5552
  512SOL     OW 1534   2.996   2.413   0.266  0.5141  0.1242 -0.7026
  512SOL    HW1 1535   3.052   2.384   0.343 -0.1858  2.0255 -1.6528
  512SOL    HW2 1536   3.015   2.343   0.189  2.7072 -0.7464 -1.9271
  513SOL     OW 1537   0.704   1.602   2.862 -0.3446  0.3163 -0.6536
  513SOL    HW1 1538   0.799   1.574   2.882 -1.8994 -1.0735 -0.7793
  513SOL    HW2 1539   0.697   1.614   2.763 -0.4923 -1.2703  0.1021
  514SOL     OW 1540   0.169   2.292   2.683 -0.1120 -0.3417 -0.2998
  514SOL    HW1 1541   0.265   2.271   2.699 -1.2390  1.6182  0.7800
  514SOL    HW2 1542   0.139   2.338   2.766 -2.9488 -2.9904 -1.1368
  515SOL     OW 1543   1.722   1.278   1.909 -0.1741  0.3860  0.3767
  515SOL    HW1 1544   1.725   1.360   1.965  2.4822  0.2954 -1.6345
  515SOL    HW2 1545   1.794   1.285   1.831  3.1767 -0.6597 -2.4184
  516SOL     OW 1546   1.894   2.563   0.106  0.2586  0.5545 -0.7942
  516SOL    HW1 1547   1.873   2.545   0.008 -0.6224 -1.4057  5.4735
  516SOL    HW2 1548   1.901   2.472   0.156 -0.9069 -0.4399 -0.8553
  517SOL     OW 1549   0.794   1.660   0.511 -0.3334  0.0716 -0.2996
  517SOL    HW1 1550   0.853   1.723   0.456 -2.0422  1.7509  0.4886
  517SOL    HW2 1551   0.854   1.632   0.588  2.3967  1.8526 -0.8764
  518SOL     OW 1552   2.220   2.329   1.832  0.7293  0.5670  0.1003
  518SOL    HW1 1553   2.161   2.402   1.796 -0.1408  1.2731  0.1991
  518SOL    HW2 1554   2.170   2.268   1.894 -0.9005 -0.9075  3.3493
  519SOL     OW 1555   1.961   2.449   1.220 -0.0955  0.5542  0.7218
  519SOL    HW1 1556   2.031   2.499   1.273 -0.7910 -0.4123  0.3343
  519SOL    HW2 1557   1.956   2.490   1.130  0.0186 -3.4538  2.8463
  520SOL     OW 1558   2.795   2.329   2.427 -0.1554  0.2874 -0.0396
  520SOL    HW1 1559   2.773   2.390   2.351  0.5594  0.3153  1.4813
  520SOL    HW2 1560   2.892   2.303   2.425 -1.9414 -1.7411  0.9347
  521SOL     OW 1561   2.914   1.173   2.523 -0.1886  0.6921 -0.3766
  521SOL    HW1 1562   2.950   1.234   2.453 -0.1979 -2.0145  0.0380
  521SOL    HW2 1563   2.822   1.141   2.481 -0.2313  1.1500 -1.7934
  522SOL     OW 1564   0.710   0.512   1.938 -0.0039  0.6752 -0.6258
  522SOL    HW1 1565   0.761   0.598   1.926  1.9376 -3.4163  1.7814
  522SOL    HW2 1566   0.683   0.467   1.851 -0.1936 -2.5661 -0.6625
  523SOL     OW 1567   0.399   1.936   0.931 -0.3374  0.0475 -0.1915
  523SOL    HW1 1568   0.377   2.024   0.884  1.0758 -0.8706  2.1718
  523SOL    HW2 1569   0.322   1.888   0.971  3.6211 -0.5980 -0.4622
  524SOL     OW 1570   1.894   2.919   0.321 -0.3698  0.2307  0.5481
  524SOL    HW1 1571   1.993   2.939   0.320  0.8523  0.3725 -1.2549
  524SOL    HW2 1572   1.867   2.820   0.329 -1.3891 -0.9703  2.6835
  525SOL     OW 1573   2.099   0.990   1.402 -0.5122  0.2638  0.0085
  525SOL    HW1 1574   2.138   0.919   1.342  0.8845 -0.2040  1.0214
  525SOL    HW2 1575   2.068   1.064   1.345 -1.8116  1.2174  1.7690
  526SOL     OW 1576   0.953   2.691   0.535 -0.7307 -0.3906 -0.0731
  526SOL    HW1 1577   0.994   2.781   0.575 -1.2031  4.8112 -0.3027
  526SOL    HW2 1578   0.848   2.695   0.550 -0.4018 -1.4629  1.4279
  527SOL     OW 1579   2.310   2.762   0.520  0.1123  0.3295 -0.7214
  527SOL    HW1 1580   2.378   2.811   0.576 -1.8216 -1.7005 -1.2252
  527SOL    HW2 1581   2.338   2.666   0.502 -1.0023  2.1886  5.8583
  528SOL     OW 1582   1.692   0.570   0.300 -0.6437 -0.2592  0.7154
  528SOL    HW1 1583   1.657   0.652   0.347  1.1375 -0.8074 -1.9168
  528SOL    HW2 1584   1.624   0.505   0.260 -1.1159 -2.8217 -1.0160
  529SOL     OW 1585   1.576   1.594   2.741  0.1133 -0.0846 -0.1829
  529SOL    HW1 1586   1.534   1.563   2.831  1.8315  0.0878  0.9463
  529SOL    HW2 1587   1.598   1.517   2.679  1.4540 -0.0487  0.1336
  530SOL     OW 1588   2.468   0.344   0.168  0.1287 -0.1581  0.4177
  530SOL    HW1 1589   2.481   0.442   0.149  1.3218 -0.0998  0.6524
  530SOL    HW2 1590   2.554   0.289   0.150 -1.0125 -0.4270 -3.1276
  531SOL     OW 1591   1.484   0.990   2.890  0.1269  0.0749  0.1393
  531SOL    HW1 1592   1.558   1.041   2.941  1.8159  2.5284  3.1686
  531SOL    HW2 1593   1.490   0.890   2.910  1.6910 -0.0331  2.6045
  532SOL     OW 1594   1.573   0.496   0.676 -0.2878 -0.4096  0.2264
  532SOL    HW1 1595   1.576   0.396   0.670  2.6581  0.8009 -0.6590
  532SOL    HW2 1596   1.665   0.535   0.669 -1.0052 -2.3599 -1.4071
  533SOL     OW 1597   0.673   0.947   2.345 -0.0828  0.8360  0.7435
  533SOL    HW1 1598   0.713   0.861   2.310 -4.3388  0.0184  0.3451
  533SOL    HW2 1599   0.742   1.004   2.395 -1.1247 -0.0765  1.5264
  534SOL     OW 1600   1.651   0.051   2.468 -0.2506 -0.6031 -0.1673
  534SOL    HW1 1601   1.739   0.008   2.505  2.9769 -1.1825 -2.1160
  534SOL    HW2 1602   1.643   0.147   2.504 -1.7280  1.6636 -0.2237
  535SOL     OW 1603   0.268   2.995   2.650  0.3275 -0.1285  0.2988
  535SOL    HW1 1604   0.204   2.937   2.597  0.0373  3.2984 -0.3464
  535SOL    HW2 1605   0.208   3.056   2.706 -1.2255 -0.3793 -1.1411
  536SOL     OW 1606   0.411   0.420   0.713  0.2721 -0.3678 -0.7165
  536SOL    HW1 1607   0.445   0.445   0.622 -1.2554  2.4391  3.1212
  536SOL    HW2 1608   0.481   0.430   0.792 -0.0594  1.1795 -0.2188
  537SOL     OW 1609   1.339   0.388   0.154  0.1283  0.5791 -0.2627
  537SOL    HW1 1610   1.439   0.395   0.136 -1.9020  2.3380  0.5060
  537SOL    HW2 1611   1.302   0.348   0.067  1.9541 -1.2872 -0.5750
  538SOL     OW 1612   2.783   2.247   3.097  0.2578 -0.4900 -0.9328
  538SOL    HW1 1613   2.736   2.188   3.035  2.2953  0.4468 -0.3727
  538SOL    HW2 1614   2.792   2.190   0.058 -1.5972 -1.4841  2.4710
  539SOL     OW 1615   2.068   1.931   0.246 -0.8687  0.3875 -0.2261
  539SOL    HW1 1616   1.976   1.920   0.290  3.0805  1.0864  1.9521
  539SOL    HW2 1617   2.046   1.946   0.144 -0.8448 -0.7273 -3.4305
  540SOL     OW 1618   0.563   2.672   1.531  0.3994  0.3014  0.1192
  540SOL    HW1 1619   0.556   2.583   1.483 -1.4065  0.0978 -0.9706
  540SOL    HW2 1620   0.618   2.743   1.476  0.1651 -0.5394  1.0549
  541SOL     OW 1621   2.214   0.105   2.046 -0.2433  0.2690 -1.1301
  541SOL    HW1 1622   2.284   0.098   1.974  3.4508 -0.3144 -0.6436
  541SOL    HW2 1623   2.138   0.157   2.006  0.1674  2.7284  2.9441
  542SOL     OW 1624   0.233   0.576   2.696 -0.2151  0.2876  0.2505
  542SOL    HW1 1625   0.160   0.556   2.631 -0.5580  0.8483  0.4602
  542SOL    HW2 1626   0.248   0.675   2.711  1.7357 -0.0382 -0.2763
  543SOL     OW 1627   0.356   0.794   1.433 -0.2115 -0.0273  0.6062
  543SOL    HW1 1628   0.352   0.839   1.341 -0.7147  0.4967  1.3341
  543SOL    HW2 1629   0.306   0.847   1.502  3.1359  1.5270  0.7482
  544SOL     OW 1630   2.609   0.810   1.056 -0.0046 -0.3909  0.4751
  544SOL    HW1 1631   2.707   0.790   1.079 -0.0503 -0.5433 -0.8251
  544SOL    HW2 1632   2.575   0.742   0.991 -0.8713  1.2796  2.7783
  545SOL     OW 1633   1.596   2.200   0.599  0.4410  0.3597 -0.6441
  545SOL    HW1 1634   1.549   2.117   0.573 -0.1285 -1.0570  1.3050
  545SOL    HW2 1635   1.574   2.224   0.698  1.0753  1.6872  1.5769
  546SOL     OW 1636   2.204   2.834   1.706 -0.3553 -0.7966  0.1424
  546SOL    HW1 1637   2.277   2.890   1.663  1.7520 -2.8072 -1.6644
  546SOL    HW2 1638   2.115   2.862   1.659  0.7107 -0.4448  1.0697
  547SOL     OW 1639   0.412   0.113   2.506 -0.7090 -0.3514 -0.2498
  547SOL    HW1 1640   0.365   0.031   2.543 -0.4892  0.2230 -0.5111
  547SOL    HW2 1641   0.496   0.081   2.453  3.5934  0.9860  1.6271
  548SOL     OW 1642   1.766   0.972   0.107  0.2428  0.0947  0.2820
  548SOL    HW1 1643   1.761   1.033   0.022 -1.2491  1.3230  0.3732
  548SOL    HW2 1644   1.728   0.885   0.077 -1.0069  1.0409 -1.0491
  549SOL     OW 1645   3.014   0.916   0.397 -0.6118 -0.0983  0.1707
  549SOL    HW1 1646   3.010   0.814   0.393  0.2745 -0.3528 -0.3347
  549SOL    HW2 1647   2.930   0.939   0.444  0.5334  0.0235  0.2224
  550SOL     OW 1648   1.899   1.978   0.775 -0.1817  0.3576 -0.2929
  550SOL    HW1 1649   1.847   1.935   0.695  1.1168 -1.6435 -0.5659
  550SOL    HW2 1650   1.955   1.904   0.821 -0.3386 -0.8871 -1.2102
  551SOL     OW 1651   1.405   0.150   0.816 -0.3188  0.3841 -0.4033
  551SOL    HW1 1652   1.343   0.084   0.869  0.9628  0.1558 -1.2385
  551SOL    HW2 1653   1.357   0.241   0.808 -0.1072  0.2578  1.2008
  552SOL     OW 1654   3.046   2.814   2.269  0.4169  0.0402 -0.1090
  552SOL    HW1 1655   0.008   2.849   2.300 -2.1114 -1.9354 -2.9739
  552SOL    HW2 1656   3.062   2.739   2.199 -1.5904 -0.4042 -1.6786
  553SOL     OW 1657   0.138   2.960   2.364 -0.0617 -0.5418  0.4602
  553SOL    HW1 1658   0.154   2.882   2.430 -1.7549 -0.4892 -0.3635
  553SOL    HW2 1659   0.213   2.977   2.293  0.2773  1.4814 -0.6367
  554SOL     OW 1660   0.723   3.058   1.262  0.2263 -0.2136 -0.0340
  554SOL    HW1 1661   0.701   0.024   1.226 -1.6642  0.6555  2.5507
  554SOL    HW2 1662   0.776   3.074   1.351  1.2630 -4.0678  0.7923
  555SOL     OW 1663   2.742   2.516   2.251  0.5681  0.2729  0.6520
  555SOL    HW1 1664   2.714   2.608   2.281 -1.9819  1.4918 -0.5835
  555SOL    HW2 1665   2.674   2.485   2.182  0.7869 -0.1834 -1.7520
  556SOL     OW 1666   1.177   0.266   2.659  0.3443 -0.2878 -0.2490
  556SOL    HW1 1667   1.121   0.321   2.722 -0.8730  0.0414 -0.5389
  556SOL    HW2 1668   1.142   0.171   2.643 -2.1067  1.9405 -0.8691
  557SOL     OW 1669   0.551   1.545   2.395 -0.4364  0.5562  0.0374
  557SOL    HW1 1670   0.476   1.595   2.348 -0.0507 -0.8367 -0.2283
  557SOL    HW2 1671   0.517   1.456   2.434 -0.6346 -1.9257 -1.1553
  558SOL     OW 1672   2.503   0.850   2.943  0.4444 -0.2416 -0.2167
  558SOL    HW1 1673   2.476   0.876   2.846  0.2102 -2.3217 -0.9633
  558SOL    HW2 1674   2.447   0.770   2.970  2.8901 -0.7371  0.2105
  559SOL     OW 1675   2.584   2.048   2.043  0.3573 -0.1635  0.0477
  559SOL    HW1 1676   2.596   2.052   2.143 -1.3333 -0.1818 -0.2115
  559SOL    HW2 1677   2.577   2.137   1.991 -1.8680 -0.9995 -1.8760
  560SOL     OW 1678   2.637   0.976   2.088  0.0055 -0.5009  0.6198
  560SOL    HW1 1679   2.617   0.932   1.998 -2.5197  0.2819  1.9750
  560SOL    HW2 1680   2.734   0.982   2.111 -1.6615  0.8765 -0.6775
  561SOL     OW 1681   0.088   0.018   2.796  0.0505 -0.0373  0.1771
  561SOL    HW1 1682   0.043   0.066   2.716 -0.4213  1.5696 -1.7821
  561SOL    HW2 1683   0.029   3.073   2.830 -0.2189 -1.2073  1.3764
  562SOL     OW 1684   1.022   1.007   1.658 -0.2657 -0.7057 -0.2356
  562SOL    HW1 1685   0.981   0.931   1.605  1.9448 -2.7359 -2.9382
  562SOL    HW2 1686   0.942   1.065   1.697  1.3799 -2.0635 -3.0079
  563SOL     OW 1687   1.435   0.222   2.775 -0.4415 -0.4652  0.3041
  563SOL    HW1 1688   1.464   0.129   2.753 -1.7907 -1.1616  1.6221
  563SOL    HW2 1689   1.341   0.251   2.738  0.6576  0.5044 -1.6064
  564SOL     OW 1690   3.076   2.267   0.913  0.9415  0.3466  0.0212
  564SOL    HW1 1691   3.112   2.268   1.009 -0.2610  1.4260 -1.8137
  564SOL    HW2 1692   2.991   2.210   0.926 -1.6096  1.2513 -0.9231
  565SOL     OW 1693   0.733   2.089   1.851 -0.2117 -0.1869 -0.3342
  565SOL    HW1 1694   0.698   2.139   1.773  1.2495 -1.2885 -2.7277
  565SOL    HW2 1695   0.820   2.044   1.831 -3.6249  2.7642 -0.4184
  566SOL     OW 1696   1.356   2.458   1.977 -0.0972 -0.1115  0.3355
  566SOL    HW1 1697   1.256   2.473   1.989 -0.2452 -0.9079 -2.0727
  566SOL    HW2 1698   1.400   2.436   2.064 -0.5958  1.0975 -2.8103
  567SOL     OW 1699   2.175   2.706   1.078 -0.0923  0.1425  0.2230
  567SOL    HW1 1700   2.191   2.753   1.166  1.8870 -1.8290  0.3535
  567SOL    HW2 1701   2.261   2.706   1.024  2.4720 -0.8299  0.7927
  568SOL     OW 1702   1.922   0.866   0.536 -0.1327  1.0041  0.5057
  568SOL    HW1 1703   1.878   0.774   0.549  0.0667  1.1103 -1.9793
  568SOL    HW2 1704   1.900   0.897   0.440 -2.6883 -1.0715  0.3635
  569SOL     OW 1705   2.939   1.817   2.607  0.2856  0.2421 -0.4547
  569SOL    HW1 1706   2.928   1.847   2.705 -2.6737 -1.8202  1.4530
  569SOL    HW2 1707   2.896   1.724   2.590 -0.8484 -1.3004 -0.3419
  570SOL     OW 1708   2.895   0.074   1.143 -0.0332  0.3694 -0.3773
  570SOL    HW1 1709   2.992   0.079   1.169 -0.5327 -0.4469 -1.3022
  570SOL    HW2 1710   2.869   0.162   1.104 -1.6287  0.5929  0.3914
  571SOL     OW 1711   3.076   0.421   1.668  0.3186  0.0795  0.5069
  571SOL    HW1 1712   0.033   0.473   1.675 -0.2993 -1.5383  2.1968
  571SOL    HW2 1713   2.990   0.478   1.677 -2.7141 -0.3854 -2.4055
  572SOL     OW 1714   0.131   2.567   0.952  0.1600  0.0540  0.1369
  572SOL    HW1 1715   0.155   2.537   0.857 -1.1228  0.6072 -1.9089
  572SOL    HW2 1716   0.132   2.490   1.014  0.3275  1.5222 -0.0071
  573SOL     OW 1717   0.973   0.606   0.063 -0.7528  0.3317  0.4127
  573SOL    HW1 1718   0.910   0.684   0.094 -2.2375  2.1850  1.0907
  573SOL    HW2 1719   0.962   0.527   0.121  1.7044  0.3895  0.3267
  574SOL     OW 1720   2.679   2.788   3.016  0.3838 -0.2420 -0.4772
  574SOL    HW1 1721   2.689   2.723   2.938 -1.1333  0.1293 -0.2897
  574SOL    HW2 1722   2.643   2.876   2.985 -2.0142 -3.1507  2.2635
  575SOL     OW 1723   1.372   2.506   1.179  0.0150  0.0867 -0.3130
  575SOL    HW1 1724   1.299   2.439   1.156 -1.4952  3.3413 -0.6551
  575SOL    HW2 1725   1.341   2.604   1.191  0.0615  3.1311  0.3028
  576SOL     OW 1726   1.033   2.942   1.006  0.3073 -0.8066  0.2954
  576SOL    HW1 1727   1.034   2.843   0.974  0.1298 -1.9144 -0.8088
  576SOL    HW2 1728   0.942   2.962   1.045  0.2533 -0.8835  1.8719
  577SOL     OW 1729   2.251   1.354   0.890 -0.0131  0.0371 -0.1880
  577SOL    HW1 1730   2.175   1.324   0.827  0.5450  0.5886 -0.0383
  577SOL    HW2 1731   2.319   1.276   0.905  2.0099 -2.1186 -1.5467
  578SOL     OW 1732   1.616   0.214   0.688  0.2164  0.7270  0.0547
  578SOL    HW1 1733   1.668   0.132   0.669 -1.1698 -1.4431  0.0217
  578SOL    HW2 1734   1.537   0.182   0.747  0.2215 -0.1427 -1.2689
  579SOL     OW 1735   2.350   0.618   2.957 -0.4840  0.4271  0.0206
  579SOL    HW1 1736   2.401   0.596   2.878  0.2559  3.1293  2.6176
  579SOL    HW2 1737   2.251   0.600   2.934  2.2042 -0.8289 -0.1678
  580SOL     OW 1738   1.845   0.958   2.155 -0.3736 -0.6422 -0.0160
  580SOL    HW1 1739   1.933   0.985   2.206  2.9282  0.8306  3.8894
  580SOL    HW2 1740   1.864   0.916   2.061  0.6382 -0.5688 -2.3045
  581SOL     OW 1741   0.358   0.905   1.167  0.1795  0.1046 -0.0239
  581SOL    HW1 1742   0.373   1.004   1.136  1.8870  1.6153 -0.9086
  581SOL    HW2 1743   0.395   0.844   1.090 -0.9309 -1.2736 -3.7865
  582SOL     OW 1744   2.802   0.099   1.699 -0.1144  0.1436 -0.3086
  582SOL    HW1 1745   2.805   0.018   1.762  2.0073 -1.0608  1.6871
  582SOL    HW2 1746   2.893   0.138   1.682  1.1261  0.5965 -1.1179
  583SOL     OW 1747   0.199   0.452   1.897  0.4738 -0.2670  0.0819
  583SOL    HW1 1748   0.110   0.433   1.949 -0.5304 -0.8382 -0.4921
  583SOL    HW2 1749   0.245   0.369   1.865 -0.5903  1.2698  0.5919
  584SOL     OW 1750   1.364   2.166   2.979  0.2948  0.0117 -0.5633
  584SOL    HW1 1751   1.374   2.074   3.019 -0.2003 -0.6729 -1.5236
  584SOL    HW2 1752   1.427   2.240   3.017  0.0921  3.3246 -0.2094
  585SOL     OW 1753   0.171   2.782   2.965  0.2017 -0.7063  0.5859
  585SOL    HW1 1754   0.154   2.882   2.960  0.3823  0.5983  0.3427
  585SOL    HW2 1755   0.229   2.765   3.046  1.2418  1.5892 -1.9593
  586SOL     OW 1756   1.976   1.753   2.626  0.4292 -0.2337  0.2209
  586SOL    HW1 1757   2.023   1.788   2.541  0.0890  0.0276 -0.4892
  586SOL    HW2 1758   2.039   1.720   2.701  0.3405  3.1004 -1.2271
  587SOL     OW 1759   2.245   2.381   0.246  0.3686  0.3613  0.5588
  587SOL    HW1 1760   2.312   2.347   0.173  1.0826  1.2743 -0.0423
  587SOL    HW2 1761   2.182   2.312   0.287  0.4701  1.1419  1.9846
  588SOL     OW 1762   2.769   0.585   0.830 -0.9104  0.1263  0.1540
  588SOL    HW1 1763   2.674   0.573   0.862 -0.7206  0.2701 -0.1884
  588SOL    HW2 1764   2.781   0.560   0.733  1.6525  1.5204 -0.4189
  589SOL     OW 1765   0.540   0.707   0.725  0.2390  0.4258  0.1347
  589SOL    HW1 1766   0.543   0.755   0.635  1.4597 -0.3461  0.8370
  589SOL    HW2 1767   0.622   0.644   0.734 -0.0278  0.4427  0.2824
  590SOL     OW 1768   2.080   2.197   0.356  0.7382  0.1336 -0.2285
  590SOL    HW1 1769   2.072   2.183   0.458 -0.2078  0.7107  2.7008
  590SOL    HW2 1770   2.090   2.109   0.308  2.9453 -2.5106 -0.5808
  591SOL     OW 1771   0.430   2.186   1.140 -0.2430 -0.1917 -0.3025
  591SOL    HW1 1772   0.380   2.109   1.187 -3.4737 -0.5695 -3.0754
  591SOL    HW2 1773   0.415   2.272   1.185 -0.1007 -2.6364  0.0740
  592SOL     OW 1774   1.057   0.725   1.082 -0.0092 -0.5876 -0.1496
  592SOL    HW1 1775   1.089   0.735   1.174 -0.3430 -0.0563 -2.4109
  592SOL    HW2 1776   1.079   0.633   1.040 -2.2664  1.7128  0.4999
  593SOL     OW 1777   0.929   1.364   1.453 -0.4199  0.1218 -0.1740
  593SOL    HW1 1778   0.999   1.289   1.440 -0.9444  2.2242 -1.1549
  593SOL    HW2 1779   0.954   1.423   1.530 -1.2989 -3.7274 -1.7101
  594SOL     OW 1780   0.921   2.218   0.481  0.3041  0.1520  0.6497
  594SOL    HW1 1781   0.957   2.160   0.403 -2.2552  0.1821 -0.7792
  594SOL    HW2 1782   0.990   2.288   0.507 -1.7117 -0.9006  1.1321
  595SOL     OW 1783   1.605   0.462   1.560  0.5951  0.2998 -0.0709
  595SOL    HW1 1784   1.705   0.479   1.581  0.8145 -0.4979  0.0474
  595SOL    HW2 1785   1.552   0.546   1.536  0.9113  1.3018 -1.9561
  596SOL     OW 1786   3.081   1.067   1.398 -0.5472  0.4657  0.1910
  596SOL    HW1 1787   3.078   1.161   1.369  0.8194 -2.7187 -1.4305
  596SOL    HW2 1788   2.990   1.023   1.410 -2.2434  0.1181 -1.3213
  597SOL     OW 1789   0.486   2.562   2.457 -0.2690 -0.0073 -0.1852
  597SOL    HW1 1790   0.497   2.639   2.526 -1.6298  0.6086  0.3969
  597SOL    HW2 1791   0.574   2.519   2.427 -1.1262 -1.4376 -0.1353
  598SOL     OW 1792   2.593   1.848   1.867 -0.1128  0.1366 -0.7509
  598SOL    HW1 1793   2.585   1.932   1.932  2.0529  3.5208  3.4461
  598SOL    HW2 1794   2.512   1.836   1.811  1.3616 -1.2395  1.1583
  599SOL     OW 1795   0.958   3.055   3.075 -0.5946 -0.3633 -0.4213
  599SOL    HW1 1796   0.878   3.046   3.020  2.7744 -0.0560  1.5436
  599SOL    HW2 1797   0.968   2.967   0.000  0.2179 -1.3548 -1.5714
  600SOL     OW 1798   3.054   2.170   2.768  0.4956  0.1918  0.2574
  600SOL    HW1 1799   3.054   2.246   2.837  3.6951  1.2211 -0.6809
  600SOL    HW2 1800   0.018   2.141   2.742  1.2235  2.4842  1.0177
  601SOL     OW 1801   0.624   0.838   1.462 -0.5155  0.2017 -0.1029
  601SOL    HW1 1802   0.530   0.799   1.449 -1.6286 -1.7699 -4.1355
  601SOL    HW2 1803   0.653   0.846   1.559 -0.4559 -1.1984 -0.1583
  602SOL     OW 1804   0.740   2.909   0.687  0.4320  0.2082 -0.5656
  602SOL    HW1 1805   0.835   2.868   0.703  3.1652 -0.5468 -0.7809
  602SOL    HW2 1806   0.669   2.853   0.735  0.8941  0.5984 -0.4661
  603SOL     OW 1807   0.373   0.367   2.777 -0.3695 -0.0841 -0.2765
  603SOL    HW1 1808   0.304   0.441   2.752  0.1589 -0.7089  0.4505
  603SOL    HW2 1809   0.322   0.294   2.831 -0.5294  0.0602  3.2477
  604SOL     OW 1810   0.763   2.681   1.736 -0.1574 -0.1546 -0.0678
  604SOL    HW1 1811   0.762   2.767   1.797 -1.6269  1.2019  1.7921
  604SOL    HW2 1812   0.675   2.681   1.681 -1.6841  2.3075 -2.3519
  605SOL     OW 1813   1.413   0.970   2.144  0.3793 -0.0179 -0.1366
  605SOL    HW1 1814   1.338   1.039   2.145 -0.1044  0.9872  0.0371
  605SOL    HW2 1815   1.503   1.018   2.123  0.5226  0.7653  1.8573
  606SOL     OW 1816   2.276   2.845   2.893 -0.1542  0.2804  0.0288
  606SOL    HW1 1817   2.306   2.815   2.986  0.1488  1.3363  0.8825
  606SOL    HW2 1818   2.328   2.797   2.823 -0.4831 -0.3818  3.7511
  607SOL     OW 1819   0.843   0.183   1.164  0.0572  0.0721  0.0950
  607SOL    HW1 1820   0.941   0.186   1.180 -1.6898 -0.2535  0.6740
  607SOL    HW2 1821   0.824   0.142   1.069 -1.0259 -0.2242 -1.5619
  608SOL     OW 1822   0.207   1.553   2.385 -0.4594  0.6266  0.0787
  608SOL    HW1 1823   0.264   1.611   2.321 -0.0331 -1.4152  2.4891
  608SOL    HW2 1824   0.114   1.588   2.383  2.6185 -0.0573  2.9853
  609SOL     OW 1825   1.595   1.515   0.515  0.0592  0.5422 -0.0566
  609SOL    HW1 1826   1.549   1.560   0.440  2.1153  1.3387  0.5376
  609SOL    HW2 1827   1.549   1.427   0.529 -2.5125  0.9836  0.8553
  610SOL     OW 1828   0.056   0.333   0.844 -0.2554  0.0532  0.8828
  610SOL    HW1 1829   0.136   0.271   0.832 -2.6507  0.2087 -2.1951
  610SOL    HW2 1830   0.064   0.392   0.924  0.0304 -4.0740  0.4800
  611SOL     OW 1831   1.422   1.309   0.794  0.7762 -0.2298 -0.2459
  611SOL    HW1 1832   1.441   1.409   0.817  1.0817  2.2262 -1.3428
  611SOL    HW2 1833   1.408   1.294   0.694  3.8761  0.8602  2.6821
  612SOL     OW 1834   2.075   1.673   0.277 -0.4775 -0.0237 -0.1002
  612SOL    HW1 1835   2.039   1.631   0.360 -0.7266  1.7789  0.4492
  612SOL    HW2 1836   2.100   1.774   0.284  2.4640  4.1129  1.7131
  613SOL     OW 1837   1.693   1.062   0.522  0.3480 -0.7541  0.1904
  613SOL    HW1 1838   1.750   1.040   0.605 -0.6563  1.1716  0.0657
  613SOL    HW2 1839   1.744   1.107   0.443 -0.4639  1.6790 -3.0057
  614SOL     OW 1840   2.901   0.117   2.273  0.4804 -0.0739 -0.0818
  614SOL    HW1 1841   2.895   0.036   2.212 -0.0984 -1.2914  1.9559
  614SOL    HW2 1842   2.901   0.201   2.218  0.4074 -1.3266  2.8819
  615SOL     OW 1843   0.827   2.112   0.879  0.5004 -0.4465 -0.1247
  615SOL    HW1 1844   0.821   2.011   0.856  0.9486 -0.3274  2.2787
  615SOL    HW2 1845   0.800   2.161   0.793 -0.7161 -0.4124  0.6916
  616SOL     OW 1846   1.854   1.177   2.654 -0.1202 -0.7509 -0.1300
  616SOL    HW1 1847   1.751   1.184   2.659  0.3295 -0.3815  1.3346
  616SOL    HW2 1848   1.885   1.081   2.649  3.0057 -1.4573 -1.9863
  617SOL     OW 1849   1.252   0.242   3.044 -0.2347  0.6290 -0.4082
  617SOL    HW1 1850   1.153   0.223   3.037  2.2473 -0.4215  0.8668
  617SOL    HW2 1851   1.290   0.274   2.957  0.2116  1.3474  3.3091
  618SOL     OW 1852   2.411   2.194   2.259 -0.5840 -0.1442 -0.0978
  618SOL    HW1 1853   2.367   2.146   2.184  2.0999 -1.4653  0.3228
  618SOL    HW2 1854   2.380   2.162   2.350 -1.4431  2.3540  0.7641
  619SOL     OW 1855   2.031   2.061   1.027 -0.1556  0.8028  0.7904
  619SOL    HW1 1856   1.938   2.096   1.005 -3.0804 -1.0011  0.4432
  619SOL    HW2 1857   2.030   1.960   1.012 -0.8922 -0.4138 -3.7471
  620SOL     OW 1858   2.148   2.815   2.002 -0.5962 -0.2442  0.5443
  620SOL    HW1 1859   2.194   2.815   1.909  0.7117 -2.4724  0.5200
  620SOL    HW2 1860   2.128   2.722   2.037 -1.3247  0.9386  0.4981
  621SOL     OW 1861   2.996   1.542   0.622  0.5047 -0.4197 -0.1866
  621SOL    HW1 1862   3.065   1.509   0.688  1.7348  0.1971 -2.2444
  621SOL    HW2 1863   3.007   1.644   0.606  1.3371  0.5199  0.9815
  622SOL     OW 1864   1.184   1.683   2.936  0.4158  0.4857  0.3369
  622SOL    HW1 1865   1.221   1.725   2.852  0.5482 -1.7047 -1.1335
  622SOL    HW2 1866   1.183   1.742   3.020  1.3015 -1.4283  0.5575
  623SOL     OW 1867   2.952   2.388   2.173 -0.4807 -0.4794 -0.0532
  623SOL    HW1 1868   2.882   2.457   2.202 -1.1613  0.6649  2.5902
  623SOL    HW2 1869   3.045   2.404   2.211  0.1392 -0.1621 -0.7987
  624SOL     OW 1870   0.750   2.396   0.358 -0.1083 -0.2126  0.1233
  624SOL    HW1 1871   0.829   2.342   0.396 -1.0814 -1.8014 -0.7607
  624SOL    HW2 1872   0.691   2.338   0.298 -1.1324 -0.5248 -0.2697
  625SOL     OW 1873   0.376   1.708   2.234 -0.1312 -0.2503  0.0148
  625SOL    HW1 1874   0.395   1.809   2.243  0.5406 -0.3611  0.0303
  625SOL    HW2 1875   0.334   1.689   2.143  1.5906 -2.6036  0.1359
  626SOL     OW 1876   0.791   2.749   3.052  0.6777  0.7501  0.7291
  626SOL    HW1 1877   0.882   2.748   3.097 -2.3045  0.6212  0.1743
  626SOL    HW2 1878   0.721   2.708   3.114  3.1315 -1.7405  0.0033
  627SOL     OW 1879   1.557   1.572   0.082  0.2603  0.3999 -0.0284
  627SOL    HW1 1880   1.521   1.555   3.117 -0.7296  4.0671 -2.6485
  627SOL    HW2 1881   1.583   1.669   0.083 -0.7095  0.3128 -2.0560
  628SOL     OW 1882   1.539   2.255   0.879  0.0814  0.3511 -0.4572
  628SOL    HW1 1883   1.441   2.231   0.901  0.3601 -1.5667 -0.0854
  628SOL    HW2 1884   1.587   2.292   0.964 -0.9505 -0.0835 -0.0847
  629SOL     OW 1885   0.183   0.103   1.581  0.1055  0.1157 -0.4163
  629SOL    HW1 1886   0.195   0.022   1.520 -0.0305 -0.8695  0.9742
  629SOL    HW2 1887   0.274   0.125   1.623  0.3767  0.1519 -0.2126
  630SOL     OW 1888   2.501   0.787   1.611  0.3025  0.0991 -0.2082
  630SOL    HW1 1889   2.409   0.734   1.615 -3.3370 -0.5306  0.0599
  630SOL    HW2 1890   2.526   0.837   1.527 -0.1941  2.5199  1.4797
  631SOL     OW 1891   1.397   0.682   1.232  0.4648 -0.8543 -0.1287
  631SOL    HW1 1892   1.416   0.749   1.154 -0.3308 -0.9591 -0.2631
  631SOL    HW2 1893   1.400   0.588   1.198  2.0857  1.4027 -1.9865
  632SOL     OW 1894   2.888   0.996   2.205  0.2661 -0.5535 -0.0703
  632SOL    HW1 1895   2.977   1.040   2.185  0.9749  1.3697  0.9908
  632SOL    HW2 1896   2.911   0.897   2.204  0.3238  1.4847 -0.9502
  633SOL     OW 1897   1.468   0.722   2.972  0.4962 -0.2259 -0.0607
  633SOL    HW1 1898   1.411   0.689   3.050 -1.4298  0.1924  1.2627
  633SOL    HW2 1899   1.448   0.671   2.888 -0.9017  2.1175  2.6307
  634SOL     OW 1900   0.620   2.635   0.097 -0.3425 -0.0642  0.0132
  634SOL    HW1 1901   0.617   2.687   0.189  0.2355  2.1988  1.0635
  634SOL    HW2 1902   0.611   2.536   0.112  0.9093  0.2134  1.0596
  635SOL     OW 1903   2.865   1.547   1.534 -0.1369  0.2279  0.1420
  635SOL    HW1 1904   2.814   1.460   1.518 -0.6935 -0.3978  1.1796
  635SOL    HW2 1905   2.805   1.622   1.560  0.0841 -0.8027  2.3528
  636SOL     OW 1906   0.052   1.763   0.152 -0.4217  0.1861 -0.2635
  636SOL    HW1 1907   0.077   1.663   0.162  1.4464 -0.8000  2.9167
  636SOL    HW2 1908   3.114   1.782   0.076 -2.4754 -1.4881 -1.1465
  637SOL     OW 1909   0.055   2.630   0.387 -0.6562 -0.5046  0.2006
  637SOL    HW1 1910   0.040   2.711   0.448 -0.1387 -1.1805  0.9960
  637SOL    HW2 1911   3.098   2.623   0.334  2.2202 -1.2714  1.3261
  638SOL     OW 1912   3.061   2.946   0.142  0.1372 -0.3492  0.4600
  638SOL    HW1 1913   3.034   2.845   0.138  1.2516 -0.1512  3.2689
  638SOL    HW2 1914   0.035   2.952   0.153  0.8762  0.7744  1.6791
  639SOL     OW 1915   1.507   0.419   2.951  0.3013  0.3502  0.0115
  639SOL    HW1 1916   1.511   0.504   2.892 -1.0235  0.7924  0.8228
  639SOL    HW2 1917   1.503   0.333   2.896 -0.5022 -0.7419  0.8974
  640SOL     OW 1918   2.232   2.026   1.456  0.5293  0.3588 -0.1853
  640SOL    HW1 1919   2.221   2.096   1.385  0.9224  2.4096  1.8603
  640SOL    HW2 1920   2.316   2.052   1.505 -0.2047 -0.2355 -0.3014
  641SOL     OW 1921   3.043   2.815   1.220  0.1574 -0.5510  0.6125
  641SOL    HW1 1922   3.100   2.800   1.304  1.1579  0.8217  2.3263
  641SOL    HW2 1923   3.053   2.912   1.190 -0.0701  1.1757 -0.7869
  642SOL     OW 1924   1.301   1.168   1.764  0.5259  0.2503  0.2493
  642SOL    HW1 1925   1.278   1.099   1.833 -1.8204 -0.3559 -0.0525
  642SOL    HW2 1926   1.355   1.135   1.687  0.5172 -1.8687  0.6454
  643SOL     OW 1927   0.713   1.673   2.566 -0.6166  0.1066 -0.5823
  643SOL    HW1 1928   0.662   1.643   2.485  0.4105 -2.0230  2.2236
  643SOL    HW2 1929   0.687   1.771   2.584  0.3777 -1.4526  2.2054
  644SOL     OW 1930   1.962   2.949   2.394 -0.3230 -0.2099 -0.2453
  644SOL    HW1 1931   2.038   2.946   2.332  0.3029  0.2381  0.2564
  644SOL    HW2 1932   1.881   2.929   2.336  1.4778  0.4579 -0.6791
  645SOL     OW 1933   1.329   0.753   1.809 -0.1497 -0.1108  0.0737
  645SOL    HW1 1934   1.340   0.653   1.788 -2.4646  1.5655  0.0785
  645SOL    HW2 1935   1.415   0.805   1.817 -2.8369  0.9220 -1.3999
  646SOL     OW 1936   1.292   2.492   3.014  0.4947 -0.4864 -0.2847
  646SOL    HW1 1937   1.270   2.482   2.914 -0.0604  0.4000  0.9720
  646SOL    HW2 1938   1.387   2.466   3.037 -2.0465  1.2710  0.1213
  647SOL     OW 1939   1.100   2.689   0.898 -0.0810  1.0403 -0.3272
  647SOL    HW1 1940   1.087   2.664   0.994  0.7929  1.9738 -1.1294
  647SOL    HW2 1941   1.198   2.679   0.869 -1.0086 -0.0673  0.9054
  648SOL     OW 1942   2.859   2.652   1.331  0.4952  0.1190  0.8668
  648SOL    HW1 1943   2.916   2.566   1.349 -0.9720 -0.4260 -0.8224
  648SOL    HW2 1944   2.922   2.711   1.269 -0.3529  1.4160  0.3391
  649SOL     OW 1945   0.930   2.308   2.593  0.3963  0.1051  0.1672
  649SOL    HW1 1946   0.966   2.242   2.663  2.2948 -3.3758  1.8029
  649SOL    HW2 1947   0.921   2.403   2.632  1.0352  1.4035  0.5338
  650SOL     OW 1948   2.649   2.123   2.854 -0.1274 -0.1281  0.1268
  650SOL    HW1 1949   2.738   2.074   2.831  1.3724 -0.1106 -0.3292
  650SOL    HW2 1950   2.635   2.188   2.775 -0.5846  1.5848 -1.8365
  651SOL     OW 1951   2.543   2.371   2.103  0.5516 -0.4105 -0.2045
  651SOL    HW1 1952   2.493   2.310   2.165  0.5663  0.5335  1.9453
  651SOL    HW2 1953   2.481   2.433   2.057  0.7254 -0.4892  0.8046
  652SOL     OW 1954   2.702   2.745   1.115 -0.3811 -0.3643 -0.2596
  652SOL    HW1 1955   2.752   2.746   1.205  2.5258  2.3573 -0.1832
  652SOL    HW2 1956   2.738   2.676   1.053 -0.5875  1.2536  1.5037
  653SOL     OW 1957   2.566   1.255   0.919  0.1476  0.5774  0.0976
  653SOL    HW1 1958   2.581   1.187   0.996 -1.0754 -2.1486 -0.5021
  653SOL    HW2 1959   2.628   1.331   0.935  0.5608 -0.0085 -3.7254
  654SOL     OW 1960   0.956   0.394   2.817 -0.4014 -0.4018  0.0471
  654SOL    HW1 1961   0.926   0.489   2.841 -0.5466  2.0479 -1.6310
  654SOL    HW2 1962   0.960   0.333   2.893 -0.8661  1.4220 -3.0689
  655SOL     OW 1963   1.040   0.445   0.985 -0.0128 -0.0302  0.8974
  655SOL    HW1 1964   0.995   0.369   0.935  0.7711  0.0400  2.5202
  655SOL    HW2 1965   1.043   0.420   1.081 -1.4739  1.8804 -0.2825
  656SOL     OW 1966   0.520   2.469   1.984 -0.2528  0.1584 -0.3926
  656SOL    HW1 1967   0.429   2.437   2.007  3.0219  1.2936  1.1727
  656SOL    HW2 1968   0.519   2.566   1.972 -0.7308 -4.1199 -1.9236
  657SOL     OW 1969   2.362   0.875   0.431 -0.3105 -1.0378  0.5350
  657SOL    HW1 1970   2.368   0.790   0.370  0.5396 -1.7921  1.2135
  657SOL    HW2 1971   2.333   0.957   0.376 -0.7224  2.7275 -0.1697
  658SOL     OW 1972   1.642   1.981   1.391 -0.0782 -0.0720 -0.4531
  658SOL    HW1 1973   1.667   2.044   1.316 -0.3214  0.8625  1.4158
  658SOL    HW2 1974   1.721   1.929   1.431 -0.8260 -0.4426 -0.5752
  659SOL     OW 1975   2.805   1.763   0.076  0.1017 -0.2198  0.3353
  659SOL    HW1 1976   2.884   1.796   0.022 -1.8294  2.4953 -0.5258
  659SOL    HW2 1977   2.820   1.673   0.113 -0.5684  1.3397 -0.4841
  660SOL     OW 1978   0.864   0.317   0.578 -0.6193  0.0620 -0.2619
  660SOL    HW1 1979   0.879   0.230   0.537 -1.7624  3.0593  2.8852
  660SOL    HW2 1980   0.957   0.359   0.585 -0.9260  2.5375  0.6544
  661SOL     OW 1981   1.868   0.345   0.437  0.1427 -0.6325 -0.4744
  661SOL    HW1 1982   1.767   0.334   0.448  0.4602  0.9198  0.4194
  661SOL    HW2 1983   1.892   0.428   0.385 -1.4388 -2.8467  0.2461
  662SOL     OW 1984   0.625   3.082   0.477 -0.4164 -0.0415 -0.2074
  662SOL    HW1 1985   0.566   3.016   0.423 -0.8623 -0.6154  0.3037
  662SOL    HW2 1986   0.683   3.029   0.536 -0.4606 -1.5492 -0.5493
  663SOL     OW 1987   1.279   2.900   2.128 -0.0710  0.1104  0.5187
  663SOL    HW1 1988   1.227   2.987   2.133  0.0123 -0.3907 -1.8890
  663SOL    HW2 1989   1.242   2.833   2.199 -0.7237  2.4399 -1.6299
  664SOL     OW 1990   0.940   2.367   1.603 -0.0213  0.6277 -0.0628
  664SOL    HW1 1991   0.850   2.349   1.555 -0.3181 -3.7873 -0.5087
  664SOL    HW2 1992   0.971   2.466   1.599 -1.2441  0.2041 -0.0261
  665SOL     OW 1993   1.136   2.206   1.756  0.3438  0.3180  0.1574
  665SOL    HW1 1994   1.219   2.241   1.711 -1.0771  1.2569 -0.6577
  665SOL    HW2 1995   1.054   2.253   1.715 -1.0605  0.1008 -1.6960
  666SOL     OW 1996   0.734   2.874   2.507 -0.3943 -0.0047 -0.3315
  666SOL    HW1 1997   0.792   2.924   2.578  0.3354 -1.0062 -2.3667
  666SOL    HW2 1998   0.657   2.826   2.558 -0.4926 -0.4314 -1.0501
  667SOL     OW 1999   2.169   1.256   1.643 -0.2302  0.3638 -0.4746
  667SOL    HW1 2000   2.182   1.270   1.543 -0.1248  1.4896  0.8562
  667SOL    HW2 2001   2.229   1.319   1.702  1.3243 -0.9809 -0.8687
  668SOL     OW 2002   1.835   0.024   1.904 -0.4981 -0.1202  0.3686
  668SOL    HW1 2003   1.848   3.049   1.911 -3.2853 -3.4128 -0.4521
  668SOL    HW2 2004   1.794   0.069   1.984 -2.2516  1.2414  1.6396
  669SOL     OW 2005   2.427   2.744   0.928  0.0467 -0.6045  0.5721
  669SOL    HW1 2006   2.498   2.754   1.003  1.6155 -0.5160  1.3537
  669SOL    HW2 2007   2.460   2.765   0.830 -1.9339  1.8077  1.9165
  670SOL     OW 2008   1.549   2.493   2.604 -0.3935  0.2206 -0.1180
  670SOL    HW1 2009   1.476   2.528   2.664  0.8954  0.1583  0.0477
  670SOL    HW2 2010   1.524   2.400   2.564 -1.8547 -1.1934 -0.6919
  671SOL     OW 2011   0.720   0.911   0.397  0.2605  0.2449  0.2499
  671SOL    HW1 2012   0.679   0.984   0.334  0.8396  1.3614  1.4753
  671SOL    HW2 2013   0.652   0.834   0.422 -3.0740 -1.9829 -1.9044
  672SOL     OW 2014   2.807   1.155   2.948  0.2237  0.3040  0.2437
  672SOL    HW1 2015   2.814   1.139   3.049 -1.5516 -2.0614  0.0580
  672SOL    HW2 2016   2.746   1.086   2.904 -1.9116  1.3030  0.7662
  673SOL     OW 2017   0.114   2.083   1.462  0.4320 -0.0557 -0.3416
  673SOL    HW1 2018   0.094   2.163   1.521 -0.4514  0.8734 -0.3639
  673SOL    HW2 2019   0.096   1.996   1.510 -1.4291 -0.0094  0.5522
  674SOL     OW 2020   0.883   2.092   2.449 -0.1229 -0.6320 -0.2225
  674SOL    HW1 2021   0.927   2.110   2.363 -2.5448  0.2506  4.1587
  674SOL    HW2 2022   0.886   2.174   2.510  0.4509 -0.4366  0.4659
  675SOL     OW 2023   1.044   0.768   1.417 -0.4318  0.4029  0.2558
  675SOL    HW1 2024   1.080   0.702   1.487  0.3175 -0.4774 -0.3156
  675SOL    HW2 2025   0.962   0.722   1.374 -0.9820 -0.1125  0.5969
  676SOL     OW 2026   1.851   0.161   1.365  0.3714 -0.1956 -0.8218
  676SOL    HW1 2027   1.881   0.072   1.332  0.5554 -1.4691 -1.0666
  676SOL    HW2 2028   1.797   0.145   1.453  0.2536  0.2873  1.3784
  677SOL     OW 2029   2.697   1.031   0.298 -0.6616 -0.4295 -0.0339
  677SOL    HW1 2030   2.714   1.026   0.401 -0.3677  0.6303  0.9631
  677SOL    HW2 2031   2.767   0.987   0.238 -0.9666 -0.9413  0.4141
  678SOL     OW 2032   2.372   1.290   1.187 -0.2346  0.0660 -0.4821
  678SOL    HW1 2033   2.410   1.357   1.122 -0.9798 -2.6609  0.8342
  678SOL    HW2 2034   2.341   1.211   1.130 -0.3527 -0.3070  1.3838
  679SOL     OW 2035   3.038   0.470   2.856  0.1593  0.0880 -0.3676
  679SOL    HW1 2036   3.025   0.573   2.857 -0.4669 -0.2868  1.0490
  679SOL    HW2 2037   3.074   0.438   2.947  1.5183  0.1572 -1.3584
  680SOL     OW 2038   0.553   1.407   2.127 -0.3980 -0.1773  0.2616
  680SOL    HW1 2039   0.580   1.436   2.220 -0.5204 -0.5783  3.0388
  680SOL    HW2 2040   0.450   1.412   2.116 -1.5599  0.5193 -0.3774
  681SOL     OW 2041   2.708   2.006   1.564  0.4101 -0.1904  0.2885
  681SOL    HW1 2042   2.767   2.049   1.639 -0.5489 -1.2132  1.5783
  681SOL    HW2 2043   2.706   1.903   1.577 -2.2422 -0.5485 -2.1745
  682SOL     OW 2044   0.201   2.183   2.988 -0.7711 -0.5261 -0.0905
  682SOL    HW1 2045   0.218   2.111   3.057  0.8492  1.0589  2.5245
  682SOL    HW2 2046   0.159   2.265   3.029  0.8219 -4.8193 -0.2586
  683SOL     OW 2047   2.845   2.139   0.984  0.2273  0.1167 -0.4403
  683SOL    HW1 2048   2.840   2.062   1.050  1.1781  0.6254 -3.1024
  683SOL    HW2 2049   2.767   2.200   1.006 -0.4752  2.3548 -0.2991
  684SOL     OW 2050   2.966   1.306   2.249  0.3725  0.1046 -0.1384
  684SOL    HW1 2051   3.034   1.239   2.214  1.0080 -0.3521  0.0423
  684SOL    HW2 2052   2.876   1.297   2.201 -3.6687 -0.2295  0.3992
  685SOL     OW 2053   1.444   0.658   0.834 -0.1880  0.4683 -0.0377
  685SOL    HW1 2054   1.426   0.594   0.914 -2.0254 -2.3047  1.7963
  685SOL    HW2 2055   1.491   0.605   0.760  1.1234  1.1757 -1.0806
  686SOL     OW 2056   0.644   0.437   0.423  0.1281  0.0812 -0.1979
  686SOL    HW1 2057   0.568   0.376   0.394 -0.2241 -0.2166  0.0102
  686SOL    HW2 2058   0.734   0.389   0.449  1.1091 -1.6789 -0.1273
  687SOL     OW 2059   0.504   1.930   2.774  0.6308 -0.0988  0.2558
  687SOL    HW1 2060   0.561   1.925   2.690 -2.7571  0.1974  1.0021
  687SOL    HW2 2061   0.410   1.890   2.750 -2.8674  0.6251 -2.9153
  688SOL     OW 2062   2.093   0.599   1.452 -0.2658 -0.0192 -0.1213
  688SOL    HW1 2063   2.085   0.500   1.422  1.5312 -0.3247 -0.8570
  688SOL    HW2 2064   2.143   0.655   1.378  3.2208  1.7146 -1.6709
  689SOL     OW 2065   1.553   0.805   1.023  0.0140  0.1070  0.1795
  689SOL    HW1 2066   1.652   0.797   0.992 -2.3224 -0.2461  0.9703
  689SOL    HW2 2067   1.490   0.755   0.963  0.9090  0.6627  0.8665
  690SOL     OW 2068   3.050   1.326   1.299 -0.2670  0.6350  0.0703
  690SOL    HW1 2069   3.081   1.419   1.320 -1.0754 -0.2539  0.3679
  690SOL    HW2 2070   3.104   1.287   1.217  0.9866  0.6617 -2.2640
  691SOL     OW 2071   3.093   1.607   1.370  0.5042  0.9165  0.2877
  691SOL    HW1 2072   0.062   1.630   1.397 -1.5229  1.0268  0.2390
  691SOL    HW2 2073   3.020   1.614   1.442 -0.2637  1.4751  0.5599
  692SOL     OW 2074   1.292   0.105   1.629 -0.0129 -0.2219  0.8654
  692SOL    HW1 2075   1.343   0.062   1.708 -1.1968  2.6910 -0.0174
  692SOL    HW2 2076   1.345   0.147   1.556 -2.1140  0.4879 -2.4714
  693SOL     OW 2077   0.837   1.376   2.238  0.0104 -0.0515 -0.3319
  693SOL    HW1 2078   0.893   1.460   2.225  0.7809  2.7038 -1.1558
  693SOL    HW2 2079   0.842   1.314   2.160  1.6478  1.3533 -0.0353
  694SOL     OW 2080   1.783   1.607   0.688 -0.0319  0.0187  0.1001
  694SOL    HW1 2081   1.808   1.548   0.766  0.9990 -0.8261 -2.3720
  694SOL    HW2 2082   1.711   1.565   0.632  1.9852  3.1871 -0.5846
  695SOL     OW 2083   0.646   1.055   1.275  0.9534  0.2549 -0.1413
  695SOL    HW1 2084   0.613   1.036   1.181 -2.4314 -0.5690 -2.3757
  695SOL    HW2 2085   0.646   0.965   1.325 -0.1459  1.3383  2.6832
  696SOL     OW 2086   0.094   0.034   0.388 -0.2908  0.0994  0.6119
  696SOL    HW1 2087   0.012   3.106   0.382 -0.6259  0.6963  0.7588
  696SOL    HW2 2088   0.171   3.118   0.438 -1.1570 -0.1525 -2.5713
  697SOL     OW 2089   1.868   0.548   1.099 -0.1993  0.4679  0.4276
  697SOL    HW1 2090   1.813   0.613   1.150  1.5800 -1.9250 -1.5546
  697SOL    HW2 2091   1.843   0.448   1.107 -0.4035 -3.6240  0.7601
  698SOL     OW 2092   1.475   1.375   1.833 -0.0605  0.1780  0.0642
  698SOL    HW1 2093   1.568   1.336   1.852  1.2381 -0.5439 -0.4184
  698SOL    HW2 2094   1.409   1.303   1.803  0.4713  1.7514  2.3227
  699SOL     OW 2095   0.005   0.324   2.033  0.2331  0.0641 -0.0522
  699SOL    HW1 2096   3.119   0.225   2.035  3.1432  0.7433  2.8488
  699SOL    HW2 2097   3.055   0.378   2.068 -0.3763 -1.3885  4.2938
  700SOL     OW 2098   1.392   2.604   0.873 -0.5976  0.3953  0.4568
  700SOL    HW1 2099   1.477   2.622   0.821  1.3022 -3.1592 -1.1783
  700SOL    HW2 2100   1.390   2.663   0.960 -0.9854  1.5439  1.3225
  701SOL     OW 2101   0.200   1.350   2.582 -0.2415 -0.3303  0.0940
  701SOL    HW1 2102   0.209   1.431   2.519 -1.1385 -0.2653 -3.9462
  701SOL    HW2 2103   0.279   1.342   2.644 -0.2716 -1.5759 -3.3629
  702SOL     OW 2104   0.292   0.167   0.234  0.3396 -0.4919  0.1901
  702SOL    HW1 2105   0.208   0.136   0.284 -2.8875 -0.9976 -2.2872
  702SOL    HW2 2106   0.299   0.120   0.142  2.7169 -0.0133 -1.4528
  703SOL     OW 2107   1.896   3.112   2.585 -0.6192 -0.4397 -0.6823
  703SOL    HW1 2108   1.926   3.071   2.678 -0.8113 -1.4521 -0.0601
  703SOL    HW2 2109   1.947   3.062   2.514  1.2249 -0.8019  0.6407
  704SOL     OW 2110   2.510   2.013   0.584 -0.2252  0.2926  0.1327
  704SOL    HW1 2111   2.545   2.105   0.562  0.1029 -0.2998 -0.5465
  704SOL    HW2 2112   2.579   1.957   0.624  3.7389 -0.5957 -2.7038
  705SOL     OW 2113   2.656   2.115   2.331  0.8822  0.4390  0.2434
  705SOL    HW1 2114   2.564   2.140   2.307  2.4889 -0.8575  0.8664
  705SOL    HW2 2115   2.699   2.182   2.388 -1.0119 -0.5521  0.6043
  706SOL     OW 2116   2.981   2.781   0.817 -0.4579  0.6325  0.3046
  706SOL    HW1 2117   3.007   2.713   0.890  2.0282  0.4349 -0.7703
  706SOL    HW2 2118   3.046   2.769   0.736 -0.5492  0.7545 -1.4174
  707SOL     OW 2119   0.857   2.987   0.292  0.1778  0.3011  0.4535
  707SOL    HW1 2120   0.956   3.005   0.281 -2.5500  1.0576  2.7628
  707SOL    HW2 2121   0.800   3.057   0.242 -0.3677  1.2384 -2.2103
  708SOL     OW 2122   0.330   2.122   1.740 -0.2782 -0.2292 -0.4183
  708SOL    HW1 2123   0.236   2.165   1.732  0.7780  1.6717  1.2363
  708SOL    HW2 2124   0.358   2.070   1.661 -0.4771 -0.9827  1.7569
  709SOL     OW 2125   1.330   2.736   1.922 -0.1432 -0.5030  0.1258
  709SOL    HW1 2126   1.318   2.636   1.938  0.7408  1.1040 -1.8821
  709SOL    HW2 2127   1.305   2.793   2.002  0.1169 -0.5458  0.2355
  710SOL     OW 2128   1.974   2.531   2.345  0.5355  0.3669 -0.7407
  710SOL    HW1 2129   1.990   2.591   2.427 -1.5826  1.8787  1.2686
  710SOL    HW2 2130   1.879   2.541   2.304 -1.9712  0.0119 -3.4474
  711SOL     OW 2131   1.239   2.480   2.747 -0.2188 -0.3083 -0.2994
  711SOL    HW1 2132   1.162   2.523   2.693 -0.6373  4.3772  0.1757
  711SOL    HW2 2133   1.247   2.378   2.738 -0.6888 -0.4136 -1.0337
  712SOL     OW 2134   1.217   2.223   2.755  0.0461 -0.0586 -0.9017
  712SOL    HW1 2135   1.277   2.190   2.830  0.0946  2.3482  3.5459
  712SOL    HW2 2136   1.133   2.167   2.751 -2.8433 -1.0913  0.3688
  713SOL     OW 2137   1.413   1.060   1.528 -0.0820 -0.6475 -0.1026
  713SOL    HW1 2138   1.395   0.973   1.573  0.1937  0.0368  2.1003
  713SOL    HW2 2139   1.484   1.055   1.458 -0.7979 -0.4613  0.2899
  714SOL     OW 2140   1.212   1.463   1.644  0.4259 -0.4488  0.6141
  714SOL    HW1 2141   1.153   1.509   1.708  3.1457 -0.9887 -0.4123
  714SOL    HW2 2142   1.191   1.371   1.620  2.3552  3.8573  1.4161
  715SOL     OW 2143   2.692   3.016   0.527 -0.1140  0.2580  0.6969
  715SOL    HW1 2144   2.749   3.097   0.539 -1.0648 -0.3996  0.3855
  715SOL    HW2 2145   2.718   2.963   0.443  0.1427  0.4040  0.4289
  716SOL     OW 2146   0.698   2.612   1.130  0.0813  0.3952  0.4743
  716SOL    HW1 2147   0.706   2.534   1.059 -0.8665 -2.7230 -0.6951
  716SOL    HW2 2148   0.601   2.616   1.168 -1.4012  0.8148  1.2579
  717SOL     OW 2149   3.039   0.393   3.127 -0.2839  0.4887 -0.1508
  717SOL    HW1 2150   2.991   0.308   3.086 -0.4461  0.0605  0.0988
  717SOL    HW2 2151   3.003   0.413   0.091  0.0943 -3.1109 -1.3703
  718SOL     OW 2152   1.639   1.464   1.308  0.6997  0.1669  0.2884
  718SOL    HW1 2153   1.563   1.491   1.371  0.7102 -1.0145  1.0311
  718SOL    HW2 2154   1.697   1.390   1.346 -2.0105  2.7997 -3.4747
  719SOL     OW 2155   2.983   2.673   0.213 -0.1781  0.8561  0.3031
  719SOL    HW1 2156   2.957   2.690   0.117  1.1888 -0.5651 -1.7027
  719SOL    HW2 2157   2.982   2.571   0.225  1.1520 -0.3332  2.5387
  720SOL     OW 2158   1.194   0.878   0.890  0.2516  0.3885 -0.0170
  720SOL    HW1 2159   1.278   0.848   0.850 -1.7979  2.5410  1.9016
  720SOL    HW2 2160   1.160   0.816   0.963  1.4325  0.5432 -0.1223
  721SOL     OW 2161   1.794   0.300   1.137 -0.5337 -0.0009 -0.0918
  721SOL    HW1 2162   1.869   0.246   1.180  1.9017 -0.1859 -1.4921
  721SOL    HW2 2163   1.723   0.320   1.207 -1.0430 -2.6653  1.3837
  722SOL     OW 2164   1.038   1.825   2.057  0.0749 -0.0874  0.6586
  722SOL    HW1 2165   0.940   1.819   2.060  3.7736  1.4028  1.2352
  722SOL    HW2 2166   1.072   1.897   2.124 -0.7269 -0.2251 -0.8344
  723SOL     OW 2167   1.117   0.026   1.434 -0.3782  0.0608 -1.2079
  723SOL    HW1 2168   1.165   3.080   1.382 -1.8822 -0.0377 -0.3521
  723SOL    HW2 2169   1.154   0.047   1.527  0.1516  1.5715 -0.0541
  724SOL     OW 2170   1.758   2.048   2.008  1.3405  0.3208  0.0363
  724SOL    HW1 2171   1.715   2.019   2.095  0.4607  1.2712 -1.6356
  724SOL    HW2 2172   1.858   2.024   2.007  1.8208 -0.9334  1.5094
  725SOL     OW 2173   1.462   2.787   1.535  0.2598  0.3280 -0.1989
  725SOL    HW1 2174   1.498   2.812   1.628  2.2650  0.3404 -1.4966
  725SOL    HW2 2175   1.465   2.684   1.524  0.1227 -2.5941 -2.0993
  726SOL     OW 2176   1.732   3.014   0.120  0.1734  0.6361 -0.2938
  726SOL    HW1 2177   1.758   3.088   0.058  0.8181  1.7104  0.4092
  726SOL    HW2 2178   1.801   2.987   0.191  0.0144 -1.9507 -0.3744
  727SOL     OW 2179   1.374   1.924   0.836 -0.0791  0.1391  0.3995
  727SOL    HW1 2180   1.282   1.895   0.867 -1.2874 -0.8883 -0.4696
  727SOL    HW2 2181   1.447   1.901   0.905 -0.0395 -1.8124 -1.7820
  728SOL     OW 2182   1.940   2.731   2.542 -0.0577 -0.1069 -0.1871
  728SOL    HW1 2183   1.958   2.803   2.474  0.2167 -1.4435 -0.4581
  728SOL    HW2 2184   1.849   2.748   2.584 -0.2644  2.2827 -0.4758
  729SOL     OW 2185   2.310   2.354   1.565 -0.2125  0.1565  0.4626
  729SOL    HW1 2186   2.280   2.323   1.656 -0.9916 -0.0627 -1.9763
  729SOL    HW2 2187   2.402   2.392   1.571  0.2724  1.8257  1.7782
  730SOL     OW 2188   1.911   0.630   2.543  0.1703  0.3765  0.1516
  730SOL    HW1 2189   1.882   0.531   2.544 -1.9303  1.6606  0.0470
  730SOL    HW2 2190   2.013   0.637   2.536  0.0841 -0.2854  1.1203
  731SOL     OW 2191   0.499   0.231   1.114  0.0149 -0.0464  0.3402
  731SOL    HW1 2192   0.567   0.274   1.046  0.0394  0.2100 -1.2145
  731SOL    HW2 2193   0.526   0.263   1.203 -2.1352  1.6739  0.2598
  732SOL     OW 2194   1.879   3.057   1.209  0.1670 -0.0971  0.2959
  732SOL    HW1 2195   1.797   3.017   1.161  0.8534 -0.9718  3.6632
  732SOL    HW2 2196   1.945   3.108   1.149  0.0150 -1.2874  0.9725
  733SOL     OW 2197   0.918   1.063   1.191  0.1084  0.1458 -0.2151
  733SOL    HW1 2198   0.826   1.049   1.241 -2.4326 -0.9430  2.7857
  733SOL    HW2 2199   0.989   1.016   1.244 -2.5907  3.2635  0.0093
  734SOL     OW 2200   2.618   2.507   0.553  0.0835  0.2395 -0.0059
  734SOL    HW1 2201   2.525   2.543   0.548  1.1383  1.1150 -0.0958
  734SOL    HW2 2202   2.674   2.567   0.615  0.2965  2.0638  1.4275
  735SOL     OW 2203   0.642   0.472   0.102  0.2297  0.1870  0.2878
  735SOL    HW1 2204   0.608   0.540   0.036 -0.2758 -1.6753 -0.8211
  735SOL    HW2 2205   0.660   0.507   0.194 -1.3009 -0.2121 -0.0641
  736SOL     OW 2206   1.904   2.268   2.271  0.4450  0.0430  0.5174
  736SOL    HW1 2207   1.943   2.353   2.315  1.5214 -0.4921 -0.6159
  736SOL    HW2 2208   1.893   2.190   2.337 -0.9044  0.6520  0.3392
  737SOL     OW 2209   1.152   2.361   1.104 -0.2329 -0.0969  0.4001
  737SOL    HW1 2210   1.109   2.451   1.077  0.8075 -1.2155 -0.8189
  737SOL    HW2 2211   1.103   2.315   1.174 -1.3210  0.1955 -3.1682
  738SOL     OW 2212   1.762   2.896   2.223 -0.3251 -0.0767 -0.0895
  738SOL    HW1 2213   1.670   2.933   2.223  0.4251 -0.6732 -0.2389
  738SOL    HW2 2214   1.783   2.873   2.129 -4.6737  0.6541 -0.4937
  739SOL     OW 2215   1.190   2.004   2.187  0.0181 -0.5716  0.4596
  739SOL    HW1 2216   1.239   1.982   2.278  1.0595  1.7481 -2.3719
  739SOL    HW2 2217   1.132   2.089   2.199 -3.5507  1.0532  1.3953
  740SOL     OW 2218   1.821   2.193   1.618  0.5871  0.0688 -0.4595
  740SOL    HW1 2219   1.894   2.123   1.628  0.7331 -1.2748 -0.3786
  740SOL    HW2 2220   1.834   2.243   1.531 -1.2187  2.4024 -1.6442
  741SOL     OW 2221   2.045   1.920   3.108  0.6060 -0.5285 -0.1014
  741SOL    HW1 2222   1.946   1.925   3.070 -1.7471  1.3846 -1.7410
  741SOL    HW2 2223   2.101   1.856   3.051 -0.1590  0.0255 -0.6978
  742SOL     OW 2224   1.010   0.954   2.926  0.1933  0.2365 -0.3378
  742SOL    HW1 2225   0.932   0.970   2.861 -0.8819 -2.0905  0.4483
  742SOL    HW2 2226   1.093   0.946   2.873 -0.5238  1.0489 -0.9313
  743SOL     OW 2227   2.446   0.938   2.699 -0.2475 -0.2748  0.0977
  743SOL    HW1 2228   2.488   0.900   2.616  0.7443 -0.2174  0.9120
  743SOL    HW2 2229   2.434   1.043   2.682 -0.9041  4.1365 -2.7169
  744SOL     OW 2230   2.086   2.547   1.710 -0.6020  0.0277 -0.6122
  744SOL    HW1 2231   2.082   2.489   1.625 -0.0575  1.9006 -1.5483
  744SOL    HW2 2232   2.145   2.633   1.693  2.2555  0.6713 -0.0356
  745SOL     OW 2233   2.481   1.777   1.435 -0.6461  0.2672  0.2929
  745SOL    HW1 2234   2.516   1.852   1.372 -1.4232 -0.4580 -1.0703
  745SOL    HW2 2235   2.402   1.727   1.392  1.4391  0.7325 -0.8286
  746SOL     OW 2236   2.796   1.873   1.082  0.2997  0.0947 -0.4474
  746SOL    HW1 2237   2.722   1.868   1.013 -0.9389 -0.3674  0.9334
  746SOL    HW2 2238   2.841   1.784   1.097  1.5491  0.3010  1.1283
  747SOL     OW 2239   1.794   2.669   0.355 -0.5333  0.1767 -0.5229
  747SOL    HW1 2240   1.833   2.623   0.271  1.2856 -0.6512  0.6669
  747SOL    HW2 2241   1.782   2.595   0.427 -0.4360 -2.5514  1.8106
  748SOL     OW 2242   0.947   2.034   0.271  0.1757 -0.7311  0.3282
  748SOL    HW1 2243   0.989   2.030   0.180 -0.3214 -1.8347  0.6216
  748SOL    HW2 2244   0.844   2.045   0.272 -1.1173 -1.9810  2.0006
  749SOL     OW 2245   2.885   0.381   2.152  0.1994  0.0908 -0.0521
  749SOL    HW1 2246   2.888   0.450   2.228 -1.7201 -1.1291 -0.7253
  749SOL    HW2 2247   2.814   0.407   2.085 -0.2589  3.3663  2.6648
  750SOL     OW 2248   1.325   0.479   1.745  0.0072 -0.0425 -0.1238
  750SOL    HW1 2249   1.344   0.466   1.846  1.4374 -0.1829  0.8945
  750SOL    HW2 2250   1.398   0.440   1.687  1.6642 -1.0674  0.9174
  751SOL     OW 2251   2.365   2.581   2.049 -0.4134 -0.7021 -0.0581
  751SOL    HW1 2252   2.270   2.557   2.068  1.5219 -0.0412  0.5935
  751SOL    HW2 2253   2.380   2.644   1.974  0.2067 -1.2207  0.5051
  752SOL     OW 2254   2.025   1.802   0.979 -0.0330 -0.3322 -0.0339
  752SOL    HW1 2255   1.933   1.784   1.001  2.2410  3.3635 -0.9168
  752SOL    HW2 2256   2.083   1.722   0.970 -1.3088 -1.4798  1.3028
  753SOL     OW 2257   1.422   1.050   2.463 -0.2010 -0.1021  0.3281
  753SOL    HW1 2258   1.502   1.040   2.400  0.6235 -0.8821 -2.2487
  753SOL    HW2 2259   1.341   1.043   2.403  1.0489  2.0462 -0.8059
  754SOL     OW 2260   0.280   2.780   0.999  0.0247 -0.5698 -0.2668
  754SOL    HW1 2261   0.219   2.854   1.036 -1.0897  1.2872 -1.8595
  754SOL    HW2 2262   0.231   2.698   0.968  1.8979 -0.2211  3.3910
  755SOL     OW 2263   2.142   0.213   1.624  0.3653  0.7088 -0.1269
  755SOL    HW1 2264   2.238   0.188   1.632  0.4580  1.5386 -0.3391
  755SOL    HW2 2265   2.108   0.242   1.533 -0.2956  0.3313 -3.4911
  756SOL     OW 2266   1.536   1.193   2.645  0.0340 -0.4770 -0.0606
  756SOL    HW1 2267   1.498   1.194   2.738  0.8580  0.4741  0.8708
  756SOL    HW2 2268   1.490   1.124   2.588  3.2792  0.8069  1.8750
  757SOL     OW 2269   2.889   2.850   1.659 -0.4088  0.4616  1.1842
  757SOL    HW1 2270   2.860   2.891   1.743  1.7578 -0.7574 -2.0989
  757SOL    HW2 2271   2.816   2.844   1.593 -2.3660 -1.9299  0.3578
  758SOL     OW 2272   0.498   2.939   1.384 -0.2071 -0.1058 -0.4014
  758SOL    HW1 2273   0.416   3.002   1.393  0.8628  2.3605 -0.3122
  758SOL    HW2 2274   0.583   2.993   1.356  2.7825  0.0092 -0.6423
  759SOL     OW 2275   2.076   1.247   0.720  0.5587  0.0637  0.3063
  759SOL    HW1 2276   2.087   1.245   0.619  0.9057 -2.1462 -0.6536
  759SOL    HW2 2277   1.976   1.220   0.741 -3.7469  2.2227  1.1284
  760SOL     OW 2278   1.476   0.150   2.056  0.6189 -0.1238  0.1729
  760SOL    HW1 2279   1.538   0.230   2.056 -0.2740 -1.0682 -0.4644
  760SOL    HW2 2280   1.462   0.118   2.150  1.6320  1.0480 -0.7804
  761SOL     OW 2281   2.159   0.458   0.479 -0.5108  0.4654 -0.0334
  761SOL    HW1 2282   2.184   0.376   0.418  2.1612 -0.5598 -1.0982
  761SOL    HW2 2283   2.074   0.497   0.452  2.9415 -1.2655 -2.4267
  762SOL     OW 2284   2.333   2.747   0.016  0.0567 -0.3138  0.2433
  762SOL    HW1 2285   2.426   2.711   0.037  1.6139  0.5079  3.2544
  762SOL    HW2 2286   2.260   2.693   0.062  2.2314 -0.8226  0.5516
  763SOL     OW 2287   0.776   0.695   1.088  0.0435 -0.5067  0.0135
  763SOL    HW1 2288   0.874   0.724   1.079  3.0887  2.6881  4.0799
  763SOL    HW2 2289   0.713   0.762   1.049 -0.3143  0.1889  4.9322
  764SOL     OW 2290   2.198   2.433   2.771  0.1006 -0.0625 -0.0319
  764SOL    HW1 2291   2.204   2.368   2.853 -3.3915  0.9718 -1.7685
  764SOL    HW2 2292   2.152   2.520   2.796  0.7253 -0.6450 -0.4908
  765SOL     OW 2293   0.232   0.860   2.277  0.6705  0.2431  0.0350
  765SOL    HW1 2294   0.176   0.824   2.354 -3.1994 -2.1837 -0.6420
  765SOL    HW2 2295   0.312   0.910   2.307  0.1470 -1.3174 -1.2633
  766SOL     OW 2296   2.774   1.437   2.962 -0.4259  0.6266 -0.0196
  766SOL    HW1 2297   2.677   1.469   2.961 -2.1740  0.2679  0.3550
  766SOL    HW2 2298   2.780   1.338   2.959  0.7201  1.2359 -0.3833
  767SOL     OW 2299   3.040   1.625   1.893 -0.0564  0.4070  0.3732
  767SOL    HW1 2300   2.947   1.669   1.875  0.4846  2.3413 -0.9052
  767SOL    HW2 2301   3.042   1.528   1.868  1.6931  1.3605 -0.1491
  768SOL     OW 2302   1.182   1.051   0.240  0.2029  0.3471 -0.3717
  768SOL    HW1 2303   1.099   1.010   0.285  0.2354  0.9062  2.4704
  768SOL    HW2 2304   1.250   0.974   0.230  2.2191 -0.0838  0.3900
  769SOL     OW 2305   1.674   2.880   2.841  0.3324 -0.1222 -0.5996
  769SOL    HW1 2306   1.754   2.940   2.829  0.5629 -1.8946  0.9075
  769SOL    HW2 2307   1.676   2.848   2.940  0.6765  0.9265  0.8030
  770SOL     OW 2308   0.779   0.167   2.587  0.3136  0.2867  0.3214
  770SOL    HW1 2309   0.731   0.143   2.496  0.3257  1.1394  2.4809
  770SOL    HW2 2310   0.851   0.232   2.577  0.4580 -4.0148 -0.3848
  771SOL     OW 2311   0.756   2.377   1.008  0.4643  0.2400  0.0902
  771SOL    HW1 2312   0.715   2.285   0.985  2.0239 -1.0932 -0.2810
  771SOL    HW2 2313   0.839   2.392   0.952 -1.7425  2.5445  0.2660
  772SOL     OW 2314   0.170   0.707   0.165 -0.0236  0.1924 -0.1187
  772SOL    HW1 2315   0.211   0.625   0.119 -1.6058 -0.6291 -0.5834
  772SOL    HW2 2316   0.119   0.688   0.252  0.0617 -0.7346 -2.6669
  773SOL     OW 2317   1.981   0.903   1.923 -0.6028  0.1071 -0.2401
  773SOL    HW1 2318   1.987   0.804   1.951 -1.1483 -1.4325  0.5689
  773SOL    HW2 2319   2.039   0.924   1.839  1.2923 -0.1056  0.6307
  774SOL     OW 2320   0.810   1.012   0.647  0.2923  0.2488  0.6185
  774SOL    HW1 2321   0.787   0.965   0.560  1.5993  1.3425 -0.8914
  774SOL    HW2 2322   0.754   1.090   0.675  0.5463 -3.1125 -3.9847
  775SOL     OW 2323   1.723   0.089   3.057  0.5668 -0.6899 -0.0973
  775SOL    HW1 2324   1.620   0.080   3.052  0.9550 -0.1808 -0.7843
  775SOL    HW2 2325   1.753   0.182   3.085 -0.6434  0.0168 -0.7626
  776SOL     OW 2326   2.120   0.269   2.262 -0.4848  0.4802  0.0798
  776SOL    HW1 2327   2.046   0.207   2.296 -1.6468  1.8730 -0.9210
  776SOL    HW2 2328   2.174   0.216   2.195 -0.1716  2.9627 -1.3015
  777SOL     OW 2329   0.825   1.456   0.162  0.1824  0.2169 -0.5830
  777SOL    HW1 2330   0.905   1.511   0.193 -0.4779 -1.0388  0.7254
  777SOL    HW2 2331   0.748   1.518   0.129  0.9583  1.0848 -3.0987
  778SOL     OW 2332   0.358   2.698   0.034 -0.2848  0.4478 -0.2755
  778SOL    HW1 2333   0.324   2.638   0.116  2.2304 -1.1376 -1.1807
  778SOL    HW2 2334   0.462   2.694   0.029  1.0885 -0.3175 -2.0641
  779SOL     OW 2335   0.403   1.125   0.046  0.2190  0.1483  0.3211
  779SOL    HW1 2336   0.326   1.173   0.090  0.4966  0.8926  1.1265
  779SOL    HW2 2337   0.439   1.045   0.097  0.8094  1.7707 -0.2884
  780SOL     OW 2338   2.313   0.444   2.299 -0.3661  0.1566 -0.1203
  780SOL    HW1 2339   2.274   0.533   2.273  3.1999  2.5609 -0.1903
  780SOL    HW2 2340   2.239   0.371   2.288  0.7600 -1.5953 -0.6205
  781SOL     OW 2341   1.560   0.890   1.803  0.2589 -0.1074 -0.1392
  781SOL    HW1 2342   1.588   0.957   1.876 -0.9641  0.3400 -0.3842
  781SOL    HW2 2343   1.637   0.864   1.741 -0.4762 -0.4856  2.2293
  782SOL     OW 2344   1.914   1.777   2.260  0.2355  0.0958 -0.3580
  782SOL    HW1 2345   1.977   1.833   2.313  0.6477 -2.0192 -0.7338
  782SOL    HW2 2346   1.970   1.739   2.184 -0.5407  2.8768 -1.7603
  783SOL     OW 2347   1.409   3.126   1.250  0.2073  0.7115 -1.0445
  783SOL    HW1 2348   1.434   0.028   1.346 -0.1119  0.7952  0.1326
  783SOL    HW2 2349   1.342   3.055   1.257  0.8774 -2.2928 -1.7253
  784SOL     OW 2350   1.942   0.929   2.550 -0.1493 -0.4589  0.5146
  784SOL    HW1 2351   2.036   0.944   2.589 -1.3486  0.3719 -2.4068
  784SOL    HW2 2352   1.915   0.830   2.556 -2.6908  0.7612  1.7968
  785SOL     OW 2353   1.843   0.374   0.051 -0.2752 -0.7355  0.0948
  785SOL    HW1 2354   1.930   0.349   0.089 -1.0227  2.2534 -1.9476
  785SOL    HW2 2355   1.867   0.407   3.087  1.8696  2.8608 -0.2885
  786SOL     OW 2356   3.044   1.822   0.614  0.2447  0.3847  0.2179
  786SOL    HW1 2357   3.073   1.859   0.521 -1.8132  1.9342 -0.1613
  786SOL    HW2 2358   2.993   1.888   0.667  0.8643  0.6709 -1.3592
  787SOL     OW 2359   1.659   2.191   0.304 -0.2020 -0.2499 -0.1431
  787SOL    HW1 2360   1.643   2.187   0.403  1.7100  1.1532  0.0781
  787SOL    HW2 2361   1.572   2.202   0.256 -2.3924  2.0850  4.9471
  788SOL     OW 2362   2.074   1.557   1.336 -0.1587 -0.3930  0.7100
  788SOL    HW1 2363   2.129   1.643   1.340  2.1512 -1.8556  2.5254
  788SOL    HW2 2364   1.984   1.569   1.295  1.0965 -0.5719  2.5718
  789SOL     OW 2365   3.085   1.379   2.707  0.2807 -0.0100 -0.2174
  789SOL    HW1 2366   0.055   1.393   2.673  2.7791  0.2340  0.8827
  789SOL    HW2 2367   3.062   1.279   2.713 -2.0186 -1.4680  0.8006
  790SOL     OW 2368   0.611   0.196   2.792  0.3631  0.2569  0.1155
  790SOL    HW1 2369   0.537   0.260   2.765 -1.0953  1.8768  1.5723
  790SOL    HW2 2370   0.682   0.197   2.720 -1.8695  0.8317  0.9134
  791SOL     OW 2371   0.837   0.466   2.588 -0.2306  0.1290 -0.8157
  791SOL    HW1 2372   0.883   0.435   2.674  0.6454 -1.6920 -0.0069
  791SOL    HW2 2373   0.738   0.449   2.600  2.7043  3.8601  2.5269
  792SOL     OW 2374   1.710   0.735   2.366 -0.0240  0.1594 -0.2886
  792SOL    HW1 2375   1.771   0.691   2.435  1.5832  0.1226 -0.0549
  792SOL    HW2 2376   1.735   0.834   2.351 -0.4673 -1.8288  3.8563
  793SOL     OW 2377   2.786   0.680   1.428  0.2668 -0.2758 -0.4690
  793SOL    HW1 2378   2.810   0.723   1.341 -0.6609 -0.3471  1.0230
  793SOL    HW2 2379   2.696   0.635   1.424 -1.9932 -1.9646 -0.9088
  794SOL     OW 2380   0.342   0.702   1.941  0.3058  0.0235 -0.3073
  794SOL    HW1 2381   0.408   0.695   2.014  0.3003  1.4153 -0.2939
  794SOL    HW2 2382   0.308   0.608   1.906  1.2860  2.2511 -3.3215
  795SOL     OW 2383   2.864   1.369   0.448  0.2174  0.0274  0.7263
  795SOL    HW1 2384   2.787   1.424   0.415 -0.4632  3.2035 -0.3347
  795SOL    HW2 2385   2.910   1.409   0.532  0.0733  1.1016 -0.5490
  796SOL     OW 2386   0.157   2.423   3.117 -0.7616 -0.3445 -0.1534
  796SOL    HW1 2387   0.196   2.450   0.082 -0.4603 -0.6398  2.3137
  796SOL    HW2 2388   0.130   2.508   3.065 -0.0029  1.5997 -0.5755
  797SOL     OW 2389   2.149   2.624   0.165 -0.0169 -0.2664 -0.0843
  797SOL    HW1 2390   2.049   2.599   0.155  0.2536 -1.6937  0.7418
  797SOL    HW2 2391   2.200   2.544   0.199  1.2152  0.6513 -1.2644
  798SOL     OW 2392   0.211   0.912   1.693 -0.2630 -0.1211 -0.5177
  798SOL    HW1 2393   0.301   0.878   1.722 -1.0955  1.7215 -0.9852
  798SOL    HW2 2394   0.218   0.993   1.626  0.1863  2.4198 -1.7575
  799SOL     OW 2395   2.925   0.563   2.343  0.5169  0.0167  0.0687
  799SOL    HW1 2396   2.998   0.563   2.412 -0.1253  0.3284 -1.7661
  799SOL    HW2 2397   2.937   0.627   2.263 -1.8561 -0.2633  0.3766
  800SOL     OW 2398   2.903   2.033   0.731 -0.1904 -0.0521  0.0060
  800SOL    HW1 2399   2.917   2.084   0.644 -3.2489 -0.8912  0.0538
  800SOL    HW2 2400   2.888   2.099   0.808  0.2851  1.4953  1.6615
  801SOL     OW 2401   1.578   1.246   0.991  0.2976 -0.0456  0.0031
  801SOL    HW1 2402   1.508   1.267   0.922  2.2331  1.0040 -0.8292
  801SOL    HW2 2403   1.628   1.334   1.005  0.9577 -2.7928  0.1430
  802SOL     OW 2404   1.086   1.937   1.437 -0.1150 -0.2928  0.1683
  802SOL    HW1 2405   1.184   1.927   1.460  1.9689 -0.5964  1.4413
  802SOL    HW2 2406   1.068   2.021   1.379  0.6787 -1.2700 -1.7366
  803SOL     OW 2407   0.003   1.899   0.371  0.0747  0.8117  0.3640
  803SOL    HW1 2408   0.018   1.837   0.289 -0.8473 -0.3614  0.0210
  803SOL    HW2 2409   3.095   1.990   0.336 -1.1974  1.5211  2.3219
  804SOL     OW 2410   1.051   2.630   1.159 -0.0082 -0.1939 -0.0409
  804SOL    HW1 2411   1.107   2.638   1.242  0.9687  2.6679  0.3489
  804SOL    HW2 2412   0.952   2.656   1.177 -2.4094  0.6725 -0.1513
  805SOL     OW 2413   1.658   1.317   0.146  0.2708  0.2508  0.0932
  805SOL    HW1 2414   1.617   1.407   0.143 -1.0745 -0.2618 -0.0930
  805SOL    HW2 2415   1.586   1.249   0.175 -0.4042  0.3682  0.9106
  806SOL     OW 2416   1.650   2.811   1.337 -0.1870 -0.4212 -0.2723
  806SOL    HW1 2417   1.569   2.813   1.401 -2.3257  0.2791 -1.7497
  806SOL    HW2 2418   1.720   2.752   1.374 -1.0977 -1.3380 -2.0887
  807SOL     OW 2419   2.170   3.089   2.832  0.5977  0.7157  0.0040
  807SOL    HW1 2420   2.217   0.012   2.755  1.5256 -1.2052 -1.1051
  807SOL    HW2 2421   2.223   3.007   2.860 -0.7498  3.1291  1.0391
  808SOL     OW 2422   0.214   1.243   0.210 -0.2520  0.1908  0.3347
  808SOL    HW1 2423   0.166   1.327   0.182 -0.5871 -2.5972  0.7642
  808SOL    HW2 2424   0.170   1.200   0.292  1.4025 -1.2904  0.3630
  809SOL     OW 2425   2.689   1.013   2.392 -0.2987 -0.0127  0.1013
  809SOL    HW1 2426   2.762   1.013   2.321 -1.4873  0.5256 -0.0845
  809SOL    HW2 2427   2.606   1.064   2.360 -1.1809  0.2408  1.5766
  810SOL     OW 2428   2.392   0.086   1.827 -0.2219 -0.1777  0.7732
  810SOL    HW1 2429   2.457   0.162   1.838 -0.9549  0.9754 -1.0115
  810SOL    HW2 2430   2.384   0.066   1.727 -0.1403  0.5604  1.0611
  811SOL     OW 2431   2.632   2.523   1.768 -0.0824 -0.2177  0.1350
  811SOL    HW1 2432   2.578   2.601   1.795 -1.0426 -1.3627 -0.9129
  811SOL    HW2 2433   2.714   2.511   1.830  1.3831 -0.3041  0.5110
  812SOL     OW 2434   1.578   0.428   0.088  0.1521  0.5997 -0.3612
  812SOL    HW1 2435   1.542   0.428   3.121 -1.3007 -0.0413  2.3391
  812SOL    HW2 2436   1.683   0.414   0.093  1.3032  1.2420 -0.7824
  813SOL     OW 2437   1.831   0.440   1.846  0.0703  0.0051  0.4710
  813SOL    HW1 2438   1.904   0.373   1.860 -0.1714 -1.0509 -1.0434
  813SOL    HW2 2439   1.852   0.505   1.767  1.3411 -1.5159 -0.0008
  814SOL     OW 2440   1.906   1.349   1.664  0.6892  0.4326 -0.4342
  814SOL    HW1 2441   2.002   1.314   1.666 -1.7339 -1.7654  1.3413
  814SOL    HW2 2442   1.911   1.446   1.639  2.5030 -1.1903 -2.0468
  815SOL     OW 2443   0.455   0.829   0.489  0.0310  0.6176  0.3954
  815SOL    HW1 2444   0.433   0.838   0.391 -1.2710  0.9929  2.9149
  815SOL    HW2 2445   0.452   0.922   0.528 -1.3462  0.5762  0.5535
  816SOL     OW 2446   1.728   1.826   2.740 -0.3151 -0.9897  0.8627
  816SOL    HW1 2447   1.821   1.803   2.703 -2.3088  3.1488  0.4371
  816SOL    HW2 2448   1.669   1.749   2.760  2.2357  0.3233 -0.5068
  817SOL     OW 2449   0.230   3.009   0.584 -0.0025  0.0297  0.1099
  817SOL    HW1 2450   0.279   3.043   0.670 -0.1690 -0.8733  2.5248
  817SOL    HW2 2451   0.286   2.967   0.510 -1.3818 -1.6410 -1.3624
  818SOL     OW 2452   2.042   0.257   2.584 -0.0601  0.2473  0.0469
  818SOL    HW1 2453   2.016   0.161   2.593  0.2059  0.9797  1.4708
  818SOL    HW2 2454   1.968   0.313   2.539 -2.0332 -1.4039 -2.2149
  819SOL     OW 2455   1.247   1.044   0.580 -0.2125  0.6290  0.1151
  819SOL    HW1 2456   1.244   1.052   0.480 -0.2398  1.8133  1.2966
  819SOL    HW2 2457   1.181   1.103   0.629  0.9592 -2.7267 -0.4226
  820SOL     OW 2458   2.263   1.069   1.014  0.1757 -0.2119 -1.1561
  820SOL    HW1 2459   2.312   1.026   1.096 -0.3531 -2.1012  1.0128
  820SOL    HW2 2460   2.310   1.052   0.922  0.4505  0.8127  0.4662
  821SOL     OW 2461   2.528   0.135   0.436 -0.2669 -0.6277  0.5228
  821SOL    HW1 2462   2.543   0.072   0.357 -1.0540  0.8337  2.9602
  821SOL    HW2 2463   2.433   0.163   0.445  0.9821 -3.3290  2.0748
  822SOL     OW 2464   0.526   2.771   2.642  0.1753  0.2624  0.1953
  822SOL    HW1 2465   0.532   2.687   2.704 -0.6455 -1.5787 -1.8167
  822SOL    HW2 2466   0.464   2.846   2.669  2.1264 -1.7589 -1.0843
  823SOL     OW 2467   0.096   2.271   1.718  0.3423 -0.1962 -0.3407
  823SOL    HW1 2468   0.021   2.230   1.775 -0.4572  2.4040 -0.1870
  823SOL    HW2 2469   0.054   2.351   1.671 -0.6649  0.0318 -1.5510
  824SOL     OW 2470   0.851   2.823   2.011  0.2482 -0.0440 -0.0575
  824SOL    HW1 2471   0.915   2.877   1.956  0.1907 -3.1463 -1.6060
  824SOL    HW2 2472   0.878   2.724   1.999  1.3197  0.4574  0.1171
  825SOL     OW 2473   1.276   1.834   0.414  0.1239  0.1005  0.7755
  825SOL    HW1 2474   1.308   1.740   0.406 -1.8926 -1.0792  0.8379
  825SOL    HW2 2475   1.178   1.835   0.424  3.2853 -2.2910  1.7022
  826SOL     OW 2476   1.287   2.962   2.958 -0.2155 -0.1057  0.2912
  826SOL    HW1 2477   1.235   2.932   2.875  1.3631 -0.9082  0.5095
  826SOL    HW2 2478   1.290   2.887   3.025 -1.6578  0.8799 -0.8310
  827SOL     OW 2479   0.215   1.672   1.452 -1.3489 -0.2109 -0.1948
  827SOL    HW1 2480   0.263   1.744   1.393  1.4996  1.0320  0.3290
  827SOL    HW2 2481   0.252   1.670   1.548 -1.2626 -1.6758 -0.0546
  828SOL     OW 2482   2.463   1.485   1.462 -0.1949 -0.9259 -0.8367
  828SOL    HW1 2483   2.393   1.414   1.441  1.3561  1.2966  0.1123
  828SOL    HW2 2484   2.544   1.451   1.514 -0.8933 -2.1766  0.6230
  829SOL     OW 2485   2.887   2.189   0.498  0.5586 -0.2611 -0.4014
  829SOL    HW1 2486   2.928   2.274   0.533 -0.8825 -0.4010 -0.2668
  829SOL    HW2 2487   2.934   2.156   0.415 -0.5168 -0.1960  0.5309
  830SOL     OW 2488   1.151   0.713   0.489 -0.2468  0.2091 -0.1459
  830SOL    HW1 2489   1.247   0.743   0.512 -0.3714  1.4127  1.2316
  830SOL    HW2 2490   1.096   0.731   0.573  2.8264 -1.9696  1.6788
  831SOL     OW 2491   2.739   2.024   0.124  0.0704 -0.1256  0.2413
  831SOL    HW1 2492   2.738   1.929   0.091 -1.6382  0.8804  1.3770
  831SOL    HW2 2493   2.644   2.059   0.154 -0.4590  0.3772 -2.1089
  832SOL     OW 2494   1.077   2.690   0.304  0.8780  0.3284 -0.1796
  832SOL    HW1 2495   1.047   2.687   0.401  0.6028 -0.8593 -3.2509
  832SOL    HW2 2496   1.174   2.658   0.296  2.1663  0.1690 -0.8606
  833SOL     OW 2497   1.414   0.506   2.372 -0.0619  0.0446  0.2962
  833SOL    HW1 2498   1.316   0.488   2.362  1.7708  0.0919 -0.5698
  833SOL    HW2 2499   1.444   0.577   2.308 -0.0076  0.8226  4.2214
  834SOL     OW 2500   2.983   1.008   0.748 -0.6326 -0.1793  0.1937
  834SOL    HW1 2501   2.886   1.008   0.713 -3.1327  0.3451 -0.5480
  834SOL    HW2 2502   3.033   0.919   0.729  1.2966 -1.9378  0.4616
  835SOL     OW 2503   2.679   0.478   2.000  0.6454  0.0178  0.2601
  835SOL    HW1 2504   2.678   0.579   2.016 -2.6406  2.7250 -2.5500
  835SOL    HW2 2505   2.605   0.429   2.054 -1.1447  1.3026  0.6504
  836SOL     OW 2506   0.544   2.351   0.779 -0.5273  0.1595  0.0237
  836SOL    HW1 2507   0.516   2.446   0.754 -1.5506 -0.8116  0.0311
  836SOL    HW2 2508   0.625   2.318   0.724 -1.0188 -2.1442 -2.1195
  837SOL     OW 2509   2.296   1.798   2.165  0.0037 -0.1175  0.6079
  837SOL    HW1 2510   2.330   1.702   2.145  0.3181 -1.8141 -1.0807
  837SOL    HW2 2511   2.359   1.834   2.235 -2.7462 -2.7106 -2.5308
  838SOL     OW 2512   0.155   1.413   1.683  0.2016  0.6671  0.0672
  838SOL    HW1 2513   0.193   1.396   1.595 -0.3383 -2.3755  5.4529
  838SOL    HW2 2514   0.194   1.497   1.720 -0.5372 -1.1839  1.1974
  839SOL     OW 2515   0.013   0.310   0.415 -0.0790 -0.4827  0.3326
  839SOL    HW1 2516   0.097   0.366   0.434 -0.7482 -0.7359  0.4306
  839SOL    HW2 2517   0.038   0.211   0.417 -1.9626  2.5197 -1.5631
  840SOL     OW 2518   0.061   0.695   2.462  0.2822 -0.0023  0.0987
  840SOL    HW1 2519   0.026   0.791   2.476  2.7715 -0.3591  3.8111
  840SOL    HW2 2520   0.008   0.631   2.521 -1.7367  1.6899  2.5790
  841SOL     OW 2521   0.413   2.214   2.750 -0.4020 -0.5826 -0.1590
  841SOL    HW1 2522   0.413   2.117   2.781  0.4295 -0.5909  0.7252
  841SOL    HW2 2523   0.478   2.257   2.816  1.4269 -2.1102 -1.1069
  842SOL     OW 2524   0.795   0.066   0.920  0.2197  0.2724 -0.1734
  842SOL    HW1 2525   0.803   3.097   0.895 -1.5163  0.3149  0.5365
  842SOL    HW2 2526   0.749   0.113   0.840  2.0204  1.6151  0.5043
  843SOL     OW 2527   0.448   1.506   2.898 -0.6110 -0.0795  0.1590
  843SOL    HW1 2528   0.549   1.527   2.904 -0.7619 -2.0639 -0.3388
  843SOL    HW2 2529   0.442   1.424   2.838  1.1525 -2.4061 -2.3439
  844SOL     OW 2530   1.023   1.890   2.578  0.1550 -0.1924 -0.0988
  844SOL    HW1 2531   0.976   1.956   2.524  2.7224 -1.2947  2.2075
  844SOL    HW2 2532   1.127   1.891   2.563  0.7233  0.2028  2.7881
  845SOL     OW 2533   2.488   2.751   2.704  0.0011  0.2076 -0.2688
  845SOL    HW1 2534   2.522   2.824   2.639  0.8949  2.9376 -0.0321
  845SOL    HW2 2535   2.456   2.673   2.644  0.2647 -4.4039 -3.0839
  846SOL     OW 2536   1.989   1.623   3.128  0.8470 -0.1469  0.0128
  846SOL    HW1 2537   1.979   1.709   3.078  2.8149  0.1777 -1.4026
  846SOL    HW2 2538   2.021   1.642   0.094 -1.3548 -0.9760  3.4485
  847SOL     OW 2539   2.643   0.135   2.801 -0.3434 -0.2391 -0.4800
  847SOL    HW1 2540   2.727   0.197   2.788  0.2963  2.0779 -1.7260
  847SOL    HW2 2541   2.563   0.189   2.808  0.9613 -2.0198  1.4262
  848SOL     OW 2542   0.007   0.833   3.115  0.0727  0.2127  0.3856
  848SOL    HW1 2543   3.069   0.776   3.059  0.3331 -0.8953  0.4358
  848SOL    HW2 2544   0.075   0.777   0.034  0.6924  2.1714  1.6243
  849SOL     OW 2545   1.546   0.300   2.532 -0.3204 -0.3382 -0.1481
  849SOL    HW1 2546   1.501   0.274   2.620  1.8167  0.8709 -2.2251
  849SOL    HW2 2547   1.474   0.330   2.465 -0.0428  0.8433  0.9310
  850SOL     OW 2548   0.148   1.032   0.433  0.5240  0.2090  0.7633
  850SOL    HW1 2549   0.224   0.966   0.422  1.1004 -2.2102  0.6002
  850SOL    HW2 2550   0.059   0.979   0.437 -2.1536 -0.5054 -1.4788
  851SOL     OW 2551   0.222   1.238   0.575 -0.1332 -0.6986  0.4646
  851SOL    HW1 2552   0.236   1.326   0.523 -0.7034  0.5106 -2.1781
  851SOL    HW2 2553   0.187   1.159   0.520  3.4799 -1.6754  2.5045
  852SOL     OW 2554   1.169   1.186   1.490 -0.2533  0.0673 -0.0647
  852SOL    HW1 2555   1.115   1.121   1.544 -1.5105 -2.7759  0.3983
  852SOL    HW2 2556   1.264   1.150   1.495 -0.5273  0.9595  1.2214
  853SOL     OW 2557   2.312   1.500   0.263  0.4006 -0.2986 -0.3034
  853SOL    HW1 2558   2.322   1.425   0.329 -1.3225 -0.2966 -0.0735
  853SOL    HW2 2559   2.226   1.554   0.287  0.7920 -1.5175  0.6170
  854SOL     OW 2560   1.644   1.068   2.036  0.0516  0.3482 -0.4016
  854SOL    HW1 2561   1.728   1.028   2.086  4.0996 -1.9756 -0.6598
  854SOL    HW2 2562   1.674   1.155   1.991 -0.3474  0.0095 -3.6120
  855SOL     OW 2563   0.450   2.226   2.473  0.4630  0.1406 -0.5136
  855SOL    HW1 2564   0.470   2.319   2.445 -2.0837 -0.8820  1.9749
  855SOL    HW2 2565   0.445   2.224   2.574  0.7993  0.6132  1.4352
  856SOL     OW 2566   1.125   0.882   1.897 -0.3173  0.2193  0.0975
  856SOL    HW1 2567   1.101   0.941   1.817  0.3155  0.0785  1.2927
  856SOL    HW2 2568   1.205   0.818   1.867 -0.2048 -2.7811 -0.0507
  857SOL     OW 2569   1.146   0.950   2.365  0.4425 -0.5170 -0.1021
  857SOL    HW1 2570   1.068   0.944   2.436 -2.1654 -1.5681 -0.3653
  857SOL    HW2 2571   1.135   1.011   2.285 -0.6093 -0.5368  1.2911
  858SOL     OW 2572   2.910   1.055   1.703  0.3194  0.0239 -0.5025
  858SOL    HW1 2573   2.965   1.138   1.682  0.6061 -0.6322  1.2519
  858SOL    HW2 2574   2.962   0.971   1.690 -1.1149  2.0192 -0.5158
  859SOL     OW 2575   2.582   0.033   0.943  0.0129 -0.0753 -0.0062
  859SOL    HW1 2576   2.516   0.044   0.864 -1.0759 -1.3666 -2.7064
  859SOL    HW2 2577   2.565   3.087   1.009 -0.2781 -0.5747 -0.1699
  860SOL     OW 2578   1.594   0.403   1.257 -0.5666  0.0425  0.0394
  860SOL    HW1 2579   1.622   0.503   1.253  0.7733  1.7978 -2.8543
  860SOL    HW2 2580   1.549   0.382   1.346  2.7017  0.0163 -0.5602
  861SOL     OW 2581   1.697   0.678   1.261 -0.1511 -0.3236 -0.3425
  861SOL    HW1 2582   1.733   0.751   1.323  0.1850 -0.9393  1.1486
  861SOL    HW2 2583   1.620   0.715   1.207 -1.0961  1.3338  2.0105
  862SOL     OW 2584   1.255   2.861   2.503  0.1172  0.9071  0.2759
  862SOL    HW1 2585   1.214   2.827   2.413 -2.9251  0.3383 -0.9619
  862SOL    HW2 2586   1.351   2.887   2.487 -1.9858 -0.4516  2.1443
  863SOL     OW 2587   2.709   3.055   1.311  0.1731  0.4455 -0.1266
  863SOL    HW1 2588   2.679   3.122   1.377  0.9822 -1.2200 -0.9616
  863SOL    HW2 2589   2.772   3.103   1.252 -1.7529  0.3772 -0.4089
  864SOL     OW 2590   2.766   3.021   1.856  0.0115  0.8059 -0.1902
  864SOL    HW1 2591   2.810   3.037   1.946  0.1291  0.9842  0.2578
  864SOL    HW2 2592   2.667   2.989   1.872 -0.0963  0.2956  1.4702
  865SOL     OW 2593   1.161   1.175   2.720  0.1214  0.9488 -0.1347
  865SOL    HW1 2594   1.167   1.074   2.703  0.1547 -0.1569  0.8254
  865SOL    HW2 2595   1.204   1.234   2.651  2.5236 -0.4624  1.2400
  866SOL     OW 2596   2.229   3.006   1.090  0.5984 -0.1974  0.0379
  866SOL    HW1 2597   2.192   2.961   1.002 -0.0310 -0.2250  0.4969
  866SOL    HW2 2598   2.324   2.989   1.091 -1.1747  1.2061  0.6988
  867SOL     OW 2599   3.005   2.629   1.033  0.2921 -0.0472  0.3213
  867SOL    HW1 2600   3.026   2.710   1.092  0.8591 -2.5290 -0.1044
  867SOL    HW2 2601   3.093   2.583   0.993  0.2892 -1.4467 -3.1801
  868SOL     OW 2602   0.086   1.866   1.587 -0.1683  0.4353 -0.0199
  868SOL    HW1 2603   0.103   1.780   1.532  0.3863  0.4742  2.0864
  868SOL    HW2 2604   0.075   1.839   1.688 -1.6055 -0.6254  1.2862
  869SOL     OW 2605   2.115   1.877   2.416  0.2417 -0.3178 -0.3739
  869SOL    HW1 2606   2.082   1.976   2.421  3.3687 -0.6278  2.7430
  869SOL    HW2 2607   2.215   1.872   2.391  0.1132 -2.7243  3.2890
  870SOL     OW 2608   1.382   0.795   0.613  0.2065  0.0951  0.9978
  870SOL    HW1 2609   1.363   0.895   0.627  1.1210 -0.8793  2.2540
  870SOL    HW2 2610   1.399   0.744   0.702 -1.5579 -0.7754  0.1485
  871SOL     OW 2611   2.795   1.705   2.042  0.2980  0.0434 -0.1121
  871SOL    HW1 2612   2.709   1.737   2.001 -1.3071 -0.5467  0.7927
  871SOL    HW2 2613   2.783   1.700   2.145  2.6317 -0.4126  2.5374
  872SOL     OW 2614   0.946   1.551   2.973  0.2425  0.5754  0.0124
  872SOL    HW1 2615   1.033   1.601   2.986 -0.1437 -2.4507 -1.0442
  872SOL    HW2 2616   0.936   1.466   3.024 -1.2800  0.1240  0.2703
  873SOL     OW 2617   0.892   1.490   1.932  0.5274  0.1744 -0.5163
  873SOL    HW1 2618   0.794   1.497   1.954  1.5101 -0.6072  0.9661
  873SOL    HW2 2619   0.911   1.537   1.840  1.2718  0.4235 -2.8264
  874SOL     OW 2620   1.614   1.090   1.345  0.1373  0.0161 -0.0915
  874SOL    HW1 2621   1.696   1.151   1.327 -0.6070 -0.8877 -0.4983
  874SOL    HW2 2622   1.558   1.081   1.260  0.5627  2.5181  1.2379
  875SOL     OW 2623   2.854   0.013   2.614  0.1557 -0.6573 -0.1337
  875SOL    HW1 2624   2.812   0.105   2.609  0.7265 -3.2756 -0.3278
  875SOL    HW2 2625   2.932   0.004   2.550  2.3042 -1.7000  2.0409
  876SOL     OW 2626   1.073   1.291   0.478 -0.0105  0.0876  0.1566
  876SOL    HW1 2627   0.988   1.259   0.431  0.3524 -1.6981 -1.3557
  876SOL    HW2 2628   1.064   1.262   0.576 -1.5169 -2.5520 -1.1976
  877SOL     OW 2629   2.157   2.872   0.322 -1.0765  0.1062 -0.2307
  877SOL    HW1 2630   2.219   2.847   0.403  1.9256 -1.0407  0.7460
  877SOL    HW2 2631   2.175   2.802   0.250 -1.2001  1.2299  2.0130
  878SOL     OW 2632   1.873   2.354   0.255 -0.3329  0.1473  0.1943
  878SOL    HW1 2633   1.961   2.319   0.294  0.9669 -1.1970  1.2623
  878SOL    HW2 2634   1.807   2.277   0.258 -0.5580  0.3885 -2.1119
  879SOL     OW 2635   0.056   1.830   1.850  0.4341  0.2922  0.6292
  879SOL    HW1 2636   0.003   1.745   1.873 -1.2853 -0.6625  0.3846
  879SOL    HW2 2637   0.009   1.916   1.854  2.4410 -1.2366 -3.2280
  880SOL     OW 2638   0.141   1.914   1.049 -0.4534  0.3277  0.1744
  880SOL    HW1 2639   0.132   1.989   1.117  0.3917  1.7870  0.9664
  880SOL    HW2 2640   0.060   1.930   0.990 -0.5153  0.4693  1.0144
  881SOL     OW 2641   1.112   0.164   2.340  0.7695 -0.3768  0.6689
  881SOL    HW1 2642   1.111   0.109   2.427  1.8525 -0.6450 -3.0144
  881SOL    HW2 2643   1.047   0.239   2.332  4.3373 -1.0656 -1.6089
  882SOL     OW 2644   2.697   1.084   1.115  0.1356  0.3390  0.1577
  882SOL    HW1 2645   2.773   1.042   1.059 -1.4358  0.0335  0.2962
  882SOL    HW2 2646   2.618   1.022   1.121  2.6192  4.1336 -0.0168
  883SOL     OW 2647   1.627   0.381   2.028  0.2957  0.1636  0.3673
  883SOL    HW1 2648   1.544   0.435   1.995 -3.9484  1.0436 -1.1301
  883SOL    HW2 2649   1.708   0.392   1.964 -0.3607  2.9301 -0.5142
  884SOL     OW 2650   3.075   0.149   1.700 -0.6319  0.3115  0.7875
  884SOL    HW1 2651   0.031   0.119   1.652 -0.6530  0.7540  0.5980
  884SOL    HW2 2652   3.074   0.255   1.708 -1.7443  3.6216 -0.7603
  885SOL     OW 2653   2.077   1.309   2.674 -0.4555 -0.5483 -0.5629
  885SOL    HW1 2654   2.067   1.352   2.768  1.7358 -0.0342  0.8488
  885SOL    HW2 2655   1.990   1.260   2.651 -0.3537 -1.1176 -0.5680
  886SOL     OW 2656   2.311   0.310   3.060 -0.5126  0.3546  0.2428
  886SOL    HW1 2657   2.379   0.331   0.001  1.1375  0.9177 -3.5720
  886SOL    HW2 2658   2.245   0.385   3.065  3.9687 -1.8320 -0.4403
  887SOL     OW 2659   1.199   2.789   1.687 -0.2724 -0.2350 -0.2764
  887SOL    HW1 2660   1.245   2.770   1.780 -1.0178 -0.7660  1.9182
  887SOL    HW2 2661   1.259   2.843   1.626 -1.2020 -0.3076 -0.9342
  888SOL     OW 2662   2.191   1.829   1.907 -0.5387  0.4436 -0.1627
  888SOL    HW1 2663   2.242   1.817   1.996  1.5644 -0.2906  1.4911
  888SOL    HW2 2664   2.253   1.844   1.827  2.4599  2.5065 -2.0738
  889SOL     OW 2665   1.859   2.248   1.365  0.1813  0.0890 -0.3514
  889SOL    HW1 2666   1.909   2.310   1.300 -3.9701  0.1778 -0.5762
  889SOL    HW2 2667   1.803   2.182   1.310  0.0064  0.1842  0.1168
  890SOL     OW 2668   1.107   1.875   0.935  0.0602  0.2119  0.4519
  890SOL    HW1 2669   1.101   1.970   0.985  1.0491  3.5047  1.3621
  890SOL    HW2 2670   1.010   1.851   0.903 -1.4970 -1.7364  1.4979
  891SOL     OW 2671   3.003   1.312   0.214 -0.2706  0.0495  1.2006
  891SOL    HW1 2672   3.017   1.213   0.198  1.4092  0.4747 -2.4698
  891SOL    HW2 2673   2.940   1.326   0.293 -0.9260 -2.5727  0.1889
  892SOL     OW 2674   2.419   1.316   3.116 -0.1494 -0.1216  0.3206
  892SOL    HW1 2675   2.453   1.221   0.007 -2.4447 -0.5862  1.7561
  892SOL    HW2 2676   2.361   1.357   0.063  0.2507 -3.3662 -0.0163
  893SOL     OW 2677   2.128   2.499   1.442  0.0057  0.0419 -0.5948
  893SOL    HW1 2678   2.176   2.587   1.417  1.9682  1.1114 -1.7327
  893SOL    HW2 2679   2.202   2.440   1.486 -1.0056  0.0252  1.0023
  894SOL     OW 2680   2.761   0.207   0.838 -0.0257 -0.2016  0.5769
  894SOL    HW1 2681   2.690   0.256   0.792  2.9987 -0.5377  2.1187
  894SOL    HW2 2682   2.714   0.135   0.888 -0.3676 -0.3550  2.8838
  895SOL     OW 2683   2.824   2.523   2.626  0.3733  0.2368  0.6264
  895SOL    HW1 2684   2.875   2.606   2.611 -1.2616 -2.9493 -1.8676
  895SOL    HW2 2685   2.827   2.476   2.535  0.6037  0.5162 -0.1238
  896SOL     OW 2686   2.260   0.114   2.623  0.2011 -0.2082 -0.0498
  896SOL    HW1 2687   2.182   0.178   2.609  1.5497 -1.1252 -0.6907
  896SOL    HW2 2688   2.343   0.169   2.647  0.4123 -1.0990 -0.0958
  897SOL     OW 2689   0.249   1.606   2.010 -0.5746  0.2204  0.7636
  897SOL    HW1 2690   0.160   1.645   2.034  2.7918  1.9088 -1.6228
  897SOL    HW2 2691   0.252   1.510   2.048 -2.9076 -0.0456  1.0331
  898SOL     OW 2692   2.665   1.738   1.602  0.3198  0.4499  0.0800
  898SOL    HW1 2693   2.626   1.720   1.694 -0.4359  0.4434  1.2986
  898SOL    HW2 2694   2.584   1.756   1.539  0.0509 -0.6710  0.2393
  899SOL     OW 2695   1.811   3.106   1.627  0.6834  0.0465  0.3778
  899SOL    HW1 2696   1.825   0.006   1.721 -0.8235 -1.9630  0.8393
  899SOL    HW2 2697   1.872   3.025   1.607  0.5696 -0.2140  2.0963
  900SOL     OW 2698   1.369   0.860   0.182  0.2792  0.3247 -0.1827
  900SOL    HW1 2699   1.331   0.774   0.148  1.0488 -1.0851  1.4590
  900SOL    HW2 2700   1.457   0.847   0.240  1.7004  2.5583  0.7080
  901SOL     OW 2701   1.243   0.903   2.753  0.5805 -0.4102  0.5417
  901SOL    HW1 2702   1.319   0.920   2.821  1.8467  0.4801 -0.5206
  901SOL    HW2 2703   1.271   0.831   2.692 -0.6988 -1.3024  1.8763
  902SOL     OW 2704   2.735   2.668   0.753 -0.1835  0.3784  0.2749
  902SOL    HW1 2705   2.813   2.730   0.767  0.9400 -0.2081 -1.7115
  902SOL    HW2 2706   2.715   2.607   0.832  0.7869  0.9085  0.2980
  903SOL     OW 2707   2.990   1.327   1.921  0.2289  0.0935 -0.4475
  903SOL    HW1 2708   3.054   1.260   1.971  0.9694  0.9175  0.1701
  903SOL    HW2 2709   2.995   1.314   1.823 -1.9318 -0.2776  0.6512
  904SOL     OW 2710   1.845   0.975   0.766  0.2415  0.1282 -0.3441
  904SOL    HW1 2711   1.917   0.946   0.828 -0.9376  0.6095  0.8183
  904SOL    HW2 2712   1.872   0.939   0.677 -0.1435  1.3214 -0.1846
  905SOL     OW 2713   2.258   2.746   1.405  0.3212  0.4439 -0.6446
  905SOL    HW1 2714   2.186   2.813   1.384 -1.8230  1.5628  1.6543
  905SOL    HW2 2715   2.340   2.788   1.441  0.6692 -3.6436  0.7007
  906SOL     OW 2716   1.528   2.388   3.063 -0.7367  0.2887  0.7030
  906SOL    HW1 2717   1.584   2.462   3.103  1.2529 -3.9278 -0.9306
  906SOL    HW2 2718   1.560   2.366   2.973 -4.4151  2.5550  1.2336
  907SOL     OW 2719   0.477   2.825   0.825 -0.4568  0.0332 -0.1949
  907SOL    HW1 2720   0.425   2.821   0.908  0.3632 -2.0612 -0.8676
  907SOL    HW2 2721   0.497   2.921   0.799 -0.2323 -0.5618  2.2810
  908SOL     OW 2722   0.669   0.157   2.057 -0.2400  0.4898 -0.4910
  908SOL    HW1 2723   0.679   0.248   2.100  3.2351 -0.4606 -3.0463
  908SOL    HW2 2724   0.713   0.156   1.965 -1.3476  0.1519  0.9349
  909SOL     OW 2725   2.236   0.723   1.639  0.1150  0.3918  0.3491
  909SOL    HW1 2726   2.188   0.655   1.576 -2.5403 -1.8975 -1.2019
  909SOL    HW2 2727   2.188   0.809   1.634 -2.3560 -1.9605  0.1196
  910SOL     OW 2728   1.277   0.631   0.060  0.1312  0.3061 -0.1028
  910SOL    HW1 2729   1.181   0.631   0.034 -1.4473  0.1321  0.0145
  910SOL    HW2 2730   1.308   0.538   0.092  2.7530 -2.4551  0.8672
  911SOL     OW 2731   0.157   0.484   3.088 -0.1865  0.3264 -0.3832
  911SOL    HW1 2732   0.063   0.445   3.095  0.0160  0.8073  1.0717
  911SOL    HW2 2733   0.223   0.411   3.076 -1.7622  1.6138 -1.5543
  912SOL     OW 2734   3.073   2.235   0.061 -0.2580  0.3712  0.0670
  912SOL    HW1 2735   0.028   2.285   0.031 -3.7611 -1.4923  0.8739
  912SOL    HW2 2736   3.012   2.238   3.111  2.0704 -2.8239  1.8109
  913SOL     OW 2737   2.605   2.447   3.070 -0.3754 -0.4428 -0.0617
  913SOL    HW1 2738   2.677   2.375   3.090 -0.6152  3.7181  1.2602
  913SOL    HW2 2739   2.618   2.484   2.976 -2.2734 -0.2631 -1.5218
  914SOL     OW 2740   1.773   1.764   1.911  0.5032 -0.1498 -0.4614
  914SOL    HW1 2741   1.742   1.860   1.915 -1.4424 -0.5220 -2.4190
  914SOL    HW2 2742   1.869   1.751   1.943  0.9040  0.6824 -0.2298
  915SOL     OW 2743   0.070   2.449   2.235  0.4928  0.2216 -0.1383
  915SOL    HW1 2744   0.118   2.478   2.319 -2.0122  3.9574 -0.5119
  915SOL    HW2 2745   0.133   2.399   2.177 -2.3969  3.6857  1.9091
  916SOL     OW 2746   3.029   1.311   1.653 -0.7513 -0.0644 -0.2768
  916SOL    HW1 2747   0.003   1.340   1.649  3.5944  2.1417  0.0316
  916SOL    HW2 2748   2.977   1.386   1.610 -0.5702  0.4744 -0.8244
  917SOL     OW 2749   2.190   0.069   3.094  0.1193  0.1001 -0.9207
  917SOL    HW1 2750   2.166   0.038   3.000  1.2162 -1.8350 -1.7205
  917SOL    HW2 2751   2.236   0.158   3.095 -2.4066  0.6520  0.1499
  918SOL     OW 2752   1.736   2.618   2.207 -0.0538  0.0486  0.2180
  918SOL    HW1 2753   1.722   2.595   2.105  0.8083 -0.7968 -2.4942
  918SOL    HW2 2754   1.750   2.715   2.227  1.6601  1.3126  2.4483
  919SOL     OW 2755   1.733   2.286   1.877  0.5161  0.1183 -0.2024
  919SOL    HW1 2756   1.754   2.278   1.780  0.7348  3.3061  2.6702
  919SOL    HW2 2757   1.730   2.196   1.926 -1.5150  0.2555 -0.5229
  920SOL     OW 2758   0.567   0.850   0.085 -0.1440  0.2633  0.1371
  920SOL    HW1 2759   0.644   0.911   0.071 -0.6909 -2.7061  1.4470
  920SOL    HW2 2760   0.560   0.783   0.013  1.4266  3.1581 -0.5781
  921SOL     OW 2761   2.991   1.096   2.769  0.0379  0.4813 -0.4460
  921SOL    HW1 2762   2.932   1.136   2.841  1.7017  1.5237  0.1611
  921SOL    HW2 2763   2.961   1.121   2.673 -1.3446  0.7706 -0.3087
  922SOL     OW 2764   0.321   1.963   0.090 -0.3768  0.5217  0.1942
  922SOL    HW1 2765   0.232   1.914   0.107  0.9351 -1.6921 -1.7388
  922SOL    HW2 2766   0.397   1.903   0.126 -0.0200 -0.3748  1.2948
  923SOL     OW 2767   0.489   1.005   2.001 -0.1931  0.1804 -0.0494
  923SOL    HW1 2768   0.388   1.009   2.015  0.5650  0.2588  0.8085
  923SOL    HW2 2769   0.525   0.909   2.012  0.5924  0.5736 -0.8343
  924SOL     OW 2770   1.126   2.869   2.733 -0.0373 -0.2061  0.3553
  924SOL    HW1 2771   1.190   2.872   2.656 -2.2370 -0.0046  3.1982
  924SOL    HW2 2772   1.053   2.936   2.733  0.1678 -4.0812  0.9620
  925SOL     OW 2773   2.053   1.387   1.109  0.1487 -0.0467  0.3939
  925SOL    HW1 2774   2.064   1.451   1.190 -0.7473  3.7066  0.3944
  925SOL    HW2 2775   2.140   1.383   1.061 -1.0440  0.8496  3.2016
  926SOL     OW 2776   1.877   0.645   2.069 -0.7288  0.0577  0.0056
  926SOL    HW1 2777   1.827   0.602   1.990 -0.8753 -0.7070 -0.6303
  926SOL    HW2 2778   1.870   0.585   2.152 -0.4154 -0.4906 -0.5308
  927SOL     OW 2779   2.851   2.448   1.905  0.1081 -0.1694  0.1545
  927SOL    HW1 2780   2.908   2.527   1.885 -0.1139 -3.2526 -0.2742
  927SOL    HW2 2781   2.872   2.415   2.000 -1.7108 -2.0341  0.8918
  928SOL     OW 2782   0.553   0.835   2.611 -0.5360  0.4877 -0.0719
  928SOL    HW1 2783   0.613   0.771   2.659 -3.5895  3.1429  0.9430
  928SOL    HW2 2784   0.569   0.840   2.509 -0.7899 -1.5080 -1.8124
  929SOL     OW 2785   3.092   3.023   0.887  0.0740  0.3955 -0.2278
  929SOL    HW1 2786   3.035   3.099   0.842 -1.9303 -1.3617  0.1220
  929SOL    HW2 2787   3.052   2.933   0.854 -1.4772 -1.2202 -1.5204
  930SOL     OW 2788   2.429   0.396   1.351  0.5818  0.2874 -0.6513
  930SOL    HW1 2789   2.408   0.380   1.447  2.3577 -2.2039 -2.6162
  930SOL    HW2 2790   2.529   0.388   1.326 -1.2718  0.7280  0.8436
  931SOL     OW 2791   2.514   1.060   0.001  0.1916 -0.1590  0.0491
  931SOL    HW1 2792   2.509   0.980   3.066 -0.1156  0.3596  0.1942
  931SOL    HW2 2793   2.591   1.047   0.067 -1.9931 -2.5376  0.0635
  932SOL     OW 2794   2.297   1.630   1.607 -0.2416 -0.2124 -0.2288
  932SOL    HW1 2795   2.370   1.570   1.571 -0.0706  0.2572 -2.2084
  932SOL    HW2 2796   2.223   1.626   1.540 -0.1489  0.2910  2.6191
  933SOL     OW 2797   3.022   2.448   1.355 -0.5829  0.4326 -0.4805
  933SOL    HW1 2798   3.084   2.403   1.289 -2.0210 -1.7865  1.2931
  933SOL    HW2 2799   2.952   2.387   1.396  1.4444  0.7963 -0.6351
  934SOL     OW 2800   0.839   2.338   1.279  0.0942 -0.0530 -0.3367
  934SOL    HW1 2801   0.811   2.270   1.211 -4.3768 -2.3593  0.7944
  934SOL    HW2 2802   0.795   2.423   1.240  0.6120  1.7840 -1.8550
  935SOL     OW 2803   2.336   1.535   2.102 -0.1620 -0.2615  0.9585
  935SOL    HW1 2804   2.358   1.471   2.179 -1.2987  0.8235  1.4358
  935SOL    HW2 2805   2.278   1.485   2.033  1.1746 -0.5101  0.6139
  936SOL     OW 2806   2.322   1.436   1.790  0.2325  0.1634  0.0282
  936SOL    HW1 2807   2.291   1.528   1.762  0.0389  1.5381  0.8570
  936SOL    HW2 2808   2.424   1.429   1.792 -0.9620  2.5972 -1.1837
  937SOL     OW 2809   2.086   1.128   1.999  0.4344 -0.2063 -0.3782
  937SOL    HW1 2810   2.046   1.042   1.966  0.1291  2.0814  0.0435
  937SOL    HW2 2811   2.022   1.164   2.070  0.8749  2.2236  1.1420
  938SOL     OW 2812   0.819   2.350   3.032 -0.1170  0.3820  0.0468
  938SOL    HW1 2813   0.889   2.360   3.104 -0.2937  0.1994  0.0055
  938SOL    HW2 2814   0.833   2.426   2.963  1.0185  1.9953 -0.8297
  939SOL     OW 2815   2.761   0.889   2.880  0.1137  0.7759 -0.6779
  939SOL    HW1 2816   2.774   0.866   2.783  1.9996  2.4005  1.0201
  939SOL    HW2 2817   2.676   0.851   2.918  2.8087  1.7109  0.7851
  940SOL     OW 2818   0.909   1.738   1.154 -0.7971 -0.1386 -0.0548
  940SOL    HW1 2819   0.956   1.667   1.207  1.3144 -0.9404  3.6066
  940SOL    HW2 2820   0.963   1.823   1.151  0.9079  3.1077 -0.1517
  941SOL     OW 2821   0.678   2.099   2.119  0.0468 -0.1912  0.0496
  941SOL    HW1 2822   0.719   2.010   2.143  2.2109 -0.6548 -1.9508
  941SOL    HW2 2823   0.696   2.116   2.022  1.2318 -2.4352 -1.6878
  942SOL     OW 2824   0.088   1.923   2.937 -0.4224 -0.7248  0.2131
  942SOL    HW1 2825   0.097   2.022   2.926 -0.8639  0.3340 -1.2476
  942SOL    HW2 2826   0.148   1.878   2.868  1.5095  1.3914  2.3149
  943SOL     OW 2827   1.832   2.703   1.795 -0.4661  0.3361  0.5974
  943SOL    HW1 2828   1.762   2.647   1.847 -1.2845 -0.6945  0.5928
  943SOL    HW2 2829   1.917   2.648   1.774  1.3312  0.7639 -2.2985
  944SOL     OW 2830   1.052   1.585   0.212 -0.6614 -0.3959  0.0724
  944SOL    HW1 2831   1.074   1.661   0.148  0.5526 -0.7717  0.4530
  944SOL    HW2 2832   1.117   1.505   0.223 -1.1300  3.0424 -3.1652
  945SOL     OW 2833   2.527   2.843   0.678  0.0942 -0.1871  0.0380
  945SOL    HW1 2834   2.600   2.775   0.697  1.8130  1.8530 -0.5233
  945SOL    HW2 2835   2.562   2.934   0.652 -1.2068 -1.2384 -1.7527
  946SOL     OW 2836   0.954   1.375   2.663  0.0769 -0.2917 -0.3696
  946SOL    HW1 2837   1.004   1.308   2.722  0.7634 -1.0804  0.4236
  946SOL    HW2 2838   0.995   1.468   2.661 -0.3947  0.1104  0.2916
  947SOL     OW 2839   2.795   0.755   1.896  0.0806 -0.3568 -0.1625
  947SOL    HW1 2840   2.690   0.774   1.899 -2.2408  0.4523  0.7904
  947SOL    HW2 2841   2.828   0.731   1.806  2.5150 -2.3168  2.6118
  948SOL     OW 2842   0.192   1.559   0.779  0.4043 -0.2240  0.3512
  948SOL    HW1 2843   0.282   1.512   0.777  0.0985  1.7181 -2.3645
  948SOL    HW2 2844   0.167   1.582   0.874 -1.5685  1.4662 -0.7138
  949SOL     OW 2845   0.822   0.739   2.252 -0.4232 -0.2767  0.2532
  949SOL    HW1 2846   0.895   0.748   2.180  2.3903  0.2644 -1.2630
  949SOL    HW2 2847   0.858   0.717   2.348 -0.9474 -0.3922  2.5244
  950SOL     OW 2848   0.160   0.620   1.357 -0.2261 -0.0667  0.1028
  950SOL    HW1 2849   0.245   0.675   1.371 -0.4949 -0.6774  2.7010
  950SOL    HW2 2850   0.184   0.519   1.380 -0.7911 -1.4909  1.8124
  951SOL     OW 2851   0.755   1.299   2.478 -0.1655 -0.2378  0.1931
  951SOL    HW1 2852   0.795   1.345   2.559 -0.2750  1.4023 -0.6732
  951SOL    HW2 2853   0.804   1.324   2.389  1.2781 -0.1193 -0.9866
  952SOL     OW 2854   1.830   2.206   0.922  0.6280 -0.0464  0.4083
  952SOL    HW1 2855   1.823   2.123   0.866  0.2334 -0.3353 -0.5439
  952SOL    HW2 2856   1.848   2.279   0.859 -1.7814  1.4596 -0.7705
  953SOL     OW 2857   0.853   0.833   0.134  0.0359  0.1506  0.1654
  953SOL    HW1 2858   0.913   0.873   0.204  0.6918 -0.7854  0.4412
  953SOL    HW2 2859   0.786   0.900   0.103  1.7143 -1.9883 -0.1996
  954SOL     OW 2860   2.191   0.760   1.260 -0.0098 -0.1471  0.1975
  954SOL    HW1 2861   2.283   0.795   1.257 -0.8666  1.5332 -3.0301
  954SOL    HW2 2862   2.174   0.705   1.176  1.3125 -1.8920  0.7262
  955SOL     OW 2863   2.047   1.236   0.424 -0.3478  0.7429 -0.0947
  955SOL    HW1 2864   2.104   1.177   0.360 -1.3126 -1.4075 -2.6286
  955SOL    HW2 2865   1.948   1.215   0.395 -2.1878  1.0401  1.5869
  956SOL     OW 2866   1.028   0.503   1.882  0.0729  0.0902 -0.3645
  956SOL    HW1 2867   1.022   0.411   1.839 -1.5553  2.4836 -0.6422
  956SOL    HW2 2868   1.049   0.506   1.980 -1.3875  1.4660 -1.3926
  957SOL     OW 2869   1.458   0.261   1.467 -0.2213 -0.4111  1.0495
  957SOL    HW1 2870   1.509   0.330   1.518 -2.0088  0.6281  0.2686
  957SOL    HW2 2871   1.518   0.176   1.460  2.5125  0.4126  2.6980
  958SOL     OW 2872   0.248   2.106   0.342  0.3937 -0.1296  0.2041
  958SOL    HW1 2873   0.292   2.043   0.273  0.9116  0.6912 -0.6972
  958SOL    HW2 2874   0.250   2.073   0.439  1.2244  1.2167  1.7107
  959SOL     OW 2875   2.365   1.068   1.870  0.0647 -0.3621 -0.4242
  959SOL    HW1 2876   2.293   1.079   1.946 -1.1264  2.5681  0.3196
  959SOL    HW2 2877   2.365   1.150   1.808  2.0173  3.7830 -0.9226
  960SOL     OW 2878   2.880   1.976   2.840 -0.0664 -0.4250  0.1463
  960SOL    HW1 2879   2.932   2.062   2.813  1.2794  0.6729  0.3832
  960SOL    HW2 2880   2.895   1.932   2.930 -5.3234 -0.6846 -0.4028
  961SOL     OW 2881   0.447   1.885   1.616 -0.3146  0.4342 -0.1386
  961SOL    HW1 2882   0.536   1.856   1.579  0.2896 -2.9972  1.0293
  961SOL    HW2 2883   0.449   1.921   1.711  1.6900 -0.2495 -1.9674
  962SOL     OW 2884   0.705   1.257   0.753  0.1784 -0.4942 -0.5420
  962SOL    HW1 2885   0.677   1.308   0.670  0.1699  0.1537  1.6642
  962SOL    HW2 2886   0.757   1.319   0.815 -0.3741  0.2988  1.3128
  963SOL     OW 2887   1.266   1.902   2.445 -0.5471 -0.1784 -0.3818
  963SOL    HW1 2888   1.279   1.822   2.390  0.8339  1.1522  1.7785
  963SOL    HW2 2889   1.347   1.924   2.492 -3.3912 -2.5031 -2.4595
  964SOL     OW 2890   0.205   2.852   2.017 -0.4075  0.6141 -0.1490
  964SOL    HW1 2891   0.115   2.815   2.051 -0.0667  0.1739  1.7917
  964SOL    HW2 2892   0.286   2.815   2.070  3.2560  0.1139  0.4246
  965SOL     OW 2893   0.250   1.834   2.733 -0.7854 -0.0044  1.1453
  965SOL    HW1 2894   0.229   1.738   2.760 -1.5918 -1.7066  2.7640
  965SOL    HW2 2895   0.187   1.861   2.656  2.2357 -1.4531  1.0962
  966SOL     OW 2896   3.000   1.819   3.033  0.1606 -0.4612 -0.4180
  966SOL    HW1 2897   2.996   1.726   2.990 -0.9902 -0.0509  0.1598
  966SOL    HW2 2898   3.086   1.867   3.011 -1.0919 -1.0492  0.4155
  967SOL     OW 2899   2.115   0.025   0.235 -0.0772 -0.1089 -0.0240
  967SOL    HW1 2900   2.128   3.061   0.278 -0.1855  1.0106  0.2151
  967SOL    HW2 2901   2.154   0.031   0.138  2.9286  0.3267 -2.3365
  968SOL     OW 2902   2.478   0.050   0.703 -0.3080 -0.4715 -0.0189
  968SOL    HW1 2903   2.521   0.039   0.612 -0.7610  1.9627 -2.2745
  968SOL    HW2 2904   2.374   0.049   0.701 -2.7445  1.0605  0.8375
  969SOL     OW 2905   0.114   1.203   1.927 -0.2960  0.2208  0.4098
  969SOL    HW1 2906   0.145   1.243   1.841 -0.6708 -1.2347  1.3407
  969SOL    HW2 2907   0.129   1.107   1.927 -0.6982  1.4265  0.0482
  970SOL     OW 2908   1.632   1.848   0.099  0.0055  0.4635  0.1133
  970SOL    HW1 2909   1.693   1.895   0.167  2.5071 -1.6734 -0.9477
  970SOL    HW2 2910   1.537   1.863   0.113  1.8759  0.8018  1.8946
  971SOL     OW 2911   2.369   0.038   1.565 -0.6909 -0.3879 -0.2840
  971SOL    HW1 2912   2.471   0.068   1.577  3.0178  1.6122 -0.8215
  971SOL    HW2 2913   2.344   0.060   1.467 -0.4724 -3.4228  0.0918
  972SOL     OW 2914   2.840   0.341   1.066  0.1151 -0.5982 -0.5955
  972SOL    HW1 2915   2.902   0.422   1.066 -1.1175  0.0613  2.2941
  972SOL    HW2 2916   2.820   0.308   0.972  0.5197  1.3382  1.7527
  973SOL     OW 2917   0.678   0.394   2.203 -0.2157  0.6290  0.6892
  973SOL    HW1 2918   0.611   0.414   2.282  0.1874  2.3166 -0.2885
  973SOL    HW2 2919   0.673   0.458   2.126  0.2333 -2.1121  1.4651
  974SOL     OW 2920   2.657   1.365   2.218 -0.4268  0.4592 -0.2200
  974SOL    HW1 2921   2.554   1.377   2.232  1.9057 -1.0980  1.3682
  974SOL    HW2 2922   2.673   1.394   2.123 -0.6226  0.7163  1.9090
  975SOL     OW 2923   1.077   0.223   1.794 -0.0822 -0.5440  0.0222
  975SOL    HW1 2924   1.132   0.207   1.883  1.7018  2.9738  1.5887
  975SOL    HW2 2925   1.152   0.225   1.728 -0.8402  0.9504  1.5260
  976SOL     OW 2926   1.210   1.603   1.376 -0.1105 -0.1749 -0.1709
  976SOL    HW1 2927   1.200   1.704   1.380 -1.4170 -0.0790 -0.5043
  976SOL    HW2 2928   1.191   1.557   1.462 -1.5610 -0.3578 -2.5136
  977SOL     OW 2929   0.576   2.978   0.128  0.0632  0.3406 -0.1948
  977SOL    HW1 2930   0.597   2.920   0.207  3.4750  0.8156  0.9797
  977SOL    HW2 2931   0.627   3.063   0.134 -1.2351 -2.6423  2.4752
  978SOL     OW 2932   2.411   1.368   2.304 -0.5996  0.1217  0.8377
  978SOL    HW1 2933   2.406   1.266   2.304  0.1531  0.7738  0.0490
  978SOL    HW2 2934   2.389   1.406   2.398 -1.4583 -2.1364 -1.4878
  979SOL     OW 2935   1.386   0.535   2.027 -0.0386  0.5443  0.9693
  979SOL    HW1 2936   1.422   0.624   2.059  0.6462 -3.0332 -1.2888
  979SOL    HW2 2937   1.305   0.508   2.084 -0.5649  0.3423  1.1534
  980SOL     OW 2938   1.866   1.519   2.353  0.7981 -0.4785  0.2022
  980SOL    HW1 2939   1.881   1.621   2.352  0.1844 -1.2054 -0.3452
  980SOL    HW2 2940   1.790   1.496   2.420  0.0804 -1.4325  1.8243
  981SOL     OW 2941   1.888   0.571   1.595 -0.5022  0.0249 -0.0345
  981SOL    HW1 2942   1.854   0.659   1.632  0.8074  1.9791  2.9834
  981SOL    HW2 2943   1.977   0.582   1.538  1.1949 -0.2366 -1.9931
  982SOL     OW 2944   0.694   0.250   3.062 -0.0685  0.2513  0.1556
  982SOL    HW1 2945   0.667   0.335   3.112  1.8563  0.2698  0.6253
  982SOL    HW2 2946   0.656   0.248   2.969  0.5462  0.2914  0.5732
  983SOL     OW 2947   2.764   0.618   0.121 -0.3511  0.0349 -0.2318
  983SOL    HW1 2948   2.787   0.710   0.086 -2.2290  1.0357 -0.8694
  983SOL    HW2 2949   2.840   0.556   0.145  0.0633 -1.1312 -0.8985
  984SOL     OW 2950   0.928   0.366   2.346 -0.2945 -0.2349 -0.3247
  984SOL    HW1 2951   0.897   0.416   2.428 -0.7422 -0.4397 -0.0416
  984SOL    HW2 2952   0.852   0.383   2.279 -1.9371  0.7681  1.2480
  985SOL     OW 2953   1.654   1.951   2.240 -0.4588 -0.5134 -0.1352
  985SOL    HW1 2954   1.575   1.912   2.188 -1.8106  1.9633  0.3800
  985SOL    HW2 2955   1.730   1.890   2.248  0.8012  1.0129 -0.4167
  986SOL     OW 2956   2.435   2.720   1.841 -0.2674  0.2995 -0.2173
  986SOL    HW1 2957   2.353   2.736   1.779  0.5577 -1.2681  1.5609
  986SOL    HW2 2958   2.476   2.803   1.883  0.8981  0.8500  1.2302
  987SOL     OW 2959   1.964   1.141   1.191 -0.1391 -0.2571 -0.4816
  987SOL    HW1 2960   2.005   1.218   1.142  2.2494 -1.9291 -0.2895
  987SOL    HW2 2961   1.896   1.094   1.132 -0.1099  1.5414  0.2789
  988SOL     OW 2962   2.715   1.692   2.343 -0.1094 -0.5250  0.3374
  988SOL    HW1 2963   2.698   1.762   2.418  0.7206  2.4020 -0.1557
  988SOL    HW2 2964   2.762   1.606   2.375  0.9064 -1.8001 -1.3988
  989SOL     OW 2965   1.204   2.367   0.300 -0.1655 -0.1280 -0.7548
  989SOL    HW1 2966   1.165   2.336   0.213  0.1260 -0.6167 -0.0684
  989SOL    HW2 2967   1.143   2.426   0.356  3.2047  1.1816  1.5737
  990SOL     OW 2968   2.070   0.512   3.025  0.2905 -0.1021  0.6212
  990SOL    HW1 2969   2.037   0.606   3.024  0.3920 -0.9855 -0.8501
  990SOL    HW2 2970   2.085   0.473   2.929 -1.4362  1.3292  2.9856
  991SOL     OW 2971   1.235   0.413   0.788  0.0126 -0.2319  0.4883
  991SOL    HW1 2972   1.207   0.434   0.696 -0.3001 -0.4676  2.8363
  991SOL    HW2 2973   1.164   0.435   0.857  1.8710  0.3077 -0.8464
  992SOL     OW 2974   2.424   0.939   1.195  0.0401  0.1181 -0.4216
  992SOL    HW1 2975   2.457   0.934   1.291 -0.2690  0.9621  0.0765
  992SOL    HW2 2976   2.481   0.886   1.132 -3.1655 -0.1011  1.8861
  993SOL     OW 2977   2.279   0.712   1.921 -0.1415 -0.2166 -0.8308
  993SOL    HW1 2978   2.360   0.771   1.922  0.9529 -1.3781  1.8533
  993SOL    HW2 2979   2.261   0.690   1.827  2.2455  1.3127  0.3336
  994SOL     OW 2980   0.975   1.633   2.622  0.3222  0.0116  0.2058
  994SOL    HW1 2981   0.987   1.732   2.604 -2.5103 -2.3276 -0.6034
  994SOL    HW2 2982   0.880   1.603   2.605  2.0532 -0.6522 -1.9333
  995SOL     OW 2983   2.099   1.183   3.070  0.4239 -0.4052 -0.3772
  995SOL    HW1 2984   2.039   1.252   3.119  0.6483  4.4949 -0.4226
  995SOL    HW2 2985   2.169   1.237   3.024 -1.5403 -1.4739  0.9757
  996SOL     OW 2986   2.084   2.112   0.617  0.3101 -0.4828 -0.0341
  996SOL    HW1 2987   2.010   2.071   0.670  0.0990  1.4416 -2.6255
  996SOL    HW2 2988   2.164   2.041   0.610  3.0809 -3.1434  1.5406
  997SOL     OW 2989   2.172   0.656   2.187 -0.0512 -0.0495  0.5517
  997SOL    HW1 2990   2.071   0.681   2.194  2.0093 -1.5319 -2.3095
  997SOL    HW2 2991   2.205   0.665   2.090  1.4197 -1.9993 -0.3943
  998SOL     OW 2992   2.600   1.198   0.662 -0.1057  0.1484  0.0232
  998SOL    HW1 2993   2.589   1.210   0.768 -1.9473  4.0653  3.4692
  998SOL    HW2 2994   2.534   1.254   0.614  0.1161 -0.3396 -1.1873
  999SOL     OW 2995   2.615   1.761   0.387 -0.0909  0.2628 -0.1902
  999SOL    HW1 2996   2.569   1.733   0.298  0.2305 -0.6148 -1.4221
  999SOL    HW2 2997   2.648   1.856   0.386 -1.3350 -0.6171  0.8174
 1000SOL     OW 2998   0.568   0.728   2.118  1.1813  0.0265 -0.2862
 1000SOL    HW1 2999   0.665   0.729   2.122 -3.4576  0.3759 -3.5231
 1000SOL    HW2 3000   0.526   0.700   2.208  0.4831 -0.3159  1.1862
   3.12792   3.12792   3.12792
