1000 SPC/Fw water molecules t= 116.00000 step= 116000
 3000
    1SOL     OW    1   2.057   2.226   0.739  0.1281 -0.6843  0.2662
    1SOL    HW1    2   2.069   2.264   0.646  0.3596  1.2398 -2.6306
    1SOL    HW2    3   2.140   2.175   0.761 -2.7244 -0.4063 -0.5600
    2SOL     OW    4   1.495   1.675   2.287 -0.2111 -0.2148 -0.0377
    2SOL    HW1    5   1.424   1.723   2.230 -0.8720  2.0675 -0.4260
    2SOL    HW2    6   1.469   1.580   2.305  1.0793  2.4720  0.7942
    3SOL     OW    7   1.423   2.399   2.324  0.0452 -0.1376  0.1857
    3SOL    HW1    8   1.452   2.437   2.232  1.2527  1.4771 -3.9081
    3SOL    HW2    9   1.447   2.301   2.337  1.5272 -2.1673  1.0498
    4SOL     OW   10   1.081   2.141   1.870 -0.4131 -0.2795  0.1574
    4SOL    HW1   11   0.987   2.107   1.898  1.1528 -1.7385 -1.6541
    4SOL    HW2   12   1.102   2.125   1.769 -1.2187  1.1419 -2.1071
    5SOL     OW   13   0.544   0.910   1.700 -0.5298  0.0391 -0.4050
    5SOL    HW1   14   0.621   0.973   1.726 -2.5073 -3.4499 -2.3750
    5SOL    HW2   15   0.554   0.821   1.746 -1.2980  1.3471  0.3773
    6SOL     OW   16   2.414   0.763   2.946 -0.0343 -0.5056  0.1530
    6SOL    HW1   17   2.327   0.722   2.910  0.3859 -1.7388  2.3070
    6SOL    HW2   18   2.498   0.712   2.921 -1.8366 -0.1693 -0.0532
    7SOL     OW   19   0.913   0.426   1.474  0.5714  0.3097  0.1163
    7SOL    HW1   20   1.006   0.387   1.501  1.4468 -0.1424  2.6984
    7SOL    HW2   21   0.922   0.473   1.383 -0.3717  1.4444 -1.8005
    8SOL     OW   22   1.465   0.207   1.869 -0.2538 -0.2222  0.4482
    8SOL    HW1   23   1.522   0.195   1.788 -2.8094  0.9914  1.2645
    8SOL    HW2   24   1.529   0.214   1.946  0.3373  0.4355 -0.1821
    9SOL     OW   25   0.393   0.668   0.612  0.2096  0.3908 -1.0120
    9SOL    HW1   26   0.477   0.656   0.670 -0.7668  0.4661  0.1756
    9SOL    HW2   27   0.380   0.773   0.606 -1.9233  3.1174 -0.3112
   10SOL     OW   28   0.619   2.596   2.515  0.0682  0.0124  0.1380
   10SOL    HW1   29   0.671   2.527   2.568 -0.8744  2.1764  1.5825
   10SOL    HW2   30   0.521   2.597   2.546 -1.0385 -0.2458  1.3797
   11SOL     OW   31   0.634   1.964   3.056 -0.2906  0.1174  0.3286
   11SOL    HW1   32   0.697   2.012   0.011  0.0999  2.7794  1.1194
   11SOL    HW2   33   0.635   1.862   3.080  1.9546  0.5617 -0.9081
   12SOL     OW   34   0.282   2.958   1.457 -0.0917 -0.1784 -0.0675
   12SOL    HW1   35   0.294   3.027   1.531  1.3210 -0.2389  0.3532
   12SOL    HW2   36   0.255   2.867   1.491 -0.2476  2.2211 -0.4261
   13SOL     OW   37   0.886   2.689   0.143 -0.1336 -0.3591  0.1133
   13SOL    HW1   38   0.979   2.699   0.100  2.9098  1.6695  1.0498
   13SOL    HW2   39   0.819   2.751   0.097  2.9057  0.1309  1.9942
   14SOL     OW   40   1.572   1.680   0.988  0.2027  0.4790 -0.3247
   14SOL    HW1   41   1.561   1.735   1.072  1.0276 -2.7244  0.7768
   14SOL    HW2   42   1.493   1.617   0.978 -0.9061 -0.3828  3.2556
   15SOL     OW   43   2.788   1.467   2.166  0.2099 -0.1038  0.2380
   15SOL    HW1   44   2.871   1.441   2.219 -0.7598 -3.4959  0.0944
   15SOL    HW2   45   2.703   1.426   2.203  3.4400 -1.2280 -1.7225
   16SOL     OW   46   1.288   2.944   3.057  0.2185  0.0484 -0.1383
   16SOL    HW1   47   1.248   2.861   3.093  1.5516  0.3511 -0.9730
   16SOL    HW2   48   1.260   2.971   2.963 -0.5287 -0.5175  0.5171
   17SOL     OW   49   0.461   2.132   1.953 -0.0422 -0.4273  0.1086
   17SOL    HW1   50   0.534   2.140   2.020 -0.3270 -1.3460 -3.3485
   17SOL    HW2   51   0.371   2.170   1.987 -0.5944 -0.7598 -0.7616
   18SOL     OW   52   1.767   0.754   0.160  0.6738  0.9159  0.0524
   18SOL    HW1   53   1.771   0.856   0.158  2.6098  0.0541  0.1706
   18SOL    HW2   54   1.688   0.714   0.109  1.1535  1.8300 -1.9435
   19SOL     OW   55   2.275   1.902   2.554 -0.1937  0.4277  0.1721
   19SOL    HW1   56   2.194   1.874   2.611  0.5405  0.0321 -2.0601
   19SOL    HW2   57   2.361   1.890   2.608  0.6597  0.8493  0.7171
   20SOL     OW   58   2.443   2.237   2.266 -1.3919  0.4621 -0.3427
   20SOL    HW1   59   2.373   2.206   2.338  3.5529  1.3991 -1.2740
   20SOL    HW2   60   2.528   2.280   2.315  1.7212 -0.9103  2.7071
   21SOL     OW   61   0.649   2.178   0.389  0.0670 -0.0527 -0.3161
   21SOL    HW1   62   0.587   2.190   0.309  2.0465  2.0543  2.2152
   21SOL    HW2   63   0.637   2.086   0.429 -0.8538  2.9187  0.4488
   22SOL     OW   64   2.350   2.415   1.278  0.0051  0.1299 -0.4683
   22SOL    HW1   65   2.445   2.395   1.316  1.1155  0.1916  1.1049
   22SOL    HW2   66   2.283   2.388   1.351  0.4151  1.4492  1.2979
   23SOL     OW   67   0.303   1.054   1.689 -0.1456 -0.4256 -0.4186
   23SOL    HW1   68   0.328   1.154   1.675 -2.9602 -0.5345  0.2883
   23SOL    HW2   69   0.384   0.999   1.689 -5.9882  3.7395  0.2029
   24SOL     OW   70   2.147   2.014   1.667 -0.1429  0.0428 -0.2230
   24SOL    HW1   71   2.131   1.914   1.645 -1.0905  1.3415 -0.7090
   24SOL    HW2   72   2.125   2.037   1.763  2.8809  0.1273 -0.9191
   25SOL     OW   73   1.908   0.303   2.585  0.0155  0.5703 -0.0451
   25SOL    HW1   74   1.966   0.383   2.561 -0.2752  0.0656  0.3029
   25SOL    HW2   75   1.868   0.258   2.500 -0.1915  0.5774  1.4103
   26SOL     OW   76   1.304   0.056   0.846  0.2202  1.0902  0.8885
   26SOL    HW1   77   1.387   0.045   0.795  0.0412  0.5936  1.0384
   26SOL    HW2   78   1.278   0.153   0.832  1.2553  0.6252  0.7119
   27SOL     OW   79   1.145   1.714   0.058  0.2307  0.1250 -0.3600
   27SOL    HW1   80   1.201   1.683   0.136  0.3008 -1.5387 -0.5007
   27SOL    HW2   81   1.052   1.677   0.068  3.1733  1.7089  0.2762
   28SOL     OW   82   2.876   1.752   1.332  0.5010  1.0152  0.3733
   28SOL    HW1   83   2.811   1.818   1.372  0.3293 -0.6304  0.0495
   28SOL    HW2   84   2.969   1.794   1.328  1.5099  0.1090 -1.4890
   29SOL     OW   85   2.134   2.761   1.824  0.0771  0.1889 -0.1938
   29SOL    HW1   86   2.176   2.762   1.921  1.9075  0.6739  0.1586
   29SOL    HW2   87   2.205   2.722   1.763 -0.2226 -1.1565 -0.0055
   30SOL     OW   88   0.997   2.771   1.129 -0.3765 -0.1196  0.7467
   30SOL    HW1   89   1.082   2.753   1.074  1.3961 -0.3424 -0.9061
   30SOL    HW2   90   0.926   2.834   1.086 -0.4509 -0.8240  0.0819
   31SOL     OW   91   2.937   2.112   1.896  0.1407  0.4980  0.2807
   31SOL    HW1   92   3.012   2.096   1.959  2.3782  0.3660 -0.7784
   31SOL    HW2   93   2.849   2.086   1.938 -0.6723  0.4933  0.6656
   32SOL     OW   94   1.519   1.346   2.076  0.2532  0.3156  0.0423
   32SOL    HW1   95   1.488   1.247   2.072 -1.6068 -2.1426 -1.1580
   32SOL    HW2   96   1.438   1.399   2.108 -0.2123  1.3884  0.5268
   33SOL     OW   97   0.246   0.051   2.750 -0.3214 -0.0965  0.7450
   33SOL    HW1   98   0.327   0.092   2.700  0.7119  0.0486 -0.6644
   33SOL    HW2   99   0.190   3.103   2.686 -0.0453  0.8906  0.5464
   34SOL     OW  100   1.882   0.284   1.614 -0.5740 -0.4554  0.2268
   34SOL    HW1  101   1.917   0.383   1.622 -1.3309 -0.2263 -2.3701
   34SOL    HW2  102   1.957   0.220   1.641  4.2362 -3.3706 -0.1833
   35SOL     OW  103   2.491   0.584   1.488  0.0097  0.3606  0.4644
   35SOL    HW1  104   2.544   0.558   1.575  4.4597 -0.5986  0.1759
   35SOL    HW2  105   2.501   0.683   1.471 -1.5427 -1.7937  1.5949
   36SOL     OW  106   2.395   3.007   2.426  0.1087 -0.2387  0.1822
   36SOL    HW1  107   2.316   2.943   2.406 -2.5020 -1.6106  0.0513
   36SOL    HW2  108   2.475   2.944   2.451  2.6224  1.0953  2.9789
   37SOL     OW  109   1.115   2.277   2.979 -0.0537 -0.8230  0.0767
   37SOL    HW1  110   1.044   2.266   3.054 -2.9605  0.6452  0.2396
   37SOL    HW2  111   1.147   2.185   2.946 -0.4646 -1.7256  0.8263
   38SOL     OW  112   2.935   0.967   2.791  0.4778 -0.5306 -0.1605
   38SOL    HW1  113   3.020   0.965   2.849  1.0174  1.4089 -1.3666
   38SOL    HW2  114   2.849   0.935   2.841  0.9100 -0.1520 -3.1089
   39SOL     OW  115   2.080   2.205   2.227 -0.3986 -0.5673  0.4478
   39SOL    HW1  116   2.037   2.118   2.195  2.0643 -1.0572  0.6520
   39SOL    HW2  117   2.129   2.200   2.316 -0.0377  0.3404  0.5456
   40SOL     OW  118   0.576   0.169   2.935 -0.3615 -0.0255  0.2680
   40SOL    HW1  119   0.548   0.116   3.013  2.9162 -0.4750 -1.0987
   40SOL    HW2  120   0.669   0.144   2.910 -3.3356  0.9305  2.1216
   41SOL     OW  121   1.436   1.121   1.472 -0.1110  0.6810 -0.6846
   41SOL    HW1  122   1.532   1.088   1.453 -3.1133 -0.8744 -0.2246
   41SOL    HW2  123   1.397   1.069   1.554  1.6714 -1.0996 -1.2964
   42SOL     OW  124   0.306   0.285   2.044  0.2276  0.1151 -0.1252
   42SOL    HW1  125   0.229   0.340   2.067  0.6521  0.9986 -2.4850
   42SOL    HW2  126   0.391   0.327   2.073 -2.2089  0.0768  0.1325
   43SOL     OW  127   1.725   1.394   2.244  0.2076  0.6014  0.4315
   43SOL    HW1  128   1.704   1.350   2.334  1.3668 -0.8909  0.8302
   43SOL    HW2  129   1.643   1.379   2.180 -0.3603  1.3588 -0.8784
   44SOL     OW  130   2.971   3.095   2.887 -0.7734 -0.4572  0.5526
   44SOL    HW1  131   3.055   3.104   2.947  0.3362 -2.5384  0.9032
   44SOL    HW2  132   2.903   3.027   2.927 -1.4978 -0.5682  2.7004
   45SOL     OW  133   0.886   2.074   1.304 -0.0370 -0.1905  0.1227
   45SOL    HW1  134   0.910   2.149   1.240  0.4119 -0.7420  0.7333
   45SOL    HW2  135   0.813   2.015   1.271  0.8064  0.8612 -0.0186
   46SOL     OW  136   2.497   2.817   1.852  0.9475  0.2965 -0.0702
   46SOL    HW1  137   2.596   2.812   1.824  1.5088 -1.4673 -0.7969
   46SOL    HW2  138   2.439   2.754   1.795  2.5342  0.5232  1.4369
   47SOL     OW  139   1.297   1.517   1.106  0.5093  0.1588  0.1502
   47SOL    HW1  140   1.314   1.588   1.176  1.3917 -1.0602 -0.9838
   47SOL    HW2  141   1.223   1.452   1.141  0.8885  0.8935 -2.2896
   48SOL     OW  142   0.238   2.015   0.445  0.0361  0.4051  0.1151
   48SOL    HW1  143   0.141   2.033   0.471  2.2740  0.7603  2.0136
   48SOL    HW2  144   0.298   2.013   0.528  2.3401 -1.6982  0.9146
   49SOL     OW  145   2.973   1.341   1.951  0.4650 -0.0863 -0.2953
   49SOL    HW1  146   3.025   1.424   1.921  0.4314 -1.5103 -1.4598
   49SOL    HW2  147   2.915   1.356   2.034 -2.1809 -2.4567  1.1639
   50SOL     OW  148   2.176   0.903   0.695 -0.2638 -0.6664 -0.1886
   50SOL    HW1  149   2.271   0.878   0.666 -0.9388 -0.4002  0.4225
   50SOL    HW2  150   2.137   0.964   0.618 -3.3673  0.6159 -2.1635
   51SOL     OW  151   1.137   0.756   0.607  0.3336  0.1745 -0.7133
   51SOL    HW1  152   1.049   0.807   0.612  1.4302  0.1193  0.1953
   51SOL    HW2  153   1.213   0.823   0.613 -0.7606  1.1116  0.6100
   52SOL     OW  154   1.318   1.030   0.209  0.7955  0.1999  0.1085
   52SOL    HW1  155   1.359   1.003   0.115  1.5783 -0.5329 -2.9840
   52SOL    HW2  156   1.357   0.980   0.288 -0.5323 -1.9423 -1.2140
   53SOL     OW  157   1.030   2.306   2.685  0.2672 -0.2938  0.0276
   53SOL    HW1  158   1.083   2.295   2.601  0.1314 -0.2168  0.9682
   53SOL    HW2  159   1.072   2.267   2.771  0.2388 -0.7188  0.3532
   54SOL     OW  160   1.607   0.844   1.602 -0.6112  0.0426 -0.1188
   54SOL    HW1  161   1.521   0.878   1.633  1.5157 -0.1071 -1.0264
   54SOL    HW2  162   1.605   0.837   1.500 -0.0857  1.1894 -0.0234
   55SOL     OW  163   2.483   2.853   0.516 -0.2516  0.1247  0.4170
   55SOL    HW1  164   2.391   2.816   0.533  0.1539 -0.0464 -1.9920
   55SOL    HW2  165   2.521   2.792   0.441 -2.3175  0.8459  1.3289
   56SOL     OW  166   0.916   2.459   1.543  0.0542  0.6175  0.0891
   56SOL    HW1  167   0.879   2.517   1.617  1.0830  2.2339  0.8103
   56SOL    HW2  168   0.903   2.503   1.451 -1.3137 -0.3370 -1.6792
   57SOL     OW  169   1.923   0.646   2.902  0.0895  0.1097  0.1940
   57SOL    HW1  170   1.871   0.729   2.881  0.0218 -1.4062 -0.7849
   57SOL    HW2  171   1.871   0.559   2.896 -0.6517 -2.6172 -0.4472
   58SOL     OW  172   2.846   1.311   1.707  0.1446 -0.0061  0.2200
   58SOL    HW1  173   2.904   1.316   1.785 -2.1452 -0.2790 -2.1217
   58SOL    HW2  174   2.748   1.326   1.741 -1.1124 -0.2860  1.6730
   59SOL     OW  175   0.552   2.875   2.208 -0.2316  0.0463 -0.2878
   59SOL    HW1  176   0.638   2.827   2.186  0.9442 -1.3462  0.4756
   59SOL    HW2  177   0.469   2.827   2.178 -0.9955  2.3251  2.5049
   60SOL     OW  178   2.764   2.187   0.727  0.3707 -0.7843  0.2596
   60SOL    HW1  179   2.829   2.137   0.788  0.2700 -0.1638 -0.4409
   60SOL    HW2  180   2.678   2.207   0.775 -0.3661  0.2048  0.2306
   61SOL     OW  181   0.914   2.113   0.407  0.7038  0.7498  0.2115
   61SOL    HW1  182   0.967   2.191   0.374  0.0697 -1.1624  0.1744
   61SOL    HW2  183   0.812   2.139   0.431 -4.9082  1.8358  0.5869
   62SOL     OW  184   2.115   2.721   2.841  0.3956 -0.6322 -0.2214
   62SOL    HW1  185   2.186   2.669   2.799 -2.1567  1.3926  1.2426
   62SOL    HW2  186   2.033   2.721   2.779 -3.0183 -0.0601  0.5701
   63SOL     OW  187   1.875   0.200   3.068  0.1236  0.2969  0.3451
   63SOL    HW1  188   1.840   0.105   3.074 -0.3345  3.7498  0.6046
   63SOL    HW2  189   1.953   0.202   3.001 -1.0247  0.4450  1.6372
   64SOL     OW  190   0.849   1.050   2.606  0.1328  0.3495  0.0485
   64SOL    HW1  191   0.904   0.959   2.613  0.3285  1.2286 -1.8625
   64SOL    HW2  192   0.752   1.038   2.648 -2.2395 -0.5558 -1.1488
   65SOL     OW  193   1.342   2.929   0.511 -0.3850  0.2028  0.0414
   65SOL    HW1  194   1.331   2.853   0.579 -0.2433  0.9139 -2.1611
   65SOL    HW2  195   1.422   2.921   0.450 -0.8082 -0.5887 -1.1380
   66SOL     OW  196   0.323   1.319   1.745 -0.8135  0.1319  0.0791
   66SOL    HW1  197   0.332   1.324   1.847  0.8006  0.3800 -2.2949
   66SOL    HW2  198   0.365   1.403   1.699  1.6984 -0.3124  1.6572
   67SOL     OW  199   2.198   3.085   2.021 -0.0825 -0.1183 -0.0246
   67SOL    HW1  200   2.213   3.072   1.917 -1.5445  0.5585 -2.1697
   67SOL    HW2  201   2.284   3.072   2.083  0.9227  0.4063  0.9185
   68SOL     OW  202   0.885   0.813   1.614 -0.2151  0.0955 -0.2677
   68SOL    HW1  203   0.835   0.726   1.602 -1.5089  0.0202 -0.7754
   68SOL    HW2  204   0.858   0.861   1.703 -0.3910 -0.2241 -0.3380
   69SOL     OW  205   2.105   2.947   0.493  0.4261 -0.0868 -0.8352
   69SOL    HW1  206   2.029   2.879   0.481  0.3689  0.2086  0.4552
   69SOL    HW2  207   2.084   3.029   0.443  2.0982 -3.5983  2.5118
   70SOL     OW  208   2.651   0.654   2.893 -0.5480 -0.4929 -0.6793
   70SOL    HW1  209   2.657   0.667   2.792 -1.9906  0.8527 -0.1279
   70SOL    HW2  210   2.648   0.553   2.913  0.3614  0.5034 -0.9099
   71SOL     OW  211   2.876   1.976   3.004  0.4574  0.2985  0.0409
   71SOL    HW1  212   2.836   1.887   3.037  2.3961  0.0581  2.1185
   71SOL    HW2  213   2.976   1.985   3.024  1.8555  4.2895  1.0528
   72SOL     OW  214   3.052   1.943   0.247 -0.4558 -0.3354  0.1207
   72SOL    HW1  215   2.976   1.998   0.210  0.8113 -0.1866  0.7062
   72SOL    HW2  216   3.078   1.964   0.340  1.3224 -3.1273 -0.2307
   73SOL     OW  217   0.942   0.916   0.500 -0.2448  0.1074 -0.2219
   73SOL    HW1  218   0.858   0.971   0.513 -0.8458 -2.5297  0.1266
   73SOL    HW2  219   0.942   0.881   0.402  1.9303  0.6050  1.4943
   74SOL     OW  220   0.043   2.070   2.067 -0.1260 -0.0511  0.0147
   74SOL    HW1  221   0.129   2.124   2.057  1.6804 -2.6556 -0.4982
   74SOL    HW2  222   0.073   1.979   2.097 -0.7371  1.3462 -0.8754
   75SOL     OW  223   1.908   1.485   1.478 -0.4097 -0.3091 -0.2666
   75SOL    HW1  224   1.835   1.471   1.410  0.2395 -0.0487  3.9317
   75SOL    HW2  225   1.877   1.468   1.578  0.2215  0.7497  3.5770
   76SOL     OW  226   2.015   2.375   0.994  0.2707  0.2807  0.6181
   76SOL    HW1  227   1.960   2.344   0.912 -1.5930 -2.3882  2.6002
   76SOL    HW2  228   2.100   2.423   0.966  1.5281 -1.8102  0.4142
   77SOL     OW  229   2.670   1.688   1.665 -0.0586  0.0676 -0.0088
   77SOL    HW1  230   2.612   1.655   1.744  1.4201 -1.3494 -0.1659
   77SOL    HW2  231   2.770   1.664   1.679  1.4142 -0.8885  0.2386
   78SOL     OW  232   1.452   0.599   0.477  0.0595  0.5106 -0.0577
   78SOL    HW1  233   1.371   0.577   0.534  2.5995 -1.3129  1.5920
   78SOL    HW2  234   1.526   0.534   0.491 -0.3589 -0.4855 -1.9593
   79SOL     OW  235   2.309   1.637   1.500  0.3834  0.4781  0.8051
   79SOL    HW1  236   2.327   1.703   1.569 -2.4602 -2.1385 -2.5084
   79SOL    HW2  237   2.398   1.588   1.483  0.3471  2.8387 -0.6287
   80SOL     OW  238   0.715   0.586   1.573 -0.5648 -0.1658 -0.8371
   80SOL    HW1  239   0.787   0.530   1.534  0.1298  0.5503 -0.2081
   80SOL    HW2  240   0.648   0.618   1.505  0.1246 -0.9604 -0.9734
   81SOL     OW  241   0.692   2.485   0.952 -0.5011 -0.3248 -0.4931
   81SOL    HW1  242   0.770   2.529   0.902 -0.2786 -0.5329 -0.3953
   81SOL    HW2  243   0.686   2.526   1.046 -0.2251 -1.8593 -0.9343
   82SOL     OW  244   1.305   3.084   1.880 -0.6646 -0.6103  0.1021
   82SOL    HW1  245   1.376   0.041   1.855  2.1415  1.0972  0.4135
   82SOL    HW2  246   1.248   0.004   1.954 -0.7338  0.4446 -0.1813
   83SOL     OW  247   1.002   1.885   0.605 -0.2768 -0.2437 -0.1004
   83SOL    HW1  248   1.075   1.949   0.574  1.5076  1.2353  1.3667
   83SOL    HW2  249   0.923   1.941   0.624  3.1747 -3.6455 -0.9838
   84SOL     OW  250   0.108   1.371   2.951 -0.0875 -0.4241  0.1051
   84SOL    HW1  251   0.067   1.316   3.027  1.8935 -0.4328  1.7083
   84SOL    HW2  252   0.075   1.470   2.961 -0.9513 -0.2503  0.2273
   85SOL     OW  253   0.247   2.438   0.875 -0.3398  0.5067  0.3208
   85SOL    HW1  254   0.207   2.439   0.783  3.0183  1.1326 -1.7471
   85SOL    HW2  255   0.327   2.378   0.881  1.8266 -1.1003  1.2098
   86SOL     OW  256   2.149   2.622   1.425 -0.4729  0.6027  1.0363
   86SOL    HW1  257   2.195   2.583   1.343  0.9530  0.9214 -0.8684
   86SOL    HW2  258   2.115   2.541   1.475 -0.8022  0.4158 -0.4992
   87SOL     OW  259   3.095   2.046   0.517 -0.0294 -0.3116 -0.8079
   87SOL    HW1  260   0.010   2.118   0.581 -0.4108  0.1644  1.9483
   87SOL    HW2  261   2.997   2.021   0.529 -1.8065 -0.3335 -3.5179
   88SOL     OW  262   0.972   0.542   1.223 -0.2562 -0.2839 -0.4462
   88SOL    HW1  263   0.890   0.554   1.165  0.6344 -1.5851  1.0818
   88SOL    HW2  264   1.047   0.596   1.179 -1.4121  1.4824 -0.5814
   89SOL     OW  265   1.102   2.809   1.876 -0.1494  0.4300 -0.2578
   89SOL    HW1  266   1.203   2.809   1.889 -0.5367 -0.0895 -0.5255
   89SOL    HW2  267   1.076   2.905   1.845 -3.0835  2.8464 -0.1020
   90SOL     OW  268   0.268   1.969   1.314  0.4277 -0.3810  0.4638
   90SOL    HW1  269   0.236   1.902   1.245  0.5018 -1.0115  0.0213
   90SOL    HW2  270   0.355   1.958   1.364  0.7423  0.0007  2.7225
   91SOL     OW  271   1.391   2.038   1.286  0.2198 -0.7197  0.3532
   91SOL    HW1  272   1.365   2.130   1.249 -0.1062 -0.7180  0.5258
   91SOL    HW2  273   1.447   2.042   1.373 -0.9526 -1.9364  0.3029
   92SOL     OW  274   2.815   3.062   1.482  0.3362 -0.0883  0.0414
   92SOL    HW1  275   2.771   3.094   1.393 -2.4363  0.9515  3.1873
   92SOL    HW2  276   2.886   0.015   1.511 -0.2727 -2.3406 -1.3618
   93SOL     OW  277   0.006   1.203   0.014 -0.4039  0.7640  0.0889
   93SOL    HW1  278   3.100   1.115   3.074  0.6548 -2.2681 -1.0095
   93SOL    HW2  279   0.004   1.177   0.115 -1.6707 -1.1552  2.6782
   94SOL     OW  280   2.825   2.531   2.051  0.1831 -0.0856 -0.6349
   94SOL    HW1  281   2.859   2.624   2.024 -1.5073 -1.7417  0.0885
   94SOL    HW2  282   2.756   2.498   1.988  1.1639  0.7474  0.3097
   95SOL     OW  283   1.587   0.590   2.050  0.3901 -0.6617 -0.2600
   95SOL    HW1  284   1.615   0.504   2.096  1.6398  1.1702 -1.0110
   95SOL    HW2  285   1.515   0.636   2.101  1.0331 -0.3457  0.0505
   96SOL     OW  286   2.602   0.546   1.785  0.5152 -0.1155 -0.9157
   96SOL    HW1  287   2.635   0.449   1.764 -1.3047 -1.1319 -1.7671
   96SOL    HW2  288   2.681   0.609   1.797  1.5476  2.4348  1.2344
   97SOL     OW  289   2.359   0.373   1.405  0.0425 -0.0669 -0.3584
   97SOL    HW1  290   2.343   0.337   1.498  2.2265  0.9958 -0.2095
   97SOL    HW2  291   2.416   0.459   1.410 -1.7888 -0.7240  1.2128
   98SOL     OW  292   2.198   2.933   1.254 -0.4034 -0.7529  0.4374
   98SOL    HW1  293   2.258   2.888   1.317  1.1274  0.9146 -0.0506
   98SOL    HW2  294   2.146   3.003   1.303  1.4571  0.7800 -0.1024
   99SOL     OW  295   2.896   0.294   2.206  0.0154  0.3192 -0.1746
   99SOL    HW1  296   2.994   0.265   2.233  2.2301 -2.2678 -0.9041
   99SOL    HW2  297   2.900   0.379   2.148 -0.2365 -0.3457 -0.8651
  100SOL     OW  298   2.386   1.815   1.683 -0.0873  0.1668  0.4853
  100SOL    HW1  299   2.340   1.801   1.767  3.0238 -1.3730 -5.2502
  100SOL    HW2  300   2.418   1.911   1.685 -1.1158 -2.4490 -0.8646
  101SOL     OW  301   1.657   2.981   0.759  0.0299  0.6478  0.2029
  101SOL    HW1  302   1.660   3.030   0.848  0.7649 -2.1442 -1.2563
  101SOL    HW2  303   1.576   3.006   0.698 -0.8965  1.7127  0.8394
  102SOL     OW  304   0.431   0.871   1.444 -0.4294  0.1133 -0.0277
  102SOL    HW1  305   0.482   0.792   1.406 -0.3251 -0.5605 -0.7914
  102SOL    HW2  306   0.457   0.893   1.539 -0.2332  2.5600 -3.9480
  103SOL     OW  307   2.733   0.238   0.059 -0.4219 -0.8852 -0.2428
  103SOL    HW1  308   2.743   0.212   3.074 -1.3370 -1.3947 -0.6068
  103SOL    HW2  309   2.637   0.271   0.078  2.8501  1.0391  0.0524
  104SOL     OW  310   2.777   0.214   1.977 -0.0364 -0.3990  0.3498
  104SOL    HW1  311   2.834   0.217   1.894  2.4051  0.8045 -2.1779
  104SOL    HW2  312   2.831   0.224   2.064  3.4241  0.2144 -0.9480
  105SOL     OW  313   1.830   0.932   2.248 -0.4760 -0.0770  0.0055
  105SOL    HW1  314   1.866   0.842   2.268 -0.4650  3.0678 -0.2490
  105SOL    HW2  315   1.895   1.006   2.264 -2.5241  0.6728  0.3605
  106SOL     OW  316   1.698   0.055   0.981  0.6705 -0.5589 -0.4212
  106SOL    HW1  317   1.776   0.101   1.028 -1.1484 -0.5215  0.7797
  106SOL    HW2  318   1.631   0.023   1.048  1.1105  0.4999 -2.1162
  107SOL     OW  319   0.762   1.148   0.814  0.2590 -0.0674  0.0794
  107SOL    HW1  320   0.665   1.122   0.835 -1.6881 -3.1612 -0.3038
  107SOL    HW2  321   0.797   1.230   0.866  1.4674  1.0979  1.8536
  108SOL     OW  322   2.925   0.537   2.459 -0.2678  0.9858 -0.4212
  108SOL    HW1  323   3.010   0.494   2.497 -0.6655 -0.7605  1.2452
  108SOL    HW2  324   2.842   0.483   2.491  0.0651 -1.0687 -0.0566
  109SOL     OW  325   1.972   0.246   0.195 -0.3446 -0.3744  0.1458
  109SOL    HW1  326   1.923   0.246   0.107  0.9405  0.6785 -0.5567
  109SOL    HW2  327   1.913   0.297   0.260  0.2603  0.6886 -3.4690
  110SOL     OW  328   0.015   1.856   2.790  0.1957  0.6123 -0.1743
  110SOL    HW1  329   0.024   1.904   2.881 -0.3981 -1.7384  1.0442
  110SOL    HW2  330   0.089   1.786   2.782 -1.6227  1.8862 -0.3746
  111SOL     OW  331   2.101   0.134   2.208 -0.9135 -0.3620 -0.4006
  111SOL    HW1  332   2.142   0.070   2.141  2.2875  0.7278  2.2337
  111SOL    HW2  333   2.169   0.160   2.281 -0.6555  0.8830  3.0613
  112SOL     OW  334   2.453   2.944   0.874 -0.8378  0.1973  0.4175
  112SOL    HW1  335   2.525   2.908   0.815 -1.2064  2.3313  1.1624
  112SOL    HW2  336   2.370   2.937   0.821  2.7150 -2.4563 -0.2026
  113SOL     OW  337   2.335   2.644   1.688 -0.2764  0.2438  0.4366
  113SOL    HW1  338   2.361   2.662   1.589 -0.9791 -0.6248 -3.3105
  113SOL    HW2  339   2.348   2.543   1.705  1.4459 -0.8768 -2.5983
  114SOL     OW  340   2.939   0.097   0.626 -0.2126  0.5523 -0.0462
  114SOL    HW1  341   3.032   0.126   0.658 -1.0467  1.8506 -1.6822
  114SOL    HW2  342   2.887   0.056   0.702  1.4808  1.9586 -0.3485
  115SOL     OW  343   2.771   1.740   3.049  0.3337 -0.3686  0.5112
  115SOL    HW1  344   2.833   1.675   2.995  0.6686  1.1341  0.6198
  115SOL    HW2  345   2.673   1.746   3.023  1.3673  2.1142 -0.2051
  116SOL     OW  346   0.059   1.540   1.907 -0.0338  0.4391  0.6409
  116SOL    HW1  347   0.007   1.611   1.956 -0.5461 -0.9770 -2.4709
  116SOL    HW2  348   0.124   1.595   1.853 -0.6677  1.0451  0.7641
  117SOL     OW  349   2.693   2.882   0.665  0.3011 -0.3182  0.6269
  117SOL    HW1  350   2.714   2.790   0.703 -1.2930  3.5276  0.5000
  117SOL    HW2  351   2.611   2.883   0.603  0.1451  0.2035 -1.9619
  118SOL     OW  352   0.449   2.391   1.586 -0.1558  0.3987 -0.3666
  118SOL    HW1  353   0.346   2.382   1.579 -0.2192 -0.2085 -0.7857
  118SOL    HW2  354   0.500   2.352   1.504 -2.4786 -0.4102 -0.8665
  119SOL     OW  355   1.674   2.150   1.077 -0.8055 -0.0726  0.9905
  119SOL    HW1  356   1.733   2.149   0.992  3.3563  0.9832 -1.7177
  119SOL    HW2  357   1.728   2.127   1.162  1.4943 -0.9761  0.9549
  120SOL     OW  358   0.665   2.197   2.132  0.1540 -0.4464 -0.7161
  120SOL    HW1  359   0.659   2.128   2.206  0.3566 -4.5899  0.0290
  120SOL    HW2  360   0.663   2.292   2.168 -0.7221 -1.3364  0.2270
  121SOL     OW  361   2.485   1.505   0.700 -0.4706 -0.2566 -0.1536
  121SOL    HW1  362   2.453   1.596   0.739 -2.3436  0.9532  0.3983
  121SOL    HW2  363   2.458   1.428   0.761  0.6648  3.6477  1.1575
  122SOL     OW  364   1.945   1.681   2.419 -0.6057 -0.7382  0.5203
  122SOL    HW1  365   1.897   1.669   2.333  1.2862 -1.3874 -0.0729
  122SOL    HW2  366   2.038   1.714   2.396  0.4209  0.7693 -0.9363
  123SOL     OW  367   2.821   3.069   0.812 -0.7072 -0.2577  0.0519
  123SOL    HW1  368   2.913   3.038   0.838 -1.8953  1.0861 -0.3885
  123SOL    HW2  369   2.779   2.999   0.751 -0.2872 -0.4862  3.2337
  124SOL     OW  370   1.427   1.145   2.756  0.1923 -0.6628 -0.1699
  124SOL    HW1  371   1.397   1.186   2.847 -3.5819 -1.9793  2.7325
  124SOL    HW2  372   1.529   1.149   2.735  0.8343 -1.3772 -0.4987
  125SOL     OW  373   0.183   1.600   2.475  0.2107  0.8352 -0.5231
  125SOL    HW1  374   0.272   1.644   2.469 -3.0060  1.9856  0.9850
  125SOL    HW2  375   0.194   1.514   2.530 -0.2134 -2.4536  0.3218
  126SOL     OW  376   2.855   2.093   0.146  0.3856  0.0998  0.8957
  126SOL    HW1  377   2.892   2.184   0.167 -0.6013 -1.6027 -0.8468
  126SOL    HW2  378   2.865   2.083   0.045  0.3258  0.0356 -0.3613
  127SOL     OW  379   0.485   1.862   1.017  0.2113 -0.2061  0.0003
  127SOL    HW1  380   0.461   1.778   1.067  3.4682  1.4383 -2.9460
  127SOL    HW2  381   0.403   1.914   0.983  1.4802 -1.3662  0.9421
  128SOL     OW  382   1.437   0.892   3.082 -0.5344  0.1429  0.0617
  128SOL    HW1  383   1.423   0.819   0.041  0.3166 -2.6297  2.2580
  128SOL    HW2  384   1.525   0.876   3.042 -1.8937 -0.0515 -1.2779
  129SOL     OW  385   2.376   1.914   1.383 -0.2561  0.3514 -0.2018
  129SOL    HW1  386   2.322   1.976   1.316 -0.3384 -0.5348 -2.2347
  129SOL    HW2  387   2.333   1.829   1.420  1.9556  0.3912 -1.1270
  130SOL     OW  388   1.906   1.332   0.379 -0.3247  0.3250  0.2230
  130SOL    HW1  389   1.992   1.302   0.328  1.3819  1.4581 -2.9261
  130SOL    HW2  390   1.908   1.343   0.480  0.0090 -0.4575  0.9936
  131SOL     OW  391   2.786   1.106   2.610  0.1057  1.0322 -0.1010
  131SOL    HW1  392   2.844   1.045   2.670 -0.3380  2.2238  0.2297
  131SOL    HW2  393   2.751   1.183   2.664 -2.5490 -3.0107  1.8394
  132SOL     OW  394   2.068   1.740   1.678 -0.1831 -0.1387 -0.2948
  132SOL    HW1  395   2.124   1.668   1.652 -2.7822  0.9915 -0.7426
  132SOL    HW2  396   2.034   1.730   1.774 -1.2831  0.7924 -2.4759
  133SOL     OW  397   0.300   1.289   0.026  0.5626  0.3080  0.1889
  133SOL    HW1  398   0.232   1.313   3.067 -1.7070  0.8445 -2.2931
  133SOL    HW2  399   0.253   1.250   0.110 -1.3356 -0.8490  0.5984
  134SOL     OW  400   2.637   1.442   0.008 -0.7455 -0.2771 -0.0904
  134SOL    HW1  401   2.718   1.382   3.111  3.2372 -0.3775  3.0127
  134SOL    HW2  402   2.662   1.505   0.086 -0.0863 -4.6477  0.6203
  135SOL     OW  403   2.559   1.145   0.375 -0.4367 -0.0368  0.4834
  135SOL    HW1  404   2.487   1.101   0.317 -0.9885 -3.6050 -1.5118
  135SOL    HW2  405   2.549   1.249   0.373  0.6112  2.3770  0.5397
  136SOL     OW  406   2.109   1.614   1.309  0.0626 -0.5529  0.5183
  136SOL    HW1  407   2.169   1.610   1.388 -1.6713 -3.0748 -2.1364
  136SOL    HW2  408   2.030   1.549   1.317 -1.5150 -0.4071 -0.8425
  137SOL     OW  409   2.617   2.034   0.281 -0.9492  0.0162 -0.6286
  137SOL    HW1  410   2.624   1.936   0.320 -1.4254  0.6672  1.8088
  137SOL    HW2  411   2.700   2.065   0.221  5.7002 -1.4497 -0.8049
  138SOL     OW  412   1.679   0.305   2.065 -0.2620 -0.3241  0.2318
  138SOL    HW1  413   1.677   0.204   2.080  0.7656 -1.0783  0.0270
  138SOL    HW2  414   1.773   0.339   2.036  1.3650  2.4380 -3.9605
  139SOL     OW  415   2.423   0.156   0.170  0.0628 -0.2601  0.3479
  139SOL    HW1  416   2.431   0.139   0.269  0.1513  1.7217 -1.3820
  139SOL    HW2  417   2.422   0.068   0.115 -2.8262 -1.9236  0.0628
  140SOL     OW  418   1.281   2.125   2.623  0.5930  0.4480  0.4665
  140SOL    HW1  419   1.288   2.044   2.563  1.4910 -2.4989 -0.6840
  140SOL    HW2  420   1.240   2.096   2.710  0.8359  0.3913 -3.3588
  141SOL     OW  421   0.984   0.958   2.059 -0.2048 -0.1596  0.4366
  141SOL    HW1  422   0.922   0.950   2.137 -0.6485 -0.4385 -2.1955
  141SOL    HW2  423   1.047   0.882   2.053 -0.3118  1.5412 -0.2662
  142SOL     OW  424   2.168   2.606   3.098 -0.2502 -0.1148 -0.2342
  142SOL    HW1  425   2.162   2.653   3.008 -2.6334 -0.5965  2.3717
  142SOL    HW2  426   2.239   2.533   3.098 -1.9034 -3.8219 -0.2878
  143SOL     OW  427   0.774   2.062   0.154  0.3451  0.6511 -0.4765
  143SOL    HW1  428   0.824   1.979   0.181  0.5359  1.3760  1.2019
  143SOL    HW2  429   0.719   2.101   0.228  0.4030 -0.4638 -4.7395
  144SOL     OW  430   1.229   2.566   0.248  0.5390 -0.0709  0.1673
  144SOL    HW1  431   1.179   2.627   0.185  1.6087  1.0439 -0.0969
  144SOL    HW2  432   1.163   2.497   0.293  0.2037 -2.4489  0.2943
  145SOL     OW  433   2.134   1.891   2.811 -0.0162  0.2109  0.8679
  145SOL    HW1  434   2.223   1.926   2.854  1.0035  1.0916 -0.2397
  145SOL    HW2  435   2.046   1.916   2.861  1.8488  1.1016  3.3615
  146SOL     OW  436   2.501   2.796   2.600  0.6007  0.7513 -0.4119
  146SOL    HW1  437   2.411   2.842   2.612  0.0237 -1.4608  0.6478
  146SOL    HW2  438   2.578   2.834   2.651  2.5878 -0.1898  1.0433
  147SOL     OW  439   2.819   1.561   1.163  0.3931 -0.1503 -0.3628
  147SOL    HW1  440   2.839   1.638   1.236  0.0355  4.1486  4.0377
  147SOL    HW2  441   2.720   1.546   1.152  0.1558 -1.9086  1.0955
  148SOL     OW  442   1.796   3.047   3.091 -0.3852 -0.3340  0.1445
  148SOL    HW1  443   1.707   3.054   3.044  0.1423 -1.5656 -0.3128
  148SOL    HW2  444   1.785   3.036   0.078 -0.3163 -2.6695 -1.7439
  149SOL     OW  445   0.827   1.388   2.846  0.1845 -0.1929  0.2065
  149SOL    HW1  446   0.765   1.310   2.868 -2.9299 -0.7813 -0.5944
  149SOL    HW2  447   0.790   1.441   2.768  1.2616 -1.5026  1.6231
  150SOL     OW  448   0.475   2.253   0.613 -0.2025 -0.2092  0.3281
  150SOL    HW1  449   0.514   2.268   0.704 -3.7600  1.7027 -1.6724
  150SOL    HW2  450   0.435   2.159   0.613 -1.2464 -0.0285  0.4306
  151SOL     OW  451   0.633   1.695   3.113 -0.0283 -0.4105 -0.3034
  151SOL    HW1  452   0.600   1.663   0.089 -0.7949 -0.4623 -1.3626
  151SOL    HW2  453   0.589   1.630   3.050  3.2302  0.2299  2.3584
  152SOL     OW  454   2.803   1.492   0.450 -0.1626  0.3133  0.1557
  152SOL    HW1  455   2.705   1.500   0.421 -1.3402  2.1178 -0.9609
  152SOL    HW2  456   2.822   1.398   0.491 -3.2158 -0.4658  1.2640
  153SOL     OW  457   2.089   2.313   0.455 -0.0988 -0.5897 -0.3326
  153SOL    HW1  458   1.998   2.283   0.429  4.2536 -1.1210  1.1776
  153SOL    HW2  459   2.101   2.414   0.450 -0.4411  1.7690  0.3073
  154SOL     OW  460   0.709   2.738   0.592  0.3003  0.3143  0.0894
  154SOL    HW1  461   0.719   2.836   0.629  2.0637  1.4341 -0.3704
  154SOL    HW2  462   0.609   2.711   0.602 -2.1828 -0.7159 -0.5418
  155SOL     OW  463   0.285   2.037   0.896  0.1392 -0.3975 -0.2808
  155SOL    HW1  464   0.341   2.085   0.965 -0.2832  0.4148 -2.5567
  155SOL    HW2  465   0.188   2.059   0.910  2.6714  0.0357  2.5220
  156SOL     OW  466   2.342   2.414   0.016 -0.6758 -0.1635 -0.0289
  156SOL    HW1  467   2.428   2.383   3.082  0.1077 -2.1286 -1.1962
  156SOL    HW2  468   2.339   2.378   0.113  0.6908  0.1481  1.8801
  157SOL     OW  469   1.019   1.638   1.401 -0.2957 -0.6300 -0.3655
  157SOL    HW1  470   1.038   1.728   1.449  2.3721 -1.4596  0.2747
  157SOL    HW2  471   0.977   1.651   1.306  2.1297  0.4202 -0.4150
  158SOL     OW  472   1.591   0.448   0.225 -0.3480  0.3004  0.5963
  158SOL    HW1  473   1.525   0.520   0.204 -0.3167  0.9454  1.3671
  158SOL    HW2  474   1.563   0.357   0.189 -1.9187  3.8570  1.4262
  159SOL     OW  475   1.025   0.586   3.060 -0.2515 -0.0163  0.2034
  159SOL    HW1  476   1.121   0.585   3.029 -0.8231 -1.8339 -0.0161
  159SOL    HW2  477   1.006   0.597   0.047 -2.1825  2.4638  1.7917
  160SOL     OW  478   1.051   1.461   0.292  0.1770  0.2298 -0.0307
  160SOL    HW1  479   1.115   1.540   0.307  0.0571 -0.7943  1.6178
  160SOL    HW2  480   0.989   1.441   0.369  2.0197  0.5643  0.5834
  161SOL     OW  481   0.245   2.101   2.672  0.6546  0.0919 -0.3039
  161SOL    HW1  482   0.177   2.131   2.745 -2.6929 -0.3406 -0.2508
  161SOL    HW2  483   0.202   2.077   2.581  2.0842 -1.9644  0.3460
  162SOL     OW  484   0.494   2.315   0.869 -0.9769 -0.5507  0.2267
  162SOL    HW1  485   0.572   2.378   0.891  1.4691  0.7339 -0.1242
  162SOL    HW2  486   0.480   2.254   0.947  1.0032  3.1910 -1.1758
  163SOL     OW  487   0.032   0.492   3.035 -0.4047 -0.8447  0.6525
  163SOL    HW1  488   0.119   0.495   2.980 -1.6851  0.8655 -2.0299
  163SOL    HW2  489   0.055   0.519   0.015  0.8744  0.1398 -1.6152
  164SOL     OW  490   0.473   0.183   2.666  0.5956  0.0976 -0.4197
  164SOL    HW1  491   0.517   0.188   2.757  0.1372  1.6318 -0.7532
  164SOL    HW2  492   0.543   0.140   2.606  0.4205  0.6384  1.4572
  165SOL     OW  493   2.256   0.665   1.621  0.2093  0.2727 -0.1690
  165SOL    HW1  494   2.278   0.643   1.716 -0.1093  2.1770 -1.9483
  165SOL    HW2  495   2.330   0.627   1.563 -0.5746 -2.7893  3.2500
  166SOL     OW  496   2.093   2.861   1.561  0.0249  0.1403 -0.0201
  166SOL    HW1  497   2.109   2.850   1.662  1.0898 -2.5383  1.4815
  166SOL    HW2  498   2.110   2.771   1.518 -1.6876  1.7015  0.4887
  167SOL     OW  499   1.073   0.472   1.998 -0.3064 -0.8087  0.9254
  167SOL    HW1  500   1.042   0.450   2.095 -0.8952  4.2134 -1.4200
  167SOL    HW2  501   1.176   0.466   1.981  1.6334 -1.4734  0.0691
  168SOL     OW  502   2.493   0.231   2.108  0.4019 -0.1263 -0.2461
  168SOL    HW1  503   2.557   0.242   2.033 -2.2080 -1.1065  2.9107
  168SOL    HW2  504   2.460   0.139   2.120 -0.9759  1.0284  0.5216
  169SOL     OW  505   0.204   1.255   0.289  0.1849 -0.4911  0.3216
  169SOL    HW1  506   0.201   1.326   0.361  1.1167  0.2413 -2.4524
  169SOL    HW2  507   0.110   1.208   0.283 -2.2588 -0.7581  1.3092
  170SOL     OW  508   0.215   1.657   1.715 -0.6811  0.5389  0.0461
  170SOL    HW1  509   0.202   1.756   1.711  2.2696 -1.6171 -2.0201
  170SOL    HW2  510   0.135   1.615   1.669  0.2331  0.1195  0.2149
  171SOL     OW  511   1.022   2.453   2.225  0.1867 -0.0275  0.0843
  171SOL    HW1  512   1.115   2.475   2.261 -0.3150 -0.0891 -1.2102
  171SOL    HW2  513   1.032   2.438   2.123  0.8598  0.2699 -1.9585
  172SOL     OW  514   0.800   2.706   1.635  0.2878  0.0684  0.0113
  172SOL    HW1  515   0.798   2.682   1.736 -0.4318  0.8923  0.2624
  172SOL    HW2  516   0.707   2.686   1.591  0.3929  1.4529 -0.6048
  173SOL     OW  517   1.445   2.261   0.986 -0.3498  0.0458  0.3054
  173SOL    HW1  518   1.430   2.358   0.952 -0.4346 -1.5991 -1.7096
  173SOL    HW2  519   1.546   2.239   1.002  0.9937 -0.1684  0.7042
  174SOL     OW  520   1.555   0.343   0.558 -0.7210  0.2484 -0.6025
  174SOL    HW1  521   1.561   0.315   0.653  0.0576 -2.2482 -0.3845
  174SOL    HW2  522   1.589   0.271   0.492 -0.0166  1.2453 -2.6736
  175SOL     OW  523   1.211   1.221   0.381 -0.7057  0.1125  0.1044
  175SOL    HW1  524   1.256   1.176   0.298  0.4176 -2.2833 -2.2300
  175SOL    HW2  525   1.136   1.281   0.352  0.1761  1.0744 -0.4458
  176SOL     OW  526   1.455   0.872   0.392 -0.5860  0.3743 -0.3812
  176SOL    HW1  527   1.517   0.923   0.455  0.2359  0.1813  0.5168
  176SOL    HW2  528   1.464   0.773   0.413  1.3262  2.7189 -3.5465
  177SOL     OW  529   1.282   0.787   1.293 -0.0090 -0.6814  0.6911
  177SOL    HW1  530   1.188   0.787   1.336 -4.1139 -0.8795  0.2378
  177SOL    HW2  531   1.334   0.877   1.291  2.6472 -0.9424  0.8936
  178SOL     OW  532   2.423   1.612   3.074 -0.3621  0.1444  0.6674
  178SOL    HW1  533   2.495   1.544   3.097 -0.5291 -0.2740 -1.9077
  178SOL    HW2  534   2.406   1.618   2.967 -2.1084 -0.7045 -3.4989
  179SOL     OW  535   0.476   2.473   0.021 -0.6012  0.4355 -0.3992
  179SOL    HW1  536   0.544   2.543   3.109 -0.3682  1.8278  0.5844
  179SOL    HW2  537   0.507   2.421   0.106 -1.0842 -0.1366  0.1358
  180SOL     OW  538   1.923   1.673   1.904  0.2136  0.2115  0.3066
  180SOL    HW1  539   1.917   1.623   1.998 -1.4742 -1.1643 -2.7409
  180SOL    HW2  540   1.886   1.622   1.827 -0.9291  1.5972 -3.0365
  181SOL     OW  541   1.308   1.224   2.224  0.1582 -0.0948  0.0083
  181SOL    HW1  542   1.265   1.204   2.129 -0.6809 -1.4825 -0.1867
  181SOL    HW2  543   1.279   1.156   2.295  1.1932  1.3451  0.8052
  182SOL     OW  544   2.958   1.147   2.392 -0.4174 -0.4646 -0.1959
  182SOL    HW1  545   2.932   1.224   2.328  0.1654  0.8702 -0.0059
  182SOL    HW2  546   2.886   1.141   2.463  1.4811  0.4525  2.7336
  183SOL     OW  547   1.762   0.522   2.308 -0.8313 -0.0555  0.0855
  183SOL    HW1  548   1.788   0.615   2.278 -0.3225  1.5269  2.5690
  183SOL    HW2  549   1.703   0.523   2.391 -1.4929  0.8188  0.5469
  184SOL     OW  550   0.264   0.493   1.682 -0.3883 -0.6571 -0.2314
  184SOL    HW1  551   0.363   0.481   1.695 -1.3077  1.1296  1.1053
  184SOL    HW2  552   0.248   0.578   1.626 -3.6200 -0.3789  0.8088
  185SOL     OW  553   2.347   1.780   0.556  0.5594  0.2229 -0.6724
  185SOL    HW1  554   2.324   1.878   0.537  1.9341  2.6640 -0.5852
  185SOL    HW2  555   2.397   1.738   0.475  1.3742  2.6254  1.1443
  186SOL     OW  556   0.589   1.768   2.706  0.3991 -0.0633  0.0302
  186SOL    HW1  557   0.650   1.846   2.726  0.1827 -1.9383  2.9157
  186SOL    HW2  558   0.491   1.785   2.693  0.1463 -0.5476 -1.9823
  187SOL     OW  559   2.323   1.982   2.988  0.8188  0.3201 -0.4414
  187SOL    HW1  560   2.312   1.916   3.070 -0.3157  0.3192  1.2327
  187SOL    HW2  561   2.421   2.006   2.973 -0.0548  1.7054 -0.3015
  188SOL     OW  562   0.728   2.399   0.524 -0.1372 -0.0375 -0.5281
  188SOL    HW1  563   0.687   2.493   0.523 -1.3267 -0.0872  0.9494
  188SOL    HW2  564   0.679   2.333   0.459  0.2182  0.3876 -1.1972
  189SOL     OW  565   2.217   0.613   2.832 -0.2069  0.0323  0.4800
  189SOL    HW1  566   2.118   0.634   2.853 -4.4090  3.7990 -1.1417
  189SOL    HW2  567   2.228   0.579   2.739 -0.1516  1.8416  1.8967
  190SOL     OW  568   1.073   2.023   2.246  0.5196 -0.1233  0.2625
  190SOL    HW1  569   1.094   2.114   2.206  0.4870 -1.0939 -1.7295
  190SOL    HW2  570   1.013   2.028   2.329 -2.1723 -3.8210 -0.4795
  191SOL     OW  571   2.483   0.853   1.440 -0.3402 -0.0819 -0.6507
  191SOL    HW1  572   2.528   0.938   1.475 -0.7013 -0.9039  1.0398
  191SOL    HW2  573   2.423   0.870   1.359  0.4125  0.8069  1.2950
  192SOL     OW  574   2.107   0.463   2.170  0.0338 -0.7089 -0.3296
  192SOL    HW1  575   2.204   0.483   2.143 -0.1797 -1.9149  0.9203
  192SOL    HW2  576   2.106   0.373   2.216 -0.8539 -1.0391 -0.3021
  193SOL     OW  577   0.164   0.301   0.896 -0.6757 -0.3117  0.2142
  193SOL    HW1  578   0.188   0.231   0.961 -0.9233  0.1537 -2.8021
  193SOL    HW2  579   0.149   0.391   0.942 -0.6989  1.3957 -0.5085
  194SOL     OW  580   1.339   2.542   1.568 -0.0814  0.1616 -0.5125
  194SOL    HW1  581   1.303   2.605   1.497  3.2328 -0.3767  0.4145
  194SOL    HW2  582   1.438   2.566   1.577  0.5419  1.9533 -0.6308
  195SOL     OW  583   2.730   0.675   0.826 -0.2132 -0.0311 -0.3092
  195SOL    HW1  584   2.662   0.600   0.812  0.1021 -0.5317 -1.3387
  195SOL    HW2  585   2.679   0.758   0.853 -2.4211 -0.7583 -0.2354
  196SOL     OW  586   1.234   1.752   1.703  0.2911 -0.0120  0.3035
  196SOL    HW1  587   1.172   1.808   1.643 -1.4368  0.9867 -2.7292
  196SOL    HW2  588   1.323   1.742   1.651  1.8940 -0.4488 -0.3006
  197SOL     OW  589   0.312   0.412   2.617  0.3917 -0.3963  0.1220
  197SOL    HW1  590   0.360   0.333   2.654 -1.5175  3.5376  0.5421
  197SOL    HW2  591   0.285   0.475   2.695 -0.5739  1.5036  0.4719
  198SOL     OW  592   1.154   1.074   0.593 -0.0839  0.6107 -0.3096
  198SOL    HW1  593   1.197   1.121   0.516 -1.7195 -2.0888 -0.0054
  198SOL    HW2  594   1.066   1.035   0.559 -0.0636 -0.3233 -0.0071
  199SOL     OW  595   2.326   0.609   1.866 -0.6579 -0.0273 -0.4531
  199SOL    HW1  596   2.309   0.591   1.969  0.6579 -0.5580  3.8315
  199SOL    HW2  597   2.426   0.600   1.839  1.0782 -1.8255  4.1139
  200SOL     OW  598   2.494   2.791   2.171 -0.2147  0.1171 -0.1753
  200SOL    HW1  599   2.589   2.799   2.209 -0.3126 -0.0946 -0.4385
  200SOL    HW2  600   2.483   2.836   2.084  2.3520  1.2785  1.9161
  201SOL     OW  601   2.318   0.345   1.732 -0.0836  0.6094  0.8832
  201SOL    HW1  602   2.350   0.432   1.770  2.0866 -1.1196 -0.0714
  201SOL    HW2  603   2.227   0.312   1.770  0.9814 -0.3447  1.1369
  202SOL     OW  604   2.145   2.936   0.154 -0.4198  0.3707  0.3956
  202SOL    HW1  605   2.109   3.015   0.204  0.2115 -1.6005 -1.8178
  202SOL    HW2  606   2.101   2.929   0.061  0.0587 -0.4498 -2.6681
  203SOL     OW  607   0.869   2.281   2.371  0.6624 -0.5807 -0.2591
  203SOL    HW1  608   0.903   2.213   2.436  1.3806  0.6498  2.3071
  203SOL    HW2  609   0.946   2.329   2.331  0.9812  1.6704  3.1032
  204SOL     OW  610   1.011   1.188   2.789 -0.5515 -0.4708 -0.5093
  204SOL    HW1  611   0.956   1.268   2.817 -4.3442  3.6724 -1.5154
  204SOL    HW2  612   0.958   1.113   2.738  1.5890 -1.2932 -1.8492
  205SOL     OW  613   0.932   0.943   1.149  0.1909 -0.0027  0.3516
  205SOL    HW1  614   0.956   0.883   1.230  0.3845  0.2638  1.3114
  205SOL    HW2  615   1.008   1.007   1.128 -0.7055 -1.3001  0.0702
  206SOL     OW  616   0.639   0.488   2.827  0.0788  0.4527  0.5840
  206SOL    HW1  617   0.636   0.410   2.758  2.3073 -0.2659 -1.4797
  206SOL    HW2  618   0.554   0.493   2.882  1.9097  0.4498 -2.2390
  207SOL     OW  619   1.644   2.721   2.037  0.8922 -0.2020 -0.0108
  207SOL    HW1  620   1.705   2.766   2.104  4.0650  0.1568  0.4177
  207SOL    HW2  621   1.662   2.769   1.947 -1.4118 -0.6162  0.0488
  208SOL     OW  622   0.907   2.570   1.295  0.1957  0.3509  0.1645
  208SOL    HW1  623   0.937   2.649   1.240  2.4985  1.4744  0.1911
  208SOL    HW2  624   0.917   2.482   1.245  3.8739  0.5745  2.1515
  209SOL     OW  625   1.491   1.478   2.703 -0.9580  0.3431  0.4831
  209SOL    HW1  626   1.559   1.436   2.768  1.1602 -0.1307 -0.0290
  209SOL    HW2  627   1.473   1.426   2.617  2.6017 -0.4103 -2.0399
  210SOL     OW  628   1.945   0.856   0.893  0.4352  0.2638 -0.4581
  210SOL    HW1  629   1.954   0.883   0.994 -0.7006  0.5995 -0.7599
  210SOL    HW2  630   2.034   0.839   0.842  0.3410 -2.4695  1.5723
  211SOL     OW  631   1.005   2.476   0.567  0.1031 -0.1110 -0.8043
  211SOL    HW1  632   1.018   2.565   0.514 -2.1758  1.0525 -2.5675
  211SOL    HW2  633   0.910   2.444   0.562  2.4058 -0.0302 -0.9664
  212SOL     OW  634   2.006   1.819   0.305  0.0520  0.2382 -0.0143
  212SOL    HW1  635   1.977   1.853   0.210  0.4327  1.5860 -0.5249
  212SOL    HW2  636   2.051   1.893   0.359  0.8801  1.6133 -0.6817
  213SOL     OW  637   1.741   0.424   2.963  0.1872 -0.4615 -0.3264
  213SOL    HW1  638   1.791   0.367   3.030 -1.3695 -0.3471  0.4848
  213SOL    HW2  639   1.697   0.368   2.888 -0.1515 -0.1405  0.0701
  214SOL     OW  640   1.205   1.724   1.969 -0.0189 -0.3853  0.1056
  214SOL    HW1  641   1.116   1.761   1.990  0.1411 -1.6403 -1.2360
  214SOL    HW2  642   1.213   1.704   1.867  0.3014 -0.3647 -2.5564
  215SOL     OW  643   0.635   1.870   0.390 -0.2662  0.1630  0.1252
  215SOL    HW1  644   0.726   1.837   0.349  4.4039  0.1344 -0.3249
  215SOL    HW2  645   0.554   1.809   0.366 -2.1607 -3.3885  1.5585
  216SOL     OW  646   0.136   2.943   2.604 -0.0577  0.2282 -0.0465
  216SOL    HW1  647   0.239   2.923   2.609 -1.5942  1.9283 -1.0393
  216SOL    HW2  648   0.092   2.891   2.523 -1.6681 -1.3259 -2.8676
  217SOL     OW  649   2.517   0.714   1.125  1.0649 -0.5804  0.2328
  217SOL    HW1  650   2.474   0.623   1.102 -0.1925  3.0782  0.7811
  217SOL    HW2  651   2.605   0.701   1.173  0.2586  2.3618 -2.4022
  218SOL     OW  652   1.714   1.871   2.330  0.3841  0.3299  0.2583
  218SOL    HW1  653   1.636   1.813   2.317  2.2052  3.0859  0.2355
  218SOL    HW2  654   1.727   1.898   2.430 -0.9277 -2.6655  0.3154
  219SOL     OW  655   2.029   1.597   0.011 -0.3680  0.4100  0.3586
  219SOL    HW1  656   1.966   1.609   3.044  2.0219  1.6939 -1.0875
  219SOL    HW2  657   1.976   1.615   0.093  0.2626 -1.2981 -1.1386
  220SOL     OW  658   1.636   0.979   0.541 -0.3364 -0.4072 -0.5329
  220SOL    HW1  659   1.701   0.906   0.506 -1.5106  1.4262 -0.6740
  220SOL    HW2  660   1.646   1.068   0.493  1.1498 -1.7819 -1.1730
  221SOL     OW  661   0.367   0.639   3.047  0.7280 -0.0563 -0.6043
  221SOL    HW1  662   0.344   0.648   0.033 -2.3133  0.5595  1.6404
  221SOL    HW2  663   0.368   0.544   3.014 -0.4342  1.1103 -1.4880
  222SOL     OW  664   1.437   1.352   0.189 -0.4418 -0.3475  0.5698
  222SOL    HW1  665   1.484   1.443   0.203 -1.0075 -0.4160  0.2106
  222SOL    HW2  666   1.338   1.370   0.176  1.5837  0.7989 -0.5522
  223SOL     OW  667   1.118   0.230   0.147  0.2789  0.1133 -0.1531
  223SOL    HW1  668   1.018   0.242   0.132  1.3888 -0.3269  1.1565
  223SOL    HW2  669   1.144   0.273   0.234  0.5654  1.9938 -1.5868
  224SOL     OW  670   2.047   3.112   1.408 -0.0299 -0.0808  0.0143
  224SOL    HW1  671   1.972   3.093   1.345  0.4769 -1.6558  1.3204
  224SOL    HW2  672   2.046   3.043   1.481  3.1475  1.1537 -0.4483
  225SOL     OW  673   0.460   2.402   1.235  0.1518 -0.0091 -0.4769
  225SOL    HW1  674   0.497   2.330   1.301  4.3331 -2.2708  0.6884
  225SOL    HW2  675   0.525   2.482   1.236 -1.6047 -1.5687  1.3017
  226SOL     OW  676   1.142   1.358   0.067  0.1603  0.3613  0.1155
  226SOL    HW1  677   1.132   1.415   3.100 -0.7614 -2.2260  1.6077
  226SOL    HW2  678   1.094   1.396   0.150  0.0329  0.0800  0.6018
  227SOL     OW  679   1.062   1.374   0.836  0.1804 -0.2899 -0.2537
  227SOL    HW1  680   1.145   1.431   0.826 -0.6326  0.1848  1.3712
  227SOL    HW2  681   1.090   1.276   0.862  1.5773 -3.0265  1.2991
  228SOL     OW  682   0.378   1.771   0.423  0.6734 -0.0069  0.1049
  228SOL    HW1  683   0.400   1.752   0.519  0.1445 -2.2984 -3.4347
  228SOL    HW2  684   0.319   1.852   0.418 -1.2967 -0.3232  0.9418
  229SOL     OW  685   1.551   0.192   2.966  0.1155 -0.2063 -0.3961
  229SOL    HW1  686   1.595   0.205   2.874  2.5389  1.3179  0.4583
  229SOL    HW2  687   1.460   0.239   2.966  0.5948 -1.8015  0.3699
  230SOL     OW  688   1.458   0.862   2.756 -0.4849  0.5037  0.0331
  230SOL    HW1  689   1.507   0.910   2.679  2.1988 -1.6943  0.0419
  230SOL    HW2  690   1.390   0.925   2.794 -0.5948  1.2239 -0.1590
  231SOL     OW  691   1.052   1.692   2.594  0.0237  0.6572  0.3891
  231SOL    HW1  692   1.118   1.643   2.655  1.9011 -2.8135  1.7559
  231SOL    HW2  693   0.999   1.621   2.540  0.6251 -1.7376 -0.4406
  232SOL     OW  694   2.281   2.281   0.252  0.2578 -0.3681  0.0029
  232SOL    HW1  695   2.201   2.303   0.309 -0.3325 -0.1792 -0.8716
  232SOL    HW2  696   2.303   2.184   0.245  0.9916  2.5621  0.0717
  233SOL     OW  697   2.471   2.485   0.308 -0.2661  0.2551  0.9483
  233SOL    HW1  698   2.394   2.552   0.312 -1.2046  1.5546  0.0130
  233SOL    HW2  699   2.435   2.389   0.291 -0.9528 -0.9039 -0.3682
  234SOL     OW  700   0.738   0.763   2.884 -0.1107  0.0226 -0.2179
  234SOL    HW1  701   0.728   0.673   2.842  1.9760  0.9507  1.3656
  234SOL    HW2  702   0.834   0.777   2.924 -0.7254 -0.6612  2.0907
  235SOL     OW  703   2.813   0.258   2.662 -0.1310  0.0639 -0.1962
  235SOL    HW1  704   2.756   0.236   2.744  1.8327  0.7224 -2.5733
  235SOL    HW2  705   2.821   0.177   2.602  1.9630 -0.3467  1.2608
  236SOL     OW  706   1.951   2.474   1.628 -0.0423 -0.2914  0.1982
  236SOL    HW1  707   1.933   2.375   1.631  1.1767  0.0625  0.3946
  236SOL    HW2  708   1.960   2.511   1.724  0.6558  0.5733  3.4535
  237SOL     OW  709   0.842   1.576   2.021 -0.3662 -0.6204 -0.0312
  237SOL    HW1  710   0.875   1.671   2.046 -0.0186 -2.2027  1.5503
  237SOL    HW2  711   0.833   1.517   2.106  0.3946  0.4644  2.4849
  238SOL     OW  712   1.599   0.460   2.578 -0.2206 -0.5424  0.1332
  238SOL    HW1  713   1.506   0.495   2.597 -3.0080 -1.5205  1.2195
  238SOL    HW2  714   1.621   0.380   2.638 -2.8835  0.1038 -0.7333
  239SOL     OW  715   0.348   2.123   1.700 -0.6536 -0.4644  0.1807
  239SOL    HW1  716   0.333   2.217   1.659  1.6421  0.6038  2.7260
  239SOL    HW2  717   0.379   2.135   1.795  0.6521  0.6951 -2.4549
  240SOL     OW  718   2.586   2.220   0.481 -0.5214  0.3720  0.3293
  240SOL    HW1  719   2.673   2.268   0.496 -1.4154  1.3610 -0.5913
  240SOL    HW2  720   2.600   2.149   0.411 -0.8809 -0.0394  0.3598
  241SOL     OW  721   2.607   0.895   0.923  0.4098 -0.2344  0.3923
  241SOL    HW1  722   2.551   0.843   0.991  1.2526 -0.7297 -1.1832
  241SOL    HW2  723   2.560   0.965   0.858  0.8254 -1.1323  1.1979
  242SOL     OW  724   2.221   2.702   2.091  0.0331  0.0314  0.1619
  242SOL    HW1  725   2.214   2.602   2.092  0.5143  0.1792  0.3223
  242SOL    HW2  726   2.319   2.737   2.107  0.3156 -1.1253  0.7051
  243SOL     OW  727   0.775   2.221   1.522  0.1330 -0.1629  0.0833
  243SOL    HW1  728   0.813   2.317   1.538  1.2021  2.5247  0.2008
  243SOL    HW2  729   0.842   2.167   1.470 -2.3684  2.2503  0.7746
  244SOL     OW  730   1.654   0.213   2.721  0.0712 -0.1397  0.1171
  244SOL    HW1  731   1.741   0.254   2.686  2.2604  1.6049 -1.0263
  244SOL    HW2  732   1.635   0.127   2.669  0.0357 -0.6923  1.1613
  245SOL     OW  733   1.266   0.234   1.262  0.0792 -0.0935  0.2390
  245SOL    HW1  734   1.226   0.292   1.187  0.4505 -0.6314  1.0229
  245SOL    HW2  735   1.258   0.132   1.240 -1.1004 -1.3331 -0.5411
  246SOL     OW  736   1.764   2.695   0.264  0.0756  0.5626  0.0886
  246SOL    HW1  737   1.822   2.651   0.190 -1.1051 -0.1747 -0.3650
  246SOL    HW2  738   1.684   2.635   0.294 -0.2701 -2.2296  2.2903
  247SOL     OW  739   1.228   0.578   2.529 -0.2022  0.2883 -0.2708
  247SOL    HW1  740   1.140   0.529   2.533  0.3807 -1.5618 -1.1073
  247SOL    HW2  741   1.295   0.522   2.472  1.6718 -2.7938 -0.1333
  248SOL     OW  742   0.647   1.914   1.664  0.3663 -0.3743 -0.1726
  248SOL    HW1  743   0.636   2.011   1.704  1.3014  1.2844  0.6621
  248SOL    HW2  744   0.698   1.852   1.726 -2.1723  0.2715 -1.6424
  249SOL     OW  745   2.214   0.215   0.495  0.6526 -0.4229 -0.1019
  249SOL    HW1  746   2.143   0.225   0.425  0.0261 -1.2206  1.3683
  249SOL    HW2  747   2.171   0.239   0.586  0.9823 -2.5355  1.1806
  250SOL     OW  748   0.036   0.534   0.218  0.4576  0.0830  0.1285
  250SOL    HW1  749   0.060   0.550   0.313 -0.4940 -2.0737 -0.2679
  250SOL    HW2  750   3.049   0.517   0.218  1.8263 -1.0624  1.5453
  251SOL     OW  751   1.310   0.564   3.005 -0.5206 -0.4107 -0.4052
  251SOL    HW1  752   1.359   0.620   3.077 -2.2367 -0.0155 -0.1388
  251SOL    HW2  753   1.348   0.589   2.913  1.4041  0.2242 -0.4321
  252SOL     OW  754   1.612   1.684   2.025  0.2607  0.6428  0.4843
  252SOL    HW1  755   1.598   1.626   1.943  2.2891 -2.2841 -0.0945
  252SOL    HW2  756   1.548   1.647   2.097 -3.1002  0.6498  3.5350
  253SOL     OW  757   2.598   2.339   1.366  0.3467 -0.1352  0.8217
  253SOL    HW1  758   2.615   2.308   1.459 -1.4581  0.3455 -0.2850
  253SOL    HW2  759   2.685   2.368   1.326 -2.0823  0.8482  0.0518
  254SOL     OW  760   2.812   1.210   1.061 -0.1368 -0.0423 -0.0406
  254SOL    HW1  761   2.896   1.266   1.080 -2.6519 -3.4851 -0.2646
  254SOL    HW2  762   2.832   1.151   0.983 -0.0565  1.4773  1.9968
  255SOL     OW  763   1.176   0.412   1.047 -0.3182  0.0356  0.3717
  255SOL    HW1  764   1.078   0.375   1.065  0.0527 -2.6372 -2.0706
  255SOL    HW2  765   1.182   0.515   1.062 -0.7014  0.8583  1.3047
  256SOL     OW  766   1.879   2.396   1.207 -0.6237  0.0980  0.7158
  256SOL    HW1  767   1.860   2.307   1.245  0.4221  2.1494 -1.7270
  256SOL    HW2  768   1.942   2.398   1.120  1.9997 -1.2630 -2.0327
  257SOL     OW  769   0.657   3.107   2.570 -0.2194  0.1467  0.3205
  257SOL    HW1  770   0.695   3.024   2.614 -0.8897 -1.5928  3.7844
  257SOL    HW2  771   0.588   3.080   2.501 -0.2070 -0.8920  0.0567
  258SOL     OW  772   0.808   2.221   0.723  0.9370 -0.7936 -1.0116
  258SOL    HW1  773   0.790   2.292   0.652  0.0933 -0.5357 -2.6250
  258SOL    HW2  774   0.765   2.132   0.700 -0.8412 -0.3894 -1.6530
  259SOL     OW  775   1.272   3.028   2.802  0.0059  0.3558 -0.1402
  259SOL    HW1  776   1.177   3.012   2.765 -2.4865 -0.5846  1.0666
  259SOL    HW2  777   1.336   2.961   2.762 -1.9987  1.1667 -0.0405
  260SOL     OW  778   2.152   0.689   1.353 -0.0400  0.4690 -0.4800
  260SOL    HW1  779   2.054   0.702   1.360  1.1167  1.7019  0.0456
  260SOL    HW2  780   2.194   0.704   1.440  0.1375  0.0472 -1.6221
  261SOL     OW  781   0.637   0.480   2.542 -0.0168 -0.3436  0.1133
  261SOL    HW1  782   0.565   0.415   2.519 -1.8674  1.4878  4.5455
  261SOL    HW2  783   0.627   0.567   2.496 -2.1517 -2.2137  1.3172
  262SOL     OW  784   0.245   2.255   2.053 -0.6792 -0.1218  0.0963
  262SOL    HW1  785   0.244   2.291   2.150 -1.2120 -2.4482  1.3912
  262SOL    HW2  786   0.212   2.320   1.983  1.7398 -1.1286 -2.2641
  263SOL     OW  787   3.031   1.641   2.485 -0.9243  0.1307  0.7740
  263SOL    HW1  788   0.013   1.641   2.460 -2.4290  0.0719 -0.3684
  263SOL    HW2  789   3.003   1.733   2.522 -0.6347  0.9638 -2.5048
  264SOL     OW  790   1.025   1.085   0.844 -0.2882  0.3839  0.1065
  264SOL    HW1  791   0.926   1.073   0.831 -0.6008 -0.3430  1.0856
  264SOL    HW2  792   1.079   1.076   0.755  1.1650 -2.3259 -3.4039
  265SOL     OW  793   1.337   2.719   0.721  0.4130  0.3337  0.2995
  265SOL    HW1  794   1.355   2.619   0.707 -0.1565  0.1554 -1.3059
  265SOL    HW2  795   1.322   2.737   0.818 -0.6888 -0.1287 -1.2918
  266SOL     OW  796   1.669   1.104   1.340 -0.0888  0.2465 -0.0054
  266SOL    HW1  797   1.762   1.066   1.342  2.7123 -3.0488 -1.6719
  266SOL    HW2  798   1.634   1.114   1.247  0.3381 -2.7307 -0.9288
  267SOL     OW  799   2.417   1.038   2.907 -0.0216 -0.4530 -0.0407
  267SOL    HW1  800   2.343   1.071   2.836 -3.2603  1.8180 -1.0421
  267SOL    HW2  801   2.419   0.933   2.924 -1.2043 -3.0649  0.5102
  268SOL     OW  802   1.286   0.346   0.353  0.1466 -0.2114  0.0404
  268SOL    HW1  803   1.367   0.293   0.379  1.9892  1.6680  2.8510
  268SOL    HW2  804   1.305   0.422   0.291  0.8787 -1.0745 -1.9068
  269SOL     OW  805   3.032   0.771   2.602  0.3194  0.5356  0.0445
  269SOL    HW1  806   2.995   0.689   2.551 -1.0365 -0.3711 -0.3307
  269SOL    HW2  807   2.963   0.817   2.664 -1.3414 -0.5184 -0.4660
  270SOL     OW  808   0.214   1.355   2.692 -0.4520  0.6345  0.1061
  270SOL    HW1  809   0.181   1.348   2.788 -0.6741  0.4619  1.2816
  270SOL    HW2  810   0.152   1.300   2.635  0.0905  0.5327  1.9453
  271SOL     OW  811   2.854   1.000   0.066 -0.8419  0.2821  0.0886
  271SOL    HW1  812   2.790   0.982   3.103  3.4437  0.4912  0.1661
  271SOL    HW2  813   2.930   0.933   0.070 -1.6774  1.3838  0.2630
  272SOL     OW  814   2.662   2.357   2.364  0.6172  0.9036 -0.3735
  272SOL    HW1  815   2.759   2.331   2.389 -0.0961  0.5525  0.5015
  272SOL    HW2  816   2.637   2.447   2.406  0.6228 -1.6510 -0.6834
  273SOL     OW  817   0.017   0.006   0.004 -0.3008 -0.5221  0.1258
  273SOL    HW1  818   3.083   0.093   0.017  0.9115 -0.9544 -1.4862
  273SOL    HW2  819   0.029   3.085   0.094  0.9165  2.2906 -2.9686
  274SOL     OW  820   0.835   2.192   1.017 -0.1906 -0.3001  0.5975
  274SOL    HW1  821   0.769   2.121   1.052 -2.9929 -0.9154  0.1783
  274SOL    HW2  822   0.818   2.224   0.922  2.0961  1.6188 -3.1222
  275SOL     OW  823   2.067   0.711   0.529  0.8330 -0.2955 -0.5044
  275SOL    HW1  824   2.133   0.670   0.467 -1.1159 -0.9161  0.0769
  275SOL    HW2  825   2.101   0.767   0.608  3.5591 -0.8983 -1.7639
  276SOL     OW  826   2.542   1.537   1.189  0.5229  0.4641 -0.4801
  276SOL    HW1  827   2.494   1.623   1.165  1.8491 -0.9877  0.7513
  276SOL    HW2  828   2.556   1.527   1.290  0.5148  0.1003 -1.6474
  277SOL     OW  829   2.281   0.065   1.133  0.0711 -0.4680 -0.0445
  277SOL    HW1  830   2.271   3.082   1.150 -1.6745  1.2758 -2.0283
  277SOL    HW2  831   2.240   0.124   1.206  0.0165 -1.5876 -4.5526
  278SOL     OW  832   1.565   2.623   2.432 -0.3214  0.1780 -0.6386
  278SOL    HW1  833   1.523   2.535   2.395 -1.8587  0.8237  0.3484
  278SOL    HW2  834   1.551   2.630   2.528  0.5647  3.4628 -2.5227
  279SOL     OW  835   1.587   1.898   1.167  0.7050  0.3110 -0.1669
  279SOL    HW1  836   1.516   1.942   1.224 -2.1440  2.0332  2.1994
  279SOL    HW2  837   1.633   1.966   1.108 -0.4592 -0.0064 -2.9799
  280SOL     OW  838   0.516   1.131   1.155 -0.4307 -0.4139  0.5420
  280SOL    HW1  839   0.419   1.118   1.192 -3.5768  0.3571 -0.8913
  280SOL    HW2  840   0.579   1.087   1.217 -0.8054  0.7314 -4.5850
  281SOL     OW  841   2.574   1.426   2.652 -0.0913  0.0042  0.1850
  281SOL    HW1  842   2.501   1.485   2.692  2.1942  1.1732  0.1784
  281SOL    HW2  843   2.633   1.391   2.732 -1.3042  0.9218 -0.7169
  282SOL     OW  844   0.498   1.627   0.236  0.3055  1.0388  0.4343
  282SOL    HW1  845   0.440   1.667   0.305 -0.6086 -1.3780 -0.4101
  282SOL    HW2  846   0.474   1.525   0.225 -1.4826 -1.3542  0.2908
  283SOL     OW  847   1.910   2.542   0.078 -0.0589 -0.0723 -0.2261
  283SOL    HW1  848   1.997   2.581   0.044 -2.6147  0.7488 -0.4391
  283SOL    HW2  849   1.857   2.496   0.001  0.0719 -1.3539 -0.2128
  284SOL     OW  850   0.960   0.018   0.878  0.4432 -0.4261 -0.0238
  284SOL    HW1  851   1.038   3.059   0.878  4.3937 -3.3866 -0.3778
  284SOL    HW2  852   0.950   0.048   0.781  1.7161  0.0244 -1.1983
  285SOL     OW  853   2.203   1.094   2.727  0.0481  0.5368  0.5668
  285SOL    HW1  854   2.191   1.172   2.657  1.5840 -1.0894  0.1823
  285SOL    HW2  855   2.141   1.113   2.807 -2.1988  1.4431  2.8073
  286SOL     OW  856   1.964   2.670   0.894  0.2356  0.0550  0.0978
  286SOL    HW1  857   2.047   2.611   0.892 -2.3114  1.4285  0.5186
  286SOL    HW2  858   1.974   2.748   0.961  0.5020  0.9765  0.3096
  287SOL     OW  859   1.285   0.331   0.814  0.0653  0.4998  0.1153
  287SOL    HW1  860   1.248   0.342   0.907 -0.0809  2.5244 -0.1853
  287SOL    HW2  861   1.302   0.417   0.766  0.9880 -1.7842 -0.9039
  288SOL     OW  862   0.768   2.491   2.934  0.0235 -0.3178 -0.5013
  288SOL    HW1  863   0.864   2.521   2.947 -0.5960 -0.7026 -0.1856
  288SOL    HW2  864   0.711   2.556   2.977  2.5356 -0.8302  0.7085
  289SOL     OW  865   0.305   1.685   0.868  0.1253 -0.4203  0.0708
  289SOL    HW1  866   0.342   1.678   0.963 -0.8922 -0.3759  1.1436
  289SOL    HW2  867   0.208   1.716   0.866  1.0376  2.4953 -0.9111
  290SOL     OW  868   1.320   1.938   0.960 -0.6280 -0.6030  0.0957
  290SOL    HW1  869   1.388   1.977   0.894  1.9933  0.0521 -0.0757
  290SOL    HW2  870   1.370   1.934   1.051  2.8311 -2.8229  0.6136
  291SOL     OW  871   1.526   2.973   0.252 -0.6248  0.6457 -0.0987
  291SOL    HW1  872   1.505   2.877   0.260 -0.1643  2.4079  1.7220
  291SOL    HW2  873   1.453   3.026   0.211  0.0648 -0.3554 -1.4272
  292SOL     OW  874   0.494   0.448   2.164 -0.6379 -0.2635  0.0736
  292SOL    HW1  875   0.488   0.411   2.261  0.2112  2.2652  1.4962
  292SOL    HW2  876   0.561   0.529   2.149  1.0869  1.7093 -0.2501
  293SOL     OW  877   2.651   1.944   0.989 -0.1939  0.1211  0.8106
  293SOL    HW1  878   2.579   1.878   0.961 -2.7825 -1.6623 -2.3243
  293SOL    HW2  879   2.613   2.017   1.045  1.9977 -1.9523 -1.3736
  294SOL     OW  880   0.684   0.260   2.122 -0.4349 -0.4092 -0.5039
  294SOL    HW1  881   0.613   0.332   2.133 -4.3204 -2.0408  1.0147
  294SOL    HW2  882   0.642   0.184   2.070 -2.3832 -0.3225  0.4710
  295SOL     OW  883   1.793   1.739   1.210  0.4344  0.4667  0.0541
  295SOL    HW1  884   1.753   1.650   1.246  2.4940 -1.6130  2.2251
  295SOL    HW2  885   1.716   1.803   1.215  1.3187  2.3181  1.4670
  296SOL     OW  886   2.347   2.019   0.228 -0.2586  0.1656 -0.0143
  296SOL    HW1  887   2.321   1.945   0.166  2.1269  1.7182  1.6279
  296SOL    HW2  888   2.447   2.025   0.243 -4.2172  1.4152  0.4040
  297SOL     OW  889   2.429   0.073   0.447 -0.4016  0.7016  0.0828
  297SOL    HW1  890   2.411   3.088   0.474 -0.7295  1.0971 -0.5744
  297SOL    HW2  891   2.342   0.127   0.461 -0.9086  3.0506  0.4370
  298SOL     OW  892   0.824   0.151   2.831  0.1656  0.8579  0.1942
  298SOL    HW1  893   0.830   0.150   2.727  0.1018 -0.0353 -2.6221
  298SOL    HW2  894   0.834   0.247   2.866 -0.8404 -0.9988  1.6568
  299SOL     OW  895   0.690   2.455   2.277  0.6138  0.1782  0.3295
  299SOL    HW1  896   0.736   2.368   2.309  2.4928 -0.4717  1.3390
  299SOL    HW2  897   0.660   2.518   2.354  3.4160  2.0402  0.5005
  300SOL     OW  898   2.946   3.102   2.373  0.6317  0.2395 -0.1840
  300SOL    HW1  899   3.014   0.056   2.342 -0.2112  1.5693  0.2803
  300SOL    HW2  900   2.957   3.078   2.475  2.7422 -2.8451  0.6845
  301SOL     OW  901   1.260   0.561   1.682 -0.2401 -0.1820 -0.3995
  301SOL    HW1  902   1.355   0.574   1.712  0.0577  0.4875 -1.0931
  301SOL    HW2  903   1.230   0.468   1.684 -2.0835  2.5711 -1.0396
  302SOL     OW  904   2.881   2.369   2.840 -0.3057 -0.4100 -0.1007
  302SOL    HW1  905   2.858   2.439   2.907  1.5856  0.0687 -1.4160
  302SOL    HW2  906   2.813   2.364   2.760 -2.2264 -0.3939  0.1174
  303SOL     OW  907   2.198   2.348   1.496  0.4748 -0.1804  0.1862
  303SOL    HW1  908   2.112   2.301   1.529 -2.2053 -0.4462  2.9413
  303SOL    HW2  909   2.270   2.344   1.564  0.8281  0.6130  1.3402
  304SOL     OW  910   2.691   1.021   1.472  0.2363  0.4419  0.0370
  304SOL    HW1  911   2.733   1.008   1.379 -0.7338  0.0860 -0.8475
  304SOL    HW2  912   2.761   1.024   1.542 -0.8471  0.4253 -1.5769
  305SOL     OW  913   0.715   1.817   0.871  0.0694  0.4606  0.0880
  305SOL    HW1  914   0.783   1.881   0.903 -1.8259 -2.0023 -1.0548
  305SOL    HW2  915   0.629   1.830   0.918  1.6956 -0.9258  0.6261
  306SOL     OW  916   0.492   1.620   2.383 -0.2624  0.0308 -0.3625
  306SOL    HW1  917   0.473   1.682   2.302 -1.9337  0.9688 -0.3868
  306SOL    HW2  918   0.583   1.640   2.421  1.5834  2.3292  1.7214
  307SOL     OW  919   1.149   0.267   1.532  0.4478 -0.6302  0.0928
  307SOL    HW1  920   1.193   0.199   1.588 -1.6465  2.5652  1.6733
  307SOL    HW2  921   1.202   0.277   1.441 -1.8189  1.4308  1.4197
  308SOL     OW  922   0.009   0.941   1.223 -0.1270  0.0562  0.0901
  308SOL    HW1  923   3.033   0.980   1.257 -1.7829 -0.4801  0.4015
  308SOL    HW2  924   0.015   0.941   1.122 -1.0450 -0.6945  2.8050
  309SOL     OW  925   2.541   1.286   1.076 -0.4817  0.4497 -0.6078
  309SOL    HW1  926   2.550   1.383   1.108  0.6599  2.3397 -1.1651
  309SOL    HW2  927   2.631   1.236   1.071  1.0895 -1.2827 -1.4410
  310SOL     OW  928   0.139   1.966   2.444  0.1016 -0.1644  0.0815
  310SOL    HW1  929   0.150   1.926   2.352  0.2974  1.2523  1.9515
  310SOL    HW2  930   0.128   1.904   2.523 -0.4484 -0.6346  0.3555
  311SOL     OW  931   2.742   2.829   2.288  0.1273  0.4123 -0.2078
  311SOL    HW1  932   2.802   2.875   2.221 -0.2844 -1.4640 -0.7137
  311SOL    HW2  933   2.728   2.891   2.372  1.4842  3.1799  2.2059
  312SOL     OW  934   1.929   2.251   2.882  0.3158  0.0703 -0.5866
  312SOL    HW1  935   1.868   2.318   2.931 -1.9239  1.2831  0.3342
  312SOL    HW2  936   2.028   2.247   2.917  1.9072 -0.0732 -0.8858
  313SOL     OW  937   3.081   3.012   0.825  0.1099 -0.1078 -0.4208
  313SOL    HW1  938   3.095   2.922   0.774 -1.4205  0.1366 -0.1610
  313SOL    HW2  939   0.011   3.093   0.780  1.0615  1.1515 -1.9742
  314SOL     OW  940   1.867   1.012   2.963  0.1357 -0.1373  0.0226
  314SOL    HW1  941   1.865   0.998   3.062 -0.3307 -0.1483  1.3486
  314SOL    HW2  942   1.935   1.085   2.935 -1.6862  0.5542  0.5866
  315SOL     OW  943   1.602   3.111   2.560 -0.0941  0.0961 -0.1723
  315SOL    HW1  944   1.567   0.047   2.483  0.3117  0.3186  2.5912
  315SOL    HW2  945   1.534   3.038   2.578 -3.2174 -3.0319 -1.0124
  316SOL     OW  946   3.052   1.270   0.620  0.4483 -0.2017  0.5903
  316SOL    HW1  947   3.072   1.369   0.623 -1.9649  1.6350 -0.5741
  316SOL    HW2  948   0.009   1.215   0.663 -0.3529  0.9634 -0.5375
  317SOL     OW  949   0.588   2.684   3.016  0.6235  0.1616 -0.3843
  317SOL    HW1  950   0.490   2.710   3.013 -0.4260 -0.4092  0.7290
  317SOL    HW2  951   0.639   2.761   3.059 -0.7214  1.4771  3.2633
  318SOL     OW  952   2.801   2.341   1.014 -0.3259 -0.1611  0.7097
  318SOL    HW1  953   2.865   2.269   0.987 -3.9183  0.8514 -0.1567
  318SOL    HW2  954   2.714   2.339   0.956 -1.3783  0.8691 -0.6207
  319SOL     OW  955   1.201   2.046   2.869  0.0403 -0.3432 -0.3195
  319SOL    HW1  956   1.116   2.004   2.833  1.5998  0.3525 -3.2399
  319SOL    HW2  957   1.266   1.976   2.913 -1.6360 -0.9219  0.7569
  320SOL     OW  958   0.652   1.983   1.195 -0.4673 -0.2169 -0.7511
  320SOL    HW1  959   0.588   1.944   1.130  2.1999  0.0205 -0.6713
  320SOL    HW2  960   0.623   1.965   1.291  0.1137  1.5140  0.3222
  321SOL     OW  961   1.217   2.793   2.530 -0.1747 -0.5709  0.1117
  321SOL    HW1  962   1.135   2.834   2.488  2.1324 -1.5324 -1.5868
  321SOL    HW2  963   1.200   2.701   2.570  1.5197 -0.4428 -0.9428
  322SOL     OW  964   2.567   2.016   1.853  0.4341  0.8978  0.0120
  322SOL    HW1  965   2.488   2.057   1.902 -0.6923  2.0762  1.0391
  322SOL    HW2  966   2.582   2.066   1.766  0.3531 -1.0853 -2.8218
  323SOL     OW  967   2.956   0.584   1.017 -0.0230 -0.1540 -0.5076
  323SOL    HW1  968   2.936   0.646   0.943  1.4552 -2.8423  0.8571
  323SOL    HW2  969   3.055   0.551   1.025  2.5236  0.3487  2.4039
  324SOL     OW  970   2.673   3.005   2.472 -0.4794  0.7224 -0.0286
  324SOL    HW1  971   2.682   2.998   2.569 -0.8372  0.4549 -1.9154
  324SOL    HW2  972   2.728   3.082   2.436 -1.4165 -0.7197 -0.4498
  325SOL     OW  973   0.890   0.571   2.655  0.7167  0.1631 -0.2758
  325SOL    HW1  974   0.945   0.486   2.663  0.2642  1.0111 -2.4265
  325SOL    HW2  975   0.790   0.551   2.648  0.9872  3.3080 -1.0210
  326SOL     OW  976   1.903   2.621   1.873 -0.2090 -0.5349  0.5468
  326SOL    HW1  977   1.838   2.695   1.858  1.0106  0.6507 -0.6615
  326SOL    HW2  978   1.993   2.661   1.854 -0.9733 -1.5181 -0.6804
  327SOL     OW  979   2.141   0.097   2.918  0.4962  1.0428 -0.3537
  327SOL    HW1  980   2.170   0.159   2.991 -1.4740 -0.9710 -1.7687
  327SOL    HW2  981   2.111   0.008   2.951  0.3939 -0.2249  0.3539
  328SOL     OW  982   0.279   1.411   2.008  0.7410 -0.1768 -0.0776
  328SOL    HW1  983   0.273   1.369   2.104  0.1541  0.6852  2.1334
  328SOL    HW2  984   0.183   1.428   1.973 -0.6576  1.5394 -0.8718
  329SOL     OW  985   1.964   0.550   1.632  0.4885  0.9442 -0.2087
  329SOL    HW1  986   1.915   0.581   1.714  1.1835 -1.3427 -2.8703
  329SOL    HW2  987   2.058   0.582   1.634 -2.0409  1.7055  1.2067
  330SOL     OW  988   0.130   1.198   0.800  0.6883 -0.0019 -0.3089
  330SOL    HW1  989   0.097   1.109   0.842  1.5506 -0.6028 -0.1052
  330SOL    HW2  990   0.112   1.273   0.869  3.0010  3.6715  0.0081
  331SOL     OW  991   0.115   1.823   2.202  0.1280 -0.2073 -0.3458
  331SOL    HW1  992   0.048   1.747   2.226 -2.3664 -2.4170  2.0171
  331SOL    HW2  993   0.213   1.797   2.207  1.3597  0.8101 -1.0056
  332SOL     OW  994   3.107   2.628   1.633  0.4711 -0.3783 -0.6035
  332SOL    HW1  995   3.068   2.637   1.540  0.0161 -0.3302  0.7145
  332SOL    HW2  996   3.056   2.561   1.694  0.5148 -2.4399 -0.2759
  333SOL     OW  997   2.452   0.226   1.008 -0.3208 -0.6009 -0.7622
  333SOL    HW1  998   2.396   0.159   1.064 -1.6271  1.4377  0.9985
  333SOL    HW2  999   2.551   0.200   1.003  0.9690  1.0634  0.2746
  334SOL     OW 1000   0.486   1.756   0.679 -0.3572  0.4611  0.4523
  334SOL    HW1 1001   0.558   1.682   0.672 -3.0727  0.0838 -0.3569
  334SOL    HW2 1002   0.417   1.728   0.750  0.1360 -1.6523  0.5655
  335SOL     OW 1003   0.108   2.545   2.922  0.0255  0.0518  0.3163
  335SOL    HW1 1004   0.096   2.531   2.821  2.9390 -1.6752  1.5903
  335SOL    HW2 1005   0.155   2.469   2.968 -2.8080 -0.1138 -1.9374
  336SOL     OW 1006   3.098   2.812   2.426  0.5338  0.2049  0.3399
  336SOL    HW1 1007   3.025   2.881   2.402 -1.6040 -0.9771 -2.1394
  336SOL    HW2 1008   0.022   2.752   2.358  1.5428  0.6009  2.6470
  337SOL     OW 1009   1.845   2.454   2.092 -0.5253 -0.2259 -0.2078
  337SOL    HW1 1010   1.861   2.501   2.001  0.4898  2.0179 -2.9440
  337SOL    HW2 1011   1.768   2.387   2.080  0.8897 -3.0875  1.8054
  338SOL     OW 1012   0.715   2.877   0.009  0.1618  0.0520  0.2902
  338SOL    HW1 1013   0.667   2.904   0.098 -2.1771  1.9025 -1.3785
  338SOL    HW2 1014   0.774   2.953   3.095  0.6767 -0.3867 -1.8154
  339SOL     OW 1015   0.599   1.142   2.240 -0.6136 -0.7236 -0.2020
  339SOL    HW1 1016   0.552   1.210   2.300 -2.2143  0.5125 -0.1958
  339SOL    HW2 1017   0.597   1.168   2.140 -0.2423  1.6458  1.7945
  340SOL     OW 1018   1.764   2.749   0.698  0.3109 -0.1722 -0.3657
  340SOL    HW1 1019   1.834   2.723   0.769  0.0028  1.8017 -0.4692
  340SOL    HW2 1020   1.729   2.839   0.721 -1.3111  0.3250 -0.4046
  341SOL     OW 1021   2.146   1.178   0.943 -0.0524 -0.1643 -0.1960
  341SOL    HW1 1022   2.105   1.099   0.886 -1.0701 -0.2156  0.0055
  341SOL    HW2 1023   2.202   1.145   1.025  0.5561 -0.6044  1.6239
  342SOL     OW 1024   2.401   3.020   0.024 -0.0903  0.1030  0.6631
  342SOL    HW1 1025   2.310   2.978   0.055 -0.1333  0.0514  2.1704
  342SOL    HW2 1026   2.472   2.955   3.103  2.0697  1.6621  2.2738
  343SOL     OW 1027   1.197   2.099   1.621 -0.5271  0.2739  0.7667
  343SOL    HW1 1028   1.170   2.186   1.579 -3.2989 -1.7827  1.1530
  343SOL    HW2 1029   1.297   2.113   1.643 -3.1238 -1.8471  0.7102
  344SOL     OW 1030   2.589   2.843   1.307 -0.2413  0.3664  0.4488
  344SOL    HW1 1031   2.496   2.839   1.341 -1.1008  0.8805  0.2468
  344SOL    HW2 1032   2.654   2.815   1.383  1.6146 -1.7303  0.8461
  345SOL     OW 1033   2.594   2.063   2.963  0.1677  0.0698  0.1132
  345SOL    HW1 1034   2.680   2.029   3.002 -3.3126 -1.2117 -0.4129
  345SOL    HW2 1035   2.600   2.164   2.977 -1.2751  3.8868  2.9935
  346SOL     OW 1036   2.307   2.115   0.653 -0.3059 -0.5978 -0.4932
  346SOL    HW1 1037   2.389   2.146   0.604  0.1762 -2.7367  0.7449
  346SOL    HW2 1038   2.323   2.114   0.755 -2.0698 -2.5199 -0.3255
  347SOL     OW 1039   1.585   2.102   1.506 -0.5727  0.3364 -0.0828
  347SOL    HW1 1040   1.520   2.144   1.576 -0.7280 -0.7615 -0.2728
  347SOL    HW2 1041   1.643   2.034   1.557  2.7835  0.6257 -0.3337
  348SOL     OW 1042   0.565   1.960   2.290  0.2348  0.2758 -0.4183
  348SOL    HW1 1043   0.644   1.898   2.301 -1.1164  0.8380 -0.1623
  348SOL    HW2 1044   0.562   2.024   2.374  0.7963 -0.8655 -0.5756
  349SOL     OW 1045   2.133   1.669   0.673  0.3511 -0.1864 -0.1443
  349SOL    HW1 1046   2.134   1.577   0.718 -1.9786  0.7224  1.1334
  349SOL    HW2 1047   2.220   1.699   0.633 -2.8412  1.1975  3.4284
  350SOL     OW 1048   2.870   2.385   0.547  0.3209  0.2839 -0.3112
  350SOL    HW1 1049   2.856   2.481   0.576 -2.6672 -0.8410 -0.5351
  350SOL    HW2 1050   2.817   2.316   0.602  0.2520 -1.5628 -1.5995
  351SOL     OW 1051   0.543   2.917   1.666 -0.1235  0.3573 -0.0363
  351SOL    HW1 1052   0.551   2.827   1.625  0.5951 -0.3187  1.8150
  351SOL    HW2 1053   0.613   2.979   1.628  0.3332 -2.6913  1.0534
  352SOL     OW 1054   0.712   1.553   1.128  0.0872  0.3549 -0.4567
  352SOL    HW1 1055   0.618   1.590   1.141 -2.4134  0.1352 -0.6397
  352SOL    HW2 1056   0.721   1.487   1.050 -0.6677 -1.8878 -0.2513
  353SOL     OW 1057   1.214   1.203   2.606  0.3716  0.8530 -0.2750
  353SOL    HW1 1058   1.138   1.215   2.675 -0.8675  0.8875 -1.3749
  353SOL    HW2 1059   1.294   1.155   2.652  0.8004  0.6522  1.3636
  354SOL     OW 1060   1.518   3.070   1.581 -0.2820  0.2291  0.3013
  354SOL    HW1 1061   1.417   3.073   1.562 -0.3452  0.1476 -0.2676
  354SOL    HW2 1062   1.554   0.050   1.582  2.3541 -0.2408  1.2631
  355SOL     OW 1063   2.211   1.380   0.617 -0.0260  0.2297 -0.2062
  355SOL    HW1 1064   2.285   1.330   0.673  2.3357 -1.0517  2.4799
  355SOL    HW2 1065   2.217   1.355   0.521  1.3506 -1.8146  1.2647
  356SOL     OW 1066   2.659   1.814   2.007  0.0366 -0.0136 -0.0938
  356SOL    HW1 1067   2.616   1.889   1.951  0.3890  0.7105 -1.0467
  356SOL    HW2 1068   2.751   1.836   2.048  0.6009  3.8482 -0.0991
  357SOL     OW 1069   0.533   2.964   1.323  0.4402  0.6877 -0.3908
  357SOL    HW1 1070   0.459   2.944   1.394 -0.3534 -0.2131  0.3135
  357SOL    HW2 1071   0.508   2.935   1.232  3.1121  0.5045  0.0403
  358SOL     OW 1072   2.609   1.321   1.811  0.0204 -0.0137  0.2744
  358SOL    HW1 1073   2.617   1.413   1.859  2.1259 -0.2938  0.6798
  358SOL    HW2 1074   2.517   1.312   1.773 -2.0568  0.7833  1.2630
  359SOL     OW 1075   2.190   2.826   2.394  0.0399  0.5228  0.3618
  359SOL    HW1 1076   2.184   2.730   2.426 -2.4275 -1.0840 -0.5372
  359SOL    HW2 1077   2.096   2.866   2.371 -3.2664 -0.7272  0.7010
  360SOL     OW 1078   0.657   0.423   0.864 -0.2225 -0.6869 -0.3448
  360SOL    HW1 1079   0.689   0.356   0.795  1.5973 -0.9464 -0.1299
  360SOL    HW2 1080   0.586   0.376   0.921 -0.5545  0.0312 -0.2214
  361SOL     OW 1081   1.909   0.183   1.082 -0.7328  0.1077 -0.6170
  361SOL    HW1 1082   1.924   0.254   1.012 -2.6627 -0.7128  0.5549
  361SOL    HW2 1083   1.888   0.225   1.175 -0.0055  1.4279 -0.4282
  362SOL     OW 1084   1.382   0.979   0.716 -0.2411 -0.1719 -0.4414
  362SOL    HW1 1085   1.457   1.005   0.653  0.7469 -0.9388  0.2015
  362SOL    HW2 1086   1.295   1.015   0.681  0.8516  0.4859  0.4842
  363SOL     OW 1087   2.172   1.496   2.301 -0.0095 -0.6333 -0.5771
  363SOL    HW1 1088   2.262   1.465   2.339 -0.4332 -0.3760  1.7301
  363SOL    HW2 1089   2.180   1.595   2.271 -2.2053 -0.7213 -1.6523
  364SOL     OW 1090   0.212   0.008   1.259 -0.3851 -0.1130 -0.4132
  364SOL    HW1 1091   0.250   3.071   1.344  0.3115  1.3456  0.3918
  364SOL    HW2 1092   0.148   3.062   1.204  1.1425  1.2053  0.0724
  365SOL     OW 1093   0.267   3.033   3.005  0.3776  0.6039  1.1531
  365SOL    HW1 1094   0.268   3.065   2.912  1.2482  1.3848 -2.7492
  365SOL    HW2 1095   0.180   3.056   3.043  2.1712 -0.8479 -0.6377
  366SOL     OW 1096   2.185   2.242   2.967  0.5046  0.1337 -0.1510
  366SOL    HW1 1097   2.217   2.146   2.977 -3.0760  1.7924 -2.8520
  366SOL    HW2 1098   2.233   2.299   3.032  0.8777  0.1311 -1.4733
  367SOL     OW 1099   2.597   2.651   2.913 -0.2281 -0.2527  0.8423
  367SOL    HW1 1100   2.563   2.596   2.838  1.0976  1.2662  2.5431
  367SOL    HW2 1101   2.700   2.636   2.923  2.5626 -1.0988  0.3193
  368SOL     OW 1102   0.087   1.401   0.972  0.1229 -0.4283  0.4166
  368SOL    HW1 1103   0.025   1.405   1.053  0.9209  3.3770  0.1965
  368SOL    HW2 1104   0.154   1.476   0.980  0.6691 -1.4305  1.0766
  369SOL     OW 1105   0.630   2.818   2.749 -0.3511 -0.3416  0.6935
  369SOL    HW1 1106   0.601   2.736   2.800 -1.4120  0.0278  1.5972
  369SOL    HW2 1107   0.715   2.861   2.789  0.7292  3.9293 -0.0589
  370SOL     OW 1108   2.987   0.899   0.535 -0.3155 -0.0489  0.2195
  370SOL    HW1 1109   2.926   0.954   0.472  0.7353 -1.4342 -1.8992
  370SOL    HW2 1110   2.939   0.811   0.555  0.2127  0.0408 -2.5127
  371SOL     OW 1111   1.808   2.128   0.838 -0.2553 -0.4142  1.0317
  371SOL    HW1 1112   1.904   2.126   0.800 -0.9560 -1.3276  2.8410
  371SOL    HW2 1113   1.750   2.052   0.805 -0.0589 -1.8810 -1.7413
  372SOL     OW 1114   0.031   0.969   2.990 -0.1117 -0.0782 -0.5283
  372SOL    HW1 1115   0.020   0.904   3.065  2.0256  0.2205 -0.4302
  372SOL    HW2 1116   0.134   0.978   2.985 -0.2850  1.2515  1.5122
  373SOL     OW 1117   2.937   2.051   1.228  0.0915 -0.3777 -0.0449
  373SOL    HW1 1118   3.010   2.001   1.284 -0.0470 -0.1275  2.0960
  373SOL    HW2 1119   2.879   2.104   1.290 -1.4555  1.1607 -0.7450
  374SOL     OW 1120   0.397   2.725   0.185  0.5620 -0.0961  0.4654
  374SOL    HW1 1121   0.410   2.703   0.082  0.3373 -0.9007 -0.7623
  374SOL    HW2 1122   0.445   2.811   0.214 -0.1347 -0.7523 -0.7862
  375SOL     OW 1123   0.219   0.237   0.079  0.3880 -0.2646 -0.0206
  375SOL    HW1 1124   0.185   0.239   3.098 -0.0239  0.4577  0.9364
  375SOL    HW2 1125   0.143   0.259   0.146 -0.3355  1.0442  2.7085
  376SOL     OW 1126   0.190   2.368   1.577 -0.4629  0.6446  0.4734
  376SOL    HW1 1127   0.138   2.450   1.568  2.9684  3.2546 -0.8210
  376SOL    HW2 1128   0.168   2.299   1.511  0.7698  2.3175  1.2820
  377SOL     OW 1129   1.775   2.443   2.713  0.0964  0.5489  0.2336
  377SOL    HW1 1130   1.837   2.500   2.653  0.1595  1.3412 -0.6459
  377SOL    HW2 1131   1.797   2.346   2.694  0.2052 -1.9312  1.3912
  378SOL     OW 1132   0.665   0.116   0.187 -0.4171  0.1678 -0.2629
  378SOL    HW1 1133   0.569   0.080   0.170 -0.3580 -1.0388  0.3957
  378SOL    HW2 1134   0.723   0.062   0.251 -2.1306 -2.3841 -1.7475
  379SOL     OW 1135   0.527   1.385   0.578 -0.0356  0.8399 -0.1545
  379SOL    HW1 1136   0.500   1.394   0.481 -0.4387 -1.2382 -2.0254
  379SOL    HW2 1137   0.604   1.441   0.606  2.4200 -0.9599 -2.7822
  380SOL     OW 1138   0.162   1.913   1.703  0.4331 -0.5805 -0.3089
  380SOL    HW1 1139   0.062   1.938   1.699 -1.3900  1.8858 -0.2760
  380SOL    HW2 1140   0.224   1.990   1.682  1.0900  2.8558 -0.2268
  381SOL     OW 1141   0.620   1.216   1.982  0.2644 -0.2422  0.8155
  381SOL    HW1 1142   0.666   1.175   1.900 -3.8233  0.9067  2.4083
  381SOL    HW2 1143   0.593   1.311   1.965  0.8415  0.7224  3.2098
  382SOL     OW 1144   2.152   1.991   0.465  0.2914  0.2181 -0.6998
  382SOL    HW1 1145   2.185   2.044   0.545 -0.8756 -0.1224  2.8056
  382SOL    HW2 1146   2.204   2.017   0.384 -3.3715 -1.3068  2.3699
  383SOL     OW 1147   2.761   1.929   2.734 -0.2615 -0.4725  0.0464
  383SOL    HW1 1148   2.810   1.946   2.822  0.8523  0.8900  1.2844
  383SOL    HW2 1149   2.830   1.904   2.666 -2.3437  2.1028  1.3930
  384SOL     OW 1150   0.588   2.160   2.464  0.4102  0.1993 -0.3643
  384SOL    HW1 1151   0.527   2.232   2.431  0.8323 -0.5822  1.5191
  384SOL    HW2 1152   0.610   2.177   2.564 -3.7642  0.9351  4.1770
  385SOL     OW 1153   2.862   1.722   0.926  0.1672 -0.3366  0.1110
  385SOL    HW1 1154   2.860   1.667   1.007  0.9246  1.5738 -0.8604
  385SOL    HW2 1155   2.806   1.811   0.940  0.5992  0.9161  2.3352
  386SOL     OW 1156   1.941   1.358   1.037 -0.1796 -0.4219  0.1999
  386SOL    HW1 1157   1.933   1.459   1.019 -0.1077 -1.6326  0.4191
  386SOL    HW2 1158   2.014   1.306   0.980  2.2662 -1.6103 -0.0188
  387SOL     OW 1159   3.074   1.060   1.978  0.1591 -0.5879 -0.0623
  387SOL    HW1 1160   3.005   1.002   1.932  0.6056  0.4862 -0.7160
  387SOL    HW2 1161   3.056   1.163   1.961  0.0552  2.6405 -1.2900
  388SOL     OW 1162   2.551   1.323   2.198 -0.5388  0.4328  0.2845
  388SOL    HW1 1163   2.496   1.309   2.282 -0.0337 -1.3528 -0.2014
  388SOL    HW2 1164   2.484   1.322   2.116 -3.7721  1.7346 -0.8886
  389SOL     OW 1165   2.000   1.388   2.124  0.5971 -0.1080  0.0448
  389SOL    HW1 1166   2.061   1.427   2.194 -0.1536 -1.1195  0.9370
  389SOL    HW2 1167   1.904   1.410   2.151 -1.5788 -2.7359  2.6650
  390SOL     OW 1168   1.918   2.755   0.474  0.2544  0.1396 -0.2878
  390SOL    HW1 1169   1.875   2.757   0.570  0.3401 -0.9408  1.6358
  390SOL    HW2 1170   1.851   2.717   0.409  1.3016  1.9387 -4.4839
  391SOL     OW 1171   2.327   2.093   0.911 -0.4690 -0.1052  0.1487
  391SOL    HW1 1172   2.242   2.100   0.966  1.6974 -1.1635 -0.3976
  391SOL    HW2 1173   2.407   2.075   0.968 -0.4544 -0.6190  0.7642
  392SOL     OW 1174   3.002   2.649   1.373 -0.4612  0.1679 -0.0573
  392SOL    HW1 1175   2.917   2.603   1.338 -1.2839  2.0964  0.3903
  392SOL    HW2 1176   3.069   2.667   1.294 -0.6737 -2.9281  1.4723
  393SOL     OW 1177   1.887   1.990   2.934 -0.1129  0.0111  0.8962
  393SOL    HW1 1178   1.892   2.090   2.943  0.8799 -2.6016  1.6530
  393SOL    HW2 1179   1.802   1.958   2.889  0.9331  1.2416 -0.5730
  394SOL     OW 1180   0.245   0.611   2.796  0.4964 -0.2303 -0.0640
  394SOL    HW1 1181   0.300   0.633   2.883  1.2704  1.0813 -3.3920
  394SOL    HW2 1182   0.199   0.698   2.764 -0.5572  3.0800  1.5754
  395SOL     OW 1183   0.615   0.680   0.740 -0.0082 -0.0078 -0.0227
  395SOL    HW1 1184   0.646   0.596   0.783  0.4788 -0.6119 -1.1809
  395SOL    HW2 1185   0.665   0.757   0.785 -1.4872 -0.0660  3.4428
  396SOL     OW 1186   1.066   1.110   0.116  0.0043 -0.0772 -0.0404
  396SOL    HW1 1187   1.094   1.205   0.084  0.8818 -0.1557  0.8577
  396SOL    HW2 1188   1.145   1.065   0.163 -0.8185  2.1961  2.1011
  397SOL     OW 1189   0.320   1.081   2.208 -0.0052 -0.4638 -0.1303
  397SOL    HW1 1190   0.419   1.096   2.223 -0.1298  1.7860 -1.1731
  397SOL    HW2 1191   0.293   1.020   2.129 -0.3074 -0.0330 -1.7369
  398SOL     OW 1192   0.834   3.095   0.400 -0.4553  0.0029 -0.8658
  398SOL    HW1 1193   0.867   0.029   0.486 -0.1273 -0.6882  3.2924
  398SOL    HW2 1194   0.911   3.045   0.353 -1.5957 -0.9609  1.5685
  399SOL     OW 1195   2.070   0.232   1.821 -0.4895 -0.0410 -0.8306
  399SOL    HW1 1196   2.022   0.304   1.879  0.2065 -2.2308  0.7958
  399SOL    HW2 1197   2.047   0.137   1.841 -0.2549  1.4069 -1.8674
  400SOL     OW 1198   0.606   1.471   1.936 -0.0582 -1.3832  0.3609
  400SOL    HW1 1199   0.698   1.504   1.960 -0.8212 -0.2247 -1.6437
  400SOL    HW2 1200   0.531   1.543   1.937 -0.6913  2.5300 -1.0225
  401SOL     OW 1201   0.634   0.996   2.744 -0.2637 -0.2257 -0.0754
  401SOL    HW1 1202   0.670   0.913   2.788  2.8787 -0.5281 -4.2008
  401SOL    HW2 1203   0.532   0.995   2.736 -2.1649  1.0210 -1.2927
  402SOL     OW 1204   3.019   2.296   1.447  0.6043 -0.0731 -0.1532
  402SOL    HW1 1205   2.957   2.222   1.478  0.9318 -0.5748  1.0676
  402SOL    HW2 1206   3.104   2.258   1.407 -1.3097 -0.4914 -4.0356
  403SOL     OW 1207   0.212   0.957   1.987 -0.2538  0.4041  0.6865
  403SOL    HW1 1208   0.125   1.013   1.986  0.9180  1.9560  1.0823
  403SOL    HW2 1209   0.270   0.991   1.913 -0.1688 -1.4064 -0.6504
  404SOL     OW 1210   0.065   2.819   1.808 -0.2040  0.1465  0.9558
  404SOL    HW1 1211   0.162   2.837   1.814 -2.7236  1.3590 -2.3290
  404SOL    HW2 1212   0.046   2.737   1.742  0.1660 -1.6529 -1.0428
  405SOL     OW 1213   0.566   0.176   1.765 -0.4088 -0.6584  0.1809
  405SOL    HW1 1214   0.503   0.112   1.820 -2.4464 -1.9640 -0.9998
  405SOL    HW2 1215   0.649   0.128   1.731  0.9967 -0.5775 -1.3804
  406SOL     OW 1216   1.679   2.205   2.474 -0.0582 -0.1760  0.3908
  406SOL    HW1 1217   1.722   2.275   2.408 -1.4396  2.1619 -0.1826
  406SOL    HW2 1218   1.751   2.152   2.529  2.6852  2.1277 -4.5242
  407SOL     OW 1219   1.401   1.332   2.454 -0.1915 -0.2121  0.0704
  407SOL    HW1 1220   1.379   1.318   2.357  3.7169  1.1386  1.1647
  407SOL    HW2 1221   1.321   1.303   2.507  0.9823 -0.0782  0.2266
  408SOL     OW 1222   0.804   0.325   2.355  0.3345  0.2574  0.4334
  408SOL    HW1 1223   0.768   0.290   2.267  0.5796 -0.2600 -1.7255
  408SOL    HW2 1224   0.738   0.391   2.393 -0.3019  0.0985 -0.8903
  409SOL     OW 1225   0.264   1.787   3.021 -0.3858  0.0404  0.4125
  409SOL    HW1 1226   0.355   1.739   3.008  2.4664 -2.7457 -0.2598
  409SOL    HW2 1227   0.260   1.839   3.112 -3.3818 -0.9257 -0.2754
  410SOL     OW 1228   2.735   1.619   0.194  0.0971  0.8943  0.5238
  410SOL    HW1 1229   2.812   1.614   0.260 -1.3918 -1.3232  1.7165
  410SOL    HW2 1230   2.755   1.694   0.132 -0.7372  0.7227  2.5761
  411SOL     OW 1231   2.795   0.376   0.972  0.3223 -0.1517 -0.1796
  411SOL    HW1 1232   2.854   0.453   0.998  0.2279  3.4138  0.0407
  411SOL    HW2 1233   2.717   0.403   0.916  2.9408 -0.3213  0.0516
  412SOL     OW 1234   1.417   1.049   1.197 -0.1121 -0.5148 -0.1271
  412SOL    HW1 1235   1.481   1.080   1.122  1.2530  2.1866 -1.9951
  412SOL    HW2 1236   1.443   1.093   1.284 -0.1516 -1.2735  2.2541
  413SOL     OW 1237   0.623   2.606   1.251 -0.1682  0.2186 -0.5133
  413SOL    HW1 1238   0.716   2.591   1.289 -1.2309  1.3530  0.7263
  413SOL    HW2 1239   0.605   2.707   1.234  1.4664  2.9350 -2.3151
  414SOL     OW 1240   2.750   1.305   2.831 -0.0795  0.2854  0.1346
  414SOL    HW1 1241   2.816   1.370   2.784  0.8221  0.5778  2.8442
  414SOL    HW2 1242   2.783   1.286   2.924  1.9147  1.4713 -1.3366
  415SOL     OW 1243   0.429   2.143   2.947  0.4714  0.2616 -0.4759
  415SOL    HW1 1244   0.506   2.095   2.996  0.3455 -0.7321  0.0480
  415SOL    HW2 1245   0.370   2.076   2.897 -2.5253 -0.2345  0.2636
  416SOL     OW 1246   1.641   0.125   0.433 -0.0989 -0.1141  0.0471
  416SOL    HW1 1247   1.706   0.050   0.454  3.2339 -0.7829 -0.9988
  416SOL    HW2 1248   1.627   0.139   0.329 -3.7597  1.6920  0.1894
  417SOL     OW 1249   0.468   0.801   0.948  0.0812 -0.2435 -0.4964
  417SOL    HW1 1250   0.446   0.897   0.921 -0.4836  0.8786 -3.3034
  417SOL    HW2 1251   0.473   0.742   0.862 -0.6029 -0.0481 -2.8596
  418SOL     OW 1252   2.358   1.209   1.971  0.6203 -0.0824  0.7115
  418SOL    HW1 1253   2.365   1.209   1.868 -0.5387  1.3605  0.6042
  418SOL    HW2 1254   2.335   1.117   2.004 -0.5529  1.0014  2.1085
  419SOL     OW 1255   0.099   0.124   0.704 -0.2440 -0.0681  0.4672
  419SOL    HW1 1256   0.135   0.147   0.610  0.4630  0.0882  1.7071
  419SOL    HW2 1257   0.117   0.202   0.763  0.2345  1.4588 -3.2281
  420SOL     OW 1258   0.397   1.401   1.118 -0.3237 -0.2632 -0.3300
  420SOL    HW1 1259   0.336   1.379   1.196 -1.1406 -0.7375  0.6886
  420SOL    HW2 1260   0.463   1.326   1.100  0.0322 -0.0383  3.4567
  421SOL     OW 1261   1.144   2.517   0.832 -0.3020  0.1408  0.4466
  421SOL    HW1 1262   1.144   2.492   0.730 -0.1257  1.3307 -2.2972
  421SOL    HW2 1263   1.154   2.433   0.895 -1.6327 -0.6778  0.8383
  422SOL     OW 1264   0.213   0.723   1.524  0.5054 -0.1325 -0.2028
  422SOL    HW1 1265   0.143   0.718   1.449  0.1592  0.4245 -2.8649
  422SOL    HW2 1266   0.291   0.783   1.505 -0.3154  1.4276 -0.6322
  423SOL     OW 1267   1.162   1.096   1.102  0.3640  0.8021  0.5725
  423SOL    HW1 1268   1.253   1.063   1.125 -1.2737 -2.2836 -0.4615
  423SOL    HW2 1269   1.143   1.087   1.000  0.4940  1.3482 -2.7162
  424SOL     OW 1270   2.043   1.207   2.920  0.2484  0.3608 -0.2613
  424SOL    HW1 1271   2.101   1.246   2.994 -1.5900 -1.8584  1.2035
  424SOL    HW2 1272   1.987   1.278   2.875 -0.3726 -0.7920 -0.5830
  425SOL     OW 1273   0.113   0.440   2.092 -0.3811  0.1372  0.2291
  425SOL    HW1 1274   0.152   0.534   2.092 -3.8153  3.4118  0.8865
  425SOL    HW2 1275   0.014   0.444   2.120 -1.8156  1.0186 -0.0930
  426SOL     OW 1276   3.033   2.704   3.093 -0.1983 -0.1230 -0.4827
  426SOL    HW1 1277   3.081   2.638   3.038  0.6233  2.7729  2.8979
  426SOL    HW2 1278   3.068   2.701   0.073  1.4111  2.1952 -1.1776
  427SOL     OW 1279   1.008   0.741   2.318  0.0805 -0.3923 -0.4394
  427SOL    HW1 1280   0.918   0.793   2.303 -1.4451 -1.0558  0.4546
  427SOL    HW2 1281   1.063   0.795   2.387  0.2811  0.0198  1.2852
  428SOL     OW 1282   2.378   1.241   1.689  0.1225  0.3311 -0.1853
  428SOL    HW1 1283   2.452   1.194   1.634  0.7893 -1.4272  0.7219
  428SOL    HW2 1284   2.305   1.283   1.628 -1.5709 -1.7706 -1.5279
  429SOL     OW 1285   2.505   2.478   0.629  0.0912 -0.2209 -0.3143
  429SOL    HW1 1286   2.501   2.422   0.543 -1.1880 -0.5014 -0.3207
  429SOL    HW2 1287   2.447   2.563   0.625 -0.0351  0.9888 -1.3146
  430SOL     OW 1288   1.404   1.877   2.499  0.4831  0.6568  0.0919
  430SOL    HW1 1289   1.351   1.857   2.414  4.7993  1.9475  1.9815
  430SOL    HW2 1290   1.471   1.952   2.472 -1.3853  0.7998 -0.7039
  431SOL     OW 1291   3.082   1.566   1.586 -0.0555  0.1538  0.0913
  431SOL    HW1 1292   3.109   1.476   1.614  1.3522  0.4224 -0.0448
  431SOL    HW2 1293   3.007   1.600   1.644 -0.9025 -0.0355 -0.5479
  432SOL     OW 1294   1.454   2.876   2.642 -0.0275 -0.6228  0.6401
  432SOL    HW1 1295   1.380   2.840   2.579 -1.3069 -1.3260  0.2992
  432SOL    HW2 1296   1.504   2.800   2.688 -2.8052  1.4589  1.2302
  433SOL     OW 1297   1.869   0.249   2.315  0.2887 -0.6623 -0.2993
  433SOL    HW1 1298   1.951   0.221   2.264  0.1810  0.3216  1.5588
  433SOL    HW2 1299   1.814   0.329   2.276 -2.0428  0.7359  1.2814
  434SOL     OW 1300   0.301   2.789   2.118  0.2466 -0.3527 -0.4173
  434SOL    HW1 1301   0.252   2.738   2.191 -0.3868  0.7907 -1.4762
  434SOL    HW2 1302   0.318   2.721   2.045  0.3567  1.1946  2.6825
  435SOL     OW 1303   0.033   2.417   0.124 -0.3345  0.2843 -0.3356
  435SOL    HW1 1304   0.119   2.399   0.073 -0.1014 -0.3934  1.2346
  435SOL    HW2 1305   0.037   2.509   0.169 -0.3966 -0.3281  1.8901
  436SOL     OW 1306   0.696   0.622   2.114  0.3141  0.4872  0.0772
  436SOL    HW1 1307   0.667   0.658   2.025 -0.6888  0.5855 -1.4347
  436SOL    HW2 1308   0.796   0.595   2.116 -0.1130 -3.0469  1.0615
  437SOL     OW 1309   0.395   2.880   2.593 -0.7245 -0.2786 -0.4530
  437SOL    HW1 1310   0.417   2.944   2.518 -0.9350  0.1982  2.9585
  437SOL    HW2 1311   0.474   2.864   2.657 -1.9842  1.6002  1.0406
  438SOL     OW 1312   0.557   1.479   1.634  0.1742  0.1148  0.0262
  438SOL    HW1 1313   0.607   1.431   1.563 -0.4228  0.9997 -1.3203
  438SOL    HW2 1314   0.583   1.460   1.730 -0.6045 -0.4398  0.3584
  439SOL     OW 1315   2.164   0.850   2.587 -0.0664 -0.1557 -0.2322
  439SOL    HW1 1316   2.188   0.868   2.490 -0.8508  1.4247 -1.0265
  439SOL    HW2 1317   2.175   0.933   2.644 -1.0078 -0.3170  0.5172
  440SOL     OW 1318   0.284   0.637   0.186  0.2110 -0.2006  0.1012
  440SOL    HW1 1319   0.320   0.553   0.234 -2.1239  0.6230  1.2575
  440SOL    HW2 1320   0.184   0.639   0.188 -1.3337  0.1092 -1.1923
  441SOL     OW 1321   1.271   2.299   1.279  0.2106  0.2255  0.7491
  441SOL    HW1 1322   1.312   2.383   1.242 -1.7444 -0.4946 -0.4041
  441SOL    HW2 1323   1.219   2.316   1.368 -2.2553  0.2835  3.3501
  442SOL     OW 1324   2.745   1.438   0.797 -0.0025 -0.0760 -0.5114
  442SOL    HW1 1325   2.753   1.480   0.888 -0.6106  0.9109 -0.7030
  442SOL    HW2 1326   2.657   1.471   0.749  0.5747 -0.1895  0.0074
  443SOL     OW 1327   2.681   2.045   2.383  0.1261 -0.2116  0.0624
  443SOL    HW1 1328   2.669   2.052   2.484  0.0481 -0.1444 -1.8329
  443SOL    HW2 1329   2.602   2.001   2.337 -2.8859 -0.7794  0.5686
  444SOL     OW 1330   1.579   1.201   0.020  0.0298  0.1481  0.3435
  444SOL    HW1 1331   1.633   1.125   0.051  0.7374 -0.6647 -2.8713
  444SOL    HW2 1332   1.528   1.250   0.095 -2.0173 -0.8963  3.1368
  445SOL     OW 1333   2.669   3.092   1.987  0.3157  0.4950  0.2570
  445SOL    HW1 1334   2.598   3.088   1.913 -1.0307 -0.8582  0.1713
  445SOL    HW2 1335   2.721   0.065   1.983 -0.9586 -3.0814 -1.0791
  446SOL     OW 1336   0.278   1.056   1.280  0.7255  0.6915 -0.2361
  446SOL    HW1 1337   0.325   1.013   1.359 -1.7673  0.3300 -2.1133
  446SOL    HW2 1338   0.203   0.995   1.246  0.8422 -1.9196 -0.4187
  447SOL     OW 1339   1.216   1.758   0.743 -0.0019 -0.2897 -0.0847
  447SOL    HW1 1340   1.236   1.825   0.822  0.7381  0.8814  1.5242
  447SOL    HW2 1341   1.122   1.788   0.707  1.7904  1.5007 -1.6710
  448SOL     OW 1342   1.365   0.936   1.689 -0.2480 -0.0615  0.3967
  448SOL    HW1 1343   1.402   0.962   1.780  0.1511  0.8711 -4.0615
  448SOL    HW2 1344   1.279   0.881   1.703  1.1403 -0.2379 -0.2133
  449SOL     OW 1345   3.055   2.255   2.244  0.1196  0.2232  0.1193
  449SOL    HW1 1346   3.052   2.342   2.192  0.7611  1.5214 -1.6916
  449SOL    HW2 1347   3.075   2.182   2.183 -0.7302  2.1528  1.4666
  450SOL     OW 1348   3.000   1.948   1.701 -0.1970  0.3752  0.1989
  450SOL    HW1 1349   2.953   2.003   1.627 -2.6198 -1.9322 -0.4928
  450SOL    HW2 1350   2.971   1.988   1.792 -0.7637  0.1269  0.4058
  451SOL     OW 1351   2.328   0.891   1.227  0.2070 -0.0968  0.3502
  451SOL    HW1 1352   2.244   0.843   1.236 -0.5258  1.2029  0.0117
  451SOL    HW2 1353   2.398   0.823   1.198  4.7314  1.0218  2.5186
  452SOL     OW 1354   0.800   1.393   0.909  0.4596 -0.2175  0.8195
  452SOL    HW1 1355   0.902   1.404   0.901 -2.4653 -0.3951  1.9985
  452SOL    HW2 1356   0.757   1.433   0.833  1.2061 -0.3468  4.3836
  453SOL     OW 1357   0.952   1.948   0.977 -0.2985 -0.1748 -0.4578
  453SOL    HW1 1358   0.929   2.048   0.981 -0.6092 -3.2873 -2.0978
  453SOL    HW2 1359   1.049   1.929   0.958 -1.2592 -1.3085 -2.9934
  454SOL     OW 1360   0.458   1.587   2.933  0.0656  0.4739  0.8889
  454SOL    HW1 1361   0.524   1.605   2.854  0.2524  1.2806 -0.8188
  454SOL    HW2 1362   0.469   1.496   2.971  0.3111  1.2793 -0.6252
  455SOL     OW 1363   1.837   0.825   0.438 -0.3505 -0.1546  0.4116
  455SOL    HW1 1364   1.917   0.769   0.472  1.0966 -0.8706  1.7158
  455SOL    HW2 1365   1.828   0.813   0.333  2.0578 -1.1935 -4.0565
  456SOL     OW 1366   2.218   2.528   0.884  0.2792 -0.4050  0.0856
  456SOL    HW1 1367   2.241   2.576   0.797  0.6996  1.4663 -3.3270
  456SOL    HW2 1368   2.305   2.519   0.941  0.3513  1.2696  0.5075
  457SOL     OW 1369   1.746   2.817   2.899 -0.1137 -0.0154 -0.0328
  457SOL    HW1 1370   1.672   2.885   2.918  0.5590 -1.0503 -0.3610
  457SOL    HW2 1371   1.782   2.822   2.804 -1.1817  0.4497 -0.3878
  458SOL     OW 1372   2.239   0.448   0.209 -0.2568 -0.1895  0.0105
  458SOL    HW1 1373   2.263   0.393   0.126 -0.0583  0.0276 -2.0571
  458SOL    HW2 1374   2.149   0.480   0.180  3.1563  0.3188  0.0995
  459SOL     OW 1375   3.074   0.927   2.264 -0.2972 -0.2955  0.1506
  459SOL    HW1 1376   3.019   1.003   2.307  1.2069  0.8374 -0.0319
  459SOL    HW2 1377   3.079   0.948   2.166 -2.1194 -0.4840 -1.3494
  460SOL     OW 1378   0.526   0.896   3.005  0.2405  0.0883  0.3337
  460SOL    HW1 1379   0.609   0.861   2.958 -2.0895  0.7704  3.8588
  460SOL    HW2 1380   0.466   0.818   3.026  2.0919  3.9949 -2.5024
  461SOL     OW 1381   2.678   2.656   0.823 -0.3666  0.5079 -0.5560
  461SOL    HW1 1382   2.641   2.680   0.916 -2.3936  2.0737  1.0396
  461SOL    HW2 1383   2.633   2.576   0.780 -0.6791 -1.4334  0.1190
  462SOL     OW 1384   0.302   0.121   1.569 -1.0186  0.2956 -0.2118
  462SOL    HW1 1385   0.223   0.173   1.537 -1.0211 -2.4413 -0.8786
  462SOL    HW2 1386   0.382   0.141   1.517 -1.2403 -0.5098 -0.1176
  463SOL     OW 1387   2.116   2.459   2.137 -0.5516  0.0576  0.4548
  463SOL    HW1 1388   2.122   2.358   2.148 -0.8400 -1.5799 -0.5800
  463SOL    HW2 1389   2.020   2.480   2.116  1.7024 -2.2274  1.9566
  464SOL     OW 1390   0.779   0.109   1.413  0.8764  0.1035  0.0826
  464SOL    HW1 1391   0.815   0.060   1.330 -0.7582 -1.0656 -1.5369
  464SOL    HW2 1392   0.832   0.193   1.431 -1.3033 -0.0243  0.1065
  465SOL     OW 1393   0.751   0.007   1.659 -0.1170 -0.3831 -0.0290
  465SOL    HW1 1394   0.762   0.048   1.569  0.4984  0.8756 -0.6167
  465SOL    HW2 1395   0.840   3.098   1.705 -0.4318  2.6053  0.4726
  466SOL     OW 1396   1.310   1.991   1.922 -0.5111  0.5443 -0.2821
  466SOL    HW1 1397   1.220   2.044   1.913  1.1424 -1.9638  1.8073
  466SOL    HW2 1398   1.292   1.888   1.919  2.4980 -0.6403 -1.5856
  467SOL     OW 1399   0.131   1.781   1.138 -0.0841 -0.1866  0.1774
  467SOL    HW1 1400   0.108   1.708   1.209  0.2808 -0.8361 -1.0990
  467SOL    HW2 1401   0.069   1.770   1.059  0.1116 -2.0632 -1.8056
  468SOL     OW 1402   2.526   1.845   2.669  0.1753  0.0032 -0.2652
  468SOL    HW1 1403   2.610   1.894   2.705 -0.2672 -0.0880  1.1350
  468SOL    HW2 1404   2.551   1.811   2.577  2.7755 -0.1707  0.9246
  469SOL     OW 1405   1.049   2.143   0.765 -0.4708 -0.6571 -0.3381
  469SOL    HW1 1406   1.084   2.077   0.696 -0.8633  1.2918 -0.1658
  469SOL    HW2 1407   0.954   2.177   0.740 -0.1695 -1.3387  3.0643
  470SOL     OW 1408   2.460   1.801   1.154  0.2908  0.4443 -0.0338
  470SOL    HW1 1409   2.507   1.874   1.200 -1.2591 -1.7574  0.3988
  470SOL    HW2 1410   2.358   1.792   1.171 -1.6989 -2.1574 -1.0022
  471SOL     OW 1411   0.262   2.337   3.050 -0.0357 -0.0819 -0.2594
  471SOL    HW1 1412   0.298   2.281   2.975  0.6084 -0.1809  1.3273
  471SOL    HW2 1413   0.328   2.404   3.082 -2.0185 -1.7026 -0.1330
  472SOL     OW 1414   2.919   1.927   2.200 -0.1159 -0.3713 -0.0910
  472SOL    HW1 1415   2.997   1.997   2.207  1.4178  0.2625  0.4445
  472SOL    HW2 1416   2.851   1.947   2.271  1.5520  0.0596  1.0018
  473SOL     OW 1417   0.875   2.654   0.827 -0.2986  0.1124  0.2024
  473SOL    HW1 1418   0.973   2.618   0.802  0.5486  2.3902  0.1584
  473SOL    HW2 1419   0.832   2.678   0.735 -1.1074 -0.8139  1.3638
  474SOL     OW 1420   3.015   0.097   1.251 -0.1231  0.1283  0.0980
  474SOL    HW1 1421   2.944   0.168   1.239  1.5031 -0.6953 -0.0781
  474SOL    HW2 1422   3.046   0.096   1.346  2.5098  0.9317 -0.4689
  475SOL     OW 1423   1.774   2.921   1.889 -0.4117  0.1936 -0.4019
  475SOL    HW1 1424   1.789   3.022   1.904 -2.7892  0.3179 -2.2264
  475SOL    HW2 1425   1.714   2.907   1.810  0.3620 -0.2281  0.4681
  476SOL     OW 1426   0.307   0.638   1.128 -0.0945 -0.0528  0.5322
  476SOL    HW1 1427   0.392   0.670   1.088 -0.6778 -1.5486 -1.0211
  476SOL    HW2 1428   0.318   0.566   1.198 -0.7434  1.4417 -0.3576
  477SOL     OW 1429   0.970   2.351   1.179 -0.1351  0.0767  0.1211
  477SOL    HW1 1430   0.926   2.299   1.101 -0.9419  1.2308  0.4230
  477SOL    HW2 1431   1.065   2.316   1.191  2.7743 -2.7043 -1.9584
  478SOL     OW 1432   0.364   2.330   2.508 -0.2019  0.9292 -0.2413
  478SOL    HW1 1433   0.398   2.417   2.551  0.7381 -0.0642 -1.3224
  478SOL    HW2 1434   0.322   2.270   2.583  0.9838  1.1569 -0.5875
  479SOL     OW 1435   0.496   0.690   1.855 -0.2145  0.6999  0.2384
  479SOL    HW1 1436   0.421   0.688   1.927 -0.8453 -0.9184  0.7513
  479SOL    HW2 1437   0.502   0.602   1.808  0.5664  0.2275 -0.0328
  480SOL     OW 1438   3.015   2.253   3.078 -0.2530  0.5088  0.1119
  480SOL    HW1 1439   2.975   2.308   3.008  0.4456 -2.0088  2.5653
  480SOL    HW2 1440   3.070   2.316   0.019 -0.4636  0.5576 -1.8303
  481SOL     OW 1441   1.519   1.990   2.092 -0.0411  0.7615 -0.3215
  481SOL    HW1 1442   1.569   1.898   2.088 -0.4816 -1.8457  0.7057
  481SOL    HW2 1443   1.438   1.986   2.025 -3.5533 -0.3680 -0.2667
  482SOL     OW 1444   1.488   2.278   2.646 -0.6091 -0.5315 -0.0342
  482SOL    HW1 1445   1.404   2.238   2.608 -0.6630  0.3891  0.1726
  482SOL    HW2 1446   1.577   2.257   2.595  2.3565 -0.2118  0.8222
  483SOL     OW 1447   0.782   2.441   2.667 -0.3598 -0.2955 -0.1010
  483SOL    HW1 1448   0.775   2.466   2.768  1.4446  0.3416  0.0494
  483SOL    HW2 1449   0.865   2.380   2.655 -0.2773 -3.6109 -1.2776
  484SOL     OW 1450   0.177   0.290   1.202  0.2805 -0.0005  0.2191
  484SOL    HW1 1451   0.104   0.341   1.253 -2.0674 -0.8589 -0.1026
  484SOL    HW2 1452   0.167   0.189   1.215  2.9731 -1.0734  1.5399
  485SOL     OW 1453   1.854   0.511   0.609 -0.0804 -0.2079 -0.4509
  485SOL    HW1 1454   1.797   0.522   0.693 -0.9961  0.3200 -1.1423
  485SOL    HW2 1455   1.910   0.596   0.590  0.9950  0.3227 -0.4059
  486SOL     OW 1456   1.779   2.880   2.208 -0.0895 -0.0544  0.1136
  486SOL    HW1 1457   1.879   2.879   2.197 -1.0279  0.3703  0.2114
  486SOL    HW2 1458   1.765   2.900   2.305  1.4077 -0.9432 -0.8711
  487SOL     OW 1459   1.643   1.876   0.762 -0.3111 -0.8245  0.0309
  487SOL    HW1 1460   1.710   1.835   0.694 -0.7132 -0.5398 -1.9296
  487SOL    HW2 1461   1.600   1.808   0.820  1.8041  1.9275 -2.0455
  488SOL     OW 1462   2.351   1.087   0.191  0.1783 -0.2525  0.3725
  488SOL    HW1 1463   2.308   1.004   0.146 -0.0471  1.3162  0.0950
  488SOL    HW2 1464   2.366   1.167   0.128 -1.0129  1.2226  4.1520
  489SOL     OW 1465   2.506   0.220   0.709 -0.6042 -0.0904  0.0691
  489SOL    HW1 1466   2.479   0.179   0.619  0.2660 -0.1973  0.3268
  489SOL    HW2 1467   2.460   0.169   0.778  0.3438 -0.2845 -2.3611
  490SOL     OW 1468   1.619   2.656   3.091 -0.0998 -0.4455 -0.0402
  490SOL    HW1 1469   1.659   2.670   0.071  1.9735  3.6266  0.3421
  490SOL    HW2 1470   1.669   2.714   3.021 -1.2170  1.1266  1.9886
  491SOL     OW 1471   0.766   0.599   1.030 -0.4974  0.1484 -0.5176
  491SOL    HW1 1472   0.794   0.679   0.976  0.2889 -0.0318 -0.2085
  491SOL    HW2 1473   0.725   0.525   0.973  1.4860 -1.2707  1.0550
  492SOL     OW 1474   1.592   0.158   0.132  1.1205 -0.1087  0.3766
  492SOL    HW1 1475   1.500   0.114   0.134 -2.9717  0.6491  1.6188
  492SOL    HW2 1476   1.616   0.193   0.038 -1.3966  1.7503 -2.5610
  493SOL     OW 1477   1.745   2.452   2.969  0.1691  0.3585  0.2858
  493SOL    HW1 1478   1.688   2.528   3.008  2.3443 -0.8534 -0.3398
  493SOL    HW2 1479   1.727   2.435   2.870 -3.4731 -1.0490  1.1680
  494SOL     OW 1480   0.370   1.180   0.670  0.6623 -0.0127 -0.0892
  494SOL    HW1 1481   0.423   1.258   0.629 -0.7803 -2.3752  1.2059
  494SOL    HW2 1482   0.270   1.202   0.686 -4.4847  1.4480  2.5322
  495SOL     OW 1483   3.042   0.113   1.537  0.3848 -0.2630  0.5212
  495SOL    HW1 1484   3.101   0.194   1.527 -0.1410 -1.5765  0.3136
  495SOL    HW2 1485   3.070   0.044   1.612 -0.7709 -0.2061  2.7806
  496SOL     OW 1486   2.538   3.032   1.556 -0.3365 -0.1486  0.1254
  496SOL    HW1 1487   2.638   3.023   1.534 -1.7106 -1.6579 -3.6223
  496SOL    HW2 1488   2.516   0.005   1.610 -2.7106 -1.7486 -1.2486
  497SOL     OW 1489   1.551   1.737   2.669 -0.5731 -0.7884  0.2770
  497SOL    HW1 1490   1.537   1.634   2.666  0.9303  1.7205 -0.7959
  497SOL    HW2 1491   1.476   1.786   2.608  0.2450  0.2639  1.5814
  498SOL     OW 1492   0.388   1.998   0.659  0.2384  0.1714 -0.6776
  498SOL    HW1 1493   0.428   1.906   0.656  1.4114  0.8999  0.9657
  498SOL    HW2 1494   0.376   2.015   0.760  1.5353 -2.3359 -0.3629
  499SOL     OW 1495   0.054   1.579   1.305 -0.1651  0.1437  0.8296
  499SOL    HW1 1496   0.092   1.486   1.289 -0.5014 -0.2877 -0.9587
  499SOL    HW2 1497   0.025   1.595   1.399  0.0054 -2.0067  0.4068
  500SOL     OW 1498   1.107   2.329   0.352 -0.3947  0.2045 -0.0707
  500SOL    HW1 1499   1.187   2.265   0.360  2.3733  3.0437  2.3874
  500SOL    HW2 1500   1.087   2.370   0.442  0.1771  1.5016 -1.8979
  501SOL     OW 1501   2.453   2.527   1.041  0.6226  0.4383 -0.5572
  501SOL    HW1 1502   2.488   2.622   1.054 -1.5976 -2.0328 -0.7413
  501SOL    HW2 1503   2.412   2.491   1.127 -1.1645  1.2680 -1.1938
  502SOL     OW 1504   0.052   1.005   1.596  0.0899 -0.7805  0.3492
  502SOL    HW1 1505   0.147   1.013   1.625 -0.2815 -0.3851 -1.9417
  502SOL    HW2 1506   0.047   0.919   1.547 -0.7890  2.1665  3.0937
  503SOL     OW 1507   2.499   0.153   1.699  0.3659  0.1998  0.4839
  503SOL    HW1 1508   2.420   0.217   1.711  2.3688  0.0287  0.1400
  503SOL    HW2 1509   2.578   0.207   1.656 -0.5534  0.4836 -0.9062
  504SOL     OW 1510   1.829   0.655   1.884  0.4929 -0.3521  0.0567
  504SOL    HW1 1511   1.746   0.640   1.942 -1.5251 -2.1387  1.0063
  504SOL    HW2 1512   1.835   0.750   1.846 -0.4063  1.6558  0.5174
  505SOL     OW 1513   1.268   0.189   2.781  0.7301  0.0813  0.4720
  505SOL    HW1 1514   1.274   0.089   2.796  0.4234 -0.5163 -0.4936
  505SOL    HW2 1515   1.256   0.246   2.862 -0.5488 -2.6277 -0.6599
  506SOL     OW 1516   0.529   0.442   1.752 -0.5860 -0.6921 -0.1938
  506SOL    HW1 1517   0.619   0.468   1.705  2.5199 -0.2054 -0.3553
  506SOL    HW2 1518   0.526   0.347   1.781  1.9011  2.9854  0.1881
  507SOL     OW 1519   1.545   3.004   2.965 -0.3017 -0.1665  0.7131
  507SOL    HW1 1520   1.551   3.090   2.911  1.6635 -1.7023  1.5943
  507SOL    HW2 1521   1.451   2.983   2.996  1.9323 -0.5943  0.6117
  508SOL     OW 1522   2.488   0.323   2.704 -0.1757  0.1902 -0.0521
  508SOL    HW1 1523   2.439   0.356   2.789 -0.7980 -0.1540 -0.0709
  508SOL    HW2 1524   2.452   0.234   2.671 -2.6251 -0.0843 -0.7065
  509SOL     OW 1525   0.974   1.392   1.836 -0.6938 -0.8818 -0.5312
  509SOL    HW1 1526   0.920   1.459   1.890  1.4645 -0.9467  1.1058
  509SOL    HW2 1527   1.004   1.428   1.747 -2.6289  1.2414  2.8937
  510SOL     OW 1528   3.108   0.950   0.946  0.4393 -0.6443 -0.0547
  510SOL    HW1 1529   0.041   0.912   0.868  0.3373  3.7269  0.8334
  510SOL    HW2 1530   3.011   0.961   0.921  3.9050 -1.8558 -0.0002
  511SOL     OW 1531   1.866   1.661   0.947 -0.2789  0.3763  0.3072
  511SOL    HW1 1532   1.827   1.677   1.044 -1.3438  0.0307  3.3531
  511SOL    HW2 1533   1.793   1.651   0.873 -5.4579 -0.8257 -0.6809
  512SOL     OW 1534   0.756   1.382   0.160  0.4773  0.6249  0.3435
  512SOL    HW1 1535   0.676   1.377   0.103  1.1375  1.2815  2.0863
  512SOL    HW2 1536   0.825   1.451   0.137 -0.7157 -3.5300  2.5074
  513SOL     OW 1537   0.189   2.448   0.599  0.1685  0.0345  0.6982
  513SOL    HW1 1538   0.137   2.515   0.545 -0.4169  2.6156  1.8376
  513SOL    HW2 1539   0.288   2.464   0.585  1.0947 -2.1852  0.2671
  514SOL     OW 1540   0.178   1.647   2.774  0.4828 -0.1869 -0.2423
  514SOL    HW1 1541   0.240   1.661   2.855  1.9594  1.0085 -1.2662
  514SOL    HW2 1542   0.182   1.557   2.734  0.7008  2.0657  0.4307
  515SOL     OW 1543   2.464   0.522   0.322  0.0584 -0.7470  0.0255
  515SOL    HW1 1544   2.438   0.621   0.347 -1.2000  0.7672 -1.7927
  515SOL    HW2 1545   2.378   0.475   0.301 -1.3494 -0.6590  1.9524
  516SOL     OW 1546   2.554   2.769   1.055 -0.2383  0.3761  0.4071
  516SOL    HW1 1547   2.580   2.782   1.154 -2.0787 -0.4835 -0.2469
  516SOL    HW2 1548   2.528   2.858   1.012 -0.2898 -0.5956  0.4298
  517SOL     OW 1549   1.314   1.829   2.984  0.5950 -0.2701 -0.1531
  517SOL    HW1 1550   1.392   1.824   3.050 -0.9106  1.0321 -1.2930
  517SOL    HW2 1551   1.238   1.779   3.026  0.9584 -1.9109 -1.9335
  518SOL     OW 1552   1.129   0.782   1.737 -0.1309  0.1934  0.3259
  518SOL    HW1 1553   1.043   0.792   1.689  3.0893  0.2850  2.9872
  518SOL    HW2 1554   1.171   0.693   1.709 -1.0227 -0.7098  1.4617
  519SOL     OW 1555   2.776   1.701   0.643  0.0449 -0.3954 -0.6429
  519SOL    HW1 1556   2.785   1.692   0.746 -1.8819  0.8001 -0.6320
  519SOL    HW2 1557   2.775   1.609   0.607 -0.1230  1.7920 -1.9256
  520SOL     OW 1558   2.134   2.199   1.891  0.0281 -0.1480  0.3644
  520SOL    HW1 1559   2.172   2.191   1.985  2.3723 -1.2336  1.5839
  520SOL    HW2 1560   2.037   2.225   1.888  1.4156 -2.2610 -0.1879
  521SOL     OW 1561   1.008   3.052   2.631 -0.2170  0.4002  0.2076
  521SOL    HW1 1562   0.955   0.022   2.619  2.2932  2.1317  2.6700
  521SOL    HW2 1563   1.020   2.999   2.542  0.1028 -2.8502  0.7662
  522SOL     OW 1564   2.609   0.459   2.500 -0.0005 -0.6430  0.4180
  522SOL    HW1 1565   2.642   0.398   2.426  0.8127  2.4801  2.4964
  522SOL    HW2 1566   2.572   0.412   2.578  2.5487  0.6697  1.7301
  523SOL     OW 1567   1.594   2.389   1.809 -0.5533 -0.5281  0.2052
  523SOL    HW1 1568   1.605   2.460   1.737  2.6381  1.9080  1.9564
  523SOL    HW2 1569   1.679   2.340   1.827 -0.9689  2.4719  2.0732
  524SOL     OW 1570   1.564   2.177   2.892  0.4544 -0.5585 -1.0089
  524SOL    HW1 1571   1.533   2.222   2.809  0.1527 -3.1327  2.1302
  524SOL    HW2 1572   1.560   2.077   2.876  0.0843  1.6368  0.9170
  525SOL     OW 1573   0.068   0.859   0.360 -0.0569  0.3722 -0.6889
  525SOL    HW1 1574   0.010   0.877   0.443 -0.9225  0.4720  1.0404
  525SOL    HW2 1575   0.167   0.878   0.378  0.7043  4.8218 -1.9790
  526SOL     OW 1576   0.731   2.983   0.710  0.6684 -0.3436 -0.3988
  526SOL    HW1 1577   0.800   3.048   0.673  2.9617 -2.7544  0.4037
  526SOL    HW2 1578   0.644   3.040   0.726 -0.7524  1.4389  0.5550
  527SOL     OW 1579   2.621   1.797   0.378 -0.3338  0.6771 -0.3543
  527SOL    HW1 1580   2.668   1.766   0.461 -0.3103  0.0483 -1.7353
  527SOL    HW2 1581   2.646   1.731   0.304  0.2134  0.2053  0.5351
  528SOL     OW 1582   0.790   0.967   2.317  0.2924 -0.6222  0.3465
  528SOL    HW1 1583   0.828   1.015   2.401  1.1787  2.9893  3.7982
  528SOL    HW2 1584   0.728   1.029   2.263 -1.8197  1.5802  0.1040
  529SOL     OW 1585   1.246   1.609   2.792  0.2615  0.3887 -0.8725
  529SOL    HW1 1586   1.251   1.709   2.804 -2.0955  0.1247 -0.2539
  529SOL    HW2 1587   1.331   1.558   2.768  0.6504 -1.1964  1.6282
  530SOL     OW 1588   1.672   1.259   2.484  0.5326 -0.4053  0.2695
  530SOL    HW1 1589   1.571   1.288   2.475 -1.6711 -1.0886  0.3179
  530SOL    HW2 1590   1.687   1.191   2.557  1.3652  3.1422  1.5545
  531SOL     OW 1591   0.614   2.233   2.758 -0.1819 -0.3745 -0.4526
  531SOL    HW1 1592   0.546   2.238   2.835  0.2086  0.3958  1.3770
  531SOL    HW2 1593   0.664   2.324   2.752  0.4370  1.6870  1.4548
  532SOL     OW 1594   2.418   0.860   0.598  0.7326  0.0761  0.5690
  532SOL    HW1 1595   2.463   0.950   0.591  0.5804  2.3372 -1.5917
  532SOL    HW2 1596   2.420   0.821   0.502 -0.5254  0.4009 -0.2123
  533SOL     OW 1597   0.028   0.445   1.817  0.0000 -0.0652 -0.0960
  533SOL    HW1 1598   0.118   0.469   1.769  1.1721  1.6709 -0.8122
  533SOL    HW2 1599   0.039   0.447   1.920 -2.0253  0.1748  2.7046
  534SOL     OW 1600   1.334   0.013   0.126  0.2285 -0.1001  0.5573
  534SOL    HW1 1601   1.246   0.059   0.133 -0.5767 -0.8083  0.3359
  534SOL    HW2 1602   1.334   3.067   0.040  1.6975 -0.2068  2.1635
  535SOL     OW 1603   0.408   0.008   0.103 -0.4034 -0.0491 -0.1505
  535SOL    HW1 1604   0.360   3.086   0.022 -0.7981  0.6559 -0.3301
  535SOL    HW2 1605   0.346   0.077   0.147  1.6401  1.5495  0.5357
  536SOL     OW 1606   0.400   1.650   1.450  0.3078  0.0680 -0.4492
  536SOL    HW1 1607   0.304   1.615   1.467 -0.1634  0.8071  0.0084
  536SOL    HW2 1608   0.470   1.608   1.515  0.2740 -0.5039  0.8746
  537SOL     OW 1609   0.548   2.489   1.820  0.3619 -0.1196 -0.1662
  537SOL    HW1 1610   0.500   2.456   1.732  0.9691 -0.8664 -0.5598
  537SOL    HW2 1611   0.587   2.414   1.873 -0.9122 -2.4483 -0.0624
  538SOL     OW 1612   0.054   1.609   3.060  0.4642  0.2389 -0.0945
  538SOL    HW1 1613   0.133   1.672   3.045  2.1796 -1.2375 -1.1900
  538SOL    HW2 1614   0.013   1.630   0.041  1.6631  0.0269  2.2822
  539SOL     OW 1615   2.674   0.689   2.628  0.5930 -0.0785  0.1785
  539SOL    HW1 1616   2.626   0.610   2.585 -1.3862 -1.3878  0.7151
  539SOL    HW2 1617   2.644   0.773   2.577 -0.3464  2.8057  1.0510
  540SOL     OW 1618   1.787   0.663   2.561 -0.1454  0.4056 -0.4443
  540SOL    HW1 1619   1.717   0.593   2.575  1.1811 -0.2235  1.1217
  540SOL    HW2 1620   1.876   0.608   2.550 -0.0790  1.4664  0.2051
  541SOL     OW 1621   0.985   3.058   1.812  0.2048  0.4212  0.0362
  541SOL    HW1 1622   0.907   3.029   1.875 -0.4492 -2.5000  0.6537
  541SOL    HW2 1623   1.014   0.035   1.832  0.2940 -1.1431  1.1326
  542SOL     OW 1624   1.902   2.711   2.617 -0.0188  0.3435 -0.1252
  542SOL    HW1 1625   1.839   2.767   2.557  0.0838 -2.4404 -2.5562
  542SOL    HW2 1626   1.937   2.637   2.559  0.4824  1.3826 -1.4899
  543SOL     OW 1627   0.517   0.030   0.746  0.1702 -0.0881 -0.0951
  543SOL    HW1 1628   0.442   3.093   0.785 -0.3155  0.3199 -2.6352
  543SOL    HW2 1629   0.487   0.125   0.737  0.2623 -0.0479  1.4997
  544SOL     OW 1630   2.576   1.561   1.933 -0.2791  0.1223  0.1729
  544SOL    HW1 1631   2.613   1.647   1.981 -0.1261 -0.6896  1.0222
  544SOL    HW2 1632   2.480   1.545   1.957  2.7329  0.6504  0.7922
  545SOL     OW 1633   1.917   1.867   1.406 -0.1563 -0.5968  0.3257
  545SOL    HW1 1634   1.875   1.816   1.326 -1.8770 -0.5179  3.6207
  545SOL    HW2 1635   1.998   1.820   1.451  2.2841  0.8552  1.0333
  546SOL     OW 1636   0.258   0.095   2.256 -0.1813  0.0487  0.8453
  546SOL    HW1 1637   0.295   0.154   2.178  2.0165 -0.1065 -1.1808
  546SOL    HW2 1638   0.211   0.011   2.223 -0.9652  1.4685  1.0907
  547SOL     OW 1639   1.227   0.680   1.062 -0.1121  0.1462  0.7424
  547SOL    HW1 1640   1.247   0.691   1.161 -1.5922 -1.1939 -1.3694
  547SOL    HW2 1641   1.306   0.709   1.006  0.8458  0.1005 -2.9264
  548SOL     OW 1642   1.337   2.421   2.870 -0.4011 -0.1837  0.1395
  548SOL    HW1 1643   1.249   2.386   2.904 -0.8513 -0.2915 -0.4122
  548SOL    HW2 1644   1.368   2.367   2.794 -2.2652  0.7361  3.7313
  549SOL     OW 1645   2.172   0.243   0.025  0.0094 -0.2769 -0.4368
  549SOL    HW1 1646   2.096   0.248   0.097  1.1048  1.1735  1.9154
  549SOL    HW2 1647   2.253   0.194   0.068 -1.5861 -0.3452  2.2513
  550SOL     OW 1648   2.835   1.956   0.563 -0.1983  0.2432 -0.2794
  550SOL    HW1 1649   2.821   1.854   0.585  0.1497 -3.8867 -0.8533
  550SOL    HW2 1650   2.746   2.002   0.576  2.9349 -0.1114  1.3353
  551SOL     OW 1651   1.077   2.883   2.145  0.3042 -0.9544 -0.5241
  551SOL    HW1 1652   1.092   2.813   2.073  1.0151  1.7257  0.8115
  551SOL    HW2 1653   1.070   2.975   2.103  1.6365 -1.4007 -1.0984
  552SOL     OW 1654   3.074   2.228   2.702 -0.7096 -0.0892 -0.2500
  552SOL    HW1 1655   3.008   2.209   2.626  0.5755  0.3810 -0.3727
  552SOL    HW2 1656   3.025   2.273   2.780  1.2704 -2.9847  1.8068
  553SOL     OW 1657   0.271   2.695   0.997  0.2760 -0.0687 -0.0631
  553SOL    HW1 1658   0.171   2.696   1.010  0.9398 -0.7642 -4.6906
  553SOL    HW2 1659   0.293   2.619   0.937  2.4366  1.1938  2.8761
  554SOL     OW 1660   2.418   2.092   1.565 -0.2120 -0.0555  0.3103
  554SOL    HW1 1661   2.331   2.078   1.614  0.0400  0.4186 -2.1876
  554SOL    HW2 1662   2.421   2.013   1.500 -2.6293  0.4321  1.0383
  555SOL     OW 1663   1.645   2.235   2.084 -0.0456  0.3441  0.1490
  555SOL    HW1 1664   1.595   2.146   2.104  0.1024 -1.9564  0.0842
  555SOL    HW2 1665   1.581   2.307   2.092 -0.1941 -1.5889 -1.2309
  556SOL     OW 1666   1.527   1.358   0.754  0.0324  0.3199 -0.0420
  556SOL    HW1 1667   1.609   1.416   0.734  0.5437  1.5323  2.1409
  556SOL    HW2 1668   1.448   1.417   0.780 -2.8397  0.5426  0.1560
  557SOL     OW 1669   1.554   2.845   1.729  0.2859  0.3005  0.5032
  557SOL    HW1 1670   1.473   2.832   1.792 -2.3185  0.8583  1.6366
  557SOL    HW2 1671   1.543   2.934   1.679  0.1496 -0.6078  1.9859
  558SOL     OW 1672   0.272   0.062   1.857  0.1522  0.1900 -0.1208
  558SOL    HW1 1673   0.279   0.129   1.933  1.1685  0.6796 -0.5932
  558SOL    HW2 1674   0.293   0.107   1.764 -0.1502  1.5906 -1.8353
  559SOL     OW 1675   2.224   2.923   0.745  0.3214 -0.3863 -0.0106
  559SOL    HW1 1676   2.176   2.986   0.805  1.0818  0.2165  0.4431
  559SOL    HW2 1677   2.191   2.937   0.650  1.5299  1.0658 -0.4004
  560SOL     OW 1678   1.533   2.501   0.862  0.3465 -0.1292 -0.2300
  560SOL    HW1 1679   1.555   2.590   0.824  2.1159 -0.2789 -0.3948
  560SOL    HW2 1680   1.559   2.497   0.960 -0.5852  0.9430 -0.4373
  561SOL     OW 1681   0.893   0.125   0.630 -0.2202 -0.0008 -0.3743
  561SOL    HW1 1682   0.969   0.187   0.604 -0.6489 -0.9300 -0.1012
  561SOL    HW2 1683   0.806   0.174   0.634 -0.0922 -2.3126 -0.1430
  562SOL     OW 1684   0.440   1.365   2.377  0.6783 -0.2513  0.5347
  562SOL    HW1 1685   0.470   1.462   2.373  1.1605 -0.6155  0.0935
  562SOL    HW2 1686   0.447   1.326   2.468  2.0256  0.6715 -1.8342
  563SOL     OW 1687   1.462   2.118   2.322 -0.1739 -0.3582  0.4417
  563SOL    HW1 1688   1.461   2.066   2.234 -0.2380  0.4002 -0.8403
  563SOL    HW2 1689   1.557   2.134   2.350 -0.9582 -2.2517  0.8677
  564SOL     OW 1690   2.858   1.022   0.866  0.0645  0.4695 -0.5579
  564SOL    HW1 1691   2.862   1.029   0.761 -0.0678  1.6540 -5.8955
  564SOL    HW2 1692   2.782   0.964   0.903 -0.3290 -1.7492  3.4462
  565SOL     OW 1693   0.553   0.969   0.146  0.3877  0.1662 -0.3054
  565SOL    HW1 1694   0.553   0.972   0.046 -0.7305 -1.0509  2.6631
  565SOL    HW2 1695   0.599   1.043   0.196 -0.2737  2.9045  1.3280
  566SOL     OW 1696   2.488   0.026   2.871 -0.0721 -0.4138 -0.0184
  566SOL    HW1 1697   2.427   0.051   2.949 -2.2769  2.1378  1.3677
  566SOL    HW2 1698   2.443   0.052   2.784 -2.3841 -0.7748  3.0729
  567SOL     OW 1699   1.447   0.751   0.903  0.0757  0.1872 -0.2053
  567SOL    HW1 1700   1.540   0.747   0.945  1.1165 -1.3860  1.9806
  567SOL    HW2 1701   1.437   0.839   0.857  1.9248  0.2346  2.0717
  568SOL     OW 1702   1.629   1.887   2.887  0.3101  0.3127 -0.0232
  568SOL    HW1 1703   1.581   1.882   2.978 -0.9681  2.0738 -0.5441
  568SOL    HW2 1704   1.574   1.826   2.824 -2.1720  1.0189  1.2176
  569SOL     OW 1705   2.160   1.353   0.004 -0.1187 -0.3496 -0.3675
  569SOL    HW1 1706   2.117   1.445   3.104 -1.2561 -0.9194  0.1358
  569SOL    HW2 1707   2.260   1.355   3.113 -0.4330  0.6877 -0.7949
  570SOL     OW 1708   0.148   2.431   1.868 -0.2659  0.4541  0.0666
  570SOL    HW1 1709   0.208   2.512   1.877 -0.3362 -0.6792 -0.1819
  570SOL    HW2 1710   0.134   2.409   1.767  3.3614 -0.1615 -1.5747
  571SOL     OW 1711   2.908   1.703   1.754  0.1113 -0.0805  0.5178
  571SOL    HW1 1712   2.949   1.790   1.720  0.3576  1.8379 -0.7983
  571SOL    HW2 1713   2.926   1.686   1.852  2.1026  1.4005 -0.1206
  572SOL     OW 1714   1.514   1.995   0.469  0.2539  0.3168  0.0610
  572SOL    HW1 1715   1.503   1.898   0.438 -0.6979 -1.5633  1.6938
  572SOL    HW2 1716   1.589   1.999   0.543  2.4138  2.0720  2.0634
  573SOL     OW 1717   1.739   2.219   0.428 -0.1681 -0.6271 -0.1069
  573SOL    HW1 1718   1.717   2.253   0.336  1.2012 -0.1866 -1.2401
  573SOL    HW2 1719   1.704   2.282   0.498 -0.0007  0.9228 -0.4587
  574SOL     OW 1720   0.826   0.003   1.161  0.4476 -0.1753  0.4422
  574SOL    HW1 1721   0.732   3.063   1.178 -1.8066 -3.0900  0.2692
  574SOL    HW2 1722   0.858   3.105   1.065 -0.7529 -0.2426  0.5630
  575SOL     OW 1723   0.819   0.942   1.831  0.1304 -0.2016 -0.0445
  575SOL    HW1 1724   0.840   1.032   1.798  1.5558 -1.3396  0.0958
  575SOL    HW2 1725   0.872   0.936   1.918 -1.1683 -1.0146 -2.5291
  576SOL     OW 1726   2.699   0.342   1.619  0.6788  0.0782 -0.0035
  576SOL    HW1 1727   2.781   0.398   1.614  0.1420 -1.1330  0.7933
  576SOL    HW2 1728   2.685   0.305   1.523  1.4262  1.3973 -1.2588
  577SOL     OW 1729   1.167   1.024   2.404 -0.3562 -0.4872 -0.8432
  577SOL    HW1 1730   1.172   1.079   2.493  0.4472  1.3072  3.1714
  577SOL    HW2 1731   1.222   0.939   2.419  1.4123  0.1403 -1.6306
  578SOL     OW 1732   2.144   1.274   2.555  0.5009 -0.0124 -0.4341
  578SOL    HW1 1733   2.070   1.345   2.550  0.4304  1.3211  0.4717
  578SOL    HW2 1734   2.227   1.299   2.504 -0.6161  0.1521  0.7663
  579SOL     OW 1735   1.443   2.165   1.738  0.4493  0.1586  0.3111
  579SOL    HW1 1736   1.415   2.110   1.820  2.9240  1.1305 -3.0628
  579SOL    HW2 1737   1.486   2.254   1.767  1.0289 -1.3250  0.7729
  580SOL     OW 1738   1.347   2.194   0.371 -0.2717 -0.6038  0.3162
  580SOL    HW1 1739   1.412   2.134   0.423  1.0799 -1.0271 -1.3167
  580SOL    HW2 1740   1.407   2.245   0.301  0.3536  0.1812 -0.8232
  581SOL     OW 1741   1.356   0.788   2.122 -0.0977  0.2432 -0.5072
  581SOL    HW1 1742   1.262   0.787   2.080 -1.9385  1.2325 -0.9101
  581SOL    HW2 1743   1.359   0.799   2.225 -0.6790  1.5246  1.3408
  582SOL     OW 1744   0.823   1.190   1.743 -0.0908  0.1174 -0.2262
  582SOL    HW1 1745   0.888   1.264   1.770 -2.0470 -0.6601 -0.9345
  582SOL    HW2 1746   0.771   1.222   1.666  3.9591 -0.5305  1.5670
  583SOL     OW 1747   1.147   1.176   2.002 -0.0043 -0.2388 -0.0179
  583SOL    HW1 1748   1.069   1.108   2.027 -1.5319 -3.4623 -0.6474
  583SOL    HW2 1749   1.111   1.246   1.937 -0.6031 -1.1882 -0.2426
  584SOL     OW 1750   2.588   2.359   0.853  0.3936  0.2167 -0.1792
  584SOL    HW1 1751   2.554   2.394   0.762 -0.0506 -0.0357 -1.6924
  584SOL    HW2 1752   2.553   2.407   0.930  1.7023 -1.2140  1.9948
  585SOL     OW 1753   2.124   0.124   2.655  0.4541  0.0025  0.0689
  585SOL    HW1 1754   2.036   0.173   2.641  0.5079  0.9884 -1.1792
  585SOL    HW2 1755   2.138   0.104   2.753  2.5757 -2.0506 -0.6330
  586SOL     OW 1756   3.100   2.288   0.681  0.1027 -0.6249  0.4442
  586SOL    HW1 1757   3.018   2.334   0.638 -2.4625  0.9766 -0.0714
  586SOL    HW2 1758   0.070   2.334   0.651 -0.1900  1.1377  0.0306
  587SOL     OW 1759   1.532   1.816   0.018 -0.0987  0.0191  0.4637
  587SOL    HW1 1760   1.583   1.861   0.096  1.0449 -1.0843 -0.4643
  587SOL    HW2 1761   1.560   1.712   0.020  0.2110 -3.2643  0.6648
  588SOL     OW 1762   0.447   0.336   1.280  0.2521 -0.3430 -0.3876
  588SOL    HW1 1763   0.477   0.263   1.350  1.6906 -1.4588  0.2775
  588SOL    HW2 1764   0.352   0.321   1.248 -0.2048 -0.1556 -1.0957
  589SOL     OW 1765   1.304   0.590   0.728 -0.2845 -0.5743  0.1156
  589SOL    HW1 1766   1.365   0.644   0.796 -1.8979  0.0493  2.0974
  589SOL    HW2 1767   1.228   0.645   0.692  1.8116 -1.7761 -1.5582
  590SOL     OW 1768   1.338   1.228   3.005 -0.0942 -0.2056  0.9485
  590SOL    HW1 1769   1.425   1.196   3.045 -0.5542  0.4107  1.7083
  590SOL    HW2 1770   1.279   1.285   3.064  2.7569 -0.2926  0.8064
  591SOL     OW 1771   2.668   2.615   2.455 -0.0974  0.5813 -0.1465
  591SOL    HW1 1772   2.609   2.672   2.510  0.6108 -1.8175 -3.2670
  591SOL    HW2 1773   2.718   2.673   2.384  0.5740 -1.5481 -1.4676
  592SOL     OW 1774   1.961   2.217   1.555 -0.0489  0.8955  0.1981
  592SOL    HW1 1775   1.890   2.188   1.486 -1.8814  2.6174 -1.2658
  592SOL    HW2 1776   2.019   2.141   1.586  0.8723  0.3468 -2.6774
  593SOL     OW 1777   0.494   0.321   1.024  0.1763  0.2223 -0.0484
  593SOL    HW1 1778   0.437   0.239   1.014 -1.1756 -1.8007 -0.7388
  593SOL    HW2 1779   0.510   0.340   1.121  1.0556 -0.4996 -1.0616
  594SOL     OW 1780   2.603   0.932   2.509 -0.0596 -0.0929 -0.0476
  594SOL    HW1 1781   2.689   0.979   2.540 -0.6651  1.2823 -1.4640
  594SOL    HW2 1782   2.588   0.941   2.407  1.0096 -0.5381 -1.5274
  595SOL     OW 1783   0.296   3.007   0.881  0.0477 -0.4513 -0.0668
  595SOL    HW1 1784   0.268   2.915   0.918  0.5480  1.5109 -2.1134
  595SOL    HW2 1785   0.218   3.065   0.847 -0.1223  0.7643  1.5944
  596SOL     OW 1786   0.226   1.326   1.316  0.4446 -0.3957 -0.1394
  596SOL    HW1 1787   0.211   1.326   1.413 -0.9225 -0.4803 -0.3433
  596SOL    HW2 1788   0.226   1.228   1.288  2.7085  1.2011  0.3622
  597SOL     OW 1789   1.858   1.576   0.254 -0.1730 -0.2739  0.0761
  597SOL    HW1 1790   1.871   1.498   0.320 -0.6361 -2.3159  0.3985
  597SOL    HW2 1791   1.890   1.669   0.286 -2.0827  0.7180  0.6381
  598SOL     OW 1792   0.331   2.904   1.829  0.3643 -0.0601  0.3176
  598SOL    HW1 1793   0.425   2.923   1.790  2.5116 -0.8907 -0.0204
  598SOL    HW2 1794   0.294   2.994   1.854  0.8404  0.0213 -0.1660
  599SOL     OW 1795   2.416   1.607   2.776  0.0808  0.1277  0.1640
  599SOL    HW1 1796   2.319   1.606   2.751  1.1736 -1.4823 -0.7016
  599SOL    HW2 1797   2.467   1.688   2.734  0.9592  1.8714 -0.6912
  600SOL     OW 1798   0.661   1.176   0.297 -0.4569  0.2873 -0.1165
  600SOL    HW1 1799   0.712   1.252   0.247 -0.1062 -1.8633  0.6550
  600SOL    HW2 1800   0.702   1.152   0.391  1.6112  1.4835  4.8466
  601SOL     OW 1801   0.500   1.088   0.890  0.0970  0.4203 -0.2332
  601SOL    HW1 1802   0.439   1.131   0.822  2.7858  1.6586  0.4273
  601SOL    HW2 1803   0.481   1.121   0.986  1.0755  1.9887  0.2696
  602SOL     OW 1804   1.596   2.580   0.535  0.1163  0.3398 -0.4409
  602SOL    HW1 1805   1.605   2.490   0.582  1.9116  0.0931  0.9769
  602SOL    HW2 1806   1.659   2.644   0.587 -0.2075 -0.7863  1.5085
  603SOL     OW 1807   0.698   2.685   2.071  0.2054  0.2139 -0.1534
  603SOL    HW1 1808   0.787   2.668   2.016 -0.1158  2.3007 -1.0586
  603SOL    HW2 1809   0.665   2.597   2.104 -1.4303  4.8475  0.8298
  604SOL     OW 1810   0.444   0.319   2.384  0.5727 -0.3801  0.4257
  604SOL    HW1 1811   0.387   0.251   2.334 -0.8336 -1.1775  0.8493
  604SOL    HW2 1812   0.385   0.347   2.466 -0.0464 -0.4396  1.1543
  605SOL     OW 1813   2.913   1.294   1.403  0.5556  0.1715  0.1256
  605SOL    HW1 1814   2.852   1.216   1.397  3.0507  2.9698  0.9552
  605SOL    HW2 1815   2.929   1.324   1.495 -0.6697 -0.6921 -0.8122
  606SOL     OW 1816   0.873   1.547   2.456  0.3836  0.1728 -0.5162
  606SOL    HW1 1817   0.812   1.521   2.534 -0.5899 -2.4700 -1.1737
  606SOL    HW2 1818   0.879   1.477   2.383 -0.5286 -0.7438  0.2674
  607SOL     OW 1819   0.312   3.061   0.551  0.3724 -0.0596  0.1157
  607SOL    HW1 1820   0.401   3.069   0.506 -3.2443  0.1818  1.3458
  607SOL    HW2 1821   0.251   0.022   0.523  0.1221  1.0689 -0.1328
  608SOL     OW 1822   2.177   1.924   2.091  1.0258  0.2136 -0.0131
  608SOL    HW1 1823   2.079   1.937   2.102  3.1151 -0.9844 -1.3138
  608SOL    HW2 1824   2.211   1.862   2.166  2.0859 -0.4828  0.5236
  609SOL     OW 1825   2.846   0.318   1.237  0.0741 -0.2545  0.6675
  609SOL    HW1 1826   2.828   0.332   1.135 -0.6370 -2.2032 -0.4816
  609SOL    HW2 1827   2.757   0.299   1.287 -0.5266 -0.0066 -1.1430
  610SOL     OW 1828   0.493   2.662   0.759 -0.3944  0.3519 -0.2063
  610SOL    HW1 1829   0.558   2.629   0.832 -3.2703 -0.7452 -0.2991
  610SOL    HW2 1830   0.454   2.584   0.704 -0.0371 -0.8531  0.3165
  611SOL     OW 1831   1.706   0.820   2.889 -0.2126  0.0767  0.2209
  611SOL    HW1 1832   1.766   0.899   2.916 -0.6576 -1.8543  3.0650
  611SOL    HW2 1833   1.664   0.837   2.799  1.5836 -1.7006 -0.5100
  612SOL     OW 1834   0.676   2.179   1.775  0.3575 -0.2692 -0.4962
  612SOL    HW1 1835   0.578   2.167   1.796 -1.1579 -1.4615  0.6601
  612SOL    HW2 1836   0.693   2.238   1.691  0.5583  3.5480  2.0279
  613SOL     OW 1837   0.442   2.511   0.570 -0.0802 -0.1875  0.1228
  613SOL    HW1 1838   0.459   2.414   0.594 -1.2610 -1.8414  0.0897
  613SOL    HW2 1839   0.482   2.525   0.479  1.7185  2.0873 -1.1447
  614SOL     OW 1840   2.364   2.870   1.478 -0.1736 -0.2086 -0.3309
  614SOL    HW1 1841   2.425   2.947   1.512  0.0799 -0.7675  0.9222
  614SOL    HW2 1842   2.273   2.874   1.528 -0.8556 -1.1588 -0.3211
  615SOL     OW 1843   1.807   1.034   0.163  0.3127 -0.1522  0.3233
  615SOL    HW1 1844   1.742   1.078   0.225  3.3395 -1.3309 -1.9888
  615SOL    HW2 1845   1.900   1.029   0.203  1.3289  0.6644 -0.6727
  616SOL     OW 1846   1.984   0.570   0.215  0.1239 -0.0293 -0.7627
  616SOL    HW1 1847   1.897   0.594   0.164 -0.7523  0.2085  1.1531
  616SOL    HW2 1848   1.957   0.505   0.286  0.9708  0.2457 -1.6290
  617SOL     OW 1849   0.991   0.833   2.952 -0.1557 -0.4609 -0.7262
  617SOL    HW1 1850   1.084   0.875   2.938 -2.3063  3.0886  0.5315
  617SOL    HW2 1851   0.993   0.741   2.995 -0.7538  1.4533 -1.6507
  618SOL     OW 1852   0.743   2.941   1.904 -0.3944  0.4202  0.0782
  618SOL    HW1 1853   0.718   2.866   1.968  2.4193  1.5084 -0.7970
  618SOL    HW2 1854   0.675   2.940   1.827 -2.5104  1.6344  1.2348
  619SOL     OW 1855   3.000   1.371   1.155 -0.0406  0.3145  0.3668
  619SOL    HW1 1856   2.976   1.346   1.250 -1.1266 -0.9370 -2.0803
  619SOL    HW2 1857   2.930   1.441   1.124  0.8580 -0.0751 -2.0831
  620SOL     OW 1858   2.709   0.918   2.964 -0.0762  0.1629 -0.3232
  620SOL    HW1 1859   2.635   0.982   2.931 -2.9236  0.7430 -0.4543
  620SOL    HW2 1860   2.680   0.823   2.965 -0.9506  0.3999  2.2842
  621SOL     OW 1861   2.347   2.371   1.761  0.4520 -0.1147  0.2454
  621SOL    HW1 1862   2.276   2.318   1.810 -0.4730 -0.0108  1.5385
  621SOL    HW2 1863   2.430   2.395   1.819 -2.5588 -3.4844 -0.1302
  622SOL     OW 1864   1.009   0.442   2.262  0.4577 -0.0974 -0.4400
  622SOL    HW1 1865   0.921   0.405   2.294 -1.7184 -0.8620 -1.8290
  622SOL    HW2 1866   1.025   0.529   2.309  0.3047 -1.2293 -3.5856
  623SOL     OW 1867   1.009   0.829   2.601  0.6784  0.8508  0.7160
  623SOL    HW1 1868   0.946   0.745   2.600 -3.9739 -1.4564  2.3765
  623SOL    HW2 1869   1.047   0.836   2.694 -1.2062 -1.9432 -2.8669
  624SOL     OW 1870   2.422   0.814   0.338 -0.3723 -0.4850  0.4337
  624SOL    HW1 1871   2.356   0.827   0.259  0.4867  1.9538  0.9894
  624SOL    HW2 1872   2.509   0.863   0.325  0.7389  1.1047 -2.2183
  625SOL     OW 1873   0.935   1.399   0.583 -0.4394 -0.1476 -0.1908
  625SOL    HW1 1874   0.948   1.379   0.682 -0.5363 -1.0481 -1.4399
  625SOL    HW2 1875   0.937   1.502   0.573  0.3673 -0.8223 -1.0262
  626SOL     OW 1876   1.682   1.081   2.690  0.2275 -1.0928 -0.5353
  626SOL    HW1 1877   1.757   1.021   2.657 -1.5989  2.2701  1.0418
  626SOL    HW2 1878   1.693   1.112   2.785 -0.5987 -0.4635 -2.6819
  627SOL     OW 1879   0.900   2.875   2.816  0.3433  0.1083  0.2324
  627SOL    HW1 1880   0.935   2.935   2.741 -0.2554  1.4639  0.7979
  627SOL    HW2 1881   0.903   2.921   2.909 -0.0164 -1.6842  0.4463
  628SOL     OW 1882   2.310   0.243   2.353 -0.0608  0.3336  0.0236
  628SOL    HW1 1883   2.406   0.239   2.344 -3.8714  0.8916  0.9959
  628SOL    HW2 1884   2.279   0.312   2.424  0.5327  0.0975  2.1243
  629SOL     OW 1885   0.848   0.399   2.984  0.3828  0.3550 -0.0857
  629SOL    HW1 1886   0.770   0.435   2.932 -1.1597  0.2031 -1.7013
  629SOL    HW2 1887   0.920   0.473   2.999  1.7726  0.4438 -1.3723
  630SOL     OW 1888   1.069   0.350   2.654  0.3837  0.0995  0.7947
  630SOL    HW1 1889   1.156   0.306   2.674  3.7011  0.3816 -3.1332
  630SOL    HW2 1890   1.011   0.277   2.618 -0.3457  0.5256  1.7558
  631SOL     OW 1891   2.547   1.092   0.741  0.0002  0.1312  0.3895
  631SOL    HW1 1892   2.470   1.158   0.764  0.0922 -1.7029  0.1280
  631SOL    HW2 1893   2.624   1.138   0.691 -2.1762 -1.1752  1.8564
  632SOL     OW 1894   1.934   0.986   1.360  0.1529 -0.1484  0.0224
  632SOL    HW1 1895   1.968   1.027   1.448  2.8278  0.5582  2.3780
  632SOL    HW2 1896   1.921   0.882   1.369 -0.3302  2.3161 -0.9836
  633SOL     OW 1897   0.908   1.655   0.511  0.0244 -0.5841 -0.0101
  633SOL    HW1 1898   0.897   1.663   0.414  0.1728 -0.2575 -0.0063
  633SOL    HW2 1899   0.968   1.724   0.553  0.0193 -0.5283 -1.3702
  634SOL     OW 1900   2.142   0.229   1.284 -0.3148 -0.0104 -0.1698
  634SOL    HW1 1901   2.074   0.185   1.349 -1.1587 -0.4724  0.9640
  634SOL    HW2 1902   2.214   0.280   1.333  1.2725  2.2288 -2.4035
  635SOL     OW 1903   1.712   0.610   1.236 -0.1186 -0.3851  0.4645
  635SOL    HW1 1904   1.625   0.610   1.292 -1.4501 -0.6058  1.0913
  635SOL    HW2 1905   1.692   0.650   1.145 -0.3172 -1.4194 -0.6491
  636SOL     OW 1906   0.802   1.175   0.547 -0.1013  0.0723 -0.2308
  636SOL    HW1 1907   0.768   1.160   0.636  1.2575  0.1757 -1.5074
  636SOL    HW2 1908   0.853   1.264   0.547 -1.2839 -0.9932 -1.2980
  637SOL     OW 1909   2.545   2.198   2.689  0.2645 -0.5704 -0.2425
  637SOL    HW1 1910   2.583   2.129   2.754 -1.5449  4.2068 -0.3549
  637SOL    HW2 1911   2.444   2.205   2.701 -0.8243 -1.1606  3.0730
  638SOL     OW 1912   1.520   2.636   2.750  0.0524  0.0129 -0.3933
  638SOL    HW1 1913   1.613   2.614   2.778  2.8695  0.4863 -2.2480
  638SOL    HW2 1914   1.449   2.580   2.788  2.4003  0.7284 -0.6361
  639SOL     OW 1915   1.307   1.725   1.331 -0.3159 -0.4248  0.1202
  639SOL    HW1 1916   1.220   1.684   1.361  0.3577 -0.6256  0.1342
  639SOL    HW2 1917   1.288   1.817   1.294 -0.1016 -1.7790  2.2867
  640SOL     OW 1918   2.607   2.710   0.332 -0.4254 -0.0155  0.1682
  640SOL    HW1 1919   2.589   2.610   0.315  1.0377  1.1488 -0.3985
  640SOL    HW2 1920   2.709   2.725   0.350 -0.0245  0.3214  0.4939
  641SOL     OW 1921   0.039   2.988   0.242 -0.9147  0.4154  0.1678
  641SOL    HW1 1922   0.101   2.912   0.283  4.9778 -2.1104  1.7810
  641SOL    HW2 1923   3.057   2.992   0.277  2.0344 -0.2080 -0.3637
  642SOL     OW 1924   2.820   1.007   1.241 -0.2844 -0.2167 -0.0495
  642SOL    HW1 1925   2.785   0.910   1.220 -1.1925  0.3466  1.9339
  642SOL    HW2 1926   2.819   1.070   1.160 -0.5592 -1.6976 -0.4573
  643SOL     OW 1927   0.938   1.841   2.097 -0.1436  0.1242  0.4535
  643SOL    HW1 1928   0.908   1.901   2.022  2.0998 -1.7602 -2.9883
  643SOL    HW2 1929   0.978   1.902   2.170 -1.8666 -0.2153 -0.6829
  644SOL     OW 1930   1.669   2.356   0.663  0.1863  0.2499  0.4206
  644SOL    HW1 1931   1.749   2.306   0.702  1.0960 -0.3798  0.9265
  644SOL    HW2 1932   1.608   2.385   0.734  0.3275  0.8150 -0.8469
  645SOL     OW 1933   2.085   2.089   1.030 -0.3826  0.2507  0.1793
  645SOL    HW1 1934   2.054   2.011   0.975 -0.1360  0.9570  3.4815
  645SOL    HW2 1935   2.041   2.176   1.003  0.2161  0.9574  2.5894
  646SOL     OW 1936   1.112   2.676   0.009  0.3834 -0.3240  0.4061
  646SOL    HW1 1937   1.211   2.645   0.003 -0.3329 -0.2641  1.7018
  646SOL    HW2 1938   1.062   2.663   3.032  0.4504  2.6067 -1.8764
  647SOL     OW 1939   0.335   2.634   1.900  0.1801 -0.0939 -0.2522
  647SOL    HW1 1940   0.343   2.733   1.879 -1.8406 -1.1600  3.6727
  647SOL    HW2 1941   0.422   2.579   1.880  1.6384 -1.3686 -0.6764
  648SOL     OW 1942   1.717   0.722   0.988  0.5258 -0.2998  0.4124
  648SOL    HW1 1943   1.729   0.631   0.937  2.1322  0.7586 -0.9655
  648SOL    HW2 1944   1.778   0.795   0.944  0.1209  0.7047  1.2174
  649SOL     OW 1945   1.600   2.232   0.053  0.0526  0.3937 -0.0595
  649SOL    HW1 1946   1.526   2.294   0.079  1.5460 -0.4756 -3.1639
  649SOL    HW2 1947   1.588   2.217   3.066 -2.7971  2.2588 -0.6908
  650SOL     OW 1948   2.284   1.753   1.916 -0.3244  0.1856  0.2863
  650SOL    HW1 1949   2.243   1.807   1.991  0.3308  0.1963 -1.4556
  650SOL    HW2 1950   2.262   1.653   1.933  0.0750  2.9594 -1.6425
  651SOL     OW 1951   1.424   2.384   0.195  0.0661 -0.7137 -0.1379
  651SOL    HW1 1952   1.349   2.455   0.200 -0.0547 -0.4988 -1.5499
  651SOL    HW2 1953   1.513   2.429   0.207  2.3857  2.0538 -0.5427
  652SOL     OW 1954   0.442   2.219   0.222 -0.2347 -0.2549  0.5515
  652SOL    HW1 1955   0.359   2.220   0.277 -0.8809 -0.4096 -1.6480
  652SOL    HW2 1956   0.416   2.202   0.125 -2.3651 -1.0922  2.1609
  653SOL     OW 1957   2.526   2.109   1.156 -0.1601  0.1453 -0.4438
  653SOL    HW1 1958   2.595   2.166   1.207  0.3150  0.1062  0.8531
  653SOL    HW2 1959   2.435   2.122   1.188  5.5369 -2.1215 -2.6841
  654SOL     OW 1960   2.818   2.803   1.515 -0.1220 -0.7084 -0.2351
  654SOL    HW1 1961   2.819   2.905   1.493 -1.2750  1.4760 -0.8495
  654SOL    HW2 1962   2.905   2.764   1.485 -0.7505  2.5762 -2.5366
  655SOL     OW 1963   0.129   2.197   1.356 -0.1288 -0.0922 -0.4600
  655SOL    HW1 1964   0.178   2.111   1.350  1.5448 -0.1572  0.8107
  655SOL    HW2 1965   0.131   2.237   1.263 -1.8116 -0.8901  3.4210
  656SOL     OW 1966   2.987   2.592   2.563 -0.5151 -0.0110 -0.6503
  656SOL    HW1 1967   3.021   2.687   2.538  0.0752 -3.0846 -1.2123
  656SOL    HW2 1968   2.888   2.594   2.562  1.9592 -0.9435 -0.1956
  657SOL     OW 1969   3.042   0.799   0.120 -0.2100 -0.1974 -0.4540
  657SOL    HW1 1970   3.002   0.710   0.108  1.8989  3.1760 -0.6028
  657SOL    HW2 1971   3.080   0.813   0.213  2.3083 -0.8500  1.7563
  658SOL     OW 1972   2.036   1.871   0.874 -0.7678  0.2847 -0.2305
  658SOL    HW1 1973   2.066   1.868   0.776 -1.5514  2.0457 -0.0296
  658SOL    HW2 1974   1.988   1.783   0.902 -0.4770 -2.4763 -2.1670
  659SOL     OW 1975   1.489   0.612   1.377 -0.6504  0.7246 -0.0128
  659SOL    HW1 1976   1.410   0.676   1.374 -1.0584  0.0019  2.2846
  659SOL    HW2 1977   1.477   0.513   1.384  1.1247 -0.3844 -0.1894
  660SOL     OW 1978   1.598   1.542   3.060 -0.0833  0.1391  0.0920
  660SOL    HW1 1979   1.639   1.540   0.039  0.3619  0.1946  2.8481
  660SOL    HW2 1980   1.582   1.448   3.025  0.2361  3.1388  0.4152
  661SOL     OW 1981   0.204   1.964   0.138  0.5083  0.2324  0.7503
  661SOL    HW1 1982   0.251   1.962   0.227 -2.2428  0.7127 -1.6649
  661SOL    HW2 1983   0.106   1.978   0.149  2.9179 -0.0606 -2.3260
  662SOL     OW 1984   0.283   0.703   2.052  0.2196 -0.4996 -0.4169
  662SOL    HW1 1985   0.277   0.723   2.152  1.3391 -0.1378  2.0126
  662SOL    HW2 1986   0.245   0.782   2.005  0.7852 -2.3072 -0.2763
  663SOL     OW 1987   1.935   1.324   0.664 -0.3522 -0.3512 -0.4604
  663SOL    HW1 1988   1.913   1.264   0.745 -1.4118 -1.4346  0.6854
  663SOL    HW2 1989   2.038   1.349   0.665  2.7422  0.6011 -0.2963
  664SOL     OW 1990   0.636   0.787   1.221 -0.3327  0.1650 -0.2760
  664SOL    HW1 1991   0.706   0.723   1.182 -0.1580  1.9168  2.5657
  664SOL    HW2 1992   0.569   0.824   1.156 -0.4229  1.2259  0.3506
  665SOL     OW 1993   1.028   3.083   0.159  0.1687 -0.0980  0.1158
  665SOL    HW1 1994   1.082   3.032   0.227  0.5897  1.0434  0.8962
  665SOL    HW2 1995   1.050   0.071   0.159  1.7516  0.1527 -1.8582
  666SOL     OW 1996   0.038   0.418   2.557  0.1624  0.0715 -0.1502
  666SOL    HW1 1997   0.136   0.421   2.554 -3.0588 -0.4002 -0.5816
  666SOL    HW2 1998   0.011   0.385   2.650 -0.6901  0.6763  0.1398
  667SOL     OW 1999   2.377   2.110   2.024  0.1118 -0.3957  0.0262
  667SOL    HW1 2000   2.381   2.176   2.104  0.0691 -0.5446 -0.9576
  667SOL    HW2 2001   2.315   2.036   2.048  2.8089 -0.4703 -1.6635
  668SOL     OW 2002   0.689   1.498   2.657  0.1219  0.2149 -0.0596
  668SOL    HW1 2003   0.673   1.601   2.662 -0.1952 -2.4223  0.3406
  668SOL    HW2 2004   0.605   1.445   2.655  4.2828  2.3343 -2.3740
  669SOL     OW 2005   2.170   2.526   2.414  0.1864  0.0304 -0.2281
  669SOL    HW1 2006   2.175   2.518   2.313  0.9862  2.0597  3.1533
  669SOL    HW2 2007   2.092   2.471   2.452  1.3104 -0.1721  1.5571
  670SOL     OW 2008   2.367   1.057   2.439  0.3699 -1.0416 -0.3861
  670SOL    HW1 2009   2.365   0.986   2.370 -1.2444 -2.4318  2.3417
  670SOL    HW2 2010   2.429   1.028   2.509 -1.4046  1.4050 -2.1220
  671SOL     OW 2011   2.421   1.263   3.101  0.0935  0.3533  0.1796
  671SOL    HW1 2012   2.435   1.177   3.039 -1.8933 -0.4970 -3.6620
  671SOL    HW2 2013   2.497   1.330   3.097  0.5033  2.3485 -0.6556
  672SOL     OW 2014   2.403   1.324   2.432 -0.6478  0.0632 -0.0135
  672SOL    HW1 2015   2.472   1.349   2.503  0.7534 -0.8202  0.5715
  672SOL    HW2 2016   2.398   1.223   2.426  0.2212  2.3088  1.3810
  673SOL     OW 2017   2.571   1.258   1.441 -0.0735  0.2050  0.4553
  673SOL    HW1 2018   2.535   1.262   1.346  1.2785 -2.3475 -0.4119
  673SOL    HW2 2019   2.625   1.171   1.442 -0.1402 -2.0351 -0.3876
  674SOL     OW 2020   1.828   1.910   1.889  0.0077  0.5611 -0.3782
  674SOL    HW1 2021   1.866   1.817   1.901 -2.3494  1.7596  1.2439
  674SOL    HW2 2022   1.760   1.915   1.811 -4.1733 -0.5380  1.1263
  675SOL     OW 2023   0.116   0.572   0.967 -0.7561  0.1136 -0.2542
  675SOL    HW1 2024   0.130   0.580   0.865 -1.6195  2.8240  2.6268
  675SOL    HW2 2025   0.197   0.599   1.027  0.2194  1.8442 -2.5726
  676SOL     OW 2026   1.896   1.048   1.107 -0.4415 -0.1593 -0.1433
  676SOL    HW1 2027   1.899   1.150   1.087  0.9777 -0.0232  0.7773
  676SOL    HW2 2028   1.903   1.037   1.209 -1.0945  2.4053  0.8200
  677SOL     OW 2029   1.829   1.637   2.177 -0.1517 -0.0991  0.0453
  677SOL    HW1 2030   1.797   1.548   2.220  0.4230  1.4038 -1.6554
  677SOL    HW2 2031   1.753   1.689   2.133  1.1671 -0.6432 -0.7420
  678SOL     OW 2032   0.010   1.723   0.854  0.4251  0.2793 -0.4254
  678SOL    HW1 2033   0.005   1.819   0.811  0.3961  1.8850  1.7400
  678SOL    HW2 2034   3.032   1.691   0.874  2.2457  0.2441 -2.8756
  679SOL     OW 2035   2.889   2.732   0.395 -0.1917 -0.5177  0.3256
  679SOL    HW1 2036   2.880   2.836   0.386 -1.0996 -2.3492 -2.0266
  679SOL    HW2 2037   2.883   2.705   0.492  0.5486 -0.6639  0.5665
  680SOL     OW 2038   0.157   2.592   1.257  0.5888  0.1114  0.8119
  680SOL    HW1 2039   0.230   2.647   1.215 -0.4198  1.0127  0.0561
  680SOL    HW2 2040   0.159   2.496   1.217  0.8575 -0.3035 -0.3743
  681SOL     OW 2041   0.700   1.034   1.337  0.5966  0.1173  0.1237
  681SOL    HW1 2042   0.789   1.016   1.300 -1.3022  0.3829 -0.9404
  681SOL    HW2 2043   0.654   0.942   1.355 -1.7884 -0.8713 -2.1371
  682SOL     OW 2044   1.718   2.792   1.086  0.2745  0.6951 -1.1834
  682SOL    HW1 2045   1.820   2.788   1.074 -1.3173  1.3717 -0.5029
  682SOL    HW2 2046   1.693   2.888   1.107  0.5186 -0.6156 -0.1571
  683SOL     OW 2047   2.085   1.266   1.264  0.0251  0.5665 -0.7273
  683SOL    HW1 2048   2.017   1.315   1.211 -1.2952 -1.0293  1.5386
  683SOL    HW2 2049   2.151   1.211   1.205  1.5131 -1.0882 -1.6018
  684SOL     OW 2050   0.829   2.048   1.960 -0.0618  0.3743  0.1669
  684SOL    HW1 2051   0.782   2.086   1.879  2.4910 -0.8477  0.5869
  684SOL    HW2 2052   0.787   2.084   2.048  1.8947 -0.2420 -0.2500
  685SOL     OW 2053   2.261   1.814   0.077 -0.0759 -0.0985  0.1283
  685SOL    HW1 2054   2.325   1.750   0.029  0.4477 -2.4163 -2.9356
  685SOL    HW2 2055   2.170   1.773   0.103 -2.0123  2.2320 -3.1216
  686SOL     OW 2056   3.088   0.493   0.530  0.1062 -0.2096  0.4513
  686SOL    HW1 2057   3.056   0.422   0.456 -0.7187 -1.4035  0.3588
  686SOL    HW2 2058   3.010   0.558   0.552 -2.5869  1.6928 -0.3034
  687SOL     OW 2059   1.099   2.932   0.362  0.6361 -0.3747  0.1929
  687SOL    HW1 2060   1.034   2.854   0.381 -2.1570  1.4066 -0.1229
  687SOL    HW2 2061   1.181   2.926   0.421 -0.7178 -1.5379 -2.3270
  688SOL     OW 2062   1.905   1.969   2.143 -0.2374 -0.0543 -0.0681
  688SOL    HW1 2063   1.855   1.950   2.056 -0.8630  0.7865 -0.8467
  688SOL    HW2 2064   1.843   1.940   2.219  0.7076 -2.4570  0.5871
  689SOL     OW 2065   2.648   1.127   2.013 -0.0421  0.3490  0.4071
  689SOL    HW1 2066   2.638   1.163   2.109 -0.2656  0.6012  0.1629
  689SOL    HW2 2067   2.618   1.200   1.945 -0.6595  0.0018 -1.3715
  690SOL     OW 2068   1.830   1.056   0.740 -0.3792  0.0083 -0.1883
  690SOL    HW1 2069   1.876   0.978   0.783  1.1684 -0.8351  3.0214
  690SOL    HW2 2070   1.748   1.027   0.687  1.9211 -1.3787 -2.0056
  691SOL     OW 2071   1.047   1.125   1.558  0.1730  0.1233  0.0580
  691SOL    HW1 2072   1.095   1.045   1.590 -2.7431  2.0779 -1.4849
  691SOL    HW2 2073   0.955   1.128   1.600 -0.8716  0.5720  2.2307
  692SOL     OW 2074   1.610   0.227   2.365  0.3337  0.2055 -0.4926
  692SOL    HW1 2075   1.554   0.178   2.294  1.7584 -0.3623 -4.0739
  692SOL    HW2 2076   1.709   0.218   2.354 -0.2935  0.1828 -0.3753
  693SOL     OW 2077   0.296   1.045   3.003  0.0157  0.6221  0.5592
  693SOL    HW1 2078   0.293   1.127   3.066 -1.9207  1.8530  0.7918
  693SOL    HW2 2079   0.383   0.996   2.999 -2.1810 -1.3892 -1.5428
  694SOL     OW 2080   2.267   2.666   0.667  0.0713  0.4785 -0.3559
  694SOL    HW1 2081   2.256   2.769   0.681  0.0210 -1.4760 -0.1613
  694SOL    HW2 2082   2.206   2.632   0.590  1.5699  0.6086  0.4026
  695SOL     OW 2083   1.656   1.286   2.889 -0.1570  0.2659  0.0943
  695SOL    HW1 2084   1.640   1.255   2.986  0.0700  1.0922 -0.1662
  695SOL    HW2 2085   1.755   1.309   2.874  1.2734  0.5893  1.6732
  696SOL     OW 2086   1.609   0.243   1.620 -0.1424 -0.5897  0.2459
  696SOL    HW1 2087   1.556   0.302   1.553 -0.7298 -1.1914  1.5510
  696SOL    HW2 2088   1.707   0.264   1.626  0.2118 -3.4717 -1.0628
  697SOL     OW 2089   1.341   0.452   1.972 -0.5050 -0.7979  0.1206
  697SOL    HW1 2090   1.384   0.528   1.925 -0.7864 -0.7583 -3.0207
  697SOL    HW2 2091   1.375   0.362   1.938  1.4214 -0.4183 -0.1553
  698SOL     OW 2092   1.918   1.432   2.516  0.6371  0.2018 -0.4304
  698SOL    HW1 2093   1.929   1.523   2.476 -2.1906 -2.0041  0.1746
  698SOL    HW2 2094   1.827   1.381   2.492 -2.3347  1.3941 -3.0473
  699SOL     OW 2095   1.641   1.090   1.021  0.2993 -0.2803 -0.3121
  699SOL    HW1 2096   1.638   1.097   0.921 -0.5377 -2.6206  1.4978
  699SOL    HW2 2097   1.729   1.057   1.058  0.8984  1.1294 -0.4404
  700SOL     OW 2098   1.797   2.986   0.227  0.0371  0.3781 -0.0374
  700SOL    HW1 2099   1.826   2.895   0.252  0.8107  1.1631  1.3226
  700SOL    HW2 2100   1.697   2.997   0.240 -0.0672  0.4701  2.0633
  701SOL     OW 2101   0.520   0.106   1.388 -0.1898  0.1350 -0.2971
  701SOL    HW1 2102   0.509   0.004   1.385 -1.6061 -0.7616 -0.1957
  701SOL    HW2 2103   0.619   0.136   1.393 -0.2285  1.9443 -0.0973
  702SOL     OW 2104   1.576   2.897   1.397  1.2047  0.3741 -0.2330
  702SOL    HW1 2105   1.675   2.875   1.402 -0.7227 -2.4303  2.0770
  702SOL    HW2 2106   1.547   2.945   1.479 -0.2587 -0.0718  1.3582
  703SOL     OW 2107   2.429   3.064   2.141  0.4695  0.4259  0.0715
  703SOL    HW1 2108   2.413   3.056   2.240 -1.9285 -1.1050 -1.1356
  703SOL    HW2 2109   2.517   3.028   2.110 -0.7168 -0.0690  0.2497
  704SOL     OW 2110   1.304   1.516   0.838 -0.5530 -0.0253  0.2533
  704SOL    HW1 2111   1.254   1.601   0.795 -3.3951  2.3659 -3.3966
  704SOL    HW2 2112   1.297   1.524   0.940 -1.4127  0.8854 -0.0507
  705SOL     OW 2113   2.942   1.692   2.041  0.1237 -0.1977  0.2405
  705SOL    HW1 2114   2.950   1.777   2.102 -2.3988  1.1415  0.5569
  705SOL    HW2 2115   2.876   1.625   2.081  2.1946  2.4744 -0.9453
  706SOL     OW 2116   1.471   0.008   0.636 -0.2812  0.0857  0.7428
  706SOL    HW1 2117   1.403   3.044   0.609 -0.3026  2.3683  0.0690
  706SOL    HW2 2118   1.501   0.060   0.556 -0.9767  0.8612  2.1382
  707SOL     OW 2119   1.102   2.584   2.620 -0.2106  0.0594  0.2110
  707SOL    HW1 2120   1.037   2.611   2.546 -1.4269 -0.7729 -0.2863
  707SOL    HW2 2121   1.086   2.489   2.641  0.0422  0.5760 -0.5774
  708SOL     OW 2122   0.526   2.204   1.399 -0.9078 -0.1715  0.2792
  708SOL    HW1 2123   0.493   2.110   1.410  3.3333  2.4167 -0.9700
  708SOL    HW2 2124   0.625   2.203   1.434  1.7147  0.0487  4.4506
  709SOL     OW 2125   2.504   0.889   2.248 -0.1037  0.0126 -0.2911
  709SOL    HW1 2126   2.587   0.848   2.205 -0.0319 -1.3332 -1.3463
  709SOL    HW2 2127   2.449   0.928   2.170  1.3668 -0.0451 -0.2609
  710SOL     OW 2128   2.943   0.489   1.636  0.5125  0.0743 -0.1357
  710SOL    HW1 2129   2.967   0.466   1.541  1.3225 -0.3439 -1.6211
  710SOL    HW2 2130   2.997   0.435   1.697 -1.2533 -0.8193 -1.0808
  711SOL     OW 2131   2.923   2.372   0.280  0.5651  0.0556  0.7030
  711SOL    HW1 2132   2.927   2.409   0.378  0.5730 -0.9259  2.3589
  711SOL    HW2 2133   3.011   2.369   0.230 -1.9623 -0.2847  0.6217
  712SOL     OW 2134   0.353   2.587   2.629 -0.7268  0.4632  0.6829
  712SOL    HW1 2135   0.343   2.688   2.608 -0.6514  2.0471 -0.9930
  712SOL    HW2 2136   0.262   2.546   2.649  1.4197 -0.6841  0.4222
  713SOL     OW 2137   2.081   0.691   3.108  0.1708  0.5255 -0.1438
  713SOL    HW1 2138   2.039   0.656   0.080 -1.9101  3.5414 -0.7488
  713SOL    HW2 2139   2.017   0.687   3.029 -0.9136 -0.7674  0.6809
  714SOL     OW 2140   1.209   2.064   0.565  0.0687  0.3886 -0.2015
  714SOL    HW1 2141   1.255   2.082   0.477 -0.2870 -0.4779  1.6309
  714SOL    HW2 2142   1.266   2.095   0.645  2.6736 -2.1162  0.3241
  715SOL     OW 2143   0.172   0.179   0.469  0.6474  0.7568 -0.1997
  715SOL    HW1 2144   0.093   0.184   0.408  3.6669  1.4371 -1.1867
  715SOL    HW2 2145   0.218   0.271   0.475 -0.6944  0.3578  1.3495
  716SOL     OW 2146   0.609   0.000   2.071 -0.7432 -0.1928  0.0990
  716SOL    HW1 2147   0.579   3.052   2.144  0.5142 -0.0509 -2.8595
  716SOL    HW2 2148   0.663   3.059   2.006  0.0757  2.2793 -1.3176
  717SOL     OW 2149   0.376   0.368   2.922 -0.5349 -0.5133  0.0068
  717SOL    HW1 2150   0.454   0.303   2.926 -1.2590  0.3379 -0.8490
  717SOL    HW2 2151   0.288   0.317   2.938  3.0498 -2.4146 -0.0661
  718SOL     OW 2152   1.021   0.532   0.486 -0.0491 -0.0408 -0.1751
  718SOL    HW1 2153   1.055   0.606   0.542 -1.1925  0.4954 -1.7531
  718SOL    HW2 2154   1.057   0.442   0.518  0.4633  0.7411  1.8097
  719SOL     OW 2155   2.296   2.296   2.712 -0.0562  0.4694  0.5492
  719SOL    HW1 2156   2.312   2.393   2.687 -1.0682 -1.1024 -0.8517
  719SOL    HW2 2157   2.252   2.282   2.800 -2.9204  1.4174  0.5784
  720SOL     OW 2158   1.720   1.022   2.010  0.2914 -0.0700 -0.2281
  720SOL    HW1 2159   1.746   0.973   1.929 -1.1339 -1.0377  0.3965
  720SOL    HW2 2160   1.755   0.978   2.096 -2.3826  0.3190 -2.2455
  721SOL     OW 2161   2.725   0.105   1.016  0.1522 -0.3911 -0.3151
  721SOL    HW1 2162   2.750   0.201   0.991  2.5742  0.2374 -1.9219
  721SOL    HW2 2163   2.750   0.048   0.933 -0.0426 -0.1175 -1.5293
  722SOL     OW 2164   1.197   2.323   2.470  0.2923 -0.3150 -0.3047
  722SOL    HW1 2165   1.269   2.373   2.422  1.4965  0.5757 -1.5830
  722SOL    HW2 2166   1.233   2.239   2.518  1.1956 -1.8948  2.7004
  723SOL     OW 2167   1.144   0.271   0.580 -0.0016 -0.1775  0.1150
  723SOL    HW1 2168   1.207   0.268   0.659 -0.8924 -1.2578  0.5830
  723SOL    HW2 2169   1.193   0.307   0.499  1.0517  0.8882  0.2732
  724SOL     OW 2170   0.918   2.039   2.498  0.2929 -0.2321  0.1148
  724SOL    HW1 2171   0.943   2.006   2.594 -0.8303 -0.0586 -1.3899
  724SOL    HW2 2172   0.837   1.989   2.455 -0.8288 -0.5589 -3.1190
  725SOL     OW 2173   0.049   0.686   1.273  0.0635  0.1894 -0.0736
  725SOL    HW1 2174   0.013   0.782   1.261 -1.4442  0.5317  0.1490
  725SOL    HW2 2175   0.144   0.673   1.235  1.3434 -1.6457  0.1208
  726SOL     OW 2176   1.889   0.021   0.685 -0.5305 -0.2775 -0.3503
  726SOL    HW1 2177   1.972   3.081   0.663  1.6611 -0.8810  0.3608
  726SOL    HW2 2178   1.811   3.071   0.713 -3.6843  0.8008 -2.5161
  727SOL     OW 2179   2.008   1.140   2.303 -0.1355  0.6117 -0.3601
  727SOL    HW1 2180   2.009   1.226   2.247  3.3416  0.1639  0.6132
  727SOL    HW2 2181   2.025   1.163   2.399 -0.6453 -0.2297 -0.2086
  728SOL     OW 2182   1.592   2.584   1.598 -0.2628  0.3221 -0.4557
  728SOL    HW1 2183   1.587   2.683   1.631  0.9641 -1.7653 -0.1706
  728SOL    HW2 2184   1.677   2.569   1.542  0.5497 -0.3174 -1.9052
  729SOL     OW 2185   1.929   0.409   1.965  0.1965  0.0738 -0.1435
  729SOL    HW1 2186   1.987   0.440   2.042 -2.1760 -2.7204  0.5661
  729SOL    HW2 2187   1.867   0.489   1.931 -2.2038  3.3453 -1.2381
  730SOL     OW 2188   0.831   1.445   1.353 -0.4402  0.2806 -0.3523
  730SOL    HW1 2189   0.893   1.515   1.396 -0.8391  1.2056  1.2599
  730SOL    HW2 2190   0.769   1.485   1.279  0.9571 -0.6893 -1.6862
  731SOL     OW 2191   0.574   2.953   0.218 -0.0263  0.5674  0.0328
  731SOL    HW1 2192   0.572   2.977   0.318 -0.3003  0.2263  0.0507
  731SOL    HW2 2193   0.499   3.009   0.172 -1.3112  2.6802  4.1908
  732SOL     OW 2194   0.705   0.734   0.120  0.3510 -0.5463 -0.4594
  732SOL    HW1 2195   0.657   0.653   0.157 -0.6063 -0.2119  0.7948
  732SOL    HW2 2196   0.645   0.818   0.116 -1.1888 -1.8532 -1.1677
  733SOL     OW 2197   1.539   1.490   1.826  0.2637 -0.1456  0.2437
  733SOL    HW1 2198   1.516   1.431   1.907 -2.0353  1.0748  0.8874
  733SOL    HW2 2199   1.474   1.476   1.752  3.9521  1.1361 -0.7467
  734SOL     OW 2200   3.090   2.448   2.066  0.0377 -0.0735 -0.2056
  734SOL    HW1 2201   0.028   2.443   1.977 -2.6997  2.7225 -0.8473
  734SOL    HW2 2202   2.995   2.482   2.056 -0.2708  0.4019  0.0551
  735SOL     OW 2203   1.166   2.971   0.963  0.6648 -1.0083 -0.3831
  735SOL    HW1 2204   1.206   2.879   0.989 -1.2408  0.7192 -0.3144
  735SOL    HW2 2205   1.224   3.030   0.910 -2.4106 -2.9340  0.0932
  736SOL     OW 2206   1.236   0.959   2.900  0.7511 -0.3517 -0.2548
  736SOL    HW1 2207   1.316   0.920   2.952  0.7962  2.1235 -0.1110
  736SOL    HW2 2208   1.226   1.060   2.914  2.8823 -0.9131  0.6286
  737SOL     OW 2209   0.112   0.909   0.700  0.4680  0.2552 -0.4680
  737SOL    HW1 2210   0.205   0.926   0.659 -0.1134  0.0580 -1.1317
  737SOL    HW2 2211   0.044   0.921   0.629 -0.1897 -1.0328  6.0936
  738SOL     OW 2212   0.521   2.686   1.514 -0.1019  0.1401  0.5948
  738SOL    HW1 2213   0.565   2.652   1.431 -1.1105  1.8449  0.8166
  738SOL    HW2 2214   0.417   2.685   1.511 -3.3517 -2.1385 -2.5906
  739SOL     OW 2215   1.464   2.691   0.338  0.3751  0.0910 -0.3874
  739SOL    HW1 2216   1.507   2.651   0.420  2.5660 -1.5070  0.4570
  739SOL    HW2 2217   1.382   2.635   0.312 -0.5907 -2.2360  1.2019
  740SOL     OW 2218   1.848   2.825   1.415  0.6046 -0.3418  1.0087
  740SOL    HW1 2219   1.909   2.813   1.496  0.7583 -0.2008  1.2110
  740SOL    HW2 2220   1.830   2.733   1.373 -0.3543 -0.5867 -0.2630
  741SOL     OW 2221   2.009   0.269   0.685 -0.1297 -0.3709  0.0917
  741SOL    HW1 2222   1.964   0.361   0.663  0.6900  0.9482 -0.7014
  741SOL    HW2 2223   1.946   0.189   0.673  3.1795  0.4355 -1.1180
  742SOL     OW 2224   0.920   2.634   2.424  0.2635 -0.5207  0.2442
  742SOL    HW1 2225   0.823   2.639   2.459 -3.2822 -0.5293 -0.8822
  742SOL    HW2 2226   0.931   2.579   2.335 -0.2417  1.7139  0.1751
  743SOL     OW 2227   2.330   0.884   2.006  0.3300 -0.4513  0.1068
  743SOL    HW1 2228   2.305   0.918   1.911  0.9395  2.6706 -0.5287
  743SOL    HW2 2229   2.349   0.787   2.010  2.5681  0.7636 -1.5839
  744SOL     OW 2230   1.977   0.406   0.930  0.2759 -0.0958 -0.0638
  744SOL    HW1 2231   2.056   0.436   0.989 -1.8232  0.8175  0.9820
  744SOL    HW2 2232   2.013   0.348   0.856  0.5267  0.3301 -0.0357
  745SOL     OW 2233   2.272   1.492   1.985  0.6547 -0.4715 -0.4066
  745SOL    HW1 2234   2.314   1.401   1.998  1.6640 -0.1614  0.8645
  745SOL    HW2 2235   2.177   1.479   2.018  2.7150 -2.0511 -0.2190
  746SOL     OW 2236   1.449   1.604   0.504 -0.2945  0.5232  0.0159
  746SOL    HW1 2237   1.443   1.630   0.603 -1.4378 -1.2266  2.7048
  746SOL    HW2 2238   1.447   1.504   0.498  0.2597  1.5296  0.3560
  747SOL     OW 2239   2.192   1.797   1.114  0.4062 -0.1406  0.4655
  747SOL    HW1 2240   2.124   1.834   1.041 -1.8886  0.4973 -1.4560
  747SOL    HW2 2241   2.151   1.725   1.179 -1.6902 -1.8908 -2.1182
  748SOL     OW 2242   0.197   2.787   0.380 -0.0172 -0.5776 -0.0884
  748SOL    HW1 2243   0.221   2.802   0.477  1.7431  0.5925  0.2640
  748SOL    HW2 2244   0.289   2.782   0.330  0.6788  1.8452 -0.5718
  749SOL     OW 2245   0.211   0.829   2.295 -0.6024  0.1656 -0.1310
  749SOL    HW1 2246   0.250   0.919   2.277  2.2817 -1.4385  1.0046
  749SOL    HW2 2247   0.106   0.818   2.288 -5.8273 -1.3875  0.4607
  750SOL     OW 2248   1.362   2.816   1.940  0.2886 -0.7787 -0.1966
  750SOL    HW1 2249   1.366   2.914   1.907  0.0154  2.5378  1.1326
  750SOL    HW2 2250   1.415   2.807   2.025 -0.8878  1.6288 -1.8535
  751SOL     OW 2251   2.738   0.462   0.378 -0.1730 -0.1292  0.0255
  751SOL    HW1 2252   2.638   0.489   0.362 -3.5183 -0.1151  0.0388
  751SOL    HW2 2253   2.752   0.372   0.417 -1.2576  4.0995 -0.0811
  752SOL     OW 2254   0.020   2.136   0.899  0.8469  0.2688  0.4752
  752SOL    HW1 2255   3.042   2.097   0.935  0.5927  1.0409 -0.2633
  752SOL    HW2 2256   0.002   2.202   0.820  0.0517 -0.8393  1.2575
  753SOL     OW 2257   0.968   0.223   1.056 -0.4121 -0.0937  0.2409
  753SOL    HW1 2258   0.998   0.155   0.986  1.6866 -0.3878 -0.7737
  753SOL    HW2 2259   0.896   0.185   1.114  2.0159  0.6417  0.8384
  754SOL     OW 2260   0.464   3.068   2.371 -0.4521  0.0775 -0.2901
  754SOL    HW1 2261   0.397   0.016   2.323  0.7557  0.0856 -0.4215
  754SOL    HW2 2262   0.481   2.977   2.327 -1.4796  1.5296 -1.4943
  755SOL     OW 2263   2.307   0.824   0.079 -0.4220 -1.2231 -0.6584
  755SOL    HW1 2264   2.216   0.782   0.063 -0.3566  2.2785 -2.2471
  755SOL    HW2 2265   2.357   0.824   3.102  1.3870 -0.1387  1.6063
  756SOL     OW 2266   2.238   2.153   2.469 -0.0040 -0.6763  0.1371
  756SOL    HW1 2267   2.234   2.053   2.493  2.0174 -3.3345 -1.6753
  756SOL    HW2 2268   2.268   2.212   2.549 -2.4667  0.0700  0.1541
  757SOL     OW 2269   1.563   0.296   0.885 -0.1605  0.1736 -0.6544
  757SOL    HW1 2270   1.466   0.295   0.916  0.8406  0.4171 -0.5191
  757SOL    HW2 2271   1.610   0.204   0.892  1.8558  0.5480 -0.6691
  758SOL     OW 2272   1.552   3.046   1.169  0.1199 -0.6889  0.4798
  758SOL    HW1 2273   1.473   3.107   1.195 -2.3666  0.4119  3.7120
  758SOL    HW2 2274   1.575   2.976   1.243  0.1046  0.3508  0.1314
  759SOL     OW 2275   2.806   0.731   1.186  0.3328  0.7477 -0.1428
  759SOL    HW1 2276   2.847   0.724   1.274  0.1699 -1.5871 -2.2164
  759SOL    HW2 2277   2.843   0.656   1.126 -3.6770 -0.4698  0.9409
  760SOL     OW 2278   2.311   1.133   1.149  0.3524 -0.1313 -0.8948
  760SOL    HW1 2279   2.403   1.180   1.150  0.0368  2.2619 -2.8934
  760SOL    HW2 2280   2.317   1.037   1.194  1.7382  1.2355  1.8473
  761SOL     OW 2281   0.298   0.426   0.461 -0.5143  0.2798 -0.4007
  761SOL    HW1 2282   0.320   0.405   0.364  0.7158 -1.3597 -2.0908
  761SOL    HW2 2283   0.329   0.514   0.494 -0.2592  1.0960 -3.9902
  762SOL     OW 2284   1.802   2.127   1.344 -0.4477 -0.3026  0.4945
  762SOL    HW1 2285   1.848   2.039   1.353 -1.3424  1.0505 -1.2852
  762SOL    HW2 2286   1.716   2.127   1.396 -1.1329 -0.0993  1.3891
  763SOL     OW 2287   1.298   1.495   2.139 -0.1705  0.2756 -0.2716
  763SOL    HW1 2288   1.243   1.559   2.083  0.7848  1.0668 -0.1926
  763SOL    HW2 2289   1.243   1.437   2.198 -0.9737  0.0542 -0.1343
  764SOL     OW 2290   2.978   1.893   2.581 -0.0466  0.4001  0.0450
  764SOL    HW1 2291   2.994   1.986   2.538 -1.1994  1.3357 -0.9046
  764SOL    HW2 2292   3.033   1.881   2.667 -1.6983 -0.5246  2.5114
  765SOL     OW 2293   1.616   2.533   1.130 -0.4002  0.0371  0.1145
  765SOL    HW1 2294   1.700   2.484   1.168  0.0482 -1.7650 -1.5332
  765SOL    HW2 2295   1.648   2.628   1.106  0.4761 -1.6586  1.6764
  766SOL     OW 2296   0.085   2.480   2.665 -0.6867  0.3962  0.5974
  766SOL    HW1 2297   3.111   2.520   2.631 -0.8545  0.6814  0.2141
  766SOL    HW2 2298   0.071   2.376   2.670  2.4904 -0.1079  0.6461
  767SOL     OW 2299   1.342   0.832   2.448 -0.1885 -0.2260 -0.1688
  767SOL    HW1 2300   1.440   0.845   2.433 -2.5649 -2.6293 -1.3071
  767SOL    HW2 2301   1.325   0.751   2.503  1.3693 -0.4827 -1.5900
  768SOL     OW 2302   1.252   2.062   0.078  0.1948  0.0354 -0.1287
  768SOL    HW1 2303   1.232   2.154   0.119 -2.5238  0.1147  2.0485
  768SOL    HW2 2304   1.279   2.066   3.091 -1.4299 -0.6686  0.9304
  769SOL     OW 2305   0.432   2.175   1.093  0.2424 -0.0297  0.2179
  769SOL    HW1 2306   0.521   2.138   1.119 -1.8831 -0.1200 -0.8911
  769SOL    HW2 2307   0.417   2.267   1.137  0.3217 -0.6189 -0.6092
  770SOL     OW 2308   1.614   0.645   3.079  0.3255  0.3289  0.1571
  770SOL    HW1 2309   1.637   0.547   3.052  1.3533 -0.1183 -0.1229
  770SOL    HW2 2310   1.653   0.691   2.995  0.2918  2.6144 -1.6448
  771SOL     OW 2311   0.116   2.989   2.131  0.6446  0.0220 -0.0024
  771SOL    HW1 2312   0.018   2.967   2.116 -1.2215  0.7241 -1.4174
  771SOL    HW2 2313   0.178   2.909   2.113 -0.7125 -0.1196  1.7900
  772SOL     OW 2314   2.041   2.907   2.180 -0.1055 -0.4275 -0.0966
  772SOL    HW1 2315   2.102   2.825   2.164  1.2380  0.4933 -0.9040
  772SOL    HW2 2316   2.072   2.981   2.118  0.8229 -1.6611  1.8245
  773SOL     OW 2317   1.096   1.889   1.479 -0.1789 -0.0126  0.0666
  773SOL    HW1 2318   1.061   1.929   1.393 -1.7200  0.7018  0.6440
  773SOL    HW2 2319   1.138   1.966   1.533  1.5886  2.7108 -1.9566
  774SOL     OW 2320   1.123   0.070   2.068 -0.2471 -0.0130  0.1121
  774SOL    HW1 2321   1.163   0.125   2.141 -1.9184 -2.2832 -0.3035
  774SOL    HW2 2322   1.048   0.127   2.033  0.5010 -1.4686 -0.1623
  775SOL     OW 2323   2.039   2.958   2.999 -0.2101 -0.3568 -0.0068
  775SOL    HW1 2324   2.062   2.877   2.943 -1.2715  1.4658 -1.1635
  775SOL    HW2 2325   1.939   2.970   3.009 -0.7825 -0.0986 -1.1072
  776SOL     OW 2326   2.724   0.792   2.119 -0.4222 -0.4405  0.0676
  776SOL    HW1 2327   2.781   0.757   2.192 -0.4530 -0.8396 -0.0936
  776SOL    HW2 2328   2.779   0.825   2.036  0.4375 -0.8072 -2.0568
  777SOL     OW 2329   2.469   2.530   2.107  0.6042  0.3854  0.3765
  777SOL    HW1 2330   2.518   2.463   2.163 -1.7453  0.5276 -1.3836
  777SOL    HW2 2331   2.471   2.622   2.148  1.5257  0.8321  0.3868
  778SOL     OW 2332   1.890   0.917   2.597 -0.1905  0.7091  0.3280
  778SOL    HW1 2333   1.994   0.909   2.605  1.3385  1.5313 -0.8111
  778SOL    HW2 2334   1.847   0.825   2.577 -1.6406 -2.9851 -1.2937
  779SOL     OW 2335   3.031   0.248   0.333  0.0444 -0.2272 -0.5211
  779SOL    HW1 2336   2.953   0.198   0.368 -0.1309  1.8598  1.3265
  779SOL    HW2 2337   3.013   0.282   0.242  0.3907  1.0026  3.0100
  780SOL     OW 2338   2.504   0.397   0.087 -0.3962 -0.0323 -0.2475
  780SOL    HW1 2339   2.478   0.303   0.121  1.0918  0.0665  0.8111
  780SOL    HW2 2340   2.506   0.459   0.167  2.0199  0.2471  0.3968
  781SOL     OW 2341   0.227   2.695   1.495 -0.3185 -0.2519 -0.2892
  781SOL    HW1 2342   0.203   2.659   1.401 -1.0157 -0.6430 -1.9843
  781SOL    HW2 2343   0.153   2.667   1.566 -0.0164 -2.5368  1.8260
  782SOL     OW 2344   2.127   2.600   0.443 -0.0613 -0.3971 -0.2822
  782SOL    HW1 2345   2.180   2.625   0.359  0.7477 -0.1442  1.5557
  782SOL    HW2 2346   2.048   2.662   0.459 -0.9114 -3.9271  1.8836
  783SOL     OW 2347   0.692   1.257   1.497 -0.3914  0.2036 -0.3514
  783SOL    HW1 2348   0.743   1.333   1.447 -0.0852  1.4367  0.0709
  783SOL    HW2 2349   0.695   1.180   1.438 -2.2789  4.6474  1.5216
  784SOL     OW 2350   1.388   0.608   2.745 -0.6378 -0.1377  0.2093
  784SOL    HW1 2351   1.309   0.596   2.685  0.0975 -1.2257 -1.7304
  784SOL    HW2 2352   1.415   0.706   2.761  0.4464  1.0801  1.6947
  785SOL     OW 2353   2.382   0.494   1.033  0.2457  0.0958  0.5637
  785SOL    HW1 2354   2.410   0.397   1.045  1.5214 -0.6293 -0.8631
  785SOL    HW2 2355   2.282   0.498   1.060  0.2579 -0.7267  2.9304
  786SOL     OW 2356   1.056   2.422   1.955  0.1454  0.3864  0.2333
  786SOL    HW1 2357   1.132   2.481   1.923 -1.0799 -1.5018  0.2183
  786SOL    HW2 2358   1.067   2.326   1.921  1.0081 -0.6200 -1.5481
  787SOL     OW 2359   1.815   0.320   1.326  0.0489  0.5215 -0.3332
  787SOL    HW1 2360   1.802   0.419   1.308 -0.1106  1.3496  0.2742
  787SOL    HW2 2361   1.834   0.301   1.425  1.2018 -0.6196  0.2722
  788SOL     OW 2362   0.343   0.922   0.560 -0.1284  0.9333 -0.2657
  788SOL    HW1 2363   0.389   1.000   0.600  1.0091 -3.0723 -0.0675
  788SOL    HW2 2364   0.347   0.906   0.461 -0.1353 -1.1105  0.3868
  789SOL     OW 2365   0.523   1.913   1.428 -0.6077  0.2294  0.2168
  789SOL    HW1 2366   0.465   1.824   1.423 -1.1662 -0.0363  0.4503
  789SOL    HW2 2367   0.579   1.920   1.514  1.2561 -1.9392 -0.3641
  790SOL     OW 2368   0.695   0.706   2.378 -0.0058  0.4081  0.0726
  790SOL    HW1 2369   0.705   0.802   2.405  0.2580  0.9751  0.1003
  790SOL    HW2 2370   0.686   0.702   2.277 -0.9706 -0.6251  1.8721
  791SOL     OW 2371   1.740   0.494   0.842  0.0964  0.5641 -0.1750
  791SOL    HW1 2372   1.662   0.433   0.855  1.1308 -1.0239  2.6992
  791SOL    HW2 2373   1.817   0.456   0.896 -1.8696 -2.9818 -0.1141
  792SOL     OW 2374   0.895   2.634   1.898 -0.1484 -0.1518 -0.4100
  792SOL    HW1 2375   0.945   2.717   1.869 -0.5728 -1.2780 -0.5697
  792SOL    HW2 2376   0.960   2.559   1.930  1.8619  1.4493  1.2125
  793SOL     OW 2377   0.561   3.062   0.456  0.0480  0.1888  0.3140
  793SOL    HW1 2378   0.655   3.087   0.427 -3.7938  2.1232  1.2822
  793SOL    HW2 2379   0.547   3.096   0.551  0.1084  0.2174  1.6912
  794SOL     OW 2380   0.395   1.635   1.925 -0.0161  0.5638  0.1277
  794SOL    HW1 2381   0.355   1.552   1.958  1.3960  3.6441 -1.6596
  794SOL    HW2 2382   0.348   1.666   1.846  1.7626 -0.8861 -1.1683
  795SOL     OW 2383   0.203   2.364   2.296 -0.3037  0.4419 -0.0591
  795SOL    HW1 2384   0.264   2.336   2.374  0.1182  0.8464  0.4329
  795SOL    HW2 2385   0.115   2.308   2.300 -1.5013 -2.0227 -0.4083
  796SOL     OW 2386   2.365   0.511   2.113 -0.2486 -0.5134  0.2529
  796SOL    HW1 2387   2.394   0.417   2.095  0.0650 -0.4231  0.3529
  796SOL    HW2 2388   2.393   0.535   2.208  0.2436  0.1497 -1.2705
  797SOL     OW 2389   2.654   2.438   2.723 -0.5169  0.7420  0.0686
  797SOL    HW1 2390   2.676   2.488   2.636  0.3170  4.4240 -1.6298
  797SOL    HW2 2391   2.608   2.347   2.711 -1.2814 -1.4718  1.5182
  798SOL     OW 2392   2.921   2.974   2.113  0.2572 -0.0662 -0.1718
  798SOL    HW1 2393   2.958   3.047   2.174 -0.0186  1.8221 -0.2018
  798SOL    HW2 2394   2.841   3.022   2.068 -0.5331  1.4596 -1.7494
  799SOL     OW 2395   0.095   2.623   2.241  0.0894 -0.1304 -0.4176
  799SOL    HW1 2396   0.136   2.536   2.269 -2.3071 -0.2778 -1.5127
  799SOL    HW2 2397   0.042   2.600   2.160  0.0447  0.2181  0.8158
  800SOL     OW 2398   0.031   2.027   3.029 -0.4730 -0.0326 -0.2860
  800SOL    HW1 2399   3.092   2.113   3.050 -1.5262  1.5492 -0.8910
  800SOL    HW2 2400   0.112   2.014   3.088 -0.8944  1.7121 -0.7108
  801SOL     OW 2401   1.711   1.471   1.280  0.4144  0.3418  0.3033
  801SOL    HW1 2402   1.736   1.437   1.189 -0.8624  0.3136  2.5758
  801SOL    HW2 2403   1.612   1.475   1.295  0.1756 -1.2080 -1.7665
  802SOL     OW 2404   0.079   1.518   0.685  0.0222  0.1366 -0.1239
  802SOL    HW1 2405   0.056   1.608   0.723 -2.2498 -1.4355 -2.0095
  802SOL    HW2 2406   0.080   1.451   0.760 -1.3438  1.3913  2.7069
  803SOL     OW 2407   1.278   1.843   2.217  0.7283  0.0135 -0.3984
  803SOL    HW1 2408   1.260   1.805   2.126  0.2006 -1.1610 -0.9067
  803SOL    HW2 2409   1.209   1.916   2.239  1.2405  0.4091 -0.8572
  804SOL     OW 2410   1.726   1.499   0.682  0.0696  0.5265  0.3059
  804SOL    HW1 2411   1.750   1.594   0.653 -1.0521  0.2133  0.9958
  804SOL    HW2 2412   1.808   1.438   0.669 -0.2789  1.4118 -0.6624
  805SOL     OW 2413   2.844   1.286   3.078 -0.6777 -0.5025  0.1623
  805SOL    HW1 2414   2.833   1.210   0.033 -1.3702 -1.3623  1.7066
  805SOL    HW2 2415   2.941   1.304   3.067 -3.1371 -0.6008 -2.0602
  806SOL     OW 2416   0.558   2.558   0.334  0.3199  0.4483 -0.3125
  806SOL    HW1 2417   0.634   2.522   0.281 -1.6985 -3.0872  3.6867
  806SOL    HW2 2418   0.487   2.611   0.280  0.4270  3.2804  0.4993
  807SOL     OW 2419   2.153   1.624   2.698  0.1484 -0.0941 -0.4160
  807SOL    HW1 2420   2.137   1.711   2.736 -2.0020 -3.3674  1.5832
  807SOL    HW2 2421   2.080   1.597   2.637  2.1033 -0.7823 -1.6758
  808SOL     OW 2422   1.107   1.329   1.237  0.2868  0.3966 -0.2807
  808SOL    HW1 2423   1.111   1.237   1.190 -0.3254 -0.7988  1.4066
  808SOL    HW2 2424   1.010   1.350   1.261 -0.4896  1.6954 -0.9943
  809SOL     OW 2425   2.859   0.665   0.572  0.1538 -0.0349 -0.3772
  809SOL    HW1 2426   2.821   0.684   0.669  1.4270 -1.9127 -2.6243
  809SOL    HW2 2427   2.798   0.603   0.522  1.5952 -0.9821 -1.1134
  810SOL     OW 2428   0.720   1.588   0.729 -0.4514  0.7284  0.4707
  810SOL    HW1 2429   0.731   1.659   0.806 -0.8229 -0.7617  0.9051
  810SOL    HW2 2430   0.788   1.604   0.648  1.0695  0.1443  0.4175
  811SOL     OW 2431   1.811   2.546   1.429  0.1830  0.0710  0.3105
  811SOL    HW1 2432   1.836   2.524   1.328 -0.2152 -0.0601 -0.2193
  811SOL    HW2 2433   1.878   2.505   1.493 -1.1168 -0.4584 -0.2255
  812SOL     OW 2434   1.319   2.748   1.372  0.1156  0.5652 -0.5813
  812SOL    HW1 2435   1.391   2.823   1.373 -0.2320 -0.7511  4.0282
  812SOL    HW2 2436   1.226   2.790   1.369 -0.4167 -0.3610 -1.4810
  813SOL     OW 2437   0.979   2.900   1.582 -0.0627 -0.1557  0.1970
  813SOL    HW1 2438   0.917   2.823   1.600 -0.5027  1.3197  0.7917
  813SOL    HW2 2439   0.999   2.954   1.667  2.3556 -2.4041  0.1313
  814SOL     OW 2440   1.003   2.913   2.394 -0.2311 -0.2568  0.1878
  814SOL    HW1 2441   1.055   2.918   2.301  3.1344  0.5132 -1.1142
  814SOL    HW2 2442   0.960   2.821   2.399  0.5957  1.7633 -1.4556
  815SOL     OW 2443   0.861   0.158   2.557  0.0911  0.0443 -0.1522
  815SOL    HW1 2444   0.792   0.084   2.553  1.4804 -3.4816 -1.2069
  815SOL    HW2 2445   0.847   0.211   2.471  0.0961 -2.1389  0.5270
  816SOL     OW 2446   2.387   0.415   2.935 -0.4499  0.7635 -0.5787
  816SOL    HW1 2447   2.438   0.434   3.025  2.7514 -1.4095 -0.9331
  816SOL    HW2 2448   2.305   0.472   2.922 -1.6175 -0.3385 -1.2850
  817SOL     OW 2449   2.356   3.062   1.796 -0.0240 -0.0702  0.2606
  817SOL    HW1 2450   2.403   0.035   1.770  1.0677 -1.5508 -0.9442
  817SOL    HW2 2451   2.417   2.983   1.789 -2.7191 -1.7251  0.8560
  818SOL     OW 2452   1.117   0.629   0.222 -0.2996  0.0941 -0.5370
  818SOL    HW1 2453   1.072   0.720   0.218  0.8926 -1.7870  0.1077
  818SOL    HW2 2454   1.079   0.574   0.299 -0.3113 -0.2864  1.0292
  819SOL     OW 2455   1.818   1.812   2.641 -0.3605 -0.4714  0.9016
  819SOL    HW1 2456   1.725   1.779   2.666  1.4204 -0.7191  1.5667
  819SOL    HW2 2457   1.847   1.764   2.556  0.2083 -2.9453 -0.5747
  820SOL     OW 2458   2.956   1.435   2.642  0.0401  0.0922 -0.0687
  820SOL    HW1 2459   2.990   1.511   2.585 -1.1315 -0.6485  3.2420
  820SOL    HW2 2460   2.998   1.345   2.618  0.6510  0.8582  0.1827
  821SOL     OW 2461   0.017   2.767   0.735  0.6023 -0.1169  0.1526
  821SOL    HW1 2462   0.113   2.780   0.701  0.7276  1.2195 -0.0929
  821SOL    HW2 2463   0.018   2.761   0.838  2.0569 -0.5630 -0.6520
  822SOL     OW 2464   2.338   2.568   2.642 -0.3794 -0.1878  0.4297
  822SOL    HW1 2465   2.284   2.558   2.557 -0.0275  3.3392 -0.9321
  822SOL    HW2 2466   2.417   2.634   2.630  1.2968  0.6895  1.4422
  823SOL     OW 2467   1.484   3.110   2.260  0.0306  0.4729 -0.3351
  823SOL    HW1 2468   1.496   3.010   2.291 -0.7023 -1.9640  0.1454
  823SOL    HW2 2469   1.385   0.016   2.260  1.5617  2.6512  0.2779
  824SOL     OW 2470   2.732   2.255   2.092  0.5368 -0.0766  0.1555
  824SOL    HW1 2471   2.780   2.327   2.139 -0.5201 -0.7263 -1.8018
  824SOL    HW2 2472   2.669   2.211   2.155 -1.0085  1.9187 -0.6810
  825SOL     OW 2473   2.915   2.200   2.464  0.2140  0.0186 -0.3276
  825SOL    HW1 2474   2.832   2.156   2.424 -0.7114 -1.3612 -0.5934
  825SOL    HW2 2475   2.974   2.234   2.387  0.2075 -0.5082  0.2127
  826SOL     OW 2476   2.296   0.450   2.540 -0.3381 -0.3155 -0.0832
  826SOL    HW1 2477   2.360   0.403   2.602  0.1197 -0.3940  2.6680
  826SOL    HW2 2478   2.348   0.514   2.483 -1.3640  1.1304  0.2859
  827SOL     OW 2479   2.838   2.097   1.511  0.8511 -0.1507  0.0038
  827SOL    HW1 2480   2.756   2.139   1.557 -1.2913 -3.6728  1.7870
  827SOL    HW2 2481   2.810   2.001   1.489 -1.4370 -0.8542 -1.0251
  828SOL     OW 2482   2.970   0.230   1.810  0.0815  0.3483  0.3190
  828SOL    HW1 2483   3.028   0.156   1.765  1.2016 -0.0186 -1.2163
  828SOL    HW2 2484   3.015   0.315   1.818 -2.1357 -2.2128  0.4283
  829SOL     OW 2485   1.000   1.921   2.745  0.1176 -0.0810  0.1831
  829SOL    HW1 2486   1.024   1.842   2.686 -0.7846  1.3158 -0.0274
  829SOL    HW2 2487   0.901   1.930   2.772 -1.9249  1.0807  1.5854
  830SOL     OW 2488   0.783   0.861   0.919 -0.3459  0.3378 -0.5969
  830SOL    HW1 2489   0.854   0.890   0.984 -0.0880  0.3923 -1.8292
  830SOL    HW2 2490   0.725   0.939   0.888 -1.0803 -1.1191 -2.6143
  831SOL     OW 2491   2.922   1.570   2.903 -0.1471 -0.1607  0.0133
  831SOL    HW1 2492   3.015   1.610   2.927  1.5496 -1.2261 -0.6230
  831SOL    HW2 2493   2.916   1.547   2.806  0.5079 -0.4879  0.7404
  832SOL     OW 2494   1.764   2.447   2.335 -0.5433 -0.7414  0.6112
  832SOL    HW1 2495   1.800   2.468   2.242  2.1169 -0.9851  2.4980
  832SOL    HW2 2496   1.705   2.525   2.375 -3.5304  1.1310 -0.2464
  833SOL     OW 2497   0.923   0.240   1.945  0.0248 -0.0916 -0.4343
  833SOL    HW1 2498   0.968   0.332   1.953 -2.3540  1.9228 -1.1317
  833SOL    HW2 2499   0.842   0.234   2.008  0.9830  0.1785  0.8580
  834SOL     OW 2500   0.114   0.305   1.512 -0.3100 -0.3969 -0.4320
  834SOL    HW1 2501   0.057   0.365   1.457 -1.2091 -1.2628  0.0635
  834SOL    HW2 2502   0.184   0.365   1.561 -0.8971  0.3367  0.2357
  835SOL     OW 2503   2.891   0.538   0.166  0.7805  0.1325  0.0273
  835SOL    HW1 2504   2.849   0.517   0.257  1.2514  3.2536  1.4030
  835SOL    HW2 2505   2.827   0.517   0.090  0.4685  0.9095 -0.8682
  836SOL     OW 2506   1.657   2.007   0.184 -0.2353 -0.1608 -0.0937
  836SOL    HW1 2507   1.638   2.087   0.126  1.7341 -2.7992  3.5081
  836SOL    HW2 2508   1.595   2.008   0.266 -1.3434 -0.4096  1.8420
  837SOL     OW 2509   1.851   1.749   0.630  0.7328 -0.2660 -0.4458
  837SOL    HW1 2510   1.942   1.717   0.672  2.7791  0.8505 -1.3714
  837SOL    HW2 2511   1.867   1.840   0.591 -1.2077  1.7308 -0.5910
  838SOL     OW 2512   1.614   0.861   2.448 -0.2819  0.3371 -0.1125
  838SOL    HW1 2513   1.666   0.938   2.404  3.9473  0.4932 -1.3468
  838SOL    HW2 2514   1.676   0.801   2.502 -1.6336 -2.9527 -0.3765
  839SOL     OW 2515   0.825   1.377   2.219 -0.0859 -0.0199  0.0450
  839SOL    HW1 2516   0.754   1.346   2.148 -0.7448  1.1280 -1.3247
  839SOL    HW2 2517   0.867   1.296   2.265 -1.9795 -0.7394 -1.3445
  840SOL     OW 2518   1.230   1.689   0.326  0.0148 -0.2844 -0.1962
  840SOL    HW1 2519   1.170   1.770   0.323  0.2326 -1.7252 -0.2723
  840SOL    HW2 2520   1.305   1.700   0.399  2.2300 -1.4302  0.6749
  841SOL     OW 2521   1.407   2.176   0.729  0.6239  0.8475 -0.2248
  841SOL    HW1 2522   1.470   2.228   0.665  2.6119 -1.3197 -0.7768
  841SOL    HW2 2523   1.428   2.206   0.824 -0.5880  0.0415 -5.7730
  842SOL     OW 2524   0.396   0.392   0.214  0.1123  0.4589  0.0987
  842SOL    HW1 2525   0.494   0.413   0.192  0.3352  0.4101  4.0020
  842SOL    HW2 2526   0.354   0.332   0.136 -1.1943  1.5202 -1.5375
  843SOL     OW 2527   0.695   0.314   0.612  0.4016 -0.2838 -0.3627
  843SOL    HW1 2528   0.600   0.279   0.611 -1.5988 -1.0014  0.8921
  843SOL    HW2 2529   0.718   0.374   0.534  0.1384  0.0564  0.1871
  844SOL     OW 2530   2.740   0.160   2.908  0.8259  0.3330  0.3454
  844SOL    HW1 2531   2.645   0.121   2.892 -0.2045 -0.1921  0.4173
  844SOL    HW2 2532   2.812   0.098   2.876  0.7507  0.9455  0.5647
  845SOL     OW 2533   2.959   2.437   1.750  0.4464  0.0788  0.5296
  845SOL    HW1 2534   2.955   2.373   1.829  1.8978 -0.8610  2.9975
  845SOL    HW2 2535   2.929   2.385   1.663  1.0702 -1.1480 -0.7230
  846SOL     OW 2536   2.536   1.815   2.240 -0.5771  0.3668 -0.0915
  846SOL    HW1 2537   2.598   1.758   2.300  1.7212 -0.4288 -0.6660
  846SOL    HW2 2538   2.584   1.821   2.151 -0.4123 -1.5086  0.0457
  847SOL     OW 2539   1.138   0.731   2.000  0.2183 -0.3844 -0.0677
  847SOL    HW1 2540   1.111   0.633   2.011  0.8247  2.0841 -0.4135
  847SOL    HW2 2541   1.122   0.757   1.899  1.3110  2.2636  1.0388
  848SOL     OW 2542   2.649   2.928   2.778 -0.7224  0.3629  0.3651
  848SOL    HW1 2543   2.692   2.883   2.857 -1.5074  1.2946 -0.6826
  848SOL    HW2 2544   2.566   2.981   2.806 -0.1855 -0.6177  1.2998
  849SOL     OW 2545   0.328   2.755   3.004  0.9345 -0.3744 -0.5509
  849SOL    HW1 2546   0.298   2.850   2.979  0.6435  0.6039  1.4434
  849SOL    HW2 2547   0.253   2.688   2.991  1.3830 -2.4062  1.0367
  850SOL     OW 2548   1.227   2.699   0.990  0.4195  0.2231 -0.2782
  850SOL    HW1 2549   1.267   2.646   1.067 -2.3956  1.6610 -4.2111
  850SOL    HW2 2550   1.186   2.630   0.924  0.5212 -1.5822  0.7098
  851SOL     OW 2551   2.657   0.243   2.336  0.6014 -0.4632 -0.0905
  851SOL    HW1 2552   2.594   0.218   2.259 -3.3852 -1.7492 -1.0717
  851SOL    HW2 2553   2.749   0.275   2.312 -0.7276  0.0558  2.1399
  852SOL     OW 2554   1.360   0.261   2.488 -0.0614 -0.5789 -0.3546
  852SOL    HW1 2555   1.449   0.256   2.439 -0.4927 -1.6779  1.7399
  852SOL    HW2 2556   1.382   0.245   2.587  0.5493  1.2268 -0.3235
  853SOL     OW 2557   3.099   2.642   0.263  0.0502  0.5040  0.5091
  853SOL    HW1 2558   3.005   2.657   0.302  1.7332 -0.6757  0.0368
  853SOL    HW2 2559   0.054   2.706   0.310  2.9084  1.1119  1.5976
  854SOL     OW 2560   2.436   0.603   2.344  0.3035 -0.1257 -0.8821
  854SOL    HW1 2561   2.448   0.701   2.318 -0.8742  0.4731 -1.3058
  854SOL    HW2 2562   2.520   0.569   2.387  1.4042 -0.8784  0.4978
  855SOL     OW 2563   0.744   2.446   0.174  0.1729  0.2973 -1.0370
  855SOL    HW1 2564   0.807   2.372   0.155  0.7834  0.3313  0.4737
  855SOL    HW2 2565   0.800   2.528   0.188 -0.7199  2.6010 -1.5675
  856SOL     OW 2566   3.013   3.040   2.628  0.3947  0.0424 -0.3514
  856SOL    HW1 2567   3.103   2.990   2.617  2.0984  2.0416 -4.0920
  856SOL    HW2 2568   2.989   3.070   2.724  1.2446  0.3836  2.3239
  857SOL     OW 2569   1.098   2.894   1.350 -0.2254  0.0362  0.4422
  857SOL    HW1 2570   1.041   2.896   1.430 -1.0551 -0.2196  0.9240
  857SOL    HW2 2571   1.047   2.855   1.273 -0.1067  3.3312  1.6304
  858SOL     OW 2572   2.632   2.241   1.649  0.1827 -0.3983  0.0562
  858SOL    HW1 2573   2.622   2.295   1.734 -3.6722 -0.4789 -0.1203
  858SOL    HW2 2574   2.535   2.220   1.617 -0.4755 -0.7760 -1.8566
  859SOL     OW 2575   1.840   2.191   1.884  0.2781 -0.2494  0.0268
  859SOL    HW1 2576   1.842   2.090   1.873  1.7834  4.1965  1.0003
  859SOL    HW2 2577   1.775   2.218   1.960 -0.4649 -0.1930  1.6759
  860SOL     OW 2578   2.012   0.011   0.315 -0.1229  0.4262 -0.2977
  860SOL    HW1 2579   2.012   0.106   0.290 -0.4500 -1.6270  1.9873
  860SOL    HW2 2580   1.931   3.080   0.270 -0.9020 -2.9509 -0.6795
  861SOL     OW 2581   2.738   0.245   0.530  0.0937  0.0347  0.4451
  861SOL    HW1 2582   2.828   0.204   0.550  0.7770  1.5788  0.1821
  861SOL    HW2 2583   2.674   0.242   0.609 -0.1805  0.5007 -1.1752
  862SOL     OW 2584   0.993   2.637   2.888 -0.3018  0.5444  0.2957
  862SOL    HW1 2585   0.949   2.726   2.854 -0.0717  3.0026  0.2016
  862SOL    HW2 2586   1.049   2.592   2.817  1.4827 -0.7356  1.5577
  863SOL     OW 2587   0.533   0.611   1.390 -0.3866 -0.0820 -0.6322
  863SOL    HW1 2588   0.583   0.658   1.311 -0.7992 -4.1209  0.0652
  863SOL    HW2 2589   0.480   0.531   1.351 -0.2235 -2.9492 -0.1527
  864SOL     OW 2590   0.006   3.070   1.743 -0.0466 -0.0455 -0.6330
  864SOL    HW1 2591   0.101   3.106   1.766  3.0737 -1.7406 -0.5041
  864SOL    HW2 2592   3.111   2.972   1.780 -2.4164  2.2390 -0.0401
  865SOL     OW 2593   0.557   1.383   3.075  0.3342 -0.1148 -1.0023
  865SOL    HW1 2594   0.597   1.321   3.006 -2.6763  2.1093  0.4506
  865SOL    HW2 2595   0.471   1.337   3.107 -0.5821  0.8971 -2.2915
  866SOL     OW 2596   3.003   0.267   0.051 -0.2425  0.1518  0.0266
  866SOL    HW1 2597   2.905   0.255   0.041  2.1585 -0.4072  0.3519
  866SOL    HW2 2598   3.039   0.358   0.011  1.2598  0.4058 -0.3142
  867SOL     OW 2599   2.822   2.872   2.998  0.2020  0.8531  0.2512
  867SOL    HW1 2600   2.917   2.844   3.031  0.5101 -2.6852  2.6578
  867SOL    HW2 2601   2.753   2.859   3.069  0.9543 -0.0527 -1.1128
  868SOL     OW 2602   1.366   0.665   0.152  0.2899 -0.5461 -0.1965
  868SOL    HW1 2603   1.266   0.659   0.171  0.5415  1.3332 -0.3202
  868SOL    HW2 2604   1.413   0.714   0.225  0.4665 -2.2375 -3.5405
  869SOL     OW 2605   2.546   1.431   0.416 -0.0820  0.0002  0.2778
  869SOL    HW1 2606   2.480   1.469   0.349 -1.6541  1.3859  0.0216
  869SOL    HW2 2607   2.512   1.457   0.507 -2.8534  0.3068 -0.5189
  870SOL     OW 2608   2.360   1.524   0.199 -0.0688  0.4577 -0.0928
  870SOL    HW1 2609   2.370   1.541   0.098 -1.9787 -2.4249  1.9295
  870SOL    HW2 2610   2.273   1.560   0.236  2.3666  0.7776 -0.2361
  871SOL     OW 2611   1.440   1.321   0.509  0.5854  0.3213 -0.3683
  871SOL    HW1 2612   1.349   1.288   0.483  1.0987 -0.4828  1.3088
  871SOL    HW2 2613   1.459   1.309   0.606 -1.4567  0.2642 -2.1861
  872SOL     OW 2614   1.486   1.755   1.522  0.5696 -0.3740 -0.4085
  872SOL    HW1 2615   1.478   1.660   1.558  1.8068 -1.6183  1.7082
  872SOL    HW2 2616   1.416   1.780   1.454 -1.2410 -0.6729  0.9214
  873SOL     OW 2617   0.776   1.790   2.336  0.2252 -0.6355  0.2111
  873SOL    HW1 2618   0.825   1.795   2.246 -1.6548 -0.3056 -2.9439
  873SOL    HW2 2619   0.797   1.705   2.387  1.5353  3.3128  0.0952
  874SOL     OW 2620   0.926   1.732   1.131  0.3826 -0.0469  0.1593
  874SOL    HW1 2621   0.913   1.820   1.083 -0.3418 -3.0958 -3.0422
  874SOL    HW2 2622   0.840   1.677   1.120  1.8551 -2.4577  2.8673
  875SOL     OW 2623   2.126   0.492   1.160 -0.3384  0.1871  0.1097
  875SOL    HW1 2624   2.119   0.396   1.202  0.2502 -1.3943  1.6957
  875SOL    HW2 2625   2.148   0.565   1.229  0.8487 -0.5737 -1.5706
  876SOL     OW 2626   0.652   0.488   0.223 -0.1895 -0.5468 -0.1242
  876SOL    HW1 2627   0.648   0.526   0.319  0.5481 -1.0083  0.5049
  876SOL    HW2 2628   0.741   0.444   0.200 -0.8490  1.1630  0.1196
  877SOL     OW 2629   3.072   0.438   1.350  0.1308 -0.9053 -0.0620
  877SOL    HW1 2630   3.001   0.395   1.299  1.3008  2.0373  1.3038
  877SOL    HW2 2631   3.100   0.525   1.302  2.8970  1.0214 -1.9490
  878SOL     OW 2632   1.713   2.408   0.221  0.1664  0.0430  0.4190
  878SOL    HW1 2633   1.809   2.442   0.203  0.3163 -0.1676  1.8950
  878SOL    HW2 2634   1.687   2.331   0.154 -2.0566 -0.6979 -0.8593
  879SOL     OW 2635   2.666   1.878   1.469  0.2295  0.6072  0.1041
  879SOL    HW1 2636   2.572   1.908   1.439 -2.5583  0.6779 -1.4900
  879SOL    HW2 2637   2.654   1.809   1.546 -0.6128  0.2811  2.3956
  880SOL     OW 2638   1.257   3.098   1.205  0.0689 -0.7161 -0.5373
  880SOL    HW1 2639   1.209   3.048   1.274 -0.2102  2.2492 -1.2008
  880SOL    HW2 2640   1.215   3.084   1.109  1.0518  1.0215 -2.4042
  881SOL     OW 2641   1.105   1.966   0.294 -0.1701  0.8770 -0.2804
  881SOL    HW1 2642   1.034   2.035   0.312  2.1172 -1.5603 -3.4929
  881SOL    HW2 2643   1.169   1.996   0.220 -2.2309  0.3420 -0.3043
  882SOL     OW 2644   2.147   0.920   2.225 -0.1372  0.0479  0.6611
  882SOL    HW1 2645   2.100   1.006   2.240 -0.9257  1.8112  2.5695
  882SOL    HW2 2646   2.206   0.934   2.144  1.0239 -1.5896  0.4333
  883SOL     OW 2647   1.206   0.237   2.269 -0.1083  0.2398 -0.1924
  883SOL    HW1 2648   1.257   0.251   2.356 -0.1733 -2.4333  0.6505
  883SOL    HW2 2649   1.126   0.299   2.270  1.1177  0.4847 -2.6351
  884SOL     OW 2650   2.731   0.051   0.273  0.1441 -0.0061  0.5826
  884SOL    HW1 2651   2.633   0.041   0.307  0.6175 -0.4287  1.1358
  884SOL    HW2 2652   2.743   0.120   0.205  0.8310 -0.6146  2.7732
  885SOL     OW 2653   0.894   1.630   0.043  0.1257  0.3966 -0.2009
  885SOL    HW1 2654   0.948   1.577   3.083 -0.2879 -2.4794  2.2158
  885SOL    HW2 2655   0.811   1.669   0.010  0.2842 -0.9720  1.4425
  886SOL     OW 2656   1.894   1.393   2.811  0.1875  0.0958  0.5169
  886SOL    HW1 2657   1.921   1.396   2.712  1.7244  0.3440  0.1990
  886SOL    HW2 2658   1.873   1.486   2.845  0.1032 -4.7250  0.2603
  887SOL     OW 2659   1.514   0.626   1.782  0.4575  0.1539  0.2293
  887SOL    HW1 2660   1.569   0.698   1.737  0.5163 -1.6574  1.4811
  887SOL    HW2 2661   1.548   0.598   1.872  0.1225  0.4475  1.0198
  888SOL     OW 2662   2.839   0.672   1.830  0.3404 -0.6453  0.0907
  888SOL    HW1 2663   2.877   0.769   1.823 -0.4703 -0.1390 -2.2070
  888SOL    HW2 2664   2.872   0.617   1.747  1.7692  2.0107 -0.3876
  889SOL     OW 2665   2.883   2.632   0.647  0.2260  0.2621 -0.7681
  889SOL    HW1 2666   2.822   2.654   0.729 -0.3407  1.4832  0.4992
  889SOL    HW2 2667   2.979   2.668   0.659 -1.6583 -1.6144  2.0910
  890SOL     OW 2668   2.818   2.535   3.045  0.3054 -0.2985 -0.1448
  890SOL    HW1 2669   2.770   2.505   0.018 -1.4210 -0.4137  2.1501
  890SOL    HW2 2670   2.900   2.591   3.064 -0.6568 -1.4345 -0.6311
  891SOL     OW 2671   1.031   1.507   2.958 -0.2285 -0.5316 -0.2281
  891SOL    HW1 2672   0.947   1.472   2.909 -2.0294 -0.0347 -0.4101
  891SOL    HW2 2673   1.106   1.515   2.891  2.0687 -0.0565  2.5046
  892SOL     OW 2674   0.016   3.028   1.090 -0.1014 -0.3909 -0.1698
  892SOL    HW1 2675   0.019   3.042   0.989 -0.4806  1.6955 -2.3311
  892SOL    HW2 2676   3.093   3.108   1.141  0.6192  1.0756  1.7012
  893SOL     OW 2677   0.789   2.875   0.974 -0.2594 -0.0191 -0.0211
  893SOL    HW1 2678   0.822   2.790   0.937 -2.6398  1.6099 -0.9566
  893SOL    HW2 2679   0.758   2.942   0.901 -0.8469  1.5056  1.2473
  894SOL     OW 2680   2.767   1.248   0.617 -0.6056 -0.1983 -0.2784
  894SOL    HW1 2681   2.733   1.310   0.688 -0.7772 -0.0166 -1.7775
  894SOL    HW2 2682   2.868   1.246   0.630 -2.5327 -0.5461  1.6112
  895SOL     OW 2683   2.743   2.805   1.775 -0.5248 -0.2322  0.4976
  895SOL    HW1 2684   2.822   2.790   1.835  0.1919  3.8192 -0.1979
  895SOL    HW2 2685   2.770   2.810   1.677 -3.0031 -3.0239 -0.3371
  896SOL     OW 2686   1.260   3.030   1.608  0.2813 -0.2185  0.4645
  896SOL    HW1 2687   1.181   2.980   1.576  1.5505  0.0542 -1.6399
  896SOL    HW2 2688   1.254   3.038   1.709  0.4588  1.2023 -1.3557
  897SOL     OW 2689   1.095   1.455   1.585 -0.3221 -0.7250  0.0659
  897SOL    HW1 2690   1.079   1.362   1.549  3.3092 -2.0733  1.6284
  897SOL    HW2 2691   1.074   1.532   1.520 -0.5260  0.5951 -0.0393
  898SOL     OW 2692   1.266   2.557   1.858  0.1251  0.4243 -0.5747
  898SOL    HW1 2693   1.312   2.638   1.898 -0.9286  0.7767 -0.2583
  898SOL    HW2 2694   1.299   2.532   1.763 -0.3709  0.8567  0.2165
  899SOL     OW 2695   0.746   0.557   0.460  0.0647  0.2832  0.5090
  899SOL    HW1 2696   0.714   0.607   0.543 -2.2079  3.0896  2.6426
  899SOL    HW2 2697   0.848   0.549   0.474  1.4960  2.4769  0.8447
  900SOL     OW 2698   1.497   2.479   2.072  0.2535  0.3712 -0.3975
  900SOL    HW1 2699   1.483   2.451   1.975 -0.5572 -0.0665  0.2179
  900SOL    HW2 2700   1.557   2.562   2.082  2.5476 -1.5030  1.2291
  901SOL     OW 2701   0.896   2.264   0.007  0.1892 -0.0073 -0.2262
  901SOL    HW1 2702   0.850   2.187   0.047 -0.5635  1.9161 -0.0542
  901SOL    HW2 2703   0.834   2.326   3.070  1.5868  0.5406 -0.0893
  902SOL     OW 2704   2.040   0.996   0.260 -0.6658 -0.2973  0.4833
  902SOL    HW1 2705   2.049   1.022   0.361 -0.5712 -1.8202 -1.0996
  902SOL    HW2 2706   2.128   0.957   0.231  0.9373  0.7843  0.8681
  903SOL     OW 2707   2.013   1.035   0.527  0.2154  0.0201 -0.2085
  903SOL    HW1 2708   1.948   0.968   0.490  0.5434 -3.0331  0.6268
  903SOL    HW2 2709   1.971   1.111   0.580 -0.9404  1.9182  0.3668
  904SOL     OW 2710   0.852   1.023   3.079 -0.5367  0.2129  0.1299
  904SOL    HW1 2711   0.931   1.059   0.027  1.2915  3.9663 -0.9496
  904SOL    HW2 2712   0.883   0.946   3.025 -1.1444 -0.9438  1.6857
  905SOL     OW 2713   2.111   0.010   0.922  0.0708  0.0691 -0.1558
  905SOL    HW1 2714   2.185   0.038   0.979 -0.9093  1.5464  0.1902
  905SOL    HW2 2715   2.029   0.070   0.942  3.2428  1.3648 -0.1588
  906SOL     OW 2716   0.133   2.301   1.084  0.4128  0.0938 -0.4556
  906SOL    HW1 2717   0.079   2.234   1.034  3.0190  1.2522 -0.6486
  906SOL    HW2 2718   0.199   2.351   1.026 -0.8005 -0.0787  0.2375
  907SOL     OW 2719   0.943   0.854   0.222 -0.2906  0.1626 -0.2682
  907SOL    HW1 2720   0.963   0.941   0.180 -1.3159  1.7779  1.8537
  907SOL    HW2 2721   0.856   0.808   0.192 -0.9410 -1.4809  2.6364
  908SOL     OW 2722   2.000   2.882   1.072 -0.0932  0.4213 -0.3878
  908SOL    HW1 2723   2.069   2.880   1.149 -1.1448  0.3250 -1.9538
  908SOL    HW2 2724   2.021   2.955   1.002  0.1096  0.0163  0.1686
  909SOL     OW 2725   2.146   1.312   1.533 -0.3005  0.1900  0.4834
  909SOL    HW1 2726   2.094   1.397   1.536  0.4815 -1.1799 -2.3835
  909SOL    HW2 2727   2.150   1.282   1.437  0.4814  3.0123  1.4084
  910SOL     OW 2728   1.434   2.845   2.309 -0.0933 -0.2821 -0.3993
  910SOL    HW1 2729   1.515   2.802   2.355  1.5127 -0.8162 -0.3555
  910SOL    HW2 2730   1.345   2.814   2.352  1.5653  1.4703 -0.5714
  911SOL     OW 2731   2.932   0.709   2.251  0.4367 -0.0437 -0.0981
  911SOL    HW1 2732   2.987   0.790   2.278  0.5715  0.4197 -0.9103
  911SOL    HW2 2733   2.930   0.625   2.317  1.4161  0.0475  0.9799
  912SOL     OW 2734   0.058   1.299   1.636 -0.0677 -0.4809 -0.2015
  912SOL    HW1 2735   0.030   1.210   1.604 -0.9893  3.2148 -0.0586
  912SOL    HW2 2736   0.154   1.293   1.682  3.7947 -1.1320  3.3375
  913SOL     OW 2737   2.838   2.431   1.294  0.5625  0.3497 -0.0980
  913SOL    HW1 2738   2.909   2.390   1.348  1.7267  2.0527 -0.9926
  913SOL    HW2 2739   2.840   2.404   1.198 -1.0263 -0.8056 -0.6299
  914SOL     OW 2740   1.824   0.919   1.765 -0.2075  0.1999 -0.2368
  914SOL    HW1 2741   1.742   0.902   1.710 -2.1074  0.5179  0.2331
  914SOL    HW2 2742   1.888   0.969   1.704 -0.4818 -1.8685  1.6642
  915SOL     OW 2743   1.881   0.718   1.399  0.0383 -0.5047  0.7565
  915SOL    HW1 2744   1.888   0.649   1.470 -3.9415  2.1432 -2.3212
  915SOL    HW2 2745   1.814   0.687   1.324 -1.1469 -2.5095 -3.4684
  916SOL     OW 2746   2.915   2.602   1.066  0.3303  0.2600  0.3808
  916SOL    HW1 2747   2.843   2.631   1.133  1.1526 -0.4600  2.0670
  916SOL    HW2 2748   2.876   2.529   1.009  2.5569 -2.4127  1.9270
  917SOL     OW 2749   1.895   1.894   0.087 -0.2023 -0.4237  0.2420
  917SOL    HW1 2750   1.820   1.946   0.127 -2.8446 -0.7420  0.3003
  917SOL    HW2 2751   1.912   1.933   3.107  0.5166  0.6465 -0.6237
  918SOL     OW 2752   1.788   2.941   2.463 -0.5501 -0.4944 -0.4702
  918SOL    HW1 2753   1.876   2.989   2.439  0.1818  0.8438 -1.2501
  918SOL    HW2 2754   1.725   3.000   2.511 -0.8906 -2.8101 -2.9583
  919SOL     OW 2755   1.350   2.559   1.184 -0.3699 -0.5108 -0.7666
  919SOL    HW1 2756   1.448   2.538   1.159  1.1367  0.1918 -3.5659
  919SOL    HW2 2757   1.348   2.634   1.254  0.5541 -1.7230  2.1419
  920SOL     OW 2758   0.019   0.210   2.322 -0.2959 -0.4490 -0.1684
  920SOL    HW1 2759   0.030   0.280   2.394  1.3925 -1.4983  0.7652
  920SOL    HW2 2760   0.107   0.173   2.293 -3.4843 -2.1948 -1.8468
  921SOL     OW 2761   2.914   1.055   1.669 -0.4775  0.0933  0.0189
  921SOL    HW1 2762   2.910   1.157   1.666 -1.0126  0.6446 -2.0394
  921SOL    HW2 2763   3.006   1.022   1.649  0.3488  0.2075  2.0498
  922SOL     OW 2764   1.875   2.026   0.533 -0.0668  0.5336 -0.0984
  922SOL    HW1 2765   1.977   2.031   0.510  2.3933  1.3623 -1.3299
  922SOL    HW2 2766   1.818   2.103   0.488  1.1929  0.9547  0.3716
  923SOL     OW 2767   0.871   1.801   0.273 -0.7521  0.1819  0.5013
  923SOL    HW1 2768   0.878   1.718   0.215 -1.8861 -1.7886  0.8054
  923SOL    HW2 2769   0.961   1.844   0.289  1.1770  0.8012 -1.1746
  924SOL     OW 2770   0.853   0.294   0.121 -0.4913  0.4842 -0.3684
  924SOL    HW1 2771   0.776   0.235   0.150  2.6031 -1.9107 -0.5113
  924SOL    HW2 2772   0.856   0.325   0.029 -0.6788 -3.7726  0.3101
  925SOL     OW 2773   2.546   0.468   0.812  0.1139  0.0923 -0.1010
  925SOL    HW1 2774   2.548   0.380   0.753  0.1362 -0.0960 -1.0411
  925SOL    HW2 2775   2.481   0.466   0.889 -0.9111 -1.0557 -1.4704
  926SOL     OW 2776   0.349   0.103   1.037  0.6800 -0.2256  0.1786
  926SOL    HW1 2777   0.309   0.022   0.984 -1.3670 -0.1657  1.9183
  926SOL    HW2 2778   0.339   0.088   1.141 -0.9351  0.7801 -0.0046
  927SOL     OW 2779   3.049   1.405   2.272  0.2819 -0.1057 -0.0195
  927SOL    HW1 2780   3.030   1.465   2.350  1.6998  0.1581 -3.1064
  927SOL    HW2 2781   0.035   1.378   2.269  1.8023  1.3968 -2.3184
  928SOL     OW 2782   3.051   0.375   2.782  0.0918  0.2584  0.3872
  928SOL    HW1 2783   3.036   0.442   2.853  0.0207  0.8012  0.6539
  928SOL    HW2 2784   2.965   0.338   2.747  3.9736  0.0547  0.0827
  929SOL     OW 2785   2.608   0.234   1.399 -0.1819 -0.0464  0.0186
  929SOL    HW1 2786   2.513   0.266   1.373  0.9282  1.9032  0.6400
  929SOL    HW2 2787   2.629   0.142   1.366  1.6332  0.3762 -0.5431
  930SOL     OW 2788   1.904   1.227   1.916  0.0960 -0.2517 -0.5021
  930SOL    HW1 2789   1.851   1.155   1.964  1.9697 -1.0094  0.0063
  930SOL    HW2 2790   1.943   1.291   1.986 -2.8038  0.9431 -2.8724
  931SOL     OW 2791   2.255   1.291   0.355  0.3087  0.1198  0.3405
  931SOL    HW1 2792   2.275   1.205   0.302 -1.4546 -1.6648 -0.5840
  931SOL    HW2 2793   2.283   1.376   0.303 -1.6138  2.1150 -0.3219
  932SOL     OW 2794   2.370   1.305   0.840 -0.1018  0.3702  0.2911
  932SOL    HW1 2795   2.429   1.324   0.920 -2.6485 -0.6522 -1.5834
  932SOL    HW2 2796   2.273   1.284   0.869  0.6288 -0.4454 -1.3982
  933SOL     OW 2797   2.450   1.788   0.872  0.0419 -0.2411  0.0692
  933SOL    HW1 2798   2.425   1.807   0.971  0.5648 -1.3808  0.3934
  933SOL    HW2 2799   2.409   1.858   0.810 -2.3863  0.1189 -0.6396
  934SOL     OW 2800   2.044   0.540   2.504  0.5261  0.3170 -0.1054
  934SOL    HW1 2801   2.050   0.615   2.440 -1.5825 -1.8268  1.8307
  934SOL    HW2 2802   2.138   0.499   2.521  0.6170  1.1215  1.2937
  935SOL     OW 2803   0.184   1.506   0.434 -0.3907 -0.3010 -0.1025
  935SOL    HW1 2804   0.144   1.519   0.527 -0.0011 -1.6480  2.1279
  935SOL    HW2 2805   0.258   1.567   0.413 -2.3611  2.5563  0.0156
  936SOL     OW 2806   0.157   0.587   0.709  0.7334  0.8408 -0.2918
  936SOL    HW1 2807   0.091   0.556   0.637 -1.5951  2.2724  0.4955
  936SOL    HW2 2808   0.235   0.636   0.663 -1.6790  1.2337  0.8124
  937SOL     OW 2809   2.668   0.008   1.265  0.5728  0.5742  0.6243
  937SOL    HW1 2810   2.622   3.029   1.252 -1.4136 -1.1905 -0.8974
  937SOL    HW2 2811   2.703   0.039   1.177 -2.5687  2.2971 -0.8714
  938SOL     OW 2812   2.696   2.425   0.154  0.2721 -0.3463  0.0649
  938SOL    HW1 2813   2.774   2.404   0.221 -2.4637  0.1142 -0.1848
  938SOL    HW2 2814   2.616   2.450   0.217 -0.6386 -0.0473  0.4010
  939SOL     OW 2815   0.708   1.969   0.646 -0.6278  0.1967  0.1135
  939SOL    HW1 2816   0.675   1.914   0.567 -1.3420  1.4619  1.0633
  939SOL    HW2 2817   0.702   1.913   0.727  0.0426  0.5737 -0.2926
  940SOL     OW 2818   0.136   0.232   2.928 -0.4891 -0.2570 -0.2690
  940SOL    HW1 2819   0.045   0.271   2.902 -0.2502 -0.5635 -0.4240
  940SOL    HW2 2820   0.173   0.169   2.857  2.2481  3.5674  1.2064
  941SOL     OW 2821   1.284   0.300   3.037  0.2422  0.1568 -0.2893
  941SOL    HW1 2822   1.286   0.403   3.031 -0.9439  0.5713  0.8588
  941SOL    HW2 2823   1.231   0.270   0.004 -1.2576  1.5229  1.4202
  942SOL     OW 2824   1.018   0.781   1.375 -0.0564 -0.4429  0.0111
  942SOL    HW1 2825   0.973   0.691   1.355  2.6463  2.7266 -0.3338
  942SOL    HW2 2826   0.977   0.823   1.460  1.1713  0.7374 -0.1013
  943SOL     OW 2827   1.454   0.984   1.931  0.1602 -0.2198  0.2127
  943SOL    HW1 2828   1.544   1.012   1.969  0.3842 -2.2567  0.2758
  943SOL    HW2 2829   1.415   0.922   2.002  1.7898 -1.4615  1.1501
  944SOL     OW 2830   2.015   1.109   1.688  0.3412  0.3277 -1.0806
  944SOL    HW1 2831   2.000   1.152   1.785 -1.4726  1.5144  3.5798
  944SOL    HW2 2832   2.054   1.173   1.623 -1.1182 -1.6335  0.4986
  945SOL     OW 2833   2.923   3.016   0.394  0.9422 -0.4623  0.1855
  945SOL    HW1 2834   2.931   3.061   0.480 -0.9459 -1.3729 -5.6464
  945SOL    HW2 2835   2.853   3.075   0.343 -0.1624 -0.2205 -2.6615
  946SOL     OW 2836   2.840   0.943   1.887 -0.0134  0.3112 -0.1412
  946SOL    HW1 2837   2.851   0.993   1.800 -1.0206  0.6694 -0.8198
  946SOL    HW2 2838   2.752   0.977   1.928 -3.3860  1.4143 -0.4680
  947SOL     OW 2839   0.934   2.698   0.414 -0.1858  0.1366 -0.0744
  947SOL    HW1 2840   0.842   2.711   0.460 -0.3310  0.6135  5.0502
  947SOL    HW2 2841   0.929   2.693   0.313 -2.7578 -0.8604  1.2492
  948SOL     OW 2842   2.580   1.543   1.463  0.2803 -0.0509 -0.0658
  948SOL    HW1 2843   2.629   1.610   1.520 -1.7590 -0.6286 -2.0708
  948SOL    HW2 2844   2.604   1.449   1.484 -0.0421  2.3000 -1.1068
  949SOL     OW 2845   0.478   1.304   2.647  0.1165  0.0392  0.0051
  949SOL    HW1 2846   0.378   1.327   2.670  0.5289 -0.0413  0.7153
  949SOL    HW2 2847   0.493   1.210   2.664 -0.7946  0.9703  2.4987
  950SOL     OW 2848   0.474   2.842   1.102  0.3368  0.3856 -0.0203
  950SOL    HW1 2849   0.401   2.781   1.062 -1.5043 -2.8255 -0.0607
  950SOL    HW2 2850   0.564   2.816   1.063  0.3510 -0.6987  0.3545
  951SOL     OW 2851   0.941   1.195   2.375 -0.5352 -0.6340 -0.2349
  951SOL    HW1 2852   1.035   1.151   2.364 -0.2520  0.6542 -0.9169
  951SOL    HW2 2853   0.906   1.177   2.469  2.1311 -2.1330  1.8148
  952SOL     OW 2854   0.447   1.342   0.312 -0.1254 -0.2502 -0.4680
  952SOL    HW1 2855   0.512   1.263   0.315 -1.9310  0.1621 -1.5286
  952SOL    HW2 2856   0.349   1.311   0.292 -0.6338  1.6917 -1.2005
  953SOL     OW 2857   2.386   0.093   2.623  0.0028  0.0919  0.1168
  953SOL    HW1 2858   2.283   0.110   2.625 -3.7681 -0.3620  0.5202
  953SOL    HW2 2859   2.413   0.041   2.542  1.8826  0.1041 -0.8237
  954SOL     OW 2860   1.661   1.204   0.365  0.4760 -0.6170  0.5487
  954SOL    HW1 2861   1.570   1.251   0.359 -2.1499  1.6554 -2.9221
  954SOL    HW2 2862   1.737   1.277   0.379  1.8588  1.8014  0.1225
  955SOL     OW 2863   0.721   1.969   2.814 -0.2504 -0.0383 -0.8069
  955SOL    HW1 2864   0.690   1.969   2.913 -0.5575 -2.2582  0.0598
  955SOL    HW2 2865   0.699   2.056   2.772  1.0355 -1.1005 -0.0796
  956SOL     OW 2866   1.998   0.687   2.265  0.8745 -0.0679  0.1276
  956SOL    HW1 2867   2.024   0.599   2.227 -0.0452  0.3566 -0.0473
  956SOL    HW2 2868   2.059   0.767   2.235  0.7218 -1.7267 -0.5175
  957SOL     OW 2869   1.863   2.076   2.638 -0.4608 -0.3650 -0.8046
  957SOL    HW1 2870   1.858   1.973   2.637 -0.5183 -0.5354 -0.5187
  957SOL    HW2 2871   1.908   2.108   2.721 -0.7101  1.6540 -2.1206
  958SOL     OW 2872   1.397   1.387   1.354  0.5449  0.3745  0.5216
  958SOL    HW1 2873   1.431   1.293   1.380  2.6943 -1.2368 -0.4723
  958SOL    HW2 2874   1.301   1.395   1.336  0.3829  0.2274 -0.5438
  959SOL     OW 2875   1.952   2.407   2.518 -0.4579 -0.0924 -0.3896
  959SOL    HW1 2876   1.871   2.423   2.455  0.6337  2.2982  1.9991
  959SOL    HW2 2877   1.964   2.312   2.533  0.1614  4.4000 -2.4495
  960SOL     OW 2878   0.178   0.854   2.624 -0.8921 -0.3066 -0.3134
  960SOL    HW1 2879   0.227   0.828   2.542  1.0723  1.9122  2.3042
  960SOL    HW2 2880   0.087   0.813   2.621  3.2904  1.2544 -0.0835
  961SOL     OW 2881   0.374   1.035   2.733  0.0664  0.3179  0.3555
  961SOL    HW1 2882   0.301   0.978   2.690 -0.8982  0.0948  1.3276
  961SOL    HW2 2883   0.350   1.069   2.823  1.3631 -3.3283 -3.0287
  962SOL     OW 2884   0.660   1.181   2.938 -0.3699 -0.5881 -0.0923
  962SOL    HW1 2885   0.730   1.135   2.997  0.3157 -0.4397  1.3048
  962SOL    HW2 2886   0.635   1.117   2.866  0.7674  0.8640  0.8550
  963SOL     OW 2887   2.581   2.354   3.024  0.1616 -0.2429 -0.3391
  963SOL    HW1 2888   2.644   2.380   3.102 -2.1284  0.3749 -1.5795
  963SOL    HW2 2889   2.617   2.396   2.937  1.8256  1.2496 -2.2174
  964SOL     OW 2890   1.163   2.339   1.528  0.5059  0.5754 -0.3083
  964SOL    HW1 2891   1.237   2.404   1.550 -1.9200 -0.2691  0.4665
  964SOL    HW2 2892   1.077   2.387   1.546 -0.6006  1.8285  0.8495
  965SOL     OW 2893   1.576   1.584   0.237 -0.0356 -0.0884 -0.1085
  965SOL    HW1 2894   1.680   1.587   0.252  2.0824  2.7464  1.5251
  965SOL    HW2 2895   1.530   1.613   0.323 -1.4727  2.0278  0.9506
  966SOL     OW 2896   3.108   1.663   0.208  0.3312  0.2461  0.3751
  966SOL    HW1 2897   3.110   1.618   0.302 -2.3729  0.8678  1.9547
  966SOL    HW2 2898   3.098   1.764   0.221  0.7485  0.0202 -0.8869
  967SOL     OW 2899   1.682   0.019   2.071 -0.3955  0.1872 -0.1175
  967SOL    HW1 2900   1.597   0.019   2.127  0.8665  0.4281 -0.5393
  967SOL    HW2 2901   1.725   3.038   2.076 -0.6075  0.6726  0.1827
  968SOL     OW 2902   1.827   0.400   0.367  0.1755 -0.0578  0.1971
  968SOL    HW1 2903   1.736   0.412   0.323  0.6331 -0.0550  0.4751
  968SOL    HW2 2904   1.825   0.434   0.463  2.7826  0.0992 -0.8570
  969SOL     OW 2905   0.207   1.342   2.258 -0.5900  0.1708  0.5334
  969SOL    HW1 2906   0.291   1.366   2.311  3.4551 -0.5399 -1.9523
  969SOL    HW2 2907   0.196   1.242   2.256 -0.2362 -0.4531 -1.4587
  970SOL     OW 2908   2.263   2.112   1.235  0.0667 -0.6149  0.4361
  970SOL    HW1 2909   2.186   2.111   1.166 -2.4337  0.0224 -0.1029
  970SOL    HW2 2910   2.239   2.183   1.301  0.9600 -0.4430 -2.2101
  971SOL     OW 2911   3.112   2.765   1.005  0.4680 -0.0168  0.3398
  971SOL    HW1 2912   3.045   2.697   1.037  2.2261  0.4450  0.8256
  971SOL    HW2 2913   3.103   2.859   1.053  0.3229  3.3293 -2.3431
  972SOL     OW 2914   0.037   1.193   2.579 -0.4865  0.1923 -0.1300
  972SOL    HW1 2915   0.002   1.134   2.651  2.9301 -2.1325  1.7616
  972SOL    HW2 2916   3.101   1.175   2.492  2.0681 -2.3201 -2.6240
  973SOL     OW 2917   0.384   0.275   0.683 -0.5672 -0.1582 -0.0177
  973SOL    HW1 2918   0.331   0.307   0.767 -0.5401  2.2954  2.7018
  973SOL    HW2 2919   0.368   0.344   0.609 -2.1971  0.3639 -2.4096
  974SOL     OW 2920   2.254   0.966   1.752 -0.4891 -0.3273  0.1406
  974SOL    HW1 2921   2.177   1.029   1.722  0.0649  0.7619  0.4307
  974SOL    HW2 2922   2.253   0.877   1.706  2.9597  0.8381  1.0371
  975SOL     OW 2923   2.579   2.805   0.011 -0.7001  0.5939 -0.8150
  975SOL    HW1 2924   2.588   2.745   0.093  0.1660 -2.3471  0.3534
  975SOL    HW2 2925   2.569   2.739   3.050 -1.7107  0.0031  1.8083
  976SOL     OW 2926   0.435   1.656   1.174 -0.3349  0.0296  0.1140
  976SOL    HW1 2927   0.419   1.558   1.147  2.6041  1.2557  0.2661
  976SOL    HW2 2928   0.409   1.666   1.271  1.2883 -0.0711  2.4941
  977SOL     OW 2929   1.179   2.289   0.947  0.3901 -0.2617  0.0105
  977SOL    HW1 2930   1.130   2.223   0.888 -0.6345 -0.2660  1.5064
  977SOL    HW2 2931   1.263   2.256   0.994 -0.4586  1.4553  0.3170
  978SOL     OW 2932   0.336   0.875   0.287  0.1086 -0.1361  0.0456
  978SOL    HW1 2933   0.420   0.918   0.248 -2.3875 -1.3322 -0.2217
  978SOL    HW2 2934   0.316   0.794   0.233  1.7300  1.3016 -0.7550
  979SOL     OW 2935   2.169   1.619   0.375 -0.4290 -0.0129 -0.4283
  979SOL    HW1 2936   2.174   1.593   0.474 -0.5667 -2.7002 -0.8307
  979SOL    HW2 2937   2.106   1.693   0.362  0.7391  0.7782 -0.6136
  980SOL     OW 2938   0.400   1.762   2.175  0.0307 -0.2300  0.2352
  980SOL    HW1 2939   0.424   1.718   2.083 -0.4615  1.9109  0.0813
  980SOL    HW2 2940   0.460   1.848   2.177 -1.7433 -0.7962 -0.6071
  981SOL     OW 2941   2.834   1.074   0.370 -0.2444 -0.1888  0.2443
  981SOL    HW1 2942   2.750   1.124   0.406  0.1794 -0.3215  0.0070
  981SOL    HW2 2943   2.823   1.053   0.269 -1.6029 -1.5980 -0.8505
  982SOL     OW 2944   2.951   2.748   1.954 -0.3800 -0.0007  0.3570
  982SOL    HW1 2945   2.946   2.832   2.015 -1.9514  4.2851  1.2355
  982SOL    HW2 2946   3.039   2.750   1.902  3.1846 -0.5096  0.0808
  983SOL     OW 2947   1.491   0.347   1.369 -0.2403 -0.2202  0.3097
  983SOL    HW1 2948   1.422   0.305   1.308 -0.7595  0.5657  0.8179
  983SOL    HW2 2949   1.585   0.321   1.343 -2.5387  0.4015  0.3693
  984SOL     OW 2950   1.362   2.601   3.084  0.5388 -0.5182  0.3093
  984SOL    HW1 2951   1.355   2.531   3.012  0.0135  1.2561  0.5963
  984SOL    HW2 2952   1.460   2.634   3.092  1.1184  0.9723  0.4958
  985SOL     OW 2953   1.718   1.891   1.626 -0.1715 -0.4869  0.2552
  985SOL    HW1 2954   1.646   1.825   1.593 -0.7318 -0.4288  0.4772
  985SOL    HW2 2955   1.808   1.860   1.585  0.7991 -1.1175 -1.7306
  986SOL     OW 2956   2.013   3.080   2.451  0.4112 -0.0988  0.1685
  986SOL    HW1 2957   2.025   0.026   2.370  0.5594  1.0682 -3.0792
  986SOL    HW2 2958   2.081   3.101   2.525  2.3097 -0.9946 -0.9551
  987SOL     OW 2959   2.666   1.637   2.436 -0.1111 -0.1446  0.0169
  987SOL    HW1 2960   2.610   1.568   2.486 -1.3934  0.7228 -0.7087
  987SOL    HW2 2961   2.767   1.615   2.441  0.3572 -2.7228 -0.1541
  988SOL     OW 2962   2.945   0.528   2.053 -0.4705  0.0723  0.1810
  988SOL    HW1 2963   2.872   0.536   1.981  0.8749 -0.5835  1.5127
  988SOL    HW2 2964   2.963   0.615   2.104  1.8147 -3.3007  0.4510
  989SOL     OW 2965   1.804   1.443   1.749 -0.3387  0.4129  0.1463
  989SOL    HW1 2966   1.703   1.452   1.758  0.2405 -2.1013  0.2456
  989SOL    HW2 2967   1.830   1.353   1.790 -1.4835 -0.6535  1.1483
  990SOL     OW 2968   3.086   1.110   0.267 -0.4821  0.2010  0.2251
  990SOL    HW1 2969   3.000   1.131   0.315 -2.3141  1.3234  0.9908
  990SOL    HW2 2970   0.004   1.010   0.286 -0.6750 -2.4505 -1.6930
  991SOL     OW 2971   0.333   1.828   2.633 -0.0917 -0.4192 -0.3547
  991SOL    HW1 2972   0.259   1.773   2.677  0.3384  0.0347 -0.5262
  991SOL    HW2 2973   0.318   1.931   2.632  1.3823  5.7267  0.8965
  992SOL     OW 2974   2.589   2.387   1.885  0.2900  0.0178  0.0878
  992SOL    HW1 2975   2.536   2.441   1.948  2.4637 -1.1935 -1.8730
  992SOL    HW2 2976   2.647   2.319   1.934 -0.7219 -0.1326 -1.5516
  993SOL     OW 2977   0.281   2.800   0.655  0.5153  0.6731 -0.1122
  993SOL    HW1 2978   0.296   2.899   0.649  2.0441 -1.0824  0.2796
  993SOL    HW2 2979   0.365   2.749   0.692  0.4561 -1.6048  0.8313
  994SOL     OW 2980   3.103   1.896   1.399  0.3350 -0.2499 -0.0833
  994SOL    HW1 2981   3.106   1.884   1.502  0.9294 -1.3919  1.0905
  994SOL    HW2 2982   0.082   1.882   1.360 -0.0328 -0.2664 -2.7089
  995SOL     OW 2983   2.286   1.775   2.310 -0.0480 -0.1300  0.4891
  995SOL    HW1 2984   2.288   1.834   2.397  0.0808 -1.3793  1.6614
  995SOL    HW2 2985   2.372   1.785   2.266 -1.6986 -0.6533  2.7380
  996SOL     OW 2986   1.834   1.636   2.905 -0.2748  0.0975  0.4280
  996SOL    HW1 2987   1.747   1.616   2.955 -0.7626 -2.8359 -0.5085
  996SOL    HW2 2988   1.829   1.726   2.861  2.9846 -1.4182 -1.3183
  997SOL     OW 2989   1.388   1.514   1.593 -0.3360  0.0608 -0.0224
  997SOL    HW1 2990   1.286   1.514   1.606  1.4573  0.2640  1.8969
  997SOL    HW2 2991   1.410   1.469   1.504 -0.7084 -0.2272 -1.0978
  998SOL     OW 2992   2.885   2.057   0.968  0.1828  0.3667  0.0713
  998SOL    HW1 2993   2.791   2.011   0.967 -0.3405  0.3916  2.1848
  998SOL    HW2 2994   2.919   2.051   1.064 -0.6000 -0.3040  1.9847
  999SOL     OW 2995   2.240   2.684   0.230 -0.0264  0.3849  0.2519
  999SOL    HW1 2996   2.214   2.783   0.219 -0.5355 -0.0977 -0.9911
  999SOL    HW2 2997   2.224   2.631   0.142 -1.2148  1.2697  1.1097
 1000SOL     OW 2998   0.929   3.067   3.017  0.2267  0.0131 -0.0638
 1000SOL    HW1 2999   0.974   3.081   3.108  0.4821 -0.5314 -1.6387
 1000SOL    HW2 3000   0.904   0.044   2.982  0.1690  1.1654  1.0354
   3.11336   3.11336   3.11336
