1000 SPC/Fw water molecules t= 129.00000 step= 129000
 3000
    1SOL     OW    1   2.231   2.186   1.028 -0.3201 -0.3861  0.0390
    1SOL    HW1    2   2.286   2.173   0.939 -0.0644 -0.8026  0.4335
    1SOL    HW2    3   2.184   2.106   1.062  0.1716 -0.3192  1.2515
    2SOL     OW    4   1.338   2.002   2.270  0.1563  0.4741  0.0710
    2SOL    HW1    5   1.302   2.096   2.296  0.8351  1.4915 -4.0266
    2SOL    HW2    6   1.252   1.942   2.263 -2.1706 -1.3646 -3.7433
    3SOL     OW    7   1.620   2.418   2.517  0.1966 -0.0985  0.1624
    3SOL    HW1    8   1.663   2.505   2.489  1.0011 -1.0620 -0.0780
    3SOL    HW2    9   1.629   2.358   2.436  1.9085 -0.3458 -1.4072
    4SOL     OW   10   1.351   2.361   2.192  0.7132  0.1009 -0.2905
    4SOL    HW1   11   1.373   2.286   2.131  0.4498 -0.5865  1.8053
    4SOL    HW2   12   1.289   2.333   2.268 -0.3651 -0.1378  1.4077
    5SOL     OW   13   0.604   0.934   1.485 -0.6057 -0.5779  0.2723
    5SOL    HW1   14   0.526   0.876   1.454  0.7706 -0.1842  1.5682
    5SOL    HW2   15   0.563   1.025   1.515 -0.3765  2.7783 -0.9619
    6SOL     OW   16   2.264   0.912   0.084  0.4789  0.3023 -0.3456
    6SOL    HW1   17   2.170   0.871   0.108  0.8405  0.9045 -1.0403
    6SOL    HW2   18   2.337   0.847   0.113 -1.5116 -0.3524  1.3311
    7SOL     OW   19   0.445   0.060   1.639 -0.2477  0.2817  0.1574
    7SOL    HW1   20   0.522   0.084   1.706 -1.0105  0.7116 -0.7175
    7SOL    HW2   21   0.364   0.033   1.695  0.0712  1.3100 -1.7527
    8SOL     OW   22   1.242   2.778   1.483  0.1324 -0.8452 -0.5559
    8SOL    HW1   23   1.151   2.798   1.445  1.1129  2.0018  1.0232
    8SOL    HW2   24   1.245   2.791   1.584  2.1012  1.0208 -0.6550
    9SOL     OW   25   0.662   0.699   0.325 -0.4410 -0.6154  0.3501
    9SOL    HW1   26   0.728   0.781   0.322  3.0207  3.3553 -1.0236
    9SOL    HW2   27   0.567   0.729   0.355 -1.1516  0.5805 -0.9760
   10SOL     OW   28   0.765   2.387   2.499  0.1808  0.3715  0.3908
   10SOL    HW1   29   0.743   2.295   2.457  2.0472 -0.0833  1.3352
   10SOL    HW2   30   0.714   2.470   2.466 -0.0061  0.6658  0.4088
   11SOL     OW   31   0.523   1.887   0.073 -0.0486  0.3597  0.1494
   11SOL    HW1   32   0.508   1.814   0.007  0.3241  0.9892  0.7685
   11SOL    HW2   33   0.483   1.861   0.160  0.7430  0.0010 -0.8772
   12SOL     OW   34   0.440   0.094   1.370  0.0794  0.0794 -0.1321
   12SOL    HW1   35   0.441   0.081   1.473  1.7974 -1.1620 -0.1800
   12SOL    HW2   36   0.484   0.011   1.322 -0.3344  0.9073 -2.1626
   13SOL     OW   37   0.738   2.545   0.084 -0.5992  0.4364  0.3188
   13SOL    HW1   38   0.811   2.480   0.069  0.5435  2.0727  0.3203
   13SOL    HW2   39   0.776   2.638   0.100  0.2728  1.6728 -2.0541
   14SOL     OW   40   1.516   1.722   0.784  0.4773 -0.0660 -0.7452
   14SOL    HW1   41   1.565   1.692   0.870  0.7850  1.8530  0.0230
   14SOL    HW2   42   1.468   1.808   0.812 -1.9217 -0.0198  0.6740
   15SOL     OW   43   2.976   1.056   2.292  0.1358  0.1550  0.2061
   15SOL    HW1   44   2.993   1.031   2.390  1.1556 -0.0857  0.0019
   15SOL    HW2   45   2.961   1.157   2.278 -1.8012  2.1600 -0.7707
   16SOL     OW   46   1.347   2.784   2.882  0.0291 -0.0661  0.3733
   16SOL    HW1   47   1.284   2.705   2.873  0.6106  0.2252 -1.3460
   16SOL    HW2   48   1.431   2.767   2.834 -1.8775 -0.1130  0.7665
   17SOL     OW   49   0.730   2.455   2.137  0.1299  0.3265 -0.0666
   17SOL    HW1   50   0.774   2.371   2.172  0.1612 -0.0398  1.1035
   17SOL    HW2   51   0.633   2.459   2.155  1.2081  0.6370 -0.9519
   18SOL     OW   52   1.514   0.793   0.158  0.4225 -0.2280  0.1051
   18SOL    HW1   53   1.578   0.856   0.205  0.3003  0.0254 -0.5693
   18SOL    HW2   54   1.560   0.710   0.116  0.6929  0.5844 -3.9161
   19SOL     OW   55   2.451   2.152   2.812  0.1224  0.2121 -0.3340
   19SOL    HW1   56   2.473   2.127   2.905 -1.3098  1.7441 -2.2333
   19SOL    HW2   57   2.537   2.175   2.760  0.3396  1.0893 -0.5357
   20SOL     OW   58   2.401   2.080   2.433 -0.2697 -0.5859 -0.1574
   20SOL    HW1   59   2.327   2.143   2.392  0.3067  1.1283 -2.6351
   20SOL    HW2   60   2.489   2.127   2.443 -1.6482 -2.0556  0.8076
   21SOL     OW   61   0.666   2.112   0.165 -0.4953 -0.4635 -0.1385
   21SOL    HW1   62   0.614   2.174   0.222  1.2773 -3.0026 -0.4170
   21SOL    HW2   63   0.613   2.028   0.146  1.7372  0.7769  1.4961
   22SOL     OW   64   2.123   2.792   1.407 -0.0064  0.4254 -0.1330
   22SOL    HW1   65   2.128   2.893   1.406 -0.2880  1.2617 -0.5659
   22SOL    HW2   66   2.167   2.756   1.494  1.3966  1.1043 -0.0216
   23SOL     OW   67   0.317   1.253   1.425  0.2828 -0.4674  0.6660
   23SOL    HW1   68   0.265   1.341   1.439  1.3242 -0.7838 -0.6253
   23SOL    HW2   69   0.400   1.257   1.482 -0.8106 -0.0426 -1.2862
   24SOL     OW   70   2.199   1.759   1.637  0.2442 -0.4367 -0.0482
   24SOL    HW1   71   2.297   1.767   1.604  0.9835 -0.7751 -2.9156
   24SOL    HW2   72   2.186   1.671   1.694  1.8186 -1.2612  2.7748
   25SOL     OW   73   1.931   2.906   2.666  0.0177  0.1293 -0.1759
   25SOL    HW1   74   2.014   2.965   2.668  0.4645  1.4335 -0.0174
   25SOL    HW2   75   1.946   2.810   2.637 -1.6834 -0.3068 -3.2089
   26SOL     OW   76   1.278   2.981   0.926 -0.0288 -0.1544 -0.4862
   26SOL    HW1   77   1.309   3.030   0.840  1.2119 -0.6874  2.6965
   26SOL    HW2   78   1.273   3.051   0.996  0.1278  0.3655 -0.1994
   27SOL     OW   79   1.227   1.821   0.146 -0.4758  0.4933  0.2897
   27SOL    HW1   80   1.281   1.771   0.218  0.9055  0.1053  3.7423
   27SOL    HW2   81   1.127   1.802   0.147 -0.0020  3.9533  0.3678
   28SOL     OW   82   2.796   1.598   1.342 -0.1435 -0.4509  0.2110
   28SOL    HW1   83   2.790   1.578   1.437  1.2773  1.4796 -1.7090
   28SOL    HW2   84   2.876   1.662   1.324 -0.4389 -0.0379 -0.4787
   29SOL     OW   85   2.319   2.393   2.095 -0.1259  0.1478 -0.0896
   29SOL    HW1   86   2.386   2.408   2.172  1.1438 -0.7568 -0.0657
   29SOL    HW2   87   2.245   2.459   2.074 -0.1429  0.2131 -0.1345
   30SOL     OW   88   0.895   2.766   1.127  0.2067  0.4693  0.5262
   30SOL    HW1   89   0.932   2.678   1.099  1.5433  0.5824 -0.2232
   30SOL    HW2   90   0.816   2.791   1.067  2.8352 -0.1841  0.5300
   31SOL     OW   91   3.067   2.016   2.092  0.7356  0.1915 -0.2361
   31SOL    HW1   92   3.058   1.913   2.097  1.2026 -3.8880 -1.4853
   31SOL    HW2   93   0.081   2.049   2.076  1.9722  0.3790 -1.8078
   32SOL     OW   94   1.555   1.132   2.086 -0.0625 -0.2526 -0.1381
   32SOL    HW1   95   1.514   1.078   2.013  0.1907 -0.1849 -2.7357
   32SOL    HW2   96   1.477   1.172   2.142 -0.4356 -1.2098  0.1908
   33SOL     OW   97   0.464   2.900   2.597 -0.0130 -0.7738  0.3427
   33SOL    HW1   98   0.403   2.818   2.598 -2.7500  0.5085  1.7512
   33SOL    HW2   99   0.554   2.888   2.553 -2.5737 -0.3966  3.2351
   34SOL     OW  100   1.492   3.068   1.570 -0.0906  0.0274 -0.3491
   34SOL    HW1  101   1.506   2.971   1.597 -2.3224  2.3131 -1.1547
   34SOL    HW2  102   1.568   0.050   1.602  3.1579  0.4757  0.5422
   35SOL     OW  103   1.998   0.445   1.142 -0.4997  0.7880  0.4163
   35SOL    HW1  104   1.978   0.506   1.223  0.1417  1.8449  0.4867
   35SOL    HW2  105   1.928   0.456   1.072  0.0522  1.3380 -0.3142
   36SOL     OW  106   2.302   2.939   2.503  0.1061 -0.2754 -0.3742
   36SOL    HW1  107   2.276   2.881   2.579  1.2641  0.0154 -0.4132
   36SOL    HW2  108   2.277   2.895   2.418 -0.5105  4.2758  0.7506
   37SOL     OW  109   1.204   2.180   2.974  0.2956  0.7541  0.5256
   37SOL    HW1  110   1.166   2.185   3.067 -0.0029 -1.7312 -0.8188
   37SOL    HW2  111   1.209   2.077   2.951 -0.3267  0.2416 -1.1029
   38SOL     OW  112   2.865   0.892   2.657 -0.5476  0.4114  0.1078
   38SOL    HW1  113   2.813   0.816   2.609 -0.8175 -0.5696 -0.1811
   38SOL    HW2  114   2.868   0.872   2.756  0.0054  0.0378 -1.3965
   39SOL     OW  115   2.059   2.141   1.977  0.3532 -0.3978 -0.2604
   39SOL    HW1  116   2.001   2.084   1.918 -1.6201  3.0097  2.3413
   39SOL    HW2  117   2.010   2.230   1.989 -1.4185  0.8589  0.1252
   40SOL     OW  118   0.268   0.326   2.883  1.3047 -0.2675  0.2229
   40SOL    HW1  119   0.290   0.317   2.982 -2.8738 -0.8128  0.3170
   40SOL    HW2  120   0.267   0.235   2.837  0.1271 -0.6102  0.8428
   41SOL     OW  121   1.419   0.950   1.466 -0.3584  0.8150 -0.1680
   41SOL    HW1  122   1.441   1.026   1.401 -1.5046  1.0026 -0.1718
   41SOL    HW2  123   1.357   0.982   1.542  3.2766 -1.0195  1.6585
   42SOL     OW  124   0.200   0.234   2.002  0.4143 -0.4552  0.0319
   42SOL    HW1  125   0.125   0.305   1.990  0.4329  1.5109 -0.5893
   42SOL    HW2  126   0.284   0.280   1.962  1.2173  0.1686 -1.7525
   43SOL     OW  127   1.541   1.572   1.916 -0.0379 -0.5398 -0.1514
   43SOL    HW1  128   1.474   1.573   1.995  0.2180  1.4700  1.7931
   43SOL    HW2  129   1.582   1.480   1.914 -0.8113  2.1165 -1.3370
   44SOL     OW  130   2.938   2.759   2.580  0.3855 -0.2558 -0.5460
   44SOL    HW1  131   2.942   2.860   2.613  2.7488  1.6942 -1.1481
   44SOL    HW2  132   2.939   2.755   2.478  0.0396 -3.2158  0.8632
   45SOL     OW  133   0.564   2.326   1.420 -0.2304 -0.3958  0.7932
   45SOL    HW1  134   0.542   2.243   1.475  1.0571  2.0670 -0.3227
   45SOL    HW2  135   0.654   2.317   1.373  2.6185  0.6911  1.7118
   46SOL     OW  136   2.440   2.314   1.856  0.6073  0.3209 -0.1483
   46SOL    HW1  137   2.379   2.322   1.937  0.6294  1.1755 -0.6756
   46SOL    HW2  138   2.541   2.326   1.877  0.3527  0.9783 -0.4251
   47SOL     OW  139   1.706   1.754   1.580  0.3857 -0.1605 -0.0789
   47SOL    HW1  140   1.607   1.731   1.579  0.0595  0.4845 -2.2371
   47SOL    HW2  141   1.759   1.675   1.619  0.0722 -0.6004  0.6880
   48SOL     OW  142   0.272   1.928   0.539 -0.5893 -0.5516  0.2187
   48SOL    HW1  143   0.274   1.940   0.439  1.2418 -1.1938  2.0734
   48SOL    HW2  144   0.300   2.006   0.592 -1.0996 -1.0836 -1.2643
   49SOL     OW  145   3.026   0.913   2.063  0.1605  0.2682 -0.4469
   49SOL    HW1  146   0.044   0.899   2.038 -1.4295 -0.0558 -0.1486
   49SOL    HW2  147   3.010   0.963   2.153 -1.2400  1.3308  0.7584
   50SOL     OW  148   2.026   0.748   0.821  0.4874 -0.2426  0.1468
   50SOL    HW1  149   2.114   0.786   0.789 -1.8906  0.8222  1.5873
   50SOL    HW2  150   1.958   0.744   0.745  1.4882  1.8432 -3.4948
   51SOL     OW  151   1.101   0.534   0.505  0.1971  0.0908  0.2160
   51SOL    HW1  152   1.026   0.571   0.567 -0.2566  0.9389  1.6337
   51SOL    HW2  153   1.155   0.455   0.540 -0.9862 -1.1059  1.0387
   52SOL     OW  154   1.295   1.132   0.319 -0.0928 -0.3019  0.0748
   52SOL    HW1  155   1.290   1.033   0.288  1.3643 -1.3137 -2.0206
   52SOL    HW2  156   1.330   1.137   0.414  2.7057  3.0702 -0.8822
   53SOL     OW  157   1.144   2.311   2.745 -0.6137 -0.8894 -0.3450
   53SOL    HW1  158   1.215   2.294   2.678  1.1344  2.8007 -0.7236
   53SOL    HW2  159   1.150   2.252   2.832  0.1210 -0.8647 -0.6182
   54SOL     OW  160   1.443   0.771   1.716  0.0881 -0.0566  0.2621
   54SOL    HW1  161   1.395   0.683   1.728 -1.3596  0.4581 -1.6218
   54SOL    HW2  162   1.445   0.796   1.618 -0.8682 -2.6040 -0.3814
   55SOL     OW  163   2.049   2.907   0.502  0.3145 -0.1664 -0.4576
   55SOL    HW1  164   2.033   2.892   0.400 -0.1351 -0.8219 -3.0710
   55SOL    HW2  165   1.982   2.859   0.558 -1.0988  2.3040  2.8770
   56SOL     OW  166   0.982   2.805   1.379 -0.2300 -0.4624 -0.2886
   56SOL    HW1  167   0.941   2.780   1.288  3.2045  1.0398  1.1053
   56SOL    HW2  168   0.950   2.895   1.416  0.3061 -0.8348 -0.2485
   57SOL     OW  169   1.768   0.803   3.029 -0.1172  0.5410  0.0944
   57SOL    HW1  170   1.767   0.801   2.925  0.0658 -0.7167 -1.9419
   57SOL    HW2  171   1.772   0.891   3.071  0.6374 -3.1448 -0.7743
   58SOL     OW  172   2.974   1.075   1.865 -0.2232  0.4771 -0.1084
   58SOL    HW1  173   2.995   1.020   1.948  4.0554  1.4504 -1.7456
   58SOL    HW2  174   2.910   1.151   1.884  3.6903  0.3865 -2.0212
   59SOL     OW  175   0.598   2.589   2.382 -0.7276  0.4054 -0.4747
   59SOL    HW1  176   0.566   2.589   2.290 -0.6509 -2.9139  3.7418
   59SOL    HW2  177   0.613   2.680   2.421 -1.2827 -0.4854 -0.9835
   60SOL     OW  178   2.667   2.382   1.074 -0.0059  0.6222  0.4317
   60SOL    HW1  179   2.574   2.342   1.092 -1.2015 -0.6366 -0.2536
   60SOL    HW2  180   2.656   2.445   0.994 -1.8752 -0.1568 -1.1083
   61SOL     OW  181   0.958   2.368   0.374 -0.4232 -0.0907  0.1880
   61SOL    HW1  182   1.040   2.360   0.427 -1.1667  1.2166  2.7832
   61SOL    HW2  183   0.913   2.279   0.366  0.3748  0.8629 -2.2903
   62SOL     OW  184   2.106   2.683   2.940  0.3704 -0.8297 -0.2297
   62SOL    HW1  185   2.167   2.601   2.966  0.8977 -2.1402  0.1684
   62SOL    HW2  186   2.006   2.670   2.926  0.7452  0.1652 -1.0524
   63SOL     OW  187   1.995   0.280   0.103 -0.6130 -0.2350 -0.4914
   63SOL    HW1  188   1.945   0.232   0.033 -0.2965  0.6905  1.5955
   63SOL    HW2  189   2.076   0.322   0.062 -0.0620 -0.4386  0.5484
   64SOL     OW  190   0.962   1.201   2.457 -0.0803 -0.4947 -0.6590
   64SOL    HW1  191   0.952   1.210   2.555 -0.6518  0.1615  1.5632
   64SOL    HW2  192   0.930   1.107   2.430  0.4977 -1.1489  0.3610
   65SOL     OW  193   1.419   2.713   0.421  0.3724  0.4170  0.5801
   65SOL    HW1  194   1.443   2.623   0.461  3.1890  1.3285 -0.1006
   65SOL    HW2  195   1.495   2.773   0.433 -3.1839  0.2061 -0.1425
   66SOL     OW  196   0.437   1.586   1.625  0.7131  0.0386  0.0794
   66SOL    HW1  197   0.436   1.499   1.677  1.1608  0.5420 -2.4418
   66SOL    HW2  198   0.346   1.610   1.583 -1.9606 -2.5507 -2.2541
   67SOL     OW  199   2.369   3.066   2.197 -0.4984 -0.5585 -0.7177
   67SOL    HW1  200   2.448   2.997   2.199  1.0012  2.0481  0.0720
   67SOL    HW2  201   2.388   0.052   2.120  0.6296  2.6407  1.3461
   68SOL     OW  202   0.850   0.791   1.462 -0.0857 -0.4564 -0.0150
   68SOL    HW1  203   0.846   0.712   1.402  0.4297  3.3822  3.2707
   68SOL    HW2  204   0.762   0.842   1.466  0.7837  1.3566  0.4437
   69SOL     OW  205   1.967   2.909   0.240  0.4548 -0.6589  0.2178
   69SOL    HW1  206   1.869   2.871   0.250 -0.1942  0.8268 -0.3350
   69SOL    HW2  207   1.968   3.009   0.260 -0.6579 -0.3322 -0.4039
   70SOL     OW  208   2.557   1.013   2.915 -0.5422  1.3299 -0.0269
   70SOL    HW1  209   2.557   1.116   2.893  0.3744 -1.1235 -1.6227
   70SOL    HW2  210   2.639   0.988   2.974 -0.7905 -3.6925 -2.0314
   71SOL     OW  211   2.868   1.804   0.057 -0.2043 -0.6544 -0.4327
   71SOL    HW1  212   2.851   1.868   3.055  1.7727  0.2355 -0.8832
   71SOL    HW2  213   2.962   1.823   0.094  0.9683  1.7289 -0.0580
   72SOL     OW  214   2.990   1.940   0.603 -0.3170  0.1511 -0.5061
   72SOL    HW1  215   3.014   1.849   0.637 -1.0030 -1.0138 -1.1406
   72SOL    HW2  216   3.016   1.950   0.507  1.3837  0.4902  0.1896
   73SOL     OW  217   1.033   0.977   0.442  0.5878 -0.4181  0.4846
   73SOL    HW1  218   1.103   0.924   0.490  0.0611 -1.8465  0.6110
   73SOL    HW2  219   1.052   0.976   0.342 -0.0501  0.2651  0.2035
   74SOL     OW  220   0.266   1.835   1.935  0.5781  0.2373 -0.4676
   74SOL    HW1  221   0.273   1.926   1.988 -0.5399  0.4823  0.5061
   74SOL    HW2  222   0.361   1.806   1.919 -0.2352  4.0445 -0.8643
   75SOL     OW  223   1.648   1.344   1.623 -0.1239  0.2765 -0.8448
   75SOL    HW1  224   1.696   1.277   1.689 -1.5246 -1.7355  2.2565
   75SOL    HW2  225   1.552   1.342   1.655  0.8423  2.6661 -0.7360
   76SOL     OW  226   2.290   2.367   1.373  0.0320 -0.0178 -0.8308
   76SOL    HW1  227   2.241   2.365   1.461 -1.1484  0.4901 -0.3289
   76SOL    HW2  228   2.285   2.461   1.334 -0.5817 -2.8377 -1.9184
   77SOL     OW  229   2.812   1.347   1.807  0.0764 -0.0465 -0.3233
   77SOL    HW1  230   2.708   1.351   1.815 -1.9277  1.0801  0.7340
   77SOL    HW2  231   2.854   1.372   1.893 -1.9057  4.0268  0.2099
   78SOL     OW  232   1.445   0.260   0.528  0.3416  0.3419 -0.1875
   78SOL    HW1  233   1.389   0.311   0.600 -1.5223 -1.2176  0.8131
   78SOL    HW2  234   1.510   0.322   0.481  4.5707 -0.1924 -2.0423
   79SOL     OW  235   2.544   1.522   1.628 -0.0390  0.6025 -0.1465
   79SOL    HW1  236   2.511   1.610   1.591 -1.1937  0.3346 -0.9008
   79SOL    HW2  237   2.461   1.469   1.668 -1.7285 -1.7975  0.8822
   80SOL     OW  238   0.875   0.583   1.282 -0.0676 -0.1264  0.5469
   80SOL    HW1  239   0.774   0.565   1.292  0.1022 -0.0874  1.9582
   80SOL    HW2  240   0.928   0.496   1.273  2.6986  0.1661 -0.6956
   81SOL     OW  241   0.715   2.769   0.926  0.0031 -0.0331  0.2653
   81SOL    HW1  242   0.766   2.716   0.858 -0.3885 -3.3217 -1.0133
   81SOL    HW2  243   0.667   2.852   0.888 -1.5925  0.2119 -0.6773
   82SOL     OW  244   1.489   3.023   2.017 -0.3022 -0.0001  0.3312
   82SOL    HW1  245   1.395   3.046   2.052 -2.8429  0.0601 -0.7266
   82SOL    HW2  246   1.554   0.017   2.049  0.0687  1.6432  0.3409
   83SOL     OW  247   1.360   1.958   0.776 -0.0073  0.0852 -0.4234
   83SOL    HW1  248   1.387   1.980   0.874  1.6973  0.0037  1.1089
   83SOL    HW2  249   1.358   2.044   0.723  2.1347  0.3904 -2.1143
   84SOL     OW  250   3.045   1.571   2.936  0.1280 -0.4347  0.0204
   84SOL    HW1  251   3.014   1.508   2.863  0.7268 -1.1047 -1.4807
   84SOL    HW2  252   3.056   1.669   2.902 -0.1810  2.3251  0.6898
   85SOL     OW  253   0.474   2.222   1.138 -0.7481  0.0352 -0.7850
   85SOL    HW1  254   0.431   2.262   1.055  0.7756 -1.2962 -0.1137
   85SOL    HW2  255   0.498   2.294   1.202 -0.4659  0.1069 -2.0947
   86SOL     OW  256   2.208   2.270   1.709  0.8546  0.0388 -0.0806
   86SOL    HW1  257   2.301   2.271   1.752 -0.7874  2.2614  1.9146
   86SOL    HW2  258   2.154   2.350   1.743 -3.4460  3.0372 -1.8884
   87SOL     OW  259   2.866   2.057   0.834  0.1218  0.5731 -0.4694
   87SOL    HW1  260   2.792   2.115   0.810 -0.7837 -0.0719  0.7550
   87SOL    HW2  261   2.912   2.019   0.748 -4.3241 -2.5239  1.0451
   88SOL     OW  262   0.820   0.941   1.134  0.2687  0.3078  0.5336
   88SOL    HW1  263   0.873   0.971   1.055 -2.9781  1.2735  0.5313
   88SOL    HW2  264   0.815   1.002   1.213  1.8762 -0.2808 -1.8791
   89SOL     OW  265   1.003   0.100   2.165 -0.1537  0.4661 -0.2826
   89SOL    HW1  266   0.947   0.149   2.235 -1.3606 -0.3947 -0.8411
   89SOL    HW2  267   0.943   0.052   2.100  2.1840  1.8269 -0.7526
   90SOL     OW  268   0.071   2.088   1.481  0.0470 -0.0646 -0.0164
   90SOL    HW1  269   0.117   1.996   1.491 -0.0946 -1.0062  2.0958
   90SOL    HW2  270   0.120   2.164   1.532  2.9178 -0.3535 -0.7011
   91SOL     OW  271   1.552   2.283   1.341  0.0652 -0.1633 -0.3133
   91SOL    HW1  272   1.548   2.228   1.427  0.4498 -2.5328  0.4911
   91SOL    HW2  273   1.642   2.267   1.288  1.5232  5.9071  1.9483
   92SOL     OW  274   2.731   2.961   1.465 -0.1192  0.1291 -0.5878
   92SOL    HW1  275   2.781   3.022   1.400  1.2973  0.6710  0.2284
   92SOL    HW2  276   2.773   2.963   1.556 -1.9546  0.4579  1.6716
   93SOL     OW  277   0.159   1.218   2.615 -0.0979 -0.0164  0.1694
   93SOL    HW1  278   0.181   1.157   2.693  1.0424  0.3374 -0.5384
   93SOL    HW2  279   0.061   1.216   2.598 -2.0851  2.4824 -0.7881
   94SOL     OW  280   2.692   2.380   1.939 -0.0552 -0.1843 -0.0380
   94SOL    HW1  281   2.695   2.357   2.036 -1.8384 -2.5209 -0.6451
   94SOL    HW2  282   2.710   2.478   1.920 -2.3786  0.4942  0.1671
   95SOL     OW  283   1.305   0.691   2.170  0.3318  0.4788 -0.1358
   95SOL    HW1  284   1.250   0.741   2.243  1.7478  2.6746  1.9184
   95SOL    HW2  285   1.400   0.677   2.205 -1.3959 -2.8075  0.3170
   96SOL     OW  286   2.613   0.568   1.677  0.5523 -0.2185  0.6294
   96SOL    HW1  287   2.600   0.483   1.627  1.5016  1.9878  1.4516
   96SOL    HW2  288   2.550   0.571   1.753  0.2247 -3.1491 -1.4756
   97SOL     OW  289   1.851   0.475   1.785  0.2423  0.2751  0.3242
   97SOL    HW1  290   1.773   0.475   1.854 -2.9792 -1.7135  0.6650
   97SOL    HW2  291   1.810   0.479   1.693  0.6441  0.4693 -1.5552
   98SOL     OW  292   1.987   2.573   1.293  0.3112  0.1842  0.4305
   98SOL    HW1  293   2.011   2.666   1.289  0.9013 -2.5469  0.6518
   98SOL    HW2  294   1.976   2.537   1.390  1.7002  0.1699  2.3125
   99SOL     OW  295   2.594   0.384   2.034  0.3002  0.2420  0.0892
   99SOL    HW1  296   2.629   0.345   2.122 -0.7362  1.7529 -1.2147
   99SOL    HW2  297   2.667   0.396   1.968 -4.6033 -0.1918 -0.0578
  100SOL     OW  298   2.304   1.454   1.733 -0.1718 -0.2478 -0.8820
  100SOL    HW1  299   2.320   1.354   1.738  1.2830 -0.9827 -1.1876
  100SOL    HW2  300   2.297   1.498   1.827  0.7375 -1.2906  0.5216
  101SOL     OW  301   1.607   0.087   0.888 -0.4198 -0.3550 -0.0207
  101SOL    HW1  302   1.599   0.115   0.982 -2.1672 -1.5307 -2.5173
  101SOL    HW2  303   1.694   0.037   0.871 -0.7267 -0.6959  0.1024
  102SOL     OW  304   0.608   0.751   1.138 -0.4322  0.0411  1.0323
  102SOL    HW1  305   0.602   0.693   1.220 -3.3675  1.9697  0.3861
  102SOL    HW2  306   0.672   0.828   1.151  0.8171  1.6924 -3.3972
  103SOL     OW  307   2.658   0.396   3.013 -0.2287 -0.1097  0.0837
  103SOL    HW1  308   2.720   0.327   2.965 -2.3196 -1.2232  1.6422
  103SOL    HW2  309   2.689   0.406   0.032 -1.1387 -1.1901 -0.6691
  104SOL     OW  310   2.753   0.163   1.663  0.7486 -0.2525  0.0992
  104SOL    HW1  311   2.795   0.075   1.702  0.0901 -1.4714 -1.4600
  104SOL    HW2  312   2.825   0.229   1.650 -4.9331 -0.7092 -0.4929
  105SOL     OW  313   1.815   0.919   1.990  0.2065 -0.4545  0.1286
  105SOL    HW1  314   1.753   0.850   2.034  0.3735  0.9621  1.8152
  105SOL    HW2  315   1.871   0.968   2.060 -2.0609  0.8027  2.3278
  106SOL     OW  316   1.859   3.064   0.820 -0.6832  0.3129 -0.5702
  106SOL    HW1  317   1.914   3.032   0.901 -1.5449 -0.3307  0.3567
  106SOL    HW2  318   1.922   0.029   0.757  0.1112  1.8901 -0.2905
  107SOL     OW  319   0.735   1.089   0.781 -0.1509  0.9390  0.4073
  107SOL    HW1  320   0.684   1.181   0.790  0.3532  0.3197  1.1765
  107SOL    HW2  321   0.674   1.015   0.826 -0.4453 -1.0354  2.8034
  108SOL     OW  322   2.741   0.301   2.243 -0.6599  0.5623  0.3217
  108SOL    HW1  323   2.806   0.232   2.278  1.5399  0.3862  0.6316
  108SOL    HW2  324   2.679   0.325   2.316  2.1447 -1.8368 -1.1043
  109SOL     OW  325   1.785   0.455   0.239 -0.2880 -0.0766 -0.4727
  109SOL    HW1  326   1.714   0.501   0.176 -2.2548  1.5256 -2.5203
  109SOL    HW2  327   1.846   0.389   0.189  0.8696  1.2601  2.0323
  110SOL     OW  328   2.992   2.248   2.900  0.0291  0.0025 -0.4265
  110SOL    HW1  329   2.924   2.304   2.849 -0.9416  0.4836 -1.7393
  110SOL    HW2  330   3.034   2.310   2.971  1.3859  1.1789  1.6431
  111SOL     OW  331   2.112   0.279   2.051  0.1872  0.0789 -0.4274
  111SOL    HW1  332   2.113   0.382   2.070  0.4051  3.4614  2.2180
  111SOL    HW2  333   2.074   0.235   2.133  3.3539  0.0686 -0.0897
  112SOL     OW  334   2.463   2.986   0.599 -0.1377 -0.1471  0.1067
  112SOL    HW1  335   2.431   0.006   0.583 -0.5628  3.6224  0.1964
  112SOL    HW2  336   2.396   2.916   0.568  1.9450 -0.8096  1.2228
  113SOL     OW  337   2.451   1.761   1.562  0.2049 -0.3240  0.0887
  113SOL    HW1  338   2.468   1.796   1.468 -2.2962  0.6806 -1.1011
  113SOL    HW2  339   2.497   1.820   1.630 -1.8786  0.5040 -1.0225
  114SOL     OW  340   2.797   0.599   0.726  0.3781 -0.2144 -0.0355
  114SOL    HW1  341   2.802   0.675   0.653 -0.1345  1.1301 -0.4943
  114SOL    HW2  342   2.869   0.531   0.712 -0.1147 -3.6016 -0.6216
  115SOL     OW  343   2.725   1.795   0.297  0.3385 -0.5723  0.0856
  115SOL    HW1  344   2.770   1.726   0.354  1.1495  0.4714 -0.5483
  115SOL    HW2  345   2.771   1.806   0.207 -1.0664 -1.0581 -0.0279
  116SOL     OW  346   0.069   1.499   1.956  0.1763 -0.4412 -0.1856
  116SOL    HW1  347   3.076   1.449   2.015 -1.0864  0.7168  2.7464
  116SOL    HW2  348   0.106   1.440   1.881  2.3818 -2.3544  0.2931
  117SOL     OW  349   2.699   0.021   0.532  0.1049 -0.1571  0.4189
  117SOL    HW1  350   2.624   3.037   0.569 -0.1610 -0.1204  1.8952
  117SOL    HW2  351   2.675   0.063   0.437 -0.7725  0.0015  2.3273
  118SOL     OW  352   0.491   2.393   1.750 -0.1170  0.1203  0.3717
  118SOL    HW1  353   0.578   2.359   1.782 -1.2767  1.0553 -0.3980
  118SOL    HW2  354   0.499   2.476   1.689  0.9200 -0.7981  2.1722
  119SOL     OW  355   1.777   2.227   1.206  0.7366 -0.1158 -0.4700
  119SOL    HW1  356   1.874   2.224   1.229 -1.3238 -1.1242  2.5700
  119SOL    HW2  357   1.750   2.311   1.154 -0.5505 -0.8505 -0.2857
  120SOL     OW  358   0.385   1.677   2.393  0.7026 -0.1099  0.1950
  120SOL    HW1  359   0.417   1.613   2.464 -0.3111  3.0406 -3.9978
  120SOL    HW2  360   0.334   1.759   2.434 -1.8055  5.0671  0.7867
  121SOL     OW  361   2.742   1.470   0.976  0.5566  0.5198  0.8266
  121SOL    HW1  362   2.682   1.504   1.052  1.8719 -0.7380 -0.6197
  121SOL    HW2  363   2.724   1.370   0.957  2.2941  0.4265 -1.0245
  122SOL     OW  364   2.078   1.911   2.364  0.0146 -0.6471 -0.5520
  122SOL    HW1  365   2.004   1.938   2.297 -0.8325  2.5873 -0.0942
  122SOL    HW2  366   2.080   1.978   2.446  2.1404  2.4572  0.1733
  123SOL     OW  367   2.772   0.210   0.740  0.0611  0.0122 -0.2721
  123SOL    HW1  368   2.872   0.201   0.740 -0.0969  2.8623  0.9599
  123SOL    HW2  369   2.732   0.132   0.694  2.0723 -1.1766  3.9327
  124SOL     OW  370   1.380   1.069   2.594 -0.6112 -0.3589 -0.1302
  124SOL    HW1  371   1.312   1.077   2.520  1.3870 -1.0659  2.4302
  124SOL    HW2  372   1.388   1.161   2.635  1.0080  1.0166 -0.4575
  125SOL     OW  373   0.345   1.354   2.783  0.9811 -0.0996 -0.5430
  125SOL    HW1  374   0.366   1.302   2.865 -1.6210  1.3972 -2.5730
  125SOL    HW2  375   0.296   1.298   2.715 -1.1080 -2.2142 -1.4626
  126SOL     OW  376   2.848   2.085   0.291  0.5608  0.4921  0.1429
  126SOL    HW1  377   2.862   2.157   0.361 -0.4986 -1.7462 -1.3086
  126SOL    HW2  378   2.793   2.004   0.327 -0.3719 -1.1648  1.5658
  127SOL     OW  379   0.737   1.656   0.850  0.2332  0.3297  0.6297
  127SOL    HW1  380   0.663   1.706   0.895 -0.9041  2.8640  0.7346
  127SOL    HW2  381   0.728   1.670   0.749  1.4850 -0.0959  0.8606
  128SOL     OW  382   1.424   0.813   2.956  0.0057 -0.6561  0.0207
  128SOL    HW1  383   1.484   0.811   3.042  0.4273 -1.5897 -1.2869
  128SOL    HW2  384   1.465   0.875   2.884  0.8125  4.1379 -1.4451
  129SOL     OW  385   2.259   1.744   1.194 -0.0724 -0.1486  0.6728
  129SOL    HW1  386   2.331   1.781   1.251  0.4344 -0.9434  0.9894
  129SOL    HW2  387   2.201   1.813   1.147  2.3390  0.5447 -2.2142
  130SOL     OW  388   1.753   1.258   0.498 -0.5830 -0.3463  0.3500
  130SOL    HW1  389   1.753   1.344   0.443 -0.3921 -0.0675  0.5621
  130SOL    HW2  390   1.777   1.285   0.592 -1.3865  0.0156  1.5513
  131SOL     OW  391   2.967   1.140   2.591 -0.1602  0.4866  0.0941
  131SOL    HW1  392   2.960   1.047   2.634  0.1597 -3.6929  0.2639
  131SOL    HW2  393   2.889   1.197   2.613  1.5738 -2.8109  1.5657
  132SOL     OW  394   2.085   1.452   1.559  0.2533  0.3278 -0.4506
  132SOL    HW1  395   2.102   1.492   1.464 -4.2161  0.1385 -1.3186
  132SOL    HW2  396   2.161   1.463   1.625 -1.2481 -1.2146  0.5161
  133SOL     OW  397   0.158   1.391   0.044 -0.5210 -0.3076 -0.6481
  133SOL    HW1  398   0.114   1.464   3.066 -1.0199  0.6641 -0.4737
  133SOL    HW2  399   0.150   1.296   0.012  0.2829 -1.2099  1.0531
  134SOL     OW  400   2.941   1.548   0.116 -0.1253 -0.3973  0.1238
  134SOL    HW1  401   2.992   1.523   0.033  1.0975 -1.2655  0.9007
  134SOL    HW2  402   2.893   1.633   0.109  0.3586 -4.2009 -0.0668
  135SOL     OW  403   2.406   1.163   0.349  0.5364  0.0635  0.6584
  135SOL    HW1  404   2.333   1.201   0.290  0.6152  0.0720  1.1196
  135SOL    HW2  405   2.475   1.236   0.366 -1.7960  0.4299  0.7811
  136SOL     OW  406   1.874   1.248   1.290  0.3339  0.1231 -0.2944
  136SOL    HW1  407   1.892   1.213   1.384  1.4385  1.7247  1.8576
  136SOL    HW2  408   1.790   1.306   1.290  0.1907 -0.8461 -1.3867
  137SOL     OW  409   2.557   2.212   0.500 -0.3318  0.0714 -0.1339
  137SOL    HW1  410   2.460   2.184   0.483  1.9165  0.3776  0.4926
  137SOL    HW2  411   2.617   2.126   0.494 -2.0225 -1.0323  0.1002
  138SOL     OW  412   1.249   0.062   1.632 -0.3057 -0.2355  0.0058
  138SOL    HW1  413   1.340   0.017   1.618  0.8042 -0.1253 -1.6615
  138SOL    HW2  414   1.261   0.148   1.687  1.4901  0.0048  1.5628
  139SOL     OW  415   2.438   0.248   2.985 -0.0277  0.1003 -0.6726
  139SOL    HW1  416   2.509   0.321   2.981  2.5760  1.1045  1.7184
  139SOL    HW2  417   2.449   0.186   3.068 -0.2287 -1.1741  0.9815
  140SOL     OW  418   1.469   2.011   2.586 -0.5856 -0.2834 -0.3249
  140SOL    HW1  419   1.550   1.965   2.536  2.9880 -1.5632 -1.5200
  140SOL    HW2  420   1.380   1.961   2.564  1.8059 -0.5548 -0.8656
  141SOL     OW  421   0.868   1.099   1.732 -0.3373  0.0175 -0.3905
  141SOL    HW1  422   0.829   1.050   1.813 -1.1446 -1.0299 -1.0465
  141SOL    HW2  423   0.944   1.048   1.682  0.5967  1.1586 -1.5975
  142SOL     OW  424   2.429   2.668   0.147  0.4513  0.1055 -0.6079
  142SOL    HW1  425   2.329   2.690   0.139 -0.0833 -1.1724 -0.0898
  142SOL    HW2  426   2.472   2.700   0.058 -0.2756 -0.2115  0.6967
  143SOL     OW  427   0.828   2.005   3.056 -0.2232 -0.2877 -0.3985
  143SOL    HW1  428   0.836   2.066   2.974 -0.0184  0.8630 -2.6760
  143SOL    HW2  429   0.762   2.055   0.038  1.7073 -1.2749  0.0452
  144SOL     OW  430   1.013   2.585   0.217 -0.4475  0.1800  0.4321
  144SOL    HW1  431   1.030   2.570   0.122 -0.3373  0.5511  1.5914
  144SOL    HW2  432   1.008   2.495   0.270  1.2495 -1.5315  2.1452
  145SOL     OW  433   2.333   1.796   0.023  0.3517 -0.4561  0.0669
  145SOL    HW1  434   2.361   1.846   0.105 -0.7634 -1.4578 -0.0932
  145SOL    HW2  435   2.248   1.836   3.068  2.3703 -0.3697  2.4747
  146SOL     OW  436   2.517   2.737   2.967 -0.2098  0.0272  0.0807
  146SOL    HW1  437   2.515   2.804   2.892  0.4509 -0.4599  0.8185
  146SOL    HW2  438   2.548   2.649   2.932  2.1728 -0.9786  0.1155
  147SOL     OW  439   2.820   1.950   1.328 -0.2574 -0.0683 -0.0075
  147SOL    HW1  440   2.815   2.015   1.251  1.0426 -0.1184  2.0503
  147SOL    HW2  441   2.885   1.873   1.317 -0.8904 -1.3183 -1.9357
  148SOL     OW  442   1.860   0.093   3.033 -0.1037 -0.0184 -0.4573
  148SOL    HW1  443   1.812   0.036   2.968  0.5711  0.6352  0.6533
  148SOL    HW2  444   1.796   0.116   0.031 -0.1000 -1.7934  2.3707
  149SOL     OW  445   1.116   1.423   2.618  1.0364  0.3175 -0.2702
  149SOL    HW1  446   1.168   1.488   2.673  1.4276 -1.0090 -0.4862
  149SOL    HW2  447   1.062   1.354   2.676 -1.5292 -0.3019  1.3041
  150SOL     OW  448   0.697   2.194   0.670  0.4411 -0.0214  0.5105
  150SOL    HW1  449   0.722   2.266   0.741  2.1636  1.9497  2.3908
  150SOL    HW2  450   0.752   2.109   0.682  1.7075 -0.4087  1.5279
  151SOL     OW  451   0.701   1.755   2.841  0.4375  0.0327 -0.0864
  151SOL    HW1  452   0.683   1.656   2.863  1.3237  0.8636 -0.1813
  151SOL    HW2  453   0.762   1.792   2.913  0.9184 -0.4681  0.2774
  152SOL     OW  454   2.573   1.358   0.470 -0.1793 -0.3802 -0.4336
  152SOL    HW1  455   2.585   1.445   0.416 -2.1451 -1.7486 -2.4470
  152SOL    HW2  456   2.631   1.350   0.555 -0.4252 -2.2315 -0.0750
  153SOL     OW  457   2.115   2.575   0.568  0.4582  0.2095  0.4980
  153SOL    HW1  458   2.131   2.553   0.470  1.0286  1.4332  1.0744
  153SOL    HW2  459   2.018   2.562   0.594  2.6448 -0.3987  1.5130
  154SOL     OW  460   0.724   3.013   0.603  0.7668 -0.2790  0.8890
  154SOL    HW1  461   0.804   3.010   0.666  1.1951 -0.4121 -0.5915
  154SOL    HW2  462   0.737   2.969   0.510 -0.4222 -0.2933 -1.1944
  155SOL     OW  463   0.433   2.106   0.744 -0.5164  0.3535 -0.2208
  155SOL    HW1  464   0.525   2.118   0.705 -3.7439  0.6358 -0.1145
  155SOL    HW2  465   0.408   2.170   0.820 -0.7906 -0.4542  2.5088
  156SOL     OW  466   2.494   2.349   0.140 -0.8907 -0.2007 -0.3035
  156SOL    HW1  467   2.535   2.384   0.056  1.4573  1.2327  0.0256
  156SOL    HW2  468   2.554   2.364   0.220  0.8274 -0.1871 -1.0216
  157SOL     OW  469   1.172   2.055   1.406 -0.4708  0.1057 -0.3402
  157SOL    HW1  470   1.081   2.067   1.439  0.9185 -1.6542 -0.7214
  157SOL    HW2  471   1.195   1.956   1.400 -0.3603  0.6138 -2.9381
  158SOL     OW  472   1.636   0.595   0.059 -0.0212 -0.0009  0.0404
  158SOL    HW1  473   1.617   0.511   0.007  1.4026  2.9362  0.5374
  158SOL    HW2  474   1.699   0.661   0.014  0.2817  3.6907  1.9164
  159SOL     OW  475   0.966   0.335   2.969 -0.0900  0.0782 -0.1567
  159SOL    HW1  476   0.991   0.435   2.965 -0.3682  3.4365 -1.4854
  159SOL    HW2  477   1.048   0.275   2.997 -1.0321 -0.8193  0.6161
  160SOL     OW  478   1.322   1.515   0.007  0.0215 -0.0865 -0.2108
  160SOL    HW1  479   1.265   1.565   0.071  3.0482 -0.5279  1.8595
  160SOL    HW2  480   1.362   1.431   0.048  0.4490 -0.4115 -1.0013
  161SOL     OW  481   0.036   2.087   2.715 -0.2068  0.3675 -0.0444
  161SOL    HW1  482   3.075   2.160   2.773  3.2379  1.3780  0.7217
  161SOL    HW2  483   0.135   2.096   2.717 -0.0691 -3.0844 -0.7490
  162SOL     OW  484   0.576   2.547   1.010  0.2126  0.4349 -0.1288
  162SOL    HW1  485   0.610   2.641   1.007 -1.5618 -0.8880 -1.6603
  162SOL    HW2  486   0.481   2.541   1.045  0.3556  1.7581  0.6798
  163SOL     OW  487   2.810   1.032   3.053  0.1803  0.3799  0.7545
  163SOL    HW1  488   2.861   0.952   3.011  0.8604  0.4009  0.8349
  163SOL    HW2  489   2.789   1.020   0.075 -0.2706  0.3506  2.0269
  164SOL     OW  490   0.264   0.074   2.782 -0.4678 -0.5533  0.1754
  164SOL    HW1  491   0.195   0.000   2.802 -0.3837 -2.9779 -0.1664
  164SOL    HW2  492   0.357   0.038   2.799  1.1568 -1.9933 -1.1515
  165SOL     OW  493   1.882   0.282   1.528 -0.0662 -0.6413  0.3455
  165SOL    HW1  494   1.942   0.242   1.597  1.0145 -0.6905 -0.7176
  165SOL    HW2  495   1.917   0.373   1.495  0.2138  0.8029  0.9813
  166SOL     OW  496   2.072   3.071   1.355  0.3211 -0.6796 -0.4242
  166SOL    HW1  497   1.976   3.035   1.345 -2.1480  0.4678 -0.5009
  166SOL    HW2  498   2.070   0.060   1.437  1.1811  3.4224  3.3800
  167SOL     OW  499   0.960   0.430   1.916  0.4205  0.0917 -0.2060
  167SOL    HW1  500   0.977   0.381   2.004 -0.7019  1.6915  0.2144
  167SOL    HW2  501   1.023   0.508   1.911 -0.5838 -1.6879 -2.5406
  168SOL     OW  502   2.436   0.537   1.862  0.1444 -0.4049  0.5598
  168SOL    HW1  503   2.471   0.486   1.941  0.4164  0.0734 -1.8223
  168SOL    HW2  504   2.391   0.473   1.791  1.0413  1.1958 -1.3982
  169SOL     OW  505   0.359   1.355   0.234  0.2177  0.0969  0.5747
  169SOL    HW1  506   0.291   1.411   0.182  0.5055 -1.7097  0.8126
  169SOL    HW2  507   0.326   1.256   0.246 -1.2845 -0.8484  1.5613
  170SOL     OW  508   0.179   1.503   1.474 -0.1740 -0.0707  0.3635
  170SOL    HW1  509   0.164   1.481   1.576  2.2040 -0.2888  1.4061
  170SOL    HW2  510   0.120   1.579   1.443 -0.0835  2.0301 -1.2444
  171SOL     OW  511   1.025   2.471   2.407  0.1951 -0.6192 -0.5043
  171SOL    HW1  512   0.942   2.464   2.460 -1.1262 -0.1738 -3.7008
  171SOL    HW2  513   1.088   2.393   2.412  1.9515 -0.5487  0.0153
  172SOL     OW  514   0.548   2.634   1.649 -0.2705  0.2489  0.3413
  172SOL    HW1  515   0.649   2.621   1.636 -1.5642 -1.9521  0.3462
  172SOL    HW2  516   0.521   2.716   1.595  1.5506 -0.0098 -1.3123
  173SOL     OW  517   1.513   2.457   0.971 -0.1277  0.0028  0.2287
  173SOL    HW1  518   1.590   2.468   1.034  0.9970  0.8405  0.6733
  173SOL    HW2  519   1.425   2.451   1.024  0.3871  0.6761 -0.8899
  174SOL     OW  520   1.166   3.057   0.549  0.2646  0.1850  0.1767
  174SOL    HW1  521   1.252   0.014   0.599  0.7281  0.8025  1.3034
  174SOL    HW2  522   1.176   2.956   0.541  0.5715  0.3125  1.2989
  175SOL     OW  523   1.106   1.292   0.178  0.2491 -0.1790  0.0568
  175SOL    HW1  524   1.104   1.394   0.190  1.2736  0.2571  1.7059
  175SOL    HW2  525   1.172   1.257   0.246 -0.9406 -2.0420  0.6704
  176SOL     OW  526   1.568   0.479   0.398  0.2069 -0.4622 -0.2627
  176SOL    HW1  527   1.496   0.553   0.393 -1.2312  2.1982 -0.8488
  176SOL    HW2  528   1.636   0.482   0.319  1.8625 -1.5724 -1.6034
  177SOL     OW  529   1.214   0.700   1.031 -0.2634  0.1400 -0.0416
  177SOL    HW1  530   1.112   0.696   1.015 -0.9409 -0.5606  3.9577
  177SOL    HW2  531   1.237   0.795   1.058  0.9008 -4.3385 -1.9645
  178SOL     OW  532   2.546   1.829   2.872 -0.1885 -0.3008 -0.1376
  178SOL    HW1  533   2.539   1.901   2.942  2.3205 -2.4483 -0.2441
  178SOL    HW2  534   2.561   1.739   2.919  1.0029 -3.1337  1.5299
  179SOL     OW  535   0.553   2.498   2.980  0.7216 -0.1253 -0.2435
  179SOL    HW1  536   0.562   2.565   2.904  2.1893  0.2906 -2.1512
  179SOL    HW2  537   0.622   2.523   3.052  1.7327  1.9646 -0.8771
  180SOL     OW  538   1.832   1.536   1.659  0.0309 -0.1770  0.4208
  180SOL    HW1  539   1.910   1.503   1.603 -0.8841  0.9596  0.9079
  180SOL    HW2  540   1.749   1.479   1.640 -0.1520  3.6350  0.4406
  181SOL     OW  541   1.344   1.254   2.213 -0.3760 -0.7202  0.2936
  181SOL    HW1  542   1.259   1.244   2.158  0.3210  0.7167  2.8989
  181SOL    HW2  543   1.382   1.348   2.205 -0.4900  0.4034  2.1960
  182SOL     OW  544   0.216   0.955   2.364 -0.5144  0.7385  0.2784
  182SOL    HW1  545   0.240   1.054   2.376 -2.5256  0.5562 -0.0870
  182SOL    HW2  546   0.132   0.925   2.413 -1.4235  1.0218  0.6680
  183SOL     OW  547   1.538   0.444   2.419 -0.5191 -0.5149 -0.1240
  183SOL    HW1  548   1.443   0.435   2.456  0.2181 -0.3320  2.9153
  183SOL    HW2  549   1.597   0.466   2.498 -0.6203  3.3221  1.4758
  184SOL     OW  550   0.254   0.567   1.407 -0.3611  0.4144  0.4045
  184SOL    HW1  551   0.294   0.496   1.350 -1.0241  1.1199  0.5148
  184SOL    HW2  552   0.175   0.613   1.364  1.5077  2.6484  1.0967
  185SOL     OW  553   2.366   1.656   0.964  0.3748 -0.2660  0.3200
  185SOL    HW1  554   2.330   1.677   1.057  0.6745  0.9715 -2.4041
  185SOL    HW2  555   2.459   1.700   0.948 -0.1431  0.7227  0.1642
  186SOL     OW  556   0.637   1.774   2.583  0.0363  0.3812 -0.1693
  186SOL    HW1  557   0.594   1.684   2.557 -1.1952 -0.8212  0.2124
  186SOL    HW2  558   0.637   1.787   2.682 -1.5402  1.9676  0.1166
  187SOL     OW  559   2.511   2.065   3.055 -0.3698  0.7722 -0.0878
  187SOL    HW1  560   2.594   2.118   0.008  1.3594 -1.8006  0.6435
  187SOL    HW2  561   2.491   2.004   0.057  0.6856 -0.2598  0.0435
  188SOL     OW  562   0.511   2.335   0.558  0.0330  0.4381 -0.3359
  188SOL    HW1  563   0.587   2.278   0.596 -1.4630  2.0891 -0.0329
  188SOL    HW2  564   0.498   2.312   0.457 -0.5565 -0.6860  0.8415
  189SOL     OW  565   2.265   0.778   2.850  0.5400 -0.4084 -0.7994
  189SOL    HW1  566   2.283   0.815   2.943  1.0779 -2.2329  0.0782
  189SOL    HW2  567   2.233   0.858   2.799  1.1071  0.5499 -0.4482
  190SOL     OW  568   1.008   2.013   1.981  0.2330 -0.0452  0.0200
  190SOL    HW1  569   0.944   2.085   1.997  1.9127 -0.1688  2.2380
  190SOL    HW2  570   1.048   2.027   1.885  2.3254  0.9362  0.9316
  191SOL     OW  571   2.181   0.804   1.293  0.0052 -0.1288 -0.2329
  191SOL    HW1  572   2.190   0.723   1.349 -0.2024  0.5964 -1.0564
  191SOL    HW2  573   2.107   0.786   1.227 -0.5467 -0.5381  0.2044
  192SOL     OW  574   1.994   0.248   1.825  0.0122  0.2086  0.2750
  192SOL    HW1  575   1.947   0.332   1.800  2.0895 -1.3408  0.3939
  192SOL    HW2  576   2.049   0.260   1.910 -1.0344  0.7862 -1.7892
  193SOL     OW  577   0.065   0.600   0.827 -0.0043  0.1231  0.3163
  193SOL    HW1  578   0.060   0.579   0.926  0.1058 -0.7376 -1.9555
  193SOL    HW2  579   0.162   0.580   0.793 -0.9643  1.4398 -1.1882
  194SOL     OW  580   1.688   2.515   1.695 -0.0318 -0.1996  0.1887
  194SOL    HW1  581   1.653   2.504   1.600 -1.4433  1.4745  1.7795
  194SOL    HW2  582   1.787   2.545   1.686  0.2089 -2.6004 -2.4750
  195SOL     OW  583   2.528   0.650   0.811  0.2773 -0.5157 -0.0376
  195SOL    HW1  584   2.451   0.581   0.800 -1.2189  0.9346 -0.9423
  195SOL    HW2  585   2.619   0.607   0.778 -0.9239 -2.7620 -1.8014
  196SOL     OW  586   1.076   2.097   1.733  0.3431  0.2693 -0.0891
  196SOL    HW1  587   1.105   2.192   1.730 -2.8528 -0.6739 -0.3733
  196SOL    HW2  588   1.156   2.040   1.713 -1.7245  1.3692  0.5433
  197SOL     OW  589   0.184   0.186   2.513 -0.1013 -0.1412 -0.1310
  197SOL    HW1  590   0.208   0.159   2.608 -0.1315  0.2481  2.8753
  197SOL    HW2  591   0.187   0.289   2.509  1.1578 -0.7584  0.2508
  198SOL     OW  592   1.175   0.813   0.668  0.7639  0.7569 -0.2591
  198SOL    HW1  593   1.251   0.752   0.682 -0.6304  0.5193 -0.1826
  198SOL    HW2  594   1.087   0.756   0.679 -0.8824  2.2494  2.7674
  199SOL     OW  595   2.629   0.907   1.824 -0.5340  0.3028 -0.0675
  199SOL    HW1  596   2.666   0.867   1.738 -1.9661  0.8834 -0.8104
  199SOL    HW2  597   2.560   0.976   1.800 -0.9010 -1.4883 -1.6150
  200SOL     OW  598   2.323   2.766   2.270  0.2843 -0.0000  0.5232
  200SOL    HW1  599   2.396   2.778   2.197  0.9612 -0.3338 -0.8691
  200SOL    HW2  600   2.241   2.710   2.236 -3.5115 -1.3807  2.0835
  201SOL     OW  601   2.563   0.347   1.551 -0.0205  0.0352 -0.4966
  201SOL    HW1  602   2.626   0.268   1.569  0.2779  1.4488  2.5111
  201SOL    HW2  603   2.507   0.332   1.467  0.7603  1.7285 -1.6504
  202SOL     OW  604   2.245   3.071   0.213 -0.4343  0.0141 -0.1054
  202SOL    HW1  605   2.160   0.033   0.250 -1.9743 -1.8866 -0.6858
  202SOL    HW2  606   2.219   2.974   0.200  1.3998 -0.1825 -0.9616
  203SOL     OW  607   1.191   2.234   2.369 -0.1355  0.7278  0.4144
  203SOL    HW1  608   1.115   2.167   2.384  1.1260 -0.4621  1.9209
  203SOL    HW2  609   1.241   2.255   2.455  1.5964 -0.6671  0.5395
  204SOL     OW  610   0.999   1.526   2.405  0.0490 -0.6786  0.2734
  204SOL    HW1  611   1.020   1.478   2.490  1.3508  3.3635 -4.2284
  204SOL    HW2  612   0.988   1.455   2.328  1.0583 -0.1877 -1.1126
  205SOL     OW  613   1.086   1.248   1.317  0.2645  0.1597 -0.0242
  205SOL    HW1  614   1.166   1.265   1.258 -1.6008  1.6633 -0.6325
  205SOL    HW2  615   1.069   1.151   1.337  0.5629 -0.7162  1.1131
  206SOL     OW  616   0.364   0.478   2.687  0.2740  0.1728 -0.0203
  206SOL    HW1  617   0.297   0.489   2.606 -3.3897 -1.1544 -0.0995
  206SOL    HW2  618   0.315   0.439   2.768  0.2445  1.6346 -1.0404
  207SOL     OW  619   1.711   2.661   2.395 -0.1950 -0.2592 -0.0720
  207SOL    HW1  620   1.766   2.737   2.361  1.4112  1.1770 -0.0540
  207SOL    HW2  621   1.626   2.654   2.339 -1.1419 -1.1481  3.0279
  208SOL     OW  622   0.811   2.310   1.296 -0.3789  0.3340 -0.0879
  208SOL    HW1  623   0.873   2.387   1.325  1.8629  0.8451 -1.5548
  208SOL    HW2  624   0.837   2.281   1.203  0.1158 -1.3853 -1.3412
  209SOL     OW  625   1.221   1.109   2.401 -0.0555  0.8354 -0.4107
  209SOL    HW1  626   1.282   1.162   2.337 -3.4142  1.7567  0.8643
  209SOL    HW2  627   1.133   1.159   2.412 -0.9258  1.3604  0.1471
  210SOL     OW  628   1.847   1.081   0.808 -0.7111 -0.0165  0.6690
  210SOL    HW1  629   1.883   1.087   0.905  0.1664 -0.3995  0.7861
  210SOL    HW2  630   1.793   0.995   0.805 -0.4819  0.4832  0.8219
  211SOL     OW  631   0.796   2.530   0.521 -0.0818 -0.8685 -0.6971
  211SOL    HW1  632   0.700   2.525   0.493 -2.0766 -1.9682  1.1983
  211SOL    HW2  633   0.850   2.470   0.464 -1.1332  0.1861  0.6732
  212SOL     OW  634   1.917   1.879   0.240  0.3637  0.2573 -0.1396
  212SOL    HW1  635   1.817   1.858   0.237 -1.4709 -2.1865 -2.0507
  212SOL    HW2  636   1.942   1.944   0.312 -1.1821 -1.8775 -1.4554
  213SOL     OW  637   1.652   0.284   2.748 -0.3773  0.2263 -0.5301
  213SOL    HW1  638   1.632   0.315   2.842  0.4695  0.6089 -1.0972
  213SOL    HW2  639   1.742   0.242   2.737 -0.0595  2.2588  0.1599
  214SOL     OW  640   1.147   1.597   2.006 -0.0158 -0.5169  0.0266
  214SOL    HW1  641   1.140   1.620   1.907 -2.8784 -1.2371  2.1881
  214SOL    HW2  642   1.058   1.625   2.052  0.8285  1.3048 -1.7247
  215SOL     OW  643   0.864   1.766   0.308 -0.3095 -0.0763  0.2408
  215SOL    HW1  644   0.895   1.767   0.213  1.9204  0.5052  1.3822
  215SOL    HW2  645   0.811   1.681   0.319  2.1851 -0.7584  3.1499
  216SOL     OW  646   0.259   2.721   2.626 -0.7944 -0.1596  0.2742
  216SOL    HW1  647   0.241   2.645   2.693  2.4860 -1.0748  2.0464
  216SOL    HW2  648   0.221   2.705   2.533 -0.6386 -0.4027 -1.3477
  217SOL     OW  649   2.434   0.760   1.038 -0.4665 -0.7052  0.1010
  217SOL    HW1  650   2.493   0.731   0.959  0.3926 -0.0930 -0.0619
  217SOL    HW2  651   2.352   0.703   1.033  2.6734  2.5815  0.8090
  218SOL     OW  652   2.077   1.599   2.120 -0.5166 -0.8738 -0.1177
  218SOL    HW1  653   2.101   1.585   2.218  2.8048  2.9724  1.4180
  218SOL    HW2  654   2.141   1.672   2.097 -1.7666  0.2309  1.2180
  219SOL     OW  655   2.000   1.603   0.225 -0.5589 -0.3641 -0.4638
  219SOL    HW1  656   1.982   1.576   0.127  1.1260 -3.0570  0.0427
  219SOL    HW2  657   1.975   1.701   0.252 -1.6772  1.8530 -1.6294
  220SOL     OW  658   1.526   1.093   0.516  0.0091  0.3970 -0.0542
  220SOL    HW1  659   1.467   1.119   0.590 -1.4759  5.2261 -0.8292
  220SOL    HW2  660   1.608   1.154   0.510  0.3424 -1.4140  0.8803
  221SOL     OW  661   0.582   0.580   2.829  0.2389  0.0345  0.6905
  221SOL    HW1  662   0.559   0.590   2.931 -1.0125  0.3033  2.7100
  221SOL    HW2  663   0.501   0.539   2.781 -1.2799  1.5502  0.4707
  222SOL     OW  664   1.431   1.287   0.141  0.7952  0.3033 -0.4999
  222SOL    HW1  665   1.484   1.331   0.214 -0.6642  2.6290  0.6148
  222SOL    HW2  666   1.368   1.223   0.181 -0.7667  0.0360 -1.3644
  223SOL     OW  667   1.115   0.078   0.191  0.4250  0.0220  0.0512
  223SOL    HW1  668   1.035   0.046   0.245 -0.9967  1.0089  0.5363
  223SOL    HW2  669   1.193   0.108   0.254  0.7559 -2.3213  1.0840
  224SOL     OW  670   2.156   0.130   1.601  0.5583  0.3805  0.3380
  224SOL    HW1  671   2.110   0.143   1.691 -0.3071 -1.0868  4.2854
  224SOL    HW2  672   2.217   0.051   1.604 -1.3765  2.6528 -0.5477
  225SOL     OW  673   0.402   2.844   0.993  0.2708 -0.4566 -0.2240
  225SOL    HW1  674   0.304   2.865   0.992  1.7532 -3.0065  3.0131
  225SOL    HW2  675   0.453   2.874   0.909  0.8036 -1.4617  0.7744
  226SOL     OW  676   1.272   1.537   2.832  0.4147  0.3880 -0.3224
  226SOL    HW1  677   1.323   1.614   2.800 -1.3615 -0.6906  0.1678
  226SOL    HW2  678   1.292   1.525   2.934  2.4164  0.2961  0.1358
  227SOL     OW  679   1.230   1.529   0.901 -0.7632 -0.1483  0.2455
  227SOL    HW1  680   1.190   1.618   0.885  0.0246 -0.7155  0.8105
  227SOL    HW2  681   1.307   1.517   0.837  0.1261 -0.2954 -1.8120
  228SOL     OW  682   0.481   1.658   0.560 -0.8133  1.0538  0.0690
  228SOL    HW1  683   0.499   1.562   0.531 -2.3418 -1.7406 -1.1499
  228SOL    HW2  684   0.407   1.673   0.627 -0.4091 -2.7205  0.3886
  229SOL     OW  685   1.363   0.382   2.951  0.0808 -0.2465 -0.0811
  229SOL    HW1  686   1.321   0.473   2.939 -1.3450 -2.7395 -0.2547
  229SOL    HW2  687   1.292   0.314   2.976 -0.8213  2.3189  2.4313
  230SOL     OW  688   1.544   0.757   2.616  0.2984  0.6507  0.0571
  230SOL    HW1  689   1.614   0.683   2.600 -1.3467 -0.1980 -0.4441
  230SOL    HW2  690   1.580   0.831   2.676  1.1487 -0.5765  0.4295
  231SOL     OW  691   1.238   1.890   2.541 -0.2636  0.5519 -0.0213
  231SOL    HW1  692   1.190   1.868   2.628 -3.4911 -0.5016 -0.5950
  231SOL    HW2  693   1.200   1.835   2.462 -0.4497 -0.9630  0.3059
  232SOL     OW  694   2.347   2.191   0.775 -0.1467 -0.0198 -0.0373
  232SOL    HW1  695   2.340   2.295   0.760 -3.7708 -0.0047  0.4264
  232SOL    HW2  696   2.307   2.151   0.691 -1.4000  0.5474  0.5468
  233SOL     OW  697   2.501   2.655   0.408 -0.5044  0.6515  0.0159
  233SOL    HW1  698   2.477   2.673   0.310  2.2307 -0.6562 -0.6967
  233SOL    HW2  699   2.435   2.698   0.478 -2.0811  1.9527  1.6848
  234SOL     OW  700   0.758   0.629   2.630  0.0188 -0.5815 -0.4510
  234SOL    HW1  701   0.694   0.590   2.699  1.2803 -0.0152  0.5582
  234SOL    HW2  702   0.832   0.682   2.681 -1.2568  2.7104  0.4365
  235SOL     OW  703   2.841   0.443   2.590 -0.8682 -0.3440  0.1835
  235SOL    HW1  704   2.753   0.394   2.578  0.3407 -1.1256  1.7682
  235SOL    HW2  705   2.839   0.538   2.558  1.6250  2.0661  2.1080
  236SOL     OW  706   2.089   2.478   1.837 -0.0100  0.4861  0.5014
  236SOL    HW1  707   2.003   2.436   1.875 -0.4986 -1.1903 -0.3087
  236SOL    HW2  708   2.092   2.577   1.865  0.5510 -1.1220  1.8434
  237SOL     OW  709   0.681   1.642   2.077 -0.5221 -0.3064  0.0339
  237SOL    HW1  710   0.651   1.712   2.150 -1.8387  1.8902 -0.1453
  237SOL    HW2  711   0.667   1.551   2.118  0.1014  0.3992  0.9375
  238SOL     OW  712   1.492   0.070   2.671 -0.5069  0.0623 -0.1285
  238SOL    HW1  713   1.541   0.156   2.704 -0.0565  2.0138 -1.0600
  238SOL    HW2  714   1.497   0.067   2.572 -2.0100  1.8735  1.4621
  239SOL     OW  715   0.246   2.241   1.621  0.0422  0.7710 -0.0591
  239SOL    HW1  716   0.228   2.282   1.709 -0.7177 -2.0228 -2.4077
  239SOL    HW2  717   0.346   2.235   1.602  1.2765 -0.8234  2.0387
  240SOL     OW  718   2.634   2.200   0.791 -0.0563 -0.3705 -0.3146
  240SOL    HW1  719   2.645   2.229   0.695 -1.3178  2.4153  1.9894
  240SOL    HW2  720   2.536   2.217   0.821 -1.2987  0.3916 -0.3461
  241SOL     OW  721   2.543   1.028   0.854 -0.0067 -0.3363 -0.2314
  241SOL    HW1  722   2.487   1.029   0.940  0.0345  0.3940 -2.9300
  241SOL    HW2  723   2.496   1.082   0.781  0.9572 -0.1718 -0.8807
  242SOL     OW  724   2.027   2.301   2.469  0.2363 -0.0552  0.0665
  242SOL    HW1  725   2.007   2.213   2.523  0.3235 -2.4399  1.1160
  242SOL    HW2  726   2.077   2.282   2.380  0.9801  1.6513  1.7173
  243SOL     OW  727   0.835   2.574   1.643  0.5969 -0.0126 -0.4820
  243SOL    HW1  728   0.895   2.646   1.688 -1.4009  2.9581  0.6994
  243SOL    HW2  729   0.884   2.524   1.568 -1.1148  0.2795  0.3032
  244SOL     OW  730   1.976   0.191   2.795  0.0093 -0.6954  0.0235
  244SOL    HW1  731   1.934   0.154   2.880  0.2960 -0.9844  2.1579
  244SOL    HW2  732   2.040   0.128   2.753 -5.4323 -0.5598  2.9048
  245SOL     OW  733   1.228   0.057   1.355  0.0405 -0.2213 -0.4927
  245SOL    HW1  734   1.129   0.043   1.334 -0.2994 -0.5359 -2.3367
  245SOL    HW2  735   1.245   0.026   1.452  0.0113 -0.5942  0.5645
  246SOL     OW  736   1.632   2.392   0.313  0.1710  0.1187 -0.0952
  246SOL    HW1  737   1.707   2.464   0.297 -1.5275 -2.2262  1.6599
  246SOL    HW2  738   1.564   2.393   0.236  0.1426 -0.0760  0.5049
  247SOL     OW  739   1.279   0.414   2.501 -0.3354  0.0183  0.0686
  247SOL    HW1  740   1.198   0.428   2.443 -2.0686 -1.6814  0.9664
  247SOL    HW2  741   1.258   0.334   2.561 -2.1010 -0.4264  1.8119
  248SOL     OW  742   0.522   2.039   1.859  0.1208  0.4161 -0.4409
  248SOL    HW1  743   0.446   2.085   1.908 -0.0932 -1.9046 -2.1848
  248SOL    HW2  744   0.503   1.940   1.841 -1.4215  1.3627  0.8583
  249SOL     OW  745   2.194   0.265   0.402 -0.0677  0.1051  1.0035
  249SOL    HW1  746   2.264   0.296   0.331  3.0173  0.0867 -2.2640
  249SOL    HW2  747   2.127   0.194   0.364 -2.5146 -1.8136 -2.9150
  250SOL     OW  748   0.216   0.585   0.529 -0.2416 -0.0478 -0.3048
  250SOL    HW1  749   0.267   0.669   0.511 -2.5671 -0.2482 -1.2266
  250SOL    HW2  750   0.116   0.598   0.514 -1.0345  0.0581  0.2926
  251SOL     OW  751   1.248   0.614   2.901  0.2403 -0.2114 -0.6607
  251SOL    HW1  752   1.304   0.690   2.940 -0.1212 -1.2953  0.9645
  251SOL    HW2  753   1.240   0.614   2.797  2.5264  0.6125 -1.0376
  252SOL     OW  754   1.652   1.808   1.952  0.3209 -0.2410  0.0564
  252SOL    HW1  755   1.746   1.790   1.911 -2.5713 -0.1431  0.5449
  252SOL    HW2  756   1.588   1.731   1.939 -1.5281 -0.0780  0.6442
  253SOL     OW  757   2.580   2.324   1.557  0.8227  0.4306  0.2761
  253SOL    HW1  758   2.504   2.313   1.622  0.8043 -1.3900  0.2995
  253SOL    HW2  759   2.620   2.234   1.531  0.0635 -0.6751 -1.0617
  254SOL     OW  760   2.875   1.169   1.127  0.0467  0.4339 -0.3546
  254SOL    HW1  761   2.892   1.254   1.177 -0.6225  4.6111 -0.9789
  254SOL    HW2  762   2.945   1.098   1.155 -1.7865  0.8009 -2.0254
  255SOL     OW  763   0.906   0.334   1.024  0.2914  0.3216  0.3314
  255SOL    HW1  764   0.891   0.306   1.118  1.5154 -0.0933 -1.7693
  255SOL    HW2  765   0.851   0.415   0.996  1.4723 -1.7362 -3.2064
  256SOL     OW  766   1.939   2.267   1.623 -0.3302 -0.4836  0.3915
  256SOL    HW1  767   2.025   2.249   1.671 -1.0165 -1.6408  1.6131
  256SOL    HW2  768   1.875   2.187   1.617  0.7097  2.0722 -1.2584
  257SOL     OW  769   0.713   2.843   2.520 -0.2146 -0.2010 -0.0138
  257SOL    HW1  770   0.759   2.802   2.602 -1.1362  1.8375 -1.4715
  257SOL    HW2  771   0.781   2.856   2.444  0.5937 -1.3285 -4.0178
  258SOL     OW  772   0.913   2.122   0.321  0.0280 -0.2578  0.2721
  258SOL    HW1  773   0.830   2.104   0.270  2.0478 -1.5893  1.6572
  258SOL    HW2  774   0.963   2.040   0.346 -1.2567  2.8323 -1.1363
  259SOL     OW  775   1.130   2.924   2.656 -0.1836 -0.1881 -0.3573
  259SOL    HW1  776   1.080   2.986   2.589 -0.3929  1.6732 -3.5880
  259SOL    HW2  777   1.217   2.893   2.612  1.6474 -2.8011 -1.4091
  260SOL     OW  778   1.721   0.706   1.132  0.8181 -0.4198  0.0588
  260SOL    HW1  779   1.648   0.741   1.193  0.5706  0.1308  0.7569
  260SOL    HW2  780   1.683   0.669   1.043  0.9079  1.4704  0.7590
  261SOL     OW  781   0.550   0.341   2.379  0.4272  0.0543  0.2523
  261SOL    HW1  782   0.466   0.317   2.324  1.1015 -0.0563 -5.5613
  261SOL    HW2  783   0.578   0.438   2.354  0.2717  0.6026 -0.8726
  262SOL     OW  784   0.288   2.072   2.050  0.1951  0.0725  0.0441
  262SOL    HW1  785   0.317   2.087   2.147 -0.6323 -2.3421  0.7183
  262SOL    HW2  786   0.292   2.157   1.989 -1.8110  0.9787  1.7804
  263SOL     OW  787   2.572   1.406   2.364  0.0819 -0.2647  0.1719
  263SOL    HW1  788   2.565   1.345   2.446 -2.5062  0.2009  0.5406
  263SOL    HW2  789   2.577   1.507   2.396 -1.9236  0.5603 -0.9487
  264SOL     OW  790   0.971   0.992   0.909  0.4074  0.3678  0.1179
  264SOL    HW1  791   0.902   1.042   0.846  1.2802 -1.3440 -1.0636
  264SOL    HW2  792   1.061   0.994   0.861  0.4529  2.6904 -2.4659
  265SOL     OW  793   1.298   2.490   1.178 -0.2668 -0.1377  0.0322
  265SOL    HW1  794   1.289   2.415   1.241 -1.3875 -0.0257  1.1111
  265SOL    HW2  795   1.297   2.579   1.227 -2.6427 -0.3559 -1.2233
  266SOL     OW  796   1.614   1.019   1.048  0.4648  0.4512  0.1767
  266SOL    HW1  797   1.712   1.042   1.055 -1.7953 -0.1869 -3.2002
  266SOL    HW2  798   1.606   0.944   0.978  2.2403  0.0216  0.7888
  267SOL     OW  799   2.336   1.157   0.021 -1.0735  0.1242  0.5162
  267SOL    HW1  800   2.381   1.168   3.006  0.0304  0.9182 -1.9886
  267SOL    HW2  801   2.335   1.061   0.046  0.6792  2.3623  0.0252
  268SOL     OW  802   1.312   0.205   0.304 -0.0389 -0.2387 -0.2226
  268SOL    HW1  803   1.362   0.236   0.387  0.7922 -0.9478  2.2845
  268SOL    HW2  804   1.375   0.140   0.251  0.4346  0.0727  1.6349
  269SOL     OW  805   2.721   0.693   2.529 -0.7715  0.0348 -0.2664
  269SOL    HW1  806   2.652   0.674   2.599  1.5000 -2.2070 -0.6996
  269SOL    HW2  807   2.683   0.673   2.440  2.1554  2.6382  1.8076
  270SOL     OW  808   0.269   1.058   2.804  0.0256  0.0955 -0.1321
  270SOL    HW1  809   0.223   1.102   2.882 -0.8610 -0.3977 -2.6056
  270SOL    HW2  810   0.359   1.021   2.831 -0.3454 -3.0653  1.1113
  271SOL     OW  811   2.803   0.979   0.224 -0.6068 -0.1533  0.0114
  271SOL    HW1  812   2.717   0.942   0.247  0.4343  2.3270  0.8975
  271SOL    HW2  813   2.854   1.034   0.294  1.1084  0.3239 -0.3247
  272SOL     OW  814   2.662   2.680   2.532  0.3533 -0.1829  0.3011
  272SOL    HW1  815   2.761   2.689   2.560  1.1282 -0.9444  0.5995
  272SOL    HW2  816   2.619   2.594   2.570  0.9841 -2.6952 -0.1087
  273SOL     OW  817   2.947   3.022   2.628  0.2508  0.3748 -0.0519
  273SOL    HW1  818   2.972   0.029   2.579 -3.3133 -2.0091 -1.8433
  273SOL    HW2  819   2.883   3.040   2.702 -0.7524  0.4259  0.0324
  274SOL     OW  820   0.751   2.398   0.860  0.3126 -0.5037 -0.2671
  274SOL    HW1  821   0.698   2.431   0.941  0.5643 -2.0193 -0.6220
  274SOL    HW2  822   0.795   2.469   0.805 -0.3179  1.7760 -2.1158
  275SOL     OW  823   2.199   0.836   0.634 -0.2914  0.4411  0.0218
  275SOL    HW1  824   2.178   0.746   0.599 -0.1516  0.1167 -0.1677
  275SOL    HW2  825   2.301   0.844   0.621  1.3683 -2.2278 -0.8855
  276SOL     OW  826   2.875   1.245   1.559  0.3318  0.5523  0.0280
  276SOL    HW1  827   2.778   1.264   1.519  1.4242  2.3326  1.9637
  276SOL    HW2  828   2.882   1.297   1.647  0.6315  0.0107  1.7245
  277SOL     OW  829   2.205   0.010   1.124 -0.2436  0.1196  0.2372
  277SOL    HW1  830   2.159   0.030   1.210 -0.2547 -0.1677 -0.7895
  277SOL    HW2  831   2.288   3.036   1.144 -1.7933  1.4175  2.2489
  278SOL     OW  832   1.527   2.501   2.797 -0.3221 -0.8379 -0.0768
  278SOL    HW1  833   1.554   2.436   2.722 -0.4195 -2.5623  1.5543
  278SOL    HW2  834   1.463   2.452   2.861 -0.7377 -0.7318  0.5551
  279SOL     OW  835   1.695   1.981   1.099 -0.0620  0.5507  0.1504
  279SOL    HW1  836   1.702   1.929   1.188 -0.0694  0.3674  0.5784
  279SOL    HW2  837   1.732   2.080   1.110  2.5619  3.7243 -0.0258
  280SOL     OW  838   0.304   1.454   0.778 -0.4379 -0.1327  0.9466
  280SOL    HW1  839   0.265   1.525   0.715 -2.7434 -1.0375 -1.3796
  280SOL    HW2  840   0.321   1.495   0.870  2.3157  1.3417 -0.9978
  281SOL     OW  841   2.592   1.238   2.596 -0.0616  0.0164 -0.1947
  281SOL    HW1  842   2.547   1.243   2.685  1.9070 -1.6857  0.0193
  281SOL    HW2  843   2.597   1.144   2.562 -1.8197 -0.3269 -0.0734
  282SOL     OW  844   0.565   1.380   0.048  0.5329 -0.5753  0.4152
  282SOL    HW1  845   0.486   1.368   0.110 -2.1848  1.3001  0.8136
  282SOL    HW2  846   0.653   1.347   0.094  3.9340 -0.1954  2.8253
  283SOL     OW  847   2.004   2.471   0.107 -0.2484 -0.0221  0.4642
  283SOL    HW1  848   2.097   2.472   0.064 -1.4323  1.4023 -2.0518
  283SOL    HW2  849   1.955   2.387   0.090  0.7396  0.0820  0.9598
  284SOL     OW  850   0.949   3.026   1.016 -0.2861  0.4681 -0.6050
  284SOL    HW1  851   0.991   3.038   0.927 -1.5350 -2.1248  1.1912
  284SOL    HW2  852   0.964   2.931   1.045  1.2770 -0.4382  1.1157
  285SOL     OW  853   2.261   1.355   2.706 -0.1287  0.2563 -0.3025
  285SOL    HW1  854   2.236   1.363   2.610  0.7774  2.3598  1.3476
  285SOL    HW2  855   2.178   1.347   2.763  0.8182  0.3199 -1.8945
  286SOL     OW  856   2.041   2.483   0.998 -0.2600 -0.2523 -0.1438
  286SOL    HW1  857   2.016   2.479   1.094  1.7456 -2.0507 -4.7326
  286SOL    HW2  858   2.136   2.510   0.982 -2.5350 -3.0103 -0.4517
  287SOL     OW  859   1.191   0.307   0.945 -0.2518 -0.5336  0.3007
  287SOL    HW1  860   1.201   0.246   1.024 -3.0108 -2.3222 -0.7928
  287SOL    HW2  861   1.099   0.342   0.936  1.9551 -0.1625 -1.1835
  288SOL     OW  862   0.736   2.274   2.898 -0.3211 -0.1521 -0.4977
  288SOL    HW1  863   0.678   2.349   2.921 -0.7417 -3.8033  2.2012
  288SOL    HW2  864   0.822   2.297   2.950  0.6460  0.5095  1.9622
  289SOL     OW  865   2.989   1.425   0.885 -0.0299 -0.2092 -0.1681
  289SOL    HW1  866   2.906   1.438   0.940 -1.6742  0.2345 -0.3006
  289SOL    HW2  867   3.023   1.515   0.854 -0.4300 -0.4182 -1.0342
  290SOL     OW  868   1.431   2.012   1.032  0.0105  0.2153 -0.0831
  290SOL    HW1  869   1.530   2.007   1.054 -1.7193 -2.0056 -0.5291
  290SOL    HW2  870   1.380   2.068   1.095  2.7321 -1.4213  0.1122
  291SOL     OW  871   1.442   0.003   0.163  0.2998  0.5053  0.0755
  291SOL    HW1  872   1.386   3.003   0.199  1.9269 -0.6507 -1.1214
  291SOL    HW2  873   1.404   0.033   0.075  3.5309  1.7715 -0.8299
  292SOL     OW  874   0.432   0.346   1.956 -0.3449 -0.7920 -0.1230
  292SOL    HW1  875   0.403   0.446   1.953 -1.0639  0.5030 -1.0056
  292SOL    HW2  876   0.529   0.329   1.989  3.3892  0.4042 -1.0778
  293SOL     OW  877   2.500   1.868   1.307  0.3910 -0.0382  0.9004
  293SOL    HW1  878   2.599   1.873   1.288 -0.8816  0.0382  0.3329
  293SOL    HW2  879   2.460   1.963   1.318  1.4854 -0.7986  0.5764
  294SOL     OW  880   0.830   0.228   2.365 -0.3074 -0.4177  0.5607
  294SOL    HW1  881   0.828   0.313   2.420  1.0629  0.6192  1.2830
  294SOL    HW2  882   0.736   0.192   2.352  0.0703  0.9054  2.6049
  295SOL     OW  883   1.655   1.594   1.218  0.4113  0.8025  0.4244
  295SOL    HW1  884   1.681   1.513   1.269  0.8992  0.4146  1.3464
  295SOL    HW2  885   1.683   1.683   1.265  2.9511  1.0561 -0.6000
  296SOL     OW  886   2.485   1.933   0.227 -0.2478  0.4729  0.0443
  296SOL    HW1  887   2.466   1.995   0.306 -0.7552  1.6431  0.5380
  296SOL    HW2  888   2.559   1.867   0.254 -1.5951  0.6576 -0.8001
  297SOL     OW  889   2.630   0.176   0.307 -0.5511  0.4323 -0.3136
  297SOL    HW1  890   2.565   0.133   0.240  1.9937  0.2760  0.1353
  297SOL    HW2  891   2.671   0.259   0.264 -0.4157 -1.3372  0.8582
  298SOL     OW  892   0.854   3.067   2.928 -0.3565 -0.2283 -0.2210
  298SOL    HW1  893   0.771   3.005   2.935 -2.2578 -2.0910  1.0061
  298SOL    HW2  894   0.828   0.086   2.951  0.4401  0.3927 -0.4932
  299SOL     OW  895   0.720   2.189   2.278  0.0972 -0.2040 -0.2373
  299SOL    HW1  896   0.742   2.170   2.178 -1.0407 -0.3495  0.6617
  299SOL    HW2  897   0.751   2.112   2.341 -0.4829 -1.7354  2.5747
  300SOL     OW  898   2.858   2.978   2.113  0.6530 -0.4376 -0.2652
  300SOL    HW1  899   2.867   3.072   2.152  1.8228  1.8905 -2.6405
  300SOL    HW2  900   2.951   2.938   2.110  5.0106  1.5486  1.6106
  301SOL     OW  901   1.047   0.695   1.853 -0.4414  0.1746 -0.2756
  301SOL    HW1  902   1.121   0.641   1.799 -0.3522 -0.4601 -1.8800
  301SOL    HW2  903   1.092   0.751   1.925  2.0619  0.1770  0.1244
  302SOL     OW  904   0.026   2.094   0.191  0.2987 -0.0135 -0.1738
  302SOL    HW1  905   0.084   2.135   0.263 -0.6565 -1.6891  0.6258
  302SOL    HW2  906   3.006   2.095   0.218 -0.3149  1.0558  0.4818
  303SOL     OW  907   2.510   2.624   1.534 -0.4684 -0.5177 -0.4302
  303SOL    HW1  908   2.535   2.529   1.529  0.0148  0.0301 -0.2917
  303SOL    HW2  909   2.581   2.682   1.576 -1.5813 -2.9522 -3.4466
  304SOL     OW  910   2.763   0.768   1.616 -0.1701 -0.0435 -0.3188
  304SOL    HW1  911   2.720   0.677   1.635  0.0690  1.5400 -3.5573
  304SOL    HW2  912   2.851   0.783   1.664 -3.2723 -1.4070  0.1994
  305SOL     OW  913   0.950   1.980   1.060  0.2508 -0.3886  0.1656
  305SOL    HW1  914   0.993   2.073   1.046  0.7004  0.6635  1.3034
  305SOL    HW2  915   0.858   1.992   1.104  1.2272  0.3430  1.5712
  306SOL     OW  916   0.460   1.324   2.034 -0.0653  0.1611  0.5311
  306SOL    HW1  917   0.418   1.415   2.054 -1.3960 -1.5307 -0.0668
  306SOL    HW2  918   0.544   1.302   2.093  1.4549 -1.6946  0.2616
  307SOL     OW  919   0.777   0.348   1.724 -0.1260 -0.2929 -0.1294
  307SOL    HW1  920   0.861   0.380   1.772  1.2871 -2.1960 -0.3761
  307SOL    HW2  921   0.799   0.337   1.626 -0.3546 -0.5080  0.4756
  308SOL     OW  922   3.027   0.931   1.093  0.2318 -0.5749  0.2250
  308SOL    HW1  923   0.049   0.914   1.101  1.9539 -3.6245  0.4603
  308SOL    HW2  924   2.983   0.854   1.041  1.3671 -0.1213 -1.1255
  309SOL     OW  925   2.622   1.129   1.240 -0.3199  0.2643  0.0082
  309SOL    HW1  926   2.626   1.205   1.310  2.3298 -1.0938  0.7131
  309SOL    HW2  927   2.699   1.145   1.178 -2.1115  1.8673  3.9825
  310SOL     OW  928   0.092   1.853   2.533  0.5569  0.1320 -0.0838
  310SOL    HW1  929   0.090   1.891   2.627  0.7490  1.5709  0.1621
  310SOL    HW2  930   0.183   1.860   2.497 -2.5276 -2.9507  1.4075
  311SOL     OW  931   2.640   2.609   2.195 -0.0564  0.3342  0.1819
  311SOL    HW1  932   2.697   2.615   2.105  3.2073 -0.6913 -2.3887
  311SOL    HW2  933   2.664   2.690   2.251  0.5833 -3.5252  2.0231
  312SOL     OW  934   2.082   2.157   0.011  0.4868  0.1269 -0.4839
  312SOL    HW1  935   2.010   2.213   3.045 -0.2625  0.3957  1.2635
  312SOL    HW2  936   2.068   2.053   0.007 -0.3979 -4.8370  0.3146
  313SOL     OW  937   2.951   3.066   0.590 -0.4479  0.0721 -0.4279
  313SOL    HW1  938   2.868   0.037   0.563  0.1933  2.1259  0.8904
  313SOL    HW2  939   3.010   3.044   0.509  3.4097 -0.2378 -1.4050
  314SOL     OW  940   1.808   1.043   0.063 -0.4333  0.3745 -0.0709
  314SOL    HW1  941   1.752   1.040   0.150  0.1051 -1.3654 -1.0885
  314SOL    HW2  942   1.867   1.127   0.054  1.5461  0.3450  0.1629
  315SOL     OW  943   1.394   2.882   2.567  0.3305 -0.2762  0.2679
  315SOL    HW1  944   1.427   2.956   2.510 -2.4322  1.2357  0.6297
  315SOL    HW2  945   1.471   2.830   2.606  1.7436 -0.2139 -0.9527
  316SOL     OW  946   3.042   1.473   0.361  0.7968  0.2643 -0.1105
  316SOL    HW1  947   3.025   1.370   0.361 -4.2100 -0.4566 -2.6141
  316SOL    HW2  948   3.001   1.515   0.277  0.9611 -0.9582 -2.9129
  317SOL     OW  949   0.538   2.859   2.961 -0.2418  0.5651  0.4417
  317SOL    HW1  950   0.556   2.944   2.908  1.3952  0.1168  2.9439
  317SOL    HW2  951   0.620   2.851   3.017 -0.5493  3.3056 -0.4110
  318SOL     OW  952   2.426   2.324   1.132  0.0327  0.0520 -0.4481
  318SOL    HW1  953   2.342   2.293   1.080  0.9637 -0.2541  0.1807
  318SOL    HW2  954   2.397   2.352   1.227  0.9525 -0.1093  0.8057
  319SOL     OW  955   1.218   1.919   2.925  0.3381 -0.2786  0.1774
  319SOL    HW1  956   1.169   1.874   2.846  1.5751 -1.4630  0.0120
  319SOL    HW2  957   1.208   1.863   3.011  2.9221  0.6512 -2.1527
  320SOL     OW  958   0.663   2.064   1.056  0.6750  0.2209 -0.0123
  320SOL    HW1  959   0.729   2.133   1.019  1.5037  2.3367 -2.4395
  320SOL    HW2  960   0.583   2.116   1.091 -0.3543 -1.1439  0.4177
  321SOL     OW  961   1.243   2.613   2.567  0.0076 -0.0269 -0.6030
  321SOL    HW1  962   1.302   2.688   2.538  2.5101  0.3048 -0.8867
  321SOL    HW2  963   1.184   2.567   2.495  1.7660  0.1929 -0.8198
  322SOL     OW  964   2.422   1.620   1.934 -0.2852 -0.3023  0.1576
  322SOL    HW1  965   2.444   1.644   2.033 -2.9843 -0.9722 -1.3637
  322SOL    HW2  966   2.418   1.701   1.875 -1.9232 -2.0488 -0.5498
  323SOL     OW  967   2.739   0.767   1.045  0.3791  0.0573  0.4229
  323SOL    HW1  968   2.776   0.672   1.022  0.0884 -2.7361 -1.9621
  323SOL    HW2  969   2.650   0.764   1.091  0.5159  2.0050 -1.1925
  324SOL     OW  970   2.597   2.918   2.203 -0.3938 -0.0914 -0.7951
  324SOL    HW1  971   2.584   2.938   2.303 -1.5661  1.0072 -1.3081
  324SOL    HW2  972   2.694   2.942   2.178  1.1892  0.8140 -4.6857
  325SOL     OW  973   1.042   0.541   2.380  0.4440  0.4702  0.3757
  325SOL    HW1  974   0.981   0.497   2.449 -0.3380  0.5719  0.6480
  325SOL    HW2  975   0.997   0.622   2.335 -1.2689  1.5830 -0.8797
  326SOL     OW  976   1.982   2.831   1.973 -0.3179  0.2018 -0.5283
  326SOL    HW1  977   2.000   2.920   2.017  0.1549  0.1419 -1.7990
  326SOL    HW2  978   1.884   2.824   1.951 -1.2250 -0.8883 -1.2747
  327SOL     OW  979   2.211   0.427   3.033 -0.0502  0.2892  0.0489
  327SOL    HW1  980   2.277   0.362   2.990  1.1471 -1.9833  1.1540
  327SOL    HW2  981   2.147   0.461   2.963  2.3004 -1.5146  2.5750
  328SOL     OW  982   0.147   1.433   2.264 -0.3927  0.1696  0.2794
  328SOL    HW1  983   0.220   1.478   2.207  2.5748 -0.5043  0.5916
  328SOL    HW2  984   0.075   1.500   2.288 -0.3011  0.4201 -3.3687
  329SOL     OW  985   1.692   0.155   1.666  0.7963  0.3139 -0.3816
  329SOL    HW1  986   1.634   0.201   1.733  1.0086 -1.9858 -2.4544
  329SOL    HW2  987   1.754   0.218   1.619 -0.1398  1.3015 -0.4240
  330SOL     OW  988   0.245   1.187   0.777 -0.6081 -0.5662  0.1911
  330SOL    HW1  989   0.154   1.209   0.810  0.6111  0.5072 -2.9606
  330SOL    HW2  990   0.291   1.273   0.738 -1.9534  4.3798 -2.0438
  331SOL     OW  991   0.332   1.555   2.045  0.3581  0.5533  0.4532
  331SOL    HW1  992   0.247   1.564   1.990 -0.6776  2.1281 -0.8841
  331SOL    HW2  993   0.343   1.642   2.098 -1.3072 -0.0555 -0.9006
  332SOL     OW  994   2.891   2.610   1.707  0.4328  0.4570  0.5512
  332SOL    HW1  995   2.872   2.629   1.607 -0.8986  0.9004  0.0315
  332SOL    HW2  996   2.913   2.514   1.715 -0.5210  0.1182 -0.1589
  333SOL     OW  997   2.572   3.063   0.981 -0.2758  0.4891  0.2394
  333SOL    HW1  998   2.548   0.068   0.932  4.3370  2.7819  0.7445
  333SOL    HW2  999   2.508   3.042   1.056  2.0517 -1.7303  0.0134
  334SOL     OW 1000   0.737   1.742   0.588  0.2372  0.1832  0.5659
  334SOL    HW1 1001   0.788   1.684   0.517 -0.9683 -2.3338 -0.6286
  334SOL    HW2 1002   0.639   1.748   0.565 -1.1533  1.0279  0.1973
  335SOL     OW 1003   0.172   2.490   2.824  0.3981  0.2793 -0.1348
  335SOL    HW1 1004   0.090   2.528   2.869  2.0765 -3.1819  0.3902
  335SOL    HW2 1005   0.228   2.449   2.896  2.3632 -2.2237  0.8478
  336SOL     OW 1006   0.200   2.679   2.355  0.6484 -0.1070 -0.4598
  336SOL    HW1 1007   0.213   2.763   2.300  0.1568  0.7378 -0.2010
  336SOL    HW2 1008   0.225   2.596   2.304  3.2483 -0.2690 -4.4913
  337SOL     OW 1009   2.113   2.638   2.141  0.4641  0.4405 -0.7316
  337SOL    HW1 1010   2.071   2.710   2.084 -1.2131 -2.5311 -0.5206
  337SOL    HW2 1011   2.043   2.598   2.210 -2.8807 -2.8421  1.3516
  338SOL     OW 1012   0.647   3.044   0.217  0.0898 -0.3901  0.4120
  338SOL    HW1 1013   0.653   0.050   0.155  0.7748 -2.1113  0.7994
  338SOL    HW2 1014   0.564   3.055   0.271  0.7268 -0.0797  0.2494
  339SOL     OW 1015   0.463   1.034   2.019 -0.2103  0.3898  0.3937
  339SOL    HW1 1016   0.385   0.969   1.996 -0.8236  0.1003 -0.4629
  339SOL    HW2 1017   0.423   1.125   2.042  1.8884 -1.5556  0.5373
  340SOL     OW 1018   1.584   2.979   0.433 -0.4177  0.1167  0.0249
  340SOL    HW1 1019   1.622   2.934   0.516  0.2263  3.2148  1.5323
  340SOL    HW2 1020   1.537   3.063   0.464  1.2675 -2.8648  0.0094
  341SOL     OW 1021   2.158   1.183   0.770  0.4041 -0.2594 -0.5403
  341SOL    HW1 1022   2.058   1.182   0.767  1.5191  0.0802 -0.2245
  341SOL    HW2 1023   2.187   1.188   0.866 -0.8156 -1.5563  0.9131
  342SOL     OW 1024   2.476   0.080   0.104 -0.4680  0.0656  0.0401
  342SOL    HW1 1025   2.384   0.040   0.132 -0.0414  0.2499 -0.4134
  342SOL    HW2 1026   2.547   0.013   0.080  0.8135  0.6762  0.7207
  343SOL     OW 1027   1.279   2.320   1.743  0.1976 -0.1049  0.0258
  343SOL    HW1 1028   1.215   2.377   1.803  0.7701  2.6042 -1.5644
  343SOL    HW2 1029   1.374   2.332   1.776 -1.0246 -0.7506  0.0052
  344SOL     OW 1030   2.581   2.742   1.155  0.1898  0.1387  0.4087
  344SOL    HW1 1031   2.656   2.697   1.108  0.0631  1.3256  1.8489
  344SOL    HW2 1032   2.572   2.704   1.248  2.4227 -0.4819 -1.9791
  345SOL     OW 1033   2.735   2.181   0.068  0.0191  0.4681 -0.0479
  345SOL    HW1 1034   2.759   2.276   0.053  1.7215  1.0830  0.1535
  345SOL    HW2 1035   2.778   2.153   0.156 -1.6555 -0.3490  0.0875
  346SOL     OW 1036   2.414   1.934   0.854  0.0724 -0.4911  0.0724
  346SOL    HW1 1037   2.408   2.032   0.829  2.7950  1.9719  0.0285
  346SOL    HW2 1038   2.455   1.919   0.945 -0.6683 -0.8965 -1.8753
  347SOL     OW 1039   1.513   2.115   1.591  0.0897 -0.3002  0.2949
  347SOL    HW1 1040   1.506   2.191   1.662 -1.0572 -0.5414  1.6925
  347SOL    HW2 1041   1.437   2.050   1.598  0.9054 -2.5403 -1.8018
  348SOL     OW 1042   0.499   1.498   2.584 -0.1753  0.3017  0.3219
  348SOL    HW1 1043   0.441   1.504   2.668  0.2001  2.3557 -3.9916
  348SOL    HW2 1044   0.551   1.414   2.577  1.6001  0.7199 -0.1566
  349SOL     OW 1045   2.425   1.386   0.879 -0.4063 -0.1332 -0.0307
  349SOL    HW1 1046   2.515   1.366   0.824  1.7915 -2.3325 -2.4110
  349SOL    HW2 1047   2.415   1.485   0.914 -0.1885  1.9858  0.9491
  350SOL     OW 1048   2.824   2.693   1.019 -0.0799 -0.0597 -0.0770
  350SOL    HW1 1049   2.784   2.681   0.926 -1.8203  1.5948  2.3342
  350SOL    HW2 1050   2.921   2.669   1.026 -3.0078  1.3048 -0.0080
  351SOL     OW 1051   0.395   2.956   1.965  0.0158 -0.6326 -0.9161
  351SOL    HW1 1052   0.325   3.012   1.907 -2.8930 -2.2879 -0.1414
  351SOL    HW2 1053   0.467   3.020   2.002 -1.6473  1.3009  0.0717
  352SOL     OW 1054   0.812   1.422   0.941 -0.0713 -0.3571 -1.1864
  352SOL    HW1 1055   0.786   1.504   0.882 -1.3813 -0.3060  1.3730
  352SOL    HW2 1056   0.906   1.392   0.915 -0.3586 -1.4236  0.0368
  353SOL     OW 1057   1.315   1.506   2.436 -0.1284  0.2986 -0.2895
  353SOL    HW1 1058   1.220   1.485   2.417  0.9831 -0.4316 -1.4955
  353SOL    HW2 1059   1.366   1.422   2.454 -1.5388 -0.1066 -2.3849
  354SOL     OW 1060   1.570   3.014   1.294  0.5982  0.5743  0.4354
  354SOL    HW1 1061   1.531   2.943   1.230  2.0885 -0.5012  1.5826
  354SOL    HW2 1062   1.539   3.007   1.392 -0.5631 -1.9414 -1.1072
  355SOL     OW 1063   2.275   1.425   0.636  0.0881 -0.4115  0.1773
  355SOL    HW1 1064   2.310   1.366   0.711  0.9014  3.2412 -0.4122
  355SOL    HW2 1065   2.219   1.372   0.572  2.2067  0.3695 -1.6851
  356SOL     OW 1066   2.783   1.641   2.061 -0.1008 -0.4719  0.1709
  356SOL    HW1 1067   2.766   1.715   1.987 -1.6801 -1.4843  0.7662
  356SOL    HW2 1068   2.706   1.638   2.121  1.3900  0.6665 -2.2005
  357SOL     OW 1069   0.615   2.889   1.529 -0.4440  0.8443  0.3513
  357SOL    HW1 1070   0.512   2.883   1.523 -0.6316  0.8379  1.2277
  357SOL    HW2 1071   0.658   2.933   1.446  1.5594 -1.8993  0.4629
  358SOL     OW 1072   2.454   1.134   1.830 -0.3381  0.3388  0.0622
  358SOL    HW1 1073   2.511   1.205   1.871 -1.6626  0.3045 -0.7554
  358SOL    HW2 1074   2.354   1.153   1.853  2.0837 -1.9113 -2.4503
  359SOL     OW 1075   2.258   2.749   2.715 -0.0256 -0.1700 -0.0892
  359SOL    HW1 1076   2.325   2.677   2.689 -0.8372 -1.3836  0.6103
  359SOL    HW2 1077   2.225   2.738   2.811  0.7407  2.6066  1.2148
  360SOL     OW 1078   0.681   0.544   0.965 -0.3657  0.6914  0.5090
  360SOL    HW1 1079   0.661   0.625   1.024 -0.3622  1.8252  1.2878
  360SOL    HW2 1080   0.694   0.575   0.866  3.3411  1.3186 -1.2944
  361SOL     OW 1081   1.954   2.941   1.063 -0.6063  0.1245  0.3750
  361SOL    HW1 1082   1.903   2.938   1.154 -0.4308  0.1378  5.5949
  361SOL    HW2 1083   2.052   2.968   1.077  3.1157 -0.8560  0.4588
  362SOL     OW 1084   1.270   1.141   0.897 -0.0240 -0.3970  0.0021
  362SOL    HW1 1085   1.366   1.168   0.888 -0.9425  0.1045 -2.5189
  362SOL    HW2 1086   1.253   1.071   0.970 -1.4402  1.8761 -0.1879
  363SOL     OW 1087   2.379   1.599   2.694  0.2533  0.4627  0.2510
  363SOL    HW1 1088   2.416   1.624   2.784 -1.8004 -1.2474  1.3170
  363SOL    HW2 1089   2.359   1.498   2.691 -2.5121 -1.9686 -2.6531
  364SOL     OW 1090   0.124   0.282   1.005 -0.0400  0.7948 -0.0872
  364SOL    HW1 1091   0.212   0.280   1.051  1.1969 -1.3754 -0.7838
  364SOL    HW2 1092   0.069   0.365   1.034 -2.6541  2.1993 -1.8339
  365SOL     OW 1093   0.128   2.929   2.758 -0.0976  0.7705 -0.4604
  365SOL    HW1 1094   0.161   2.848   2.706  1.6830  1.3902 -0.5811
  365SOL    HW2 1095   0.040   2.970   2.727 -1.9902  0.2889 -1.5805
  366SOL     OW 1096   2.247   2.247   0.204  0.0499  0.5847 -0.3617
  366SOL    HW1 1097   2.184   2.193   0.138 -0.7875 -2.0552  0.4671
  366SOL    HW2 1098   2.337   2.275   0.163 -1.1987 -1.9396 -0.0709
  367SOL     OW 1099   2.581   2.453   2.959 -0.4357  0.2894  0.2588
  367SOL    HW1 1100   2.609   2.406   2.873 -0.6757 -0.4835 -1.7030
  367SOL    HW2 1101   2.658   2.466   3.020 -2.6645 -0.0626  0.6287
  368SOL     OW 1102   0.290   1.882   0.878  0.1436 -0.0380  0.4003
  368SOL    HW1 1103   0.342   1.947   0.820 -1.4633  0.7927 -1.0469
  368SOL    HW2 1104   0.188   1.893   0.884  1.7326 -1.1639 -2.5156
  369SOL     OW 1105   0.558   2.665   2.765  0.6571 -0.5709 -0.2521
  369SOL    HW1 1106   0.540   2.748   2.823 -0.7366 -1.4534 -0.0114
  369SOL    HW2 1107   0.654   2.666   2.737 -3.3735 -0.9168  0.8187
  370SOL     OW 1108   2.990   0.824   0.818  0.3881  0.5755  0.2980
  370SOL    HW1 1109   3.045   0.905   0.803  0.9918 -1.2842 -0.2663
  370SOL    HW2 1110   3.047   0.741   0.795  1.1159  1.0776 -1.3089
  371SOL     OW 1111   1.909   2.314   0.819  0.2567 -0.3734 -0.0745
  371SOL    HW1 1112   1.960   2.366   0.888  0.1029  1.0901  2.0253
  371SOL    HW2 1113   1.904   2.218   0.848  0.6729  1.0325 -1.7347
  372SOL     OW 1114   0.536   0.843   2.746  0.4387 -0.4085 -0.0069
  372SOL    HW1 1115   0.629   0.884   2.760 -2.4020 -1.3276  1.0276
  372SOL    HW2 1116   0.535   0.742   2.765  0.8693 -1.0357  0.3467
  373SOL     OW 1117   0.015   1.933   0.955  0.1430  0.4532  0.6342
  373SOL    HW1 1118   3.017   1.989   0.909  2.0735 -2.0226  0.9873
  373SOL    HW2 1119   0.008   1.956   1.052 -1.2120  0.8833 -4.3149
  374SOL     OW 1120   0.174   2.728   0.107  0.1622  0.4364 -0.1639
  374SOL    HW1 1121   0.201   2.630   0.105 -1.3153  1.4608  4.0072
  374SOL    HW2 1122   0.193   2.782   0.025  1.8378  0.5292  1.3452
  375SOL     OW 1123   0.232   0.371   0.237 -0.2303 -0.3195 -0.3659
  375SOL    HW1 1124   0.281   0.363   0.327  1.0998  0.2051 -0.1250
  375SOL    HW2 1125   0.135   0.339   0.245  1.6044  0.5023  0.2630
  376SOL     OW 1126   0.049   2.464   1.963  0.3677 -0.1907 -0.5819
  376SOL    HW1 1127   3.058   2.405   1.915  1.1870  0.8290 -0.2233
  376SOL    HW2 1128   0.099   2.533   1.907 -2.4360  0.2578  1.2499
  377SOL     OW 1129   1.744   2.562   2.958 -0.3136  0.6881  0.0646
  377SOL    HW1 1130   1.748   2.644   3.021  0.0026 -1.1299  2.5100
  377SOL    HW2 1131   1.654   2.541   2.918  3.8535  1.9862 -1.8870
  378SOL     OW 1132   0.563   0.386   0.405  0.0965  0.2353  0.1823
  378SOL    HW1 1133   0.606   0.313   0.352  0.5060  0.3433 -0.8099
  378SOL    HW2 1134   0.596   0.480   0.383  1.1879  2.5307 -0.9784
  379SOL     OW 1135   0.753   1.536   0.382  0.2538  0.1915 -0.2531
  379SOL    HW1 1136   0.666   1.490   0.402  0.1031 -0.4320 -0.8115
  379SOL    HW2 1137   0.833   1.481   0.426  1.0166  3.4505  1.0771
  380SOL     OW 1138   0.378   1.898   1.421  0.0104  0.2374 -0.2060
  380SOL    HW1 1139   0.465   1.849   1.433  0.3374 -1.5004  2.7551
  380SOL    HW2 1140   0.374   1.921   1.321  1.7706  0.5335 -0.6186
  381SOL     OW 1141   0.432   1.345   1.766 -0.0553 -0.0108 -0.0437
  381SOL    HW1 1142   0.514   1.312   1.717 -4.3168  0.9725 -1.8081
  381SOL    HW2 1143   0.448   1.339   1.867 -2.6214 -1.3955 -2.3302
  382SOL     OW 1144   2.143   1.852   0.795 -0.3808  0.1901 -0.0765
  382SOL    HW1 1145   2.229   1.880   0.844 -0.0012  0.5951  0.1507
  382SOL    HW2 1146   2.115   1.763   0.831  0.6773 -0.4505  0.3192
  383SOL     OW 1147   2.785   1.797   2.467  0.3992 -0.1883  0.2992
  383SOL    HW1 1148   2.837   1.883   2.457 -0.1200  1.6483 -0.5369
  383SOL    HW2 1149   2.831   1.733   2.534  1.3328  0.3414 -0.3546
  384SOL     OW 1150   0.334   1.942   2.470  0.2991  0.0153  0.2710
  384SOL    HW1 1151   0.349   1.967   2.572  0.9329  1.8982  2.1843
  384SOL    HW2 1152   0.362   2.012   2.402 -1.1118  0.9727  0.8530
  385SOL     OW 1153   2.603   1.772   0.999 -0.0198 -0.1414 -0.0591
  385SOL    HW1 1154   2.610   1.705   1.077 -1.3148  1.0482 -0.7262
  385SOL    HW2 1155   2.656   1.861   1.013  0.9659  0.6974  2.5770
  386SOL     OW 1156   1.667   0.844   0.812 -0.5705  0.1056 -0.0805
  386SOL    HW1 1157   1.669   0.741   0.832 -0.2693 -3.4630  1.3825
  386SOL    HW2 1158   1.613   0.860   0.730  0.2643 -0.8854 -0.5441
  387SOL     OW 1159   0.365   0.825   1.771 -0.0370 -0.0165 -0.2202
  387SOL    HW1 1160   0.367   0.927   1.754  4.2242  1.5633 -2.5408
  387SOL    HW2 1161   0.399   0.788   1.682 -2.9646 -0.5529  0.0032
  388SOL     OW 1162   2.274   0.975   2.164 -0.2448 -0.4197 -0.1735
  388SOL    HW1 1163   2.182   1.013   2.135 -1.8716  1.8876 -2.3209
  388SOL    HW2 1164   2.307   0.913   2.088 -2.3005  0.1653  0.4833
  389SOL     OW 1165   1.945   1.354   2.024 -0.2628  0.2563  0.0419
  389SOL    HW1 1166   1.962   1.347   1.924  1.0343 -1.2702 -1.5974
  389SOL    HW2 1167   2.002   1.437   2.060  2.8339 -0.4148 -1.9689
  390SOL     OW 1168   1.675   2.859   0.217 -0.1219 -0.0246  0.1175
  390SOL    HW1 1169   1.646   2.927   0.290  1.5811  0.3806  0.7285
  390SOL    HW2 1170   1.595   2.816   0.169 -1.1422 -0.4344  0.7246
  391SOL     OW 1171   2.085   1.944   1.102 -0.5101  0.1496 -0.0944
  391SOL    HW1 1172   2.025   1.980   1.028 -0.3273  0.3235  0.4858
  391SOL    HW2 1173   2.028   1.896   1.169  3.1317  0.4701 -0.4302
  392SOL     OW 1174   3.065   2.760   1.331  0.5702  0.1558  0.5998
  392SOL    HW1 1175   2.970   2.775   1.367 -3.0299  0.4985 -0.5338
  392SOL    HW2 1176   3.061   2.729   1.231  1.7488  0.4731 -1.5582
  393SOL     OW 1177   2.060   1.886   0.000 -0.5517  0.3404 -0.4350
  393SOL    HW1 1178   2.031   1.867   0.096  0.1716 -1.7400  0.0093
  393SOL    HW2 1179   1.997   1.841   3.010  1.5938  0.6560 -1.2069
  394SOL     OW 1180   0.220   0.448   2.461 -0.3193 -0.0459 -0.2814
  394SOL    HW1 1181   0.270   0.412   2.382 -0.8975  0.9522 -0.1988
  394SOL    HW2 1182   0.149   0.517   2.428  1.2646  1.4143 -0.9873
  395SOL     OW 1183   0.950   0.675   0.724  0.2693  0.5814 -0.1213
  395SOL    HW1 1184   0.970   0.686   0.823 -0.3802 -0.3633  1.8826
  395SOL    HW2 1185   0.862   0.710   0.695  0.3599 -2.5723  1.2214
  396SOL     OW 1186   1.125   0.927   2.993 -0.2108  0.1024 -0.3580
  396SOL    HW1 1187   1.222   0.899   3.008  2.2366 -0.0935 -1.3712
  396SOL    HW2 1188   1.118   0.962   2.899  0.9473 -2.0521  0.9090
  397SOL     OW 1189   0.375   0.607   1.947  0.2943 -0.0355 -0.3747
  397SOL    HW1 1190   0.299   0.615   2.014 -0.8454  1.5097 -0.6178
  397SOL    HW2 1191   0.389   0.693   1.896 -2.4684 -0.4402  0.0117
  398SOL     OW 1192   0.887   3.060   0.315  0.2038 -0.6986  0.8439
  398SOL    HW1 1193   0.931   2.981   0.358 -2.6847 -1.7388  0.9992
  398SOL    HW2 1194   0.799   3.028   0.270 -1.5003 -0.1911  0.9503
  399SOL     OW 1195   2.304   2.989   1.701 -0.2205  0.1273  0.5065
  399SOL    HW1 1196   2.272   2.902   1.745 -0.5395 -0.3132  1.6108
  399SOL    HW2 1197   2.397   3.021   1.732  1.3837 -0.2805 -0.6474
  400SOL     OW 1198   0.589   1.802   2.278  0.2207  0.3030  0.0560
  400SOL    HW1 1199   0.500   1.757   2.300 -1.1670 -1.6840 -0.4404
  400SOL    HW2 1200   0.632   1.852   2.354 -0.5299 -3.7557 -0.9662
  401SOL     OW 1201   0.642   0.663   2.379  0.4387 -0.0519  0.2488
  401SOL    HW1 1202   0.693   0.651   2.468 -0.3056 -2.2355  0.7321
  401SOL    HW2 1203   0.570   0.732   2.393  0.4580  0.4118  1.1548
  402SOL     OW 1204   2.961   2.101   1.670  0.0107 -0.2847 -0.0649
  402SOL    HW1 1205   2.952   2.012   1.719 -0.6547  1.3311  3.3062
  402SOL    HW2 1206   3.047   2.106   1.620  0.1444 -2.2882 -0.9990
  403SOL     OW 1207   0.316   1.085   1.725 -0.5032 -0.1027 -0.0661
  403SOL    HW1 1208   0.230   1.090   1.669  0.3279 -0.2650 -2.3931
  403SOL    HW2 1209   0.341   1.177   1.758  0.0522  1.7491  0.8252
  404SOL     OW 1210   3.048   2.808   1.830 -0.1499 -0.1906  0.2382
  404SOL    HW1 1211   0.053   2.831   1.773  1.5786  0.7999  2.1252
  404SOL    HW2 1212   2.986   2.744   1.777 -0.8688 -0.4988  0.8029
  405SOL     OW 1213   0.363   0.325   1.678 -0.5267 -0.1308 -0.1621
  405SOL    HW1 1214   0.405   0.340   1.770  0.4769  0.5150 -2.1277
  405SOL    HW2 1215   0.411   0.251   1.625 -1.6130  1.6757  0.4487
  406SOL     OW 1216   1.885   2.250   2.769 -0.1594  0.0160  0.1213
  406SOL    HW1 1217   1.877   2.272   2.871  3.2081  0.8507  1.4397
  406SOL    HW2 1218   1.960   2.184   2.741  2.0424  1.8681 -1.8180
  407SOL     OW 1219   1.364   1.533   2.135 -0.2610  0.3571 -0.0222
  407SOL    HW1 1220   1.271   1.558   2.105 -1.9927  0.2805  0.8457
  407SOL    HW2 1221   1.381   1.594   2.212 -1.7185 -1.0993 -2.4609
  408SOL     OW 1222   0.551   0.287   2.673 -0.5471  0.6765  0.5784
  408SOL    HW1 1223   0.566   0.277   2.573 -0.3405  2.4957  3.4810
  408SOL    HW2 1224   0.463   0.336   2.682 -0.3206 -2.1994 -1.2109
  409SOL     OW 1225   0.396   1.781   0.308  0.0851 -0.0744  0.5730
  409SOL    HW1 1226   0.440   1.766   0.398  0.0058  3.5488 -0.5822
  409SOL    HW2 1227   0.302   1.739   0.304  0.8241  1.2968  2.9388
  410SOL     OW 1228   2.543   1.582   0.293  0.5210  0.4976  0.3816
  410SOL    HW1 1229   2.601   1.664   0.281 -0.8499 -3.3957  2.0938
  410SOL    HW2 1230   2.482   1.558   0.216 -0.5365 -0.5649  1.1065
  411SOL     OW 1231   2.812   0.501   0.986 -0.5042 -0.1295 -0.0640
  411SOL    HW1 1232   2.768   0.419   1.025 -2.5431  0.6478 -2.3475
  411SOL    HW2 1233   2.788   0.509   0.887 -0.2705 -0.9057  0.8304
  412SOL     OW 1234   1.253   0.963   1.127  0.3124  0.9921  0.1013
  412SOL    HW1 1235   1.340   0.976   1.179 -1.5259  1.8708 -1.7839
  412SOL    HW2 1236   1.173   0.943   1.187 -0.4392  0.5114  0.9708
  413SOL     OW 1237   0.553   2.977   1.215  0.2832  0.0941 -0.1733
  413SOL    HW1 1238   0.519   2.891   1.175  1.9223  3.0991  1.1965
  413SOL    HW2 1239   0.615   3.021   1.149  0.5373 -1.6258  2.8694
  414SOL     OW 1240   0.001   1.830   2.837  0.3090 -0.2073 -0.3935
  414SOL    HW1 1241   3.077   1.926   2.796  0.2675 -0.4225  1.1578
  414SOL    HW2 1242   0.072   1.826   2.912  1.0089  0.4422 -1.0856
  415SOL     OW 1243   0.346   2.075   3.017 -0.3678 -0.3730  0.3386
  415SOL    HW1 1244   0.438   2.067   3.048 -3.6867 -1.7572 -1.9049
  415SOL    HW2 1245   0.293   1.990   3.027 -1.7117  2.0147  1.1231
  416SOL     OW 1246   1.778   0.230   0.425  0.1624 -0.0923  0.1523
  416SOL    HW1 1247   1.741   0.236   0.522 -0.9444  0.8135  0.5586
  416SOL    HW2 1248   1.784   0.322   0.382 -1.9170  0.7889 -1.4202
  417SOL     OW 1249   0.316   0.993   0.594  0.0037  0.0826  0.0720
  417SOL    HW1 1250   0.304   1.067   0.664 -0.1880  1.5240 -0.2035
  417SOL    HW2 1251   0.228   0.981   0.546  0.4420 -1.3278  1.0736
  418SOL     OW 1252   2.197   1.138   1.918 -0.1502  0.7204 -0.7122
  418SOL    HW1 1253   2.175   1.039   1.930  0.1042  1.4344 -1.0126
  418SOL    HW2 1254   2.125   1.189   1.868  1.6582 -0.0874  0.4962
  419SOL     OW 1255   3.019   0.454   0.612 -0.0466  0.3815  0.0493
  419SOL    HW1 1256   3.051   0.533   0.659 -0.9158  0.6376 -1.9715
  419SOL    HW2 1257   0.025   0.405   0.587 -4.3239 -0.3987 -1.4636
  420SOL     OW 1258   0.517   1.408   0.457 -0.1984  0.0405 -0.0142
  420SOL    HW1 1259   0.454   1.394   0.378 -2.3402 -0.2159 -0.4830
  420SOL    HW2 1260   0.512   1.329   0.522  1.3760  0.3346 -0.1725
  421SOL     OW 1261   0.883   2.611   0.763 -0.4956  0.3491  0.0864
  421SOL    HW1 1262   0.864   2.602   0.662 -0.5153 -0.0632 -0.4543
  421SOL    HW2 1263   0.983   2.642   0.773  1.9150  1.7193 -2.6229
  422SOL     OW 1264   0.067   0.726   1.305 -0.3272 -0.3770  0.3459
  422SOL    HW1 1265   3.041   0.722   1.319 -2.5132 -0.6711  1.0056
  422SOL    HW2 1266   0.102   0.800   1.241  1.4078  2.0101 -3.8067
  423SOL     OW 1267   1.207   1.485   1.388 -0.3574 -0.8247  0.4583
  423SOL    HW1 1268   1.137   1.420   1.364 -1.5191  1.5162  3.0926
  423SOL    HW2 1269   1.277   1.506   1.313  1.2452  0.7930  0.5883
  424SOL     OW 1270   2.045   1.222   2.858 -0.1928 -0.0531  0.6234
  424SOL    HW1 1271   2.030   1.215   2.957  1.3899 -1.4993  0.6400
  424SOL    HW2 1272   1.959   1.241   2.810 -0.2240  0.1830 -1.4036
  425SOL     OW 1273   0.007   0.397   1.914  0.1933  0.1548 -0.1408
  425SOL    HW1 1274   0.063   0.440   1.840 -0.1050  0.3284  2.7559
  425SOL    HW2 1275   2.988   0.419   1.896 -2.2419 -1.1999  1.2106
  426SOL     OW 1276   2.571   2.932   2.496  0.2269  0.3351 -0.4140
  426SOL    HW1 1277   2.596   2.842   2.539  0.3383  0.0054 -3.0792
  426SOL    HW2 1278   2.469   2.933   2.493 -0.7912 -0.7229  1.7449
  427SOL     OW 1279   0.868   0.721   2.228 -0.2755  0.2819 -0.1266
  427SOL    HW1 1280   0.780   0.695   2.279 -2.4430 -1.7320  3.3631
  427SOL    HW2 1281   0.857   0.726   2.128  0.5964 -2.1691 -0.4379
  428SOL     OW 1282   2.210   0.849   1.661 -0.1120  0.2034  0.1545
  428SOL    HW1 1283   2.311   0.857   1.640 -0.9934  0.2881  0.5402
  428SOL    HW2 1284   2.148   0.911   1.609  2.0954 -2.8272  0.1838
  429SOL     OW 1285   2.774   2.800   0.418 -0.2223  0.3709 -0.1046
  429SOL    HW1 1286   2.795   2.897   0.394  0.2468  0.5541 -2.0467
  429SOL    HW2 1287   2.674   2.783   0.420 -1.8802  2.4059 -0.9738
  430SOL     OW 1288   1.696   1.881   2.488 -0.1396  0.3883  0.1927
  430SOL    HW1 1289   1.708   1.873   2.382  0.0769 -0.1038 -3.5885
  430SOL    HW2 1290   1.633   1.801   2.514 -0.6594 -0.6120  1.3698
  431SOL     OW 1291   3.012   1.751   1.297  0.6479 -0.0817  0.7806
  431SOL    HW1 1292   3.045   1.686   1.225 -2.2523 -1.5691 -0.0842
  431SOL    HW2 1293   0.015   1.778   1.357 -0.9867  0.3053  1.2698
  432SOL     OW 1294   1.625   2.767   2.679 -0.1303 -0.3334  0.0290
  432SOL    HW1 1295   1.597   2.672   2.700  1.4895  0.1167  0.8245
  432SOL    HW2 1296   1.726   2.760   2.663 -2.2312 -3.4230 -2.2973
  433SOL     OW 1297   1.793   0.047   2.364  0.2962 -0.0996  0.4045
  433SOL    HW1 1298   1.816   3.059   2.434 -0.8091 -2.3446  1.7888
  433SOL    HW2 1299   1.697   0.025   2.325 -3.7929  2.4694 -0.7460
  434SOL     OW 1300   0.470   2.576   2.148  0.0136 -0.0682  0.7427
  434SOL    HW1 1301   0.395   2.506   2.147 -1.5358 -2.3670  1.9631
  434SOL    HW2 1302   0.464   2.628   2.054  0.0245  1.2806 -3.7322
  435SOL     OW 1303   0.002   2.363   0.058 -0.1630  0.2387  0.1091
  435SOL    HW1 1304   0.068   2.424   0.108 -0.6295 -1.1883  0.7754
  435SOL    HW2 1305   0.022   2.263   0.071  1.3220 -2.4350 -0.1220
  436SOL     OW 1306   0.655   0.591   1.773  0.0067  0.3304 -0.0198
  436SOL    HW1 1307   0.697   0.498   1.760  2.3865 -0.6761  0.2018
  436SOL    HW2 1308   0.586   0.608   1.703 -1.7460 -1.5619  1.4464
  437SOL     OW 1309   0.479   2.460   2.584  0.0929 -0.5272  0.8906
  437SOL    HW1 1310   0.500   2.500   2.491 -0.7105 -1.8322  1.4643
  437SOL    HW2 1311   0.487   2.527   2.659 -0.6415  2.8193  1.1245
  438SOL     OW 1312   0.578   1.700   1.431 -0.4055  0.0921 -0.4042
  438SOL    HW1 1313   0.680   1.709   1.432 -0.3811 -1.3355  0.0100
  438SOL    HW2 1314   0.546   1.642   1.507  0.3256 -1.9742 -0.8854
  439SOL     OW 1315   2.151   0.992   2.740  0.4088 -0.2587  0.2618
  439SOL    HW1 1316   2.128   1.083   2.782 -0.5866 -0.9869  2.2769
  439SOL    HW2 1317   2.209   0.997   2.659  0.8470  2.7235 -1.1221
  440SOL     OW 1318   0.558   0.585   0.026  0.3408  0.6240  0.1554
  440SOL    HW1 1319   0.646   0.535   0.049  2.9323 -0.4396  0.9620
  440SOL    HW2 1320   0.579   0.685   0.024  0.6887  1.8321 -1.5412
  441SOL     OW 1321   0.849   2.059   1.427 -0.5762  0.0191 -0.1826
  441SOL    HW1 1322   0.795   2.051   1.515 -2.0531 -0.7999  0.5790
  441SOL    HW2 1323   0.848   2.152   1.389 -0.3643 -0.6306  0.5675
  442SOL     OW 1324   2.801   1.630   0.773  0.3929 -0.1308  0.3694
  442SOL    HW1 1325   2.715   1.681   0.746  1.6042 -0.3436 -0.3838
  442SOL    HW2 1326   2.784   1.583   0.860 -2.1272  2.1089  1.9882
  443SOL     OW 1327   2.649   2.189   2.492 -0.1085  0.0931  0.0345
  443SOL    HW1 1328   2.735   2.234   2.463 -0.2263 -0.9922  0.3645
  443SOL    HW2 1329   2.668   2.104   2.555 -0.6248 -2.2708  1.0058
  444SOL     OW 1330   1.402   1.317   2.698  0.0363 -0.3559 -0.0819
  444SOL    HW1 1331   1.345   1.388   2.746 -2.6070 -0.4501 -0.8201
  444SOL    HW2 1332   1.500   1.346   2.692 -0.6499  2.1442  0.4033
  445SOL     OW 1333   2.525   0.042   1.783  0.5515 -0.0471 -0.6622
  445SOL    HW1 1334   2.593   0.095   1.729 -0.5605  0.3280  0.8804
  445SOL    HW2 1335   2.492   0.093   1.866 -3.5773 -0.6223  4.0826
  446SOL     OW 1336   0.372   1.061   1.006  0.3423 -0.2032  0.1033
  446SOL    HW1 1337   0.366   1.148   1.057  0.3446 -1.9696 -2.4512
  446SOL    HW2 1338   0.319   1.074   0.922 -0.5346  0.5737 -1.0242
  447SOL     OW 1339   1.019   1.751   0.934 -0.4874  0.3052  0.1274
  447SOL    HW1 1340   0.994   1.835   0.988 -2.5625  1.7427 -0.2940
  447SOL    HW2 1341   0.944   1.705   0.881 -1.2089  2.1952 -0.1327
  448SOL     OW 1342   1.196   1.078   1.571 -0.3228  0.5078 -0.3356
  448SOL    HW1 1343   1.187   1.176   1.585 -0.6558 -2.1338 -0.7602
  448SOL    HW2 1344   1.124   1.022   1.620 -1.2102  0.6616  0.9261
  449SOL     OW 1345   2.806   2.060   2.066  0.1180 -0.2885 -0.2444
  449SOL    HW1 1346   2.790   2.155   2.105  1.9518  1.1531 -0.0632
  449SOL    HW2 1347   2.905   2.035   2.071  0.0534  0.4763  0.8936
  450SOL     OW 1348   0.139   1.769   1.718  0.1363  0.2828  0.2161
  450SOL    HW1 1349   0.046   1.753   1.753  0.9220  0.0433 -0.5812
  450SOL    HW2 1350   0.198   1.800   1.799  3.6401  0.8632  1.1096
  451SOL     OW 1351   1.984   0.794   1.132  1.0778  0.0491  0.7465
  451SOL    HW1 1352   1.892   0.758   1.155  1.0610  2.1344 -1.4525
  451SOL    HW2 1353   1.996   0.788   1.029  0.1217  2.1353 -3.1772
  452SOL     OW 1354   0.597   1.312   0.800 -0.1796  0.3770 -0.4530
  452SOL    HW1 1355   0.668   1.360   0.856  0.2726  0.1445  0.0951
  452SOL    HW2 1356   0.504   1.340   0.825 -1.7477 -0.0126 -2.2781
  453SOL     OW 1357   1.296   2.308   0.742 -0.3843 -0.5230 -0.4649
  453SOL    HW1 1358   1.231   2.368   0.696  2.1698 -0.3948  1.1137
  453SOL    HW2 1359   1.343   2.247   0.675  1.3641 -0.2850  1.2403
  454SOL     OW 1360   0.639   1.516   2.906  0.0519  0.5033 -0.0248
  454SOL    HW1 1361   0.604   1.481   2.996  0.9189  0.3649  0.5444
  454SOL    HW2 1362   0.661   1.437   2.838 -1.2795 -0.8269 -0.2045
  455SOL     OW 1363   1.333   0.654   0.420 -0.5048  0.2464  0.2161
  455SOL    HW1 1364   1.305   0.750   0.401  0.6160  2.0151  0.2810
  455SOL    HW2 1365   1.252   0.596   0.435 -0.4442 -0.1179  2.3020
  456SOL     OW 1366   2.032   2.212   1.281 -0.0248 -1.0056 -0.1205
  456SOL    HW1 1367   2.071   2.202   1.377  1.9312 -0.0119 -0.3262
  456SOL    HW2 1368   2.087   2.169   1.215 -2.3684  1.9410 -0.5189
  457SOL     OW 1369   1.738   3.012   2.840  0.6655  0.0840  0.1494
  457SOL    HW1 1370   1.657   3.056   2.793 -3.9784  2.8687 -2.0306
  457SOL    HW2 1371   1.803   2.968   2.774  0.9180  0.8682  0.6566
  458SOL     OW 1372   2.365   0.598   0.353  0.4603  0.2885 -0.6075
  458SOL    HW1 1373   2.364   0.513   0.299  0.7147  0.4141 -3.0752
  458SOL    HW2 1374   2.293   0.602   0.427  0.9600  2.7241  2.4946
  459SOL     OW 1375   0.038   0.615   2.335 -0.0021  0.3066  0.2739
  459SOL    HW1 1376   0.023   0.698   2.395  1.0226 -2.1282  0.6285
  459SOL    HW2 1377   3.035   0.596   2.283  1.7966 -0.9323  3.1373
  460SOL     OW 1378   0.121   1.142   3.008  0.2739  0.2365  0.2622
  460SOL    HW1 1379   0.105   1.041   2.998 -0.1137 -1.1113 -0.2614
  460SOL    HW2 1380   0.029   1.189   3.006  2.2385 -0.7113  1.6363
  461SOL     OW 1381   2.806   2.662   0.743 -0.1418 -0.6226  0.3345
  461SOL    HW1 1382   2.815   2.754   0.703  1.2699 -1.2375  2.6630
  461SOL    HW2 1383   2.706   2.635   0.759 -1.5633  0.6797  2.2665
  462SOL     OW 1384   0.036   0.040   1.606  0.0419 -0.4280  0.1929
  462SOL    HW1 1385   0.029   0.143   1.608  0.8887  1.2364 -0.1615
  462SOL    HW2 1386   0.050   0.002   1.515 -0.9908 -0.3839  0.5578
  463SOL     OW 1387   1.921   1.949   2.156  0.1939  0.0866 -0.7790
  463SOL    HW1 1388   1.920   2.008   2.072 -2.8573  2.2656  0.2682
  463SOL    HW2 1389   1.862   1.866   2.142  2.4528 -0.3804  1.8243
  464SOL     OW 1390   0.769   0.021   1.428 -0.1677 -0.0624 -0.4320
  464SOL    HW1 1391   0.713   0.091   1.380 -0.7554 -2.6254 -0.1575
  464SOL    HW2 1392   0.800   0.048   1.523  0.3510  1.7499 -2.0280
  465SOL     OW 1393   0.642   0.116   1.808 -0.4155 -0.5715 -0.1345
  465SOL    HW1 1394   0.705   0.037   1.819  1.6250  0.2609 -0.4750
  465SOL    HW2 1395   0.693   0.213   1.818  4.7383  1.8182 -0.5485
  466SOL     OW 1396   1.522   2.582   2.192  0.7307 -0.1586  0.2088
  466SOL    HW1 1397   1.445   2.515   2.202 -1.9941 -0.9782 -0.4525
  466SOL    HW2 1398   1.575   2.573   2.105 -0.5960 -0.1249 -2.2067
  467SOL     OW 1399   0.333   2.000   1.150  1.0950 -0.4876  0.1745
  467SOL    HW1 1400   0.334   1.948   1.058 -2.5390 -0.7229 -0.3026
  467SOL    HW2 1401   0.385   2.086   1.152  2.4143 -2.2086  2.5674
  468SOL     OW 1402   2.538   1.672   2.479 -0.4718 -0.3458  0.0019
  468SOL    HW1 1403   2.633   1.712   2.479 -0.0533  0.7393  0.5468
  468SOL    HW2 1404   2.494   1.670   2.572  0.5500  0.6174 -1.3365
  469SOL     OW 1405   1.223   1.776   0.613 -0.6773 -0.1058 -0.5701
  469SOL    HW1 1406   1.263   1.835   0.689  1.5326  0.1532  1.5109
  469SOL    HW2 1407   1.148   1.828   0.565 -0.7135  1.3667 -0.4285
  470SOL     OW 1408   2.628   1.297   1.471 -0.2488 -0.4328 -0.1451
  470SOL    HW1 1409   2.588   1.388   1.476  1.7922  0.4940 -0.0731
  470SOL    HW2 1410   2.563   1.237   1.517  1.6001 -0.0063 -1.6046
  471SOL     OW 1411   0.332   2.350   2.981  0.5199  0.1614  0.5944
  471SOL    HW1 1412   0.347   2.250   3.003 -2.1176  0.9870 -1.9786
  471SOL    HW2 1413   0.414   2.411   2.981 -2.0924 -1.4037  0.7810
  472SOL     OW 1414   3.036   1.749   2.090 -0.3938 -0.3403 -0.5454
  472SOL    HW1 1415   0.022   1.723   2.020 -0.8700  1.4892  1.8559
  472SOL    HW2 1416   2.951   1.699   2.079  2.0538 -4.1815 -0.0229
  473SOL     OW 1417   0.735   2.796   0.433  0.0499  0.4472  0.3925
  473SOL    HW1 1418   0.731   2.736   0.516 -0.2357  2.1109  0.1443
  473SOL    HW2 1419   0.835   2.793   0.402 -2.0561 -3.1616  2.0729
  474SOL     OW 1420   2.810   2.967   1.042 -0.4741 -0.6706 -0.0567
  474SOL    HW1 1421   2.724   3.008   1.005 -0.3847 -0.0111 -0.7466
  474SOL    HW2 1422   2.802   2.866   1.029 -0.2230 -1.6551  0.7314
  475SOL     OW 1423   1.845   3.074   1.817 -0.4173  0.2290  0.0109
  475SOL    HW1 1424   1.933   0.041   1.825  0.3298  0.1266  0.4102
  475SOL    HW2 1425   1.781   0.055   1.765  1.3280 -0.9373 -2.2412
  476SOL     OW 1426   0.645   0.636   0.646  0.5479 -0.1043 -0.3313
  476SOL    HW1 1427   0.691   0.710   0.595 -2.1102 -0.5895  1.1029
  476SOL    HW2 1428   0.546   0.658   0.669 -0.2548  2.8328  1.7405
  477SOL     OW 1429   0.896   2.261   1.031 -0.9332  0.2899  0.3614
  477SOL    HW1 1430   0.852   2.319   0.961  0.8734  0.0437 -2.0199
  477SOL    HW2 1431   0.993   2.250   1.004  3.0624 -0.4885 -0.0769
  478SOL     OW 1432   0.159   2.336   2.388  0.0291 -0.0792  0.4219
  478SOL    HW1 1433   0.064   2.367   2.396  0.9099 -0.8640  0.3244
  478SOL    HW2 1434   0.196   2.317   2.478 -2.8850 -0.6574 -1.1480
  479SOL     OW 1435   0.139   0.589   1.751 -0.0466  0.0389  0.2751
  479SOL    HW1 1436   0.224   0.631   1.780  1.4248  0.8023 -4.2380
  479SOL    HW2 1437   0.129   0.600   1.648 -3.4568 -1.5460 -2.7235
  480SOL     OW 1438   2.816   2.451   0.009 -0.2873 -0.0003 -0.1343
  480SOL    HW1 1439   2.803   2.523   0.085  0.0526  1.1764  0.6421
  480SOL    HW2 1440   2.907   2.417   0.028  0.0523  0.6575  1.0224
  481SOL     OW 1441   1.459   2.054   2.043  0.7858 -0.1149 -0.8467
  481SOL    HW1 1442   1.474   1.976   1.983  0.6117  2.8202 -1.7490
  481SOL    HW2 1443   1.432   2.026   2.139 -0.2727 -0.5932  2.3300
  482SOL     OW 1444   1.624   2.122   2.807  0.5024  0.3270 -0.1053
  482SOL    HW1 1445   1.558   2.094   2.734 -0.1832  1.0709 -0.1793
  482SOL    HW2 1446   1.715   2.151   2.771  0.9851 -0.4812 -0.8673
  483SOL     OW 1447   0.702   2.035   2.502 -0.4194  0.2388 -0.3304
  483SOL    HW1 1448   0.700   1.939   2.532 -1.7793  0.1877 -1.6743
  483SOL    HW2 1449   0.649   2.090   2.566 -0.0005 -0.4543  0.6002
  484SOL     OW 1450   0.022   0.531   1.106 -0.2023  0.1607  0.3670
  484SOL    HW1 1451   3.001   0.509   1.091  0.3287 -0.2788  1.1152
  484SOL    HW2 1452   0.033   0.592   1.187 -1.0360 -0.4473 -1.5848
  485SOL     OW 1453   2.120   0.599   0.493  0.0762  0.2437  0.4030
  485SOL    HW1 1454   2.126   0.508   0.544  0.8865  3.1678 -1.3167
  485SOL    HW2 1455   2.044   0.596   0.426 -2.1079  0.7081  0.5246
  486SOL     OW 1456   1.937   2.792   2.337  0.3362 -0.0811  0.5243
  486SOL    HW1 1457   2.001   2.863   2.298 -2.0649 -1.7958  0.8012
  486SOL    HW2 1458   1.975   2.751   2.421  0.7486  2.9975  0.5241
  487SOL     OW 1459   1.436   1.467   0.754 -1.0514 -0.3437  0.0373
  487SOL    HW1 1460   1.486   1.406   0.818 -2.5275 -3.3355  0.1815
  487SOL    HW2 1461   1.479   1.561   0.746  2.5804 -0.4308 -2.2806
  488SOL     OW 1462   2.230   1.318   0.215 -0.1635 -0.0895 -0.4546
  488SOL    HW1 1463   2.272   1.262   0.139 -0.3362  1.6370 -0.8437
  488SOL    HW2 1464   2.243   1.416   0.188 -1.4530 -1.4308 -0.7552
  489SOL     OW 1465   2.412   0.160   0.536 -0.5007  0.2935 -0.0059
  489SOL    HW1 1466   2.330   0.212   0.502 -0.4387 -0.7224 -2.4426
  489SOL    HW2 1467   2.483   0.156   0.460  3.6343  1.7521 -1.5566
  490SOL     OW 1468   1.449   2.741   0.055  0.4235 -0.0428  0.3030
  490SOL    HW1 1469   1.403   2.763   3.044  1.0391  0.7604 -3.4417
  490SOL    HW2 1470   1.400   2.790   0.127  1.6692 -1.3450  0.7497
  491SOL     OW 1471   0.794   0.893   0.577 -0.0472 -0.6449 -0.2234
  491SOL    HW1 1472   0.769   0.967   0.639  1.0439 -1.4942 -1.9745
  491SOL    HW2 1473   0.884   0.918   0.528  0.0114 -0.2779  2.2791
  492SOL     OW 1474   1.621   0.345   3.027  0.4422  0.1014  0.4069
  492SOL    HW1 1475   1.630   0.274   0.019 -0.3656 -2.6744 -0.9751
  492SOL    HW2 1476   1.523   0.365   3.008  0.4088 -1.0418  1.1817
  493SOL     OW 1477   1.861   2.293   3.030  0.1355  0.3862 -0.1562
  493SOL    HW1 1478   1.791   2.249   0.009 -0.0850  0.6638  2.6007
  493SOL    HW2 1479   1.833   2.383   3.004  1.3522 -1.6494  0.8257
  494SOL     OW 1480   0.535   1.176   0.585 -0.1759  0.1952 -0.2004
  494SOL    HW1 1481   0.496   1.083   0.612 -1.5807  1.1625  1.3907
  494SOL    HW2 1482   0.573   1.222   0.667  0.0246 -1.3046 -1.2476
  495SOL     OW 1483   0.022   2.655   1.069  0.2689 -0.3799  0.1947
  495SOL    HW1 1484   0.015   2.638   0.969 -0.4533  0.1425 -1.0304
  495SOL    HW2 1485   0.029   2.573   1.125 -1.4870  1.3265 -1.3415
  496SOL     OW 1486   2.318   0.365   1.678  0.7191 -0.3038  0.4250
  496SOL    HW1 1487   2.406   0.374   1.624  0.2126  0.9680  1.6694
  496SOL    HW2 1488   2.260   0.286   1.659  0.0537  0.9612 -2.0081
  497SOL     OW 1489   1.903   1.822   2.643  0.0560 -0.0337 -0.3834
  497SOL    HW1 1490   1.826   1.833   2.571  0.2077 -0.0196 -5.5012
  497SOL    HW2 1491   1.985   1.770   2.610  2.2515 -4.0763  0.8263
  498SOL     OW 1492   0.855   1.959   0.707  0.4421 -0.1790 -0.0911
  498SOL    HW1 1493   0.811   1.877   0.672 -1.6524  2.2579 -2.2172
  498SOL    HW2 1494   0.908   1.949   0.797 -1.2388  0.4466  1.0835
  499SOL     OW 1495   0.560   1.817   0.981 -0.6316 -0.5009  0.0038
  499SOL    HW1 1496   0.594   1.909   1.008 -0.5882 -0.7842  1.8577
  499SOL    HW2 1497   0.492   1.830   0.907  2.6338  2.4378 -1.4271
  500SOL     OW 1498   1.325   2.191   0.344  0.5859  0.1404  0.0356
  500SOL    HW1 1499   1.367   2.165   0.255  0.0329  0.2038 -1.8839
  500SOL    HW2 1500   1.381   2.155   0.422 -0.0378  1.7483  0.6663
  501SOL     OW 1501   2.318   2.626   1.260  0.6863  0.0562  0.1005
  501SOL    HW1 1502   2.387   2.616   1.337  2.0939  2.7717  4.1750
  501SOL    HW2 1503   2.237   2.682   1.286 -3.0181  0.3122 -0.5821
  502SOL     OW 1504   0.351   0.810   1.446  0.1197 -0.4983 -0.7235
  502SOL    HW1 1505   0.323   0.737   1.385  1.5659  2.9522  0.8137
  502SOL    HW2 1506   0.302   0.895   1.430  2.1885 -1.0506 -2.7274
  503SOL     OW 1507   1.967   0.563   1.397  0.1592  0.3668 -0.4287
  503SOL    HW1 1508   1.904   0.634   1.415  0.5224 -0.0251  2.0577
  503SOL    HW2 1509   2.058   0.590   1.429 -2.5690 -0.8520 -2.8855
  504SOL     OW 1510   1.601   0.780   2.077  0.2642 -0.3312 -0.6304
  504SOL    HW1 1511   1.576   0.759   2.171  1.6452 -0.0034 -2.2591
  504SOL    HW2 1512   1.543   0.855   2.038 -0.8209 -1.0628 -0.3317
  505SOL     OW 1513   0.999   0.198   2.748 -0.4687  0.5502  0.2439
  505SOL    HW1 1514   0.985   0.102   2.779 -0.9251 -2.6034 -0.9390
  505SOL    HW2 1515   0.989   0.252   2.833  1.1638 -1.4718  3.3250
  506SOL     OW 1516   0.454   0.572   1.578  0.1508  0.0698 -0.1548
  506SOL    HW1 1517   0.373   0.599   1.530  0.7820 -0.3489  0.3283
  506SOL    HW2 1518   0.437   0.478   1.610 -1.5602 -1.9036 -0.3482
  507SOL     OW 1519   1.345   3.069   2.908  0.0707  0.2846 -0.0104
  507SOL    HW1 1520   1.326   2.970   2.911  1.4271 -1.4190  0.8257
  507SOL    HW2 1521   1.403   0.019   2.826  1.1390  0.4099 -0.9778
  508SOL     OW 1522   2.448   0.587   2.514  0.0987  0.1795 -0.1972
  508SOL    HW1 1523   2.376   0.571   2.584  1.1911 -1.0966 -1.5128
  508SOL    HW2 1524   2.412   0.650   2.441 -0.8528  2.4792 -1.7599
  509SOL     OW 1525   0.751   1.498   1.850 -0.2199  0.0625  0.2163
  509SOL    HW1 1526   0.790   1.559   1.778 -0.5828 -0.4116 -0.8023
  509SOL    HW2 1527   0.731   1.546   1.937  3.2654 -0.4914 -0.2886
  510SOL     OW 1528   3.068   1.169   0.885 -0.7453  0.0516  0.1843
  510SOL    HW1 1529   3.041   1.269   0.889 -0.9023 -0.2869  1.8490
  510SOL    HW2 1530   3.052   1.119   0.972  1.1565 -0.4272 -0.5593
  511SOL     OW 1531   1.678   1.616   0.963  0.4714  0.2912 -0.0530
  511SOL    HW1 1532   1.668   1.616   1.064 -1.8648  0.7005  0.8479
  511SOL    HW2 1533   1.771   1.562   0.951  1.9985 -4.5129  2.4584
  512SOL     OW 1534   0.770   0.927   0.257  0.2411 -0.5415 -0.3962
  512SOL    HW1 1535   0.744   0.996   0.329 -2.2138  0.6425  3.3015
  512SOL    HW2 1536   0.859   0.948   0.209  0.2312 -1.8506  0.1609
  513SOL     OW 1537   0.202   2.252   0.636  0.2517 -0.5045 -0.0800
  513SOL    HW1 1538   0.138   2.264   0.715 -3.2755 -2.5615 -0.8393
  513SOL    HW2 1539   0.305   2.265   0.656  3.0019 -1.3199 -0.1680
  514SOL     OW 1540   2.974   2.004   2.423 -0.6556  0.0317 -0.0374
  514SOL    HW1 1541   3.036   1.976   2.498 -3.6338  0.5465 -0.0985
  514SOL    HW2 1542   3.015   1.969   2.337 -1.7355 -1.8632  0.0638
  515SOL     OW 1543   2.469   0.770   0.169  0.0286  0.1572  0.1448
  515SOL    HW1 1544   2.526   0.823   0.229 -2.1517  1.5544  0.0457
  515SOL    HW2 1545   2.408   0.715   0.224 -1.2106  0.6455 -2.4409
  516SOL     OW 1546   2.373   2.803   0.831 -0.4158  0.4051  0.9302
  516SOL    HW1 1547   2.415   2.891   0.845 -0.0941 -4.6827  0.5672
  516SOL    HW2 1548   2.339   2.790   0.735  2.6572 -1.3978  0.1225
  517SOL     OW 1549   1.442   1.771   2.811 -0.1406  0.5021  1.0971
  517SOL    HW1 1550   1.522   1.760   2.876 -0.3258 -2.6555  0.0467
  517SOL    HW2 1551   1.365   1.832   2.841 -2.6600 -0.2372  0.5141
  518SOL     OW 1552   1.021   0.889   1.657 -0.1547  0.3098 -0.5183
  518SOL    HW1 1553   0.966   0.865   1.577 -1.0182  0.6781  0.9749
  518SOL    HW2 1554   1.012   0.815   1.729 -3.3953 -1.5704  2.6864
  519SOL     OW 1555   2.858   1.644   0.474  0.2359  0.1747 -0.3022
  519SOL    HW1 1556   2.840   1.631   0.572  1.8272  0.4291 -1.0257
  519SOL    HW2 1557   2.931   1.579   0.440  0.1114  0.3468 -1.3474
  520SOL     OW 1558   2.317   2.054   1.922  0.0376  0.4138  0.3411
  520SOL    HW1 1559   2.222   2.085   1.936 -3.3485 -1.8387 -0.5849
  520SOL    HW2 1560   2.369   2.078   2.005  0.9316 -0.3268  0.0686
  521SOL     OW 1561   0.966   3.074   2.470 -0.8186 -0.0324  0.1133
  521SOL    HW1 1562   0.915   0.084   2.465 -1.2295  1.9499 -0.5575
  521SOL    HW2 1563   0.948   3.020   2.386 -0.2689 -3.0127  1.9001
  522SOL     OW 1564   2.124   0.543   2.103 -0.2241  0.1290  0.3031
  522SOL    HW1 1565   2.218   0.583   2.081  1.3569 -0.4867  0.2268
  522SOL    HW2 1566   2.050   0.593   2.056  1.3889  0.1766 -1.5805
  523SOL     OW 1567   1.952   2.525   1.569 -0.1407  0.1032 -0.1994
  523SOL    HW1 1568   1.927   2.422   1.579  2.2001 -2.7574 -2.2395
  523SOL    HW2 1569   2.051   2.548   1.594  1.6712  1.8399  0.4756
  524SOL     OW 1570   1.608   2.033   3.056 -0.0943 -0.4925 -0.3503
  524SOL    HW1 1571   1.597   2.054   2.960 -0.0281 -0.3930  1.8157
  524SOL    HW2 1572   1.662   1.946   3.078  2.5202 -0.3079  1.5129
  525SOL     OW 1573   0.059   0.655   0.080 -0.3347  0.2170  0.0856
  525SOL    HW1 1574   0.150   0.639   0.123  0.7912  3.2420  1.6913
  525SOL    HW2 1575   0.071   0.634   3.061 -0.0775  0.1713  3.4679
  526SOL     OW 1576   1.192   2.796   0.564 -0.2173 -0.5231 -0.0766
  526SOL    HW1 1577   1.278   2.769   0.520 -1.4038  0.4236  2.3456
  526SOL    HW2 1578   1.189   2.772   0.662 -1.2971 -1.3659 -1.9708
  527SOL     OW 1579   2.581   1.765   0.686 -0.1028  0.0124  0.0836
  527SOL    HW1 1580   2.529   1.831   0.746 -2.9426 -1.3069 -0.0468
  527SOL    HW2 1581   2.514   1.698   0.645 -0.1451 -2.2196 -0.5341
  528SOL     OW 1582   0.722   1.010   1.956 -0.1304  0.0546  0.4250
  528SOL    HW1 1583   0.625   1.022   1.976  1.9985 -0.9464 -3.0795
  528SOL    HW2 1584   0.745   0.911   1.965 -0.5034  2.8536 -0.5491
  529SOL     OW 1585   1.523   1.680   2.546  0.3693 -0.3539  0.0356
  529SOL    HW1 1586   1.495   1.722   2.637  1.9627  2.7408  0.7111
  529SOL    HW2 1587   1.454   1.611   2.511 -0.6740 -1.5337 -1.5652
  530SOL     OW 1588   1.650   1.012   2.376 -0.2420  0.0041 -0.2100
  530SOL    HW1 1589   1.665   0.998   2.277  0.5483 -0.7098 -1.1812
  530SOL    HW2 1590   1.555   1.007   2.402 -0.7163  0.1758 -1.0244
  531SOL     OW 1591   0.587   2.215   2.681 -0.1663 -0.0514 -0.0339
  531SOL    HW1 1592   0.555   2.299   2.627  1.2680  1.9985 -1.1889
  531SOL    HW2 1593   0.631   2.243   2.768  2.2682 -0.2199  1.2927
  532SOL     OW 1594   2.492   0.845   0.601  0.4210 -0.1003  0.1973
  532SOL    HW1 1595   2.487   0.938   0.635  0.0295 -3.3880  0.5500
  532SOL    HW2 1596   2.529   0.792   0.677 -2.7908 -2.0643  0.8581
  533SOL     OW 1597   0.085   0.304   1.595 -0.1946  0.2667 -0.4944
  533SOL    HW1 1598   0.179   0.316   1.632  0.3571 -1.3748  1.0758
  533SOL    HW2 1599   0.091   0.296   1.496  3.0784 -0.9830  1.2860
  534SOL     OW 1600   0.585   0.126   0.010 -0.4904 -0.1220 -0.0296
  534SOL    HW1 1601   0.491   0.158   0.021 -2.3162 -0.6081  3.2271
  534SOL    HW2 1602   0.640   0.185   3.025 -3.0058  0.6855 -2.3218
  535SOL     OW 1603   0.168   0.028   0.118  0.0957 -0.4547 -0.0051
  535SOL    HW1 1604   0.218   3.049   0.053  0.6787  1.1472  2.0461
  535SOL    HW2 1605   0.116   3.052   0.187 -0.4174 -1.4458  2.6620
  536SOL     OW 1606   0.547   1.614   1.161 -0.0205 -0.4960 -0.5500
  536SOL    HW1 1607   0.556   1.694   1.097  0.2831 -0.6205  1.7108
  536SOL    HW2 1608   0.532   1.639   1.256 -0.6392 -2.2790 -2.7113
  537SOL     OW 1609   0.981   2.742   1.802  0.1348 -0.1356  0.0021
  537SOL    HW1 1610   1.067   2.791   1.801 -1.1839  0.4833  2.7195
  537SOL    HW2 1611   0.959   2.707   1.894 -2.1544 -3.3169  0.1907
  538SOL     OW 1612   0.224   1.842   2.989  0.4899 -0.7304  0.5737
  538SOL    HW1 1613   0.169   1.822   3.073  0.8169 -0.1778 -1.3013
  538SOL    HW2 1614   0.244   1.759   2.928 -0.2276 -0.8238 -1.0994
  539SOL     OW 1615   2.534   0.811   2.733  0.1514  0.2289  0.3863
  539SOL    HW1 1616   2.458   0.764   2.783 -0.6137 -2.4628  0.2923
  539SOL    HW2 1617   2.580   0.883   2.788 -0.6118 -1.0791  1.1543
  540SOL     OW 1618   1.693   0.531   2.638 -0.1529 -0.5219 -0.1310
  540SOL    HW1 1619   1.693   0.444   2.691  0.0536  0.8146 -2.0659
  540SOL    HW2 1620   1.787   0.575   2.636 -0.4264  0.5542 -0.5762
  541SOL     OW 1621   0.573   0.018   2.101 -0.4368 -0.0540  0.1756
  541SOL    HW1 1622   0.571   0.027   2.204 -1.9509  0.7045 -1.8201
  541SOL    HW2 1623   0.583   0.112   2.062  1.1703  1.9797  1.6082
  542SOL     OW 1624   1.793   2.816   3.029  0.1697  0.4411 -0.2363
  542SOL    HW1 1625   1.767   2.859   0.042 -0.3856 -0.9629  2.6029
  542SOL    HW2 1626   1.781   2.876   2.950  3.7198  1.3738 -0.3089
  543SOL     OW 1627   0.968   3.058   0.731  0.2713 -0.0620  0.1482
  543SOL    HW1 1628   0.941   0.077   0.754 -0.4441  0.3920  0.1880
  543SOL    HW2 1629   1.042   3.050   0.657 -0.9405  0.3529  0.9207
  544SOL     OW 1630   2.550   1.388   1.915 -0.4872 -0.1027 -0.4824
  544SOL    HW1 1631   2.569   1.391   2.017 -0.4170  1.1085 -0.4961
  544SOL    HW2 1632   2.502   1.474   1.887 -0.4017  1.7291 -2.4307
  545SOL     OW 1633   2.144   1.530   1.319 -0.0689 -0.6074 -0.4158
  545SOL    HW1 1634   2.203   1.600   1.278 -0.5584 -1.6756  3.6021
  545SOL    HW2 1635   2.100   1.474   1.241 -0.2848  0.8331  0.6659
  546SOL     OW 1636   0.112   0.072   2.189 -0.0552 -0.1011 -0.1430
  546SOL    HW1 1637   0.157   0.141   2.126  0.8611  0.3064  2.0332
  546SOL    HW2 1638   0.163   3.061   2.196  1.6935 -0.7059 -2.5239
  547SOL     OW 1639   1.344   0.625   0.815 -0.2919 -0.5694 -0.1619
  547SOL    HW1 1640   1.281   0.643   0.896 -0.0336  2.0631  1.2342
  547SOL    HW2 1641   1.442   0.619   0.844  1.2677  0.0769  4.2897
  548SOL     OW 1642   1.439   2.296   2.967 -0.1904 -0.4173  0.1728
  548SOL    HW1 1643   1.343   2.263   2.978 -0.7097 -0.2981  0.5176
  548SOL    HW2 1644   1.491   2.233   2.906  3.9905 -1.3016 -1.9397
  549SOL     OW 1645   2.352   0.363   0.196  0.0770  0.3773  0.0540
  549SOL    HW1 1646   2.292   0.402   0.126  0.1181  2.1579  1.9673
  549SOL    HW2 1647   2.392   0.271   0.168  0.2712 -3.9916 -0.0192
  550SOL     OW 1648   2.678   1.993   0.537 -0.1610 -0.0947 -0.4564
  550SOL    HW1 1649   2.629   1.917   0.582 -0.5361  0.2822  1.1296
  550SOL    HW2 1650   2.774   1.992   0.582 -1.1544 -1.2962  2.7928
  551SOL     OW 1651   1.313   2.777   2.199 -0.2311  0.4611  0.5542
  551SOL    HW1 1652   1.319   2.768   2.099  1.3654  0.4255  1.0609
  551SOL    HW2 1653   1.399   2.736   2.237  0.5272 -0.6536  0.6177
  552SOL     OW 1654   2.819   2.383   2.703  0.5797  0.0123 -0.2804
  552SOL    HW1 1655   2.872   2.339   2.631 -0.2597 -1.2951 -0.2914
  552SOL    HW2 1656   2.718   2.391   2.684  1.5827 -0.7999  1.0312
  553SOL     OW 1657   3.071   0.188   0.784 -0.0522 -0.3736 -0.1662
  553SOL    HW1 1658   0.027   0.223   0.872  0.3195  0.3938  0.6940
  553SOL    HW2 1659   3.063   0.087   0.780 -0.5233  0.9987  2.7580
  554SOL     OW 1660   2.170   2.025   1.567 -0.4187 -0.2026 -0.0826
  554SOL    HW1 1661   2.176   1.935   1.612 -0.5520 -0.2184 -1.3478
  554SOL    HW2 1662   2.192   2.099   1.633  0.7462  0.3846 -0.1030
  555SOL     OW 1663   1.646   2.240   2.040 -0.1771 -0.0418 -0.2610
  555SOL    HW1 1664   1.580   2.161   2.051 -1.2189  0.4421 -0.5454
  555SOL    HW2 1665   1.647   2.290   2.127  2.0886  0.9819  1.1828
  556SOL     OW 1666   1.294   1.294   1.113 -0.6014 -0.1018  0.0429
  556SOL    HW1 1667   1.298   1.264   1.014  0.9943 -0.9631 -0.7597
  556SOL    HW2 1668   1.305   1.397   1.118 -2.9497  3.0814  2.8297
  557SOL     OW 1669   2.229   2.760   1.847 -0.3767 -0.3466  0.2238
  557SOL    HW1 1670   2.308   2.748   1.913  0.2817 -0.4987  1.7644
  557SOL    HW2 1671   2.146   2.784   1.894 -1.3886 -0.5326 -2.4445
  558SOL     OW 1672   0.213   0.020   1.812  0.2935 -0.0998  0.3664
  558SOL    HW1 1673   0.189   0.096   1.873  1.8020 -0.1645 -0.4677
  558SOL    HW2 1674   0.162   0.032   1.724  1.5526  1.6326 -3.3353
  559SOL     OW 1675   2.027   0.088   0.602 -0.0758  0.2108 -0.0176
  559SOL    HW1 1676   2.109   0.070   0.657  2.0063 -2.0179  3.5568
  559SOL    HW2 1677   2.005   0.001   0.558 -1.8828  0.0973  3.2144
  560SOL     OW 1678   1.697   2.897   0.671 -0.1814  0.3293 -0.1208
  560SOL    HW1 1679   1.743   2.983   0.714 -1.0437  1.2204  1.6936
  560SOL    HW2 1680   1.665   2.839   0.750  0.8932  0.4482 -0.8467
  561SOL     OW 1681   0.566   0.291   0.984 -0.4316 -0.0552  0.5110
  561SOL    HW1 1682   0.616   0.380   0.989  0.9572  2.5872  2.4371
  561SOL    HW2 1683   0.488   0.295   0.917 -1.9567 -1.2148 -0.0219
  562SOL     OW 1684   0.555   1.241   2.436 -0.8756  0.2466  0.3090
  562SOL    HW1 1685   0.456   1.247   2.403 -1.8762 -3.8133 -2.1756
  562SOL    HW2 1686   0.602   1.170   2.383  3.8619  0.5003 -0.7310
  563SOL     OW 1687   1.639   2.158   2.307 -0.5438 -0.8273 -0.1032
  563SOL    HW1 1688   1.731   2.124   2.282 -0.1082  0.1791  0.9905
  563SOL    HW2 1689   1.585   2.098   2.362  3.2069  3.6259 -1.8537
  564SOL     OW 1690   2.754   0.906   0.740 -0.1113 -0.0321 -0.2343
  564SOL    HW1 1691   2.839   0.868   0.787  0.4536 -1.1758  1.4620
  564SOL    HW2 1692   2.687   0.929   0.815  0.5697 -0.3961  2.1207
  565SOL     OW 1693   0.636   0.857   0.018  0.2133  0.1853  0.2998
  565SOL    HW1 1694   0.682   0.917   3.029  1.1731 -0.7286  3.2169
  565SOL    HW2 1695   0.664   0.888   0.108  0.9310 -0.3972  0.7347
  566SOL     OW 1696   2.233   0.345   2.444  0.0421 -0.0404 -0.0478
  566SOL    HW1 1697   2.275   0.254   2.457 -0.9780  3.8060 -2.0611
  566SOL    HW2 1698   2.249   0.414   2.518  1.3454 -0.1665 -0.5026
  567SOL     OW 1699   1.512   0.811   0.570  0.0440  0.5768  0.0362
  567SOL    HW1 1700   1.446   0.744   0.529 -0.8308  3.2676  2.8019
  567SOL    HW2 1701   1.503   0.903   0.523  0.1812  0.4178  0.1637
  568SOL     OW 1702   1.898   1.771   2.904 -0.2995 -0.2276  0.2567
  568SOL    HW1 1703   1.806   1.794   2.934 -1.5566  0.2070 -1.7340
  568SOL    HW2 1704   1.899   1.780   2.797  1.6527  1.1404 -0.3614
  569SOL     OW 1705   1.972   1.258   0.047  0.0350  0.6800  0.1636
  569SOL    HW1 1706   1.940   1.348   0.021 -0.3790 -1.4403  1.0859
  569SOL    HW2 1707   2.050   1.257   0.115 -2.5602  0.2794  0.0185
  570SOL     OW 1708   0.291   2.311   1.910 -0.0715  0.5148  0.0674
  570SOL    HW1 1709   0.364   2.345   1.849  0.7104  2.1096  2.5757
  570SOL    HW2 1710   0.221   2.383   1.927 -2.1326 -1.4558  0.3403
  571SOL     OW 1711   0.168   1.394   1.718  0.6024 -0.0747  0.1356
  571SOL    HW1 1712   0.260   1.380   1.760 -0.8023 -0.2286  0.3387
  571SOL    HW2 1713   0.123   1.302   1.704 -0.8353  1.8093 -0.4572
  572SOL     OW 1714   1.559   1.899   0.446  0.3298 -0.0828 -0.2037
  572SOL    HW1 1715   1.462   1.863   0.436  1.2094 -0.3907 -0.3212
  572SOL    HW2 1716   1.609   1.852   0.525  4.3056  2.0008  1.2770
  573SOL     OW 1717   1.960   2.073   0.416  0.1782  0.1023 -0.0409
  573SOL    HW1 1718   1.917   2.122   0.338 -0.0855  1.6165  3.6135
  573SOL    HW2 1719   2.025   2.140   0.459 -1.7536 -0.6158  0.4769
  574SOL     OW 1720   0.626   0.231   1.236 -0.0235 -0.6928 -0.1832
  574SOL    HW1 1721   0.542   0.194   1.277  2.1946  2.0516 -1.2823
  574SOL    HW2 1722   0.602   0.255   1.138  0.4620  1.8597  0.1443
  575SOL     OW 1723   0.623   1.256   1.589  0.3816  0.1877  0.3694
  575SOL    HW1 1724   0.672   1.308   1.519  3.1537  0.5957  1.1402
  575SOL    HW2 1725   0.686   1.200   1.638 -1.7201 -0.3866 -0.6426
  576SOL     OW 1726   2.881   0.043   1.289  0.0958  0.7501  0.5935
  576SOL    HW1 1727   2.919   3.056   1.220 -2.8026  3.0385  2.0888
  576SOL    HW2 1728   2.790   0.077   1.259 -1.4731  3.2912  0.2722
  577SOL     OW 1729   1.116   1.248   2.055  0.5231 -0.8996  0.2551
  577SOL    HW1 1730   1.073   1.295   1.972  1.4764 -1.6202 -1.4646
  577SOL    HW2 1731   1.060   1.162   2.078 -2.8368  0.2117 -0.4812
  578SOL     OW 1732   1.852   1.046   2.554 -0.1002  0.1286  0.3427
  578SOL    HW1 1733   1.936   1.040   2.495 -2.1692 -2.0856  1.7021
  578SOL    HW2 1734   1.771   1.010   2.502 -0.4708 -0.5339 -0.7982
  579SOL     OW 1735   1.551   2.318   1.801  0.4692  0.0980 -0.3194
  579SOL    HW1 1736   1.585   2.271   1.882 -1.3422  3.7260  0.2576
  579SOL    HW2 1737   1.605   2.400   1.774  0.9801 -1.9337  0.1197
  580SOL     OW 1738   1.352   1.704   0.367 -0.5415  0.2376  0.1618
  580SOL    HW1 1739   1.399   1.615   0.355 -2.4839  2.2658  0.4369
  580SOL    HW2 1740   1.303   1.710   0.454  0.0949 -1.8345 -0.9927
  581SOL     OW 1741   1.183   0.870   2.026 -0.0758  0.5206 -0.1358
  581SOL    HW1 1742   1.115   0.927   2.078  0.6652  2.5546 -0.0513
  581SOL    HW2 1743   1.234   0.800   2.083  0.5804 -1.6203 -0.9846
  582SOL     OW 1744   0.824   1.353   1.420  0.0907 -0.3187 -0.2265
  582SOL    HW1 1745   0.921   1.332   1.422 -1.7641 -0.2075 -0.3412
  582SOL    HW2 1746   0.808   1.433   1.360  1.3425  0.5078 -2.0673
  583SOL     OW 1747   0.963   1.332   1.830  0.3481  0.1451  0.1922
  583SOL    HW1 1748   0.933   1.236   1.806 -2.0482  0.6913  1.4769
  583SOL    HW2 1749   0.878   1.387   1.843 -0.3343 -1.8070  2.7015
  584SOL     OW 1750   2.553   2.604   0.812  0.0581  0.0855 -0.0869
  584SOL    HW1 1751   2.490   2.527   0.792 -0.3546  1.5224 -2.5170
  584SOL    HW2 1752   2.501   2.686   0.844 -0.6658  3.0262  0.5002
  585SOL     OW 1753   2.035   0.437   2.821 -0.4150  0.0211 -0.1168
  585SOL    HW1 1754   2.018   0.334   2.812 -3.1095  0.2412  1.6555
  585SOL    HW2 1755   1.989   0.495   2.746 -1.9856  1.1956 -1.6046
  586SOL     OW 1756   0.060   2.319   0.860 -0.2754 -0.3477  0.1005
  586SOL    HW1 1757   0.021   2.408   0.835  0.2880  2.7077  1.6085
  586SOL    HW2 1758   3.073   2.279   0.934 -0.9617 -0.1523  1.1226
  587SOL     OW 1759   1.615   1.727   3.025 -0.2266 -0.1563 -0.4115
  587SOL    HW1 1760   1.649   1.734   0.048 -0.7877  1.7818  2.5082
  587SOL    HW2 1761   1.581   1.636   3.010  0.5603  1.0069  1.1232
  588SOL     OW 1762   0.296   0.249   1.205 -0.1140  0.1834  0.0968
  588SOL    HW1 1763   0.355   0.185   1.251 -2.7201  2.6775 -2.6783
  588SOL    HW2 1764   0.212   0.257   1.264 -2.0592  0.0499  2.6581
  589SOL     OW 1765   1.278   0.370   0.693  0.2242 -0.4186  0.0386
  589SOL    HW1 1766   1.258   0.318   0.778  1.3777  2.6198  2.2627
  589SOL    HW2 1767   1.284   0.465   0.716 -1.4591  0.3666 -0.0150
  590SOL     OW 1768   1.016   1.038   0.158 -0.1449 -0.3330  0.6013
  590SOL    HW1 1769   1.046   1.137   0.165  1.7508  1.3238  0.7253
  590SOL    HW2 1770   1.066   0.971   0.093  1.6971 -2.2246 -3.0517
  591SOL     OW 1771   2.485   2.427   2.306  0.2605 -0.4892 -0.0676
  591SOL    HW1 1772   2.442   2.461   2.389 -1.0714  0.4161  3.2294
  591SOL    HW2 1773   2.539   2.504   2.265  2.1471 -1.0955 -0.3196
  592SOL     OW 1774   2.022   1.847   1.363  0.1591 -0.1380  0.0440
  592SOL    HW1 1775   2.059   1.929   1.405 -0.6941  0.6751 -1.2111
  592SOL    HW2 1776   2.077   1.765   1.388 -3.2335 -0.6930  0.7610
  593SOL     OW 1777   1.171   0.715   1.444  0.0804 -0.3487  0.3134
  593SOL    HW1 1778   1.077   0.718   1.396  0.3155 -0.1053 -2.0392
  593SOL    HW2 1779   1.242   0.679   1.381  0.4846  1.8125  1.6099
  594SOL     OW 1780   2.545   0.997   2.517  0.2828 -0.1778 -0.0516
  594SOL    HW1 1781   2.546   0.915   2.582 -0.5732 -2.6606  1.9303
  594SOL    HW2 1782   2.594   0.962   2.434  0.2056  0.7473 -0.1165
  595SOL     OW 1783   0.089   0.221   0.517  0.0642 -0.6020 -0.0470
  595SOL    HW1 1784   0.065   0.205   0.613  0.0518  1.7706 -1.6209
  595SOL    HW2 1785   0.187   0.249   0.505  1.3391 -2.9791  0.9325
  596SOL     OW 1786   0.062   1.591   1.132 -0.1743  0.4350 -0.1963
  596SOL    HW1 1787   0.158   1.602   1.094 -1.2332  0.0776 -1.4819
  596SOL    HW2 1788   0.043   1.496   1.148 -0.5685  0.5912  0.8253
  597SOL     OW 1789   1.786   1.527   0.414 -0.0708  0.7707  0.4548
  597SOL    HW1 1790   1.778   1.605   0.477 -2.4352 -0.4591  0.0198
  597SOL    HW2 1791   1.859   1.538   0.339 -0.4334  1.0741  0.0411
  598SOL     OW 1792   0.232   2.570   1.794 -0.1833  0.1985 -0.1183
  598SOL    HW1 1793   0.235   2.595   1.696 -0.7317 -2.0130 -1.3552
  598SOL    HW2 1794   0.307   2.616   1.843  1.0147 -3.3888 -1.7578
  599SOL     OW 1795   2.490   1.281   2.864 -0.6254  0.0451  0.1447
  599SOL    HW1 1796   2.418   1.309   2.799  0.8623 -1.5900  2.2813
  599SOL    HW2 1797   2.521   1.355   2.923  0.2473  0.3647  0.5087
  600SOL     OW 1798   0.507   1.035   0.264 -0.0900  0.0132 -0.0485
  600SOL    HW1 1799   0.541   1.092   0.341  0.4133  0.8803  0.4603
  600SOL    HW2 1800   0.411   1.062   0.244 -0.5348 -2.8479  1.1434
  601SOL     OW 1801   0.561   0.891   0.902  0.0645  0.0827  0.8179
  601SOL    HW1 1802   0.564   0.824   0.977 -0.4407 -0.8992 -0.3396
  601SOL    HW2 1803   0.490   0.964   0.932 -1.7093  1.1114  2.9378
  602SOL     OW 1804   1.520   2.488   0.537  0.0454 -0.2352  0.0683
  602SOL    HW1 1805   1.577   2.454   0.617  0.3039  1.1640  0.1582
  602SOL    HW2 1806   1.560   2.439   0.455 -1.3084  1.4094  0.8572
  603SOL     OW 1807   0.929   2.602   2.034  0.0728 -0.5421  0.1524
  603SOL    HW1 1808   0.982   2.646   2.112  0.9481  0.7155 -1.2879
  603SOL    HW2 1809   0.855   2.541   2.074  1.4730  3.3286  0.7446
  604SOL     OW 1810   0.321   0.303   2.229  0.3544  0.0422 -0.6842
  604SOL    HW1 1811   0.227   0.282   2.252 -0.1225 -0.0651  1.8228
  604SOL    HW2 1812   0.331   0.313   2.128 -0.5561 -1.6103  0.1610
  605SOL     OW 1813   2.995   0.981   1.480  0.1091 -0.4649  0.4754
  605SOL    HW1 1814   2.934   1.061   1.499 -3.0217 -2.1973  2.4844
  605SOL    HW2 1815   2.953   0.895   1.510 -2.8192  0.1804 -0.4944
  606SOL     OW 1816   0.890   1.655   2.623 -0.9699 -0.2840  0.0940
  606SOL    HW1 1817   0.802   1.699   2.624  2.5462 -1.1856 -0.4655
  606SOL    HW2 1818   0.910   1.620   2.528  1.0763 -0.5018 -1.4986
  607SOL     OW 1819   0.393   3.051   0.325 -0.1105  0.5094  0.2086
  607SOL    HW1 1820   0.329   0.031   0.269 -0.1845  1.1152 -0.7949
  607SOL    HW2 1821   0.364   3.053   0.423 -0.9738  1.6326  2.4320
  608SOL     OW 1822   2.214   1.820   2.121  0.0911  0.4178 -0.0110
  608SOL    HW1 1823   2.258   1.894   2.064 -1.3106  0.4683 -0.8788
  608SOL    HW2 1824   2.182   1.864   2.208  1.0334  1.1989 -2.8843
  609SOL     OW 1825   2.698   0.282   1.104  0.4387 -0.3707 -0.1047
  609SOL    HW1 1826   2.646   0.229   1.037 -1.3534  1.9675 -2.7823
  609SOL    HW2 1827   2.643   0.272   1.190 -2.9350 -0.9229 -1.8620
  610SOL     OW 1828   0.252   2.681   0.379 -0.1238 -0.4774  0.6146
  610SOL    HW1 1829   0.342   2.733   0.373  0.9555 -0.1881  3.5904
  610SOL    HW2 1830   0.194   2.694   0.292  0.9675  2.2923 -1.6695
  611SOL     OW 1831   1.611   1.191   3.015  0.2518  0.0172  0.5289
  611SOL    HW1 1832   1.670   1.113   3.043 -0.6981  1.0735  0.3902
  611SOL    HW2 1833   1.544   1.215   0.006 -0.9447  1.3819  0.5624
  612SOL     OW 1834   0.760   2.383   1.849 -0.0605 -0.3792  0.7226
  612SOL    HW1 1835   0.752   2.436   1.936  0.6248  0.1138 -3.7735
  612SOL    HW2 1836   0.792   2.441   1.771 -0.1713  1.3630 -1.3636
  613SOL     OW 1837   0.453   2.528   0.736  0.5386  0.2530 -0.5152
  613SOL    HW1 1838   0.521   2.528   0.807 -2.0635  1.3632 -0.6934
  613SOL    HW2 1839   0.468   2.455   0.670 -0.8438  1.4560  2.5004
  614SOL     OW 1840   2.242   2.643   1.593  0.1822  0.2490  0.2498
  614SOL    HW1 1841   2.343   2.638   1.571 -1.2607  1.3450  2.3900
  614SOL    HW2 1842   2.232   2.664   1.693 -1.0387 -1.2672 -1.6558
  615SOL     OW 1843   1.625   0.979   0.303  0.2278 -0.3763  0.9483
  615SOL    HW1 1844   1.573   1.038   0.371  1.3717  0.5628  2.4495
  615SOL    HW2 1845   1.712   0.961   0.348 -0.5969 -0.6150 -1.4249
  616SOL     OW 1846   1.918   0.665   0.329 -0.1717  0.1532 -0.0312
  616SOL    HW1 1847   1.968   0.724   0.262 -0.8686  1.6955  1.2131
  616SOL    HW2 1848   1.867   0.590   0.281 -1.6968  0.5970 -2.7582
  617SOL     OW 1849   0.943   0.775   2.781  0.0882 -0.2275  0.0513
  617SOL    HW1 1850   1.037   0.807   2.753  1.1304 -0.8516 -0.5281
  617SOL    HW2 1851   0.943   0.715   2.865  0.6621 -0.3634  3.7283
  618SOL     OW 1852   0.837   3.014   2.010 -0.1075 -0.2087 -0.5669
  618SOL    HW1 1853   0.820   2.963   1.927  0.6753  2.3210  0.1923
  618SOL    HW2 1854   0.751   3.059   2.040  0.0087  0.4183  0.1441
  619SOL     OW 1855   2.936   1.350   1.318 -0.0308  0.3207 -1.0728
  619SOL    HW1 1856   2.919   1.450   1.340  0.1969 -0.4061 -0.3202
  619SOL    HW2 1857   2.946   1.290   1.406 -2.0965 -2.4344  0.8514
  620SOL     OW 1858   0.159   0.773   2.729 -0.2477 -0.4706  0.4514
  620SOL    HW1 1859   0.147   0.686   2.783 -0.8338  1.4001 -1.6729
  620SOL    HW2 1860   0.166   0.850   2.795 -0.8963  1.0746 -2.9237
  621SOL     OW 1861   2.160   2.194   2.241 -0.0819  0.5319  0.3049
  621SOL    HW1 1862   2.100   2.140   2.179  0.0010 -3.0463  1.2205
  621SOL    HW2 1863   2.222   2.253   2.188  0.9573 -3.3454  1.6149
  622SOL     OW 1864   1.163   0.468   2.132  0.1476 -0.2408 -0.9158
  622SOL    HW1 1865   1.091   0.482   2.202  1.5190  0.7224 -1.2242
  622SOL    HW2 1866   1.213   0.558   2.133  1.2381  0.9162  1.0277
  623SOL     OW 1867   0.970   1.023   2.113  0.8579 -0.0305  0.2548
  623SOL    HW1 1868   0.883   1.033   2.068  0.7833  0.1873  0.3341
  623SOL    HW2 1869   0.958   1.009   2.214  1.3490 -0.0213  0.3814
  624SOL     OW 1870   2.569   0.962   0.341 -0.0508  0.4012 -0.1809
  624SOL    HW1 1871   2.506   1.043   0.342 -1.0757  1.3581 -0.2741
  624SOL    HW2 1872   2.574   0.919   0.434 -0.7267 -2.4400  0.2463
  625SOL     OW 1873   1.055   1.305   0.832 -0.6629  0.2051 -0.2665
  625SOL    HW1 1874   1.092   1.395   0.862 -0.2241 -0.1052 -0.6928
  625SOL    HW2 1875   1.113   1.231   0.870  0.9778 -4.5287  0.1260
  626SOL     OW 1876   1.895   0.865   2.771 -0.3123  0.6188  0.2462
  626SOL    HW1 1877   1.986   0.904   2.749  0.6922  1.1967 -2.4522
  626SOL    HW2 1878   1.820   0.927   2.741 -0.8428  1.6132 -2.6966
  627SOL     OW 1879   1.016   2.852   2.889  0.5562 -0.4938  0.3208
  627SOL    HW1 1880   1.090   2.883   2.821  2.5644 -0.1049 -1.1751
  627SOL    HW2 1881   0.952   2.928   2.900  0.0369 -2.0247 -2.2636
  628SOL     OW 1882   1.989   0.180   2.260  0.7651 -0.2441 -0.1004
  628SOL    HW1 1883   2.006   0.268   2.313 -3.6936  2.0539  1.5670
  628SOL    HW2 1884   1.907   0.139   2.303 -0.0485  1.5808 -1.1875
  629SOL     OW 1885   0.718   0.257   2.893  0.4004  0.4143 -0.0995
  629SOL    HW1 1886   0.661   0.284   2.817  0.0628 -1.9623 -0.0713
  629SOL    HW2 1887   0.794   0.312   2.918 -3.9053 -4.0851 -1.5283
  630SOL     OW 1888   0.895   0.419   2.578 -0.2299  0.2097 -1.0843
  630SOL    HW1 1889   0.922   0.361   2.655 -2.6175  0.0498  0.9233
  630SOL    HW2 1890   0.825   0.488   2.606  1.0671  0.4587  2.6901
  631SOL     OW 1891   2.391   1.122   0.629  0.0302 -0.3809 -0.2952
  631SOL    HW1 1892   2.296   1.137   0.673 -0.8841 -2.7255 -1.6534
  631SOL    HW2 1893   2.396   1.172   0.543 -0.9580 -0.3112  4.0743
  632SOL     OW 1894   2.006   0.930   1.473 -0.4161 -0.5015 -0.5313
  632SOL    HW1 1895   2.070   0.926   1.396  0.1952 -0.8384  0.4097
  632SOL    HW2 1896   1.934   0.862   1.463  1.8769 -0.2272  1.3668
  633SOL     OW 1897   1.069   1.563   0.211 -0.6598 -0.0669 -0.0921
  633SOL    HW1 1898   1.018   1.616   0.145  0.9394 -1.5496  0.4273
  633SOL    HW2 1899   1.055   1.586   0.312 -1.7723  0.4729  1.0125
  634SOL     OW 1900   2.459   3.034   1.469  0.4432 -0.2688 -0.0654
  634SOL    HW1 1901   2.408   3.043   1.557 -1.1616 -0.0078  0.7505
  634SOL    HW2 1902   2.556   3.002   1.482  1.9984 -0.5385  0.5096
  635SOL     OW 1903   1.803   0.298   0.959  0.4584  0.2346 -0.4629
  635SOL    HW1 1904   1.786   0.306   0.857 -2.5217 -1.4779  0.9012
  635SOL    HW2 1905   1.719   0.262   1.003 -1.5624 -0.3888 -1.6770
  636SOL     OW 1906   0.766   1.167   0.425  0.1322  0.3628  0.2319
  636SOL    HW1 1907   0.710   1.223   0.480  1.0522 -1.8791 -3.1269
  636SOL    HW2 1908   0.857   1.150   0.467 -1.4443 -1.1661  2.8066
  637SOL     OW 1909   2.847   2.026   2.933  0.0835 -0.7204 -0.3026
  637SOL    HW1 1910   2.784   2.078   2.995 -3.6750  1.2459 -0.3196
  637SOL    HW2 1911   2.929   2.089   2.919  0.0434  0.0821 -0.9806
  638SOL     OW 1912   1.223   2.554   2.840 -0.3389  0.2603  0.2663
  638SOL    HW1 1913   1.211   2.586   2.743 -0.3181  2.2900  0.5661
  638SOL    HW2 1914   1.196   2.455   2.846  0.1687  1.2763  0.5081
  639SOL     OW 1915   1.380   1.559   1.185 -0.2314  0.0938 -0.5006
  639SOL    HW1 1916   1.347   1.643   1.143 -0.9806 -1.9553 -0.6509
  639SOL    HW2 1917   1.479   1.553   1.182 -2.1364  0.5232 -1.2885
  640SOL     OW 1918   2.284   2.765   0.570  0.3368 -0.3026  0.8524
  640SOL    HW1 1919   2.218   2.843   0.571 -0.3949  2.7564  0.7964
  640SOL    HW2 1920   2.239   2.678   0.555  0.7665  0.6338 -1.2380
  641SOL     OW 1921   2.817   3.006   2.910 -0.0619  0.7981 -0.6737
  641SOL    HW1 1922   2.752   2.995   2.989  0.9733 -0.4655  1.8619
  641SOL    HW2 1923   2.880   2.923   2.908 -2.0126 -0.3161 -0.1201
  642SOL     OW 1924   2.866   0.712   1.316  0.0348  0.1454  0.1331
  642SOL    HW1 1925   2.855   0.785   1.248  2.9438 -0.4210  0.7312
  642SOL    HW2 1926   2.785   0.716   1.376  1.3680  0.6158  0.2777
  643SOL     OW 1927   0.945   1.753   2.080 -0.0237  0.2804 -0.0617
  643SOL    HW1 1928   0.847   1.730   2.055  0.2304 -1.9028 -0.3259
  643SOL    HW2 1929   0.968   1.840   2.035  0.4857 -1.0396 -2.1086
  644SOL     OW 1930   2.052   2.264   0.580 -0.7384  0.0973 -0.3046
  644SOL    HW1 1931   1.996   2.283   0.662  1.0839 -1.6314  1.2053
  644SOL    HW2 1932   2.091   2.347   0.535  2.9041  0.0108 -2.8768
  645SOL     OW 1933   1.890   2.057   0.934 -0.1943  0.3802  0.3416
  645SOL    HW1 1934   1.885   1.998   0.855  2.5670 -0.5133  1.6622
  645SOL    HW2 1935   1.822   2.032   1.001  2.0398 -0.2788 -1.2797
  646SOL     OW 1936   0.940   2.359   3.031  0.5018 -0.2530 -0.1115
  646SOL    HW1 1937   0.963   2.456   3.018 -0.7010 -0.0245 -0.6452
  646SOL    HW2 1938   1.002   2.316   0.021  1.9057  1.6547 -0.0846
  647SOL     OW 1939   0.467   2.705   1.894 -0.4562  0.3868 -0.2019
  647SOL    HW1 1940   0.467   2.802   1.924  1.2812  0.3463  1.9812
  647SOL    HW2 1941   0.502   2.696   1.801 -2.1282 -1.9908 -0.9726
  648SOL     OW 1942   1.648   0.507   1.528 -0.5035 -0.6571 -0.6395
  648SOL    HW1 1943   1.681   0.603   1.521 -2.2173  2.9532  0.9590
  648SOL    HW2 1944   1.557   0.495   1.567  2.0055 -0.6195 -2.7580
  649SOL     OW 1945   1.781   2.173   0.237  0.5589  0.2858 -0.7186
  649SOL    HW1 1946   1.714   2.251   0.261  0.6564  0.0694  0.8843
  649SOL    HW2 1947   1.738   2.108   0.174 -1.3856  1.9046 -0.7869
  650SOL     OW 1948   1.899   1.699   1.881 -0.1568  0.9270  0.5675
  650SOL    HW1 1949   1.928   1.666   1.973 -1.2551 -3.7638  1.0652
  650SOL    HW2 1950   1.922   1.632   1.803  0.7087  3.4902 -1.0014
  651SOL     OW 1951   1.444   2.453   0.096 -0.2578 -0.1094 -0.0682
  651SOL    HW1 1952   1.434   2.390   0.018  0.2717 -0.6929  2.6511
  651SOL    HW2 1953   1.452   2.552   0.065 -1.1771 -0.6258 -0.7151
  652SOL     OW 1954   0.491   2.280   0.308  0.0185  0.4264 -0.3739
  652SOL    HW1 1955   0.391   2.246   0.316 -1.7103 -1.0828  0.3058
  652SOL    HW2 1956   0.501   2.383   0.298 -1.6480 -1.2213 -0.0852
  653SOL     OW 1957   2.378   2.080   1.384 -0.0622 -0.2656 -0.1590
  653SOL    HW1 1958   2.350   2.171   1.345 -2.2839  1.2837 -0.8007
  653SOL    HW2 1959   2.319   2.049   1.459  1.1661 -3.2670 -0.7112
  654SOL     OW 1960   2.800   2.706   1.451 -0.3676  1.0293 -0.4702
  654SOL    HW1 1961   2.754   2.792   1.443  0.0675 -3.2500  0.1611
  654SOL    HW2 1962   2.749   2.630   1.402  1.8577 -1.0570 -0.5492
  655SOL     OW 1963   0.023   2.065   1.221 -0.0372 -0.7986  0.3499
  655SOL    HW1 1964   0.027   2.059   1.321 -1.1258 -1.3052 -1.6329
  655SOL    HW2 1965   0.123   2.060   1.191 -1.2014 -0.8133  0.6320
  656SOL     OW 1966   3.012   2.739   2.335 -0.3571  0.3885  0.2302
  656SOL    HW1 1967   3.013   2.797   2.253  0.6259 -3.3907 -0.0094
  656SOL    HW2 1968   0.027   2.708   2.356 -0.4708 -1.9839  0.6019
  657SOL     OW 1969   2.942   1.237   2.965 -0.1485  0.8202  0.0501
  657SOL    HW1 1970   2.899   1.153   2.992 -0.6411  0.7012  0.4386
  657SOL    HW2 1971   2.886   1.286   2.893 -1.7579  0.0568 -0.4857
  658SOL     OW 1972   1.719   1.718   0.610 -0.3928  0.1451  0.9672
  658SOL    HW1 1973   1.794   1.777   0.646  3.4080 -1.6973  0.4034
  658SOL    HW2 1974   1.649   1.693   0.681 -2.8685  2.6286 -0.1879
  659SOL     OW 1975   1.356   0.572   1.285  0.4567  0.1763  0.2165
  659SOL    HW1 1976   1.355   0.576   1.181 -1.6620 -1.5743  0.0057
  659SOL    HW2 1977   1.355   0.476   1.325  1.0580 -1.9643 -0.1900
  660SOL     OW 1978   1.643   1.460   2.939 -0.6859  0.1348 -0.1885
  660SOL    HW1 1979   1.619   1.370   2.978 -1.5458  1.5975  1.2245
  660SOL    HW2 1980   1.662   1.453   2.839 -3.0620 -0.5621 -3.0945
  661SOL     OW 1981   0.220   2.251   0.364 -0.1012 -0.0499  0.0590
  661SOL    HW1 1982   0.196   2.216   0.459  1.6976  0.4656 -0.5567
  661SOL    HW2 1983   0.191   2.346   0.349  1.9110  3.3795 -0.2698
  662SOL     OW 1984   0.221   0.857   2.092 -0.0668 -0.5898 -0.3412
  662SOL    HW1 1985   0.231   0.888   2.189  0.0404 -1.3781  1.2183
  662SOL    HW2 1986   0.205   0.753   2.086 -0.5762 -1.9413  1.4831
  663SOL     OW 1987   1.769   1.324   0.770  0.2995  0.0672  0.3434
  663SOL    HW1 1988   1.814   1.239   0.787  0.0587  1.6764 -1.5419
  663SOL    HW2 1989   1.826   1.404   0.811  0.3781 -1.2909 -2.3509
  664SOL     OW 1990   0.936   0.705   1.046 -0.4233  0.2036  0.4793
  664SOL    HW1 1991   0.912   0.654   1.135 -2.2102 -0.7958  0.2276
  664SOL    HW2 1992   0.908   0.804   1.063  3.3237 -1.0218 -0.3901
  665SOL     OW 1993   1.047   2.906   0.075 -0.3282 -0.3941  0.4334
  665SOL    HW1 1994   1.058   3.002   0.097 -2.1210  0.7944 -0.0615
  665SOL    HW2 1995   1.046   2.901   3.052  2.2339 -1.4347  1.8503
  666SOL     OW 1996   2.999   0.200   2.537  0.1341 -0.8620  0.1037
  666SOL    HW1 1997   0.018   0.199   2.526 -2.7916  1.1924  0.3595
  666SOL    HW2 1998   2.976   0.291   2.582 -1.0610  4.4397  0.7244
  667SOL     OW 1999   2.492   1.698   2.203 -0.4836  0.0475  0.3571
  667SOL    HW1 2000   2.493   1.798   2.182  3.4272 -1.6334 -2.7185
  667SOL    HW2 2001   2.512   1.683   2.300  0.1583 -1.2091  1.8695
  668SOL     OW 2002   0.682   1.244   2.696 -0.0920  0.0810  0.2431
  668SOL    HW1 2003   0.623   1.211   2.778 -2.4482 -1.5656  0.3667
  668SOL    HW2 2004   0.630   1.248   2.607  0.1763  2.7813  2.0680
  669SOL     OW 2005   2.211   2.406   2.669 -0.1246 -0.2883  0.1378
  669SOL    HW1 2006   2.134   2.377   2.611  1.6553  1.3802  1.2383
  669SOL    HW2 2007   2.209   2.353   2.751 -0.2147  3.7559  0.7352
  670SOL     OW 2008   2.291   1.082   2.525 -0.0696 -0.2852 -0.0863
  670SOL    HW1 2009   2.386   1.045   2.538  0.4246 -3.2553  0.2994
  670SOL    HW2 2010   2.282   1.171   2.571  0.7150  0.0400 -0.3702
  671SOL     OW 2011   2.508   1.371   0.065  0.1792 -0.6787  0.3253
  671SOL    HW1 2012   2.452   1.292   0.045  1.6369  1.0713  0.6108
  671SOL    HW2 2013   2.580   1.354   0.132  0.6783  3.1284  0.2752
  672SOL     OW 2014   2.527   1.065   2.091  0.9678  0.1464 -0.5889
  672SOL    HW1 2015   2.428   1.060   2.120 -0.9322 -1.9555 -0.7034
  672SOL    HW2 2016   2.533   1.018   1.999  1.8750 -1.9534 -1.2573
  673SOL     OW 2017   2.636   0.873   1.372 -0.2803 -0.1742 -0.3931
  673SOL    HW1 2018   2.642   0.967   1.331  0.0605  0.2140  1.4035
  673SOL    HW2 2019   2.667   0.869   1.468 -2.4627  0.3145  2.0141
  674SOL     OW 2020   1.916   1.958   1.862  0.0397 -0.2644 -0.1397
  674SOL    HW1 2021   1.929   1.861   1.860 -0.9645  4.5670  0.7894
  674SOL    HW2 2022   1.854   1.991   1.789 -0.4097  0.6738  1.9713
  675SOL     OW 2023   0.332   0.577   0.917  0.6427 -0.0021 -0.3176
  675SOL    HW1 2024   0.343   0.655   0.854 -0.0190  0.1898  0.4851
  675SOL    HW2 2025   0.354   0.483   0.869  1.7587 -3.5084 -2.5798
  676SOL     OW 2026   1.888   1.064   1.084 -0.1580  0.1632 -0.0817
  676SOL    HW1 2027   1.884   1.128   1.161  2.2762 -0.6299 -0.3546
  676SOL    HW2 2028   1.945   0.983   1.111 -0.1999  0.0796  3.7603
  677SOL     OW 2029   2.188   1.618   2.363 -0.1791 -0.4368  0.0064
  677SOL    HW1 2030   2.156   1.700   2.414 -0.6232 -0.6792  1.7376
  677SOL    HW2 2031   2.270   1.642   2.309  0.5959 -1.3248  0.5834
  678SOL     OW 2032   3.059   1.696   0.775  0.5713 -0.6359  0.2686
  678SOL    HW1 2033   0.003   1.774   0.835  1.5787 -0.3442 -0.2102
  678SOL    HW2 2034   2.957   1.682   0.790 -2.3772  1.3851  2.2275
  679SOL     OW 2035   3.000   2.703   0.506  0.3156 -0.1599 -0.0200
  679SOL    HW1 2036   2.903   2.719   0.474 -0.8061 -0.9616  0.5640
  679SOL    HW2 2037   3.057   2.786   0.515  0.6992  1.5423 -0.4837
  680SOL     OW 2038   0.101   2.433   1.213  0.4298 -0.0739  0.6883
  680SOL    HW1 2039   0.177   2.395   1.273 -0.7155  0.1060 -1.4613
  680SOL    HW2 2040   0.040   2.360   1.184  0.5323  2.6190 -2.9457
  681SOL     OW 2041   0.397   1.280   1.168 -0.3005  0.4457 -0.0003
  681SOL    HW1 2042   0.497   1.286   1.181 -0.9738 -0.4413  0.4500
  681SOL    HW2 2043   0.352   1.263   1.258 -2.5863  0.8512  1.2086
  682SOL     OW 2044   1.853   2.676   0.966 -0.1888 -0.1326  0.5803
  682SOL    HW1 2045   1.931   2.609   0.944  3.0717 -1.7972 -0.2591
  682SOL    HW2 2046   1.887   2.764   1.007  1.9647  0.4335 -0.6025
  683SOL     OW 2047   2.256   1.255   1.032 -0.6801  0.0567 -0.4921
  683SOL    HW1 2048   2.310   1.319   0.974  1.6208 -1.4623 -1.2935
  683SOL    HW2 2049   2.311   1.175   1.068 -0.3711 -1.9620  1.3660
  684SOL     OW 2050   0.741   2.154   1.978  0.0965 -0.3735 -0.0939
  684SOL    HW1 2051   0.748   2.241   1.928  0.5980 -2.1133  1.4626
  684SOL    HW2 2052   0.659   2.101   1.939 -0.5975  0.7506 -0.7821
  685SOL     OW 2053   2.269   1.580   0.166  0.8594  0.7590  0.4879
  685SOL    HW1 2054   2.296   1.657   0.104 -2.3357  0.3817 -1.1884
  685SOL    HW2 2055   2.177   1.594   0.208  2.6495 -0.7123 -0.7743
  686SOL     OW 2056   3.022   0.693   0.456 -0.0595  0.2894  0.2976
  686SOL    HW1 2057   3.045   0.742   0.368  2.2580  0.3929 -2.9613
  686SOL    HW2 2058   2.931   0.726   0.489  1.2642 -1.8191 -2.0649
  687SOL     OW 2059   0.988   2.811   0.386  0.5457 -0.1382  0.0700
  687SOL    HW1 2060   1.065   2.811   0.455 -0.4359 -1.2944  0.7406
  687SOL    HW2 2061   0.993   2.727   0.335 -1.6836  0.3813  1.3453
  688SOL     OW 2062   1.711   1.778   2.230 -0.2775 -0.2975  0.1243
  688SOL    HW1 2063   1.696   1.679   2.255  1.7411  1.3433 -0.6527
  688SOL    HW2 2064   1.667   1.803   2.140  0.9938 -1.8777 -0.4126
  689SOL     OW 2065   2.713   0.923   2.285 -0.0726  0.6731  0.3237
  689SOL    HW1 2066   2.662   0.961   2.202  2.0551  0.6454 -0.8046
  689SOL    HW2 2067   2.791   0.981   2.311  1.3862 -0.0710  1.5610
  690SOL     OW 2068   1.613   0.572   0.908  0.4675 -0.4885  0.5957
  690SOL    HW1 2069   1.556   0.506   0.959  0.8677 -0.5738 -0.3299
  690SOL    HW2 2070   1.646   0.541   0.821  1.2750  1.3576  0.8046
  691SOL     OW 2071   0.966   1.587   1.203 -0.2313 -0.2743  0.0290
  691SOL    HW1 2072   1.028   1.638   1.139 -3.1571  0.8320  1.1418
  691SOL    HW2 2073   0.908   1.518   1.152 -2.9860 -0.0725 -1.4122
  692SOL     OW 2074   1.527   0.314   1.881  0.0845  1.0369 -0.1500
  692SOL    HW1 2075   1.568   0.399   1.924  0.2432 -0.4440  1.0124
  692SOL    HW2 2076   1.485   0.261   1.959 -1.1655 -1.3829  1.2373
  693SOL     OW 2077   0.369   0.808   2.986 -0.1724 -0.2908  0.0270
  693SOL    HW1 2078   0.434   0.845   3.058  2.2969 -0.3155  2.7697
  693SOL    HW2 2079   0.409   0.808   2.890  2.9758  1.1302  2.5218
  694SOL     OW 2080   2.310   2.464   0.735  0.1214 -0.1118 -0.3183
  694SOL    HW1 2081   2.276   2.485   0.827 -0.1585 -0.2376  0.1138
  694SOL    HW2 2082   2.244   2.501   0.668 -0.7098  0.4723  1.2235
  695SOL     OW 2083   1.630   1.289   2.384 -0.5166 -0.3966 -0.5038
  695SOL    HW1 2084   1.672   1.337   2.469  1.6312  0.1914  2.1532
  695SOL    HW2 2085   1.663   1.195   2.382 -3.6938 -0.8890 -1.7602
  696SOL     OW 2086   1.371   0.301   1.404 -0.7704 -0.1231 -0.4952
  696SOL    HW1 2087   1.300   0.230   1.402  0.6561 -1.4911  1.5739
  696SOL    HW2 2088   1.459   0.257   1.391 -1.9698  0.4016 -3.8270
  697SOL     OW 2089   1.195   0.283   1.805 -0.6683 -0.1298  0.0080
  697SOL    HW1 2090   1.125   0.357   1.826 -2.1011  0.1135 -1.3314
  697SOL    HW2 2091   1.241   0.254   1.892  0.0436 -0.2081  1.2437
  698SOL     OW 2092   1.699   1.509   2.232 -0.0541  0.2932 -0.3371
  698SOL    HW1 2093   1.712   1.474   2.135  2.3628 -0.2921  0.5603
  698SOL    HW2 2094   1.660   1.436   2.288  1.8730  2.4457 -0.9864
  699SOL     OW 2095   1.463   1.105   1.248  0.1928  0.0600 -0.0091
  699SOL    HW1 2096   1.527   1.048   1.188 -1.8685  1.8555 -0.1510
  699SOL    HW2 2097   1.411   1.171   1.194 -0.6678 -0.1038  0.2204
  700SOL     OW 2098   1.678   0.158   0.165 -0.1334 -0.4215  0.3698
  700SOL    HW1 2099   1.702   0.170   0.261 -2.0849 -2.9772 -0.9380
  700SOL    HW2 2100   1.596   0.094   0.157  0.9189 -1.8590  1.4388
  701SOL     OW 2101   0.354   2.851   1.501 -0.5756 -0.0257  0.5328
  701SOL    HW1 2102   0.293   2.918   1.452  1.6156 -0.8600 -2.0999
  701SOL    HW2 2103   0.303   2.765   1.504  2.0626 -0.1598 -2.8290
  702SOL     OW 2104   1.456   2.854   1.060 -0.0007  0.6685 -0.1843
  702SOL    HW1 2105   1.510   2.802   0.989  0.5377 -2.3460 -1.6649
  702SOL    HW2 2106   1.383   2.910   1.015  0.3241 -0.3066 -1.5550
  703SOL     OW 2107   2.401   0.185   2.008 -0.4369  0.1820  0.1830
  703SOL    HW1 2108   2.305   0.216   2.005 -1.9587  0.8184  1.0507
  703SOL    HW2 2109   2.458   0.264   2.037 -0.6985 -0.8138 -1.3478
  704SOL     OW 2110   1.259   1.792   1.096  0.2040  0.3297 -0.0224
  704SOL    HW1 2111   1.176   1.826   1.057  1.8476  0.4534 -1.2460
  704SOL    HW2 2112   1.334   1.857   1.078 -1.2013 -0.2726 -2.4338
  705SOL     OW 2113   2.895   1.391   2.058 -0.2450 -0.2885 -0.3612
  705SOL    HW1 2114   2.864   1.488   2.067  1.3707  2.0812  1.8047
  705SOL    HW2 2115   2.821   1.334   2.097 -0.6487 -1.8302  0.2085
  706SOL     OW 2116   1.389   0.056   0.721  0.5908  0.5297 -0.4130
  706SOL    HW1 2117   1.416   0.119   0.645 -1.6025 -2.0524  2.3652
  706SOL    HW2 2118   1.462   0.052   0.794  2.2989 -0.2639  1.4466
  707SOL     OW 2119   0.938   2.470   2.724  0.1487 -0.5133 -0.1959
  707SOL    HW1 2120   0.867   2.418   2.669 -0.2605 -1.1416 -0.7074
  707SOL    HW2 2121   1.025   2.412   2.735 -0.2470 -2.5426 -1.0294
  708SOL     OW 2122   0.293   2.379   1.379 -0.0311  0.2366  0.6280
  708SOL    HW1 2123   0.242   2.341   1.453 -0.0502  0.4554 -2.0336
  708SOL    HW2 2124   0.394   2.364   1.391 -0.3065 -1.1000  0.1173
  709SOL     OW 2125   1.968   0.680   1.920 -0.6780  0.7803  0.4968
  709SOL    HW1 2126   1.886   0.726   1.888  3.3486  0.8416 -0.4976
  709SOL    HW2 2127   1.974   0.588   1.873 -1.0382  0.2177 -0.5500
  710SOL     OW 2128   2.904   0.381   1.592  0.1448 -0.2444 -0.2021
  710SOL    HW1 2129   2.892   0.431   1.508 -0.2818 -0.9054  3.8192
  710SOL    HW2 2130   3.005   0.361   1.597 -1.1418  1.3225 -0.9804
  711SOL     OW 2131   0.016   2.437   0.497  0.3565 -0.1660 -0.1564
  711SOL    HW1 2132   0.101   2.430   0.550  0.7674  2.3778 -0.9301
  711SOL    HW2 2133   3.057   2.531   0.510  1.6359  0.2769  0.1751
  712SOL     OW 2134   0.256   2.324   2.632  0.8924 -0.3325 -0.1516
  712SOL    HW1 2135   0.346   2.367   2.605  1.9596  1.2390  0.3967
  712SOL    HW2 2136   0.211   2.389   2.698 -0.9979 -2.0149  0.7719
  713SOL     OW 2137   2.017   0.821   0.148  0.0677 -0.2672  0.1626
  713SOL    HW1 2138   1.999   0.918   0.167 -0.1037 -1.3412  0.2494
  713SOL    HW2 2139   1.958   0.795   0.066 -1.3667  2.2337 -0.9012
  714SOL     OW 2140   1.487   2.134   0.583 -0.2277  0.5387 -0.1860
  714SOL    HW1 2141   1.548   2.063   0.537  1.2237 -1.3244  0.2509
  714SOL    HW2 2142   1.546   2.201   0.625  0.1237 -2.8749 -0.7135
  715SOL     OW 2143   2.951   0.194   0.341 -0.2904 -0.0238 -0.6185
  715SOL    HW1 2144   2.884   0.252   0.391  1.5061 -0.9125 -0.6414
  715SOL    HW2 2145   3.035   0.206   0.395 -2.9901 -0.3157  2.7210
  716SOL     OW 2146   0.632   0.015   2.377  0.0475 -0.3655 -0.1133
  716SOL    HW1 2147   0.531   0.029   2.388 -2.4412 -0.2193 -0.3453
  716SOL    HW2 2148   0.668   3.020   2.437  0.0590 -1.6057 -2.3868
  717SOL     OW 2149   0.100   0.558   2.902  0.0418 -0.2866 -0.4014
  717SOL    HW1 2150   0.171   0.486   2.903 -1.3517 -1.4796 -0.0117
  717SOL    HW2 2151   0.006   0.523   2.880  0.3548 -1.8916  1.7661
  718SOL     OW 2152   1.136   0.414   0.262 -0.4689  0.9643 -0.0753
  718SOL    HW1 2153   1.122   0.461   0.350 -0.0957 -0.9652  0.7656
  718SOL    HW2 2154   1.185   0.322   0.281  0.2449 -0.0256  1.2566
  719SOL     OW 2155   2.564   2.407   2.623 -0.3767 -0.1117 -0.1706
  719SOL    HW1 2156   2.471   2.450   2.607  0.8920  2.9085  0.4131
  719SOL    HW2 2157   2.578   2.326   2.560 -0.0410  0.0532  0.6050
  720SOL     OW 2158   1.739   0.798   1.733  0.3652 -0.1834 -0.3863
  720SOL    HW1 2159   1.766   0.866   1.804 -2.2526 -0.3414  1.5239
  720SOL    HW2 2160   1.649   0.760   1.768  0.2630  3.0792 -0.5931
  721SOL     OW 2161   2.541   0.225   0.874 -0.0812 -0.0643 -0.1096
  721SOL    HW1 2162   2.474   0.289   0.832 -1.0632  0.7841  1.9970
  721SOL    HW2 2163   2.632   0.230   0.818  0.1408 -0.2476  1.2854
  722SOL     OW 2164   1.380   2.280   2.567 -0.2169  0.0873  0.2505
  722SOL    HW1 2165   1.454   2.344   2.543 -2.2194 -1.3852 -0.4678
  722SOL    HW2 2166   1.412   2.185   2.588  0.9914 -0.3721 -0.6410
  723SOL     OW 2167   0.890   0.223   0.800 -0.0725  0.7745  0.5639
  723SOL    HW1 2168   0.870   0.284   0.724  1.3546 -1.4642  1.1644
  723SOL    HW2 2169   0.884   0.270   0.890  0.4965  0.6605 -0.3504
  724SOL     OW 2170   0.985   2.063   2.400  0.3620  0.1149  0.4127
  724SOL    HW1 2171   0.899   2.064   2.459 -2.6691 -0.6213 -2.5278
  724SOL    HW2 2172   1.006   1.974   2.354  1.1905 -1.6944  0.5653
  725SOL     OW 2173   0.226   0.865   1.112  0.0493  0.0076  0.1741
  725SOL    HW1 2174   0.286   0.944   1.093 -0.3568 -0.8999 -2.3168
  725SOL    HW2 2175   0.276   0.780   1.114  1.2474  1.4792 -0.3091
  726SOL     OW 2176   1.798   0.297   0.685  0.2804  0.2020  0.1042
  726SOL    HW1 2177   1.777   0.395   0.664 -1.7909  1.0323  0.6900
  726SOL    HW2 2178   1.891   0.259   0.651  0.2956 -2.3647 -0.1821
  727SOL     OW 2179   1.962   1.088   2.135  0.3362  0.1442 -1.1987
  727SOL    HW1 2180   1.958   1.192   2.128 -1.7398 -0.6571 -1.7230
  727SOL    HW2 2181   1.990   1.057   2.226  0.1734  2.6270 -0.0583
  728SOL     OW 2182   1.856   2.781   1.580 -0.1071  0.3411  0.1983
  728SOL    HW1 2183   1.901   2.828   1.657 -2.5148 -1.2735 -2.5695
  728SOL    HW2 2184   1.906   2.692   1.564 -0.1580  0.7293 -2.6090
  729SOL     OW 2185   1.437   0.414   1.652 -0.0318  0.3302  0.0017
  729SOL    HW1 2186   1.414   0.352   1.572 -0.2653  2.0584 -2.6537
  729SOL    HW2 2187   1.456   0.369   1.741 -1.1450  3.1778 -1.7583
  730SOL     OW 2188   0.867   1.752   1.416 -0.2482  0.5060 -0.0557
  730SOL    HW1 2189   0.875   1.853   1.404  0.6644 -1.8053 -1.2755
  730SOL    HW2 2190   0.904   1.703   1.333 -1.2810  0.7951 -2.7909
  731SOL     OW 2191   0.342   0.244   0.037 -0.0599 -0.0612  0.0044
  731SOL    HW1 2192   0.329   0.322   0.105 -0.3825  1.8123  1.4527
  731SOL    HW2 2193   0.273   0.173   0.039  2.3364 -0.2567 -0.5761
  732SOL     OW 2194   0.409   0.772   0.364  0.0699 -0.6424  0.4694
  732SOL    HW1 2195   0.334   0.748   0.295  0.4083  0.1503 -0.1629
  732SOL    HW2 2196   0.450   0.861   0.337 -3.0400  0.8897 -0.4052
  733SOL     OW 2197   1.466   1.701   1.687 -0.2304 -0.2848  0.0532
  733SOL    HW1 2198   1.502   1.662   1.772 -0.6344 -0.0164  0.5200
  733SOL    HW2 2199   1.382   1.654   1.652 -1.0851  1.4586 -1.1962
  734SOL     OW 2200   2.952   2.461   2.211  0.1799 -0.2320  0.6703
  734SOL    HW1 2201   2.983   2.480   2.115 -2.1385 -0.5867  0.9411
  734SOL    HW2 2202   2.939   2.550   2.261 -0.8774  1.1194  2.0123
  735SOL     OW 2203   1.142   2.732   0.836  0.5196 -0.0567  0.3170
  735SOL    HW1 2204   1.112   2.685   0.923  0.0584 -1.1794  0.7911
  735SOL    HW2 2205   1.181   2.824   0.860 -0.3570  0.5696  0.5646
  736SOL     OW 2206   1.168   0.906   2.703 -0.1867 -0.3875  0.1856
  736SOL    HW1 2207   1.215   0.822   2.672 -0.6203  0.9013  0.7908
  736SOL    HW2 2208   1.218   0.986   2.662 -2.2149 -0.4099 -0.0932
  737SOL     OW 2209   3.051   0.865   0.230  0.0559 -0.0872 -0.1853
  737SOL    HW1 2210   0.009   0.801   0.162  0.7125  2.6848  2.6287
  737SOL    HW2 2211   2.956   0.892   0.218 -1.9880  1.1778  1.5485
  738SOL     OW 2212   0.179   2.631   1.507  0.2180 -0.1165 -0.2993
  738SOL    HW1 2213   0.208   2.548   1.455  0.3834 -3.2350 -0.8582
  738SOL    HW2 2214   0.088   2.663   1.484  0.1643  0.3658  2.4082
  739SOL     OW 2215   1.295   2.871   0.231  0.3374  0.3455  0.5155
  739SOL    HW1 2216   1.344   2.809   0.299  2.6635 -1.0688 -0.8882
  739SOL    HW2 2217   1.197   2.856   0.233 -1.1827  0.1403  1.2287
  740SOL     OW 2218   1.827   2.936   1.331  0.0629 -0.4617 -0.1735
  740SOL    HW1 2219   1.732   2.950   1.306 -1.1319  0.0976  2.2480
  740SOL    HW2 2220   1.842   2.888   1.415 -0.0488  3.2227 -2.6722
  741SOL     OW 2221   2.132   0.380   0.651 -0.0039  0.2220  0.4747
  741SOL    HW1 2222   2.114   0.322   0.734 -0.6411  0.6876  1.5527
  741SOL    HW2 2223   2.124   0.325   0.565  0.0922  0.4532  0.4013
  742SOL     OW 2224   1.146   2.441   1.941 -0.3499  0.1086  0.1991
  742SOL    HW1 2225   1.066   2.494   1.969 -3.1786  0.9219 -0.6972
  742SOL    HW2 2226   1.173   2.388   2.021 -1.6309  1.3764 -0.5015
  743SOL     OW 2227   2.168   0.867   1.923 -0.0466  0.2955 -0.7281
  743SOL    HW1 2228   2.195   0.850   1.824 -0.8959 -1.5401  0.2238
  743SOL    HW2 2229   2.079   0.823   1.945  1.9224 -1.6753 -1.7830
  744SOL     OW 2230   2.181   0.576   0.977  0.4486 -0.6738 -0.5607
  744SOL    HW1 2231   2.110   0.607   0.915  1.3019 -0.2292  1.8031
  744SOL    HW2 2232   2.146   0.533   1.060 -0.6180  0.5251 -0.3382
  745SOL     OW 2233   2.010   1.290   1.773  0.1930  0.0169  0.3112
  745SOL    HW1 2234   2.029   1.363   1.704 -0.5397 -0.7010  2.4883
  745SOL    HW2 2235   1.938   1.230   1.734  1.3222  0.3728 -1.3602
  746SOL     OW 2236   1.308   1.382   0.533  0.5850  0.6143  0.2815
  746SOL    HW1 2237   1.363   1.423   0.609 -0.6382  2.4696 -1.0041
  746SOL    HW2 2238   1.258   1.296   0.563 -0.6583  1.2943  2.8296
  747SOL     OW 2239   2.044   1.367   1.135  0.0046 -0.3129  0.4756
  747SOL    HW1 2240   1.982   1.314   1.198  0.2439 -0.9583 -1.8620
  747SOL    HW2 2241   2.114   1.308   1.098  1.3827 -0.4830 -0.6350
  748SOL     OW 2242   0.020   2.904   0.261 -0.2926 -0.2007 -0.2122
  748SOL    HW1 2243   0.086   2.920   0.337  4.2133 -0.9176  2.1332
  748SOL    HW2 2244   0.048   2.838   0.187 -0.9732  1.5922 -0.3106
  749SOL     OW 2245   0.134   0.564   2.099 -0.0641  0.5959  0.4216
  749SOL    HW1 2246   0.095   0.575   2.195  2.0300 -0.6546  1.9136
  749SOL    HW2 2247   0.070   0.516   2.040  1.1782 -0.3500 -1.0513
  750SOL     OW 2248   1.697   2.892   1.932 -0.3917  0.3009  0.1054
  750SOL    HW1 2249   1.606   2.926   1.960  0.5567  0.9536 -1.8501
  750SOL    HW2 2250   1.737   2.966   1.875 -2.2569  1.4639 -0.8116
  751SOL     OW 2251   2.623   0.576   0.372  0.4580  0.4971 -0.5462
  751SOL    HW1 2252   2.530   0.601   0.352  3.1549  0.7504  0.0556
  751SOL    HW2 2253   2.629   0.499   0.442  1.2024  0.4064 -1.8110
  752SOL     OW 2254   0.330   2.296   0.910  0.6645 -0.1816  0.0188
  752SOL    HW1 2255   0.370   2.390   0.888 -0.2399 -1.7835  0.6631
  752SOL    HW2 2256   0.232   2.301   0.909  3.9656  3.9581 -0.0696
  753SOL     OW 2257   0.874   0.308   1.287 -0.1365  0.0537 -0.2282
  753SOL    HW1 2258   0.778   0.276   1.300  1.6489  2.5354  1.4500
  753SOL    HW2 2259   0.930   0.225   1.278 -2.1123 -0.3938 -1.2501
  754SOL     OW 2260   0.865   2.895   2.272  0.5768  0.0034 -0.0906
  754SOL    HW1 2261   0.841   2.918   2.176  1.2673  0.2379  0.7265
  754SOL    HW2 2262   0.929   2.818   2.280 -1.2902 -1.5719  0.4326
  755SOL     OW 2263   2.121   1.023   0.444  0.0502  0.2484  0.4173
  755SOL    HW1 2264   2.127   0.939   0.504  2.2200 -1.9793  3.2553
  755SOL    HW2 2265   2.213   1.061   0.424  1.7697  1.9941  0.7045
  756SOL     OW 2266   2.271   1.995   2.667 -0.4389  0.1703  0.1422
  756SOL    HW1 2267   2.325   2.042   2.743  0.6123 -0.1030  1.6353
  756SOL    HW2 2268   2.305   2.028   2.575  1.2146 -0.9795 -0.1829
  757SOL     OW 2269   1.456   0.402   1.010 -0.9441  1.0106 -0.5258
  757SOL    HW1 2270   1.362   0.386   0.982  3.4854 -0.3154  3.0818
  757SOL    HW2 2271   1.493   0.316   1.054  1.3898 -0.0071 -0.9302
  758SOL     OW 2272   1.587   2.720   0.873  0.1770  0.5644  0.2048
  758SOL    HW1 2273   1.680   2.710   0.916  1.8680  0.2200 -0.9036
  758SOL    HW2 2274   1.545   2.630   0.861  0.7934  1.6573 -1.3489
  759SOL     OW 2275   2.440   0.651   1.342  0.3566  0.1805 -0.2705
  759SOL    HW1 2276   2.413   0.711   1.266 -4.4833  0.5628  0.1061
  759SOL    HW2 2277   2.533   0.668   1.379  1.0726  0.7679 -0.1349
  760SOL     OW 2278   2.412   1.046   1.098 -1.0594 -0.2730 -0.2082
  760SOL    HW1 2279   2.496   1.061   1.154  0.8967  0.9084 -1.7027
  760SOL    HW2 2280   2.384   0.947   1.105 -0.2920  1.6507  0.9597
  761SOL     OW 2281   0.335   0.356   0.534  0.7910  0.2880  0.6886
  761SOL    HW1 2282   0.431   0.364   0.492  1.3292 -0.8086  0.5200
  761SOL    HW2 2283   0.305   0.452   0.550  0.1082  2.2220  1.8887
  762SOL     OW 2284   1.757   1.812   1.336 -0.2766 -0.0614 -0.0386
  762SOL    HW1 2285   1.858   1.808   1.337 -1.5154 -0.8937  2.5187
  762SOL    HW2 2286   1.732   1.811   1.434  0.5649  0.2166 -1.7527
  763SOL     OW 2287   1.157   1.356   1.639  0.1708  0.0691 -0.4618
  763SOL    HW1 2288   1.074   1.356   1.698 -1.9835 -1.6592  1.7934
  763SOL    HW2 2289   1.146   1.418   1.558  0.7200 -0.0140 -1.3827
  764SOL     OW 2290   0.020   1.661   2.348  0.2261  0.8257  0.1394
  764SOL    HW1 2291   3.063   1.695   2.259  0.5831  0.9175 -0.4007
  764SOL    HW2 2292   0.027   1.735   2.413 -1.0175 -1.8707  0.3097
  765SOL     OW 2293   1.508   2.523   1.472  0.2547  0.3083 -0.4099
  765SOL    HW1 2294   1.518   2.437   1.416 -1.5385 -1.0349 -4.0762
  765SOL    HW2 2295   1.493   2.601   1.410  0.5915  0.3142  1.4153
  766SOL     OW 2296   2.982   2.584   2.785 -0.4604  0.3487 -0.5203
  766SOL    HW1 2297   2.970   2.650   2.708  1.4708 -0.3787 -1.5607
  766SOL    HW2 2298   2.932   2.499   2.754  0.5371 -0.6775 -0.3121
  767SOL     OW 2299   1.219   0.844   2.376  0.1804 -0.1796 -0.6090
  767SOL    HW1 2300   1.215   0.946   2.391 -1.3599  2.6893 -0.0817
  767SOL    HW2 2301   1.217   0.791   2.464 -1.3849 -1.1093  0.5692
  768SOL     OW 2302   1.370   2.049   0.113 -0.4856 -0.0683  0.6578
  768SOL    HW1 2303   1.458   2.039   0.059 -1.5632 -0.3585  0.0534
  768SOL    HW2 2304   1.323   1.958   0.120  3.2067 -1.8243  0.0697
  769SOL     OW 2305   0.318   2.569   1.066 -0.2365 -0.1712 -0.2689
  769SOL    HW1 2306   0.234   2.534   1.115  1.2102 -1.2531 -0.4511
  769SOL    HW2 2307   0.304   2.663   1.034 -2.0498 -2.0420 -2.2101
  770SOL     OW 2308   1.562   0.998   2.786  0.3512 -0.2226  0.2094
  770SOL    HW1 2309   1.589   1.073   2.849 -2.8803  2.4694 -1.2628
  770SOL    HW2 2310   1.505   1.036   2.705 -1.7345 -0.6569 -3.1725
  771SOL     OW 2311   0.261   2.898   2.214  0.4898  0.0978  0.8928
  771SOL    HW1 2312   0.322   2.945   2.285 -0.0068  1.5807 -1.0402
  771SOL    HW2 2313   0.305   2.907   2.121  1.9939  2.1156 -0.3581
  772SOL     OW 2314   2.101   3.002   2.248 -0.0599 -0.7275 -0.5863
  772SOL    HW1 2315   2.205   3.011   2.263  2.7019  0.7354  0.6222
  772SOL    HW2 2316   2.051   0.013   2.253 -0.7187  1.6805 -1.4976
  773SOL     OW 2317   0.801   2.022   1.693  0.4100  0.6634 -0.4498
  773SOL    HW1 2318   0.894   2.066   1.697  2.4269  2.1576 -1.5078
  773SOL    HW2 2319   0.745   2.061   1.769  2.6320  2.0116 -2.5249
  774SOL     OW 2320   1.323   0.249   2.077  0.2698  0.1653 -0.1153
  774SOL    HW1 2321   1.331   0.188   2.156 -1.7056 -0.2857  0.9857
  774SOL    HW2 2322   1.266   0.326   2.105 -0.7934  1.2301 -0.0943
  775SOL     OW 2323   2.177   2.800   0.121  0.6343  0.0019  0.2314
  775SOL    HW1 2324   2.157   2.754   0.035  1.6489  1.9249 -0.0302
  775SOL    HW2 2325   2.090   2.838   0.159  0.9716 -1.6843  0.9539
  776SOL     OW 2326   2.616   0.674   2.284 -0.3785  0.0316 -0.2800
  776SOL    HW1 2327   2.695   0.619   2.254 -1.4020 -0.2334 -1.3624
  776SOL    HW2 2328   2.644   0.773   2.287 -0.2998  0.2840 -2.1240
  777SOL     OW 2329   2.560   1.973   2.177  0.3291 -0.0725  0.4925
  777SOL    HW1 2330   2.524   1.956   2.270  1.7429 -4.1924 -1.1204
  777SOL    HW2 2331   2.653   2.023   2.179 -1.5452  1.2413 -0.3236
  778SOL     OW 2332   2.058   1.002   2.381  0.6857  0.3134  0.6859
  778SOL    HW1 2333   2.051   0.901   2.373 -1.8880  1.7589  0.1081
  778SOL    HW2 2334   2.157   1.025   2.400  0.3488 -1.0595  1.0047
  779SOL     OW 2335   2.994   0.203   0.063  0.1735 -0.0321 -0.3432
  779SOL    HW1 2336   3.062   0.127   0.041  0.5014 -2.2587  0.8377
  779SOL    HW2 2337   2.975   0.213   0.165 -0.4126  0.3600  2.2520
  780SOL     OW 2338   2.592   0.670   3.001  0.7455  0.1296  0.0431
  780SOL    HW1 2339   2.614   0.570   3.004  2.3939 -1.8925 -0.5672
  780SOL    HW2 2340   2.534   0.698   0.002 -0.8847 -2.4073 -1.5428
  781SOL     OW 2341   0.138   2.996   1.384  0.2704  0.0916  0.7492
  781SOL    HW1 2342   0.121   3.049   1.296 -0.6379 -0.4446 -1.5266
  781SOL    HW2 2343   0.088   2.906   1.374 -2.1339 -3.1472 -0.0018
  782SOL     OW 2344   1.842   2.588   0.601  0.6909 -0.4813  0.0689
  782SOL    HW1 2345   1.757   2.556   0.556  0.5062 -0.0548 -0.7468
  782SOL    HW2 2346   1.823   2.631   0.690  1.7089 -1.4155  0.8330
  783SOL     OW 2347   0.683   1.369   1.177 -0.6887 -0.8375  0.0704
  783SOL    HW1 2348   0.613   1.442   1.173 -1.6808 -1.7801  0.5592
  783SOL    HW2 2349   0.741   1.387   1.092  1.8464 -1.6564 -1.3954
  784SOL     OW 2350   1.280   0.661   2.615 -0.5917 -0.3679  0.7057
  784SOL    HW1 2351   1.285   0.572   2.571  1.9808  1.4478  1.2392
  784SOL    HW2 2352   1.363   0.717   2.613 -0.3115 -0.3903 -0.9265
  785SOL     OW 2353   2.425   0.368   1.327 -0.4223 -0.0464 -0.8150
  785SOL    HW1 2354   2.423   0.467   1.343  2.6680  0.0604 -0.8002
  785SOL    HW2 2355   2.341   0.340   1.280 -0.2838 -0.5966 -1.8002
  786SOL     OW 2356   1.306   2.668   1.945 -0.0989 -0.0742  0.7068
  786SOL    HW1 2357   1.407   2.646   1.936  0.9535 -3.9686  0.6658
  786SOL    HW2 2358   1.256   2.584   1.959  0.2385  0.0959 -1.2243
  787SOL     OW 2359   1.586   0.168   1.144  0.1969  0.0309 -0.3108
  787SOL    HW1 2360   1.589   0.080   1.197 -2.0173  0.3889  2.4432
  787SOL    HW2 2361   1.619   0.240   1.212  1.8452  1.8087  2.0417
  788SOL     OW 2362   2.919   1.243   0.384 -0.2580  0.0911  0.0328
  788SOL    HW1 2363   2.838   1.269   0.330 -1.1634  1.2709 -0.7473
  788SOL    HW2 2364   2.895   1.212   0.479  1.1984  0.1040  2.5742
  789SOL     OW 2365   0.500   2.100   1.580  0.0258 -0.3738 -0.4407
  789SOL    HW1 2366   0.454   2.032   1.522  2.6798  1.2185  3.2894
  789SOL    HW2 2367   0.526   2.063   1.673  0.1840  1.2620 -1.4731
  790SOL     OW 2368   0.563   0.539   2.150  0.0425  0.3159  0.8425
  790SOL    HW1 2369   0.574   0.613   2.219 -1.6183  3.6870 -1.3310
  790SOL    HW2 2370   0.505   0.570   2.074  0.8639  1.4409  1.4841
  791SOL     OW 2371   2.055   0.289   0.894  0.4966 -0.0986 -0.2594
  791SOL    HW1 2372   1.955   0.284   0.923 -1.3863  1.6701  0.2962
  791SOL    HW2 2373   2.105   0.358   0.949  2.8170 -0.6045  0.6470
  792SOL     OW 2374   1.215   2.879   1.748  0.0982  0.0654  0.0019
  792SOL    HW1 2375   1.216   2.978   1.723  1.6187  1.4614  1.1248
  792SOL    HW2 2376   1.260   2.865   1.838 -1.7065 -2.2846  0.7654
  793SOL     OW 2377   0.340   0.008   0.648  0.8654  0.2612  0.0470
  793SOL    HW1 2378   0.426   0.051   0.638 -0.7012 -1.0410  1.7920
  793SOL    HW2 2379   0.333   3.027   0.730 -0.7913 -0.5063 -0.9056
  794SOL     OW 2380   0.052   1.144   1.651  0.2552 -0.4257  0.0826
  794SOL    HW1 2381   0.015   1.119   1.740  1.3135  1.7031 -0.3449
  794SOL    HW2 2382   0.004   1.102   1.579  1.0552  0.4398  2.8914
  795SOL     OW 2383   0.399   2.157   2.292 -0.0048 -0.4062  0.0008
  795SOL    HW1 2384   0.331   2.233   2.317  2.8314  1.2913 -0.1449
  795SOL    HW2 2385   0.493   2.194   2.283 -0.4283  1.3684 -2.1740
  796SOL     OW 2386   2.402   0.695   2.101  0.0499  0.2362  0.3823
  796SOL    HW1 2387   2.488   0.673   2.158 -0.0262  2.2095 -1.2653
  796SOL    HW2 2388   2.413   0.654   2.009  0.6227  2.0288  0.7532
  797SOL     OW 2389   2.367   2.562   2.519  0.2268 -0.6743 -0.2246
  797SOL    HW1 2390   2.305   2.496   2.561  3.0443 -0.4440 -0.7121
  797SOL    HW2 2391   2.318   2.630   2.461  0.0695  0.9092  1.2303
  798SOL     OW 2392   0.006   2.837   2.091  0.8381  0.3726  1.1159
  798SOL    HW1 2393   0.097   2.875   2.111 -1.9118  0.2801 -1.9651
  798SOL    HW2 2394   3.068   2.808   1.987  1.2751 -1.6196 -5.8767
  799SOL     OW 2395   0.223   2.462   2.165  0.1385  0.7772  0.1781
  799SOL    HW1 2396   0.199   2.402   2.242  0.9475  2.6044 -1.3175
  799SOL    HW2 2397   0.143   2.477   2.105  1.2655 -0.8099 -1.1669
  800SOL     OW 2398   0.053   1.831   0.143  0.9616 -0.3473  0.2992
  800SOL    HW1 2399   0.043   1.937   0.151 -0.8424  5.6894 -0.9120
  800SOL    HW2 2400   0.101   1.781   0.220  1.1740  1.3290 -1.5949
  801SOL     OW 2401   1.604   1.332   1.339  0.0389  0.1884  0.0864
  801SOL    HW1 2402   1.533   1.266   1.312 -0.1396 -0.4982 -1.2638
  801SOL    HW2 2403   1.617   1.341   1.439  1.4239  1.6326 -1.5535
  802SOL     OW 2404   0.084   0.980   0.461 -0.8518 -0.1580  0.0887
  802SOL    HW1 2405   0.005   1.008   0.523  0.2540  1.5291  0.5908
  802SOL    HW2 2406   0.045   0.944   0.375 -1.0357  2.2871  0.4660
  803SOL     OW 2407   1.120   1.700   1.760 -0.1798  0.5115  0.1598
  803SOL    HW1 2408   1.022   1.715   1.747  1.0534 -0.3120  0.7163
  803SOL    HW2 2409   1.176   1.781   1.730 -0.6374  1.8414  0.0982
  804SOL     OW 2410   1.909   1.488   0.946 -0.0151  0.3623 -0.1145
  804SOL    HW1 2411   1.944   1.433   1.028 -0.4100  0.2579  3.3559
  804SOL    HW2 2412   1.986   1.529   0.889  0.8962  0.5851  1.8932
  805SOL     OW 2413   2.816   1.374   2.712  0.3115 -0.2174 -0.6645
  805SOL    HW1 2414   2.865   1.465   2.713 -0.0847 -0.3612  1.0033
  805SOL    HW2 2415   2.733   1.368   2.649 -1.1791 -1.7417  2.9525
  806SOL     OW 2416   0.263   2.483   0.136  0.5221  0.4275  0.3584
  806SOL    HW1 2417   0.284   2.427   0.054 -0.7720  1.5791  1.9389
  806SOL    HW2 2418   0.353   2.524   0.169  1.4203  0.7247 -0.3057
  807SOL     OW 2419   2.469   1.583   2.973 -0.0408 -0.0886  0.1135
  807SOL    HW1 2420   2.486   1.511   3.045 -0.9491  1.5403 -0.4036
  807SOL    HW2 2421   2.427   1.660   3.021  1.5245 -1.7847 -1.3684
  808SOL     OW 2422   1.331   2.209   1.221 -0.4770 -0.0375  0.4882
  808SOL    HW1 2423   1.282   2.166   1.296  1.1328  1.1284 -0.0169
  808SOL    HW2 2424   1.420   2.242   1.251  0.5541 -1.8360 -0.1044
  809SOL     OW 2425   2.788   0.795   0.480  0.0179  0.0274 -0.1466
  809SOL    HW1 2426   2.755   0.831   0.569 -1.4115  0.7651 -0.2785
  809SOL    HW2 2427   2.719   0.739   0.437  2.2513  0.9350  1.7514
  810SOL     OW 2428   0.933   1.395   0.587  0.0265 -0.1256  0.4711
  810SOL    HW1 2429   0.980   1.359   0.670 -0.1320  1.3901 -0.1470
  810SOL    HW2 2430   0.980   1.480   0.552 -0.1119 -1.4877  2.7360
  811SOL     OW 2431   1.733   2.491   1.116 -0.0493 -0.4519  0.1498
  811SOL    HW1 2432   1.785   2.552   1.053 -2.9169  0.3577 -0.4924
  811SOL    HW2 2433   1.765   2.507   1.215  1.4288 -0.1639  2.4422
  812SOL     OW 2434   1.586   2.816   1.630 -0.3986  0.3932  0.3902
  812SOL    HW1 2435   1.681   2.819   1.594 -1.6435 -1.3706 -0.1410
  812SOL    HW2 2436   1.544   2.726   1.625 -2.6033  1.7317  1.1719
  813SOL     OW 2437   0.782   2.921   1.745  0.2371  0.0738  0.0947
  813SOL    HW1 2438   0.740   2.926   1.652 -2.6776  1.2100 -0.5410
  813SOL    HW2 2439   0.832   2.834   1.760 -2.4149  1.0861  1.6634
  814SOL     OW 2440   1.048   2.686   2.244  0.6621  0.1758  0.0245
  814SOL    HW1 2441   1.143   2.722   2.247  1.7002  1.4819  1.2835
  814SOL    HW2 2442   1.032   2.602   2.304  0.1184 -2.9227 -1.1101
  815SOL     OW 2443   0.543   3.060   2.780 -0.1200 -0.7438 -0.0398
  815SOL    HW1 2444   0.512   2.988   2.711  0.2610 -1.0527 -0.1500
  815SOL    HW2 2445   0.593   0.059   2.739 -2.0987 -0.7580 -0.0029
  816SOL     OW 2446   2.274   0.537   2.711  0.0399  0.1224  0.3176
  816SOL    HW1 2447   2.186   0.496   2.736  1.0411  2.3726  0.7831
  816SOL    HW2 2448   2.275   0.632   2.749  2.5282 -1.2065  0.0226
  817SOL     OW 2449   2.460   2.733   2.015 -0.0833 -0.0960  0.3419
  817SOL    HW1 2450   2.490   2.658   2.070 -2.3963  1.0446 -1.5112
  817SOL    HW2 2451   2.530   2.809   2.007  0.5959 -0.0706 -2.8063
  818SOL     OW 2452   1.189   0.658   0.109 -0.4520  0.2842 -0.0574
  818SOL    HW1 2453   1.227   0.633   0.013  0.1233 -0.5422 -2.1898
  818SOL    HW2 2454   1.176   0.578   0.168  0.1603  2.6456 -1.1643
  819SOL     OW 2455   1.915   1.320   2.607  0.1549  0.7936 -0.4181
  819SOL    HW1 2456   1.985   1.338   2.537 -0.9033 -0.8941 -0.0099
  819SOL    HW2 2457   1.884   1.220   2.594  0.2169  0.9184 -0.4669
  820SOL     OW 2458   2.961   1.653   2.654  0.0959  0.1142  0.1078
  820SOL    HW1 2459   2.972   1.733   2.716  2.0108 -0.2170 -0.5176
  820SOL    HW2 2460   3.054   1.632   2.609  0.6182 -2.1699 -2.0695
  821SOL     OW 2461   0.202   2.604   0.644 -0.0876  0.1531  0.6403
  821SOL    HW1 2462   0.287   2.598   0.695 -2.5456  1.8014 -1.4576
  821SOL    HW2 2463   0.219   2.636   0.546  1.1017 -1.6480  0.2902
  822SOL     OW 2464   2.250   2.462   3.047 -0.0241 -0.0607 -0.3308
  822SOL    HW1 2465   2.257   2.395   2.970  0.9948 -1.9115  1.7276
  822SOL    HW2 2466   2.338   2.470   0.022 -0.9433  0.0856  1.1590
  823SOL     OW 2467   1.492   0.007   2.388  0.0447 -0.1869  0.5674
  823SOL    HW1 2468   1.421   0.080   2.373 -1.5047  1.1884 -0.1183
  823SOL    HW2 2469   1.492   3.023   2.313 -0.9134  0.1218  2.2929
  824SOL     OW 2470   2.728   2.309   2.206  0.0670  0.2535 -0.1715
  824SOL    HW1 2471   2.797   2.385   2.201 -0.2018 -1.8212  1.8122
  824SOL    HW2 2472   2.652   2.338   2.266 -0.8078  1.6039 -0.0466
  825SOL     OW 2473   2.956   2.284   2.468  0.3076  0.3472  0.1563
  825SOL    HW1 2474   2.965   2.183   2.483 -2.4751 -1.7845  0.4120
  825SOL    HW2 2475   2.966   2.301   2.368  0.0115 -3.7325  2.2556
  826SOL     OW 2476   1.939   0.626   2.626  0.0273 -0.3069  0.0696
  826SOL    HW1 2477   1.945   0.707   2.682  2.8776 -1.3171 -0.4927
  826SOL    HW2 2478   1.990   0.635   2.538 -0.5801 -0.0268 -1.0423
  827SOL     OW 2479   2.921   1.797   1.729  0.3503  0.1576  0.2117
  827SOL    HW1 2480   2.846   1.806   1.797 -1.0817  1.3738 -1.9929
  827SOL    HW2 2481   2.885   1.726   1.659 -2.9479 -3.0184  1.2955
  828SOL     OW 2482   0.076   0.047   1.140 -0.0985  0.0504 -0.1961
  828SOL    HW1 2483   0.084   3.041   1.087 -1.0988 -0.7364 -1.0107
  828SOL    HW2 2484   0.112   0.125   1.086  0.2034 -1.7144  1.6058
  829SOL     OW 2485   1.040   1.871   2.722  0.1232  0.0046 -0.3897
  829SOL    HW1 2486   1.003   1.968   2.737  1.3614 -1.8047 -1.0949
  829SOL    HW2 2487   0.974   1.807   2.675  1.8416  0.3358 -1.6196
  830SOL     OW 2488   0.796   1.080   1.345  0.6508  0.0258  0.3318
  830SOL    HW1 2489   0.799   1.174   1.382  0.9766 -1.1363  0.5317
  830SOL    HW2 2490   0.732   1.016   1.391  2.0714 -0.1647 -1.7222
  831SOL     OW 2491   2.676   2.012   2.684 -0.2254 -0.2183  0.4477
  831SOL    HW1 2492   2.619   1.928   2.661 -2.4422 -0.5504  1.3339
  831SOL    HW2 2493   2.739   1.993   2.753  0.0001  2.3787 -4.1638
  832SOL     OW 2494   1.897   2.546   2.727 -0.6722  0.0320  0.6919
  832SOL    HW1 2495   1.898   2.445   2.721  2.3985  1.1404  2.3322
  832SOL    HW2 2496   1.855   2.573   2.812 -0.0259  0.3849 -2.3323
  833SOL     OW 2497   0.683   0.322   2.037 -0.6504  0.1839 -0.7702
  833SOL    HW1 2498   0.770   0.347   1.990  1.3625  0.1774 -2.4157
  833SOL    HW2 2499   0.646   0.398   2.099 -0.4220  0.5954  1.2979
  834SOL     OW 2500   0.041   0.249   1.337  0.1627 -0.6732 -0.0257
  834SOL    HW1 2501   0.010   0.158   1.300  0.9245 -2.2370 -0.9131
  834SOL    HW2 2502   3.043   0.319   1.339 -0.0275  1.1977  1.7219
  835SOL     OW 2503   2.746   0.409   0.196 -0.3284 -0.5364 -0.4661
  835SOL    HW1 2504   2.703   0.480   0.252 -3.2908  2.1873  0.4420
  835SOL    HW2 2505   2.849   0.420   0.196  0.9537  1.7008 -1.5083
  836SOL     OW 2506   1.652   1.853   0.194 -0.4158  0.4742 -0.3189
  836SOL    HW1 2507   1.636   1.888   0.291 -1.6434 -0.1461 -0.4179
  836SOL    HW2 2508   1.562   1.837   0.151  2.1100 -0.2473  1.8441
  837SOL     OW 2509   1.918   1.934   0.651 -0.0532  0.1614  0.5769
  837SOL    HW1 2510   2.010   1.909   0.688  1.2717 -0.8902 -0.0740
  837SOL    HW2 2511   1.927   1.980   0.561 -1.0088  0.7837  0.4258
  838SOL     OW 2512   1.519   0.694   2.334  0.5600 -0.2257 -0.2780
  838SOL    HW1 2513   1.515   0.750   2.416  0.1154 -4.3306 -2.0265
  838SOL    HW2 2514   1.529   0.601   2.358  0.2107  2.0568 -1.3997
  839SOL     OW 2515   0.661   1.391   2.211 -0.3831  0.0476 -0.5867
  839SOL    HW1 2516   0.633   1.379   2.307  1.7077  1.2224 -0.7451
  839SOL    HW2 2517   0.761   1.379   2.206  0.6675  2.0251  1.9743
  840SOL     OW 2518   1.126   1.569   0.492 -0.0941 -0.0227  0.3449
  840SOL    HW1 2519   1.163   1.646   0.549  0.3073 -1.9794 -2.5234
  840SOL    HW2 2520   1.191   1.493   0.488 -0.5721  1.6600  2.0845
  841SOL     OW 2521   1.642   2.384   0.741 -0.2482  0.1205  0.3265
  841SOL    HW1 2522   1.734   2.354   0.771 -0.8996  1.4299 -1.0563
  841SOL    HW2 2523   1.580   2.406   0.818  0.1772 -1.8305  0.6972
  842SOL     OW 2524   0.302   0.603   0.162  0.2556 -0.0478 -0.2045
  842SOL    HW1 2525   0.282   0.512   0.201 -1.4481 -0.0065  0.8064
  842SOL    HW2 2526   0.371   0.598   0.092 -1.4057 -2.1747  2.2448
  843SOL     OW 2527   0.580   0.169   0.674  0.2300  0.4816  0.7184
  843SOL    HW1 2528   0.603   0.258   0.634  0.1262  1.6745 -1.0200
  843SOL    HW2 2529   0.641   0.091   0.651  0.1970  0.1379  0.2652
  844SOL     OW 2530   2.384   0.121   2.444 -0.0023 -0.5054  0.3409
  844SOL    HW1 2531   2.369   0.063   2.525 -1.6185  0.4714  1.5508
  844SOL    HW2 2532   2.406   0.062   2.364 -0.9216 -2.0808 -0.8419
  845SOL     OW 2533   2.928   2.350   1.782 -0.2130  0.1176  0.3916
  845SOL    HW1 2534   2.841   2.336   1.823  3.5020 -0.1098 -1.4155
  845SOL    HW2 2535   2.963   2.266   1.736  1.7427  0.3823  2.1106
  846SOL     OW 2536   2.164   1.368   2.463  0.0203  0.4269 -0.4745
  846SOL    HW1 2537   2.198   1.454   2.431  0.7441  0.4629  1.7770
  846SOL    HW2 2538   2.147   1.301   2.389  2.7353  0.6841 -0.9420
  847SOL     OW 2539   0.801   0.758   1.938  0.3472  0.3034  0.4891
  847SOL    HW1 2540   0.744   0.716   1.862  1.6421  0.2273 -0.5771
  847SOL    HW2 2541   0.894   0.752   1.905  0.6931 -0.1881 -0.3160
  848SOL     OW 2542   2.367   0.042   2.809  0.5321  0.3752 -0.2639
  848SOL    HW1 2543   2.439   3.049   2.816  1.0201  0.6081  2.3455
  848SOL    HW2 2544   2.377   0.116   2.881  0.4347  0.1493 -2.3363
  849SOL     OW 2545   0.253   2.917   3.017 -0.2322  0.5925 -0.3430
  849SOL    HW1 2546   0.188   2.902   2.942  4.0000  2.4996 -0.4241
  849SOL    HW2 2547   0.348   2.896   2.984  1.4967 -0.6674 -2.7920
  850SOL     OW 2548   1.036   2.556   1.059  0.4117  0.5870  0.2908
  850SOL    HW1 2549   1.109   2.516   1.114 -0.4664  2.6467 -0.5101
  850SOL    HW2 2550   0.999   2.486   0.993  0.6533 -1.0797  0.7391
  851SOL     OW 2551   2.018   0.467   2.326 -0.4782 -0.0247  0.3810
  851SOL    HW1 2552   2.057   0.484   2.232 -2.0670 -0.9588 -4.3981
  851SOL    HW2 2553   2.089   0.430   2.383 -2.2163  0.7393 -2.6916
  852SOL     OW 2554   1.226   0.172   2.613 -0.1376  0.0669 -0.3615
  852SOL    HW1 2555   1.307   0.146   2.666 -0.7357 -0.4586 -1.1442
  852SOL    HW2 2556   1.137   0.156   2.659  1.7609  2.0863  0.7369
  853SOL     OW 2557   2.920   2.761   2.990  0.3414  0.5991  0.2475
  853SOL    HW1 2558   2.880   2.709   3.070 -0.6039  0.9693  0.7397
  853SOL    HW2 2559   2.933   2.695   2.914  0.8514  2.6815 -0.5490
  854SOL     OW 2560   2.062   0.720   2.403 -0.5144 -0.4213 -0.2100
  854SOL    HW1 2561   2.159   0.731   2.392 -3.6582 -0.1867  0.4094
  854SOL    HW2 2562   2.028   0.632   2.365 -2.1301 -2.6433  1.4149
  855SOL     OW 2563   0.522   2.542   0.235 -0.4208 -0.7457 -0.0294
  855SOL    HW1 2564   0.502   2.630   0.281  0.1498 -0.6774  1.4508
  855SOL    HW2 2565   0.612   2.540   0.186 -0.7970  4.5403  1.7048
  856SOL     OW 2566   0.372   0.009   2.408 -0.3824 -0.3797  0.4788
  856SOL    HW1 2567   0.389   3.022   2.488  1.3347 -2.5979  2.2625
  856SOL    HW2 2568   0.309   0.087   2.436 -3.3496  0.0619 -0.0357
  857SOL     OW 2569   0.973   0.067   1.258 -0.7870 -0.1495  0.1194
  857SOL    HW1 2570   0.903   0.036   1.324  0.7048 -1.5592  0.0902
  857SOL    HW2 2571   0.944   0.039   1.162 -1.6662 -2.7793 -1.6201
  858SOL     OW 2572   2.520   1.974   1.729  0.0547 -0.0564  0.1635
  858SOL    HW1 2573   2.576   2.006   1.651 -0.0897 -0.1751  1.9904
  858SOL    HW2 2574   2.473   2.057   1.767 -0.6641  0.3189 -1.7406
  859SOL     OW 2575   1.893   2.376   2.015 -0.5254  0.2352 -0.1131
  859SOL    HW1 2576   1.796   2.343   2.000  0.3300 -3.2051  1.2567
  859SOL    HW2 2577   1.892   2.412   2.110 -2.1895  1.9211 -0.2102
  860SOL     OW 2578   1.998   0.091   0.310 -0.1313 -0.0048 -0.4050
  860SOL    HW1 2579   2.000   0.160   0.233  1.4391 -0.0922 -2.0689
  860SOL    HW2 2580   1.933   0.114   0.379  0.0172  0.5646  0.1051
  861SOL     OW 2581   2.785   0.372   0.510  0.2587  0.1568 -0.1811
  861SOL    HW1 2582   2.866   0.423   0.541  0.4212 -0.2231 -0.3075
  861SOL    HW2 2583   2.752   0.311   0.584 -2.1712 -1.0942 -0.3867
  862SOL     OW 2584   0.835   2.713   2.749 -0.6833  0.1729  0.0041
  862SOL    HW1 2585   0.908   2.761   2.800 -1.0338  1.2479  2.3949
  862SOL    HW2 2586   0.857   2.611   2.734 -3.2287 -3.6191 -0.6000
  863SOL     OW 2587   0.606   0.593   1.353  0.5720 -0.3808 -0.7594
  863SOL    HW1 2588   0.576   0.602   1.452 -1.1887  0.9840  2.0951
  863SOL    HW2 2589   0.526   0.562   1.300  0.0079  2.2102 -1.4233
  864SOL     OW 2590   2.890   2.992   1.693  0.1872 -0.6781 -0.3080
  864SOL    HW1 2591   2.973   3.037   1.653 -0.0244  0.8629 -1.0187
  864SOL    HW2 2592   2.920   2.928   1.762 -0.7846  1.2266 -1.1082
  865SOL     OW 2593   0.541   1.176   2.958  0.2483  0.2386 -0.0971
  865SOL    HW1 2594   0.595   1.098   2.983  0.9930  0.8377 -3.6917
  865SOL    HW2 2595   0.550   1.255   3.021  1.4197  0.4509  0.1527
  866SOL     OW 2596   2.831   0.214   2.935 -0.4778 -0.1773  0.1656
  866SOL    HW1 2597   2.882   0.211   3.028  1.4602 -0.3225  3.3249
  866SOL    HW2 2598   2.833   0.122   2.891  0.3341  1.6824 -1.1668
  867SOL     OW 2599   2.571   2.930   2.787  0.0967 -0.0016 -0.3510
  867SOL    HW1 2600   2.658   2.967   2.822 -1.0496  0.8338 -0.1528
  867SOL    HW2 2601   2.556   2.968   2.695 -0.9568 -0.5789 -3.1243
  868SOL     OW 2602   1.281   0.871   0.223 -0.1966 -0.8163  0.0144
  868SOL    HW1 2603   1.233   0.789   0.184  1.4923 -1.8523 -0.6730
  868SOL    HW2 2604   1.378   0.855   0.198  1.4586 -1.3321 -0.5114
  869SOL     OW 2605   2.755   1.375   0.676  0.0597 -0.7705 -0.1618
  869SOL    HW1 2606   2.767   1.474   0.712  2.1010  4.7798 -0.4137
  869SOL    HW2 2607   2.772   1.307   0.749 -0.2381 -2.5775 -0.7965
  870SOL     OW 2608   2.390   1.652   0.526 -0.3090  0.5098  0.3428
  870SOL    HW1 2609   2.467   1.617   0.462  2.2967  0.0379 -0.8781
  870SOL    HW2 2610   2.340   1.575   0.569  1.3612  0.3994 -0.8263
  871SOL     OW 2611   1.274   1.075   0.635 -0.1237 -0.2663 -0.9331
  871SOL    HW1 2612   1.238   0.982   0.627  0.5537  1.8380 -1.1484
  871SOL    HW2 2613   1.263   1.107   0.733  0.4414  1.5109 -1.4663
  872SOL     OW 2614   1.292   1.919   1.669  0.0987  0.2238  0.3921
  872SOL    HW1 2615   1.257   1.891   1.575 -0.2703 -0.7927 -2.2076
  872SOL    HW2 2616   1.377   1.869   1.697 -1.5359  0.9364 -0.4422
  873SOL     OW 2617   1.040   1.789   2.325 -0.5221 -0.7274 -0.1600
  873SOL    HW1 2618   1.020   1.696   2.361 -2.8722  0.9943 -1.0399
  873SOL    HW2 2619   1.004   1.787   2.230  1.5157  0.5484  0.2004
  874SOL     OW 2620   1.167   2.243   0.972  0.1399 -0.4354  0.1483
  874SOL    HW1 2621   1.228   2.266   0.888 -0.2823  0.0273  0.4298
  874SOL    HW2 2622   1.225   2.248   1.055  0.0463  0.6235  0.8054
  875SOL     OW 2623   2.218   0.292   1.182 -0.0673  0.0811 -0.2262
  875SOL    HW1 2624   2.124   0.324   1.179  2.3237 -0.1789 -0.3348
  875SOL    HW2 2625   2.228   0.199   1.154 -1.9308  3.2925 -2.5697
  876SOL     OW 2626   0.799   0.521   0.161 -1.0276 -0.6922 -0.2176
  876SOL    HW1 2627   0.746   0.591   0.210 -0.0920 -0.3212  1.1546
  876SOL    HW2 2628   0.809   0.434   0.221  0.4908 -1.8232  0.8270
  877SOL     OW 2629   2.910   0.415   1.284  0.3417 -0.4489  0.0835
  877SOL    HW1 2630   2.845   0.354   1.228  2.5301  1.0254 -0.2985
  877SOL    HW2 2631   2.904   0.513   1.252  0.9131  1.5157 -0.8703
  878SOL     OW 2632   2.168   2.475   0.343  0.6720  0.0084 -0.0710
  878SOL    HW1 2633   2.109   2.475   0.258 -0.4975 -0.8816  0.3002
  878SOL    HW2 2634   2.229   2.394   0.340  1.2778 -1.1904 -1.1297
  879SOL     OW 2635   2.818   1.548   1.613 -0.1490 -0.1212 -0.3049
  879SOL    HW1 2636   2.721   1.562   1.634 -1.9617 -0.3358  0.9244
  879SOL    HW2 2637   2.857   1.481   1.678  0.4362  0.7202 -1.4077
  880SOL     OW 2638   1.431   2.728   1.304  0.3076 -0.2839  0.1449
  880SOL    HW1 2639   1.424   2.778   1.216  1.4341 -2.8001 -0.4323
  880SOL    HW2 2640   1.366   2.765   1.373 -1.8030 -0.0650 -0.5276
  881SOL     OW 2641   1.095   2.210   0.141  0.4249 -0.1266  0.1858
  881SOL    HW1 2642   1.014   2.198   0.198  0.6044  0.1115  0.0003
  881SOL    HW2 2643   1.176   2.184   0.196 -1.1932  4.7898 -1.1168
  882SOL     OW 2644   1.789   0.755   1.477  0.0107 -0.2174  0.6395
  882SOL    HW1 2645   1.767   0.773   1.571 -0.9808 -0.9488 -4.0604
  882SOL    HW2 2646   1.703   0.763   1.422 -0.8533  0.9291 -0.6347
  883SOL     OW 2647   1.254   0.135   2.350  0.2073  0.1493  0.0786
  883SOL    HW1 2648   1.228   0.155   2.450  0.2449 -0.1648  0.9817
  883SOL    HW2 2649   1.171   0.112   2.296  2.3738  0.7276  1.7399
  884SOL     OW 2650   3.004   0.492   0.272  0.0033 -0.4923 -0.2736
  884SOL    HW1 2651   3.004   0.537   0.366  0.8962 -2.2202  0.8900
  884SOL    HW2 2652   3.031   0.556   0.194 -1.7285 -1.0976  0.8388
  885SOL     OW 2653   0.981   1.292   2.992  0.2582  0.6075 -0.6852
  885SOL    HW1 2654   0.929   1.381   2.998 -1.0606 -0.3563 -1.0045
  885SOL    HW2 2655   1.014   1.273   0.005 -1.8228 -2.9154  0.8260
  886SOL     OW 2656   1.657   1.439   2.629 -0.1202 -0.1854 -0.2821
  886SOL    HW1 2657   1.623   1.529   2.602 -2.4708 -0.9713  3.5677
  886SOL    HW2 2658   1.762   1.427   2.624 -0.0634 -2.8243 -0.3990
  887SOL     OW 2659   1.221   0.592   1.685  0.3914 -0.0935 -0.6183
  887SOL    HW1 2660   1.210   0.646   1.601 -0.1263 -0.5218  3.3792
  887SOL    HW2 2661   1.287   0.517   1.674 -2.9565  3.8552  0.8334
  888SOL     OW 2662   2.827   0.454   1.870 -0.1243  0.1465 -0.1895
  888SOL    HW1 2663   2.789   0.551   1.884 -2.1414  2.8602 -0.9495
  888SOL    HW2 2664   2.844   0.432   1.772  0.3166  0.1786 -2.8016
  889SOL     OW 2665   3.058   2.582   0.808 -0.1736 -0.4862 -0.0442
  889SOL    HW1 2666   2.970   2.588   0.763  2.4247 -0.8264 -0.7121
  889SOL    HW2 2667   0.052   2.605   0.741 -0.0340 -1.1970  0.9823
  890SOL     OW 2668   2.836   2.679   0.169 -0.1382  1.0245 -0.6986
  890SOL    HW1 2669   2.917   2.689   0.233  0.3608 -1.3950  0.5171
  890SOL    HW2 2670   2.756   2.702   0.224  2.6928 -1.7756 -0.4169
  891SOL     OW 2671   1.022   1.616   2.897 -0.3986  0.0137  0.1039
  891SOL    HW1 2672   1.118   1.582   2.877 -2.8889  2.5936  0.6026
  891SOL    HW2 2673   0.962   1.614   2.814 -0.8815  0.3136 -0.0962
  892SOL     OW 2674   3.000   2.958   0.834  0.4095 -0.4797  0.0094
  892SOL    HW1 2675   2.961   2.986   0.745  1.5204 -0.2751 -1.2217
  892SOL    HW2 2676   2.929   2.953   0.910 -0.9120 -0.5285 -0.3088
  893SOL     OW 2677   0.693   0.041   0.991 -0.1697 -0.3551 -0.5455
  893SOL    HW1 2678   0.672   0.141   0.972  1.0298 -1.6620  0.1835
  893SOL    HW2 2679   0.796   0.024   0.985  1.7437 -2.5323 -2.3370
  894SOL     OW 2680   2.962   1.056   0.636  0.7350 -0.3167 -0.6828
  894SOL    HW1 2681   2.880   1.009   0.668 -0.6921  3.9012  1.2649
  894SOL    HW2 2682   2.978   1.131   0.701  0.5484  0.6209  1.4684
  895SOL     OW 2683   2.776   2.645   1.958 -0.1393  0.1487 -0.0328
  895SOL    HW1 2684   2.718   2.730   1.963  1.5040 -0.2926 -0.0958
  895SOL    HW2 2685   2.823   2.639   1.866 -0.1964  0.9802 -1.5437
  896SOL     OW 2686   0.938   0.097   1.643 -1.1934  0.0777 -0.4043
  896SOL    HW1 2687   1.017   0.139   1.693  1.9492 -0.9026  2.0571
  896SOL    HW2 2688   0.901   0.013   1.687  2.0947 -0.2516 -1.2145
  897SOL     OW 2689   0.849   1.735   1.713 -0.0205 -0.5216  0.1561
  897SOL    HW1 2690   0.826   1.720   1.614 -3.0413  2.0025 -0.2605
  897SOL    HW2 2691   0.827   1.836   1.731  0.6224  2.7050  0.4383
  898SOL     OW 2692   1.575   2.621   1.915  0.0996 -0.6346 -0.1327
  898SOL    HW1 2693   1.624   2.567   1.841 -1.2869 -1.1388  2.4632
  898SOL    HW2 2694   1.620   2.713   1.930 -1.6162 -0.2792  1.6258
  899SOL     OW 2695   0.806   0.391   0.609  0.5877  0.3437  0.1514
  899SOL    HW1 2696   0.780   0.358   0.516 -1.1420  3.5253 -0.7630
  899SOL    HW2 2697   0.754   0.475   0.635 -0.6847 -1.2509 -0.9565
  900SOL     OW 2698   1.935   2.488   2.288 -0.0764  0.3010  0.5013
  900SOL    HW1 2699   1.866   2.557   2.309 -1.5537 -3.5041 -2.0510
  900SOL    HW2 2700   1.966   2.437   2.367 -2.0562  0.0897 -1.3522
  901SOL     OW 2701   0.933   2.117   2.768  0.0873  0.6118 -0.2182
  901SOL    HW1 2702   0.985   2.191   2.720 -0.1390 -0.3518  0.4316
  901SOL    HW2 2703   0.836   2.145   2.771 -0.2728  1.7391 -0.0951
  902SOL     OW 2704   1.864   1.027   0.433 -0.6383  0.7123  0.4874
  902SOL    HW1 2705   1.964   1.026   0.440 -2.9059  0.5454 -1.7534
  902SOL    HW2 2706   1.827   1.125   0.438 -0.9489  0.3856  0.6871
  903SOL     OW 2707   1.871   0.785   0.585 -0.0443  0.2031  0.2164
  903SOL    HW1 2708   1.901   0.760   0.490  0.6645 -1.3620  0.3770
  903SOL    HW2 2709   1.851   0.884   0.582  0.4126 -1.3300 -0.9769
  904SOL     OW 2710   0.755   0.971   2.837  0.6529 -0.3205 -0.4669
  904SOL    HW1 2711   0.761   1.049   2.773 -0.0785  0.2725  0.5545
  904SOL    HW2 2712   0.828   0.896   2.838  0.1901  1.8879 -0.6086
  905SOL     OW 2713   2.169   0.062   0.855 -0.0838 -0.6327 -0.7495
  905SOL    HW1 2714   2.180   0.028   0.953  1.4283 -1.0080  0.2985
  905SOL    HW2 2715   2.129   0.157   0.859  0.8775  0.0802  2.4540
  906SOL     OW 2716   2.979   2.281   1.072  0.5251  0.5126 -0.0828
  906SOL    HW1 2717   2.985   2.189   1.109 -3.6692  1.3982 -1.1016
  906SOL    HW2 2718   2.881   2.310   1.067 -0.6143 -1.3275 -2.2394
  907SOL     OW 2719   0.967   0.596   3.010  0.4078 -0.3591  0.3286
  907SOL    HW1 2720   0.895   0.570   0.001 -1.5397 -0.2367  2.9017
  907SOL    HW2 2721   1.046   0.651   3.043  2.8507 -1.2797  0.1597
  908SOL     OW 2722   2.280   2.591   0.981 -0.4461 -0.2825  0.3382
  908SOL    HW1 2723   2.305   2.597   1.078 -1.1767 -2.1932 -3.8242
  908SOL    HW2 2724   2.317   2.672   0.929  1.5686 -1.8326 -0.7869
  909SOL     OW 2725   2.358   0.990   1.398 -0.3745  0.0734  0.3540
  909SOL    HW1 2726   2.446   0.946   1.385 -4.8533  0.6260  1.3202
  909SOL    HW2 2727   2.282   0.942   1.354  1.4043  1.6348  2.1630
  910SOL     OW 2728   1.227   3.038   2.112  0.1918 -0.2688 -0.5089
  910SOL    HW1 2729   1.228   2.953   2.169 -0.1488  0.6524  0.8261
  910SOL    HW2 2730   1.133   0.003   2.112 -1.6000  1.6275  0.1324
  911SOL     OW 2731   2.864   0.561   2.185  0.3095 -0.5042  0.2235
  911SOL    HW1 2732   2.834   0.595   2.097  1.4677  0.4328  1.3163
  911SOL    HW2 2733   2.835   0.464   2.189 -0.8437 -1.1259 -0.5336
  912SOL     OW 2734   0.189   1.010   1.398  0.3292  0.8015  0.0016
  912SOL    HW1 2735   0.095   0.996   1.415  3.8615 -2.2785  0.7212
  912SOL    HW2 2736   0.206   1.113   1.402 -1.4188  0.0612  0.6708
  913SOL     OW 2737   2.722   2.054   1.549  0.2591  0.0172  0.4142
  913SOL    HW1 2738   2.793   2.101   1.607 -0.9532  0.4789 -0.3769
  913SOL    HW2 2739   2.767   2.024   1.460  1.3436 -0.0151 -0.3247
  914SOL     OW 2740   1.553   0.761   1.343 -0.5341  0.3099  0.0038
  914SOL    HW1 2741   1.495   0.679   1.327 -2.1520  4.0633  1.7821
  914SOL    HW2 2742   1.497   0.836   1.388  1.6507  0.8749  0.1676
  915SOL     OW 2743   1.650   0.302   1.370 -0.1470 -0.2374  0.3973
  915SOL    HW1 2744   1.727   0.252   1.415  3.5684  1.4260 -0.5770
  915SOL    HW2 2745   1.636   0.392   1.421 -0.5010  2.3134  0.9523
  916SOL     OW 2746   2.707   2.474   1.341 -0.3650  0.0240 -0.1546
  916SOL    HW1 2747   2.727   2.435   1.249  2.1702 -2.3907 -3.1428
  916SOL    HW2 2748   2.677   2.397   1.401  0.7026 -2.2162  0.7162
  917SOL     OW 2749   2.305   2.129   0.464  0.4342  0.3526  0.0586
  917SOL    HW1 2750   2.253   2.154   0.380 -0.9704 -0.9449 -0.0944
  917SOL    HW2 2751   2.283   2.032   0.490 -1.3784  1.5248 -0.5242
  918SOL     OW 2752   2.039   2.681   2.544 -0.0529  0.5530 -0.3528
  918SOL    HW1 2753   2.130   2.694   2.594 -2.2302  2.5507 -0.0777
  918SOL    HW2 2754   1.975   2.620   2.601 -0.5668 -2.0594  2.4663
  919SOL     OW 2755   1.235   2.448   1.480 -0.2112 -0.8956 -0.7321
  919SOL    HW1 2756   1.230   2.383   1.560 -1.7338  0.0328  1.2300
  919SOL    HW2 2757   1.325   2.501   1.482  0.6646  1.3411 -0.6873
  920SOL     OW 2758   2.929   0.125   2.288 -0.0849  0.0814  0.4377
  920SOL    HW1 2759   2.945   0.146   2.385  1.0470  0.0203  0.6441
  920SOL    HW2 2760   3.018   0.108   2.238  3.1997  2.6910  0.2945
  921SOL     OW 2761   2.993   0.831   1.721  0.1705  0.0761 -0.0246
  921SOL    HW1 2762   2.984   0.931   1.744 -0.7970  0.0907 -0.2133
  921SOL    HW2 2763   3.059   0.786   1.782 -2.4468  2.2887 -3.9555
  922SOL     OW 2764   2.272   1.887   0.556  0.0622 -0.0547 -0.0579
  922SOL    HW1 2765   2.209   1.868   0.631 -1.9351 -2.4408 -3.3180
  922SOL    HW2 2766   2.339   1.812   0.540 -0.9136  1.0643 -0.6559
  923SOL     OW 2767   0.970   1.748   0.040  0.2561 -0.1999 -0.4550
  923SOL    HW1 2768   0.977   1.686   3.038 -1.2651 -0.0924  2.2280
  923SOL    HW2 2769   0.935   1.841   0.008  1.4597  1.9408 -1.3824
  924SOL     OW 2770   0.863   0.278   0.286 -0.0476  0.1047 -0.0618
  924SOL    HW1 2771   0.868   0.178   0.297 -0.3186 -0.1694 -1.4144
  924SOL    HW2 2772   0.936   0.319   0.234 -2.0337  1.1704 -2.3384
  925SOL     OW 2773   2.338   0.439   0.818 -0.2362 -0.2061 -0.7849
  925SOL    HW1 2774   2.281   0.476   0.895  0.5487  2.0831  2.7773
  925SOL    HW2 2775   2.287   0.416   0.737  1.7685 -0.6998  4.3381
  926SOL     OW 2776   0.397   0.507   1.167  0.2651 -0.0784  0.0620
  926SOL    HW1 2777   0.386   0.544   1.072 -1.2440  0.4797 -1.5872
  926SOL    HW2 2778   0.383   0.406   1.170 -1.2060 -1.2632 -1.8204
  927SOL     OW 2779   0.125   1.533   2.580  0.4903  0.0323  0.3301
  927SOL    HW1 2780   0.109   1.579   2.491 -1.1633 -0.7326 -2.3157
  927SOL    HW2 2781   0.122   1.431   2.570 -1.1041 -1.2758 -0.5705
  928SOL     OW 2782   2.839   0.769   2.921 -0.2940  0.5894 -0.0917
  928SOL    HW1 2783   2.742   0.752   2.937  3.8432  1.1851 -0.6034
  928SOL    HW2 2784   2.892   0.682   2.936 -0.2101 -0.2944 -0.2340
  929SOL     OW 2785   2.572   0.158   1.313 -0.3074 -0.1872  0.1496
  929SOL    HW1 2786   2.525   0.247   1.310  0.3892 -4.0390 -3.1053
  929SOL    HW2 2787   2.521   0.092   1.372 -1.2714 -0.0184  0.8084
  930SOL     OW 2788   1.849   1.138   1.546  0.1050 -0.2591 -0.0246
  930SOL    HW1 2789   1.780   1.109   1.617 -1.6387 -1.2596  0.1226
  930SOL    HW2 2790   1.906   1.054   1.519 -0.9316 -0.8302  1.4531
  931SOL     OW 2791   2.096   1.307   0.448 -0.2685  0.0767 -0.2906
  931SOL    HW1 2792   2.065   1.214   0.425  1.8637  1.5898 -0.5975
  931SOL    HW2 2793   2.148   1.345   0.372  0.6854 -1.1147  1.0466
  932SOL     OW 2794   2.761   1.201   0.889  0.5294  0.4197  0.2712
  932SOL    HW1 2795   2.694   1.126   0.867 -1.1764 -1.0460 -0.7572
  932SOL    HW2 2796   2.804   1.189   0.977 -2.2612 -0.1123 -0.9149
  933SOL     OW 2797   2.596   1.573   1.179 -0.1243 -0.0193 -0.6808
  933SOL    HW1 2798   2.688   1.574   1.229  0.5989  1.7292 -2.1197
  933SOL    HW2 2799   2.533   1.514   1.235 -0.1028 -2.7946 -2.0939
  934SOL     OW 2800   1.784   0.470   2.220 -0.8335  0.4045 -0.3425
  934SOL    HW1 2801   1.703   0.444   2.280  1.3335  1.9473 -1.3638
  934SOL    HW2 2802   1.869   0.486   2.274  1.1556 -0.7071 -4.1729
  935SOL     OW 2803   0.209   1.690   0.636 -0.4558 -0.0380  0.2505
  935SOL    HW1 2804   0.114   1.678   0.673  0.7295 -0.5157  0.4102
  935SOL    HW2 2805   0.229   1.787   0.616 -0.1807 -3.0315  2.3845
  936SOL     OW 2806   0.400   0.757   0.737 -0.2948 -0.5658 -0.0941
  936SOL    HW1 2807   0.340   0.827   0.698  3.1793 -4.5047 -1.5048
  936SOL    HW2 2808   0.473   0.795   0.800 -2.0965  1.4732  2.9902
  937SOL     OW 2809   2.428   2.964   1.186 -0.3115  0.0039  0.0945
  937SOL    HW1 2810   2.481   2.879   1.162  1.0332 -0.0655 -0.3238
  937SOL    HW2 2811   2.417   2.988   1.287 -0.5860  1.8364 -2.3077
  938SOL     OW 2812   2.868   2.294   0.455 -0.1424 -0.1448 -0.1521
  938SOL    HW1 2813   2.957   2.334   0.481 -3.2579 -1.3463 -0.0624
  938SOL    HW2 2814   2.798   2.368   0.440  3.2881 -0.5656 -0.0756
  939SOL     OW 2815   1.021   1.887   0.486 -0.3652 -0.2651 -0.0698
  939SOL    HW1 2816   0.972   1.832   0.417 -1.3780 -0.5955 -1.2508
  939SOL    HW2 2817   0.964   1.910   0.566  2.8181  0.1217 -1.5727
  940SOL     OW 2818   2.910   0.475   2.847 -0.1023  0.4752  0.4664
  940SOL    HW1 2819   2.866   0.398   2.899 -0.7449 -0.6821 -0.2004
  940SOL    HW2 2820   2.892   0.461   2.745 -1.2743  0.0193 -0.6171
  941SOL     OW 2821   1.179   0.172   3.009 -0.2612 -0.2331 -0.4276
  941SOL    HW1 2822   1.227   0.096   2.958  0.2431 -0.8488  0.7379
  941SOL    HW2 2823   1.152   0.143   0.027 -0.5115 -0.0840  2.8225
  942SOL     OW 2824   1.074   0.963   1.335 -0.2100 -0.5103 -0.7561
  942SOL    HW1 2825   1.117   0.935   1.423  2.3774 -0.9697 -0.8868
  942SOL    HW2 2826   0.970   0.964   1.330 -2.7838 -1.4317 -3.3661
  943SOL     OW 2827   1.438   0.951   1.930 -0.1269  0.0425  0.2445
  943SOL    HW1 2828   1.454   0.931   1.829  2.0982  1.7677 -1.8849
  943SOL    HW2 2829   1.343   0.918   1.952  1.7584 -1.6371  0.1834
  944SOL     OW 2830   1.750   1.138   1.809 -0.2177 -0.1791  0.2975
  944SOL    HW1 2831   1.796   1.077   1.874  0.8639 -1.1472 -0.2837
  944SOL    HW2 2832   1.672   1.181   1.862  0.3735 -0.3731 -1.4208
  945SOL     OW 2833   2.844   3.013   0.265  0.1163  0.2162 -0.0679
  945SOL    HW1 2834   2.937   2.966   0.265  2.0801 -1.1376  0.1430
  945SOL    HW2 2835   2.857   0.031   0.290 -0.8313 -0.2738  1.9161
  946SOL     OW 2836   2.781   0.714   1.952  0.0054  0.3233 -0.0468
  946SOL    HW1 2837   2.858   0.780   1.977  0.0755  2.3989 -2.0497
  946SOL    HW2 2838   2.715   0.767   1.891 -4.1639  2.6243 -2.9053
  947SOL     OW 2839   0.492   2.793   0.326 -0.6947 -0.4223  0.5858
  947SOL    HW1 2840   0.579   2.802   0.378  0.5461  1.0409  0.6386
  947SOL    HW2 2841   0.467   2.883   0.282  1.8015  0.5631 -0.4311
  948SOL     OW 2842   2.384   1.184   1.576 -0.0392 -0.4373 -0.0603
  948SOL    HW1 2843   2.417   1.160   1.670  1.6237 -2.2667  1.5138
  948SOL    HW2 2844   2.371   1.100   1.517 -1.3384 -1.9774  0.1902
  949SOL     OW 2845   0.602   0.963   2.276 -1.0737 -0.5571  0.1738
  949SOL    HW1 2846   0.582   0.946   2.177  0.5651  1.3818  1.0231
  949SOL    HW2 2847   0.527   0.929   2.335  3.2989 -3.4431  0.0585
  950SOL     OW 2848   0.560   2.976   0.809  0.0087  0.6054  0.7222
  950SOL    HW1 2849   0.594   3.053   0.869 -1.5038 -2.2300 -0.9308
  950SOL    HW2 2850   0.600   2.980   0.710  0.3052 -2.4605 -2.3011
  951SOL     OW 2851   0.950   1.350   2.231  0.1206 -0.5449  0.2380
  951SOL    HW1 2852   1.016   1.308   2.164 -0.5024  1.2965  1.8010
  951SOL    HW2 2853   0.948   1.292   2.313 -0.1701 -0.7856 -2.1850
  952SOL     OW 2854   0.777   1.244   0.123 -0.3972  0.0693  0.8219
  952SOL    HW1 2855   0.840   1.216   0.042  1.0395 -0.4094 -3.8245
  952SOL    HW2 2856   0.794   1.194   0.207 -0.9848 -0.8929 -0.3966
  953SOL     OW 2857   2.586   0.380   2.436  0.4032 -0.0990  0.0743
  953SOL    HW1 2858   2.551   0.476   2.457 -0.3112  1.9160  0.6177
  953SOL    HW2 2859   2.515   0.309   2.426 -1.3121  1.8760 -0.6050
  954SOL     OW 2860   1.538   1.209   0.854 -0.2245 -0.5939  0.3237
  954SOL    HW1 2861   1.589   1.155   0.925  2.9562 -2.3260 -0.5136
  954SOL    HW2 2862   1.609   1.250   0.794 -1.4581  2.6889  0.7198
  955SOL     OW 2863   0.308   2.052   2.722  0.2423 -0.2379  0.8880
  955SOL    HW1 2864   0.332   2.039   2.821 -1.1629 -0.5817  0.9688
  955SOL    HW2 2865   0.303   2.149   2.697 -0.9296  0.7391  0.6497
  956SOL     OW 2866   1.670   0.526   1.983  0.1509 -0.7093  0.0850
  956SOL    HW1 2867   1.728   0.498   2.065  1.0643  1.4884  5.0510
  956SOL    HW2 2868   1.617   0.612   2.006 -0.4654  0.2286 -0.1784
  957SOL     OW 2869   2.025   2.075   2.613 -0.2316 -0.1069  0.1078
  957SOL    HW1 2870   2.116   2.048   2.626 -0.6286 -2.1744  2.0990
  957SOL    HW2 2871   1.967   1.995   2.638  0.3254 -1.0252  0.9253
  958SOL     OW 2872   1.190   1.783   1.400  0.5780  0.2398  0.0013
  958SOL    HW1 2873   1.179   1.688   1.443  0.6929  1.4546 -1.3586
  958SOL    HW2 2874   1.224   1.775   1.305 -0.5153 -0.9406  1.7362
  959SOL     OW 2875   2.226   2.247   2.875 -0.2397 -0.3531 -0.5808
  959SOL    HW1 2876   2.326   2.221   2.870  0.9534  1.1437 -1.2514
  959SOL    HW2 2877   2.178   2.189   2.949 -1.0113 -0.3709 -1.7450
  960SOL     OW 2878   3.078   0.828   2.507  0.0989 -0.3613  0.4052
  960SOL    HW1 2879   0.059   0.808   2.584  1.3389 -0.0431 -1.3326
  960SOL    HW2 2880   2.989   0.843   2.551  1.6838 -1.4573  1.5923
  961SOL     OW 2881   0.867   0.978   2.362  0.2351  0.0602  0.2113
  961SOL    HW1 2882   0.772   1.006   2.358  1.1458  2.3554 -0.4673
  961SOL    HW2 2883   0.882   0.882   2.387  2.8436 -1.2881  0.6272
  962SOL     OW 2884   0.961   1.247   2.729 -0.5416 -0.4138 -0.3821
  962SOL    HW1 2885   1.001   1.249   2.823  2.6088  0.6106  0.4017
  962SOL    HW2 2886   0.858   1.248   2.732 -0.6435 -0.2649  0.2023
  963SOL     OW 2887   2.643   2.428   0.374  0.2849  0.3534 -0.0653
  963SOL    HW1 2888   2.592   2.517   0.380 -1.0338  0.7586  2.0457
  963SOL    HW2 2889   2.602   2.349   0.436 -1.1119  0.8694  1.3586
  964SOL     OW 2890   0.971   2.496   1.396  0.6177  0.1786 -0.0716
  964SOL    HW1 2891   1.065   2.473   1.426  3.2150  0.3916  0.3811
  964SOL    HW2 2892   0.971   2.594   1.367  0.7610 -0.0181  0.3823
  965SOL     OW 2893   1.509   1.479   0.341  0.2487 -0.6893  0.5480
  965SOL    HW1 2894   1.600   1.511   0.379 -0.8839  0.7572 -0.2037
  965SOL    HW2 2895   1.455   1.426   0.409  1.8338  0.7762 -0.4157
  966SOL     OW 2896   0.150   1.664   0.358 -0.2015 -0.1258 -0.1588
  966SOL    HW1 2897   0.174   1.673   0.455 -0.2780 -0.6843 -3.0859
  966SOL    HW2 2898   0.095   1.581   0.344  0.8561  1.0165  3.6751
  967SOL     OW 2899   1.691   0.098   2.100  0.4124 -0.1275  0.1618
  967SOL    HW1 2900   1.737   0.097   2.011 -1.4259 -0.0151  0.4838
  967SOL    HW2 2901   1.751   0.143   2.172  1.4387  0.6053  0.1993
  968SOL     OW 2902   1.691   0.569   0.645  0.0592 -0.4436  0.0386
  968SOL    HW1 2903   1.755   0.646   0.639  1.7769  1.2092 -1.8255
  968SOL    HW2 2904   1.649   0.553   0.554 -4.0300  0.4708 -0.9119
  969SOL     OW 2905   0.291   1.231   2.381  0.3726 -0.5651 -0.4957
  969SOL    HW1 2906   0.249   1.315   2.336 -2.0052  0.9259  0.1512
  969SOL    HW2 2907   0.254   1.222   2.476 -0.3478  2.3487  0.4569
  970SOL     OW 2908   2.399   1.403   1.296  0.2417  0.3324 -0.0946
  970SOL    HW1 2909   2.396   1.310   1.268  0.6361 -0.4637  0.5311
  970SOL    HW2 2910   2.299   1.433   1.313 -0.9513  0.3114 -0.2452
  971SOL     OW 2911   0.127   2.881   0.979  0.5466 -0.0145 -0.2684
  971SOL    HW1 2912   0.097   2.798   1.028  0.2968 -0.7783 -1.3537
  971SOL    HW2 2913   0.057   2.911   0.910 -2.9657 -0.7576  2.1964
  972SOL     OW 2914   0.445   0.839   2.467  0.1639  0.2236  0.0586
  972SOL    HW1 2915   0.467   0.865   2.562  1.6329 -2.3797 -0.2529
  972SOL    HW2 2916   0.342   0.842   2.447  0.9210  0.1024  1.3993
  973SOL     OW 2917   0.344   0.329   0.803  0.1721 -0.2307 -0.4532
  973SOL    HW1 2918   0.259   0.303   0.859  1.1790 -1.6033  2.9093
  973SOL    HW2 2919   0.337   0.313   0.701  0.3490 -0.8707 -0.5859
  974SOL     OW 2920   2.198   0.608   1.527  0.1922 -0.0425  0.2336
  974SOL    HW1 2921   2.193   0.688   1.588 -0.3433 -0.0813 -1.1774
  974SOL    HW2 2922   2.251   0.534   1.577 -1.8395  0.3847 -1.6625
  975SOL     OW 2923   2.655   2.963   0.078  0.0545  0.3756 -0.1132
  975SOL    HW1 2924   2.714   2.992   0.154 -1.1977 -2.1672 -2.4022
  975SOL    HW2 2925   2.627   2.865   0.069 -2.2086 -0.2513 -3.4497
  976SOL     OW 2926   0.334   1.500   1.054  0.3982  0.3181  0.3143
  976SOL    HW1 2927   0.346   1.403   1.082 -3.0680  5.7057 -0.8220
  976SOL    HW2 2928   0.401   1.558   1.104 -0.4193  0.2554 -2.3784
  977SOL     OW 2929   1.232   2.402   0.465  0.3531  0.8651 -0.0615
  977SOL    HW1 2930   1.260   2.329   0.398 -1.7752 -3.9303  2.3120
  977SOL    HW2 2931   1.289   2.479   0.446 -0.1325 -1.5125  0.5091
  978SOL     OW 2932   0.120   0.886   3.015  0.2402  0.4088 -0.2100
  978SOL    HW1 2933   0.089   0.844   0.023  1.3406 -2.2781  0.0601
  978SOL    HW2 2934   0.219   0.865   3.005  1.3280  1.0637 -1.1974
  979SOL     OW 2935   2.145   1.572   0.835  0.0570 -0.6404  0.3984
  979SOL    HW1 2936   2.164   1.519   0.749  0.2315  1.9221  0.3828
  979SOL    HW2 2937   2.229   1.618   0.865 -0.3349 -0.4678  0.6460
  980SOL     OW 2938   0.517   1.737   1.869 -0.0917 -0.5558  0.4844
  980SOL    HW1 2939   0.544   1.684   1.788  0.8789  1.3487 -1.0287
  980SOL    HW2 2940   0.549   1.688   1.952  0.5292 -3.1364  0.6341
  981SOL     OW 2941   2.777   1.331   0.155  0.0124 -0.3841 -0.1168
  981SOL    HW1 2942   2.827   1.276   0.084 -0.3992 -0.5574 -1.2535
  981SOL    HW2 2943   2.818   1.426   0.158  1.5368  2.6019 -0.7209
  982SOL     OW 2944   2.655   2.915   1.915  0.0090  0.2186 -0.3023
  982SOL    HW1 2945   2.607   2.987   1.864 -1.7530 -0.9312  0.9385
  982SOL    HW2 2946   2.730   2.952   1.976  1.4351 -0.1784 -3.3364
  983SOL     OW 2947   1.308   0.119   1.114 -0.3569 -0.3222 -0.2088
  983SOL    HW1 2948   1.268   0.098   1.205 -1.3234  3.0420  0.0496
  983SOL    HW2 2949   1.410   0.143   1.119  1.1650  0.5169  0.3454
  984SOL     OW 2950   1.044   2.604   3.016 -0.0389 -0.4114  0.2565
  984SOL    HW1 2951   1.015   2.695   2.988 -0.7896  0.0574 -1.0322
  984SOL    HW2 2952   1.129   2.585   2.968  0.2423  2.7051  2.2045
  985SOL     OW 2953   1.769   2.034   1.613 -0.0084  0.3076  0.4178
  985SOL    HW1 2954   1.680   2.086   1.615 -0.0852  1.9395 -0.9237
  985SOL    HW2 2955   1.755   1.930   1.607 -1.3361  0.0778  0.6235
  986SOL     OW 2956   2.135   0.005   2.686 -0.0840 -0.4266 -0.7723
  986SOL    HW1 2957   2.151   3.066   2.590  1.9066  1.6336  0.5465
  986SOL    HW2 2958   2.227   0.013   2.729  2.1477 -0.7533 -0.2690
  987SOL     OW 2959   2.677   1.290   2.141  0.2230 -0.1546  0.2830
  987SOL    HW1 2960   2.630   1.204   2.111  0.0278 -0.6888  0.6302
  987SOL    HW2 2961   2.634   1.338   2.226  1.3516  0.2858  2.5139
  988SOL     OW 2962   2.332   0.790   2.365  0.5556  0.1756 -0.2485
  988SOL    HW1 2963   2.344   0.744   2.275  3.3222 -2.3575  0.7964
  988SOL    HW2 2964   2.358   0.890   2.361 -0.9332 -0.1650  1.2864
  989SOL     OW 2965   1.675   1.348   1.977 -0.8384 -0.1095 -0.3381
  989SOL    HW1 2966   1.636   1.275   2.038  1.6692  1.4631  0.5916
  989SOL    HW2 2967   1.775   1.357   1.994  1.5861  0.2558  0.1396
  990SOL     OW 2968   0.231   1.126   0.273  0.8418 -0.0174  0.2151
  990SOL    HW1 2969   0.186   1.087   0.354 -1.2407  1.6028 -1.5348
  990SOL    HW2 2970   0.177   1.120   0.190  1.6695 -0.1630 -0.1390
  991SOL     OW 2971   0.269   1.618   2.836 -0.6065  0.1147 -0.7453
  991SOL    HW1 2972   0.226   1.604   2.741 -1.5295  3.9181 -0.9516
  991SOL    HW2 2973   0.312   1.534   2.872  1.8052  1.7278  1.7698
  992SOL     OW 2974   2.727   1.860   1.892 -0.3369  0.0450 -0.4185
  992SOL    HW1 2975   2.740   1.926   1.970  0.6242 -2.4404 -0.4719
  992SOL    HW2 2976   2.667   1.906   1.819  1.3384 -0.0138 -0.5291
  993SOL     OW 2977   0.145   2.907   0.497  0.6322  0.0251  0.1285
  993SOL    HW1 2978   0.187   2.968   0.563  1.9964 -0.1891 -0.5524
  993SOL    HW2 2979   0.196   2.819   0.490 -2.0527  0.5707 -0.1103
  994SOL     OW 2980   0.127   1.815   1.459 -0.7403 -0.1926 -0.1020
  994SOL    HW1 2981   0.138   1.789   1.555  2.8789 -0.9060 -0.7820
  994SOL    HW2 2982   0.216   1.842   1.422 -0.0757  2.8185 -0.3143
  995SOL     OW 2983   2.164   1.753   2.612  0.0028  0.1006  0.1607
  995SOL    HW1 2984   2.199   1.843   2.636 -0.5712 -0.2511 -0.6475
  995SOL    HW2 2985   2.234   1.679   2.626  0.0055  0.8139 -0.8502
  996SOL     OW 2986   1.880   1.542   3.073 -0.1253  0.0850 -0.2304
  996SOL    HW1 2987   1.796   1.509   3.026  0.5722  0.1749  1.6981
  996SOL    HW2 2988   1.925   1.610   3.012  0.4342  0.7264  1.6231
  997SOL     OW 2989   1.389   1.359   1.757  0.0423 -0.0775 -0.0344
  997SOL    HW1 2990   1.383   1.400   1.846 -0.9113 -1.8014 -0.1564
  997SOL    HW2 2991   1.296   1.353   1.715  1.5581 -1.8896  0.8400
  998SOL     OW 2992   2.722   2.039   1.062  0.0662  0.0179  0.0835
  998SOL    HW1 2993   2.673   2.131   1.064  1.1905  1.2442  1.6792
  998SOL    HW2 2994   2.788   2.041   0.984  0.6035  2.1805  2.1419
  999SOL     OW 2995   1.805   2.585   0.263 -0.3299 -0.4118 -0.5050
  999SOL    HW1 2996   1.765   2.681   0.250  2.1399  2.5468  0.0962
  999SOL    HW2 2997   1.866   2.558   0.185  0.0923 -1.3276 -1.4738
 1000SOL     OW 2998   0.761   2.847   0.044  0.3942 -0.2230 -0.1880
 1000SOL    HW1 2999   0.861   2.840   0.060  0.3654  0.7073 -0.7690
 1000SOL    HW2 3000   0.729   2.934   0.094 -1.4585  1.1077  0.6056
   3.07852   3.07852   3.07852
