1000 SPC/Fw water molecules t= 393.00000 step= 393000
 3000
    1SOL     OW    1   2.779   3.013   1.837  0.0815  0.2739 -0.1448
    1SOL    HW1    2   2.691   3.054   1.866  0.3144 -1.2088 -0.2542
    1SOL    HW2    3   2.783   2.926   1.891 -0.6396  0.0598  1.4772
    2SOL     OW    4   2.680   2.378   0.098  0.3725 -0.1392 -0.5213
    2SOL    HW1    5   2.660   2.288   0.046 -4.4642 -4.5886 -0.3049
    2SOL    HW2    6   2.650   2.461   0.044  0.0921  1.1522  1.0787
    3SOL     OW    7   1.365   2.903   0.293  0.2663 -0.3312  0.0142
    3SOL    HW1    8   1.369   2.976   0.368 -1.5678  0.3521 -0.7286
    3SOL    HW2    9   1.297   2.925   0.224  1.0184  0.9022  0.2445
    4SOL     OW   10   1.016   2.886   2.438  0.4029  0.2942 -0.5710
    4SOL    HW1   11   1.112   2.864   2.420 -1.9120 -0.1948  3.2929
    4SOL    HW2   12   0.967   2.930   2.364 -0.7484 -1.0504  0.4270
    5SOL     OW   13   2.231   0.050   1.432 -0.1444 -0.0136 -0.3937
    5SOL    HW1   14   2.152   0.014   1.385  1.7016  0.5091  1.0273
    5SOL    HW2   15   2.303   0.054   1.360  1.8708  0.6823  1.0683
    6SOL     OW   16   2.070   2.096   0.573 -0.4356  0.3331  0.4539
    6SOL    HW1   17   2.072   2.007   0.525 -0.6080  0.0579  2.5297
    6SOL    HW2   18   2.052   2.173   0.509  3.2168  1.4702  2.8377
    7SOL     OW   19   1.872   1.026   0.801  0.1298  0.5998  0.6277
    7SOL    HW1   20   1.907   1.093   0.872  1.2279 -0.8128 -0.9867
    7SOL    HW2   21   1.808   0.957   0.838  0.5792 -0.9330 -1.1660
    8SOL     OW   22   0.717   1.350   0.857 -0.6581  0.1805  0.0332
    8SOL    HW1   23   0.761   1.361   0.948  2.4558 -0.0225  1.9014
    8SOL    HW2   24   0.719   1.438   0.805 -1.4382 -1.6212  2.8984
    9SOL     OW   25   0.282   2.793   1.739  0.2252  0.1013 -0.1443
    9SOL    HW1   26   0.222   2.780   1.656 -0.1811 -0.7329 -3.1482
    9SOL    HW2   27   0.346   2.718   1.743 -0.4657  0.4271 -1.0793
   10SOL     OW   28   1.010   2.334   0.638  0.0554 -0.1669  0.4147
   10SOL    HW1   29   1.032   2.288   0.727 -1.5086 -1.5007  2.6351
   10SOL    HW2   30   1.075   2.313   0.558  0.1108 -0.4408 -3.8735
   11SOL     OW   31   1.694   1.961   1.074 -0.0874  0.3739 -0.0710
   11SOL    HW1   32   1.750   2.036   1.031  3.6192 -0.3846 -1.3077
   11SOL    HW2   33   1.675   1.993   1.170 -4.5269 -1.7242 -0.1038
   12SOL     OW   34   2.900   0.522   2.144  0.2236  0.2152  0.5398
   12SOL    HW1   35   2.995   0.498   2.120 -1.1167  0.6658  0.0068
   12SOL    HW2   36   2.844   0.497   2.063  1.0908  0.3787 -0.7215
   13SOL     OW   37   2.690   2.939   0.282 -0.1407 -0.3981 -0.0207
   13SOL    HW1   38   2.727   2.953   0.376 -1.1493 -0.0421 -0.5680
   13SOL    HW2   39   2.634   3.024   0.256 -2.5259  1.7240  0.4736
   14SOL     OW   40   1.763   1.564   3.046 -0.1714 -0.5497 -0.9878
   14SOL    HW1   41   1.725   1.473   3.073 -2.8610 -0.0655 -0.9403
   14SOL    HW2   42   1.761   1.583   2.948  1.4012  2.2897  1.4850
   15SOL     OW   43   2.751   2.317   1.666 -0.1497 -0.2446  0.6746
   15SOL    HW1   44   2.673   2.379   1.683 -0.0770  2.1007  0.0571
   15SOL    HW2   45   2.749   2.241   1.729 -0.7739  1.0152 -0.6235
   16SOL     OW   46   2.741   2.850   0.753  0.4535  0.1494 -0.6185
   16SOL    HW1   47   2.729   2.807   0.844 -2.0450 -2.0485 -0.2614
   16SOL    HW2   48   2.651   2.843   0.703  0.7563  0.6804 -1.1675
   17SOL     OW   49   1.276   0.280   1.443 -0.1927  0.1757  0.7038
   17SOL    HW1   50   1.210   0.235   1.374 -1.4153 -2.8108 -0.7440
   17SOL    HW2   51   1.254   0.245   1.537  1.2830  3.1866 -2.5036
   18SOL     OW   52   1.565   0.179   1.044  0.0521  0.3207 -0.6140
   18SOL    HW1   53   1.626   0.227   1.114 -0.2314  2.5841  0.0994
   18SOL    HW2   54   1.579   0.214   0.952 -1.5746 -1.0581  3.3254
   19SOL     OW   55   2.040   1.494   0.251  0.4254  0.9591 -0.7375
   19SOL    HW1   56   2.050   1.484   0.149  1.0591 -0.0873  0.0993
   19SOL    HW2   57   2.079   1.586   0.275  1.8855 -1.9139 -0.9461
   20SOL     OW   58   2.215   1.543   2.255  0.5888  0.5713  0.1151
   20SOL    HW1   59   2.216   1.492   2.346 -1.7035 -4.4464  3.0380
   20SOL    HW2   60   2.307   1.589   2.244 -2.3362  2.2965 -1.0910
   21SOL     OW   61   1.445   3.081   0.536  0.4692 -0.1044 -0.2575
   21SOL    HW1   62   1.391   0.055   0.485 -0.4682 -0.4481  1.4288
   21SOL    HW2   63   1.382   3.019   0.587 -0.8424 -1.8728  2.8332
   22SOL     OW   64   2.821   0.782   0.874  0.2952 -0.1545  0.3628
   22SOL    HW1   65   2.805   0.716   0.948 -0.6954 -1.1885 -0.3132
   22SOL    HW2   66   2.758   0.764   0.795 -0.1104  1.7847  1.7668
   23SOL     OW   67   0.462   0.092   1.699  0.1282  0.4725  0.7119
   23SOL    HW1   68   0.519   0.169   1.717  2.3215 -1.8902  1.0698
   23SOL    HW2   69   0.440   0.048   1.785  3.3616  2.4170 -2.2434
   24SOL     OW   70   2.438   2.523   0.537 -0.0903 -0.2773  0.1205
   24SOL    HW1   71   2.466   2.584   0.461 -0.5789  0.6760  0.2752
   24SOL    HW2   72   2.345   2.551   0.570  0.2194  0.2026  0.0276
   25SOL     OW   73   1.987   0.017   2.704 -0.0322  0.6612 -0.0909
   25SOL    HW1   74   2.081   3.078   2.725 -2.3297 -2.0911 -1.0045
   25SOL    HW2   75   1.990   0.088   2.634 -1.7181 -1.0338  1.7911
   26SOL     OW   76   1.527   2.497   0.054 -0.3160 -0.2969 -0.4379
   26SOL    HW1   77   1.499   2.595   0.069  1.0655 -0.2342  2.4160
   26SOL    HW2   78   1.496   2.437   0.133 -1.7541  3.0869 -0.2627
   27SOL     OW   79   1.282   0.528   0.971  0.2798 -0.3860  0.0914
   27SOL    HW1   80   1.184   0.521   0.944 -3.0891 -0.2250 -2.3225
   27SOL    HW2   81   1.291   0.511   1.070  0.1224 -1.7376 -2.4801
   28SOL     OW   82   0.852   1.532   0.469  0.3716 -0.4132 -0.3507
   28SOL    HW1   83   0.777   1.569   0.529  0.2866  2.2180 -0.2638
   28SOL    HW2   84   0.881   1.435   0.494  1.8634  0.1211  1.5849
   29SOL     OW   85   2.789   0.470   1.686 -0.2309  0.7696  0.5120
   29SOL    HW1   86   2.736   0.454   1.776  4.8584  0.3742  3.0869
   29SOL    HW2   87   2.770   0.565   1.647 -1.0156 -0.0778 -0.7393
   30SOL     OW   88   1.316   2.623   1.506 -0.2944  0.1343  0.2535
   30SOL    HW1   89   1.227   2.599   1.547 -0.7173 -2.6969 -1.2271
   30SOL    HW2   90   1.368   2.696   1.560  0.5742 -0.3041 -3.4726
   31SOL     OW   91   1.805   2.909   1.658  0.8249  0.4351 -0.3064
   31SOL    HW1   92   1.832   2.854   1.742 -0.0950 -0.4946 -0.1004
   31SOL    HW2   93   1.802   2.847   1.579 -2.1537  2.4786 -1.0410
   32SOL     OW   94   1.460   1.839   2.888 -0.1718 -0.3166 -0.0373
   32SOL    HW1   95   1.446   1.752   2.936  1.5597  1.8551 -1.9454
   32SOL    HW2   96   1.508   1.834   2.797  0.3896  0.0817 -2.4916
   33SOL     OW   97   2.720   0.834   2.662  0.4133 -0.0137  0.0721
   33SOL    HW1   98   2.702   0.836   2.556 -1.0624 -1.8503 -5.3758
   33SOL    HW2   99   2.631   0.842   2.710  2.5289  0.3270  1.9070
   34SOL     OW  100   1.935   0.479   0.428  0.3993  0.0900 -0.3957
   34SOL    HW1  101   1.906   0.538   0.508 -0.7839  0.2377  0.1128
   34SOL    HW2  102   1.868   0.494   0.352  1.2144  0.7568 -0.8429
   35SOL     OW  103   2.941   2.128   2.149  0.2585 -0.1620  0.2380
   35SOL    HW1  104   2.925   2.028   2.121  2.9184 -1.2429  0.5745
   35SOL    HW2  105   2.872   2.179   2.200 -0.6213 -1.3174 -3.6609
   36SOL     OW  106   2.268   1.926   2.927  0.7505  0.3182 -0.3677
   36SOL    HW1  107   2.219   1.928   2.836 -0.6122  1.2938  0.6895
   36SOL    HW2  108   2.343   1.992   2.922 -1.7014  1.8991  1.9584
   37SOL     OW  109   1.889   0.369   1.387 -0.0452  0.1369 -0.4667
   37SOL    HW1  110   1.935   0.445   1.337  1.3011  0.0999 -1.4286
   37SOL    HW2  111   1.948   0.337   1.464 -0.2202 -0.3752 -4.2474
   38SOL     OW  112   0.362   0.243   2.682 -0.3447  0.6418  0.3057
   38SOL    HW1  113   0.414   0.326   2.644  3.8342 -1.3862 -5.5513
   38SOL    HW2  114   0.398   0.154   2.649  2.3088 -0.3684  0.9555
   39SOL     OW  115   1.786   1.304   1.704 -0.2402 -0.1126  0.3380
   39SOL    HW1  116   1.856   1.376   1.713  1.2373 -1.0385  1.8619
   39SOL    HW2  117   1.799   1.234   1.779  1.0252  0.4785  1.2909
   40SOL     OW  118   1.126   1.793   0.873 -0.7975  0.6422  0.4706
   40SOL    HW1  119   1.100   1.746   0.958  0.9415 -2.6717  0.7340
   40SOL    HW2  120   1.227   1.797   0.856 -0.0595  1.0615 -1.7828
   41SOL     OW  121   1.832   1.681   0.917 -0.4546 -0.1644 -0.2127
   41SOL    HW1  122   1.868   1.656   1.011  2.9936 -0.4318  1.7869
   41SOL    HW2  123   1.831   1.595   0.859  1.0283 -1.3255  0.3153
   42SOL     OW  124   2.894   0.574   1.068  0.1754 -0.1295  0.6217
   42SOL    HW1  125   2.989   0.586   1.036  1.2393 -0.2631 -1.0272
   42SOL    HW2  126   2.882   0.578   1.168  2.0643 -1.9524  0.0857
   43SOL     OW  127   0.423   1.914   2.926  0.1579  0.5100 -0.3057
   43SOL    HW1  128   0.335   1.967   2.915  2.1681 -0.6969 -0.7020
   43SOL    HW2  129   0.407   1.817   2.956 -1.5624 -1.5345  0.3469
   44SOL     OW  130   1.506   2.419   1.458 -0.1252  0.2228 -0.2581
   44SOL    HW1  131   1.438   2.483   1.489  1.4808  0.9271  0.4908
   44SOL    HW2  132   1.554   2.458   1.379 -0.2985  2.0544 -0.3069
   45SOL     OW  133   0.902   3.025   2.665 -0.0960 -0.0497 -0.9526
   45SOL    HW1  134   0.943   2.952   2.601  1.4774  0.0715 -1.8518
   45SOL    HW2  135   0.877   0.019   2.615 -0.9126  0.0513  0.4940
   46SOL     OW  136   0.755   2.470   2.289  0.0633  0.1207  0.3141
   46SOL    HW1  137   0.784   2.465   2.190  2.0803  0.1769  0.3255
   46SOL    HW2  138   0.759   2.565   2.319  0.7399 -0.2914  0.9446
   47SOL     OW  139   0.915   2.088   1.109  0.4466  0.5194 -0.3365
   47SOL    HW1  140   0.875   2.157   1.174 -1.9827 -0.0634 -0.8406
   47SOL    HW2  141   0.853   2.006   1.119 -0.4915 -1.8548  0.6104
   48SOL     OW  142   0.857   2.207   1.355  0.5821 -0.6701  0.5204
   48SOL    HW1  143   0.792   2.269   1.304 -1.9151  2.4634 -1.0398
   48SOL    HW2  144   0.806   2.167   1.431  0.5584 -2.5527 -1.0280
   49SOL     OW  145   2.530   0.041   0.196 -0.0838  0.0464 -0.2229
   49SOL    HW1  146   2.502   0.122   0.250 -1.4198  0.8328  3.2165
   49SOL    HW2  147   2.594   0.060   0.121  1.4414  0.2828  0.8046
   50SOL     OW  148   1.729   0.591   0.268  0.9899 -0.4316  0.5772
   50SOL    HW1  149   1.785   0.625   0.192 -1.3762  0.7166  0.1691
   50SOL    HW2  150   1.673   0.670   0.307  1.3798  3.5360  1.5336
   51SOL     OW  151   1.923   0.854   1.126  0.3600 -0.0625 -0.2115
   51SOL    HW1  152   1.990   0.881   1.058 -0.8514  3.4211 -1.1340
   51SOL    HW2  153   1.971   0.823   1.215  2.4394 -1.6437 -0.3007
   52SOL     OW  154   0.512   1.763   0.181  0.1388 -0.2785  0.3158
   52SOL    HW1  155   0.495   1.661   0.171 -1.1251 -0.3097 -0.4305
   52SOL    HW2  156   0.438   1.826   0.153  3.1930 -0.6657  1.3391
   53SOL     OW  157   0.236   1.572   3.072 -0.2283  0.0910 -0.1013
   53SOL    HW1  158   0.239   1.478   0.015 -0.4156  0.0152  1.7981
   53SOL    HW2  159   0.321   1.587   3.024 -5.3461 -1.3960 -2.3042
   54SOL     OW  160   2.515   1.291   2.124  0.8288 -0.2229  0.1856
   54SOL    HW1  161   2.538   1.356   2.195  0.7733 -1.9608 -0.8382
   54SOL    HW2  162   2.525   1.338   2.031  0.9856 -1.5915 -0.8434
   55SOL     OW  163   2.508   1.889   0.652  1.0185 -0.1633  0.2192
   55SOL    HW1  164   2.460   1.979   0.637 -2.3401  1.3885 -0.3921
   55SOL    HW2  165   2.479   1.854   0.742  1.6416 -0.1520  1.0939
   56SOL     OW  166   2.052   3.047   1.215 -0.1677  0.6695  0.0684
   56SOL    HW1  167   2.025   0.022   1.147 -0.3113  1.1550  0.8181
   56SOL    HW2  168   1.999   3.071   1.301 -1.8793 -1.8340 -2.3045
   57SOL     OW  169   1.287   1.303   0.211 -0.3929 -0.4423  0.4709
   57SOL    HW1  170   1.294   1.252   0.124  1.4292  0.8171 -0.0442
   57SOL    HW2  171   1.376   1.285   0.264  4.0680 -1.5785  3.5778
   58SOL     OW  172   2.078   0.257   1.529 -0.1417 -0.2172  0.1825
   58SOL    HW1  173   2.176   0.233   1.509  2.2723  1.4757 -0.8290
   58SOL    HW2  174   2.054   0.276   1.628 -2.8966  3.7753  0.0894
   59SOL     OW  175   1.391   2.724   2.734  0.0241  0.0332  0.0042
   59SOL    HW1  176   1.422   2.791   2.658  0.7476  0.7653 -1.7787
   59SOL    HW2  177   1.344   2.636   2.702 -1.0594 -2.2507  1.4384
   60SOL     OW  178   3.041   2.515   2.691  0.0154  0.0278  0.6711
   60SOL    HW1  179   3.022   2.524   2.791 -0.2434 -0.2109  0.4269
   60SOL    HW2  180   2.967   2.566   2.636 -0.4571  2.3176 -2.1651
   61SOL     OW  181   0.712   2.363   1.157 -0.6058  0.0440  0.0624
   61SOL    HW1  182   0.777   2.444   1.154 -1.3845  0.6618  2.5118
   61SOL    HW2  183   0.654   2.362   1.076  0.8025  1.3204  0.8967
   62SOL     OW  184   1.638   1.967   2.258 -0.0931 -0.2846 -0.1483
   62SOL    HW1  185   1.606   1.910   2.180  3.4927  0.3363 -3.2387
   62SOL    HW2  186   1.682   1.907   2.329 -0.6022  0.3400 -3.5339
   63SOL     OW  187   1.807   1.828   0.028  0.6147  0.2030  0.5179
   63SOL    HW1  188   1.716   1.871   0.002 -2.2665 -0.0249  1.1817
   63SOL    HW2  189   1.792   1.723   0.010  0.8195 -2.5604 -0.8243
   64SOL     OW  190   1.893   1.118   0.087 -0.1085  0.3673  0.0723
   64SOL    HW1  191   1.860   1.172   0.005  0.5207 -2.5472 -0.3019
   64SOL    HW2  192   1.856   1.157   0.174  2.2921  0.7150  1.7561
   65SOL     OW  193   2.294   2.268   1.859  0.1176  0.0789  0.5065
   65SOL    HW1  194   2.284   2.335   1.934 -1.2636  1.4092  0.6843
   65SOL    HW2  195   2.214   2.273   1.794 -1.0918  1.6374 -0.8454
   66SOL     OW  196   0.496   0.848   1.512 -0.0513  0.0968 -0.0866
   66SOL    HW1  197   0.514   0.847   1.413 -0.3359 -1.8712  1.8724
   66SOL    HW2  198   0.517   0.942   1.548  1.3472 -1.7221  0.9004
   67SOL     OW  199   2.288   3.086   0.081  0.5628  0.2561 -0.3018
   67SOL    HW1  200   2.238   3.009   0.131 -1.0190  0.8177  1.2953
   67SOL    HW2  201   2.379   0.002   0.125 -0.5977 -0.9697 -0.5868
   68SOL     OW  202   1.840   2.188   0.971  0.5656 -0.4664  0.0558
   68SOL    HW1  203   1.892   2.206   0.882  1.5522  1.0692 -4.1704
   68SOL    HW2  204   1.779   2.268   0.986 -0.5885  1.6427  0.3894
   69SOL     OW  205   2.887   2.146   2.979  0.2635 -0.7460 -0.0946
   69SOL    HW1  206   2.815   2.110   3.042 -0.3239  0.3672  0.8956
   69SOL    HW2  207   2.944   2.216   3.028 -0.7370 -1.0917 -1.9350
   70SOL     OW  208   2.886   0.909   2.204 -0.1854  0.6576 -0.0424
   70SOL    HW1  209   2.948   0.979   2.253 -1.2035 -1.1948  0.2015
   70SOL    HW2  210   2.836   0.941   2.123 -0.1587 -0.1260 -0.9311
   71SOL     OW  211   0.952   1.083   2.484  0.3223 -0.2956  0.1432
   71SOL    HW1  212   0.861   1.106   2.439  0.8656 -1.6559 -2.1602
   71SOL    HW2  213   0.984   0.998   2.441 -1.0742  1.3112  0.4181
   72SOL     OW  214   2.637   1.502   2.258 -0.5987 -0.2023 -0.2159
   72SOL    HW1  215   2.573   1.580   2.253 -0.4383 -1.9666  0.9206
   72SOL    HW2  216   2.735   1.519   2.231  0.8955  2.0635 -0.8045
   73SOL     OW  217   1.192   2.040   0.089  0.5828 -0.3712  0.1639
   73SOL    HW1  218   1.245   2.124   0.116 -1.1574  0.4381 -0.7116
   73SOL    HW2  219   1.149   1.993   0.170  0.6184  1.6141  3.6147
   74SOL     OW  220   1.959   2.836   2.454 -0.2601 -0.1276 -0.3520
   74SOL    HW1  221   1.924   2.750   2.501 -0.3904 -3.8675 -0.6836
   74SOL    HW2  222   1.980   2.911   2.515 -1.3777 -0.6880 -1.6707
   75SOL     OW  223   1.489   2.361   0.709 -0.5909  0.6787 -0.1964
   75SOL    HW1  224   1.458   2.394   0.800 -0.8110 -1.0539 -1.8038
   75SOL    HW2  225   1.563   2.289   0.726  0.8048  1.5331  0.1658
   76SOL     OW  226   2.846   1.665   2.580 -0.0166 -0.6464 -0.0691
   76SOL    HW1  227   2.757   1.702   2.610 -0.1715 -0.2120  1.3997
   76SOL    HW2  228   2.905   1.636   2.661 -0.9261 -2.1411 -0.6970
   77SOL     OW  229   3.018   2.495   1.736 -0.0526  0.6958  0.1384
   77SOL    HW1  230   2.972   2.556   1.805 -0.7944  0.7723 -0.3964
   77SOL    HW2  231   2.964   2.500   1.649  0.8046  1.5791 -0.9289
   78SOL     OW  232   2.336   1.002   0.349 -0.8099 -0.2698  0.1465
   78SOL    HW1  233   2.277   0.954   0.286  1.7105  0.9024 -0.4520
   78SOL    HW2  234   2.277   1.068   0.400 -2.8208 -2.4996 -0.4381
   79SOL     OW  235   0.279   1.492   2.664 -0.6846 -0.6166 -0.2799
   79SOL    HW1  236   0.227   1.530   2.588  0.9465 -0.0335  0.7143
   79SOL    HW2  237   0.317   1.403   2.647 -3.3504  1.9489  1.3082
   80SOL     OW  238   1.898   1.702   2.026 -0.1635 -0.1649  0.1868
   80SOL    HW1  239   1.997   1.702   2.051  1.3849 -2.4599 -0.0629
   80SOL    HW2  240   1.867   1.609   2.001 -2.2564  3.6631  0.8590
   81SOL     OW  241   2.020   1.439   2.106 -0.2833  0.3394  0.0885
   81SOL    HW1  242   2.052   1.352   2.054 -1.3545 -0.4601 -1.0704
   81SOL    HW2  243   2.101   1.483   2.155  1.6703 -0.9464 -0.4939
   82SOL     OW  244   1.506   1.633   1.871  0.4334 -0.0930 -0.2153
   82SOL    HW1  245   1.409   1.626   1.832 -1.2342 -1.3162  2.0693
   82SOL    HW2  246   1.540   1.539   1.888  0.9669 -1.1958 -1.3167
   83SOL     OW  247   3.057   0.264   0.058 -0.5997 -0.3514  0.2794
   83SOL    HW1  248   3.032   0.192   0.124 -0.9966  0.2365 -1.9583
   83SOL    HW2  249   2.999   0.347   0.056  2.2833  0.4817 -1.6327
   84SOL     OW  250   0.138   0.428   0.227  0.1199 -0.2470  0.2738
   84SOL    HW1  251   0.080   0.363   0.172 -1.5045  0.9062  0.2307
   84SOL    HW2  252   0.141   0.520   0.189  1.3944 -0.0505  1.1811
   85SOL     OW  253   2.161   2.057   1.210  0.3467  0.5111 -0.2706
   85SOL    HW1  254   2.065   2.060   1.248 -1.8036 -0.1177  2.2891
   85SOL    HW2  255   2.224   2.112   1.271 -0.4596 -0.8959  0.5205
   86SOL     OW  256   0.422   0.348   1.247 -0.1756  0.5585 -0.1223
   86SOL    HW1  257   0.432   0.428   1.187  0.7851 -1.2939  1.7218
   86SOL    HW2  258   0.499   0.345   1.312 -1.1198  1.2140  2.3152
   87SOL     OW  259   0.029   2.180   1.933 -0.2500  0.0278 -0.3981
   87SOL    HW1  260   3.061   2.212   2.012 -1.9435  1.9103  2.5235
   87SOL    HW2  261   0.107   2.245   1.925 -0.8699 -1.0475 -0.7291
   88SOL     OW  262   0.234   2.099   2.921 -0.0086  0.0417  0.3785
   88SOL    HW1  263   0.274   2.176   2.868 -0.5929  1.1327  2.0928
   88SOL    HW2  264   0.141   2.078   2.885  0.1517 -1.3688 -0.4731
   89SOL     OW  265   1.102   0.801   0.278  0.5028  0.3863  0.1595
   89SOL    HW1  266   1.047   0.744   0.211 -2.1355  0.6676  0.7640
   89SOL    HW2  267   1.081   0.901   0.259 -0.7460 -2.6062  1.0796
   90SOL     OW  268   0.047   1.388   2.427 -0.1525 -0.0861  0.5418
   90SOL    HW1  269   0.083   1.486   2.434  2.4245  2.4356  1.6451
   90SOL    HW2  270   3.040   1.393   2.413 -0.4955  0.6037  1.3792
   91SOL     OW  271   1.791   0.259   1.169 -0.1536  0.1441  0.6296
   91SOL    HW1  272   1.826   0.301   1.258 -0.0649  2.8986  1.1802
   91SOL    HW2  273   1.866   0.213   1.116 -0.5998  0.3362  3.5990
   92SOL     OW  274   2.394   1.188   1.394 -0.2079 -0.0927  0.2661
   92SOL    HW1  275   2.393   1.197   1.290 -0.1987 -0.5591 -0.5019
   92SOL    HW2  276   2.471   1.243   1.433  0.5040  1.3971  2.7989
   93SOL     OW  277   0.242   1.184   2.967 -0.1414  0.3717 -0.9301
   93SOL    HW1  278   0.260   1.232   3.059  1.0421 -0.0769 -0.2220
   93SOL    HW2  279   0.326   1.203   2.913 -0.6603 -2.2693 -0.4937
   94SOL     OW  280   1.475   2.487   2.235  0.1059 -0.2831  0.3541
   94SOL    HW1  281   1.419   2.419   2.284  1.9353 -0.4387 -2.6620
   94SOL    HW2  282   1.527   2.445   2.158 -0.3697  1.8696 -0.3593
   95SOL     OW  283   0.457   0.555   1.057  0.2943  0.3824 -0.0647
   95SOL    HW1  284   0.545   0.554   1.000  0.7651 -1.5252 -0.5822
   95SOL    HW2  285   0.382   0.584   0.993  0.5644  2.1983 -0.2792
   96SOL     OW  286   2.597   3.005   1.413 -0.4804  0.6261  0.2853
   96SOL    HW1  287   2.625   2.919   1.365 -3.1487 -0.2800 -0.6037
   96SOL    HW2  288   2.676   3.035   1.473  2.0242  1.3618 -0.7276
   97SOL     OW  289   2.634   0.677   1.637 -0.2411  0.2864 -0.2123
   97SOL    HW1  290   2.587   0.756   1.591  2.8893 -2.1815  0.8836
   97SOL    HW2  291   2.632   0.701   1.736 -1.1976  1.0928 -2.7758
   98SOL     OW  292   2.307   2.709   1.293 -0.0131  0.4017 -0.1808
   98SOL    HW1  293   2.345   2.721   1.383  0.2513 -1.0927 -2.0792
   98SOL    HW2  294   2.374   2.743   1.221  0.0346  1.5247  1.6584
   99SOL     OW  295   0.546   2.879   1.369 -0.3168 -0.2792 -0.4787
   99SOL    HW1  296   0.519   2.977   1.381 -0.0935 -0.3245 -1.3631
   99SOL    HW2  297   0.578   2.866   1.272  0.7869  0.4798 -3.3130
  100SOL     OW  298   2.031   0.219   2.309 -0.2524  0.1304 -0.0142
  100SOL    HW1  299   2.056   0.313   2.274 -0.0716  2.4894  1.0040
  100SOL    HW2  300   2.038   0.215   2.413 -2.0635 -0.2766  1.8012
  101SOL     OW  301   2.928   0.079   2.349 -0.3463  0.0903  0.0683
  101SOL    HW1  302   2.959   3.078   2.352 -2.8490 -0.5390  0.4273
  101SOL    HW2  303   3.006   0.145   2.379  2.6704 -0.4695 -1.2150
  102SOL     OW  304   0.646   0.429   1.524  0.7392 -0.3008  0.3983
  102SOL    HW1  305   0.655   0.349   1.460 -0.1839 -1.0755 -1.1121
  102SOL    HW2  306   0.643   0.387   1.620 -0.2204  1.8856  1.2132
  103SOL     OW  307   0.904   0.748   2.677 -0.0673 -0.2787 -0.1661
  103SOL    HW1  308   0.976   0.686   2.716  2.6779 -1.1347  0.4360
  103SOL    HW2  309   0.924   0.843   2.709  2.1122 -0.8827 -1.5670
  104SOL     OW  310   0.087   0.589   2.213 -0.8949 -0.2914  0.4173
  104SOL    HW1  311   0.015   0.584   2.278 -1.2161  0.6249 -1.5199
  104SOL    HW2  312   0.062   0.657   2.144 -1.0887 -0.1126 -0.7771
  105SOL     OW  313   2.542   2.051   1.257  0.3908  0.1004 -0.8817
  105SOL    HW1  314   2.537   2.132   1.314 -0.7643 -0.9033 -0.3647
  105SOL    HW2  315   2.501   2.070   1.164  1.2384  1.7183 -0.3369
  106SOL     OW  316   1.831   0.219   0.382 -0.2742  0.2729 -0.5970
  106SOL    HW1  317   1.891   0.288   0.416 -1.3041  0.2385 -1.4686
  106SOL    HW2  318   1.769   0.262   0.317 -1.1752 -0.5469  0.1795
  107SOL     OW  319   2.010   2.297   0.775 -0.4987  0.2492  0.0903
  107SOL    HW1  320   1.970   2.389   0.751 -0.6954  0.5767 -1.7266
  107SOL    HW2  321   2.054   2.260   0.688 -0.1508 -1.2494 -0.7294
  108SOL     OW  322   0.152   2.276   1.273  0.0563  0.2658 -0.0258
  108SOL    HW1  323   0.062   2.245   1.243  1.8444  0.8322  0.4254
  108SOL    HW2  324   0.198   2.333   1.203  0.2065  1.7935  2.1309
  109SOL     OW  325   1.911   2.568   0.720 -0.3579 -0.5484 -0.2742
  109SOL    HW1  326   1.855   2.621   0.651  1.6614  0.5325  0.8219
  109SOL    HW2  327   1.865   2.574   0.810 -0.7743  2.5602  0.4548
  110SOL     OW  328   1.223   1.609   1.746 -0.0085 -0.4199  0.2616
  110SOL    HW1  329   1.171   1.675   1.804  2.3007  1.5535  2.7946
  110SOL    HW2  330   1.164   1.540   1.700 -3.8223 -0.2785  1.0241
  111SOL     OW  331   1.864   2.283   1.958  0.6445 -0.7192  0.2354
  111SOL    HW1  332   1.833   2.207   1.890 -0.8345 -4.9705 -1.2365
  111SOL    HW2  333   1.907   2.359   1.911  0.3956 -2.1168  0.7059
  112SOL     OW  334   1.728   2.194   2.948  0.0380  0.1162 -0.0321
  112SOL    HW1  335   1.646   2.150   2.993 -0.6527 -0.2207 -1.1402
  112SOL    HW2  336   1.735   2.296   2.968  1.1137  0.1469  1.1705
  113SOL     OW  337   2.023   1.982   1.691 -0.1431  0.0666 -0.0108
  113SOL    HW1  338   2.104   1.921   1.659  0.7621 -1.1252 -1.4916
  113SOL    HW2  339   1.937   1.953   1.651  4.1822  3.1139  1.8130
  114SOL     OW  340   3.016   1.283   1.581  0.6598  0.4245  0.3219
  114SOL    HW1  341   0.015   1.297   1.541  1.3094 -1.6544  1.9471
  114SOL    HW2  342   3.020   1.255   1.679  2.2201 -0.1986  0.6253
  115SOL     OW  343   0.224   0.707   0.444  0.1147 -0.8670  0.5393
  115SOL    HW1  344   0.173   0.755   0.515  0.6605  0.0342 -0.0015
  115SOL    HW2  345   0.165   0.640   0.398  0.5250  0.4242  1.2312
  116SOL     OW  346   2.571   1.294   2.779 -0.5323 -0.1516 -0.9490
  116SOL    HW1  347   2.586   1.350   2.696 -0.4293  0.3027 -0.0994
  116SOL    HW2  348   2.656   1.239   2.790  0.2000 -0.5839  0.9100
  117SOL     OW  349   2.919   2.499   0.371 -0.1802  0.1881 -0.0083
  117SOL    HW1  350   2.872   2.566   0.309 -0.5174 -0.4338  1.2979
  117SOL    HW2  351   2.882   2.501   0.464 -0.0525 -0.0604 -3.3758
  118SOL     OW  352   0.565   2.130   2.869 -0.0265  0.0695 -0.0300
  118SOL    HW1  353   0.495   2.193   2.832 -1.4569 -1.1865 -2.6696
  118SOL    HW2  354   0.521   2.042   2.887  2.1742 -0.7556  1.8259
  119SOL     OW  355   0.582   2.188   0.725 -0.4700  0.5934  0.2050
  119SOL    HW1  356   0.622   2.135   0.646 -0.1580 -0.6704 -0.9558
  119SOL    HW2  357   0.535   2.124   0.790 -1.4495  1.3995 -0.8404
  120SOL     OW  358   1.345   0.411   0.424  0.0723 -0.3185  0.3661
  120SOL    HW1  359   1.366   0.457   0.335  0.3940  1.3217  1.3581
  120SOL    HW2  360   1.329   0.314   0.403 -1.5991  0.3008 -0.7446
  121SOL     OW  361   1.422   2.439   0.968 -0.2095 -0.2441  0.3196
  121SOL    HW1  362   1.433   2.537   0.986 -0.9670  0.0714  0.1397
  121SOL    HW2  363   1.331   2.405   1.001 -1.3049 -1.2624  1.2378
  122SOL     OW  364   2.679   2.098   1.868 -0.3489 -1.1521  0.1609
  122SOL    HW1  365   2.664   2.135   1.964  1.9526  0.1176  0.2110
  122SOL    HW2  366   2.761   2.041   1.866  0.6789 -2.3102  2.2841
  123SOL     OW  367   0.954   1.580   0.764  0.4098  0.3934  0.8385
  123SOL    HW1  368   0.963   1.631   0.849 -2.1507 -2.9538 -0.4954
  123SOL    HW2  369   1.016   1.613   0.691  3.2256  1.2758 -0.3657
  124SOL     OW  370   0.034   0.569   2.970  0.4410  0.4245 -0.0930
  124SOL    HW1  371   3.073   0.534   3.046 -0.3513 -1.2397 -0.1619
  124SOL    HW2  372   0.045   0.491   2.902  2.3110 -1.5608 -2.6357
  125SOL     OW  373   0.296   0.018   0.113 -0.6294 -0.0866 -0.7260
  125SOL    HW1  374   0.231   0.099   0.102 -2.3348 -0.0518 -1.4138
  125SOL    HW2  375   0.359   0.008   0.034  0.9106  1.3471  4.8629
  126SOL     OW  376   3.026   1.464   0.540 -0.1722  0.1194  0.2027
  126SOL    HW1  377   3.077   1.518   0.471 -2.9144  0.2853  2.3763
  126SOL    HW2  378   3.001   1.518   0.624  0.0570 -0.0745  0.5486
  127SOL     OW  379   1.078   2.509   1.617  0.2001  0.0883 -0.6934
  127SOL    HW1  380   0.990   2.559   1.591  0.0179  0.8274 -0.7344
  127SOL    HW2  381   1.100   2.440   1.543 -1.0296 -2.4804 -2.2878
  128SOL     OW  382   1.145   1.621   3.014 -0.2783 -0.4999  0.1608
  128SOL    HW1  383   1.156   1.717   2.982  0.6394 -2.2799 -0.6733
  128SOL    HW2  384   1.055   1.584   2.990  1.9328 -2.0241  2.0558
  129SOL     OW  385   1.909   2.202   1.245 -0.0441 -0.8208  0.4582
  129SOL    HW1  386   1.880   2.217   1.146 -0.9010 -1.4049  0.0466
  129SOL    HW2  387   1.837   2.157   1.301  1.6808  1.6509 -0.4396
  130SOL     OW  388   2.100   2.260   1.700  0.2477 -0.1659 -0.1273
  130SOL    HW1  389   2.070   2.165   1.671 -3.0372 -1.4956  1.8212
  130SOL    HW2  390   2.020   2.319   1.695 -0.7528 -0.3153  1.5333
  131SOL     OW  391   2.633   2.389   2.524  0.3464 -0.3930 -0.6573
  131SOL    HW1  392   2.574   2.435   2.591  0.3903 -3.4395 -2.3420
  131SOL    HW2  393   2.607   2.291   2.533  0.1943  1.5565 -2.2038
  132SOL     OW  394   2.962   2.137   0.708 -0.1892 -0.0930  0.7856
  132SOL    HW1  395   2.985   2.211   0.771  5.1426 -2.6106 -0.5580
  132SOL    HW2  396   2.870   2.101   0.729 -0.8051 -0.5811 -0.3020
  133SOL     OW  397   0.612   0.303   1.788  0.0539 -0.0174 -0.3502
  133SOL    HW1  398   0.704   0.353   1.799  2.9507  3.0840 -0.5782
  133SOL    HW2  399   0.549   0.314   1.865 -0.0817 -2.2764 -1.2009
  134SOL     OW  400   2.761   1.694   0.228 -0.4785  0.1612 -0.0503
  134SOL    HW1  401   2.829   1.744   0.173 -0.9553  0.3882  1.4765
  134SOL    HW2  402   2.667   1.721   0.202 -0.9277 -0.9983  0.0103
  135SOL     OW  403   1.712   1.313   2.681 -0.2605  0.1137 -0.1660
  135SOL    HW1  404   1.768   1.250   2.743  1.8897  0.8676 -0.9121
  135SOL    HW2  405   1.632   1.266   2.636 -2.0260  0.6865 -1.4009
  136SOL     OW  406   2.569   1.712   1.098 -0.6682  0.5898  0.6222
  136SOL    HW1  407   2.634   1.779   1.144  2.5878  2.1481 -0.6541
  136SOL    HW2  408   2.621   1.643   1.049 -1.8642 -1.9055  1.1591
  137SOL     OW  409   2.696   1.473   0.953 -0.0703 -0.2244 -0.9102
  137SOL    HW1  410   2.665   1.468   0.858  1.6369 -0.7675  0.6845
  137SOL    HW2  411   2.800   1.460   0.962 -0.6778 -0.4188  2.5882
  138SOL     OW  412   2.781   0.439   0.748 -0.0537  0.7306 -0.2460
  138SOL    HW1  413   2.842   0.360   0.773  0.8644  0.5289  1.1306
  138SOL    HW2  414   2.715   0.452   0.828  1.3186 -0.5413  0.1169
  139SOL     OW  415   3.060   2.755   0.061  0.5218 -0.9899  0.0767
  139SOL    HW1  416   2.976   2.717   0.108  1.0001 -2.5280 -0.3843
  139SOL    HW2  417   0.025   2.801   0.132  0.6526  0.5780  2.7727
  140SOL     OW  418   0.685   1.738   1.716 -0.4765 -0.0950  0.0048
  140SOL    HW1  419   0.714   1.695   1.808 -1.6258  0.2269  2.3449
  140SOL    HW2  420   0.726   1.832   1.705  2.8818 -1.0819  1.0753
  141SOL     OW  421   1.407   1.779   0.889  0.3334  0.0924  0.6150
  141SOL    HW1  422   1.421   1.679   0.869 -1.0026  2.1141  0.2711
  141SOL    HW2  423   1.487   1.836   0.868 -4.1752 -0.8642  0.5562
  142SOL     OW  424   1.020   0.515   0.886  0.1747  0.2386 -0.5562
  142SOL    HW1  425   1.008   0.422   0.851  1.1860  3.0164 -1.0135
  142SOL    HW2  426   0.938   0.544   0.941 -1.3276 -1.2394 -0.3050
  143SOL     OW  427   0.851   1.394   2.586  0.1591 -0.5368  0.3009
  143SOL    HW1  428   0.946   1.363   2.603 -1.6221  2.8385 -4.1720
  143SOL    HW2  429   0.797   1.314   2.556  1.9572  0.3263  0.9670
  144SOL     OW  430   2.326   2.967   0.762 -0.3873 -0.1706 -0.1713
  144SOL    HW1  431   2.226   2.977   0.765  1.5645 -0.4050  2.1129
  144SOL    HW2  432   2.367   2.984   0.854  1.2972  0.7674 -1.9466
  145SOL     OW  433   2.347   0.480   2.680  1.0511 -0.4090 -0.1294
  145SOL    HW1  434   2.291   0.415   2.736  1.1841 -1.1532  2.3985
  145SOL    HW2  435   2.447   0.485   2.705 -1.2413  3.3331 -2.2487
  146SOL     OW  436   0.003   2.635   0.678 -0.0061 -0.3963  0.4433
  146SOL    HW1  437   3.001   2.614   0.657  1.2863  0.5991 -1.9010
  146SOL    HW2  438   0.008   2.730   0.719  0.9140  2.1815  0.4811
  147SOL     OW  439   1.090   1.246   2.655 -0.2305  0.3211  0.4961
  147SOL    HW1  440   1.055   1.159   2.624  2.3901  1.2263 -0.9322
  147SOL    HW2  441   1.179   1.267   2.605 -0.6230  1.1679 -0.8542
  148SOL     OW  442   1.343   0.323   2.715 -0.0402  0.4618  0.0834
  148SOL    HW1  443   1.312   0.270   2.796 -0.2311 -3.4830  3.3716
  148SOL    HW2  444   1.317   0.280   2.628  2.5405  1.2695  1.7938
  149SOL     OW  445   1.901   0.051   2.148  0.1408  0.4769  0.2091
  149SOL    HW1  446   1.974   3.079   2.129 -2.6951  0.0226 -0.4043
  149SOL    HW2  447   1.928   0.114   2.223 -1.1624  3.2800  0.4891
  150SOL     OW  448   2.573   2.690   0.045 -0.2701  0.1585  0.6300
  150SOL    HW1  449   2.472   2.698   0.051  0.9386 -1.3121 -1.1689
  150SOL    HW2  450   2.606   2.776   0.009 -2.4203  2.6701  1.8002
  151SOL     OW  451   0.512   1.636   2.959  0.1598 -0.1858 -0.1319
  151SOL    HW1  452   0.590   1.631   3.026  0.6425 -0.7296  0.8281
  151SOL    HW2  453   0.532   1.581   2.873  0.5345  1.3699  0.5370
  152SOL     OW  454   0.210   0.032   1.590 -0.4333 -0.2046 -0.3590
  152SOL    HW1  455   0.294   0.031   1.647 -1.7431 -0.1292 -0.9555
  152SOL    HW2  456   0.139   0.086   1.640  0.3568  0.3642  1.8181
  153SOL     OW  457   2.473   3.091   1.641 -0.2841  0.0831 -0.4099
  153SOL    HW1  458   2.536   3.087   1.561  0.4994 -2.2740  1.0797
  153SOL    HW2  459   2.396   3.027   1.622 -0.0187 -1.6897 -0.9866
  154SOL     OW  460   2.477   0.215   2.614 -0.1622  0.3972 -0.3097
  154SOL    HW1  461   2.514   0.284   2.677 -3.9025 -1.0092 -0.4007
  154SOL    HW2  462   2.549   0.191   2.545 -1.0431 -0.0747 -0.6375
  155SOL     OW  463   0.068   1.231   0.504  0.2204 -0.7059 -0.3131
  155SOL    HW1  464   0.147   1.201   0.556 -1.0451  0.2127 -2.2516
  155SOL    HW2  465   0.016   1.311   0.544  1.2653 -2.5383 -3.0945
  156SOL     OW  466   0.145   1.590   0.369 -0.4182  0.6036  0.0064
  156SOL    HW1  467   0.136   1.659   0.304  1.5658 -1.0292  1.8124
  156SOL    HW2  468   0.139   1.497   0.323 -0.4891 -0.3770 -1.2199
  157SOL     OW  469   0.572   0.044   0.608 -0.3219  0.1463  0.2046
  157SOL    HW1  470   0.530   0.002   0.690  4.0690 -1.5750  0.9529
  157SOL    HW2  471   0.657   3.090   0.584 -2.0481  1.3374  1.8691
  158SOL     OW  472   1.773   1.042   1.229  0.1839  0.0148 -0.0021
  158SOL    HW1  473   1.845   0.978   1.201  0.1679 -1.2832 -0.5282
  158SOL    HW2  474   1.691   1.003   1.278  0.4201  0.9330 -2.7662
  159SOL     OW  475   0.099   0.148   0.483  0.5754  0.0667 -0.1795
  159SOL    HW1  476   0.123   0.245   0.494  0.2122  0.1268  1.1376
  159SOL    HW2  477   0.181   0.088   0.491 -1.6060 -2.6068  0.5362
  160SOL     OW  478   2.246   2.248   1.414 -0.2813 -0.1507 -0.3779
  160SOL    HW1  479   2.220   2.261   1.510 -0.7409 -1.3168 -0.1723
  160SOL    HW2  480   2.210   2.327   1.358  0.7059  0.1974 -0.2111
  161SOL     OW  481   3.046   0.822   2.874  0.2088  0.5387  0.8431
  161SOL    HW1  482   3.075   0.733   2.907 -2.6160  3.2620 -1.2818
  161SOL    HW2  483   3.074   0.896   2.938 -1.2684 -1.0536  2.5268
  162SOL     OW  484   0.748   3.054   1.674 -0.5583 -0.1176 -0.4396
  162SOL    HW1  485   0.795   0.009   1.596  1.6767  1.5127 -0.9880
  162SOL    HW2  486   0.660   0.001   1.704 -1.8812 -1.1252 -0.2945
  163SOL     OW  487   2.654   0.101   2.442  0.7387  0.1883  0.4780
  163SOL    HW1  488   2.627   0.004   2.445  0.1036 -0.8754  0.2732
  163SOL    HW2  489   2.743   0.117   2.397  0.2146  0.6460 -3.3144
  164SOL     OW  490   1.965   1.854   0.456  0.3683  0.1048  0.1194
  164SOL    HW1  491   1.900   1.919   0.406 -3.2538  2.7336 -0.7932
  164SOL    HW2  492   2.044   1.828   0.399 -3.6006  1.4915  3.5107
  165SOL     OW  493   0.235   0.301   1.423  0.4693  0.4111 -0.0605
  165SOL    HW1  494   0.308   0.323   1.351  1.0718  0.3907 -2.4494
  165SOL    HW2  495   0.250   0.210   1.464  0.8547  0.5479  1.2407
  166SOL     OW  496   1.893   0.905   0.455  0.2986  0.1627 -0.2826
  166SOL    HW1  497   1.859   0.998   0.431  0.0167 -1.8333  0.2955
  166SOL    HW2  498   1.834   0.855   0.525 -0.8386 -1.5120  0.1272
  167SOL     OW  499   2.379   0.753   2.980  0.2614  0.4161  0.2537
  167SOL    HW1  500   2.428   0.694   3.049  0.5304 -0.3328 -1.0840
  167SOL    HW2  501   2.284   0.719   2.957 -3.2000  0.7269 -1.0155
  168SOL     OW  502   1.611   0.098   2.662  0.2462  0.0314 -0.3645
  168SOL    HW1  503   1.706   0.068   2.650 -2.8148  0.4233  2.7657
  168SOL    HW2  504   1.574   0.053   2.749 -0.1566 -2.0937  1.9895
  169SOL     OW  505   0.508   1.614   0.869 -0.6331  0.3811  0.0673
  169SOL    HW1  506   0.416   1.579   0.881  3.6185 -1.7293 -1.3789
  169SOL    HW2  507   0.545   1.636   0.960 -1.8671 -0.6368 -3.0471
  170SOL     OW  508   2.801   1.173   1.214  0.5756  0.5792 -0.4977
  170SOL    HW1  509   2.788   1.087   1.272  2.1889  0.3387 -1.1757
  170SOL    HW2  510   2.799   1.140   1.117 -1.3504 -2.0615 -0.9810
  171SOL     OW  511   2.535   1.848   2.063 -0.5408  0.0902 -0.0038
  171SOL    HW1  512   2.571   1.791   1.987  1.8276 -1.4198 -1.4386
  171SOL    HW2  513   2.460   1.913   2.035 -0.1930 -0.1581 -0.5372
  172SOL     OW  514   0.552   1.659   1.487 -0.3952 -0.2695 -0.3971
  172SOL    HW1  515   0.474   1.722   1.474  2.0157 -1.8096  0.7339
  172SOL    HW2  516   0.597   1.668   1.575  0.0487 -0.9185 -2.4827
  173SOL     OW  517   1.946   1.768   2.820 -0.1208 -0.3180 -0.0127
  173SOL    HW1  518   1.856   1.731   2.782 -2.3196  0.6853 -1.6408
  173SOL    HW2  519   1.942   1.859   2.868 -2.4183  2.5145 -0.8954
  174SOL     OW  520   1.378   0.885   2.759  0.0841 -0.0426  0.1599
  174SOL    HW1  521   1.471   0.858   2.775  0.2007 -0.9677  0.3722
  174SOL    HW2  522   1.339   0.844   2.676 -0.6943 -0.1003 -0.7940
  175SOL     OW  523   1.201   1.433   1.202 -0.3235 -0.2380  0.6009
  175SOL    HW1  524   1.255   1.467   1.278  0.9113  0.5520 -0.4455
  175SOL    HW2  525   1.157   1.346   1.223 -1.4577 -4.2370 -0.2837
  176SOL     OW  526   1.299   0.162   0.366 -0.2253  0.3635  0.1032
  176SOL    HW1  527   1.223   0.110   0.399 -1.9552 -1.9694 -1.8520
  176SOL    HW2  528   1.347   0.121   0.282  1.9078 -1.3906  2.1238
  177SOL     OW  529   0.408   0.956   0.356 -0.5970  0.0369 -0.2218
  177SOL    HW1  530   0.411   0.878   0.416 -0.3936  4.1937 -1.7846
  177SOL    HW2  531   0.441   1.034   0.402 -2.5267 -3.0126  0.3104
  178SOL     OW  532   2.782   1.969   2.435  0.6864  0.0111  0.0547
  178SOL    HW1  533   2.843   2.025   2.498  0.7341  2.6494  2.4880
  178SOL    HW2  534   2.831   1.894   2.383  0.7059 -0.5551 -0.3243
  179SOL     OW  535   2.589   2.937   2.468 -0.2313  0.1269  0.2236
  179SOL    HW1  536   2.594   2.933   2.570  2.5145 -1.2352 -0.1843
  179SOL    HW2  537   2.647   2.869   2.418  0.7445  1.8397  0.6859
  180SOL     OW  538   2.161   0.844   0.988 -0.2962 -0.1760 -0.4522
  180SOL    HW1  539   2.234   0.889   1.048 -0.5678  1.9322  1.8945
  180SOL    HW2  540   2.193   0.821   0.894  0.6385 -1.9885  2.5899
  181SOL     OW  541   2.292   0.704   2.533  0.3080 -0.0728  0.1155
  181SOL    HW1  542   2.276   0.612   2.570  1.9059  0.8170  2.3911
  181SOL    HW2  543   2.288   0.704   2.430 -1.6440  0.1783 -1.5425
  182SOL     OW  544   2.870   2.450   2.031  0.0076  0.3112 -0.0559
  182SOL    HW1  545   2.903   2.446   1.935 -2.2305  0.2735 -1.6102
  182SOL    HW2  546   2.946   2.456   2.101  2.7419  0.6654  1.3403
  183SOL     OW  547   2.035   0.815   1.924  0.6192  0.7576 -0.3563
  183SOL    HW1  548   2.132   0.830   1.961  2.9558 -1.3631  0.2857
  183SOL    HW2  549   2.036   0.809   1.824 -0.4781  2.0452  1.5840
  184SOL     OW  550   0.163   1.542   1.307 -0.0856 -0.6028  0.1250
  184SOL    HW1  551   0.094   1.486   1.249 -2.1177 -1.1063 -1.2916
  184SOL    HW2  552   0.168   1.498   1.398 -0.8908  2.1228  2.6546
  185SOL     OW  553   2.914   0.261   0.886 -0.4251 -0.9024  0.2373
  185SOL    HW1  554   2.855   0.181   0.906 -1.5682  1.6353  1.5387
  185SOL    HW2  555   2.966   0.304   0.962 -0.5302  0.1095  0.6806
  186SOL     OW  556   2.133   2.454   2.444 -0.2546 -0.5619 -0.6934
  186SOL    HW1  557   2.039   2.495   2.445 -0.9958 -0.7914 -2.1639
  186SOL    HW2  558   2.150   2.407   2.533  2.7239  2.2195  0.3258
  187SOL     OW  559   0.508   1.422   0.510 -0.3666  0.0873 -0.4553
  187SOL    HW1  560   0.522   1.323   0.484  0.2055 -1.4955  3.3442
  187SOL    HW2  561   0.587   1.453   0.569  2.3325 -1.4774  0.5788
  188SOL     OW  562   1.884   1.212   1.033 -0.0853 -0.0210  0.1194
  188SOL    HW1  563   1.976   1.243   1.067  2.3195  1.1608  0.1547
  188SOL    HW2  564   1.844   1.145   1.097 -0.6020 -0.2789 -1.5614
  189SOL     OW  565   3.019   0.917   2.636  0.9563  0.4207 -0.1016
  189SOL    HW1  566   3.030   0.890   2.731 -1.5991 -1.7558 -3.0860
  189SOL    HW2  567   2.921   0.932   2.616 -1.1621 -0.5807  1.2227
  190SOL     OW  568   2.300   0.625   2.266  0.6579  0.1760 -0.1639
  190SOL    HW1  569   2.198   0.617   2.269 -0.5688 -0.8980  0.7159
  190SOL    HW2  570   2.338   0.551   2.325  1.9263 -0.0868 -1.8716
  191SOL     OW  571   1.043   0.102   2.236  0.2855 -0.2198  0.2614
  191SOL    HW1  572   0.960   0.080   2.291  2.6643 -1.1814 -2.6543
  191SOL    HW2  573   1.067   0.020   2.175 -0.8034 -2.2787 -1.8124
  192SOL     OW  574   0.841   1.989   1.708  0.3524  0.3456  0.1646
  192SOL    HW1  575   0.929   1.969   1.674 -1.0022  0.9883  2.0921
  192SOL    HW2  576   0.848   2.042   1.802 -1.5349  1.7580  1.9741
  193SOL     OW  577   1.326   2.975   0.875  0.1730 -0.9928 -0.4859
  193SOL    HW1  578   1.262   2.928   0.941 -0.6924  1.2480 -0.4529
  193SOL    HW2  579   1.300   2.959   0.780  0.8657  2.4523  1.9192
  194SOL     OW  580   0.791   2.087   2.013  0.2641  0.1603  0.2335
  194SOL    HW1  581   0.694   2.106   1.987 -0.8042 -1.3978 -0.7285
  194SOL    HW2  582   0.850   2.160   1.971 -0.3701  4.4015  0.0528
  195SOL     OW  583   1.488   0.534   0.785 -0.3291 -0.1258 -0.1947
  195SOL    HW1  584   1.569   0.471   0.805  1.2360 -0.2003 -1.4185
  195SOL    HW2  585   1.404   0.521   0.843 -3.1507  2.2747 -1.1254
  196SOL     OW  586   1.178   1.547   2.109 -0.0729  0.2785 -0.1987
  196SOL    HW1  587   1.134   1.549   2.204 -2.5417 -1.2042  4.1408
  196SOL    HW2  588   1.175   1.639   2.066 -1.0386 -2.2050 -2.0977
  197SOL     OW  589   0.463   0.589   1.957 -0.2031  0.3994  0.3631
  197SOL    HW1  590   0.523   0.620   1.880 -0.2030 -2.3259 -2.7480
  197SOL    HW2  591   0.366   0.607   1.931 -1.5003  0.4107 -1.4006
  198SOL     OW  592   0.646   0.493   0.621  0.2406  0.5402 -0.0066
  198SOL    HW1  593   0.714   0.488   0.550 -4.5249 -2.3222 -2.2190
  198SOL    HW2  594   0.569   0.436   0.591  1.8626 -2.8310  2.6165
  199SOL     OW  595   0.190   2.422   1.664 -0.0370 -0.2406  0.5821
  199SOL    HW1  596   0.195   2.341   1.604  2.4389 -0.4637  2.2983
  199SOL    HW2  597   0.100   2.454   1.683  2.3352  0.4593 -0.4693
  200SOL     OW  598   1.782   1.451   2.390  0.4744  0.1312 -0.0787
  200SOL    HW1  599   1.857   1.518   2.363  2.7472  1.2196 -2.7961
  200SOL    HW2  600   1.819   1.377   2.449 -0.3578  1.1798  0.7276
  201SOL     OW  601   0.677   2.466   1.759  0.7773 -0.5314 -0.4627
  201SOL    HW1  602   0.729   2.473   1.677 -0.4460  1.2024  0.2864
  201SOL    HW2  603   0.631   2.377   1.771  0.9296  0.0625 -0.6337
  202SOL     OW  604   1.275   2.824   2.952  0.7164 -0.2860 -0.1543
  202SOL    HW1  605   1.317   2.797   2.859  0.5623  0.4368 -1.7991
  202SOL    HW2  606   1.175   2.823   2.951  0.2094 -1.7293  2.5606
  203SOL     OW  607   1.576   0.409   2.320 -0.4830 -0.3554  0.1704
  203SOL    HW1  608   1.611   0.396   2.226 -1.5070 -0.4752  1.6802
  203SOL    HW2  609   1.545   0.320   2.360 -2.0758 -0.0393 -1.5448
  204SOL     OW  610   0.646   1.381   1.978  0.2737 -0.4807  0.2103
  204SOL    HW1  611   0.686   1.411   2.065 -3.5050 -0.6478  0.2210
  204SOL    HW2  612   0.596   1.293   1.991  3.3302  1.8532 -1.7912
  205SOL     OW  613   2.081   1.041   2.796 -0.0916  0.2883 -0.3770
  205SOL    HW1  614   2.071   0.957   2.737 -2.4485 -0.7728 -0.1523
  205SOL    HW2  615   2.175   1.079   2.783  1.6571 -0.2808  0.8728
  206SOL     OW  616   0.266   1.729   2.776  0.5705  0.6650 -0.2970
  206SOL    HW1  617   0.257   1.628   2.767  0.7595 -0.4558  2.0923
  206SOL    HW2  618   0.364   1.752   2.791 -2.4585 -1.7741 -0.8749
  207SOL     OW  619   0.949   2.892   1.828  0.3345  0.4794  0.0795
  207SOL    HW1  620   0.916   2.826   1.900  0.9536 -4.0340 -1.5923
  207SOL    HW2  621   0.874   2.928   1.775 -0.2214 -2.1098 -2.8280
  208SOL     OW  622   0.628   2.439   1.421  0.2268 -0.3063  0.8149
  208SOL    HW1  623   0.547   2.500   1.448 -0.4544 -0.9305 -0.6491
  208SOL    HW2  624   0.602   2.383   1.343 -0.0743  3.0475  0.5587
  209SOL     OW  625   1.125   2.945   0.179  0.5051  0.7866  0.1396
  209SOL    HW1  626   1.072   3.000   0.249 -0.2808  0.8363 -0.6696
  209SOL    HW2  627   1.099   2.980   0.088 -0.3269  1.0750  2.7970
  210SOL     OW  628   2.875   1.675   1.486  0.0953  0.5020 -0.0083
  210SOL    HW1  629   2.776   1.680   1.500  1.7042 -0.1715 -1.0364
  210SOL    HW2  630   2.907   1.598   1.430  0.8752  1.9420 -0.5355
  211SOL     OW  631   0.828   0.434   1.843 -0.4406  0.1848  0.1265
  211SOL    HW1  632   0.835   0.530   1.870 -0.1449 -2.0737 -0.8213
  211SOL    HW2  633   0.893   0.415   1.767  3.8356  0.1288  0.9311
  212SOL     OW  634   1.395   2.121   1.679 -0.0541 -0.2765 -0.6561
  212SOL    HW1  635   1.418   2.138   1.584  0.9180  1.0421  1.4811
  212SOL    HW2  636   1.431   2.031   1.713 -1.8147 -1.3072 -0.8856
  213SOL     OW  637   2.405   0.297   1.553  0.7269  0.1026  0.2525
  213SOL    HW1  638   2.501   0.330   1.540 -2.6895  3.1585 -1.0353
  213SOL    HW2  639   2.384   0.237   1.634 -2.6437  0.7232 -1.5307
  214SOL     OW  640   1.000   2.224   1.909  0.2152 -0.5592 -0.0988
  214SOL    HW1  641   1.063   2.235   1.991  1.3783 -0.3533  0.3559
  214SOL    HW2  642   1.049   2.234   1.817  1.9186 -1.5607 -2.0913
  215SOL     OW  643   2.751   1.895   1.208  0.1052 -0.4021  0.5882
  215SOL    HW1  644   2.676   1.953   1.250 -1.6565  0.3675  1.8373
  215SOL    HW2  645   2.804   1.841   1.280  1.8648  0.1100  1.9861
  216SOL     OW  646   0.277   0.707   1.498  0.2573  0.0325  0.1124
  216SOL    HW1  647   0.366   0.756   1.496 -1.7920 -0.6105 -0.7533
  216SOL    HW2  648   0.278   0.629   1.564 -0.3055 -0.3167  1.4398
  217SOL     OW  649   2.663   0.279   1.247  0.4240 -0.5545  0.2306
  217SOL    HW1  650   2.747   0.224   1.253  0.0475  1.1492 -0.7838
  217SOL    HW2  651   2.682   0.376   1.275  0.1074 -0.4189  2.2820
  218SOL     OW  652   1.100   1.925   1.221  0.0074  0.5946  0.4772
  218SOL    HW1  653   1.098   1.826   1.195 -1.0991  3.3091 -0.9723
  218SOL    HW2  654   1.020   1.970   1.171 -3.6814  2.2245 -0.8688
  219SOL     OW  655   1.484   2.374   0.296 -0.9118  0.2265  0.1353
  219SOL    HW1  656   1.413   2.433   0.337 -0.9952  1.3742 -1.2299
  219SOL    HW2  657   1.516   2.303   0.365  1.8198  0.3187 -2.2843
  220SOL     OW  658   1.693   2.583   0.328  0.1578 -0.2882  0.0492
  220SOL    HW1  659   1.665   2.551   0.421  1.1545 -1.1758 -0.5421
  220SOL    HW2  660   1.662   2.524   0.254 -1.2958 -0.7339  0.3643
  221SOL     OW  661   2.889   2.007   0.993 -0.6351  0.2205  0.3835
  221SOL    HW1  662   2.832   2.026   0.909 -0.8067 -0.2791 -0.0379
  221SOL    HW2  663   2.834   1.954   1.062 -1.4218 -4.3205  0.2977
  222SOL     OW  664   1.020   2.178   0.884 -0.1762  0.5682 -0.3769
  222SOL    HW1  665   0.998   2.111   0.813  2.5069 -1.4558  0.0986
  222SOL    HW2  666   0.991   2.140   0.978  2.1949  1.6051  2.4029
  223SOL     OW  667   1.092   2.542   2.199  0.3937 -0.1690  0.2282
  223SOL    HW1  668   1.177   2.599   2.201 -2.7010  0.5496  0.9382
  223SOL    HW2  669   1.020   2.593   2.146 -1.2719  2.9958  0.0459
  224SOL     OW  670   2.749   1.081   0.949 -0.2951 -0.1836 -0.4277
  224SOL    HW1  671   2.662   1.094   0.904  1.0879  0.4095 -0.8824
  224SOL    HW2  672   2.756   0.985   0.978 -0.7137 -0.9001 -1.4035
  225SOL     OW  673   2.274   1.462   1.000 -0.0590  0.2789 -0.2737
  225SOL    HW1  674   2.240   1.553   0.959  0.4415  1.3758  0.3340
  225SOL    HW2  675   2.333   1.418   0.929  2.1497  0.3049 -1.4468
  226SOL     OW  676   1.187   2.559   0.657 -0.2409 -0.6358 -0.2880
  226SOL    HW1  677   1.269   2.570   0.593  2.1131  2.2712 -1.1168
  226SOL    HW2  678   1.139   2.471   0.642  0.8916 -0.3606  1.1749
  227SOL     OW  679   1.048   1.194   1.167  0.2694 -0.0335  0.3007
  227SOL    HW1  680   0.999   1.144   1.241  1.1876  4.5987  2.2231
  227SOL    HW2  681   1.098   1.134   1.105 -1.0504 -2.9924  0.6800
  228SOL     OW  682   1.337   0.535   2.229 -0.2471 -0.0945  0.1350
  228SOL    HW1  683   1.404   0.512   2.302 -3.9304 -0.4735  0.4043
  228SOL    HW2  684   1.309   0.451   2.182 -1.4090  0.1403  3.9677
  229SOL     OW  685   2.474   0.991   3.050  0.3955 -0.4890 -0.5497
  229SOL    HW1  686   2.520   0.999   0.046  0.0521 -0.3558 -0.0683
  229SOL    HW2  687   2.441   0.896   3.034  0.2657 -0.2833 -0.7539
  230SOL     OW  688   0.951   1.284   0.501  0.0996  0.5062  0.4445
  230SOL    HW1  689   1.011   1.220   0.451  0.2442  1.3024  2.0244
  230SOL    HW2  690   0.980   1.296   0.598 -0.1001 -1.7163 -1.5558
  231SOL     OW  691   2.305   2.900   2.469 -0.2725  0.1723 -0.3877
  231SOL    HW1  692   2.392   2.951   2.475  1.8575  0.1329 -0.2875
  231SOL    HW2  693   2.258   2.934   2.387 -1.1615 -1.2868  1.4862
  232SOL     OW  694   0.247   2.009   0.108  0.0741 -0.2384  0.0123
  232SOL    HW1  695   0.314   2.063   0.160  2.2459 -0.6417 -1.7687
  232SOL    HW2  696   0.238   2.051   0.016 -0.5156 -0.3522  1.4339
  233SOL     OW  697   1.579   2.649   2.460  0.0736 -0.9221 -0.1654
  233SOL    HW1  698   1.548   2.591   2.381 -0.3419  3.1749  1.2058
  233SOL    HW2  699   1.667   2.618   2.489 -3.0917  0.0004 -0.0067
  234SOL     OW  700   1.035   1.399   1.943  0.0981 -0.0069  0.0584
  234SOL    HW1  701   1.088   1.453   2.006 -0.8070  1.4042  0.0408
  234SOL    HW2  702   0.979   1.322   1.988 -2.2613 -2.9307 -0.5697
  235SOL     OW  703   0.550   2.218   1.799  0.0071 -0.1016 -0.8554
  235SOL    HW1  704   0.522   2.173   1.885  0.9182 -2.0057 -0.3468
  235SOL    HW2  705   0.507   2.173   1.715 -1.0996 -0.4448 -1.7855
  236SOL     OW  706   2.039   2.552   2.809  0.1895 -0.1747  0.1614
  236SOL    HW1  707   1.967   2.496   2.761  1.7770  1.0542 -1.4156
  236SOL    HW2  708   2.134   2.516   2.795  1.9333 -0.5625  1.2022
  237SOL     OW  709   1.566   2.971   0.998 -0.5328  0.0314 -0.0066
  237SOL    HW1  710   1.485   2.979   0.939  1.2254  0.5730  0.5155
  237SOL    HW2  711   1.577   3.056   1.052  2.3057  1.4639 -1.1167
  238SOL     OW  712   1.062   0.506   2.735 -0.2973 -0.0591  0.0861
  238SOL    HW1  713   1.165   0.504   2.741 -0.0521 -0.1242  0.0235
  238SOL    HW2  714   1.020   0.425   2.782 -1.5226 -2.5484  0.5003
  239SOL     OW  715   0.737   3.063   2.016  0.6924  0.3700 -0.5210
  239SOL    HW1  716   0.731   2.992   1.949  1.4255  0.9071  3.3125
  239SOL    HW2  717   0.788   0.051   1.986  1.6747  1.6848  0.4664
  240SOL     OW  718   2.193   2.599   0.652 -0.1933 -0.1430  0.2150
  240SOL    HW1  719   2.094   2.569   0.665 -1.2999  0.1347 -1.1344
  240SOL    HW2  720   2.196   2.687   0.599  0.5419 -0.5611 -1.8713
  241SOL     OW  721   1.013   1.529   1.577  0.3047  0.3563 -0.8207
  241SOL    HW1  722   0.936   1.506   1.641  0.3826 -0.3319 -0.2563
  241SOL    HW2  723   0.983   1.593   1.502  1.8396  1.9110  3.0736
  242SOL     OW  724   0.228   0.597   0.923 -0.3787 -0.2409  0.0432
  242SOL    HW1  725   0.205   0.697   0.912 -0.7743  0.7101 -1.8623
  242SOL    HW2  726   0.187   0.562   1.010 -3.0210  0.1299 -2.7196
  243SOL     OW  727   0.725   0.650   1.378  0.3833 -0.5454  0.1930
  243SOL    HW1  728   0.659   0.723   1.356  1.7315 -1.0624  0.9878
  243SOL    HW2  729   0.690   0.585   1.449 -1.6316 -0.1377  1.9696
  244SOL     OW  730   1.400   0.532   0.164  0.2189 -0.3118  0.1827
  244SOL    HW1  731   1.394   0.613   0.224 -2.5239  0.0826  0.6944
  244SOL    HW2  732   1.439   0.552   0.072  2.4762 -0.4158 -2.1839
  245SOL     OW  733   2.031   0.426   0.047  0.1540  0.3882  0.2042
  245SOL    HW1  734   2.016   0.338   0.097 -0.7996 -1.5382 -0.9884
  245SOL    HW2  735   2.123   0.462   0.056 -0.6556 -2.8296 -2.9220
  246SOL     OW  736   0.613   0.700   1.767 -0.3491 -0.4387 -0.2180
  246SOL    HW1  737   0.546   0.771   1.742  0.7911  0.6566  0.3444
  246SOL    HW2  738   0.695   0.722   1.718 -4.0718  1.4822  1.9370
  247SOL     OW  739   0.384   3.039   2.221  0.2080 -0.4294 -0.3726
  247SOL    HW1  740   0.348   0.035   2.258  0.4387 -1.8086  0.3316
  247SOL    HW2  741   0.481   3.028   2.243 -1.3942  2.4849  1.2957
  248SOL     OW  742   2.890   1.535   2.161 -0.1636 -0.3564 -0.6073
  248SOL    HW1  743   2.877   1.572   2.065 -1.7680  1.1243  0.7095
  248SOL    HW2  744   2.939   1.611   2.211  0.6252  1.0556  0.0685
  249SOL     OW  745   0.120   0.074   2.654 -0.0847  0.4820 -0.3684
  249SOL    HW1  746   0.196   0.120   2.703 -0.4604 -0.9108  1.6478
  249SOL    HW2  747   0.144   3.069   2.640  1.1938  0.8617 -3.2790
  250SOL     OW  748   2.932   3.094   3.031 -0.0055 -0.2082 -0.1120
  250SOL    HW1  749   2.997   3.062   0.008  2.7185 -0.9724  0.2221
  250SOL    HW2  750   2.991   0.006   2.950 -0.1154 -0.1959 -1.8440
  251SOL     OW  751   0.533   1.239   1.015 -0.1403 -0.5306 -0.4056
  251SOL    HW1  752   0.434   1.262   0.999  1.1066  2.4843  1.1092
  251SOL    HW2  753   0.588   1.296   0.952 -1.1042  0.6214  1.0960
  252SOL     OW  754   1.564   2.856   1.867  0.4837  0.0938  0.4370
  252SOL    HW1  755   1.555   2.952   1.837  0.8873 -2.6988 -0.7895
  252SOL    HW2  756   1.623   2.838   1.948  0.5403 -1.4677 -0.1059
  253SOL     OW  757   1.934   2.060   2.529  0.0957  0.4282  0.5757
  253SOL    HW1  758   1.925   2.102   2.435  0.8154  2.3403 -0.5233
  253SOL    HW2  759   1.863   2.106   2.587  0.4045  2.3402  1.0333
  254SOL     OW  760   0.474   1.607   1.868  0.1040  0.4408  0.0950
  254SOL    HW1  761   0.513   1.702   1.854 -0.2740 -0.2458 -1.5930
  254SOL    HW2  762   0.526   1.552   1.937  0.9045 -1.2574 -0.6688
  255SOL     OW  763   1.273   0.206   1.718  0.5624 -0.2006  0.4039
  255SOL    HW1  764   1.302   0.260   1.801 -1.9261 -1.0040 -1.2197
  255SOL    HW2  765   1.172   0.178   1.724 -3.3129 -0.4592 -0.2164
  256SOL     OW  766   2.769   2.359   1.106 -0.0677 -0.4168 -0.5111
  256SOL    HW1  767   2.716   2.427   1.163 -1.3364 -1.8058  1.2294
  256SOL    HW2  768   2.714   2.315   1.033  0.6620 -0.1613  0.5309
  257SOL     OW  769   0.487   2.463   2.977  0.2213 -0.2520  0.2768
  257SOL    HW1  770   0.585   2.452   2.951  2.8970  0.2894  1.2836
  257SOL    HW2  771   0.464   2.428   3.071 -3.2979  1.3090  0.0625
  258SOL     OW  772   1.058   2.332   2.372 -0.5328  0.6745  0.4545
  258SOL    HW1  773   1.030   2.363   2.459  3.0650 -1.5623 -0.9590
  258SOL    HW2  774   1.045   2.408   2.304 -1.4641 -3.1651  2.2395
  259SOL     OW  775   0.835   1.903   2.732 -0.7226 -0.5427 -0.3562
  259SOL    HW1  776   0.804   2.000   2.714  3.5346 -1.8515  3.0461
  259SOL    HW2  777   0.843   1.886   2.834  0.7323 -0.4018  0.3278
  260SOL     OW  778   2.483   0.985   2.342  0.1625  0.0635  0.3718
  260SOL    HW1  779   2.478   1.024   2.432 -1.4408 -2.4525 -1.7204
  260SOL    HW2  780   2.401   1.014   2.286 -5.3867  0.4342 -2.3597
  261SOL     OW  781   1.105   0.714   0.743 -0.1241 -0.4733 -0.3955
  261SOL    HW1  782   1.091   0.640   0.814 -2.6279  0.6246  2.2187
  261SOL    HW2  783   1.110   0.812   0.791  1.2364  3.3780  0.4615
  262SOL     OW  784   1.808   2.400   2.335  0.1967 -0.2433 -1.0202
  262SOL    HW1  785   1.813   2.296   2.323  0.5939 -1.2440  0.2353
  262SOL    HW2  786   1.819   2.443   2.243  0.2446 -2.5501  0.3196
  263SOL     OW  787   0.273   2.058   0.479 -0.3610 -0.1570  0.7556
  263SOL    HW1  788   0.315   1.980   0.529 -0.1240  0.3785  0.0277
  263SOL    HW2  789   0.346   2.105   0.421  1.8736  0.5008  0.0017
  264SOL     OW  790   0.185   2.136   0.816  0.2800  0.1017  0.6063
  264SOL    HW1  791   0.128   2.160   0.734 -3.2870 -0.8336 -1.3742
  264SOL    HW2  792   0.167   2.047   0.860  0.4444  0.6486 -2.3511
  265SOL     OW  793   0.542   1.421   0.240  0.0577  0.1482 -0.2076
  265SOL    HW1  794   0.520   1.450   0.336  1.3316 -0.9834  0.5802
  265SOL    HW2  795   0.615   1.349   0.240 -2.1002  0.9188  0.0750
  266SOL     OW  796   0.699   2.021   2.340 -0.5410 -0.4397  0.0024
  266SOL    HW1  797   0.650   2.082   2.400  4.6450  0.9625 -0.8268
  266SOL    HW2  798   0.800   2.038   2.343 -1.1013  0.1427  0.8101
  267SOL     OW  799   1.107   0.594   2.371 -0.0101 -0.3915 -0.4172
  267SOL    HW1  800   1.091   0.502   2.411  1.5044 -1.0179  2.3494
  267SOL    HW2  801   1.178   0.590   2.298 -1.4692  1.8201  0.0141
  268SOL     OW  802   0.411   0.861   2.953  0.1760  0.6000  0.1418
  268SOL    HW1  803   0.448   0.901   2.866 -0.3806 -1.7448 -1.1056
  268SOL    HW2  804   0.412   0.927   3.027  1.1099 -1.3328 -0.2514
  269SOL     OW  805   2.321   2.643   2.370  0.0763 -0.0182  0.0215
  269SOL    HW1  806   2.324   2.720   2.436  1.7323 -2.3093  0.4092
  269SOL    HW2  807   2.253   2.573   2.403 -1.5150  0.3240  0.1531
  270SOL     OW  808   1.461   1.468   2.662  0.0030  0.1068  0.0863
  270SOL    HW1  809   1.486   1.565   2.669 -0.1129 -0.4433 -1.2775
  270SOL    HW2  810   1.544   1.410   2.645  0.8174 -0.8130 -1.1995
  271SOL     OW  811   0.363   0.030   2.935  0.2957 -0.4694  0.3778
  271SOL    HW1  812   0.356   3.027   2.904 -0.6837  1.4004  0.7316
  271SOL    HW2  813   0.269   0.066   2.947  1.6841 -1.1721  1.8556
  272SOL     OW  814   2.827   0.536   0.352  0.4309  0.2664  0.1044
  272SOL    HW1  815   2.870   0.533   0.443 -0.4974  0.8754 -1.2911
  272SOL    HW2  816   2.767   0.619   0.356 -0.6310 -0.0482  0.3873
  273SOL     OW  817   0.371   3.071   1.924 -0.0254 -0.3493 -0.5750
  273SOL    HW1  818   0.381   3.065   2.028  2.5623  0.0578  1.7271
  273SOL    HW2  819   0.303   3.009   1.888  1.0974 -0.0738  1.5151
  274SOL     OW  820   0.230   0.668   1.873 -0.3028  0.1278  0.4158
  274SOL    HW1  821   0.142   0.700   1.911  0.3341  0.4940 -1.3468
  274SOL    HW2  822   0.212   0.596   1.807  1.4986 -0.2633  1.1888
  275SOL     OW  823   1.119   1.696   0.571 -0.3125 -0.2215  0.0041
  275SOL    HW1  824   1.142   1.633   0.492 -2.6423 -0.7367 -3.4129
  275SOL    HW2  825   1.172   1.786   0.574 -0.0853  2.4931  1.7739
  276SOL     OW  826   0.822   0.664   1.964  0.2554  0.0232  0.0089
  276SOL    HW1  827   0.818   0.661   2.064  0.8567  0.1397 -3.9358
  276SOL    HW2  828   0.728   0.687   1.931  0.6421 -1.5779 -0.6241
  277SOL     OW  829   1.210   2.533   1.860  0.4603  0.2846  0.8062
  277SOL    HW1  830   1.158   2.530   1.768 -2.8904  2.1841 -4.2616
  277SOL    HW2  831   1.216   2.445   1.905  1.8251  1.0557 -2.9721
  278SOL     OW  832   1.859   2.779   1.891  0.6650  0.3209 -0.5329
  278SOL    HW1  833   1.782   2.773   1.955 -0.8181  0.2070  0.5299
  278SOL    HW2  834   1.934   2.841   1.922 -0.8392  0.3548 -0.5785
  279SOL     OW  835   1.206   1.540   0.168  0.4431  0.0666  0.0140
  279SOL    HW1  836   1.188   1.564   0.070  1.6537  2.8647 -2.1058
  279SOL    HW2  837   1.243   1.442   0.183 -0.1625 -1.7326  2.1736
  280SOL     OW  838   0.710   1.578   0.043 -0.1820 -0.7232 -0.3043
  280SOL    HW1  839   0.796   1.618   0.083 -0.3229 -1.2129  1.4064
  280SOL    HW2  840   0.669   1.513   0.108 -0.6220  0.5819 -1.1303
  281SOL     OW  841   0.520   0.038   1.437 -0.1198  0.7994 -0.6306
  281SOL    HW1  842   0.504   0.066   1.535  0.9556 -1.4799 -1.3828
  281SOL    HW2  843   0.570   0.108   1.385 -2.4302 -0.1587  2.2473
  282SOL     OW  844   0.197   2.449   0.636 -0.4622  0.1135 -0.5140
  282SOL    HW1  845   0.138   2.532   0.640 -1.4834 -1.3113  1.7115
  282SOL    HW2  846   0.155   2.369   0.589 -0.4883 -2.1301 -0.7071
  283SOL     OW  847   1.854   2.154   2.293 -0.8066  0.4223 -0.1165
  283SOL    HW1  848   1.921   2.170   2.221 -0.1617  3.0333  0.5731
  283SOL    HW2  849   1.790   2.079   2.274  1.3477 -3.3250  1.5052
  284SOL     OW  850   2.057   2.968   0.729 -0.2719  0.0558  0.7617
  284SOL    HW1  851   2.016   3.063   0.733  0.6653  2.7753 -0.5922
  284SOL    HW2  852   2.001   2.909   0.791 -0.1101 -1.2626 -2.1633
  285SOL     OW  853   0.221   2.351   2.424  0.1928  0.2509  0.0784
  285SOL    HW1  854   0.316   2.341   2.385 -0.1971 -0.2765  3.6715
  285SOL    HW2  855   0.216   2.414   2.501  1.2512  0.3545  0.1173
  286SOL     OW  856   3.007   2.876   0.858  0.2749 -0.0563 -0.0923
  286SOL    HW1  857   2.915   2.895   0.833  0.4999 -2.4749  1.1686
  286SOL    HW2  858   2.994   2.789   0.911 -2.8337 -0.5365 -2.0966
  287SOL     OW  859   0.696   1.562   0.679  0.6527 -0.1707  0.0090
  287SOL    HW1  860   0.621   1.590   0.746 -2.5038 -2.0656 -0.5662
  287SOL    HW2  861   0.792   1.591   0.707  1.5107  0.4370  1.4700
  288SOL     OW  862   2.311   2.184   2.574  0.3939 -0.1547  0.1805
  288SOL    HW1  863   2.411   2.167   2.567  0.6292 -0.8674  1.0701
  288SOL    HW2  864   2.263   2.172   2.480 -2.6595  0.9378 -1.1712
  289SOL     OW  865   3.083   2.038   2.830 -0.0571 -0.3354  0.8507
  289SOL    HW1  866   2.998   2.053   2.882 -1.0933  0.3253  0.2778
  289SOL    HW2  867   3.084   1.945   2.792 -2.4449  0.9340  0.8182
  290SOL     OW  868   1.342   1.814   1.371 -0.1221  0.0541 -0.5459
  290SOL    HW1  869   1.422   1.796   1.309  3.3582  0.2906 -0.2455
  290SOL    HW2  870   1.267   1.859   1.318  0.0067  1.1376 -3.2056
  291SOL     OW  871   1.400   1.193   3.058  0.2536 -0.5713  0.4569
  291SOL    HW1  872   1.385   1.256   2.978  2.6230 -0.2892  0.9406
  291SOL    HW2  873   1.346   1.110   3.038  0.5386 -1.0734 -1.9546
  292SOL     OW  874   0.940   1.604   0.223  0.5652 -0.1633 -0.2988
  292SOL    HW1  875   0.907   1.565   0.312  0.2917  0.7989  0.1187
  292SOL    HW2  876   1.038   1.589   0.209  0.0404  1.7524  0.8503
  293SOL     OW  877   1.463   2.705   1.047 -0.1669  0.5261  0.5694
  293SOL    HW1  878   1.463   2.690   1.148  2.0186  0.1304 -0.1963
  293SOL    HW2  879   1.498   2.801   1.033  1.8700  0.6334 -3.8551
  294SOL     OW  880   2.196   1.371   2.857  0.4179  0.4867  0.0245
  294SOL    HW1  881   2.212   1.270   2.852  0.1051  0.6189  1.8761
  294SOL    HW2  882   2.187   1.407   2.949  0.5707 -1.5888 -1.6367
  295SOL     OW  883   1.958   2.013   2.962 -0.1922 -0.0481 -0.0892
  295SOL    HW1  884   1.913   1.973   3.041  1.7694  1.3017  0.0016
  295SOL    HW2  885   1.913   2.098   2.928 -2.4582 -1.3900  0.8499
  296SOL     OW  886   1.888   0.572   1.889  0.2367 -0.0370 -0.3311
  296SOL    HW1  887   1.856   0.524   1.970  0.1097  1.5608 -1.6231
  296SOL    HW2  888   1.936   0.657   1.906 -0.7781  0.7875 -2.7274
  297SOL     OW  889   3.090   0.769   2.039  0.1532 -0.6593  0.0347
  297SOL    HW1  890   3.010   0.741   1.984 -0.3643  3.1024  1.9646
  297SOL    HW2  891   3.086   0.866   2.072  2.2252  1.4577  1.4321
  298SOL     OW  892   1.184   1.876   2.254  0.1989  0.0246  0.1011
  298SOL    HW1  893   1.258   1.884   2.180 -0.9646  0.1614 -0.0267
  298SOL    HW2  894   1.180   1.784   2.301  0.4868 -1.3784  0.2526
  299SOL     OW  895   1.130   0.055   2.695  0.2190  0.0783 -0.3945
  299SOL    HW1  896   1.170   0.035   2.598  3.0930  1.4069 -1.7888
  299SOL    HW2  897   1.042   0.013   2.712  2.7740 -0.1388 -1.4647
  300SOL     OW  898   0.067   0.985   3.035 -0.4872 -0.2303 -0.0383
  300SOL    HW1  899   0.106   0.967   0.035 -1.5052 -0.1714 -0.9664
  300SOL    HW2  900   0.143   1.024   2.984 -2.9824 -0.8454  2.5074
  301SOL     OW  901   1.876   0.845   2.526  0.1797 -0.2783  0.3576
  301SOL    HW1  902   1.788   0.796   2.543 -0.2213  0.0721  0.7727
  301SOL    HW2  903   1.850   0.941   2.500 -2.4376  2.0837  1.4565
  302SOL     OW  904   2.565   1.646   2.688  0.4820 -0.3861  0.4414
  302SOL    HW1  905   2.535   1.570   2.626 -1.2854 -0.5678 -0.8068
  302SOL    HW2  906   2.491   1.719   2.679 -0.5136 -0.6737 -0.7235
  303SOL     OW  907   0.501   2.383   2.579  0.3996 -0.0935  0.1972
  303SOL    HW1  908   0.574   2.450   2.574  0.6587 -0.7285 -0.4806
  303SOL    HW2  909   0.507   2.328   2.495 -0.1009 -0.2888  0.9673
  304SOL     OW  910   3.050   0.971   1.131  0.0742 -0.0852  0.3480
  304SOL    HW1  911   3.034   1.072   1.142 -1.4584 -1.0610  2.5138
  304SOL    HW2  912   0.035   0.943   1.189 -0.3624 -0.0904  2.1253
  305SOL     OW  913   2.644   0.779   1.904  0.0364 -0.6546 -0.3063
  305SOL    HW1  914   2.578   0.723   1.952  1.7336  0.9049  0.3484
  305SOL    HW2  915   2.639   0.876   1.943 -0.8270  1.5829 -2.0321
  306SOL     OW  916   2.249   1.171   1.773 -0.2219  0.2587 -0.7584
  306SOL    HW1  917   2.194   1.216   1.703  3.5516  0.0956  2.5201
  306SOL    HW2  918   2.329   1.226   1.800 -4.2084  0.0276 -0.4409
  307SOL     OW  919   2.741   0.040   0.986  0.0487 -0.2135 -0.5823
  307SOL    HW1  920   2.681   3.058   0.996  0.0667  4.0796  1.1412
  307SOL    HW2  921   2.798   0.060   1.072 -1.0018  0.5677 -0.8792
  308SOL     OW  922   0.298   1.920   1.830  0.4758  0.1098 -0.2052
  308SOL    HW1  923   0.283   1.943   1.928  1.2963  1.3542  0.7064
  308SOL    HW2  924   0.243   1.838   1.799 -1.4564  0.5421 -2.0463
  309SOL     OW  925   2.506   2.253   1.436 -0.3308 -0.5583 -0.1377
  309SOL    HW1  926   2.535   2.206   1.523 -2.0878 -1.8622  0.1132
  309SOL    HW2  927   2.404   2.249   1.422  1.8705 -1.4299  0.4622
  310SOL     OW  928   2.065   1.503   2.670  0.1499 -0.5269 -0.1328
  310SOL    HW1  929   2.023   1.584   2.719  0.7514 -3.1584 -4.6814
  310SOL    HW2  930   2.131   1.458   2.736 -0.5268 -1.1589 -2.4721
  311SOL     OW  931   1.680   1.318   3.029 -0.4399  0.1865  0.4412
  311SOL    HW1  932   1.601   1.271   3.056  1.0024  1.1302  0.4015
  311SOL    HW2  933   1.728   1.268   2.952 -0.2896  0.7643  1.3740
  312SOL     OW  934   1.348   2.297   2.367 -0.0954 -0.1519 -0.0241
  312SOL    HW1  935   1.397   2.218   2.413 -1.2103 -1.9543  1.5670
  312SOL    HW2  936   1.246   2.292   2.372  0.2660 -0.4250  0.1426
  313SOL     OW  937   0.318   0.231   0.863 -0.0184 -0.3859  0.0055
  313SOL    HW1  938   0.222   0.203   0.838 -1.9900  0.9191  0.7107
  313SOL    HW2  939   0.336   0.222   0.964  0.1782  0.8082  0.9568
  314SOL     OW  940   0.457   1.907   1.105 -0.0038 -0.7443 -0.1950
  314SOL    HW1  941   0.387   1.965   1.153 -1.5240  1.2077 -1.9648
  314SOL    HW2  942   0.431   1.813   1.135 -1.3656  0.4167  0.1783
  315SOL     OW  943   0.500   2.075   2.061  0.9483 -0.3089  0.4823
  315SOL    HW1  944   0.528   1.992   2.111 -0.3993  2.5777  0.5416
  315SOL    HW2  945   0.397   2.086   2.064 -2.8172  2.1932  1.3288
  316SOL     OW  946   0.284   2.380   0.900  0.6695 -0.0561 -0.0392
  316SOL    HW1  947   0.258   2.281   0.900  0.5071 -0.4407 -0.1074
  316SOL    HW2  948   0.269   2.424   0.810  0.0238 -0.1962 -1.0604
  317SOL     OW  949   1.994   0.154   1.011 -0.1223 -0.6795 -0.4262
  317SOL    HW1  950   1.953   0.160   0.916 -2.5097  1.1699  0.6126
  317SOL    HW2  951   2.081   0.205   1.023  0.0331  0.0771 -1.0541
  318SOL     OW  952   2.243   2.266   0.251  0.6185 -0.3017 -0.0454
  318SOL    HW1  953   2.215   2.224   0.161 -1.1846 -1.9549 -0.7047
  318SOL    HW2  954   2.322   2.214   0.290  0.8203 -0.8315  0.3953
  319SOL     OW  955   1.213   1.909   2.947  0.2757 -0.0910  0.0010
  319SOL    HW1  956   1.213   1.949   3.041  0.8631 -3.3842  0.0543
  319SOL    HW2  957   1.305   1.893   2.906 -0.3825  1.1818 -1.5864
  320SOL     OW  958   0.512   2.696   2.339 -0.9905 -0.3104 -0.1732
  320SOL    HW1  959   0.608   2.730   2.333  1.0451 -0.3682  0.0192
  320SOL    HW2  960   0.492   2.648   2.255  4.0929 -1.2439  0.2576
  321SOL     OW  961   1.046   2.520   2.760  0.5504  0.2101  0.0649
  321SOL    HW1  962   1.118   2.544   2.692 -0.4293  0.3193 -2.2499
  321SOL    HW2  963   1.062   2.423   2.778 -2.5151  2.4626 -1.5820
  322SOL     OW  964   2.430   0.418   2.379  0.0771  0.6868  0.4206
  322SOL    HW1  965   2.402   0.378   2.467 -2.1829  0.8828 -1.8594
  322SOL    HW2  966   2.524   0.458   2.382  0.4091  0.9786  0.8933
  323SOL     OW  967   2.913   1.167   0.752 -0.6055 -0.6130 -0.4428
  323SOL    HW1  968   2.842   1.134   0.824 -3.0987 -3.4025  3.3125
  323SOL    HW2  969   3.000   1.112   0.762  0.3397  0.3672  0.7679
  324SOL     OW  970   0.416   0.892   1.806  0.2870  0.1322 -0.5544
  324SOL    HW1  971   0.342   0.821   1.817  1.6823 -3.9991 -3.6016
  324SOL    HW2  972   0.378   0.988   1.802 -1.0858  0.7215  1.4632
  325SOL     OW  973   0.484   0.304   2.075 -0.1422  0.3487  0.0122
  325SOL    HW1  974   0.518   0.388   2.124  2.6355 -0.3275  0.5570
  325SOL    HW2  975   0.434   0.238   2.136 -1.3342 -1.4185 -1.1081
  326SOL     OW  976   2.225   2.551   0.237  0.1825  0.0115 -0.0169
  326SOL    HW1  977   2.145   2.590   0.283 -0.5884  1.4695  2.0601
  326SOL    HW2  978   2.257   2.459   0.273  2.3036  1.1791 -0.6212
  327SOL     OW  979   2.187   1.384   0.679  0.3596 -0.0148  0.6591
  327SOL    HW1  980   2.279   1.375   0.711 -3.8756  0.8643 -0.7227
  327SOL    HW2  981   2.178   1.306   0.612  1.1033 -3.9912 -1.0216
  328SOL     OW  982   2.931   1.761   2.341 -0.1374 -0.3316  0.7498
  328SOL    HW1  983   2.902   1.725   2.431  0.0770 -1.6741  1.8874
  328SOL    HW2  984   3.020   1.808   2.348  0.3514 -1.0271  0.5225
  329SOL     OW  985   0.349   1.830   1.447 -0.8815 -0.6602 -0.4143
  329SOL    HW1  986   0.326   1.859   1.353 -3.3286  0.2931 -0.5817
  329SOL    HW2  987   0.369   1.911   1.505 -0.5117 -0.3238 -0.4270
  330SOL     OW  988   2.284   1.386   2.543 -0.3674 -0.5303 -0.1566
  330SOL    HW1  989   2.232   1.398   2.631  2.5737  0.4831 -2.2229
  330SOL    HW2  990   2.251   1.303   2.498 -0.1760  2.0602 -0.4135
  331SOL     OW  991   2.239   2.610   0.939  0.0147  0.5996  0.1408
  331SOL    HW1  992   2.139   2.615   0.968 -3.3431  0.8736 -0.5554
  331SOL    HW2  993   2.239   2.608   0.837  1.4169 -2.0732 -2.3996
  332SOL     OW  994   0.404   2.979   0.791  0.5509 -0.1359 -0.5832
  332SOL    HW1  995   0.309   2.978   0.829 -0.1920  0.0560  0.9465
  332SOL    HW2  996   0.446   2.886   0.779 -0.0860  2.0687 -1.4818
  333SOL     OW  997   2.238   2.142   2.306  0.1160  0.6201  0.4925
  333SOL    HW1  998   2.326   2.194   2.284  1.1132  0.9018  0.7999
  333SOL    HW2  999   2.174   2.131   2.226 -2.2577  0.2146  0.8486
  334SOL     OW 1000   0.570   1.167   0.503 -0.3639  0.0590  0.0465
  334SOL    HW1 1001   0.536   1.115   0.586 -0.5084  1.7363 -0.4807
  334SOL    HW2 1002   0.670   1.151   0.488  1.2519  0.7688  0.5017
  335SOL     OW 1003   2.908   1.844   2.090  0.6330 -0.2961 -0.4266
  335SOL    HW1 1004   2.922   1.821   2.188  0.6202  1.0485 -0.5506
  335SOL    HW2 1005   2.922   1.764   2.026  0.0257 -1.2234  0.8269
  336SOL     OW 1006   2.467   2.624   2.118 -0.7018 -0.0153 -0.4481
  336SOL    HW1 1007   2.405   2.613   2.039  0.9417 -3.3764 -2.2212
  336SOL    HW2 1008   2.415   2.639   2.204  1.0615  0.9945  0.8001
  337SOL     OW 1009   0.763   1.080   0.846  0.7976  0.0882  0.1082
  337SOL    HW1 1010   0.861   1.056   0.841  0.4035 -0.5998 -0.5837
  337SOL    HW2 1011   0.755   1.179   0.852 -0.2076 -1.9846  0.4429
  338SOL     OW 1012   1.072   1.682   1.124 -0.7079  0.1715  0.2804
  338SOL    HW1 1013   1.120   1.598   1.159  2.2515 -1.6172  2.7394
  338SOL    HW2 1014   0.974   1.662   1.090  0.2265 -0.2265  0.4914
  339SOL     OW 1015   0.191   1.711   1.645 -0.5851 -0.2559  0.1333
  339SOL    HW1 1016   0.239   1.618   1.643  2.0445 -2.4500 -0.0548
  339SOL    HW2 1017   0.228   1.773   1.580 -2.0394 -3.8207  1.2784
  340SOL     OW 1018   1.117   2.868   1.606  0.0492 -0.0666  0.2105
  340SOL    HW1 1019   1.210   2.896   1.631 -2.8434 -1.9047  1.3004
  340SOL    HW2 1020   1.056   2.900   1.678  1.4011 -2.4487 -1.7376
  341SOL     OW 1021   1.515   1.757   1.159 -0.1668  0.5739 -0.4558
  341SOL    HW1 1022   1.460   1.738   1.075  1.2727 -1.7779  4.3005
  341SOL    HW2 1023   1.594   1.818   1.132 -3.1770 -0.8225  2.8033
  342SOL     OW 1024   2.495   1.299   1.112 -0.6320  0.1272  0.2062
  342SOL    HW1 1025   2.585   1.333   1.085 -2.6452  0.5969  1.7911
  342SOL    HW2 1026   2.420   1.368   1.101 -1.8289 -0.3941 -3.0712
  343SOL     OW 1027   2.619   0.527   1.420 -0.2061  0.2428 -0.0167
  343SOL    HW1 1028   2.604   0.565   1.514  1.6874 -2.2625 -1.1319
  343SOL    HW2 1029   2.556   0.569   1.348 -0.9302  3.0772 -0.4616
  344SOL     OW 1030   1.933   0.117   0.737 -0.1353  0.6037 -0.3536
  344SOL    HW1 1031   1.844   0.127   0.692 -0.2419 -0.8588  1.3637
  344SOL    HW2 1032   2.008   0.167   0.687 -1.5799  1.8440  0.8303
  345SOL     OW 1033   0.795   2.999   2.291  0.0929  0.3780 -0.3462
  345SOL    HW1 1034   0.726   3.074   2.306  1.8385 -1.9415 -1.0121
  345SOL    HW2 1035   0.802   2.987   2.192 -0.1171 -0.4591  1.7381
  346SOL     OW 1036   2.719   2.047   0.777  0.6374  0.2634  0.0316
  346SOL    HW1 1037   2.675   2.130   0.808  0.8658  0.6110  2.1406
  346SOL    HW2 1038   2.653   1.974   0.744  0.9193 -2.0992  0.2080
  347SOL     OW 1039   1.943   3.091   1.462 -0.4763 -0.2500  0.1723
  347SOL    HW1 1040   2.002   0.070   1.499  1.6374  0.4289 -0.0173
  347SOL    HW2 1041   1.887   3.051   1.535  0.5260  1.0148 -2.2554
  348SOL     OW 1042   0.959   1.136   1.585  0.1936 -0.1054 -0.1100
  348SOL    HW1 1043   0.940   1.074   1.663 -0.6365  0.3560 -2.5505
  348SOL    HW2 1044   0.873   1.180   1.560 -0.6666 -2.1112  0.3412
  349SOL     OW 1045   2.233   0.519   1.690 -0.7246  0.0463 -0.1349
  349SOL    HW1 1046   2.172   0.459   1.742  1.4974  0.4592 -0.2899
  349SOL    HW2 1047   2.285   0.466   1.624 -0.6363  1.2199  0.5382
  350SOL     OW 1048   2.053   2.300   0.417  0.2056  0.1809  0.4338
  350SOL    HW1 1049   2.045   2.403   0.420 -1.4610  1.3407  2.5665
  350SOL    HW2 1050   2.125   2.272   0.350  2.7559  0.8779  0.7193
  351SOL     OW 1051   1.034   0.372   2.500  0.2236 -0.1206  0.8189
  351SOL    HW1 1052   0.956   0.302   2.505 -3.5734 -1.1454 -1.6632
  351SOL    HW2 1053   1.050   0.426   2.589 -1.9796  0.2158  1.6319
  352SOL     OW 1054   2.217   2.607   1.941  0.2009  0.1668  0.3457
  352SOL    HW1 1055   2.233   2.549   2.019  0.4983  2.2769 -2.3822
  352SOL    HW2 1056   2.129   2.581   1.896 -0.0214  2.6870 -0.1091
  353SOL     OW 1057   0.605   0.824   2.518  0.1423  0.9620  0.0542
  353SOL    HW1 1058   0.531   0.820   2.448  0.4999 -0.6805 -0.3584
  353SOL    HW2 1059   0.653   0.737   2.532  0.2970  1.0421 -0.6654
  354SOL     OW 1060   0.459   2.671   2.617 -0.5957  0.0099  0.8680
  354SOL    HW1 1061   0.466   2.706   2.521 -1.5392 -0.5220 -0.0142
  354SOL    HW2 1062   0.378   2.609   2.622  2.5986  0.0372 -0.4581
  355SOL     OW 1063   2.010   2.647   1.065  0.0586 -0.2694  0.1317
  355SOL    HW1 1064   2.019   2.708   1.146  3.6755  1.8115 -1.0724
  355SOL    HW2 1065   1.914   2.617   1.038  0.8476 -0.3598 -1.2944
  356SOL     OW 1066   2.587   0.741   0.341 -0.3293 -0.3005 -0.3936
  356SOL    HW1 1067   2.600   0.838   0.306  0.7874 -1.2835 -1.1776
  356SOL    HW2 1068   2.513   0.726   0.405  3.9453  0.0051  0.9393
  357SOL     OW 1069   0.033   0.198   1.731 -0.1431 -0.0291  0.1737
  357SOL    HW1 1070   0.091   0.265   1.783  0.0875  2.7184  0.6296
  357SOL    HW2 1071   0.004   0.129   1.800 -0.1323  1.4792 -0.3371
  358SOL     OW 1072   3.041   1.459   1.179  0.0851 -0.0326  0.2220
  358SOL    HW1 1073   3.026   1.441   1.076 -1.4578 -1.9955  0.7887
  358SOL    HW2 1074   2.963   1.436   1.242 -1.8817  0.5376  1.1895
  359SOL     OW 1075   2.745   0.183   2.866  0.0840  0.1863 -0.0277
  359SOL    HW1 1076   2.835   0.146   2.830  0.0411 -1.3411 -1.1667
  359SOL    HW2 1077   2.731   0.166   2.968  0.6331  0.2693  3.7494
  360SOL     OW 1078   1.208   0.954   1.073 -0.5396  0.4548  0.0992
  360SOL    HW1 1079   1.307   0.972   1.070 -0.1979 -1.2865 -0.1282
  360SOL    HW2 1080   1.188   0.892   1.151  0.9418 -0.4160 -0.1567
  361SOL     OW 1081   2.691   2.748   1.283  0.2448  0.2669 -0.0215
  361SOL    HW1 1082   2.781   2.739   1.333  0.8837  2.5297 -2.0184
  361SOL    HW2 1083   2.640   2.660   1.273  1.5115 -0.3575 -0.4332
  362SOL     OW 1084   1.287   0.137   1.020  0.3162  0.3889 -0.4938
  362SOL    HW1 1085   1.370   0.194   1.050 -0.7198 -0.0986 -0.5841
  362SOL    HW2 1086   1.316   0.059   0.959  2.1101 -2.4268 -2.1681
  363SOL     OW 1087   1.893   1.479   0.705 -0.3564 -0.2535  0.0439
  363SOL    HW1 1088   1.987   1.443   0.690  0.3902 -1.3334  0.5342
  363SOL    HW2 1089   1.824   1.415   0.671  0.8058 -0.2772 -1.9993
  364SOL     OW 1090   0.848   0.724   1.617 -0.6908 -0.4796  0.0116
  364SOL    HW1 1091   0.943   0.680   1.601  2.5854 -2.0632 -3.1949
  364SOL    HW2 1092   0.806   0.735   1.526  0.8208 -0.5346  0.7183
  365SOL     OW 1093   0.035   0.253   1.080 -0.3068  0.7298  0.0604
  365SOL    HW1 1094   0.113   0.184   1.092  1.5096 -1.1186 -1.1152
  365SOL    HW2 1095   0.066   0.348   1.100  0.2056  0.9410  3.1238
  366SOL     OW 1096   3.017   1.005   0.455  0.2769 -0.1390 -0.0565
  366SOL    HW1 1097   2.918   1.010   0.472 -0.1622  2.6826  0.7380
  366SOL    HW2 1098   3.055   1.103   0.460 -0.0925  2.2225  0.5351
  367SOL     OW 1099   2.228   1.879   2.369  0.1609 -0.0446 -0.2837
  367SOL    HW1 1100   2.147   1.846   2.422 -0.6595  0.0440  0.7654
  367SOL    HW2 1101   2.244   1.982   2.377  0.4068  1.3785 -1.1157
  368SOL     OW 1102   2.388   1.819   0.923  0.0732 -0.0451 -0.2636
  368SOL    HW1 1103   2.453   1.763   0.974  0.1849  2.0523 -1.5284
  368SOL    HW2 1104   2.300   1.765   0.904 -1.2002 -0.3647  0.2141
  369SOL     OW 1105   2.115   0.320   2.854 -0.2317 -0.4453 -0.5823
  369SOL    HW1 1106   2.027   0.369   2.867  1.1851  1.2943  0.8400
  369SOL    HW2 1107   2.170   0.308   2.939  0.7790 -0.9737 -0.0627
  370SOL     OW 1108   0.766   0.375   1.105  0.2843  0.0360 -0.0185
  370SOL    HW1 1109   0.793   0.290   1.053 -1.8867  1.8572 -2.1664
  370SOL    HW2 1110   0.721   0.429   1.030  0.1130 -2.0392 -2.1991
  371SOL     OW 1111   0.124   1.768   0.170  0.3367  0.3409 -0.1291
  371SOL    HW1 1112   0.177   1.710   0.110 -0.9134  1.3503 -0.9618
  371SOL    HW2 1113   0.165   1.860   0.175 -2.8164 -0.4186 -0.5985
  372SOL     OW 1114   0.832   0.672   2.245  0.1044 -0.2206  0.1977
  372SOL    HW1 1115   0.864   0.575   2.266  0.8269 -0.3835 -1.1947
  372SOL    HW2 1116   0.889   0.741   2.296  2.6865 -3.1237 -0.7886
  373SOL     OW 1117   1.004   2.893   2.914 -0.1664 -0.1058 -0.2601
  373SOL    HW1 1118   0.997   2.974   2.975  0.7854 -1.4681  0.1535
  373SOL    HW2 1119   0.955   2.921   2.830 -1.1822  1.3320  0.6078
  374SOL     OW 1120   0.908   1.845   0.345  0.4709  0.1281 -0.6837
  374SOL    HW1 1121   0.979   1.896   0.396  1.3225 -1.3864  0.5306
  374SOL    HW2 1122   0.932   1.749   0.341  2.1707  0.0329  1.9617
  375SOL     OW 1123   1.106   0.667   1.891  0.3878 -0.0397 -0.1485
  375SOL    HW1 1124   1.015   0.698   1.919  2.3690  1.5994 -0.4971
  375SOL    HW2 1125   1.178   0.709   1.947  0.7010  0.2033  0.4719
  376SOL     OW 1126   2.930   2.735   1.884  0.5906  0.2039  0.2444
  376SOL    HW1 1127   2.879   2.716   1.973 -0.3786  1.6822 -2.6821
  376SOL    HW2 1128   3.024   2.768   1.900  1.1706 -0.7165  4.8269
  377SOL     OW 1129   2.618   1.641   2.934  0.0784 -0.2064 -0.1552
  377SOL    HW1 1130   2.602   1.623   2.831 -0.7912 -2.0873 -3.1526
  377SOL    HW2 1131   2.584   1.556   2.978 -1.5911  1.9579  1.9621
  378SOL     OW 1132   2.324   0.261   3.057 -0.1214  0.0228 -0.0916
  378SOL    HW1 1133   2.326   0.169   0.002  2.8404  0.6074 -2.8557
  378SOL    HW2 1134   2.318   0.338   0.032 -1.2780  0.3536  1.4263
  379SOL     OW 1135   1.704   0.792   0.644  0.3121 -0.3069 -0.4736
  379SOL    HW1 1136   1.698   0.815   0.747  0.1030 -1.3040  0.7267
  379SOL    HW2 1137   1.740   0.697   0.637 -2.5741  2.7914 -1.0333
  380SOL     OW 1138   2.468   2.099   1.669 -0.0364  0.4167  0.9699
  380SOL    HW1 1139   2.417   2.173   1.714 -0.6615 -3.0319 -4.1733
  380SOL    HW2 1140   2.556   2.085   1.713 -0.8312  0.1654 -0.4156
  381SOL     OW 1141   2.544   1.444   2.522  0.3450  0.3487 -0.4725
  381SOL    HW1 1142   2.592   1.447   2.433  0.1435 -1.4569 -2.3218
  381SOL    HW2 1143   2.446   1.424   2.511  1.0188  0.3221  1.9219
  382SOL     OW 1144   2.828   2.596   2.536  0.7627  0.2559 -0.3092
  382SOL    HW1 1145   2.812   2.661   2.459 -1.0162 -1.4373 -0.2523
  382SOL    HW2 1146   2.765   2.515   2.521 -0.4339  3.1526 -0.3467
  383SOL     OW 1147   0.890   1.588   2.915  0.2940 -0.0527  0.1313
  383SOL    HW1 1148   0.896   1.687   2.905 -1.4291  1.7483 -1.1665
  383SOL    HW2 1149   0.799   1.561   2.952  0.1941  1.1309  1.9385
  384SOL     OW 1150   1.681   2.080   1.843  0.0319  0.6083 -0.3212
  384SOL    HW1 1151   1.770   2.030   1.868  0.9875 -0.2925  1.7226
  384SOL    HW2 1152   1.612   2.083   1.920  0.2222 -1.5303  1.1004
  385SOL     OW 1153   1.725   2.736   0.607 -0.3658 -0.0844 -0.3178
  385SOL    HW1 1154   1.728   2.804   0.685  2.2428  1.3820  1.6292
  385SOL    HW2 1155   1.766   2.777   0.524 -2.2871 -0.6124  0.7266
  386SOL     OW 1156   1.960   1.324   0.454  0.4825  0.1453 -0.1426
  386SOL    HW1 1157   1.970   1.392   0.382  0.0999 -0.0139  0.9653
  386SOL    HW2 1158   1.884   1.351   0.513  0.9694 -0.3305  1.4086
  387SOL     OW 1159   3.089   2.111   1.563  0.5433  0.3833 -0.1157
  387SOL    HW1 1160   3.036   2.078   1.647  2.7843 -1.3605 -1.5596
  387SOL    HW2 1161   3.043   2.200   1.528  1.7949 -0.7625 -3.6018
  388SOL     OW 1162   0.160   0.946   1.569 -0.3320  0.7721 -0.4180
  388SOL    HW1 1163   0.230   1.017   1.562  1.0158 -1.4582 -2.2103
  388SOL    HW2 1164   0.196   0.867   1.514  1.1854 -2.8898  0.9798
  389SOL     OW 1165   1.733   0.340   2.977  0.7137 -0.2681 -0.5131
  389SOL    HW1 1166   1.770   0.252   2.940 -1.6265 -1.0153  1.2007
  389SOL    HW2 1167   1.755   0.354   3.076 -1.7162  0.7602  3.2087
  390SOL     OW 1168   0.900   1.848   2.987 -0.3473 -0.3748 -0.0358
  390SOL    HW1 1169   0.840   1.853   3.071  0.5805 -1.1523  0.7789
  390SOL    HW2 1170   0.996   1.863   3.013  0.1956  0.0443  0.3760
  391SOL     OW 1171   1.248   2.291   0.179 -0.4760  0.5931  0.1655
  391SOL    HW1 1172   1.327   2.313   0.236  0.5474 -0.0843 -1.9626
  391SOL    HW2 1173   1.224   2.371   0.123  1.1864 -2.1677 -0.4490
  392SOL     OW 1174   0.005   2.495   2.221  0.1365 -0.5103  0.0628
  392SOL    HW1 1175   0.067   2.574   2.201  0.3414  3.2811  0.7779
  392SOL    HW2 1176   0.034   2.448   2.307  0.3584  0.7955 -1.5051
  393SOL     OW 1177   1.477   2.117   0.432  0.2948 -0.1032  0.3410
  393SOL    HW1 1178   1.533   2.090   0.513 -0.0157 -1.1946  0.9493
  393SOL    HW2 1179   1.504   2.076   0.344  2.0832  0.3665  1.1203
  394SOL     OW 1180   0.541   0.365   2.387 -0.5714 -0.8281  0.5288
  394SOL    HW1 1181   0.555   0.443   2.322  0.2771  0.3687  0.1464
  394SOL    HW2 1182   0.520   0.399   2.480  0.2744 -3.4833  1.0095
  395SOL     OW 1183   0.632   1.203   1.291  0.5675  0.0342  0.2423
  395SOL    HW1 1184   0.653   1.283   1.350 -1.0699 -3.2364 -1.4570
  395SOL    HW2 1185   0.576   1.229   1.208  0.0073  2.0312  1.1596
  396SOL     OW 1186   1.977   1.279   2.536  0.2217 -0.5170 -0.2398
  396SOL    HW1 1187   2.060   1.221   2.513  0.4465 -1.3285  0.4514
  396SOL    HW2 1188   1.995   1.361   2.595 -0.6370  1.6753  0.7899
  397SOL     OW 1189   0.622   0.378   0.088  0.4816 -0.6965  0.0687
  397SOL    HW1 1190   0.581   0.455   0.036  1.0038  0.0903  1.2793
  397SOL    HW2 1191   0.558   0.352   0.165 -0.0331  0.3032  0.2701
  398SOL     OW 1192   1.153   2.466   3.054  0.2415  0.5007 -0.2201
  398SOL    HW1 1193   1.066   2.420   3.022 -2.0522 -1.4560  2.1285
  398SOL    HW2 1194   1.129   2.538   0.029  1.6808 -1.8482 -0.4571
  399SOL     OW 1195   2.048   2.166   2.107 -0.0788 -0.4645 -1.0678
  399SOL    HW1 1196   2.039   2.067   2.100 -2.4874 -0.9687 -0.9350
  399SOL    HW2 1197   2.001   2.218   2.037  1.7410  0.9498 -0.6525
  400SOL     OW 1198   2.159   1.066   1.410  0.1228 -0.0057  0.7805
  400SOL    HW1 1199   2.074   1.123   1.426 -0.7382  3.7613  1.5091
  400SOL    HW2 1200   2.235   1.129   1.415 -2.0109 -1.5085 -1.5304
  401SOL     OW 1201   1.468   1.179   0.898 -0.4655  0.3187  0.1701
  401SOL    HW1 1202   1.380   1.221   0.923 -0.3434  2.8844  0.0301
  401SOL    HW2 1203   1.490   1.099   0.953 -1.8654 -0.2705  0.3456
  402SOL     OW 1204   3.021   2.906   2.368 -0.4507 -0.1906 -0.5542
  402SOL    HW1 1205   2.992   2.908   2.469 -2.8315  0.1678  0.2254
  402SOL    HW2 1206   0.029   2.898   2.361  0.1122  0.4431  0.1881
  403SOL     OW 1207   2.438   1.919   1.475  0.2169 -0.0417  0.0208
  403SOL    HW1 1208   2.464   1.979   1.552 -2.4837  0.2121  0.6818
  403SOL    HW2 1209   2.446   1.969   1.387 -1.6371  0.0125 -0.8999
  404SOL     OW 1210   2.034   1.672   1.473  0.3246  0.0003 -0.7205
  404SOL    HW1 1211   2.059   1.725   1.387  1.3289 -0.0209 -4.3832
  404SOL    HW2 1212   1.971   1.593   1.458 -1.0468 -0.4443  0.4988
  405SOL     OW 1213   2.624   0.426   2.748 -0.1343 -0.1013 -0.1502
  405SOL    HW1 1214   2.672   0.352   2.799 -1.5523  0.8784  0.1029
  405SOL    HW2 1215   2.696   0.492   2.727 -1.0937 -1.5745  3.1263
  406SOL     OW 1216   0.906   1.634   2.427 -0.2128  0.2762 -0.2357
  406SOL    HW1 1217   0.849   1.715   2.447  1.2871 -2.2257  0.2231
  406SOL    HW2 1218   0.877   1.549   2.474 -0.9483  1.2235  1.6936
  407SOL     OW 1219   1.989   2.586   0.389  0.4348  0.0672 -0.3331
  407SOL    HW1 1220   2.009   2.680   0.425 -0.6137  2.6900 -2.4846
  407SOL    HW2 1221   1.909   2.591   0.327  0.3539 -2.2236 -0.0640
  408SOL     OW 1222   0.142   3.006   0.916  0.3799  0.0174 -0.0789
  408SOL    HW1 1223   0.107   0.005   0.888 -3.2534  0.2136 -0.9263
  408SOL    HW2 1224   0.067   2.943   0.894  1.2513  2.7970  2.3460
  409SOL     OW 1225   2.189   1.641   0.824  0.1898 -0.2181  0.3848
  409SOL    HW1 1226   2.126   1.720   0.798  1.0804  1.0801 -1.5002
  409SOL    HW2 1227   2.167   1.554   0.771 -2.9278 -3.0554 -1.2527
  410SOL     OW 1228   2.272   2.416   2.727  0.2315 -0.2042 -0.0765
  410SOL    HW1 1229   2.315   2.407   2.817  0.7292 -2.8838 -0.5872
  410SOL    HW2 1230   2.277   2.325   2.681  0.3523 -1.3655 -1.9188
  411SOL     OW 1231   0.285   3.069   0.527  0.2146  0.0833 -0.4785
  411SOL    HW1 1232   0.365   3.066   0.462 -0.6444  0.8602 -2.4657
  411SOL    HW2 1233   0.311   3.046   0.623 -2.0367  1.5431 -0.2503
  412SOL     OW 1234   1.347   2.644   0.336  0.6250  0.5231  0.0909
  412SOL    HW1 1235   1.349   2.747   0.322 -0.6320 -1.5316  2.9037
  412SOL    HW2 1236   1.396   2.623   0.424 -2.0580  0.9743  0.1152
  413SOL     OW 1237   2.033   0.500   2.289  0.0706 -0.0718 -0.0126
  413SOL    HW1 1238   1.980   0.556   2.221  0.3815 -0.1690 -1.0080
  413SOL    HW2 1239   1.986   0.520   2.373 -1.2938 -2.2252  2.1173
  414SOL     OW 1240   0.074   0.461   0.505  0.1643 -0.2162  0.3876
  414SOL    HW1 1241   0.099   0.454   0.407 -2.5047  2.1654  2.7418
  414SOL    HW2 1242   0.155   0.487   0.560 -1.3695 -1.4144 -0.5699
  415SOL     OW 1243   0.166   1.301   1.474 -0.3850  0.4858 -0.1139
  415SOL    HW1 1244   0.179   1.258   1.382 -2.7785  0.1996  0.5460
  415SOL    HW2 1245   0.240   1.263   1.533  0.2650 -3.8385  1.6724
  416SOL     OW 1246   0.132   2.891   0.229 -0.7560  0.6510  0.6494
  416SOL    HW1 1247   0.192   2.954   0.179 -1.2551  0.9746 -0.4793
  416SOL    HW2 1248   0.185   2.843   0.301 -2.2499  0.7761 -1.7175
  417SOL     OW 1249   1.935   0.397   0.811  0.2657  0.0187  0.5451
  417SOL    HW1 1250   1.990   0.361   0.737 -0.4198  2.4836  1.5237
  417SOL    HW2 1251   1.993   0.447   0.879 -0.3875  2.4092 -2.1090
  418SOL     OW 1252   0.461   0.509   2.611  0.5596  0.5795  0.0508
  418SOL    HW1 1253   0.560   0.530   2.627 -0.7018 -2.2899 -0.1113
  418SOL    HW2 1254   0.401   0.588   2.635 -0.9355  1.9769  2.2482
  419SOL     OW 1255   0.493   1.009   0.715  0.1590  0.1301  0.4308
  419SOL    HW1 1256   0.483   0.912   0.688  0.5970  3.4767  0.7302
  419SOL    HW2 1257   0.564   1.016   0.788  0.3098  0.3409  3.0593
  420SOL     OW 1258   1.999   1.841   0.760  0.4199  0.2040 -0.5024
  420SOL    HW1 1259   1.963   1.926   0.721 -0.7705 -1.0269  0.5792
  420SOL    HW2 1260   1.949   1.814   0.848  1.2863  0.5432  2.4109
  421SOL     OW 1261   1.716   2.141   2.674 -0.2971 -0.3753  0.2454
  421SOL    HW1 1262   1.706   2.138   2.778 -0.3225  0.4047  0.5425
  421SOL    HW2 1263   1.622   2.130   2.632 -3.6814  0.0311 -1.3120
  422SOL     OW 1264   2.922   0.507   0.101 -0.6268  0.1716  0.5165
  422SOL    HW1 1265   2.865   0.570   0.046  0.8409 -2.4681  0.3087
  422SOL    HW2 1266   2.897   0.515   0.198  1.4985 -1.9002  1.4886
  423SOL     OW 1267   1.650   1.878   0.804  0.0093 -0.0825  0.4773
  423SOL    HW1 1268   1.685   1.874   0.900  1.3999 -0.8764 -0.7428
  423SOL    HW2 1269   1.705   1.812   0.745  1.8861 -1.5193  1.4613
  424SOL     OW 1270   0.384   1.242   1.635 -0.0560 -0.4332 -0.2929
  424SOL    HW1 1271   0.404   1.344   1.640  0.1751 -0.5479  1.4214
  424SOL    HW2 1272   0.349   1.211   1.726  1.4297  0.2534 -2.7579
  425SOL     OW 1273   2.572   2.671   1.734  0.3693  0.2932  0.0716
  425SOL    HW1 1274   2.535   2.575   1.745  1.8397  0.0733 -1.1294
  425SOL    HW2 1275   2.530   2.744   1.794 -1.3637  0.8271  0.5167
  426SOL     OW 1276   1.784   2.833   0.311  0.2094 -0.6922 -0.1253
  426SOL    HW1 1277   1.867   2.844   0.256 -2.7262 -0.4771 -0.2772
  426SOL    HW2 1278   1.750   2.740   0.323  0.2621  0.6602  1.5109
  427SOL     OW 1279   0.285   0.655   2.804 -0.1762  0.9818 -0.3683
  427SOL    HW1 1280   0.323   0.728   2.867 -1.1833  0.6533 -0.7975
  427SOL    HW2 1281   0.234   0.588   2.858  2.0175 -0.0272 -2.8684
  428SOL     OW 1282   2.044   0.922   0.010  0.2268  0.2732 -0.0825
  428SOL    HW1 1283   1.970   0.987   0.028  0.6022 -0.8271  1.3995
  428SOL    HW2 1284   2.072   0.934   3.010 -2.1319 -1.4032  0.7728
  429SOL     OW 1285   2.926   0.140   0.470  0.8958 -0.1494  0.1328
  429SOL    HW1 1286   2.884   0.066   0.513  0.0087  0.1734 -2.0031
  429SOL    HW2 1287   3.026   0.147   0.490  0.1099  0.5836  1.5559
  430SOL     OW 1288   1.257   3.005   1.854  0.0209  0.4991 -0.5246
  430SOL    HW1 1289   1.305   3.044   1.771 -2.0766 -1.1346  0.4692
  430SOL    HW2 1290   1.286   2.909   1.878  0.8283  0.6877  0.4672
  431SOL     OW 1291   0.077   1.821   1.217  0.3370  0.1219 -0.4434
  431SOL    HW1 1292   0.006   1.875   1.265  0.3835  1.9562  1.5406
  431SOL    HW2 1293   0.078   1.719   1.249 -1.0609 -1.8213 -1.1613
  432SOL     OW 1294   2.224   2.967   1.673 -0.0506  0.0372  0.6251
  432SOL    HW1 1295   2.203   3.045   1.737  0.1833  0.6335 -3.2700
  432SOL    HW2 1296   2.181   2.985   1.584  0.3531 -1.3675  0.1505
  433SOL     OW 1297   0.993   2.247   0.251 -0.6641  0.2627 -0.0439
  433SOL    HW1 1298   1.002   2.184   0.329  2.0642 -0.8284 -0.8422
  433SOL    HW2 1299   1.084   2.288   0.226  1.5923 -2.5618 -1.4006
  434SOL     OW 1300   2.818   2.283   2.336  0.0813 -0.3131 -0.2053
  434SOL    HW1 1301   2.904   2.290   2.386 -0.1920 -1.5022 -0.9902
  434SOL    HW2 1302   2.743   2.341   2.372  1.0240 -2.3213 -1.5764
  435SOL     OW 1303   0.435   0.772   0.600 -0.7520 -0.2458  0.2967
  435SOL    HW1 1304   0.344   0.732   0.581 -1.7886 -0.8789 -0.2559
  435SOL    HW2 1305   0.506   0.700   0.604 -0.2650 -0.6397  1.1403
  436SOL     OW 1306   0.389   2.547   1.796 -0.2093  0.5335  0.4674
  436SOL    HW1 1307   0.322   2.501   1.734 -1.3359 -0.7830  1.1602
  436SOL    HW2 1308   0.483   2.526   1.763  1.0059 -1.2661  3.4893
  437SOL     OW 1309   1.099   1.947   1.643  0.1362  0.1038 -0.0316
  437SOL    HW1 1310   1.126   2.044   1.656 -0.6285  0.2989  1.3819
  437SOL    HW2 1311   1.167   1.881   1.680 -1.2427 -1.8687  0.9183
  438SOL     OW 1312   0.078   2.209   0.540  0.2207 -0.4031  0.2431
  438SOL    HW1 1313   0.140   2.134   0.506 -0.5319 -0.5808 -0.6744
  438SOL    HW2 1314   3.080   2.174   0.562 -1.1518  0.4913  1.0949
  439SOL     OW 1315   0.277   0.126   1.124 -0.6354 -0.0076  0.0765
  439SOL    HW1 1316   0.304   0.028   1.136 -1.1021  2.2213  0.3542
  439SOL    HW2 1317   0.333   0.185   1.186 -1.2261 -0.6447 -0.2827
  440SOL     OW 1318   2.739   2.675   2.085 -0.0669 -0.0518 -0.2926
  440SOL    HW1 1319   2.789   2.585   2.069  0.5064 -0.9697  1.1762
  440SOL    HW2 1320   2.639   2.655   2.078  0.9393 -2.0385 -0.0246
  441SOL     OW 1321   3.048   0.567   1.700  0.0789  0.1000 -0.3682
  441SOL    HW1 1322   2.967   0.498   1.696 -1.2073 -2.4685  0.5403
  441SOL    HW2 1323   3.017   0.650   1.753 -0.6144 -1.2630 -2.4894
  442SOL     OW 1324   1.785   2.423   0.013  0.2273 -0.0698 -0.2871
  442SOL    HW1 1325   1.864   2.484   0.038 -1.2828 -1.0862 -0.4753
  442SOL    HW2 1326   1.688   2.456   0.028 -1.6145 -0.2718 -2.5983
  443SOL     OW 1327   0.442   1.030   0.077  0.0456 -0.2285 -0.2215
  443SOL    HW1 1328   0.413   0.994   0.169 -0.1603 -0.3758 -0.8046
  443SOL    HW2 1329   0.405   1.125   0.070  0.1288 -0.8171 -0.5712
  444SOL     OW 1330   1.576   1.628   2.352  0.6950 -0.3430  0.3341
  444SOL    HW1 1331   1.655   1.568   2.375  2.8385 -0.0295  0.9012
  444SOL    HW2 1332   1.509   1.575   2.292 -2.0659  1.6931  0.7619
  445SOL     OW 1333   0.210   2.503   1.123 -0.4154 -0.2333  0.1567
  445SOL    HW1 1334   0.289   2.571   1.139  2.8600  0.4217 -0.6347
  445SOL    HW2 1335   0.247   2.445   1.048 -1.6317 -2.6212  0.0061
  446SOL     OW 1336   2.406   1.512   1.503  0.2203  0.6110  0.1327
  446SOL    HW1 1337   2.473   1.435   1.498 -0.3690 -0.3673 -2.6339
  446SOL    HW2 1338   2.364   1.535   1.415 -0.2968  1.3651  3.3382
  447SOL     OW 1339   0.180   0.662   0.102 -0.1744  0.1214  0.2130
  447SOL    HW1 1340   0.186   0.761   0.107  0.3706 -0.5677  1.1180
  447SOL    HW2 1341   0.127   0.630   0.018 -2.6562 -1.8828  0.3129
  448SOL     OW 1342   1.430   2.168   1.952  0.4717 -0.2192  0.6683
  448SOL    HW1 1343   1.421   2.169   1.849 -0.5516 -0.0911 -0.5219
  448SOL    HW2 1344   1.489   2.243   1.992  0.1345  1.8932  0.2187
  449SOL     OW 1345   1.104   1.132   0.362 -0.3883 -0.3271  0.0898
  449SOL    HW1 1346   1.046   1.091   0.286 -0.8982 -0.8241 -0.8050
  449SOL    HW2 1347   1.162   1.211   0.329 -0.3119  1.4334  0.1176
  450SOL     OW 1348   2.947   2.020   1.795  0.1038 -0.1902 -0.3116
  450SOL    HW1 1349   2.999   1.935   1.768  2.4047 -1.4229 -1.0463
  450SOL    HW2 1350   3.003   2.087   1.850 -1.1534 -2.7782  0.6966
  451SOL     OW 1351   2.855   1.240   2.773 -0.2182  0.6928  0.9677
  451SOL    HW1 1352   2.903   1.330   2.753  0.8828 -0.6834 -0.7174
  451SOL    HW2 1353   2.878   1.204   2.865 -0.2882  2.4397 -1.1195
  452SOL     OW 1354   1.512   0.702   1.056 -0.2388  0.3484  0.1345
  452SOL    HW1 1355   1.438   0.653   1.006 -0.9244  0.0557 -0.3093
  452SOL    HW2 1356   1.532   0.652   1.145 -0.7125  0.8243  3.1298
  453SOL     OW 1357   1.556   0.924   1.342 -0.0784 -0.4705  0.2803
  453SOL    HW1 1358   1.563   0.826   1.328 -0.0714  0.9091 -0.3133
  453SOL    HW2 1359   1.565   0.938   1.444 -0.7550 -0.1967  2.3927
  454SOL     OW 1360   3.081   0.791   0.626  0.1924  0.6759 -0.1501
  454SOL    HW1 1361   3.014   0.722   0.647  1.9680  3.5063 -0.2385
  454SOL    HW2 1362   3.042   0.861   0.564  2.3686  0.9249  0.7441
  455SOL     OW 1363   2.439   2.766   1.069  0.5408  0.0965  0.6617
  455SOL    HW1 1364   2.531   2.733   1.031  2.8604 -0.0943 -1.8483
  455SOL    HW2 1365   2.364   2.708   1.024 -1.3990  1.1266 -3.6357
  456SOL     OW 1366   0.394   2.683   1.162  0.3384  0.5422  0.4060
  456SOL    HW1 1367   0.409   2.668   1.262  0.9998  1.9629 -0.3042
  456SOL    HW2 1368   0.369   2.779   1.147  0.3533 -3.4292 -0.5211
  457SOL     OW 1369   1.694   0.133   0.629 -0.2815  0.3709 -0.0988
  457SOL    HW1 1370   1.616   0.073   0.598 -2.0194 -1.8198 -0.3730
  457SOL    HW2 1371   1.748   0.172   0.550  1.7523  2.3507 -0.3483
  458SOL     OW 1372   2.561   0.270   0.991  0.8164  0.1451 -0.3342
  458SOL    HW1 1373   2.528   0.218   0.912 -1.0083 -0.1924  0.5610
  458SOL    HW2 1374   2.603   0.218   1.063 -1.4754  1.2740 -3.5453
  459SOL     OW 1375   2.145   0.635   2.906  0.1607  0.4090 -0.3994
  459SOL    HW1 1376   2.120   0.697   2.831  0.5188 -0.0491  1.4350
  459SOL    HW2 1377   2.173   0.546   2.864 -0.2999 -0.5492 -1.6736
  460SOL     OW 1378   2.667   2.477   2.881  0.3083  0.1844 -0.0187
  460SOL    HW1 1379   2.619   2.503   2.797  0.6229 -0.1336 -0.2534
  460SOL    HW2 1380   2.735   2.552   2.897 -1.7311 -3.7364 -0.9607
  461SOL     OW 1381   0.646   1.830   0.407  0.2704 -0.7062 -0.5166
  461SOL    HW1 1382   0.745   1.837   0.381 -0.6214  1.4433  2.4849
  461SOL    HW2 1383   0.592   1.804   0.325  0.3152  0.5395 -0.5863
  462SOL     OW 1384   2.352   2.358   0.769  0.1469  0.0312 -0.6336
  462SOL    HW1 1385   2.354   2.359   0.871  1.7167 -3.2217 -0.9629
  462SOL    HW2 1386   2.342   2.449   0.726 -0.9955 -2.5419 -0.1035
  463SOL     OW 1387   2.945   0.565   0.580  0.0786 -0.5832 -0.2726
  463SOL    HW1 1388   2.886   0.518   0.646  2.8776  0.3545 -0.5808
  463SOL    HW2 1389   3.026   0.511   0.572 -1.8606  2.9543 -0.0367
  464SOL     OW 1390   1.237   2.906   0.605 -0.8617  0.3553 -0.2581
  464SOL    HW1 1391   1.143   2.946   0.593 -1.9078  0.6006  1.0324
  464SOL    HW2 1392   1.238   2.806   0.604 -0.0145  1.7282  2.8036
  465SOL     OW 1393   2.184   1.181   0.516  0.3969 -0.3803  0.0587
  465SOL    HW1 1394   2.145   1.121   0.588 -3.4513 -0.4876 -0.2063
  465SOL    HW2 1395   2.105   1.236   0.479 -0.7067 -0.9804 -2.0389
  466SOL     OW 1396   2.490   3.004   3.005 -0.1776  0.3723  0.7596
  466SOL    HW1 1397   2.464   3.079   2.939 -2.9373  0.8258  0.5569
  466SOL    HW2 1398   2.422   3.004   3.079 -0.0877  0.3216  2.0535
  467SOL     OW 1399   0.995   0.972   1.351 -0.2062  0.2883 -0.2135
  467SOL    HW1 1400   1.008   1.017   1.442 -0.3632  1.3029 -0.9266
  467SOL    HW2 1401   1.048   0.889   1.348 -2.0266  1.3442  3.8419
  468SOL     OW 1402   0.358   0.797   2.310 -0.0698 -0.0704 -0.8017
  468SOL    HW1 1403   0.327   0.732   2.236  1.5598  0.5773 -0.3658
  468SOL    HW2 1404   0.306   0.771   2.398 -1.3875 -3.1322  2.5328
  469SOL     OW 1405   0.645   2.958   2.775 -0.0137  0.2452  0.1901
  469SOL    HW1 1406   0.657   2.859   2.796 -1.3578  0.1693 -0.5289
  469SOL    HW2 1407   0.730   2.998   2.739 -2.9522  1.7324  0.4080
  470SOL     OW 1408   2.348   1.145   2.835  0.1075 -0.6713 -0.0916
  470SOL    HW1 1409   2.400   1.084   2.901  1.9109 -1.0467 -1.0113
  470SOL    HW2 1410   2.412   1.222   2.811  2.5392  2.0283 -0.7622
  471SOL     OW 1411   2.795   1.160   2.519 -0.1922 -0.0093 -1.0555
  471SOL    HW1 1412   2.827   1.236   2.460  0.3962  0.6844 -1.1733
  471SOL    HW2 1413   2.802   1.180   2.615 -0.2110 -1.0576 -3.9237
  472SOL     OW 1414   0.501   2.358   0.149 -0.7400 -0.3782  0.4643
  472SOL    HW1 1415   0.459   2.436   0.204 -0.1648  1.9590 -1.0217
  472SOL    HW2 1416   0.602   2.362   0.151  0.3320  0.9066 -2.6663
  473SOL     OW 1417   0.567   0.219   2.966  0.5733  0.0362 -0.0004
  473SOL    HW1 1418   0.487   0.163   2.930  0.1168 -0.5831 -1.9272
  473SOL    HW2 1419   0.538   0.269   3.048  0.0638 -1.7821  1.2453
  474SOL     OW 1420   1.571   0.684   2.375 -0.0999  0.3768 -0.1238
  474SOL    HW1 1421   1.601   0.737   2.291 -0.3850 -1.6016 -3.4301
  474SOL    HW2 1422   1.571   0.585   2.344 -1.8715 -0.0653 -0.3258
  475SOL     OW 1423   0.823   2.603   0.186 -0.3404 -0.0541 -0.3266
  475SOL    HW1 1424   0.808   2.500   0.186  1.6165 -2.4541  1.1598
  475SOL    HW2 1425   0.924   2.623   0.201 -1.4930 -0.4579 -0.9327
  476SOL     OW 1426   0.518   0.936   1.008  0.1209  0.6705 -0.5168
  476SOL    HW1 1427   0.607   0.886   0.986  2.0045 -2.6750  1.1021
  476SOL    HW2 1428   0.534   1.035   1.023 -0.5164 -0.6775  1.2158
  477SOL     OW 1429   1.709   2.082   1.381 -0.6035  0.4429  0.2097
  477SOL    HW1 1430   1.617   2.123   1.393 -1.3738  1.4191  1.2866
  477SOL    HW2 1431   1.711   1.997   1.442  0.5549  1.5717 -0.5234
  478SOL     OW 1432   0.827   1.506   2.153  0.3388 -0.1505 -0.1435
  478SOL    HW1 1433   0.870   1.414   2.145 -1.1127  0.6724 -1.9913
  478SOL    HW2 1434   0.873   1.560   2.229  1.8145  1.1196 -1.0667
  479SOL     OW 1435   0.243   2.925   1.139  0.0415  0.4550 -0.1158
  479SOL    HW1 1436   0.176   2.945   1.211  1.0414  0.1240 -0.8594
  479SOL    HW2 1437   0.201   2.948   1.045 -2.3190 -0.9485 -1.1946
  480SOL     OW 1438   2.822   2.695   0.213 -0.4493  0.4242  0.5467
  480SOL    HW1 1439   2.796   2.792   0.232 -0.8748  1.2975  1.6950
  480SOL    HW2 1440   2.743   2.639   0.186  0.2962  0.5125 -0.4725
  481SOL     OW 1441   2.899   0.152   1.186 -0.0180  0.4573 -0.0666
  481SOL    HW1 1442   2.973   0.210   1.143 -1.5191  2.3077 -2.4322
  481SOL    HW2 1443   2.937   0.063   1.227  1.6757 -1.5300 -0.2405
  482SOL     OW 1444   1.627   2.386   2.013  0.0442  0.4174  0.1834
  482SOL    HW1 1445   1.719   2.353   1.988 -1.1046  0.3149  1.5182
  482SOL    HW2 1446   1.581   2.434   1.936  0.1690 -0.5061  1.7418
  483SOL     OW 1447   0.619   1.486   2.720  0.2969  0.0036 -0.0614
  483SOL    HW1 1448   0.712   1.476   2.681  0.4535  0.9049  0.2973
  483SOL    HW2 1449   0.547   1.473   2.648 -0.9517 -0.9204  0.2321
  484SOL     OW 1450   1.156   1.649   2.398 -0.2116  0.0415  0.2076
  484SOL    HW1 1451   1.202   1.561   2.421 -0.5045  1.8015 -0.2280
  484SOL    HW2 1452   1.054   1.647   2.420 -3.0396  0.4121 -0.5096
  485SOL     OW 1453   2.734   0.138   0.052  0.2343  0.1010 -0.3181
  485SOL    HW1 1454   2.755   0.178   0.143  1.3479 -2.8800  1.9520
  485SOL    HW2 1455   2.809   0.076   0.012 -1.3050  1.0188  0.1075
  486SOL     OW 1456   1.781   2.943   0.828 -0.1241  0.2128 -0.6602
  486SOL    HW1 1457   1.796   3.041   0.819  0.4042  0.1429 -1.2846
  486SOL    HW2 1458   1.705   2.930   0.902 -0.6819  0.1745  1.5361
  487SOL     OW 1459   1.146   2.380   1.011 -0.5228  0.1805  0.1236
  487SOL    HW1 1460   1.099   2.299   0.966 -1.4949  0.8763  2.0617
  487SOL    HW2 1461   1.132   2.463   0.955  1.8861 -1.5124  0.1265
  488SOL     OW 1462   2.149   1.232   0.200 -0.1537 -0.5048 -0.5281
  488SOL    HW1 1463   2.129   1.319   0.252 -0.3291  0.6186  1.7798
  488SOL    HW2 1464   2.066   1.191   0.162 -1.4735  0.1238  0.9647
  489SOL     OW 1465   1.470   2.713   1.303  0.5479 -0.6424  0.4604
  489SOL    HW1 1466   1.405   2.673   1.365  0.9941 -0.8773  1.2097
  489SOL    HW2 1467   1.504   2.803   1.342  0.8806 -1.2003  1.4409
  490SOL     OW 1468   0.716   0.920   0.147  0.6140  0.0509  0.0860
  490SOL    HW1 1469   0.623   0.959   0.123 -2.3639  1.4826  0.5734
  490SOL    HW2 1470   0.718   0.841   0.209 -0.2175  0.1299 -0.4533
  491SOL     OW 1471   0.960   2.957   0.920  0.2575  0.1387  0.2578
  491SOL    HW1 1472   1.039   2.915   0.966 -1.1576 -0.3927 -3.7926
  491SOL    HW2 1473   0.887   2.892   0.921  0.9837  2.1236 -1.2650
  492SOL     OW 1474   1.448   1.465   2.164 -0.0862 -0.1219 -0.0629
  492SOL    HW1 1475   1.355   1.488   2.135  1.1429  0.1010  2.4047
  492SOL    HW2 1476   1.497   1.414   2.088  3.1696 -1.2232 -1.6210
  493SOL     OW 1477   0.292   2.546   0.217 -0.3806 -0.1931 -0.0663
  493SOL    HW1 1478   0.211   2.486   0.212 -1.7605  1.5752 -0.0576
  493SOL    HW2 1479   0.296   2.595   0.310  2.1134  1.4963  2.5430
  494SOL     OW 1480   2.156   1.739   0.268 -0.0400  0.0930  0.0920
  494SOL    HW1 1481   2.252   1.775   0.277  0.3420 -1.8827  0.9722
  494SOL    HW2 1482   2.129   1.751   0.174  0.3728 -0.2778  2.7392
  495SOL     OW 1483   2.930   1.113   3.024  0.0391 -0.3577 -0.1015
  495SOL    HW1 1484   3.022   1.075   3.034 -3.1333  1.1971 -0.6708
  495SOL    HW2 1485   2.860   1.051   3.057 -0.2333 -0.8795  0.6703
  496SOL     OW 1486   2.532   0.046   1.897  0.1984 -0.0532  0.1137
  496SOL    HW1 1487   2.500   3.081   1.969 -0.3492  0.0441 -0.4508
  496SOL    HW2 1488   2.503   0.019   1.799 -0.0171  0.8532 -1.3261
  497SOL     OW 1489   2.777   0.894   0.535 -0.0724  0.7702 -0.0955
  497SOL    HW1 1490   2.761   0.809   0.580  1.3304  0.0893  0.7391
  497SOL    HW2 1491   2.692   0.949   0.535  1.6206  0.5945 -1.0983
  498SOL     OW 1492   2.942   2.110   2.593 -0.0492  0.0301  0.1011
  498SOL    HW1 1493   3.004   2.086   2.669 -1.4206 -1.7948  2.1069
  498SOL    HW2 1494   2.948   2.212   2.572 -0.4770  3.5403 -2.7188
  499SOL     OW 1495   0.678   2.164   0.459  0.0022 -0.8611 -0.8276
  499SOL    HW1 1496   0.707   2.253   0.499  0.2594  0.0077  2.3985
  499SOL    HW2 1497   0.750   2.114   0.411 -0.0410  0.4116  2.0195
  500SOL     OW 1498   0.821   0.161   2.542  0.1633 -0.0169 -0.1042
  500SOL    HW1 1499   0.780   0.224   2.615 -0.0285  2.4057  1.1081
  500SOL    HW2 1500   0.748   0.136   2.479 -1.5435  2.0087  1.0490
  501SOL     OW 1501   1.438   0.007   1.672  0.1144  0.2429 -0.0022
  501SOL    HW1 1502   1.540   0.027   1.674  4.0897  2.9182 -1.9111
  501SOL    HW2 1503   1.379   0.090   1.665  1.4919  1.2210 -1.3109
  502SOL     OW 1504   0.060   0.352   2.081 -0.0619 -0.4252 -0.9567
  502SOL    HW1 1505   0.131   0.342   2.005  2.6251 -4.0686  1.8263
  502SOL    HW2 1506   0.090   0.439   2.137  2.6454  1.9797  1.5774
  503SOL     OW 1507   2.460   1.698   2.280  0.0003  0.6699 -0.2166
  503SOL    HW1 1508   2.508   1.765   2.210  2.4484  0.3762 -1.5265
  503SOL    HW2 1509   2.430   1.752   2.363  1.9185  1.2536  0.6254
  504SOL     OW 1510   1.627   0.738   1.896  0.1077  0.2755  0.2602
  504SOL    HW1 1511   1.643   0.646   1.865  2.5845  3.1357 -0.2591
  504SOL    HW2 1512   1.682   0.810   1.840 -0.5783  2.3136 -1.1870
  505SOL     OW 1513   2.987   0.903   1.587  0.3482 -0.1317 -0.6928
  505SOL    HW1 1514   3.082   0.930   1.595 -3.1753 -0.1699  0.8308
  505SOL    HW2 1515   2.972   0.863   1.496 -1.9225  0.6450 -0.9105
  506SOL     OW 1516   0.533   1.343   2.437  0.1227 -0.3488  0.3699
  506SOL    HW1 1517   0.441   1.299   2.437 -0.1270  0.7642 -1.7351
  506SOL    HW2 1518   0.528   1.443   2.423 -2.2454 -1.4789 -0.6872
  507SOL     OW 1519   0.207   2.867   2.329 -0.2739 -0.1292 -0.4611
  507SOL    HW1 1520   0.277   2.926   2.286 -2.0720  1.7573 -1.9188
  507SOL    HW2 1521   0.187   2.779   2.282 -3.1475  2.0864  0.5126
  508SOL     OW 1522   1.202   0.767   1.282  0.1521 -0.4379 -0.6490
  508SOL    HW1 1523   1.244   0.793   1.371  0.0595 -1.0914  1.3809
  508SOL    HW2 1524   1.209   0.667   1.270 -1.9915  1.5549  0.8074
  509SOL     OW 1525   0.797   1.639   1.354 -0.1171 -0.0012 -0.3429
  509SOL    HW1 1526   0.699   1.663   1.345  0.3469 -2.3866 -2.0788
  509SOL    HW2 1527   0.861   1.713   1.358  0.5423 -0.4341  1.3723
  510SOL     OW 1528   2.453   1.067   2.581 -0.1900 -0.1446  0.0050
  510SOL    HW1 1529   2.438   1.004   2.657  0.8511 -0.5139  1.0822
  510SOL    HW2 1530   2.494   1.149   2.625  0.5047  0.1752  2.7317
  511SOL     OW 1531   0.415   1.623   1.180  0.3061  0.0190 -0.0229
  511SOL    HW1 1532   0.327   1.602   1.230 -1.2372 -0.5784  1.8720
  511SOL    HW2 1533   0.489   1.558   1.209 -0.3830  0.2983  0.1626
  512SOL     OW 1534   2.608   2.305   0.875  0.2444  0.2166 -0.4028
  512SOL    HW1 1535   2.599   2.316   0.772  3.4332 -0.1602 -0.3196
  512SOL    HW2 1536   2.521   2.334   0.926 -0.2038  2.9641 -0.8743
  513SOL     OW 1537   3.072   1.509   2.986 -0.2054  0.3167  0.0775
  513SOL    HW1 1538   3.030   1.467   3.067  0.2641 -1.8679 -0.9320
  513SOL    HW2 1539   0.063   1.549   3.020 -0.4105 -1.1403  0.8516
  514SOL     OW 1540   0.362   2.315   2.800 -0.0902  0.1565  0.7193
  514SOL    HW1 1541   0.388   2.336   2.700 -1.7638 -0.1827 -2.9749
  514SOL    HW2 1542   0.418   2.379   2.856  2.3776  0.8811 -0.1855
  515SOL     OW 1543   1.769   1.346   2.115  0.2843 -0.0672  0.2122
  515SOL    HW1 1544   1.865   1.378   2.101  0.7902  0.1283  2.9432
  515SOL    HW2 1545   1.730   1.385   2.201  3.0147  2.0231  0.4232
  516SOL     OW 1546   2.205   2.110   0.020  0.2240  0.1207 -0.4744
  516SOL    HW1 1547   2.176   2.025   3.058 -0.2643 -4.9435  0.0200
  516SOL    HW2 1548   2.305   2.124   0.033 -3.9299 -2.2272  0.0202
  517SOL     OW 1549   1.514   1.159   0.338  0.2792  0.0440 -0.4622
  517SOL    HW1 1550   1.496   1.134   0.435 -2.8902  2.0076 -1.2334
  517SOL    HW2 1551   1.468   1.083   0.284  1.5528  0.7961 -0.2166
  518SOL     OW 1552   2.358   2.807   1.849 -0.3869  0.0752  0.1509
  518SOL    HW1 1553   2.296   2.733   1.878 -1.9458  0.9782 -0.0676
  518SOL    HW2 1554   2.317   2.857   1.774 -0.9381  1.1735  2.1857
  519SOL     OW 1555   1.655   2.310   1.672  0.7417  0.3666 -0.2391
  519SOL    HW1 1556   1.665   2.215   1.714  0.5601 -2.6480  2.7542
  519SOL    HW2 1557   1.577   2.315   1.610  1.9237 -0.0999  2.7772
  520SOL     OW 1558   2.494   2.554   2.685 -0.8166 -0.3964  0.2050
  520SOL    HW1 1559   2.510   2.657   2.697 -1.3553  2.9693 -0.7430
  520SOL    HW2 1560   2.398   2.533   2.672 -0.1236  3.6293  0.9817
  521SOL     OW 1561   0.208   1.187   2.101 -0.1748  0.7598  0.4189
  521SOL    HW1 1562   0.125   1.243   2.124 -1.3239  1.9239 -2.7840
  521SOL    HW2 1563   0.288   1.188   2.166  1.1561  0.1594  0.7257
  522SOL     OW 1564   1.012   0.162   1.753 -0.7874  0.4303  0.1881
  522SOL    HW1 1565   0.969   0.164   1.844 -1.7786  0.7372 -2.9307
  522SOL    HW2 1566   0.981   0.240   1.700  2.3021 -0.6323  1.8953
  523SOL     OW 1567   0.561   2.349   0.929 -0.0366 -0.2492 -0.3924
  523SOL    HW1 1568   0.591   2.292   0.847 -0.2715 -1.9882 -1.8639
  523SOL    HW2 1569   0.457   2.345   0.929 -1.5180  1.1740  0.9307
  524SOL     OW 1570   1.499   2.588   0.555 -0.8662 -0.3256 -0.1682
  524SOL    HW1 1571   1.576   2.648   0.588 -0.0015  1.1584  3.6040
  524SOL    HW2 1572   1.485   2.501   0.613  2.4716 -3.3542  1.7813
  525SOL     OW 1573   2.286   0.940   1.211  0.9049  0.8089 -0.1552
  525SOL    HW1 1574   2.386   0.951   1.210 -2.3405  2.1185 -0.4534
  525SOL    HW2 1575   2.235   0.981   1.290 -0.2093  0.3080  0.7311
  526SOL     OW 1576   1.057   2.604   0.881 -0.1234  0.3604 -0.1136
  526SOL    HW1 1577   0.960   2.624   0.859  1.8949  1.9631 -1.2707
  526SOL    HW2 1578   1.109   2.592   0.791 -0.8483  0.4558  0.6035
  527SOL     OW 1579   2.355   2.117   0.634 -0.1351 -0.0317  0.5253
  527SOL    HW1 1580   2.371   2.203   0.686 -1.2993 -1.2996  0.8981
  527SOL    HW2 1581   2.254   2.089   0.630  0.9974 -0.7690 -0.9865
  528SOL     OW 1582   2.176   0.590   0.349  0.1403 -0.0333  0.2050
  528SOL    HW1 1583   2.155   0.682   0.307 -0.7232  1.3884 -0.4766
  528SOL    HW2 1584   2.091   0.544   0.385 -0.1309 -0.6572 -1.6769
  529SOL     OW 1585   1.316   1.428   2.444  0.2586 -0.3137 -0.1926
  529SOL    HW1 1586   1.385   1.428   2.520  0.3097  0.7150  0.5802
  529SOL    HW2 1587   1.362   1.437   2.357  0.7135  1.0732 -0.4240
  530SOL     OW 1588   2.537   0.647   0.073 -0.0193  0.4445 -0.0229
  530SOL    HW1 1589   2.627   0.650   0.020 -0.3233 -2.8599  2.4838
  530SOL    HW2 1590   2.556   0.668   0.174  0.6516  1.9832 -1.3787
  531SOL     OW 1591   0.969   1.028   0.148 -0.1952 -0.2418 -0.1602
  531SOL    HW1 1592   0.870   1.011   0.135 -1.3507  0.2601  0.7426
  531SOL    HW2 1593   1.008   1.081   0.067 -0.1131  2.2178 -0.6593
  532SOL     OW 1594   1.797   0.552   0.647 -0.0936 -0.9216  0.0499
  532SOL    HW1 1595   1.838   0.490   0.714 -0.8592  3.0345 -0.1581
  532SOL    HW2 1596   1.728   0.496   0.597  1.4089 -0.4810  0.8147
  533SOL     OW 1597   1.300   1.051   2.143  0.1361 -0.6274  0.1067
  533SOL    HW1 1598   1.262   1.139   2.175 -1.0051 -3.2423  1.2413
  533SOL    HW2 1599   1.317   1.055   2.044 -1.0097  1.2820  0.7499
  534SOL     OW 1600   1.994   0.261   2.582 -0.7168  0.0869 -0.6344
  534SOL    HW1 1601   1.962   0.354   2.558 -2.6049 -0.8712  0.3066
  534SOL    HW2 1602   2.034   0.271   2.678  0.7208  1.8651  0.1745
  535SOL     OW 1603   0.449   3.034   0.312 -0.5659  0.0601  0.2523
  535SOL    HW1 1604   0.392   3.078   0.241  0.0435  1.0960  2.3988
  535SOL    HW2 1605   0.550   3.039   0.299 -1.4689  0.6930 -1.3317
  536SOL     OW 1606   0.811   2.728   0.972  0.1823 -0.0401  0.2873
  536SOL    HW1 1607   0.712   2.714   0.958  2.9453  1.4100 -0.6316
  536SOL    HW2 1608   0.842   2.657   1.039  2.0390  2.9446  0.9727
  537SOL     OW 1609   1.501   0.987   1.080  0.1065  0.2431 -0.1005
  537SOL    HW1 1610   1.518   0.885   1.064  0.6338 -0.6629  0.4487
  537SOL    HW2 1611   1.532   1.022   1.170  0.9650  0.4949 -0.9842
  538SOL     OW 1612   2.704   2.241   0.331  0.0158  0.0652  0.3624
  538SOL    HW1 1613   2.764   2.161   0.312  0.2370 -1.7988 -0.4334
  538SOL    HW2 1614   2.708   2.308   0.254 -1.4997 -0.4140 -0.8560
  539SOL     OW 1615   2.697   2.063   0.059  0.2857 -0.1927 -0.3897
  539SOL    HW1 1616   2.610   2.011   0.061 -1.5054  2.4322  1.1387
  539SOL    HW2 1617   2.755   2.049   0.145  0.6822 -1.6390  0.0847
  540SOL     OW 1618   0.157   2.718   1.504  0.0361 -0.4344  0.2600
  540SOL    HW1 1619   0.107   2.653   1.448 -1.3372 -1.3841 -2.8419
  540SOL    HW2 1620   0.155   2.807   1.452  0.2791 -1.2341 -0.6290
  541SOL     OW 1621   2.452   2.962   2.061 -0.0852 -0.3619 -0.1317
  541SOL    HW1 1622   2.395   2.954   2.148 -0.9916 -0.5269  0.1706
  541SOL    HW2 1623   2.427   2.894   1.993  1.5786  4.6793  1.4758
  542SOL     OW 1624   2.669   0.583   2.285  0.5909 -0.2874 -0.2047
  542SOL    HW1 1625   2.679   0.675   2.342  0.9925  1.3787  1.1997
  542SOL    HW2 1626   2.760   0.558   2.258 -0.9406  1.4256  0.4536
  543SOL     OW 1627   1.055   0.265   0.553  0.0455  0.1374  0.0228
  543SOL    HW1 1628   1.082   0.364   0.554  0.9599 -0.5424  1.0522
  543SOL    HW2 1629   0.978   0.237   0.493  1.1743 -0.0334 -0.4762
  544SOL     OW 1630   3.031   2.631   0.993 -1.0986 -0.4023  0.1705
  544SOL    HW1 1631   3.044   2.559   0.924 -0.6995 -2.7485 -0.7119
  544SOL    HW2 1632   0.005   2.619   1.067  0.2149 -0.6107 -0.7690
  545SOL     OW 1633   0.976   1.968   0.726  0.3534  0.2396 -0.2119
  545SOL    HW1 1634   0.882   1.941   0.734  1.8402  2.5663  0.6239
  545SOL    HW2 1635   1.040   1.896   0.763 -1.1018  0.0849  1.9120
  546SOL     OW 1636   2.180   0.063   1.866  0.7074  0.3230  0.5907
  546SOL    HW1 1637   2.098   0.104   1.905  0.4302  0.3290 -0.8334
  546SOL    HW2 1638   2.241   0.132   1.823 -0.8150 -0.0573 -0.0625
  547SOL     OW 1639   0.305   0.207   2.303  0.1124  0.5765 -0.2662
  547SOL    HW1 1640   0.359   0.276   2.354  2.6205  0.0447  0.0043
  547SOL    HW2 1641   0.206   0.233   2.302  0.2042  1.2831 -0.3061
  548SOL     OW 1642   2.127   1.922   2.669 -0.1586 -0.3420 -0.0705
  548SOL    HW1 1643   2.049   1.854   2.689  1.4372 -1.9342 -1.1638
  548SOL    HW2 1644   2.090   2.003   2.618  1.6125  0.3049 -0.7615
  549SOL     OW 1645   0.066   0.827   0.874  0.1735  0.0290 -0.4912
  549SOL    HW1 1646   0.039   0.806   0.776 -1.9617 -1.3427 -3.6229
  549SOL    HW2 1647   3.077   0.837   0.932  1.2549 -1.2631 -0.4084
  550SOL     OW 1648   1.566   1.516   0.570  0.0218 -0.6774  0.1089
  550SOL    HW1 1649   1.495   1.554   0.506  1.1934 -0.5022 -1.0415
  550SOL    HW2 1650   1.635   1.583   0.596  1.1591 -0.4760 -0.4488
  551SOL     OW 1651   1.167   0.112   1.275 -0.1335 -0.0767  0.3724
  551SOL    HW1 1652   1.131   0.022   1.294  4.1732  1.3069 -0.0123
  551SOL    HW2 1653   1.182   0.124   1.179 -3.0241 -2.6082  0.5090
  552SOL     OW 1654   2.526   2.402   1.804  0.0914  0.1235  0.0471
  552SOL    HW1 1655   2.428   2.384   1.812  1.3560 -1.8538  0.7077
  552SOL    HW2 1656   2.567   2.373   1.893 -0.1422  0.0363 -1.8936
  553SOL     OW 1657   2.961   0.064   2.727 -0.4431 -0.1810 -0.9807
  553SOL    HW1 1658   2.920   3.080   2.678  0.3529  0.5705 -0.7030
  553SOL    HW2 1659   3.062   0.062   2.714 -1.7302  2.2147 -0.8573
  554SOL     OW 1660   0.960   2.767   1.404 -0.2075  0.3797  0.3194
  554SOL    HW1 1661   0.899   2.703   1.453 -0.9974  1.5404 -3.3101
  554SOL    HW2 1662   1.030   2.804   1.467 -0.8556  2.0678 -2.1620
  555SOL     OW 1663   2.452   2.766   1.498  0.5494  0.5856  0.3531
  555SOL    HW1 1664   2.505   2.847   1.480  0.4578 -3.6436  1.7760
  555SOL    HW2 1665   2.496   2.720   1.578 -1.3598  2.2258  0.2339
  556SOL     OW 1666   1.008   0.266   2.847 -0.6195  0.0620 -0.0043
  556SOL    HW1 1667   1.060   0.192   2.797  0.8505 -1.4804 -2.8536
  556SOL    HW2 1668   1.043   0.268   2.943 -0.7518  0.5412 -1.3166
  557SOL     OW 1669   0.179   1.622   2.422  0.3835 -0.6930 -0.2233
  557SOL    HW1 1670   0.258   1.616   2.358  1.3220 -0.2602  2.7877
  557SOL    HW2 1671   0.147   1.716   2.438 -2.1062  1.6243  3.5293
  558SOL     OW 1672   2.196   1.133   2.490 -0.4185  0.4534 -0.1965
  558SOL    HW1 1673   2.150   1.073   2.415 -0.6621 -0.5702  0.1526
  558SOL    HW2 1674   2.280   1.091   2.531  1.3495 -0.8290  1.9147
  559SOL     OW 1675   2.355   2.045   1.998  0.1560 -0.1268 -0.2392
  559SOL    HW1 1676   2.405   2.117   2.050 -0.6593 -0.9709 -0.2077
  559SOL    HW2 1677   2.316   2.077   1.912  2.8833 -1.7345  3.0151
  560SOL     OW 1678   3.004   0.705   2.469  0.0706  0.1928 -0.0582
  560SOL    HW1 1679   3.018   0.774   2.541 -0.0438  2.1112 -0.3024
  560SOL    HW2 1680   2.928   0.723   2.403  2.1518 -1.1068 -0.8086
  561SOL     OW 1681   0.630   0.182   0.372 -0.4791 -0.0639 -0.3184
  561SOL    HW1 1682   0.623   0.117   0.448 -2.7928  0.2507 -3.9371
  561SOL    HW2 1683   0.541   0.223   0.356  1.4606 -0.9071  1.0786
  562SOL     OW 1684   0.817   1.427   1.759 -0.4615  0.0129 -0.2580
  562SOL    HW1 1685   0.736   1.426   1.823  2.0080 -1.8629  1.5417
  562SOL    HW2 1686   0.900   1.413   1.813 -2.6894 -0.1898 -1.6086
  563SOL     OW 1687   1.463   2.778   0.070 -0.0029  0.2804 -0.1528
  563SOL    HW1 1688   1.449   2.784   0.171  0.1374  0.6440  0.5488
  563SOL    HW2 1689   1.385   2.794   0.003 -3.8630 -0.1134 -1.1771
  564SOL     OW 1690   0.048   1.767   0.728  0.0960 -1.0140 -0.1386
  564SOL    HW1 1691   0.119   1.792   0.659  1.5940  2.5730 -0.5923
  564SOL    HW2 1692   0.064   1.816   0.817  2.0681  0.1165 -0.1808
  565SOL     OW 1693   0.519   2.269   2.323  0.1211 -0.5480 -0.1399
  565SOL    HW1 1694   0.479   2.236   2.234 -0.8832 -2.0901 -0.9816
  565SOL    HW2 1695   0.605   2.317   2.307 -0.6742 -1.2355  0.6111
  566SOL     OW 1696   1.314   2.687   2.194  0.0594  0.4112  0.4492
  566SOL    HW1 1697   1.374   2.610   2.205 -0.5821  0.1075  2.5448
  566SOL    HW2 1698   1.313   2.724   2.098 -2.5336 -0.6947 -2.6842
  567SOL     OW 1699   2.132   2.297   1.029 -0.4101  0.4329 -0.3788
  567SOL    HW1 1700   2.110   2.291   0.927  1.4005 -0.6987 -2.1054
  567SOL    HW2 1701   2.107   2.221   1.086  4.0516  1.1093 -2.2664
  568SOL     OW 1702   2.101   0.869   0.254  0.1955 -0.7531 -0.1886
  568SOL    HW1 1703   2.101   0.898   0.156  2.0396 -1.9551 -0.0912
  568SOL    HW2 1704   2.019   0.907   0.304  0.4032 -0.5832 -1.6417
  569SOL     OW 1705   0.078   1.182   2.728 -0.6595  0.6318 -0.5254
  569SOL    HW1 1706   3.079   1.153   2.720  1.7648  1.1192  1.1243
  569SOL    HW2 1707   0.107   1.182   2.823 -1.0090  2.2869 -3.1845
  570SOL     OW 1708   2.942   2.994   1.343  0.1206 -0.4128 -0.2226
  570SOL    HW1 1709   2.905   3.055   1.422  0.7751  0.5836 -1.7359
  570SOL    HW2 1710   2.934   2.897   1.365 -0.5996 -0.3274 -2.2223
  571SOL     OW 1711   0.204   0.476   1.651 -0.1086 -0.5724 -0.6416
  571SOL    HW1 1712   0.224   0.415   1.574 -0.8849  1.1104  0.7769
  571SOL    HW2 1713   0.099   0.493   1.653 -0.3251  0.5969  0.9831
  572SOL     OW 1714   3.057   2.352   0.879  0.0746 -0.1603 -0.0938
  572SOL    HW1 1715   0.056   2.360   0.852 -0.5496 -1.4735  0.4695
  572SOL    HW2 1716   3.054   2.299   0.967 -2.1712  1.0240  0.5629
  573SOL     OW 1717   0.747   0.805   3.001  0.3200  0.1782  0.6489
  573SOL    HW1 1718   0.679   0.728   2.993  0.0095 -2.1545  0.3555
  573SOL    HW2 1719   0.742   0.836   0.003 -0.8933 -1.1830  1.7196
  574SOL     OW 1720   2.827   2.684   2.887 -0.0961  0.0079  0.4166
  574SOL    HW1 1721   2.797   2.752   2.955  1.1241 -1.6151  0.2625
  574SOL    HW2 1722   2.907   2.626   2.924  2.6369  0.9732  0.7795
  575SOL     OW 1723   1.012   1.778   1.433  0.5358 -0.3656 -0.0797
  575SOL    HW1 1724   1.054   1.844   1.367  0.0639  1.0162 -0.6562
  575SOL    HW2 1725   1.022   1.810   1.529  1.4617 -1.5378 -0.8809
  576SOL     OW 1726   0.108   2.945   1.380  0.1237 -0.2428 -0.0448
  576SOL    HW1 1727   0.154   3.009   1.443  1.0694  1.7097 -3.0764
  576SOL    HW2 1728   0.009   2.969   1.369  0.1577 -2.3396  0.4097
  577SOL     OW 1729   2.058   1.402   1.329 -0.0315  0.0601 -0.5247
  577SOL    HW1 1730   1.964   1.384   1.363 -1.6913 -2.5802 -0.3666
  577SOL    HW2 1731   2.094   1.312   1.294 -0.7430 -0.5759  0.7118
  578SOL     OW 1732   1.487   0.092   0.134 -0.5317  0.0295 -0.2038
  578SOL    HW1 1733   1.480   0.052   0.040 -0.4139 -0.4903  0.8538
  578SOL    HW2 1734   1.560   0.046   0.192  0.0292 -0.3862 -0.9114
  579SOL     OW 1735   2.871   1.415   2.444  0.0623 -0.1964 -0.5613
  579SOL    HW1 1736   2.872   1.504   2.491  0.2475 -1.6404 -0.4674
  579SOL    HW2 1737   2.832   1.424   2.350 -2.2311 -0.1241 -1.7085
  580SOL     OW 1738   1.372   0.705   1.511  0.4154  0.7221  0.3068
  580SOL    HW1 1739   1.374   0.741   1.609 -0.3127  1.0035 -1.1084
  580SOL    HW2 1740   1.437   0.623   1.497  1.6613 -2.2893  0.1719
  581SOL     OW 1741   0.734   1.377   1.499  0.3778 -0.3542  0.1670
  581SOL    HW1 1742   0.748   1.471   1.469  1.8520 -0.9720 -0.3277
  581SOL    HW2 1743   0.760   1.378   1.598 -0.7653  2.3374  0.0042
  582SOL     OW 1744   3.034   3.073   1.885  0.1102 -0.0855 -0.3559
  582SOL    HW1 1745   3.019   0.039   1.963 -0.4719  2.9216  1.6408
  582SOL    HW2 1746   2.943   3.045   1.846 -0.3779  0.7911 -1.2393
  583SOL     OW 1747   2.241   0.765   1.592 -0.3504 -0.3764 -0.1494
  583SOL    HW1 1748   2.239   0.665   1.615  1.9656 -0.5306  1.9212
  583SOL    HW2 1749   2.297   0.813   1.662  0.5275 -2.3832  0.7408
  584SOL     OW 1750   1.482   2.096   3.026 -0.0503 -0.2124 -0.3320
  584SOL    HW1 1751   1.464   2.021   2.962 -3.7156 -1.3093 -0.3501
  584SOL    HW2 1752   1.429   2.179   3.000  0.4765 -1.3053 -0.3556
  585SOL     OW 1753   0.586   2.764   0.202  0.3192  0.9347  0.3834
  585SOL    HW1 1754   0.511   2.744   0.136  1.5373 -0.8481  0.5854
  585SOL    HW2 1755   0.677   2.723   0.173  1.8889 -1.9449 -1.4488
  586SOL     OW 1756   1.880   2.563   2.526  0.1046  0.4466  0.4301
  586SOL    HW1 1757   1.841   2.529   2.615  1.9310  1.5520 -0.1487
  586SOL    HW2 1758   1.849   2.494   2.455 -2.0036 -2.4849  0.1504
  587SOL     OW 1759   2.685   1.704   0.551  0.2782 -0.3144 -0.3428
  587SOL    HW1 1760   2.711   1.710   0.452  2.1420  3.0538 -2.2335
  587SOL    HW2 1761   2.605   1.766   0.579 -4.0869  0.6596  0.8245
  588SOL     OW 1762   2.193   0.309   1.051 -0.2346  0.3387 -0.0044
  588SOL    HW1 1763   2.138   0.391   1.031  0.3433 -1.8988  0.2633
  588SOL    HW2 1764   2.244   0.323   1.141 -2.7388 -1.7678  1.4601
  589SOL     OW 1765   0.857   0.501   0.431  0.0935  0.2345 -0.6725
  589SOL    HW1 1766   0.948   0.495   0.487 -0.0015  0.9539  1.0246
  589SOL    HW2 1767   0.865   0.491   0.331  1.1372  1.0838  1.4750
  590SOL     OW 1768   2.394   1.881   0.273 -0.1097  0.2972  0.2116
  590SOL    HW1 1769   2.436   1.875   0.179  1.1403 -1.8697 -1.6010
  590SOL    HW2 1770   2.416   1.966   0.325  1.6594 -1.1736  0.3854
  591SOL     OW 1771   0.054   2.540   1.335  0.3489  0.1346  0.8097
  591SOL    HW1 1772   0.122   2.536   1.263 -1.0117  1.1303  0.9883
  591SOL    HW2 1773   0.039   2.445   1.374  1.4692 -0.4163  1.1880
  592SOL     OW 1774   0.775   0.948   1.196  0.2261 -0.5576  0.0617
  592SOL    HW1 1775   0.718   1.028   1.215  0.9388  2.3188 -0.1695
  592SOL    HW2 1776   0.851   0.944   1.263  0.9467  0.8160  1.1834
  593SOL     OW 1777   0.854   1.391   1.093 -0.1048 -0.4283  0.1831
  593SOL    HW1 1778   0.931   1.328   1.099 -0.6572  1.0516 -0.2770
  593SOL    HW2 1779   0.856   1.462   1.168 -2.0032  4.6882 -1.2736
  594SOL     OW 1780   0.771   1.895   0.120  0.1395 -0.0344  0.2381
  594SOL    HW1 1781   0.678   1.849   0.131 -1.6010 -4.1693  0.3487
  594SOL    HW2 1782   0.832   1.874   0.199  0.8786 -0.9705  0.3528
  595SOL     OW 1783   1.488   0.092   1.317 -0.3770 -0.4342  0.7952
  595SOL    HW1 1784   1.397   0.131   1.338  1.3612  0.8192  1.4154
  595SOL    HW2 1785   1.515   0.127   1.226 -0.9132 -0.7387  0.5462
  596SOL     OW 1786   2.975   1.428   0.899 -0.0413  0.2943 -0.4086
  596SOL    HW1 1787   2.956   1.487   0.818  0.6970  0.4550 -0.1387
  596SOL    HW2 1788   2.965   1.329   0.872  0.3655  2.2339  0.8306
  597SOL     OW 1789   0.214   2.498   2.650 -0.6088 -0.4087  0.0096
  597SOL    HW1 1790   0.115   2.512   2.675  3.6384  0.3222  0.7846
  597SOL    HW2 1791   0.250   2.426   2.710  0.9661 -0.0752  1.5334
  598SOL     OW 1792   2.592   2.096   2.190 -0.2294  0.0718 -0.3789
  598SOL    HW1 1793   2.586   1.996   2.169 -1.2232  0.6891 -0.1977
  598SOL    HW2 1794   2.649   2.117   2.273 -2.2078  1.5509  1.1560
  599SOL     OW 1795   0.898   0.425   0.135 -0.2656  0.1261  0.0086
  599SOL    HW1 1796   0.796   0.429   0.129 -1.6913  1.3881 -3.0516
  599SOL    HW2 1797   0.937   0.509   0.086  0.3618 -5.0576  1.5170
  600SOL     OW 1798   0.629   2.672   0.495  0.0309 -0.5929 -0.4892
  600SOL    HW1 1799   0.620   2.732   0.410 -0.7055 -1.6412 -2.9121
  600SOL    HW2 1800   0.576   2.586   0.491  1.8547  1.1556 -0.7136
  601SOL     OW 1801   0.493   0.765   1.237  0.0873 -0.2103  0.3640
  601SOL    HW1 1802   0.522   0.838   1.179 -0.8075 -1.7009 -1.5687
  601SOL    HW2 1803   0.497   0.679   1.192 -1.4259  2.5306 -0.9723
  602SOL     OW 1804   0.561   2.615   0.966  0.0679 -0.0099 -0.8916
  602SOL    HW1 1805   0.576   2.521   0.932 -0.3114 -0.4411  0.8285
  602SOL    HW2 1806   0.516   2.611   1.060  0.8341 -0.0435  0.5877
  603SOL     OW 1807   1.115   3.000   2.087  0.5519  0.2692 -0.3045
  603SOL    HW1 1808   1.165   2.917   2.100 -1.9717  1.0562 -0.7471
  603SOL    HW2 1809   1.115   3.025   1.990 -1.8332 -0.3701  2.2000
  604SOL     OW 1810   0.806   2.725   1.985  0.4260  0.0319  0.0932
  604SOL    HW1 1811   0.810   2.626   2.010  0.9600  0.0415  2.3600
  604SOL    HW2 1812   0.709   2.759   1.962 -0.3240 -0.4493 -2.5087
  605SOL     OW 1813   1.888   0.663   2.145 -0.2383 -0.2639 -0.4324
  605SOL    HW1 1814   1.940   0.737   2.098  2.2577 -1.9409  1.0722
  605SOL    HW2 1815   1.795   0.699   2.172  3.4789  5.4927  0.8520
  606SOL     OW 1816   2.384   0.093   2.837  0.4000  0.7510 -0.1221
  606SOL    HW1 1817   2.369   0.161   2.907 -1.1794 -1.4390 -1.5205
  606SOL    HW2 1818   2.411   0.132   2.746  0.8975  1.7192  0.1146
  607SOL     OW 1819   0.939   0.492   1.284 -0.4180  0.1421  0.0215
  607SOL    HW1 1820   0.894   0.430   1.216  1.6481  1.8341 -0.1939
  607SOL    HW2 1821   0.871   0.558   1.317  0.6772 -0.2798  1.6220
  608SOL     OW 1822   0.072   1.862   2.481  0.1681 -0.0781  0.3821
  608SOL    HW1 1823   0.104   1.956   2.471 -0.4925 -1.4023  4.1657
  608SOL    HW2 1824   0.036   1.842   2.575  0.3731 -0.8966 -0.6775
  609SOL     OW 1825   1.685   0.920   0.164 -0.4484  0.1250 -0.3205
  609SOL    HW1 1826   1.644   0.890   0.253 -0.6879 -0.4402 -1.0767
  609SOL    HW2 1827   1.762   0.980   0.176 -1.4927  1.6595  1.0403
  610SOL     OW 1828   0.698   0.221   1.355 -0.8369 -0.4715  0.5355
  610SOL    HW1 1829   0.773   0.183   1.410 -0.4265 -0.5015  1.0705
  610SOL    HW2 1830   0.738   0.271   1.280  1.8853 -0.2732  1.6273
  611SOL     OW 1831   1.609   0.408   0.543  0.3091  0.0200  0.4502
  611SOL    HW1 1832   1.559   0.400   0.631  0.0237 -0.8488  2.3369
  611SOL    HW2 1833   1.542   0.422   0.468 -1.7400  0.6219 -1.2292
  612SOL     OW 1834   1.678   0.764   3.033  0.1314  0.1469  0.2680
  612SOL    HW1 1835   1.683   0.842   0.003  0.2418 -0.0152  0.7273
  612SOL    HW2 1836   1.765   0.710   3.050  1.3162 -0.0461  0.5152
  613SOL     OW 1837   2.392   0.674   0.533 -0.5922 -0.0979  0.2759
  613SOL    HW1 1838   2.306   0.652   0.479 -0.8390  0.1426  1.9876
  613SOL    HW2 1839   2.417   0.584   0.573 -1.9991  0.2631  0.5362
  614SOL     OW 1840   2.705   0.230   2.055 -0.9713 -0.2182 -0.4471
  614SOL    HW1 1841   2.630   0.157   2.053 -0.7275 -0.1830 -1.2755
  614SOL    HW2 1842   2.799   0.196   2.036 -1.1336  1.2895  1.9736
  615SOL     OW 1843   0.711   1.922   1.227 -0.9587 -0.0222  0.6740
  615SOL    HW1 1844   0.712   1.977   1.310 -2.6697 -2.3154 -1.4122
  615SOL    HW2 1845   0.622   1.935   1.177  0.8687  2.0280  0.3716
  616SOL     OW 1846   1.708   1.624   2.760 -0.0273 -0.4431  0.1710
  616SOL    HW1 1847   1.662   1.681   2.688  0.9216  0.6592 -0.2834
  616SOL    HW2 1848   1.746   1.548   2.708 -1.8256  2.8616  2.5701
  617SOL     OW 1849   1.569   3.093   2.913  0.1108  0.2855  0.2120
  617SOL    HW1 1850   1.611   3.021   2.977  1.9432 -0.1934  2.6002
  617SOL    HW2 1851   1.469   3.075   2.891  1.9175 -0.9917  0.6903
  618SOL     OW 1852   1.363   2.180   2.744 -0.6315 -0.6171  0.3566
  618SOL    HW1 1853   1.266   2.154   2.763  2.2382  1.6324  1.1399
  618SOL    HW2 1854   1.396   2.257   2.800  0.3366  3.1239  0.6342
  619SOL     OW 1855   2.420   1.319   0.806 -0.0258  0.0587 -0.7379
  619SOL    HW1 1856   2.488   1.378   0.756 -1.5784  0.5014  2.0346
  619SOL    HW2 1857   2.464   1.228   0.812 -1.8044  0.5783  0.1714
  620SOL     OW 1858   2.081   2.751   2.212  0.6359  0.3132 -0.0271
  620SOL    HW1 1859   2.035   2.780   2.300 -0.8573 -1.0880  1.2458
  620SOL    HW2 1860   2.144   2.674   2.238 -0.9671 -1.0902 -0.1935
  621SOL     OW 1861   2.818   1.305   0.549  0.2122 -0.4932  0.7174
  621SOL    HW1 1862   2.865   1.238   0.611  2.7612  0.2276  1.6775
  621SOL    HW2 1863   2.892   1.376   0.536  0.9905 -1.2400  1.5468
  622SOL     OW 1864   1.475   2.055   2.458 -0.2075  0.0097 -0.1179
  622SOL    HW1 1865   1.398   1.995   2.485  1.5231  0.5832 -2.4025
  622SOL    HW2 1866   1.507   2.024   2.365  1.0622 -3.9076 -2.7784
  623SOL     OW 1867   0.771   2.735   2.372  0.3448  0.1913 -0.0790
  623SOL    HW1 1868   0.802   2.826   2.337 -1.1096 -0.6587 -1.8587
  623SOL    HW2 1869   0.816   2.723   2.461 -1.8058  0.6217 -0.5602
  624SOL     OW 1870   0.934   2.635   2.968 -0.1146 -0.3978  0.1608
  624SOL    HW1 1871   0.987   2.581   2.899  0.6224  0.6740 -1.2160
  624SOL    HW2 1872   0.955   2.733   2.968 -0.3671 -0.6162  1.6626
  625SOL     OW 1873   0.110   2.126   2.313  0.4085 -0.1373 -0.6914
  625SOL    HW1 1874   0.013   2.145   2.304 -0.4129 -1.0491 -1.1211
  625SOL    HW2 1875   0.167   2.206   2.335  1.5390  2.2265  4.4713
  626SOL     OW 1876   0.138   0.185   2.977  0.2924  0.3443  0.2495
  626SOL    HW1 1877   0.068   0.215   3.049  1.0245  0.3927 -0.9101
  626SOL    HW2 1878   0.142   0.250   2.903  1.1309 -2.1891  0.2399
  627SOL     OW 1879   2.111   1.787   0.009  0.1636 -0.1925  0.0780
  627SOL    HW1 1880   2.157   1.833   3.020 -1.6149  1.1867 -1.7137
  627SOL    HW2 1881   2.009   1.813   0.016 -2.4245  1.2007 -1.0859
  628SOL     OW 1882   1.477   1.590   2.975  0.4264  0.0305  0.2142
  628SOL    HW1 1883   1.421   1.507   2.942  1.1679 -0.0702  1.3154
  628SOL    HW2 1884   1.577   1.574   2.959 -1.2581  0.9927  1.9740
  629SOL     OW 1885   0.254   0.320   1.890  0.2731 -0.2399 -0.3423
  629SOL    HW1 1886   0.330   0.317   1.953 -0.8515  0.1251  0.1943
  629SOL    HW2 1887   0.275   0.366   1.806 -1.3961  0.6249 -0.4967
  630SOL     OW 1888   2.381   0.930   1.757 -0.1062  0.3694  0.2738
  630SOL    HW1 1889   2.347   1.024   1.745  0.1913 -1.9846 -1.3062
  630SOL    HW2 1890   2.369   0.899   1.851  1.0694  1.2925  0.1320
  631SOL     OW 1891   1.654   0.313   0.846  0.2895 -0.4788 -0.0014
  631SOL    HW1 1892   1.750   0.324   0.874 -0.3897 -1.2866 -0.4841
  631SOL    HW2 1893   1.652   0.248   0.765 -1.4217 -2.6462  0.0200
  632SOL     OW 1894   2.909   0.760   1.838  0.0607 -0.0167  0.0282
  632SOL    HW1 1895   2.919   0.821   1.758  0.9023  0.8029 -0.5066
  632SOL    HW2 1896   2.816   0.765   1.886 -0.3397  0.3184 -0.1808
  633SOL     OW 1897   0.750   0.546   2.590 -0.0980  0.2765  0.1624
  633SOL    HW1 1898   0.758   0.468   2.655  1.4725 -0.3795  0.6234
  633SOL    HW2 1899   0.820   0.617   2.611  0.7797 -1.9179 -1.1668
  634SOL     OW 1900   0.659   2.684   2.812  0.2919 -0.0602  0.1745
  634SOL    HW1 1901   0.689   2.594   2.856 -1.0297 -0.7081  0.4986
  634SOL    HW2 1902   0.596   2.669   2.739  0.9075 -1.4246 -0.1570
  635SOL     OW 1903   0.238   1.159   1.251 -0.3354 -0.2682  0.1816
  635SOL    HW1 1904   0.248   1.236   1.187  0.1446  0.5951  2.5013
  635SOL    HW2 1905   0.240   1.070   1.202 -1.5682  0.2088 -2.3577
  636SOL     OW 1906   2.988   1.332   0.079  0.5414 -0.1546  0.3021
  636SOL    HW1 1907   2.897   1.375   0.102 -0.8448  2.5073 -1.1015
  636SOL    HW2 1908   2.972   1.240   0.039  0.4457  0.0877 -0.5965
  637SOL     OW 1909   0.397   2.702   0.030 -0.1424 -0.3551 -0.0463
  637SOL    HW1 1910   0.442   2.644   3.059  0.0947  2.2503  1.2145
  637SOL    HW2 1911   0.340   2.645   0.091  1.7686  0.5969 -3.4762
  638SOL     OW 1912   2.886   2.464   0.656 -0.1614  0.4514 -0.3321
  638SOL    HW1 1913   2.946   2.409   0.724 -2.0270  0.6660  3.4319
  638SOL    HW2 1914   2.789   2.435   0.659  1.7211  1.8080  0.1544
  639SOL     OW 1915   1.384   0.950   0.192 -0.2017  0.2556  0.2881
  639SOL    HW1 1916   1.312   0.878   0.191 -1.1641  0.3843 -0.7418
  639SOL    HW2 1917   1.463   0.929   0.130  0.7610  2.1745 -0.9093
  640SOL     OW 1918   1.889   2.413   1.620  0.0388  0.4512  0.2170
  640SOL    HW1 1919   1.796   2.376   1.649  1.2420 -3.0356 -1.3154
  640SOL    HW2 1920   1.902   2.388   1.522 -1.2453 -0.3288 -0.3954
  641SOL     OW 1921   0.068   0.138   0.766 -0.3721  0.2461 -0.4436
  641SOL    HW1 1922   0.053   0.139   0.665  0.0530  2.5315 -0.0466
  641SOL    HW2 1923   3.085   0.185   0.815  0.8111 -0.9156  1.5727
  642SOL     OW 1924   1.359   0.828   1.772  0.1179  0.2625  0.5196
  642SOL    HW1 1925   1.404   0.786   1.849  1.0782 -1.2354 -0.9841
  642SOL    HW2 1926   1.320   0.915   1.799  1.8374 -0.4102 -1.9318
  643SOL     OW 1927   0.810   2.405   2.554  0.4745 -0.4886 -0.0228
  643SOL    HW1 1928   0.826   2.506   2.578  1.1867  3.0811  2.5400
  643SOL    HW2 1929   0.765   2.399   2.464  0.5573 -0.5930  3.6139
  644SOL     OW 1930   1.366   2.346   2.970 -0.0169  0.4566 -0.3777
  644SOL    HW1 1931   1.438   2.398   3.020 -1.4498 -0.6979  2.0331
  644SOL    HW2 1932   1.271   2.379   2.987 -2.2244 -2.5074  2.3404
  645SOL     OW 1933   1.599   1.369   1.920 -0.1537 -0.3090  0.2790
  645SOL    HW1 1934   1.675   1.367   1.987 -1.0782  2.0364 -0.1712
  645SOL    HW2 1935   1.632   1.345   1.825 -0.0006 -0.4012 -2.1117
  646SOL     OW 1936   0.705   0.013   0.000 -0.2051  0.1349  0.7182
  646SOL    HW1 1937   0.688   3.044   3.022  2.3754  1.2103  2.2394
  646SOL    HW2 1938   0.652   0.094   3.072  2.2519 -1.7520 -0.1647
  647SOL     OW 1939   0.982   3.026   0.649  0.3924 -0.2953  0.6310
  647SOL    HW1 1940   0.906   2.984   0.594  0.3435 -1.6768  0.1698
  647SOL    HW2 1941   0.985   3.000   0.749 -1.0171 -0.1207  3.4857
  648SOL     OW 1942   2.739   2.715   1.002 -0.1693  0.5149 -0.1746
  648SOL    HW1 1943   2.822   2.658   0.983  1.0924 -1.1700 -1.1938
  648SOL    HW2 1944   2.732   2.735   1.101 -1.7422 -0.4236 -1.9998
  649SOL     OW 1945   0.716   2.147   3.090  0.1455  0.4182 -0.1853
  649SOL    HW1 1946   0.658   2.127   3.004  0.2536 -1.9116 -1.4846
  649SOL    HW2 1947   0.721   2.067   0.056 -1.1154 -2.1244 -1.5417
  650SOL     OW 1948   2.173   1.856   2.070 -0.3064 -0.0093  0.5075
  650SOL    HW1 1949   2.179   1.847   2.173  0.6412 -1.2016 -0.7412
  650SOL    HW2 1950   2.249   1.911   2.034 -0.8276 -0.9671 -1.4663
  651SOL     OW 1951   2.789   2.777   2.340 -0.1467 -0.1936  0.0436
  651SOL    HW1 1952   2.882   2.824   2.351 -0.9817  1.2047  1.3335
  651SOL    HW2 1953   2.771   2.738   2.247 -0.4364 -0.1371 -0.5294
  652SOL     OW 1954   2.907   1.617   0.726  0.2197  0.1187  0.2473
  652SOL    HW1 1955   2.985   1.681   0.745 -0.6113 -1.2120  0.7873
  652SOL    HW2 1956   2.851   1.652   0.650 -1.0791  2.2967  0.6477
  653SOL     OW 1957   2.425   0.710   0.956  0.3683  0.0327  0.1087
  653SOL    HW1 1958   2.499   0.635   0.942  1.2787 -0.5180 -0.0532
  653SOL    HW2 1959   2.399   0.754   0.867 -0.8253 -0.3583 -1.2120
  654SOL     OW 1960   0.743   0.326   2.746  0.3685  0.4552 -0.2435
  654SOL    HW1 1961   0.836   0.308   2.775 -1.5034 -2.4075 -0.9038
  654SOL    HW2 1962   0.683   0.291   2.820 -0.9886 -2.2164 -1.5859
  655SOL     OW 1963   0.902   0.095   1.498  0.2985 -0.2428  0.0370
  655SOL    HW1 1964   0.971   0.106   1.572 -0.6920 -1.3540 -0.1486
  655SOL    HW2 1965   0.925   0.027   1.427  0.8879  1.7532 -1.8230
  656SOL     OW 1966   0.181   2.681   2.129  0.3331  0.2681 -0.0741
  656SOL    HW1 1967   0.280   2.673   2.112 -1.3235 -0.7123  1.9528
  656SOL    HW2 1968   0.136   2.749   2.067 -0.3137  0.6189 -1.2394
  657SOL     OW 1969   2.310   0.480   0.149  0.1043 -0.1169  0.5105
  657SOL    HW1 1970   2.249   0.511   0.228 -1.1123  2.4828  3.5500
  657SOL    HW2 1971   2.390   0.541   0.134  0.2632  1.0593 -0.2199
  658SOL     OW 1972   1.974   1.598   1.141  0.9909  0.5518 -0.2467
  658SOL    HW1 1973   2.020   1.680   1.170 -1.1450 -0.4060  1.2953
  658SOL    HW2 1974   1.997   1.528   1.210 -1.5446  1.1061  0.5970
  659SOL     OW 1975   2.668   2.210   2.799 -0.4614 -0.4525  0.5198
  659SOL    HW1 1976   2.653   2.307   2.831  0.7958 -1.4020 -1.8084
  659SOL    HW2 1977   2.753   2.167   2.843 -0.6881 -3.0058  0.4876
  660SOL     OW 1978   1.072   0.259   0.007 -0.1595 -0.6517 -0.0584
  660SOL    HW1 1979   1.175   0.277   0.011  0.3491  2.8027 -0.2989
  660SOL    HW2 1980   1.028   0.311   0.082 -0.3557  0.7594 -2.0992
  661SOL     OW 1981   2.245   0.176   0.345 -0.2436  0.6963 -0.2372
  661SOL    HW1 1982   2.164   0.167   0.290  0.4428  0.1834  0.1182
  661SOL    HW2 1983   2.304   0.246   0.304 -0.6083  1.2940  1.1854
  662SOL     OW 1984   0.619   0.044   1.006 -0.2661 -0.2941  0.4527
  662SOL    HW1 1985   0.712   0.085   1.024 -0.0372 -0.1804  0.1690
  662SOL    HW2 1986   0.553   0.104   0.955  0.6106  0.9641 -0.6282
  663SOL     OW 1987   1.231   0.025   2.443  0.1242 -0.1767 -0.3309
  663SOL    HW1 1988   1.258   3.021   2.443 -1.4129  1.6363 -2.1097
  663SOL    HW2 1989   1.145   0.030   2.394  0.5884 -0.5478  0.3539
  664SOL     OW 1990   0.817   2.583   1.557 -0.0116  0.1071 -0.1539
  664SOL    HW1 1991   0.757   2.524   1.495  1.7341 -0.3814 -1.1795
  664SOL    HW2 1992   0.767   2.668   1.578 -3.5450 -0.8090  1.1417
  665SOL     OW 1993   0.848   2.446   1.987  0.0633  0.2361 -0.0042
  665SOL    HW1 1994   0.807   2.455   1.896  1.5750  0.2019  0.8739
  665SOL    HW2 1995   0.919   2.375   1.985  4.3665 -0.3889  3.0900
  666SOL     OW 1996   0.193   2.922   2.585 -0.0702  0.4037 -0.2846
  666SOL    HW1 1997   0.203   2.891   2.488  1.4814 -0.2381  1.6689
  666SOL    HW2 1998   0.142   2.854   2.648  0.3374  0.9511  0.6465
  667SOL     OW 1999   1.549   1.565   1.492  0.2093  0.2890 -1.1254
  667SOL    HW1 2000   1.448   1.569   1.500 -2.6940 -1.1218  1.3858
  667SOL    HW2 2001   1.578   1.565   1.396  0.1799 -1.2913  2.7652
  668SOL     OW 2002   1.499   0.445   1.763  0.3606 -0.6538 -0.2927
  668SOL    HW1 2003   1.540   0.370   1.820  0.0919  0.2877 -0.4577
  668SOL    HW2 2004   1.399   0.437   1.762  0.2328 -0.4186  0.3386
  669SOL     OW 2005   2.555   2.476   1.247 -0.4290  0.3419  0.3941
  669SOL    HW1 2006   2.516   2.452   1.156 -0.6712 -0.0509  1.1146
  669SOL    HW2 2007   2.522   2.407   1.317  0.9011  0.3374 -2.5421
  670SOL     OW 2008   1.607   2.604   2.857  0.2959  0.4187 -0.2223
  670SOL    HW1 2009   1.533   2.661   2.815 -1.5669  0.3107  1.9179
  670SOL    HW2 2010   1.587   2.588   2.953  1.0450 -3.0549 -1.3506
  671SOL     OW 2011   0.982   0.807   0.506  0.0684  0.2893 -0.2587
  671SOL    HW1 2012   1.035   0.770   0.590  0.0241  0.0259  1.0660
  671SOL    HW2 2013   1.033   0.779   0.422  1.0553  0.2196  1.8015
  672SOL     OW 2014   0.221   1.013   2.567  0.0069 -0.0047  0.0274
  672SOL    HW1 2015   0.161   1.064   2.634  1.7618 -0.9355  0.2521
  672SOL    HW2 2016   0.195   0.914   2.559 -0.2539  0.3709  0.1103
  673SOL     OW 2017   2.998   1.907   1.395  0.8777 -0.3527  0.0109
  673SOL    HW1 2018   3.011   1.986   1.457 -4.6250 -1.4219 -1.4908
  673SOL    HW2 2019   2.972   1.821   1.443 -0.7279 -0.3465  1.2172
  674SOL     OW 2020   0.451   2.637   2.058  0.0295 -0.5467  0.0157
  674SOL    HW1 2021   0.492   2.731   2.035  1.3309  1.7120  0.9548
  674SOL    HW2 2022   0.443   2.578   1.976 -3.8764  1.3646 -0.6999
  675SOL     OW 2023   0.933   0.935   1.770  0.4115 -0.1017  0.2320
  675SOL    HW1 2024   0.928   0.839   1.731 -1.4258 -3.8876 -0.3378
  675SOL    HW2 2025   0.852   0.956   1.826  0.2023  1.0433 -0.9111
  676SOL     OW 2026   2.319   0.392   1.300  0.2279 -0.0042  0.2009
  676SOL    HW1 2027   2.375   0.474   1.280 -2.6719  1.3936 -3.1081
  676SOL    HW2 2028   2.345   0.351   1.389 -1.2335  1.6183 -0.6541
  677SOL     OW 2029   2.553   1.383   3.028  0.5018  0.2138  0.3854
  677SOL    HW1 2030   2.488   1.329   3.090  2.0746 -1.1732  2.9705
  677SOL    HW2 2031   2.565   1.328   2.944 -2.6733 -2.3304 -1.8700
  678SOL     OW 2032   2.802   0.877   1.221 -0.2213  0.6197 -0.8728
  678SOL    HW1 2033   2.891   0.893   1.178  0.2698 -1.6464  0.2687
  678SOL    HW2 2034   2.800   0.787   1.278  1.1507  0.4483  3.5871
  679SOL     OW 2035   2.487   0.308   0.266 -0.1543 -0.0989  0.3525
  679SOL    HW1 2036   2.586   0.292   0.280  0.5937  2.6395 -0.1241
  679SOL    HW2 2037   2.469   0.396   0.215  1.4434  3.8132 -0.9106
  680SOL     OW 2038   0.217   2.038   2.078 -0.4191  0.1638  0.0694
  680SOL    HW1 2039   0.185   2.038   2.174  2.1572  1.0580 -1.7337
  680SOL    HW2 2040   0.160   2.091   2.014  1.0618  0.0651  0.4860
  681SOL     OW 2041   2.385   2.062   1.036  0.2594 -0.4964 -0.7243
  681SOL    HW1 2042   2.301   2.057   1.096 -2.0392 -0.8562  1.0367
  681SOL    HW2 2043   2.386   1.982   0.979 -3.1864  3.9280 -0.0023
  682SOL     OW 2044   0.021   1.798   2.743 -0.4081  0.0391 -0.1803
  682SOL    HW1 2045   3.044   1.773   2.807 -0.9335  0.3493  1.1263
  682SOL    HW2 2046   0.118   1.776   2.772 -0.8077 -0.5693 -0.6323
  683SOL     OW 2047   0.234   2.204   1.516 -0.2639 -0.4014 -0.1253
  683SOL    HW1 2048   0.229   2.235   1.418  1.4704  1.2053 -1.4397
  683SOL    HW2 2049   0.156   2.146   1.547  2.0018 -1.1803  0.9086
  684SOL     OW 2050   3.014   1.086   2.355  0.0444  0.2278  0.4270
  684SOL    HW1 2051   3.088   1.150   2.381  2.4314 -3.0322  1.0863
  684SOL    HW2 2052   2.943   1.086   2.428 -0.8055  1.6819  3.2145
  685SOL     OW 2053   1.485   1.100   0.634  0.1749  0.3587  0.1168
  685SOL    HW1 2054   1.479   1.131   0.731 -1.2094 -0.6723  2.3030
  685SOL    HW2 2055   1.504   1.000   0.634  1.6239 -0.5440 -2.5124
  686SOL     OW 2056   0.437   0.289   0.634 -0.4732 -0.3266  0.0039
  686SOL    HW1 2057   0.387   0.264   0.722 -0.5290  2.6320  5.0103
  686SOL    HW2 2058   0.487   0.209   0.607 -1.3999  0.4499 -0.5489
  687SOL     OW 2059   1.058   2.250   2.774 -0.0933  0.4215 -0.4934
  687SOL    HW1 2060   1.037   2.244   2.875 -0.4434  1.8372  0.7718
  687SOL    HW2 2061   1.055   2.159   2.731  0.7093  2.3791  0.5001
  688SOL     OW 2062   1.410   1.222   1.572 -0.6397  0.4017 -0.9951
  688SOL    HW1 2063   1.430   1.297   1.511 -0.9792 -1.3864 -0.1473
  688SOL    HW2 2064   1.306   1.219   1.593 -3.2778  3.1690 -0.5240
  689SOL     OW 2065   2.127   0.223   0.593  0.1474 -0.4686  0.2243
  689SOL    HW1 2066   2.176   0.207   0.507 -1.0623  0.7852  1.0843
  689SOL    HW2 2067   2.197   0.221   0.668 -0.4328  0.5244  0.6983
  690SOL     OW 2068   0.256   1.305   1.005  0.1094  0.3644 -0.5004
  690SOL    HW1 2069   0.195   1.238   0.960 -2.8549 -1.2496 -0.7037
  690SOL    HW2 2070   0.254   1.392   0.956 -0.4982  2.4971 -0.2345
  691SOL     OW 2071   0.255   2.010   1.249  0.4258  0.2255  0.3897
  691SOL    HW1 2072   0.176   1.945   1.233 -0.9917  0.2556 -0.9920
  691SOL    HW2 2073   0.225   2.110   1.254 -1.3689  2.6599 -0.6556
  692SOL     OW 2074   2.048   0.809   1.351 -0.4127 -0.1670  0.0818
  692SOL    HW1 2075   1.991   0.835   1.428 -1.7848 -2.0526 -1.9710
  692SOL    HW2 2076   2.127   0.866   1.349 -1.5338  2.2113  1.6287
  693SOL     OW 2077   0.597   1.828   2.187 -0.0969  0.1137  0.1867
  693SOL    HW1 2078   0.634   1.759   2.120 -2.9063 -0.3641 -1.7576
  693SOL    HW2 2079   0.677   1.879   2.222  1.1577  0.5983  1.1678
  694SOL     OW 2080   1.685   1.553   1.226 -0.3185  0.2372 -0.2172
  694SOL    HW1 2081   1.634   1.626   1.177  0.0945  0.9198 -1.2818
  694SOL    HW2 2082   1.736   1.493   1.165  0.1666  0.9217  0.7420
  695SOL     OW 2083   1.210   1.049   0.624 -0.3502 -0.0868  0.1916
  695SOL    HW1 2084   1.173   1.064   0.528  0.5648  1.1199 -2.0056
  695SOL    HW2 2085   1.307   1.060   0.632  0.2163 -1.8390 -0.5422
  696SOL     OW 2086   0.716   3.008   0.271 -0.0224 -0.1433  0.3269
  696SOL    HW1 2087   0.659   2.924   0.255  1.0357  0.4479 -0.4368
  696SOL    HW2 2088   0.733   3.062   0.184 -1.5062 -1.5294 -0.9977
  697SOL     OW 2089   1.629   0.607   1.297 -1.0327  0.3048  0.1487
  697SOL    HW1 2090   1.716   0.555   1.293  0.2166 -1.0623  1.3788
  697SOL    HW2 2091   1.578   0.555   1.367 -0.3023  0.1509 -0.3601
  698SOL     OW 2092   1.639   1.808   2.005 -0.7607 -0.1157  0.1067
  698SOL    HW1 2093   1.576   1.739   1.961  0.2492 -0.0055 -1.4299
  698SOL    HW2 2094   1.734   1.771   2.028  2.3459 -2.6579 -0.4526
  699SOL     OW 2095   2.628   0.442   1.924 -0.2628 -0.3417  0.2822
  699SOL    HW1 2096   2.561   0.497   1.975 -1.4539 -0.7380  0.0311
  699SOL    HW2 2097   2.663   0.360   1.976  0.4839 -1.1531 -2.7988
  700SOL     OW 2098   1.278   2.306   0.517 -1.1609  0.3763 -0.1668
  700SOL    HW1 2099   1.326   2.336   0.600  0.3164 -2.3656 -0.4206
  700SOL    HW2 2100   1.329   2.227   0.475  2.2413 -0.7680 -1.1035
  701SOL     OW 2101   2.389   2.376   2.275  0.1443 -0.2783 -0.3874
  701SOL    HW1 2102   2.471   2.418   2.234 -1.8339  2.1516  0.9049
  701SOL    HW2 2103   2.346   2.435   2.347 -0.2602 -0.5768  2.2066
  702SOL     OW 2104   0.783   2.916   0.511 -0.2986  0.2033 -0.5086
  702SOL    HW1 2105   0.730   2.831   0.540  0.2415 -2.6772  1.9499
  702SOL    HW2 2106   0.763   2.944   0.416  2.0260 -1.6034  3.8239
  703SOL     OW 2107   2.065   2.930   2.001 -0.5834 -0.4804 -0.1254
  703SOL    HW1 2108   2.151   2.953   1.953 -2.8624 -2.6873  0.9361
  703SOL    HW2 2109   2.079   2.854   2.069  0.9504  4.2051 -0.9162
  704SOL     OW 2110   2.453   2.117   0.381 -0.0798 -0.0314 -0.5074
  704SOL    HW1 2111   2.406   2.129   0.475 -1.5390 -1.1617  2.8655
  704SOL    HW2 2112   2.540   2.169   0.375 -0.7132 -1.0436 -1.0199
  705SOL     OW 2113   2.608   2.340   2.071 -0.8436 -0.0807  0.2232
  705SOL    HW1 2114   2.700   2.392   2.077  1.3620  1.2082  0.1447
  705SOL    HW2 2115   2.618   2.252   2.121  2.0442  1.9879  1.0153
  706SOL     OW 2116   2.515   0.089   0.798 -0.1783 -0.0600 -0.8641
  706SOL    HW1 2117   2.514   0.047   0.707  2.5133 -0.2491  0.9886
  706SOL    HW2 2118   2.547   0.026   0.873  1.6769  1.5771 -2.2206
  707SOL     OW 2119   0.830   0.386   2.281 -0.0051  0.1210 -0.2993
  707SOL    HW1 2120   0.746   0.397   2.339  1.2850 -0.4476  1.6077
  707SOL    HW2 2121   0.913   0.369   2.342  1.0501 -0.8735  1.4981
  708SOL     OW 2122   0.420   2.053   1.635  0.5420  0.4499 -0.1281
  708SOL    HW1 2123   0.362   2.111   1.578  1.3632 -3.0555  1.8913
  708SOL    HW2 2124   0.374   2.000   1.707  2.3010  1.6749  0.9071
  709SOL     OW 2125   1.586   0.216   1.914  0.3433 -0.3879  0.5241
  709SOL    HW1 2126   1.621   0.149   1.845 -0.5311  2.0685 -0.3675
  709SOL    HW2 2127   1.498   0.182   1.955  1.3744 -1.0908  0.4255
  710SOL     OW 2128   1.517   2.878   2.571  0.8275  0.0593  0.4874
  710SOL    HW1 2129   1.544   2.788   2.526 -0.0956 -2.6606 -0.8220
  710SOL    HW2 2130   1.592   2.929   2.615 -2.0989 -0.6651 -0.5823
  711SOL     OW 2131   0.730   2.154   2.669 -0.0684  0.0445  0.6479
  711SOL    HW1 2132   0.672   2.152   2.750  0.1100  0.3296  1.0086
  711SOL    HW2 2133   0.766   2.244   2.644 -2.7722 -2.9556  0.8196
  712SOL     OW 2134   0.962   2.235   3.024 -0.1974  0.0934  0.2331
  712SOL    HW1 2135   0.867   2.226   3.057  0.5371  1.5787  2.3822
  712SOL    HW2 2136   1.015   2.191   0.002 -2.0235  0.6551  2.8943
  713SOL     OW 2137   2.064   1.182   1.997 -0.7099  0.4767 -0.1025
  713SOL    HW1 2138   2.127   1.171   1.919 -4.7227  1.0158  1.5833
  713SOL    HW2 2139   1.973   1.145   1.970  1.4328  0.8907 -1.1334
  714SOL     OW 2140   0.889   1.242   2.161  0.0408 -0.4761  0.4585
  714SOL    HW1 2141   0.815   1.182   2.139  1.7317 -0.4899  0.5590
  714SOL    HW2 2142   0.951   1.188   2.217 -0.0534 -0.1676 -2.0018
  715SOL     OW 2143   2.756   0.268   0.297 -1.0209 -0.2442  0.2798
  715SOL    HW1 2144   2.821   0.218   0.365  0.5613  0.5708  2.1245
  715SOL    HW2 2145   2.780   0.366   0.306  0.1411  0.5016  1.5924
  716SOL     OW 2146   2.929   2.709   1.383  0.2071  0.1215 -0.3967
  716SOL    HW1 2147   2.915   2.715   1.483  0.7051  1.6117 -2.7782
  716SOL    HW2 2148   2.997   2.644   1.350 -1.6151  0.4649  1.8307
  717SOL     OW 2149   2.346   0.864   0.734 -0.3660  0.4861  0.3422
  717SOL    HW1 2150   2.279   0.942   0.726  2.5281  1.5086  0.5202
  717SOL    HW2 2151   2.353   0.805   0.651 -0.5618 -0.3792 -0.2225
  718SOL     OW 2152   1.271   1.560   1.430 -0.2884 -0.4045  0.3965
  718SOL    HW1 2153   1.192   1.530   1.478  1.9403  2.4825  0.4483
  718SOL    HW2 2154   1.269   1.660   1.424 -1.1634 -1.0205  1.2365
  719SOL     OW 2155   2.615   2.830   2.738 -0.2450 -0.0527  0.3408
  719SOL    HW1 2156   2.704   2.782   2.757  1.0667 -1.1518  0.6608
  719SOL    HW2 2157   2.584   2.877   2.821  2.6472  0.2103 -0.9516
  720SOL     OW 2158   1.064   0.244   0.824  0.2175 -0.3763 -0.1224
  720SOL    HW1 2159   1.083   0.232   0.723  0.9039  1.0197 -3.9178
  720SOL    HW2 2160   1.134   0.205   0.885 -2.6618 -0.2357  0.8994
  721SOL     OW 2161   2.636   0.698   0.694  0.0227 -0.2554  0.1630
  721SOL    HW1 2162   2.654   0.601   0.714 -1.5211 -0.2390 -1.6381
  721SOL    HW2 2163   2.552   0.719   0.645  2.5624 -1.1412 -0.6100
  722SOL     OW 2164   0.973   2.076   2.336 -0.2886 -0.0674  0.0570
  722SOL    HW1 2165   0.996   2.170   2.362 -1.6033  3.7661  1.6668
  722SOL    HW2 2166   1.048   2.007   2.333 -1.6753  0.7429  3.2302
  723SOL     OW 2167   1.573   2.937   1.389 -0.0196 -0.3097 -0.4272
  723SOL    HW1 2168   1.549   3.032   1.366 -0.6538  1.1388  1.6328
  723SOL    HW2 2169   1.673   2.931   1.398 -2.3355 -0.7935  1.5594
  724SOL     OW 2170   1.738   1.921   1.621 -0.3816  0.7065 -0.1377
  724SOL    HW1 2171   1.678   1.972   1.685 -0.1528 -0.6058  1.7756
  724SOL    HW2 2172   1.731   1.821   1.637 -0.6931  1.1956  0.0325
  725SOL     OW 2173   1.236   2.199   1.219 -0.5312  0.4214  0.7937
  725SOL    HW1 2174   1.195   2.262   1.152  0.1603  0.1140  1.3575
  725SOL    HW2 2175   1.199   2.106   1.209 -1.1102  1.1809  1.0411
  726SOL     OW 2176   1.900   3.093   0.045 -0.1066 -0.2594  0.8156
  726SOL    HW1 2177   1.901   0.057   3.060  0.0087 -0.0946  2.5005
  726SOL    HW2 2178   1.809   3.040   0.041 -1.9633 -0.6251  0.0552
  727SOL     OW 2179   1.381   1.653   0.353 -0.1462  0.4480 -0.6308
  727SOL    HW1 2180   1.481   1.651   0.329  0.0322 -3.1235  0.4941
  727SOL    HW2 2181   1.325   1.611   0.278 -0.7136 -4.1232 -0.5285
  728SOL     OW 2182   1.944   2.523   1.850 -0.0108  0.2658  0.6653
  728SOL    HW1 2183   1.925   2.504   1.750 -1.4387 -1.0813 -1.8640
  728SOL    HW2 2184   1.906   2.611   1.883  0.8041  0.2763 -1.5922
  729SOL     OW 2185   1.937   2.445   1.357  0.7840  0.1216  0.2637
  729SOL    HW1 2186   1.927   2.349   1.322  2.3297 -0.1318 -0.9733
  729SOL    HW2 2187   2.029   2.482   1.322  2.3619  0.8531  0.7086
  730SOL     OW 2188   1.525   1.130   2.594  0.0948  0.3198 -0.3140
  730SOL    HW1 2189   1.481   1.087   2.513 -2.0421 -0.8045 -2.5288
  730SOL    HW2 2190   1.511   1.067   2.672 -1.0371 -0.6751 -1.5784
  731SOL     OW 2191   0.905   3.008   1.302  0.1692  0.1022  0.4240
  731SOL    HW1 2192   0.816   3.002   1.250  1.7917  2.1142  1.4004
  731SOL    HW2 2193   0.944   2.916   1.330  2.4082 -1.5879 -2.4233
  732SOL     OW 2194   1.164   2.803   1.018  0.4788 -0.0370 -0.2685
  732SOL    HW1 2195   1.134   2.711   0.984 -0.9681 -1.4147 -1.5604
  732SOL    HW2 2196   1.188   2.813   1.117  0.7865 -0.1854 -1.1575
  733SOL     OW 2197   1.050   0.980   0.831 -0.3104  0.1613  0.0568
  733SOL    HW1 2198   1.102   1.007   0.751 -0.3454  0.5352  0.5587
  733SOL    HW2 2199   1.120   0.986   0.909  1.8874 -0.3881  0.2111
  734SOL     OW 2200   2.457   2.168   2.996 -1.2939  0.1692  0.0657
  734SOL    HW1 2201   2.410   2.255   2.973  0.0282 -2.0407 -1.1404
  734SOL    HW2 2202   2.553   2.167   2.954  1.5868  1.1796 -1.4606
  735SOL     OW 2203   0.886   0.146   1.024  0.1668  0.4173 -0.1868
  735SOL    HW1 2204   0.910   0.051   1.057 -1.3111 -0.7990  0.8340
  735SOL    HW2 2205   0.945   0.186   0.951 -0.4857  0.2220  0.6332
  736SOL     OW 2206   1.792   2.420   2.739  0.0835  0.2120  0.7217
  736SOL    HW1 2207   1.777   2.328   2.696  0.9022 -0.9191 -0.9760
  736SOL    HW2 2208   1.716   2.450   2.795  0.7052 -1.5337 -2.5031
  737SOL     OW 2209   0.903   2.585   1.174 -0.2381 -0.1211 -0.0724
  737SOL    HW1 2210   0.994   2.557   1.140 -0.3128  0.7840  0.7417
  737SOL    HW2 2211   0.909   2.658   1.243 -0.7568 -1.4830 -0.1006
  738SOL     OW 2212   1.763   2.954   2.295  0.7527 -0.1300 -0.1325
  738SOL    HW1 2213   1.801   3.026   2.236  1.0617  0.4121  0.6977
  738SOL    HW2 2214   1.829   2.919   2.363 -2.5297 -1.6405  0.0603
  739SOL     OW 2215   1.206   2.314   2.042 -0.4883 -0.0877 -0.0301
  739SOL    HW1 2216   1.221   2.373   2.125  1.2019  0.7400  0.7559
  739SOL    HW2 2217   1.282   2.250   2.023  0.3590 -0.1195 -0.3419
  740SOL     OW 2218   1.438   2.153   1.415  0.1663 -0.0140 -0.1161
  740SOL    HW1 2219   1.362   2.132   1.350 -1.4630 -0.3339 -3.0518
  740SOL    HW2 2220   1.458   2.252   1.423  2.5114  2.1443  2.0210
  741SOL     OW 2221   2.586   1.007   0.214  0.4452 -0.0878 -0.7307
  741SOL    HW1 2222   2.647   1.088   0.233  0.0139  1.1986 -0.0605
  741SOL    HW2 2223   2.490   1.027   0.248  0.8612  0.6625  0.9006
  742SOL     OW 2224   0.512   1.604   2.421  0.0147 -0.1204 -0.0513
  742SOL    HW1 2225   0.446   1.655   2.362  0.3862  3.0677 -0.0735
  742SOL    HW2 2226   0.579   1.674   2.463 -2.4125 -1.2224  2.1435
  743SOL     OW 2227   0.203   0.707   2.550  0.4467  0.1012  0.1309
  743SOL    HW1 2228   0.209   0.714   2.651  0.9084  2.0944  2.9701
  743SOL    HW2 2229   0.132   0.642   2.514 -2.1852 -0.9285  2.0062
  744SOL     OW 2230   2.400   2.364   1.048  0.1467  0.1360 -0.0544
  744SOL    HW1 2231   2.390   2.266   1.073 -0.7251  0.0947  0.4849
  744SOL    HW2 2232   2.310   2.411   1.063 -2.1123 -0.0000  0.4048
  745SOL     OW 2233   2.126   1.804   1.253  0.2571 -0.3272 -0.7259
  745SOL    HW1 2234   2.197   1.728   1.243 -0.8199 -2.1469  0.1403
  745SOL    HW2 2235   2.161   1.893   1.222  3.8887 -1.2248  0.8741
  746SOL     OW 2236   2.102   0.962   0.684 -0.6971 -0.2130 -0.0504
  746SOL    HW1 2237   2.078   0.932   0.589  0.9222  1.2903  0.3933
  746SOL    HW2 2238   2.018   0.976   0.744 -1.4622 -0.4944  0.7347
  747SOL     OW 2239   1.661   2.145   0.737  0.3931  0.3841 -0.5613
  747SOL    HW1 2240   1.737   2.145   0.669 -2.0679 -1.6824  2.0021
  747SOL    HW2 2241   1.632   2.052   0.764 -0.2385 -0.9550 -0.0519
  748SOL     OW 2242   0.723   1.874   0.758  0.2048  0.1289  0.4572
  748SOL    HW1 2243   0.727   1.838   0.662  0.4841  1.3895  2.9538
  748SOL    HW2 2244   0.632   1.912   0.778  2.7873 -1.1661  2.6647
  749SOL     OW 2245   2.978   0.143   2.081  0.4589 -0.1064  0.3289
  749SOL    HW1 2246   3.046   0.218   2.100  0.7737 -0.3628  0.0514
  749SOL    HW2 2247   2.948   0.108   2.170 -0.0071  0.7660  1.6484
  750SOL     OW 2248   1.668   0.198   1.511  0.3538 -0.9743  0.0111
  750SOL    HW1 2249   1.745   0.254   1.475  0.5661  2.1493 -0.1295
  750SOL    HW2 2250   1.590   0.177   1.450  1.4215 -0.6687  1.2654
  751SOL     OW 2251   1.701   2.922   3.065  0.0879 -0.2720  0.4741
  751SOL    HW1 2252   1.643   2.873   0.035 -2.0046  1.4498 -0.7618
  751SOL    HW2 2253   1.748   2.859   2.996  1.7370  0.6464 -1.3694
  752SOL     OW 2254   1.788   2.038   0.279  0.2411 -0.2801 -0.1226
  752SOL    HW1 2255   1.694   2.040   0.245  0.1761 -0.7925  1.4726
  752SOL    HW2 2256   1.857   2.074   0.211  0.8220 -1.0563  2.7568
  753SOL     OW 2257   1.783   1.084   2.455  0.1090 -0.2314  0.2687
  753SOL    HW1 2258   1.690   1.103   2.489 -0.6649 -2.2863  2.8283
  753SOL    HW2 2259   1.846   1.163   2.477  1.6328 -3.8080  1.0994
  754SOL     OW 2260   0.272   2.757   0.420  0.0999  0.3443  0.4078
  754SOL    HW1 2261   0.261   2.727   0.516 -1.7125 -0.3288 -0.5296
  754SOL    HW2 2262   0.333   2.840   0.407  0.4432  1.0512  0.0122
  755SOL     OW 2263   2.084   0.550   0.989 -0.0184 -0.0516  0.4508
  755SOL    HW1 2264   2.158   0.613   0.968 -3.1172 -0.0637 -1.9293
  755SOL    HW2 2265   2.030   0.573   1.069  2.0363 -2.4886 -1.8477
  756SOL     OW 2266   1.109   1.998   2.708 -0.6403  0.1395  0.3669
  756SOL    HW1 2267   1.022   1.950   2.685  0.8378  0.8618  2.0581
  756SOL    HW2 2268   1.135   1.969   2.802  1.2720  2.4929 -1.9196
  757SOL     OW 2269   2.486   3.021   1.008 -0.1643  0.2424 -0.0064
  757SOL    HW1 2270   2.466   2.920   1.034  1.2987  0.7782  1.9359
  757SOL    HW2 2271   2.451   3.077   1.081 -1.3524 -2.1346 -1.7077
  758SOL     OW 2272   0.697   2.812   1.577 -0.0506 -0.1166  0.4436
  758SOL    HW1 2273   0.635   2.827   1.492 -0.6162  1.2245 -3.0105
  758SOL    HW2 2274   0.738   2.900   1.609  1.6461 -0.7700  3.3821
  759SOL     OW 2275   2.177   1.229   1.128 -0.9151  0.6782 -0.8489
  759SOL    HW1 2276   2.220   1.304   1.074  2.3094 -3.3265 -0.9498
  759SOL    HW2 2277   2.232   1.142   1.125 -2.6462 -1.7557 -3.0759
  760SOL     OW 2278   2.026   0.910   1.628  0.6982 -0.0150  0.1238
  760SOL    HW1 2279   2.058   1.004   1.619 -1.7167  0.6681  0.1938
  760SOL    HW2 2280   2.098   0.847   1.610 -3.0191  2.7857  0.5659
  761SOL     OW 2281   2.001   0.201   0.179  0.3671  0.0593 -0.2071
  761SOL    HW1 2282   1.946   0.211   0.269 -0.1798  0.6344  2.0538
  761SOL    HW2 2283   1.975   0.110   0.135 -1.7037 -0.2613 -0.2892
  762SOL     OW 2284   1.946   2.178   0.119  0.1338  0.1605 -0.3156
  762SOL    HW1 2285   2.032   2.159   0.064 -0.3223 -0.5887 -0.4259
  762SOL    HW2 2286   1.895   2.254   0.076  2.5861 -0.4781 -1.8344
  763SOL     OW 2287   0.767   0.814   0.952 -0.3873  0.0101 -0.2052
  763SOL    HW1 2288   0.809   0.880   0.885  1.9979 -1.1962  0.0590
  763SOL    HW2 2289   0.774   0.846   1.047  0.4712 -0.0588 -1.5552
  764SOL     OW 2290   2.410   2.431   2.958  0.1824  0.2146  0.0177
  764SOL    HW1 2291   2.508   2.451   2.939 -1.1957  1.0827 -1.4050
  764SOL    HW2 2292   2.385   2.483   3.040 -0.6489 -0.2327 -3.1548
  765SOL     OW 2293   0.869   0.189   1.979  0.2693 -0.5812 -0.1002
  765SOL    HW1 2294   0.898   0.199   2.078 -1.1834  0.7600  2.1502
  765SOL    HW2 2295   0.829   0.276   1.945 -0.5762  2.8897 -1.0547
  766SOL     OW 2296   0.280   1.233   2.428 -0.2383  0.4728  0.3227
  766SOL    HW1 2297   0.248   1.157   2.484 -1.4437 -0.0283 -0.4930
  766SOL    HW2 2298   0.200   1.290   2.412  0.9158 -0.3399  0.6938
  767SOL     OW 2299   2.853   1.638   1.913 -0.4246  1.1218  0.0862
  767SOL    HW1 2300   2.757   1.647   1.880 -0.6620  1.0864  3.5394
  767SOL    HW2 2301   2.927   1.659   1.847  0.2443 -2.0771  0.5998
  768SOL     OW 2302   1.005   1.125   2.983  0.4758 -0.1441  0.2423
  768SOL    HW1 2303   0.958   1.081   2.901  1.0901  2.6530  1.1313
  768SOL    HW2 2304   1.035   1.222   2.959  0.8030  1.5083 -2.9289
  769SOL     OW 2305   1.987   2.842   0.134  0.4937  0.4086 -0.3977
  769SOL    HW1 2306   2.003   2.785   0.051 -0.1989  1.5930 -1.4464
  769SOL    HW2 2307   1.980   2.942   0.115 -3.0150  1.9756  0.8600
  770SOL     OW 2308   3.089   0.465   2.533  0.1852 -0.3262 -0.1332
  770SOL    HW1 2309   3.065   0.554   2.488  0.7879 -3.6811  0.7839
  770SOL    HW2 2310   3.011   0.413   2.566 -0.4593  1.1422  1.7877
  771SOL     OW 2311   1.142   2.221   1.684 -0.4789 -0.2576 -0.5190
  771SOL    HW1 2312   1.238   2.182   1.673  1.0069  1.1434  0.5941
  771SOL    HW2 2313   1.121   2.275   1.597 -1.3588 -0.1361 -0.7593
  772SOL     OW 2314   0.492   0.647   0.018  0.5103 -0.3398 -0.0307
  772SOL    HW1 2315   0.449   0.728   3.068  3.1156  1.3218  1.2663
  772SOL    HW2 2316   0.484   0.665   0.118 -0.6764  0.9474 -1.8108
  773SOL     OW 2317   2.777   1.084   1.542 -0.4608 -0.4929 -0.4170
  773SOL    HW1 2318   2.694   1.029   1.512 -4.6423 -1.4295 -2.2851
  773SOL    HW2 2319   2.853   1.016   1.561  1.1940 -0.7686  1.3856
  774SOL     OW 2320   1.337   0.705   0.377 -0.6634  0.6757 -0.0765
  774SOL    HW1 2321   1.341   0.700   0.481  0.9903 -1.0715  0.2285
  774SOL    HW2 2322   1.249   0.749   0.348 -1.7285  1.7741  1.6191
  775SOL     OW 2323   2.322   2.755   0.073  0.7508  0.3103 -0.3637
  775SOL    HW1 2324   2.254   2.771   3.094 -1.9318  0.5289 -2.0523
  775SOL    HW2 2325   2.277   2.701   0.144  2.5937  1.4221 -2.5334
  776SOL     OW 2326   2.491   0.633   2.082 -0.3225 -0.0814 -0.6020
  776SOL    HW1 2327   2.564   0.618   2.154 -1.8450 -0.5825  0.2169
  776SOL    HW2 2328   2.401   0.628   2.129 -1.7067 -0.0585  0.0157
  777SOL     OW 2329   0.481   1.262   2.860  0.2592  0.2947  0.3941
  777SOL    HW1 2330   0.530   1.347   2.841 -1.8721  2.0243 -0.6204
  777SOL    HW2 2331   0.521   1.179   2.814  1.0081 -1.4284 -1.4254
  778SOL     OW 2332   1.064   0.006   0.405 -0.1125  0.3516 -0.0365
  778SOL    HW1 2333   1.011   0.077   0.350  1.9740  3.1655 -0.0165
  778SOL    HW2 2334   1.027   3.087   0.500  1.6307  1.1577 -0.8363
  779SOL     OW 2335   0.473   0.970   2.712 -0.0442  0.2119  0.1980
  779SOL    HW1 2336   0.393   0.997   2.655  2.0907 -0.9321  2.1870
  779SOL    HW2 2337   0.528   0.904   2.654 -0.4925 -1.9983 -1.6745
  780SOL     OW 2338   2.081   0.782   2.687 -0.0690 -0.3546 -0.2158
  780SOL    HW1 2339   2.159   0.761   2.630 -3.6850 -0.0772  0.8039
  780SOL    HW2 2340   1.998   0.799   2.630  0.6954 -2.6972  0.7850
  781SOL     OW 2341   2.498   1.338   1.853  0.1418  0.0866  0.9305
  781SOL    HW1 2342   2.593   1.310   1.816  2.0631 -0.9966 -0.1606
  781SOL    HW2 2343   2.480   1.424   1.806 -1.0336 -1.4747 -2.3979
  782SOL     OW 2344   1.273   1.845   2.550  0.5627 -0.5337  0.0917
  782SOL    HW1 2345   1.220   1.778   2.497  1.4494 -1.1946  2.2274
  782SOL    HW2 2346   1.210   1.911   2.599 -4.1013 -1.5415  0.7948
  783SOL     OW 2347   0.425   2.640   1.439  0.0162  0.0637  0.2724
  783SOL    HW1 2348   0.455   2.739   1.422 -3.8522  1.7326 -2.7655
  783SOL    HW2 2349   0.326   2.643   1.459 -1.4863 -1.5018  2.5326
  784SOL     OW 2350   1.467   0.596   3.011  0.6929 -0.3743 -0.1448
  784SOL    HW1 2351   1.479   0.531   2.933  1.8816  0.7308  1.3285
  784SOL    HW2 2352   1.547   0.658   3.019 -3.5262 -0.2137 -0.4558
  785SOL     OW 2353   1.340   0.313   0.017  0.3777 -0.0244 -0.1961
  785SOL    HW1 2354   1.356   0.401   0.063  0.3488 -2.8501  0.6668
  785SOL    HW2 2355   1.403   0.243   0.057 -1.2531 -3.5725  1.5719
  786SOL     OW 2356   0.287   1.568   0.594 -0.3073 -0.1668 -0.4171
  786SOL    HW1 2357   0.380   1.523   0.569  0.8694 -4.2315 -0.3285
  786SOL    HW2 2358   0.226   1.567   0.508 -6.2659  2.2569 -2.7281
  787SOL     OW 2359   1.652   1.707   0.350 -0.1321  0.2447 -0.7182
  787SOL    HW1 2360   1.671   1.713   0.449  0.2964  0.2270 -0.6725
  787SOL    HW2 2361   1.731   1.734   0.295 -0.3136 -1.5591  2.0390
  788SOL     OW 2362   1.817   1.465   1.421 -0.2660  0.0973 -0.8175
  788SOL    HW1 2363   1.780   1.493   1.512 -0.9785 -2.1857  1.5471
  788SOL    HW2 2364   1.759   1.497   1.340 -1.0493 -1.2109 -2.5976
  789SOL     OW 2365   2.945   1.349   1.903 -0.4993 -0.0322 -0.2433
  789SOL    HW1 2366   2.904   1.441   1.902 -2.2283  0.9936  1.4663
  789SOL    HW2 2367   2.998   1.340   1.991 -1.6665 -0.1775  4.5982
  790SOL     OW 2368   0.317   2.855   2.922 -0.2373 -0.5559 -0.3293
  790SOL    HW1 2369   0.342   2.797   3.004  0.2598 -2.7594  3.9257
  790SOL    HW2 2370   0.358   2.820   2.834  1.1635  0.0372  0.6906
  791SOL     OW 2371   0.602   0.097   2.382  0.7330  0.4214 -0.4459
  791SOL    HW1 2372   0.577   0.190   2.355 -1.8667 -0.5263  2.3270
  791SOL    HW2 2373   0.543   0.064   2.459 -1.0362 -1.6581  1.8131
  792SOL     OW 2374   1.946   0.522   2.579  0.1593  0.1106  0.0971
  792SOL    HW1 2375   1.925   0.506   2.680 -0.0394  0.3467  1.4604
  792SOL    HW2 2376   1.903   0.609   2.554 -2.3372 -2.5011 -1.9070
  793SOL     OW 2377   0.071   0.522   1.145  0.1935  0.0093 -0.2209
  793SOL    HW1 2378   0.042   0.465   1.224  0.4602  0.6602 -0.0449
  793SOL    HW2 2379   0.097   0.610   1.190  0.8420 -2.3351 -0.5874
  794SOL     OW 2380   0.572   0.572   2.209  0.2095 -0.0905  0.2883
  794SOL    HW1 2381   0.653   0.633   2.228  1.3058  1.9218  1.0331
  794SOL    HW2 2382   0.527   0.585   2.118  0.3931  1.6111 -0.3628
  795SOL     OW 2383   0.117   1.334   0.257 -0.1572  0.1589 -0.4464
  795SOL    HW1 2384   0.037   1.308   0.196  3.7193 -1.2110 -3.4511
  795SOL    HW2 2385   0.103   1.296   0.350  2.8506 -2.7448 -1.3427
  796SOL     OW 2386   0.018   2.953   0.537  0.7062  0.2711 -0.0728
  796SOL    HW1 2387   0.042   2.874   0.477 -0.1470  2.1008 -1.9037
  796SOL    HW2 2388   0.100   3.015   0.541 -0.8393  2.1079 -1.8026
  797SOL     OW 2389   1.890   2.563   2.114  0.4821 -0.0250 -0.3476
  797SOL    HW1 2390   1.944   2.509   2.046 -0.1513 -1.1106  0.6729
  797SOL    HW2 2391   1.944   2.638   2.157 -1.0291  2.5200  0.6935
  798SOL     OW 2392   0.113   1.098   0.859  0.0874  0.6107 -0.0293
  798SOL    HW1 2393   0.181   1.125   0.788 -1.3345  1.3819  2.6017
  798SOL    HW2 2394   0.087   0.999   0.857  2.0288 -3.0738 -0.7128
  799SOL     OW 2395   2.846   0.609   2.723  0.6732  0.1784 -0.1806
  799SOL    HW1 2396   2.888   0.571   2.641  1.4589  1.4612 -0.6980
  799SOL    HW2 2397   2.844   0.708   2.718  2.2234 -1.3255  2.1023
  800SOL     OW 2398   2.863   1.994   0.288 -0.0523  0.1102  0.1675
  800SOL    HW1 2399   2.900   1.979   0.380  2.3059  0.2405 -2.8826
  800SOL    HW2 2400   2.928   1.953   0.221 -0.1956 -0.9626 -1.1427
  801SOL     OW 2401   1.256   1.372   0.953 -1.0132 -0.2798 -0.0198
  801SOL    HW1 2402   1.333   1.419   0.902  1.2722  2.2661  0.9897
  801SOL    HW2 2403   1.240   1.408   1.046  1.0063 -3.2622  0.5281
  802SOL     OW 2404   1.136   1.784   1.939  0.2619  0.5564  0.2128
  802SOL    HW1 2405   1.218   1.842   1.950 -1.1612 -0.9068 -1.6658
  802SOL    HW2 2406   1.054   1.821   1.993 -1.5879 -0.6358  0.3459
  803SOL     OW 2407   0.206   1.541   0.846  0.3895  0.2340  0.0442
  803SOL    HW1 2408   0.119   1.586   0.871 -2.3189  4.3356  0.4041
  803SOL    HW2 2409   0.228   1.545   0.749  1.2554 -0.7747  2.0302
  804SOL     OW 2410   1.103   2.318   1.435 -0.2800  0.5624  0.6151
  804SOL    HW1 2411   1.175   2.288   1.367  6.3974  0.1798 -1.5867
  804SOL    HW2 2412   1.011   2.277   1.414  0.0452  4.2247  0.2026
  805SOL     OW 2413   2.043   1.506   3.068  0.2038 -0.3587 -0.0091
  805SOL    HW1 2414   2.087   1.597   3.068 -0.7689 -0.6690  0.5315
  805SOL    HW2 2415   1.946   1.519   3.037  0.7938 -0.5985 -0.6734
  806SOL     OW 2416   1.686   2.512   1.295 -0.0294  0.2555  0.4901
  806SOL    HW1 2417   1.776   2.502   1.334  0.3254 -0.8781 -0.8988
  806SOL    HW2 2418   1.640   2.602   1.315 -2.6363  0.7731 -0.2771
  807SOL     OW 2419   2.778   0.676   3.022 -0.0565 -0.5663  0.1254
  807SOL    HW1 2420   2.813   0.768   3.031  0.6053 -1.0993  2.2653
  807SOL    HW2 2421   2.821   0.632   2.942  1.0637  1.6342  0.9212
  808SOL     OW 2422   0.286   1.196   0.662  0.2286 -0.9564  0.9389
  808SOL    HW1 2423   0.349   1.120   0.663 -2.0058  0.6744 -0.3624
  808SOL    HW2 2424   0.332   1.280   0.625  0.6985 -0.7712 -3.6380
  809SOL     OW 2425   2.700   0.820   2.392 -0.2666 -1.3404 -0.3432
  809SOL    HW1 2426   2.612   0.871   2.385 -0.5333  0.9586  2.5037
  809SOL    HW2 2427   2.763   0.858   2.319  0.1703  0.4171 -0.9121
  810SOL     OW 2428   1.508   0.464   1.493  0.1606 -0.5751  0.2020
  810SOL    HW1 2429   1.538   0.479   1.590 -2.3956  1.0095 -0.6258
  810SOL    HW2 2430   1.430   0.401   1.482  2.0591 -0.4900  0.1011
  811SOL     OW 2431   1.834   2.733   1.433 -0.1296 -0.5570  0.3253
  811SOL    HW1 2432   1.852   2.636   1.449  0.9451  0.6304  1.1779
  811SOL    HW2 2433   1.911   2.772   1.375  3.2927  0.2243  1.9469
  812SOL     OW 2434   1.829   2.741   2.921  0.4297  0.1691  0.3414
  812SOL    HW1 2435   1.745   2.687   2.899 -1.7023  3.0343 -1.1145
  812SOL    HW2 2436   1.898   2.669   2.955  2.3452 -0.3479  1.9953
  813SOL     OW 2437   1.751   1.088   2.187  0.5939  0.2728  0.4929
  813SOL    HW1 2438   1.727   1.188   2.176 -3.8484 -1.1531  0.1385
  813SOL    HW2 2439   1.758   1.068   2.287 -0.5238  1.2965 -0.2936
  814SOL     OW 2440   1.247   0.401   1.909 -0.1683 -0.0516  0.0068
  814SOL    HW1 2441   1.244   0.345   1.995  0.9283 -0.9605  0.4610
  814SOL    HW2 2442   1.179   0.475   1.901 -1.8820  0.7868  0.7924
  815SOL     OW 2443   0.484   0.661   0.306 -0.0673  0.0538  0.4971
  815SOL    HW1 2444   0.566   0.700   0.349 -2.5367 -3.6258 -0.7076
  815SOL    HW2 2445   0.398   0.701   0.343  1.7680  2.5370  3.5190
  816SOL     OW 2446   2.388   1.866   2.635  0.0768 -0.2810 -0.3268
  816SOL    HW1 2447   2.292   1.883   2.655  4.0407  0.0269 -0.9280
  816SOL    HW2 2448   2.446   1.950   2.631 -0.8763  2.8620 -0.0672
  817SOL     OW 2449   0.472   2.442   0.539  0.1527 -0.3113 -0.1619
  817SOL    HW1 2450   0.522   2.368   0.589  2.6158 -1.4609  2.2047
  817SOL    HW2 2451   0.374   2.452   0.571 -1.8240 -0.0578  0.7356
  818SOL     OW 2452   1.822   0.103   2.901 -0.1298 -0.2325 -0.2121
  818SOL    HW1 2453   1.872   0.058   2.825 -0.0550  0.5737  1.9476
  818SOL    HW2 2454   1.728   0.065   2.908 -2.1842 -0.9665  0.4058
  819SOL     OW 2455   1.670   0.343   0.194  0.4299 -0.0150  0.2657
  819SOL    HW1 2456   1.576   0.307   0.186 -0.0763 -2.6584 -1.8732
  819SOL    HW2 2457   1.677   0.437   0.241 -1.2260  2.7450 -0.3594
  820SOL     OW 2458   1.604   0.801   0.397 -0.4677  0.1660 -0.0757
  820SOL    HW1 2459   1.509   0.763   0.404  0.6084 -0.9098  2.7714
  820SOL    HW2 2460   1.644   0.818   0.489  0.3782 -2.5736 -1.0441
  821SOL     OW 2461   2.527   2.720   0.349 -0.0204 -0.6431 -0.5167
  821SOL    HW1 2462   2.503   2.698   0.251 -0.4240  1.0208  0.9536
  821SOL    HW2 2463   2.618   2.771   0.354  2.6963  1.3400 -0.1695
  822SOL     OW 2464   0.070   2.845   1.956 -0.1247  0.4202 -0.0494
  822SOL    HW1 2465   0.040   2.941   1.936  1.7483 -1.6785 -0.5823
  822SOL    HW2 2466   0.130   2.807   1.879 -0.4846  0.4144 -2.5307
  823SOL     OW 2467   2.612   1.699   1.557 -0.1918 -0.2826 -0.1302
  823SOL    HW1 2468   2.557   1.610   1.569 -1.8824 -4.3184  2.0933
  823SOL    HW2 2469   2.567   1.770   1.499 -2.6898 -1.2348  1.1196
  824SOL     OW 2470   1.281   2.849   2.425 -0.0848  0.0992  0.3780
  824SOL    HW1 2471   1.297   2.800   2.337 -1.5388 -0.3141  0.0421
  824SOL    HW2 2472   1.373   2.859   2.469 -2.0797 -0.5447  1.3828
  825SOL     OW 2473   1.724   1.300   0.594 -0.1281 -0.1500  0.2957
  825SOL    HW1 2474   1.711   1.201   0.611 -1.3324  0.0026  0.5350
  825SOL    HW2 2475   1.638   1.355   0.599  1.2283  2.4293 -1.1161
  826SOL     OW 2476   1.906   0.685   0.033 -0.2508  0.0971  0.2433
  826SOL    HW1 2477   1.979   0.762   0.033  0.4911  1.8103 -1.6973
  826SOL    HW2 2478   1.945   0.592   0.047  0.7083  2.6976  0.8583
  827SOL     OW 2479   0.591   1.091   1.540 -0.2209 -0.1721 -0.2207
  827SOL    HW1 2480   0.497   1.130   1.548  1.0219 -2.1678 -2.4862
  827SOL    HW2 2481   0.626   1.123   1.450  1.4158 -2.0365 -0.7880
  828SOL     OW 2482   1.920   1.544   1.728  0.7008 -0.1477  0.8311
  828SOL    HW1 2483   1.850   1.615   1.702  0.1211  0.4054 -1.0488
  828SOL    HW2 2484   1.994   1.584   1.783  0.8380 -0.1343  3.2669
  829SOL     OW 2485   2.973   1.812   0.086 -0.5250  0.8479 -0.2943
  829SOL    HW1 2486   2.959   1.790   3.084  1.3443  0.2430  0.1870
  829SOL    HW2 2487   3.068   1.803   0.118 -0.8659  0.4472 -0.3090
  830SOL     OW 2488   1.373   0.739   0.651 -0.2974 -0.3877  0.7910
  830SOL    HW1 2489   1.421   0.669   0.702 -0.9079 -2.4992  0.6599
  830SOL    HW2 2490   1.287   0.748   0.701 -0.7732 -0.6087  3.0451
  831SOL     OW 2491   2.738   1.433   0.145 -0.3214 -0.1277  0.0136
  831SOL    HW1 2492   2.683   1.418   0.057 -2.1632  1.1450 -3.1884
  831SOL    HW2 2493   2.735   1.526   0.174 -0.4599 -3.9871 -0.6698
  832SOL     OW 2494   0.969   0.003   3.087  0.6030 -0.7074  0.2567
  832SOL    HW1 2495   0.870   0.004   0.016  1.1707 -0.0637  0.7135
  832SOL    HW2 2496   1.002   0.101   3.093  0.5121  1.8229 -0.0960
  833SOL     OW 2497   1.287   0.780   2.082 -0.1461 -0.1167  1.0967
  833SOL    HW1 2498   1.345   0.725   2.141 -1.0633  1.8665 -1.9318
  833SOL    HW2 2499   1.250   0.862   2.129  2.8306  1.8095 -0.3811
  834SOL     OW 2500   0.169   0.758   1.253  0.5717 -0.1237 -0.2278
  834SOL    HW1 2501   0.218   0.830   1.201 -2.5437 -0.3392  0.5115
  834SOL    HW2 2502   0.211   0.737   1.345  0.6914 -2.0096  0.5179
  835SOL     OW 2503   3.069   0.390   1.361 -0.4537  0.3095  0.3059
  835SOL    HW1 2504   2.996   0.332   1.403 -1.3089  0.5059 -1.0460
  835SOL    HW2 2505   0.060   0.361   1.395 -2.7382  1.5001 -3.5638
  836SOL     OW 2506   0.477   2.098   0.259  0.2433  0.2586 -0.3023
  836SOL    HW1 2507   0.547   2.089   0.330 -1.8889  0.2310  0.0893
  836SOL    HW2 2508   0.493   2.175   0.191 -1.7577 -0.1580 -1.7308
  837SOL     OW 2509   1.805   1.814   2.457 -0.0861  0.1275 -0.1463
  837SOL    HW1 2510   1.831   1.889   2.521  1.3781  0.0356  0.0560
  837SOL    HW2 2511   1.883   1.751   2.440 -0.3684 -0.5026  0.4595
  838SOL     OW 2512   0.267   1.125   1.847 -0.0297 -0.6255  0.4249
  838SOL    HW1 2513   0.253   1.153   1.947  1.5583  1.1422  2.0910
  838SOL    HW2 2514   0.178   1.086   1.817 -2.7515 -3.0594 -1.3953
  839SOL     OW 2515   0.271   0.504   0.657 -0.1390 -0.6302  0.6366
  839SOL    HW1 2516   0.273   0.534   0.755 -2.0509 -1.5089  0.7614
  839SOL    HW2 2517   0.344   0.436   0.634  1.0274  0.6265  2.1736
  840SOL     OW 2518   2.884   0.316   2.637 -0.3226  1.0823 -0.3864
  840SOL    HW1 2519   2.931   0.235   2.669 -0.4459 -0.2839  2.2246
  840SOL    HW2 2520   2.787   0.301   2.628  5.1123  0.9286 -2.9522
  841SOL     OW 2521   0.739   2.445   2.903  0.3796  0.4330 -0.7012
  841SOL    HW1 2522   0.812   2.488   2.961  0.9552 -0.5457 -1.9126
  841SOL    HW2 2523   0.776   2.354   2.864  0.7228 -1.4814 -0.9446
  842SOL     OW 2524   0.686   2.929   1.144 -0.0523  0.0500  0.2797
  842SOL    HW1 2525   0.630   3.005   1.101 -1.4976 -1.6077  0.9735
  842SOL    HW2 2526   0.725   2.877   1.071 -1.1717  0.1680  0.7790
  843SOL     OW 2527   0.158   0.917   0.196  0.6781  0.1288 -0.7162
  843SOL    HW1 2528   0.072   0.894   0.249 -0.9189  0.6073  0.0638
  843SOL    HW2 2529   0.238   0.930   0.258 -1.0257  1.3335  2.0295
  844SOL     OW 2530   1.278   2.527   2.592 -0.2706  0.0139 -0.5456
  844SOL    HW1 2531   1.287   2.435   2.548  3.7977  2.9449 -0.8282
  844SOL    HW2 2532   1.278   2.602   2.521 -0.4981 -1.2072 -2.5052
  845SOL     OW 2533   2.220   2.979   2.776  0.0480  0.0261  0.3596
  845SOL    HW1 2534   2.273   3.059   2.806 -1.0039  1.9429 -0.0805
  845SOL    HW2 2535   2.273   2.932   2.699 -0.3372 -2.2550  1.2713
  846SOL     OW 2536   2.021   1.642   2.421  0.3367  1.1731 -0.1930
  846SOL    HW1 2537   2.103   1.653   2.358  0.0957  2.0721 -1.1688
  846SOL    HW2 2538   2.044   1.597   2.511 -2.1344  1.2686  0.9534
  847SOL     OW 2539   2.739   2.907   2.998  0.0233 -0.3475 -0.2395
  847SOL    HW1 2540   2.649   2.954   3.002 -0.6459 -0.1260 -0.7160
  847SOL    HW2 2541   2.823   2.969   2.998  3.0056  1.0547 -0.7427
  848SOL     OW 2542   0.416   0.384   0.263  0.2286  0.0867  0.1303
  848SOL    HW1 2543   0.316   0.379   0.250  0.5448 -1.4057  0.6974
  848SOL    HW2 2544   0.448   0.484   0.287  2.8506  3.8061  0.1897
  849SOL     OW 2545   1.500   3.062   2.280 -0.3450 -0.4597  0.8637
  849SOL    HW1 2546   1.578   3.002   2.282  0.4550  0.9409 -2.2171
  849SOL    HW2 2547   1.501   0.043   2.350  0.5914  4.4235  0.6535
  850SOL     OW 2548   0.748   0.944   0.567  0.1733 -0.3476 -0.3677
  850SOL    HW1 2549   0.845   0.907   0.556  4.0789 -0.4933 -1.4053
  850SOL    HW2 2550   0.732   0.991   0.660 -3.4386 -0.5865  0.8642
  851SOL     OW 2551   0.346   1.289   0.113 -0.3031  0.0464  0.4775
  851SOL    HW1 2552   0.420   1.330   0.171  4.4588  1.6472 -0.4395
  851SOL    HW2 2553   0.256   1.314   0.154 -0.1474 -1.3949 -2.4631
  852SOL     OW 2554   1.239   0.296   2.159  0.3353  1.3985 -0.8798
  852SOL    HW1 2555   1.318   0.246   2.132 -2.3703  0.5224  0.5433
  852SOL    HW2 2556   1.166   0.229   2.182 -2.3772  1.3816  1.3683
  853SOL     OW 2557   2.707   1.222   0.333 -0.7097 -0.7013  0.0119
  853SOL    HW1 2558   2.761   1.250   0.414 -0.8479  1.4459  1.7214
  853SOL    HW2 2559   2.719   1.296   0.260  4.5732  0.9940 -1.0241
  854SOL     OW 2560   1.130   1.256   2.316 -0.6759  0.1579 -0.0871
  854SOL    HW1 2561   1.082   1.188   2.372  0.3226  0.5353 -0.3080
  854SOL    HW2 2562   1.202   1.308   2.368 -0.9923 -0.4941  2.4076
  855SOL     OW 2563   0.026   2.875   2.894 -0.5912 -0.2559  0.0426
  855SOL    HW1 2564   0.128   2.868   2.897  1.1566 -1.5967  2.0654
  855SOL    HW2 2565   3.075   2.830   2.975  0.0082  1.7139 -0.1371
  856SOL     OW 2566   1.443   0.999   2.368 -0.2756  0.0109  0.0673
  856SOL    HW1 2567   1.379   1.025   2.289 -2.7958  2.9589 -2.5727
  856SOL    HW2 2568   1.411   0.917   2.416  2.1900 -0.8799 -0.3345
  857SOL     OW 2569   1.327   0.770   2.493 -0.5993  0.2232 -0.5696
  857SOL    HW1 2570   1.408   0.717   2.468 -1.8034  0.3095 -0.9685
  857SOL    HW2 2571   1.239   0.720   2.472  1.4071  0.8175  1.6681
  858SOL     OW 2572   3.050   1.295   2.167  0.2056  0.6873 -0.0477
  858SOL    HW1 2573   2.984   1.365   2.191 -1.4668 -2.3020  3.2269
  858SOL    HW2 2574   3.020   1.210   2.217 -1.6305 -2.0908 -0.1817
  859SOL     OW 2575   2.281   0.243   0.801  0.0126 -0.1810  0.5135
  859SOL    HW1 2576   2.277   0.271   0.898 -1.6058  1.0252  1.1619
  859SOL    HW2 2577   2.358   0.181   0.789 -0.1526  3.1124  1.6332
  860SOL     OW 2578   1.687   3.074   0.292 -0.0166 -0.4210  0.5820
  860SOL    HW1 2579   1.753   0.043   0.339 -2.9635  0.2284  0.4972
  860SOL    HW2 2580   1.709   2.975   0.301 -0.6496  6.0282  0.9773
  861SOL     OW 2581   1.209   0.486   1.273  0.4235  0.1946 -0.3729
  861SOL    HW1 2582   1.251   0.425   1.342 -1.5618  0.7489  0.1354
  861SOL    HW2 2583   1.108   0.489   1.289 -1.2962  0.4039 -0.8614
  862SOL     OW 2584   1.457   0.169   2.464 -0.0520 -0.1415  0.3165
  862SOL    HW1 2585   1.505   0.144   2.554 -0.7687 -0.7874  0.1220
  862SOL    HW2 2586   1.362   0.130   2.468  1.0381  1.9313 -1.3264
  863SOL     OW 2587   2.648   2.347   0.619  0.0089  0.3160  0.5146
  863SOL    HW1 2588   2.564   2.392   0.582 -1.5899  0.1479 -2.4015
  863SOL    HW2 2589   2.693   2.296   0.543  0.5904  1.9319 -0.5562
  864SOL     OW 2590   2.441   0.141   2.281 -0.1380  0.0474  0.3991
  864SOL    HW1 2591   2.410   0.238   2.283  0.7228  1.2232 -0.8168
  864SOL    HW2 2592   2.530   0.132   2.329 -0.0773 -0.4948 -0.8481
  865SOL     OW 2593   1.346   1.094   1.872 -0.3934 -0.0968  0.3114
  865SOL    HW1 2594   1.271   1.150   1.827 -3.0697  0.5346 -0.8621
  865SOL    HW2 2595   1.432   1.147   1.865 -0.1801  0.0223  1.3143
  866SOL     OW 2596   1.751   2.582   0.948 -0.3498 -0.8511 -0.4464
  866SOL    HW1 2597   1.711   2.511   1.005  1.1978  0.7829  0.5470
  866SOL    HW2 2598   1.681   2.644   0.904 -2.0602  2.5163 -0.0015
  867SOL     OW 2599   2.275   3.001   0.375 -0.1047 -0.1623  0.2596
  867SOL    HW1 2600   2.364   2.972   0.413 -0.4523  2.2862  0.9686
  867SOL    HW2 2601   2.260   0.004   0.386 -0.4739 -2.5136 -2.3537
  868SOL     OW 2602   0.195   2.375   1.990  0.3170 -0.0010 -0.0922
  868SOL    HW1 2603   0.268   2.410   1.931 -3.8038  2.7232  0.8466
  868SOL    HW2 2604   0.158   2.446   2.054 -2.7640  2.4625 -2.3200
  869SOL     OW 2605   2.219   2.390   2.086  0.8453 -0.0221 -0.0679
  869SOL    HW1 2606   2.137   2.332   2.108 -2.6985  0.2652 -1.6135
  869SOL    HW2 2607   2.293   2.376   2.161 -1.2353 -2.6737 -0.6770
  870SOL     OW 2608   1.473   1.513   0.845 -0.5436 -0.5044 -0.1861
  870SOL    HW1 2609   1.499   1.488   0.750 -2.7898 -0.7522 -0.1861
  870SOL    HW2 2610   1.547   1.479   0.909  1.3676  0.4876  0.9866
  871SOL     OW 2611   3.025   1.725   1.705  0.1035  0.3795  0.0392
  871SOL    HW1 2612   0.022   1.711   1.667  2.2244 -0.3494  0.6209
  871SOL    HW2 2613   2.952   1.698   1.640  0.4276  2.7061  0.2942
  872SOL     OW 2614   0.705   1.804   2.506  0.2083 -0.1487 -0.3431
  872SOL    HW1 2615   0.735   1.841   2.598  3.7394 -0.0505  0.3420
  872SOL    HW2 2616   0.696   1.890   2.445  0.1923 -0.2778 -0.9909
  873SOL     OW 2617   0.772   1.710   1.973  0.2593 -0.6807  0.2027
  873SOL    HW1 2618   0.838   1.780   2.004  1.8426 -0.7821  0.6855
  873SOL    HW2 2619   0.788   1.617   2.015  0.3528 -2.8397  0.6408
  874SOL     OW 2620   1.669   0.805   2.149  0.5824  0.1050  0.0482
  874SOL    HW1 2621   1.640   0.787   2.052  2.3110  1.2106 -1.8644
  874SOL    HW2 2622   1.708   0.899   2.147 -0.7177 -0.5339 -3.2726
  875SOL     OW 2623   3.085   0.038   0.217 -0.4689  0.1291 -0.1947
  875SOL    HW1 2624   0.030   3.038   0.235 -0.6891 -0.2335 -0.8865
  875SOL    HW2 2625   0.019   0.100   0.292  0.2848  1.4876 -1.2604
  876SOL     OW 2626   0.757   1.261   0.273  0.1044  0.0281 -0.0269
  876SOL    HW1 2627   0.791   1.169   0.237 -0.8208 -1.9001  2.1687
  876SOL    HW2 2628   0.807   1.277   0.360 -1.8110 -0.5752 -2.6424
  877SOL     OW 2629   2.506   2.875   0.601 -0.0095 -0.3715  0.0722
  877SOL    HW1 2630   2.482   2.810   0.530  1.5456  2.8168 -0.5474
  877SOL    HW2 2631   2.430   2.908   0.659  1.7098 -1.2208  0.3158
  878SOL     OW 2632   1.768   1.707   0.601 -0.0853  0.6373  0.6623
  878SOL    HW1 2633   1.833   1.767   0.552 -0.5266  2.0635  0.2656
  878SOL    HW2 2634   1.824   1.640   0.657  1.1658 -0.4245  0.0872
  879SOL     OW 2635   2.312   1.607   1.221 -0.0239  0.2419 -0.1251
  879SOL    HW1 2636   2.283   1.553   1.143  2.1535  1.0639  3.6090
  879SOL    HW2 2637   2.413   1.623   1.214  0.7679  3.1736  0.1944
  880SOL     OW 2638   0.477   1.968   0.837  0.1042 -0.2519 -0.1093
  880SOL    HW1 2639   0.455   1.948   0.933  0.0824  0.3033  0.8416
  880SOL    HW2 2640   0.427   1.915   0.770  1.5049  1.4863  1.7130
  881SOL     OW 2641   0.678   0.553   0.896 -0.2442 -0.1314  0.4893
  881SOL    HW1 2642   0.709   0.650   0.898  0.2392 -0.6004 -4.2205
  881SOL    HW2 2643   0.660   0.542   0.795 -0.8213  1.8437  1.7332
  882SOL     OW 2644   2.534   1.063   0.794 -0.4888  0.2127 -0.2628
  882SOL    HW1 2645   2.559   1.071   0.696  0.3863  0.3101 -0.8797
  882SOL    HW2 2646   2.493   0.973   0.807  0.0525  2.6018  0.0803
  883SOL     OW 2647   1.902   0.144   1.898  0.0505  0.1459  0.2153
  883SOL    HW1 2648   1.894   0.107   1.989  2.4778  1.2455 -0.7334
  883SOL    HW2 2649   1.840   0.098   1.835 -2.5198 -0.4674  2.2964
  884SOL     OW 2650   2.934   0.252   1.559  0.2813 -0.0755 -0.7189
  884SOL    HW1 2651   3.016   0.234   1.620  1.4829  0.3784  0.2578
  884SOL    HW2 2652   2.875   0.327   1.594  0.3894 -0.7733 -0.8916
  885SOL     OW 2653   1.343   1.390   2.883 -0.0216 -0.3905 -0.1871
  885SOL    HW1 2654   1.239   1.391   2.889 -2.6365  0.9468  0.8979
  885SOL    HW2 2655   1.376   1.404   2.789 -2.2890  0.1759 -0.3052
  886SOL     OW 2656   1.911   0.488   2.837  0.2497  0.4936  0.2804
  886SOL    HW1 2657   1.860   0.439   2.909 -1.1908  2.0171 -0.6869
  886SOL    HW2 2658   1.963   0.566   2.872  0.0149  1.6494 -0.8854
  887SOL     OW 2659   1.705   0.043   1.724 -0.2700 -0.3207  0.1872
  887SOL    HW1 2660   1.702   0.100   1.641  0.6923 -2.1923  2.3485
  887SOL    HW2 2661   1.751   3.049   1.708  0.5054  1.7674  0.5951
  888SOL     OW 2662   2.121   1.716   1.826  0.0748 -0.2676 -0.5843
  888SOL    HW1 2663   2.126   1.758   1.733 -0.2187  0.1507  0.0624
  888SOL    HW2 2664   2.145   1.784   1.899 -1.7102  1.5271  0.1777
  889SOL     OW 2665   1.795   2.252   0.465 -0.3449 -0.0243 -0.1495
  889SOL    HW1 2666   1.770   2.168   0.417  2.1289  2.9980  1.1789
  889SOL    HW2 2667   1.898   2.270   0.455  3.2694  4.0654 -0.6108
  890SOL     OW 2668   1.065   2.040   0.461 -0.6356  0.4427 -0.0632
  890SOL    HW1 2669   1.038   2.033   0.558  1.8879  1.8974  0.2427
  890SOL    HW2 2670   1.158   2.004   0.439  0.6144  0.5923  1.3135
  891SOL     OW 2671   2.804   0.920   0.080  0.7253 -0.3044  0.4526
  891SOL    HW1 2672   2.850   0.871   0.156 -0.6472 -0.3892 -0.1778
  891SOL    HW2 2673   2.709   0.936   0.111 -0.1979 -1.5719 -0.3409
  892SOL     OW 2674   1.684   0.685   2.621 -0.0007  0.7621 -0.0521
  892SOL    HW1 2675   1.661   0.614   2.689  1.5509  1.6311 -1.6570
  892SOL    HW2 2676   1.627   0.672   2.534  1.4083 -1.0957  1.0339
  893SOL     OW 2677   1.455   2.809   1.611  0.5351 -0.4006  0.5100
  893SOL    HW1 2678   1.486   2.891   1.563 -3.3877 -0.0598  0.5501
  893SOL    HW2 2679   1.495   2.811   1.706 -0.7626  1.6738  2.1108
  894SOL     OW 2680   2.847   2.961   0.538  1.0518 -0.4370  0.2307
  894SOL    HW1 2681   2.948   2.959   0.552  2.2248  0.1354  0.3628
  894SOL    HW2 2682   2.799   2.920   0.622 -0.0391  0.6610 -0.3918
  895SOL     OW 2683   2.018   2.562   0.018 -0.1372  0.4701 -0.1032
  895SOL    HW1 2684   2.061   2.586   3.023  2.9244  0.2128 -1.3834
  895SOL    HW2 2685   2.090   2.561   0.092  1.8723 -0.9454 -0.9167
  896SOL     OW 2686   2.229   3.060   2.258 -0.3755  0.6120  0.1628
  896SOL    HW1 2687   2.156   0.025   2.226  1.1203 -1.7439  0.1405
  896SOL    HW2 2688   2.316   0.018   2.255  2.6189 -1.5947  0.8064
  897SOL     OW 2689   0.374   1.515   1.617  0.2039  0.5910  0.3640
  897SOL    HW1 2690   0.413   1.517   1.710 -2.2230 -1.9740  1.2185
  897SOL    HW2 2691   0.441   1.544   1.546 -2.1593 -1.6386  3.1222
  898SOL     OW 2692   2.203   1.824   1.595 -0.0827 -0.7077 -0.1813
  898SOL    HW1 2693   2.152   1.746   1.556 -0.7558  1.9839  2.3338
  898SOL    HW2 2694   2.287   1.854   1.539 -2.0670  4.5837 -2.7370
  899SOL     OW 2695   1.669   2.362   1.073 -0.5975 -0.7392 -0.2740
  899SOL    HW1 2696   1.572   2.367   1.050  1.6922 -1.0070 -0.8364
  899SOL    HW2 2697   1.681   2.412   1.165 -1.9955  2.4823  0.4590
  900SOL     OW 2698   1.211   0.694   2.976  0.1494  0.8490  0.2755
  900SOL    HW1 2699   1.305   0.656   2.977  1.5632 -1.4637 -1.3810
  900SOL    HW2 2700   1.220   0.794   2.990 -0.4620  1.0081 -1.6380
  901SOL     OW 2701   1.527   1.763   2.614 -0.0196 -0.2798 -0.6337
  901SOL    HW1 2702   1.575   1.764   2.526 -1.4639  3.1367  2.9755
  901SOL    HW2 2703   1.435   1.807   2.603  0.8328  2.4676  1.0748
  902SOL     OW 2704   3.054   2.566   2.971  0.1984 -0.3545 -0.1887
  902SOL    HW1 2705   3.087   2.624   3.049  0.3951  0.5159  1.0254
  902SOL    HW2 2706   3.061   2.470   2.993 -2.8454  1.9635  2.2474
  903SOL     OW 2707   2.276   0.879   2.031 -0.0487  0.3383 -0.2664
  903SOL    HW1 2708   2.298   0.808   2.098  0.7525 -0.1976 -1.5118
  903SOL    HW2 2709   2.289   0.970   2.075  1.0071 -0.7400 -2.2569
  904SOL     OW 2710   1.598   0.462   2.769  0.0909  0.4478 -0.4330
  904SOL    HW1 2711   1.521   0.408   2.736 -1.1069  0.7821  1.1037
  904SOL    HW2 2712   1.648   0.416   2.843 -0.1554  2.9112  0.4823
  905SOL     OW 2713   2.189   2.456   1.257  0.1499 -0.0909 -0.0315
  905SOL    HW1 2714   2.220   2.552   1.273 -2.2368 -1.3247 -0.4334
  905SOL    HW2 2715   2.160   2.440   1.159 -1.8819  0.0827 -3.7113
  906SOL     OW 2716   1.545   2.006   0.171  0.1006  0.0491 -0.0267
  906SOL    HW1 2717   1.504   1.917   0.142 -0.8892  4.1033 -0.9329
  906SOL    HW2 2718   1.546   2.067   0.092 -0.8607  1.1874  3.0824
  907SOL     OW 2719   0.487   2.724   0.726  0.7300 -0.1600 -0.3867
  907SOL    HW1 2720   0.508   2.716   0.829  1.3441  0.4048  3.4177
  907SOL    HW2 2721   0.551   2.675   0.664 -0.0131 -1.7747  0.6293
  908SOL     OW 2722   1.333   2.759   1.943  0.0860  0.2890 -0.1260
  908SOL    HW1 2723   1.285   2.676   1.906 -1.7326 -1.1098  0.6745
  908SOL    HW2 2724   1.428   2.771   1.906  0.7875 -1.6702 -1.0411
  909SOL     OW 2725   2.067   0.544   1.286 -0.8245 -0.3897 -0.2886
  909SOL    HW1 2726   2.061   0.635   1.325  0.6319 -0.9206 -1.4277
  909SOL    HW2 2727   2.157   0.501   1.313  0.7936 -0.8418 -0.5818
  910SOL     OW 2728   1.220   0.972   2.987  0.3670  0.1184 -0.6112
  910SOL    HW1 2729   1.129   1.019   2.986 -2.6623  0.7387  0.0780
  910SOL    HW2 2730   1.260   0.953   2.894  0.0220 -2.1797 -0.7876
  911SOL     OW 2731   2.960   0.791   0.295 -0.3452  0.0437  0.2441
  911SOL    HW1 2732   2.979   0.698   0.336 -1.5563 -1.3751  1.8850
  911SOL    HW2 2733   2.950   0.858   0.366 -0.3426 -0.6133 -2.7158
  912SOL     OW 2734   3.083   2.301   3.076  0.0859  0.2422  0.1623
  912SOL    HW1 2735   0.060   2.236   3.041  2.0403  0.0767  0.1766
  912SOL    HW2 2736   0.004   2.316   0.081  2.4789 -1.4813 -0.6845
  913SOL     OW 2737   2.578   2.128   2.567 -0.7749 -0.3876  0.7821
  913SOL    HW1 2738   2.622   2.152   2.656  1.0833 -0.7711  0.6209
  913SOL    HW2 2739   2.638   2.061   2.518  2.5159 -1.3582 -2.7678
  914SOL     OW 2740   1.382   1.824   1.647  0.4816 -0.1911  0.1811
  914SOL    HW1 2741   1.389   1.833   1.543 -3.9750  0.0435 -4.5069
  914SOL    HW2 2742   1.356   1.728   1.674 -1.9818  0.3867 -0.6080
  915SOL     OW 2743   0.556   2.852   1.927 -0.2861  0.1605 -0.3033
  915SOL    HW1 2744   0.545   2.815   1.833  1.3238 -2.2100  2.4576
  915SOL    HW2 2745   0.528   2.947   1.938  2.5575 -0.2178  0.9696
  916SOL     OW 2746   0.658   1.027   1.814 -0.0455  0.0987  0.1757
  916SOL    HW1 2747   0.583   0.962   1.824 -1.5292 -1.1902 -2.5228
  916SOL    HW2 2748   0.659   1.058   1.717 -3.0443 -1.5350  1.6403
  917SOL     OW 2749   2.456   0.423   0.624  0.4802 -0.3823 -0.0768
  917SOL    HW1 2750   2.378   0.400   0.684  1.3782  0.6761  2.0362
  917SOL    HW2 2751   2.528   0.358   0.619 -4.1241  2.5370 -0.8694
  918SOL     OW 2752   1.674   2.777   2.085 -0.0575 -0.0882 -0.2740
  918SOL    HW1 2753   1.658   2.684   2.121 -2.5075  0.0800 -0.8231
  918SOL    HW2 2754   1.700   2.839   2.163  1.0296 -0.3854  1.7392
  919SOL     OW 2755   1.489   2.527   1.806 -0.5883 -0.0853  0.0844
  919SOL    HW1 2756   1.519   2.574   1.722  0.5197 -0.6123 -0.6769
  919SOL    HW2 2757   1.392   2.537   1.828 -1.7650 -0.0384 -0.4152
  920SOL     OW 2758   0.866   0.994   2.811 -0.3755  0.1326 -0.4563
  920SOL    HW1 2759   0.801   1.053   2.757  0.9048 -0.3272 -0.6619
  920SOL    HW2 2760   0.819   0.924   2.870 -2.0241  0.2887 -1.5021
  921SOL     OW 2761   0.096   0.379   2.782 -0.5094  0.0974 -0.1511
  921SOL    HW1 2762   0.043   0.416   2.706  1.2646 -0.0803  1.7800
  921SOL    HW2 2763   0.190   0.354   2.749 -0.2833  1.5529 -0.6223
  922SOL     OW 2764   0.831   1.745   0.994 -0.4781  0.2972 -0.2439
  922SOL    HW1 2765   0.789   1.797   0.917  1.5448 -0.3513 -0.5364
  922SOL    HW2 2766   0.790   1.781   1.079 -1.0142 -1.1714 -0.9202
  923SOL     OW 2767   0.663   1.115   2.081 -0.1541 -0.5989  0.5737
  923SOL    HW1 2768   0.656   1.095   1.979 -2.2619  1.2851 -3.5516
  923SOL    HW2 2769   0.592   1.065   2.138 -1.2992  0.6632  1.7760
  924SOL     OW 2770   1.293   3.092   2.892  0.3916  0.3310 -0.2880
  924SOL    HW1 2771   1.268   2.997   2.919  0.7690 -0.1921  1.5438
  924SOL    HW2 2772   1.238   0.020   2.809  0.8052 -1.1035  0.9610
  925SOL     OW 2773   2.608   1.330   1.515  0.2028 -0.3594  0.4218
  925SOL    HW1 2774   2.648   1.291   1.599  1.5220 -0.1972  0.1032
  925SOL    HW2 2775   2.682   1.380   1.459  0.3326  1.3442 -3.1113
  926SOL     OW 2776   1.770   0.903   1.736 -0.4034 -0.0314  0.1301
  926SOL    HW1 2777   1.688   0.895   1.671 -0.5201  1.2841  0.6325
  926SOL    HW2 2778   1.860   0.910   1.691 -0.5608 -0.9654  2.2011
  927SOL     OW 2779   2.063   2.799   1.290 -0.5300  0.0580  0.0463
  927SOL    HW1 2780   2.161   2.762   1.298 -0.6746  0.4305 -0.9256
  927SOL    HW2 2781   2.064   2.893   1.253 -0.2997 -0.5094  1.0810
  928SOL     OW 2782   0.437   1.058   2.263 -0.2004 -0.1347 -0.5951
  928SOL    HW1 2783   0.385   1.123   2.321  1.7337  0.2706  4.4891
  928SOL    HW2 2784   0.393   0.966   2.272  1.3538 -2.2840  0.4403
  929SOL     OW 2785   2.637   0.527   0.984 -0.0971 -0.3062  0.3764
  929SOL    HW1 2786   2.593   0.439   1.012 -0.1113 -2.2112 -0.4636
  929SOL    HW2 2787   2.723   0.544   1.033  0.1055 -0.4670 -1.2624
  930SOL     OW 2788   2.829   2.715   1.637  0.5652 -0.1817  0.0851
  930SOL    HW1 2789   2.728   2.695   1.654 -3.3346  0.2528 -1.0467
  930SOL    HW2 2790   2.884   2.724   1.725 -2.1967  2.2080 -1.7037
  931SOL     OW 2791   1.745   0.814   0.907  0.4345  0.8756  0.2115
  931SOL    HW1 2792   1.660   0.772   0.944 -0.3900  1.8175  0.0114
  931SOL    HW2 2793   1.818   0.812   0.977 -0.8670 -0.0937 -0.1198
  932SOL     OW 2794   2.727   1.248   1.740 -0.3319  0.0810 -0.7900
  932SOL    HW1 2795   2.763   1.178   1.678  0.2402  2.0030 -1.2726
  932SOL    HW2 2796   2.793   1.274   1.814 -1.1211  2.8525  2.2073
  933SOL     OW 2797   2.947   2.340   1.480 -0.2016 -0.8861 -0.0678
  933SOL    HW1 2798   2.892   2.332   1.564  2.9770  1.4823 -0.3999
  933SOL    HW2 2799   2.885   2.333   1.399  2.5843 -0.4667 -0.3674
  934SOL     OW 2800   0.663   2.058   1.509  0.0100  0.0650  0.3137
  934SOL    HW1 2801   0.720   2.019   1.583 -2.0640  1.9908  1.7508
  934SOL    HW2 2802   0.567   2.064   1.539 -2.2486 -0.8543 -0.5937
  935SOL     OW 2803   2.588   1.677   1.835  0.0762  0.1602  0.3493
  935SOL    HW1 2804   2.489   1.645   1.822  1.7373 -0.2743  0.9259
  935SOL    HW2 2805   2.614   1.709   1.747 -0.0993 -3.5758  1.7680
  936SOL     OW 2806   2.359   1.564   1.783 -0.2593 -0.1239 -0.2020
  936SOL    HW1 2807   2.360   1.548   1.681  2.9276  0.0943 -1.5565
  936SOL    HW2 2808   2.267   1.580   1.825 -2.7022 -1.2822  2.7394
  937SOL     OW 2809   1.796   1.112   1.899  0.1371  0.0879 -0.4248
  937SOL    HW1 2810   1.741   1.091   1.984 -0.7878 -0.2150  3.3098
  937SOL    HW2 2811   1.802   1.027   1.839  0.0028  1.8026  5.1542
  938SOL     OW 2812   0.844   2.672   2.630 -0.2777  0.0600  0.5007
  938SOL    HW1 2813   0.772   2.683   2.703 -2.9729 -1.6954 -2.1315
  938SOL    HW2 2814   0.930   2.643   2.675  1.1911 -1.4192  0.7851
  939SOL     OW 2815   2.377   1.226   0.050  0.0471  0.0280  0.5614
  939SOL    HW1 2816   2.297   1.236   0.110  1.2873  1.0839  0.4353
  939SOL    HW2 2817   2.394   1.125   0.037  1.7546  1.7279  0.6675
  940SOL     OW 2818   1.288   1.896   0.427 -0.2830 -0.0862 -0.3487
  940SOL    HW1 2819   1.322   1.804   0.406 -1.3262  0.9661 -0.2532
  940SOL    HW2 2820   1.365   1.958   0.441 -3.0662  0.6093  2.4847
  941SOL     OW 2821   1.789   2.929   2.701 -0.5517  0.0361 -0.1701
  941SOL    HW1 2822   1.815   2.864   2.775 -2.3187  0.8998  1.5667
  941SOL    HW2 2823   1.872   2.989   2.683  0.7572  1.1487 -1.9792
  942SOL     OW 2824   0.779   2.419   0.529 -0.1773  0.3659 -0.1612
  942SOL    HW1 2825   0.802   2.516   0.510 -0.0174 -0.4222  1.8889
  942SOL    HW2 2826   0.844   2.373   0.596  0.8270 -0.9050  1.5538
  943SOL     OW 2827   2.058   0.357   1.819  0.0811  0.7479  0.3245
  943SOL    HW1 2828   2.011   0.273   1.853 -1.7663 -0.4438 -0.4000
  943SOL    HW2 2829   2.000   0.440   1.839  2.2709  0.3241 -1.5670
  944SOL     OW 2830   1.052   1.368   2.873  0.1054 -0.2127  0.7220
  944SOL    HW1 2831   0.976   1.438   2.878  0.0846  0.5273  1.2648
  944SOL    HW2 2832   1.061   1.327   2.781  2.0406 -1.2862  0.2188
  945SOL     OW 2833   3.022   2.209   1.131 -0.4237 -0.1067  0.6326
  945SOL    HW1 2834   2.950   2.284   1.128  0.4477 -0.5406  0.4411
  945SOL    HW2 2835   2.987   2.123   1.086 -1.0626  0.3057 -0.1915
  946SOL     OW 2836   0.691   1.137   2.671 -0.6946 -0.5522  0.1437
  946SOL    HW1 2837   0.720   1.140   2.576 -1.7808 -0.8542 -0.0295
  946SOL    HW2 2838   0.618   1.072   2.682  2.0169  1.1337  0.7167
  947SOL     OW 2839   2.354   0.250   1.812 -0.2057 -0.3628 -0.3286
  947SOL    HW1 2840   2.441   0.205   1.842 -0.5963 -2.5744  2.1861
  947SOL    HW2 2841   2.353   0.350   1.836 -1.1962  1.5499 -1.0975
  948SOL     OW 2842   0.040   1.917   0.954  0.3238 -0.4268 -0.1543
  948SOL    HW1 2843   0.057   1.879   1.047  1.1233 -0.6888  1.1775
  948SOL    HW2 2844   3.045   1.968   0.949 -1.0417 -0.0135 -2.4113
  949SOL     OW 2845   1.161   1.252   1.734  0.4226  0.7997  0.7796
  949SOL    HW1 2846   1.088   1.218   1.675  1.1101 -2.9359 -0.4384
  949SOL    HW2 2847   1.121   1.312   1.803  1.1002 -2.6378 -1.9906
  950SOL     OW 2848   0.251   0.964   1.069  0.0840 -0.4437  0.4382
  950SOL    HW1 2849   0.181   0.921   1.009  0.8366  0.9803  1.3691
  950SOL    HW2 2850   0.347   0.951   1.030 -1.8568  3.0824 -1.0126
  951SOL     OW 2851   0.356   1.758   2.249 -0.2146  0.5941 -0.0780
  951SOL    HW1 2852   0.275   1.797   2.204 -0.3775  0.9498  3.4758
  951SOL    HW2 2853   0.444   1.787   2.207  0.9308  0.3127 -0.9318
  952SOL     OW 2854   1.473   1.754   0.096 -0.1264 -0.3147  0.0367
  952SOL    HW1 2855   1.397   1.739   0.162  0.0762 -2.3480  0.8886
  952SOL    HW2 2856   1.465   1.689   0.017 -2.0183  0.2969  3.1589
  953SOL     OW 2857   0.980   0.640   3.090 -0.8204  0.1200 -0.4684
  953SOL    HW1 2858   1.074   0.654   3.053 -0.5086 -1.3047  3.3346
  953SOL    HW2 2859   0.907   0.663   3.026  0.2178 -1.9202 -1.0879
  954SOL     OW 2860   1.780   1.160   0.335  0.4296  0.1009 -0.2547
  954SOL    HW1 2861   1.850   1.226   0.367 -0.6649 -1.1262  4.0099
  954SOL    HW2 2862   1.685   1.202   0.335 -2.5565  2.7994  0.2604
  955SOL     OW 2863   2.512   1.793   0.054 -0.2343  0.1871  0.3547
  955SOL    HW1 2864   2.562   1.747   3.069  1.2646 -2.3042 -2.9108
  955SOL    HW2 2865   2.415   1.803   0.024 -3.4151 -0.3938 -2.7067
  956SOL     OW 2866   1.117   0.632   1.598 -0.2003 -0.4026  0.7951
  956SOL    HW1 2867   1.198   0.634   1.538  2.4460 -1.4766 -2.2181
  956SOL    HW2 2868   1.144   0.621   1.694 -0.4655  1.6357 -2.3653
  957SOL     OW 2869   1.543   0.987   1.605  0.2527  0.2121 -0.1309
  957SOL    HW1 2870   1.532   1.089   1.611  0.6716  1.5139  0.9532
  957SOL    HW2 2871   1.475   0.937   1.663  0.1728  0.1973  1.9513
  958SOL     OW 2872   0.426   1.838   0.597  0.3460 -0.3928 -0.0979
  958SOL    HW1 2873   0.376   1.753   0.591  0.0960  2.0686 -2.4083
  958SOL    HW2 2874   0.507   1.840   0.530  1.9213  0.4334 -2.8715
  959SOL     OW 2875   1.896   1.184   1.453  1.2615 -0.5737 -0.5971
  959SOL    HW1 2876   1.860   1.253   1.519  2.6729 -2.1974  0.6087
  959SOL    HW2 2877   1.827   1.159   1.381 -1.4400  1.8413 -1.2667
  960SOL     OW 2878   3.039   1.438   2.720 -1.0102  0.1120  0.6411
  960SOL    HW1 2879   3.057   1.450   2.818  1.2779  0.5427 -0.4098
  960SOL    HW2 2880   0.030   1.405   2.675 -1.0535 -2.5448  1.0370
  961SOL     OW 2881   1.055   1.328   0.752  0.4295 -0.0956  0.0976
  961SOL    HW1 2882   0.999   1.415   0.765 -1.6627  1.0013 -0.5799
  961SOL    HW2 2883   1.120   1.317   0.830  0.8646  1.3747 -1.6866
  962SOL     OW 2884   0.726   0.746   0.381 -0.6476 -0.6940 -0.0354
  962SOL    HW1 2885   0.765   0.663   0.431  2.2428 -1.6514  1.2377
  962SOL    HW2 2886   0.741   0.831   0.437  1.1451  1.4892 -3.3339
  963SOL     OW 2887   1.385   1.908   2.037  0.5227 -0.1765 -0.1560
  963SOL    HW1 2888   1.391   2.013   2.029  2.4501  2.1304 -1.1020
  963SOL    HW2 2889   1.477   1.871   2.049 -2.0713 -0.3315  0.3793
  964SOL     OW 2890   2.945   2.877   2.652  0.3010 -0.4965 -0.0381
  964SOL    HW1 2891   3.000   2.851   2.735  1.4425 -0.8477 -2.8573
  964SOL    HW2 2892   2.859   2.830   2.643  2.2191  0.2906 -1.4033
  965SOL     OW 2893   0.769   2.353   0.179 -0.1798 -0.4276  0.4111
  965SOL    HW1 2894   0.774   2.263   0.135 -0.9919  1.4647 -1.8695
  965SOL    HW2 2895   0.844   2.355   0.248 -2.0235  0.4836 -0.9886
  966SOL     OW 2896   2.915   1.734   2.915  0.0577  0.2094  0.1822
  966SOL    HW1 2897   2.815   1.723   2.903 -1.7646 -0.2412  1.3480
  966SOL    HW2 2898   2.949   1.644   2.953 -0.7781  0.6402  0.2285
  967SOL     OW 2899   2.139   2.768   2.950  0.4663  0.0653  0.3842
  967SOL    HW1 2900   2.159   2.859   2.911 -0.3766 -3.0813 -0.2719
  967SOL    HW2 2901   2.072   2.719   2.889 -1.5811  0.9402  1.3184
  968SOL     OW 2902   2.102   2.810   0.497  0.0160  0.1648  0.6946
  968SOL    HW1 2903   2.163   2.863   0.433  1.0659  2.3820 -0.6891
  968SOL    HW2 2904   2.092   2.866   0.581 -1.0686 -0.2133 -1.9530
  969SOL     OW 2905   0.725   1.172   2.391 -0.7238  0.3371  0.1379
  969SOL    HW1 2906   0.672   1.256   2.415  2.5331 -1.1028  0.1789
  969SOL    HW2 2907   0.675   1.120   2.322  0.3302  1.0156 -1.1155
  970SOL     OW 2908   1.665   1.355   0.972 -0.2283 -0.2380 -0.1301
  970SOL    HW1 2909   1.590   1.293   0.944 -2.0361  1.4512  1.1761
  970SOL    HW2 2910   1.754   1.304   0.973  2.2746  0.9882  0.3566
  971SOL     OW 2911   2.452   0.079   1.252 -0.4671 -0.1713  0.3181
  971SOL    HW1 2912   2.508   0.166   1.235  0.0844 -0.7743  3.0037
  971SOL    HW2 2913   2.507   0.021   1.313 -2.4411 -0.5312 -2.0541
  972SOL     OW 2914   2.781   0.008   1.582 -0.2050 -0.2292 -0.2040
  972SOL    HW1 2915   2.762   3.069   1.676 -1.2234 -0.4705  0.1902
  972SOL    HW2 2916   2.802   0.111   1.590 -0.5241  1.4056  0.7025
  973SOL     OW 2917   0.057   0.222   2.414 -0.3784 -0.5948 -0.0911
  973SOL    HW1 2918   0.026   0.303   2.472 -1.3696  1.6334  0.4759
  973SOL    HW2 2919   0.096   0.145   2.469 -1.0704  1.3723  0.7923
  974SOL     OW 2920   2.316   1.107   2.156  0.0574  0.4202 -0.7567
  974SOL    HW1 2921   2.220   1.149   2.152 -1.0830 -0.2566 -1.5592
  974SOL    HW2 2922   2.387   1.181   2.155  0.8272  0.1103 -1.0389
  975SOL     OW 2923   1.001   0.394   1.597  0.5119 -0.2986 -0.1839
  975SOL    HW1 2924   1.019   0.492   1.605 -0.8647 -2.9810  2.2461
  975SOL    HW2 2925   0.993   0.369   1.498 -2.2618  1.0177  1.9628
  976SOL     OW 2926   0.942   1.881   2.089  0.5996  0.1655  0.3582
  976SOL    HW1 2927   0.875   1.956   2.072  0.7416 -2.7663 -1.2183
  976SOL    HW2 2928   1.010   1.911   2.158 -0.1424 -0.0789  2.7779
  977SOL     OW 2929   0.888   0.190   0.306 -0.0472 -0.1493  0.1796
  977SOL    HW1 2930   0.898   0.267   0.239  0.3367 -2.0488 -1.5830
  977SOL    HW2 2931   0.789   0.174   0.321  0.5651  2.0063  2.4618
  978SOL     OW 2932   2.620   1.003   2.102 -0.3374 -0.1265  0.3239
  978SOL    HW1 2933   2.572   0.987   2.193 -2.8293 -0.6131 -0.0158
  978SOL    HW2 2934   2.602   1.096   2.062 -0.1314 -0.4748 -0.4916
  979SOL     OW 2935   1.746   0.331   2.095  0.0544  0.2191 -0.1918
  979SOL    HW1 2936   1.678   0.298   2.022 -0.7470 -1.9959  0.4748
  979SOL    HW2 2937   1.808   0.257   2.127  2.0157 -1.8684  0.5426
  980SOL     OW 2938   1.696   1.665   1.691  0.1359 -0.1136  0.5365
  980SOL    HW1 2939   1.635   1.660   1.772  1.1389  1.6800 -1.0765
  980SOL    HW2 2940   1.640   1.656   1.604  0.0191  2.8513  0.3081
  981SOL     OW 2941   2.539   0.931   1.552 -0.2661  0.1124  0.0128
  981SOL    HW1 2942   2.487   0.985   1.483 -0.1411  0.9065  1.0157
  981SOL    HW2 2943   2.484   0.926   1.636  1.0089  2.9264  1.8701
  982SOL     OW 2944   0.449   3.091   2.611  0.4622  0.2126  0.4576
  982SOL    HW1 2945   0.371   3.026   2.606 -2.4902  1.8977  0.5490
  982SOL    HW2 2946   0.520   3.039   2.666 -1.0196 -1.5942  1.2583
  983SOL     OW 2947   2.438   0.849   2.733  0.3534 -0.3050  0.2317
  983SOL    HW1 2948   2.427   0.823   2.834  0.7403 -1.6412 -0.0177
  983SOL    HW2 2949   2.378   0.797   2.669  3.5803  2.2370 -1.8544
  984SOL     OW 2950   1.390   0.084   2.061 -0.4482  0.1668 -0.4667
  984SOL    HW1 2951   1.430   0.040   2.145  1.8674  0.1797 -0.0919
  984SOL    HW2 2952   1.327   0.017   2.013  0.1830  1.5363 -0.5644
  985SOL     OW 2953   1.921   1.955   1.936  0.6189 -0.1262 -0.3686
  985SOL    HW1 2954   1.947   1.962   1.838  0.4493  1.0948 -0.1791
  985SOL    HW2 2955   1.913   1.862   1.972 -0.9421  2.7048 -1.4874
  986SOL     OW 2956   2.425   0.621   1.232 -0.2241  0.1465 -0.2824
  986SOL    HW1 2957   2.358   0.671   1.292 -2.0301 -0.2388  0.3226
  986SOL    HW2 2958   2.424   0.654   1.136  1.0958 -1.5479  0.1098
  987SOL     OW 2959   2.559   1.002   1.214  0.2866  0.7139  0.1949
  987SOL    HW1 2960   2.573   1.096   1.190 -2.7437 -1.6149 -0.8485
  987SOL    HW2 2961   2.644   0.952   1.211 -1.0214  2.8707 -1.9174
  988SOL     OW 2962   2.126   1.385   1.606  0.2305 -0.3253 -0.1955
  988SOL    HW1 2963   2.062   1.449   1.652 -0.4575 -1.0180 -2.2520
  988SOL    HW2 2964   2.152   1.412   1.511  0.8922 -1.6601 -2.1328
  989SOL     OW 2965   1.125   2.659   0.180 -0.3031 -0.2378 -0.0655
  989SOL    HW1 2966   1.114   2.759   0.173 -0.2716 -3.8062  2.6961
  989SOL    HW2 2967   1.182   2.642   0.264 -0.8628  0.5826 -0.1925
  990SOL     OW 2968   1.677   0.911   2.800  0.4213 -0.6328  0.0377
  990SOL    HW1 2969   1.700   0.851   2.720 -0.9918  0.8521 -2.2795
  990SOL    HW2 2970   1.663   0.855   2.883  1.3763  0.0368 -1.5808
  991SOL     OW 2971   1.137   0.524   0.550  0.2151  0.2339 -0.2389
  991SOL    HW1 2972   1.153   0.601   0.616  2.2620 -1.0515  0.9422
  991SOL    HW2 2973   1.227   0.488   0.516  1.5979  0.0217 -0.2349
  992SOL     OW 2974   2.861   1.402   1.382  1.0414 -0.3791  0.2229
  992SOL    HW1 2975   2.833   1.327   1.317 -0.6702  1.0808 -1.2180
  992SOL    HW2 2976   2.912   1.356   1.459 -0.0924 -0.5380  0.0827
  993SOL     OW 2977   2.855   0.645   1.360 -0.8909 -0.1901  0.1339
  993SOL    HW1 2978   2.927   0.587   1.400 -1.9595  1.4571  1.7394
  993SOL    HW2 2979   2.762   0.599   1.367 -0.1061  0.3756 -2.1056
  994SOL     OW 2980   3.055   2.340   2.472  0.0171 -0.2666  0.1652
  994SOL    HW1 2981   0.059   2.307   2.465 -3.2386  2.3257 -1.5387
  994SOL    HW2 2982   3.049   2.421   2.535 -4.3426 -2.6222  0.7918
  995SOL     OW 2983   1.822   1.141   2.851 -0.1921 -0.0889 -0.1335
  995SOL    HW1 2984   1.915   1.106   2.842 -2.8529 -1.8870  2.5460
  995SOL    HW2 2985   1.758   1.062   2.839  1.0834  3.1144  2.5197
  996SOL     OW 2986   2.611   1.465   0.679 -0.1583 -0.6027  0.0222
  996SOL    HW1 2987   2.623   1.559   0.639  0.4096  3.3540 -0.3185
  996SOL    HW2 2988   2.670   1.396   0.633 -1.8610 -1.1138 -3.4306
  997SOL     OW 2989   2.051   0.993   2.299  0.1994  0.3691  0.3098
  997SOL    HW1 2990   1.990   1.030   2.228 -0.0233  0.6789  0.1873
  997SOL    HW2 2991   2.008   0.925   2.355  0.0352  3.4985 -1.7473
  998SOL     OW 2992   2.536   1.081   0.527 -0.5981 -0.3894  0.4453
  998SOL    HW1 2993   2.461   1.064   0.461 -0.2012 -0.9258 -0.3710
  998SOL    HW2 2994   2.598   1.160   0.497  2.9531  2.7717  0.2329
  999SOL     OW 2995   0.043   2.355   0.259  0.4841 -0.4541 -0.5857
  999SOL    HW1 2996   0.101   2.313   0.328 -1.9350  0.3891 -1.4274
  999SOL    HW2 2997   3.052   2.407   0.294 -1.0642  3.7385  0.5271
 1000SOL     OW 2998   0.975   0.815   2.414 -0.5917 -0.1015 -0.1496
 1000SOL    HW1 2999   0.934   0.801   2.506 -1.0214  0.2782  0.3198
 1000SOL    HW2 3000   1.027   0.732   2.396  0.2679  1.4098 -1.0260
   3.09507   3.09507   3.09507
