1000 SPC/Fw water molecules t= 232.00000 step= 232000
 3000
    1SOL     OW    1   3.098   2.981   1.177 -0.0341  0.6700 -0.3637
    1SOL    HW1    2   0.057   2.935   1.167  1.8004 -1.2196 -0.3767
    1SOL    HW2    3   3.081   3.050   1.102 -1.7251 -0.4670 -0.0129
    2SOL     OW    4   1.878   1.778   1.655 -0.3388 -0.0305  0.0480
    2SOL    HW1    5   1.886   1.680   1.678  0.4707  2.1930 -0.5059
    2SOL    HW2    6   1.815   1.792   1.577  0.4589  2.9269 -1.8822
    3SOL     OW    7   1.756   2.315   2.482 -0.6282  0.2608  0.3109
    3SOL    HW1    8   1.705   2.382   2.540 -1.7444 -0.1208 -2.2606
    3SOL    HW2    9   1.853   2.339   2.480 -1.0253 -0.8415 -0.2338
    4SOL     OW   10   2.114   2.066   2.204  0.4855 -0.1451  1.0996
    4SOL    HW1   11   2.050   2.100   2.275  1.0081  1.1007  0.7988
    4SOL    HW2   12   2.206   2.057   2.246  0.1380  1.9037  0.3025
    5SOL     OW   13   1.396   1.210   1.597  0.3455 -0.1999  0.0142
    5SOL    HW1   14   1.435   1.169   1.512 -3.9545 -0.1819 -0.4071
    5SOL    HW2   15   1.317   1.161   1.634 -0.8554 -1.0473 -1.8657
    6SOL     OW   16   2.635   0.041   3.081 -0.1838  0.3199 -0.0322
    6SOL    HW1   17   2.708   3.114   3.046  1.0913 -3.5817 -2.2912
    6SOL    HW2   18   2.551   3.122   3.072  2.1975  0.0000  0.1356
    7SOL     OW   19   2.977   1.619   1.537  0.1754 -0.3240 -0.3607
    7SOL    HW1   20   2.958   1.545   1.604 -0.4661  1.2915 -2.5204
    7SOL    HW2   21   3.030   1.579   1.459  1.7994 -2.6802  2.4310
    8SOL     OW   22   1.120   0.423   0.730 -0.2895  0.8189  0.1234
    8SOL    HW1   23   1.203   0.443   0.789 -0.0523 -1.7900  1.0954
    8SOL    HW2   24   1.082   0.331   0.752  0.1702  1.4500 -0.4386
    9SOL     OW   25   1.363   0.599   2.507 -0.4765 -0.0438  0.3726
    9SOL    HW1   26   1.413   0.678   2.547  1.5268  1.1891 -1.2302
    9SOL    HW2   27   1.423   0.562   2.429  2.7722  0.8636 -1.0904
   10SOL     OW   28   0.513   2.400   0.255 -0.3654 -0.0346  0.0368
   10SOL    HW1   29   0.443   2.330   0.246 -2.4125 -1.0652  0.2237
   10SOL    HW2   30   0.531   2.423   0.356 -0.8263 -0.1156  1.7134
   11SOL     OW   31   0.994   0.863   0.208 -0.3946 -0.0866  0.4744
   11SOL    HW1   32   0.917   0.805   0.235  1.3185  2.6575  0.1531
   11SOL    HW2   33   0.967   0.959   0.195 -1.6788  0.3097  1.8660
   12SOL     OW   34   0.090   0.271   1.659  0.1791  0.1355 -0.1964
   12SOL    HW1   35   3.126   0.292   1.644 -0.6112 -0.0251  1.4194
   12SOL    HW2   36   0.151   0.350   1.633  3.3226  1.1892  0.6280
   13SOL     OW   37   1.408   3.133   0.102 -0.3470  0.4738 -0.0031
   13SOL    HW1   38   1.315   3.135   0.057 -1.5852 -0.8817  0.1504
   13SOL    HW2   39   1.395   3.119   0.206 -0.3959  0.0892  1.9597
   14SOL     OW   40   1.202   2.506   1.250  0.1243  0.6582 -0.3559
   14SOL    HW1   41   1.176   2.510   1.349  0.6141 -1.2593  0.7878
   14SOL    HW2   42   1.192   2.410   1.220 -0.7458 -3.3246  1.5299
   15SOL     OW   43   2.542   1.050   1.466 -0.3178  0.4486  0.5569
   15SOL    HW1   44   2.626   1.108   1.467  1.0942  1.0517 -1.0862
   15SOL    HW2   45   2.561   0.962   1.521  0.5002 -1.4841 -1.1805
   16SOL     OW   46   2.019   2.741   2.933 -0.2700 -0.0755  0.6048
   16SOL    HW1   47   1.961   2.701   2.858 -1.6459  1.0275 -0.0085
   16SOL    HW2   48   2.022   2.844   2.937  0.1845  2.3137 -0.5443
   17SOL     OW   49   0.831   3.098   1.380 -0.1312  0.3865  0.1331
   17SOL    HW1   50   0.909   3.047   1.346 -0.2857 -1.7480  1.5988
   17SOL    HW2   51   0.842   3.130   1.475  0.3446  0.5966 -2.7398
   18SOL     OW   52   1.573   0.586   2.954  0.2290 -0.1661  0.0703
   18SOL    HW1   53   1.542   0.498   2.916  1.7077  0.6481  1.8054
   18SOL    HW2   54   1.629   0.569   3.039 -1.1334  1.4684 -2.0707
   19SOL     OW   55   2.050   1.931   0.055  0.5052  0.7529  0.1878
   19SOL    HW1   56   2.038   1.849   0.118 -0.6184 -1.5598  0.6982
   19SOL    HW2   57   2.132   1.987   0.071 -0.8430 -0.8333 -2.1645
   20SOL     OW   58   1.951   1.523   1.604 -0.2770 -0.2876  0.4085
   20SOL    HW1   59   2.049   1.503   1.621 -1.7024  2.1698 -0.7155
   20SOL    HW2   60   1.893   1.439   1.598 -2.6820  1.8069  1.1572
   21SOL     OW   61   0.822   1.450   2.860  0.0936  0.3575 -0.2851
   21SOL    HW1   62   0.816   1.451   2.761  0.0433 -0.8535  2.4822
   21SOL    HW2   63   0.912   1.405   2.882 -1.5060  0.1630 -2.6414
   22SOL     OW   64   2.023   2.863   1.426 -0.3208  0.0352  0.1400
   22SOL    HW1   65   1.933   2.909   1.438  0.9431 -1.4691  1.6822
   22SOL    HW2   66   2.083   2.921   1.369 -2.3912 -0.4669  0.1505
   23SOL     OW   67   2.957   0.630   1.616 -0.5678  0.0784 -0.6203
   23SOL    HW1   68   3.056   0.632   1.646 -2.7197 -2.0871  3.0123
   23SOL    HW2   69   2.939   0.627   1.518  1.0895 -0.1053  3.3844
   24SOL     OW   70   2.326   2.529   1.101 -0.2321  0.1669  0.4213
   24SOL    HW1   71   2.318   2.593   1.181 -3.0159 -0.0299  1.7738
   24SOL    HW2   72   2.241   2.477   1.085 -1.2215  0.5927  2.5237
   25SOL     OW   73   1.628   2.815   2.494 -0.0569 -0.3192  0.0375
   25SOL    HW1   74   1.715   2.770   2.468 -1.7151  1.7733 -0.0624
   25SOL    HW2   75   1.548   2.755   2.478  3.2479  0.3443  1.9202
   26SOL     OW   76   1.802   2.695   2.742  0.1589 -0.3093 -0.2969
   26SOL    HW1   77   1.791   2.799   2.745 -0.1643  3.0761  0.6394
   26SOL    HW2   78   1.735   2.656   2.673  2.0987  2.2080 -1.8316
   27SOL     OW   79   0.471   1.657   3.097  0.1492  0.0912  0.8792
   27SOL    HW1   80   0.460   1.721   0.040  2.4346 -0.5775 -0.1554
   27SOL    HW2   81   0.553   1.687   3.043  0.2541  1.6681  0.7194
   28SOL     OW   82   2.780   1.254   1.515 -0.6828  0.2090  0.0024
   28SOL    HW1   83   2.765   1.298   1.422 -0.2070  0.7593 -1.4676
   28SOL    HW2   84   2.825   1.318   1.582 -0.1426 -0.4095  3.3078
   29SOL     OW   85   2.630   2.643   1.930 -0.4257  0.4737 -0.2348
   29SOL    HW1   86   2.686   2.598   2.005  2.1807 -1.7992  2.0741
   29SOL    HW2   87   2.657   2.740   1.924 -2.1870 -2.3897 -2.8418
   30SOL     OW   88   1.566   0.306   2.910  0.3652 -0.1896 -0.1718
   30SOL    HW1   89   1.465   0.322   2.902 -2.0519 -0.8124 -3.1511
   30SOL    HW2   90   1.589   0.282   3.007 -0.8925  1.1818 -0.6618
   31SOL     OW   91   2.692   2.908   1.879  0.1801  0.0729  0.5866
   31SOL    HW1   92   2.757   2.940   1.948 -2.4388 -0.7404 -0.9747
   31SOL    HW2   93   2.710   2.938   1.783  2.8062 -0.0025  0.0800
   32SOL     OW   94   1.096   1.523   1.564 -0.0149 -1.1062  0.0725
   32SOL    HW1   95   1.012   1.574   1.590  0.6710  0.0559 -1.7111
   32SOL    HW2   96   1.084   1.460   1.485 -0.5344  0.3806  0.3037
   33SOL     OW   97   0.443   2.738   2.341  0.0837 -0.0368 -0.9573
   33SOL    HW1   98   0.405   2.674   2.410 -1.5072 -0.4030  0.7841
   33SOL    HW2   99   0.379   2.744   2.267  1.6777 -2.4626  1.6892
   34SOL     OW  100   1.691   0.071   0.542 -0.2110  0.3556 -0.4421
   34SOL    HW1  101   1.661   0.153   0.594  0.7575 -2.1655 -2.6875
   34SOL    HW2  102   1.789   0.087   0.512 -1.0918  0.1438  0.2625
   35SOL     OW  103   2.003   3.005   0.880  0.1812 -0.1278  0.0002
   35SOL    HW1  104   2.040   2.995   0.784 -2.1594 -0.3489 -2.5184
   35SOL    HW2  105   1.973   3.104   0.897  2.1118  2.8938  2.2232
   36SOL     OW  106   1.826   2.819   2.124 -0.3844  0.0579  0.4125
   36SOL    HW1  107   1.896   2.784   2.061 -1.2582  0.3879 -1.4666
   36SOL    HW2  108   1.752   2.748   2.125 -0.9678 -2.4411  2.6603
   37SOL     OW  109   0.949   2.968   2.497 -0.3446 -0.0301 -0.1827
   37SOL    HW1  110   0.931   2.956   2.395  2.2770  0.0842 -0.3271
   37SOL    HW2  111   1.037   2.916   2.514  0.5496 -1.0655  0.2285
   38SOL     OW  112   0.073   2.781   2.689 -0.7235  0.2097 -0.1609
   38SOL    HW1  113   0.142   2.710   2.706 -1.9555 -2.0884 -0.5119
   38SOL    HW2  114   0.113   2.865   2.646 -0.2002 -2.2317  0.6778
   39SOL     OW  115   2.697   1.180   2.003 -0.3052 -0.3202 -0.0548
   39SOL    HW1  116   2.738   1.248   1.938  1.0915 -0.6270  0.7333
   39SOL    HW2  117   2.602   1.160   1.970 -0.1566 -1.4221  2.6318
   40SOL     OW  118   0.109   3.043   2.940 -0.0804  0.2527  0.1256
   40SOL    HW1  119   0.039   3.061   2.863 -4.4044 -0.0401 -4.1391
   40SOL    HW2  120   0.187   2.987   2.913 -1.1738  1.8682  1.3372
   41SOL     OW  121   1.841   0.591   0.734 -0.0277  0.2061  0.3250
   41SOL    HW1  122   1.942   0.597   0.741 -0.1643  1.3609 -0.8866
   41SOL    HW2  123   1.805   0.685   0.749  0.7207  1.6937 -1.4218
   42SOL     OW  124   0.557   0.402   1.220 -0.0338 -0.6286 -0.3236
   42SOL    HW1  125   0.642   0.349   1.220  0.2533  0.3633  0.7018
   42SOL    HW2  126   0.536   0.440   1.124  3.0280  0.9797 -3.8382
   43SOL     OW  127   2.657   1.396   2.899 -0.4478  0.0580  0.4990
   43SOL    HW1  128   2.622   1.296   2.889 -1.1187 -0.9653 -1.1220
   43SOL    HW2  129   2.699   1.427   2.810 -0.4197 -2.5501 -3.4042
   44SOL     OW  130   0.058   2.626   0.788 -0.2321 -0.0727 -0.3678
   44SOL    HW1  131   0.135   2.682   0.830 -0.7046  1.4732  1.8838
   44SOL    HW2  132   3.127   2.584   0.854  1.9481  1.6962 -0.5528
   45SOL     OW  133   0.250   2.817   1.568  0.4513 -0.7986  0.3972
   45SOL    HW1  134   0.167   2.751   1.579 -1.5879 -2.8400 -0.2040
   45SOL    HW2  135   0.218   2.906   1.519 -1.8701  2.0641 -0.4953
   46SOL     OW  136   2.467   2.420   2.372 -0.1667 -0.1003 -0.3956
   46SOL    HW1  137   2.506   2.333   2.408 -2.9296  1.6329  1.3383
   46SOL    HW2  138   2.475   2.432   2.271 -1.2550 -0.0205 -3.0663
   47SOL     OW  139   2.177   2.102   1.226 -0.8995  0.6889  0.3040
   47SOL    HW1  140   2.148   2.198   1.231 -0.5598 -1.0749  2.2476
   47SOL    HW2  141   2.098   2.035   1.232 -0.5243  1.0004  1.9507
   48SOL     OW  142   0.622   1.531   0.291  0.1955 -0.2588 -0.7415
   48SOL    HW1  143   0.673   1.546   0.201 -1.8519  1.9654  2.3935
   48SOL    HW2  144   0.546   1.463   0.280  1.4056 -0.3835  1.5178
   49SOL     OW  145   2.787   0.356   2.567  0.4376  0.4333  0.0761
   49SOL    HW1  146   2.738   0.314   2.484  0.6840 -2.2218 -2.5271
   49SOL    HW2  147   2.878   0.406   2.551  0.0799 -1.3550 -0.5629
   50SOL     OW  148   2.380   0.657   0.223  0.3622 -0.2459 -0.3152
   50SOL    HW1  149   2.337   0.742   0.256  2.5549 -0.1872 -2.5134
   50SOL    HW2  150   2.339   0.629   0.132  0.8512 -0.8431  0.7985
   51SOL     OW  151   2.112   0.717   0.984  0.3270  0.5476 -0.4072
   51SOL    HW1  152   2.104   0.809   0.941  0.2121 -0.9785 -0.9725
   51SOL    HW2  153   2.029   0.692   1.040 -0.0269 -1.0815  1.1570
   52SOL     OW  154   1.122   1.319   2.865 -0.3087 -0.2535  0.0635
   52SOL    HW1  155   1.198   1.391   2.871 -0.1589  2.2815 -1.0749
   52SOL    HW2  156   1.150   1.231   2.906 -2.6069 -1.5659  0.9691
   53SOL     OW  157   0.697   1.842   2.051  0.0947 -0.4800  0.3152
   53SOL    HW1  158   0.674   1.808   2.144  0.5870  1.8880  1.0537
   53SOL    HW2  159   0.654   1.775   1.982 -1.1440 -0.3467  0.5033
   54SOL     OW  160   1.982   0.301   1.067  0.3184 -0.2045 -0.5327
   54SOL    HW1  161   1.964   0.247   1.153 -0.4089 -2.3461  1.1206
   54SOL    HW2  162   2.076   0.291   1.034  1.7668 -1.9631 -0.5260
   55SOL     OW  163   2.557   2.118   1.443  1.0006  0.0691 -0.1238
   55SOL    HW1  164   2.537   2.064   1.357  2.6559 -0.8460  0.9670
   55SOL    HW2  165   2.479   2.103   1.512 -3.8107  0.1170 -1.6165
   56SOL     OW  166   0.897   0.044   1.638  0.0063  0.3611 -0.3112
   56SOL    HW1  167   0.883   0.012   1.733  1.7414  2.3701  0.3245
   56SOL    HW2  168   0.975   0.109   1.633 -1.2781 -4.2813  0.9818
   57SOL     OW  169   1.823   1.537   0.076 -0.7722  0.2382 -0.2333
   57SOL    HW1  170   1.859   1.598   0.001  2.2091 -0.2136  1.0018
   57SOL    HW2  171   1.768   1.592   0.146 -1.0571 -0.2175  0.0003
   58SOL     OW  172   2.991   0.533   2.522  0.7995  0.5511  0.4662
   58SOL    HW1  173   3.029   0.609   2.466 -1.3193  0.4626  3.7389
   58SOL    HW2  174   3.046   0.526   2.604  3.2161  1.2943 -0.2068
   59SOL     OW  175   1.040   2.576   2.486  0.0656 -0.0468  0.1763
   59SOL    HW1  176   1.102   2.651   2.509 -2.5567  0.7192  0.8391
   59SOL    HW2  177   0.969   2.552   2.554 -0.0349  0.4272  1.8697
   60SOL     OW  178   2.633   2.614   0.754  0.5025 -0.1866  0.0243
   60SOL    HW1  179   2.602   2.535   0.812  0.7055  0.7863 -1.5009
   60SOL    HW2  180   2.576   2.613   0.668 -1.8331 -2.0038 -2.3372
   61SOL     OW  181   1.225   2.174   0.730  0.0286 -0.5216  0.4867
   61SOL    HW1  182   1.206   2.273   0.730  1.4503  1.0790  2.2899
   61SOL    HW2  183   1.222   2.148   0.632 -4.2984 -1.7056  0.4846
   62SOL     OW  184   2.572   1.912   2.578 -0.4760 -0.1161  0.0177
   62SOL    HW1  185   2.611   1.935   2.672  1.8074 -1.2018  0.5347
   62SOL    HW2  186   2.488   1.856   2.586  2.0199 -1.0879 -1.2560
   63SOL     OW  187   2.402   3.047   3.034  0.1502 -0.8889  0.8442
   63SOL    HW1  188   2.394   3.009   2.942  0.4509  1.3033  0.9044
   63SOL    HW2  189   2.306   3.075   3.069 -0.9199 -1.2712 -0.6166
   64SOL     OW  190   1.280   0.825   2.796  0.5194 -0.6667  0.3570
   64SOL    HW1  191   1.282   0.764   2.879 -2.1430  1.1414  2.1000
   64SOL    HW2  192   1.357   0.814   2.729  0.6513 -0.9970  2.6575
   65SOL     OW  193   1.563   2.683   0.099 -0.2413  0.2994 -0.0656
   65SOL    HW1  194   1.512   2.679   0.012  1.9111 -0.2283 -1.0374
   65SOL    HW2  195   1.663   2.663   0.080  2.1363 -1.0642 -1.4951
   66SOL     OW  196   0.457   1.397   1.714  0.3316 -0.4552  0.3975
   66SOL    HW1  197   0.546   1.383   1.662 -2.5235  0.2141  1.3084
   66SOL    HW2  198   0.392   1.332   1.668 -1.0163 -2.5091 -1.4561
   67SOL     OW  199   2.668   2.886   2.772  0.5712 -0.2714 -0.1557
   67SOL    HW1  200   2.596   2.831   2.731  1.4882  0.9791 -0.0453
   67SOL    HW2  201   2.653   2.983   2.748  1.1014  2.9385  0.9444
   68SOL     OW  202   0.753   2.405   1.271  0.2385  0.3527 -0.1179
   68SOL    HW1  203   0.750   2.326   1.337 -1.9782 -2.0777 -2.1561
   68SOL    HW2  204   0.752   2.497   1.319  0.2785  2.6461 -2.6631
   69SOL     OW  205   0.628   2.486   0.513 -0.3960 -0.0273 -0.3585
   69SOL    HW1  206   0.724   2.462   0.528  0.4275  0.9181  0.0140
   69SOL    HW2  207   0.571   2.465   0.596  0.6339  1.3449  0.9666
   70SOL     OW  208   2.788   1.134   2.612  0.8147 -0.0272 -0.3138
   70SOL    HW1  209   2.863   1.202   2.614 -1.6755 -1.9867  0.4551
   70SOL    HW2  210   2.829   1.040   2.608  0.1145  1.4965  1.0165
   71SOL     OW  211   0.430   1.153   2.611  0.4550  0.8004 -0.0250
   71SOL    HW1  212   0.390   1.147   2.517 -2.7194 -1.0054 -2.6084
   71SOL    HW2  213   0.478   1.244   2.616  2.1819  0.1318  0.2110
   72SOL     OW  214   0.135   2.221   0.348  0.6587 -0.4792 -0.2610
   72SOL    HW1  215   0.213   2.180   0.301  0.1456 -0.9328  1.9044
   72SOL    HW2  216   0.144   2.320   0.342  0.3078 -1.9337 -0.9457
   73SOL     OW  217   0.934   1.264   0.383  0.5665  0.4931 -0.0658
   73SOL    HW1  218   0.941   1.367   0.370  1.2751 -1.2674 -0.6444
   73SOL    HW2  219   1.026   1.226   0.393 -2.6432  0.7654 -1.0657
   74SOL     OW  220   2.822   0.064   0.386 -0.6199  0.0621 -0.3135
   74SOL    HW1  221   2.729   0.103   0.378  0.3472  0.2241  0.2220
   74SOL    HW2  222   2.883   0.098   0.313 -1.2038 -1.1019 -1.1995
   75SOL     OW  223   2.356   1.491   1.902  0.2003 -0.7750  0.0860
   75SOL    HW1  224   2.421   1.569   1.893  0.7858 -3.7352 -0.4944
   75SOL    HW2  225   2.263   1.531   1.920 -0.1823  1.6521 -0.8915
   76SOL     OW  226   1.925   2.583   1.529  0.2587  0.1219 -0.2742
   76SOL    HW1  227   2.004   2.648   1.537 -0.6178  0.7329 -1.7455
   76SOL    HW2  228   1.888   2.579   1.433  1.4285  0.5306 -1.0248
   77SOL     OW  229   2.628   0.414   1.324  0.0772 -0.2132 -0.2303
   77SOL    HW1  230   2.618   0.473   1.408  0.4590  1.7919  3.2286
   77SOL    HW2  231   2.675   0.464   1.246  0.4924  0.2632  0.0100
   78SOL     OW  232   2.137   1.092   2.919 -0.7452  0.9660 -0.3290
   78SOL    HW1  233   2.095   0.998   2.922  0.8252 -0.3435 -1.1212
   78SOL    HW2  234   2.066   1.152   2.888  0.9789 -2.9169  0.7632
   79SOL     OW  235   0.456   1.535   2.251 -0.6108  0.0446 -0.1919
   79SOL    HW1  236   0.408   1.544   2.162 -1.4599 -1.1175  0.9934
   79SOL    HW2  237   0.553   1.497   2.241 -3.0666 -0.0031  0.1584
   80SOL     OW  238   1.561   1.036   1.087  0.2446  0.4199 -0.4286
   80SOL    HW1  239   1.534   1.050   0.993  1.7623  1.3121 -0.7367
   80SOL    HW2  240   1.657   1.007   1.089 -1.3509 -0.2487  2.4935
   81SOL     OW  241   0.967   0.581   1.371  0.1743  0.2134  0.3724
   81SOL    HW1  242   0.894   0.619   1.429  2.0963  0.3531 -1.5625
   81SOL    HW2  243   0.937   0.566   1.273 -0.8435  3.0567 -4.3140
   82SOL     OW  244   1.355   2.219   1.851 -0.1991 -0.0070 -0.2302
   82SOL    HW1  245   1.306   2.199   1.938  1.0727 -0.5209 -2.1629
   82SOL    HW2  246   1.435   2.160   1.833 -0.5464 -1.7475  1.3378
   83SOL     OW  247   0.618   3.088   0.943  0.6951 -0.1540  0.2431
   83SOL    HW1  248   0.641   0.050   0.963 -2.2399  0.8558 -0.4381
   83SOL    HW2  249   0.647   3.069   0.846 -0.6620  2.0365  1.6274
   84SOL     OW  250   3.125   0.817   3.077  0.1654 -0.2341  0.2662
   84SOL    HW1  251   0.065   0.834   3.007  2.9797 -0.8356  1.9118
   84SOL    HW2  252   3.038   0.795   3.024 -1.6611 -1.2633 -1.3390
   85SOL     OW  253   2.841   2.615   1.743 -0.0254 -0.1924 -0.3360
   85SOL    HW1  254   2.831   2.620   1.643 -1.2034  0.6194 -0.6134
   85SOL    HW2  255   2.754   2.602   1.790  1.1315 -1.0470 -1.1219
   86SOL     OW  256   3.012   2.804   1.827  0.1118 -0.1336  0.4406
   86SOL    HW1  257   2.946   2.737   1.782  0.4558 -0.1817 -1.7033
   86SOL    HW2  258   3.031   2.887   1.768 -0.9317 -0.9745 -2.1364
   87SOL     OW  259   2.999   2.884   0.065 -0.2118  0.0948 -0.6244
   87SOL    HW1  260   2.996   2.881   3.097 -0.5755 -0.5094 -1.1257
   87SOL    HW2  261   2.911   2.879   0.113  2.3082 -0.9731  0.8794
   88SOL     OW  262   0.333   2.105   1.259 -0.0464  0.1291 -0.1255
   88SOL    HW1  263   0.315   2.182   1.324  0.4029  0.9820 -0.1866
   88SOL    HW2  264   0.249   2.073   1.212 -0.5462 -1.5449 -3.6681
   89SOL     OW  265   1.268   0.819   1.965 -0.7370  0.0622 -0.3684
   89SOL    HW1  266   1.193   0.851   1.908  2.3597 -0.6770 -1.7605
   89SOL    HW2  267   1.318   0.741   1.919  1.1440 -1.1043  0.2267
   90SOL     OW  268   2.809   1.446   1.944 -0.4297  0.4451  0.7464
   90SOL    HW1  269   2.820   1.425   2.046 -2.0486 -1.9677  2.7217
   90SOL    HW2  270   2.807   1.543   1.922 -0.5264 -0.3658  0.9893
   91SOL     OW  271   1.364   1.687   0.730  0.3824  0.3598  0.0116
   91SOL    HW1  272   1.401   1.751   0.802  0.3736 -2.5386 -0.2335
   91SOL    HW2  273   1.294   1.625   0.769 -1.0036  3.6060  3.4983
   92SOL     OW  274   2.489   0.342   1.075 -0.4988  0.5788 -0.7138
   92SOL    HW1  275   2.501   0.434   1.031 -0.2143 -1.0231 -2.5839
   92SOL    HW2  276   2.494   0.353   1.174  0.0741  2.9740 -0.6481
   93SOL     OW  277   2.537   1.428   0.011 -0.0818 -0.4753  0.4104
   93SOL    HW1  278   2.595   1.410   3.066 -0.6706 -2.2889  1.1593
   93SOL    HW2  279   2.442   1.440   3.112  1.1728 -0.2209 -1.9614
   94SOL     OW  280   2.624   2.196   2.526 -0.3351 -0.0227 -0.0017
   94SOL    HW1  281   2.629   2.094   2.531  0.7982  0.6795 -4.2979
   94SOL    HW2  282   2.717   2.242   2.513  3.4399  1.9963  1.0258
   95SOL     OW  283   1.900   0.575   1.103 -0.2669  0.2568 -0.2317
   95SOL    HW1  284   1.837   0.588   1.022  0.5264  0.0693 -0.5053
   95SOL    HW2  285   1.930   0.482   1.114 -1.2010  1.0896 -0.1539
   96SOL     OW  286   2.837   0.070   1.762  0.1189 -0.1781 -0.3845
   96SOL    HW1  287   2.784   0.079   1.852 -0.3042  1.3913  3.1745
   96SOL    HW2  288   2.787   0.012   1.698  0.5132  3.9491 -0.8829
   97SOL     OW  289   2.190   3.006   1.270  0.2179 -0.0921 -0.4222
   97SOL    HW1  290   2.193   2.983   1.169  3.3155  1.0158  2.3521
   97SOL    HW2  291   2.186   3.104   1.281 -1.2038 -2.8264  1.6507
   98SOL     OW  292   1.410   2.388   1.576 -0.5843 -0.0087  0.4472
   98SOL    HW1  293   1.461   2.452   1.514 -1.1254 -1.2217  2.8163
   98SOL    HW2  294   1.434   2.292   1.553 -0.6588  1.7451  1.6498
   99SOL     OW  295   2.885   2.953   2.040 -0.4753  0.6475  0.3631
   99SOL    HW1  296   2.921   2.890   1.968 -4.0455 -0.4379  0.7580
   99SOL    HW2  297   2.927   2.959   2.133 -0.0148  0.1201  0.6550
  100SOL     OW  298   0.219   0.696   2.774 -0.0942  0.0867 -0.3973
  100SOL    HW1  299   0.228   0.761   2.853 -0.8541 -1.3600  0.4428
  100SOL    HW2  300   0.300   0.632   2.757  2.9819 -1.8879  2.0807
  101SOL     OW  301   1.877   0.891   0.081 -0.0398  0.2523  0.2594
  101SOL    HW1  302   1.848   0.850   0.168  0.6380  0.1140 -0.8461
  101SOL    HW2  303   1.930   0.974   0.103 -0.6350 -1.2622 -1.8122
  102SOL     OW  304   0.086   0.630   1.635  0.0313  0.0705 -0.0816
  102SOL    HW1  305   0.117   0.710   1.698  2.3739  3.7314  1.0106
  102SOL    HW2  306   0.158   0.557   1.646  1.8779  0.9550  1.0701
  103SOL     OW  307   3.092   0.944   2.082  0.2488 -0.1095 -0.1735
  103SOL    HW1  308   0.005   0.856   2.064  1.8465  0.6059 -1.0304
  103SOL    HW2  309   3.048   0.952   2.174 -1.9871  0.5483  1.0883
  104SOL     OW  310   0.428   0.237   2.712  0.3040  0.4105 -0.2838
  104SOL    HW1  311   0.501   0.249   2.785 -0.6447 -0.3483  1.4299
  104SOL    HW2  312   0.422   0.323   2.654  3.4565  1.0758 -2.8505
  105SOL     OW  313   2.159   1.815   1.734 -0.1294 -0.5047 -0.4805
  105SOL    HW1  314   2.073   1.824   1.682 -1.8318 -1.2162 -1.6904
  105SOL    HW2  315   2.145   1.740   1.800 -2.5088 -1.5696  2.5806
  106SOL     OW  316   1.833   0.324   0.403  0.1554  0.0616  1.2238
  106SOL    HW1  317   1.929   0.361   0.377  0.2452  1.3156 -0.2134
  106SOL    HW2  318   1.814   0.318   0.505 -1.3536 -1.2508  1.2670
  107SOL     OW  319   0.109   1.987   1.802  0.4431 -0.0597  0.1667
  107SOL    HW1  320   0.124   2.081   1.768 -2.2027 -1.7086 -0.4742
  107SOL    HW2  321   0.054   1.946   1.725  2.3702  0.6567  0.5982
  108SOL     OW  322   2.985   2.958   2.287 -0.1592 -0.0268 -0.1742
  108SOL    HW1  323   3.052   2.885   2.312 -2.2488 -0.7231 -3.1213
  108SOL    HW2  324   3.022   3.051   2.295  3.1069 -1.7754  0.3513
  109SOL     OW  325   1.843   0.164   0.172 -0.0506 -0.2057  0.0242
  109SOL    HW1  326   1.935   0.182   0.127 -0.4592  1.4546  0.2836
  109SOL    HW2  327   1.846   0.212   0.262  1.1251 -1.6140  0.8838
  110SOL     OW  328   0.451   2.256   2.332 -0.3980 -0.1627 -0.5177
  110SOL    HW1  329   0.507   2.180   2.292 -0.6538  2.0039 -2.6871
  110SOL    HW2  330   0.499   2.293   2.417 -0.4486  1.9523  2.5399
  111SOL     OW  331   1.649   2.644   2.069  0.3753 -0.8942  0.2223
  111SOL    HW1  332   1.671   2.544   2.047 -1.0397 -0.6952 -1.5703
  111SOL    HW2  333   1.560   2.672   2.025  0.4538 -0.0257 -1.5127
  112SOL     OW  334   1.903   2.711   2.438 -0.0393  0.5184  0.6818
  112SOL    HW1  335   1.985   2.738   2.492  0.0295 -1.5280 -1.3358
  112SOL    HW2  336   1.935   2.698   2.344  0.2824 -0.8033  0.9691
  113SOL     OW  337   1.852   2.574   1.805 -0.1111 -0.1171 -0.0714
  113SOL    HW1  338   1.902   2.544   1.721  0.7348  2.7812  1.0103
  113SOL    HW2  339   1.915   2.620   1.868 -2.6644 -0.0498 -1.5109
  114SOL     OW  340   0.006   0.844   0.644  0.3543  0.2733  0.1696
  114SOL    HW1  341   3.124   0.839   0.543  1.9474 -2.1314 -2.2466
  114SOL    HW2  342   3.081   0.778   0.687  0.6296  0.9740 -1.5022
  115SOL     OW  343   0.237   0.903   2.973  0.0015  0.1776  0.1471
  115SOL    HW1  344   0.214   0.987   2.920  0.3248 -0.9231  0.2659
  115SOL    HW2  345   0.338   0.876   2.965  0.7499  1.1658  0.7325
  116SOL     OW  346   0.195   1.327   2.251  0.0743  0.5728 -0.1691
  116SOL    HW1  347   0.168   1.263   2.179  1.4450  1.3847  1.2974
  116SOL    HW2  348   0.287   1.297   2.290  4.0810  0.4916  2.4113
  117SOL     OW  349   2.569   2.924   0.634  0.5880 -0.4961 -0.4060
  117SOL    HW1  350   2.550   2.869   0.554  2.3336  0.2122 -0.2827
  117SOL    HW2  351   2.503   3.005   0.636 -1.7739  2.0719 -1.5587
  118SOL     OW  352   1.154   1.925   1.693 -0.5153  0.0119 -0.0633
  118SOL    HW1  353   1.205   1.861   1.639 -0.8833 -0.0319  1.8020
  118SOL    HW2  354   1.161   1.898   1.793  2.3237  0.2624  1.9879
  119SOL     OW  355   0.868   2.553   2.747 -0.0068 -0.3135 -0.3313
  119SOL    HW1  356   0.882   2.586   2.846  0.4570  0.8377 -1.3946
  119SOL    HW2  357   0.929   2.469   2.734  0.1846 -0.3708 -2.5170
  120SOL     OW  358   0.489   0.834   2.964  0.3136  0.6315 -0.2382
  120SOL    HW1  359   0.530   0.743   2.951  1.4874  0.6375  1.2642
  120SOL    HW2  360   0.564   0.903   2.955 -0.9724 -2.1930 -0.9478
  121SOL     OW  361   1.793   2.598   1.271  0.1431  0.6264  0.2767
  121SOL    HW1  362   1.864   2.630   1.205  1.4712 -0.6217 -2.9175
  121SOL    HW2  363   1.732   2.522   1.234 -2.4017 -0.2038  4.5378
  122SOL     OW  364   2.430   2.236   1.961  0.4868  0.4542 -0.3787
  122SOL    HW1  365   2.414   2.327   2.002 -0.6209  0.9779 -0.4877
  122SOL    HW2  366   2.389   2.240   1.865 -0.9745 -0.6515  1.6214
  123SOL     OW  367   0.234   2.868   0.528 -0.0690  0.1509 -0.0307
  123SOL    HW1  368   0.287   2.803   0.472 -1.2143 -0.2940 -0.2734
  123SOL    HW2  369   0.147   2.902   0.483 -0.0165  0.3729 -0.2095
  124SOL     OW  370   2.422   0.971   2.529  0.4174  0.8282 -0.0740
  124SOL    HW1  371   2.342   0.997   2.474  2.7965 -0.2135 -0.5255
  124SOL    HW2  372   2.493   1.045   2.520  2.1377 -1.1420 -1.6187
  125SOL     OW  373   0.459   1.132   0.585 -0.2026 -0.0912 -0.1570
  125SOL    HW1  374   0.533   1.128   0.513  0.7750  0.3775 -0.6467
  125SOL    HW2  375   0.373   1.163   0.537  2.6278  1.2796  0.9683
  126SOL     OW  376   2.693   1.880   0.817  0.4472  0.0848 -0.0797
  126SOL    HW1  377   2.791   1.869   0.811  3.0853 -0.0223 -1.4289
  126SOL    HW2  378   2.663   1.954   0.884 -0.3388  3.7691  1.6176
  127SOL     OW  379   3.006   2.361   1.715 -0.1523 -0.3863 -0.1824
  127SOL    HW1  380   2.962   2.438   1.763 -2.5868 -3.3411  0.2872
  127SOL    HW2  381   2.932   2.297   1.696  3.0694  1.0536  0.7860
  128SOL     OW  382   0.924   0.663   2.894 -0.6060  0.0020  0.0553
  128SOL    HW1  383   0.931   0.730   2.972 -1.2944 -0.1223  1.2432
  128SOL    HW2  384   0.933   0.718   2.809  2.9346 -1.2260 -1.5929
  129SOL     OW  385   2.607   1.280   0.956  0.6974 -0.6903 -0.2183
  129SOL    HW1  386   2.646   1.236   0.876  1.1893  1.1378  1.1051
  129SOL    HW2  387   2.590   1.214   1.030 -0.3059  0.5741 -2.6382
  130SOL     OW  388   2.373   1.277   1.455 -0.2513 -0.2915 -0.2032
  130SOL    HW1  389   2.443   1.199   1.450 -0.0018  1.2179  1.9287
  130SOL    HW2  390   2.405   1.354   1.399 -0.8170  0.3694 -0.3358
  131SOL     OW  391   2.480   0.265   0.195  0.0144 -0.0928  0.2656
  131SOL    HW1  392   2.511   0.280   0.295  2.4535 -1.1700  0.0874
  131SOL    HW2  393   2.535   0.210   0.133 -0.8795  1.5083  1.5810
  132SOL     OW  394   2.755   2.236   1.849  0.0305 -0.3270  0.7577
  132SOL    HW1  395   2.680   2.249   1.907  1.1222  0.8137  0.5518
  132SOL    HW2  396   2.822   2.162   1.873  0.7227  2.3501 -3.1924
  133SOL     OW  397   0.832   0.903   1.266  0.0451  0.6185  0.1323
  133SOL    HW1  398   0.865   0.822   1.208 -0.7752 -3.2685 -0.9360
  133SOL    HW2  399   0.852   0.993   1.220 -1.8281  2.5463 -3.1762
  134SOL     OW  400   0.230   1.242   0.417 -0.0552  0.2389 -0.1329
  134SOL    HW1  401   0.160   1.217   0.494 -2.3051 -1.0838  3.8344
  134SOL    HW2  402   0.199   1.213   0.326  2.5505  0.0198 -0.4608
  135SOL     OW  403   2.189   1.108   1.357  0.5343 -0.1573 -0.2131
  135SOL    HW1  404   2.253   1.173   1.398 -0.0536 -1.5997 -4.1712
  135SOL    HW2  405   2.096   1.124   1.400 -2.5775 -1.3755 -2.1961
  136SOL     OW  406   2.662   0.632   0.637 -0.5007 -0.0012 -0.2904
  136SOL    HW1  407   2.597   0.556   0.651 -0.9159 -0.7368 -1.4435
  136SOL    HW2  408   2.632   0.720   0.681  0.1158 -0.3862  1.4406
  137SOL     OW  409   2.473   1.462   1.242  0.0112  0.1885 -0.4536
  137SOL    HW1  410   2.568   1.433   1.265  0.8828  0.6063  1.1025
  137SOL    HW2  411   2.451   1.424   1.149  3.2114 -1.2053 -0.2513
  138SOL     OW  412   1.789   0.854   1.462  0.1824  0.0101  0.1421
  138SOL    HW1  413   1.758   0.832   1.559 -1.1281  0.2578  0.0074
  138SOL    HW2  414   1.799   0.772   1.405  0.8473 -0.1178 -1.9304
  139SOL     OW  415   2.150   3.101   0.009  0.2873 -0.0587 -0.5968
  139SOL    HW1  416   2.077   3.075   3.076 -0.2725  2.8945 -3.4811
  139SOL    HW2  417   2.159   3.040   0.094 -0.8363  0.2409 -1.4850
  140SOL     OW  418   1.437   1.890   1.906 -0.0949 -0.2616 -0.1149
  140SOL    HW1  419   1.479   1.894   1.995  1.2086  1.8321 -1.9095
  140SOL    HW2  420   1.346   1.843   1.911 -2.0779 -0.6808 -1.4503
  141SOL     OW  421   1.935   1.987   0.929 -0.1081 -0.1352  0.3442
  141SOL    HW1  422   2.038   2.007   0.931  2.2034  1.6768  0.1741
  141SOL    HW2  423   1.921   1.888   0.939  0.1900  1.8725  0.2070
  142SOL     OW  424   3.059   0.978   0.171 -0.1370 -0.0716 -0.3790
  142SOL    HW1  425   3.097   0.948   0.080  1.0743  2.9519 -0.7798
  142SOL    HW2  426   3.080   0.913   0.247 -0.2609 -0.8222  2.5827
  143SOL     OW  427   0.395   2.124   2.762 -0.8007  0.1530 -0.2861
  143SOL    HW1  428   0.322   2.111   2.694  1.8989  1.5032 -1.9014
  143SOL    HW2  429   0.447   2.037   2.775  0.1150 -1.5492 -3.2493
  144SOL     OW  430   1.191   0.107   1.640 -0.6008 -0.1753 -0.0568
  144SOL    HW1  431   1.244   0.172   1.588 -3.2481 -1.1927  0.7254
  144SOL    HW2  432   1.208   0.114   1.741  1.1996  0.0163  2.0122
  145SOL     OW  433   2.545   1.009   0.342 -0.4180 -0.2158  0.1346
  145SOL    HW1  434   2.493   0.979   0.425 -1.6513  0.9340  0.8535
  145SOL    HW2  435   2.488   1.076   0.292 -1.2443 -2.1481 -0.8557
  146SOL     OW  436   2.378   2.427   0.343  0.5452 -0.0577  0.4396
  146SOL    HW1  437   2.398   2.422   0.243  1.1683  0.4711  0.7291
  146SOL    HW2  438   2.278   2.427   0.373  0.3310 -2.4257  1.2321
  147SOL     OW  439   2.486   2.603   1.357  0.6625  0.5324  0.1681
  147SOL    HW1  440   2.453   2.697   1.363  2.3860 -1.7342 -0.4878
  147SOL    HW2  441   2.549   2.588   1.277  1.7928 -1.3796  1.7919
  148SOL     OW  442   1.528   3.035   2.335 -0.1910  0.2037 -0.5321
  148SOL    HW1  443   1.573   3.022   2.244 -0.1336  0.1021  2.7391
  148SOL    HW2  444   1.554   2.951   2.385  0.2884 -1.3134  0.4752
  149SOL     OW  445   1.091   0.569   2.613 -0.2616 -0.0307 -0.0525
  149SOL    HW1  446   1.186   0.583   2.576 -1.3972  0.5178 -1.2145
  149SOL    HW2  447   1.047   0.660   2.643 -0.9975  0.3113 -0.0582
  150SOL     OW  448   0.847   2.791   0.229 -0.7664  0.0027 -0.4305
  150SOL    HW1  449   0.851   2.697   0.187  1.1995  0.4855 -0.0593
  150SOL    HW2  450   0.771   2.792   0.297  2.6330  0.5515  0.0810
  151SOL     OW  451   0.177   1.771   0.248  0.0018  0.1433  0.0718
  151SOL    HW1  452   0.116   1.718   0.189  0.2075 -0.7503  1.5641
  151SOL    HW2  453   0.188   1.733   0.341 -1.6180 -0.2067  0.5439
  152SOL     OW  454   0.049   0.300   0.559 -0.1009  0.0257  0.6643
  152SOL    HW1  455   0.123   0.304   0.631 -1.0357 -2.7612  0.8988
  152SOL    HW2  456   3.093   0.272   0.599 -4.6869  0.5429 -0.5183
  153SOL     OW  457   2.371   0.005   0.939 -0.1854  0.0272  0.2798
  153SOL    HW1  458   2.461   0.033   0.893  3.4653  1.7915 -1.5096
  153SOL    HW2  459   2.377   3.045   0.972 -2.0087 -1.7382  0.7478
  154SOL     OW  460   1.049   0.865   1.801 -0.4392 -0.3082  0.0521
  154SOL    HW1  461   0.958   0.863   1.843  3.3672 -0.8626  0.0465
  154SOL    HW2  462   1.058   0.808   1.718  0.4425  0.9276  1.0378
  155SOL     OW  463   2.996   1.580   0.905  0.5559 -0.1561 -0.4562
  155SOL    HW1  464   2.901   1.547   0.909 -0.3244  0.8659  3.1955
  155SOL    HW2  465   3.001   1.663   0.849  0.7646  0.4707  0.8342
  156SOL     OW  466   2.499   2.075   0.282 -0.3293 -0.3257 -0.0003
  156SOL    HW1  467   2.486   1.974   0.277 -2.9173  0.2939  0.4973
  156SOL    HW2  468   2.595   2.099   0.254  0.2294  2.1401 -1.6989
  157SOL     OW  469   1.105   3.042   0.745  0.4685  0.2055 -0.9663
  157SOL    HW1  470   1.054   2.955   0.751  0.5717  1.2604 -0.7551
  157SOL    HW2  471   1.203   3.029   0.722 -3.1349  1.0730 -0.7601
  158SOL     OW  472   2.180   0.370   2.585 -0.6620  0.4452 -0.0596
  158SOL    HW1  473   2.231   0.444   2.642  3.8932  2.4807  1.0067
  158SOL    HW2  474   2.184   0.386   2.487  0.1533 -2.5917  1.6788
  159SOL     OW  475   0.323   3.092   0.241 -0.2741  0.1568 -0.1706
  159SOL    HW1  476   0.340   0.019   0.166  0.8332 -0.8831 -0.6189
  159SOL    HW2  477   0.246   3.121   0.308  0.0476  0.9942  1.2357
  160SOL     OW  478   1.264   2.193   3.065 -0.0358  0.0562  0.4406
  160SOL    HW1  479   1.307   2.104   3.037 -1.9401 -0.8704  0.6661
  160SOL    HW2  480   1.332   2.245   3.119  0.2978  0.5379 -1.3869
  161SOL     OW  481   2.697   1.549   2.423 -0.1093 -0.5041  0.0304
  161SOL    HW1  482   2.690   1.635   2.368 -0.1230 -0.7960 -1.4439
  161SOL    HW2  483   2.619   1.485   2.403  2.9199 -0.7094  1.7001
  162SOL     OW  484   2.958   3.041   1.415 -0.1037 -0.2982 -0.0568
  162SOL    HW1  485   3.006   2.985   1.341  3.1160 -2.0753 -3.6816
  162SOL    HW2  486   3.018   3.118   1.440 -1.1790 -2.0182 -1.3690
  163SOL     OW  487   1.961   0.449   2.729  0.5513 -0.6711  0.2181
  163SOL    HW1  488   1.866   0.408   2.721  1.0149  0.3079  1.3211
  163SOL    HW2  489   2.025   0.399   2.670 -0.0078  0.9398 -0.6416
  164SOL     OW  490   2.999   1.845   0.802 -0.2306  0.1418  0.3250
  164SOL    HW1  491   3.041   1.860   0.713 -1.3715  0.1915  4.7611
  164SOL    HW2  492   3.012   1.927   0.856  2.5599  0.7585  1.1186
  165SOL     OW  493   2.962   0.266   1.957 -0.0313 -0.0235  0.2029
  165SOL    HW1  494   2.969   0.199   1.885  0.3596 -0.2299  2.2007
  165SOL    HW2  495   2.984   0.360   1.925 -0.6753 -2.5040  3.9055
  166SOL     OW  496   2.143   0.618   0.721 -0.0760  0.3568  0.0387
  166SOL    HW1  497   2.219   0.553   0.712 -0.3465  2.4110 -1.2495
  166SOL    HW2  498   2.140   0.661   0.816 -1.0315 -1.5590  1.5269
  167SOL     OW  499   0.440   0.371   0.499 -0.0530  0.1390 -0.2008
  167SOL    HW1  500   0.379   0.447   0.462  3.3155  3.8399  1.0456
  167SOL    HW2  501   0.520   0.417   0.543  0.3861 -0.2382 -2.7761
  168SOL     OW  502   1.980   3.040   2.251 -0.3042 -0.1345 -0.1684
  168SOL    HW1  503   1.941   2.952   2.222 -0.8013 -3.6706 -2.0221
  168SOL    HW2  504   1.922   3.096   2.315 -3.0437  0.8081  2.9701
  169SOL     OW  505   0.752   1.032   0.600  0.3022  0.0242 -0.2993
  169SOL    HW1  506   0.729   1.063   0.507 -2.3511 -2.0167  0.1763
  169SOL    HW2  507   0.700   0.950   0.631 -1.7571 -3.3544 -1.7339
  170SOL     OW  508   2.879   0.632   1.364 -0.5453  0.9003  0.5600
  170SOL    HW1  509   2.814   0.699   1.324  0.8247  0.2325  0.3412
  170SOL    HW2  510   2.890   0.550   1.308  2.4830  2.6545  1.3081
  171SOL     OW  511   0.878   2.623   1.640  0.2092 -0.4639  0.0731
  171SOL    HW1  512   0.886   2.522   1.637  1.3100  1.3966  0.8813
  171SOL    HW2  513   0.978   2.659   1.644 -1.3148 -2.6470 -0.2948
  172SOL     OW  514   0.192   2.670   1.246 -0.2433  0.1682 -0.2163
  172SOL    HW1  515   0.197   2.648   1.343 -0.0261  0.3504 -1.0002
  172SOL    HW2  516   0.210   2.769   1.233  0.1069  2.3217  2.0553
  173SOL     OW  517   1.305   0.320   2.904  0.2055  0.1093  0.3050
  173SOL    HW1  518   1.260   0.230   2.903  0.5984  0.3784 -0.6243
  173SOL    HW2  519   1.240   0.383   2.955  0.7027  1.6162  2.3443
  174SOL     OW  520   1.545   0.126   2.487  0.2333 -0.0732  0.3593
  174SOL    HW1  521   1.473   0.189   2.521  0.3862  0.2049  0.5239
  174SOL    HW2  522   1.514   0.037   2.441  0.5439 -0.5232 -1.4350
  175SOL     OW  523   1.820   2.641   0.032  0.1405 -0.5901  0.4402
  175SOL    HW1  524   1.889   2.667   3.096 -1.2365 -1.0500 -0.5710
  175SOL    HW2  525   1.803   2.541   0.016  0.3866  0.8257 -0.5640
  176SOL     OW  526   1.734   0.313   2.684 -0.7191  0.4317 -0.2448
  176SOL    HW1  527   1.665   0.325   2.762  0.6377 -0.0232  1.6178
  176SOL    HW2  528   1.684   0.275   2.606 -1.0996  1.5885  0.6237
  177SOL     OW  529   1.007   1.526   0.318  0.0723  0.0992 -0.3558
  177SOL    HW1  530   1.003   1.594   0.392  1.3087 -0.9210  0.0908
  177SOL    HW2  531   0.947   1.544   0.237 -1.4060 -3.8135  0.0121
  178SOL     OW  532   3.009   1.922   2.454 -0.5320  0.1135 -0.1367
  178SOL    HW1  533   2.959   1.988   2.523  4.2101  0.4240  1.0250
  178SOL    HW2  534   3.064   1.850   2.505  1.5720  0.9444 -1.5311
  179SOL     OW  535   0.504   2.566   2.737 -0.0672  0.0153 -0.0584
  179SOL    HW1  536   0.495   2.622   2.820 -0.3024 -1.5692 -0.8134
  179SOL    HW2  537   0.575   2.611   2.681  1.1702  1.1023 -1.8275
  180SOL     OW  538   1.985   1.944   1.317 -0.1879 -0.2505  0.7524
  180SOL    HW1  539   2.020   1.860   1.358 -3.7666  0.7563  2.9294
  180SOL    HW2  540   1.895   1.930   1.266 -2.8874  0.7542  0.5820
  181SOL     OW  541   1.858   1.287   2.368 -0.6795 -0.4374 -0.2554
  181SOL    HW1  542   1.801   1.244   2.294 -2.6468  0.4083 -2.6206
  181SOL    HW2  543   1.869   1.228   2.448 -0.4071 -0.5052  1.0897
  182SOL     OW  544   2.656   3.061   2.412  0.5927 -0.4684 -0.4437
  182SOL    HW1  545   2.721   2.993   2.373 -0.3670  1.0096  0.5982
  182SOL    HW2  546   2.567   3.060   2.360  0.7215  3.2448  0.2257
  183SOL     OW  547   1.474   0.822   2.601 -0.2924  0.0878 -0.5487
  183SOL    HW1  548   1.498   0.917   2.562 -1.2111  0.0348  1.7112
  183SOL    HW2  549   1.554   0.795   2.662  1.2267  1.0753 -2.9690
  184SOL     OW  550   0.879   0.954   1.553 -0.2235  0.3035  0.3733
  184SOL    HW1  551   0.924   1.042   1.573 -0.3662  1.2037 -0.3699
  184SOL    HW2  552   0.861   0.949   1.450  2.0993  0.7009 -3.2220
  185SOL     OW  553   2.131   0.987   0.895 -0.1865 -0.0594  0.3895
  185SOL    HW1  554   2.135   1.071   0.955  0.9376  3.3803  1.8215
  185SOL    HW2  555   2.142   1.017   0.794  0.1544 -0.0278 -5.7505
  186SOL     OW  556   0.496   1.843   2.786  0.0652  0.3016  0.0351
  186SOL    HW1  557   0.567   1.807   2.850 -0.1868 -0.3264 -0.1083
  186SOL    HW2  558   0.447   1.769   2.732 -0.8244 -0.6153 -1.2729
  187SOL     OW  559   2.496   1.459   0.297  0.4223  0.8431 -0.5990
  187SOL    HW1  560   2.576   1.430   0.353  0.5644 -1.7641  1.1892
  187SOL    HW2  561   2.511   1.432   0.200  0.4453  2.2649 -1.4493
  188SOL     OW  562   0.142   1.744   0.531 -0.1888 -0.2173 -0.2139
  188SOL    HW1  563   0.059   1.800   0.513 -0.2745  0.1816 -0.9960
  188SOL    HW2  564   0.203   1.795   0.589 -2.1399 -0.4941 -0.1454
  189SOL     OW  565   2.373   0.454   0.459  0.5307 -0.5435  0.4729
  189SOL    HW1  566   2.346   0.528   0.390 -0.4723  1.1866 -1.1889
  189SOL    HW2  567   2.434   0.385   0.412 -0.4482 -1.8206 -1.2640
  190SOL     OW  568   1.344   1.471   2.194  0.2650 -0.3363 -0.2797
  190SOL    HW1  569   1.300   1.565   2.189  0.5203  3.0114  1.6031
  190SOL    HW2  570   1.326   1.417   2.110  0.3631 -2.1491  0.8389
  191SOL     OW  571   2.456   0.119   1.835  0.0198  0.4269 -0.0035
  191SOL    HW1  572   2.383   0.135   1.765  0.8345  2.6413  0.3675
  191SOL    HW2  573   2.504   0.204   1.867  0.5395  2.4851  2.4006
  192SOL     OW  574   1.976   1.103   1.520  0.2265 -0.1534  0.6757
  192SOL    HW1  575   1.923   1.176   1.565  1.1400  1.5213 -0.6662
  192SOL    HW2  576   1.918   1.020   1.505  2.4229 -0.1660  0.4343
  193SOL     OW  577   0.982   0.678   0.710  0.2333  0.2887 -0.6678
  193SOL    HW1  578   0.901   0.688   0.645  1.5858 -0.8970 -3.9871
  193SOL    HW2  579   1.016   0.585   0.710 -1.0378  0.4314  1.5772
  194SOL     OW  580   1.219   2.861   1.002  0.1374  0.2368 -0.0544
  194SOL    HW1  581   1.160   2.918   0.946  0.5088 -2.7308  1.5114
  194SOL    HW2  582   1.262   2.913   1.075 -0.4067 -1.2734 -1.1040
  195SOL     OW  583   2.413   0.491   0.733  0.1366 -0.3248  0.0942
  195SOL    HW1  584   2.416   0.481   0.631 -0.5303 -1.5864  3.0754
  195SOL    HW2  585   2.367   0.404   0.770 -0.0007 -2.3413  0.4257
  196SOL     OW  586   0.969   1.892   1.467  0.2854 -0.3986  0.0963
  196SOL    HW1  587   0.992   1.970   1.403 -0.0345  3.0148  0.7203
  196SOL    HW2  588   1.021   1.894   1.555 -0.2538 -0.7615  0.6389
  197SOL     OW  589   0.355   2.720   0.336 -0.8232 -0.1742  0.2843
  197SOL    HW1  590   0.454   2.718   0.375  0.6393 -2.0508  1.9895
  197SOL    HW2  591   0.346   2.782   0.249 -1.2133  2.8506 -1.6881
  198SOL     OW  592   1.150   0.886   0.792 -0.0420 -0.2438 -0.0109
  198SOL    HW1  593   1.120   0.981   0.796  0.1920  0.3861  0.2715
  198SOL    HW2  594   1.081   0.832   0.739 -1.0795 -3.1957 -2.5713
  199SOL     OW  595   0.105   0.064   1.844 -0.3355 -0.1163 -0.7622
  199SOL    HW1  596   0.094   0.129   1.768 -0.2069 -0.4378  2.4903
  199SOL    HW2  597   0.206   0.043   1.869  0.3035  0.7330  2.4072
  200SOL     OW  598   2.218   1.885   2.807 -0.0761  0.7268  0.4736
  200SOL    HW1  599   2.151   1.956   2.777 -1.4745 -1.2828 -1.1048
  200SOL    HW2  600   2.269   1.841   2.727 -0.1297 -1.2086  0.5704
  201SOL     OW  601   2.798   2.656   1.233  0.3050  0.3391 -0.3580
  201SOL    HW1  602   2.735   2.734   1.207 -1.1525  1.1122  0.1678
  201SOL    HW2  603   2.846   2.673   1.322 -0.3935  0.9029 -0.4362
  202SOL     OW  604   2.603   0.234   0.437 -0.3015 -0.3387 -0.8495
  202SOL    HW1  605   2.650   0.326   0.437  0.5585 -0.1958 -0.6501
  202SOL    HW2  606   2.639   0.179   0.517 -1.1088 -0.6862  1.4453
  203SOL     OW  607   1.277   1.801   2.237  0.5788  0.1113 -0.2315
  203SOL    HW1  608   1.290   1.812   2.336 -3.3798  0.8457 -2.9847
  203SOL    HW2  609   1.189   1.843   2.224  0.3213 -0.1131 -1.1478
  204SOL     OW  610   0.971   1.339   1.904  0.3534  0.0170 -0.2523
  204SOL    HW1  611   0.985   1.264   1.837  2.2319  0.2233  0.2124
  204SOL    HW2  612   0.992   1.300   2.001  1.3331 -2.1054  3.3145
  205SOL     OW  613   1.130   2.216   1.680 -0.1941  0.0090 -0.3691
  205SOL    HW1  614   1.125   2.113   1.674 -0.2550  0.4291 -0.6624
  205SOL    HW2  615   1.222   2.244   1.714  0.9061  0.2932  0.6866
  206SOL     OW  616   0.022   0.365   2.933 -0.1588 -0.3758 -0.6341
  206SOL    HW1  617   0.107   0.314   2.904  1.6972 -1.3301  2.4360
  206SOL    HW2  618   3.098   0.306   2.991  1.3891 -2.6982 -1.7525
  207SOL     OW  619   1.618   2.966   2.087  0.0516 -0.3781  0.4984
  207SOL    HW1  620   1.592   2.947   1.989 -0.9127 -0.6365 -0.0766
  207SOL    HW2  621   1.696   2.907   2.120  0.7307 -0.0733  2.7039
  208SOL     OW  622   0.526   2.251   1.869 -0.2097  0.9165 -0.5574
  208SOL    HW1  623   0.575   2.164   1.847 -0.0765  0.9986  0.0161
  208SOL    HW2  624   0.579   2.330   1.832 -0.0820  0.2010 -0.4090
  209SOL     OW  625   1.972   1.287   2.854  0.0684 -0.2685 -0.5686
  209SOL    HW1  626   1.918   1.371   2.833  0.5699  2.3443 -2.1339
  209SOL    HW2  627   1.992   1.289   2.956  0.8560  1.8091  0.6287
  210SOL     OW  628   0.128   0.579   0.868 -0.2601  0.2729 -0.9283
  210SOL    HW1  629   0.091   0.633   0.788  0.2871  0.4454  0.8116
  210SOL    HW2  630   0.060   0.503   0.894 -1.2205 -0.6329 -1.7304
  211SOL     OW  631   0.941   1.114   1.115  0.0761  0.5079 -0.4823
  211SOL    HW1  632   0.948   1.104   1.017 -1.0695  2.1412  1.0477
  211SOL    HW2  633   0.923   1.214   1.139  0.6565  0.4566  0.4758
  212SOL     OW  634   1.027   1.759   0.772  0.4503  0.2555  0.3084
  212SOL    HW1  635   0.996   1.779   0.869 -0.2070  0.9019  2.1428
  212SOL    HW2  636   1.085   1.676   0.759  3.0968  0.6093 -1.5870
  213SOL     OW  637   1.465   0.241   1.604  0.5083  0.2707  0.1467
  213SOL    HW1  638   1.475   0.175   1.527 -1.2303 -0.2734 -0.0695
  213SOL    HW2  639   1.537   0.225   1.671  0.5519 -0.6163  1.4313
  214SOL     OW  640   1.616   1.741   2.486  0.2408  0.0217  0.5385
  214SOL    HW1  641   1.580   1.647   2.471  0.0771  0.8506 -3.1610
  214SOL    HW2  642   1.533   1.801   2.491 -0.1669 -0.9018  0.0884
  215SOL     OW  643   2.942   1.703   1.185  0.5150 -0.4254 -0.0025
  215SOL    HW1  644   2.995   1.648   1.248 -0.2898 -0.4642  1.1508
  215SOL    HW2  645   2.943   1.670   1.086 -2.4822 -0.2993 -3.5115
  216SOL     OW  646   0.696   0.021   2.227  0.4179  0.1174 -0.0307
  216SOL    HW1  647   0.747   0.076   2.163  1.0729  0.6287  0.5184
  216SOL    HW2  648   0.701   0.076   2.312  0.6242 -0.9065 -0.6621
  217SOL     OW  649   2.333   0.372   0.022  0.3639 -0.3269 -0.1405
  217SOL    HW1  650   2.376   0.353   3.067  1.0798  1.0412 -2.2299
  217SOL    HW2  651   2.388   0.338   0.101  3.2762 -0.3902 -0.2804
  218SOL     OW  652   2.085   1.801   2.183  0.0264 -0.0198  0.4767
  218SOL    HW1  653   1.998   1.778   2.230  0.8011  0.6166 -3.1665
  218SOL    HW2  654   2.098   1.901   2.170  0.1375  1.5096  0.1818
  219SOL     OW  655   1.631   1.212   0.318  0.4731  0.0063  0.3349
  219SOL    HW1  656   1.729   1.199   0.350 -0.0943 -0.7259 -0.6192
  219SOL    HW2  657   1.631   1.220   0.217 -2.9134 -2.2622 -2.2066
  220SOL     OW  658   1.469   1.999   1.149 -0.1994 -0.1254  0.2278
  220SOL    HW1  659   1.409   1.996   1.230 -0.1409  3.0037  0.6503
  220SOL    HW2  660   1.434   2.070   1.090  0.6898 -2.9263  2.7302
  221SOL     OW  661   0.052   0.567   0.035  0.3624 -0.6588  0.2915
  221SOL    HW1  662   0.027   0.664   0.011  1.0244 -1.3527  0.9693
  221SOL    HW2  663   0.077   0.518   3.086 -0.9060  0.0978  2.4515
  222SOL     OW  664   1.151   2.749   1.645  0.3330  0.3127  0.5070
  222SOL    HW1  665   1.159   2.667   1.580  0.6935 -0.1376  0.1064
  222SOL    HW2  666   1.164   2.836   1.592  0.1849 -0.8086  0.6499
  223SOL     OW  667   1.329   3.033   2.838 -0.8016  0.3272 -0.0232
  223SOL    HW1  668   1.271   3.114   2.844  1.4166 -1.4272  3.1186
  223SOL    HW2  669   1.429   3.051   2.841  1.3113  1.3023  1.1882
  224SOL     OW  670   2.593   1.110   1.204 -0.3686  0.6208  0.2174
  224SOL    HW1  671   2.683   1.068   1.173  1.5197 -2.4548  1.2054
  224SOL    HW2  672   2.561   1.057   1.287  1.5640 -0.9785  3.3574
  225SOL     OW  673   1.010   1.183   1.675 -0.4084  0.0338  0.5068
  225SOL    HW1  674   1.084   1.115   1.695 -1.0539  0.0669  0.1089
  225SOL    HW2  675   1.034   1.244   1.596 -1.7622 -0.7474  2.6671
  226SOL     OW  676   1.605   2.498   2.645 -0.2315  0.3900  0.4351
  226SOL    HW1  677   1.505   2.514   2.627 -2.3157  3.3643  1.1775
  226SOL    HW2  678   1.625   2.482   2.741 -0.3369  0.0532 -0.2795
  227SOL     OW  679   0.582   2.140   1.184  0.3573 -0.1823 -0.6863
  227SOL    HW1  680   0.488   2.113   1.206  3.0302  1.3589 -0.7260
  227SOL    HW2  681   0.586   2.238   1.158  0.2294  0.2767  3.3528
  228SOL     OW  682   0.414   2.671   1.060  0.0868 -0.5560  0.2362
  228SOL    HW1  683   0.472   2.752   1.080 -0.0620  2.0836 -1.6658
  228SOL    HW2  684   0.327   2.673   1.111 -0.1747  2.0700 -1.2397
  229SOL     OW  685   2.378   1.191   0.200 -0.0557  0.4583  0.7079
  229SOL    HW1  686   2.391   1.285   0.161 -0.1916  0.9478 -0.7725
  229SOL    HW2  687   2.368   1.121   0.127  0.2498  2.0607  4.0036
  230SOL     OW  688   1.051   1.226   2.130 -0.0923  0.7844 -0.1622
  230SOL    HW1  689   0.971   1.163   2.147  0.5961 -2.3161 -1.3754
  230SOL    HW2  690   1.121   1.212   2.206  2.6940  0.1617  2.7655
  231SOL     OW  691   1.517   1.945   1.638 -0.2508  0.1725  0.4399
  231SOL    HW1  692   1.604   1.982   1.680 -0.2844 -0.3771 -0.7484
  231SOL    HW2  693   1.462   1.901   1.709  0.7947  1.4278 -2.7243
  232SOL     OW  694   2.086   2.401   0.954  0.1654  0.0754  0.4776
  232SOL    HW1  695   2.026   2.476   0.916 -2.2487  0.4495  0.7599
  232SOL    HW2  696   2.082   2.318   0.889 -0.7362 -2.0990 -0.7941
  233SOL     OW  697   1.537   2.338   2.882 -0.3727  0.5863  0.4036
  233SOL    HW1  698   1.559   2.276   2.807  0.5701  0.1006  0.0631
  233SOL    HW2  699   1.438   2.334   2.908  2.7282  2.5409  0.3388
  234SOL     OW  700   0.849   3.132   2.666 -0.2204 -0.1700 -0.5160
  234SOL    HW1  701   0.906   3.058   2.620 -1.0731  2.7029  0.4114
  234SOL    HW2  702   0.747   3.123   2.660  3.0334 -1.9614 -1.1632
  235SOL     OW  703   2.994   2.451   0.199  0.3163 -0.0333  0.8638
  235SOL    HW1  704   2.935   2.455   0.283 -0.7269  1.1777  0.2543
  235SOL    HW2  705   3.019   2.359   0.167  0.3097 -0.5947  0.6222
  236SOL     OW  706   2.158   2.447   2.287 -0.4990 -0.2356 -0.1077
  236SOL    HW1  707   2.241   2.397   2.298 -2.2237  0.3822  3.7465
  236SOL    HW2  708   2.099   2.441   2.374  0.2290 -1.8556  2.2759
  237SOL     OW  709   1.707   1.336   1.334  0.5162 -0.4012  0.8321
  237SOL    HW1  710   1.692   1.236   1.343  1.6429  0.3767 -0.5167
  237SOL    HW2  711   1.613   1.379   1.323 -2.4492  0.1701 -1.7736
  238SOL     OW  712   1.968   0.420   2.157  0.0113  0.1976 -0.4809
  238SOL    HW1  713   2.018   0.358   2.095 -1.4949  1.3148 -0.5740
  238SOL    HW2  714   1.909   0.370   2.222  0.1751  4.2659  0.3722
  239SOL     OW  715   0.563   1.651   1.892 -0.1881 -0.7960 -0.0856
  239SOL    HW1  716   0.503   1.734   1.867 -1.2760  2.5314 -1.8253
  239SOL    HW2  717   0.521   1.564   1.856  1.0099  0.0620 -2.5352
  240SOL     OW  718   3.129   2.167   0.561 -0.6019 -0.5101  0.0318
  240SOL    HW1  719   3.059   2.242   0.571  1.0910 -0.4172  1.1440
  240SOL    HW2  720   0.068   2.195   0.495  0.7790 -0.1907  3.2294
  241SOL     OW  721   1.752   2.130   0.780 -0.0654  0.0864  0.5365
  241SOL    HW1  722   1.827   2.086   0.834 -0.7971 -0.9427  0.8679
  241SOL    HW2  723   1.717   2.071   0.706  2.4690  1.1379  3.0240
  242SOL     OW  724   1.472   1.492   0.103 -0.3063  0.6247  0.2481
  242SOL    HW1  725   1.529   1.406   0.100 -0.1432 -3.5326  2.3617
  242SOL    HW2  726   1.448   1.516   0.007  4.0229  0.9687 -1.7302
  243SOL     OW  727   0.890   2.939   2.229 -0.2752  0.1802  0.3659
  243SOL    HW1  728   0.826   3.016   2.203 -1.2878 -2.8415  0.4515
  243SOL    HW2  729   0.941   2.904   2.144 -1.9289 -1.8896 -0.9105
  244SOL     OW  730   1.750   2.957   2.717 -0.2977 -0.3334 -0.7874
  244SOL    HW1  731   1.673   2.999   2.778  0.6636 -2.3293 -0.3303
  244SOL    HW2  732   1.717   2.937   2.626  2.1039 -1.1583  0.5091
  245SOL     OW  733   1.527   2.964   3.064  0.2390  0.5653  0.0688
  245SOL    HW1  734   1.611   2.927   3.110 -1.2976 -1.0656  0.3625
  245SOL    HW2  735   1.477   3.022   3.130  1.6804 -2.4833  0.4556
  246SOL     OW  736   1.147   0.094   2.856  0.5526 -0.4142 -0.7062
  246SOL    HW1  737   1.117   0.143   2.772  0.9412 -0.1218  0.4019
  246SOL    HW2  738   1.063   0.045   2.895 -4.1894  1.0400  0.0918
  247SOL     OW  739   0.133   0.710   2.045  0.2263  0.5910 -0.0498
  247SOL    HW1  740   0.213   0.742   2.100 -0.2391  1.5242  1.9732
  247SOL    HW2  741   0.110   0.607   2.052 -1.6974 -3.2008 -0.1249
  248SOL     OW  742   0.906   0.817   2.341 -0.0874  0.2916 -0.1143
  248SOL    HW1  743   0.906   0.717   2.365  0.9308 -1.5982  2.5908
  248SOL    HW2  744   0.991   0.840   2.292 -0.6979 -0.1783 -0.3984
  249SOL     OW  745   2.101   0.408   0.347 -0.1804  0.0879 -0.0716
  249SOL    HW1  746   2.126   0.333   0.279 -0.8854  1.0364 -0.8077
  249SOL    HW2  747   2.158   0.401   0.431  4.3400  1.3948  0.4803
  250SOL     OW  748   0.809   0.186   0.631  0.3019  0.3065 -0.5427
  250SOL    HW1  749   0.895   0.184   0.680 -1.8639 -2.7157 -4.1770
  250SOL    HW2  750   0.746   0.260   0.662  1.3596 -2.1555 -1.0500
  251SOL     OW  751   1.045   0.293   2.656  0.0044 -0.7046 -0.0138
  251SOL    HW1  752   1.085   0.381   2.623  0.2056 -0.6157 -0.3059
  251SOL    HW2  753   1.068   0.220   2.586  0.2135  0.4622  1.0858
  252SOL     OW  754   1.669   1.926   2.113  0.5562 -0.3057 -0.9027
  252SOL    HW1  755   1.722   1.933   2.022  1.7944 -1.9101 -3.5583
  252SOL    HW2  756   1.724   1.867   2.180  1.2662  0.3264 -1.2772
  253SOL     OW  757   2.041   2.716   1.966 -0.6258 -0.0014  0.5296
  253SOL    HW1  758   2.085   2.795   1.919  1.3343  0.3534 -0.0276
  253SOL    HW2  759   2.106   2.630   1.963  2.2905 -1.5519 -0.5177
  254SOL     OW  760   0.941   2.167   1.882  0.2372 -0.0516  0.4451
  254SOL    HW1  761   1.000   2.196   1.804  1.5620 -0.2065 -0.3674
  254SOL    HW2  762   0.929   2.248   1.946 -0.7267  1.1949 -0.8213
  255SOL     OW  763   1.159   0.916   0.443 -0.3777 -0.2130  0.2455
  255SOL    HW1  764   1.095   0.935   0.519  2.0259 -0.1185  0.1713
  255SOL    HW2  765   1.107   0.891   0.357 -1.2817  2.0192  1.9658
  256SOL     OW  766   1.859   1.924   1.867  0.9224 -0.0659 -0.0725
  256SOL    HW1  767   1.870   1.851   1.797  1.5610 -0.7633 -0.5493
  256SOL    HW2  768   1.814   2.001   1.825  0.5172 -1.8784 -0.8716
  257SOL     OW  769   0.537   2.330   2.606  0.4811  0.2002  0.4347
  257SOL    HW1  770   0.502   2.413   2.662 -1.5813  1.2585 -0.1592
  257SOL    HW2  771   0.485   2.252   2.642  0.8859 -0.0117 -1.6020
  258SOL     OW  772   0.897   0.526   2.267 -0.7078  0.3290 -0.1897
  258SOL    HW1  773   0.935   0.430   2.286  0.3075 -0.6803  1.5206
  258SOL    HW2  774   0.928   0.558   2.175 -1.9299  1.4144 -0.2605
  259SOL     OW  775   0.829   0.560   2.513 -0.4652 -0.1589  0.0436
  259SOL    HW1  776   0.912   0.538   2.568  2.1102 -1.1026  0.7070
  259SOL    HW2  777   0.849   0.544   2.411  0.2865 -1.3665 -0.9625
  260SOL     OW  778   1.451   0.575   0.545 -0.1834 -0.0733  0.1502
  260SOL    HW1  779   1.443   0.677   0.550  0.3995 -0.3170 -0.6754
  260SOL    HW2  780   1.375   0.540   0.490  4.4859  1.8371 -1.0885
  261SOL     OW  781   0.311   2.827   2.895  0.4284  0.5473  0.3741
  261SOL    HW1  782   0.396   2.805   2.945 -0.0243  0.2112 -0.2771
  261SOL    HW2  783   0.242   2.752   2.919  0.9439  1.3904 -1.3961
  262SOL     OW  784   2.312   2.992   2.767  0.1928 -0.1551  0.3963
  262SOL    HW1  785   2.353   3.081   2.746  1.2162  2.3135  2.7113
  262SOL    HW2  786   2.216   2.990   2.732  2.0369  1.0657  0.0914
  263SOL     OW  787   0.004   2.148   2.797  0.1710 -0.1788  0.4961
  263SOL    HW1  788   3.046   2.125   2.758  0.2144  0.4641 -0.0651
  263SOL    HW2  789   0.029   2.090   2.876 -2.7236  0.1633 -1.1081
  264SOL     OW  790   0.596   1.221   1.305 -0.2305  0.1036  1.0992
  264SOL    HW1  791   0.511   1.277   1.316  0.3868  1.6456  1.7994
  264SOL    HW2  792   0.643   1.233   1.211  0.7228  0.8626 -1.0831
  265SOL     OW  793   0.445   1.305   0.259  0.5398 -0.5544 -0.1198
  265SOL    HW1  794   0.361   1.281   0.314  0.5744  2.0717  0.2973
  265SOL    HW2  795   0.529   1.257   0.297  0.8738  0.4380  1.0553
  266SOL     OW  796   1.503   1.476   0.627  0.3654 -0.5256 -0.0217
  266SOL    HW1  797   1.448   1.552   0.673  1.4298 -0.1876  0.3264
  266SOL    HW2  798   1.599   1.496   0.646 -1.6186  0.1541  1.1595
  267SOL     OW  799   2.800   0.495   0.096  0.6738  0.3381  0.1233
  267SOL    HW1  800   2.776   0.424   0.027 -1.1104 -2.6175 -0.2826
  267SOL    HW2  801   2.807   0.594   0.061  1.5390  1.6918  1.9769
  268SOL     OW  802   2.862   3.077   2.951  0.2432 -0.3026  0.1732
  268SOL    HW1  803   2.899   0.013   2.890 -0.5605 -0.2975  2.2980
  268SOL    HW2  804   2.866   2.986   2.911 -0.3074 -0.5583  0.5053
  269SOL     OW  805   1.799   0.338   2.375  0.7364  0.1458 -0.4199
  269SOL    HW1  806   1.792   0.427   2.424 -0.5945 -0.7965 -1.1419
  269SOL    HW2  807   1.724   0.325   2.307  0.6156  0.2997 -0.5740
  270SOL     OW  808   0.866   1.001   2.549  0.0598 -0.0772 -0.5205
  270SOL    HW1  809   0.880   0.956   2.455 -0.8060  1.0432 -2.0711
  270SOL    HW2  810   0.774   0.984   2.591 -1.9878 -0.6205  1.6267
  271SOL     OW  811   2.629   0.778   0.240  0.8721  0.0592  0.9797
  271SOL    HW1  812   2.594   0.869   0.274 -0.7763  1.5863  2.3046
  271SOL    HW2  813   2.544   0.719   0.236  0.4081 -0.3568  0.9239
  272SOL     OW  814   2.738   1.766   2.824  0.2121 -0.7246  0.0687
  272SOL    HW1  815   2.687   1.852   2.834 -0.1647 -0.3611  1.2220
  272SOL    HW2  816   2.817   1.756   2.890  1.5817 -0.0988  0.7286
  273SOL     OW  817   2.257   0.627   3.068  0.1986  0.3153 -0.1881
  273SOL    HW1  818   2.275   0.529   3.088  2.0807 -3.5351  0.4041
  273SOL    HW2  819   2.334   0.673   3.025  0.5517 -1.4017  0.5828
  274SOL     OW  820   0.096   2.460   1.136  0.1052  0.0780  0.2190
  274SOL    HW1  821   0.176   2.403   1.107  1.0667  2.0422  1.7615
  274SOL    HW2  822   0.135   2.546   1.175 -0.2641 -1.3869  0.6079
  275SOL     OW  823   2.188   1.541   0.586  0.2486  0.3331  0.2616
  275SOL    HW1  824   2.271   1.486   0.610  1.9064 -1.2344 -2.3561
  275SOL    HW2  825   2.176   1.614   0.652 -1.7399 -1.9390  0.5789
  276SOL     OW  826   0.192   1.150   2.755  0.6835 -0.0013 -0.2438
  276SOL    HW1  827   0.291   1.169   2.737 -1.4042 -1.1288 -0.9496
  276SOL    HW2  828   0.142   1.132   2.669 -1.6455 -0.2576  3.4775
  277SOL     OW  829   1.599   2.600   1.471  0.6861  0.1754 -0.0939
  277SOL    HW1  830   1.643   2.672   1.527 -0.9973  0.0187  0.6778
  277SOL    HW2  831   1.653   2.558   1.400 -2.5539  1.8115  2.0453
  278SOL     OW  832   1.358   0.611   1.809  0.0185  0.1011 -0.1361
  278SOL    HW1  833   1.312   0.524   1.823  0.7640  0.8157 -0.3983
  278SOL    HW2  834   1.301   0.659   1.740  2.1747 -0.4427  0.8548
  279SOL     OW  835   1.752   1.585   0.750  0.0645  0.5696  0.2921
  279SOL    HW1  836   1.793   1.634   0.830 -1.2868  2.4539 -1.0991
  279SOL    HW2  837   1.791   1.612   0.661  0.4960  0.6072 -1.3595
  280SOL     OW  838   0.560   1.741   0.799  0.5543  0.6308  0.0224
  280SOL    HW1  839   0.536   1.646   0.819 -1.7932 -0.2248  0.7682
  280SOL    HW2  840   0.643   1.757   0.746 -0.8972 -0.4098 -0.0509
  281SOL     OW  841   2.979   0.122   2.773  0.7356 -0.0516  0.2898
  281SOL    HW1  842   2.932   0.209   2.778  1.4763 -0.3157  0.5782
  281SOL    HW2  843   3.039   0.109   2.695 -1.3813 -0.4135  0.1662
  282SOL     OW  844   0.494   0.855   0.570 -0.4055 -0.9060  0.5077
  282SOL    HW1  845   0.451   0.815   0.492  1.3098 -0.0270  0.1707
  282SOL    HW2  846   0.458   0.950   0.576 -1.8681 -0.2303 -0.8627
  283SOL     OW  847   1.941   1.906   0.440 -0.3669  0.2333 -0.1560
  283SOL    HW1  848   1.999   1.986   0.479 -0.9845 -0.2266  1.4560
  283SOL    HW2  849   1.990   1.866   0.359  1.2076 -0.9290 -2.2799
  284SOL     OW  850   1.398   1.352   0.408 -0.1883  0.5241 -0.2027
  284SOL    HW1  851   1.429   1.399   0.493 -0.9275  0.7966 -1.1283
  284SOL    HW2  852   1.472   1.284   0.377 -0.0429 -1.7714  0.2861
  285SOL     OW  853   2.410   0.090   2.683 -0.6065  0.5117  0.4625
  285SOL    HW1  854   2.400   0.180   2.727  0.8211 -2.3661  0.5192
  285SOL    HW2  855   2.509   0.075   2.659 -0.6884  2.8690  1.1671
  286SOL     OW  856   1.180   2.993   1.548 -0.2697  0.1681 -0.1131
  286SOL    HW1  857   1.138   2.971   1.459 -1.5648  0.8697 -0.5426
  286SOL    HW2  858   1.169   3.096   1.562  1.2566  1.5147 -3.0122
  287SOL     OW  859   0.925   1.385   1.191  0.2847  0.3913  0.2198
  287SOL    HW1  860   1.011   1.408   1.149 -1.7362  0.5264  1.4393
  287SOL    HW2  861   0.856   1.461   1.185  1.9760  1.8688 -1.8476
  288SOL     OW  862   1.611   3.128   2.896  0.0958 -0.3834 -0.1484
  288SOL    HW1  863   1.596   0.092   2.913 -2.7181 -0.7562  2.8703
  288SOL    HW2  864   1.586   3.063   2.970  1.7671  0.0420  0.3887
  289SOL     OW  865   0.171   1.512   2.730  0.4047  0.2269  1.2603
  289SOL    HW1  866   0.113   1.472   2.654 -2.7386  1.5685 -1.4016
  289SOL    HW2  867   0.141   1.484   2.827  0.6425 -1.3207 -0.5026
  290SOL     OW  868   1.589   2.325   0.924 -0.7524  0.3702 -0.2465
  290SOL    HW1  869   1.560   2.396   0.856  0.1223  1.4374  1.2552
  290SOL    HW2  870   1.655   2.257   0.881 -1.2261  0.3647 -3.4263
  291SOL     OW  871   2.401   1.974   2.992  0.4459  0.1516  0.4713
  291SOL    HW1  872   2.370   2.026   3.072  2.3969  0.9861 -0.3858
  291SOL    HW2  873   2.325   1.923   2.936 -0.5490 -0.1645 -1.2765
  292SOL     OW  874   1.140   0.933   2.196 -0.1744  0.1497  0.0824
  292SOL    HW1  875   1.191   0.911   2.109 -0.1849  0.5753  0.7939
  292SOL    HW2  876   1.188   1.008   2.241  0.3150 -1.1870 -0.3536
  293SOL     OW  877   2.200   2.904   1.015  0.1508  0.6663 -0.1263
  293SOL    HW1  878   2.120   2.932   0.955 -2.1331  1.4814  0.3161
  293SOL    HW2  879   2.243   2.817   0.977 -0.6107  0.8466  0.4013
  294SOL     OW  880   0.333   0.439   2.479 -0.2893 -0.0135  0.1910
  294SOL    HW1  881   0.364   0.494   2.560  0.3456 -0.6496  1.7365
  294SOL    HW2  882   0.416   0.419   2.419  1.9014 -0.3609 -0.7245
  295SOL     OW  883   1.499   1.785   0.521 -0.0285  0.3154 -0.1448
  295SOL    HW1  884   1.438   1.757   0.599  0.6195 -2.4092  0.7708
  295SOL    HW2  885   1.484   1.718   0.443  2.1985  2.5299 -0.8002
  296SOL     OW  886   2.518   1.785   0.285  0.2034  0.5149  0.0156
  296SOL    HW1  887   2.601   1.726   0.260  1.1928 -2.4807 -1.5097
  296SOL    HW2  888   2.428   1.736   0.288 -2.1359  0.8496 -1.1065
  297SOL     OW  889   2.134   0.201   0.115  0.4859 -0.2011  0.3852
  297SOL    HW1  890   2.145   0.104   0.083  0.6524 -0.5468 -0.8084
  297SOL    HW2  891   2.191   0.266   0.062  1.7966 -2.3561  0.9701
  298SOL     OW  892   1.328   2.439   2.259  0.3852  0.0300 -0.2128
  298SOL    HW1  893   1.260   2.375   2.299 -0.5166 -1.0673  2.0486
  298SOL    HW2  894   1.418   2.391   2.247 -0.6272  0.8386 -0.6677
  299SOL     OW  895   1.278   3.100   2.236 -0.0736 -0.1293  0.5312
  299SOL    HW1  896   1.372   3.095   2.274 -1.3989  0.2165 -0.5963
  299SOL    HW2  897   1.249   3.007   2.198  0.0730 -2.7173 -0.9046
  300SOL     OW  898   1.971   3.017   2.963 -0.2497  0.4903 -0.6020
  300SOL    HW1  899   1.892   2.984   3.020  0.5737 -2.5552 -1.2259
  300SOL    HW2  900   1.942   3.041   2.867  1.1047  0.4589  1.4350
  301SOL     OW  901   1.443   1.417   1.345 -0.3009  0.0771  0.8737
  301SOL    HW1  902   1.360   1.355   1.334 -0.8616 -2.6504  2.2123
  301SOL    HW2  903   1.436   1.501   1.286  0.9341  1.2450 -0.7954
  302SOL     OW  904   2.620   2.359   0.473  0.1212 -0.0557 -0.6432
  302SOL    HW1  905   2.697   2.423   0.473  1.9495 -0.2786 -0.2400
  302SOL    HW2  906   2.555   2.380   0.398  2.5394 -1.6699  1.3038
  303SOL     OW  907   2.867   2.294   2.449 -0.0599  0.0144 -0.1073
  303SOL    HW1  908   2.876   2.394   2.453  0.8836  0.1499 -3.7340
  303SOL    HW2  909   2.827   2.272   2.354  0.7500  0.3997  0.8815
  304SOL     OW  910   2.976   0.518   1.868  0.0243  0.2136 -0.2359
  304SOL    HW1  911   2.965   0.559   1.777  0.7177  1.4108  0.3563
  304SOL    HW2  912   2.895   0.538   1.935 -2.1057  2.3164  1.2339
  305SOL     OW  913   0.700   2.034   1.859 -0.6468  0.3800 -0.4063
  305SOL    HW1  914   0.703   1.967   1.937 -2.4341  1.0517 -2.1882
  305SOL    HW2  915   0.781   2.096   1.862 -2.1357  0.2607 -0.9021
  306SOL     OW  916   2.829   0.852   1.705 -0.4239 -0.4002 -0.4892
  306SOL    HW1  917   2.880   0.768   1.676  0.7968 -2.2207 -1.2936
  306SOL    HW2  918   2.854   0.897   1.794  0.6525 -0.8220  3.3557
  307SOL     OW  919   1.626   1.358   1.959 -0.0662 -0.9019 -0.4751
  307SOL    HW1  920   1.582   1.436   1.905  1.8703  0.9762  1.2156
  307SOL    HW2  921   1.595   1.273   1.915 -2.0165  3.1354  1.3591
  308SOL     OW  922   2.736   1.518   0.915  0.2159 -0.3049 -0.2502
  308SOL    HW1  923   2.700   1.425   0.937  3.3811  2.8561 -3.4611
  308SOL    HW2  924   2.668   1.577   0.862  0.7958  0.4040 -0.9861
  309SOL     OW  925   2.326   1.698   1.325 -0.3939  0.2182 -0.2286
  309SOL    HW1  926   2.343   1.739   1.419  0.1346  0.0219  0.0809
  309SOL    HW2  927   2.400   1.629   1.314 -0.7753  2.2120 -3.1803
  310SOL     OW  928   2.794   1.532   2.684  0.0915 -0.1469  0.3669
  310SOL    HW1  929   2.766   1.537   2.584 -0.7927  0.6217  1.3434
  310SOL    HW2  930   2.786   1.625   2.726 -0.5731  0.0820  1.2513
  311SOL     OW  931   0.110   2.019   3.025 -0.2738 -0.5178  0.0353
  311SOL    HW1  932   0.096   2.020   3.128  0.7610  0.3638  1.3250
  311SOL    HW2  933   0.105   1.928   2.973  0.5565 -0.1066 -0.8733
  312SOL     OW  934   2.355   1.643   0.966 -0.4405  0.1827  0.1064
  312SOL    HW1  935   2.355   1.548   0.986 -1.7160  4.5934  1.1744
  312SOL    HW2  936   2.300   1.692   1.038  1.0762 -1.5221 -0.6412
  313SOL     OW  937   2.608   2.858   1.195  0.0874 -0.2682  0.1007
  313SOL    HW1  938   2.595   2.874   1.092 -0.5124  2.6989 -3.4146
  313SOL    HW2  939   2.522   2.872   1.246 -3.6175 -0.0230 -1.1310
  314SOL     OW  940   1.116   1.758   0.479  0.0747 -0.3312  0.4069
  314SOL    HW1  941   1.197   1.719   0.426 -1.7639 -1.3141 -3.7355
  314SOL    HW2  942   1.140   1.753   0.580 -2.2140 -0.0618  0.6597
  315SOL     OW  943   1.112   2.625   2.224 -0.1333 -0.8184  0.4539
  315SOL    HW1  944   1.077   2.635   2.323  1.1382  0.0385  3.3800
  315SOL    HW2  945   1.172   2.547   2.220  0.0305 -2.9394 -0.4477
  316SOL     OW  946   2.859   1.153   0.160  0.1341 -0.4651  0.2106
  316SOL    HW1  947   2.934   1.081   0.153  0.8248 -1.6588  3.5640
  316SOL    HW2  948   2.822   1.144   0.254 -0.6800 -2.3384  4.4012
  317SOL     OW  949   1.075   0.281   0.366  0.0154 -0.0270  0.1391
  317SOL    HW1  950   0.973   0.286   0.379 -1.7988 -0.8572  0.7677
  317SOL    HW2  951   1.117   0.198   0.407 -0.2965  1.8606 -1.2247
  318SOL     OW  952   2.851   2.497   0.425  0.2590 -0.1727 -0.6414
  318SOL    HW1  953   2.871   2.455   0.517  0.9496 -0.3291 -0.1849
  318SOL    HW2  954   2.823   2.597   0.431  1.2765  0.5525 -1.3302
  319SOL     OW  955   0.539   1.415   2.605 -0.2991 -0.0728  0.5291
  319SOL    HW1  956   0.475   1.496   2.617 -1.0485  1.3499  0.1232
  319SOL    HW2  957   0.633   1.455   2.588 -4.3707  2.9070  1.6831
  320SOL     OW  958   0.601   2.514   1.702  0.1801  0.2993 -0.3166
  320SOL    HW1  959   0.705   2.526   1.686  2.5562  0.8168 -3.2582
  320SOL    HW2  960   0.551   2.596   1.726 -2.4097 -1.8753  1.1180
  321SOL     OW  961   1.452   2.430   0.162 -0.3071  0.3573  0.0555
  321SOL    HW1  962   1.532   2.374   0.194  2.6672 -1.0340 -0.7367
  321SOL    HW2  963   1.483   2.525   0.150 -0.5949 -1.3705 -0.5751
  322SOL     OW  964   2.864   0.957   1.954  0.4741  0.0550  0.3853
  322SOL    HW1  965   2.804   1.034   1.975  0.5063  2.4182  2.7977
  322SOL    HW2  966   2.957   0.968   1.992 -2.0360  1.0787  0.4999
  323SOL     OW  967   2.389   0.933   0.579  0.3373  0.0098  0.0946
  323SOL    HW1  968   2.312   0.865   0.564 -0.3200 -1.8281 -0.3667
  323SOL    HW2  969   2.355   1.031   0.573 -3.4751  0.8654  1.0981
  324SOL     OW  970   0.355   2.865   0.071  0.0424 -0.1451  0.5470
  324SOL    HW1  971   0.291   2.845   3.128  0.9370  0.0199 -0.8736
  324SOL    HW2  972   0.306   2.929   0.137 -0.9159 -1.3144  2.7939
  325SOL     OW  973   1.462   0.510   2.269  0.2715  0.6241 -0.1639
  325SOL    HW1  974   1.524   0.560   2.208  0.1548 -2.1395  1.1312
  325SOL    HW2  975   1.475   0.412   2.257 -0.1061  0.6704 -2.2566
  326SOL     OW  976   2.240   2.894   1.628 -0.3263  0.2904  0.3038
  326SOL    HW1  977   2.318   2.869   1.577 -2.0957 -1.5384  1.9006
  326SOL    HW2  978   2.160   2.876   1.572  1.7280 -0.1579  1.0622
  327SOL     OW  979   2.092   0.669   2.794  0.1372 -0.2871  0.4079
  327SOL    HW1  980   2.064   0.690   2.889 -0.9505  2.6563  0.9930
  327SOL    HW2  981   2.041   0.587   2.771  3.7917  2.5412  0.3518
  328SOL     OW  982   2.943   0.968   2.339  0.2235 -0.3566 -0.2751
  328SOL    HW1  983   2.888   1.051   2.311 -0.6990 -0.2422  0.8111
  328SOL    HW2  984   2.902   0.934   2.425 -1.0684  1.1446  1.1182
  329SOL     OW  985   1.273   0.116   1.895 -0.0365 -0.2822  0.2999
  329SOL    HW1  986   1.218   0.077   1.972  1.7610 -0.3039  1.4504
  329SOL    HW2  987   1.369   0.118   1.917  0.3272 -0.2540 -0.0624
  330SOL     OW  988   3.132   1.857   1.584 -0.0376  0.0057  0.0526
  330SOL    HW1  989   3.132   1.899   1.487 -1.5563  1.0616 -1.7266
  330SOL    HW2  990   3.092   1.764   1.573  1.9730 -1.8868 -0.7358
  331SOL     OW  991   0.601   1.280   1.968  0.0723  0.3015  0.6280
  331SOL    HW1  992   0.520   1.299   1.908 -1.4240  0.2664 -1.9228
  331SOL    HW2  993   0.669   1.219   1.925  0.3530 -0.2871  1.3883
  332SOL     OW  994   0.242   3.076   1.428 -0.3103  0.0398  0.3820
  332SOL    HW1  995   0.324   3.129   1.466 -0.1616  0.6631  0.2710
  332SOL    HW2  996   0.160   0.001   1.415  0.0388  2.7883 -2.1927
  333SOL     OW  997   2.217   2.921   1.897 -0.5106 -0.2127 -0.3921
  333SOL    HW1  998   2.317   2.935   1.929  2.7846 -1.2738 -0.1335
  333SOL    HW2  999   2.225   2.907   1.799 -1.1887  3.7340  3.1950
  334SOL     OW 1000   0.803   2.025   1.086 -0.4182 -0.1762  0.1051
  334SOL    HW1 1001   0.715   2.065   1.125  1.4909 -2.3963 -0.8261
  334SOL    HW2 1002   0.843   2.078   1.010  1.9866  0.3594 -1.8820
  335SOL     OW 1003   0.730   2.357   2.997  0.2311  0.2653  0.0358
  335SOL    HW1 1004   0.629   2.373   3.008 -1.6663 -0.3104 -4.5386
  335SOL    HW2 1005   0.761   2.394   2.906  0.6284  2.1550 -2.3797
  336SOL     OW 1006   0.097   0.155   2.099 -0.8024 -0.3608  0.0311
  336SOL    HW1 1007   0.077   0.110   2.007  1.3463 -0.4061  1.2205
  336SOL    HW2 1008   0.023   0.141   2.167 -0.1112  2.3968  2.2873
  337SOL     OW 1009   2.785   2.067   3.110 -0.3721  0.0445 -0.7161
  337SOL    HW1 1010   2.731   2.097   0.057 -1.0941  2.8069 -0.3654
  337SOL    HW2 1011   2.836   1.985   0.001 -1.7143  2.1084 -0.7400
  338SOL     OW 1012   0.962   2.077   1.288  0.0509 -0.1179 -0.1367
  338SOL    HW1 1013   1.031   2.135   1.236 -0.2306  0.9706 -1.6372
  338SOL    HW2 1014   0.889   2.044   1.223 -0.5759  0.2917  0.5430
  339SOL     OW 1015   0.090   0.439   2.026  0.1446  0.4332 -0.4678
  339SOL    HW1 1016   0.044   0.467   1.943 -0.3407  0.7503  1.9173
  339SOL    HW2 1017   0.072   0.346   2.056  0.9110  0.4697  0.5440
  340SOL     OW 1018   1.673   2.669   0.704  0.5280  0.1439 -0.4853
  340SOL    HW1 1019   1.713   2.694   0.611 -1.3563  3.0712  1.2902
  340SOL    HW2 1020   1.610   2.587   0.697 -0.8796 -2.0447 -0.3724
  341SOL     OW 1021   1.565   1.478   0.989  1.0810  0.1155  0.0827
  341SOL    HW1 1022   1.630   1.406   0.966  0.7709 -0.6269  0.7670
  341SOL    HW2 1023   1.598   1.569   0.952  2.1198 -1.2277 -0.6300
  342SOL     OW 1024   0.208   1.397   0.798  0.4884  0.1939  0.1277
  342SOL    HW1 1025   0.277   1.423   0.733 -0.5159 -3.6081  2.7374
  342SOL    HW2 1026   0.131   1.350   0.751 -0.2489  0.2283  0.3656
  343SOL     OW 1027   1.447   0.087   1.352 -0.5114  0.2567 -0.3205
  343SOL    HW1 1028   1.345   0.097   1.345 -1.2446 -1.2157 -0.1949
  343SOL    HW2 1029   1.484   0.162   1.292 -1.4595 -2.3975 -3.0979
  344SOL     OW 1030   2.096   2.692   1.208  0.1513 -0.3598 -0.1561
  344SOL    HW1 1031   2.087   2.755   1.130 -0.3042 -2.7948  0.8398
  344SOL    HW2 1032   2.105   2.754   1.290  1.6959 -1.9592 -1.0486
  345SOL     OW 1033   2.910   2.451   2.898 -0.0848  0.1547  0.0658
  345SOL    HW1 1034   2.864   2.533   2.858  0.2748 -1.3996  3.8497
  345SOL    HW2 1035   3.013   2.451   2.889 -0.6120 -0.8794  2.4493
  346SOL     OW 1036   0.159   1.764   0.961 -0.7230 -0.0662 -0.0130
  346SOL    HW1 1037   0.231   1.786   0.890  1.6086  0.3339  1.6238
  346SOL    HW2 1038   0.068   1.767   0.916 -0.2106  2.1853 -0.0480
  347SOL     OW 1039   1.878   2.590   0.886  0.1688  0.4901  0.0590
  347SOL    HW1 1040   1.789   2.603   0.840  3.1616  1.3241 -1.0142
  347SOL    HW2 1041   1.900   2.670   0.950 -3.4429  2.4459  3.0977
  348SOL     OW 1042   1.314   1.492   2.745 -0.0911 -0.8650  0.3550
  348SOL    HW1 1043   1.376   1.450   2.676 -1.5628 -0.5551  0.3720
  348SOL    HW2 1044   1.239   1.545   2.696 -0.3162 -2.2564  0.3832
  349SOL     OW 1045   2.400   1.063   2.014 -0.0369 -0.2135 -0.3434
  349SOL    HW1 1046   2.367   1.052   1.920  0.0844  1.6249 -0.6017
  349SOL    HW2 1047   2.389   0.977   2.066 -0.8244 -0.6265  0.9520
  350SOL     OW 1048   3.077   2.415   1.379 -0.4846  0.5945  0.6109
  350SOL    HW1 1049   3.060   2.320   1.409 -1.6149  1.0691 -0.2447
  350SOL    HW2 1050   3.118   2.414   1.289 -0.1854 -0.3040  1.8353
  351SOL     OW 1051   0.609   0.285   2.887  0.0435  0.0867 -0.6496
  351SOL    HW1 1052   0.599   0.220   2.967  0.5833 -1.9709  0.6042
  351SOL    HW2 1053   0.706   0.290   2.853 -0.0872 -3.0375  0.1739
  352SOL     OW 1054   0.741   2.652   1.411  0.2335 -0.2997  0.8459
  352SOL    HW1 1055   0.797   2.658   1.497 -0.7802  1.3601 -0.7425
  352SOL    HW2 1056   0.648   2.689   1.434  0.0630 -1.6594 -1.3038
  353SOL     OW 1057   1.031   0.804   2.692  0.0255 -0.2145 -0.4279
  353SOL    HW1 1058   0.978   0.884   2.656  0.3918  3.2665  1.4744
  353SOL    HW2 1059   1.130   0.827   2.706  1.1344  1.4270 -0.5175
  354SOL     OW 1060   1.534   1.082   0.554 -0.1823  0.0998  0.6909
  354SOL    HW1 1061   1.488   1.002   0.511 -0.2638  0.0071 -0.0987
  354SOL    HW2 1062   1.560   1.139   0.477 -0.8384 -1.3409 -0.2984
  355SOL     OW 1063   2.626   0.094   0.653  0.1312  0.1838 -0.0111
  355SOL    HW1 1064   2.672   0.004   0.661  0.4491  0.4751 -0.0464
  355SOL    HW2 1065   2.623   0.142   0.741 -2.6219 -0.6697 -1.9681
  356SOL     OW 1066   2.893   0.892   2.583 -0.5603 -0.3079 -0.2605
  356SOL    HW1 1067   2.921   0.867   2.678 -0.8889 -0.4347 -0.8995
  356SOL    HW2 1068   2.850   0.806   2.547 -1.0664 -0.7027  1.6867
  357SOL     OW 1069   0.604   2.915   1.898 -0.2001  0.1424  0.4316
  357SOL    HW1 1070   0.594   3.004   1.849 -0.9899 -0.7140 -1.2717
  357SOL    HW2 1071   0.515   2.869   1.889  0.5590  0.4974  3.1224
  358SOL     OW 1072   2.958   1.323   2.657 -0.3074 -0.3742  0.0986
  358SOL    HW1 1073   2.898   1.407   2.676 -1.6715  3.1432  1.1957
  358SOL    HW2 1074   3.045   1.355   2.609  0.0183 -0.6008  1.0061
  359SOL     OW 1075   2.438   2.532   2.909  0.2347  0.1368  0.1288
  359SOL    HW1 1076   2.439   2.608   2.840 -0.3254  3.4162  1.0016
  359SOL    HW2 1077   2.489   2.451   2.874  0.7610  1.0525 -0.7912
  360SOL     OW 1078   1.838   0.947   1.075 -0.3041 -0.1281  0.1107
  360SOL    HW1 1079   1.865   1.037   1.041  1.2749 -1.9033  3.4472
  360SOL    HW2 1080   1.915   0.919   1.139 -0.8594 -0.3388 -1.0402
  361SOL     OW 1081   1.876   2.824   1.085 -0.2025  0.1770  0.1565
  361SOL    HW1 1082   1.810   2.860   1.154  1.0390 -0.7074 -0.6287
  361SOL    HW2 1083   1.899   2.903   1.018 -0.3318  1.8876 -3.0344
  362SOL     OW 1084   1.528   1.114   0.832  0.1159  0.9108 -0.5161
  362SOL    HW1 1085   1.541   1.088   0.731 -1.0016  1.0753 -3.1678
  362SOL    HW2 1086   1.584   1.192   0.852 -0.3910  0.3023 -0.3857
  363SOL     OW 1087   0.124   1.791   2.604  0.0220  0.5866  0.0178
  363SOL    HW1 1088   0.164   1.820   2.514  0.0044  0.4902 -3.4243
  363SOL    HW2 1089   0.148   1.692   2.614  0.1906  2.5406 -1.0058
  364SOL     OW 1090   1.403   0.634   1.387 -0.6106 -0.4484  0.1891
  364SOL    HW1 1091   1.379   0.560   1.453 -1.6333 -2.5548  1.1028
  364SOL    HW2 1092   1.473   0.601   1.320 -1.0561  1.6809  0.5462
  365SOL     OW 1093   0.021   0.101   1.421 -0.0776 -0.1899  0.3547
  365SOL    HW1 1094   0.089   0.132   1.352  0.9969  0.4988 -1.0344
  365SOL    HW2 1095   0.053   0.131   1.515  0.4456  0.8630 -0.9174
  366SOL     OW 1096   2.916   1.429   0.152  0.1286 -0.1388  0.3986
  366SOL    HW1 1097   2.848   1.491   0.195 -1.1599  3.4028  1.7641
  366SOL    HW2 1098   2.917   1.327   0.166  3.1427 -0.1015  1.2845
  367SOL     OW 1099   2.919   2.108   2.646  0.4238  0.1183 -0.2256
  367SOL    HW1 1100   2.919   2.197   2.589 -0.4701  1.1196 -1.2660
  367SOL    HW2 1101   2.867   2.120   2.731  3.4729 -0.3456  3.0691
  368SOL     OW 1102   3.092   2.110   0.926 -0.0628 -0.8179  0.3912
  368SOL    HW1 1103   3.010   2.157   0.976 -0.3543  0.9909  2.2086
  368SOL    HW2 1104   0.000   2.180   0.866 -0.2716  1.2073  1.8545
  369SOL     OW 1105   0.808   0.297   0.387  0.7650  0.0881  0.1585
  369SOL    HW1 1106   0.754   0.281   0.299 -0.4568 -0.6790 -4.6616
  369SOL    HW2 1107   0.782   0.234   0.466  0.5826 -2.0106  1.2041
  370SOL     OW 1108   0.600   0.837   1.415 -0.0352  0.0629  0.3909
  370SOL    HW1 1109   0.658   0.893   1.356 -0.4308 -0.2792 -1.7722
  370SOL    HW2 1110   0.648   0.768   1.460 -2.5934  0.3439 -3.0115
  371SOL     OW 1111   2.350   2.016   0.745  0.3872 -0.3333 -0.6266
  371SOL    HW1 1112   2.302   1.923   0.749 -2.1376  0.7465  2.1958
  371SOL    HW2 1113   2.370   2.053   0.650 -1.4103 -1.9410 -1.2129
  372SOL     OW 1114   0.202   0.772   2.511  0.3937 -0.2933  0.3366
  372SOL    HW1 1115   0.200   0.732   2.606  0.6236 -2.0648 -0.2720
  372SOL    HW2 1116   0.302   0.775   2.482  0.9587  0.2813 -0.5407
  373SOL     OW 1117   2.716   1.387   0.456  0.3557 -0.3092  0.5938
  373SOL    HW1 1118   2.768   1.464   0.500  3.2700  2.6340  3.7787
  373SOL    HW2 1119   2.766   1.297   0.453  3.0475 -1.9138 -1.2946
  374SOL     OW 1120   0.453   2.431   3.073  0.3860 -0.3148 -0.0892
  374SOL    HW1 1121   0.384   2.354   3.061 -2.0631  0.5403  0.1374
  374SOL    HW2 1122   0.480   2.442   0.034 -0.7173 -0.0975 -1.5670
  375SOL     OW 1123   0.656   0.274   0.131  0.0602  0.3587 -0.8416
  375SOL    HW1 1124   0.722   0.251   0.053  5.2172  0.3566 -0.6989
  375SOL    HW2 1125   0.631   0.190   0.186  0.2394 -3.6875 -0.5224
  376SOL     OW 1126   0.194   3.041   2.243  0.4711  0.4337 -0.6646
  376SOL    HW1 1127   0.130   3.117   2.219 -0.8761  0.9914  0.2741
  376SOL    HW2 1128   0.290   3.069   2.223  0.5334 -0.2189 -0.6185
  377SOL     OW 1129   0.598   1.798   2.299  0.2821 -0.0238 -0.1376
  377SOL    HW1 1130   0.615   1.840   2.392 -0.6883  0.8963  2.9045
  377SOL    HW2 1131   0.531   1.721   2.305 -2.3239 -1.7273  0.3638
  378SOL     OW 1132   1.435   0.866   0.440  0.5642  0.4658 -0.1054
  378SOL    HW1 1133   1.468   0.858   0.342  2.5984 -1.8100 -1.7018
  378SOL    HW2 1134   1.335   0.886   0.429 -0.5541  0.5681 -0.0326
  379SOL     OW 1135   1.200   1.384   0.179 -0.3428 -0.5569  0.0576
  379SOL    HW1 1136   1.146   1.431   0.255  1.5056  2.5066 -0.2353
  379SOL    HW2 1137   1.285   1.345   0.223  2.4878  0.0937 -0.3308
  380SOL     OW 1138   2.903   2.020   1.979  0.3203  0.7628 -0.6703
  380SOL    HW1 1139   2.822   1.964   2.014 -1.9889 -1.2977 -0.8365
  380SOL    HW2 1140   2.970   2.048   2.052 -0.7867 -0.0398 -1.6494
  381SOL     OW 1141   0.448   0.924   1.861  0.7125  0.2145  0.1904
  381SOL    HW1 1142   0.458   0.951   1.763 -2.9192  0.1758  0.4091
  381SOL    HW2 1143   0.364   0.871   1.864  0.4993 -0.7158 -0.5909
  382SOL     OW 1144   2.811   2.202   2.884 -0.7578  0.6176 -0.0293
  382SOL    HW1 1145   2.843   2.295   2.890 -3.9506 -3.1084 -0.5884
  382SOL    HW2 1146   2.826   2.147   2.967 -2.1125 -3.1275 -1.2158
  383SOL     OW 1147   2.372   1.997   2.337  0.0423 -0.4920  0.4159
  383SOL    HW1 1148   2.384   1.907   2.283  0.2259 -2.9587 -1.4613
  383SOL    HW2 1149   2.368   1.983   2.436  1.7534 -0.5007  0.1095
  384SOL     OW 1150   0.695   2.460   2.235  0.3083 -0.3283 -0.4786
  384SOL    HW1 1151   0.688   2.565   2.241 -2.9734  1.5552  1.5104
  384SOL    HW2 1152   0.619   2.426   2.179  1.6147 -1.4240 -0.2829
  385SOL     OW 1153   2.658   2.029   1.033  0.2244 -0.0852 -0.5307
  385SOL    HW1 1154   2.759   2.054   1.038 -2.5096  0.6932  1.2896
  385SOL    HW2 1155   2.620   2.009   1.129 -0.0440 -1.7195  1.3284
  386SOL     OW 1156   1.622   0.884   3.067 -0.2925 -0.1078  1.0315
  386SOL    HW1 1157   1.604   0.807   3.006 -1.4797  3.2062  2.5705
  386SOL    HW2 1158   1.710   0.875   3.108 -2.4259  0.3825 -2.0993
  387SOL     OW 1159   0.506   1.035   1.628  0.5893 -0.1506  0.3898
  387SOL    HW1 1160   0.563   0.978   1.568  2.7979 -0.3841 -1.0938
  387SOL    HW2 1161   0.567   1.100   1.686  0.7750  1.6687  2.2699
  388SOL     OW 1162   2.972   1.047   1.518 -0.3522 -0.1618  0.1446
  388SOL    HW1 1163   2.921   0.980   1.569  2.4064 -0.4060 -2.1373
  388SOL    HW2 1164   2.913   1.129   1.507  0.0136 -2.1859  2.4958
  389SOL     OW 1165   1.801   1.099   2.638  0.2092  0.2849 -0.4582
  389SOL    HW1 1166   1.784   1.146   2.724 -0.6876  0.8750  0.3936
  389SOL    HW2 1167   1.863   1.018   2.649  0.9788  1.9745 -2.2829
  390SOL     OW 1168   2.101   2.092   0.551  0.2392  0.0044 -0.0925
  390SOL    HW1 1169   2.035   2.172   0.571  1.6491  4.6581  1.1582
  390SOL    HW2 1170   2.195   2.130   0.536 -1.2134  1.0715 -1.4681
  391SOL     OW 1171   1.523   2.864   0.843  0.0118  0.0599  0.4704
  391SOL    HW1 1172   1.560   2.785   0.786  1.2541  2.3063 -0.2989
  391SOL    HW2 1173   1.511   2.827   0.941 -0.9766  1.2409 -1.7613
  392SOL     OW 1174   2.739   2.999   1.601  0.3456  0.1035  0.0028
  392SOL    HW1 1175   2.812   2.987   1.533 -2.2029  0.5516  1.9973
  392SOL    HW2 1176   2.645   3.009   1.548 -2.1886 -1.7422 -1.6830
  393SOL     OW 1177   1.952   2.059   2.960  0.4633  0.0042 -0.1850
  393SOL    HW1 1178   1.981   2.156   2.966  0.2434 -0.3804  0.0932
  393SOL    HW2 1179   2.001   2.012   3.037  0.3794  0.3919  0.6196
  394SOL     OW 1180   0.539   2.733   2.976 -0.1239  0.2005  0.1463
  394SOL    HW1 1181   0.533   2.646   3.026 -1.2645 -2.7320  0.9516
  394SOL    HW2 1182   0.638   2.757   2.951 -0.0803  1.8116 -2.7044
  395SOL     OW 1183   0.736   1.574   1.098  0.5203 -0.1194  0.0328
  395SOL    HW1 1184   0.664   1.530   1.041  0.7098  0.4347 -0.0522
  395SOL    HW2 1185   0.690   1.637   1.164  4.1047 -0.6105  2.2179
  396SOL     OW 1186   2.174   1.077   2.403 -0.2948  0.1821  0.2107
  396SOL    HW1 1187   2.127   1.108   2.320 -0.5347 -1.9094 -0.7742
  396SOL    HW2 1188   2.140   1.135   2.480  0.3768  0.4041  0.2091
  397SOL     OW 1189   2.964   0.778   2.831 -0.2134  0.7021  0.4320
  397SOL    HW1 1190   2.865   0.771   2.822  2.3551 -0.8610 -0.8066
  397SOL    HW2 1191   3.007   0.687   2.810  0.4727 -0.3685 -1.9810
  398SOL     OW 1192   1.423   0.304   0.247 -0.0330  0.4859  0.3972
  398SOL    HW1 1193   1.490   0.271   0.179  1.9768 -2.5862 -1.1532
  398SOL    HW2 1194   1.368   0.229   0.287 -2.5881  0.2821  0.6563
  399SOL     OW 1195   1.801   3.078   1.757  0.3562 -0.1864 -0.1839
  399SOL    HW1 1196   1.794   3.036   1.666 -2.3409 -1.0457 -0.8682
  399SOL    HW2 1197   1.780   3.017   1.837  0.0850 -3.0663  2.4230
  400SOL     OW 1198   3.113   2.373   2.229  0.3257 -0.4956 -0.2441
  400SOL    HW1 1199   3.092   2.278   2.240  2.0908  2.3672 -3.8307
  400SOL    HW2 1200   0.021   2.392   2.138  3.7949 -3.1645 -1.3524
  401SOL     OW 1201   0.589   0.024   0.258 -0.5904  0.3437 -0.0012
  401SOL    HW1 1202   0.503   3.134   0.309 -2.1615 -0.5401  1.7736
  401SOL    HW2 1203   0.607   3.091   0.184 -0.3151 -0.9158 -0.3993
  402SOL     OW 1204   0.101   2.568   1.508  0.0592  0.0658 -0.1389
  402SOL    HW1 1205   0.180   2.514   1.549  1.5096 -1.0980 -0.4586
  402SOL    HW2 1206   0.032   2.504   1.457 -0.9622  0.0447 -1.2193
  403SOL     OW 1207   0.308   1.212   1.591  0.4067 -0.2253 -0.4729
  403SOL    HW1 1208   0.222   1.156   1.614  0.3079  0.5060 -2.8681
  403SOL    HW2 1209   0.380   1.140   1.582 -0.4958  0.1466  0.4250
  404SOL     OW 1210   2.940   2.559   2.311 -0.3243  0.0395 -0.1832
  404SOL    HW1 1211   3.009   2.488   2.281 -0.6611 -1.6646 -2.2407
  404SOL    HW2 1212   2.987   2.642   2.339 -0.8620 -0.8866 -0.4114
  405SOL     OW 1213   2.621   0.347   2.310  0.6263  0.3950  0.9282
  405SOL    HW1 1214   2.534   0.293   2.298  1.1941 -1.4044 -1.7884
  405SOL    HW2 1215   2.608   0.438   2.264  0.2045 -0.3607  1.2513
  406SOL     OW 1216   1.975   2.370   0.177  0.2842 -0.4138  0.1426
  406SOL    HW1 1217   1.972   2.466   0.199  1.4830 -2.3998  0.2084
  406SOL    HW2 1218   1.904   2.315   0.222  1.8782  3.4930  1.1988
  407SOL     OW 1219   1.989   1.455   0.431  0.8026  0.2026  0.2156
  407SOL    HW1 1220   2.072   1.478   0.483 -0.8586 -1.0905  0.7831
  407SOL    HW2 1221   1.925   1.533   0.444 -1.0560 -0.4030  0.9246
  408SOL     OW 1222   0.557   0.393   2.306  0.1158 -0.4801  0.0214
  408SOL    HW1 1223   0.489   0.360   2.235  1.6263  3.0495  1.3495
  408SOL    HW2 1224   0.628   0.323   2.331 -0.2209  0.3053  1.3742
  409SOL     OW 1225   2.902   1.597   0.514  0.1507  0.2739  0.6453
  409SOL    HW1 1226   2.822   1.644   0.561  1.6543  1.5219  1.0261
  409SOL    HW2 1227   2.924   1.645   0.428 -0.6736 -0.1639  2.1074
  410SOL     OW 1228   2.051   1.685   1.373  0.0464  0.2210  0.4173
  410SOL    HW1 1229   2.151   1.692   1.361 -0.8113 -2.8698 -2.7082
  410SOL    HW2 1230   2.026   1.664   1.471  0.3842 -1.9836 -0.4206
  411SOL     OW 1231   0.013   0.539   0.433  0.4587 -0.0321  0.4423
  411SOL    HW1 1232   3.096   0.495   0.356 -2.1888  0.5137 -1.7628
  411SOL    HW2 1233   0.052   0.471   0.498  0.1671  0.8529 -0.3009
  412SOL     OW 1234   2.050   0.819   3.018  0.5358 -0.1103  0.9099
  412SOL    HW1 1235   1.981   0.840   3.088  2.3245  0.9663 -1.5144
  412SOL    HW2 1236   2.115   0.751   3.052 -2.6747 -1.0293 -1.1265
  413SOL     OW 1237   1.152   0.653   1.632 -0.0507 -0.7725 -0.9527
  413SOL    HW1 1238   1.190   0.566   1.593 -0.6374 -0.0951  0.0896
  413SOL    HW2 1239   1.164   0.721   1.555 -1.7046 -1.9870 -2.5976
  414SOL     OW 1240   0.153   1.135   0.175 -0.3148 -0.4183  0.7231
  414SOL    HW1 1241   0.174   1.171   0.080 -2.8954 -0.4865 -1.5625
  414SOL    HW2 1242   0.057   1.103   0.184  2.3931  1.9812  0.9915
  415SOL     OW 1243   0.323   1.463   0.561  0.0465  0.2627 -0.0906
  415SOL    HW1 1244   0.278   1.554   0.545 -1.1714 -0.0630  0.6084
  415SOL    HW2 1245   0.275   1.385   0.521  0.1006  0.9081 -0.9074
  416SOL     OW 1246   1.786   0.777   0.346 -0.1455  0.0495 -0.1674
  416SOL    HW1 1247   1.714   0.704   0.350 -1.6800  2.6482  1.6563
  416SOL    HW2 1248   1.887   0.741   0.349  0.5764  2.3034  0.6017
  417SOL     OW 1249   0.209   0.182   0.983  0.5844  0.4694 -0.2723
  417SOL    HW1 1250   0.225   0.236   0.899  2.3529 -3.7153  0.0923
  417SOL    HW2 1251   0.247   0.090   0.974 -1.3447  1.2233  1.6327
  418SOL     OW 1252   2.346   0.977   0.005  0.7463  0.5737  0.2428
  418SOL    HW1 1253   2.401   0.903   3.100 -2.6435 -0.2841  3.2861
  418SOL    HW2 1254   2.272   1.015   3.085 -0.2187 -1.2490 -2.2147
  419SOL     OW 1255   0.480   0.493   0.087  0.1288  0.3443  0.3269
  419SOL    HW1 1256   0.390   0.464   0.101  4.2602  0.4701 -0.7900
  419SOL    HW2 1257   0.552   0.422   0.108  2.0958 -1.8093  0.9858
  420SOL     OW 1258   0.501   1.475   0.958 -0.1226  0.2407 -0.6377
  420SOL    HW1 1259   0.495   1.396   0.892 -1.2058 -0.6404 -1.8503
  420SOL    HW2 1260   0.415   1.490   1.011 -0.5575  2.8254 -0.2426
  421SOL     OW 1261   0.345   2.161   0.195  0.4913  0.0262 -0.2431
  421SOL    HW1 1262   0.359   2.066   0.165 -1.9208  2.4376 -0.7728
  421SOL    HW2 1263   0.327   2.221   0.115  0.5418  0.0588 -0.4037
  422SOL     OW 1264   2.635   0.262   1.643  0.6540  0.5249  0.5295
  422SOL    HW1 1265   2.639   0.181   1.698 -1.0426  1.3046 -1.2412
  422SOL    HW2 1266   2.638   0.235   1.549  0.4980 -3.4722  1.6332
  423SOL     OW 1267   2.186   1.801   0.702 -0.2655 -0.1895  0.1207
  423SOL    HW1 1268   2.128   1.777   0.779  0.1794 -2.5922 -2.7053
  423SOL    HW2 1269   2.158   1.891   0.662 -0.7528  1.5093 -0.7906
  424SOL     OW 1270   2.008   1.351   3.120 -0.0370 -0.4277 -1.0403
  424SOL    HW1 1271   2.097   1.404   3.121  4.2784 -0.3762 -2.2163
  424SOL    HW2 1272   1.928   1.408   0.016  1.2372 -0.0771 -1.7335
  425SOL     OW 1273   0.212   2.955   2.510 -0.1339 -0.7105 -0.5894
  425SOL    HW1 1274   0.308   2.939   2.544 -0.2755 -1.6753  2.8881
  425SOL    HW2 1275   0.210   2.972   2.407 -0.7243  1.1585 -2.4000
  426SOL     OW 1276   2.437   2.735   2.712 -0.4153 -0.7861 -0.0864
  426SOL    HW1 1277   2.385   2.814   2.755 -0.5019  3.2142 -2.1763
  426SOL    HW2 1278   2.421   2.730   2.611 -0.0337  1.6063  2.7494
  427SOL     OW 1279   0.813   1.054   2.209 -0.2855 -0.1681  0.2062
  427SOL    HW1 1280   0.842   0.963   2.238 -1.5614  1.7004  0.9945
  427SOL    HW2 1281   0.753   1.105   2.277  2.2272  2.6329 -1.1321
  428SOL     OW 1282   2.283   1.305   2.079  0.6659  0.2671  0.1125
  428SOL    HW1 1283   2.329   1.214   2.087  1.0430 -2.0578 -1.6692
  428SOL    HW2 1284   2.322   1.352   1.995 -2.0067  0.1157 -2.3282
  429SOL     OW 1285   2.351   0.057   0.584 -0.7201  0.1297  0.0097
  429SOL    HW1 1286   2.315   0.089   0.493 -2.4678 -0.2839 -2.7900
  429SOL    HW2 1287   2.453   0.082   0.596  1.1850  1.2934  0.1159
  430SOL     OW 1288   1.785   1.514   2.216  0.0056 -0.2297 -0.3101
  430SOL    HW1 1289   1.791   1.481   2.120 -0.7691  0.1275  5.6474
  430SOL    HW2 1290   1.817   1.445   2.283 -0.5748  0.7241  0.0873
  431SOL     OW 1291   2.909   1.958   1.706  0.4661  0.4341  0.4225
  431SOL    HW1 1292   2.992   1.940   1.649  2.3621 -0.0606 -0.6551
  431SOL    HW2 1293   2.927   1.994   1.800 -2.3071 -2.1266 -2.5544
  432SOL     OW 1294   0.859   2.818   1.860 -0.0089 -0.0945  0.2996
  432SOL    HW1 1295   0.849   2.786   1.765  0.8114  4.5525 -1.1633
  432SOL    HW2 1296   0.768   2.859   1.889 -1.0611  0.9812 -1.7789
  433SOL     OW 1297   1.651   3.091   0.958  0.2577  0.5074  0.1052
  433SOL    HW1 1298   1.744   3.113   0.932 -2.6642 -1.4435  1.2163
  433SOL    HW2 1299   1.611   3.013   0.905  0.1114  0.8129  1.4105
  434SOL     OW 1300   0.260   2.181   1.965  0.3627  0.6747  0.2462
  434SOL    HW1 1301   0.360   2.197   1.962 -1.9083  1.4216 -0.0364
  434SOL    HW2 1302   0.225   2.112   1.903 -0.5325 -0.2701  3.4887
  435SOL     OW 1303   0.616   1.446   0.555  0.6254 -0.0065  0.3352
  435SOL    HW1 1304   0.657   1.484   0.467  1.3117  0.2762 -1.2248
  435SOL    HW2 1305   0.515   1.428   0.543  0.0727  0.5139  0.3633
  436SOL     OW 1306   0.086   1.552   1.814  0.0488  0.4416 -0.3284
  436SOL    HW1 1307   0.088   1.638   1.864 -3.1905 -1.1812 -0.3171
  436SOL    HW2 1308   0.151   1.545   1.741 -0.7156 -1.8339  1.2931
  437SOL     OW 1309   1.131   0.491   3.040  0.2495  0.7175  0.2877
  437SOL    HW1 1310   1.203   0.563   3.042 -0.5830 -1.1754 -3.1804
  437SOL    HW2 1311   1.045   0.526   2.996  0.8949  3.7538  2.0234
  438SOL     OW 1312   0.379   1.873   1.507 -0.3864 -0.2079 -0.3715
  438SOL    HW1 1313   0.329   1.925   1.436  0.2897 -0.9416 -2.2731
  438SOL    HW2 1314   0.468   1.914   1.541  2.3560  1.0110  2.7392
  439SOL     OW 1315   1.943   1.685   3.013 -0.0204  0.3145 -0.0001
  439SOL    HW1 1316   1.962   1.781   3.042  1.0523 -2.1313  0.3066
  439SOL    HW2 1317   2.016   1.656   2.952  0.2549  0.3036  3.5010
  440SOL     OW 1318   1.539   0.333   0.670 -0.2539 -0.2257  0.0308
  440SOL    HW1 1319   1.462   0.262   0.690 -0.8148 -0.6355 -1.8253
  440SOL    HW2 1320   1.512   0.412   0.611  0.1771  0.4037 -0.6290
  441SOL     OW 1321   0.514   2.792   1.444 -0.4853 -0.0641  0.2139
  441SOL    HW1 1322   0.426   2.782   1.496 -1.2933 -2.0072  2.9178
  441SOL    HW2 1323   0.525   2.888   1.407  0.3111  0.0881  0.5684
  442SOL     OW 1324   2.554   2.427   0.961 -0.5912 -0.6838 -0.1639
  442SOL    HW1 1325   2.472   2.460   1.016 -2.9437 -0.3590 -1.0592
  442SOL    HW2 1326   2.538   2.333   0.925 -2.0184  0.1464  0.8361
  443SOL     OW 1327   2.757   0.682   2.482 -0.2317  0.2598 -0.3016
  443SOL    HW1 1328   2.703   0.646   2.401 -2.7737 -0.1101 -1.3673
  443SOL    HW2 1329   2.833   0.617   2.504  1.8919  2.4069  0.6269
  444SOL     OW 1330   1.561   1.075   2.508 -0.0237  0.4241 -0.2286
  444SOL    HW1 1331   1.648   1.063   2.561  0.2207 -0.4809  1.9238
  444SOL    HW2 1332   1.572   1.041   2.411  0.1734 -2.5850 -2.4580
  445SOL     OW 1333   2.743   2.269   1.566 -0.2071  0.0431 -0.1368
  445SOL    HW1 1334   2.734   2.241   1.664  0.8056 -1.9479  0.0794
  445SOL    HW2 1335   2.681   2.218   1.503  0.7149  0.6775 -1.6388
  446SOL     OW 1336   0.063   1.240   0.613  0.3110  0.1285  0.0582
  446SOL    HW1 1337   0.009   1.164   0.664 -0.4113  0.4271  3.6646
  446SOL    HW2 1338   0.018   1.330   0.624  0.6058 -0.2943 -1.8148
  447SOL     OW 1339   0.788   2.285   0.811 -0.2587 -0.4107  0.0641
  447SOL    HW1 1340   0.758   2.351   0.882  0.0582 -0.7278 -0.1191
  447SOL    HW2 1341   0.710   2.229   0.779 -0.8298 -1.4492  0.3148
  448SOL     OW 1342   1.544   1.556   1.559  0.0020  0.1677  0.0250
  448SOL    HW1 1343   1.517   1.517   1.647 -1.1474  1.3757 -0.9195
  448SOL    HW2 1344   1.489   1.513   1.488  1.4204  2.4122  3.7648
  449SOL     OW 1345   0.706   1.718   2.956 -0.5860 -0.2306  0.0164
  449SOL    HW1 1346   0.738   1.623   2.945 -0.0084  1.9570  0.1633
  449SOL    HW2 1347   0.769   1.775   3.014 -1.1224  0.2409  1.5249
  450SOL     OW 1348   2.831   2.218   2.172  0.1497  0.7037  0.0535
  450SOL    HW1 1349   2.738   2.197   2.194  2.2162 -1.3453  4.5330
  450SOL    HW2 1350   2.893   2.138   2.157 -1.3912 -0.7353 -0.3506
  451SOL     OW 1351   1.983   0.601   1.659 -0.5866  0.5465 -0.0737
  451SOL    HW1 1352   1.935   0.618   1.575  3.7755  1.3063  1.5026
  451SOL    HW2 1353   2.049   0.681   1.678 -0.4603  0.7452 -0.3445
  452SOL     OW 1354   0.817   2.783   1.210  0.2430 -0.2813 -0.6163
  452SOL    HW1 1355   0.793   2.731   1.294  2.3086 -0.2770  0.8181
  452SOL    HW2 1356   0.734   2.828   1.163 -1.7058 -0.1814 -3.3758
  453SOL     OW 1357   0.920   1.785   1.044  0.0682 -0.2961  0.0317
  453SOL    HW1 1358   0.871   1.700   1.068  1.8004  0.0733 -2.2764
  453SOL    HW2 1359   0.866   1.867   1.075 -1.1326  1.2286  1.4798
  454SOL     OW 1360   2.998   1.060   0.743 -0.7138  0.1115 -0.2743
  454SOL    HW1 1361   3.038   0.981   0.695  0.2606  0.4740 -1.5092
  454SOL    HW2 1362   3.019   1.054   0.845 -1.0195 -0.6471  0.9234
  455SOL     OW 1363   0.265   0.179   0.434 -0.6336  0.5110  0.5448
  455SOL    HW1 1364   0.189   0.208   0.492  2.5411 -1.3853  0.9851
  455SOL    HW2 1365   0.339   0.248   0.433 -1.0871 -0.0628 -0.1573
  456SOL     OW 1366   2.106   2.483   0.478 -0.0600  0.3109 -0.2861
  456SOL    HW1 1367   2.069   2.575   0.510  1.0138  4.2859  0.0633
  456SOL    HW2 1368   2.079   2.409   0.545 -1.2465  2.6038  1.5001
  457SOL     OW 1369   1.413   2.707   2.993 -0.3755 -0.8946  0.5218
  457SOL    HW1 1370   1.448   2.804   2.979  1.9834  2.1955 -0.1609
  457SOL    HW2 1371   1.414   2.663   2.898 -1.6835 -3.7635 -2.0834
  458SOL     OW 1372   2.764   2.924   0.180  0.2001  0.2915 -0.3951
  458SOL    HW1 1373   2.743   2.874   0.093  2.5301  0.5770  1.4209
  458SOL    HW2 1374   2.743   3.021   0.167 -1.1956 -3.6918  0.5106
  459SOL     OW 1375   2.192   0.436   1.765  0.3785 -0.0117  0.8498
  459SOL    HW1 1376   2.186   0.382   1.850  0.4202  0.8272 -0.7380
  459SOL    HW2 1377   2.098   0.466   1.734 -1.5537  2.1830 -4.7344
  460SOL     OW 1378   3.041   0.415   0.215  0.4360 -0.4421  0.0171
  460SOL    HW1 1379   3.106   0.446   0.140 -0.4111 -1.1650 -0.9742
  460SOL    HW2 1380   2.947   0.439   0.187 -0.2048 -2.1859  1.0100
  461SOL     OW 1381   3.089   1.902   1.325 -0.2994 -0.1968 -0.1490
  461SOL    HW1 1382   3.018   1.844   1.281 -0.9247  0.7213  1.1333
  461SOL    HW2 1383   0.019   1.921   1.246 -0.5773 -3.2643 -0.5100
  462SOL     OW 1384   3.082   0.041   0.975  0.3275 -0.2560  0.2792
  462SOL    HW1 1385   0.034   0.091   0.947  0.5149 -1.8827  0.9967
  462SOL    HW2 1386   3.010   0.104   1.011  2.2069 -2.2341 -1.5640
  463SOL     OW 1387   2.774   1.054   3.052  0.2494 -0.5183  0.6788
  463SOL    HW1 1388   2.785   1.095   0.011  0.8920  0.4751 -0.5880
  463SOL    HW2 1389   2.858   1.073   2.994  2.3661 -1.0695  0.5792
  464SOL     OW 1390   0.571   2.876   1.122 -0.1030  0.1912 -0.2183
  464SOL    HW1 1391   0.602   2.938   1.044 -1.3058 -1.0746 -0.7898
  464SOL    HW2 1392   0.564   2.932   1.207 -1.0729  2.3108  0.7969
  465SOL     OW 1393   0.919   0.552   1.124 -0.2261  0.1174 -0.4299
  465SOL    HW1 1394   1.021   0.553   1.105  0.9081 -2.2978 -1.7013
  465SOL    HW2 1395   0.871   0.554   1.037  3.8440  0.1017 -0.0802
  466SOL     OW 1396   1.597   2.327   2.267 -0.1753  0.2590 -0.1147
  466SOL    HW1 1397   1.645   2.374   2.193  0.4205 -2.3450  2.6769
  466SOL    HW2 1398   1.662   2.331   2.350  1.3618  1.9500  0.4767
  467SOL     OW 1399   0.849   0.229   1.951 -0.3798  0.7120  0.0532
  467SOL    HW1 1400   0.899   0.287   1.884  0.9316 -1.9072  1.0010
  467SOL    HW2 1401   0.878   0.136   1.937  1.9121  0.4546  1.5350
  468SOL     OW 1402   0.368   1.106   2.324  0.3322  0.1902 -0.4790
  468SOL    HW1 1403   0.358   1.102   2.225  0.5029 -0.9769  0.1846
  468SOL    HW2 1404   0.468   1.101   2.336  0.6445  1.4326 -1.9343
  469SOL     OW 1405   0.877   2.395   0.567  0.0675 -0.1387 -0.0688
  469SOL    HW1 1406   0.944   2.456   0.602 -2.6208 -1.6386  1.1281
  469SOL    HW2 1407   0.836   2.340   0.644 -3.2705 -0.7684  1.7715
  470SOL     OW 1408   2.434   1.711   2.156 -0.3642  0.4509 -0.3076
  470SOL    HW1 1409   2.477   1.652   2.082 -1.2103  0.9433  2.0302
  470SOL    HW2 1410   2.399   1.645   2.223  2.3149 -1.3141  0.1751
  471SOL     OW 1411   1.182   2.805   2.822 -0.5040 -0.3512 -0.6283
  471SOL    HW1 1412   1.158   2.770   2.917  1.5329  1.7870 -0.2954
  471SOL    HW2 1413   1.244   2.883   2.821 -0.8750 -0.2111 -2.4395
  472SOL     OW 1414   0.353   2.855   1.828  0.2604  0.6664  0.2826
  472SOL    HW1 1415   0.290   2.803   1.899  0.0306 -0.6356  2.3255
  472SOL    HW2 1416   0.306   2.853   1.737 -1.0357  1.7728  1.5227
  473SOL     OW 1417   0.908   3.133   2.926 -0.4906  0.0482  0.2196
  473SOL    HW1 1418   0.875   3.134   2.830  0.0123  0.8481  1.7858
  473SOL    HW2 1419   0.849   0.059   2.982 -0.1735 -0.0318  3.6568
  474SOL     OW 1420   1.894   0.112   0.902 -0.2437  0.1422  0.4361
  474SOL    HW1 1421   1.863   0.150   0.812  2.5832 -1.5384  1.0531
  474SOL    HW2 1422   1.931   0.190   0.958  0.1887  2.8849 -0.0376
  475SOL     OW 1423   1.547   0.314   1.240  0.6259 -0.1384 -0.2809
  475SOL    HW1 1424   1.527   0.275   1.149 -0.5311 -0.3509  1.8007
  475SOL    HW2 1425   1.583   0.408   1.223 -0.8775 -2.1093  1.2188
  476SOL     OW 1426   0.515   1.038   0.991  0.4596 -0.1412  0.3097
  476SOL    HW1 1427   0.535   1.114   0.929  1.3330 -3.4842 -0.0534
  476SOL    HW2 1428   0.453   1.077   1.060 -1.1956  2.3504  0.8231
  477SOL     OW 1429   1.226   2.435   0.739 -0.4644 -0.1139 -0.0067
  477SOL    HW1 1430   1.197   2.503   0.664 -0.2189  1.8346 -1.1741
  477SOL    HW2 1431   1.251   2.490   0.820 -1.4560  1.2433 -4.2976
  478SOL     OW 1432   0.009   2.730   2.404  0.2028  0.1164 -0.1923
  478SOL    HW1 1433   0.027   2.730   2.505 -3.0935  0.7690 -1.7298
  478SOL    HW2 1434   0.097   2.731   2.351 -1.0442  0.2880 -2.6560
  479SOL     OW 1435   3.086   0.429   0.989  0.0593 -0.2547 -0.0130
  479SOL    HW1 1436   3.083   0.399   1.082  2.7691 -1.1867 -3.1202
  479SOL    HW2 1437   3.002   0.413   0.940  2.1805  1.0270 -2.2998
  480SOL     OW 1438   0.015   2.662   0.143  0.1550  0.2069  0.4728
  480SOL    HW1 1439   3.080   2.591   0.154  1.9951  3.0676  0.0469
  480SOL    HW2 1440   3.108   2.754   0.152  0.4073  1.6595  1.2170
  481SOL     OW 1441   2.352   1.983   1.881 -0.8010 -0.2564 -0.1290
  481SOL    HW1 1442   2.253   1.985   1.896  1.6775  1.2271 -1.5143
  481SOL    HW2 1443   2.402   2.066   1.920  1.4199 -1.0531  0.8134
  482SOL     OW 1444   1.579   2.153   2.637 -0.0036  0.2820 -0.0471
  482SOL    HW1 1445   1.652   2.178   2.566 -1.3013  2.6283 -0.6133
  482SOL    HW2 1446   1.483   2.173   2.608  1.3747  4.1257 -2.7200
  483SOL     OW 1447   0.814   1.569   1.649  0.3011 -0.2268  0.1846
  483SOL    HW1 1448   0.761   1.632   1.586  0.1006 -0.3866  4.2632
  483SOL    HW2 1449   0.763   1.533   1.725  4.5986  2.9030  0.7022
  484SOL     OW 1450   0.467   0.579   1.412  0.0478 -0.1547 -0.1960
  484SOL    HW1 1451   0.486   0.672   1.369 -0.0681  0.6773  0.0651
  484SOL    HW2 1452   0.465   0.508   1.335  1.9680  0.0046 -0.7340
  485SOL     OW 1453   2.341   1.242   2.840 -0.2320 -0.4315  0.3787
  485SOL    HW1 1454   2.265   1.178   2.865 -0.3536 -3.1857 -1.2180
  485SOL    HW2 1455   2.431   1.205   2.866 -2.5655 -0.6984  0.8798
  486SOL     OW 1456   1.469   3.053   1.592 -0.1890  0.3892  0.4525
  486SOL    HW1 1457   1.461   3.120   1.517  2.2132 -1.9556 -0.4439
  486SOL    HW2 1458   1.372   3.032   1.622 -0.8888 -1.1107  1.0075
  487SOL     OW 1459   0.315   2.358   1.598 -0.5566 -0.2030 -0.0530
  487SOL    HW1 1460   0.396   2.378   1.656 -0.4773 -0.2467 -1.2872
  487SOL    HW2 1461   0.344   2.342   1.500 -0.4797 -1.1074 -1.1604
  488SOL     OW 1462   2.624   1.989   2.859  0.1138  0.0231  0.1453
  488SOL    HW1 1463   2.529   2.001   2.907 -1.8790  0.1640  1.5639
  488SOL    HW2 1464   2.680   2.073   2.868  0.5664 -1.7506 -1.1502
  489SOL     OW 1465   2.164   3.010   0.664  0.2349  0.1339 -0.3131
  489SOL    HW1 1466   2.208   2.921   0.688  2.8623  0.8912 -0.7438
  489SOL    HW2 1467   2.230   3.083   0.635  2.5439 -0.0603  0.0390
  490SOL     OW 1468   1.204   2.381   2.857 -0.1073  0.1984  0.7012
  490SOL    HW1 1469   1.129   2.355   2.795  0.8061 -2.1751 -0.9584
  490SOL    HW2 1470   1.213   2.317   2.936  0.1781 -2.5332 -0.9551
  491SOL     OW 1471   0.286   1.603   1.641  0.7042  0.3939 -0.7182
  491SOL    HW1 1472   0.324   1.700   1.631 -3.0186 -0.0616 -0.4307
  491SOL    HW2 1473   0.354   1.533   1.681 -0.9365 -0.1612  0.1782
  492SOL     OW 1474   1.288   1.268   1.989 -0.4525 -0.4312  0.4611
  492SOL    HW1 1475   1.190   1.253   2.014  1.6526  1.5135  0.2214
  492SOL    HW2 1476   1.299   1.326   1.907  0.6791 -0.7208 -1.0152
  493SOL     OW 1477   2.547   1.663   0.773 -0.1579  0.1032 -0.0322
  493SOL    HW1 1478   2.458   1.679   0.822  3.7112 -0.1690 -0.7905
  493SOL    HW2 1479   2.608   1.745   0.793  1.1586  0.0085 -0.0444
  494SOL     OW 1480   0.097   2.000   1.118 -0.2900 -0.1962 -0.3073
  494SOL    HW1 1481   0.045   2.057   1.051  0.7336 -0.9490 -1.2643
  494SOL    HW2 1482   0.150   1.927   1.067  2.1868  0.0913  2.1955
  495SOL     OW 1483   2.377   2.715   0.904 -0.1851  0.0906 -0.2429
  495SOL    HW1 1484   2.459   2.775   0.890  0.0801 -1.1899 -1.5547
  495SOL    HW2 1485   2.384   2.644   0.981 -1.3083 -0.9231  1.8660
  496SOL     OW 1486   2.494   3.097   1.496 -0.1828 -0.0717  0.2801
  496SOL    HW1 1487   2.540   0.036   1.444  0.5643 -1.8645  1.3948
  496SOL    HW2 1488   2.424   0.006   1.562 -1.7243  1.6437  3.1402
  497SOL     OW 1489   2.517   0.732   2.606  0.4993 -0.2249 -0.3812
  497SOL    HW1 1490   2.600   0.720   2.551 -1.3796  1.8234  0.8395
  497SOL    HW2 1491   2.461   0.811   2.568 -2.3906  2.5264  0.2534
  498SOL     OW 1492   2.982   2.160   1.403 -0.1475  0.0791 -0.4333
  498SOL    HW1 1493   3.034   2.070   1.396  1.9542 -1.9874 -1.8523
  498SOL    HW2 1494   2.913   2.168   1.479  0.2087 -0.8785  2.1081
  499SOL     OW 1495   0.879   2.397   2.051 -0.8103 -0.3436  0.2287
  499SOL    HW1 1496   0.808   2.426   2.116 -1.6828 -2.8024  0.5541
  499SOL    HW2 1497   0.919   2.483   2.003 -0.1203  1.4983 -1.3616
  500SOL     OW 1498   1.296   2.185   0.436 -0.0510  0.0724  0.2378
  500SOL    HW1 1499   1.199   2.214   0.439 -2.4711  0.2931  2.2232
  500SOL    HW2 1500   1.313   2.093   0.394 -0.2927  0.2153 -0.6560
  501SOL     OW 1501   1.768   2.939   1.518  0.1914  0.3009  0.2776
  501SOL    HW1 1502   1.685   2.992   1.507  1.6212 -1.7091  1.2695
  501SOL    HW2 1503   1.760   2.864   1.585 -0.2034 -1.0432 -0.8294
  502SOL     OW 1504   2.584   0.524   1.580 -0.0118 -0.2462 -0.6654
  502SOL    HW1 1505   2.531   0.562   1.658  1.9940 -0.3353 -2.6167
  502SOL    HW2 1506   2.604   0.427   1.612 -0.6812  1.8986  0.8061
  503SOL     OW 1507   2.778   1.191   2.254  0.7171 -0.3486 -0.1253
  503SOL    HW1 1508   2.826   1.281   2.259 -1.5607  1.4489  2.2041
  503SOL    HW2 1509   2.733   1.184   2.163 -0.8590 -1.0950  0.8020
  504SOL     OW 1510   1.609   1.066   1.377  0.5049  0.0497  0.0031
  504SOL    HW1 1511   1.656   0.975   1.400  2.2721 -0.2243 -0.8472
  504SOL    HW2 1512   1.587   1.059   1.275  2.7344 -2.5283 -4.9238
  505SOL     OW 1513   0.573   3.036   1.345  0.0437 -0.0951  0.2343
  505SOL    HW1 1514   0.671   3.067   1.347 -0.1850 -2.2015 -0.1033
  505SOL    HW2 1515   0.514   3.119   1.355  0.5763  0.0622  2.4381
  506SOL     OW 1516   3.009   0.141   0.216  0.0175  0.6961 -0.2930
  506SOL    HW1 1517   3.030   0.243   0.216  0.1731  1.7701 -0.3231
  506SOL    HW2 1518   3.091   0.081   0.187 -2.4385 -0.9501 -1.0909
  507SOL     OW 1519   2.814   2.557   0.004  0.7931  0.1745 -0.0583
  507SOL    HW1 1520   2.846   2.521   3.049 -1.1530  0.8120  1.7779
  507SOL    HW2 1521   2.874   2.527   0.078  1.1146 -1.6495 -2.2795
  508SOL     OW 1522   1.196   0.382   1.878  0.7279  0.5442  0.5112
  508SOL    HW1 1523   1.104   0.389   1.834 -0.4415  0.2320 -1.3554
  508SOL    HW2 1524   1.245   0.300   1.856  1.3928  5.3313  1.8640
  509SOL     OW 1525   1.722   1.910   1.225 -0.1580 -0.1169 -0.4546
  509SOL    HW1 1526   1.715   1.865   1.318  0.0405 -1.6925  0.8724
  509SOL    HW2 1527   1.628   1.926   1.195 -0.3296 -0.2916  2.1849
  510SOL     OW 1528   2.485   0.789   1.287 -0.2997  0.0202 -0.2290
  510SOL    HW1 1529   2.533   0.823   1.373 -0.0935  2.1237 -1.1905
  510SOL    HW2 1530   2.405   0.730   1.310  0.2482  1.4045  2.7554
  511SOL     OW 1531   1.253   1.972   1.352 -0.2723 -0.0756 -0.1406
  511SOL    HW1 1532   1.303   2.046   1.403  0.1947  0.8202  2.0673
  511SOL    HW2 1533   1.228   1.891   1.412 -1.5034 -2.4284 -0.6685
  512SOL     OW 1534   3.066   1.454   0.698 -0.6408 -0.1423  0.1596
  512SOL    HW1 1535   3.061   1.488   0.794  1.8835 -1.0604  1.8068
  512SOL    HW2 1536   2.995   1.496   0.636 -2.0584  0.0156 -2.8663
  513SOL     OW 1537   3.120   1.625   0.110  0.3811 -0.1824  0.1400
  513SOL    HW1 1538   0.005   1.616   0.013 -0.4316 -1.6126 -0.2246
  513SOL    HW2 1539   3.082   1.533   0.131  0.3502 -1.7130 -1.2904
  514SOL     OW 1540   2.576   2.153   2.195  0.0503  0.6482  0.2465
  514SOL    HW1 1541   2.518   2.114   2.269 -1.4695 -0.6029 -0.5164
  514SOL    HW2 1542   2.515   2.159   2.112 -3.0448 -0.0816 -1.1259
  515SOL     OW 1543   2.161   1.091   0.638  0.4828 -0.5400 -0.1178
  515SOL    HW1 1544   2.142   1.006   0.596 -2.3425 -1.2193 -0.0988
  515SOL    HW2 1545   2.216   1.155   0.578 -2.0308  1.2416  0.9602
  516SOL     OW 1546   2.428   2.802   0.118  0.5671  0.4755  0.5632
  516SOL    HW1 1547   2.451   2.870   0.046  2.1984 -1.9591 -0.7446
  516SOL    HW2 1548   2.471   2.711   0.106 -1.6669  0.2618 -1.9757
  517SOL     OW 1549   0.837   1.421   2.578 -0.0918 -0.0998 -0.7051
  517SOL    HW1 1550   0.919   1.361   2.548  2.0631 -0.0092 -0.4714
  517SOL    HW2 1551   0.845   1.516   2.540 -2.6339 -0.4248 -0.9808
  518SOL     OW 1552   0.373   0.251   2.150 -0.0578  0.2058 -0.1563
  518SOL    HW1 1553   0.396   0.152   2.149  0.7851 -0.5581  0.9591
  518SOL    HW2 1554   0.272   0.268   2.164 -0.9785 -1.2062 -0.9906
  519SOL     OW 1555   0.960   1.127   0.148 -0.4071 -0.2340 -0.5306
  519SOL    HW1 1556   0.975   1.194   0.073  0.1802 -3.4138 -2.0820
  519SOL    HW2 1557   0.927   1.173   0.230 -1.1320  0.9031 -0.2405
  520SOL     OW 1558   2.763   2.502   2.120 -0.7193 -0.3219 -0.1093
  520SOL    HW1 1559   2.766   2.398   2.127  3.4519 -1.3246 -0.4595
  520SOL    HW2 1560   2.831   2.546   2.186  2.4808 -0.1239  0.6947
  521SOL     OW 1561   0.626   2.072   2.231 -0.6699  0.5177 -0.0554
  521SOL    HW1 1562   0.629   1.986   2.286  3.1033  0.0315  2.4044
  521SOL    HW2 1563   0.651   2.048   2.135 -0.3905  1.0873 -0.8961
  522SOL     OW 1564   1.526   2.916   1.824 -0.9409 -0.7040 -0.0071
  522SOL    HW1 1565   1.449   2.848   1.827  1.5519  1.4019  1.2725
  522SOL    HW2 1566   1.518   2.993   1.756  1.7620  0.7717 -1.7449
  523SOL     OW 1567   1.984   2.112   1.555  0.0054  0.6777 -0.1855
  523SOL    HW1 1568   2.084   2.114   1.542 -1.5185 -0.9426 -1.5280
  523SOL    HW2 1569   1.944   2.066   1.473 -2.0799 -1.6684  0.2300
  524SOL     OW 1570   0.619   2.737   0.413 -0.2106  0.1681  0.2249
  524SOL    HW1 1571   0.645   2.793   0.493  1.4550  1.3390  0.1430
  524SOL    HW2 1572   0.633   2.640   0.437  0.5504 -0.1063  2.4383
  525SOL     OW 1573   2.936   0.208   0.634 -0.3739  0.4735 -0.7003
  525SOL    HW1 1574   2.904   0.201   0.537 -0.5015 -1.5998  0.2490
  525SOL    HW2 1575   2.949   0.117   0.668  0.2508 -0.7035 -4.0780
  526SOL     OW 1576   1.057   0.005   0.481 -0.2166  0.3397 -0.4132
  526SOL    HW1 1577   0.961   3.125   0.445 -1.4013 -4.3278  0.3302
  526SOL    HW2 1578   1.066   3.099   0.574  0.8691  1.4185  0.7919
  527SOL     OW 1579   1.815   1.701   1.033  0.1209  0.1010  0.0882
  527SOL    HW1 1580   1.815   1.632   1.108 -1.3513 -2.2378 -1.6273
  527SOL    HW2 1581   1.782   1.795   1.064  1.9186 -0.1390  0.6594
  528SOL     OW 1582   2.744   2.593   2.501 -0.2173  0.5761  0.4679
  528SOL    HW1 1583   2.657   2.592   2.449  1.1198  1.2718 -1.4906
  528SOL    HW2 1584   2.817   2.579   2.428  0.3526 -1.9596  2.3841
  529SOL     OW 1585   1.102   1.602   2.629  0.7657  0.0236  1.0824
  529SOL    HW1 1586   1.009   1.642   2.624 -2.0338  1.3684 -0.3114
  529SOL    HW2 1587   1.125   1.559   2.538 -0.1765 -1.0230  1.5507
  530SOL     OW 1588   1.554   1.119   3.014  0.1443 -0.5458 -0.4152
  530SOL    HW1 1589   1.582   1.022   3.042 -0.4416 -2.2035  2.4529
  530SOL    HW2 1590   1.595   1.147   2.923 -0.6838  0.8588  1.7441
  531SOL     OW 1591   0.345   0.947   0.110 -0.8023  0.2880  0.6940
  531SOL    HW1 1592   0.306   0.894   0.029  0.0563 -1.9923 -1.7887
  531SOL    HW2 1593   0.272   1.003   0.152 -1.1570  0.2037 -1.8955
  532SOL     OW 1594   1.732   1.318   0.830  0.3825  0.2960  0.1498
  532SOL    HW1 1595   1.769   1.244   0.771  0.4214  1.5108  0.7900
  532SOL    HW2 1596   1.725   1.408   0.781  0.9015 -0.2920 -0.0559
  533SOL     OW 1597   0.718   0.188   2.463  0.6566 -0.0804 -0.0526
  533SOL    HW1 1598   0.666   0.116   2.513 -0.2635  2.2654 -1.6133
  533SOL    HW2 1599   0.794   0.232   2.516 -1.0945  0.7081  1.3927
  534SOL     OW 1600   0.795   2.839   2.994 -0.0762 -0.3046  0.0359
  534SOL    HW1 1601   0.853   2.751   2.999  0.7091  1.5572 -0.7764
  534SOL    HW2 1602   0.849   2.921   3.001 -2.4435  0.6436 -1.3259
  535SOL     OW 1603   0.328   0.156   0.023  0.2502 -0.5928 -0.8764
  535SOL    HW1 1604   0.283   0.221   0.091 -0.8652 -2.0984 -3.8300
  535SOL    HW2 1605   0.308   0.187   3.064 -0.5817 -0.8579  0.2676
  536SOL     OW 1606   0.336   0.815   2.206  0.2974 -0.6228  0.0463
  536SOL    HW1 1607   0.342   0.910   2.254 -1.2250  1.0073  1.4672
  536SOL    HW2 1608   0.401   0.753   2.254 -4.1142  2.2278 -1.6562
  537SOL     OW 1609   1.038   0.335   1.467 -0.2559 -0.7274 -0.5221
  537SOL    HW1 1610   1.089   0.288   1.393 -1.9129 -0.2118  2.6542
  537SOL    HW2 1611   1.000   0.423   1.431 -0.3816  1.0380 -0.9256
  538SOL     OW 1612   0.892   1.890   0.387  0.1880 -0.4084  0.0622
  538SOL    HW1 1613   0.906   1.971   0.328 -1.0114  0.0168  1.9453
  538SOL    HW2 1614   0.987   1.859   0.415  0.5823 -1.2900 -0.9990
  539SOL     OW 1615   2.562   1.245   1.721 -0.0408  0.1937  0.1199
  539SOL    HW1 1616   2.657   1.210   1.698 -1.0867  3.2595 -0.4778
  539SOL    HW2 1617   2.555   1.340   1.688 -1.4780  0.0382  1.8896
  540SOL     OW 1618   2.125   1.638   1.956  0.3734  0.1360  0.1071
  540SOL    HW1 1619   2.068   1.552   1.962 -3.2175  0.4174  0.3429
  540SOL    HW2 1620   2.124   1.692   2.044 -0.6649  0.3354  0.8334
  541SOL     OW 1621   0.660   1.310   1.562 -0.4048  0.0124  0.1504
  541SOL    HW1 1622   0.763   1.340   1.576  0.0993 -0.1446  1.5279
  541SOL    HW2 1623   0.651   1.276   1.468  1.6311 -1.1081  3.0144
  542SOL     OW 1624   1.647   0.661   2.136 -0.0864  0.5456 -0.3336
  542SOL    HW1 1625   1.747   0.658   2.166  3.9960 -0.1795 -1.1390
  542SOL    HW2 1626   1.650   0.625   2.040  1.3000 -0.5652  0.2205
  543SOL     OW 1627   1.255   0.512   0.220 -0.0598 -0.0796  0.6315
  543SOL    HW1 1628   1.290   0.417   0.224  0.1481 -0.0906 -1.1437
  543SOL    HW2 1629   1.216   0.544   0.311 -3.5427 -1.2648  0.6030
  544SOL     OW 1630   2.710   1.865   2.087  0.1511 -0.2465  0.1541
  544SOL    HW1 1631   2.604   1.864   2.088 -1.7120  1.4601  2.6119
  544SOL    HW2 1632   2.740   1.864   2.190  1.2989 -0.9733  2.7946
  545SOL     OW 1633   1.767   2.126   1.721  0.0616  0.0218 -0.0423
  545SOL    HW1 1634   1.834   2.113   1.647 -0.9954  1.3065 -0.3634
  545SOL    HW2 1635   1.754   2.229   1.737  0.9918  2.6354  1.0285
  546SOL     OW 1636   0.235   0.196   2.902 -0.7892 -0.0528  0.3615
  546SOL    HW1 1637   0.297   0.196   2.818 -1.3302 -0.0459 -0.0704
  546SOL    HW2 1638   0.205   0.102   2.923 -0.1546  2.0614  2.2000
  547SOL     OW 1639   2.240   0.901   0.256  0.5669 -0.9597  0.4824
  547SOL    HW1 1640   2.303   0.904   0.179 -0.6123 -3.3357  2.3438
  547SOL    HW2 1641   2.161   0.964   0.253 -0.4173 -1.1484 -0.9514
  548SOL     OW 1642   2.356   1.764   2.599  0.0909  0.3776  0.0829
  548SOL    HW1 1643   2.308   1.722   2.517  0.4797  1.7113 -1.7500
  548SOL    HW2 1644   2.402   1.695   2.659  1.1215  1.9409 -1.6616
  549SOL     OW 1645   2.280   0.262   0.739 -0.2982 -0.1382  0.4050
  549SOL    HW1 1646   2.299   0.180   0.681 -0.7921  1.1770  0.6136
  549SOL    HW2 1647   2.253   0.229   0.829  0.1603  0.4925 -0.9991
  550SOL     OW 1648   2.552   2.178   0.838  0.2009  0.7277  0.6987
  550SOL    HW1 1649   2.578   2.111   0.914 -3.8626 -1.4310  2.0603
  550SOL    HW2 1650   2.482   2.129   0.776  0.8606  2.0351  2.8261
  551SOL     OW 1651   0.969   0.392   1.754 -0.1013 -0.3399  0.3601
  551SOL    HW1 1652   0.990   0.372   1.657 -0.6993 -2.0629  0.4482
  551SOL    HW2 1653   0.918   0.482   1.765 -0.5996  0.7829 -1.4152
  552SOL     OW 1654   0.238   2.506   2.649  0.1543 -0.5479  0.4026
  552SOL    HW1 1655   0.228   2.459   2.559  3.2869  0.5406 -0.3059
  552SOL    HW2 1656   0.339   2.530   2.660  2.4676 -1.2919  1.3445
  553SOL     OW 1657   0.827   3.056   0.362  0.3596 -0.3163 -0.2684
  553SOL    HW1 1658   0.752   3.115   0.316 -2.1939  0.3096 -1.1785
  553SOL    HW2 1659   0.833   2.964   0.319  2.0648  0.4824  0.8320
  554SOL     OW 1660   2.028   2.314   1.811  0.0454 -0.2619 -0.1728
  554SOL    HW1 1661   2.070   2.225   1.830 -2.9476 -1.0625  0.8083
  554SOL    HW2 1662   1.948   2.294   1.753  1.1270 -0.0463  1.2421
  555SOL     OW 1663   1.238   2.178   2.094 -0.2738 -0.2211  0.0695
  555SOL    HW1 1664   1.333   2.149   2.116 -1.2890 -1.3462 -0.6707
  555SOL    HW2 1665   1.166   2.101   2.107 -2.6433 -2.1973  2.0982
  556SOL     OW 1666   1.434   1.641   1.192  0.0136 -0.2701  0.0403
  556SOL    HW1 1667   1.347   1.689   1.173  0.3130  1.4163 -0.1071
  556SOL    HW2 1668   1.477   1.600   1.108  1.3070  2.4630 -1.4359
  557SOL     OW 1669   1.970   2.441   2.070  0.6576 -0.2353 -0.5809
  557SOL    HW1 1670   2.011   2.414   1.980  2.2437 -0.1400 -2.1657
  557SOL    HW2 1671   2.037   2.429   2.146  0.0338  1.7627 -2.4354
  558SOL     OW 1672   0.388   0.416   1.898 -0.1733 -0.0023  0.1697
  558SOL    HW1 1673   0.363   0.354   1.976  0.4468  1.6216 -0.1446
  558SOL    HW2 1674   0.418   0.505   1.930 -2.4784 -2.1408 -0.1862
  559SOL     OW 1675   2.411   2.868   1.365  0.2980 -0.0081  0.3736
  559SOL    HW1 1676   2.449   2.940   1.428  0.3500  1.8751 -0.3605
  559SOL    HW2 1677   2.334   2.906   1.313  0.6964  3.2855 -0.2967
  560SOL     OW 1678   1.054   2.286   0.401  0.0488 -0.5635 -0.2690
  560SOL    HW1 1679   0.970   2.330   0.439 -0.3512  0.3969  2.4367
  560SOL    HW2 1680   1.088   2.349   0.325  1.3270  1.5520 -1.7398
  561SOL     OW 1681   1.094   0.261   0.057  0.0809 -0.1083 -0.3549
  561SOL    HW1 1682   1.105   0.342   0.004  0.2064 -4.0006  3.2288
  561SOL    HW2 1683   1.097   0.282   0.157  1.6015  1.0342 -1.8295
  562SOL     OW 1684   0.871   0.379   2.857  0.1854  0.2477 -0.2988
  562SOL    HW1 1685   0.950   0.361   2.791  1.8036  0.3975  2.2061
  562SOL    HW2 1686   0.866   0.480   2.867  2.9350 -0.9011  1.5584
  563SOL     OW 1687   1.637   2.035   2.885  0.3015 -0.4700 -0.2979
  563SOL    HW1 1688   1.729   2.058   2.919 -1.3578  1.8944 -0.4449
  563SOL    HW2 1689   1.627   2.080   2.794  1.0037 -1.9707  0.6635
  564SOL     OW 1690   2.716   1.102   0.798  0.3054 -0.1375 -0.8106
  564SOL    HW1 1691   2.665   1.028   0.763  1.0405  0.8494 -0.3831
  564SOL    HW2 1692   2.812   1.089   0.760 -0.0363  0.8039 -2.4723
  565SOL     OW 1693   1.384   0.332   2.614  0.3789 -0.5463  0.5717
  565SOL    HW1 1694   1.356   0.316   2.709  1.4898  2.8839 -0.4577
  565SOL    HW2 1695   1.366   0.427   2.589  0.4118 -1.7797 -0.2740
  566SOL     OW 1696   1.592   0.253   2.220  0.3901 -0.4140  0.0689
  566SOL    HW1 1697   1.586   0.196   2.303  1.3155  0.5290  0.0550
  566SOL    HW2 1698   1.588   0.192   2.136  0.8339 -0.2964 -1.9361
  567SOL     OW 1699   2.444   1.426   0.615 -0.0696  0.1274 -0.1608
  567SOL    HW1 1700   2.468   1.447   0.711  2.5235 -1.6037 -4.8969
  567SOL    HW2 1701   2.522   1.409   0.554 -4.8878 -1.0712  2.5545
  568SOL     OW 1702   1.711   1.946   0.595  0.3225  0.3048 -0.4184
  568SOL    HW1 1703   1.793   1.940   0.535  2.8881 -1.1092 -0.8016
  568SOL    HW2 1704   1.654   1.865   0.574 -1.8626 -3.5404 -1.3244
  569SOL     OW 1705   2.117   1.611   2.836  0.1911  0.4702 -0.0701
  569SOL    HW1 1706   2.101   1.578   2.741  2.1597  1.7476  0.4225
  569SOL    HW2 1707   2.155   1.706   2.839 -1.1477  1.7272  2.7127
  570SOL     OW 1708   3.065   3.037   1.713  0.1996  0.3748  0.4821
  570SOL    HW1 1709   2.982   3.094   1.713  0.2762  5.0463 -1.6439
  570SOL    HW2 1710   3.131   3.082   1.775 -3.2434 -1.6260 -1.3508
  571SOL     OW 1711   0.098   0.303   2.446  0.3536 -0.3108  0.1957
  571SOL    HW1 1712   0.020   0.362   2.436  4.1686 -1.9221  1.2857
  571SOL    HW2 1713   0.175   0.355   2.483 -1.8401 -2.0385 -1.7760
  572SOL     OW 1714   0.863   1.483   0.680  0.2593  0.4545 -0.2444
  572SOL    HW1 1715   0.781   1.501   0.624  1.2522  1.9024  1.0888
  572SOL    HW2 1716   0.870   1.558   0.746 -1.7708 -0.6001  0.2433
  573SOL     OW 1717   0.925   2.591   3.016 -0.2008 -0.2176 -0.2803
  573SOL    HW1 1718   1.015   2.625   3.046 -0.6318  0.3248 -0.8736
  573SOL    HW2 1719   0.878   2.564   3.098  0.8433  2.3616 -2.6945
  574SOL     OW 1720   1.031   0.174   0.797  0.6241  0.0770 -0.1955
  574SOL    HW1 1721   1.004   0.198   0.895 -1.5245  0.4092  2.2856
  574SOL    HW2 1722   1.054   0.074   0.789  3.7035 -0.4271  0.8628
  575SOL     OW 1723   0.061   1.083   1.676 -0.7988 -0.0258 -0.0921
  575SOL    HW1 1724   3.117   1.069   1.611  0.2240  1.4799 -0.4507
  575SOL    HW2 1725   0.034   1.166   1.730 -0.9800 -1.4869  0.5360
  576SOL     OW 1726   1.757   0.358   1.436 -0.1886  0.5476  0.1492
  576SOL    HW1 1727   1.804   0.270   1.401 -0.5483 -7.5856 -2.1102
  576SOL    HW2 1728   1.664   0.381   1.395 -3.8996 -0.5033  0.5236
  577SOL     OW 1729   0.125   1.181   2.026  0.6312 -0.7005 -0.2432
  577SOL    HW1 1730   0.081   1.095   2.056 -0.4238  1.8860 -0.4529
  577SOL    HW2 1731   0.219   1.166   2.005 -2.4290  3.8127 -1.6294
  578SOL     OW 1732   1.827   0.050   2.434 -0.1498 -0.4555  0.2871
  578SOL    HW1 1733   1.852   0.146   2.413 -0.4847 -1.6783 -2.0636
  578SOL    HW2 1734   1.728   0.046   2.458 -0.5357 -2.4075  1.3497
  579SOL     OW 1735   2.078   2.081   1.927 -0.3253  0.2047 -1.0790
  579SOL    HW1 1736   2.092   2.097   2.029 -0.1432  0.6741  0.7661
  579SOL    HW2 1737   1.999   2.021   1.915 -2.7606  0.6332 -0.6104
  580SOL     OW 1738   2.195   1.660   2.387  0.2833  0.6889 -0.0330
  580SOL    HW1 1739   2.166   1.741   2.337 -0.4647 -1.9222 -0.4708
  580SOL    HW2 1740   2.260   1.607   2.323  1.2947 -4.1358 -0.3955
  581SOL     OW 1741   1.268   1.074   2.934  0.2089 -0.3148 -0.2773
  581SOL    HW1 1742   1.279   0.984   2.895 -0.1173  1.6352  0.3427
  581SOL    HW2 1743   1.355   1.105   2.978 -1.6108 -2.1690  1.9117
  582SOL     OW 1744   0.767   2.184   1.454  0.4660  0.0615  0.0939
  582SOL    HW1 1745   0.702   2.118   1.497 -0.7902  0.1274 -1.3344
  582SOL    HW2 1746   0.832   2.143   1.390 -0.9068 -0.6249  1.7378
  583SOL     OW 1747   1.246   1.226   1.288  0.6404  0.1426 -0.7203
  583SOL    HW1 1748   1.268   1.124   1.299 -0.4747 -0.9865 -2.0258
  583SOL    HW2 1749   1.249   1.255   1.189 -0.9411 -0.6453  0.0673
  584SOL     OW 1750   1.510   2.447   0.696 -0.2504  0.9082 -0.5113
  584SOL    HW1 1751   1.538   2.352   0.664  1.7442  0.5818 -0.2430
  584SOL    HW2 1752   1.409   2.454   0.693  0.2173 -0.4391  1.6250
  585SOL     OW 1753   2.541   2.503   0.037  0.7022  0.3115 -0.3796
  585SOL    HW1 1754   2.642   2.508   0.029 -1.1010 -0.1056  2.7138
  585SOL    HW2 1755   2.490   2.503   3.083 -3.9999 -2.7182 -3.4852
  586SOL     OW 1756   2.790   2.001   0.483 -0.1785 -0.1066  0.0383
  586SOL    HW1 1757   2.732   1.917   0.489 -1.5542  0.5060 -0.5138
  586SOL    HW2 1758   2.783   2.058   0.561  0.0458 -2.3316  0.9463
  587SOL     OW 1759   1.176   1.609   0.029  0.2406  0.1790 -0.1760
  587SOL    HW1 1760   1.262   1.599   3.108  1.2087  1.2116 -0.3778
  587SOL    HW2 1761   1.173   1.532   0.096 -1.3795  0.2833  0.0876
  588SOL     OW 1762   0.640   0.371   0.764 -0.5402 -0.0921 -0.7007
  588SOL    HW1 1763   0.564   0.306   0.778  1.2452 -0.1710 -0.0610
  588SOL    HW2 1764   0.650   0.438   0.839 -0.6923 -0.2443 -1.6559
  589SOL     OW 1765   1.170   0.507   0.488  0.1880 -0.9814  0.2245
  589SOL    HW1 1766   1.136   0.433   0.421 -1.6418 -0.7538 -0.7508
  589SOL    HW2 1767   1.176   0.466   0.583  1.6930  0.5971 -0.0618
  590SOL     OW 1768   2.209   2.343   0.052  0.4251 -0.3946  0.4273
  590SOL    HW1 1769   2.134   2.353   0.123  2.8015 -1.2901 -1.1439
  590SOL    HW2 1770   2.238   2.434   0.023 -0.3730 -2.8923  0.4659
  591SOL     OW 1771   0.204   2.774   2.219  0.2561 -0.5253 -0.1765
  591SOL    HW1 1772   0.198   2.877   2.229 -1.3291 -0.8530  0.7736
  591SOL    HW2 1773   0.172   2.746   2.124 -0.4569 -0.6525  0.1552
  592SOL     OW 1774   0.021   1.524   2.263 -0.0742  0.5132  0.1313
  592SOL    HW1 1775   0.085   1.446   2.249 -2.5772 -0.0666  1.6263
  592SOL    HW2 1776   0.059   1.615   2.246  0.8245 -2.7540  1.7009
  593SOL     OW 1777   1.876   1.510   1.229  0.0525  0.4034  0.0554
  593SOL    HW1 1778   1.934   1.576   1.284  0.9527  1.7581 -3.1820
  593SOL    HW2 1779   1.815   1.449   1.289  0.1582  1.0363  0.2962
  594SOL     OW 1780   0.191   1.247   3.048  0.3563 -0.2520  0.3139
  594SOL    HW1 1781   0.284   1.285   3.064 -0.4611  0.3988 -0.8787
  594SOL    HW2 1782   0.180   1.208   2.954 -0.7643 -0.9734  1.3112
  595SOL     OW 1783   0.903   1.112   0.821 -0.0502  0.0473  0.1840
  595SOL    HW1 1784   0.846   1.100   0.738  0.9691  1.2052 -3.4226
  595SOL    HW2 1785   0.971   1.182   0.803 -0.0406 -0.8335  1.6927
  596SOL     OW 1786   2.746   1.330   1.243  0.2924  0.5010 -0.4180
  596SOL    HW1 1787   2.695   1.256   1.196  0.8418  2.2544 -0.6950
  596SOL    HW2 1788   2.837   1.350   1.200 -1.9506 -3.5898  0.7349
  597SOL     OW 1789   0.926   2.362   1.616  0.3096 -0.6717  0.3207
  597SOL    HW1 1790   0.876   2.301   1.554 -1.6037  2.0747  1.6974
  597SOL    HW2 1791   1.006   2.313   1.657 -2.8226  0.1681  0.4546
  598SOL     OW 1792   2.210   2.516   1.878 -0.0303  0.1286  0.5134
  598SOL    HW1 1793   2.163   2.433   1.843  0.7806  3.2540  1.0882
  598SOL    HW2 1794   2.303   2.525   1.829  2.7049 -0.0089 -2.6096
  599SOL     OW 1795   0.617   1.039   0.134 -0.1343  0.1523  0.3249
  599SOL    HW1 1796   0.668   0.965   0.081  2.3974 -2.0394 -1.3765
  599SOL    HW2 1797   0.523   1.038   0.100  1.2628 -1.3942 -1.2854
  600SOL     OW 1798   0.976   0.908   3.030  0.0820  0.0807  0.4826
  600SOL    HW1 1799   1.010   0.914   3.125  0.4315  0.0295 -2.6739
  600SOL    HW2 1800   1.054   0.924   2.965 -1.3586 -0.9502  1.5022
  601SOL     OW 1801   0.790   0.708   1.575 -0.2691 -0.5542 -0.1559
  601SOL    HW1 1802   0.828   0.803   1.562  0.2311  1.5155  0.0172
  601SOL    HW2 1803   0.780   0.683   1.675  1.2353 -2.0615  1.2864
  602SOL     OW 1804   0.465   2.405   0.719 -0.1750  0.0932  0.4114
  602SOL    HW1 1805   0.448   2.340   0.795  0.0326  0.8469  1.6179
  602SOL    HW2 1806   0.382   2.422   0.661 -0.3648  0.3227  0.4888
  603SOL     OW 1807   1.008   2.607   1.956 -0.1419  0.1715 -0.9303
  603SOL    HW1 1808   0.972   2.685   1.905  0.8543 -0.5437  1.4518
  603SOL    HW2 1809   1.049   2.630   2.045 -2.1293  0.7874  0.1007
  604SOL     OW 1810   0.309   2.205   3.032 -0.7997  0.0751  0.1125
  604SOL    HW1 1811   0.354   2.195   2.940  1.4782 -2.2624 -1.0008
  604SOL    HW2 1812   0.226   2.142   3.044 -0.5735 -1.0100  1.7730
  605SOL     OW 1813   2.110   1.217   1.752  0.0197 -0.5240 -0.1038
  605SOL    HW1 1814   2.055   1.178   1.678 -0.8457  1.1497  2.3032
  605SOL    HW2 1815   2.148   1.303   1.724 -1.7913 -3.9829  1.6925
  606SOL     OW 1816   0.732   1.023   2.948 -0.1156  0.1934  0.2103
  606SOL    HW1 1817   0.722   1.115   2.983  1.0641  0.9051  0.1974
  606SOL    HW2 1818   0.831   0.991   2.955  1.1841 -0.8700 -1.3201
  607SOL     OW 1819   1.165   0.986   1.205 -0.8479  0.1770 -0.3681
  607SOL    HW1 1820   1.159   0.907   1.266  1.3545  2.3213  2.2920
  607SOL    HW2 1821   1.076   1.031   1.186 -1.7502  2.7563  0.4848
  608SOL     OW 1822   2.851   1.709   1.902  0.2036  0.2147 -0.1573
  608SOL    HW1 1823   2.795   1.757   1.975  1.5808 -1.0634 -0.9794
  608SOL    HW2 1824   2.837   1.755   1.816 -0.3097 -0.9010  3.7118
  609SOL     OW 1825   2.200   0.056   0.358 -0.1544 -0.1738  0.3208
  609SOL    HW1 1826   2.211   0.104   0.270 -0.9324 -1.3001 -0.3788
  609SOL    HW2 1827   2.185   3.090   0.343 -0.2447 -1.2663  1.5306
  610SOL     OW 1828   2.957   2.671   1.468 -0.1574  0.3888  0.0953
  610SOL    HW1 1829   3.015   2.718   1.534 -2.9951 -1.7192 -1.7388
  610SOL    HW2 1830   3.004   2.592   1.419 -0.4452 -1.2478  1.8591
  611SOL     OW 1831   1.702   2.372   0.430 -0.4240  0.2677  0.1839
  611SOL    HW1 1832   1.697   2.333   0.333 -1.6033  1.7627  1.0877
  611SOL    HW2 1833   1.669   2.295   0.492 -1.7328  0.3815 -1.7891
  612SOL     OW 1834   0.618   0.005   1.750 -0.4555  0.2364  0.2910
  612SOL    HW1 1835   0.677   3.096   1.682 -1.8902 -0.5073  1.6942
  612SOL    HW2 1836   0.620   0.107   1.743 -0.4385  0.6240  0.3941
  613SOL     OW 1837   3.062   1.919   0.526 -0.3534  0.2593  0.6469
  613SOL    HW1 1838   3.083   2.020   0.541  1.4024  1.4652 -2.1565
  613SOL    HW2 1839   2.983   1.920   0.463  1.7529  0.0476  1.8923
  614SOL     OW 1840   1.786   0.420   1.705 -0.0529  0.1504 -0.4497
  614SOL    HW1 1841   1.874   0.467   1.686  0.6381 -3.2155 -2.5026
  614SOL    HW2 1842   1.751   0.395   1.615  3.3881  0.1706  1.3741
  615SOL     OW 1843   1.146   1.500   1.078  0.7127  0.0597 -0.1179
  615SOL    HW1 1844   1.184   1.595   1.099  2.5518  2.4659  1.2245
  615SOL    HW2 1845   1.227   1.443   1.058 -0.9740  0.3232  0.1169
  616SOL     OW 1846   1.819   1.667   0.485  0.2957  0.0124 -0.3497
  616SOL    HW1 1847   1.866   1.757   0.476  0.3276  0.6252  1.1475
  616SOL    HW2 1848   1.733   1.672   0.432 -0.8918 -1.9217 -1.2293
  617SOL     OW 1849   1.710   0.589   0.046 -0.1956 -0.3288 -0.3752
  617SOL    HW1 1850   1.681   0.532   0.125 -1.8469  0.1886 -1.3501
  617SOL    HW2 1851   1.760   0.671   0.078  0.7273 -0.0326 -0.7515
  618SOL     OW 1852   0.615   0.718   2.547 -0.0050 -0.1438  0.2125
  618SOL    HW1 1853   0.700   0.658   2.526 -1.3143 -0.1683 -0.3361
  618SOL    HW2 1854   0.654   0.799   2.595  0.3317  0.1517 -3.3513
  619SOL     OW 1855   2.661   1.752   1.141  0.1623 -0.3069  0.0450
  619SOL    HW1 1856   2.758   1.747   1.117  0.0311 -1.1290 -1.2704
  619SOL    HW2 1857   2.613   1.685   1.090  3.8075 -0.4361 -1.1002
  620SOL     OW 1858   2.126   2.700   2.600 -0.1479 -0.0977  0.3014
  620SOL    HW1 1859   2.222   2.703   2.560  3.4727  0.4196  1.7700
  620SOL    HW2 1860   2.091   2.790   2.629 -0.8121 -1.7394  0.2786
  621SOL     OW 1861   2.907   1.792   3.029  0.4609 -0.2969 -0.0862
  621SOL    HW1 1862   3.002   1.810   2.996 -0.6095 -2.9778  1.1539
  621SOL    HW2 1863   2.905   1.712   3.093 -0.3938 -1.9380  0.5629
  622SOL     OW 1864   1.548   0.088   2.018 -0.7766 -0.2911 -0.0213
  622SOL    HW1 1865   1.594   0.002   2.046  2.4216  3.3621  4.1053
  622SOL    HW2 1866   1.585   0.131   1.929  0.1548 -0.2121 -3.8674
  623SOL     OW 1867   0.695   2.466   0.997  0.3178  0.4277 -0.5856
  623SOL    HW1 1868   0.697   2.429   1.092  1.4609  1.0966 -0.8471
  623SOL    HW2 1869   0.736   2.555   0.984 -3.3611 -2.0728  0.9127
  624SOL     OW 1870   0.039   3.101   0.077 -0.6615 -0.0207  0.3423
  624SOL    HW1 1871   3.099   3.032   0.079 -0.5972 -1.1649 -1.2698
  624SOL    HW2 1872   0.084   3.094   3.121 -0.5260 -3.4044  3.2930
  625SOL     OW 1873   0.783   1.843   0.694  0.5758 -0.0309 -0.1988
  625SOL    HW1 1874   0.876   1.837   0.736 -2.6469  0.6124  1.2848
  625SOL    HW2 1875   0.802   1.873   0.597 -0.1266  1.3083 -0.1924
  626SOL     OW 1876   2.771   0.292   3.052 -0.3783  0.0089 -0.1556
  626SOL    HW1 1877   2.861   0.251   3.045 -2.6397 -0.9055  0.2846
  626SOL    HW2 1878   2.710   0.215   3.072  2.7825 -0.0340  1.2644
  627SOL     OW 1879   1.394   1.964   2.979  0.1670 -0.2649 -0.3461
  627SOL    HW1 1880   1.492   1.981   2.944 -0.6509  2.0225  1.8583
  627SOL    HW2 1881   1.342   1.901   2.921  2.5811  2.2103  2.1911
  628SOL     OW 1882   0.175   2.622   3.057 -0.2261  0.6187  0.6588
  628SOL    HW1 1883   0.153   2.535   3.012  1.0074 -0.4317  0.0035
  628SOL    HW2 1884   0.129   2.635   0.010  0.5156 -0.9738  0.4093
  629SOL     OW 1885   0.439   2.879   2.643 -0.4592 -0.2352 -0.3977
  629SOL    HW1 1886   0.386   2.879   2.731 -0.2170 -1.2203  4.1087
  629SOL    HW2 1887   0.497   2.800   2.638  0.6126 -0.3969  1.9342
  630SOL     OW 1888   1.419   1.024   2.070  0.2472 -0.0704  0.2812
  630SOL    HW1 1889   1.379   0.942   2.024  0.1428  1.4896  1.7814
  630SOL    HW2 1890   1.377   1.113   2.042  0.8414 -1.4378 -2.6930
  631SOL     OW 1891   2.005   1.123   0.138  0.2651 -0.7049  0.0162
  631SOL    HW1 1892   1.963   1.152   0.227 -0.0122  0.6820 -0.1502
  631SOL    HW2 1893   2.029   1.199   0.075  0.0608 -1.7211  1.1933
  632SOL     OW 1894   2.628   0.299   1.986  0.0755  0.8391 -0.4233
  632SOL    HW1 1895   2.689   0.378   2.001 -1.6767  0.9402  1.2907
  632SOL    HW2 1896   2.676   0.211   2.006 -2.8310  2.7912  0.4013
  633SOL     OW 1897   0.845   1.564   0.080  0.5710  0.0609  0.4549
  633SOL    HW1 1898   0.886   1.642   0.028  0.0593 -0.5050 -3.4581
  633SOL    HW2 1899   0.873   1.477   0.032 -0.3043  0.1596 -2.1053
  634SOL     OW 1900   2.366   2.685   2.454 -0.6796  0.0472  0.5405
  634SOL    HW1 1901   2.350   2.755   2.382  0.4042 -1.7804  0.6144
  634SOL    HW2 1902   2.407   2.598   2.411  0.2980 -2.5935 -0.5010
  635SOL     OW 1903   2.053   0.681   0.296  0.0638  0.0933 -0.0664
  635SOL    HW1 1904   2.122   0.706   0.227 -2.5151 -1.4475  0.6001
  635SOL    HW2 1905   2.057   0.581   0.316 -0.5641  0.1603 -1.7161
  636SOL     OW 1906   0.532   1.278   0.785  0.5513 -0.0190  0.0691
  636SOL    HW1 1907   0.482   1.210   0.729 -0.1569  2.7520  3.0193
  636SOL    HW2 1908   0.591   1.327   0.719 -0.5611  1.8576 -1.6681
  637SOL     OW 1909   3.021   2.209   0.088 -0.2787 -0.8689 -0.1915
  637SOL    HW1 1910   2.943   2.183   0.029  0.7035  0.8405  0.2978
  637SOL    HW2 1911   3.059   2.127   0.132 -2.2894 -1.1211 -0.0594
  638SOL     OW 1912   1.390   2.702   2.366 -0.1871 -0.1872  0.9746
  638SOL    HW1 1913   1.367   2.772   2.289 -2.2630  4.5991 -2.7089
  638SOL    HW2 1914   1.384   2.604   2.329 -0.8694 -1.8005  1.4101
  639SOL     OW 1915   1.365   1.952   0.336 -0.5940 -0.3606  0.5272
  639SOL    HW1 1916   1.312   1.902   0.262 -2.7698 -1.5613 -3.6436
  639SOL    HW2 1917   1.398   1.892   0.412  2.6855 -0.9581 -0.6646
  640SOL     OW 1918   1.982   0.078   0.572  0.3179  0.5749 -0.0320
  640SOL    HW1 1919   2.021   3.122   0.609 -2.3990 -1.2643 -1.1131
  640SOL    HW2 1920   2.042   0.111   0.500 -1.6958 -1.6712  2.6921
  641SOL     OW 1921   2.977   3.004   0.460 -0.0754  0.3190  0.4332
  641SOL    HW1 1922   2.966   2.977   0.557 -2.7357 -0.1431 -0.4952
  641SOL    HW2 1923   2.907   3.072   0.429 -3.2621  0.4099  1.3448
  642SOL     OW 1924   0.680   0.388   1.505 -0.1135  0.8579 -0.7644
  642SOL    HW1 1925   0.622   0.473   1.510 -2.7241  0.3644  0.6970
  642SOL    HW2 1926   0.698   0.348   1.600  0.9992 -1.2674  2.5797
  643SOL     OW 1927   0.636   1.199   2.371  0.3920  0.5616  0.3569
  643SOL    HW1 1928   0.648   1.225   2.468 -1.3582  1.4374 -0.4445
  643SOL    HW2 1929   0.644   1.282   2.316 -1.7096 -4.7908  3.6743
  644SOL     OW 1930   1.162   2.487   0.230  0.2231 -0.1036 -0.7821
  644SOL    HW1 1931   1.168   2.585   0.248  0.0178  0.5822 -0.5940
  644SOL    HW2 1932   1.255   2.451   0.207  1.1669  2.5868  0.4427
  645SOL     OW 1933   1.662   2.260   0.165  0.7813 -0.0965  0.0162
  645SOL    HW1 1934   1.696   2.292   0.075 -3.3617 -3.3252 -0.3292
  645SOL    HW2 1935   1.659   2.161   0.166 -0.5178 -0.8029  0.7808
  646SOL     OW 1936   0.428   1.394   0.001  0.5226  0.5593  0.1770
  646SOL    HW1 1937   0.448   1.497   3.134 -0.1381 -0.8709 -2.1371
  646SOL    HW2 1938   0.425   1.355   0.098 -2.3332  0.7513  1.0068
  647SOL     OW 1939   0.973   0.157   1.071 -0.1442 -0.3133  0.0322
  647SOL    HW1 1940   0.963   0.057   1.057  0.0572  3.5999  1.2893
  647SOL    HW2 1941   0.895   0.203   1.119  2.5903  2.5065  0.2536
  648SOL     OW 1942   1.603   0.574   1.224 -0.4670 -0.1537  0.2415
  648SOL    HW1 1943   1.588   0.632   1.141 -1.9753  2.2663  1.2009
  648SOL    HW2 1944   1.697   0.594   1.265 -2.2843 -0.0576  3.5296
  649SOL     OW 1945   1.266   1.856   0.071 -0.1609  0.0698 -0.7347
  649SOL    HW1 1946   1.271   1.915   3.126  2.4373  1.0420 -0.6672
  649SOL    HW2 1947   1.198   1.780   0.062  0.9265  2.5325  1.9804
  650SOL     OW 1948   2.887   1.439   2.241  0.4261 -0.5875  0.2659
  650SOL    HW1 1949   2.830   1.484   2.310  2.1348 -2.0611 -1.3796
  650SOL    HW2 1950   2.983   1.475   2.234  0.2729  1.4964 -3.0684
  651SOL     OW 1951   1.342   2.601   2.758 -0.4600  0.1880 -0.1752
  651SOL    HW1 1952   1.293   2.514   2.786  0.0457 -0.2220 -0.3705
  651SOL    HW2 1953   1.278   2.680   2.758 -1.4774 -2.7147  2.6014
  652SOL     OW 1954   2.702   1.620   0.148 -0.1920 -0.0353  0.1781
  652SOL    HW1 1955   2.638   1.543   0.118 -1.3837 -1.4415  0.5251
  652SOL    HW2 1956   2.671   1.706   0.105  1.6077 -0.5023  1.2730
  653SOL     OW 1957   0.209   0.244   1.279  0.0781 -0.1220  0.1441
  653SOL    HW1 1958   0.173   0.219   1.188  1.1666 -1.7688  1.8780
  653SOL    HW2 1959   0.199   0.343   1.295 -1.3515 -1.4600 -4.4778
  654SOL     OW 1960   2.216   0.438   2.325 -0.4241  0.0372 -0.3143
  654SOL    HW1 1961   2.286   0.376   2.275 -0.2568 -2.0869  0.4196
  654SOL    HW2 1962   2.128   0.437   2.276  0.7082  1.8620  0.8708
  655SOL     OW 1963   0.325   3.092   0.946  0.2311 -0.2846 -0.0548
  655SOL    HW1 1964   0.320   3.028   0.865  0.6226 -0.4640 -1.5492
  655SOL    HW2 1965   0.415   3.079   0.991  1.0721  2.0711  1.5473
  656SOL     OW 1966   3.058   0.092   2.315 -0.3450  0.5395 -0.5479
  656SOL    HW1 1967   3.005   0.174   2.286  0.6225 -1.7611  0.8115
  656SOL    HW2 1968   3.075   0.091   2.415  1.3779  1.3336  2.2017
  657SOL     OW 1969   2.701   0.737   2.816  0.0268 -0.1289 -0.0728
  657SOL    HW1 1970   2.625   0.750   2.751  0.5728  0.6167 -1.8380
  657SOL    HW2 1971   2.702   0.636   2.842 -1.1330  2.3402  0.7234
  658SOL     OW 1972   2.205   2.013   0.959 -0.2574 -0.0308  0.0914
  658SOL    HW1 1973   2.283   2.035   0.892  1.7009 -0.5744 -1.7914
  658SOL    HW2 1974   2.228   2.049   1.050  1.3203  1.3702  0.0901
  659SOL     OW 1975   2.041   2.838   0.382 -0.2932 -0.1004  0.5679
  659SOL    HW1 1976   1.998   2.781   0.457  1.5782  0.2687 -1.0360
  659SOL    HW2 1977   1.977   2.891   0.327  2.2670  1.2875  1.5915
  660SOL     OW 1978   1.625   1.274   2.796 -0.1112  0.3355  0.3513
  660SOL    HW1 1979   1.564   1.277   2.714 -0.8167 -0.9474  1.9367
  660SOL    HW2 1980   1.706   1.340   2.793  2.3746  0.8106  0.5608
  661SOL     OW 1981   2.438   2.575   1.737 -0.0602  0.1222  0.0180
  661SOL    HW1 1982   2.465   2.548   1.640 -2.0310  1.6002 -0.8679
  661SOL    HW2 1983   2.519   2.620   1.793 -0.1627  0.6578  0.5919
  662SOL     OW 1984   0.764   0.736   0.264 -0.7105  0.3819  0.2138
  662SOL    HW1 1985   0.666   0.726   0.238  0.0089 -1.4161 -1.9902
  662SOL    HW2 1986   0.792   0.675   0.339  2.3021  0.3791  2.8060
  663SOL     OW 1987   1.921   2.282   0.635  0.2417 -0.6108 -0.1782
  663SOL    HW1 1988   1.877   2.229   0.708  3.6101  0.8154 -1.6476
  663SOL    HW2 1989   1.860   2.329   0.566  0.7709 -0.1243 -1.5791
  664SOL     OW 1990   0.738   1.771   1.468 -0.1899 -0.4928 -0.2208
  664SOL    HW1 1991   0.687   1.769   1.379  0.9421  0.3628 -0.8864
  664SOL    HW2 1992   0.826   1.831   1.465 -1.1813  2.3681  0.6990
  665SOL     OW 1993   1.711   2.385   2.025 -0.2986 -0.0650 -0.2523
  665SOL    HW1 1994   1.686   2.389   1.927 -1.2612 -0.6187 -2.5394
  665SOL    HW2 1995   1.812   2.386   2.049 -1.0305 -0.0012  2.5956
  666SOL     OW 1996   0.166   2.514   0.361 -0.3710 -0.1815 -0.2169
  666SOL    HW1 1997   0.243   2.584   0.354  2.8700  2.7191 -0.3549
  666SOL    HW2 1998   0.080   2.549   0.311 -3.2209  1.3915  1.0159
  667SOL     OW 1999   2.579   1.505   1.629 -0.1528  0.0836 -0.5781
  667SOL    HW1 2000   2.556   1.556   1.712  1.8571  1.4718 -1.9241
  667SOL    HW2 2001   2.662   1.538   1.579  3.1398 -2.1688  2.7574
  668SOL     OW 2002   0.441   0.557   2.717 -0.2858 -0.1887  0.5787
  668SOL    HW1 2003   0.501   0.621   2.666  0.0806 -1.1148  0.9763
  668SOL    HW2 2004   0.474   0.542   2.816 -0.7268 -1.6600  2.2886
  669SOL     OW 2005   2.016   2.322   2.980  0.0450 -0.2848 -0.4161
  669SOL    HW1 2006   2.030   2.362   2.887  0.2781 -0.3753 -0.8493
  669SOL    HW2 2007   2.094   2.348   3.040  0.3111 -1.4954  0.2323
  670SOL     OW 2008   2.495   1.621   2.782 -0.8861  0.2994 -0.0151
  670SOL    HW1 2009   2.486   1.536   2.834  0.6405  1.2502 -2.8790
  670SOL    HW2 2010   2.578   1.676   2.815 -1.5523  1.6704  0.2175
  671SOL     OW 2011   0.237   1.468   1.056 -0.0268  0.0313  0.2728
  671SOL    HW1 2012   0.180   1.543   1.087 -0.6718  1.2845  1.4614
  671SOL    HW2 2013   0.207   1.440   0.962 -0.9855 -2.2229 -2.8465
  672SOL     OW 2014   2.672   0.774   2.018  0.2705  0.6119  0.0945
  672SOL    HW1 2015   2.746   0.835   1.987 -2.2547  0.3426  0.5077
  672SOL    HW2 2016   2.588   0.830   2.030 -0.6182  2.8739 -2.6330
  673SOL     OW 2017   2.402   2.477   2.095  0.9023  0.0571 -0.1451
  673SOL    HW1 2018   2.481   2.531   2.071 -0.0900  1.4691 -1.7656
  673SOL    HW2 2019   2.318   2.519   2.061  0.2370  2.1689  0.4632
  674SOL     OW 2020   1.386   2.496   1.972 -0.1570  0.1672 -0.1850
  674SOL    HW1 2021   1.396   2.417   1.904 -1.0824 -0.9155  0.0059
  674SOL    HW2 2022   1.357   2.462   2.064  0.4350 -0.3121 -0.5730
  675SOL     OW 2023   0.528   0.780   0.830  0.0174 -0.3910 -0.1702
  675SOL    HW1 2024   0.525   0.867   0.876 -0.0975 -2.5050 -0.1121
  675SOL    HW2 2025   0.527   0.786   0.731  0.0128  1.4235  2.9188
  676SOL     OW 2026   1.892   1.165   0.670  0.3648 -0.2204  0.1296
  676SOL    HW1 2027   1.854   1.071   0.664 -1.1195  1.7716 -2.1601
  676SOL    HW2 2028   1.993   1.168   0.681  0.6646 -0.6104 -0.3715
  677SOL     OW 2029   0.042   1.411   2.523 -0.6027  0.1943 -0.1024
  677SOL    HW1 2030   0.079   1.315   2.510  0.1608 -0.4450 -0.9764
  677SOL    HW2 2031   0.047   1.451   2.431  0.1750  0.2346 -0.4095
  678SOL     OW 2032   2.471   1.946   1.207  0.1157  0.6111 -0.7632
  678SOL    HW1 2033   2.530   1.863   1.215  1.0224  0.5744  1.6137
  678SOL    HW2 2034   2.378   1.911   1.237 -0.9785 -2.4632 -3.4954
  679SOL     OW 2035   2.010   2.698   0.606 -0.1614 -0.2420  0.1398
  679SOL    HW1 2036   2.107   2.718   0.644 -1.5169 -0.9509  0.6465
  679SOL    HW2 2037   1.964   2.664   0.690 -1.0647 -0.3237 -4.0831
  680SOL     OW 2038   0.071   2.418   1.958  0.1298 -0.6372 -0.3565
  680SOL    HW1 2039   0.142   2.347   1.951  2.0221 -1.8556  2.3298
  680SOL    HW2 2040   0.001   2.405   1.888  0.5431  1.4702 -3.2418
  681SOL     OW 2041   2.929   1.394   1.697 -0.1425  0.1087  0.3153
  681SOL    HW1 2042   3.013   1.337   1.718  0.6518 -1.5958 -2.5523
  681SOL    HW2 2043   2.891   1.415   1.788  0.3565 -1.1673 -1.6658
  682SOL     OW 2044   1.011   2.151   0.905  0.8692  0.5612  0.5392
  682SOL    HW1 2045   0.950   2.211   0.853  2.3828  0.8866  1.0962
  682SOL    HW2 2046   1.094   2.137   0.846 -1.9251  0.5572 -1.0276
  683SOL     OW 2047   2.129   1.217   1.080 -0.1533 -0.0790  0.0900
  683SOL    HW1 2048   2.028   1.245   1.079 -0.5080  2.8653 -1.1487
  683SOL    HW2 2049   2.149   1.161   1.163  2.7004 -0.5464  2.1959
  684SOL     OW 2050   0.046   1.775   2.876 -0.1939  0.3305  0.0135
  684SOL    HW1 2051   0.089   1.685   2.900 -0.7087  1.9967  0.5906
  684SOL    HW2 2052   0.064   1.793   2.774  1.0978  0.8002 -0.9746
  685SOL     OW 2053   1.655   1.291   0.060  0.1871 -0.0263 -0.2612
  685SOL    HW1 2054   1.627   1.219   3.122  1.2100 -1.4790  2.0707
  685SOL    HW2 2055   1.734   1.343   0.038  0.1631 -0.4219  0.5482
  686SOL     OW 2056   0.239   0.829   1.363  0.2615 -0.4028  0.6483
  686SOL    HW1 2057   0.302   0.907   1.340 -4.1377  0.8800 -1.6913
  686SOL    HW2 2058   0.266   0.796   1.455  3.1822  0.6991  0.9003
  687SOL     OW 2059   0.995   2.287   2.668 -0.3783 -0.0818 -0.6777
  687SOL    HW1 2060   1.019   2.192   2.640  2.6439  0.2799  0.6369
  687SOL    HW2 2061   0.915   2.326   2.618  0.0699 -0.0076  2.6349
  688SOL     OW 2062   0.372   1.835   1.801  0.4271 -1.0265 -0.2152
  688SOL    HW1 2063   0.283   1.862   1.847 -1.0987 -1.5704  1.0626
  688SOL    HW2 2064   0.376   1.865   1.700  1.9108 -0.4136 -3.2731
  689SOL     OW 2065   1.585   1.112   1.769  0.2126 -0.1635  0.1980
  689SOL    HW1 2066   1.506   1.134   1.716  0.4668 -2.6474  2.1697
  689SOL    HW2 2067   1.611   1.017   1.765 -0.6713 -2.2869 -1.9904
  690SOL     OW 2068   2.482   0.871   1.027 -0.0372 -0.7006 -0.0997
  690SOL    HW1 2069   2.517   0.824   1.109  0.1973 -0.8178 -2.5827
  690SOL    HW2 2070   2.414   0.938   1.057  0.3786 -3.3239  0.7261
  691SOL     OW 2071   0.601   1.971   1.599  0.1810 -0.1850  0.0464
  691SOL    HW1 2072   0.653   1.886   1.570  2.8932 -0.8606 -1.1533
  691SOL    HW2 2073   0.625   2.006   1.693  1.5535  0.1958 -1.0397
  692SOL     OW 2074   2.191   0.136   1.269 -0.2212  0.3808 -0.5044
  692SOL    HW1 2075   2.184   0.168   1.174  0.5297 -4.4018  0.9155
  692SOL    HW2 2076   2.242   0.203   1.327  1.0040  0.4980  0.7279
  693SOL     OW 2077   0.408   1.116   2.061  0.1318 -0.0753 -0.7591
  693SOL    HW1 2078   0.494   1.174   2.045  1.2140 -1.3624 -0.7442
  693SOL    HW2 2079   0.399   1.048   1.985 -2.1630 -0.2135  0.0498
  694SOL     OW 2080   1.903   0.144   1.331  0.1196 -0.3485  0.7043
  694SOL    HW1 2081   1.986   0.098   1.371  2.6434  0.1589  1.0410
  694SOL    HW2 2082   1.826   0.079   1.307 -0.6986  0.8565 -0.3904
  695SOL     OW 2083   1.270   1.392   1.748 -0.5802 -0.3201  0.0747
  695SOL    HW1 2084   1.195   1.415   1.681 -0.4759  0.0416  0.7752
  695SOL    HW2 2085   1.341   1.336   1.701  1.8985  1.4785 -0.4853
  696SOL     OW 2086   1.774   2.908   0.009 -0.6276 -0.4272  0.3417
  696SOL    HW1 2087   1.833   2.956   0.078 -0.9013 -0.1195  0.8503
  696SOL    HW2 2088   1.785   2.808   0.024 -1.2076 -1.1948  0.4673
  697SOL     OW 2089   0.892   0.578   0.458  0.0903 -0.2335  0.0787
  697SOL    HW1 2090   0.863   0.486   0.438 -1.9147  1.6221  0.3745
  697SOL    HW2 2091   0.988   0.581   0.490  0.0163 -1.3780 -0.3415
  698SOL     OW 2092   1.463   1.324   2.557  0.0649 -0.0930  0.0121
  698SOL    HW1 2093   1.481   1.373   2.465  2.0486  4.3315 -3.8999
  698SOL    HW2 2094   1.499   1.235   2.565  0.1559  4.3703  2.0313
  699SOL     OW 2095   1.361   1.300   1.033 -0.1134 -0.2707  0.3657
  699SOL    HW1 2096   1.432   1.371   1.020 -1.4717 -3.3952  1.1808
  699SOL    HW2 2097   1.370   1.228   0.962  0.3950  0.2192  0.3766
  700SOL     OW 2098   1.462   3.040   0.461  0.0628  0.0798 -0.0815
  700SOL    HW1 2099   1.495   2.939   0.458  5.2364 -0.8297  1.0827
  700SOL    HW2 2100   1.545   3.100   0.470 -0.1294 -1.2555 -2.2038
  701SOL     OW 2101   2.152   0.091   2.599 -0.0665 -0.8119  0.5053
  701SOL    HW1 2102   2.241   0.085   2.643 -2.6548 -1.4063 -0.5084
  701SOL    HW2 2103   2.126   0.193   2.601 -0.1765  1.5247  1.9885
  702SOL     OW 2104   1.144   3.131   0.013  0.1041 -0.6988 -0.2033
  702SOL    HW1 2105   1.115   0.092   0.037 -0.2100 -1.1003  2.3515
  702SOL    HW2 2106   1.142   3.100   3.055  0.2435 -0.5304 -0.1311
  703SOL     OW 2107   2.313   2.902   2.289  0.0504  0.3902 -0.7334
  703SOL    HW1 2108   2.235   2.855   2.244 -0.6410 -0.9833  3.1599
  703SOL    HW2 2109   2.287   3.002   2.293 -0.8871  0.6037  1.0613
  704SOL     OW 2110   0.376   2.409   1.079 -0.3100 -0.2591 -0.5687
  704SOL    HW1 2111   0.390   2.343   1.002 -1.2887 -2.4169 -1.9010
  704SOL    HW2 2112   0.410   2.505   1.057  0.9389  0.9578 -1.0278
  705SOL     OW 2113   2.393   0.305   2.159 -1.0900  0.0764  0.7371
  705SOL    HW1 2114   2.475   0.344   2.110  1.5340  0.6210  0.3854
  705SOL    HW2 2115   2.414   0.212   2.194 -1.5955  0.6855 -0.0161
  706SOL     OW 2116   1.835   3.031   0.243  0.1861 -0.3526 -0.2876
  706SOL    HW1 2117   1.756   3.019   0.309 -3.8412 -2.4067  1.7547
  706SOL    HW2 2118   1.854   3.133   0.230  1.7041  0.3564  0.1599
  707SOL     OW 2119   1.033   2.013   2.135  0.2641  0.0298  0.2056
  707SOL    HW1 2120   0.998   2.097   2.180  0.5465  0.9073  0.9756
  707SOL    HW2 2121   1.007   2.004   2.039  0.1421  1.4217  0.0040
  708SOL     OW 2122   0.141   2.705   1.968 -0.4205 -0.2707 -0.5906
  708SOL    HW1 2123   0.124   2.607   1.978  0.9029  2.4223 -2.0593
  708SOL    HW2 2124   0.066   2.751   1.915 -3.1737  0.4431  0.6550
  709SOL     OW 2125   1.660   0.178   1.771  0.0137 -0.1313  0.3255
  709SOL    HW1 2126   1.720   0.259   1.765  3.0046  1.9223  0.1739
  709SOL    HW2 2127   1.717   0.091   1.743 -0.0709  0.4437 -1.4142
  710SOL     OW 2128   2.108   0.838   2.038  0.1322 -0.2202 -0.4545
  710SOL    HW1 2129   2.057   0.926   2.038 -1.2792 -3.6307 -1.7869
  710SOL    HW2 2130   2.051   0.768   2.087 -0.5153  1.5674 -1.4431
  711SOL     OW 2131   0.928   2.118   0.242  0.0976 -0.0183 -0.2822
  711SOL    HW1 2132   0.980   2.167   0.318  1.5833  2.3209  1.7172
  711SOL    HW2 2133   0.851   2.174   0.205  1.2864 -1.0361  0.6844
  712SOL     OW 2134   0.698   2.736   2.271 -0.5961  0.1911  0.1353
  712SOL    HW1 2135   0.600   2.752   2.295 -0.8159 -1.7508 -1.7242
  712SOL    HW2 2136   0.756   2.825   2.267  3.8700  1.2057 -0.3145
  713SOL     OW 2137   1.896   1.201   0.390 -0.2105  0.2869 -0.1097
  713SOL    HW1 2138   1.929   1.301   0.396  0.7492  0.3235  0.4899
  713SOL    HW2 2139   1.919   1.144   0.473 -0.6648  0.0392 -0.4656
  714SOL     OW 2140   0.563   1.738   1.233 -0.3540  0.3066  0.2492
  714SOL    HW1 2141   0.478   1.677   1.230  0.2088 -2.8941  0.6228
  714SOL    HW2 2142   0.546   1.836   1.236 -1.9518 -1.0413 -0.1196
  715SOL     OW 2143   2.049   2.981   2.645 -0.2249  0.1674 -0.0742
  715SOL    HW1 2144   2.091   3.065   2.615 -2.0998 -3.3495  2.8523
  715SOL    HW2 2145   1.950   2.975   2.623 -2.2213  1.6022  1.7159
  716SOL     OW 2146   2.733   0.051   2.040 -0.3459 -0.2221  0.7738
  716SOL    HW1 2147   2.686   0.036   2.127  2.0267  0.5057 -2.0769
  716SOL    HW2 2148   2.813   3.125   2.027  0.3153  2.7159  0.6634
  717SOL     OW 2149   0.241   0.918   0.761 -0.0184 -0.5102 -0.1366
  717SOL    HW1 2150   0.285   0.851   0.823  3.4218  0.5444  1.0223
  717SOL    HW2 2151   0.159   0.881   0.715  1.2621  0.9339  3.9785
  718SOL     OW 2152   1.100   1.277   2.584 -0.2230  0.5301  0.2727
  718SOL    HW1 2153   1.060   1.188   2.607  0.7852 -1.0522  5.0024
  718SOL    HW2 2154   1.136   1.317   2.672  0.8554 -0.2868  1.4365
  719SOL     OW 2155   2.909   1.490   3.021 -0.3392  0.3675 -0.3233
  719SOL    HW1 2156   2.917   1.442   3.114 -0.0758 -3.6676  4.1279
  719SOL    HW2 2157   2.818   1.470   2.986  0.0363  0.6257  1.6711
  720SOL     OW 2158   1.277   0.816   1.024 -0.1423  0.4308 -0.2567
  720SOL    HW1 2159   1.261   0.888   1.097  1.2184 -0.0885  0.9469
  720SOL    HW2 2160   1.236   0.840   0.932  1.4531 -0.2338  1.1778
  721SOL     OW 2161   2.714   0.456   0.349 -0.4363 -0.5367 -0.2724
  721SOL    HW1 2162   2.736   0.479   0.249 -0.0927 -0.3552 -2.0962
  721SOL    HW2 2163   2.752   0.526   0.412 -0.6216  0.7221 -0.7113
  722SOL     OW 2164   1.965   0.883   2.690  0.2955 -0.4680 -0.3178
  722SOL    HW1 2165   2.037   0.819   2.718  0.3213  0.3839 -1.8242
  722SOL    HW2 2166   1.876   0.849   2.731 -0.2055 -0.2554 -1.0320
  723SOL     OW 2167   3.089   0.804   0.391  0.6008 -0.2453 -0.5934
  723SOL    HW1 2168   2.987   0.795   0.398  0.3371 -1.3058  2.0759
  723SOL    HW2 2169   3.127   0.709   0.405  0.2636  1.2077  0.3133
  724SOL     OW 2170   0.686   1.414   2.202  0.1254 -0.2464  0.1539
  724SOL    HW1 2171   0.670   1.370   2.115  0.2685  1.4002  0.6657
  724SOL    HW2 2172   0.764   1.479   2.208  0.5339 -2.7803  1.2836
  725SOL     OW 2173   1.988   0.907   1.747  0.1269  0.0139 -0.6270
  725SOL    HW1 2174   2.069   0.862   1.711 -0.6400 -0.3531  0.1606
  725SOL    HW2 2175   2.007   0.931   1.846  1.1297 -1.9657 -0.4741
  726SOL     OW 2176   1.734   2.935   0.584 -0.2483 -0.1666  0.1300
  726SOL    HW1 2177   1.776   2.884   0.654  1.3691  0.1244 -4.9339
  726SOL    HW2 2178   1.728   3.036   0.598  0.4138  0.7099 -3.5401
  727SOL     OW 2179   1.544   1.518   2.356 -0.1042  0.8674  0.1119
  727SOL    HW1 2180   1.629   1.497   2.303  0.8043  2.4460  1.8018
  727SOL    HW2 2181   1.468   1.513   2.291  0.6495  2.0938  2.1155
  728SOL     OW 2182   1.379   2.693   1.322  0.2255 -0.0087  0.2856
  728SOL    HW1 2183   1.304   2.633   1.278  0.6056 -2.3062  0.9464
  728SOL    HW2 2184   1.435   2.644   1.396  2.7033 -0.0850  0.9566
  729SOL     OW 2185   1.982   0.858   1.279  0.0990  0.3700 -0.4811
  729SOL    HW1 2186   2.061   0.858   1.341 -3.2487  2.0995 -2.7034
  729SOL    HW2 2187   1.901   0.889   1.330  1.9889  2.2259  0.4449
  730SOL     OW 2188   0.283   1.691   2.386 -0.0578  0.0243  0.2310
  730SOL    HW1 2189   0.215   1.736   2.327 -1.3706 -2.8665  2.0124
  730SOL    HW2 2190   0.344   1.630   2.336 -1.8222  0.5023  2.0486
  731SOL     OW 2191   0.476   0.165   0.803  0.2232  0.3064 -0.3154
  731SOL    HW1 2192   0.424   0.160   0.715  2.0253 -0.9293  2.7824
  731SOL    HW2 2193   0.469   0.082   0.851  2.8208  0.5906 -0.9079
  732SOL     OW 2194   1.250   0.771   0.128 -0.5683 -0.1281  0.4839
  732SOL    HW1 2195   1.266   0.691   0.185  1.8051 -2.2923 -1.1798
  732SOL    HW2 2196   1.156   0.800   0.151 -0.1895  1.5277  1.0901
  733SOL     OW 2197   0.606   2.074   0.727 -0.4631  0.5720 -0.5774
  733SOL    HW1 2198   0.655   1.985   0.737  0.7871 -2.7378  0.6488
  733SOL    HW2 2199   0.568   2.076   0.633  0.7483  0.3613  1.6230
  734SOL     OW 2200   0.049   2.423   2.835  0.7055 -0.5136 -0.3749
  734SOL    HW1 2201   0.114   2.462   2.768  2.8992 -0.6181 -0.7754
  734SOL    HW2 2202   0.041   2.318   2.831 -1.0571 -3.0774 -1.1692
  735SOL     OW 2203   1.148   0.769   1.368  0.2181 -0.3597  0.4435
  735SOL    HW1 2204   1.077   0.695   1.360  3.7618 -1.3402 -1.7902
  735SOL    HW2 2205   1.239   0.724   1.360 -1.6579  0.4950 -1.5044
  736SOL     OW 2206   2.210   2.575   3.044 -0.4753 -0.2810  0.1076
  736SOL    HW1 2207   2.145   2.642   2.999 -2.4394 -0.1609  1.1077
  736SOL    HW2 2208   2.298   2.566   2.994  0.1475 -1.6219  0.4414
  737SOL     OW 2209   2.920   3.116   0.755 -0.6854  0.8181  0.2648
  737SOL    HW1 2210   2.978   0.004   0.837 -1.9377 -0.1761  2.2884
  737SOL    HW2 2211   2.924   3.015   0.733 -1.9546  0.6502 -1.3824
  738SOL     OW 2212   2.246   0.233   1.021  0.3845 -0.3836  1.1169
  738SOL    HW1 2213   2.330   0.286   1.044 -0.2037  2.3719 -3.6255
  738SOL    HW2 2214   2.276   0.139   1.007 -1.0151 -3.3748  1.5932
  739SOL     OW 2215   1.751   2.647   0.422 -0.2760 -0.5968  1.1143
  739SOL    HW1 2216   1.727   2.549   0.434  0.3196 -2.3113  1.4373
  739SOL    HW2 2217   1.841   2.659   0.370 -0.1446  0.5084  0.2222
  740SOL     OW 2218   1.493   0.178   1.008 -0.0378  0.6146  0.4477
  740SOL    HW1 2219   1.432   0.194   0.928  0.0323 -0.0089 -1.0168
  740SOL    HW2 2220   1.544   0.093   0.997  1.0394  1.9137 -1.1743
  741SOL     OW 2221   2.570   0.858   0.757 -0.3019  0.2533 -0.6009
  741SOL    HW1 2222   2.541   0.857   0.857 -1.1255 -1.6718  2.5835
  741SOL    HW2 2223   2.519   0.922   0.702  3.6572 -4.3102  2.0089
  742SOL     OW 2224   0.916   2.224   2.281 -0.3412 -0.0643  0.5732
  742SOL    HW1 2225   0.832   2.243   2.332  0.5518  0.2339 -1.6000
  742SOL    HW2 2226   0.923   2.275   2.190  1.3355 -0.0116  0.0408
  743SOL     OW 2227   1.692   0.858   1.728 -0.0250 -0.4663 -0.2568
  743SOL    HW1 2228   1.775   0.902   1.772  0.0680 -1.9162 -0.2379
  743SOL    HW2 2229   1.656   0.774   1.775  0.8847 -1.9230  0.3969
  744SOL     OW 2230   2.276   0.603   1.221 -0.4355  0.2287  0.1159
  744SOL    HW1 2231   2.277   0.614   1.119  0.0660  0.7767 -1.8771
  744SOL    HW2 2232   2.193   0.642   1.265 -0.3336 -1.7778  0.1615
  745SOL     OW 2233   1.797   1.291   1.608 -0.1051 -0.1308 -0.1125
  745SOL    HW1 2234   1.712   1.248   1.647 -3.7830  0.5213  1.7686
  745SOL    HW2 2235   1.777   1.318   1.512 -1.4032  1.2550  0.6714
  746SOL     OW 2236   2.042   1.680   0.886 -0.8802  0.5109 -0.4073
  746SOL    HW1 2237   1.964   1.665   0.950 -0.0088 -0.6621  2.4344
  746SOL    HW2 2238   2.111   1.609   0.892  0.7952  0.7290 -0.1280
  747SOL     OW 2239   1.862   1.254   1.071  0.3076  0.1907  0.1373
  747SOL    HW1 2240   1.818   1.284   0.984  2.2628 -1.2851  0.5883
  747SOL    HW2 2241   1.833   1.316   1.146  0.3306 -0.1817 -1.2127
  748SOL     OW 2242   0.383   2.199   0.889  0.6817  0.1750 -0.2134
  748SOL    HW1 2243   0.290   2.178   0.859  1.3926 -0.9757  0.1472
  748SOL    HW2 2244   0.442   2.118   0.878  0.8556  0.1154 -1.9277
  749SOL     OW 2245   2.435   0.043   2.223 -0.3328  0.7584 -0.1113
  749SOL    HW1 2246   2.352   0.034   2.283  1.0155 -0.6329 -0.0243
  749SOL    HW2 2247   2.441   3.100   2.159  0.7078  0.3461 -1.0547
  750SOL     OW 2248   2.503   0.582   0.970 -0.3379  0.0513 -0.0080
  750SOL    HW1 2249   2.468   0.579   0.873 -0.4221 -2.0712 -1.5014
  750SOL    HW2 2250   2.493   0.672   1.014  5.1723  0.2479 -0.9962
  751SOL     OW 2251   2.444   2.871   0.373  0.3538  0.1543 -0.7436
  751SOL    HW1 2252   2.496   2.847   0.288  1.0369  0.7220  0.2101
  751SOL    HW2 2253   2.369   2.928   0.345 -1.2779  1.4535  1.1615
  752SOL     OW 2254   0.324   2.883   0.782 -0.2832  0.9178 -0.0211
  752SOL    HW1 2255   0.399   2.823   0.812 -1.6268  0.8084 -0.1530
  752SOL    HW2 2256   0.298   2.867   0.682  2.7054 -1.1329 -0.6803
  753SOL     OW 2257   1.623   0.612   1.862 -0.2438 -0.1393  0.0835
  753SOL    HW1 2258   1.523   0.598   1.859 -3.6582 -0.5666 -0.8534
  753SOL    HW2 2259   1.667   0.561   1.787  0.3153  1.8654 -1.5973
  754SOL     OW 2260   1.659   2.390   1.752 -0.3254  0.2112  0.7766
  754SOL    HW1 2261   1.714   2.472   1.757  1.3180  0.6655 -2.3395
  754SOL    HW2 2262   1.573   2.406   1.705  2.7596 -4.6271  1.3291
  755SOL     OW 2263   2.871   0.398   0.835  0.0161  0.3885 -0.1363
  755SOL    HW1 2264   2.788   0.369   0.892 -0.2905  2.3246 -0.0551
  755SOL    HW2 2265   2.889   0.325   0.765 -3.0297  0.0557  1.0280
  756SOL     OW 2266   1.416   1.570   2.985 -0.2501 -0.1756  0.3363
  756SOL    HW1 2267   1.378   1.535   2.891 -2.5558 -1.8967 -1.3870
  756SOL    HW2 2268   1.505   1.612   2.965 -2.5365  2.1720 -0.3364
  757SOL     OW 2269   1.182   0.251   1.252  0.7483 -0.0400  0.3881
  757SOL    HW1 2270   1.134   0.209   1.175 -1.9477  1.0733 -0.7096
  757SOL    HW2 2271   1.231   0.334   1.228  1.5446  1.0373  0.4407
  758SOL     OW 2272   0.811   0.254   1.293 -0.0193  0.3742 -0.4066
  758SOL    HW1 2273   0.789   0.315   1.370  1.7218 -1.1138 -0.2347
  758SOL    HW2 2274   0.816   0.159   1.329  1.1830 -0.4884  4.7331
  759SOL     OW 2275   0.492   0.547   0.985  0.5434  0.3860  0.2331
  759SOL    HW1 2276   0.522   0.625   0.933 -0.7101  0.4659  1.2593
  759SOL    HW2 2277   0.408   0.577   1.036 -1.8888  0.4502 -1.5696
  760SOL     OW 2278   2.356   1.374   1.020 -0.1597 -0.1455  0.0808
  760SOL    HW1 2279   2.436   1.322   0.991 -2.7343  2.8973  1.4146
  760SOL    HW2 2280   2.272   1.320   1.039 -1.7415  0.9857 -0.0136
  761SOL     OW 2281   1.645   0.470   0.270  0.1783 -0.2928 -0.3389
  761SOL    HW1 2282   1.710   0.418   0.333  1.9830 -1.5587  2.1513
  761SOL    HW2 2283   1.551   0.437   0.283 -3.4428 -0.3895  0.2397
  762SOL     OW 2284   2.069   2.417   1.214 -0.1482 -0.6472 -0.1414
  762SOL    HW1 2285   2.077   2.393   1.113 -1.6255 -1.6514  0.5807
  762SOL    HW2 2286   2.071   2.519   1.228  2.2275  1.6205 -1.6762
  763SOL     OW 2287   1.467   1.569   1.830  0.2025 -0.3578  0.1213
  763SOL    HW1 2288   1.476   1.662   1.872  0.4733 -0.9771 -1.6354
  763SOL    HW2 2289   1.368   1.538   1.825 -2.6583  1.5089  0.0330
  764SOL     OW 2290   2.739   1.817   2.365  0.3424 -0.3680  0.1718
  764SOL    HW1 2291   2.828   1.841   2.407  1.5201 -0.4186 -0.7462
  764SOL    HW2 2292   2.662   1.854   2.420  3.8173  0.2561  0.2630
  765SOL     OW 2293   0.889   2.684   0.957  0.1322 -0.5219  0.1598
  765SOL    HW1 2294   0.965   2.620   0.943 -5.2758 -0.8485 -1.7199
  765SOL    HW2 2295   0.881   2.701   1.056 -1.4658  0.1789 -0.9963
  766SOL     OW 2296   0.620   1.938   2.536 -0.0656  0.7201 -0.2300
  766SOL    HW1 2297   0.568   1.894   2.610  0.5395  0.8235 -0.7965
  766SOL    HW2 2298   0.644   2.032   2.565 -0.1981  0.2845 -0.1288
  767SOL     OW 2299   2.036   0.818   2.420 -0.0530  0.3849  0.6428
  767SOL    HW1 2300   2.097   0.897   2.395  0.1905  1.1791  0.9716
  767SOL    HW2 2301   1.986   0.840   2.504 -1.1895  2.4401 -0.0257
  768SOL     OW 2302   1.191   2.809   2.541 -0.3449  0.1408  0.6776
  768SOL    HW1 2303   1.286   2.779   2.523  1.5500  0.2377 -1.0225
  768SOL    HW2 2304   1.175   2.824   2.640  0.5581 -0.8634 -3.4320
  769SOL     OW 2305   3.027   2.537   0.984  0.0441 -0.3326 -0.1680
  769SOL    HW1 2306   2.936   2.496   1.008 -3.7838 -2.5976  1.1863
  769SOL    HW2 2307   3.101   2.503   1.043 -0.2842 -0.4111 -1.6894
  770SOL     OW 2308   0.635   3.005   0.037  0.9232  0.4840 -0.0092
  770SOL    HW1 2309   0.558   2.945   0.043  0.6796  2.2239 -1.4319
  770SOL    HW2 2310   0.711   2.946   3.134  2.0521 -0.5286 -1.9843
  771SOL     OW 2311   1.150   2.283   2.421 -0.0821  0.4847 -0.6545
  771SOL    HW1 2312   1.064   2.263   2.371  2.2764  1.1244  0.3795
  771SOL    HW2 2313   1.137   2.363   2.487  1.9401  0.2070 -1.3054
  772SOL     OW 2314   2.172   0.265   1.990  0.3801 -0.4466  0.4067
  772SOL    HW1 2315   2.256   0.280   2.047 -0.0643  1.0089  0.4491
  772SOL    HW2 2316   2.134   0.171   2.010 -1.0514  1.6278  1.2449
  773SOL     OW 2317   0.952   3.098   1.900 -0.4161  0.2784 -0.8242
  773SOL    HW1 2318   0.936   2.997   1.895 -2.5628  0.0191  0.2668
  773SOL    HW2 2319   1.025   3.130   1.971 -0.7285 -2.3118  2.4073
  774SOL     OW 2320   1.558   0.917   2.283  0.0219  0.1914  0.0367
  774SOL    HW1 2321   1.515   0.947   2.198  2.3166 -0.6925  0.0090
  774SOL    HW2 2322   1.600   0.823   2.280 -1.9088  0.3338 -1.3989
  775SOL     OW 2323   2.215   2.941   0.217  0.0688 -0.4674 -0.1647
  775SOL    HW1 2324   2.282   2.878   0.175 -1.9538  0.3938 -1.3319
  775SOL    HW2 2325   2.140   2.889   0.262 -1.7312 -2.1230  1.2490
  776SOL     OW 2326   2.366   1.066   1.719  0.3300  0.0151  0.1266
  776SOL    HW1 2327   2.454   1.117   1.704  0.5411 -0.7172  2.6357
  776SOL    HW2 2328   2.285   1.121   1.737  1.5596 -3.0001  0.4481
  777SOL     OW 2329   0.095   1.129   2.503  0.1873  0.5853  0.3033
  777SOL    HW1 2330   0.173   1.113   2.441 -0.3283  1.7007  1.4977
  777SOL    HW2 2331   0.029   1.044   2.503 -3.5120 -0.8394 -1.8372
  778SOL     OW 2332   2.387   0.815   2.100  0.1314  0.9765 -0.1967
  778SOL    HW1 2333   2.294   0.786   2.074 -0.2327  0.1108 -1.3029
  778SOL    HW2 2334   2.409   0.789   2.194  3.1438  2.7946  0.7971
  779SOL     OW 2335   3.016   0.173   3.059 -0.0801  0.4009 -0.3056
  779SOL    HW1 2336   3.010   0.143   0.018  0.8392 -0.2848 -1.2170
  779SOL    HW2 2337   3.041   0.097   2.996 -2.6227 -0.9405  0.5847
  780SOL     OW 2338   2.203   0.034   2.334  0.3299  0.3958  0.0560
  780SOL    HW1 2339   2.191   0.053   2.431  0.2316  1.0551 -2.8802
  780SOL    HW2 2340   2.120   3.122   2.288  1.4693 -2.6491  1.0714
  781SOL     OW 2341   0.181   0.858   1.791  0.3287  0.3740  0.3458
  781SOL    HW1 2342   0.138   0.941   1.752  1.7797 -2.1901 -1.6058
  781SOL    HW2 2343   0.142   0.831   1.883 -0.5739 -0.6398  1.2562
  782SOL     OW 2344   2.278   2.076   0.093 -0.2167  0.2343  0.6229
  782SOL    HW1 2345   2.344   2.081   0.169  0.0501 -2.4409  2.1203
  782SOL    HW2 2346   2.250   2.169   0.064  1.3983  1.6299 -0.3363
  783SOL     OW 2347   0.406   2.374   1.344 -0.6479  0.4884 -0.1223
  783SOL    HW1 2348   0.385   2.379   1.244  1.5273  2.3964  1.8204
  783SOL    HW2 2349   0.491   2.421   1.373  0.9810 -1.9692  3.5059
  784SOL     OW 2350   2.591   0.646   2.281  0.0886 -0.5036 -0.4533
  784SOL    HW1 2351   2.501   0.667   2.321  2.4835 -1.5226 -0.2867
  784SOL    HW2 2352   2.601   0.693   2.188 -0.7097  2.0869 -1.6125
  785SOL     OW 2353   0.121   0.507   1.340  0.3436  0.0038  0.2474
  785SOL    HW1 2354   0.181   0.552   1.268  0.4568  0.2510 -1.4943
  785SOL    HW2 2355   0.125   0.554   1.430  1.6722  0.1749  0.1064
  786SOL     OW 2356   1.515   2.794   0.369 -1.0345  0.1377  0.4187
  786SOL    HW1 2357   1.492   2.781   0.268 -0.5235 -0.2456 -4.1443
  786SOL    HW2 2358   1.605   2.751   0.387 -0.2786 -5.5145  0.1953
  787SOL     OW 2359   1.329   0.165   0.736 -0.2068 -0.2707  0.0763
  787SOL    HW1 2360   1.228   0.189   0.726 -1.4365  0.3468 -0.5274
  787SOL    HW2 2361   1.334   0.064   0.739 -1.3159  0.5573 -0.0579
  788SOL     OW 2362   3.090   1.368   1.105 -1.0864  0.5737  0.2227
  788SOL    HW1 2363   3.104   1.415   1.017  2.9299  3.3266 -0.7726
  788SOL    HW2 2364   3.085   1.264   1.089 -1.0346 -0.3424 -0.8429
  789SOL     OW 2365   2.776   0.528   2.073  0.6215  0.2975  0.0455
  789SOL    HW1 2366   2.744   0.622   2.060 -0.6368 -0.3645 -2.0902
  789SOL    HW2 2367   2.829   0.517   2.160 -2.0877 -0.1644 -2.3704
  790SOL     OW 2368   0.837   0.218   3.079  0.0396 -0.1822  0.4593
  790SOL    HW1 2369   0.833   0.263   2.988  1.3968 -3.2071  2.3749
  790SOL    HW2 2370   0.929   0.233   3.119 -0.6250 -1.4614 -2.7838
  791SOL     OW 2371   2.686   2.814   3.086  0.0156  0.2547 -0.0068
  791SOL    HW1 2372   2.703   2.869   3.007 -1.4819 -3.6707  0.2673
  791SOL    HW2 2373   2.738   2.726   3.083 -0.2848 -0.4501 -1.6142
  792SOL     OW 2374   1.461   0.823   1.555 -0.5923 -0.5243 -0.2804
  792SOL    HW1 2375   1.456   0.767   1.471  2.0714  2.4568  1.3531
  792SOL    HW2 2376   1.556   0.835   1.593  3.5632  3.6527  0.2658
  793SOL     OW 2377   2.740   0.595   1.093 -0.1050  0.4709  0.1906
  793SOL    HW1 2378   2.809   0.662   1.050  1.6459  1.3681 -1.7746
  793SOL    HW2 2379   2.661   0.595   1.032  2.1827 -3.2926 -1.8960
  794SOL     OW 2380   2.905   0.288   2.244  0.4059 -0.2564 -0.0127
  794SOL    HW1 2381   2.811   0.322   2.259  1.6751 -0.2129  1.2617
  794SOL    HW2 2382   2.930   0.289   2.145 -0.1144  0.9786 -0.4455
  795SOL     OW 2383   0.881   1.827   3.132 -0.4739 -0.0360  0.4785
  795SOL    HW1 2384   0.890   1.917   3.099  1.1604 -0.3399 -0.0553
  795SOL    HW2 2385   0.838   1.820   0.088  1.0494  0.6237 -0.2622
  796SOL     OW 2386   2.320   0.557   2.719  0.2379 -0.1547  0.3002
  796SOL    HW1 2387   2.392   0.626   2.691 -0.0337  1.8132 -1.9622
  796SOL    HW2 2388   2.239   0.609   2.750  1.8634 -1.2179  0.7875
  797SOL     OW 2389   2.637   1.813   3.089 -0.1990 -0.3603  0.1546
  797SOL    HW1 2390   2.720   1.854   3.052 -1.6075 -2.0074 -0.6645
  797SOL    HW2 2391   2.553   1.861   3.061 -0.9368 -2.6932  0.5868
  798SOL     OW 2392   3.044   0.353   1.249  0.4365 -0.0589  0.8071
  798SOL    HW1 2393   3.021   0.284   1.320 -1.1291  0.7691 -3.4390
  798SOL    HW2 2394   3.100   0.434   1.282 -2.1544  0.8773 -0.1415
  799SOL     OW 2395   0.304   0.450   1.642 -0.3560 -0.1930  0.1233
  799SOL    HW1 2396   0.373   0.458   1.566  1.5875  0.9654  0.4682
  799SOL    HW2 2397   0.339   0.444   1.735 -2.3797  0.1183 -4.0651
  800SOL     OW 2398   0.433   1.890   0.172 -0.3504 -0.1207  0.7316
  800SOL    HW1 2399   0.353   1.841   0.211 -3.9484  0.8509  0.0823
  800SOL    HW2 2400   0.520   1.868   0.218  2.1510  0.3685  0.1107
  801SOL     OW 2401   1.533   1.817   0.926 -0.5787 -0.0756 -0.7290
  801SOL    HW1 2402   1.517   1.869   1.012  0.0989 -0.3835  1.7724
  801SOL    HW2 2403   1.625   1.835   0.887 -0.3307  0.7019 -2.2386
  802SOL     OW 2404   1.503   0.875   0.179  0.2986  0.3051 -0.2819
  802SOL    HW1 2405   1.574   0.905   0.114 -1.9024  0.9845  1.2892
  802SOL    HW2 2406   1.409   0.859   0.145 -0.9952  0.1964  1.4340
  803SOL     OW 2407   0.976   1.603   1.956  0.1500  0.5678  0.2239
  803SOL    HW1 2408   0.900   1.663   1.924 -0.2326  0.2248 -0.3357
  803SOL    HW2 2409   0.968   1.506   1.914  0.0300 -0.3456 -0.5441
  804SOL     OW 2410   1.637   2.410   1.196  0.4814  0.6167  0.1049
  804SOL    HW1 2411   1.638   2.326   1.253 -0.8801 -0.4220 -0.4131
  804SOL    HW2 2412   1.608   2.390   1.098 -1.1096  1.8907  1.6917
  805SOL     OW 2413   0.212   2.393   2.393 -0.4301  0.1504 -0.4496
  805SOL    HW1 2414   0.134   2.388   2.328  0.2190  0.2604  0.3594
  805SOL    HW2 2415   0.293   2.341   2.362  1.4115 -0.0579  2.1232
  806SOL     OW 2416   1.094   2.902   0.169 -0.5100 -0.3794 -0.5585
  806SOL    HW1 2417   1.091   2.987   0.117 -1.7348 -0.4250  0.5585
  806SOL    HW2 2418   1.003   2.867   0.192  4.1735  0.8403  0.7018
  807SOL     OW 2419   2.611   1.123   2.850  0.6299  0.5033  0.3684
  807SOL    HW1 2420   2.669   1.097   2.931 -1.7224  1.1740 -0.1392
  807SOL    HW2 2421   2.653   1.095   2.761 -3.3015 -1.3079  0.0423
  808SOL     OW 2422   1.365   2.184   0.980 -0.0918 -0.0193 -0.2685
  808SOL    HW1 2423   1.443   2.249   0.955  0.1250  2.6197  1.9240
  808SOL    HW2 2424   1.315   2.163   0.896  2.5903 -0.8297 -1.7777
  809SOL     OW 2425   0.405   3.090   0.551 -0.0845 -0.0080 -0.2024
  809SOL    HW1 2426   0.338   3.012   0.539 -1.2708  0.6512 -0.7144
  809SOL    HW2 2427   0.363   0.042   0.516  1.4053  0.6269  1.7519
  810SOL     OW 2428   1.169   1.528   0.813 -0.3111  0.2845 -0.2851
  810SOL    HW1 2429   1.142   1.520   0.913  1.2357 -2.5638  1.3403
  810SOL    HW2 2430   1.135   1.445   0.762  0.1274 -0.5563 -2.3115
  811SOL     OW 2431   1.324   2.973   1.255  0.3169 -0.0603  0.2350
  811SOL    HW1 2432   1.338   2.877   1.280 -1.3688  1.2219 -2.2620
  811SOL    HW2 2433   1.390   3.031   1.307 -2.3315 -0.6346  1.9607
  812SOL     OW 2434   1.282   0.049   0.345  0.1257  0.1581 -0.1260
  812SOL    HW1 2435   1.349   3.120   0.387  2.4794  1.1351 -2.3112
  812SOL    HW2 2436   1.186   0.013   0.348  0.1087 -1.8999 -0.2931
  813SOL     OW 2437   1.087   0.101   2.090  0.0682 -0.6415 -0.2209
  813SOL    HW1 2438   1.029   0.180   2.122 -2.2232  0.5276 -0.2534
  813SOL    HW2 2439   1.148   0.058   2.159 -0.7665  1.7798  0.2546
  814SOL     OW 2440   1.025   2.937   1.270 -0.0168 -0.3374 -0.6100
  814SOL    HW1 2441   0.968   2.858   1.236 -0.4102 -1.1114 -0.5033
  814SOL    HW2 2442   1.124   2.921   1.254  0.5514  0.3561 -2.0341
  815SOL     OW 2443   0.221   2.498   0.615 -0.3218  0.9469  0.1983
  815SOL    HW1 2444   0.191   2.512   0.517 -0.1432  0.2192 -2.6076
  815SOL    HW2 2445   0.161   2.546   0.680  2.1536 -1.4904  1.6860
  816SOL     OW 2446   2.361   1.300   2.579 -0.7826 -0.0696  0.2441
  816SOL    HW1 2447   2.349   1.269   2.675 -0.4006  1.1297 -3.8992
  816SOL    HW2 2448   2.443   1.257   2.532  1.4141 -0.9165  0.4731
  817SOL     OW 2449   1.982   2.453   2.507  0.4808  0.1070  0.4958
  817SOL    HW1 2450   2.049   2.441   2.584 -1.3386 -3.3142 -2.5039
  817SOL    HW2 2451   1.950   2.549   2.486  0.7054 -0.6307  1.0253
  818SOL     OW 2452   1.182   1.189   0.480 -0.0425  0.3387  0.1141
  818SOL    HW1 2453   1.206   1.096   0.445 -0.6552 -1.2762  2.5009
  818SOL    HW2 2454   1.256   1.257   0.467 -0.8049 -1.8774 -1.6034
  819SOL     OW 2455   1.573   1.980   0.131  0.3202  0.2583  0.3535
  819SOL    HW1 2456   1.514   1.981   0.215  1.3852 -1.4035 -0.6638
  819SOL    HW2 2457   1.510   1.946   0.057  1.1127  0.2827  2.2177
  820SOL     OW 2458   0.472   0.746   0.225 -0.8516  0.2036 -0.4702
  820SOL    HW1 2459   0.500   0.675   0.157  2.3439  1.3192 -0.9061
  820SOL    HW2 2460   0.427   0.827   0.188  0.0043 -0.7184 -2.6463
  821SOL     OW 2461   0.446   0.141   1.394 -0.3254 -0.5093  0.1412
  821SOL    HW1 2462   0.513   0.218   1.388  2.3826  1.8825 -0.4333
  821SOL    HW2 2463   0.364   0.180   1.345 -1.3357 -0.3528 -0.0876
  822SOL     OW 2464   1.966   2.134   2.424 -0.0258  0.1502  0.2537
  822SOL    HW1 2465   1.899   2.207   2.409 -2.2034  0.3330 -0.7620
  822SOL    HW2 2466   1.960   2.085   2.518  3.3629 -0.5494  1.9268
  823SOL     OW 2467   0.806   0.594   1.838  0.5623  0.1251 -0.1799
  823SOL    HW1 2468   0.886   0.601   1.904  0.0687  0.5563  1.4948
  823SOL    HW2 2469   0.714   0.617   1.881 -3.2103  0.1139 -1.6274
  824SOL     OW 2470   2.272   0.152   1.601 -0.0996  0.7163 -0.5089
  824SOL    HW1 2471   2.244   0.247   1.582  0.9905 -1.1366 -1.1002
  824SOL    HW2 2472   2.187   0.105   1.639 -1.7328 -0.4841 -0.5915
  825SOL     OW 2473   0.663   1.271   3.046 -0.2756 -0.0745 -0.2457
  825SOL    HW1 2474   0.578   1.319   3.080 -0.2719  1.8621 -0.0191
  825SOL    HW2 2475   0.718   1.338   2.992  0.4276 -0.0350  0.9724
  826SOL     OW 2476   1.839   0.613   2.523  0.2403 -0.4581 -0.6723
  826SOL    HW1 2477   1.900   0.671   2.464  1.3969  1.3866  0.8148
  826SOL    HW2 2478   1.895   0.573   2.600  3.9492 -0.9889  2.4753
  827SOL     OW 2479   0.781   2.361   2.497 -0.3453 -0.0508 -0.3235
  827SOL    HW1 2480   0.691   2.345   2.547  0.1935  0.5502  1.2755
  827SOL    HW2 2481   0.771   2.407   2.405 -0.8157  0.3381  1.0739
  828SOL     OW 2482   2.655   0.149   1.370 -0.0835  0.2727 -0.0136
  828SOL    HW1 2483   2.694   0.094   1.291  1.7387 -0.0515  0.7541
  828SOL    HW2 2484   2.648   0.248   1.356 -1.7308 -0.4582  0.1755
  829SOL     OW 2485   1.275   1.732   1.534  0.0182  0.5200  0.2268
  829SOL    HW1 2486   1.367   1.748   1.579  2.4603  0.3962 -1.5531
  829SOL    HW2 2487   1.232   1.643   1.563 -2.6821  1.5638 -0.2419
  830SOL     OW 2488   0.813   0.919   1.959  0.8289  0.1097 -0.3738
  830SOL    HW1 2489   0.749   0.842   1.972  1.0193 -0.5214 -0.3196
  830SOL    HW2 2490   0.844   0.953   2.047 -2.2083  2.5819 -1.8429
  831SOL     OW 2491   2.932   1.727   0.285 -0.3604 -0.0362  0.5825
  831SOL    HW1 2492   2.839   1.710   0.251 -0.0706 -0.9932 -1.1908
  831SOL    HW2 2493   2.997   1.732   0.210 -3.7725 -0.7375  1.0466
  832SOL     OW 2494   1.263   2.763   0.362  0.1222 -0.1926 -0.2864
  832SOL    HW1 2495   1.223   2.839   0.305  2.5533  0.1009  0.1986
  832SOL    HW2 2496   1.362   2.780   0.381 -1.9439 -0.9554 -0.5701
  833SOL     OW 2497   2.965   0.309   1.647 -0.2808 -0.4297  0.0977
  833SOL    HW1 2498   2.937   0.226   1.700 -1.0532 -1.1587  1.1779
  833SOL    HW2 2499   2.891   0.378   1.640  1.8016  1.1584 -1.1697
  834SOL     OW 2500   0.189   1.126   0.930  0.2607  0.0262 -0.1491
  834SOL    HW1 2501   0.215   1.215   0.890  0.4954 -0.2599  0.7828
  834SOL    HW2 2502   0.236   1.047   0.885 -0.6594  0.0761  2.5777
  835SOL     OW 2503   2.587   2.887   0.899  0.1287 -0.3577 -0.2068
  835SOL    HW1 2504   2.568   2.916   0.799 -1.4380 -2.9185 -0.7494
  835SOL    HW2 2505   2.677   2.836   0.915 -1.0762  2.3560  1.0868
  836SOL     OW 2506   1.242   1.822   2.801  0.4244  0.4901  0.1018
  836SOL    HW1 2507   1.153   1.856   2.769  1.1185  1.2351  0.5009
  836SOL    HW2 2508   1.240   1.731   2.845  1.0844 -0.6898 -1.3656
  837SOL     OW 2509   1.627   1.679   0.264 -0.5575 -0.5212 -0.0949
  837SOL    HW1 2510   1.622   1.781   0.243 -1.7222  2.3978  1.5941
  837SOL    HW2 2511   1.538   1.634   0.243 -0.5114 -0.4860 -1.6542
  838SOL     OW 2512   3.100   0.729   2.385 -0.1986  0.1510  0.3151
  838SOL    HW1 2513   0.058   0.753   2.422  0.1122  1.7050  0.6980
  838SOL    HW2 2514   3.036   0.800   2.363 -0.2136 -1.2192  0.1929
  839SOL     OW 2515   0.644   0.983   2.693  0.2130 -0.7069 -0.6273
  839SOL    HW1 2516   0.565   1.047   2.666 -2.1677  0.4217  0.0495
  839SOL    HW2 2517   0.688   1.005   2.783 -1.1395 -0.1924  0.2434
  840SOL     OW 2518   1.319   0.683   3.026  0.1235 -0.3936 -0.4152
  840SOL    HW1 2519   1.416   0.662   3.026  0.2644 -0.3469  2.0058
  840SOL    HW2 2520   1.288   0.704   3.120  0.9463 -2.0320 -1.4068
  841SOL     OW 2521   0.698   2.820   0.658 -0.0826  0.6736  0.0687
  841SOL    HW1 2522   0.621   2.764   0.701 -3.6868 -1.0914 -0.6530
  841SOL    HW2 2523   0.677   2.922   0.671  1.0484  1.7173  0.2610
  842SOL     OW 2524   0.304   0.572   0.383 -0.1626 -0.2832 -0.2197
  842SOL    HW1 2525   0.206   0.589   0.383  2.1399  0.2754  2.0545
  842SOL    HW2 2526   0.348   0.620   0.306 -1.7652 -0.2470  0.3365
  843SOL     OW 2527   0.382   1.041   1.299  0.2178  0.2551  0.1972
  843SOL    HW1 2528   0.474   1.070   1.324  0.0790 -2.4307  0.0971
  843SOL    HW2 2529   0.320   1.126   1.286 -1.9221  2.7930 -0.1478
  844SOL     OW 2530   2.167   2.452   2.711 -0.4676 -0.6308 -1.0229
  844SOL    HW1 2531   2.144   2.548   2.684  1.4254  0.7637 -2.0426
  844SOL    HW2 2532   2.273   2.438   2.710  0.6990 -1.9147 -0.1911
  845SOL     OW 2533   2.022   0.124   1.720  0.3801  0.2048 -0.0534
  845SOL    HW1 2534   2.054   0.123   1.818 -0.8024  1.5266 -0.5278
  845SOL    HW2 2535   1.932   0.081   1.708 -1.8394 -0.5747 -0.0136
  846SOL     OW 2536   2.360   1.476   2.307  0.7786  0.2851  0.0395
  846SOL    HW1 2537   2.329   1.390   2.255  0.4212 -3.9155 -2.4882
  846SOL    HW2 2538   2.359   1.459   2.407  1.5784  0.6278  0.5852
  847SOL     OW 2539   2.078   3.132   1.994  0.1299 -0.4625 -0.1986
  847SOL    HW1 2540   2.024   3.098   2.074 -0.6325 -1.7241 -0.4288
  847SOL    HW2 2541   2.130   3.056   1.958 -1.5325  2.7756  2.9299
  848SOL     OW 2542   0.071   2.972   0.349 -0.9409 -0.6618 -0.6563
  848SOL    HW1 2543   0.062   3.007   0.255  0.5746  0.3502  1.4599
  848SOL    HW2 2544   3.121   2.988   0.405  0.9197 -0.9565 -0.5226
  849SOL     OW 2545   0.225   2.927   1.165  0.4865  0.3474 -0.3958
  849SOL    HW1 2546   0.252   2.995   1.240  0.9757  1.2677 -0.8971
  849SOL    HW2 2547   0.227   2.973   1.074  0.9041  0.2464 -0.6135
  850SOL     OW 2548   0.344   1.868   0.737  0.3953 -0.4270  0.3067
  850SOL    HW1 2549   0.405   1.798   0.779 -1.7256 -0.1300  0.3830
  850SOL    HW2 2550   0.394   1.924   0.669 -1.1529 -2.1986  4.7341
  851SOL     OW 2551   2.464   0.784   2.961  0.1148  0.0424 -0.2438
  851SOL    HW1 2552   2.472   0.857   2.888  1.0870  1.3244  0.4002
  851SOL    HW2 2553   2.554   0.735   2.971  2.1313 -0.0349  1.7293
  852SOL     OW 2554   1.977   1.997   2.678 -0.5891  0.0982  0.2423
  852SOL    HW1 2555   1.913   1.921   2.669  2.3730  1.1561 -0.3135
  852SOL    HW2 2556   1.985   2.036   2.769 -1.0999 -0.6207 -2.5322
  853SOL     OW 2557   0.625   1.823   0.349  0.3661 -0.4947 -0.1917
  853SOL    HW1 2558   0.623   1.723   0.322  1.7584 -0.8073  1.5802
  853SOL    HW2 2559   0.721   1.846   0.371  2.0438 -2.7258  0.0883
  854SOL     OW 2560   1.666   1.190   2.203 -0.4411  0.7907 -0.1283
  854SOL    HW1 2561   1.635   1.095   2.195 -1.3266 -1.3933  0.9720
  854SOL    HW2 2562   1.647   1.246   2.122  1.7946  0.2411  1.6623
  855SOL     OW 2563   0.737   2.286   0.128  0.4835 -0.2249  0.9436
  855SOL    HW1 2564   0.654   2.321   0.173  0.7583 -0.8181  3.3399
  855SOL    HW2 2565   0.750   2.314   0.030  0.4976 -2.4450 -2.6435
  856SOL     OW 2566   0.437   3.097   2.149  0.2601  0.2166  0.3346
  856SOL    HW1 2567   0.435   3.131   2.053 -0.6673  1.5404  0.3661
  856SOL    HW2 2568   0.532   3.092   2.187  1.0548 -1.8435 -0.9820
  857SOL     OW 2569   0.631   0.281   1.783 -0.1108 -0.0534 -0.1763
  857SOL    HW1 2570   0.693   0.273   1.863 -2.3770  1.0168  0.2027
  857SOL    HW2 2571   0.550   0.334   1.821  3.4217  1.6456  0.6103
  858SOL     OW 2572   0.211   2.042   2.325  0.4958  0.1580  0.0498
  858SOL    HW1 2573   0.191   2.076   2.420 -0.8542  1.8699 -0.1286
  858SOL    HW2 2574   0.290   2.093   2.289 -0.7624 -1.7366  1.8983
  859SOL     OW 2575   1.897   2.322   1.380 -0.3695 -0.0463 -0.2490
  859SOL    HW1 2576   1.969   2.358   1.318 -1.9063  1.6770  0.4352
  859SOL    HW2 2577   1.885   2.382   1.459  0.0213  0.1906 -0.3147
  860SOL     OW 2578   1.802   0.332   0.661  0.2763 -0.4819  0.0171
  860SOL    HW1 2579   1.829   0.429   0.679 -1.6737 -1.8690 -0.1507
  860SOL    HW2 2580   1.703   0.317   0.678 -1.6951 -2.0565 -1.2370
  861SOL     OW 2581   0.272   0.637   1.140  0.2528  0.3095 -0.0710
  861SOL    HW1 2582   0.284   0.730   1.176  1.1961 -3.0575 -2.9081
  861SOL    HW2 2583   0.213   0.635   1.057 -0.0295  0.2517 -3.1475
  862SOL     OW 2584   2.217   0.843   1.423  0.3861 -0.1189  0.4153
  862SOL    HW1 2585   2.235   0.833   1.521 -0.4352  0.7055 -0.0441
  862SOL    HW2 2586   2.232   0.939   1.396 -2.4087 -1.5858 -2.1413
  863SOL     OW 2587   0.220   1.431   1.457  0.0409 -0.7623  0.1332
  863SOL    HW1 2588   0.264   1.355   1.497  0.2156  2.3707  0.9283
  863SOL    HW2 2589   0.236   1.508   1.524 -0.5628 -2.1385 -1.7802
  864SOL     OW 2590   2.459   3.027   1.968  0.1799  0.3145 -0.1408
  864SOL    HW1 2591   2.553   2.996   1.957 -1.4993  2.7960  1.0206
  864SOL    HW2 2592   2.450   3.123   1.933  0.9510  1.9840  0.5552
  865SOL     OW 2593   1.227   0.438   2.153  0.1742 -0.2545  0.1696
  865SOL    HW1 2594   1.252   0.413   2.055 -0.1866  0.7518 -1.8785
  865SOL    HW2 2595   1.303   0.489   2.200 -0.5249  1.1845 -0.5975
  866SOL     OW 2596   2.257   2.732   0.656  0.5331 -0.3621  0.4302
  866SOL    HW1 2597   2.298   2.719   0.754 -0.8342 -0.8764  1.8149
  866SOL    HW2 2598   2.324   2.708   0.585 -1.4678 -0.2159  2.4458
  867SOL     OW 2599   2.819   2.760   0.896  0.5925  0.2674 -0.3363
  867SOL    HW1 2600   2.762   2.678   0.868  1.1931  0.6878  1.6639
  867SOL    HW2 2601   2.887   2.732   0.962  0.9707  0.6215 -1.2102
  868SOL     OW 2602   1.674   1.701   2.875  0.6737 -0.8235 -0.2371
  868SOL    HW1 2603   1.759   1.747   2.911 -0.1095  0.1489 -1.9955
  868SOL    HW2 2604   1.636   1.759   2.803  1.6549 -0.8244 -0.2580
  869SOL     OW 2605   2.734   2.201   0.666 -0.5558 -0.2168 -0.3251
  869SOL    HW1 2606   2.662   2.189   0.743 -4.3416  1.3449  3.2359
  869SOL    HW2 2607   2.696   2.260   0.595  0.6563 -1.0939  0.5574
  870SOL     OW 2608   2.761   2.101   0.239 -0.3645  1.1148 -0.7570
  870SOL    HW1 2609   2.820   2.180   0.254 -1.3073  1.5468  0.3919
  870SOL    HW2 2610   2.765   2.045   0.328  0.7606  2.2538  4.4430
  871SOL     OW 2611   0.365   1.340   1.253 -0.0658 -0.6225  0.4472
  871SOL    HW1 2612   0.305   1.379   1.322  0.9873 -1.6740  0.3612
  871SOL    HW2 2613   0.330   1.368   1.160 -0.6942 -1.4852 -0.0741
  872SOL     OW 2614   0.863   1.675   2.482 -0.0104 -0.0027  1.0916
  872SOL    HW1 2615   0.885   1.666   2.383 -2.4697 -0.7345 -3.0106
  872SOL    HW2 2616   0.791   1.746   2.490  2.5890  0.9381  0.3011
  873SOL     OW 2617   0.370   0.030   1.890  0.1791 -0.3869 -0.3595
  873SOL    HW1 2618   0.380   3.064   1.881 -0.5825 -0.6376  3.4983
  873SOL    HW2 2619   0.422   0.086   1.824 -1.7439  1.9524 -0.5113
  874SOL     OW 2620   1.029   0.588   2.003  0.3187 -0.0740  0.6007
  874SOL    HW1 2621   1.092   0.531   2.065  2.4998  2.3807 -3.5703
  874SOL    HW2 2622   1.084   0.655   1.952  0.4595 -1.1084 -0.1749
  875SOL     OW 2623   2.906   0.174   1.099 -0.0427 -0.6556 -0.5549
  875SOL    HW1 2624   2.957   0.238   1.159 -1.9094 -1.0718  1.4874
  875SOL    HW2 2625   2.873   0.092   1.152  0.4037 -1.7458 -0.0252
  876SOL     OW 2626   0.683   1.159   0.366  0.6732 -0.1057  1.0532
  876SOL    HW1 2627   0.666   1.106   0.277  0.5993 -1.1056 -0.9570
  876SOL    HW2 2628   0.778   1.197   0.372  2.4660 -1.9649  0.2435
  877SOL     OW 2629   1.234   1.018   1.681  0.3366 -0.0237 -0.2095
  877SOL    HW1 2630   1.301   0.959   1.638 -2.2196  0.5898 -0.8406
  877SOL    HW2 2631   1.166   0.954   1.725 -0.8135 -2.3277  3.7220
  878SOL     OW 2632   2.380   2.183   0.509 -0.0413 -0.1964 -0.0046
  878SOL    HW1 2633   2.423   2.162   0.420  0.8941  2.2426 -3.4791
  878SOL    HW2 2634   2.425   2.269   0.544 -1.0425  0.1828 -0.2314
  879SOL     OW 2635   2.650   1.852   1.654 -0.2274 -0.1720 -0.4147
  879SOL    HW1 2636   2.669   1.798   1.569  1.0395 -1.7931 -0.5750
  879SOL    HW2 2637   2.728   1.907   1.697 -0.5051  0.9450  0.8883
  880SOL     OW 2638   1.221   2.579   0.976 -0.0304 -0.5700  0.3394
  880SOL    HW1 2639   1.225   2.677   0.968 -1.3130  0.0078  0.3517
  880SOL    HW2 2640   1.247   2.546   1.069  0.5772  0.0586 -3.6132
  881SOL     OW 2641   0.469   2.002   0.491  0.4906  0.1562  0.1998
  881SOL    HW1 2642   0.517   1.921   0.456  0.1916  1.4068  0.7336
  881SOL    HW2 2643   0.423   2.054   0.419  3.6434 -2.8233 -1.7298
  882SOL     OW 2644   2.147   0.824   0.559  0.0331  0.5143  0.0546
  882SOL    HW1 2645   2.114   0.790   0.468 -0.1774  0.5665 -0.9285
  882SOL    HW2 2646   2.155   0.751   0.626  3.3271  1.3001  0.1898
  883SOL     OW 2647   1.515   0.706   0.967  0.4813 -0.7709 -0.1489
  883SOL    HW1 2648   1.439   0.771   0.985 -1.1142  0.2343 -0.2839
  883SOL    HW2 2649   1.594   0.745   0.914  0.7875 -1.0715  0.1966
  884SOL     OW 2650   2.831   2.755   0.425 -0.3559  0.0757  0.2365
  884SOL    HW1 2651   2.785   2.805   0.350  2.4179  0.3288  3.2703
  884SOL    HW2 2652   2.915   2.804   0.455 -0.6980  1.2336  1.7499
  885SOL     OW 2653   1.141   1.470   2.400  0.6665  0.3056  0.1794
  885SOL    HW1 2654   1.139   1.391   2.457 -0.8226  1.4680 -1.7180
  885SOL    HW2 2655   1.221   1.459   2.343 -1.6828  1.2016  0.7483
  886SOL     OW 2656   1.389   1.876   2.546 -0.2042 -0.2999 -0.5266
  886SOL    HW1 2657   1.331   1.843   2.622  1.2183 -0.0726  0.5593
  886SOL    HW2 2658   1.383   1.979   2.541  0.4367 -0.6072 -0.8488
  887SOL     OW 2659   1.196   0.543   1.115 -0.3164 -0.8514 -0.2014
  887SOL    HW1 2660   1.237   0.496   1.037 -1.0250  1.6276  4.2328
  887SOL    HW2 2661   1.217   0.640   1.106 -2.1800  0.0347 -0.3866
  888SOL     OW 2662   2.405   0.584   1.791  0.4773 -0.3450  0.1255
  888SOL    HW1 2663   2.344   0.503   1.766  0.9573 -1.2770 -3.1421
  888SOL    HW2 2664   2.430   0.588   1.885 -2.0722  2.3760 -2.8335
  889SOL     OW 2665   0.150   2.236   0.765 -0.4140  0.0877 -0.4992
  889SOL    HW1 2666   0.095   2.183   0.698 -1.8731 -2.4257  1.9627
  889SOL    HW2 2667   0.185   2.324   0.726  0.5330  1.5160  0.1986
  890SOL     OW 2668   1.539   2.185   0.557  0.1966 -0.2131  0.0685
  890SOL    HW1 2669   1.544   2.088   0.583  3.5639 -2.0239 -1.1898
  890SOL    HW2 2670   1.449   2.200   0.505 -0.4055  0.1201 -1.9193
  891SOL     OW 2671   2.759   0.737   3.134  0.0215  0.0883  0.1100
  891SOL    HW1 2672   2.742   0.771   0.093  2.7057  0.1682 -0.8858
  891SOL    HW2 2673   2.749   0.808   3.068  0.1057 -1.8614  0.2385
  892SOL     OW 2674   2.898   2.162   1.130  0.3933 -0.1396 -0.1686
  892SOL    HW1 2675   2.856   2.247   1.102  1.2053 -2.5342 -0.1464
  892SOL    HW2 2676   2.942   2.168   1.222 -0.8277 -0.4109 -2.2499
  893SOL     OW 2677   1.361   0.490   0.864 -0.2654 -0.1233  0.6431
  893SOL    HW1 2678   1.417   0.442   0.797 -2.3213  1.2447  1.8863
  893SOL    HW2 2679   1.421   0.561   0.910  2.5399  0.7127  0.5127
  894SOL     OW 2680   2.949   0.671   0.755  0.1629  0.1346 -0.0407
  894SOL    HW1 2681   2.847   0.681   0.748  0.9907  0.4539  1.1419
  894SOL    HW2 2682   2.971   0.589   0.810  0.7372  0.4742 -0.0448
  895SOL     OW 2683   2.017   1.534   2.563  0.2381  0.4781 -0.1175
  895SOL    HW1 2684   2.078   1.563   2.489 -2.7546 -0.2104 -0.1571
  895SOL    HW2 2685   2.022   1.429   2.570  0.6815 -4.2211 -1.3577
  896SOL     OW 2686   1.825   0.607   1.367  0.9086 -0.1951 -0.5071
  896SOL    HW1 2687   1.897   0.603   1.296 -2.9339 -2.2089  2.7914
  896SOL    HW2 2688   1.808   0.513   1.400  0.4218  1.7679  0.4362
  897SOL     OW 2689   0.010   1.534   1.326  0.3624 -0.5621 -0.3494
  897SOL    HW1 2690   0.092   1.500   1.377 -0.3115 -0.0842  0.8643
  897SOL    HW2 2691   3.119   1.469   1.251 -0.8616 -1.5674 -1.2599
  898SOL     OW 2692   2.135   2.704   2.213  0.7295  0.2951 -0.2311
  898SOL    HW1 2693   2.089   2.711   2.118 -2.1779 -0.1774 -1.5373
  898SOL    HW2 2694   2.138   2.608   2.241  1.5375  2.4765  0.9876
  899SOL     OW 2695   1.194   1.775   1.098  0.4885  0.2380 -0.1119
  899SOL    HW1 2696   1.202   1.865   1.139 -1.3787 -2.7405 -0.5919
  899SOL    HW2 2697   1.094   1.758   1.075  0.6272 -0.6836  0.1312
  900SOL     OW 2698   1.362   2.142   2.459 -0.2281  0.5268  0.0192
  900SOL    HW1 2699   1.402   2.110   2.368  0.3587  0.8297 -2.5628
  900SOL    HW2 2700   1.273   2.193   2.445 -0.7830 -0.2257 -0.3314
  901SOL     OW 2701   0.946   1.605   2.245 -0.3676 -0.3539 -0.2631
  901SOL    HW1 2702   0.954   1.622   2.142 -1.3962  0.2479 -1.8691
  901SOL    HW2 2703   1.025   1.570   2.297 -0.1789  0.8143  2.7141
  902SOL     OW 2704   2.286   1.648   0.340  0.1177  0.5195 -0.4234
  902SOL    HW1 2705   2.364   1.586   0.343 -1.3576  2.9880  0.8382
  902SOL    HW2 2706   2.232   1.631   0.425 -0.4618 -0.4026 -1.4306
  903SOL     OW 2707   2.041   1.706   0.204  0.4496  0.1941 -0.0065
  903SOL    HW1 2708   2.138   1.698   0.234  1.6845  2.6863 -2.0027
  903SOL    HW2 2709   2.007   1.616   0.168 -0.7158 -0.0455 -1.0343
  904SOL     OW 2710   1.259   1.179   2.314 -0.5744  0.0242  0.0418
  904SOL    HW1 2711   1.329   1.211   2.247  1.7580  1.4217 -1.8476
  904SOL    HW2 2712   1.293   1.178   2.410 -1.4332 -0.2657  3.1480
  905SOL     OW 2713   2.623   0.154   0.914 -0.1769 -0.4834 -0.0438
  905SOL    HW1 2714   2.699   0.116   0.969  0.4014 -1.6340  2.4492
  905SOL    HW2 2715   2.585   0.237   0.960  0.3284  0.8488  1.5225
  906SOL     OW 2716   0.036   2.011   0.196 -0.2660 -0.3623  0.1370
  906SOL    HW1 2717   0.059   2.081   0.264 -0.6432 -3.1997 -1.0388
  906SOL    HW2 2718   0.102   1.937   0.218  0.6612 -0.7683  1.5079
  907SOL     OW 2719   1.603   0.208   0.059 -0.4855 -0.6141  0.2757
  907SOL    HW1 2720   1.541   0.129   0.067  0.4849 -2.3652  0.3654
  907SOL    HW2 2721   1.693   0.165   0.082 -1.8964 -1.1429  0.4507
  908SOL     OW 2722   1.698   2.756   1.696 -0.1031  0.0991 -0.2531
  908SOL    HW1 2723   1.747   2.684   1.753  2.5128 -1.7613  1.4058
  908SOL    HW2 2724   1.640   2.807   1.758  3.4364  0.1676 -1.4294
  909SOL     OW 2725   2.601   0.795   1.553 -0.0024  0.4188  0.0365
  909SOL    HW1 2726   2.581   0.693   1.546  0.8411 -1.8033 -1.5822
  909SOL    HW2 2727   2.668   0.809   1.629 -2.3385  1.0971 -0.7457
  910SOL     OW 2728   1.102   0.088   2.493 -0.4098 -0.0757  0.1251
  910SOL    HW1 2729   1.177   0.069   2.424  0.2675 -1.3066 -0.8384
  910SOL    HW2 2730   1.028   0.017   2.486 -0.4270  1.0696  0.0933
  911SOL     OW 2731   2.605   1.226   2.463 -0.0671 -0.6210  0.2631
  911SOL    HW1 2732   2.683   1.205   2.525 -3.0456 -1.9230  0.8996
  911SOL    HW2 2733   2.644   1.209   2.371  1.7160  2.1598 -0.3395
  912SOL     OW 2734   2.354   2.239   1.695 -0.5037 -0.6642 -0.1580
  912SOL    HW1 2735   2.396   2.322   1.650 -0.2658  2.3497  0.7336
  912SOL    HW2 2736   2.294   2.182   1.631  1.0627 -0.8827 -1.7820
  913SOL     OW 2737   2.516   2.405   1.541  0.0608 -0.4342  0.9382
  913SOL    HW1 2738   2.611   2.368   1.549 -0.6803 -2.4823 -2.0562
  913SOL    HW2 2739   2.509   2.471   1.461  0.0859 -0.4118 -0.1812
  914SOL     OW 2740   2.261   2.081   1.486 -0.1566  0.2888  0.1807
  914SOL    HW1 2741   2.287   1.988   1.518  0.9127 -0.5407  0.7074
  914SOL    HW2 2742   2.233   2.079   1.388  0.6333 -0.6357  0.2558
  915SOL     OW 2743   1.138   2.515   1.510  0.0137 -0.1232 -0.0847
  915SOL    HW1 2744   1.052   2.463   1.523 -1.4703  2.3430 -1.5215
  915SOL    HW2 2745   1.219   2.468   1.552  0.6841 -2.0347  0.3467
  916SOL     OW 2746   2.792   2.443   1.077 -0.4712  0.3356 -0.3831
  916SOL    HW1 2747   2.792   2.532   1.127  0.7676  2.1082 -0.4833
  916SOL    HW2 2748   2.695   2.419   1.046 -0.7191 -1.5525 -1.7586
  917SOL     OW 2749   2.969   1.105   2.875 -0.5892 -0.0593 -0.2719
  917SOL    HW1 2750   3.040   1.045   2.828  1.0355 -0.5987 -3.2443
  917SOL    HW2 2751   2.955   1.190   2.822  0.7756  0.7935 -2.1534
  918SOL     OW 2752   1.844   1.761   2.627 -0.2444  0.1439 -0.3940
  918SOL    HW1 2753   1.914   1.704   2.578  0.3417 -0.1012 -2.1890
  918SOL    HW2 2754   1.753   1.748   2.583  3.4514  2.4609 -1.8170
  919SOL     OW 2755   1.454   2.135   1.472 -0.2265  0.0496 -0.4612
  919SOL    HW1 2756   1.476   2.068   1.546  0.8944  0.4189  0.6329
  919SOL    HW2 2757   1.527   2.150   1.402 -1.6051  2.1681  1.2563
  920SOL     OW 2758   0.549   0.081   3.036  0.1234 -0.6295 -0.3645
  920SOL    HW1 2759   0.583   0.001   3.087  0.5501 -0.1925 -0.2079
  920SOL    HW2 2760   0.452   0.101   3.071 -3.1929  0.1879  0.4214
  921SOL     OW 2761   2.658   0.024   2.661 -0.2370 -0.2313 -0.8970
  921SOL    HW1 2762   2.676   3.112   2.568  1.5122  0.2213 -2.4321
  921SOL    HW2 2763   2.747   0.021   2.717  2.6825 -1.4058 -1.7078
  922SOL     OW 2764   2.365   1.843   1.568 -0.4892  0.2012  0.3396
  922SOL    HW1 2765   2.454   1.860   1.615  1.6478  1.6966 -2.1120
  922SOL    HW2 2766   2.298   1.808   1.635 -0.4193 -0.5078  0.6934
  923SOL     OW 2767   1.014   2.087   3.113 -0.5445  0.2116 -0.0070
  923SOL    HW1 2768   1.005   2.092   0.080  0.5682  0.7874  2.2324
  923SOL    HW2 2769   1.105   2.127   3.090 -1.1839  0.2058 -1.2593
  924SOL     OW 2770   1.712   0.755   2.725 -0.2054  0.1287 -0.0119
  924SOL    HW1 2771   1.669   0.702   2.797  0.8159  1.3912 -3.4245
  924SOL    HW2 2772   1.727   0.695   2.639 -0.1071 -1.6549 -0.6666
  925SOL     OW 2773   2.834   0.786   0.429 -0.0531 -0.3887  0.5261
  925SOL    HW1 2774   2.762   0.775   0.357 -0.8241 -0.6731  2.0794
  925SOL    HW2 2775   2.801   0.739   0.511 -1.2126  0.3206 -1.8536
  926SOL     OW 2776   0.238   0.352   0.753 -0.4115  0.5812 -0.4157
  926SOL    HW1 2777   0.335   0.321   0.759 -1.6491  1.4139 -0.7784
  926SOL    HW2 2778   0.215   0.429   0.818 -1.9032  1.3435  2.0130
  927SOL     OW 2779   1.060   1.294   0.723  0.3406  0.2657  0.6246
  927SOL    HW1 2780   1.099   1.244   0.642  2.1639 -0.6676  0.1811
  927SOL    HW2 2781   0.972   1.336   0.701 -0.6953 -1.1105 -0.5867
  928SOL     OW 2782   0.018   0.091   2.577 -0.6887 -0.3418 -0.1556
  928SOL    HW1 2783   0.085   0.021   2.578 -1.6049  3.1741 -2.6008
  928SOL    HW2 2784   0.055   0.174   2.530  1.1553 -1.0878 -0.3957
  929SOL     OW 2785   2.342   0.343   1.362  0.0303 -0.1013 -0.0008
  929SOL    HW1 2786   2.311   0.427   1.313 -1.3397  0.9637 -0.4258
  929SOL    HW2 2787   2.423   0.371   1.416 -0.5324  0.1069 -2.5818
  930SOL     OW 2788   1.691   2.176   1.314 -0.6707  0.5899  0.4455
  930SOL    HW1 2789   1.775   2.227   1.343  0.3110 -1.6990  0.5703
  930SOL    HW2 2790   1.709   2.089   1.264 -2.1474  1.1015  1.5012
  931SOL     OW 2791   1.738   0.827   0.864  0.2618  0.4110  0.2841
  931SOL    HW1 2792   1.749   0.881   0.775  1.0516 -2.9301 -2.3865
  931SOL    HW2 2793   1.769   0.867   0.951 -1.4636 -0.0391  1.0424
  932SOL     OW 2794   0.008   0.983   1.294 -0.1797 -0.1689  0.1278
  932SOL    HW1 2795   3.107   0.996   1.388 -1.9318 -2.2348 -1.4390
  932SOL    HW2 2796   0.074   0.906   1.293  3.5411 -0.8414  0.2942
  933SOL     OW 2797   2.502   1.737   1.834  0.4310  0.1727 -0.2765
  933SOL    HW1 2798   2.572   1.768   1.767 -1.9938  0.1582  0.4427
  933SOL    HW2 2799   2.424   1.805   1.842 -1.7468 -0.1028  0.7901
  934SOL     OW 2800   1.707   3.117   1.240  0.4847 -0.0238  0.5324
  934SOL    HW1 2801   1.617   3.094   1.281 -0.5912  3.0843 -1.0757
  934SOL    HW2 2802   1.701   3.114   1.138 -0.3454 -0.2403 -0.3249
  935SOL     OW 2803   3.095   1.083   1.063 -0.3409 -0.2986  0.0586
  935SOL    HW1 2804   3.095   1.037   1.153 -2.9140  1.7017  1.9443
  935SOL    HW2 2805   0.051   1.090   1.025 -4.5194 -2.3535  1.3408
  936SOL     OW 2806   2.830   1.064   1.077  0.1060 -0.7269  0.0712
  936SOL    HW1 2807   2.931   1.060   1.104  1.8389 -0.7942  0.3726
  936SOL    HW2 2808   2.826   1.061   0.975  0.3409 -1.0234 -0.7243
  937SOL     OW 2809   1.351   3.029   0.706  0.5343  0.2450 -0.1015
  937SOL    HW1 2810   1.384   3.042   0.611 -1.3983 -0.7165 -2.3398
  937SOL    HW2 2811   1.403   2.951   0.756  2.0068  0.9529  2.3515
  938SOL     OW 2812   2.955   2.375   0.686 -0.0624 -0.2079  0.0356
  938SOL    HW1 2813   2.872   2.320   0.709 -1.0135  1.5437  0.1273
  938SOL    HW2 2814   2.983   2.439   0.759 -1.6222  0.4026 -1.0184
  939SOL     OW 2815   0.927   1.879   2.765 -0.9162  0.3480  0.2186
  939SOL    HW1 2816   0.886   1.959   2.806  1.5134 -2.8178 -0.6680
  939SOL    HW2 2817   0.875   1.801   2.796  1.9584  1.1155 -1.4194
  940SOL     OW 2818   2.826   2.657   2.750  0.2475  0.0675  0.3370
  940SOL    HW1 2819   2.836   2.606   2.663  0.6412 -0.6824 -1.1680
  940SOL    HW2 2820   2.777   2.749   2.739 -1.3597  0.2697  2.1434
  941SOL     OW 2821   1.143   2.743   3.089  0.0800 -0.8042 -0.0420
  941SOL    HW1 2822   1.129   2.807   0.037 -0.3321 -1.6930  2.7252
  941SOL    HW2 2823   1.241   2.713   3.081 -1.9624  0.7176  0.6830
  942SOL     OW 2824   1.682   1.786   1.478 -0.9192 -0.2277 -0.2248
  942SOL    HW1 2825   1.647   1.690   1.475  2.5198 -2.5698  0.9236
  942SOL    HW2 2826   1.618   1.853   1.528 -0.2223  1.6478  2.0928
  943SOL     OW 2827   2.242   1.433   1.621 -0.6131  0.3844 -0.2988
  943SOL    HW1 2828   2.291   1.392   1.544  0.9244  3.1173 -2.9540
  943SOL    HW2 2829   2.309   1.464   1.693  0.2196 -0.6944  0.2375
  944SOL     OW 2830   2.024   1.094   1.960  0.2133  0.4950 -0.1280
  944SOL    HW1 2831   2.059   1.147   1.881 -0.5395  1.9450  0.2500
  944SOL    HW2 2832   2.052   1.138   2.048 -1.5502  0.1389 -0.0523
  945SOL     OW 2833   2.780   3.097   1.230  0.1098 -0.0165 -0.1894
  945SOL    HW1 2834   2.764   3.018   1.169  0.4046  0.8657  1.7080
  945SOL    HW2 2835   2.847   3.071   1.299  0.3099  0.9681 -2.0313
  946SOL     OW 2836   0.726   1.114   1.786  0.2676 -0.1859 -0.4358
  946SOL    HW1 2837   0.806   1.116   1.725  2.1415 -0.8077 -0.7764
  946SOL    HW2 2838   0.752   1.040   1.855  1.2641 -1.9821 -0.2869
  947SOL     OW 2839   0.503   2.674   0.804  0.3666  0.1051  0.2651
  947SOL    HW1 2840   0.469   2.679   0.895  0.3348 -0.0550 -2.9529
  947SOL    HW2 2841   0.503   2.573   0.777 -0.2555  1.8858 -1.4399
  948SOL     OW 2842   0.002   1.293   1.838  0.1941  0.4476  0.0959
  948SOL    HW1 2843   0.041   1.252   1.922 -0.0149  2.8535  3.0132
  948SOL    HW2 2844   0.038   1.388   1.836 -2.2133  1.2135  0.2571
  949SOL     OW 2845   0.523   0.651   2.302 -0.0826  0.5473  0.1815
  949SOL    HW1 2846   0.558   0.698   2.388 -2.9624  0.0380  0.5463
  949SOL    HW2 2847   0.549   0.551   2.296  1.5293  1.4269 -0.1917
  950SOL     OW 2848   0.779   0.612   0.892  0.1785 -0.3454 -0.2086
  950SOL    HW1 2849   0.702   0.656   0.847  0.8009 -0.1867  0.1662
  950SOL    HW2 2850   0.870   0.625   0.838  3.0126 -1.1360 -2.9685
  951SOL     OW 2851   1.185   1.770   1.959 -0.5157  0.2159  0.2842
  951SOL    HW1 2852   1.214   1.788   2.057  2.1444  1.8265 -1.6826
  951SOL    HW2 2853   1.112   1.700   1.949  0.9855  0.0181 -3.5481
  952SOL     OW 2854   1.004   1.348   3.127  0.2127 -0.4221  0.5375
  952SOL    HW1 2855   1.071   1.360   0.066  0.1054 -2.0948 -0.6056
  952SOL    HW2 2856   1.052   1.317   3.040  1.0934 -0.3767  2.8789
  953SOL     OW 2857   1.260   2.837   2.143 -0.2370 -0.1781  0.1962
  953SOL    HW1 2858   1.195   2.774   2.187  0.0725  1.0504 -1.0689
  953SOL    HW2 2859   1.277   2.826   2.042  0.3744  0.5564 -0.9675
  954SOL     OW 2860   2.345   1.210   0.471 -0.2576 -0.2107 -0.0074
  954SOL    HW1 2861   2.348   1.176   0.374  1.4271  0.7138  0.5079
  954SOL    HW2 2862   2.382   1.307   0.483  1.5708  1.8318 -0.9776
  955SOL     OW 2863   0.180   2.164   2.569 -0.1028  0.4774 -0.9310
  955SOL    HW1 2864   0.159   2.255   2.529 -0.7648 -3.4737 -1.6670
  955SOL    HW2 2865   0.109   2.141   2.641 -1.2987  2.1636 -0.3389
  956SOL     OW 2866   1.004   1.309   1.424 -0.4381 -0.3546 -0.0184
  956SOL    HW1 2867   1.089   1.267   1.400 -4.1752 -1.3917 -0.1670
  956SOL    HW2 2868   0.965   1.356   1.340 -1.8964  0.9094  0.9813
  957SOL     OW 2869   2.087   1.259   2.588 -0.6539 -0.2080 -0.4936
  957SOL    HW1 2870   2.051   1.252   2.681  0.0288  2.7105 -1.1072
  957SOL    HW2 2871   2.187   1.301   2.578  3.3406  2.5973 -0.6351
  958SOL     OW 2872   1.537   2.727   1.084 -0.6524  0.1523  0.2951
  958SOL    HW1 2873   1.604   2.650   1.084 -0.4880 -0.7067 -2.2643
  958SOL    HW2 2874   1.493   2.745   1.176 -0.6752 -1.0242  0.8752
  959SOL     OW 2875   1.817   1.762   2.289 -0.7981 -0.3650 -0.0412
  959SOL    HW1 2876   1.830   1.663   2.266 -3.3251 -0.9119 -2.0490
  959SOL    HW2 2877   1.740   1.780   2.353 -0.5736  1.9555  0.7770
  960SOL     OW 2878   3.122   0.557   2.772  0.4509  0.3794 -0.3970
  960SOL    HW1 2879   0.064   0.621   2.784 -2.3225  0.6562 -1.0556
  960SOL    HW2 2880   3.125   0.482   2.842 -0.8003 -1.1493 -0.8442
  961SOL     OW 2881   0.643   0.711   2.034  0.2939  0.1386 -0.3274
  961SOL    HW1 2882   0.636   0.692   2.133  1.7131  1.7082 -0.4103
  961SOL    HW2 2883   0.558   0.749   1.993 -0.2145 -1.3216 -1.6488
  962SOL     OW 2884   1.332   1.610   0.342  0.0648 -0.1097 -0.0011
  962SOL    HW1 2885   1.305   1.610   0.244 -0.9076 -0.8091  2.1180
  962SOL    HW2 2886   1.354   1.513   0.375  2.4521 -1.3776 -0.1416
  963SOL     OW 2887   1.757   2.402   3.072 -0.1465 -0.3343  0.2377
  963SOL    HW1 2888   1.844   2.350   3.060 -1.2188 -1.3946 -0.9098
  963SOL    HW2 2889   1.693   2.364   2.999 -0.1893  0.0977 -1.0318
  964SOL     OW 2890   1.137   2.655   0.580 -0.0616  0.0582  0.0248
  964SOL    HW1 2891   1.193   2.690   0.500  4.3930  2.5958  1.2607
  964SOL    HW2 2892   1.080   2.734   0.621 -0.5550  2.1299 -0.8134
  965SOL     OW 2893   0.954   2.834   0.744 -0.1346 -0.1195 -0.0349
  965SOL    HW1 2894   0.866   2.845   0.692  0.8874 -0.1076 -1.7873
  965SOL    HW2 2895   0.929   2.790   0.832  2.3478  1.9893  1.0928
  966SOL     OW 2896   0.041   1.497   2.973  0.0636 -0.3683  0.2702
  966SOL    HW1 2897   0.100   1.427   3.013 -2.0351  3.1012 -3.1402
  966SOL    HW2 2898   3.079   1.481   3.000  3.3936  0.3520  0.6237
  967SOL     OW 2899   1.329   2.736   1.873 -0.2482 -0.3514  0.5983
  967SOL    HW1 2900   1.323   2.637   1.907 -0.1269 -2.7716  0.3734
  967SOL    HW2 2901   1.257   2.744   1.802  1.2207 -0.3786  0.5163
  968SOL     OW 2902   1.765   0.924   0.598  0.3243 -0.3471  0.0621
  968SOL    HW1 2903   1.784   0.866   0.519 -2.1056 -4.0883 -0.1247
  968SOL    HW2 2904   1.696   0.998   0.569 -2.1600  2.4968  0.4969
  969SOL     OW 2905   0.129   1.790   2.204 -0.0871 -0.3282 -0.8215
  969SOL    HW1 2906   0.108   1.776   2.104  1.8054  0.2362  3.4530
  969SOL    HW2 2907   0.184   1.875   2.215  1.0820  0.8664  0.9450
  970SOL     OW 2908   2.723   1.693   1.447 -0.5624 -0.1567  0.1148
  970SOL    HW1 2909   2.717   1.703   1.343  1.9694  0.9870 -2.6259
  970SOL    HW2 2910   2.821   1.686   1.478  0.3376 -1.5556  0.3562
  971SOL     OW 2911   1.293   0.445   1.537  0.5646  0.1485  0.2248
  971SOL    HW1 2912   1.200   0.405   1.523  1.1480 -1.0968 -0.0289
  971SOL    HW2 2913   1.360   0.376   1.571 -3.3422  0.8432 -0.3572
  972SOL     OW 2914   0.567   0.016   2.627  0.1605 -0.2435  0.3677
  972SOL    HW1 2915   0.517   3.068   2.649  2.8172 -0.8357 -1.5814
  972SOL    HW2 2916   0.511   0.107   2.638 -1.3998  2.5769 -0.9466
  973SOL     OW 2917   2.783   1.082   0.422 -0.0600 -0.0864 -0.5478
  973SOL    HW1 2918   2.846   1.007   0.462  1.1304 -0.5430 -1.9756
  973SOL    HW2 2919   2.688   1.048   0.396  1.6940 -0.8585 -0.3091
  974SOL     OW 2920   2.068   1.220   2.191 -0.4684 -0.4353 -0.0713
  974SOL    HW1 2921   2.003   1.278   2.242  1.6105 -0.6712  1.5910
  974SOL    HW2 2922   2.157   1.268   2.171  0.6672 -1.0635  2.0887
  975SOL     OW 2923   2.997   2.840   0.702  0.6623 -0.0220 -0.2147
  975SOL    HW1 2924   3.078   2.779   0.731  0.6386 -0.0495 -2.1309
  975SOL    HW2 2925   2.914   2.810   0.761 -2.0760  0.1572 -0.4107
  976SOL     OW 2926   0.011   1.781   1.956  0.3198  0.1589 -0.0347
  976SOL    HW1 2927   0.021   1.867   1.905  0.8156 -2.2941 -1.2249
  976SOL    HW2 2928   3.047   1.757   1.956 -0.7422 -1.3307  1.0818
  977SOL     OW 2929   0.884   2.552   0.156 -0.3356  0.1144 -0.8291
  977SOL    HW1 2930   0.822   2.475   0.173 -2.0279  1.0005 -0.3551
  977SOL    HW2 2931   0.981   2.543   0.185  0.0321  0.0702 -1.8305
  978SOL     OW 2932   0.803   2.111   2.926 -0.2473 -0.0759 -0.2571
  978SOL    HW1 2933   0.872   2.093   2.995 -3.2566 -0.7164  0.0701
  978SOL    HW2 2934   0.753   2.193   2.955  1.1179  0.6910 -0.8963
  979SOL     OW 2935   1.138   2.265   1.128  0.2672 -0.1945  0.1611
  979SOL    HW1 2936   1.223   2.231   1.081 -2.5601  1.2074  1.3546
  979SOL    HW2 2937   1.056   2.259   1.069 -1.0636 -1.1999  2.1935
  980SOL     OW 2938   0.378   1.640   2.625  0.8166  0.0487  0.4530
  980SOL    HW1 2939   0.331   1.663   2.529  0.9347 -0.5255 -4.0095
  980SOL    HW2 2940   0.315   1.594   2.688  0.5617  0.1828 -0.0762
  981SOL     OW 2941   2.731   0.459   2.834  0.2754  0.1446 -0.0412
  981SOL    HW1 2942   2.747   0.454   2.733  0.0785 -1.8883 -0.5305
  981SOL    HW2 2943   2.751   0.373   2.881  1.6561  0.6122 -0.4787
  982SOL     OW 2944   2.983   2.817   2.906 -0.0388  0.4069  0.0449
  982SOL    HW1 2945   3.078   2.830   2.876 -1.4526  2.2459  1.4864
  982SOL    HW2 2946   2.936   2.758   2.835  3.2320 -1.1550 -0.5465
  983SOL     OW 2947   2.245   0.794   1.689  0.0579  0.0810  0.1421
  983SOL    HW1 2948   2.288   0.890   1.703 -0.2436  1.8837 -0.8873
  983SOL    HW2 2949   2.302   0.717   1.723  0.6792  1.5083 -1.4914
  984SOL     OW 2950   1.040   0.293   2.306 -0.4303 -0.1066 -0.5684
  984SOL    HW1 2951   1.112   0.361   2.274  0.4305  2.8985 -0.5942
  984SOL    HW2 2952   1.076   0.221   2.368  0.9813 -0.2906  1.6097
  985SOL     OW 2953   1.472   2.083   2.219 -0.1946  0.1286 -0.0065
  985SOL    HW1 2954   1.547   2.014   2.199  1.5739  0.3306 -0.7203
  985SOL    HW2 2955   1.513   2.179   2.216 -0.4483 -2.0539  0.0558
  986SOL     OW 2956   1.920   0.684   2.185 -0.5144 -0.6793  0.1473
  986SOL    HW1 2957   1.964   0.731   2.269 -1.4815  0.9091 -0.3458
  986SOL    HW2 2958   1.944   0.589   2.177 -2.1150  1.0975  1.4532
  987SOL     OW 2959   2.327   0.709   2.331 -0.6371  0.5114  0.2117
  987SOL    HW1 2960   2.258   0.765   2.387 -3.0423  0.0615  0.3221
  987SOL    HW2 2961   2.289   0.614   2.331 -0.4541  0.0685 -0.2531
  988SOL     OW 2962   2.421   0.391   2.899  0.0111  0.0972 -0.6905
  988SOL    HW1 2963   2.520   0.383   2.894  2.8191  0.1163 -0.9245
  988SOL    HW2 2964   2.383   0.467   2.841  1.8415  3.1473 -0.1468
  989SOL     OW 2965   2.553   2.318   2.792 -0.0900  0.0768  0.1359
  989SOL    HW1 2966   2.648   2.319   2.822 -0.4967 -2.1886 -1.2583
  989SOL    HW2 2967   2.558   2.271   2.700 -0.2244 -0.5435 -0.3690
  990SOL     OW 2968   0.198   0.307   0.207 -0.4427 -0.1654 -0.5178
  990SOL    HW1 2969   0.244   0.254   0.282 -0.1336 -0.9685  0.6061
  990SOL    HW2 2970   0.113   0.351   0.245  2.4845  0.7773  1.9160
  991SOL     OW 2971   0.548   0.544   2.966  0.1234 -0.4604 -0.1141
  991SOL    HW1 2972   0.584   0.452   2.930  1.0764  0.9611 -1.1443
  991SOL    HW2 2973   0.552   0.543   3.071 -0.6368 -0.3754  2.3439
  992SOL     OW 2974   3.082   2.072   2.196  0.7879 -0.4293  0.0123
  992SOL    HW1 2975   3.044   1.999   2.263 -2.0707 -2.6182  2.6039
  992SOL    HW2 2976   0.040   2.073   2.226 -1.0952 -0.3415  0.5360
  993SOL     OW 2977   0.652   3.082   0.667  0.3957  0.3801  0.1671
  993SOL    HW1 2978   0.561   3.069   0.627  2.0251 -1.0935 -1.9820
  993SOL    HW2 2979   0.710   0.023   0.633  0.4290 -1.4328  0.8359
  994SOL     OW 2980   0.103   2.229   1.685 -0.2805 -0.4434  0.3103
  994SOL    HW1 2981   0.017   2.281   1.692 -1.0381 -3.2465 -1.1039
  994SOL    HW2 2982   0.172   2.278   1.628  3.0503  0.5897 -3.0769
  995SOL     OW 2983   2.261   1.454   3.007  0.1823 -0.2043  0.2482
  995SOL    HW1 2984   2.270   1.380   2.938 -2.1061  0.5661  0.4635
  995SOL    HW2 2985   2.214   1.532   2.965  1.7730 -1.1201  1.3266
  996SOL     OW 2986   1.794   1.477   2.764 -0.4365  0.1296  0.1255
  996SOL    HW1 2987   1.730   1.552   2.783  0.7808 -0.7602 -0.7957
  996SOL    HW2 2988   1.864   1.520   2.707 -1.4744  2.1309 -2.5747
  997SOL     OW 2989   1.922   1.416   1.966  0.2968  0.4437 -0.2976
  997SOL    HW1 2990   1.984   1.338   1.941  0.9471  0.7424 -0.5724
  997SOL    HW2 2991   1.822   1.398   1.965  1.1653  0.0890  0.7177
  998SOL     OW 2992   2.642   1.773   0.512 -0.1972  0.3620 -0.2314
  998SOL    HW1 2993   2.575   1.751   0.585 -0.2308 -1.2700  1.2873
  998SOL    HW2 2994   2.584   1.788   0.426 -0.4739  1.3969 -0.7606
  999SOL     OW 2995   2.490   2.628   0.484 -0.3445  0.4315  0.2508
  999SOL    HW1 2996   2.474   2.720   0.436  0.0783  0.5182 -0.6780
  999SOL    HW2 2997   2.427   2.552   0.448 -0.7906 -0.8295 -1.8768
 1000SOL     OW 2998   0.673   2.691   2.588  0.7496 -0.3144 -0.1795
 1000SOL    HW1 2999   0.679   2.708   2.488 -4.6943  0.9805 -1.3234
 1000SOL    HW2 3000   0.762   2.651   2.620  0.6638 -0.6127  2.8134
   3.13567   3.13567   3.13567
