1000 SPC/Fw water molecules t= 464.00000 step= 464000
 3000
    1SOL     OW    1   2.911   2.925   1.577 -0.3316 -0.0734  0.1857
    1SOL    HW1    2   2.912   2.987   1.494 -1.1742  1.9655 -0.4579
    1SOL    HW2    3   2.819   2.906   1.620 -0.6742  0.9053  1.8805
    2SOL     OW    4   2.749   3.025   0.012 -0.1263  0.0033  0.4801
    2SOL    HW1    5   2.763   3.023   0.112 -0.8243  0.2874 -1.9960
    2SOL    HW2    6   2.828   2.978   3.024  0.3305 -0.6489 -1.1004
    3SOL     OW    7   1.176   2.486   0.265 -0.0617  0.7554 -0.2168
    3SOL    HW1    8   1.116   2.442   0.335  1.8979  1.4255 -2.3889
    3SOL    HW2    9   1.273   2.453   0.289 -0.8696  2.0309 -0.7004
    4SOL     OW   10   1.400   2.516   2.428 -0.5866  0.0666 -0.0202
    4SOL    HW1   11   1.404   2.602   2.480  0.1587  0.9801 -0.1026
    4SOL    HW2   12   1.369   2.441   2.488 -0.5119  3.0432 -0.5924
    5SOL     OW   13   2.154   0.310   2.260  0.0788  0.1361 -0.3580
    5SOL    HW1   14   2.171   0.288   2.160 -0.3635  2.4443 -0.8551
    5SOL    HW2   15   2.058   0.338   2.274 -0.6810  0.5795  1.0967
    6SOL     OW   16   2.742   1.704   1.256  0.4667  0.0930 -0.4954
    6SOL    HW1   17   2.794   1.641   1.193 -0.5802  0.2438  2.2275
    6SOL    HW2   18   2.639   1.704   1.238  3.0045 -0.5057 -0.1798
    7SOL     OW   19   1.174   1.995   0.463 -0.3976  0.1047  0.0435
    7SOL    HW1   20   1.115   1.996   0.548  1.2477  0.7687  2.2162
    7SOL    HW2   21   1.149   1.915   0.405 -4.7409  0.5696 -3.2162
    8SOL     OW   22   0.403   0.703   0.319 -0.2204  0.5723  0.3443
    8SOL    HW1   23   0.453   0.642   0.254 -0.5509 -1.3461  0.9682
    8SOL    HW2   24   0.303   0.682   0.312 -1.0219 -0.6714 -0.6974
    9SOL     OW   25   0.213   2.938   1.608  0.1624 -0.3782  0.5953
    9SOL    HW1   26   0.293   2.889   1.562  2.0357  3.2307 -0.8712
    9SOL    HW2   27   0.139   2.874   1.640 -0.3787 -0.5266  1.3426
   10SOL     OW   28   1.135   2.270   0.441  0.0406  0.4273  0.1189
   10SOL    HW1   29   1.148   2.169   0.457  1.2093 -1.3142  1.1136
   10SOL    HW2   30   1.197   2.322   0.503 -0.7324  2.8587  1.9559
   11SOL     OW   31   2.198   0.845   1.340  0.2180  0.3439 -0.3399
   11SOL    HW1   32   2.210   0.766   1.282  1.1643  2.8496  1.1377
   11SOL    HW2   33   2.130   0.827   1.413 -1.1683  2.0945 -2.1055
   12SOL     OW   34   0.268   0.781   2.118  0.3740 -0.5175 -0.2033
   12SOL    HW1   35   0.302   0.875   2.091  0.2594  0.1790  1.7792
   12SOL    HW2   36   0.302   0.761   2.209  0.9469 -0.4413 -1.8677
   13SOL     OW   37   1.934   0.069   0.265  0.5745  0.5313 -0.5382
   13SOL    HW1   38   2.001   0.072   0.340 -2.2960 -0.2833  0.8370
   13SOL    HW2   39   1.852   0.123   0.291  0.6867 -0.3548 -0.6272
   14SOL     OW   40   1.848   2.072   0.146 -0.5371  0.0004  0.6052
   14SOL    HW1   41   1.829   2.105   0.054  0.2225 -1.4519 -2.0076
   14SOL    HW2   42   1.880   1.979   0.139  1.2986  0.7485  0.5349
   15SOL     OW   43   0.085   2.885   2.780 -0.1012 -0.1690  0.5400
   15SOL    HW1   44   0.073   2.978   2.733  0.0136 -3.2190 -0.5116
   15SOL    HW2   45   0.168   2.896   2.839 -1.2699 -0.4516 -0.9854
   16SOL     OW   46   2.976   0.631   1.173 -0.8834 -0.2098 -0.1447
   16SOL    HW1   47   3.003   0.584   1.085 -0.1256 -2.9640 -1.1812
   16SOL    HW2   48   2.893   0.588   1.211  1.0709  0.9520  1.5524
   17SOL     OW   49   0.687   0.274   0.785 -0.1414  0.0415  0.0885
   17SOL    HW1   50   0.667   0.250   0.884 -2.0378  3.6293 -2.0580
   17SOL    HW2   51   0.766   0.222   0.753 -2.8627 -0.1337 -0.0600
   18SOL     OW   52   2.943   0.083   0.498  0.5357 -0.3268 -0.1956
   18SOL    HW1   53   2.853   0.027   0.506 -2.1160 -0.2961  1.4452
   18SOL    HW2   54   2.963   0.126   0.585 -0.2399 -1.8134  1.1718
   19SOL     OW   55   1.671   1.228   1.318 -0.0036  0.5871 -0.3408
   19SOL    HW1   56   1.640   1.247   1.221  3.3807 -2.6706 -0.1484
   19SOL    HW2   57   1.746   1.289   1.348 -0.3257 -1.0231 -1.1402
   20SOL     OW   58   2.339   1.911   2.492 -0.2157 -0.3630  0.2779
   20SOL    HW1   59   2.303   1.942   2.582  1.3853  0.4531  0.4632
   20SOL    HW2   60   2.436   1.873   2.493  1.5300 -0.2046 -3.2803
   21SOL     OW   61   1.517   2.896   0.238 -0.6577 -0.1811  0.2671
   21SOL    HW1   62   1.548   2.816   0.190  1.0669  3.2316  0.1867
   21SOL    HW2   63   1.431   2.934   0.211  2.9091  2.1745  1.3840
   22SOL     OW   64   2.463   0.848   0.219  0.0993  0.1077 -0.5467
   22SOL    HW1   65   2.498   0.932   0.172 -0.7969 -0.7534  1.8287
   22SOL    HW2   66   2.517   0.825   0.304 -0.9983 -1.9567  2.4984
   23SOL     OW   67   0.973   0.471   2.096  0.0374 -0.3115 -0.4305
   23SOL    HW1   68   0.988   0.376   2.060 -0.8568 -0.0832 -1.7310
   23SOL    HW2   69   1.062   0.515   2.121  1.2980 -0.1700  1.2861
   24SOL     OW   70   1.919   2.278   0.902  0.1797 -0.4046 -0.1106
   24SOL    HW1   71   2.022   2.303   0.896  0.1756  1.3580  2.8009
   24SOL    HW2   72   1.865   2.338   0.842  2.8029  1.4073  2.3856
   25SOL     OW   73   1.569   3.062   2.920 -0.4594  0.0490 -0.8363
   25SOL    HW1   74   1.652   3.006   2.950  5.2367 -0.1319 -0.4885
   25SOL    HW2   75   1.604   0.080   2.873  2.9087  1.0831 -0.6666
   26SOL     OW   76   1.184   2.844   2.531  0.1061  0.1431 -0.0372
   26SOL    HW1   77   1.285   2.826   2.536  0.3288  0.9023  0.0685
   26SOL    HW2   78   1.132   2.759   2.518 -0.0293  0.0386 -0.6107
   27SOL     OW   79   1.090   0.545   0.973  0.1030  0.1325  0.9350
   27SOL    HW1   80   1.003   0.529   0.919 -1.9737  1.1694 -0.1443
   27SOL    HW2   81   1.087   0.512   1.072  2.3308  0.8222  2.9622
   28SOL     OW   82   0.137   1.858   1.029  0.4371 -0.7115 -0.3120
   28SOL    HW1   83   0.238   1.875   1.053  1.4254  0.8595 -0.9318
   28SOL    HW2   84   0.080   1.831   1.108 -1.5988  0.8668  0.3619
   29SOL     OW   85   2.279   1.103   1.254 -0.2937  0.5105 -0.3235
   29SOL    HW1   86   2.292   1.012   1.299  0.2827 -1.1563 -0.8294
   29SOL    HW2   87   2.303   1.173   1.328 -0.0694 -0.3614  1.7765
   30SOL     OW   88   1.671   2.989   1.394 -0.2690  0.5723  0.1880
   30SOL    HW1   89   1.661   2.904   1.342  1.4618 -0.9415  0.3223
   30SOL    HW2   90   1.611   3.060   1.357  0.5823 -0.1431  2.7951
   31SOL     OW   91   1.246   2.961   1.243  0.7066 -0.1545 -0.0774
   31SOL    HW1   92   1.257   2.938   1.147 -0.8896 -0.0731  0.6633
   31SOL    HW2   93   1.276   2.882   1.301  0.6551 -1.2439 -0.7621
   32SOL     OW   94   2.122   1.491   1.865 -0.8410  0.3108 -0.4695
   32SOL    HW1   95   2.153   1.497   1.770 -0.9067 -0.8720  3.2221
   32SOL    HW2   96   2.128   1.398   1.903  0.2443  1.0749 -0.7422
   33SOL     OW   97   2.209   3.006   2.602  0.1531 -0.7228  0.1569
   33SOL    HW1   98   2.113   2.971   2.592 -2.1239  0.5629 -0.7179
   33SOL    HW2   99   2.241   3.062   2.520  1.4830  1.1468 -1.7079
   34SOL     OW  100   2.185   0.881   0.228  0.0444  0.2076  0.4378
   34SOL    HW1  101   2.282   0.874   0.231 -4.2066  0.5762  0.2492
   34SOL    HW2  102   2.139   0.798   0.194  1.4312 -0.7241 -0.4503
   35SOL     OW  103   0.115   1.521   1.764  0.2548 -0.5505 -0.0268
   35SOL    HW1  104   0.092   1.495   1.857  2.6664 -2.0010 -3.7733
   35SOL    HW2  105   0.033   1.545   1.703 -0.0791  4.6132 -2.1335
   36SOL     OW  106   2.673   2.516   3.049 -0.1841 -0.0847  0.1652
   36SOL    HW1  107   2.594   2.518   0.046 -0.3808 -1.5831 -1.5545
   36SOL    HW2  108   2.643   2.468   2.966 -0.1587  0.8160  2.4055
   37SOL     OW  109   1.679   2.779   1.905  0.4013  0.8483 -0.0990
   37SOL    HW1  110   1.753   2.767   1.974  1.9726  0.6817 -1.4215
   37SOL    HW2  111   1.594   2.815   1.949  0.5115  2.4899  0.7783
   38SOL     OW  112   0.764   1.195   2.423  0.1382 -0.0389  0.2292
   38SOL    HW1  113   0.838   1.138   2.460 -2.4049 -0.5460 -0.3294
   38SOL    HW2  114   0.679   1.145   2.404  0.9946  0.3517 -0.8816
   39SOL     OW  115   1.862   0.643   1.848 -0.3749  0.5153 -0.1255
   39SOL    HW1  116   1.790   0.672   1.911 -0.5360  0.9981 -2.4228
   39SOL    HW2  117   1.924   0.573   1.889 -0.8267  0.6709 -0.4991
   40SOL     OW  118   0.829   2.427   0.728  0.3738 -0.1655  0.3547
   40SOL    HW1  119   0.802   2.355   0.660  0.6556 -0.7589 -2.7863
   40SOL    HW2  120   0.889   2.385   0.799 -0.5257  0.1260  0.1854
   41SOL     OW  121   2.262   2.108   1.025  0.2746 -0.1591 -0.8555
   41SOL    HW1  122   2.245   2.189   0.965  0.4864  1.1688  0.6716
   41SOL    HW2  123   2.360   2.086   1.017  1.2115 -2.2492 -2.7539
   42SOL     OW  124   2.203   0.397   0.427  0.4331  0.3928 -0.3979
   42SOL    HW1  125   2.195   0.451   0.339 -0.1715 -1.0470 -0.5309
   42SOL    HW2  126   2.240   0.307   0.413 -1.4634  1.9593  2.1961
   43SOL     OW  127   0.603   1.438   2.440  0.2510  0.1469 -0.6196
   43SOL    HW1  128   0.519   1.407   2.495 -1.2748  1.5442  3.3014
   43SOL    HW2  129   0.675   1.365   2.437 -1.3221 -0.4104 -0.0658
   44SOL     OW  130   1.682   2.776   1.184 -0.2697  0.4786  0.5417
   44SOL    HW1  131   1.628   2.687   1.171 -2.0106 -0.4400  1.5833
   44SOL    HW2  132   1.786   2.763   1.177  2.7417 -2.1433 -2.4001
   45SOL     OW  133   0.593   2.180   2.684  0.6391 -0.3096 -0.0498
   45SOL    HW1  134   0.553   2.168   2.776 -0.4644 -0.0192 -1.5045
   45SOL    HW2  135   0.613   2.278   2.658 -1.7069  2.3153  1.4487
   46SOL     OW  136   0.770   2.637   2.177  0.4890  0.2425 -0.0280
   46SOL    HW1  137   0.806   2.603   2.084  1.4938 -0.2267 -3.3598
   46SOL    HW2  138   0.709   2.573   2.226 -0.2538  0.9586 -1.2797
   47SOL     OW  139   0.477   1.757   0.815  0.6913 -0.8055  0.2546
   47SOL    HW1  140   0.531   1.680   0.849 -2.9638 -0.8923 -2.6140
   47SOL    HW2  141   0.521   1.849   0.835 -1.8350  0.5501  1.9614
   48SOL     OW  142   0.628   2.747   1.342  0.2274  0.2235  0.3613
   48SOL    HW1  143   0.681   2.658   1.348  0.3342  1.8722  1.2210
   48SOL    HW2  144   0.691   2.826   1.339  3.3172 -0.7339  0.1268
   49SOL     OW  145   0.246   2.912   3.001 -0.2152 -0.4823  0.1999
   49SOL    HW1  146   0.310   2.973   3.050 -2.2893 -2.2394 -1.5542
   49SOL    HW2  147   0.282   2.820   3.008 -1.1967 -0.4117 -0.4712
   50SOL     OW  148   1.328   0.699   0.328 -0.9406  1.1431 -0.0120
   50SOL    HW1  149   1.232   0.724   0.352  2.5094 -1.7907 -0.9723
   50SOL    HW2  150   1.397   0.773   0.345 -0.3667 -1.4741  0.4926
   51SOL     OW  151   1.766   0.017   0.600  0.0134 -0.0978 -0.2014
   51SOL    HW1  152   1.742   0.039   0.504  2.0677 -2.2673 -3.1058
   51SOL    HW2  153   1.689   0.036   0.661 -1.6680 -1.0393 -1.0412
   52SOL     OW  154   0.284   1.482   1.090  0.1638 -0.0625  0.4725
   52SOL    HW1  155   0.334   1.413   1.031  0.9308 -3.2035 -0.7402
   52SOL    HW2  156   0.239   1.554   1.036  2.8029 -1.0219  1.8231
   53SOL     OW  157   0.075   0.958   2.900  0.9291  0.3989 -0.2643
   53SOL    HW1  158   3.063   0.972   2.963 -2.2958 -1.8950  0.2535
   53SOL    HW2  159   0.116   1.045   2.870  2.5725 -0.9807  0.5521
   54SOL     OW  160   2.876   2.294   3.025  0.3163 -0.2859 -0.4817
   54SOL    HW1  161   2.836   2.202   3.026 -0.0760 -0.3034  1.5201
   54SOL    HW2  162   2.806   2.366   3.026 -1.9544  0.1407 -2.3366
   55SOL     OW  163   2.505   2.136   1.267 -0.0432  0.2715  0.0162
   55SOL    HW1  164   2.521   2.237   1.271  1.2101 -0.7120  0.9354
   55SOL    HW2  165   2.438   2.101   1.337  0.1467  0.4486 -0.1452
   56SOL     OW  166   1.613   0.680   1.171  0.4671 -0.1696  0.1490
   56SOL    HW1  167   1.535   0.745   1.157  0.0978  4.2617 -1.1433
   56SOL    HW2  168   1.590   0.582   1.173  2.3555  1.6865 -1.3287
   57SOL     OW  169   1.812   1.610   1.019  0.3186 -0.2240 -0.6115
   57SOL    HW1  170   1.834   1.513   0.992 -0.5128  0.0892 -2.0292
   57SOL    HW2  171   1.872   1.640   1.096 -4.2630  0.4362 -0.5560
   58SOL     OW  172   2.524   0.194   2.119  0.1736 -0.2407 -0.2964
   58SOL    HW1  173   2.561   0.234   2.034  0.9753 -1.1966  0.3045
   58SOL    HW2  174   2.421   0.180   2.122  1.3011 -3.1027 -0.1382
   59SOL     OW  175   1.555   2.494   1.989  0.3238  0.0788  0.2994
   59SOL    HW1  176   1.465   2.449   1.970 -0.0222 -0.5977  1.2167
   59SOL    HW2  177   1.550   2.588   1.947  2.2545  1.6190 -0.9740
   60SOL     OW  178   1.137   2.002   2.904 -0.2764 -0.3575  0.2879
   60SOL    HW1  179   1.059   1.967   2.849  0.1381  0.0712  0.3027
   60SOL    HW2  180   1.140   1.959   2.996  2.4964 -0.5093 -1.5874
   61SOL     OW  181   0.511   2.036   0.423 -0.1471  0.2820 -0.3505
   61SOL    HW1  182   0.449   1.957   0.432  0.0004  0.1088 -1.9018
   61SOL    HW2  183   0.461   2.124   0.422 -2.2324 -0.0547 -0.4615
   62SOL     OW  184   1.363   1.661   1.492  0.7372  0.1460  0.4534
   62SOL    HW1  185   1.320   1.609   1.566 -1.5710  1.3485  1.0789
   62SOL    HW2  186   1.460   1.685   1.503  0.3835  0.7735  0.3217
   63SOL     OW  187   1.015   1.939   0.673  0.5621 -0.3019 -0.4523
   63SOL    HW1  188   0.912   1.938   0.665 -1.2197 -2.4482  0.9350
   63SOL    HW2  189   1.047   1.849   0.704 -1.4377  0.2932 -0.7821
   64SOL     OW  190   1.659   1.564   2.491  0.0944 -0.0897 -0.6527
   64SOL    HW1  191   1.728   1.489   2.468 -2.3364  0.9129 -1.8255
   64SOL    HW2  192   1.697   1.611   2.573  0.3769  0.7547 -1.1975
   65SOL     OW  193   1.610   1.735   1.544  0.4769 -0.0189  0.0601
   65SOL    HW1  194   1.689   1.711   1.483 -0.5332 -1.1124  0.3797
   65SOL    HW2  195   1.613   1.832   1.575 -1.3403  0.8525 -0.9569
   66SOL     OW  196   0.027   0.913   0.884  0.5251  0.4184 -0.0605
   66SOL    HW1  197   0.103   0.847   0.890 -1.1409 -0.0722  0.5153
   66SOL    HW2  198   3.003   0.868   0.863 -0.0793 -0.9501  2.4968
   67SOL     OW  199   2.194   2.364   0.883 -0.5554 -0.5956  0.3917
   67SOL    HW1  200   2.251   2.422   0.942 -0.3866 -0.8150 -3.1288
   67SOL    HW2  201   2.205   2.390   0.786 -3.5094  1.3376  1.3127
   68SOL     OW  202   2.435   2.650   1.676 -0.0516 -0.0381 -0.0333
   68SOL    HW1  203   2.368   2.667   1.602 -2.1148 -0.6708 -1.7741
   68SOL    HW2  204   2.393   2.631   1.768  1.3876 -1.1761 -1.6162
   69SOL     OW  205   2.574   2.805   3.039  0.9358  0.3950  0.2216
   69SOL    HW1  206   2.626   2.727   3.006  1.7199 -2.9467 -0.3888
   69SOL    HW2  207   2.640   2.882   3.063  1.0819  2.6550 -0.6749
   70SOL     OW  208   0.657   1.500   2.731  0.3221  0.2935  0.4611
   70SOL    HW1  209   0.723   1.449   2.784  1.3597 -0.3830  1.2169
   70SOL    HW2  210   0.662   1.474   2.634 -0.6122  0.6322  0.6109
   71SOL     OW  211   0.803   1.498   1.986 -0.0107 -0.9377 -0.3659
   71SOL    HW1  212   0.801   1.415   1.925 -2.0934 -0.4088 -0.6152
   71SOL    HW2  213   0.733   1.566   1.964  1.6039  0.1068  0.8954
   72SOL     OW  214   2.838   1.252   1.619 -0.0477  0.6642 -0.4258
   72SOL    HW1  215   2.889   1.325   1.666 -0.9694  0.5665 -2.5169
   72SOL    HW2  216   2.821   1.271   1.520 -2.8309 -0.3872  0.2374
   73SOL     OW  217   0.915   2.104   2.266  0.0687 -0.5675  0.0065
   73SOL    HW1  218   0.849   2.147   2.207  2.9617 -2.5071  2.2356
   73SOL    HW2  219   1.005   2.103   2.220 -1.4029 -2.1741  0.6779
   74SOL     OW  220   1.408   0.121   1.893 -0.3128  0.0887 -0.4169
   74SOL    HW1  221   1.371   0.149   1.984  0.3707  1.7046  1.4145
   74SOL    HW2  222   1.436   0.025   1.898 -0.8943  0.5517 -0.9895
   75SOL     OW  223   1.158   2.869   0.541 -0.1716 -0.4429  0.3103
   75SOL    HW1  224   1.137   2.824   0.453 -2.5399 -0.5708  0.8085
   75SOL    HW2  225   1.258   2.878   0.554 -2.8376 -1.3029  0.7303
   76SOL     OW  226   0.327   1.773   2.728  0.2465 -0.3453  0.3947
   76SOL    HW1  227   0.387   1.694   2.744 -1.9825  2.2869 -1.1061
   76SOL    HW2  228   0.337   1.794   2.627 -0.9327 -2.4119  0.7026
   77SOL     OW  229   0.388   2.375   1.056 -0.0269 -0.3112  0.1380
   77SOL    HW1  230   0.437   2.353   0.968  3.6837 -0.1941  0.9279
   77SOL    HW2  231   0.427   2.459   1.104 -0.3147 -1.2969 -0.2637
   78SOL     OW  232   2.581   1.115   0.185  0.4847  0.7357  0.3827
   78SOL    HW1  233   2.504   1.158   0.136  4.2364 -0.4342  0.0329
   78SOL    HW2  234   2.547   1.094   0.279  0.3224  0.4828 -1.3162
   79SOL     OW  235   0.410   1.539   2.841 -0.7469  0.1474  0.4308
   79SOL    HW1  236   0.351   1.510   2.922  0.3622  0.4609  0.7969
   79SOL    HW2  237   0.504   1.502   2.838  0.0319 -0.8265  1.6595
   80SOL     OW  238   2.033   1.217   1.463  0.6888 -0.1401 -0.1615
   80SOL    HW1  239   2.035   1.214   1.565 -0.2540  1.4892 -2.6319
   80SOL    HW2  240   2.000   1.132   1.426 -1.4332  0.6312  0.2294
   81SOL     OW  241   1.922   0.760   2.469 -0.4224 -0.1498  0.1021
   81SOL    HW1  242   1.842   0.748   2.526  1.6883 -0.8941 -1.3996
   81SOL    HW2  243   1.899   0.733   2.373 -2.1654 -1.0524  0.6334
   82SOL     OW  244   2.069   1.709   1.246 -0.2862  0.0066  0.1609
   82SOL    HW1  245   2.090   1.810   1.234  0.3677  0.3943 -1.7378
   82SOL    HW2  246   2.115   1.652   1.175 -2.0045  0.7452 -0.0692
   83SOL     OW  247   2.300   2.787   3.046 -0.0696  0.5236  0.4731
   83SOL    HW1  248   2.398   2.804   3.037  2.6204 -1.6835 -3.1212
   83SOL    HW2  249   2.251   2.832   2.969  0.0576 -0.0752  2.2341
   84SOL     OW  250   0.763   0.561   0.494  0.4822 -0.1453  0.1905
   84SOL    HW1  251   0.765   0.655   0.451  0.8651  2.2308  4.1757
   84SOL    HW2  252   0.783   0.573   0.592 -0.4995 -2.1550 -1.9268
   85SOL     OW  253   2.159   1.645   0.993 -0.8212  0.4451 -0.0867
   85SOL    HW1  254   2.165   1.577   0.914 -1.2407  1.0406 -1.1889
   85SOL    HW2  255   2.247   1.698   1.006  1.3435 -0.1460  0.0206
   86SOL     OW  256   0.657   0.810   1.265 -0.7293  0.2405 -0.9991
   86SOL    HW1  257   0.596   0.805   1.343  0.7118 -0.2475 -0.5712
   86SOL    HW2  258   0.656   0.904   1.226 -1.3144 -0.4902  1.2496
   87SOL     OW  259   3.051   2.288   2.344  0.2132 -0.3444 -0.2133
   87SOL    HW1  260   3.033   2.214   2.279  2.4559  0.8374 -0.2469
   87SOL    HW2  261   3.024   2.384   2.308 -0.2960  6.1878  1.0390
   88SOL     OW  262   0.318   2.994   0.234  0.2236  0.0645 -0.1780
   88SOL    HW1  263   0.235   3.055   0.256 -3.1313  2.4799 -1.1678
   88SOL    HW2  264   0.385   2.996   0.312  0.1629 -0.4982  0.2334
   89SOL     OW  265   1.224   2.976   0.945 -0.2388 -0.5060 -0.0105
   89SOL    HW1  266   1.322   2.985   0.923  0.7731 -2.6637 -0.5468
   89SOL    HW2  267   1.186   0.002   0.974 -1.4454  1.0609 -2.6647
   90SOL     OW  268   2.940   0.938   2.262 -0.2570  0.4763 -0.4721
   90SOL    HW1  269   2.857   0.950   2.202 -1.7468  0.6569  0.8015
   90SOL    HW2  270   2.978   0.847   2.249 -0.0569  1.6384 -0.2347
   91SOL     OW  271   2.033   2.854   0.918 -0.1198 -0.6913  0.4430
   91SOL    HW1  272   1.936   2.875   0.903  2.8771 -1.0431  1.8346
   91SOL    HW2  273   2.076   2.791   0.847  0.0864 -0.3152 -1.7747
   92SOL     OW  274   1.679   1.579   0.754  0.0765  0.2580  0.3961
   92SOL    HW1  275   1.739   1.599   0.835  0.7039  0.5116  0.7555
   92SOL    HW2  276   1.721   1.617   0.666  0.1334  0.8296  0.5502
   93SOL     OW  277   0.450   1.408   0.614 -0.1720 -0.6024 -0.3732
   93SOL    HW1  278   0.522   1.346   0.578 -0.8057 -0.0141 -0.7282
   93SOL    HW2  279   0.488   1.470   0.687  0.9263  1.5457 -1.0793
   94SOL     OW  280   0.749   2.484   1.336 -0.0324 -0.7768  0.1842
   94SOL    HW1  281   0.831   2.438   1.367 -1.3620  0.5880 -1.9149
   94SOL    HW2  282   0.692   2.429   1.273 -0.2420  0.2549  0.7216
   95SOL     OW  283   0.117   1.046   0.583 -0.5127  0.3358 -0.5462
   95SOL    HW1  284   0.134   1.152   0.587 -0.9448  1.3765 -2.6104
   95SOL    HW2  285   0.197   0.998   0.623 -0.4857  0.5784  0.5422
   96SOL     OW  286   0.849   2.563   1.927  0.1827  0.9741 -0.3174
   96SOL    HW1  287   0.846   2.619   1.841 -0.0631  1.2780 -3.7732
   96SOL    HW2  288   0.788   2.487   1.909 -1.0787 -0.5281  1.2448
   97SOL     OW  289   2.479   0.918   0.900  0.6720  0.5953 -0.6077
   97SOL    HW1  290   2.503   0.828   0.948  1.5398  0.0883  1.4961
   97SOL    HW2  291   2.459   0.983   0.975  1.6304  0.8746  0.4440
   98SOL     OW  292   0.331   1.852   2.181 -0.2306 -0.3837 -0.5841
   98SOL    HW1  293   0.364   1.770   2.130  0.6544  0.1283  0.0734
   98SOL    HW2  294   0.242   1.882   2.157  0.8649 -0.4985  1.4188
   99SOL     OW  295   2.806   0.387   1.497 -0.4249 -0.6093  0.3295
   99SOL    HW1  296   2.894   0.372   1.439  1.8271 -2.3975 -0.2714
   99SOL    HW2  297   2.821   0.453   1.575 -2.1716  1.2592 -0.6156
  100SOL     OW  298   1.853   0.338   2.571  0.4436  0.9400 -0.2017
  100SOL    HW1  299   1.951   0.346   2.611 -0.1659  0.1582  1.2289
  100SOL    HW2  300   1.864   0.264   2.500 -0.3945 -2.1742 -1.0657
  101SOL     OW  301   1.257   2.984   2.151 -0.0647  0.0066  0.0989
  101SOL    HW1  302   1.252   0.020   2.142  3.3246 -0.4295 -1.5487
  101SOL    HW2  303   1.168   2.938   2.152 -0.3584  0.7875  2.2108
  102SOL     OW  304   0.678   0.729   1.712 -0.3054  0.0995 -0.1695
  102SOL    HW1  305   0.628   0.674   1.778  0.2071  0.1355  2.0623
  102SOL    HW2  306   0.758   0.673   1.676  2.6697 -2.6691  1.0115
  103SOL     OW  307   0.649   0.855   2.895 -0.0648 -0.6735  0.6124
  103SOL    HW1  308   0.669   0.947   2.852  2.0995  1.0585 -0.9863
  103SOL    HW2  309   0.592   0.807   2.829  1.2066  0.7315  0.4948
  104SOL     OW  310   0.619   0.392   2.043 -0.4485 -0.3033  0.2434
  104SOL    HW1  311   0.673   0.326   1.987  2.1725 -2.0128  2.2327
  104SOL    HW2  312   0.669   0.411   2.129  0.5127  1.7507 -0.4565
  105SOL     OW  313   2.753   2.381   1.740  0.5515  0.5005 -0.0358
  105SOL    HW1  314   2.757   2.283   1.707 -1.0897  2.1233  1.2283
  105SOL    HW2  315   2.823   2.435   1.691 -2.7876 -0.8515  0.7720
  106SOL     OW  316   0.770   2.893   0.769 -0.0039 -0.3214  0.1904
  106SOL    HW1  317   0.868   2.912   0.736  1.7706  1.1188 -0.7869
  106SOL    HW2  318   0.723   2.829   0.705 -0.5110  0.6995 -1.1794
  107SOL     OW  319   2.873   1.904   1.091 -0.1124  0.5218 -0.0832
  107SOL    HW1  320   2.809   1.935   1.020  1.8878 -0.0320  1.2075
  107SOL    HW2  321   2.833   1.836   1.153 -1.0511 -0.1640  5.3685
  108SOL     OW  322   0.123   2.437   0.771  0.1397  0.1669  0.4189
  108SOL    HW1  323   0.089   2.393   0.685 -0.2402 -2.2849 -1.9456
  108SOL    HW2  324   0.087   2.384   0.851  1.1336 -1.7191  0.3733
  109SOL     OW  325   1.672   2.820   0.700  0.1467 -0.2596 -0.1818
  109SOL    HW1  326   1.677   2.842   0.799  2.2775 -0.9715 -1.3687
  109SOL    HW2  327   1.737   2.874   0.643 -0.1585  1.3733 -0.0088
  110SOL     OW  328   1.812   1.917   0.686  0.1948  0.7849 -0.6007
  110SOL    HW1  329   1.764   1.902   0.597  0.4266  0.2829 -0.7572
  110SOL    HW2  330   1.749   1.961   0.752 -1.1224 -0.2573 -3.2484
  111SOL     OW  331   2.041   2.564   1.984  0.7133 -0.4713  0.1539
  111SOL    HW1  332   2.103   2.510   2.043  2.4557  1.9991 -0.8514
  111SOL    HW2  333   1.982   2.632   2.035  0.1033  2.7282 -0.6669
  112SOL     OW  334   1.806   2.297   2.492 -0.4661  0.2344  0.0102
  112SOL    HW1  335   1.715   2.258   2.468  0.6677 -2.6259  0.8248
  112SOL    HW2  336   1.799   2.398   2.515 -1.6620  0.9164  0.5932
  113SOL     OW  337   2.380   2.038   1.972  0.2471 -0.1851 -0.4137
  113SOL    HW1  338   2.294   1.982   1.979  0.6663  1.4028  0.6042
  113SOL    HW2  339   2.416   2.024   1.880  1.0431  1.9911  0.0830
  114SOL     OW  340   0.262   0.972   1.238  0.8308  0.0231  0.0534
  114SOL    HW1  341   0.258   0.870   1.253  2.7293  1.8341  0.3490
  114SOL    HW2  342   0.174   1.024   1.245  0.3580 -1.5968  3.1981
  115SOL     OW  343   2.511   0.531   2.750  0.0638 -0.1423  0.1050
  115SOL    HW1  344   2.537   0.609   2.807 -0.4229  2.0888 -2.2971
  115SOL    HW2  345   2.579   0.459   2.744 -0.7877  3.2576 -1.3599
  116SOL     OW  346   2.752   0.352   2.747 -0.4763 -0.3566 -0.3946
  116SOL    HW1  347   2.750   0.256   2.783 -0.2675 -2.2157  0.7697
  116SOL    HW2  348   2.762   0.355   2.645 -0.4106  3.1614 -2.5230
  117SOL     OW  349   2.549   2.732   0.775 -0.5738  0.5126 -0.2875
  117SOL    HW1  350   2.483   2.809   0.767  2.3220 -2.6900  1.1306
  117SOL    HW2  351   2.585   2.716   0.874  1.7468 -4.6735  1.7468
  118SOL     OW  352   0.884   1.909   2.454 -0.6729 -0.0189  0.0705
  118SOL    HW1  353   0.927   1.818   2.435  0.3663  0.2016  0.8907
  118SOL    HW2  354   0.906   1.978   2.387  0.6098 -0.1299 -0.3762
  119SOL     OW  355   0.696   2.753   0.554  0.3081  0.6746 -0.0732
  119SOL    HW1  356   0.735   2.784   0.465 -1.8727  1.2576 -0.4615
  119SOL    HW2  357   0.684   2.650   0.558 -0.5701 -1.1112  1.6692
  120SOL     OW  358   1.346   0.688   0.677 -0.0143 -0.0490  0.1712
  120SOL    HW1  359   1.430   0.634   0.697 -0.0207 -1.3921 -1.0267
  120SOL    HW2  360   1.373   0.787   0.665 -0.5888  0.8495  2.0642
  121SOL     OW  361   1.845   0.447   0.868 -0.2441 -0.2816 -0.0749
  121SOL    HW1  362   1.930   0.445   0.815  0.1810  2.4710  0.2987
  121SOL    HW2  363   1.843   0.394   0.956  2.7019  0.7671 -1.2954
  122SOL     OW  364   2.004   1.635   2.277  0.2113  0.8525 -0.2381
  122SOL    HW1  365   2.016   1.728   2.317 -0.9332  4.6047  1.0115
  122SOL    HW2  366   1.978   1.651   2.179  0.9285  1.8734  0.2042
  123SOL     OW  367   0.697   0.998   0.839 -0.0487 -0.2089  0.1495
  123SOL    HW1  368   0.798   0.985   0.836  0.9877 -1.4349 -0.5987
  123SOL    HW2  369   0.650   0.911   0.854  2.6513 -1.8258  1.5831
  124SOL     OW  370   0.781   0.373   2.820 -0.4496 -0.4438 -0.3781
  124SOL    HW1  371   0.747   0.290   2.872  3.4059 -2.9540 -1.9850
  124SOL    HW2  372   0.867   0.350   2.769  1.5908 -2.0183  0.3299
  125SOL     OW  373   0.764   3.055   2.850  0.5702  0.1139 -0.0721
  125SOL    HW1  374   0.839   3.009   2.898 -3.2505  2.7531  1.9439
  125SOL    HW2  375   0.784   0.011   2.753 -2.8131  1.5781  0.0504
  126SOL     OW  376   0.733   1.186   0.176  0.4249 -0.3648  0.1878
  126SOL    HW1  377   0.727   1.231   0.080  0.9157  0.6839 -1.4403
  126SOL    HW2  378   0.664   1.218   0.245  2.6039 -3.8027  1.7368
  127SOL     OW  379   1.136   2.491   1.069  0.5069  0.0566 -0.0445
  127SOL    HW1  380   1.105   2.584   1.099  1.0688  0.0579  0.8873
  127SOL    HW2  381   1.191   2.493   0.984 -0.6722  1.2168  1.4770
  128SOL     OW  382   1.362   1.966   0.244  0.1044  0.2865 -0.3956
  128SOL    HW1  383   1.269   1.977   0.285 -2.5505  1.4257 -0.2981
  128SOL    HW2  384   1.427   2.044   0.260 -0.1339  0.6877 -2.2400
  129SOL     OW  385   1.866   1.531   1.648  0.0609 -0.1790  0.0191
  129SOL    HW1  386   1.911   1.452   1.695 -1.2540  0.5676 -1.1622
  129SOL    HW2  387   1.807   1.580   1.716 -1.8994  0.5519  0.7223
  130SOL     OW  388   2.068   1.609   1.484 -0.7292 -0.0699 -0.0197
  130SOL    HW1  389   1.987   1.570   1.527  0.5345 -2.0552  0.5795
  130SOL    HW2  390   2.058   1.636   1.383  1.0945  0.8017 -0.3313
  131SOL     OW  391   0.837   2.212   2.001 -0.3980 -0.2426 -0.1113
  131SOL    HW1  392   0.937   2.212   1.981 -1.2235 -0.5883  0.3134
  131SOL    HW2  393   0.786   2.273   1.933  3.4947  1.1497  1.8562
  132SOL     OW  394   2.531   1.640   0.631  1.0480 -0.5590 -0.6577
  132SOL    HW1  395   2.553   1.599   0.722  0.6490 -1.1530  1.0873
  132SOL    HW2  396   2.441   1.692   0.633 -1.9231  2.7126  0.5506
  133SOL     OW  397   0.661   1.720   1.898 -0.3958  0.1093 -0.2020
  133SOL    HW1  398   0.608   1.712   1.807 -0.6236 -0.7281 -0.3059
  133SOL    HW2  399   0.682   1.817   1.923 -0.4174  0.3203  1.1679
  134SOL     OW  400   2.815   1.643   0.782 -0.4158  0.4334  0.8152
  134SOL    HW1  401   2.766   1.629   0.694  1.3396 -0.6577 -1.6298
  134SOL    HW2  402   2.901   1.589   0.786  0.7651  0.5172  0.4671
  135SOL     OW  403   2.066   1.295   2.744 -0.4692  0.3359  0.4420
  135SOL    HW1  404   2.107   1.386   2.715  0.9811  0.9494 -2.7784
  135SOL    HW2  405   2.087   1.230   2.668 -0.5702 -0.6901  0.6847
  136SOL     OW  406   0.122   1.266   1.129  0.1514  0.5522  0.5137
  136SOL    HW1  407   0.128   1.241   1.034 -0.3003  1.6353  0.8807
  136SOL    HW2  408   0.185   1.338   1.146 -0.9830 -0.2453 -2.0053
  137SOL     OW  409   2.371   1.527   3.037  0.3954 -0.0855 -0.4680
  137SOL    HW1  410   2.337   1.439   2.997 -1.9098 -0.8198 -3.4882
  137SOL    HW2  411   2.470   1.544   3.025  1.0685 -0.7624 -2.0566
  138SOL     OW  412   2.565   0.483   0.661 -0.0335  0.0262  0.0200
  138SOL    HW1  413   2.501   0.536   0.598 -2.4461  1.0214 -2.2378
  138SOL    HW2  414   2.652   0.469   0.614 -3.5503  1.4336  2.1965
  139SOL     OW  415   2.264   2.551   2.864 -0.5878  0.4922 -0.5755
  139SOL    HW1  416   2.298   2.606   2.943 -2.7841  1.0935  1.9462
  139SOL    HW2  417   2.340   2.489   2.829  1.4818 -2.0905 -1.2042
  140SOL     OW  418   0.618   1.496   1.166  0.0044 -0.3978 -0.0874
  140SOL    HW1  419   0.595   1.598   1.154 -1.0966  3.2869  2.1980
  140SOL    HW2  420   0.557   1.436   1.113  0.7727  3.4117 -0.2709
  141SOL     OW  421   1.000   1.233   0.746 -0.0721  0.1734  0.3436
  141SOL    HW1  422   1.047   1.235   0.839 -0.0221 -1.2049 -1.3266
  141SOL    HW2  423   1.070   1.239   0.669  0.9990 -1.6748 -1.4163
  142SOL     OW  424   1.603   0.602   0.808 -0.0385 -0.2648  0.6133
  142SOL    HW1  425   1.642   0.512   0.838 -0.3051 -0.0602  1.8113
  142SOL    HW2  426   1.679   0.670   0.810  2.6111 -0.2743  2.2510
  143SOL     OW  427   0.350   0.505   2.860 -0.3178 -0.0829 -0.5147
  143SOL    HW1  428   0.263   0.534   2.811 -1.6491 -0.6294  0.0904
  143SOL    HW2  429   0.433   0.534   2.811 -2.2077  1.2274 -1.7273
  144SOL     OW  430   2.315   0.134   0.270  0.2827 -0.0041 -0.0517
  144SOL    HW1  431   2.281   0.064   0.209 -0.8980 -1.7241 -1.1488
  144SOL    HW2  432   2.367   0.092   0.346  0.9789 -0.0484 -2.4271
  145SOL     OW  433   2.287   0.097   2.382  0.3901 -0.0888 -0.1004
  145SOL    HW1  434   2.361   0.151   2.428  0.2027  0.1069  0.5098
  145SOL    HW2  435   2.245   0.159   2.315 -0.7397 -0.0636 -0.5226
  146SOL     OW  436   2.886   2.866   0.679 -0.3435  0.0052  0.3057
  146SOL    HW1  437   2.989   2.870   0.670  1.7002 -2.7625 -0.3710
  146SOL    HW2  438   2.851   2.794   0.613 -0.1074  0.6806 -0.6325
  147SOL     OW  439   1.516   0.869   2.907  0.3003  0.6150 -0.3264
  147SOL    HW1  440   1.479   0.777   2.886  1.2633  0.5344  3.0132
  147SOL    HW2  441   1.553   0.878   3.001 -0.7373  0.6516 -0.7892
  148SOL     OW  442   1.107   0.092   0.073  0.2985  0.0418  0.4589
  148SOL    HW1  443   1.050   0.152   0.133  1.8435  0.0763  0.3758
  148SOL    HW2  444   1.129   0.131   3.045  1.8801 -1.2972 -0.3917
  149SOL     OW  445   1.316   0.910   2.481  0.1782  0.1235  0.1701
  149SOL    HW1  446   1.398   0.907   2.547  2.0725 -1.2471  2.3384
  149SOL    HW2  447   1.313   1.001   2.429 -0.7738  0.0747 -2.5430
  150SOL     OW  448   1.363   2.889   2.928 -0.5111  0.4780  0.6184
  150SOL    HW1  449   1.385   2.790   2.946  3.7763  1.1350  0.4813
  150SOL    HW2  450   1.450   2.933   2.898 -0.3645  2.5011  1.5382
  151SOL     OW  451   0.323   1.386   0.001 -0.5495  0.4439  0.0497
  151SOL    HW1  452   0.349   1.295   3.040  0.4655  1.5339 -1.2881
  151SOL    HW2  453   0.246   1.371   0.067 -0.7438  0.0285  1.2790
  152SOL     OW  454   0.741   0.344   1.304  0.2022 -0.0395  0.1139
  152SOL    HW1  455   0.780   0.300   1.389 -0.1238 -1.0744  0.4472
  152SOL    HW2  456   0.660   0.395   1.325 -0.5644 -0.4147  1.1480
  153SOL     OW  457   2.677   2.932   1.927 -0.5845 -0.8421 -0.1975
  153SOL    HW1  458   2.577   2.936   1.933  0.9919  0.2815  1.9365
  153SOL    HW2  459   2.723   3.024   1.908  0.0379  2.9143  2.0128
  154SOL     OW  460   2.422   2.919   1.977 -0.0986  0.3993  0.2810
  154SOL    HW1  461   2.401   2.893   2.075  1.2451  1.1798  0.8171
  154SOL    HW2  462   2.344   2.965   1.931  0.9721 -1.0602  2.7712
  155SOL     OW  463   0.220   1.295   0.246 -0.1469  0.4947  0.0089
  155SOL    HW1  464   0.216   1.193   0.252  0.4798  1.3589 -0.7268
  155SOL    HW2  465   0.316   1.324   0.235 -2.0625  3.4660 -0.0318
  156SOL     OW  466   1.918   1.102   0.223  0.9743  0.3730 -0.0282
  156SOL    HW1  467   1.883   1.107   0.130 -0.0800  0.1776  0.4689
  156SOL    HW2  468   2.019   1.092   0.221  0.0474 -2.6684  2.5520
  157SOL     OW  469   0.746   2.714   2.781 -0.2083 -0.3164  0.0090
  157SOL    HW1  470   0.784   2.704   2.876 -0.5829 -2.7327  1.4387
  157SOL    HW2  471   0.645   2.688   2.780 -0.0392  0.5532  2.1272
  158SOL     OW  472   1.974   0.806   1.487  0.2143 -0.1231 -0.0748
  158SOL    HW1  473   1.979   0.822   1.586 -1.6497 -0.3038 -1.5899
  158SOL    HW2  474   1.919   0.885   1.448  0.2484 -0.6752 -0.5585
  159SOL     OW  475   0.031   0.055   0.063 -0.1147 -0.0820 -0.5191
  159SOL    HW1  476   0.026   3.029   0.017 -1.2090 -0.2465  0.0439
  159SOL    HW2  477   0.014   0.135   0.004  0.5309  1.5525 -0.7316
  160SOL     OW  478   2.367   1.908   1.684 -0.4734  0.3616  0.0313
  160SOL    HW1  479   2.426   1.866   1.615  0.3109 -0.0147 -0.2667
  160SOL    HW2  480   2.274   1.862   1.692 -1.7036  1.7135 -0.9432
  161SOL     OW  481   0.039   0.316   3.035 -0.0644  0.1384 -0.5161
  161SOL    HW1  482   0.139   0.311   3.024 -0.4639  2.0379  0.5516
  161SOL    HW2  483   0.020   0.388   0.042 -1.4227  1.3483  0.5824
  162SOL     OW  484   0.502   0.600   1.870  0.4565  0.0210  0.1234
  162SOL    HW1  485   0.406   0.585   1.892  0.8018  2.7547  0.1568
  162SOL    HW2  486   0.565   0.545   1.928 -0.8444  2.0411  0.0634
  163SOL     OW  487   2.741   0.017   2.477  0.0712 -0.1847  0.0155
  163SOL    HW1  488   2.697   0.002   2.388 -0.9629 -0.6335  1.8514
  163SOL    HW2  489   2.812   3.008   2.492  1.9571 -1.0807 -0.8723
  164SOL     OW  490   2.237   1.746   0.038  0.2200 -0.1365  0.0871
  164SOL    HW1  491   2.136   1.719   0.032 -0.8124  3.0368 -1.3950
  164SOL    HW2  492   2.292   1.663   0.025 -0.1041  1.4456  1.5370
  165SOL     OW  493   0.107   0.063   1.091  0.2493 -0.3236  0.4353
  165SOL    HW1  494   0.141   3.062   1.025  0.1309  0.1721  0.5894
  165SOL    HW2  495   0.124   0.031   1.187 -0.4248 -0.9482 -1.5498
  166SOL     OW  496   2.711   0.269   0.048 -0.3322 -0.0382 -0.9055
  166SOL    HW1  497   2.619   0.302   0.057 -0.1927  0.4371 -2.2403
  166SOL    HW2  498   2.714   0.195   3.042  0.7514 -3.9253 -2.9574
  167SOL     OW  499   1.973   0.651   0.625 -0.1721 -0.2551 -0.1242
  167SOL    HW1  500   2.038   0.726   0.663  1.7012  0.6014  3.7527
  167SOL    HW2  501   2.017   0.560   0.633  0.8806 -0.7318  0.8327
  168SOL     OW  502   1.284   0.385   2.294  0.6302 -0.2532  0.1781
  168SOL    HW1  503   1.213   0.420   2.359 -1.5329 -0.4553 -2.3697
  168SOL    HW2  504   1.373   0.426   2.320 -1.8182 -3.5062 -1.6067
  169SOL     OW  505   0.578   1.747   1.131  0.2201 -0.2123  0.6588
  169SOL    HW1  506   0.489   1.794   1.155  0.1810  0.8764  2.5370
  169SOL    HW2  507   0.622   1.796   1.054 -1.5237 -0.4669 -1.0658
  170SOL     OW  508   0.117   0.225   1.521  0.1971  0.3110 -0.2640
  170SOL    HW1  509   0.190   0.292   1.551 -0.8293  3.4055  0.9646
  170SOL    HW2  510   0.141   0.125   1.522 -0.6313 -1.0224  1.6253
  171SOL     OW  511   2.501   1.561   2.143 -0.2496  0.5777 -0.0540
  171SOL    HW1  512   2.604   1.539   2.130 -1.5146  3.4091  0.6395
  171SOL    HW2  513   2.458   1.566   2.051  2.4612 -0.0210  0.9243
  172SOL     OW  514   1.201   1.891   1.046  0.0439  0.2979  0.0130
  172SOL    HW1  515   1.188   1.939   1.136 -3.8941 -0.8144 -0.8171
  172SOL    HW2  516   1.301   1.882   1.024 -1.4142 -0.3160 -0.0490
  173SOL     OW  517   2.144   2.247   0.033 -0.1267  0.1015  0.0651
  173SOL    HW1  518   2.178   2.328   0.088  2.1493  0.3272  2.9464
  173SOL    HW2  519   2.153   2.161   0.088 -0.7962 -1.0380 -0.3935
  174SOL     OW  520   1.764   0.866   0.296 -0.0856 -0.4230 -0.0391
  174SOL    HW1  521   1.797   0.963   0.296 -0.2733 -0.0129 -0.3079
  174SOL    HW2  522   1.836   0.794   0.312  0.0848 -2.5852  0.2941
  175SOL     OW  523   0.532   1.677   1.662  0.1994  0.3850 -0.6288
  175SOL    HW1  524   0.459   1.605   1.659  2.9182 -0.4600  0.0521
  175SOL    HW2  525   0.497   1.758   1.611 -0.3004 -0.2486  1.9900
  176SOL     OW  526   0.277   0.015   0.521  0.5564  0.2953 -0.2508
  176SOL    HW1  527   0.369   3.042   0.494  0.5020 -3.0043  0.5741
  176SOL    HW2  528   0.230   0.057   0.441  1.4446 -0.6308  1.7803
  177SOL     OW  529   2.973   1.519   0.158  0.8585 -0.0547 -0.1250
  177SOL    HW1  530   2.886   1.490   0.208 -1.5041 -2.9877 -0.2688
  177SOL    HW2  531   3.053   1.533   0.220  0.4196 -3.2248  1.8475
  178SOL     OW  532   2.917   2.341   2.063 -0.3823 -0.1319 -0.2147
  178SOL    HW1  533   2.827   2.349   2.016 -1.5918  1.0054  0.8217
  178SOL    HW2  534   2.944   2.420   2.128  1.2765  1.5172 -1.5763
  179SOL     OW  535   2.025   0.039   2.998 -0.6466  0.2785  0.4591
  179SOL    HW1  536   2.092   0.107   2.957 -0.7876  3.2906 -0.3209
  179SOL    HW2  537   1.945   0.082   3.041 -0.0052 -1.5754 -3.1066
  180SOL     OW  538   2.338   0.625   0.540 -0.0320  0.6704  0.3935
  180SOL    HW1  539   2.323   0.533   0.579  0.8500  1.8540 -1.7194
  180SOL    HW2  540   2.267   0.690   0.568  1.2273  1.1895  1.2718
  181SOL     OW  541   0.055   0.057   2.446  0.1124  0.1830  0.1644
  181SOL    HW1  542   0.060   0.123   2.370 -0.4199 -2.0869 -0.2425
  181SOL    HW2  543   3.040   3.063   2.431  2.3073 -0.0711  0.9956
  182SOL     OW  544   2.608   2.229   2.397 -0.5553 -0.4349  0.2010
  182SOL    HW1  545   2.684   2.290   2.416  0.1705  1.0093 -0.8050
  182SOL    HW2  546   2.588   2.216   2.298 -1.2889  1.3091  0.5364
  183SOL     OW  547   2.651   0.882   1.433 -0.0526 -0.6090 -0.2394
  183SOL    HW1  548   2.730   0.899   1.378 -1.1548 -0.3112  3.8574
  183SOL    HW2  549   2.634   0.973   1.476 -0.8118 -0.1941 -1.0913
  184SOL     OW  550   2.879   1.374   0.993 -0.2391  0.4449  0.5196
  184SOL    HW1  551   2.892   1.465   1.038 -0.8854 -1.2941  0.1788
  184SOL    HW2  552   2.954   1.353   0.931  0.8465  0.4071  1.9242
  185SOL     OW  553   0.026   0.342   1.099  0.4739 -0.2639  0.0217
  185SOL    HW1  554   0.075   0.255   1.082 -0.9324 -1.0988 -2.8394
  185SOL    HW2  555   0.044   0.410   1.021 -0.2336 -2.9627  1.7279
  186SOL     OW  556   2.320   2.374   2.479  0.1212  0.9406  0.0847
  186SOL    HW1  557   2.292   2.446   2.546  0.3513  1.6626 -2.4682
  186SOL    HW2  558   2.420   2.355   2.474 -0.7836  2.8800  0.2874
  187SOL     OW  559   0.178   1.336   0.582  0.1029  0.0227 -1.6430
  187SOL    HW1  560   0.265   1.377   0.606 -2.6197 -1.9844 -2.1372
  187SOL    HW2  561   0.118   1.393   0.520 -1.6934  1.3951  2.3949
  188SOL     OW  562   1.721   1.838   2.963 -0.2455 -0.4002  0.2864
  188SOL    HW1  563   1.777   1.926   2.967  1.9694  1.5415  0.4802
  188SOL    HW2  564   1.698   1.810   3.058 -0.2788  0.7112  2.1261
  189SOL     OW  565   3.064   1.564   2.844 -0.1830  0.5422 -0.3142
  189SOL    HW1  566   3.053   1.478   2.903 -0.3181 -1.2154  2.6041
  189SOL    HW2  567   0.063   1.631   2.886 -1.7825  2.9252  0.2526
  190SOL     OW  568   2.246   0.600   2.675  0.0168  0.3260  0.2215
  190SOL    HW1  569   2.228   0.665   2.600  1.7505  0.5764 -0.9757
  190SOL    HW2  570   2.342   0.571   2.684 -3.0102  1.6525 -1.0256
  191SOL     OW  571   0.838   1.135   2.077  0.5934 -0.7812 -0.1578
  191SOL    HW1  572   0.821   1.108   1.975 -2.4624  3.8265 -2.2295
  191SOL    HW2  573   0.751   1.110   2.126 -1.3995  0.1918 -0.1279
  192SOL     OW  574   1.655   1.143   2.065  0.3024  0.4349 -0.1207
  192SOL    HW1  575   1.567   1.149   2.009 -0.0764  0.7312 -3.2360
  192SOL    HW2  576   1.720   1.078   2.018  1.1659 -2.2495 -0.6272
  193SOL     OW  577   1.019   2.990   0.750  0.0907 -0.1303  0.4253
  193SOL    HW1  578   1.078   2.946   0.674  0.3275 -0.1874 -3.3412
  193SOL    HW2  579   1.068   2.971   0.839 -0.0008 -1.0129  4.1230
  194SOL     OW  580   1.322   1.468   1.668 -0.2675 -0.3537 -0.3996
  194SOL    HW1  581   1.263   1.397   1.623  0.6280 -1.8493  0.2692
  194SOL    HW2  582   1.293   1.495   1.763  0.0557  4.4172  1.1148
  195SOL     OW  583   1.608   0.205   0.781 -0.4278 -0.5762  0.0801
  195SOL    HW1  584   1.621   0.281   0.711  0.2242  0.8636 -1.5031
  195SOL    HW2  585   1.695   0.173   0.812 -2.5745  0.3470 -4.2417
  196SOL     OW  586   0.893   1.389   2.249 -0.1509 -0.1802 -0.5574
  196SOL    HW1  587   0.862   1.414   2.156  1.3607  2.0506  0.1322
  196SOL    HW2  588   0.837   1.312   2.290  1.0739 -0.8591  0.6361
  197SOL     OW  589   0.723   0.270   2.477 -0.0423  0.1311  0.2629
  197SOL    HW1  590   0.685   0.347   2.533  1.3225  1.9726 -0.4272
  197SOL    HW2  591   0.656   0.226   2.414 -1.7816 -0.2905 -0.7113
  198SOL     OW  592   2.989   1.037   1.105 -0.5765 -0.4612 -0.3161
  198SOL    HW1  593   3.031   1.130   1.104 -1.1407 -0.0445 -0.5815
  198SOL    HW2  594   3.017   0.980   1.023  0.0180 -3.1360  0.5962
  199SOL     OW  595   0.619   2.260   1.192  0.2521 -0.1010  0.2471
  199SOL    HW1  596   0.676   2.195   1.136  2.3360  0.0139  0.0696
  199SOL    HW2  597   0.535   2.293   1.138 -2.1938 -0.7808 -3.7855
  200SOL     OW  598   2.904   2.078   2.745 -0.1978  0.3836 -0.2274
  200SOL    HW1  599   2.988   2.102   2.692  0.5708  2.1059 -1.7433
  200SOL    HW2  600   2.924   2.005   2.809  0.6841  1.9958 -0.9979
  201SOL     OW  601   0.977   2.350   1.421  0.2147 -0.2678  0.6218
  201SOL    HW1  602   1.073   2.337   1.391  0.0055 -0.2273  0.5313
  201SOL    HW2  603   0.936   2.274   1.473 -1.0435 -0.5819  1.6965
  202SOL     OW  604   0.761   2.491   0.179  0.4602 -0.1193  0.4122
  202SOL    HW1  605   0.814   2.413   0.211  0.0045  1.6148 -2.6587
  202SOL    HW2  606   0.659   2.473   0.166 -1.9801  0.0606 -1.2921
  203SOL     OW  607   1.977   0.131   2.420 -0.3600  0.0554  0.1000
  203SOL    HW1  608   2.072   0.179   2.426  4.8880  2.3568 -1.5830
  203SOL    HW2  609   1.971   0.042   2.473  0.8531 -0.4378  1.2910
  204SOL     OW  610   0.370   1.451   1.658 -0.7135 -0.1062  0.3269
  204SOL    HW1  611   0.276   1.450   1.697 -0.9229 -1.4706  2.3022
  204SOL    HW2  612   0.438   1.406   1.717 -0.4827  1.8138  1.5945
  205SOL     OW  613   2.422   1.391   2.356  0.1646 -1.1937 -0.1608
  205SOL    HW1  614   2.444   1.452   2.280 -1.0096 -2.9541 -1.6981
  205SOL    HW2  615   2.326   1.414   2.386  1.6562  0.9553 -0.7626
  206SOL     OW  616   0.089   2.126   2.619 -0.1840 -0.1381  0.0652
  206SOL    HW1  617   0.091   2.140   2.518  0.1730 -1.5188 -0.8649
  206SOL    HW2  618   0.159   2.064   2.653 -2.3080  0.9126 -0.2658
  207SOL     OW  619   0.696   2.735   1.728 -0.2099  0.2425  0.9264
  207SOL    HW1  620   0.617   2.781   1.769 -0.7740 -0.2297 -0.0443
  207SOL    HW2  621   0.666   2.647   1.685 -0.2312 -2.1584 -0.5026
  208SOL     OW  622   0.051   2.482   1.237 -0.1372 -0.2645 -0.2840
  208SOL    HW1  623   0.033   2.479   1.335  0.9461 -3.0069  0.3518
  208SOL    HW2  624   0.044   2.575   1.195 -2.5940 -1.2290  0.1050
  209SOL     OW  625   1.198   2.632   2.238  0.3501 -0.4760 -0.4567
  209SOL    HW1  626   1.257   2.575   2.298  1.2939  2.2608 -0.0157
  209SOL    HW2  627   1.120   2.672   2.290 -0.9728 -1.5720 -0.2887
  210SOL     OW  628   2.896   1.285   2.143 -0.2180 -0.4873 -0.0381
  210SOL    HW1  629   2.995   1.313   2.156 -0.5440  1.1466  2.1091
  210SOL    HW2  630   2.857   1.278   2.235 -1.3037 -1.7650  0.4174
  211SOL     OW  631   1.452   2.827   2.049 -0.5907  0.1484 -0.4893
  211SOL    HW1  632   1.400   2.764   1.989 -1.4960  0.2135  1.3515
  211SOL    HW2  633   1.384   2.888   2.096  1.6785  4.7938 -0.5523
  212SOL     OW  634   1.726   2.687   1.647  0.1569 -0.0675  0.0162
  212SOL    HW1  635   1.703   2.732   1.737 -1.5083 -1.6749 -0.8127
  212SOL    HW2  636   1.801   2.739   1.600  0.2342 -0.1386 -0.2822
  213SOL     OW  637   2.341   0.617   1.702  0.3463 -0.1536 -0.1839
  213SOL    HW1  638   2.343   0.583   1.609 -1.0190 -0.1104  5.3526
  213SOL    HW2  639   2.423   0.677   1.720 -2.4787  1.0680  0.3218
  214SOL     OW  640   0.751   2.174   0.943  0.0425  0.1180 -0.0930
  214SOL    HW1  641   0.833   2.225   0.914 -1.3444  1.2823  0.8533
  214SOL    HW2  642   0.665   2.221   0.907 -2.8297 -0.8002  2.0811
  215SOL     OW  643   2.372   1.914   0.483 -0.2114  0.3141  0.0698
  215SOL    HW1  644   2.458   1.962   0.456  0.7005  0.6281  0.9835
  215SOL    HW2  645   2.300   1.981   0.459  0.4024 -2.3470 -0.1738
  216SOL     OW  646   2.944   0.961   1.931 -0.4625 -0.5328  0.3156
  216SOL    HW1  647   2.968   1.058   1.901 -1.4432 -0.2522 -1.5879
  216SOL    HW2  648   2.852   0.967   1.982 -0.1717  0.1976  0.3077
  217SOL     OW  649   2.216   0.348   1.249  0.2134  0.2240  0.4177
  217SOL    HW1  650   2.289   0.274   1.242  0.1253  0.0526  0.4373
  217SOL    HW2  651   2.155   0.350   1.168  0.0166 -0.3833 -0.5453
  218SOL     OW  652   1.857   2.084   1.227 -0.4987 -0.2977 -0.1573
  218SOL    HW1  653   1.816   2.163   1.178 -0.6991  1.7795 -1.8266
  218SOL    HW2  654   1.862   2.106   1.325 -0.9401  1.2889  0.2586
  219SOL     OW  655   1.691   2.342   3.048 -0.4050  0.2402 -0.0706
  219SOL    HW1  656   1.601   2.320   0.020  0.3066 -2.3578  1.1556
  219SOL    HW2  657   1.761   2.361   0.057 -0.2347  0.5308  2.6458
  220SOL     OW  658   1.516   2.668   3.026 -0.1818  0.4304 -0.3885
  220SOL    HW1  659   1.422   2.627   3.043 -0.6118 -0.8156 -1.0137
  220SOL    HW2  660   1.580   2.636   0.030 -1.7752 -1.8024 -2.2042
  221SOL     OW  661   0.191   2.598   1.823 -0.5606 -0.5923  0.2421
  221SOL    HW1  662   0.118   2.665   1.804  3.0080  1.1576  0.1889
  221SOL    HW2  663   0.267   2.636   1.882  1.6077 -0.1981  1.3445
  222SOL     OW  664   1.781   2.328   1.131 -0.0695 -0.1100 -0.4027
  222SOL    HW1  665   1.809   2.400   1.199 -0.4703  0.8602 -0.3029
  222SOL    HW2  666   1.815   2.338   1.033  0.4656 -0.5091 -1.6907
  223SOL     OW  667   1.350   2.378   1.702 -0.5553 -0.0643  0.2122
  223SOL    HW1  668   1.346   2.387   1.802  2.6977  0.9058 -1.2073
  223SOL    HW2  669   1.357   2.281   1.670  0.6036  0.2694 -3.3094
  224SOL     OW  670   2.569   2.407   1.300  0.4068 -0.0743  0.5202
  224SOL    HW1  671   2.667   2.404   1.281 -1.6931 -1.3690 -2.1261
  224SOL    HW2  672   2.564   2.403   1.404  0.9890  1.7248  1.0892
  225SOL     OW  673   2.175   2.087   0.431 -0.1039 -0.4232 -0.4192
  225SOL    HW1  674   2.112   2.074   0.510  1.7360  2.2623  0.7409
  225SOL    HW2  675   2.191   2.188   0.421  0.5898 -1.5863 -0.5276
  226SOL     OW  676   1.447   2.516   0.359  0.2649 -0.0198  0.2352
  226SOL    HW1  677   1.518   2.466   0.414  0.4998  1.9977 -0.2919
  226SOL    HW2  678   1.367   2.527   0.420 -1.2110 -0.5014  1.1748
  227SOL     OW  679   2.032   1.153   0.722 -0.2854  0.0167  0.7015
  227SOL    HW1  680   1.971   1.146   0.801 -0.0386 -1.2792 -2.2286
  227SOL    HW2  681   1.996   1.092   0.648 -0.6069 -2.5389 -1.9225
  228SOL     OW  682   1.643   0.396   2.980  0.0727 -0.1210 -0.0630
  228SOL    HW1  683   1.546   0.358   2.981 -0.7348  0.2368 -1.9658
  228SOL    HW2  684   1.648   0.469   2.909 -1.1398 -2.6344  0.3750
  229SOL     OW  685   2.710   1.097   2.619 -0.3082  0.1689 -0.5393
  229SOL    HW1  686   2.716   0.993   2.639  3.7975 -5.1301  0.4892
  229SOL    HW2  687   2.787   1.112   2.557 -1.0479 -2.3481 -0.6201
  230SOL     OW  688   0.437   1.301   0.987 -0.0574  0.0838  0.3864
  230SOL    HW1  689   0.427   1.247   1.076  2.3945 -1.1014  3.0753
  230SOL    HW2  690   0.424   1.246   0.905 -0.9407 -0.0590  1.4199
  231SOL     OW  691   2.460   0.270   2.519 -0.2251 -0.2372 -0.1269
  231SOL    HW1  692   2.424   0.360   2.490  2.1661  2.5672 -4.0076
  231SOL    HW2  693   2.563   0.274   2.519 -1.0954  0.3378  1.0088
  232SOL     OW  694   2.919   2.120   0.490  0.4053 -0.3739 -0.1773
  232SOL    HW1  695   2.897   2.025   0.517  0.7823 -1.2109 -0.9488
  232SOL    HW2  696   2.893   2.191   0.559 -0.0521  0.2526 -1.3590
  233SOL     OW  697   1.526   2.253   2.385 -0.0062 -0.2373  0.0584
  233SOL    HW1  698   1.501   2.350   2.406 -0.1055  2.3560 -0.0105
  233SOL    HW2  699   1.593   2.260   2.310 -2.6047  1.8469  0.0077
  234SOL     OW  700   1.276   1.622   1.228 -0.2690  0.6964  0.0424
  234SOL    HW1  701   1.325   1.630   1.314 -1.6930 -0.6585  1.8295
  234SOL    HW2  702   1.271   1.706   1.166 -1.1697 -3.3889 -0.0880
  235SOL     OW  703   0.960   1.827   1.645  0.5566  0.1045  0.2118
  235SOL    HW1  704   0.862   1.798   1.651 -1.2884 -0.2474 -1.8272
  235SOL    HW2  705   1.011   1.775   1.714 -2.0600 -2.6950  1.0538
  236SOL     OW  706   1.118   2.924   2.782  0.1440  0.2404 -0.5618
  236SOL    HW1  707   1.201   2.902   2.837 -2.1931  1.0988 -1.1873
  236SOL    HW2  708   1.128   2.890   2.687 -2.3647  2.0360  0.5764
  237SOL     OW  709   1.028   0.157   1.519 -0.4134  0.4419  0.6733
  237SOL    HW1  710   1.020   0.105   1.429 -1.2454 -2.4573 -1.1170
  237SOL    HW2  711   1.119   0.155   1.554 -1.9043 -0.4754 -0.4098
  238SOL     OW  712   1.149   0.980   0.108  0.1986  0.6520 -0.3054
  238SOL    HW1  713   1.217   0.984   0.033  0.7851 -0.9146  1.6366
  238SOL    HW2  714   1.100   0.887   0.104  0.0943  1.2156  2.1252
  239SOL     OW  715   2.591   0.762   2.861  0.2325  0.4426 -0.0656
  239SOL    HW1  716   2.538   0.850   2.877  1.9525  1.2378  0.8909
  239SOL    HW2  717   2.675   0.769   2.914  1.1637 -1.3523 -1.0454
  240SOL     OW  718   2.476   2.102   0.749 -0.1902  0.0046 -0.1848
  240SOL    HW1  719   2.466   2.018   0.802 -0.6707  2.2892 -1.6692
  240SOL    HW2  720   2.525   2.089   0.660  0.5347 -4.3001 -0.9339
  241SOL     OW  721   0.774   1.266   1.063  0.2387 -0.3304 -0.2570
  241SOL    HW1  722   0.749   1.280   0.963  1.8375 -0.9345  0.3982
  241SOL    HW2  723   0.747   1.354   1.109  0.3482  2.0536  1.7155
  242SOL     OW  724   0.799   0.481   0.926  0.2656  0.2877 -0.3152
  242SOL    HW1  725   0.808   0.560   0.862  0.5524  1.9601 -1.3268
  242SOL    HW2  726   0.752   0.408   0.877 -1.4233  1.8632 -0.1281
  243SOL     OW  727   0.356   0.437   1.110 -0.3717  0.2680  0.2167
  243SOL    HW1  728   0.299   0.519   1.138  1.0183  0.8129 -0.5829
  243SOL    HW2  729   0.451   0.471   1.098 -2.4199  0.3155 -0.1463
  244SOL     OW  730   1.132   0.111   0.419  0.1012 -0.4962  0.0792
  244SOL    HW1  731   1.097   0.033   0.475 -0.3363 -3.9055  2.4557
  244SOL    HW2  732   1.060   0.140   0.350 -3.7959 -0.4467 -2.1934
  245SOL     OW  733   1.957   0.696   0.353  0.2181  0.2797 -0.1412
  245SOL    HW1  734   1.970   0.667   0.449  0.7712 -2.7412 -0.1350
  245SOL    HW2  735   2.020   0.650   0.286 -1.5375  1.5247  0.9910
  246SOL     OW  736   0.327   0.356   1.648 -0.0352  0.1600 -0.7661
  246SOL    HW1  737   0.286   0.428   1.706  0.3734  3.5675 -0.6273
  246SOL    HW2  738   0.409   0.394   1.607 -0.5796  1.9241 -1.9382
  247SOL     OW  739   0.976   0.077   1.800  0.2917  0.6379 -0.1712
  247SOL    HW1  740   0.987   0.093   1.701 -1.5340  3.2361  1.6431
  247SOL    HW2  741   0.961   3.043   1.822 -0.6771  0.9495 -1.0825
  248SOL     OW  742   0.428   1.667   2.027 -0.0760 -0.0621 -0.0078
  248SOL    HW1  743   0.509   1.665   1.973 -2.8443  1.2527  4.0053
  248SOL    HW2  744   0.439   1.607   2.111  1.7689 -0.5454  1.0868
  249SOL     OW  745   0.482   2.492   0.138  0.6293 -0.5324  0.1013
  249SOL    HW1  746   0.417   2.534   0.073  1.7658  0.1522 -1.2426
  249SOL    HW2  747   0.496   2.550   0.224  0.4055 -1.0643 -0.7537
  250SOL     OW  748   1.024   0.219   2.018  0.0887  0.0397 -0.1578
  250SOL    HW1  749   0.942   0.204   2.076 -1.2565  0.4369 -0.3874
  250SOL    HW2  750   1.018   0.162   1.938 -0.8932  1.3359  2.0978
  251SOL     OW  751   2.650   1.954   1.458  0.4152  0.2899 -0.0789
  251SOL    HW1  752   2.582   1.883   1.479 -1.2035  1.3423 -2.1201
  251SOL    HW2  753   2.612   2.017   1.389  0.3271  0.7873  0.4571
  252SOL     OW  754   1.659   0.223   1.717  0.0002  0.6221 -0.2457
  252SOL    HW1  755   1.637   0.247   1.814 -0.9427 -0.3677  0.2151
  252SOL    HW2  756   1.656   0.124   1.701 -2.5071  1.1071  0.1595
  253SOL     OW  757   2.223   1.817   2.255 -0.2052  0.6399 -0.2840
  253SOL    HW1  758   2.168   1.885   2.211 -0.1326 -4.7671  1.3130
  253SOL    HW2  759   2.260   1.840   2.348 -1.2232  2.7520 -1.0088
  254SOL     OW  760   0.661   1.478   1.499 -0.2511  0.5199 -0.1880
  254SOL    HW1  761   0.655   1.514   1.401  1.4911 -0.0338 -1.5889
  254SOL    HW2  762   0.624   1.545   1.568  0.5507  2.2954  1.5702
  255SOL     OW  763   0.537   2.979   1.582 -0.4156  0.5061  0.1677
  255SOL    HW1  764   0.641   2.964   1.596  4.4305  1.0794  0.2897
  255SOL    HW2  765   0.487   2.900   1.540 -1.2865 -1.6571 -0.2319
  256SOL     OW  766   0.238   2.677   0.722  0.1211 -0.1763 -0.0307
  256SOL    HW1  767   0.198   2.589   0.760 -1.4876 -0.6494  1.1303
  256SOL    HW2  768   0.337   2.687   0.751  0.9372 -2.1684  1.6969
  257SOL     OW  769   0.913   2.402   2.373 -0.1471 -0.3803 -0.3476
  257SOL    HW1  770   0.919   2.300   2.373 -0.9609  0.9459  2.1478
  257SOL    HW2  771   0.817   2.427   2.369  1.0148 -3.0360  2.2015
  258SOL     OW  772   1.492   1.987   1.845 -0.2693  0.1801  0.3685
  258SOL    HW1  773   1.442   1.913   1.893 -0.1662  1.8713  0.3928
  258SOL    HW2  774   1.431   2.028   1.776  0.1197  0.0021  1.5404
  259SOL     OW  775   1.088   0.979   2.076 -0.3277  0.2203  0.2310
  259SOL    HW1  776   1.025   0.905   2.042 -3.1645 -1.0323  1.1662
  259SOL    HW2  777   1.025   1.054   2.102  1.8585 -0.4698  0.6261
  260SOL     OW  778   2.552   0.486   2.248 -0.7817  0.3258 -0.3382
  260SOL    HW1  779   2.470   0.492   2.311  0.7996  1.8108 -1.5363
  260SOL    HW2  780   2.604   0.396   2.252  0.0591 -0.7232 -0.3253
  261SOL     OW  781   0.737   1.271   0.806 -0.2672 -0.1114  0.8821
  261SOL    HW1  782   0.704   1.177   0.819 -0.0642 -0.4970 -1.1794
  261SOL    HW2  783   0.834   1.266   0.769 -0.9399  1.4172 -0.5244
  262SOL     OW  784   2.401   2.202   2.764 -0.3634 -0.1566  0.3590
  262SOL    HW1  785   2.334   2.152   2.708  0.8981  1.2471  2.2177
  262SOL    HW2  786   2.466   2.141   2.808 -0.8601  2.3637 -0.0507
  263SOL     OW  787   0.809   2.686   1.075 -0.2432  0.4807  0.4770
  263SOL    HW1  788   0.791   2.790   1.080 -0.4959  0.6931  0.1022
  263SOL    HW2  789   0.887   2.663   1.134 -1.1676 -0.5342  1.1909
  264SOL     OW  790   3.010   2.125   0.237 -0.3947 -0.5890 -0.2110
  264SOL    HW1  791   2.971   2.107   0.329 -1.7038  0.6970 -1.2677
  264SOL    HW2  792   3.064   2.045   0.200  1.4004 -1.5089 -2.2939
  265SOL     OW  793   1.664   1.216   2.600  0.3867 -0.1534  0.1045
  265SOL    HW1  794   1.671   1.157   2.519  2.2597  3.4856 -0.5768
  265SOL    HW2  795   1.595   1.295   2.582  0.5955  2.9379 -1.0604
  266SOL     OW  796   1.196   1.830   2.239  0.2257  1.0855 -0.4143
  266SOL    HW1  797   1.256   1.892   2.291  1.4584 -0.3280 -2.3167
  266SOL    HW2  798   1.121   1.876   2.188  0.3909  2.5520  1.3514
  267SOL     OW  799   2.326   1.021   2.553  0.1047  0.3702  0.2529
  267SOL    HW1  800   2.228   1.052   2.532 -0.9341 -0.0009  0.6252
  267SOL    HW2  801   2.395   1.060   2.493  1.1679 -0.1391  0.3430
  268SOL     OW  802   0.956   1.048   2.827 -0.2765 -0.3986 -0.5774
  268SOL    HW1  803   0.928   1.117   2.894 -1.3048  0.3740  0.2977
  268SOL    HW2  804   1.042   0.994   2.857  2.7506 -1.3729 -0.1868
  269SOL     OW  805   2.976   1.744   2.007 -0.2019  0.3051 -0.1840
  269SOL    HW1  806   3.001   1.725   1.910  2.9146  2.1655 -1.8292
  269SOL    HW2  807   2.886   1.791   2.016  0.0541  0.3376  1.3720
  270SOL     OW  808   0.070   2.063   3.034 -0.0217  0.0320  0.1444
  270SOL    HW1  809   0.019   1.975   3.015 -1.0254  1.2559  1.3212
  270SOL    HW2  810   0.043   2.136   2.971  1.0481 -2.5446  0.2441
  271SOL     OW  811   0.021   0.432   0.365 -0.0402  0.4113  0.5530
  271SOL    HW1  812   0.111   0.388   0.361  0.9318  0.3160  2.2936
  271SOL    HW2  813   3.017   0.399   0.297 -0.8598  2.3922 -0.8167
  272SOL     OW  814   0.092   0.084   0.317  0.3183  0.3547  0.1596
  272SOL    HW1  815   0.058   0.093   0.223 -1.2475 -2.3285 -0.7497
  272SOL    HW2  816   0.013   0.097   0.383 -2.1068 -0.0683  0.2132
  273SOL     OW  817   0.457   2.944   1.955  0.3174  0.9078  0.7113
  273SOL    HW1  818   0.402   2.955   2.041  1.3138  3.1436  0.6248
  273SOL    HW2  819   0.432   3.020   1.885 -1.0290  0.1594 -2.0128
  274SOL     OW  820   0.182   0.682   1.208  0.6176 -0.1824  0.1849
  274SOL    HW1  821   0.088   0.665   1.174 -0.6124 -0.7839 -0.1626
  274SOL    HW2  822   0.185   0.644   1.303  0.4529 -0.2219 -2.7520
  275SOL     OW  823   0.865   1.679   1.229  0.0542  0.0882 -0.5514
  275SOL    HW1  824   0.921   1.604   1.268 -0.1062 -0.2798  1.3926
  275SOL    HW2  825   0.764   1.658   1.220 -0.3328  1.3615  1.6303
  276SOL     OW  826   0.507   1.309   1.858 -0.2622  1.2247 -0.4384
  276SOL    HW1  827   0.601   1.341   1.836 -1.2061  1.2818 -1.0091
  276SOL    HW2  828   0.498   1.274   1.949  3.7082 -0.1883  0.5264
  277SOL     OW  829   1.020   1.906   2.014  0.1966  0.9411 -0.1478
  277SOL    HW1  830   0.921   1.888   2.009  0.5394 -0.4084 -0.2370
  277SOL    HW2  831   1.069   1.838   1.953  0.9563 -0.4161 -1.1828
  278SOL     OW  832   2.271   2.520   2.206  0.2827  0.1636 -0.1388
  278SOL    HW1  833   2.238   2.591   2.265  0.0086 -0.4341 -2.8318
  278SOL    HW2  834   2.272   2.433   2.261 -1.1038  1.4416  2.0385
  279SOL     OW  835   1.399   1.650   2.971 -0.0633  0.0487  0.2765
  279SOL    HW1  836   1.476   1.584   2.969  3.0887 -0.3316  0.0028
  279SOL    HW2  837   1.415   1.735   2.914  1.2465 -0.8959 -0.4780
  280SOL     OW  838   1.360   0.420   0.355 -0.4304  0.3316 -0.3326
  280SOL    HW1  839   1.405   0.402   0.446  0.9862 -2.3596 -0.2079
  280SOL    HW2  840   1.337   0.520   0.362 -1.1537  1.7331 -1.1250
  281SOL     OW  841   0.529   0.459   1.482 -0.0355 -0.2894  0.3293
  281SOL    HW1  842   0.517   0.558   1.486 -1.0367 -2.6428 -0.5637
  281SOL    HW2  843   0.592   0.429   1.558 -0.0803  1.7498 -1.5030
  282SOL     OW  844   0.122   2.907   0.644 -0.2684 -0.3797 -0.0170
  282SOL    HW1  845   0.169   2.974   0.589 -0.8481  0.2679  1.7470
  282SOL    HW2  846   0.173   2.820   0.645 -2.6596 -0.7162 -0.1340
  283SOL     OW  847   1.275   1.922   1.474  0.3306 -0.2838 -0.9812
  283SOL    HW1  848   1.210   1.941   1.397  1.0146 -2.8855  0.1700
  283SOL    HW2  849   1.283   1.825   1.488 -2.3925  1.5302 -0.3743
  284SOL     OW  850   2.559   2.882   1.219  0.4181  0.2248  0.0824
  284SOL    HW1  851   2.624   2.814   1.259 -2.5098  1.4173 -2.0428
  284SOL    HW2  852   2.503   2.833   1.147 -2.3465 -1.4390  1.5910
  285SOL     OW  853   0.525   2.307   0.835 -0.3293 -0.3696 -0.2185
  285SOL    HW1  854   0.575   2.397   0.834  2.1364  0.9778  0.7030
  285SOL    HW2  855   0.455   2.306   0.759  2.1287 -3.0236 -0.2309
  286SOL     OW  856   0.048   2.543   1.505 -0.5304 -0.3065 -0.2656
  286SOL    HW1  857   0.075   2.608   1.581  3.4810 -0.5987  0.8533
  286SOL    HW2  858   0.123   2.472   1.513  0.1360 -3.5941  1.9403
  287SOL     OW  859   0.377   1.162   0.751 -0.6798 -0.1643  0.3945
  287SOL    HW1  860   0.350   1.233   0.682 -1.9704  1.1157 -2.1325
  287SOL    HW2  861   0.408   1.077   0.707 -2.6779  1.2088 -1.6579
  288SOL     OW  862   1.105   1.769   2.671 -0.7925 -0.6476 -0.1606
  288SOL    HW1  863   1.195   1.817   2.652  3.6921 -0.0060  1.0373
  288SOL    HW2  864   1.032   1.833   2.677  1.2715 -1.4577  0.3331
  289SOL     OW  865   2.590   1.675   2.842 -0.3140 -0.1565 -0.5190
  289SOL    HW1  866   2.569   1.689   2.943 -2.2120 -0.5474 -0.1090
  289SOL    HW2  867   2.504   1.671   2.793  2.3385  0.5775  0.0595
  290SOL     OW  868   1.186   1.261   0.948  0.5417  0.0159  0.1261
  290SOL    HW1  869   1.125   1.232   1.023  1.9647  0.4710 -0.9920
  290SOL    HW2  870   1.243   1.342   0.970 -1.4711  1.4878 -0.9586
  291SOL     OW  871   1.221   0.955   2.889 -0.1585  0.6425  0.7259
  291SOL    HW1  872   1.247   1.048   2.847  0.6505  2.9755 -2.5244
  291SOL    HW2  873   1.286   0.884   2.854 -0.3713 -0.4846  1.6350
  292SOL     OW  874   1.601   1.784   0.192  0.3464 -0.2238 -0.3079
  292SOL    HW1  875   1.575   1.690   0.149 -1.0863 -0.7894 -1.2923
  292SOL    HW2  876   1.524   1.851   0.189  1.1780  0.3090  0.2702
  293SOL     OW  877   1.484   0.011   0.968  0.2990  0.1402 -0.4559
  293SOL    HW1  878   1.492   0.043   1.064  2.2533 -3.6533  0.0699
  293SOL    HW2  879   1.502   0.090   0.906 -0.0665  0.4967 -0.2759
  294SOL     OW  880   2.099   1.003   0.469  0.0097  0.2179  0.2093
  294SOL    HW1  881   2.120   0.949   0.385  0.6778  3.0170  0.7240
  294SOL    HW2  882   2.184   1.016   0.526 -0.4736 -0.9070  0.8125
  295SOL     OW  883   1.948   1.890   2.663 -0.1306  0.6436  0.0162
  295SOL    HW1  884   1.888   1.809   2.662  1.4194 -0.1000  0.6980
  295SOL    HW2  885   1.927   1.967   2.598  0.5468 -1.0971  1.0132
  296SOL     OW  886   1.259   1.182   1.379  0.2787 -0.1971 -0.2545
  296SOL    HW1  887   1.161   1.207   1.403 -0.3843 -0.0615  1.1792
  296SOL    HW2  888   1.256   1.081   1.352 -1.6552 -1.9920 -4.7384
  297SOL     OW  889   0.057   0.717   2.438  0.3443 -0.2586 -0.2705
  297SOL    HW1  890   0.158   0.716   2.431 -0.8602 -1.6183 -2.1156
  297SOL    HW2  891   0.022   0.749   2.530  0.1886  1.1723  1.3564
  298SOL     OW  892   1.488   2.119   1.384 -0.5604  0.6698  0.2369
  298SOL    HW1  893   1.436   2.040   1.428  2.2393  0.5525 -0.7113
  298SOL    HW2  894   1.547   2.164   1.449  0.1908 -1.5951 -1.3667
  299SOL     OW  895   1.148   0.488   2.519 -0.2738 -0.3175  0.0937
  299SOL    HW1  896   1.201   0.485   2.605  1.1200  0.0871  1.8067
  299SOL    HW2  897   1.098   0.399   2.499  0.8705  0.0305 -2.1576
  300SOL     OW  898   2.298   1.479   0.268  0.0009 -0.4231 -0.1102
  300SOL    HW1  899   2.311   1.408   0.196 -0.5909  0.2801 -0.3356
  300SOL    HW2  900   2.388   1.521   0.297  2.3987  1.1467  1.2532
  301SOL     OW  901   2.091   0.380   2.686 -0.2119 -0.0288 -0.4299
  301SOL    HW1  902   2.158   0.452   2.674  3.3410 -2.0342  0.3094
  301SOL    HW2  903   2.117   0.333   2.770  0.0569 -1.9343 -0.1260
  302SOL     OW  904   2.680   2.036   2.603 -0.6525 -0.1011  0.8451
  302SOL    HW1  905   2.764   2.042   2.662  0.4343 -2.7494  0.5918
  302SOL    HW2  906   2.650   2.127   2.569  0.5288 -0.4691  0.1195
  303SOL     OW  907   0.379   2.504   2.196 -0.4258  0.4600 -0.0373
  303SOL    HW1  908   0.459   2.486   2.261 -0.7960  0.9315  2.3063
  303SOL    HW2  909   0.294   2.474   2.242 -1.0558 -1.7494  2.1615
  304SOL     OW  910   2.738   1.542   1.463 -0.1368 -0.8573 -0.1096
  304SOL    HW1  911   2.768   1.452   1.420  1.2810 -1.1084  2.3910
  304SOL    HW2  912   2.731   1.617   1.396  0.3529  0.2649 -2.8608
  305SOL     OW  913   0.345   0.341   2.170  0.3745  0.2852 -0.1540
  305SOL    HW1  914   0.430   0.340   2.118 -3.6543 -1.1706  2.7824
  305SOL    HW2  915   0.305   0.248   2.169 -1.6761 -3.0198 -2.8141
  306SOL     OW  916   1.221   1.498   0.685 -0.8897  0.1838  0.3709
  306SOL    HW1  917   1.210   1.401   0.662 -0.0633  0.8021  0.4408
  306SOL    HW2  918   1.298   1.535   0.625 -1.9041 -0.3714 -1.8929
  307SOL     OW  919   2.904   0.035   1.034  0.1763 -0.3884 -0.2639
  307SOL    HW1  920   3.001   0.031   1.052 -1.3628 -2.6225  1.2610
  307SOL    HW2  921   2.887   0.015   0.928 -0.3355 -0.8015 -2.8744
  308SOL     OW  922   3.005   1.341   2.584 -0.8656 -0.2323  0.4942
  308SOL    HW1  923   2.921   1.352   2.640  1.4569 -1.5645  0.2767
  308SOL    HW2  924   2.994   1.260   2.522 -0.6168 -0.2658 -0.3202
  309SOL     OW  925   2.910   1.872   2.524  0.7042  0.0657  0.1158
  309SOL    HW1  926   2.900   1.799   2.597 -0.2668 -1.0885  2.0557
  309SOL    HW2  927   2.836   1.941   2.534  0.2470  0.0701  0.7341
  310SOL     OW  928   2.158   0.570   0.197  0.1830 -0.3154 -0.0123
  310SOL    HW1  929   2.227   0.614   0.134 -0.6219 -1.7474 -1.0025
  310SOL    HW2  930   2.111   0.497   0.136 -4.7085 -3.2599 -2.9432
  311SOL     OW  931   2.048   1.126   2.987  0.3321 -0.2181 -0.4857
  311SOL    HW1  932   2.065   1.197   2.913 -1.5273 -1.2311 -1.7062
  311SOL    HW2  933   1.950   1.091   2.985 -4.0798  0.8129  0.0421
  312SOL     OW  934   1.269   1.518   1.930 -0.6423  0.2102 -0.2868
  312SOL    HW1  935   1.312   1.607   1.955  1.1225 -0.0195  0.6655
  312SOL    HW2  936   1.250   1.462   2.014 -0.6785  2.1647  1.5749
  313SOL     OW  937   0.124   0.672   0.234  0.6512  0.4602 -0.1681
  313SOL    HW1  938   0.107   0.680   0.133 -2.4802 -1.5512  0.1958
  313SOL    HW2  939   0.075   0.591   0.269 -1.4817 -0.0036  1.9714
  314SOL     OW  940   0.268   1.782   1.363  0.7962  0.1648 -0.1578
  314SOL    HW1  941   0.320   1.836   1.431  0.1165  0.0178  1.4837
  314SOL    HW2  942   0.259   1.685   1.388  1.8463 -2.6138  1.7184
  315SOL     OW  943   1.048   1.534   1.359  0.5132  0.0966  0.0861
  315SOL    HW1  944   1.060   1.535   1.460 -3.2058 -1.1062  0.3585
  315SOL    HW2  945   1.136   1.557   1.313 -0.0115  3.3078  1.4331
  316SOL     OW  946   0.347   2.306   0.613 -0.0090 -0.4036 -0.0618
  316SOL    HW1  947   0.300   2.381   0.666 -2.4590 -2.0298  2.0307
  316SOL    HW2  948   0.283   2.261   0.546  0.4769 -1.9725  0.1672
  317SOL     OW  949   2.440   0.181   1.268 -0.4124  0.7497  0.0984
  317SOL    HW1  950   2.479   0.231   1.344 -1.0979 -2.0421 -0.0115
  317SOL    HW2  951   2.523   0.140   1.219 -0.3534  0.5142 -0.6609
  318SOL     OW  952   1.287   2.961   0.113  0.0610 -0.1275  0.0252
  318SOL    HW1  953   1.315   2.960   0.016 -2.5190 -2.4983 -0.7542
  318SOL    HW2  954   1.214   3.031   0.121  0.0542 -1.0313  1.9976
  319SOL     OW  955   1.379   0.500   2.685 -0.4638  0.0890  0.0530
  319SOL    HW1  956   1.475   0.510   2.649  1.8311 -2.0313  0.7781
  319SOL    HW2  957   1.345   0.578   2.740 -1.7281  0.8822 -1.6348
  320SOL     OW  958   2.942   2.024   1.836  0.9981 -0.3312 -0.0540
  320SOL    HW1  959   2.859   1.979   1.880  0.8165 -1.3359 -1.5338
  320SOL    HW2  960   3.002   1.956   1.788 -0.4922  2.2350  0.5338
  321SOL     OW  961   0.259   2.402   2.900  0.0062 -0.1718  0.0779
  321SOL    HW1  962   0.260   2.460   2.983 -0.5361  1.1818  1.6419
  321SOL    HW2  963   0.169   2.354   2.899  1.6233  2.0025 -0.1633
  322SOL     OW  964   2.718   0.976   2.100  0.0835  0.1243  0.5256
  322SOL    HW1  965   2.657   1.061   2.111 -3.8900  3.8635  2.4209
  322SOL    HW2  966   2.676   0.908   2.037  0.4415  0.7793 -2.0656
  323SOL     OW  967   1.900   1.275   0.447  0.2277  0.1781 -0.3254
  323SOL    HW1  968   1.905   1.206   0.371 -0.4580  3.5733  0.8981
  323SOL    HW2  969   1.822   1.256   0.507  0.7891  1.9222 -0.9092
  324SOL     OW  970   3.013   0.333   1.346 -0.6188  0.5840  0.0978
  324SOL    HW1  971   0.029   0.288   1.394  2.8351  0.1116  0.2459
  324SOL    HW2  972   3.036   0.339   1.249 -0.4295 -0.3735  2.1032
  325SOL     OW  973   2.600   3.023   1.500 -0.7119  0.4516  0.0539
  325SOL    HW1  974   2.610   2.993   1.404 -1.5804  1.2136  0.6384
  325SOL    HW2  975   2.643   0.047   1.516  0.2236 -3.1711 -1.0262
  326SOL     OW  976   1.644   2.609   0.197  0.0871 -0.3828  0.3706
  326SOL    HW1  977   1.560   2.568   0.242 -0.4735 -0.8735  1.6123
  326SOL    HW2  978   1.717   2.539   0.192 -0.4031 -2.1365 -0.6589
  327SOL     OW  979   1.880   2.190   0.397  0.0390 -0.1887  0.3490
  327SOL    HW1  980   1.899   2.139   0.484  1.7507  2.4097  0.4889
  327SOL    HW2  981   1.838   2.129   0.327  0.3832  1.0534  0.7883
  328SOL     OW  982   0.022   2.261   1.853 -0.2833 -0.2214  0.2569
  328SOL    HW1  983   3.032   2.174   1.872 -1.2123 -1.4383  2.2396
  328SOL    HW2  984   3.050   2.345   1.893  1.3710 -1.6606  0.8412
  329SOL     OW  985   3.037   2.107   1.167  0.1665  0.0715  0.0137
  329SOL    HW1  986   2.999   2.129   1.257  0.7679  0.8143 -2.1049
  329SOL    HW2  987   3.012   2.014   1.144  1.9908  1.9357 -0.1003
  330SOL     OW  988   2.193   0.749   2.445 -0.2714 -0.5079  0.6342
  330SOL    HW1  989   2.092   0.765   2.454 -1.6038  1.8032  0.7113
  330SOL    HW2  990   2.241   0.824   2.490  0.0633 -0.8183 -0.4294
  331SOL     OW  991   2.377   1.385   0.619  0.0057 -0.1590 -0.1546
  331SOL    HW1  992   2.298   1.396   0.556  1.7336  1.8923  0.7201
  331SOL    HW2  993   2.414   1.475   0.640 -0.1282 -0.6563  4.1929
  332SOL     OW  994   0.054   2.773   1.183  0.4987 -0.2609  0.5723
  332SOL    HW1  995   0.131   2.753   1.120 -1.5249  1.2590  1.0332
  332SOL    HW2  996   0.081   2.839   1.255  4.1068  0.5294  0.1468
  333SOL     OW  997   0.040   1.798   2.360  0.0889  0.5120  0.2916
  333SOL    HW1  998   0.022   1.846   2.273  0.2575  0.7363 -0.3685
  333SOL    HW2  999   3.034   1.829   2.421  0.5730  1.9350  0.1070
  334SOL     OW 1000   0.282   0.785   0.982  0.4219  0.0050  0.1569
  334SOL    HW1 1001   0.235   0.740   1.062  0.8897  1.7250  0.5728
  334SOL    HW2 1002   0.350   0.851   1.012  0.9080 -1.4007 -2.0317
  335SOL     OW 1003   0.034   1.514   2.009  0.1908  0.3713 -0.0333
  335SOL    HW1 1004   3.046   1.599   2.035 -2.7227  0.8351 -1.2468
  335SOL    HW2 1005   0.053   1.455   2.091 -0.7495  0.8011 -0.4915
  336SOL     OW 1006   2.144   2.735   2.361 -0.5177  0.6787  0.3639
  336SOL    HW1 1007   2.164   2.723   2.455  2.0641 -3.9783 -3.9447
  336SOL    HW2 1008   2.059   2.694   2.328 -2.4854 -1.8733 -0.2674
  337SOL     OW 1009   0.899   0.714   1.294 -0.2015  0.0002 -0.2740
  337SOL    HW1 1010   0.792   0.726   1.282 -2.0338 -1.7801  2.6194
  337SOL    HW2 1011   0.954   0.771   1.230 -0.1571  0.7143 -0.9623
  338SOL     OW 1012   1.491   2.104   1.085 -0.1900 -0.6680  0.2137
  338SOL    HW1 1013   1.500   2.115   1.184  0.7346 -0.4547 -1.7460
  338SOL    HW2 1014   1.501   2.006   1.064 -2.2321 -0.2258  0.9204
  339SOL     OW 1015   0.026   1.770   1.249  0.4530 -0.4094 -0.3414
  339SOL    HW1 1016   0.109   1.769   1.308  2.9273 -0.7626 -1.0989
  339SOL    HW2 1017   3.015   1.816   1.297  1.0562  1.9934 -2.6110
  340SOL     OW 1018   0.790   0.128   2.160 -0.3995 -0.5886 -0.1829
  340SOL    HW1 1019   0.767   0.071   2.079  1.5458  2.0093 -1.7586
  340SOL    HW2 1020   0.731   0.119   2.244  0.8595  1.1431  4.0298
  341SOL     OW 1021   1.902   1.565   0.520  0.6599  0.0387 -0.2950
  341SOL    HW1 1022   1.982   1.608   0.476 -1.9338 -0.0878 -0.1605
  341SOL    HW2 1023   1.897   1.467   0.502 -3.1916  0.0370 -1.4438
  342SOL     OW 1024   1.651   1.555   0.411 -0.3775 -0.2170  0.7578
  342SOL    HW1 1025   1.660   1.540   0.309  0.2873 -1.0892  1.4005
  342SOL    HW2 1026   1.738   1.594   0.448  2.8538 -3.1889  3.8137
  343SOL     OW 1027   1.835   0.093   0.895 -0.5524 -1.0520  0.2051
  343SOL    HW1 1028   1.846   0.145   0.985  2.4378  3.0260 -0.1059
  343SOL    HW2 1029   1.795   0.001   0.917  1.8967  2.2675  1.8332
  344SOL     OW 1030   2.698   0.098   2.859  0.1528 -0.0129 -0.8391
  344SOL    HW1 1031   2.725   0.038   2.941  1.4252 -2.3626  0.3435
  344SOL    HW2 1032   2.605   0.074   2.830 -1.0678  1.0543 -1.4671
  345SOL     OW 1033   1.482   2.550   1.536 -0.1763 -0.6661 -0.4870
  345SOL    HW1 1034   1.557   2.605   1.573  2.0015  0.4637 -2.1378
  345SOL    HW2 1035   1.426   2.500   1.605 -1.0779 -2.0081 -0.4770
  346SOL     OW 1036   2.305   1.993   1.384  0.4395  0.0084  0.3871
  346SOL    HW1 1037   2.243   1.991   1.301 -2.3745  0.1010 -3.4435
  346SOL    HW2 1038   2.282   2.068   1.446 -1.2289 -2.2456 -2.3136
  347SOL     OW 1039   1.949   2.811   1.169 -0.1076 -0.2800  0.1681
  347SOL    HW1 1040   1.999   2.847   1.088 -0.1676 -1.4959  0.4820
  347SOL    HW2 1041   1.991   2.854   1.249 -1.3149 -2.6429 -0.4456
  348SOL     OW 1042   0.724   1.084   1.444 -0.1983  0.2354 -0.0873
  348SOL    HW1 1043   0.651   1.087   1.518 -1.9805  0.5893  1.1770
  348SOL    HW2 1044   0.688   1.061   1.350  0.8537 -1.3504 -2.3169
  349SOL     OW 1045   2.224   0.231   2.895 -0.6388 -0.3191 -0.0561
  349SOL    HW1 1046   2.258   0.326   2.917  0.9775  1.5244  1.7240
  349SOL    HW2 1047   2.305   0.170   2.883  1.6815 -0.7951  0.2923
  350SOL     OW 1048   2.194   1.970   2.957 -0.6390  0.0687  0.1457
  350SOL    HW1 1049   2.223   1.873   2.970  3.5028 -0.3047  0.2919
  350SOL    HW2 1050   2.208   2.037   3.035 -0.1537  2.1385  1.1734
  351SOL     OW 1051   1.124   0.306   0.618 -0.6902 -1.1151  0.1936
  351SOL    HW1 1052   1.157   0.243   0.543 -1.3145  1.9113 -0.9246
  351SOL    HW2 1053   1.150   0.406   0.596  0.9870  5.4789 -2.1064
  352SOL     OW 1054   1.954   2.069   2.444  0.3505 -0.2056 -0.1355
  352SOL    HW1 1055   1.891   2.150   2.457 -1.6906  4.0791  0.3969
  352SOL    HW2 1056   2.048   2.096   2.423  1.7847 -3.4840  0.4899
  353SOL     OW 1057   0.157   0.726   3.025 -0.1522  0.3814  0.3868
  353SOL    HW1 1058   0.231   0.666   2.988  1.0697  2.4148 -1.0102
  353SOL    HW2 1059   0.150   0.817   2.975  1.0637  0.5930 -0.6151
  354SOL     OW 1060   1.065   2.282   3.053  0.4304 -0.1110 -0.4918
  354SOL    HW1 1061   0.989   2.230   0.023  3.5120  0.6233  2.8402
  354SOL    HW2 1062   1.129   2.306   0.065  1.3575  1.7717  0.9587
  355SOL     OW 1063   2.692   2.764   1.699 -0.2405  0.2986  0.0938
  355SOL    HW1 1064   2.713   2.819   1.785  1.5662  0.4609  2.8161
  355SOL    HW2 1065   2.595   2.744   1.676  1.2331  1.8093 -0.8614
  356SOL     OW 1066   2.702   1.115   0.692 -0.1353  0.0592  0.3600
  356SOL    HW1 1067   2.642   1.035   0.685 -0.4311  2.4426  0.3430
  356SOL    HW2 1068   2.662   1.177   0.762 -2.7320  0.4241 -0.5099
  357SOL     OW 1069   2.787   0.337   1.080 -0.1651  0.2739  0.2412
  357SOL    HW1 1070   2.746   0.256   1.122  0.6259  2.0597 -1.3689
  357SOL    HW2 1071   2.891   0.323   1.081  1.2113 -0.9951  0.2405
  358SOL     OW 1072   1.213   2.332   1.256  0.1804 -0.4339 -0.5208
  358SOL    HW1 1073   1.183   2.400   1.188  0.2272 -1.4094 -0.1447
  358SOL    HW2 1074   1.310   2.343   1.272 -0.9623  2.1248  0.5854
  359SOL     OW 1075   0.050   2.595   2.747  0.7824 -0.1812  0.1854
  359SOL    HW1 1076   0.147   2.577   2.716  2.9680 -0.6692 -3.5744
  359SOL    HW2 1077   0.047   2.689   2.781  0.3114 -0.1621 -2.2884
  360SOL     OW 1078   1.089   0.749   1.744 -0.1144  0.3412  0.2687
  360SOL    HW1 1079   1.118   0.845   1.732  1.9325  0.0719  1.9101
  360SOL    HW2 1080   1.016   0.724   1.676  3.2880 -0.6774  1.5956
  361SOL     OW 1081   2.334   0.084   0.586 -0.2263  0.1752  0.8004
  361SOL    HW1 1082   2.365   0.163   0.637 -0.8825 -1.1256  0.1541
  361SOL    HW2 1083   2.234   0.078   0.576 -0.7149  2.9409 -0.0146
  362SOL     OW 1084   0.193   3.017   0.870 -0.3343 -0.2197  0.1144
  362SOL    HW1 1085   0.156   2.957   0.800 -0.7908 -1.1269  0.8047
  362SOL    HW2 1086   0.274   0.006   0.838 -0.5598  0.6263 -3.1370
  363SOL     OW 1087   0.634   1.255   0.444  0.3009 -0.0370  0.0642
  363SOL    HW1 1088   0.641   1.154   0.455 -0.7364 -0.1980  0.0546
  363SOL    HW2 1089   0.727   1.302   0.462  3.3136  1.1069 -0.0006
  364SOL     OW 1090   0.549   1.089   1.682 -0.5866  0.0093 -0.2274
  364SOL    HW1 1091   0.524   0.996   1.716  1.5128 -2.4458  1.7738
  364SOL    HW2 1092   0.514   1.157   1.750  0.1981  1.4688  0.8246
  365SOL     OW 1093   2.783   1.433   0.323 -0.5512 -0.4422  0.2533
  365SOL    HW1 1094   2.787   1.345   0.370  0.7075 -0.4801  1.0928
  365SOL    HW2 1095   2.691   1.477   0.324  1.5634  2.6297  2.6231
  366SOL     OW 1096   2.582   1.529   0.872 -0.6448 -0.7185 -0.1740
  366SOL    HW1 1097   2.592   1.428   0.891  2.4622  1.3792  1.4366
  366SOL    HW2 1098   2.673   1.574   0.862  0.1719  2.2770  0.0651
  367SOL     OW 1099   2.085   1.906   2.017  0.1247 -0.0956  0.1902
  367SOL    HW1 1100   2.070   1.973   1.944 -0.7114  0.1304  0.6497
  367SOL    HW2 1101   2.050   1.813   2.002  0.5404 -1.3528  2.0639
  368SOL     OW 1102   2.643   1.260   0.898 -0.0078 -0.7707  0.2582
  368SOL    HW1 1103   2.719   1.285   0.954 -3.2287 -2.0133 -0.9092
  368SOL    HW2 1104   2.571   1.201   0.941 -0.4928 -0.1254 -0.2779
  369SOL     OW 1105   2.213   2.455   0.197  0.2913 -0.0325 -0.6970
  369SOL    HW1 1106   2.306   2.493   0.177  2.0855 -0.0608  3.6764
  369SOL    HW2 1107   2.141   2.532   0.189 -1.3521  0.5352 -2.6456
  370SOL     OW 1108   2.864   0.054   1.405  0.3202  0.1311 -0.4997
  370SOL    HW1 1109   2.840   3.051   1.333  0.5716  1.1851  0.5032
  370SOL    HW2 1110   2.902   0.137   1.368  2.0468 -0.1447  2.4530
  371SOL     OW 1111   0.645   1.503   3.063 -0.4893  0.0686  0.5542
  371SOL    HW1 1112   0.713   1.552   0.059  4.4926 -0.2539  0.4041
  371SOL    HW2 1113   0.563   1.563   3.050 -2.1563 -1.7851 -1.7817
  372SOL     OW 1114   0.986   1.151   0.246  0.1313 -0.1172 -0.0153
  372SOL    HW1 1115   0.890   1.151   0.209  1.6241 -0.8935  0.7421
  372SOL    HW2 1116   1.038   1.089   0.186  2.1405  1.5584  1.0544
  373SOL     OW 1117   1.554   2.591   2.767 -0.2184  0.6006 -0.0881
  373SOL    HW1 1118   1.647   2.546   2.762  1.7795 -0.4398  2.3214
  373SOL    HW2 1119   1.540   2.641   2.854 -0.1351  0.7876 -1.2940
  374SOL     OW 1120   0.237   2.116   0.157  0.1556  0.8261 -0.1645
  374SOL    HW1 1121   0.321   2.174   0.158 -2.2140 -2.1308  2.5732
  374SOL    HW2 1122   0.181   2.128   0.075  1.1224  0.6393 -1.7714
  375SOL     OW 1123   0.749   1.372   1.736  0.5549 -0.7090 -0.2180
  375SOL    HW1 1124   0.726   1.420   1.651 -1.8502  1.9543  0.7326
  375SOL    HW2 1125   0.833   1.319   1.718  1.6906  2.7825 -0.1071
  376SOL     OW 1126   0.679   2.358   1.846 -0.5531  0.3929 -0.4080
  376SOL    HW1 1127   0.649   2.402   1.755 -3.6604  2.7160 -3.0218
  376SOL    HW2 1128   0.597   2.336   1.904  1.3061 -1.8916 -0.4167
  377SOL     OW 1129   2.750   1.504   2.099  0.4683  0.6405 -0.4966
  377SOL    HW1 1130   2.780   1.583   2.156 -0.2406 -1.5246  3.3976
  377SOL    HW2 1131   2.804   1.422   2.119 -0.9415  1.0834 -0.3866
  378SOL     OW 1132   0.972   2.960   3.004  0.8011 -0.8692 -0.4866
  378SOL    HW1 1133   1.025   2.933   2.923 -2.3503  1.3277  2.7925
  378SOL    HW2 1134   1.019   3.036   3.053  1.7037  3.1430 -1.6840
  379SOL     OW 1135   2.069   0.402   0.656  0.0126  0.3542  0.2128
  379SOL    HW1 1136   2.100   0.379   0.559  1.8875  0.9817 -2.0388
  379SOL    HW2 1137   2.075   0.316   0.716  0.0133  0.1991  0.5761
  380SOL     OW 1138   2.910   1.896   1.407 -1.2444  0.0712 -0.5335
  380SOL    HW1 1139   2.813   1.908   1.401  1.0074 -1.7217  0.9710
  380SOL    HW2 1140   2.957   1.981   1.439 -0.7853  3.7572  0.2606
  381SOL     OW 1141   1.869   1.881   1.797  0.1635  0.0702  0.1819
  381SOL    HW1 1142   1.846   1.913   1.890 -0.8251 -0.9092 -1.1514
  381SOL    HW2 1143   1.823   1.930   1.715 -0.4848  0.9022  0.2999
  382SOL     OW 1144   0.066   0.395   2.564 -0.9978 -0.0273 -0.2115
  382SOL    HW1 1145   0.153   0.405   2.510  1.4829 -1.9193 -2.4720
  382SOL    HW2 1146   3.050   0.376   2.504 -0.2683  0.2386 -1.3465
  383SOL     OW 1147   1.823   1.387   2.384  0.0478  0.0025 -0.0003
  383SOL    HW1 1148   1.849   1.288   2.397  2.3061  1.0254  2.1459
  383SOL    HW2 1149   1.909   1.437   2.358 -0.3133  1.7974 -2.1070
  384SOL     OW 1150   1.150   2.054   1.263  0.3784 -0.3516 -0.2006
  384SOL    HW1 1151   1.171   2.153   1.267  0.1754 -1.1070  2.2314
  384SOL    HW2 1152   1.067   2.038   1.319 -0.7401  1.2607 -1.7312
  385SOL     OW 1153   1.786   2.443   0.755  0.4635 -0.5397  0.2064
  385SOL    HW1 1154   1.723   2.505   0.810 -1.3947  0.0650  3.5761
  385SOL    HW2 1155   1.835   2.493   0.679 -1.2526 -0.5913  1.0109
  386SOL     OW 1156   2.054   1.792   0.768 -0.3852 -1.0402  0.4499
  386SOL    HW1 1157   1.971   1.821   0.717  1.7582  0.9746  2.8486
  386SOL    HW2 1158   2.046   1.707   0.821 -0.1412  3.0938  0.9416
  387SOL     OW 1159   0.287   2.317   1.469  0.3337 -0.6183  0.2184
  387SOL    HW1 1160   0.266   2.295   1.370 -1.4900  1.8367 -3.8952
  387SOL    HW2 1161   0.234   2.247   1.524 -2.3682  2.1388  0.9160
  388SOL     OW 1162   2.893   0.529   1.710  0.9778 -0.0121 -0.1703
  388SOL    HW1 1163   2.944   0.614   1.727 -0.1646 -2.4918 -1.0818
  388SOL    HW2 1164   2.859   0.482   1.791 -0.6450  0.5976 -0.3378
  389SOL     OW 1165   1.696   1.127   0.598  0.2550  0.0746 -0.0477
  389SOL    HW1 1166   1.651   1.155   0.687  1.7247 -1.6961  0.0057
  389SOL    HW2 1167   1.763   1.054   0.614  0.7988  0.8411  0.8524
  390SOL     OW 1168   0.947   1.985   2.695 -0.5755  0.7962 -0.2514
  390SOL    HW1 1169   0.902   1.962   2.603 -1.3034 -1.3270 -3.3638
  390SOL    HW2 1170   1.001   2.071   2.687 -1.0720 -2.9054  1.3348
  391SOL     OW 1171   0.776   2.027   2.935  0.4243  0.9922 -0.1361
  391SOL    HW1 1172   0.808   2.007   2.843 -1.4741  0.0572  2.1614
  391SOL    HW2 1173   0.678   2.052   2.935  1.8891  0.1761  1.0494
  392SOL     OW 1174   0.005   2.760   1.717 -0.2865 -0.0324 -0.5059
  392SOL    HW1 1175   3.010   2.814   1.654  1.9465 -1.8762 -0.5288
  392SOL    HW2 1176   0.003   2.807   1.807 -1.2073  2.1732 -1.1231
  393SOL     OW 1177   1.840   2.405   0.203 -0.2298 -0.1189  0.4892
  393SOL    HW1 1178   1.853   2.314   0.243 -2.1062  2.2347  3.2131
  393SOL    HW2 1179   1.931   2.445   0.171  0.2998  2.4251  1.0856
  394SOL     OW 1180   0.771   0.508   2.295 -0.5905 -0.4309  0.9490
  394SOL    HW1 1181   0.763   0.426   2.352 -0.4295  4.8611 -2.5786
  394SOL    HW2 1182   0.840   0.493   2.224 -0.1779  0.2865  0.0897
  395SOL     OW 1183   0.416   1.179   1.218  0.0258 -0.6324  0.0565
  395SOL    HW1 1184   0.371   1.091   1.212  1.2723  3.9341  0.7998
  395SOL    HW2 1185   0.425   1.207   1.317  0.4027  0.9120  2.7460
  396SOL     OW 1186   1.680   1.476   2.153 -0.2916  0.4729  0.4912
  396SOL    HW1 1187   1.724   1.388   2.133  0.2614  2.5704  0.1164
  396SOL    HW2 1188   1.714   1.524   2.237  0.6054  1.7580 -3.2425
  397SOL     OW 1189   0.786   0.451   0.059  0.1758 -0.3698 -0.1690
  397SOL    HW1 1190   0.828   0.394   0.133  1.5616 -2.1384 -0.5404
  397SOL    HW2 1191   0.765   0.389   3.044  0.6404 -1.2587  0.7303
  398SOL     OW 1192   0.684   1.762   2.738  0.2521 -0.1845 -0.7416
  398SOL    HW1 1193   0.624   1.817   2.677 -1.8801 -0.6900  0.1783
  398SOL    HW2 1194   0.680   1.664   2.718  2.5631 -0.7572 -2.2392
  399SOL     OW 1195   2.823   1.718   2.289  0.3154  0.1310 -0.0342
  399SOL    HW1 1196   2.846   1.813   2.324  0.9606  0.8086 -0.9985
  399SOL    HW2 1197   2.883   1.645   2.329  0.8997 -1.3582 -2.7415
  400SOL     OW 1198   2.229   0.976   1.643  0.0814  0.3429  0.1595
  400SOL    HW1 1199   2.268   1.070   1.606  3.1377  1.4002 -2.9303
  400SOL    HW2 1200   2.249   0.901   1.572  1.6810 -0.7742 -0.9029
  401SOL     OW 1201   1.046   1.695   0.735  0.2300 -0.4507  0.3717
  401SOL    HW1 1202   1.006   1.686   0.831 -1.0302 -1.6924  0.3285
  401SOL    HW2 1203   1.119   1.626   0.723 -0.9903  0.7321 -2.8679
  402SOL     OW 1204   0.104   2.698   2.131  0.5198  0.3041 -0.1205
  402SOL    HW1 1205   0.199   2.671   2.102 -0.0823 -0.8527  0.9426
  402SOL    HW2 1206   0.066   2.767   2.066 -0.5580  1.4029 -0.6573
  403SOL     OW 1207   0.380   1.319   2.549  0.1446  0.0670  0.0078
  403SOL    HW1 1208   0.311   1.372   2.599  1.7732 -1.4447  1.0651
  403SOL    HW2 1209   0.349   1.226   2.516 -1.1899 -1.2966  1.4943
  404SOL     OW 1210   1.920   2.148   1.491 -0.2389  0.3511 -0.6606
  404SOL    HW1 1211   1.984   2.213   1.545 -0.1256  0.1898  3.7681
  404SOL    HW2 1212   1.966   2.055   1.478  0.9107 -1.1293 -0.8991
  405SOL     OW 1213   2.970   2.917   2.974  0.0187 -0.9270 -0.0741
  405SOL    HW1 1214   2.944   2.836   3.029 -1.9178  1.7190  1.4789
  405SOL    HW2 1215   3.038   2.897   2.899  1.0024  0.2802  4.2427
  406SOL     OW 1216   0.685   0.904   0.140 -0.5557  0.0490  0.1902
  406SOL    HW1 1217   0.709   0.863   0.050 -0.6763 -2.5164 -2.0298
  406SOL    HW2 1218   0.700   1.002   0.159 -0.3782 -0.4335 -1.0987
  407SOL     OW 1219   2.024   2.437   2.942 -0.0497  0.0493  0.5722
  407SOL    HW1 1220   2.045   2.354   2.989 -0.6179  1.8465  0.2174
  407SOL    HW2 1221   2.109   2.456   2.889 -2.6195 -2.0467 -2.0994
  408SOL     OW 1222   2.898   3.043   0.238  0.6481  0.1101 -0.1622
  408SOL    HW1 1223   2.941   3.031   0.327 -0.6289 -0.1647 -2.1073
  408SOL    HW2 1224   2.969   3.062   0.169 -0.7234 -1.3636  0.1390
  409SOL     OW 1225   2.134   1.470   0.742  0.3854  0.1260  0.0335
  409SOL    HW1 1226   2.121   1.491   0.642 -0.1915  2.5833 -0.7255
  409SOL    HW2 1227   2.189   1.385   0.754 -0.4575  1.7556  1.0795
  410SOL     OW 1228   2.697   2.116   0.259  0.1657  0.2542  0.3880
  410SOL    HW1 1229   2.612   2.170   0.250  0.9193 -1.4517 -0.7400
  410SOL    HW2 1230   2.733   2.092   0.171 -0.6066  0.6257  2.8802
  411SOL     OW 1231   3.063   1.505   0.797  0.3484 -0.1426 -0.8862
  411SOL    HW1 1232   0.087   1.516   0.844  4.3090 -2.2166  0.3682
  411SOL    HW2 1233   3.022   1.412   0.790 -0.0556 -0.1938 -3.0363
  412SOL     OW 1234   2.236   2.442   0.633 -0.1030 -0.0666  0.2845
  412SOL    HW1 1235   2.337   2.441   0.624 -2.0410  0.7116 -0.0606
  412SOL    HW2 1236   2.195   2.401   0.551  1.4585  3.3051 -0.3079
  413SOL     OW 1237   1.939   0.679   2.217 -0.0813  0.4284  0.3785
  413SOL    HW1 1238   1.877   0.700   2.142 -1.5177 -1.6135  1.0540
  413SOL    HW2 1239   2.028   0.728   2.206 -1.5045 -1.1849  1.4418
  414SOL     OW 1240   2.677   0.212   0.329  0.0797 -0.1746  0.1219
  414SOL    HW1 1241   2.652   0.223   0.230 -3.2507 -3.1366 -2.5306
  414SOL    HW2 1242   2.732   0.131   0.345  2.8043  0.1013  0.3614
  415SOL     OW 1243   0.931   1.920   1.373 -0.7320  0.4997  0.1353
  415SOL    HW1 1244   0.912   1.848   1.305 -0.2248 -1.8161  1.5705
  415SOL    HW2 1245   0.952   1.879   1.467 -1.8848 -0.9102  3.0173
  416SOL     OW 1246   0.539   2.858   2.612  0.5151  0.1315  0.4160
  416SOL    HW1 1247   0.459   2.816   2.565  1.0525 -1.2319 -0.5279
  416SOL    HW2 1248   0.623   2.834   2.558  0.7017 -0.6038  0.1405
  417SOL     OW 1249   2.694   0.541   0.919 -0.2259 -0.3124 -0.0994
  417SOL    HW1 1250   2.667   0.522   0.822  1.3255  0.3891  0.8303
  417SOL    HW2 1251   2.738   0.458   0.963  0.6068 -2.4618 -0.2905
  418SOL     OW 1252   0.113   0.575   2.775  0.3830  0.0020 -0.0846
  418SOL    HW1 1253   0.028   0.575   2.833 -2.3112  0.2685 -2.6505
  418SOL    HW2 1254   0.094   0.517   2.694 -2.1103  0.9163  3.6543
  419SOL     OW 1255   0.198   1.092   1.510 -0.6194  0.2901  0.3284
  419SOL    HW1 1256   0.293   1.121   1.520 -0.6688 -0.6226  3.7996
  419SOL    HW2 1257   0.135   1.169   1.485 -1.1705 -0.3309  0.7546
  420SOL     OW 1258   0.639   1.523   0.813 -0.1145  0.1134  0.4183
  420SOL    HW1 1259   0.691   1.582   0.747  2.2327 -1.7369  0.8211
  420SOL    HW2 1260   0.677   1.429   0.814  2.6805  2.4274 -1.3071
  421SOL     OW 1261   2.541   2.426   2.819 -0.1198 -0.4477  0.3195
  421SOL    HW1 1262   2.483   2.342   2.802  0.7174  0.5056 -2.5085
  421SOL    HW2 1263   2.571   2.458   2.728 -0.3677 -1.4885 -2.9604
  422SOL     OW 1264   2.928   0.491   2.894  0.0564 -0.0446  0.4028
  422SOL    HW1 1265   2.843   0.453   2.842 -1.1398 -0.8677 -1.3883
  422SOL    HW2 1266   2.990   0.417   2.927 -0.9459 -0.5537 -1.3970
  423SOL     OW 1267   1.357   2.205   0.847 -0.4806 -0.1453 -0.3681
  423SOL    HW1 1268   1.408   2.208   0.937  1.2476  1.4644  2.2822
  423SOL    HW2 1269   1.264   2.168   0.858  0.5481 -0.9093 -0.9247
  424SOL     OW 1270   0.419   1.924   1.542 -0.0680 -0.0238 -0.5395
  424SOL    HW1 1271   0.463   2.001   1.487 -0.2032  0.9370  0.8859
  424SOL    HW2 1272   0.393   1.955   1.636 -2.0062 -3.4372 -1.5265
  425SOL     OW 1273   0.154   2.812   2.365 -0.2132  0.1464 -0.3853
  425SOL    HW1 1274   0.124   2.750   2.289 -2.1462 -1.1193 -1.0424
  425SOL    HW2 1275   0.073   2.859   2.400 -1.7152 -0.1214  0.2870
  426SOL     OW 1276   1.500   0.896   0.428  0.7623  0.1033  0.2658
  426SOL    HW1 1277   1.597   0.880   0.406 -0.9855  1.4554  1.2986
  426SOL    HW2 1278   1.493   0.913   0.527 -0.8238  0.8046 -0.4620
  427SOL     OW 1279   0.381   0.992   0.023 -0.3042 -0.2732 -0.0790
  427SOL    HW1 1280   0.351   0.986   0.118  0.7645 -1.1011 -2.0242
  427SOL    HW2 1281   0.427   0.906   3.049  1.3582 -1.5955 -1.2342
  428SOL     OW 1282   1.463   1.373   0.084 -0.0534  0.3587  0.1683
  428SOL    HW1 1283   1.515   1.299   0.134 -0.7614 -4.0307  1.7917
  428SOL    HW2 1284   1.365   1.354   0.093 -0.2708  0.0173 -0.2047
  429SOL     OW 1285   2.784   2.562   0.729  0.4343 -0.0241 -0.4161
  429SOL    HW1 1286   2.719   2.632   0.763  0.3948 -0.6865 -0.3330
  429SOL    HW2 1287   2.826   2.586   0.637  0.6550 -0.4172  0.3849
  430SOL     OW 1288   0.634   2.478   2.366 -0.1289  0.4309 -0.4761
  430SOL    HW1 1289   0.630   2.469   2.472 -2.3853  1.0546  1.2904
  430SOL    HW2 1290   0.621   2.390   2.318 -0.7454 -1.5494 -0.3425
  431SOL     OW 1291   2.814   1.193   0.456 -0.7627  0.3596 -0.6673
  431SOL    HW1 1292   2.765   1.192   0.542 -1.0465 -0.6559 -1.0387
  431SOL    HW2 1293   2.867   1.108   0.440 -0.1197  0.4209  1.3023
  432SOL     OW 1294   2.058   2.339   2.245  0.4475 -0.0365  0.1434
  432SOL    HW1 1295   2.129   2.288   2.295  0.3732  1.1413 -3.5767
  432SOL    HW2 1296   2.010   2.276   2.179 -0.9795  0.5539 -1.6377
  433SOL     OW 1297   1.311   2.475   0.864 -0.1065  0.2079  0.0942
  433SOL    HW1 1298   1.328   2.374   0.861 -0.3266 -1.8804  1.1817
  433SOL    HW2 1299   1.388   2.534   0.827 -0.3905 -0.9193  0.4920
  434SOL     OW 1300   0.741   1.965   1.966 -0.1856  0.2268  0.1934
  434SOL    HW1 1301   0.785   2.054   1.968 -3.8111 -1.9370  0.7735
  434SOL    HW2 1302   0.687   1.956   2.054  0.6142  0.0979 -3.0736
  435SOL     OW 1303   2.923   0.952   0.016 -0.5271  1.4038  0.0694
  435SOL    HW1 1304   2.977   0.941   0.104  0.9955  2.1316  1.0262
  435SOL    HW2 1305   2.864   0.863   3.064 -5.1668 -5.3901 -2.2546
  436SOL     OW 1306   0.384   2.686   1.993 -0.5332 -0.0436 -0.1082
  436SOL    HW1 1307   0.432   2.772   1.980 -2.5083 -2.6505  1.2737
  436SOL    HW2 1308   0.411   2.642   2.082  0.9854  1.9668  1.4779
  437SOL     OW 1309   2.068   2.763   1.800  0.5098  0.4633 -0.6256
  437SOL    HW1 1310   2.014   2.736   1.718 -0.3898 -1.7135  0.7574
  437SOL    HW2 1311   2.075   2.680   1.864  0.8786  0.2763 -1.7313
  438SOL     OW 1312   0.096   1.961   0.573  0.2383  0.3059 -0.2615
  438SOL    HW1 1313   0.104   1.864   0.598  0.6476  1.8918  0.8474
  438SOL    HW2 1314   0.075   2.017   0.657  0.4688 -2.6821  1.9489
  439SOL     OW 1315   0.219   0.547   0.748  0.1451 -0.5903 -0.2609
  439SOL    HW1 1316   0.287   0.581   0.681 -1.7803  0.3554  0.1897
  439SOL    HW2 1317   0.250   0.462   0.795  0.3806 -0.4510 -2.3522
  440SOL     OW 1318   0.366   2.705   2.472  0.0448  0.2628  0.1337
  440SOL    HW1 1319   0.336   2.626   2.526  0.6696  1.3973 -0.7272
  440SOL    HW2 1320   0.285   2.742   2.417  0.2175  1.8059 -2.1736
  441SOL     OW 1321   2.951   0.965   0.462  0.2877 -0.5576 -0.2668
  441SOL    HW1 1322   3.026   1.009   0.516 -0.5926  3.4545  1.5542
  441SOL    HW2 1323   2.910   0.891   0.520 -0.6474 -1.2498  2.6501
  442SOL     OW 1324   1.095   2.209   2.593 -0.2475  0.3008  0.2392
  442SOL    HW1 1325   1.189   2.166   2.587  1.1397 -0.4069 -0.9616
  442SOL    HW2 1326   1.092   2.305   2.627  2.5744  1.1633  2.3281
  443SOL     OW 1327   0.734   0.096   0.458  0.0772 -0.0646 -0.2721
  443SOL    HW1 1328   0.705   0.179   0.410 -3.0418  0.0203  0.5896
  443SOL    HW2 1329   0.795   0.116   0.533 -2.1031 -1.5180 -0.9329
  444SOL     OW 1330   1.446   1.726   2.409  0.7588  0.1443  0.1815
  444SOL    HW1 1331   1.541   1.695   2.430 -0.4926 -1.9074 -0.3109
  444SOL    HW2 1332   1.434   1.773   2.320 -3.2159 -0.1228  1.0089
  445SOL     OW 1333   0.001   0.633   0.568 -0.2020  0.4969 -0.4329
  445SOL    HW1 1334   3.059   0.557   0.493  1.7464 -0.9668 -0.9127
  445SOL    HW2 1335   0.087   0.622   0.619 -2.6434  0.6044  1.1044
  446SOL     OW 1336   2.071   0.844   0.989 -0.6298 -0.5504  0.0774
  446SOL    HW1 1337   1.990   0.791   1.016  0.2030  0.8832  0.3731
  446SOL    HW2 1338   2.067   0.937   1.024  1.1835 -1.1608 -3.4336
  447SOL     OW 1339   0.020   0.931   0.246  0.6976 -0.4414 -0.4440
  447SOL    HW1 1340   0.047   0.834   0.230 -2.2603 -0.0463 -0.6537
  447SOL    HW2 1341   3.035   0.940   0.333 -0.4265 -2.2833 -0.2152
  448SOL     OW 1342   1.759   1.678   1.336 -0.1296  0.2493 -0.1345
  448SOL    HW1 1343   1.754   1.729   1.251 -0.4597 -0.6818 -0.1027
  448SOL    HW2 1344   1.748   1.579   1.315  1.2317  0.0391  0.0892
  449SOL     OW 1345   0.862   1.403   0.478 -0.3730  0.1247  0.1471
  449SOL    HW1 1346   0.963   1.414   0.448  1.8683 -0.7496  1.8547
  449SOL    HW2 1347   0.834   1.461   0.557 -0.2486  1.4827 -0.3523
  450SOL     OW 1348   2.769   2.685   2.353 -0.4675  0.5717 -0.5586
  450SOL    HW1 1349   2.693   2.682   2.428 -2.7963  0.5692  2.2186
  450SOL    HW2 1350   2.738   2.681   2.261  1.5066 -1.4277  6.1349
  451SOL     OW 1351   2.439   0.992   2.856 -0.0004 -0.5814 -0.4123
  451SOL    HW1 1352   2.348   0.947   2.874 -0.2955  1.5358 -0.2138
  451SOL    HW2 1353   2.413   1.067   2.792  2.2566 -1.6567 -0.6331
  452SOL     OW 1354   1.678   0.853   0.922 -0.6423 -0.4596  0.1573
  452SOL    HW1 1355   1.733   0.845   1.007 -1.6706 -1.5373  2.3011
  452SOL    HW2 1356   1.581   0.837   0.940  3.0251  0.1087  0.1393
  453SOL     OW 1357   2.028   0.535   1.456  0.5190  0.5039  0.0939
  453SOL    HW1 1358   2.004   0.634   1.472  1.3318  1.5597  0.2971
  453SOL    HW2 1359   2.129   0.528   1.436  1.2033  0.8790 -1.6283
  454SOL     OW 1360   2.621   1.238   2.828 -0.0005 -0.5058  0.3241
  454SOL    HW1 1361   2.635   1.170   2.755 -1.5672  0.6733  3.2887
  454SOL    HW2 1362   2.673   1.202   2.909 -1.1687 -0.8730 -1.6625
  455SOL     OW 1363   2.406   1.504   1.331 -0.1063  0.1765 -0.3966
  455SOL    HW1 1364   2.324   1.451   1.296 -0.6014 -2.7783 -2.2626
  455SOL    HW2 1365   2.399   1.602   1.303 -0.4993 -1.5565 -2.2733
  456SOL     OW 1366   1.401   2.909   1.627  0.5548  0.0975  0.4522
  456SOL    HW1 1367   1.366   3.002   1.628  3.4799 -0.0120  0.3456
  456SOL    HW2 1368   1.496   2.918   1.653 -1.5374  0.6317  0.2620
  457SOL     OW 1369   1.713   2.917   0.942  0.0268 -0.6650  0.5867
  457SOL    HW1 1370   1.704   2.857   1.024  0.5115 -0.7093 -1.1593
  457SOL    HW2 1371   1.634   2.975   0.936  3.5318 -3.4069 -0.5479
  458SOL     OW 1372   2.862   0.044   0.765 -0.2383 -0.5971 -0.3966
  458SOL    HW1 1373   2.857   3.013   0.734 -0.3099 -1.2057 -0.6847
  458SOL    HW2 1374   2.768   0.083   0.768  0.6529 -0.3693 -0.2142
  459SOL     OW 1375   1.562   1.144   0.140  0.3182 -0.5131 -0.1946
  459SOL    HW1 1376   1.545   1.043   0.129 -0.0482 -0.2892 -1.5105
  459SOL    HW2 1377   1.545   1.165   0.240 -1.0953 -2.0158 -0.9114
  460SOL     OW 1378   0.296   2.512   2.648  0.0862  0.2172  0.4829
  460SOL    HW1 1379   0.301   2.447   2.724  0.6863 -1.4269 -3.3537
  460SOL    HW2 1380   0.271   2.473   2.557 -1.3981  0.7478 -0.0769
  461SOL     OW 1381   0.487   1.400   0.258 -0.2014  0.1599  0.4883
  461SOL    HW1 1382   0.554   1.350   0.325 -0.2047  1.0281 -0.2639
  461SOL    HW2 1383   0.526   1.426   0.166 -0.3512  4.0255 -2.1359
  462SOL     OW 1384   2.023   2.091   0.659 -0.3565 -1.0352 -0.4665
  462SOL    HW1 1385   2.024   2.155   0.740 -1.6580  0.4485  0.9273
  462SOL    HW2 1386   1.957   2.015   0.676 -2.6797  1.2219  0.5695
  463SOL     OW 1387   2.755   0.416   0.506 -0.0074 -0.4100 -0.4775
  463SOL    HW1 1388   2.791   0.483   0.439 -0.1590 -0.8168 -0.2094
  463SOL    HW2 1389   2.708   0.335   0.460 -2.2447 -0.0172  3.2336
  464SOL     OW 1390   0.765   2.254   0.531  0.3448  0.1631  0.6877
  464SOL    HW1 1391   0.806   2.254   0.436 -2.4005  1.4944  3.3298
  464SOL    HW2 1392   0.773   2.160   0.571 -0.2402 -0.1300  1.0069
  465SOL     OW 1393   2.122   0.376   1.002 -0.4795  0.4252  0.0804
  465SOL    HW1 1394   2.084   0.301   0.942 -0.8598 -1.5127 -0.3815
  465SOL    HW2 1395   2.142   0.461   0.948  0.1519 -1.3716 -0.0885
  466SOL     OW 1396   2.056   0.025   0.532  0.1386  0.1218  0.0906
  466SOL    HW1 1397   2.075   2.990   0.526 -1.1318 -2.3600  2.1848
  466SOL    HW2 1398   1.962   0.035   0.571  1.4887  0.4865 -0.0051
  467SOL     OW 1399   1.236   0.542   2.051  0.2220  0.4139 -1.2640
  467SOL    HW1 1400   1.309   0.559   2.122 -0.5577 -0.6755 -1.0209
  467SOL    HW2 1401   1.281   0.492   1.973 -0.5416  0.8681 -0.4022
  468SOL     OW 1402   2.769   0.386   1.914 -0.0955  0.4693  0.4780
  468SOL    HW1 1403   2.674   0.366   1.877  0.6829 -0.6636 -0.4507
  468SOL    HW2 1404   2.761   0.456   1.987 -0.8644  1.9431  1.4679
  469SOL     OW 1405   1.099   2.197   1.966  0.7583 -0.1086 -0.4607
  469SOL    HW1 1406   1.123   2.119   2.024 -1.8559  3.5752 -1.2899
  469SOL    HW2 1407   1.074   2.166   1.870 -0.9419  1.1098 -3.6833
  470SOL     OW 1408   2.035   1.250   1.994 -0.7712 -0.1601 -0.5354
  470SOL    HW1 1409   2.088   1.168   1.968 -1.6791 -1.1622 -1.4217
  470SOL    HW2 1410   2.008   1.239   2.093  2.2830  0.3600 -1.5743
  471SOL     OW 1411   3.024   1.328   3.038 -0.1560  0.1284 -0.2715
  471SOL    HW1 1412   2.952   1.257   3.050  2.4885 -1.6715  0.1631
  471SOL    HW2 1413   3.016   1.402   0.041  1.1401 -0.2832  1.3373
  472SOL     OW 1414   0.569   2.456   0.550 -0.5980 -0.7381  0.0961
  472SOL    HW1 1415   0.484   2.399   0.553 -1.1806  2.2531 -1.6734
  472SOL    HW2 1416   0.653   2.401   0.534  1.2225 -1.4360 -2.6144
  473SOL     OW 1417   1.202   2.123   2.209 -0.1295 -0.1924 -0.1273
  473SOL    HW1 1418   1.281   2.158   2.154  1.0371 -1.2908 -2.0211
  473SOL    HW2 1419   1.226   2.116   2.310  1.0653  0.4736  0.5170
  474SOL     OW 1420   1.050   3.026   2.398  0.1122  0.8160  0.0323
  474SOL    HW1 1421   1.004   2.988   2.317 -1.8206 -0.4500 -0.5336
  474SOL    HW2 1422   1.104   2.955   2.454  1.5457 -0.0140  2.1521
  475SOL     OW 1423   0.891   2.246   0.318  0.0452  0.3876 -0.2256
  475SOL    HW1 1424   0.991   2.269   0.337 -1.2456  1.6653 -1.2537
  475SOL    HW2 1425   0.888   2.178   0.244 -2.4194 -1.3364 -1.0346
  476SOL     OW 1426   0.579   0.574   1.106 -0.0271 -0.3191  0.1287
  476SOL    HW1 1427   0.585   0.651   1.171 -0.0702 -3.5705  0.1049
  476SOL    HW2 1428   0.670   0.534   1.084 -0.7643 -0.3733 -0.9812
  477SOL     OW 1429   2.108   1.972   1.188  0.3405  0.1440 -1.0227
  477SOL    HW1 1430   2.168   2.021   1.121  4.0933 -1.3076  1.6816
  477SOL    HW2 1431   2.021   2.020   1.196 -3.0571 -0.9706  1.1744
  478SOL     OW 1432   2.813   0.707   3.032 -0.1024  0.0137  0.3603
  478SOL    HW1 1433   2.774   0.667   0.051  0.8826  1.3479 -3.0837
  478SOL    HW2 1434   2.856   0.633   2.973  0.5016  0.5119  1.0420
  479SOL     OW 1435   0.504   3.035   1.025  0.1262 -0.9177  0.3014
  479SOL    HW1 1436   0.459   3.038   1.118 -0.4399 -1.5480  1.0706
  479SOL    HW2 1437   0.597   2.989   1.028  0.0389 -1.0229 -0.4601
  480SOL     OW 1438   2.571   2.523   0.399 -0.2727  0.0787  0.3912
  480SOL    HW1 1439   2.646   2.469   0.356  0.5117 -1.4351  1.4104
  480SOL    HW2 1440   2.559   2.491   0.497  2.1930  2.6562 -0.8758
  481SOL     OW 1441   2.737   0.533   1.261 -0.3568 -0.3268 -0.2032
  481SOL    HW1 1442   2.751   0.465   1.188  0.1588 -0.1349  1.7110
  481SOL    HW2 1443   2.765   0.489   1.347  2.8295 -0.7024 -0.0428
  482SOL     OW 1444   0.766   2.950   1.031  0.5545 -0.4973 -0.0847
  482SOL    HW1 1445   0.754   2.933   0.932 -1.1821 -1.4948 -1.6689
  482SOL    HW2 1446   0.817   3.040   1.045 -0.2760  0.3544 -0.6812
  483SOL     OW 1447   0.120   1.224   2.823  0.1235  0.0075 -0.1568
  483SOL    HW1 1448   0.050   1.254   2.898 -1.8268  1.5910  2.3178
  483SOL    HW2 1449   0.087   1.259   2.732  1.4382 -3.7071 -1.5652
  484SOL     OW 1450   1.642   1.675   1.983 -0.3061  0.1387  0.1449
  484SOL    HW1 1451   1.615   1.627   1.897  3.0628 -0.5028  1.2600
  484SOL    HW2 1452   1.664   1.606   2.053  1.8137  0.0970 -2.2986
  485SOL     OW 1453   0.349   0.095   2.405  0.1337  0.3965  0.4080
  485SOL    HW1 1454   0.389   0.150   2.477  0.0148 -3.7105 -1.6506
  485SOL    HW2 1455   0.259   0.070   2.435  3.6573 -2.3977 -1.5498
  486SOL     OW 1456   1.441   2.887   0.516  0.5878  0.5813  0.2126
  486SOL    HW1 1457   1.498   2.852   0.590  2.5791  0.1183 -2.0771
  486SOL    HW2 1458   1.487   2.879   0.424  1.0492  1.3453  0.7729
  487SOL     OW 1459   1.394   0.070   0.644 -0.6542  0.1203 -0.0337
  487SOL    HW1 1460   1.475   0.066   0.710  1.3112 -3.2921  0.3122
  487SOL    HW2 1461   1.383   3.047   0.595  1.6415 -1.0916 -1.4646
  488SOL     OW 1462   2.144   0.837   0.725  0.0981  0.0244  0.5168
  488SOL    HW1 1463   2.226   0.894   0.703 -0.1328  0.9772  2.0235
  488SOL    HW2 1464   2.115   0.858   0.820  1.0877 -1.3516  1.3051
  489SOL     OW 1465   1.005   0.015   1.298 -0.3942  0.4924 -0.7379
  489SOL    HW1 1466   1.087   3.023   1.288 -0.2902 -1.7086 -0.9089
  489SOL    HW2 1467   0.992   0.072   1.214 -2.0518 -0.3314  1.2900
  490SOL     OW 1468   1.052   0.751   0.388 -0.4540  0.2363 -0.8627
  490SOL    HW1 1469   1.016   0.758   0.293  2.8823 -0.5518  0.2906
  490SOL    HW2 1470   1.029   0.835   0.443 -0.1248  2.8002 -0.4383
  491SOL     OW 1471   1.156   2.769   0.285  0.7307 -0.2340 -0.1949
  491SOL    HW1 1472   1.194   2.805   0.198  1.3206  0.0834 -0.8817
  491SOL    HW2 1473   1.166   2.665   0.286  0.0195  1.6759  1.6894
  492SOL     OW 1474   1.054   1.443   1.610 -0.3028  0.7653  0.4101
  492SOL    HW1 1475   1.043   1.480   1.705  1.5082  0.3438  0.3669
  492SOL    HW2 1476   1.014   1.349   1.603  0.1151  1.5270  0.1541
  493SOL     OW 1477   0.335   1.835   0.469  0.3211 -0.6495 -0.1225
  493SOL    HW1 1478   0.255   1.826   0.534  0.8322 -0.0060 -1.4598
  493SOL    HW2 1479   0.361   1.740   0.437  2.5875  0.9501  0.3923
  494SOL     OW 1480   1.951   1.787   0.264  0.0160  0.2406 -0.0108
  494SOL    HW1 1481   2.025   1.765   0.335 -0.9817 -0.0064 -0.4857
  494SOL    HW2 1482   1.865   1.809   0.315 -1.5390 -0.1383 -0.0664
  495SOL     OW 1483   0.285   1.049   2.472 -0.4537 -0.7654  0.2316
  495SOL    HW1 1484   0.282   0.970   2.539 -0.8928 -1.8588 -0.0025
  495SOL    HW2 1485   0.203   1.057   2.415  0.2034  0.2277  2.4572
  496SOL     OW 1486   0.641   0.027   2.366 -0.5726  0.2107  0.1886
  496SOL    HW1 1487   0.545   0.049   2.395 -2.8037 -1.2005 -0.0019
  496SOL    HW2 1488   0.647   2.997   2.331  2.8855 -0.9681  1.3744
  497SOL     OW 1489   1.549   1.213   0.381 -0.1491  0.4775  0.1196
  497SOL    HW1 1490   1.542   1.311   0.405 -1.3528  3.2491  1.9240
  497SOL    HW2 1491   1.590   1.159   0.459 -0.0210 -0.4775  1.2495
  498SOL     OW 1492   2.836   2.664   0.474 -0.0862  0.0823  0.1690
  498SOL    HW1 1493   2.902   2.676   0.397  2.3257  1.3004 -0.2888
  498SOL    HW2 1494   2.736   2.659   0.448 -2.2403 -1.3242  0.4356
  499SOL     OW 1495   1.894   2.546   0.525 -0.0720  0.2731  0.9039
  499SOL    HW1 1496   1.887   2.633   0.473  4.2096  4.0181 -2.3057
  499SOL    HW2 1497   1.968   2.485   0.490  0.8977  0.9907 -1.7260
  500SOL     OW 1498   0.608   0.467   2.644 -0.0220  0.2750  0.0498
  500SOL    HW1 1499   0.561   0.556   2.653  2.0466  0.2719  0.2732
  500SOL    HW2 1500   0.675   0.453   2.718 -0.8015  5.0845  0.0102
  501SOL     OW 1501   1.662   3.020   1.658  0.0036 -0.1694  0.0533
  501SOL    HW1 1502   1.749   2.978   1.693  0.8658 -0.5523  1.9866
  501SOL    HW2 1503   1.645   3.003   1.560 -2.2480 -2.4362  0.4221
  502SOL     OW 1504   0.220   0.100   2.081  0.2033  0.6847  0.4966
  502SOL    HW1 1505   0.282   0.029   2.119  1.5173  1.2430 -2.1658
  502SOL    HW2 1506   0.188   0.080   1.982 -0.0722 -1.5041 -0.5509
  503SOL     OW 1507   1.665   2.307   2.160 -0.0423  0.0130  0.3360
  503SOL    HW1 1508   1.662   2.383   2.093  0.0523  0.0497  1.4462
  503SOL    HW2 1509   1.758   2.269   2.149  0.6062  1.5485 -0.1826
  504SOL     OW 1510   1.922   0.274   1.755  0.1440 -0.2402  0.0939
  504SOL    HW1 1511   1.969   0.275   1.666 -0.5394  2.3248  0.4358
  504SOL    HW2 1512   1.826   0.242   1.741  0.6305  0.9685  0.5369
  505SOL     OW 1513   2.519   1.728   1.546  0.0655  0.0407 -0.3108
  505SOL    HW1 1514   2.593   1.664   1.568 -1.4017 -2.8834 -1.3729
  505SOL    HW2 1515   2.463   1.687   1.476  3.4415  0.8058  1.7182
  506SOL     OW 1516   0.076   1.346   2.218 -0.0303 -0.2553 -0.0746
  506SOL    HW1 1517   0.132   1.419   2.267 -1.4559  2.3493  1.5688
  506SOL    HW2 1518   0.089   1.254   2.262 -2.1331 -1.5816  1.0492
  507SOL     OW 1519   0.184   2.993   1.320 -0.3632 -0.6626 -0.1549
  507SOL    HW1 1520   0.276   3.034   1.303  1.6875  2.5192  1.4196
  507SOL    HW2 1521   0.182   2.946   1.413  0.3724  2.9782  0.4683
  508SOL     OW 1522   0.909   0.662   1.568  0.9304 -0.7123 -0.4111
  508SOL    HW1 1523   0.917   0.703   1.476  3.4815  0.7469 -0.9932
  508SOL    HW2 1524   0.943   0.568   1.566 -0.1021  2.1480 -2.3130
  509SOL     OW 1525   1.699   2.453   1.754 -0.4976  0.3592 -0.1424
  509SOL    HW1 1526   1.712   2.536   1.694 -0.2220 -0.9273 -0.9675
  509SOL    HW2 1527   1.645   2.481   1.834  0.7935 -1.1164 -2.1174
  510SOL     OW 1528   2.373   1.307   2.878  0.0765 -0.7110  0.0945
  510SOL    HW1 1529   2.472   1.271   2.869  4.0898 -0.3989  1.4449
  510SOL    HW2 1530   2.340   1.342   2.790  0.7095  0.8073  0.0580
  511SOL     OW 1531   0.445   1.236   1.472  0.3309  0.4016 -0.3813
  511SOL    HW1 1532   0.396   1.311   1.522 -1.0940  2.3479  3.3044
  511SOL    HW2 1533   0.506   1.187   1.536 -0.2086  1.4653  2.9605
  512SOL     OW 1534   2.638   1.833   0.242  0.5190 -0.0033  0.2841
  512SOL    HW1 1535   2.642   1.930   0.281  0.4706  2.6137 -2.0213
  512SOL    HW2 1536   2.736   1.808   0.221  1.2923  0.1581  1.1204
  513SOL     OW 1537   0.680   1.725   2.254 -0.4272  0.2278 -0.4744
  513SOL    HW1 1538   0.781   1.702   2.258  0.3979 -0.1881 -0.1317
  513SOL    HW2 1539   0.622   1.647   2.280 -0.1387  0.4598 -0.6323
  514SOL     OW 1540   0.230   2.168   1.995 -0.3262 -0.6593 -0.1360
  514SOL    HW1 1541   0.192   2.082   2.035  4.8373 -1.3548 -2.1638
  514SOL    HW2 1542   0.167   2.222   1.933 -1.7791  0.4222  1.4729
  515SOL     OW 1543   1.925   1.258   1.728  0.2711  0.4082 -0.2921
  515SOL    HW1 1544   1.955   1.276   1.824 -2.3944  2.1890 -0.1386
  515SOL    HW2 1545   1.830   1.227   1.724 -0.5540  1.6546 -0.1253
  516SOL     OW 1546   2.255   2.773   0.334 -0.2096  0.4528 -0.0964
  516SOL    HW1 1547   2.238   2.851   0.275 -1.3173 -1.3812  1.5275
  516SOL    HW2 1548   2.349   2.776   0.380  0.2805  0.4292  0.9203
  517SOL     OW 1549   0.855   1.487   0.210 -0.2775  0.4242  0.3415
  517SOL    HW1 1550   0.948   1.470   0.168  0.1387  0.6339  0.7344
  517SOL    HW2 1551   0.856   1.441   0.299  1.1287  1.5168  0.2016
  518SOL     OW 1552   1.961   2.775   1.537 -0.4649 -0.0376 -0.4252
  518SOL    HW1 1553   1.997   2.838   1.462 -2.2758 -0.4284 -1.3282
  518SOL    HW2 1554   1.973   2.676   1.511  0.4120 -1.9796 -1.2922
  519SOL     OW 1555   1.979   2.540   1.196 -0.4021 -0.3453 -0.1109
  519SOL    HW1 1556   1.974   2.639   1.174 -0.9759  0.0959 -0.3690
  519SOL    HW2 1557   2.031   2.476   1.129 -0.3286 -1.8863 -1.7591
  520SOL     OW 1558   2.931   2.104   2.193  0.3334 -1.0437 -0.1147
  520SOL    HW1 1559   2.859   2.066   2.257 -0.7811  1.2960  0.0857
  520SOL    HW2 1560   2.891   2.179   2.139  3.0514  1.7568 -1.1767
  521SOL     OW 1561   2.698   0.816   2.622  0.6742 -0.1473  0.3026
  521SOL    HW1 1562   2.659   0.780   2.713  0.2837 -0.3074 -2.9280
  521SOL    HW2 1563   2.682   0.760   2.535  1.5031  2.1621 -1.6092
  522SOL     OW 1564   0.826   0.743   2.397 -0.5551 -0.2435 -0.0243
  522SOL    HW1 1565   0.924   0.760   2.413  0.3699 -1.1337 -0.7108
  522SOL    HW2 1566   0.803   0.648   2.367 -0.1660 -0.3083 -0.0648
  523SOL     OW 1567   0.073   2.078   0.842  0.2672 -0.2440 -0.2185
  523SOL    HW1 1568   0.107   1.990   0.890 -2.2253 -0.4019 -2.1414
  523SOL    HW2 1569   0.061   2.156   0.906 -3.0122  1.0958  1.1821
  524SOL     OW 1570   1.983   2.701   2.846  0.4227 -0.2231  0.4562
  524SOL    HW1 1571   2.004   2.615   2.892 -3.2659  0.9222 -4.0965
  524SOL    HW2 1572   2.053   2.770   2.878  0.8208  1.2119  0.1837
  525SOL     OW 1573   2.311   0.514   1.437 -0.7257  0.3808  1.2928
  525SOL    HW1 1574   2.375   0.579   1.394 -4.0339  0.3007 -0.7103
  525SOL    HW2 1575   2.295   0.427   1.382 -0.5795 -2.4938 -0.6316
  526SOL     OW 1576   0.995   2.568   0.537  0.0440  0.3841 -0.0411
  526SOL    HW1 1577   0.945   2.507   0.604  2.5231 -1.1977 -0.8121
  526SOL    HW2 1578   0.953   2.659   0.527  2.9484 -0.0339  0.1434
  527SOL     OW 1579   2.100   2.825   0.552  0.6525  0.0354  0.3539
  527SOL    HW1 1580   2.040   2.746   0.576  1.3704  0.8421  0.6518
  527SOL    HW2 1581   2.157   2.804   0.468  0.7570 -1.1669 -1.2689
  528SOL     OW 1582   1.553   0.861   0.111  0.1616  0.1683 -0.0976
  528SOL    HW1 1583   1.641   0.866   0.162 -0.2054  0.8342  3.1159
  528SOL    HW2 1584   1.500   0.777   0.118  0.9139 -0.6167 -0.3110
  529SOL     OW 1585   1.237   1.529   2.349  0.4630 -0.0594  0.4715
  529SOL    HW1 1586   1.313   1.596   2.361 -0.8536 -0.6783  0.3201
  529SOL    HW2 1587   1.203   1.496   2.437  0.0246  0.6439 -4.9814
  530SOL     OW 1588   2.202   3.016   0.126  0.3217  0.0945 -0.5870
  530SOL    HW1 1589   2.116   3.065   0.097 -0.1159 -1.7425 -0.5421
  530SOL    HW2 1590   2.226   2.946   0.060  0.6448 -3.4588 -0.3322
  531SOL     OW 1591   1.795   1.072   3.033  0.0914 -0.2840  0.4620
  531SOL    HW1 1592   1.712   1.080   0.020  0.1232 -1.9507 -0.5025
  531SOL    HW2 1593   1.823   0.973   3.019 -1.8531 -0.0320  1.2063
  532SOL     OW 1594   1.453   0.353   0.581 -0.2376  0.4313 -0.3143
  532SOL    HW1 1595   1.428   0.254   0.600 -1.2950  0.5488  1.0581
  532SOL    HW2 1596   1.554   0.366   0.578  0.7429  0.6110  1.1734
  533SOL     OW 1597   0.490   0.719   2.678 -0.7606  0.0855 -0.0138
  533SOL    HW1 1598   0.549   0.772   2.613  2.8993 -0.1140 -0.2915
  533SOL    HW2 1599   0.394   0.756   2.680  1.1004 -0.5496  2.4784
  534SOL     OW 1600   1.468   0.177   0.066 -0.3025 -0.2493  0.1192
  534SOL    HW1 1601   1.426   0.156   0.157 -1.9335 -0.9824 -0.5981
  534SOL    HW2 1602   1.486   0.088   0.021  2.1213 -0.8820  1.1626
  535SOL     OW 1603   0.512   2.603   2.822 -0.2110 -0.1412  0.0395
  535SOL    HW1 1604   0.501   2.626   2.922  1.6386 -0.6377  1.4745
  535SOL    HW2 1605   0.418   2.587   2.780 -0.1809  0.5464 -0.6293
  536SOL     OW 1606   0.532   2.987   0.427 -0.7863  0.7308  0.1725
  536SOL    HW1 1607   0.609   3.052   0.454  1.0925 -2.5845 -0.3858
  536SOL    HW2 1608   0.556   2.887   0.446  0.7119 -0.5247  1.1527
  537SOL     OW 1609   1.591   0.487   0.194 -0.3344  0.0788  0.1492
  537SOL    HW1 1610   1.554   0.450   0.107 -1.9013 -1.3048  1.5876
  537SOL    HW2 1611   1.521   0.473   0.260  1.5882  0.0937 -3.8256
  538SOL     OW 1612   2.766   2.054   3.030 -0.0822 -0.1831  0.6976
  538SOL    HW1 1613   2.830   1.980   3.002 -0.9790  1.6586  1.9336
  538SOL    HW2 1614   2.678   2.039   2.983  1.2749  1.9385  1.9167
  539SOL     OW 1615   2.494   1.823   3.058  0.0398  0.0973  0.2538
  539SOL    HW1 1616   2.395   1.809   0.014  1.1072 -2.7684  2.9095
  539SOL    HW2 1617   2.547   1.812   0.079  1.7460  3.6010  1.2091
  540SOL     OW 1618   0.998   2.891   1.821  0.2853 -1.0842  0.3946
  540SOL    HW1 1619   1.052   2.831   1.882  0.8955 -2.3724  0.5154
  540SOL    HW2 1620   0.991   2.851   1.729  0.0729 -0.0387  0.8392
  541SOL     OW 1621   2.643   3.019   2.223 -0.1725 -0.0338  0.1159
  541SOL    HW1 1622   2.598   0.041   2.191 -2.8586  3.7995  1.8685
  541SOL    HW2 1623   2.586   2.943   2.203  3.0374  3.9833  0.6392
  542SOL     OW 1624   0.254   0.826   2.700 -0.6139  0.3778 -0.0768
  542SOL    HW1 1625   0.203   0.895   2.753  1.6469 -1.6705 -2.9749
  542SOL    HW2 1626   0.220   0.732   2.728 -1.3738 -3.3355  2.6897
  543SOL     OW 1627   0.329   0.897   0.707  0.4674 -0.2611  0.0817
  543SOL    HW1 1628   0.306   0.864   0.799 -0.6483 -0.4850 -2.6942
  543SOL    HW2 1629   0.364   0.823   0.651 -0.7990  1.4377 -0.6776
  544SOL     OW 1630   2.502   0.655   1.311 -0.4893 -0.1318 -0.4096
  544SOL    HW1 1631   2.583   0.605   1.282 -1.3194  0.9810  1.6443
  544SOL    HW2 1632   2.536   0.743   1.351 -4.2834 -2.2800 -1.1724
  545SOL     OW 1633   1.455   1.929   0.537  0.6959  0.7156  0.1701
  545SOL    HW1 1634   1.491   2.003   0.590  1.5627 -2.1422 -1.6017
  545SOL    HW2 1635   1.358   1.946   0.503 -1.4512  1.3414 -0.8492
  546SOL     OW 1636   2.305   2.699   1.441 -0.5505  0.4609 -0.2911
  546SOL    HW1 1637   2.219   2.644   1.438  2.2744  0.8766  0.0559
  546SOL    HW2 1638   2.361   2.683   1.359  0.1872  0.8345  0.5503
  547SOL     OW 1639   0.661   2.242   2.219  0.5235  0.3374  0.4953
  547SOL    HW1 1640   0.641   2.140   2.232  0.9970  0.1758 -0.5187
  547SOL    HW2 1641   0.717   2.257   2.133 -0.9497  0.0609  0.7303
  548SOL     OW 1642   1.324   0.686   2.870 -0.0113 -0.2045  0.1392
  548SOL    HW1 1643   1.346   0.678   2.970  0.0672 -0.3557  1.4532
  548SOL    HW2 1644   1.224   0.691   2.855  0.1785  2.5936 -0.2640
  549SOL     OW 1645   2.736   0.637   0.207 -0.3838 -0.4546  0.1232
  549SOL    HW1 1646   2.644   0.607   0.227  1.4543  1.2588  0.2475
  549SOL    HW2 1647   2.745   0.729   0.251 -1.8642  0.7234 -0.6869
  550SOL     OW 1648   2.156   1.386   0.475 -0.3674 -0.7522 -0.0388
  550SOL    HW1 1649   2.213   1.380   0.391 -0.6011 -0.4561  1.3967
  550SOL    HW2 1650   2.071   1.333   0.470 -1.1086  3.0841 -0.9132
  551SOL     OW 1651   1.111   0.181   0.907 -0.0859  0.2178  0.0174
  551SOL    HW1 1652   1.160   0.266   0.925 -0.4487 -0.7788  1.1820
  551SOL    HW2 1653   1.125   0.160   0.805  2.9645  0.1009 -4.7137
  552SOL     OW 1654   2.331   2.886   2.242 -0.4634 -0.2185  0.3965
  552SOL    HW1 1655   2.254   2.833   2.280 -0.8046 -0.4529  1.4640
  552SOL    HW2 1656   2.315   2.978   2.279 -1.8956 -0.5031  0.8530
  553SOL     OW 1657   0.561   2.810   2.311  0.6711  0.6803  0.3427
  553SOL    HW1 1658   0.636   2.749   2.273  0.7514  0.0782 -0.3225
  553SOL    HW2 1659   0.513   2.759   2.382  1.2003  1.2959 -1.5164
  554SOL     OW 1660   0.451   0.017   1.308  0.2067  0.3892  0.6578
  554SOL    HW1 1661   0.442   0.120   1.313 -1.6446  1.4972  0.4749
  554SOL    HW2 1662   0.495   3.052   1.393  0.6517 -0.8963  0.0505
  555SOL     OW 1663   2.541   1.846   2.168  0.9471  0.7027  0.4535
  555SOL    HW1 1664   2.468   1.905   2.127 -2.0713  1.8944 -0.0558
  555SOL    HW2 1665   2.517   1.749   2.177 -0.4381 -2.6355 -1.1529
  556SOL     OW 1666   1.108   0.432   2.956  0.4384 -0.3132  0.6825
  556SOL    HW1 1667   1.068   0.524   2.930 -1.8502  2.6574 -0.8120
  556SOL    HW2 1668   1.055   0.357   2.920  0.2307  3.2704  0.0351
  557SOL     OW 1669   0.345   1.838   2.473  0.4133  0.1526 -0.0544
  557SOL    HW1 1670   0.435   1.882   2.450 -2.7206 -1.3722 -0.0956
  557SOL    HW2 1671   0.264   1.873   2.423 -1.1825  1.9117  1.0325
  558SOL     OW 1672   2.057   0.664   2.873 -0.1190 -0.1949  0.1544
  558SOL    HW1 1673   2.125   0.651   2.801 -2.1532 -1.3038  1.6013
  558SOL    HW2 1674   2.045   0.581   2.924  0.3459  0.8348 -0.2847
  559SOL     OW 1675   2.113   1.780   1.704 -0.3788 -0.2610 -0.0109
  559SOL    HW1 1676   2.083   1.723   1.625  1.4032  0.3415  1.4297
  559SOL    HW2 1677   2.032   1.824   1.741 -0.4994  0.2559 -2.0412
  560SOL     OW 1678   2.152   0.824   2.080 -0.5055 -0.0549  0.4787
  560SOL    HW1 1679   2.184   0.740   2.025 -1.5552  0.6373 -0.0695
  560SOL    HW2 1680   2.222   0.897   2.083  0.5261  0.9216  2.1071
  561SOL     OW 1681   0.040   0.131   2.751 -0.3225  1.2703 -0.1485
  561SOL    HW1 1682   0.036   0.137   2.647  0.2924 -1.2466  0.7012
  561SOL    HW2 1683   3.060   0.205   2.804  0.4964  2.0113  4.8554
  562SOL     OW 1684   0.975   1.244   1.396  0.7091  0.2529  0.0202
  562SOL    HW1 1685   0.986   1.340   1.372 -2.1524  0.6497  1.0021
  562SOL    HW2 1686   0.882   1.221   1.436 -1.3520  0.2560  1.9760
  563SOL     OW 1687   1.210   0.123   2.879  0.4753  0.0921 -0.3467
  563SOL    HW1 1688   1.176   0.026   2.868 -5.6182 -0.0329  2.0912
  563SOL    HW2 1689   1.282   0.152   2.814  0.3532  1.3416  4.6998
  564SOL     OW 1690   2.840   2.111   0.840  0.2283  0.3704  0.1504
  564SOL    HW1 1691   2.929   2.136   0.807 -4.6890  1.6789  3.6185
  564SOL    HW2 1692   2.808   2.188   0.896  1.1672  0.9391  0.1257
  565SOL     OW 1693   0.356   1.952   1.162 -0.2694 -0.1400  0.3259
  565SOL    HW1 1694   0.326   1.895   1.238  2.7002  0.2303  0.3223
  565SOL    HW2 1695   0.330   2.048   1.178  3.4950 -0.6052  1.1164
  566SOL     OW 1696   1.600   2.669   2.272 -0.1818  0.1249  1.1473
  566SOL    HW1 1697   1.553   2.719   2.190 -1.4002  2.0913  2.0652
  566SOL    HW2 1698   1.543   2.598   2.317 -0.4203 -0.0131 -1.4602
  567SOL     OW 1699   2.343   2.921   0.732 -0.5435 -0.6353 -0.2347
  567SOL    HW1 1700   2.288   2.964   0.811 -1.0245 -3.6426  4.4964
  567SOL    HW2 1701   2.356   2.993   0.660 -1.0920  3.0720  0.4388
  568SOL     OW 1702   1.620   1.290   0.803  0.1903  0.3205  0.7837
  568SOL    HW1 1703   1.518   1.284   0.782  0.5467  1.6661 -0.6964
  568SOL    HW2 1704   1.653   1.378   0.760  3.1756  0.8260  0.5774
  569SOL     OW 1705   2.756   1.448   2.665 -0.3175 -0.2736 -0.4722
  569SOL    HW1 1706   2.723   1.544   2.676 -2.4094 -0.2338  0.4675
  569SOL    HW2 1707   2.722   1.386   2.741  1.6733 -0.8102  1.1148
  570SOL     OW 1708   2.991   0.082   1.714 -0.2742  0.1430  0.3423
  570SOL    HW1 1709   2.984   0.171   1.665  2.5307 -1.3379  2.0217
  570SOL    HW2 1710   2.981   0.007   1.646  3.2073  1.4124  0.7987
  571SOL     OW 1711   0.479   0.132   1.731  0.6233  0.0213  0.7392
  571SOL    HW1 1712   0.414   0.199   1.702  1.9472  2.3011 -1.6659
  571SOL    HW2 1713   0.491   0.056   1.663  0.1969 -2.5876 -1.4103
  572SOL     OW 1714   2.830   2.405   1.326 -0.3530  0.2152  0.1823
  572SOL    HW1 1715   2.904   2.430   1.263 -0.3160 -0.5364 -0.5515
  572SOL    HW2 1716   2.853   2.444   1.418 -3.0319  0.0971 -2.3345
  573SOL     OW 1717   1.027   0.735   0.118  0.0531 -0.0094 -0.0067
  573SOL    HW1 1718   0.953   0.720   0.046 -0.5003  1.6940 -3.3678
  573SOL    HW2 1719   1.062   0.642   0.146 -0.7671 -1.6279  1.1887
  574SOL     OW 1720   2.155   2.913   2.853 -0.2020 -0.1375 -0.2849
  574SOL    HW1 1721   2.071   2.973   2.870 -0.6551  1.4735  0.3954
  574SOL    HW2 1722   2.190   2.933   2.761  0.4848 -0.5500  2.3194
  575SOL     OW 1723   1.313   2.705   1.335  0.1517  0.4971 -0.0902
  575SOL    HW1 1724   1.318   2.651   1.423 -2.1549  0.4943  0.6103
  575SOL    HW2 1725   1.394   2.697   1.274 -1.1994  0.2119  3.4041
  576SOL     OW 1726   0.901   0.130   1.051  0.1706 -0.6851 -0.0814
  576SOL    HW1 1727   0.978   0.161   0.989 -0.9611 -0.8229  1.5147
  576SOL    HW2 1728   0.821   0.198   1.045 -0.8023  3.1673 -0.3879
  577SOL     OW 1729   2.298   1.245   0.818 -0.2244  0.1423  0.2987
  577SOL    HW1 1730   2.345   1.307   0.748  1.8739 -1.5494  0.2280
  577SOL    HW2 1731   2.213   1.202   0.784 -3.0932  0.8462 -1.1633
  578SOL     OW 1732   1.713   0.396   0.582 -0.2430 -0.2639  0.8487
  578SOL    HW1 1733   1.780   0.358   0.514  1.4383  0.7114  1.8039
  578SOL    HW2 1734   1.762   0.451   0.656  3.7323  0.8401  1.2424
  579SOL     OW 1735   1.849   0.807   3.003 -0.2218 -0.4271 -0.2480
  579SOL    HW1 1736   1.896   0.744   2.940  1.2444  1.1876  2.7751
  579SOL    HW2 1737   1.832   0.764   0.027  1.3876  0.9802  0.9264
  580SOL     OW 1738   1.674   0.713   2.026  0.5957 -0.5049 -0.8976
  580SOL    HW1 1739   1.617   0.679   2.107 -2.3762 -2.4340  0.8619
  580SOL    HW2 1740   1.633   0.799   1.991 -0.8837  1.9738  0.5449
  581SOL     OW 1741   0.428   0.658   0.604 -0.1296  0.1968  0.2462
  581SOL    HW1 1742   0.501   0.587   0.624  2.3949  1.6956  3.1463
  581SOL    HW2 1743   0.421   0.663   0.501 -0.0959  1.2030 -0.3796
  582SOL     OW 1744   2.814   0.113   1.922  0.7510  0.1724 -0.0014
  582SOL    HW1 1745   2.867   0.091   1.837  1.4233 -1.5234  0.1617
  582SOL    HW2 1746   2.800   0.217   1.927  0.6371 -0.4454  0.1466
  583SOL     OW 1747   0.337   0.706   2.382 -0.9954 -0.4026  0.0287
  583SOL    HW1 1748   0.427   0.752   2.409  4.3323  0.2213  0.6257
  583SOL    HW2 1749   0.333   0.605   2.395  0.1148 -1.8557  1.2502
  584SOL     OW 1750   1.824   2.084   2.936  0.8513  0.1795 -0.2486
  584SOL    HW1 1751   1.904   2.089   2.878  2.0891 -2.2985 -0.9279
  584SOL    HW2 1752   1.789   2.179   2.940  0.2906 -0.1518  2.4873
  585SOL     OW 1753   0.513   2.131   2.950 -0.1290  0.1008 -0.0420
  585SOL    HW1 1754   0.426   2.081   2.910 -2.2048 -0.9694 -0.7353
  585SOL    HW2 1755   0.488   2.179   3.036 -0.9949  0.8283 -2.0397
  586SOL     OW 1756   2.179   2.033   2.711  0.4826  0.1665  0.1793
  586SOL    HW1 1757   2.190   2.017   2.812  1.6611  1.1561 -0.3001
  586SOL    HW2 1758   2.089   1.989   2.680 -1.0749  0.9910  0.0037
  587SOL     OW 1759   2.572   1.995   2.865  0.2691  0.4667  0.0694
  587SOL    HW1 1760   2.530   1.921   2.924  2.4612 -2.2071  3.9409
  587SOL    HW2 1761   2.598   1.970   2.768  1.5496  1.2268 -3.5559
  588SOL     OW 1762   3.052   0.521   0.900 -0.0096 -0.7293  0.1195
  588SOL    HW1 1763   2.974   0.501   0.835 -0.2761 -0.4371 -0.6837
  588SOL    HW2 1764   0.069   0.529   0.843  1.3330  3.3361  2.7987
  589SOL     OW 1765   0.969   0.241   0.242 -0.1631  0.0393  0.1304
  589SOL    HW1 1766   1.008   0.337   0.250  0.9157  0.7643 -0.1281
  589SOL    HW2 1767   0.872   0.240   0.271 -1.5340 -1.6508 -0.6853
  590SOL     OW 1768   2.090   2.369   0.412  0.3203 -0.0405 -0.0216
  590SOL    HW1 1769   2.144   2.408   0.339 -1.3422 -1.7424  0.0844
  590SOL    HW2 1770   1.999   2.331   0.375 -5.7645 -1.4222 -4.9778
  591SOL     OW 1771   0.276   2.184   1.215 -0.9247 -0.3240  0.0220
  591SOL    HW1 1772   0.175   2.188   1.215  0.8414 -0.7231  0.3272
  591SOL    HW2 1773   0.320   2.253   1.148  2.8324 -0.3810 -1.0341
  592SOL     OW 1774   1.427   0.871   1.062 -0.2234 -0.2812 -0.8077
  592SOL    HW1 1775   1.356   0.812   1.020 -0.7915  3.0240  1.8558
  592SOL    HW2 1776   1.383   0.940   1.120  0.8606  0.8123 -0.0706
  593SOL     OW 1777   0.799   2.131   1.527  0.1083  0.0212  0.0658
  593SOL    HW1 1778   0.834   2.055   1.466  1.7435 -3.6316  0.0930
  593SOL    HW2 1779   0.697   2.138   1.516 -1.0666 -2.2682 -1.7660
  594SOL     OW 1780   1.088   1.822   0.300  0.2341 -0.6709 -0.0285
  594SOL    HW1 1781   1.104   1.783   0.206  0.8845 -0.4995 -0.0274
  594SOL    HW2 1782   0.995   1.803   0.336  1.1619  0.3235  2.1802
  595SOL     OW 1783   1.718   0.712   1.591  0.5090 -0.0240  0.1569
  595SOL    HW1 1784   1.711   0.626   1.536 -0.1703 -2.0226 -1.3388
  595SOL    HW2 1785   1.779   0.693   1.666 -1.3500  1.4425 -0.0882
  596SOL     OW 1786   3.027   0.767   1.747 -0.3295  0.5961  0.0398
  596SOL    HW1 1787   2.993   0.830   1.820  1.7714 -3.8720 -2.9779
  596SOL    HW2 1788   3.017   0.820   1.661  2.9290 -0.4875  0.6357
  597SOL     OW 1789   1.100   2.627   1.983  0.1326  0.0448 -0.3813
  597SOL    HW1 1790   1.005   2.596   1.968  1.9663 -0.5338 -0.9203
  597SOL    HW2 1791   1.137   2.601   2.078  0.7084  0.8269  1.0918
  598SOL     OW 1792   2.293   1.440   1.622  0.3159  0.0195  0.1318
  598SOL    HW1 1793   2.242   1.494   1.549 -3.4774  0.8624  1.6475
  598SOL    HW2 1794   2.394   1.455   1.624  0.1220 -0.8587 -0.6786
  599SOL     OW 1795   0.761   2.905   0.101 -0.0461 -0.4856 -0.0190
  599SOL    HW1 1796   0.698   2.983   0.131 -2.8949 -0.5888  1.5181
  599SOL    HW2 1797   0.844   2.937   0.055 -1.6436 -1.7105  1.7028
  600SOL     OW 1798   0.204   2.544   0.042  0.1958 -0.0997  0.2832
  600SOL    HW1 1799   0.206   2.630   0.104 -1.9818  0.4727  0.5715
  600SOL    HW2 1800   0.138   2.477   0.070 -0.4244  1.7316 -1.0948
  601SOL     OW 1801   0.485   0.733   1.514 -0.6005  0.2984  0.1595
  601SOL    HW1 1802   0.395   0.777   1.517  0.1499  1.1389  2.9429
  601SOL    HW2 1803   0.534   0.760   1.595 -2.8741  1.8230 -1.7032
  602SOL     OW 1804   0.420   0.145   0.830 -0.2721 -0.4133 -0.1107
  602SOL    HW1 1805   0.449   0.079   0.905 -0.0755  1.0614  0.4947
  602SOL    HW2 1806   0.501   0.167   0.774  1.0799  1.8100  1.4055
  603SOL     OW 1807   0.418   0.276   2.596 -0.0008  0.0080  0.4021
  603SOL    HW1 1808   0.364   0.242   2.671  1.8020  2.7088 -1.4753
  603SOL    HW2 1809   0.483   0.342   2.641 -1.7646  1.7767 -0.5572
  604SOL     OW 1810   1.127   2.546   1.619 -0.8936 -0.2905  0.2499
  604SOL    HW1 1811   1.195   2.475   1.643  0.4440  0.8427  2.3833
  604SOL    HW2 1812   1.054   2.511   1.557 -1.3903 -1.5107  0.5125
  605SOL     OW 1813   1.458   1.257   1.921  0.2341 -0.1047 -0.5295
  605SOL    HW1 1814   1.469   1.337   1.981 -3.0840  1.2680  1.2287
  605SOL    HW2 1815   1.364   1.245   1.889  1.8524  0.6562  2.7991
  606SOL     OW 1816   1.852   3.037   2.781 -0.3794  0.3997  0.0593
  606SOL    HW1 1817   1.822   0.062   2.800  2.4496 -2.9278  1.6337
  606SOL    HW2 1818   1.876   2.996   2.869 -0.6574 -0.1687 -2.9411
  607SOL     OW 1819   0.983   0.400   1.581 -0.3401  0.6691  0.0145
  607SOL    HW1 1820   1.067   0.448   1.604  1.4701  0.4535  0.3484
  607SOL    HW2 1821   1.000   0.296   1.566 -1.2503 -3.7582 -0.8682
  608SOL     OW 1822   0.411   2.179   2.462  0.1734  0.3274  0.2758
  608SOL    HW1 1823   0.453   2.123   2.385  0.7980 -1.3204  0.3996
  608SOL    HW2 1824   0.454   2.157   2.552 -1.7165  0.6296 -0.0319
  609SOL     OW 1825   1.107   1.381   0.352  0.0069  0.2864  0.4210
  609SOL    HW1 1826   1.059   1.302   0.312  0.3437  1.8679  0.7689
  609SOL    HW2 1827   1.143   1.450   0.286 -0.6369 -3.7578  2.7471
  610SOL     OW 1828   0.246   0.325   0.901  0.4552  0.1510 -0.4230
  610SOL    HW1 1829   0.300   0.244   0.881  1.3666  3.9270  0.6532
  610SOL    HW2 1830   0.274   0.358   0.994  2.3614  2.4901  0.3168
  611SOL     OW 1831   1.167   1.239   0.562  0.5792  0.3713 -0.3736
  611SOL    HW1 1832   1.158   1.289   0.473  3.1631 -0.2443  1.7849
  611SOL    HW2 1833   1.180   1.137   0.535  2.4346  0.2083 -0.3114
  612SOL     OW 1834   1.989   1.667   0.022 -0.8520  0.1134  0.2900
  612SOL    HW1 1835   1.954   1.719   0.100 -0.2356 -1.4142 -3.2407
  612SOL    HW2 1836   1.969   1.567   0.038 -1.8761 -2.0240 -2.7412
  613SOL     OW 1837   1.667   1.534   0.123  0.0474 -0.0936 -0.5016
  613SOL    HW1 1838   1.752   1.486   0.092  2.7921  0.6922 -0.8716
  613SOL    HW2 1839   1.588   1.474   0.108 -1.9970  1.3768  1.3011
  614SOL     OW 1840   2.755   0.283   2.490  0.8912 -0.4943  0.4309
  614SOL    HW1 1841   2.774   0.317   2.393 -1.2071  0.8172 -1.9081
  614SOL    HW2 1842   2.749   0.181   2.491 -1.6448 -0.2524  1.6276
  615SOL     OW 1843   0.808   1.627   0.642 -0.0004 -0.7357  0.2580
  615SOL    HW1 1844   0.899   1.637   0.683 -0.4907 -0.5369 -0.3229
  615SOL    HW2 1845   0.817   1.667   0.546  1.5616  1.4912 -4.1091
  616SOL     OW 1846   1.519   0.959   2.660  0.4836  0.3387  0.1773
  616SOL    HW1 1847   1.522   1.058   2.637 -1.1254  0.2629 -0.0885
  616SOL    HW2 1848   1.493   0.941   2.760 -2.4712  2.4062 -1.7519
  617SOL     OW 1849   1.385   0.152   0.319  0.3604  0.5158  0.6220
  617SOL    HW1 1850   1.385   0.254   0.314  0.7859 -2.5969  3.3799
  617SOL    HW2 1851   1.302   0.120   0.373 -1.8556 -1.3686 -0.3327
  618SOL     OW 1852   2.715   1.996   2.295 -0.3339  0.3574 -0.2926
  618SOL    HW1 1853   2.643   1.939   2.251  0.3271  0.0662 -0.6335
  618SOL    HW2 1854   2.680   2.065   2.364  0.0973  0.2900  5.7259
  619SOL     OW 1855   2.318   1.818   0.746  0.5413 -0.5771 -0.7323
  619SOL    HW1 1856   2.216   1.831   0.745  0.4802 -1.3154  1.0139
  619SOL    HW2 1857   2.362   1.853   0.662 -0.8087 -1.9224  1.7713
  620SOL     OW 1858   2.327   2.953   1.562  0.3273 -0.1927  0.0424
  620SOL    HW1 1859   2.316   2.858   1.522  0.2309 -1.9652  3.1713
  620SOL    HW2 1860   2.425   2.979   1.550  0.4923 -1.4267  1.8842
  621SOL     OW 1861   2.803   1.921   0.671  0.5418 -0.0147  0.8167
  621SOL    HW1 1862   2.833   1.825   0.692  0.4233 -1.0856 -0.4061
  621SOL    HW2 1863   2.826   1.980   0.749 -2.7435  0.1621 -1.6192
  622SOL     OW 1864   0.439   1.518   2.259 -0.0348  0.0267 -0.1664
  622SOL    HW1 1865   0.349   1.515   2.300  0.1840 -1.8981  1.7579
  622SOL    HW2 1866   0.504   1.490   2.327 -1.1254  0.0472 -1.7758
  623SOL     OW 1867   2.816   2.796   2.717 -0.0558 -0.1443 -0.0685
  623SOL    HW1 1868   2.844   2.700   2.715 -0.3505  0.9182  0.0990
  623SOL    HW2 1869   2.891   2.859   2.700 -2.3116 -2.0631  0.4757
  624SOL     OW 1870   0.834   1.727   0.387  0.4611 -0.6626 -0.1726
  624SOL    HW1 1871   0.834   1.637   0.335  0.5831 -1.2701 -2.0977
  624SOL    HW2 1872   0.804   1.808   0.334  2.6222  0.3976 -1.1989
  625SOL     OW 1873   0.592   1.972   2.210 -0.1095  0.0521 -0.9586
  625SOL    HW1 1874   0.642   1.893   2.247 -0.9369 -0.2514 -0.4505
  625SOL    HW2 1875   0.488   1.955   2.209 -0.2729  1.3027  0.4375
  626SOL     OW 1876   0.217   2.575   0.468  0.3819 -0.7668  0.9657
  626SOL    HW1 1877   0.235   2.611   0.564  1.6482  0.6265  0.9114
  626SOL    HW2 1878   0.155   2.499   0.466  0.4273  0.6990 -1.2786
  627SOL     OW 1879   0.950   1.467   2.951  0.2547  0.3942  0.0052
  627SOL    HW1 1880   0.877   1.396   2.975  0.5395  2.0246  1.1793
  627SOL    HW2 1881   0.917   1.562   2.948 -0.7454 -1.8955 -3.0428
  628SOL     OW 1882   1.581   2.165   0.654 -0.0006 -0.1294  0.2507
  628SOL    HW1 1883   1.489   2.180   0.686  2.0088 -0.7841 -1.4028
  628SOL    HW2 1884   1.643   2.174   0.733 -0.3217 -1.5719  0.5122
  629SOL     OW 1885   0.716   0.423   1.683 -0.3545  0.5461 -0.4000
  629SOL    HW1 1886   0.707   0.345   1.747 -1.1250  1.7015 -1.3432
  629SOL    HW2 1887   0.813   0.438   1.664 -3.4250  1.5019  1.1631
  630SOL     OW 1888   2.487   0.353   1.895  0.4298  0.2885  0.0526
  630SOL    HW1 1889   2.430   0.300   1.827  0.6526  0.5634 -0.3261
  630SOL    HW2 1890   2.424   0.415   1.948 -3.1250  1.7345  4.9556
  631SOL     OW 1891   1.306   0.380   0.876 -0.0024 -0.2008  0.3007
  631SOL    HW1 1892   1.314   0.342   0.780  0.3638 -5.5319  0.1295
  631SOL    HW2 1893   1.243   0.459   0.893 -0.1869 -0.2169  0.6285
  632SOL     OW 1894   2.611   0.803   1.902 -0.2506  0.0833  0.3717
  632SOL    HW1 1895   2.570   0.742   1.970 -0.4230  1.1388 -0.8061
  632SOL    HW2 1896   2.643   0.749   1.826  1.5780  0.0353  1.9371
  633SOL     OW 1897   1.262   1.210   2.792  0.6926 -0.1904 -0.2235
  633SOL    HW1 1898   1.257   1.309   2.808  0.1803  0.2218  0.1914
  633SOL    HW2 1899   1.231   1.191   2.696  2.3265  0.0274  1.6262
  634SOL     OW 1900   0.489   2.221   0.139  0.3345  0.7829 -0.2803
  634SOL    HW1 1901   0.494   2.325   0.143  1.7888  0.6030  2.2957
  634SOL    HW2 1902   0.559   2.171   0.198  0.2707 -2.2065  1.0442
  635SOL     OW 1903   2.731   1.558   1.829 -0.1220 -0.3616  0.3210
  635SOL    HW1 1904   2.650   1.624   1.835 -1.5417  1.9563  0.0082
  635SOL    HW2 1905   2.737   1.501   1.915 -3.8933 -0.6923  0.6222
  636SOL     OW 1906   0.270   1.853   0.139  0.2759 -0.1671 -0.3062
  636SOL    HW1 1907   0.268   1.834   0.240  2.4810 -0.5461 -0.5755
  636SOL    HW2 1908   0.252   1.946   0.120  1.6941 -2.2503  0.4549
  637SOL     OW 1909   0.008   2.375   0.537 -0.4809 -0.0269  0.4822
  637SOL    HW1 1910   0.065   2.306   0.487  1.5130 -0.4912 -0.4736
  637SOL    HW2 1911   2.985   2.334   0.569  2.3938  0.6485  3.5591
  638SOL     OW 1912   2.498   2.757   0.481  0.2902 -0.1435  0.4691
  638SOL    HW1 1913   2.502   2.779   0.579  1.1373 -0.6107  1.0784
  638SOL    HW2 1914   2.522   2.661   0.468  0.6733 -0.8302  1.6982
  639SOL     OW 1915   1.087   0.475   0.275  0.2457 -0.4158 -0.6338
  639SOL    HW1 1916   1.044   0.548   0.333  1.7422  0.8208 -1.6057
  639SOL    HW2 1917   1.175   0.438   0.314  2.7504 -1.7965 -1.5773
  640SOL     OW 1918   2.325   2.190   1.552  0.3321 -0.0932 -0.1077
  640SOL    HW1 1919   2.338   2.102   1.600 -0.4203 -1.6731  2.6215
  640SOL    HW2 1920   2.401   2.255   1.571  2.1819 -0.6865 -0.4689
  641SOL     OW 1921   2.655   0.058   1.146  0.0208  0.5143  0.2905
  641SOL    HW1 1922   2.736   0.053   1.083  1.4146  1.4238  0.0581
  641SOL    HW2 1923   2.625   3.032   1.178  0.6742 -3.2853 -1.2450
  642SOL     OW 1924   1.467   0.863   1.568 -0.2611  0.4592  0.1446
  642SOL    HW1 1925   1.558   0.821   1.548  0.3898  1.1331 -2.2557
  642SOL    HW2 1926   1.470   0.958   1.536 -2.5878 -3.7319  1.5149
  643SOL     OW 1927   0.957   1.671   2.299 -0.0260  0.3437  0.2207
  643SOL    HW1 1928   1.055   1.698   2.300 -1.9286  2.6121 -0.2614
  643SOL    HW2 1929   0.950   1.571   2.307 -2.0358 -0.4367 -0.4206
  644SOL     OW 1930   1.732   0.169   2.007 -0.4727  0.1021  0.1244
  644SOL    HW1 1931   1.809   0.112   2.040 -1.5942  3.8927  2.3078
  644SOL    HW2 1932   1.713   0.236   2.080 -1.1813  1.1601 -1.5229
  645SOL     OW 1933   1.651   1.190   1.736  0.0853  0.2339 -0.0856
  645SOL    HW1 1934   1.620   1.159   1.645 -1.5539  2.7251  1.1061
  645SOL    HW2 1935   1.565   1.213   1.789 -0.2405  2.8287  0.0458
  646SOL     OW 1936   1.418   2.318   0.037  0.0352  0.4744  0.2331
  646SOL    HW1 1937   1.393   2.251   3.029 -0.7091 -1.0343 -0.3952
  646SOL    HW2 1938   1.379   2.405   0.018  2.5328 -4.8106 -0.9659
  647SOL     OW 1939   1.483   2.568   1.106  0.8907 -0.5414 -0.1533
  647SOL    HW1 1940   1.457   2.529   1.014  0.6949  1.6648 -2.9541
  647SOL    HW2 1941   1.490   2.490   1.176  2.3096 -2.7399  0.6985
  648SOL     OW 1942   2.998   2.153   1.447 -0.0100  0.4421 -0.1757
  648SOL    HW1 1943   2.921   2.179   1.504 -2.1286 -0.6373 -3.0815
  648SOL    HW2 1944   0.021   2.160   1.499 -2.4802 -1.9335 -3.0420
  649SOL     OW 1945   1.117   2.475   2.673 -0.0175 -0.0589 -0.4247
  649SOL    HW1 1946   1.079   2.490   2.769 -1.2779  0.1809  2.8187
  649SOL    HW2 1947   1.063   2.537   2.608  1.5334  1.3168 -0.9855
  650SOL     OW 1948   2.948   1.862   2.963  0.2787 -0.0437  0.2740
  650SOL    HW1 1949   2.919   1.805   2.887 -0.5334 -1.4163  0.8501
  650SOL    HW2 1950   2.925   1.828   3.057 -4.4469  1.4621  0.3853
  651SOL     OW 1951   2.507   2.186   2.147 -0.0044  0.0949  0.3995
  651SOL    HW1 1952   2.460   2.126   2.076  1.6108 -2.4453  1.1282
  651SOL    HW2 1953   2.488   2.285   2.126 -2.3561  1.0863 -3.2016
  652SOL     OW 1954   2.210   2.672   0.805 -0.3277  0.1794  0.1093
  652SOL    HW1 1955   2.251   2.750   0.759 -2.1813 -2.2986  1.1824
  652SOL    HW2 1956   2.215   2.589   0.743  3.2319 -1.5940  1.2902
  653SOL     OW 1957   0.059   1.288   1.395  0.4008  0.6294 -0.0239
  653SOL    HW1 1958   0.096   1.381   1.425  0.6253  3.8158 -0.3599
  653SOL    HW2 1959   0.083   1.275   1.299 -3.4754 -0.6571  2.5603
  654SOL     OW 1960   1.068   0.700   2.820 -0.4009  0.2904 -0.0166
  654SOL    HW1 1961   1.041   0.740   2.726 -1.8343  1.8265 -2.2029
  654SOL    HW2 1962   0.991   0.716   2.887 -1.3667 -4.9328  1.1069
  655SOL     OW 1963   1.093   0.875   1.134 -0.1735 -0.0751 -0.5297
  655SOL    HW1 1964   1.049   0.968   1.128  0.6759 -0.3409  0.0770
  655SOL    HW2 1965   1.142   0.856   1.053 -2.5122 -0.4090  2.5691
  656SOL     OW 1966   1.303   2.408   1.970  0.1864 -0.0567 -0.4811
  656SOL    HW1 1967   1.230   2.339   1.961 -0.3330 -0.0620 -0.8484
  656SOL    HW2 1968   1.295   2.464   2.054  0.2190 -0.8470  1.4295
  657SOL     OW 1969   1.867   1.399   3.053  0.5179  0.1142  0.0223
  657SOL    HW1 1970   1.917   1.318   0.018 -0.5777  2.2874  1.3615
  657SOL    HW2 1971   1.813   1.379   2.971 -2.7812 -2.2980 -1.1861
  658SOL     OW 1972   1.679   2.246   1.539 -0.6190  0.1563 -0.3749
  658SOL    HW1 1973   1.776   2.213   1.524  2.7722  1.9672 -2.7436
  658SOL    HW2 1974   1.684   2.308   1.617  1.4914  2.2081 -2.8772
  659SOL     OW 1975   2.889   1.782   0.147 -0.0767 -0.7499 -0.1241
  659SOL    HW1 1976   2.904   1.683   0.138  0.9895  0.2425 -4.5214
  659SOL    HW2 1977   2.954   1.824   0.217  1.8281  1.7157 -0.8564
  660SOL     OW 1978   0.895   0.171   0.657 -0.0795  0.4013 -0.8101
  660SOL    HW1 1979   0.982   0.232   0.647  0.9890 -0.0404 -3.3664
  660SOL    HW2 1980   0.923   0.074   0.683 -0.5331 -0.4440  4.4043
  661SOL     OW 1981   1.983   0.454   3.061 -0.0010  0.6579 -0.2956
  661SOL    HW1 1982   1.914   0.514   0.038 -0.5369 -3.4392 -0.0501
  661SOL    HW2 1983   1.951   0.360   3.052  2.7680  1.7978 -1.2258
  662SOL     OW 1984   0.290   0.322   0.480  0.0201  0.3632 -0.0109
  662SOL    HW1 1985   0.244   0.252   0.535  1.1274 -1.5893 -1.9436
  662SOL    HW2 1986   0.362   0.369   0.537 -0.9012 -0.0441 -0.0278
  663SOL     OW 1987   1.740   2.838   2.438  0.0134 -0.2028  0.0373
  663SOL    HW1 1988   1.671   2.882   2.498  0.7394 -1.7112 -1.8124
  663SOL    HW2 1989   1.697   2.782   2.365  2.0050 -0.5419 -1.8721
  664SOL     OW 1990   0.614   2.518   1.608  0.3346 -0.3595 -0.1051
  664SOL    HW1 1991   0.513   2.539   1.594  0.4955  0.8654  1.9531
  664SOL    HW2 1992   0.661   2.510   1.513  2.0561  0.5906 -1.9398
  665SOL     OW 1993   1.483   2.383   1.323  0.0261 -0.6995  0.1682
  665SOL    HW1 1994   1.481   2.437   1.411  1.6390 -2.3550  0.5855
  665SOL    HW2 1995   1.506   2.285   1.341  1.4310  0.7784  0.0930
  666SOL     OW 1996   0.923   2.889   2.202 -0.0110  0.2497  0.6967
  666SOL    HW1 1997   0.912   2.791   2.218  2.9905  4.0158  2.6334
  666SOL    HW2 1998   0.842   2.929   2.151  0.1048 -0.7793  1.0532
  667SOL     OW 1999   2.670   0.679   1.646  0.1069 -0.1527 -0.0395
  667SOL    HW1 2000   2.655   0.746   1.569 -0.5568 -1.7780 -0.8902
  667SOL    HW2 2001   2.751   0.622   1.633  0.8589  0.8658  1.5775
  668SOL     OW 2002   1.425   0.274   1.451  0.1349  0.0448 -0.2025
  668SOL    HW1 2003   1.512   0.324   1.464 -2.9531 -2.7151 -1.6558
  668SOL    HW2 2004   1.360   0.336   1.400 -2.1356  0.4753 -2.0789
  669SOL     OW 2005   2.382   2.465   1.081 -0.1577 -0.1625 -0.3446
  669SOL    HW1 2006   2.428   2.442   1.169 -0.0681 -0.0421  1.0510
  669SOL    HW2 2007   2.440   2.426   1.004  2.4668  1.2706 -2.2808
  670SOL     OW 2008   1.382   2.399   2.734 -0.3244  0.3529 -0.2438
  670SOL    HW1 2009   1.451   2.473   2.734 -0.2261  0.1490 -4.1902
  670SOL    HW2 2010   1.287   2.433   2.738  0.5242  2.1907  1.6380
  671SOL     OW 2011   0.667   0.789   0.367 -0.1848 -0.7500 -0.0922
  671SOL    HW1 2012   0.700   0.841   0.284 -0.9221 -3.2099 -0.4363
  671SOL    HW2 2013   0.583   0.740   0.351  3.4289 -0.3245 -0.6428
  672SOL     OW 2014   2.781   1.185   3.047 -0.2774  0.3324 -0.4760
  672SOL    HW1 2015   2.816   1.086   3.041  0.4960 -2.8399 -1.5453
  672SOL    HW2 2016   2.710   1.184   0.054 -0.0110  1.0923 -0.0615
  673SOL     OW 2017   0.005   1.806   1.718  0.2029 -0.4896  0.1636
  673SOL    HW1 2018   3.030   1.736   1.658  1.8704 -1.4859 -2.1896
  673SOL    HW2 2019   0.106   1.795   1.731 -1.5514 -4.1197  0.9235
  674SOL     OW 2020   1.304   2.107   1.656 -0.2139  0.5095 -0.1055
  674SOL    HW1 2021   1.209   2.104   1.688  1.0997 -2.3448  0.1090
  674SOL    HW2 2022   1.312   2.040   1.574 -1.3567 -5.0372 -0.8866
  675SOL     OW 2023   1.002   1.151   1.130  0.0617 -0.5732  0.2746
  675SOL    HW1 2024   1.013   1.170   1.227 -0.8174  1.0436 -0.7130
  675SOL    HW2 2025   0.915   1.199   1.098 -0.4709  1.5405 -1.2862
  676SOL     OW 2026   2.264   0.612   0.845 -0.1260  0.2606  0.1699
  676SOL    HW1 2027   2.206   0.694   0.821 -2.6908 -0.8610  0.2696
  676SOL    HW2 2028   2.342   0.630   0.905 -0.6940  1.1963 -2.0116
  677SOL     OW 2029   2.444   0.332   0.132  0.3371  0.1492 -0.8495
  677SOL    HW1 2030   2.392   0.254   0.171  0.9122 -0.3317 -0.1720
  677SOL    HW2 2031   2.413   0.352   0.033 -2.0271  0.4129  0.5092
  678SOL     OW 2032   2.561   1.255   1.246  0.5184 -0.2785 -0.6875
  678SOL    HW1 2033   2.534   1.319   1.319 -1.4144 -0.6880  0.7474
  678SOL    HW2 2034   2.483   1.216   1.189  0.2559 -0.5681  0.0193
  679SOL     OW 2035   2.346   0.466   2.971 -0.1306 -0.2382  0.0398
  679SOL    HW1 2036   2.409   0.479   2.891 -0.1594 -0.0515  2.0846
  679SOL    HW2 2037   2.329   0.559   3.012  0.3300 -0.6206  2.3681
  680SOL     OW 2038   0.518   1.116   2.354  0.0019 -0.1124  0.5382
  680SOL    HW1 2039   0.507   1.052   2.275  0.8254 -0.5998  3.0180
  680SOL    HW2 2040   0.430   1.115   2.407  1.0135  0.0184 -0.1385
  681SOL     OW 2041   2.783   2.123   1.640 -0.2750 -0.5335  0.3310
  681SOL    HW1 2042   2.839   2.076   1.713  0.5866 -0.7560 -0.7574
  681SOL    HW2 2043   2.727   2.060   1.585 -1.1655  2.3467 -0.5081
  682SOL     OW 2044   0.498   1.760   3.059  0.2860 -0.0736  0.1183
  682SOL    HW1 2045   0.552   1.805   2.987 -0.1906  0.1021  1.9754
  682SOL    HW2 2046   0.433   1.827   0.026  1.7460 -0.5031 -2.6205
  683SOL     OW 2047   2.515   2.005   1.021 -0.2075  0.1144  0.1935
  683SOL    HW1 2048   2.507   1.901   1.013  1.3066 -3.7588 -0.9154
  683SOL    HW2 2049   2.522   2.032   1.116 -0.4382  2.3989  1.3040
  684SOL     OW 2050   2.518   1.059   1.856  0.1058  0.3244  0.3059
  684SOL    HW1 2051   2.563   0.965   1.862  1.4049  2.1983 -0.1351
  684SOL    HW2 2052   2.562   1.114   1.927  1.2021 -1.9874 -0.0642
  685SOL     OW 2053   1.209   0.776   0.897  0.1684  0.4029  0.4316
  685SOL    HW1 2054   1.277   0.744   0.823  2.4778 -1.0089 -0.7002
  685SOL    HW2 2055   1.158   0.690   0.932 -1.8795 -1.4806  1.2476
  686SOL     OW 2056   0.709   0.195   3.002  0.0971  0.0250 -0.4539
  686SOL    HW1 2057   0.722   0.115   2.939 -2.0465  0.6304  2.7774
  686SOL    HW2 2058   0.697   0.160   0.033  0.7103  0.0050  3.2338
  687SOL     OW 2059   0.245   2.391   2.419  0.2032 -0.7625  0.1059
  687SOL    HW1 2060   0.149   2.362   2.405 -0.3483 -2.0102 -0.3916
  687SOL    HW2 2061   0.303   2.305   2.440  2.2598 -5.2845  0.2396
  688SOL     OW 2062   2.092   0.275   1.524  0.1965 -0.2840  0.3281
  688SOL    HW1 2063   2.067   0.375   1.500  1.4385  3.9340  0.7984
  688SOL    HW2 2064   2.097   0.222   1.437 -0.3080 -0.8995  0.0347
  689SOL     OW 2065   1.865   0.920   0.587  0.0607 -0.0843  0.0777
  689SOL    HW1 2066   1.860   0.818   0.583  0.2645 -0.5525 -1.9563
  689SOL    HW2 2067   1.949   0.952   0.538  1.3113  0.9229 -4.5790
  690SOL     OW 2068   3.004   0.935   1.545 -0.5934 -0.0988 -0.8698
  690SOL    HW1 2069   3.007   1.035   1.549 -0.0733 -2.2906 -1.4435
  690SOL    HW2 2070   2.970   0.896   1.461  0.1866 -0.8881 -0.5651
  691SOL     OW 2071   0.103   1.138   1.792 -0.0843  0.2705 -0.0308
  691SOL    HW1 2072   0.133   1.110   1.702  1.4886 -1.9485  0.8413
  691SOL    HW2 2073   0.019   1.189   1.807 -0.0161 -1.3012  0.8727
  692SOL     OW 2074   0.907   0.673   1.928 -0.1408 -0.3580  0.7323
  692SOL    HW1 2075   0.936   0.598   1.994  1.4502 -0.4808 -0.5801
  692SOL    HW2 2076   0.986   0.698   1.867  2.0922 -2.4591  0.2709
  693SOL     OW 2077   0.471   1.263   2.128  0.4261 -0.4228  0.0004
  693SOL    HW1 2078   0.452   1.360   2.156 -2.9342 -1.7716  0.6175
  693SOL    HW2 2079   0.504   1.211   2.210 -1.5863  3.0759 -0.9557
  694SOL     OW 2080   1.423   1.662   0.535  0.3706  0.0407 -0.1186
  694SOL    HW1 2081   1.492   1.615   0.482 -0.3593  0.6975  4.8690
  694SOL    HW2 2082   1.436   1.761   0.515 -2.2841 -2.3379 -2.0483
  695SOL     OW 2083   0.640   1.052   1.176 -0.0712 -0.2361 -0.3622
  695SOL    HW1 2084   0.721   1.108   1.152 -1.2615  0.4373  1.5362
  695SOL    HW2 2085   0.556   1.105   1.185 -0.5014 -2.6081 -1.4853
  696SOL     OW 2086   0.477   2.626   0.359 -0.8748 -0.4332  0.3004
  696SOL    HW1 2087   0.381   2.647   0.387 -1.3035  0.5132 -0.7408
  696SOL    HW2 2088   0.525   2.566   0.428  2.5054  0.2582 -3.2479
  697SOL     OW 2089   1.279   0.462   1.329  0.0422  0.4573 -0.1442
  697SOL    HW1 2090   1.269   0.558   1.356 -1.7252 -0.2454 -0.7787
  697SOL    HW2 2091   1.189   0.432   1.293  1.2144 -0.2529 -2.6136
  698SOL     OW 2092   1.561   1.544   1.727 -0.2642  0.3440  0.0217
  698SOL    HW1 2093   1.483   1.485   1.699 -0.2713 -3.5210 -0.4548
  698SOL    HW2 2094   1.582   1.617   1.660  0.2401  1.4690  0.6879
  699SOL     OW 2095   0.100   0.526   2.221  0.3984  0.6457 -0.3417
  699SOL    HW1 2096   0.031   0.572   2.161 -1.5237 -1.8272 -2.0513
  699SOL    HW2 2097   0.112   0.567   2.312  0.6375 -0.9264 -2.6146
  700SOL     OW 2098   1.514   2.596   0.724  0.2445 -0.1680 -0.4226
  700SOL    HW1 2099   1.573   2.676   0.706  1.4041  0.3385  0.7524
  700SOL    HW2 2100   1.511   2.522   0.652  1.1313 -1.2402 -0.4817
  701SOL     OW 2101   0.211   1.493   2.670  0.4273 -0.0876  0.6239
  701SOL    HW1 2102   0.121   1.514   2.719 -0.2748  0.6452  2.3839
  701SOL    HW2 2103   0.292   1.519   2.725 -1.0973 -1.0420 -0.2830
  702SOL     OW 2104   0.327   0.309   3.036 -0.8866 -0.0981  0.5836
  702SOL    HW1 2105   0.348   0.230   2.979  0.2293  2.2123 -1.5691
  702SOL    HW2 2106   0.352   0.393   2.979  1.3151 -0.5767 -1.8385
  703SOL     OW 2107   1.550   2.993   2.577 -0.0876 -0.4743  0.0838
  703SOL    HW1 2108   1.519   3.064   2.646 -1.3310  1.7262  0.4784
  703SOL    HW2 2109   1.588   3.030   2.492 -0.4554  0.4663 -2.2746
  704SOL     OW 2110   2.614   2.040   0.522  0.6170 -0.3429 -0.4227
  704SOL    HW1 2111   2.659   2.057   0.434  1.6742 -2.7008  1.2644
  704SOL    HW2 2112   2.670   1.981   0.582 -0.2961  1.4662  0.6252
  705SOL     OW 2113   2.721   1.876   1.945 -0.5898  0.3195 -0.5821
  705SOL    HW1 2114   2.649   1.805   1.934 -1.4888  1.8908  0.2834
  705SOL    HW2 2115   2.707   1.932   2.027  1.6871  0.4953  0.2168
  706SOL     OW 2116   2.951   2.613   0.924 -0.4168  0.1536  0.3531
  706SOL    HW1 2117   2.889   2.612   0.846  0.4082  3.2847 -0.5499
  706SOL    HW2 2118   3.046   2.650   0.901  3.6607  3.5130 -0.9857
  707SOL     OW 2119   0.880   2.828   0.358 -0.0937  0.1647 -0.1708
  707SOL    HW1 2120   0.972   2.786   0.335  0.6743 -1.7704  0.0558
  707SOL    HW2 2121   0.831   2.855   0.278  5.3319 -1.9105  3.4521
  708SOL     OW 2122   0.511   2.137   1.411 -0.3285 -0.2118  0.0822
  708SOL    HW1 2123   0.559   2.169   1.329  1.6754  0.9183  1.3253
  708SOL    HW2 2124   0.421   2.183   1.415 -1.4365  0.2755 -0.3880
  709SOL     OW 2125   1.572   0.026   2.313 -0.4128  0.0098  0.0865
  709SOL    HW1 2126   1.471   0.036   2.307 -0.8743 -1.3655  0.7437
  709SOL    HW2 2127   1.603   3.028   2.242  0.4071 -2.1474 -1.1345
  710SOL     OW 2128   1.433   2.752   2.571  0.3794 -0.3356 -0.5481
  710SOL    HW1 2129   1.482   2.684   2.634  1.7608 -0.5234  1.8479
  710SOL    HW2 2130   1.467   2.847   2.582  0.6491 -0.6277  1.9446
  711SOL     OW 2131   1.378   2.166   2.889 -0.0159 -0.5411 -0.0188
  711SOL    HW1 2132   1.293   2.107   2.884 -0.5880 -2.1399 -1.6373
  711SOL    HW2 2133   1.380   2.231   2.814 -0.0335  2.2776 -0.8801
  712SOL     OW 2134   0.899   1.731   2.935  0.3098  0.0533  0.3268
  712SOL    HW1 2135   0.977   1.771   2.885 -0.6799 -0.9593  0.4802
  712SOL    HW2 2136   0.807   1.756   2.898  0.8232 -1.2847 -0.2572
  713SOL     OW 2137   1.201   0.995   1.680  0.0318 -0.1137  0.1068
  713SOL    HW1 2138   1.120   0.989   1.617 -0.1875 -1.2165  0.3910
  713SOL    HW2 2139   1.279   0.947   1.641 -2.1130  2.3024 -2.4414
  714SOL     OW 2140   1.338   1.486   1.002  0.0135  0.0756  0.2533
  714SOL    HW1 2141   1.383   1.552   0.937 -0.1216  0.5213 -2.7601
  714SOL    HW2 2142   1.315   1.532   1.091  2.6917  2.2227 -1.5084
  715SOL     OW 2143   2.416   0.275   0.728  0.6394 -0.5532  0.7396
  715SOL    HW1 2144   2.356   0.340   0.782  4.1855  0.5171  1.1400
  715SOL    HW2 2145   2.491   0.332   0.691 -1.0615 -1.5008  0.3981
  716SOL     OW 2146   0.492   2.708   0.751  0.5743 -0.1575 -0.4946
  716SOL    HW1 2147   0.556   2.660   0.814 -2.8734 -1.2971  2.6957
  716SOL    HW2 2148   0.538   2.754   0.673  1.3161  2.2637 -1.3121
  717SOL     OW 2149   2.925   0.473   0.126 -0.2750  0.0680  0.2031
  717SOL    HW1 2150   2.871   0.401   0.075  0.1835 -2.6649  0.5094
  717SOL    HW2 2151   2.864   0.547   0.156  1.3859 -0.5415  0.2608
  718SOL     OW 2152   1.744   1.863   1.090 -0.3454  0.0685  0.4422
  718SOL    HW1 2153   1.818   1.809   1.038  1.7162 -2.2908 -0.5346
  718SOL    HW2 2154   1.780   1.949   1.139  0.2249  0.6849  1.1961
  719SOL     OW 2155   2.544   2.332   0.894 -0.2791 -0.2642  0.3783
  719SOL    HW1 2156   2.520   2.243   0.845  2.2783 -0.0591 -3.7644
  719SOL    HW2 2157   2.637   2.336   0.935 -1.2847  0.4165 -1.1895
  720SOL     OW 2158   0.997   0.907   0.770 -0.2009  0.5280  0.1640
  720SOL    HW1 2159   1.082   0.856   0.788 -2.4722  2.0142 -1.0981
  720SOL    HW2 2160   0.996   0.965   0.683  0.2930  2.8325 -1.7569
  721SOL     OW 2161   1.465   0.453   1.117 -0.1533 -0.0211  0.8045
  721SOL    HW1 2162   1.427   0.412   1.027 -4.2805 -2.7815 -2.3222
  721SOL    HW2 2163   1.395   0.456   1.187 -2.8605 -0.5131  0.0313
  722SOL     OW 2164   1.181   1.360   2.153  0.6663 -0.0088  0.3195
  722SOL    HW1 2165   1.202   1.430   2.231 -0.3378  1.0780 -1.6424
  722SOL    HW2 2166   1.084   1.327   2.154  0.5452  0.5921  2.6350
  723SOL     OW 2167   0.889   2.872   1.368 -0.3413 -0.1802 -0.1086
  723SOL    HW1 2168   0.923   2.966   1.353  1.2771 -0.6611  0.3130
  723SOL    HW2 2169   0.927   2.838   1.457  1.3709 -0.6634  3.1089
  724SOL     OW 2170   2.006   1.911   1.461 -0.5759  0.1372  0.2426
  724SOL    HW1 2171   1.943   1.839   1.423  2.4857  0.5243  1.9621
  724SOL    HW2 2172   2.095   1.865   1.473  2.9722  2.6795  1.8348
  725SOL     OW 2173   1.053   2.712   1.210 -0.5035 -0.2818 -0.0502
  725SOL    HW1 2174   0.982   2.753   1.272 -1.3232  1.2213  3.8864
  725SOL    HW2 2175   1.144   2.722   1.248  0.1965  0.6375 -2.0847
  726SOL     OW 2176   1.786   2.873   2.996 -0.4046 -0.2868 -0.9033
  726SOL    HW1 2177   1.705   2.831   3.046  0.6873 -3.5962  0.3051
  726SOL    HW2 2178   1.822   2.801   2.932 -1.9072  0.8007  2.0514
  727SOL     OW 2179   1.458   1.674   0.815  0.7804  0.0261 -0.0386
  727SOL    HW1 2180   1.411   1.714   0.732 -0.1143  0.3415 -2.6852
  727SOL    HW2 2181   1.545   1.637   0.786  0.1371  0.2986  0.4464
  728SOL     OW 2182   1.878   3.040   2.181 -0.6095 -0.8468  0.5326
  728SOL    HW1 2183   1.947   3.048   2.106  1.5473  0.2321 -0.3960
  728SOL    HW2 2184   1.905   0.025   2.268  2.1086  3.0723  0.4901
  729SOL     OW 2185   2.451   1.750   1.233  0.2232  0.6742  0.2864
  729SOL    HW1 2186   2.383   1.818   1.271  0.2422  3.9486 -1.0390
  729SOL    HW2 2187   2.449   1.741   1.131 -0.4626 -1.4265 -1.4998
  730SOL     OW 2188   1.638   0.517   2.622 -0.0257 -0.4571 -0.3992
  730SOL    HW1 2189   1.722   0.462   2.612  0.9468  0.2469  2.9589
  730SOL    HW2 2190   1.667   0.612   2.647  2.0878  1.2194 -1.0095
  731SOL     OW 2191   0.397   0.276   1.318  0.4701 -0.1814 -0.2012
  731SOL    HW1 2192   0.431   0.335   1.394 -2.2395 -1.8749  0.7484
  731SOL    HW2 2193   0.379   0.333   1.233 -1.8072  0.6976 -3.5929
  732SOL     OW 2194   1.822   0.254   1.110 -0.5934  0.5220  0.8526
  732SOL    HW1 2195   1.790   0.338   1.155 -0.7066 -0.2859 -0.4309
  732SOL    HW2 2196   1.865   0.196   1.184  1.5678 -1.2178  2.1918
  733SOL     OW 2197   0.925   0.970   1.585  0.0331  0.5204  0.4072
  733SOL    HW1 2198   0.856   1.035   1.541 -3.7611  0.1494  3.2145
  733SOL    HW2 2199   0.887   0.877   1.589  0.6537  0.7387  1.5716
  734SOL     OW 2200   2.190   2.014   0.156  0.1646 -0.0872  0.5801
  734SOL    HW1 2201   2.202   1.915   0.135  3.0334  1.4821  3.1232
  734SOL    HW2 2202   2.174   2.032   0.256  2.3863 -1.7036 -0.5245
  735SOL     OW 2203   0.542   0.577   0.130 -0.2689 -0.5026  0.3758
  735SOL    HW1 2204   0.481   0.494   0.148 -2.5604 -1.8794  1.5245
  735SOL    HW2 2205   0.632   0.559   0.098  0.1053  1.1362  0.0173
  736SOL     OW 2206   1.837   2.614   2.589  0.5822  0.3151  0.6855
  736SOL    HW1 2207   1.846   2.627   2.690  0.6474  1.1607 -0.8264
  736SOL    HW2 2208   1.804   2.700   2.544 -1.9039  2.9651  0.7996
  737SOL     OW 2209   0.936   1.764   0.993  0.3569  0.1178 -0.5917
  737SOL    HW1 2210   0.916   1.705   1.072  0.5671 -2.1092  1.6340
  737SOL    HW2 2211   1.019   1.817   1.013 -2.3876  1.8384  1.0506
  738SOL     OW 2212   1.861   2.770   2.104 -0.4504 -0.5420 -0.3401
  738SOL    HW1 2213   1.865   2.863   2.138  0.6713 -4.1851 -1.9400
  738SOL    HW2 2214   1.865   2.691   2.168 -4.4329 -2.0147 -1.1982
  739SOL     OW 2215   1.314   2.093   2.447 -0.9158  0.5180 -0.2090
  739SOL    HW1 2216   1.335   2.016   2.511  1.1053  0.7146  0.4885
  739SOL    HW2 2217   1.404   2.136   2.423  0.1951  2.1014 -0.2485
  740SOL     OW 2218   1.913   2.349   1.855 -0.5360  0.5326 -0.3089
  740SOL    HW1 2219   1.955   2.424   1.904  0.5211 -1.3680 -0.1336
  740SOL    HW2 2220   1.827   2.376   1.806  1.4306  1.5651 -0.6705
  741SOL     OW 2221   2.459   1.587   2.598  0.4027 -0.3820  0.0321
  741SOL    HW1 2222   2.457   1.510   2.530  2.9357  0.5880  0.0225
  741SOL    HW2 2223   2.522   1.658   2.560 -2.0045  3.4527 -3.5286
  742SOL     OW 2224   0.745   1.280   2.962 -0.5212  0.2444  0.1976
  742SOL    HW1 2225   0.704   1.370   2.997 -0.6364  2.5786  0.2301
  742SOL    HW2 2226   0.700   1.242   2.878  2.6027 -2.5234 -1.6644
  743SOL     OW 2227   2.099   1.149   2.486  0.1480  0.7055 -0.1644
  743SOL    HW1 2228   2.030   1.090   2.433 -0.3364 -0.6511  1.9529
  743SOL    HW2 2229   2.121   1.232   2.434  0.5522 -0.2419  1.5617
  744SOL     OW 2230   2.083   2.971   1.382 -0.1248  0.0438 -0.2187
  744SOL    HW1 2231   2.137   2.990   1.300 -1.2448 -3.6193  2.2305
  744SOL    HW2 2232   2.142   2.990   1.462 -1.4177  2.3412 -3.0387
  745SOL     OW 2233   2.418   1.143   1.029  0.1005  0.1341  0.3602
  745SOL    HW1 2234   2.349   1.142   1.107 -1.4559 -1.4120  0.0459
  745SOL    HW2 2235   2.369   1.181   0.946 -0.6794  2.2990 -0.4226
  746SOL     OW 2236   2.444   1.741   0.973 -0.0329 -0.2301  0.5592
  746SOL    HW1 2237   2.394   1.784   0.891 -0.3420  1.3765 -1.7246
  746SOL    HW2 2238   2.499   1.655   0.946 -1.8359 -3.4322 -0.2491
  747SOL     OW 2239   2.049   2.654   0.231  0.1911 -0.5684 -0.1598
  747SOL    HW1 2240   1.996   2.733   0.192  1.1049 -1.5829 -1.4642
  747SOL    HW2 2241   2.128   2.687   0.281  1.5180 -0.3125 -2.4399
  748SOL     OW 2242   0.890   2.072   0.111  0.3626  0.0202 -0.3197
  748SOL    HW1 2243   0.844   2.006   0.177 -2.2933 -0.5790  1.0983
  748SOL    HW2 2244   0.854   2.055   0.016  0.4651 -0.7637 -2.2378
  749SOL     OW 2245   2.863   0.378   2.262 -0.0327 -0.5787 -0.6501
  749SOL    HW1 2246   2.954   0.337   2.246 -1.1443  2.9946 -0.2241
  749SOL    HW2 2247   2.835   0.440   2.186  0.3264  0.9748  3.4111
  750SOL     OW 2248   1.212   0.492   1.684 -0.2054  0.3162 -0.0486
  750SOL    HW1 2249   1.272   0.442   1.749 -0.7503  1.8926 -0.4487
  750SOL    HW2 2250   1.197   0.587   1.717 -0.4291  1.2293  0.8446
  751SOL     OW 2251   2.658   2.494   1.953  0.2930 -0.1233 -0.1162
  751SOL    HW1 2252   2.700   2.449   1.874  0.8640 -0.1301 -0.0714
  751SOL    HW2 2253   2.558   2.490   1.940  0.0345  0.9782 -1.7260
  752SOL     OW 2254   1.916   1.382   0.908  0.6150 -0.3969 -0.0332
  752SOL    HW1 2255   1.857   1.303   0.882 -0.4033  1.3889  1.4120
  752SOL    HW2 2256   1.979   1.415   0.831  0.3355  0.7781 -0.0668
  753SOL     OW 2257   1.589   1.085   2.328 -0.3581 -0.1550 -0.1108
  753SOL    HW1 2258   1.613   1.108   2.233 -0.1966  1.9206 -0.0004
  753SOL    HW2 2259   1.495   1.118   2.349 -0.3661 -1.7910  0.1245
  754SOL     OW 2260   0.025   2.311   1.004 -0.1891 -0.0500 -0.1534
  754SOL    HW1 2261   0.042   2.399   1.057  0.9109  1.7261  0.2747
  754SOL    HW2 2262   3.055   2.235   1.063 -0.3145  0.5242  0.8505
  755SOL     OW 2263   2.306   3.031   1.218 -0.0773 -0.1075  0.1839
  755SOL    HW1 2264   2.365   0.047   1.241  0.5429  1.7567  1.5052
  755SOL    HW2 2265   2.373   2.952   1.223 -2.9154 -0.9467  1.0561
  756SOL     OW 2266   1.763   1.945   2.043 -0.1177 -0.0842  0.0169
  756SOL    HW1 2267   1.683   1.900   2.002 -1.7805 -0.1534  1.2761
  756SOL    HW2 2268   1.779   1.905   2.138 -1.3713  1.7829 -1.0042
  757SOL     OW 2269   3.062   2.890   1.942 -0.0682 -0.4276  0.2207
  757SOL    HW1 2270   3.005   2.909   2.022 -0.2474 -1.8039 -0.7878
  757SOL    HW2 2271   0.062   2.971   1.925  1.4567  2.3785  0.2757
  758SOL     OW 2272   0.387   2.788   1.469  0.3068 -0.3265  0.1592
  758SOL    HW1 2273   0.452   2.763   1.399 -0.8721  2.3093  1.8315
  758SOL    HW2 2274   0.368   2.706   1.527  2.1016  1.4915 -1.7405
  759SOL     OW 2275   2.025   1.111   1.126  0.4380  0.8924  0.2913
  759SOL    HW1 2276   2.108   1.111   1.179 -0.0253 -0.1164  1.2645
  759SOL    HW2 2277   1.980   1.203   1.122 -2.1204 -0.1243  0.6130
  760SOL     OW 2278   1.643   0.412   1.524  0.3254  0.6063  0.1884
  760SOL    HW1 2279   1.663   0.342   1.595  0.5280 -0.2916  1.6155
  760SOL    HW2 2280   1.702   0.390   1.440  1.2997  0.7822 -1.6920
  761SOL     OW 2281   2.075   0.178   0.821  0.2787  0.2632  0.9770
  761SOL    HW1 2282   1.992   0.127   0.844  1.9096 -1.1990 -2.5200
  761SOL    HW2 2283   2.152   0.115   0.809  0.9285  0.5160 -2.0185
  762SOL     OW 2284   1.909   2.870   0.186 -0.3382 -0.0311  0.7136
  762SOL    HW1 2285   1.931   2.969   0.213 -1.4484  3.0120  0.8714
  762SOL    HW2 2286   1.856   2.872   0.103  1.2184  0.1649 -1.1952
  763SOL     OW 2287   1.020   0.454   1.217  0.6135  0.1412  0.3034
  763SOL    HW1 2288   0.942   0.384   1.228 -1.9404 -1.0285 -4.2129
  763SOL    HW2 2289   0.992   0.550   1.239  1.2074  1.1506 -3.0995
  764SOL     OW 2290   2.578   2.502   2.548 -0.9379  0.4425 -0.3479
  764SOL    HW1 2291   2.646   2.475   2.477  1.5834 -1.2874  1.4929
  764SOL    HW2 2292   2.533   2.587   2.518  2.0822 -2.0321 -1.6909
  765SOL     OW 2293   2.945   1.077   2.488  0.5471  0.2370  0.3799
  765SOL    HW1 2294   2.925   1.026   2.401  1.5605  0.6951  0.4185
  765SOL    HW2 2295   2.976   1.020   2.561 -1.3930 -0.3434 -2.0238
  766SOL     OW 2296   2.781   1.357   2.378  0.0220  0.0795 -0.0856
  766SOL    HW1 2297   2.829   1.437   2.421  2.2121  0.5742  2.3625
  766SOL    HW2 2298   2.741   1.311   2.455  1.8108 -0.1137 -3.0315
  767SOL     OW 2299   0.139   2.150   1.624 -0.6519 -0.1859  0.0337
  767SOL    HW1 2300   0.083   2.197   1.695  0.5729  1.1540  0.4719
  767SOL    HW2 2301   0.207   2.091   1.668 -3.4395  0.9173 -2.1923
  768SOL     OW 2302   0.825   0.689   2.997 -0.2214 -0.2439 -0.2749
  768SOL    HW1 2303   0.792   0.594   3.024 -2.7849 -2.6799  1.5019
  768SOL    HW2 2304   0.756   0.755   2.963  2.4592  2.2871 -3.8655
  769SOL     OW 2305   1.275   2.566   0.023 -0.9416  0.5165  0.2282
  769SOL    HW1 2306   1.212   2.555   3.010 -0.0008  2.7575  0.3068
  769SOL    HW2 2307   1.231   2.549   0.109  1.0245  2.4244 -1.1760
  770SOL     OW 2308   1.036   0.244   2.406 -0.5209 -0.5005 -0.3311
  770SOL    HW1 2309   0.945   0.272   2.380  1.1261  2.0960  1.0861
  770SOL    HW2 2310   1.055   0.148   2.378 -0.5215  0.1625 -1.3946
  771SOL     OW 2311   0.660   2.548   0.900 -0.4134 -0.0256 -0.1491
  771SOL    HW1 2312   0.719   2.509   0.827 -0.5113 -1.4383  3.7366
  771SOL    HW2 2313   0.715   2.611   0.961  0.0539 -0.1140  1.8912
  772SOL     OW 2314   2.762   0.916   0.261  0.3503 -0.3642  0.6313
  772SOL    HW1 2315   2.728   0.999   0.221  0.8010 -0.7428 -0.7064
  772SOL    HW2 2316   2.832   0.934   0.332 -1.4583  0.0426 -1.6646
  773SOL     OW 2317   1.803   1.012   1.891  0.3332 -0.3222  0.2838
  773SOL    HW1 2318   1.837   0.941   1.825  0.9200  0.9110 -0.6566
  773SOL    HW2 2319   1.735   1.073   1.843  0.0356 -0.0575 -0.3077
  774SOL     OW 2320   0.552   0.414   0.607  0.1356 -0.4466  0.2173
  774SOL    HW1 2321   0.627   0.460   0.550  0.2524  1.8901  1.6838
  774SOL    HW2 2322   0.596   0.352   0.681  2.3440 -1.1807  1.0299
  775SOL     OW 2323   1.643   0.064   0.365 -0.2707  0.5895  0.2774
  775SOL    HW1 2324   1.667   3.032   0.341 -0.1052 -2.0720 -3.8349
  775SOL    HW2 2325   1.546   0.071   0.334  1.9762 -0.9469  0.3983
  776SOL     OW 2326   2.309   0.507   2.358 -0.1203 -0.8324 -0.0474
  776SOL    HW1 2327   2.263   0.586   2.401  2.3592 -0.9668 -0.3101
  776SOL    HW2 2328   2.236   0.449   2.317 -0.9801  2.7946 -1.2297
  777SOL     OW 2329   1.203   1.268   0.031 -0.5014  0.0053 -0.0907
  777SOL    HW1 2330   1.228   1.270   2.999  0.1755  1.3615  0.4913
  777SOL    HW2 2331   1.209   1.175   0.072 -0.3951 -0.1888  2.4756
  778SOL     OW 2332   0.164   2.744   0.228 -0.1850 -0.3458 -0.0954
  778SOL    HW1 2333   0.177   2.721   0.325  0.9717  2.2450 -0.5215
  778SOL    HW2 2334   0.206   2.836   0.208 -1.5307 -0.1408  0.2657
  779SOL     OW 2335   0.105   1.534   0.363  0.2182 -0.4281  0.3689
  779SOL    HW1 2336   0.123   1.443   0.319 -0.4407  0.9637 -1.8561
  779SOL    HW2 2337   0.196   1.570   0.390 -0.3537 -1.6177 -0.8587
  780SOL     OW 2338   2.020   0.081   1.946  0.1212  0.4117 -0.1045
  780SOL    HW1 2339   2.055   0.002   1.894 -1.9733  3.3221  1.7164
  780SOL    HW2 2340   1.978   0.146   1.880 -1.1553 -1.3678  3.3519
  781SOL     OW 2341   1.499   1.130   1.502 -0.2266 -0.1674  0.5121
  781SOL    HW1 2342   1.411   1.165   1.468  3.0466  0.2832  1.6875
  781SOL    HW2 2343   1.576   1.159   1.435  2.7873  3.6417 -2.3843
  782SOL     OW 2344   1.894   2.198   2.078  0.2322 -0.3888 -0.6160
  782SOL    HW1 2345   1.899   2.252   1.989 -1.9746 -0.6889 -1.0117
  782SOL    HW2 2346   1.849   2.112   2.067  3.5491  1.7867  0.0924
  783SOL     OW 2347   1.388   0.404   1.885  0.2719  0.0654 -0.3735
  783SOL    HW1 2348   1.461   0.457   1.836  1.4684 -1.5173  2.3694
  783SOL    HW2 2349   1.416   0.305   1.896 -1.9729  1.0274 -0.7671
  784SOL     OW 2350   1.849   1.106   2.353 -0.3845 -0.7999 -0.3642
  784SOL    HW1 2351   1.748   1.095   2.351  0.5800 -0.5069  1.0713
  784SOL    HW2 2352   1.885   1.047   2.274  1.4309 -2.7788 -0.9552
  785SOL     OW 2353   1.816   0.628   0.124  0.4522  0.5769 -0.2198
  785SOL    HW1 2354   1.847   0.677   0.208 -0.9833  2.3944  0.7461
  785SOL    HW2 2355   1.721   0.587   0.150 -4.2817  1.5785  2.2335
  786SOL     OW 2356   0.091   1.696   0.611 -0.2082 -0.1252 -0.1734
  786SOL    HW1 2357   3.063   1.648   0.605  0.4646  0.9387 -1.6326
  786SOL    HW2 2358   0.129   1.661   0.700 -2.8916 -0.4367 -2.1763
  787SOL     OW 2359   1.700   1.874   0.418  0.0500 -0.1725  0.0009
  787SOL    HW1 2360   1.607   1.889   0.459 -1.2205 -0.8211 -0.2653
  787SOL    HW2 2361   1.682   1.835   0.325 -1.8677 -0.1691 -1.9409
  788SOL     OW 2362   2.159   1.390   1.266  0.0988 -0.1967  0.2934
  788SOL    HW1 2363   2.079   1.421   1.213  0.3144  1.9152 -0.2112
  788SOL    HW2 2364   2.119   1.326   1.332  1.6049  1.4532 -0.6326
  789SOL     OW 2365   2.995   1.566   2.413 -0.4165 -0.1026  0.1545
  789SOL    HW1 2366   0.004   1.629   2.385 -1.1076  0.1435  0.0460
  789SOL    HW2 2367   3.020   1.493   2.483 -2.2367  0.0276  1.9951
  790SOL     OW 2368   0.858   0.054   2.575  0.1320 -0.3429 -0.6600
  790SOL    HW1 2369   0.909   0.030   2.491  0.2067  0.3416  0.4242
  790SOL    HW2 2370   0.775   0.112   2.552  0.0327 -0.4370  2.6321
  791SOL     OW 2371   0.828   2.828   2.537 -0.0830 -0.3762  0.5943
  791SOL    HW1 2372   0.812   2.803   2.632 -2.0180  0.2337  2.1448
  791SOL    HW2 2373   0.843   2.926   2.520  2.1664  0.1133  0.8250
  792SOL     OW 2374   1.640   0.302   2.217 -0.1188  0.3195 -0.2117
  792SOL    HW1 2375   1.607   0.221   2.267  2.6974  1.0371  1.0369
  792SOL    HW2 2376   1.601   0.386   2.262 -1.1492 -0.4201 -1.0380
  793SOL     OW 2377   2.897   3.028   2.125  0.2462  0.3215  0.1414
  793SOL    HW1 2378   2.894   0.037   2.053  0.1754  1.6579 -0.9134
  793SOL    HW2 2379   2.801   3.027   2.165 -0.8389 -1.1933  0.9680
  794SOL     OW 2380   0.450   0.881   1.849  0.4446 -0.4573 -0.0607
  794SOL    HW1 2381   0.500   0.792   1.861 -2.4414  0.6475 -1.1853
  794SOL    HW2 2382   0.352   0.866   1.816  1.2023  2.0376  1.9927
  795SOL     OW 2383   2.919   1.563   0.535  0.1093  0.0254 -0.3608
  795SOL    HW1 2384   2.888   1.540   0.440 -0.4156  0.0046 -0.7082
  795SOL    HW2 2385   2.950   1.485   0.593 -0.2467 -1.2370 -1.4399
  796SOL     OW 2386   2.867   2.695   0.043 -0.1682 -0.5590  0.1203
  796SOL    HW1 2387   2.928   2.690   0.125  0.8596 -2.2465 -0.2913
  796SOL    HW2 2388   2.790   2.631   0.055  0.0525  0.5323  0.0861
  797SOL     OW 2389   2.785   2.404   0.283 -0.3233  0.4916 -0.5995
  797SOL    HW1 2390   2.798   2.301   0.275  3.5234 -1.1202 -1.6403
  797SOL    HW2 2391   2.866   2.452   0.245 -1.0219  0.0011 -1.5889
  798SOL     OW 2392   0.243   0.844   1.558  0.5465 -0.1525 -0.4619
  798SOL    HW1 2393   0.152   0.796   1.557 -3.1417 -0.6677 -0.3977
  798SOL    HW2 2394   0.228   0.944   1.541  2.6550  0.7429 -0.2055
  799SOL     OW 2395   2.822   0.596   2.102  0.5822 -0.1224 -0.7442
  799SOL    HW1 2396   2.746   0.661   2.118 -0.0803 -0.9930  0.8516
  799SOL    HW2 2397   2.905   0.652   2.080  0.4138  0.4647  0.1264
  800SOL     OW 2398   2.829   2.319   0.635 -0.0759  0.9584  0.4343
  800SOL    HW1 2399   2.741   2.274   0.614  2.9446 -0.5295 -0.6748
  800SOL    HW2 2400   2.821   2.406   0.690  1.2203  2.9034  0.2498
  801SOL     OW 2401   1.376   1.180   0.730 -0.3596  0.1355 -0.1610
  801SOL    HW1 2402   1.313   1.187   0.652 -2.0775  1.0455 -2.1515
  801SOL    HW2 2403   1.321   1.189   0.814 -0.5414 -0.7473 -2.1567
  802SOL     OW 2404   1.477   1.816   1.027 -0.2448 -0.5514  0.0243
  802SOL    HW1 2405   1.578   1.810   1.053  2.5637 -1.0913 -1.6833
  802SOL    HW2 2406   1.458   1.757   0.944 -2.3416  1.0320  0.6816
  803SOL     OW 2407   3.065   1.805   0.341  0.3869 -0.0916  0.2380
  803SOL    HW1 2408   0.031   1.711   0.360  0.0731 -1.4274  1.5931
  803SOL    HW2 2409   0.009   1.870   0.421  0.0232  1.1805  2.9481
  804SOL     OW 2410   1.249   2.501   0.568 -0.5389  0.3301 -0.2414
  804SOL    HW1 2411   1.153   2.525   0.548  3.2848 -0.9622 -1.0988
  804SOL    HW2 2412   1.257   2.503   0.669  0.1407 -1.8382  0.5221
  805SOL     OW 2413   1.642   1.864   2.571 -0.3319  0.0232  0.0818
  805SOL    HW1 2414   1.665   1.801   2.646 -3.6090  0.9430 -0.8460
  805SOL    HW2 2415   1.594   1.946   2.608 -0.2074 -0.0217 -0.2003
  806SOL     OW 2416   1.453   0.086   1.274  0.0635  0.3509  0.3327
  806SOL    HW1 2417   1.437   0.169   1.336  2.2678 -2.7574 -1.7306
  806SOL    HW2 2418   1.378   0.018   1.274 -1.5487  0.6269  0.5051
  807SOL     OW 2419   1.959   2.960   2.541 -0.3802 -0.3178  0.0681
  807SOL    HW1 2420   1.893   2.905   2.482  0.8070 -2.0667  0.0362
  807SOL    HW2 2421   1.925   2.975   2.640  1.0443 -1.3537 -0.2513
  808SOL     OW 2422   0.376   1.582   0.412  0.1593 -0.1737 -0.0164
  808SOL    HW1 2423   0.418   1.518   0.342 -1.2514  2.2373 -1.4812
  808SOL    HW2 2424   0.367   1.544   0.506 -1.1874 -0.6168  1.7975
  809SOL     OW 2425   2.682   0.727   2.367  0.0500 -0.3080  0.2217
  809SOL    HW1 2426   2.643   0.645   2.313 -0.7132  1.8622  0.8046
  809SOL    HW2 2427   2.657   0.809   2.319  1.6204  0.3218 -2.1803
  810SOL     OW 2428   0.038   0.274   2.232 -0.3295 -0.5480 -0.7321
  810SOL    HW1 2429   0.072   0.371   2.240  1.2821  5.6686  0.0053
  810SOL    HW2 2430   0.094   0.235   2.157 -0.6300  1.7407 -0.1772
  811SOL     OW 2431   2.085   2.298   1.620 -0.1545 -0.1989 -0.3916
  811SOL    HW1 2432   2.053   2.294   1.719 -1.7220  0.8688  1.0570
  811SOL    HW2 2433   2.186   2.287   1.613  0.9617 -1.6678  1.5022
  812SOL     OW 2434   1.384   0.663   0.068  0.7743 -0.0263  0.0519
  812SOL    HW1 2435   1.348   0.670   0.167  1.0489  0.5846 -1.3124
  812SOL    HW2 2436   1.370   0.568   0.025 -0.9625  0.1848 -0.9641
  813SOL     OW 2437   1.906   0.393   2.223 -0.6589 -0.5101 -0.1800
  813SOL    HW1 2438   1.818   0.348   2.244 -0.1890  2.2170 -4.0284
  813SOL    HW2 2439   1.909   0.489   2.257 -0.9250  0.6970  4.3320
  814SOL     OW 2440   1.876   1.034   1.334 -0.2342 -0.0812  0.4647
  814SOL    HW1 2441   1.912   1.048   1.242 -1.7864 -1.6350 -2.1432
  814SOL    HW2 2442   1.782   1.069   1.339  2.0803 -0.8649 -2.8953
  815SOL     OW 2443   0.685   1.002   0.529  0.1700 -0.0530 -0.1032
  815SOL    HW1 2444   0.669   0.994   0.629  1.0455  0.9004 -1.0929
  815SOL    HW2 2445   0.669   0.914   0.476 -1.0434 -3.9144  0.8560
  816SOL     OW 2446   1.964   2.233   2.727  0.0094  0.0264  0.0517
  816SOL    HW1 2447   2.054   2.200   2.687 -1.1920  0.7331  0.5665
  816SOL    HW2 2448   1.903   2.279   2.663  1.1398 -0.0454  1.5078
  817SOL     OW 2449   2.878   2.907   1.215  0.0156  0.2617 -0.1761
  817SOL    HW1 2450   2.863   2.973   1.137  0.8823 -0.5065 -1.4383
  817SOL    HW2 2451   2.968   2.855   1.212 -0.8685  0.9118  1.5635
  818SOL     OW 2452   1.363   0.412   3.035 -0.0751 -0.3356  0.1683
  818SOL    HW1 2453   1.266   0.408   3.002  2.3778  0.0510 -2.0709
  818SOL    HW2 2454   1.393   0.316   3.059  0.7674 -0.5491  1.8735
  819SOL     OW 2455   0.602   0.744   0.868 -0.0871 -0.7048  0.3330
  819SOL    HW1 2456   0.513   0.757   0.822 -0.4088 -1.3568 -0.7771
  819SOL    HW2 2457   0.600   0.671   0.941  1.6242  1.1088  2.9278
  820SOL     OW 2458   2.165   0.642   1.195  0.1015 -0.1512  0.2209
  820SOL    HW1 2459   2.154   0.671   1.097  0.8958 -1.1581 -1.1954
  820SOL    HW2 2460   2.197   0.548   1.202  2.4826 -0.4440 -0.8722
  821SOL     OW 2461   2.688   3.018   0.502 -0.3388  0.5212  0.3497
  821SOL    HW1 2462   2.638   3.042   0.585 -1.7951 -1.1243 -3.1242
  821SOL    HW2 2463   2.636   2.964   0.434 -1.1831 -3.3051 -1.1914
  822SOL     OW 2464   1.018   2.628   2.476  0.4124 -0.1281 -0.1119
  822SOL    HW1 2465   0.991   2.552   2.412  1.3245  0.2706  2.7092
  822SOL    HW2 2466   0.942   2.688   2.499  1.0647 -1.0994  2.6598
  823SOL     OW 2467   2.947   1.575   1.649 -0.3464 -0.8387  0.5059
  823SOL    HW1 2468   2.883   1.600   1.716  0.3474 -0.6869 -3.3456
  823SOL    HW2 2469   2.889   1.565   1.563 -1.3073  0.5440 -2.1101
  824SOL     OW 2470   0.716   2.965   2.014 -0.2272 -0.3914  0.3176
  824SOL    HW1 2471   0.772   2.896   1.958  2.4844 -2.1137 -2.0016
  824SOL    HW2 2472   0.619   2.953   1.991  0.9530  1.2822 -1.1126
  825SOL     OW 2473   1.230   1.799   0.052 -0.6924  0.0080 -0.0213
  825SOL    HW1 2474   1.291   1.852   0.118  0.2323 -2.1582  0.0324
  825SOL    HW2 2475   1.297   1.745   3.059  0.3984 -4.0114 -0.2797
  826SOL     OW 2476   1.046   2.515   2.928 -0.0833  0.4032 -0.1473
  826SOL    HW1 2477   1.049   2.422   2.977  0.4713 -0.9138  0.6597
  826SOL    HW2 2478   0.986   2.581   2.966  2.0203 -2.1365 -1.5157
  827SOL     OW 2479   0.313   2.009   1.779 -0.2643 -0.1352 -0.3630
  827SOL    HW1 2480   0.301   1.912   1.813  0.3302 -3.2763  0.2361
  827SOL    HW2 2481   0.291   2.075   1.849  1.2692 -0.6888 -0.8238
  828SOL     OW 2482   2.933   1.612   1.072 -0.9106 -0.3730  0.0504
  828SOL    HW1 2483   3.007   1.642   1.135 -0.0107 -2.5693 -0.1549
  828SOL    HW2 2484   2.930   1.675   0.996 -1.5842 -0.8256  2.0908
  829SOL     OW 2485   2.998   2.613   0.258  0.3935  0.5932 -0.4174
  829SOL    HW1 2486   0.009   2.678   0.243  0.0380 -0.1101  0.1019
  829SOL    HW2 2487   3.026   2.521   0.225 -0.2582  2.1443 -0.0268
  830SOL     OW 2488   1.115   0.592   0.583  0.0893 -0.3866  0.3873
  830SOL    HW1 2489   1.210   0.623   0.621  2.7579  0.2674  1.2969
  830SOL    HW2 2490   1.096   0.649   0.503 -1.8857 -0.0567  2.5027
  831SOL     OW 2491   0.004   2.374   0.130  0.1904  0.4421  0.3532
  831SOL    HW1 2492   3.018   2.387   0.041  0.9880 -0.5253 -3.5881
  831SOL    HW2 2493   0.001   2.278   0.167  1.4013  0.9604  0.6219
  832SOL     OW 2494   1.622   2.380   0.486 -1.0138  0.0030 -0.2441
  832SOL    HW1 2495   1.725   2.387   0.481  1.4552 -1.5481  0.0184
  832SOL    HW2 2496   1.604   2.294   0.543 -0.8568 -3.6771 -1.0249
  833SOL     OW 2497   0.624   0.862   2.499 -0.1693 -0.0108 -0.5067
  833SOL    HW1 2498   0.712   0.823   2.461  0.6875 -2.3733  0.7582
  833SOL    HW2 2499   0.602   0.959   2.475  0.1653 -0.5815  0.1415
  834SOL     OW 2500   2.836   0.804   0.880  0.1794 -0.2449 -0.0790
  834SOL    HW1 2501   2.809   0.706   0.889 -0.1642 -3.3339 -1.8160
  834SOL    HW2 2502   2.803   0.853   0.962 -0.9987 -0.5366  1.4974
  835SOL     OW 2503   2.483   0.658   2.079 -0.1359  0.1776  0.3479
  835SOL    HW1 2504   2.397   0.652   2.025  2.7525  0.2393 -2.0567
  835SOL    HW2 2505   2.497   0.582   2.146  0.9985  0.0673 -0.6273
  836SOL     OW 2506   0.741   1.959   0.638  0.6854  0.3879  0.0650
  836SOL    HW1 2507   0.652   1.957   0.589 -4.8310 -0.5213 -1.8707
  836SOL    HW2 2508   0.733   1.917   0.730  1.4667 -1.2287  0.3022
  837SOL     OW 2509   2.276   1.693   2.000 -0.5795  0.2642  0.1263
  837SOL    HW1 2510   2.249   1.739   2.087 -0.3961  0.3588 -0.2358
  837SOL    HW2 2511   2.199   1.640   1.963 -1.6021 -0.7645  1.3409
  838SOL     OW 2512   0.121   1.065   2.267 -0.3099 -0.6119 -0.5259
  838SOL    HW1 2513   0.031   1.017   2.284 -2.6369 -2.1924 -0.0052
  838SOL    HW2 2514   0.163   1.033   2.180  1.1297  0.5428 -0.5102
  839SOL     OW 2515   0.505   2.944   2.856 -0.1626  0.2684 -0.1097
  839SOL    HW1 2516   0.504   2.904   2.759 -0.8851 -0.4373 -0.7148
  839SOL    HW2 2517   0.593   2.989   2.870 -3.6383  2.6904  1.1408
  840SOL     OW 2518   2.972   0.863   2.670  0.0957  0.0238 -0.2838
  840SOL    HW1 2519   3.000   0.842   2.765  1.2085 -0.1367 -1.3309
  840SOL    HW2 2520   2.873   0.846   2.653  1.1497 -0.2441  0.3228
  841SOL     OW 2521   0.612   1.927   2.544 -0.0097  0.1033  0.5801
  841SOL    HW1 2522   0.618   2.022   2.574 -1.4320 -3.4740 -2.4674
  841SOL    HW2 2523   0.696   1.908   2.488 -0.4784  1.5708 -1.2203
  842SOL     OW 2524   0.637   0.218   1.039 -0.2648 -0.1980 -0.2754
  842SOL    HW1 2525   0.602   0.124   1.059  3.5998 -2.7710 -2.0156
  842SOL    HW2 2526   0.651   0.272   1.127  1.1908  0.4227  0.9444
  843SOL     OW 2527   0.206   1.557   2.390 -0.2746  0.6703  0.4855
  843SOL    HW1 2528   0.214   1.657   2.405  0.0776 -3.3154 -1.1863
  843SOL    HW2 2529   0.220   1.508   2.478 -0.9075  1.4918  1.2041
  844SOL     OW 2530   1.514   1.939   2.239 -0.0562  0.1781  0.2355
  844SOL    HW1 2531   1.482   2.012   2.177  1.6141 -3.4280 -0.4839
  844SOL    HW2 2532   1.616   1.930   2.229 -0.1348 -0.3576 -1.3669
  845SOL     OW 2533   2.498   2.734   2.452  0.2061  0.2483 -0.3338
  845SOL    HW1 2534   2.542   2.808   2.509 -1.2649 -0.5463 -0.9384
  845SOL    HW2 2535   2.444   2.773   2.378 -0.7430 -1.0369  1.8554
  846SOL     OW 2536   2.073   1.709   2.810 -0.4725  0.9205  0.3340
  846SOL    HW1 2537   2.019   1.781   2.768  1.8183 -2.7608  2.8947
  846SOL    HW2 2538   2.054   1.695   2.910  0.6619 -1.7406 -0.3638
  847SOL     OW 2539   2.416   0.100   2.754  0.1457 -0.3124 -0.3327
  847SOL    HW1 2540   2.410   0.164   2.676 -0.7792 -1.0422  1.2367
  847SOL    HW2 2541   2.380   0.007   2.736 -0.2222 -0.0546  1.3670
  848SOL     OW 2542   2.492   0.524   0.338  0.4099 -0.3602 -0.4478
  848SOL    HW1 2543   2.474   0.454   0.267 -1.5691  1.1047 -1.6660
  848SOL    HW2 2544   2.408   0.558   0.387 -2.2641 -0.7558  2.2542
  849SOL     OW 2545   1.352   0.226   2.690 -0.1800  0.1508 -0.8846
  849SOL    HW1 2546   1.338   0.180   2.599  2.6111  0.0214  0.2548
  849SOL    HW2 2547   1.364   0.328   2.690 -0.0664 -0.0124  0.2299
  850SOL     OW 2548   2.564   0.782   0.479  0.5895 -0.0757 -0.0010
  850SOL    HW1 2549   2.509   0.695   0.465 -0.4835 -3.4411 -1.7971
  850SOL    HW2 2550   2.658   0.767   0.522  0.4965  0.6893  0.9834
  851SOL     OW 2551   0.139   1.161   0.888  0.5544  0.7908 -0.0354
  851SOL    HW1 2552   0.224   1.180   0.835  4.0860  1.3206  3.3355
  851SOL    HW2 2553   0.090   1.072   0.870  1.7162 -1.3726 -0.5491
  852SOL     OW 2554   1.300   0.816   2.134 -0.2199  0.2017 -0.2259
  852SOL    HW1 2555   1.231   0.891   2.146  0.7046 -0.4172 -0.3540
  852SOL    HW2 2556   1.291   0.769   2.043  1.5682 -0.4301  2.2926
  853SOL     OW 2557   1.804   1.333   2.805  0.6840  0.1021 -0.0125
  853SOL    HW1 2558   1.903   1.309   2.801  0.0916 -1.6745 -1.4596
  853SOL    HW2 2559   1.752   1.292   2.726 -1.1020  0.1381  1.8076
  854SOL     OW 2560   1.196   1.162   1.890  0.0552 -0.3428  0.2567
  854SOL    HW1 2561   1.186   1.111   1.803 -1.4957  1.4253  0.6229
  854SOL    HW2 2562   1.188   1.105   1.968 -1.6654  1.7273 -1.0317
  855SOL     OW 2563   0.427   2.368   1.956 -0.0967  0.2331 -1.0060
  855SOL    HW1 2564   0.381   2.281   1.973  0.9761 -0.3073  1.6499
  855SOL    HW2 2565   0.416   2.428   2.041  1.6068  0.0521  0.0335
  856SOL     OW 2566   1.322   1.168   2.340  0.1931 -0.1305 -0.4141
  856SOL    HW1 2567   1.264   1.179   2.423  2.5970 -1.9867  1.0378
  856SOL    HW2 2568   1.275   1.209   2.259 -1.2531 -1.4663 -0.2401
  857SOL     OW 2569   0.959   1.051   2.545 -0.6014 -0.1387  0.0866
  857SOL    HW1 2570   0.958   1.053   2.647 -2.0293 -0.7901 -2.0010
  857SOL    HW2 2571   0.966   0.953   2.520  1.6634 -1.3886  0.6192
  858SOL     OW 2572   0.159   0.539   1.745  0.4224  0.4589 -0.0772
  858SOL    HW1 2573   0.078   0.603   1.742 -0.6960  0.3025  1.6552
  858SOL    HW2 2574   0.195   0.535   1.838  1.1839  2.8941  1.1703
  859SOL     OW 2575   2.212   3.027   0.956  0.4668  0.0195 -0.1526
  859SOL    HW1 2576   2.232   3.035   1.055  0.5421  1.0027 -1.0488
  859SOL    HW2 2577   2.135   2.957   0.943 -1.6749 -2.6557 -0.8900
  860SOL     OW 2578   1.273   0.690   1.470 -0.5178  0.2206 -0.7275
  860SOL    HW1 2579   1.251   0.618   1.541 -1.1252 -3.1543  0.5638
  860SOL    HW2 2580   1.355   0.746   1.499 -0.1370  1.6579  1.1987
  861SOL     OW 2581   1.855   0.815   1.132  0.7051  0.5104 -0.7248
  861SOL    HW1 2582   1.777   0.759   1.166  0.1270  1.6541  0.5260
  861SOL    HW2 2583   1.904   0.855   1.210  0.9377 -0.1840 -0.4374
  862SOL     OW 2584   1.271   0.185   2.110 -0.4007 -0.6692  0.4127
  862SOL    HW1 2585   1.178   0.181   2.066 -0.4112  0.5436 -1.3957
  862SOL    HW2 2586   1.278   0.263   2.176  0.8371 -1.7889  0.1151
  863SOL     OW 2587   2.559   0.287   1.497 -0.1356  0.2619  0.1984
  863SOL    HW1 2588   2.491   0.348   1.546 -1.6999 -0.1461 -0.5157
  863SOL    HW2 2589   2.653   0.321   1.515  0.1229 -0.2940  0.8663
  864SOL     OW 2590   2.952   2.917   2.372  0.2119 -0.0425  0.2938
  864SOL    HW1 2591   2.898   2.836   2.364  4.0956  1.5344  2.3295
  864SOL    HW2 2592   2.956   2.970   2.287  1.0396 -3.4149  0.7858
  865SOL     OW 2593   1.152   1.232   2.539  0.5920 -0.5703  0.2652
  865SOL    HW1 2594   1.074   1.165   2.530 -0.6352 -0.5599 -0.9131
  865SOL    HW2 2595   1.117   1.330   2.555 -0.9344  0.2879  0.5340
  866SOL     OW 2596   2.686   2.698   1.024  0.4925 -0.5630 -0.2073
  866SOL    HW1 2597   2.784   2.678   1.005 -2.4259 -0.2483  2.4577
  866SOL    HW2 2598   2.667   2.672   1.121  1.6290  0.3797 -0.4673
  867SOL     OW 2599   2.716   2.691   1.310 -0.1953 -0.2422  0.3580
  867SOL    HW1 2600   2.758   2.784   1.319 -0.6229 -0.4954 -1.8818
  867SOL    HW2 2601   2.735   2.627   1.387  1.0555  0.3490  1.8155
  868SOL     OW 2602   2.808   1.303   1.364 -0.3732 -0.1989  0.1832
  868SOL    HW1 2603   2.740   1.268   1.297 -0.2719 -0.4074 -2.5012
  868SOL    HW2 2604   2.896   1.324   1.310 -0.2138  0.7600 -0.6514
  869SOL     OW 2605   2.209   2.141   2.389  0.3336  0.2174 -0.2899
  869SOL    HW1 2606   2.252   2.225   2.427 -1.2118  1.6355  0.1287
  869SOL    HW2 2607   2.259   2.051   2.413  3.0312 -1.4839 -0.6441
  870SOL     OW 2608   1.479   0.946   0.698  0.0028  0.3763  0.4808
  870SOL    HW1 2609   1.560   0.936   0.759  0.6852 -0.2603  2.7999
  870SOL    HW2 2610   1.436   1.037   0.721  1.4186  1.3434 -0.3019
  871SOL     OW 2611   2.503   1.712   1.859 -0.1949 -0.3697  0.1525
  871SOL    HW1 2612   2.413   1.697   1.904  0.2548  1.7079 -0.0212
  871SOL    HW2 2613   2.485   1.762   1.774 -1.3630 -3.6018 -1.4850
  872SOL     OW 2614   1.208   1.487   2.874 -0.0476 -0.1498  0.0392
  872SOL    HW1 2615   1.112   1.483   2.914 -0.6573  1.5195  3.1084
  872SOL    HW2 2616   1.262   1.556   2.925 -1.8789 -1.8678  1.4719
  873SOL     OW 2617   0.964   1.200   1.744  0.1192 -0.6120  0.9085
  873SOL    HW1 2618   0.958   1.106   1.708  1.3740  2.0945 -2.6579
  873SOL    HW2 2619   1.024   1.204   1.826 -1.8353  0.0732  0.4837
  874SOL     OW 2620   1.247   0.919   1.344 -0.2922 -0.0759 -0.0972
  874SOL    HW1 2621   1.267   0.844   1.412 -1.0825  0.0133 -0.5330
  874SOL    HW2 2622   1.207   0.881   1.263  1.0919  0.1709 -1.5068
  875SOL     OW 2623   2.574   2.922   2.621 -0.1032  0.2669  0.4659
  875SOL    HW1 2624   2.611   3.013   2.598 -2.1791  1.9350  2.0130
  875SOL    HW2 2625   2.637   2.867   2.684  0.4560  0.1570  3.2330
  876SOL     OW 2626   0.949   0.976   0.495 -0.6098  0.0745  0.0031
  876SOL    HW1 2627   0.847   0.997   0.493 -0.1550  0.4660 -1.0335
  876SOL    HW2 2628   0.999   1.053   0.453  0.4659 -0.1820  0.6328
  877SOL     OW 2629   1.802   2.788   0.401  0.9418  0.7625 -0.0712
  877SOL    HW1 2630   1.731   2.724   0.367  1.1682 -1.7585 -1.2898
  877SOL    HW2 2631   1.857   2.816   0.320 -1.2305 -0.9301 -4.3209
  878SOL     OW 2632   2.442   2.221   0.255  0.0875 -0.7298 -0.0885
  878SOL    HW1 2633   2.369   2.170   0.209  1.0911  0.2406  1.9779
  878SOL    HW2 2634   2.437   2.326   0.258  0.8244  2.8810 -2.2765
  879SOL     OW 2635   0.352   2.567   1.608  0.4033  0.3661  0.4487
  879SOL    HW1 2636   0.304   2.579   1.695 -1.4921 -0.3842  0.8054
  879SOL    HW2 2637   0.325   2.478   1.563 -1.1683 -3.5226 -1.4255
  880SOL     OW 2638   0.218   1.650   0.855  0.4364  0.0567  0.5142
  880SOL    HW1 2639   0.171   1.713   0.922  0.0228 -1.0673  2.1839
  880SOL    HW2 2640   0.314   1.691   0.833  2.9673  0.5939 -0.9313
  881SOL     OW 2641   1.282   0.112   2.451 -0.4627 -0.2818 -0.4842
  881SOL    HW1 2642   1.222   0.033   2.445  0.9536 -0.3384 -0.9303
  881SOL    HW2 2643   1.234   0.198   2.425 -0.1762  0.4747  1.4293
  882SOL     OW 2644   2.444   1.168   0.440 -0.3337 -0.3591 -0.1376
  882SOL    HW1 2645   2.471   1.255   0.490  0.0584  1.9616  0.4228
  882SOL    HW2 2646   2.424   1.095   0.510 -0.7286 -1.6251  4.7434
  883SOL     OW 2647   1.521   0.746   2.271  0.5235  0.6820  0.7188
  883SOL    HW1 2648   1.559   0.810   2.335  1.3434 -2.7683 -2.2624
  883SOL    HW2 2649   1.425   0.766   2.237 -0.7608  0.9899  1.2831
  884SOL     OW 2650   0.172   0.036   1.804 -0.0964 -0.0420 -0.6061
  884SOL    HW1 2651   0.081   0.074   1.779  1.5030 -3.5627 -0.7034
  884SOL    HW2 2652   0.197   3.026   1.745  0.8979 -0.7254 -0.0949
  885SOL     OW 2653   2.173   1.451   2.396  0.5106 -0.0513  0.0260
  885SOL    HW1 2654   2.131   1.514   2.327 -1.1810  1.0254 -0.6915
  885SOL    HW2 2655   2.149   1.487   2.488 -0.7348 -0.5984 -0.9774
  886SOL     OW 2656   1.637   0.181   2.740  0.4111  0.1722 -0.8030
  886SOL    HW1 2657   1.544   0.217   2.717  1.8331 -2.0086  1.2313
  886SOL    HW2 2658   1.710   0.242   2.704  1.3079  1.0413  0.9509
  887SOL     OW 2659   1.070   2.812   1.572 -0.3820  0.6572  0.0740
  887SOL    HW1 2660   1.154   2.866   1.566  1.6054 -0.7747  3.1012
  887SOL    HW2 2661   1.088   2.719   1.600 -3.7207  1.8550 -0.1511
  888SOL     OW 2662   2.368   1.186   1.503 -0.0703 -0.7127  0.0076
  888SOL    HW1 2663   2.365   1.277   1.548  0.7215 -0.9683 -1.4142
  888SOL    HW2 2664   2.459   1.143   1.522  0.1372 -1.0393 -0.7620
  889SOL     OW 2665   2.066   2.529   1.458 -0.2061  0.0263  0.7396
  889SOL    HW1 2666   2.024   2.502   1.366 -3.9442 -2.7305 -3.6325
  889SOL    HW2 2667   2.066   2.450   1.521  0.0596  1.3843 -1.7919
  890SOL     OW 2668   0.988   2.322   0.923 -0.5830 -0.3958  0.4772
  890SOL    HW1 2669   1.037   2.230   0.918 -1.1522 -1.3099 -0.0646
  890SOL    HW2 2670   1.028   2.385   0.993 -0.5894  2.4678  1.8377
  891SOL     OW 2671   2.666   1.514   0.014 -0.4279  0.3755  0.2979
  891SOL    HW1 2672   2.690   1.419   3.043 -1.6340 -0.1879 -0.8199
  891SOL    HW2 2673   2.695   1.532   0.111  0.4104  2.0762  3.0352
  892SOL     OW 2674   2.591   1.791   2.505  0.0635 -0.1839  0.4186
  892SOL    HW1 2675   2.631   1.886   2.531  0.8798  2.2011  0.6154
  892SOL    HW2 2676   2.636   1.754   2.419  1.7140  0.1209 -0.2205
  893SOL     OW 2677   2.381   2.755   1.055 -0.5928 -0.0668  0.0519
  893SOL    HW1 2678   2.312   2.769   0.982  1.1766  1.9704 -1.5678
  893SOL    HW2 2679   2.398   2.656   1.069  1.8203 -3.2360 -2.5031
  894SOL     OW 2680   2.834   0.774   0.615 -0.5347  0.0043 -0.1093
  894SOL    HW1 2681   2.827   0.790   0.716 -2.3809  2.6086  0.4779
  894SOL    HW2 2682   2.914   0.710   0.599  0.6299  0.1956  1.3226
  895SOL     OW 2683   2.812   2.398   2.456  0.6745  0.4605  0.0151
  895SOL    HW1 2684   2.900   2.357   2.425  1.9020 -0.4975  0.7620
  895SOL    HW2 2685   2.831   2.459   2.536  0.4418 -0.9625 -0.3537
  896SOL     OW 2686   2.178   2.654   2.627 -0.3315  0.1255 -0.8782
  896SOL    HW1 2687   2.190   2.627   2.727 -0.8453 -2.4964 -0.1587
  896SOL    HW2 2688   2.078   2.650   2.604 -3.6155 -0.0961 -1.7278
  897SOL     OW 2689   0.257   1.757   1.802  0.2251  0.2912 -0.2175
  897SOL    HW1 2690   0.226   1.675   1.753  1.3229  0.0623  1.5606
  897SOL    HW2 2691   0.328   1.742   1.874  0.5405  1.9505  0.9277
  898SOL     OW 2692   0.066   1.945   2.124  0.0440  0.0074 -0.0403
  898SOL    HW1 2693   0.021   1.860   2.083 -0.8253  0.8207 -0.9115
  898SOL    HW2 2694   3.059   2.021   2.136 -1.0415  3.2972 -1.5235
  899SOL     OW 2695   1.890   0.087   1.334  0.1341 -0.1225 -0.0094
  899SOL    HW1 2696   1.812   0.037   1.375 -1.4475 -0.1940  2.9775
  899SOL    HW2 2697   1.969   0.022   1.323  1.7938  1.3311 -1.3708
  900SOL     OW 2698   1.247   1.020   0.399  0.0803  0.4252  0.5825
  900SOL    HW1 2699   1.346   0.997   0.393  0.3210 -0.6664  1.4619
  900SOL    HW2 2700   1.207   0.999   0.307  1.5957 -0.0903  2.7882
  901SOL     OW 2701   1.458   1.407   2.585 -0.1991 -0.2335 -0.5113
  901SOL    HW1 2702   1.368   1.428   2.544 -0.6259 -0.9300 -1.1982
  901SOL    HW2 2703   1.529   1.468   2.542 -0.3445 -0.8641  1.4149
  902SOL     OW 2704   2.786   2.359   0.982 -0.6373  0.2349 -0.4276
  902SOL    HW1 2705   2.836   2.431   0.938  0.2135 -0.5604  0.5856
  902SOL    HW2 2706   2.836   2.330   1.068  0.4046 -0.0917  1.2738
  903SOL     OW 2707   2.929   1.252   1.876  0.7985 -0.8687  0.3434
  903SOL    HW1 2708   2.908   1.292   1.966  0.8117  0.8306  2.6221
  903SOL    HW2 2709   2.843   1.215   1.835  1.3814  2.4108 -2.4308
  904SOL     OW 2710   1.140   1.520   0.122 -0.9871 -0.4976  0.5044
  904SOL    HW1 2711   1.159   1.440   0.061  2.2129 -0.4434 -2.5090
  904SOL    HW2 2712   1.171   1.604   0.079  0.9826 -1.4795 -3.0203
  905SOL     OW 2713   2.529   2.398   1.569  0.6854 -0.0490 -0.4492
  905SOL    HW1 2714   2.484   2.485   1.604  0.0849  1.0710  0.4866
  905SOL    HW2 2715   2.615   2.385   1.626  0.5673 -1.9946 -0.1357
  906SOL     OW 2716   1.767   2.435   2.825  0.4499 -0.0822 -0.2461
  906SOL    HW1 2717   1.724   2.373   2.895  0.3887  0.0829 -1.2756
  906SOL    HW2 2718   1.866   2.440   2.846 -2.0693 -0.1413 -1.4065
  907SOL     OW 2719   0.277   2.765   1.031  0.5994 -0.2913 -0.3526
  907SOL    HW1 2720   0.362   2.706   1.017  1.0002 -1.5374 -3.1922
  907SOL    HW2 2721   0.285   2.844   0.968 -0.8638  1.3779 -1.8487
  908SOL     OW 2722   0.702   0.208   1.875 -0.1992  0.3533 -0.1126
  908SOL    HW1 2723   0.786   0.145   1.860  1.7980 -1.2953 -1.0870
  908SOL    HW2 2724   0.617   0.177   1.833  0.2905 -0.5961 -1.2644
  909SOL     OW 2725   1.821   0.455   1.296  0.4453 -0.2969 -0.6020
  909SOL    HW1 2726   1.892   0.464   1.366 -3.1190 -0.6706  0.2561
  909SOL    HW2 2727   1.763   0.540   1.294 -0.9649  1.7402 -2.2952
  910SOL     OW 2728   0.720   0.329   0.298 -0.5046 -0.0220 -0.3900
  910SOL    HW1 2729   0.727   0.413   0.361  1.5776  1.1395  2.7636
  910SOL    HW2 2730   0.623   0.327   0.257 -1.0322  3.8018 -0.5420
  911SOL     OW 2731   0.303   0.123   2.839 -0.0375  0.4945 -0.6346
  911SOL    HW1 2732   0.208   0.134   2.807 -0.6041 -0.5798  1.0929
  911SOL    HW2 2733   0.329   0.028   2.855 -4.5796  1.0795  1.3376
  912SOL     OW 2734   2.875   2.505   2.694  0.1506  0.4973  0.2804
  912SOL    HW1 2735   2.974   2.533   2.712 -0.3587  2.4157 -1.6661
  912SOL    HW2 2736   2.826   2.465   2.772 -0.1118 -1.7743 -0.6730
  913SOL     OW 2737   2.461   2.585   0.140 -0.3730  0.3416  0.3206
  913SOL    HW1 2738   2.455   2.680   0.100  0.5089 -3.4854  0.0955
  913SOL    HW2 2739   2.512   2.579   0.230 -1.3197 -1.3468  0.5346
  914SOL     OW 2740   1.372   1.779   1.993  0.2249  0.0342 -0.2338
  914SOL    HW1 2741   1.469   1.742   1.997  2.6157  0.6675 -1.1357
  914SOL    HW2 2742   1.328   1.795   2.086 -1.6255  1.2225  2.7728
  915SOL     OW 2743   2.983   2.541   2.251 -0.1308  0.5492  0.6859
  915SOL    HW1 2744   3.053   2.595   2.196  0.9348  2.6059  0.0811
  915SOL    HW2 2745   2.929   2.601   2.307  1.4057  2.0765 -3.7232
  916SOL     OW 2746   0.003   0.740   2.055  1.0369  0.0921  0.2142
  916SOL    HW1 2747   3.039   0.834   2.028  1.8885 -1.9495 -2.0697
  916SOL    HW2 2748   0.106   0.741   2.061  0.0909  0.4744 -1.1436
  917SOL     OW 2749   1.821   0.218   0.016  0.3165 -0.4121  0.5574
  917SOL    HW1 2750   1.814   0.231   0.122  1.0336  0.6593  2.7619
  917SOL    HW2 2751   1.749   0.267   3.029  2.4496 -1.8139  0.6423
  918SOL     OW 2752   1.927   2.611   2.305 -0.0831  0.6748  0.0064
  918SOL    HW1 2753   1.884   2.621   2.399 -1.4458 -0.9652  0.6262
  918SOL    HW2 2754   1.950   2.506   2.298  0.6540 -2.9530  1.2570
  919SOL     OW 2755   1.654   1.991   1.630  0.3962 -0.4176 -0.4059
  919SOL    HW1 2756   1.670   2.079   1.589 -0.4796 -0.9597  2.3790
  919SOL    HW2 2757   1.621   2.004   1.729 -1.0597 -1.2080  1.1057
  920SOL     OW 2758   0.256   1.036   0.270 -0.2280  0.8064  0.1806
  920SOL    HW1 2759   0.166   0.999   0.251  0.6337 -0.2472 -2.5648
  920SOL    HW2 2760   0.280   0.997   0.363 -2.4861 -1.2692 -1.2354
  921SOL     OW 2761   2.526   1.144   2.412  0.9887 -0.3866  0.1984
  921SOL    HW1 2762   2.500   1.246   2.401 -1.2985  0.8823 -0.2426
  921SOL    HW2 2763   2.594   1.126   2.481  0.0798  0.7506  0.0026
  922SOL     OW 2764   0.679   1.919   0.238 -0.4287 -0.2850  0.1212
  922SOL    HW1 2765   0.634   1.861   0.169 -0.1885  0.6184 -0.8149
  922SOL    HW2 2766   0.621   1.938   0.322 -1.4910  0.6175  0.0420
  923SOL     OW 2767   0.531   0.959   2.126  0.0396  0.0111 -0.0666
  923SOL    HW1 2768   0.481   0.965   2.038  1.0960  0.6547  1.1783
  923SOL    HW2 2769   0.581   0.871   2.125 -2.4138  1.0086 -0.1163
  924SOL     OW 2770   0.683   2.447   2.633  0.4417  0.2154  0.6027
  924SOL    HW1 2771   0.779   2.440   2.657 -0.2751  0.0757 -2.8642
  924SOL    HW2 2772   0.627   2.508   2.693 -0.2830  1.3678  0.0570
  925SOL     OW 2773   1.586   1.302   1.074  0.2106 -0.1557  0.4778
  925SOL    HW1 2774   1.609   1.299   0.974  2.1562 -0.7289 -1.1930
  925SOL    HW2 2775   1.505   1.359   1.102 -0.9017 -0.5249  0.5926
  926SOL     OW 2776   1.501   0.502   2.383 -0.3493 -0.0649  0.1757
  926SOL    HW1 2777   1.488   0.597   2.349  1.6763 -1.8000  0.5888
  926SOL    HW2 2778   1.551   0.496   2.472  1.5067  0.1251 -1.3648
  927SOL     OW 2779   2.732   2.722   2.104 -0.0922 -0.3314 -0.2165
  927SOL    HW1 2780   2.729   2.642   2.042  4.7396 -1.3331 -0.3422
  927SOL    HW2 2781   2.746   2.812   2.056  1.4184  4.1662  1.5095
  928SOL     OW 2782   0.394   1.138   2.854  0.2000 -0.0324 -0.2078
  928SOL    HW1 2783   0.302   1.180   2.832  2.6067  1.2293 -0.5105
  928SOL    HW2 2784   0.399   1.093   2.947  0.3628  0.0266 -0.4776
  929SOL     OW 2785   0.026   0.225   0.758  0.8921 -0.5994  0.3399
  929SOL    HW1 2786   0.109   0.263   0.809  3.6209 -1.1983  1.3984
  929SOL    HW2 2787   3.055   0.142   0.798  1.2835  0.2820 -0.5988
  930SOL     OW 2788   2.241   0.201   2.034 -0.0773  0.2458  0.3969
  930SOL    HW1 2789   2.173   0.128   2.014 -0.8631  0.3518 -0.0366
  930SOL    HW2 2790   2.250   0.254   1.944  0.7628  2.2291 -2.3812
  931SOL     OW 2791   2.360   1.167   0.048  0.3055 -0.0712  0.1137
  931SOL    HW1 2792   2.307   1.078   0.042 -0.1225  0.3977 -0.8396
  931SOL    HW2 2793   2.350   1.224   3.031  1.6040 -0.5368  2.2012
  932SOL     OW 2794   2.547   1.437   1.676  0.2937 -0.1298  0.0484
  932SOL    HW1 2795   2.602   1.460   1.759  0.2567  0.2662  0.9615
  932SOL    HW2 2796   2.603   1.454   1.591 -0.9515 -1.1865 -3.7106
  933SOL     OW 2797   2.847   2.576   1.542 -0.0173  0.0855 -0.3720
  933SOL    HW1 2798   2.948   2.585   1.519 -1.1888  0.0858 -1.2602
  933SOL    HW2 2799   2.810   2.656   1.590  3.3543 -1.1228 -1.4555
  934SOL     OW 2800   0.522   2.591   1.131  0.4282 -0.0020 -0.0256
  934SOL    HW1 2801   0.596   2.568   1.070 -1.3439 -2.5686  5.0602
  934SOL    HW2 2802   0.558   2.665   1.196 -1.3141  2.9307  2.3966
  935SOL     OW 2803   2.560   1.209   2.126  0.0997 -0.0959 -0.3659
  935SOL    HW1 2804   2.565   1.208   2.226  2.9489  1.0177  0.6507
  935SOL    HW2 2805   2.511   1.295   2.098 -1.6425 -1.7934 -2.6179
  936SOL     OW 2806   2.243   1.045   1.918  0.0441 -0.2428  0.5192
  936SOL    HW1 2807   2.204   1.016   1.826  0.1973  0.1538  0.4403
  936SOL    HW2 2808   2.350   1.044   1.909  0.6036  1.7665  3.3908
  937SOL     OW 2809   1.965   1.005   2.127  0.1132  0.8036 -0.0125
  937SOL    HW1 2810   1.905   1.012   2.046  1.3734  1.5018 -3.2887
  937SOL    HW2 2811   2.032   0.930   2.114  2.1878  0.2568  1.0277
  938SOL     OW 2812   0.827   2.681   3.052  0.1828 -0.1540  0.0957
  938SOL    HW1 2813   0.811   2.608   0.055 -1.1936  0.2225 -0.8172
  938SOL    HW2 2814   0.783   2.770   0.018 -0.9140 -1.4614 -2.5893
  939SOL     OW 2815   2.347   0.703   0.029 -0.1507 -0.0971 -0.2839
  939SOL    HW1 2816   2.284   0.765   3.042 -2.0979 -2.3544  0.4512
  939SOL    HW2 2817   2.409   0.758   0.088 -0.1230 -3.4682 -2.3329
  940SOL     OW 2818   1.099   2.095   0.872 -0.8345  0.0232 -0.2605
  940SOL    HW1 2819   1.131   2.023   0.937  0.3924  0.5994  1.1085
  940SOL    HW2 2820   1.044   2.052   0.794 -2.6888  1.1319 -0.9127
  941SOL     OW 2821   1.025   2.094   1.727 -0.0648  0.7377 -0.1908
  941SOL    HW1 2822   0.950   2.141   1.673  0.0674  2.1248  1.4139
  941SOL    HW2 2823   1.020   1.988   1.713  1.5665 -1.4022  1.9824
  942SOL     OW 2824   0.283   2.001   2.876  0.0365 -0.3991 -0.2485
  942SOL    HW1 2825   0.305   1.913   2.833 -0.1763  0.5460  1.7836
  942SOL    HW2 2826   0.210   1.999   2.945 -0.5728 -0.0652  0.4427
  943SOL     OW 2827   2.207   3.003   1.796  0.1289 -0.0461  0.1493
  943SOL    HW1 2828   2.144   2.925   1.812 -0.0213 -0.5351  1.1834
  943SOL    HW2 2829   2.262   2.987   1.710 -1.2357 -1.4536 -1.1680
  944SOL     OW 2830   1.473   1.910   2.864 -0.1396 -0.1671 -0.9603
  944SOL    HW1 2831   1.563   1.914   2.906 -2.0750 -1.3331 -0.6587
  944SOL    HW2 2832   1.429   2.004   2.863 -1.0147  2.3499 -1.9606
  945SOL     OW 2833   2.509   2.473   0.671 -0.2961 -0.1164  0.1849
  945SOL    HW1 2834   2.519   2.414   0.756 -1.3665 -2.9372  1.8253
  945SOL    HW2 2835   2.523   2.570   0.693  0.8826  1.4917 -0.4995
  946SOL     OW 2836   1.184   1.509   2.609 -0.2554 -0.1683 -0.4697
  946SOL    HW1 2837   1.128   1.596   2.611 -0.1235  1.7737  0.2193
  946SOL    HW2 2838   1.202   1.484   2.709  0.3519 -1.4083  1.9661
  947SOL     OW 2839   0.255   0.536   1.993 -0.4866 -0.3183 -0.1155
  947SOL    HW1 2840   0.263   0.623   2.051 -0.0755 -0.3843  2.5526
  947SOL    HW2 2841   0.260   0.462   2.061 -0.2661  0.8473 -1.3871
  948SOL     OW 2842   2.971   1.249   0.721 -0.4507  0.0628 -0.3484
  948SOL    HW1 2843   3.063   1.203   0.729  0.7217 -2.2994 -2.8434
  948SOL    HW2 2844   2.900   1.186   0.700  5.5499 -1.3651  0.7689
  949SOL     OW 2845   0.671   0.735   2.123  0.0323  0.2052  0.0045
  949SOL    HW1 2846   0.683   0.668   2.195 -0.4813  1.7824 -2.5883
  949SOL    HW2 2847   0.748   0.718   2.057 -1.2212 -0.7304 -0.8717
  950SOL     OW 2848   0.093   0.582   1.447  0.3321 -0.6724 -0.4726
  950SOL    HW1 2849   0.041   0.510   1.395 -0.9475  0.3485 -1.6438
  950SOL    HW2 2850   0.129   0.542   1.534  0.0698  0.1566  2.6300
  951SOL     OW 2851   0.607   1.204   2.727 -0.1096  0.2139  0.2262
  951SOL    HW1 2852   0.578   1.187   2.632  1.1933 -0.0229  0.0850
  951SOL    HW2 2853   0.524   1.182   2.784  0.3406 -2.7552 -1.0522
  952SOL     OW 2854   1.687   2.120   0.905 -0.1481  0.1976 -0.0373
  952SOL    HW1 2855   1.617   2.135   0.976 -0.3422 -0.0030 -2.5048
  952SOL    HW2 2856   1.774   2.165   0.930 -1.5324 -2.0151  1.3536
  953SOL     OW 2857   0.596   0.052   0.181 -0.6369  0.4472 -0.0462
  953SOL    HW1 2858   0.581   3.046   0.249 -1.5547 -2.0759 -1.5757
  953SOL    HW2 2859   0.509   0.107   0.170 -0.7665 -2.9178 -1.0528
  954SOL     OW 2860   2.481   0.664   1.026 -0.2165  0.5244 -0.2257
  954SOL    HW1 2861   2.470   0.624   1.120 -0.8317  0.3018 -0.1309
  954SOL    HW2 2862   2.558   0.616   0.980  1.1288 -0.5121 -0.9428
  955SOL     OW 2863   1.556   1.461   2.838 -0.5324  0.1013 -0.5967
  955SOL    HW1 2864   1.608   1.376   2.861  4.2180 -2.1070  1.8272
  955SOL    HW2 2865   1.501   1.444   2.757 -1.0510 -1.5077  1.8095
  956SOL     OW 2866   1.088   0.768   2.506 -0.3348  0.0633  0.3036
  956SOL    HW1 2867   1.168   0.828   2.487  0.0909  2.3327 -2.0366
  956SOL    HW2 2868   1.116   0.670   2.513  0.8226  1.5219 -0.8648
  957SOL     OW 2869   1.291   0.101   1.632 -0.5050 -0.4339  0.1460
  957SOL    HW1 2870   1.307   0.133   1.726  1.3255  1.5592 -0.7287
  957SOL    HW2 2871   1.357   0.148   1.568  3.0217  3.7287 -3.9238
  958SOL     OW 2872   0.162   2.190   0.438 -1.3394 -0.0472 -1.1370
  958SOL    HW1 2873   0.133   2.107   0.491 -0.5814 -0.4738 -1.6362
  958SOL    HW2 2874   0.157   2.168   0.338  1.3005 -2.1052  0.0064
  959SOL     OW 2875   1.991   0.843   1.761 -0.1671  0.6422  0.2830
  959SOL    HW1 2876   2.089   0.876   1.753 -0.5638  0.3853  0.6118
  959SOL    HW2 2877   1.978   0.758   1.814  0.1773  2.2179  0.6053
  960SOL     OW 2878   0.181   1.727   2.954  0.5432 -0.5133  0.4761
  960SOL    HW1 2879   0.240   1.749   2.870  1.2266  1.0945 -1.7207
  960SOL    HW2 2880   0.214   1.769   3.046  0.3969  1.8297  1.6484
  961SOL     OW 2881   0.709   1.906   0.916  0.4535 -0.1892 -0.1692
  961SOL    HW1 2882   0.719   2.005   0.935  1.2391 -0.9627  0.8663
  961SOL    HW2 2883   0.784   1.855   0.966 -0.0478 -0.5613 -1.1665
  962SOL     OW 2884   0.263   1.482   1.366  0.0755 -0.3652 -0.2429
  962SOL    HW1 2885   0.280   1.478   1.266  0.1909 -1.6192  2.8822
  962SOL    HW2 2886   0.350   1.469   1.421  0.6679  1.5765  2.4206
  963SOL     OW 2887   1.360   1.886   2.609  0.3119 -0.8041 -0.0437
  963SOL    HW1 2888   1.393   1.815   2.539  1.0422 -0.1119 -0.7712
  963SOL    HW2 2889   1.407   1.868   2.697 -0.1721  0.1751 -1.2105
  964SOL     OW 2890   0.342   2.930   2.201  0.4816 -0.0564 -0.4290
  964SOL    HW1 2891   0.281   2.890   2.269  0.5564  1.3619 -2.0542
  964SOL    HW2 2892   0.437   2.913   2.225  0.1243 -0.8190  0.5851
  965SOL     OW 2893   0.036   2.272   2.846  0.0463 -0.2801  0.7503
  965SOL    HW1 2894   3.002   2.292   2.860  1.7573  0.6362 -1.1864
  965SOL    HW2 2895   0.054   2.242   2.751  0.9096  1.5303 -0.3816
  966SOL     OW 2896   2.861   1.732   2.761  0.3516  0.0387 -0.4293
  966SOL    HW1 2897   2.770   1.714   2.804  1.3641  3.0540  0.1740
  966SOL    HW2 2898   2.924   1.651   2.768 -2.3234 -1.8428  1.1398
  967SOL     OW 2899   1.769   0.295   0.287  0.4526 -0.0017  0.3083
  967SOL    HW1 2900   1.712   0.373   0.264  0.6108 -1.6974  0.5861
  967SOL    HW2 2901   1.706   0.217   0.319  1.3368 -1.5570 -1.0527
  968SOL     OW 2902   2.594   0.056   0.756  0.6021 -0.0240  0.0634
  968SOL    HW1 2903   2.538   3.056   0.811  0.8934  0.0914 -0.7255
  968SOL    HW2 2904   2.543   0.141   0.725 -1.2376 -2.3777 -1.6489
  969SOL     OW 2905   0.229   1.052   2.022  0.0732  0.1094 -0.0651
  969SOL    HW1 2906   0.181   1.076   1.934 -0.2185 -0.4409 -2.0299
  969SOL    HW2 2907   0.282   1.135   2.054  2.5451 -1.4772 -2.4921
  970SOL     OW 2908   1.745   1.670   2.756  0.5530  0.4540  0.2576
  970SOL    HW1 2909   1.736   1.571   2.770  2.9413  0.4077  2.0671
  970SOL    HW2 2910   1.718   1.714   2.843 -0.0552 -3.3351 -1.0418
  971SOL     OW 2911   2.265   0.224   1.767 -0.2123  0.5366 -0.2965
  971SOL    HW1 2912   2.226   0.248   1.678 -0.4586  0.8164  2.2250
  971SOL    HW2 2913   2.247   0.125   1.790 -1.9463 -1.3982  1.1309
  972SOL     OW 2914   2.868   0.376   0.739  0.1089 -0.1460 -0.6856
  972SOL    HW1 2915   2.845   0.380   0.641 -0.3846 -0.4672  0.4543
  972SOL    HW2 2916   2.927   0.304   0.767 -1.1023  1.7340  1.6633
  973SOL     OW 2917   0.324   0.444   2.411 -0.0432  0.1737  0.4107
  973SOL    HW1 2918   0.319   0.399   2.318  0.2382 -1.5216  1.3476
  973SOL    HW2 2919   0.363   0.375   2.476 -0.1338 -0.3264  0.1543
  974SOL     OW 2920   2.606   1.101   1.594  0.0036 -0.3030  0.1081
  974SOL    HW1 2921   2.565   1.094   1.687  1.7263 -0.2497 -1.7980
  974SOL    HW2 2922   2.697   1.136   1.608 -0.5996  0.6170 -0.6987
  975SOL     OW 2923   1.331   2.694   1.831 -0.1013  0.3964  0.8207
  975SOL    HW1 2924   1.309   2.769   1.765  2.7183 -0.4552  0.7698
  975SOL    HW2 2925   1.249   2.646   1.860  0.9400  2.0534  2.7062
  976SOL     OW 2926   1.864   1.419   1.381  0.4510 -0.1080  0.7686
  976SOL    HW1 2927   1.924   1.346   1.421 -0.3854 -0.4291 -3.3525
  976SOL    HW2 2928   1.857   1.497   1.450  0.9254  0.1584 -2.3651
  977SOL     OW 2929   0.484   2.770   3.065  0.0308  0.0066 -0.1995
  977SOL    HW1 2930   0.504   2.834   2.989 -0.6885  0.5344  2.2694
  977SOL    HW2 2931   0.561   2.774   0.068  1.1029 -2.2153  0.7338
  978SOL     OW 2932   1.959   1.657   2.005  0.0395  0.5558  0.1607
  978SOL    HW1 2933   1.984   1.589   1.930  1.1378  0.8397 -0.6312
  978SOL    HW2 2934   1.856   1.674   2.005 -1.8460  1.6291  0.3726
  979SOL     OW 2935   1.490   0.868   1.856 -0.5361 -0.3176 -0.0662
  979SOL    HW1 2936   1.413   0.923   1.892  0.1282 -0.8675 -0.8464
  979SOL    HW2 2937   1.505   0.884   1.754  0.7594 -0.4283 -2.9721
  980SOL     OW 2938   1.806   1.887   2.317  0.2017  0.1525 -0.2973
  980SOL    HW1 2939   1.873   1.951   2.363  0.7234 -1.6433  0.5656
  980SOL    HW2 2940   1.744   1.851   2.385 -0.5941 -0.4361 -1.1302
  981SOL     OW 2941   1.527   0.619   1.768  0.6725 -0.0472  0.0427
  981SOL    HW1 2942   1.579   0.628   1.684 -1.4580 -0.4944  0.9743
  981SOL    HW2 2943   1.541   0.700   1.830 -1.6907  0.3657  0.6480
  982SOL     OW 2944   0.414   0.362   0.234  0.3039  0.0315  0.4733
  982SOL    HW1 2945   0.360   0.339   0.321 -0.6696  0.0065 -0.4962
  982SOL    HW2 2946   0.357   0.339   0.152  0.7749  0.6016 -3.6690
  983SOL     OW 2947   2.174   0.906   2.941 -0.3267 -0.1754  0.2138
  983SOL    HW1 2948   2.128   0.992   2.965  1.3103 -0.9469 -3.1787
  983SOL    HW2 2949   2.110   0.832   2.921 -1.5371  1.8499  0.0539
  984SOL     OW 2950   0.999   0.251   2.728  0.0842  0.2501 -0.2369
  984SOL    HW1 2951   0.960   0.188   2.659 -4.9752  1.9578  0.6657
  984SOL    HW2 2952   1.084   0.212   2.759 -1.9222  1.9544 -0.1994
  985SOL     OW 2953   1.453   2.149   2.075 -0.0168  0.2937  0.0249
  985SOL    HW1 2954   1.501   2.108   1.997 -0.1821  0.0280 -2.5848
  985SOL    HW2 2955   1.493   2.234   2.109 -0.1154 -0.7203 -2.5802
  986SOL     OW 2956   2.392   2.606   1.968 -0.6643  0.3838 -0.3686
  986SOL    HW1 2957   2.438   2.693   1.989 -2.6598  0.7198  0.9385
  986SOL    HW2 2958   2.333   2.572   2.041  1.0845  0.4963  1.8497
  987SOL     OW 2959   1.844   1.074   0.923 -0.0768 -0.6897 -0.1504
  987SOL    HW1 2960   1.918   1.077   0.994 -0.0963 -1.1976  1.0460
  987SOL    HW2 2961   1.781   0.994   0.930  0.1732 -0.0248  1.7774
  988SOL     OW 2962   2.402   1.387   1.923 -0.5907  0.1739 -1.0209
  988SOL    HW1 2963   2.333   1.311   1.936 -0.8200  1.2999 -0.6190
  988SOL    HW2 2964   2.391   1.421   1.827 -0.9987 -0.9306  1.1535
  989SOL     OW 2965   1.503   2.187   0.268 -0.0674 -0.1891  0.1076
  989SOL    HW1 2966   1.478   2.238   0.182 -0.4929 -1.3179 -3.6330
  989SOL    HW2 2967   1.575   2.233   0.324  1.0092 -0.5429  4.0704
  990SOL     OW 2968   1.745   0.756   2.684  0.0048  0.0238 -0.0187
  990SOL    HW1 2969   1.704   0.851   2.673  3.7354 -3.2214 -0.5993
  990SOL    HW2 2970   1.803   0.754   2.760 -0.9505  1.9068 -1.2671
  991SOL     OW 2971   0.899   0.661   0.735  0.3282 -0.3811 -0.0339
  991SOL    HW1 2972   0.913   0.760   0.758 -0.3131  0.7920  0.0553
  991SOL    HW2 2973   0.979   0.637   0.680  1.6777 -0.5342 -2.3231
  992SOL     OW 2974   2.914   0.890   1.306 -0.2095  0.1411  0.1096
  992SOL    HW1 2975   2.938   0.957   1.232 -1.4684 -1.7732  1.9019
  992SOL    HW2 2976   2.922   0.796   1.268 -0.1806 -1.7298 -0.2857
  993SOL     OW 2977   2.220   0.606   1.938  1.0097  0.3083 -0.1573
  993SOL    HW1 2978   2.139   0.549   1.932 -0.4314  0.8973 -0.4836
  993SOL    HW2 2979   2.262   0.615   1.848 -0.7293  0.1028  1.7251
  994SOL     OW 2980   1.016   1.669   1.850 -0.2947  0.1138  0.0586
  994SOL    HW1 2981   1.081   1.594   1.872  1.7861 -0.0075 -0.6222
  994SOL    HW2 2982   0.926   1.652   1.893  0.6592  0.0760 -1.2931
  995SOL     OW 2983   2.209   1.506   2.667  0.7191 -0.0124  0.1014
  995SOL    HW1 2984   2.302   1.528   2.634  2.6652  2.6641  2.9851
  995SOL    HW2 2985   2.171   1.590   2.714 -1.2099 -1.7560  2.2242
  996SOL     OW 2986   2.173   1.701   0.425 -0.1276  0.8593 -0.0682
  996SOL    HW1 2987   2.239   1.772   0.454  0.1413 -1.1253 -0.7609
  996SOL    HW2 2988   2.220   1.638   0.360 -0.3536 -1.4996  0.0894
  997SOL     OW 2989   1.994   0.455   1.967 -0.3159 -0.1844  0.2368
  997SOL    HW1 2990   1.955   0.432   2.057 -1.2348  0.1263  1.3431
  997SOL    HW2 2991   1.965   0.394   1.893  0.5215  1.1490 -0.2781
  998SOL     OW 2992   2.399   0.955   0.644 -0.2451 -0.3883  0.4501
  998SOL    HW1 2993   2.433   0.964   0.740  2.2927  0.9131  0.6726
  998SOL    HW2 2994   2.465   0.897   0.594  1.5744  2.4569 -0.4718
  999SOL     OW 2995   2.555   1.581   0.355  0.4387  0.0356 -0.2268
  999SOL    HW1 2996   2.561   1.673   0.306 -0.7714  1.5160 -2.9068
  999SOL    HW2 2997   2.554   1.598   0.456 -1.8020  0.2626 -1.9357
 1000SOL     OW 2998   0.862   0.929   1.868  0.0566 -0.2942  0.1379
 1000SOL    HW1 2999   0.873   0.850   1.930 -1.1174  1.1767 -0.2366
 1000SOL    HW2 3000   0.800   0.908   1.790  0.4554 -0.6662 -1.1942
   3.06592   3.06592   3.06592
