1000 SPC/Fw water molecules t= 110.00000 step= 110000
 3000
    1SOL     OW    1   2.051   2.540   0.645  0.5173 -0.0022 -0.2431
    1SOL    HW1    2   2.053   2.460   0.581  0.4040 -0.1625  0.1300
    1SOL    HW2    3   2.127   2.548   0.717  2.9319  0.0281  0.7854
    2SOL     OW    4   1.330   1.411   2.170 -0.0063  0.3975  0.1003
    2SOL    HW1    5   1.270   1.470   2.229 -3.7017 -0.1947  0.1190
    2SOL    HW2    6   1.290   1.417   2.075  0.9630 -2.5240 -1.9646
    3SOL     OW    7   1.621   2.461   2.414 -0.0843  0.6902 -0.4066
    3SOL    HW1    8   1.711   2.483   2.367  0.1873  0.5854 -2.4519
    3SOL    HW2    9   1.586   2.377   2.374  1.4773 -0.1805 -0.8379
    4SOL     OW   10   1.033   2.020   2.151  0.1135 -0.0482 -0.5087
    4SOL    HW1   11   1.078   2.005   2.241 -0.1922 -0.0324  0.1418
    4SOL    HW2   12   1.074   2.100   2.103 -0.5590 -0.7459  0.8566
    5SOL     OW   13   0.467   0.782   1.662 -0.2005  0.1156 -0.3113
    5SOL    HW1   14   0.558   0.815   1.693 -1.1675 -2.6408 -0.3337
    5SOL    HW2   15   0.459   0.680   1.659  0.3891  0.5538 -0.0010
    6SOL     OW   16   2.312   0.611   2.944  0.3946 -0.5813 -0.5142
    6SOL    HW1   17   2.248   0.683   2.911 -2.4506  0.7589 -0.4211
    6SOL    HW2   18   2.401   0.597   2.891  0.6879 -0.2000  0.1949
    7SOL     OW   19   0.732   0.093   1.537  0.1644 -0.0404  0.3802
    7SOL    HW1   20   0.727   0.053   1.627 -0.4424  0.9324 -2.7243
    7SOL    HW2   21   0.827   0.115   1.499  1.1585  0.4204  2.4147
    8SOL     OW   22   1.572   0.190   1.869 -0.0384  0.0413  0.0732
    8SOL    HW1   23   1.592   0.290   1.886  0.8305 -1.7213  0.4207
    8SOL    HW2   24   1.537   0.145   1.956 -3.0441 -0.2966  1.3175
    9SOL     OW   25   0.154   0.632   0.494  0.1535  0.3207  0.1023
    9SOL    HW1   26   0.121   0.560   0.566 -0.9947 -0.8229 -0.0127
    9SOL    HW2   27   0.201   0.713   0.536 -1.2552  0.9061 -0.1777
   10SOL     OW   28   0.840   2.328   2.561 -0.0602  0.1115  0.0106
   10SOL    HW1   29   0.858   2.353   2.657 -2.7809 -2.0327  1.6372
   10SOL    HW2   30   0.763   2.382   2.524 -4.3784 -1.6816  0.8001
   11SOL     OW   31   0.895   1.704   0.043 -0.0479 -0.4232  0.0259
   11SOL    HW1   32   0.801   1.703   0.079  0.4828  1.0269 -0.4757
   11SOL    HW2   33   0.948   1.628   0.092  0.4131 -2.7766  2.8311
   12SOL     OW   34   0.158   2.905   1.376 -0.3157 -0.2827 -0.5160
   12SOL    HW1   35   0.080   2.954   1.415  2.8464 -1.8840  0.9755
   12SOL    HW2   36   0.126   2.823   1.323 -0.5932  0.1976  0.5311
   13SOL     OW   37   0.886   2.742   3.111  0.1613 -0.5803  0.4062
   13SOL    HW1   38   0.982   2.731   3.079 -0.3200 -1.9134 -1.7754
   13SOL    HW2   39   0.829   2.763   3.031  1.9731 -0.3686  1.8071
   14SOL     OW   40   1.747   2.017   0.755  0.1093 -0.3079 -0.6300
   14SOL    HW1   41   1.701   1.948   0.819 -1.6501 -1.4829 -1.3777
   14SOL    HW2   42   1.837   1.975   0.722  1.7625 -0.2713  0.2036
   15SOL     OW   43   2.958   1.448   2.258 -0.2770 -0.1245  0.5610
   15SOL    HW1   44   3.039   1.405   2.304 -0.0337  1.7694  0.1002
   15SOL    HW2   45   2.869   1.431   2.304 -1.1347  1.1002  1.6549
   16SOL     OW   46   1.523   2.999   2.885  0.4718 -0.2535 -0.0872
   16SOL    HW1   47   1.602   3.060   2.853  0.7688  2.5347 -0.1445
   16SOL    HW2   48   1.440   3.014   2.827 -0.8135  0.7171 -3.4876
   17SOL     OW   49   0.538   2.383   2.117 -0.4228  0.0103 -0.6106
   17SOL    HW1   50   0.637   2.353   2.101 -0.4286 -0.2136 -0.7436
   17SOL    HW2   51   0.507   2.353   2.210 -0.3490 -2.7080 -2.2522
   18SOL     OW   52   1.721   1.001   0.524  0.2403 -0.0985 -0.2287
   18SOL    HW1   53   1.762   1.070   0.459 -0.7522 -0.9492 -3.7054
   18SOL    HW2   54   1.660   0.938   0.465 -1.0337  0.4289  2.0042
   19SOL     OW   55   2.474   1.710   2.505  0.2655  0.0058 -0.1503
   19SOL    HW1   56   2.426   1.636   2.554 -0.4873 -1.0244  0.0235
   19SOL    HW2   57   2.521   1.770   2.576 -2.1955  4.6791  2.1324
   20SOL     OW   58   2.507   2.020   2.266 -0.0559 -0.1378 -0.1859
   20SOL    HW1   59   2.462   1.937   2.234 -2.1359  2.7076 -2.6916
   20SOL    HW2   60   2.531   2.082   2.191 -2.1928 -4.1638  2.9175
   21SOL     OW   61   0.703   2.204   0.166  0.3469 -0.0361 -0.1641
   21SOL    HW1   62   0.732   2.271   0.097  0.8918  0.4592 -1.1622
   21SOL    HW2   63   0.602   2.199   0.171 -1.2807 -3.3481  1.3891
   22SOL     OW   64   2.040   2.540   1.525 -0.0515  0.3102 -0.0558
   22SOL    HW1   65   2.095   2.609   1.468  2.2328  2.7945 -2.1694
   22SOL    HW2   66   2.042   2.558   1.627  1.9028 -2.3100 -1.7310
   23SOL     OW   67   0.266   0.968   1.754 -0.0070 -0.2601  0.1639
   23SOL    HW1   68   0.278   1.068   1.742 -0.2013  0.0177 -2.6831
   23SOL    HW2   69   0.341   0.907   1.717 -0.4521 -2.1257  0.9780
   24SOL     OW   70   2.196   1.988   1.928  0.0165  0.1201 -0.3225
   24SOL    HW1   71   2.169   1.939   2.013 -0.2712 -0.1252  0.1637
   24SOL    HW2   72   2.293   1.982   1.912 -0.4408  0.6559  0.2904
   25SOL     OW   73   1.732   0.155   2.502 -0.1039  0.0226  0.1685
   25SOL    HW1   74   1.790   0.210   2.433  1.4917  2.0513 -2.9940
   25SOL    HW2   75   1.645   0.126   2.460  0.1813 -0.6003  1.3440
   26SOL     OW   76   1.254   0.044   0.655 -0.0460  0.0891 -0.1493
   26SOL    HW1   77   1.263   3.071   0.607  2.4334  0.1082 -0.3986
   26SOL    HW2   78   1.267   0.120   0.589  0.4828 -1.2036  2.7193
   27SOL     OW   79   0.983   1.451   0.188  0.0470  0.5377  0.0796
   27SOL    HW1   80   1.009   1.507   0.270 -2.3426 -0.6381 -1.7726
   27SOL    HW2   81   0.890   1.405   0.197  0.4930 -3.2112 -3.0284
   28SOL     OW   82   2.633   1.983   1.175 -0.0658  0.9135  0.4511
   28SOL    HW1   83   2.612   1.954   1.272 -3.7222 -0.6952  1.1131
   28SOL    HW2   84   2.595   2.074   1.156  0.3299 -1.3335  0.1684
   29SOL     OW   85   2.334   2.852   1.847 -0.2169 -0.2665 -0.0094
   29SOL    HW1   86   2.317   2.901   1.931 -0.0878 -2.5902  0.3834
   29SOL    HW2   87   2.354   2.754   1.855 -1.0750 -0.1435  2.4457
   30SOL     OW   88   0.896   2.811   1.015  0.1115  0.0525  0.0971
   30SOL    HW1   89   0.879   2.888   0.951  0.7975 -0.8078 -0.6533
   30SOL    HW2   90   0.995   2.784   1.010  1.2631 -1.1656  0.3515
   31SOL     OW   91   3.033   2.237   1.804 -0.1966  0.0118 -0.7353
   31SOL    HW1   92   3.115   2.183   1.788  0.4509  1.3813  1.8688
   31SOL    HW2   93   3.032   2.268   1.904  0.6675  1.4621  1.2462
   32SOL     OW   94   1.566   1.350   2.070  0.4883  0.0918 -0.4464
   32SOL    HW1   95   1.470   1.350   2.107 -1.8719 -1.0277  0.4137
   32SOL    HW2   96   1.584   1.269   2.015 -0.9441 -0.4934  2.2549
   33SOL     OW   97   0.297   0.095   2.839 -0.4511 -0.0087 -0.0360
   33SOL    HW1   98   0.400   0.096   2.820  0.0452 -1.1683 -4.4853
   33SOL    HW2   99   0.253   0.036   2.769  2.1723 -1.7427  0.5999
   34SOL     OW  100   2.144   0.165   1.213  0.5861  0.3525  0.6141
   34SOL    HW1  101   2.169   0.260   1.214  0.7654 -1.3461 -0.4537
   34SOL    HW2  102   2.057   0.149   1.258  2.1450  0.0583 -1.7683
   35SOL     OW  103   2.369   0.383   1.557 -0.0818  0.0814  0.0242
   35SOL    HW1  104   2.412   0.292   1.536  1.2830 -0.4130 -2.6281
   35SOL    HW2  105   2.349   0.387   1.656 -2.1885  0.5802 -2.4383
   36SOL     OW  106   2.414   2.889   2.438 -0.0770 -0.2306  0.4976
   36SOL    HW1  107   2.327   2.848   2.473  1.2761 -0.6188  1.9579
   36SOL    HW2  108   2.498   2.861   2.492  2.1332 -0.9925  2.5944
   37SOL     OW  109   1.152   2.476   2.881 -0.0426  0.1199 -0.5548
   37SOL    HW1  110   1.159   2.580   2.879  1.3859  0.9536 -0.0658
   37SOL    HW2  111   1.237   2.437   2.923  1.5943 -1.8685 -0.9966
   38SOL     OW  112   2.842   1.153   2.858  0.3915  0.6266 -0.2058
   38SOL    HW1  113   2.897   1.086   2.910  2.1605  0.0037 -0.2851
   38SOL    HW2  114   2.742   1.155   2.881 -3.6307  1.3532  2.6470
   39SOL     OW  115   2.152   2.146   2.231  0.0795  0.2062  0.6152
   39SOL    HW1  116   2.149   2.053   2.184  0.8294 -1.1523 -1.7892
   39SOL    HW2  117   2.156   2.123   2.328 -1.7694  3.9051 -2.9361
   40SOL     OW  118   0.803   0.338   2.928  0.3611 -0.1784  0.1473
   40SOL    HW1  119   0.774   0.289   3.015 -0.2695  0.2753 -1.0126
   40SOL    HW2  120   0.900   0.315   2.908  0.9392 -0.9607 -0.1646
   41SOL     OW  121   1.509   1.052   1.426  0.2511 -0.3858 -0.3418
   41SOL    HW1  122   1.596   1.008   1.395 -2.7340 -1.3940 -1.3750
   41SOL    HW2  123   1.473   1.005   1.509  1.3695  1.3328  2.3841
   42SOL     OW  124   0.294   0.316   2.028  0.0501  0.2162  0.3323
   42SOL    HW1  125   0.220   0.381   2.008  1.0378  0.7043  0.1946
   42SOL    HW2  126   0.387   0.363   2.022 -2.1000  0.6247 -0.1947
   43SOL     OW  127   1.813   1.325   2.182  0.0437 -0.2359  0.6938
   43SOL    HW1  128   1.798   1.314   2.281  0.2426  0.6590 -0.5389
   43SOL    HW2  129   1.723   1.348   2.135 -2.4192  0.0462  0.9825
   44SOL     OW  130   0.018   2.904   2.991  0.5260  0.1228 -0.3020
   44SOL    HW1  131   0.039   2.975   3.063 -0.5030  0.8417  0.7406
   44SOL    HW2  132   3.117   2.816   3.043  1.5164 -1.5158 -1.7129
   45SOL     OW  133   0.771   1.949   1.225 -0.2578  0.2598  0.2694
   45SOL    HW1  134   0.715   2.034   1.221  2.1219 -0.4513  2.0549
   45SOL    HW2  135   0.715   1.880   1.275  0.1070 -2.1925 -0.6225
   46SOL     OW  136   2.615   2.512   1.929 -0.6220 -0.2197  0.0107
   46SOL    HW1  137   2.689   2.543   1.863 -0.3435 -0.1157 -1.1937
   46SOL    HW2  138   2.526   2.534   1.890  2.0642 -0.1498  2.3300
   47SOL     OW  139   1.101   1.751   1.252 -0.4314  0.7242  0.1053
   47SOL    HW1  140   1.048   1.820   1.304  1.6095 -2.6836 -1.2769
   47SOL    HW2  141   1.043   1.677   1.216 -3.6700  0.1969 -4.0258
   48SOL     OW  142   0.134   2.422   0.102  0.1680 -0.2708 -0.1384
   48SOL    HW1  143   0.082   2.443   0.192  1.7190 -1.6161  0.7717
   48SOL    HW2  144   0.236   2.424   0.126 -1.6240 -1.2564 -0.1962
   49SOL     OW  145   2.934   1.377   1.980  0.4481  0.4789  0.0136
   49SOL    HW1  146   3.003   1.450   1.985 -0.1875 -3.2097 -0.2944
   49SOL    HW2  147   2.845   1.406   1.941 -0.8174 -2.8196 -2.3021
   50SOL     OW  148   2.129   0.891   0.721 -0.1960 -0.5305  0.1347
   50SOL    HW1  149   2.136   0.990   0.699  1.7032  0.9710  1.4175
   50SOL    HW2  150   2.041   0.846   0.701  1.3943 -0.2016  0.0203
   51SOL     OW  151   0.994   0.811   0.730  1.1030  0.3343 -0.7134
   51SOL    HW1  152   0.969   0.880   0.661  0.0326 -0.7923  0.2255
   51SOL    HW2  153   0.920   0.804   0.801  2.2214  0.0164 -0.2023
   52SOL     OW  154   1.487   1.097   0.205 -0.3919  0.4436 -0.3266
   52SOL    HW1  155   1.505   1.005   0.248 -0.1936 -0.4206 -0.3270
   52SOL    HW2  156   1.446   1.165   0.274 -1.1716  2.1450 -1.0888
   53SOL     OW  157   1.247   2.319   2.685  0.1855 -0.2697 -0.5028
   53SOL    HW1  158   1.209   2.229   2.705  0.7011  2.8071  1.8154
   53SOL    HW2  159   1.198   2.392   2.743 -4.2538  0.3626 -0.9091
   54SOL     OW  160   1.617   0.792   1.639  0.3149  0.1094  0.1204
   54SOL    HW1  161   1.524   0.840   1.650 -3.5964 -0.2047  1.4589
   54SOL    HW2  162   1.608   0.722   1.565 -3.0157 -0.0164  0.9680
   55SOL     OW  163   2.648   2.982   0.477  0.5529 -0.0132  0.6420
   55SOL    HW1  164   2.550   2.959   0.482  1.1738 -0.5549  1.0968
   55SOL    HW2  165   2.685   2.996   0.568 -1.0711 -1.1874 -0.4483
   56SOL     OW  166   0.667   2.710   1.768 -0.7743 -0.3441 -0.4583
   56SOL    HW1  167   0.644   2.732   1.866 -0.0594  0.5843  3.8386
   56SOL    HW2  168   0.601   2.633   1.736 -0.8789 -0.5846  0.2653
   57SOL     OW  169   2.129   0.702   2.690 -0.0479  0.1219  0.2737
   57SOL    HW1  170   2.112   0.609   2.651  1.3646  1.4200 -0.4503
   57SOL    HW2  171   2.085   0.708   2.783  0.1441  0.6764  0.5595
   58SOL     OW  172   2.945   1.325   1.706  0.1302 -0.4076  0.1765
   58SOL    HW1  173   2.960   1.339   1.805 -0.7860  0.9779 -0.2339
   58SOL    HW2  174   2.885   1.393   1.664 -1.6308  0.2197  0.1092
   59SOL     OW  175   0.485   2.911   2.370 -0.7516  0.7346  0.0477
   59SOL    HW1  176   0.552   2.837   2.348  0.9000  0.6432 -0.5571
   59SOL    HW2  177   0.393   2.889   2.337 -1.8833  0.7378 -2.2670
   60SOL     OW  178   2.605   2.320   0.705  0.0202 -0.7828  0.1641
   60SOL    HW1  179   2.621   2.275   0.619  1.9050 -1.0555  0.4017
   60SOL    HW2  180   2.690   2.364   0.745  3.2861 -0.0183 -0.6705
   61SOL     OW  181   0.871   2.068   0.299 -0.1445 -0.0890 -0.0929
   61SOL    HW1  182   0.799   2.126   0.255  0.7534  0.7665 -2.6604
   61SOL    HW2  183   0.891   2.094   0.396  2.4383 -0.0645  1.5081
   62SOL     OW  184   2.223   2.679   2.956  0.3030  0.1507 -0.2599
   62SOL    HW1  185   2.310   2.646   2.907  0.8473 -1.3228  1.4286
   62SOL    HW2  186   2.161   2.732   2.895 -2.9807  3.4013 -0.8493
   63SOL     OW  187   1.974   0.336   0.066  0.0217 -0.2376 -0.3858
   63SOL    HW1  188   1.943   0.356   3.088 -1.0311  1.5303 -1.8053
   63SOL    HW2  189   1.991   0.427   0.111  4.5713  1.6612  1.5201
   64SOL     OW  190   0.711   0.964   2.531 -0.2297 -0.0383  0.3775
   64SOL    HW1  191   0.812   0.993   2.541  1.6093 -0.0971 -2.4887
   64SOL    HW2  192   0.652   0.970   2.614 -0.7416 -1.5797  0.2125
   65SOL     OW  193   1.346   2.951   0.509 -0.0805  0.3731  0.0821
   65SOL    HW1  194   1.370   2.850   0.516  0.7565 -3.5397  0.3396
   65SOL    HW2  195   1.322   2.959   0.411  2.0663  0.5445  1.7584
   66SOL     OW  196   0.295   1.242   1.708  0.3686 -0.8562  0.1281
   66SOL    HW1  197   0.250   1.288   1.789  1.1783 -1.1216 -0.0672
   66SOL    HW2  198   0.394   1.264   1.706  0.7105 -0.0857  1.0436
   67SOL     OW  199   2.084   2.926   2.346 -0.1110 -0.3270 -0.3679
   67SOL    HW1  200   2.059   2.868   2.265 -1.2020  0.9826  0.1487
   67SOL    HW2  201   2.109   2.868   2.423  0.9451  1.3878  2.0647
   68SOL     OW  202   0.839   0.631   1.791  0.0251 -0.0288  0.6273
   68SOL    HW1  203   0.880   0.607   1.702  0.7199  2.7504  0.8000
   68SOL    HW2  204   0.762   0.698   1.777 -0.3715 -1.9215  3.6910
   69SOL     OW  205   2.051   2.870   0.399  0.0515  0.2420  0.8518
   69SOL    HW1  206   2.034   2.864   0.498 -0.8114  0.2579 -2.7172
   69SOL    HW2  207   1.982   2.924   0.348 -0.3834 -0.1622 -1.1845
   70SOL     OW  208   2.549   0.588   2.811 -0.3567 -0.1643 -0.6420
   70SOL    HW1  209   2.608   0.626   2.738 -0.0561 -1.1343  5.1816
   70SOL    HW2  210   2.604   0.540   2.882 -2.3746 -1.5181  0.5708
   71SOL     OW  211   2.886   1.972   0.066 -0.1103 -0.2357 -0.4207
   71SOL    HW1  212   2.863   1.877   0.030 -0.9657  0.5711 -0.0299
   71SOL    HW2  213   2.984   2.001   0.049 -1.6389 -0.0964 -3.7357
   72SOL     OW  214   3.046   1.816   0.476  0.2353 -0.0637  0.0484
   72SOL    HW1  215   2.997   1.901   0.446 -0.6176  0.9452 -2.9571
   72SOL    HW2  216   3.031   1.805   0.573  2.0543  0.1494 -1.4290
   73SOL     OW  217   0.833   1.043   0.643  0.0892 -0.0120 -0.0062
   73SOL    HW1  218   0.823   1.082   0.738 -0.7148 -0.0704  0.0963
   73SOL    HW2  219   0.748   0.993   0.620  1.9614 -0.8060 -1.2125
   74SOL     OW  220   0.165   2.075   1.984  0.6223 -0.4090  0.0349
   74SOL    HW1  221   0.154   1.997   2.046 -0.7548  0.2206  0.3623
   74SOL    HW2  222   0.259   2.086   1.948 -0.6103  0.1411 -0.1880
   75SOL     OW  223   1.759   1.462   1.252 -0.0911 -0.5150 -0.2405
   75SOL    HW1  224   1.728   1.490   1.156 -1.7314  2.1333 -2.1493
   75SOL    HW2  225   1.705   1.384   1.290 -0.4167 -2.0560 -1.2584
   76SOL     OW  226   1.927   2.464   1.025  0.1540 -0.3070 -0.1443
   76SOL    HW1  227   1.844   2.441   0.970  1.1181  0.6534 -0.2211
   76SOL    HW2  228   1.993   2.527   0.979 -1.3392 -1.2333  0.5164
   77SOL     OW  229   2.598   1.836   1.660 -0.3702 -0.1056  0.2392
   77SOL    HW1  230   2.552   1.884   1.737  1.6652 -1.4714 -2.0228
   77SOL    HW2  231   2.685   1.792   1.691 -2.7356 -0.3015 -0.3998
   78SOL     OW  232   1.507   0.861   0.361  0.0646 -0.1949  0.4390
   78SOL    HW1  233   1.422   0.877   0.418 -3.0178 -0.8681 -0.2592
   78SOL    HW2  234   1.487   0.781   0.292  0.6856 -1.4618 -2.2755
   79SOL     OW  235   2.115   1.754   1.574  0.7074  0.3460 -0.3301
   79SOL    HW1  236   2.045   1.791   1.635  0.1250  2.1190  0.0779
   79SOL    HW2  237   2.196   1.716   1.624  1.7797  1.4873 -2.3300
   80SOL     OW  238   0.894   0.473   1.543 -0.2996  0.0001  0.1107
   80SOL    HW1  239   0.937   0.380   1.563 -2.3051 -0.9220 -0.8021
   80SOL    HW2  240   0.832   0.474   1.468 -0.3832  1.3230 -0.4480
   81SOL     OW  241   0.527   2.240   0.724 -0.0934 -0.1481  0.1900
   81SOL    HW1  242   0.480   2.152   0.704  2.5421 -1.6865  0.0038
   81SOL    HW2  243   0.613   2.223   0.778  0.2976 -0.2368  1.3785
   82SOL     OW  244   1.237   0.236   1.799  0.0008 -0.3712  0.3508
   82SOL    HW1  245   1.238   0.139   1.833  1.0874  1.4517  0.7057
   82SOL    HW2  246   1.231   0.297   1.880  0.3958  1.6269  1.1193
   83SOL     OW  247   0.800   1.775   0.631  0.2406 -0.2885 -0.1195
   83SOL    HW1  248   0.767   1.848   0.691  2.4419 -3.1524 -1.1797
   83SOL    HW2  249   0.718   1.729   0.588 -0.7403  2.1033 -0.0619
   84SOL     OW  250   2.708   1.416   0.044 -0.4104 -0.4371 -0.0891
   84SOL    HW1  251   2.650   1.334   0.059 -1.5124 -0.8250  2.2953
   84SOL    HW2  252   2.766   1.410   3.083  0.0623  1.1193  0.1738
   85SOL     OW  253   0.039   2.429   0.918  0.3921 -0.1135 -0.1925
   85SOL    HW1  254   3.095   2.423   0.834  0.8043  0.3470 -2.8299
   85SOL    HW2  255   0.121   2.370   0.906  0.5648  1.8559  1.4860
   86SOL     OW  256   1.896   2.951   1.200  0.7094  0.0288  0.4514
   86SOL    HW1  257   1.830   2.962   1.123  1.3885  2.5224 -0.6292
   86SOL    HW2  258   1.905   2.862   1.244  0.4562  2.5965  2.5608
   87SOL     OW  259   3.058   1.730   0.735 -0.2068  0.4903 -0.0261
   87SOL    HW1  260   3.054   1.797   0.807 -1.7097 -3.7277  0.1574
   87SOL    HW2  261   3.094   1.645   0.779 -1.4684  0.5990  0.0836
   88SOL     OW  262   0.699   0.479   1.352  0.0592  0.0014  0.4774
   88SOL    HW1  263   0.628   0.469   1.276  1.2974  2.1367 -2.1337
   88SOL    HW2  264   0.768   0.406   1.326 -0.5200  0.0565  1.7407
   89SOL     OW  265   0.974   2.705   1.798 -0.2566 -0.1414  0.4341
   89SOL    HW1  266   1.049   2.693   1.724 -0.3856 -0.5572 -0.1650
   89SOL    HW2  267   0.883   2.740   1.757 -3.5318  0.8069  1.7864
   90SOL     OW  268   0.158   2.025   1.160  0.5371 -0.2242  0.1739
   90SOL    HW1  269   0.160   1.942   1.211 -1.6847  1.5873 -2.8743
   90SOL    HW2  270   0.091   2.090   1.198  1.5154  0.1545 -0.4340
   91SOL     OW  271   1.108   2.193   1.360  0.2947  0.8702  0.5038
   91SOL    HW1  272   1.071   2.282   1.321 -0.4109  0.7693 -0.6716
   91SOL    HW2  273   1.192   2.208   1.418 -0.0085  0.1276 -2.0237
   92SOL     OW  274   2.757   2.931   1.450  0.0368 -0.0925  0.3734
   92SOL    HW1  275   2.712   2.991   1.381 -0.1246 -0.2383  1.2817
   92SOL    HW2  276   2.847   2.972   1.477  1.3191 -0.8460  1.1569
   93SOL     OW  277   2.966   1.374   3.007 -0.3698 -0.2302 -0.4240
   93SOL    HW1  278   2.968   1.313   2.924  1.6174  1.0453  1.0959
   93SOL    HW2  279   2.962   1.325   3.093  0.6609  0.3216 -1.5087
   94SOL     OW  280   2.920   2.574   2.167  0.0208  0.5700 -0.1284
   94SOL    HW1  281   2.917   2.653   2.102  0.5392 -1.6262  1.5448
   94SOL    HW2  282   2.874   2.604   2.253  0.0231 -1.1675 -0.1477
   95SOL     OW  283   1.442   0.623   2.062  0.6143  0.1361  0.1316
   95SOL    HW1  284   1.491   0.595   2.147  0.2510 -0.8349  1.0501
   95SOL    HW2  285   1.389   0.708   2.079 -0.5189 -0.6216 -1.4224
   96SOL     OW  286   2.703   0.420   1.990 -0.0429 -0.6111  0.0067
   96SOL    HW1  287   2.668   0.414   1.894  1.1665 -1.0451  4.1964
   96SOL    HW2  288   2.789   0.476   1.998 -2.6003  0.4988  0.8818
   97SOL     OW  289   2.236   3.105   1.456  0.4328  0.3101 -0.0859
   97SOL    HW1  290   2.235   0.076   1.409 -0.0796  2.2687 -0.2112
   97SOL    HW2  291   2.300   3.106   1.532 -3.0874 -0.9400  1.0661
   98SOL     OW  292   2.194   2.924   1.263  0.1315 -0.2792  0.3205
   98SOL    HW1  293   2.213   2.998   1.334  0.1063  2.1527  1.4497
   98SOL    HW2  294   2.100   2.947   1.220 -1.1329  0.6873 -0.8008
   99SOL     OW  295   2.792   0.189   2.067  0.1275  0.8642  0.1082
   99SOL    HW1  296   2.847   0.166   1.984 -1.4461 -1.7405 -0.6048
   99SOL    HW2  297   2.746   0.281   2.056 -0.9900  2.3787  0.4206
  100SOL     OW  298   2.057   1.483   1.879 -0.1576  0.2655 -0.2877
  100SOL    HW1  299   1.978   1.544   1.871 -0.4742  0.1974 -2.1147
  100SOL    HW2  300   2.051   1.430   1.968 -0.4714 -0.1055 -2.2246
  101SOL     OW  301   1.715   0.074   0.782  0.1404  0.3602 -0.1134
  101SOL    HW1  302   1.726   0.090   0.883 -0.3809  1.9360  0.3407
  101SOL    HW2  303   1.678   0.158   0.733  0.4684 -0.4898 -1.6989
  102SOL     OW  304   0.378   0.818   1.414  0.3718  0.0206  0.2073
  102SOL    HW1  305   0.444   0.768   1.351  1.5234 -1.6842 -0.2985
  102SOL    HW2  306   0.411   0.825   1.514  0.4428 -1.3439  2.2173
  103SOL     OW  307   2.728   0.466   2.967  0.4039  0.6055 -0.2811
  103SOL    HW1  308   2.761   0.386   2.908 -1.7507  1.7493  1.8647
  103SOL    HW2  309   2.661   0.429   3.034  3.7757 -0.7122  1.5634
  104SOL     OW  310   2.730   3.006   1.884 -0.3183  0.2182 -0.1970
  104SOL    HW1  311   2.794   3.068   1.837  0.0633 -1.2522  0.0570
  104SOL    HW2  312   2.656   3.055   1.935 -2.2048 -2.6580 -0.7776
  105SOL     OW  313   1.684   0.929   2.148  0.1566 -0.3320 -0.5090
  105SOL    HW1  314   1.705   0.835   2.167 -1.9027  4.0865  1.1375
  105SOL    HW2  315   1.768   0.982   2.117 -1.2775 -0.8522  1.8921
  106SOL     OW  316   1.634   0.383   0.953  0.6990  0.1685 -0.2426
  106SOL    HW1  317   1.728   0.354   0.943 -0.4929  0.1220  0.5274
  106SOL    HW2  318   1.606   0.345   1.041  0.2298 -0.2978 -4.9352
  107SOL     OW  319   0.748   1.116   0.896 -0.3712  0.3471 -0.1780
  107SOL    HW1  320   0.657   1.154   0.936 -1.6504  0.4729  1.1124
  107SOL    HW2  321   0.831   1.171   0.926 -0.2415  1.3346 -1.0240
  108SOL     OW  322   3.039   0.526   2.453 -0.2634  0.1553  0.0009
  108SOL    HW1  323   3.053   0.428   2.473 -0.9067 -0.9842 -0.7218
  108SOL    HW2  324   2.978   0.545   2.374  0.8092  0.1671  1.5235
  109SOL     OW  325   2.149   0.129   0.123  0.4456 -0.1299  0.1840
  109SOL    HW1  326   2.106   0.063   0.060 -0.6525  0.1780  0.6422
  109SOL    HW2  327   2.089   0.213   0.116 -1.6907  0.2932 -0.1724
  110SOL     OW  328   3.117   2.047   2.835 -0.2162 -0.7480 -0.0652
  110SOL    HW1  329   3.057   2.111   2.891 -0.8955  2.8332  2.4530
  110SOL    HW2  330   3.108   1.954   2.874 -0.6485  0.5712  0.6800
  111SOL     OW  331   2.116   0.114   2.355  0.5436  0.4720 -0.7643
  111SOL    HW1  332   2.110   0.011   2.346 -0.0518 -1.0121  0.9978
  111SOL    HW2  333   2.175   0.137   2.434  2.1350  0.9306  0.3493
  112SOL     OW  334   2.420   3.085   1.103 -0.2879 -0.1132 -0.6146
  112SOL    HW1  335   2.480   3.029   1.043  1.9677 -0.8913 -0.8636
  112SOL    HW2  336   2.355   3.023   1.149  1.0590 -0.3875  0.1810
  113SOL     OW  337   2.382   2.568   1.801  0.2069 -0.7491  0.0261
  113SOL    HW1  338   2.422   2.590   1.706  4.4801 -1.5397 -0.8486
  113SOL    HW2  339   2.276   2.582   1.797 -2.1634  1.4802  1.6781
  114SOL     OW  340   2.932   0.085   0.871  0.2234 -0.3638 -0.0745
  114SOL    HW1  341   2.941   0.176   0.820  4.2774  2.0845 -1.4673
  114SOL    HW2  342   2.870   0.021   0.823  1.8614  1.0903  0.7869
  115SOL     OW  343   2.872   1.726   0.001  0.0892  0.0252 -0.0998
  115SOL    HW1  344   2.957   1.723   0.049 -4.6763 -0.4817  0.2521
  115SOL    HW2  345   2.791   1.719   0.061  0.1584  0.9833 -0.3327
  116SOL     OW  346   0.032   1.539   1.909 -0.1056 -0.2382  0.1036
  116SOL    HW1  347   0.011   1.597   1.990  0.2472 -0.5923  0.7068
  116SOL    HW2  348   0.031   1.600   1.825  0.0356  0.1897 -1.3920
  117SOL     OW  349   2.561   2.956   0.924  0.8381  0.2089  0.1877
  117SOL    HW1  350   2.640   2.902   0.964  0.0287 -0.8526  1.5742
  117SOL    HW2  351   2.491   2.891   0.886 -3.3776  0.2485 -1.2072
  118SOL     OW  352   0.327   2.322   1.737  0.3159 -0.9001  0.2226
  118SOL    HW1  353   0.258   2.292   1.666  0.3184  0.6850 -2.1333
  118SOL    HW2  354   0.422   2.323   1.695 -1.2486  0.3750 -0.8653
  119SOL     OW  355   1.453   2.232   1.067 -0.1459 -0.2339 -0.2485
  119SOL    HW1  356   1.430   2.246   0.968  1.9252  1.8485 -0.6616
  119SOL    HW2  357   1.553   2.198   1.074  0.1074 -3.2772 -0.3131
  120SOL     OW  358   0.567   2.010   1.944 -0.6500  0.2640  0.3625
  120SOL    HW1  359   0.555   1.956   2.029  0.3003  2.5677 -0.7816
  120SOL    HW2  360   0.521   2.101   1.952  0.3151  1.7211 -1.5616
  121SOL     OW  361   2.381   1.522   1.100 -0.3850  0.4929  0.3352
  121SOL    HW1  362   2.441   1.555   1.176  0.9413 -0.9403  1.3328
  121SOL    HW2  363   2.283   1.544   1.123 -0.5523 -0.0956  1.2344
  122SOL     OW  364   1.931   1.699   2.406  0.3662  0.1256  0.1856
  122SOL    HW1  365   1.946   1.694   2.309 -1.4523  1.2715  3.0204
  122SOL    HW2  366   2.014   1.734   2.452  0.6117 -0.4411 -0.9502
  123SOL     OW  367   2.780   3.020   0.732 -0.2294  0.3328  0.1718
  123SOL    HW1  368   2.857   2.959   0.707  0.5831  1.1765  0.4987
  123SOL    HW2  369   2.727   2.980   0.811  0.4536  1.3294  0.3684
  124SOL     OW  370   1.480   1.162   2.807  0.0037 -0.0712 -0.0364
  124SOL    HW1  371   1.415   1.145   2.886 -0.6408 -0.6095 -1.8674
  124SOL    HW2  372   1.551   1.229   2.834  0.1844  0.0730  2.0087
  125SOL     OW  373   0.294   1.644   2.725 -0.5994  0.0611  0.0317
  125SOL    HW1  374   0.221   1.669   2.658 -0.6955 -1.4633  0.9961
  125SOL    HW2  375   0.319   1.545   2.712 -0.7360 -1.8259  1.7376
  126SOL     OW  376   2.897   2.020   0.376 -0.4136  0.0102  0.4567
  126SOL    HW1  377   2.952   2.107   0.365  0.3393  0.2563  1.2258
  126SOL    HW2  378   2.864   1.983   0.290  2.3865  3.7311  0.6799
  127SOL     OW  379   0.357   1.764   0.903 -0.0753  0.1447 -0.2792
  127SOL    HW1  380   0.345   1.700   0.828 -1.5457 -0.1529  2.4902
  127SOL    HW2  381   0.291   1.843   0.893  1.8265 -1.3870 -0.1440
  128SOL     OW  382   1.664   0.871   0.028  0.6972 -0.1218 -0.1526
  128SOL    HW1  383   1.654   0.772   0.054 -1.0637 -1.0775 -0.5136
  128SOL    HW2  384   1.710   0.880   3.057 -0.9991  1.7049  0.1475
  129SOL     OW  385   2.202   1.856   1.319 -0.5151 -0.3219  0.4046
  129SOL    HW1  386   2.208   1.958   1.316  1.3121 -2.5173  0.7917
  129SOL    HW2  387   2.165   1.816   1.407  0.1624 -0.4974  1.8151
  130SOL     OW  388   2.092   1.317   0.301 -0.3458  0.0213  0.1245
  130SOL    HW1  389   2.131   1.239   0.354  1.6402  1.4885  1.7891
  130SOL    HW2  390   2.151   1.401   0.313 -0.1163 -0.6114 -1.1577
  131SOL     OW  391   2.846   1.345   2.666  0.0423  0.0984  0.0061
  131SOL    HW1  392   2.837   1.272   2.743 -1.6127 -1.6566  2.7322
  131SOL    HW2  393   2.826   1.440   2.701  0.8354  2.0540  0.7438
  132SOL     OW  394   1.851   1.667   1.866  0.0492  0.0017  0.5799
  132SOL    HW1  395   1.881   1.744   1.809  1.7108 -0.4292 -0.6985
  132SOL    HW2  396   1.753   1.642   1.858  1.2200  0.3583 -3.1904
  133SOL     OW  397   0.287   0.967   3.114  0.0589  0.0271 -0.3013
  133SOL    HW1  398   0.270   0.868   0.025  0.6943 -2.0437  2.5062
  133SOL    HW2  399   0.369   1.004   0.044  0.5103 -1.0776  1.3748
  134SOL     OW  400   2.769   1.268   0.488 -0.3748 -0.0404  0.4771
  134SOL    HW1  401   2.752   1.236   0.394 -0.2319  0.6209 -2.1487
  134SOL    HW2  402   2.815   1.357   0.488 -0.2620 -2.6177 -0.3763
  135SOL     OW  403   2.762   0.940   0.499 -1.2121 -0.3874  0.1713
  135SOL    HW1  404   2.799   0.988   0.578 -1.3009  0.3901 -2.8240
  135SOL    HW2  405   2.666   0.931   0.503  4.1976  1.6229 -0.4037
  136SOL     OW  406   1.890   1.700   1.349  0.3848 -0.1630  0.0194
  136SOL    HW1  407   1.975   1.697   1.405 -0.4604  1.4903 -1.1278
  136SOL    HW2  408   1.844   1.609   1.333 -0.2153 -0.3109  0.1027
  137SOL     OW  409   2.363   2.423   0.765  0.3970  0.6093  0.6533
  137SOL    HW1  410   2.454   2.376   0.767  1.0002 -0.0569 -1.1413
  137SOL    HW2  411   2.363   2.503   0.698 -0.1519  3.2536 -0.0973
  138SOL     OW  412   1.857   0.232   1.900 -0.6010 -0.5141  0.0027
  138SOL    HW1  413   1.757   0.231   1.888  2.4750 -1.2797  1.0265
  138SOL    HW2  414   1.884   0.298   1.971  1.7961 -2.9293 -1.5269
  139SOL     OW  415   2.698   0.199   0.075 -0.5934  0.1287 -0.6256
  139SOL    HW1  416   2.670   0.145   0.158 -1.6944 -1.4896  0.3280
  139SOL    HW2  417   2.782   0.159   0.035 -1.8963  4.1459 -1.1140
  140SOL     OW  418   1.274   1.865   2.577 -0.6417 -0.2042  0.1065
  140SOL    HW1  419   1.363   1.818   2.586  0.4205  0.8237  0.8723
  140SOL    HW2  420   1.202   1.793   2.594 -1.4640 -1.3846 -0.2872
  141SOL     OW  421   0.833   1.004   2.020 -0.4349  0.3425  0.5223
  141SOL    HW1  422   0.839   0.939   2.095 -1.5035 -0.0538 -0.9333
  141SOL    HW2  423   0.908   1.066   2.005 -0.8839 -0.5258  0.1469
  142SOL     OW  424   2.046   2.511   3.093 -0.0122 -0.5199 -0.3433
  142SOL    HW1  425   2.123   2.555   3.045 -3.0730  1.6948  2.5754
  142SOL    HW2  426   2.074   2.450   0.049  0.4773  1.4908 -2.5955
  143SOL     OW  427   1.088   2.240   3.112  0.3693 -0.0354 -0.9156
  143SOL    HW1  428   1.176   2.258   3.067 -2.5458 -0.5929  1.2441
  143SOL    HW2  429   1.062   2.144   3.109  0.8659 -1.6660  0.3658
  144SOL     OW  430   1.235   2.566   0.147 -0.1344 -0.0242  0.0083
  144SOL    HW1  431   1.265   2.574   0.051  1.2472  1.9933 -1.1004
  144SOL    HW2  432   1.310   2.568   0.218 -0.5138 -0.2531 -1.5768
  145SOL     OW  433   2.152   1.784   2.540  0.5070  0.0231 -0.0256
  145SOL    HW1  434   2.243   1.808   2.504  0.6295 -1.0541 -0.3594
  145SOL    HW2  435   2.128   1.836   2.625 -0.8362  1.6293  1.4892
  146SOL     OW  436   2.453   2.567   2.841  0.0295  0.4712 -0.1179
  146SOL    HW1  437   2.509   2.645   2.813  0.8915  1.5293 -0.7407
  146SOL    HW2  438   2.493   2.515   2.920  1.5801 -0.2997 -1.5030
  147SOL     OW  439   2.813   1.582   1.285 -0.4175 -0.0866  0.2023
  147SOL    HW1  440   2.823   1.587   1.183  1.3108 -0.9112 -2.3578
  147SOL    HW2  441   2.721   1.538   1.314 -0.1608  0.1774  0.0172
  148SOL     OW  442   2.067   3.023   3.061 -0.1703 -0.2046 -0.9812
  148SOL    HW1  443   2.159   3.044   3.018 -0.3642  0.9541  1.8318
  148SOL    HW2  444   2.001   3.004   2.984  2.0962 -0.9767  0.8416
  149SOL     OW  445   0.690   1.602   2.704  0.4461  0.5862 -0.1637
  149SOL    HW1  446   0.766   1.604   2.766 -2.4692  0.9073  0.0928
  149SOL    HW2  447   0.615   1.672   2.728 -1.5726  1.7245 -2.5283
  150SOL     OW  448   0.390   2.427   0.165  0.1509  0.2115 -0.3792
  150SOL    HW1  449   0.460   2.481   0.121  0.5918 -1.7487  3.9563
  150SOL    HW2  450   0.425   2.333   0.169 -2.9583 -0.0658  0.6461
  151SOL     OW  451   0.484   1.485   0.269 -0.1618 -0.0302 -0.1225
  151SOL    HW1  452   0.400   1.430   0.285 -0.4330  4.3060  0.0234
  151SOL    HW2  453   0.484   1.507   0.169 -0.7115  0.1488  1.2187
  152SOL     OW  454   2.781   1.675   0.670 -0.1081  0.1456 -0.2522
  152SOL    HW1  455   2.733   1.617   0.738  0.7993  1.7821 -0.7643
  152SOL    HW2  456   2.877   1.688   0.702 -0.9247 -0.5967 -2.7671
  153SOL     OW  457   2.116   2.384   0.388 -0.0647  0.4172  0.2830
  153SOL    HW1  458   2.140   2.330   0.303  2.8691 -2.5847  1.0737
  153SOL    HW2  459   2.114   2.485   0.370  1.8405 -2.8494 -1.4093
  154SOL     OW  460   0.854   2.887   0.565 -0.7587 -0.9456  0.0344
  154SOL    HW1  461   0.881   2.928   0.653 -0.9799 -2.1795 -1.6801
  154SOL    HW2  462   0.767   2.928   0.542  0.3152  0.1547  0.6569
  155SOL     OW  463   0.205   2.006   0.896 -0.7562  0.2107  0.4928
  155SOL    HW1  464   0.173   1.998   0.990  0.3909  1.1428 -2.0612
  155SOL    HW2  465   0.131   2.052   0.844  2.1762  1.1167  1.3151
  156SOL     OW  466   2.337   2.523   0.123 -0.3464  0.2444  0.4456
  156SOL    HW1  467   2.425   2.571   0.091  0.3016  0.2405  1.9452
  156SOL    HW2  468   2.362   2.476   0.213  0.7391 -0.0505  1.0811
  157SOL     OW  469   0.843   1.597   1.524  0.0632  0.4922  0.1870
  157SOL    HW1  470   0.837   1.695   1.553  1.1206  1.1663 -0.6687
  157SOL    HW2  471   0.775   1.578   1.447  0.0425  1.0911 -2.1967
  158SOL     OW  472   1.761   0.597   0.052 -0.0399  0.4358  0.0358
  158SOL    HW1  473   1.687   0.542   0.004 -0.0083  3.0267  2.0078
  158SOL    HW2  474   1.736   0.610   0.153 -4.5972 -1.3465  0.3455
  159SOL     OW  475   1.288   0.866   0.015  0.0060  0.1880 -0.0086
  159SOL    HW1  476   1.335   0.813   0.090 -1.1064 -0.5449 -0.8131
  159SOL    HW2  477   1.321   0.960   0.002 -0.4564  0.8300  0.3802
  160SOL     OW  478   1.061   1.366   0.650  0.0409 -0.0866 -0.1887
  160SOL    HW1  479   1.134   1.436   0.649 -0.7162  0.7512  1.1839
  160SOL    HW2  480   1.039   1.339   0.744  0.9507  1.4374  1.7865
  161SOL     OW  481   0.060   2.333   2.788  0.9279  0.0043 -0.3844
  161SOL    HW1  482   3.093   2.325   2.727 -0.1013 -1.1992  0.9576
  161SOL    HW2  483   0.123   2.260   2.778  0.0148  1.9036  0.0709
  162SOL     OW  484   0.322   2.330   0.877  0.1366 -0.1741  0.2029
  162SOL    HW1  485   0.395   2.305   0.808 -2.5334  1.5728 -0.4126
  162SOL    HW2  486   0.338   2.281   0.971 -2.4674 -1.1974  1.3896
  163SOL     OW  487   0.031   0.632   2.903  0.2077  0.4616  0.1152
  163SOL    HW1  488   0.127   0.634   2.910 -0.4823  0.6704 -1.6247
  163SOL    HW2  489   3.103   0.667   2.985  0.0498  0.3611 -1.4971
  164SOL     OW  490   0.552   0.103   2.812  0.5103 -0.4694  0.2458
  164SOL    HW1  491   0.608   0.075   2.894 -2.2038  0.7983 -1.8089
  164SOL    HW2  492   0.599   0.104   2.726  0.4258  2.2639  0.4679
  165SOL     OW  493   2.339   0.390   1.832 -0.0307 -0.4504  0.3034
  165SOL    HW1  494   2.422   0.428   1.876  1.4845  0.2894  0.0098
  165SOL    HW2  495   2.268   0.463   1.828  0.2897 -0.9248  0.9720
  166SOL     OW  496   2.131   2.909   1.636 -0.2882  0.0760 -0.5695
  166SOL    HW1  497   2.184   2.918   1.725  1.3792 -0.0292  0.7276
  166SOL    HW2  498   2.173   2.969   1.565  0.4286  0.7852  0.9070
  167SOL     OW  499   1.054   0.570   2.199 -0.1329 -0.1718  0.5928
  167SOL    HW1  500   1.022   0.475   2.207  1.9103  2.6455  1.1026
  167SOL    HW2  501   1.110   0.587   2.285 -0.0548 -1.6142  0.3068
  168SOL     OW  502   2.550   0.052   2.043 -0.2039  0.2252  0.6819
  168SOL    HW1  503   2.619   0.126   2.060  0.2348 -1.3972 -0.4361
  168SOL    HW2  504   2.558   3.099   2.117  0.6233 -1.3609 -0.3163
  169SOL     OW  505   0.076   1.170   0.258  0.5311  0.1930 -0.2936
  169SOL    HW1  506   0.066   1.248   0.322 -0.2866 -1.2025 -1.2122
  169SOL    HW2  507   3.114   1.148   0.207  4.2388  2.3364 -2.0729
  170SOL     OW  508   0.102   1.723   1.703 -0.1862 -0.2328 -0.1801
  170SOL    HW1  509   0.085   1.666   1.616 -1.0822 -0.4524 -0.2611
  170SOL    HW2  510   0.202   1.716   1.732  0.3170 -0.3432  2.9134
  171SOL     OW  511   0.997   2.353   2.324 -0.1959  0.7874 -0.6917
  171SOL    HW1  512   0.962   2.325   2.419 -1.5145 -0.5187  1.6947
  171SOL    HW2  513   1.097   2.337   2.320  0.5939 -1.4017  2.2602
  172SOL     OW  514   0.593   2.756   2.063 -0.0607 -0.5492 -0.0604
  172SOL    HW1  515   0.592   2.743   2.163 -0.0619 -4.2148 -1.7992
  172SOL    HW2  516   0.523   2.696   2.013 -1.8406  1.1168 -3.7658
  173SOL     OW  517   1.516   2.553   0.886 -0.6292 -0.3848  0.7717
  173SOL    HW1  518   1.483   2.647   0.874 -0.8313 -0.9738  2.0167
  173SOL    HW2  519   1.567   2.544   0.974  1.3082  2.1275  0.1743
  174SOL     OW  520   1.517   0.424   0.490 -0.5516  0.9255  0.0412
  174SOL    HW1  521   1.541   0.471   0.574  1.3071  1.2631 -1.6470
  174SOL    HW2  522   1.593   0.364   0.462 -2.0510  0.1507 -0.7467
  175SOL     OW  523   1.415   1.295   0.392 -0.0368  0.2263  0.2768
  175SOL    HW1  524   1.489   1.363   0.379 -1.9780 -0.3920 -1.5242
  175SOL    HW2  525   1.342   1.343   0.444  0.8649  1.2740 -2.8304
  176SOL     OW  526   1.561   1.213   0.621  0.1173 -0.2484 -0.0081
  176SOL    HW1  527   1.501   1.226   0.539  1.5253 -1.0303 -0.1355
  176SOL    HW2  528   1.616   1.129   0.603 -1.5177 -0.9641 -1.4286
  177SOL     OW  529   1.305   0.686   1.333 -0.6439  0.2331  0.2139
  177SOL    HW1  530   1.226   0.675   1.396  1.0820  0.2454  0.0221
  177SOL    HW2  531   1.318   0.782   1.303  0.5736 -1.8617  1.1743
  178SOL     OW  532   2.648   1.652   0.167  0.0066 -0.4614 -0.8198
  178SOL    HW1  533   2.653   1.625   0.266  1.9538 -2.1223  1.2052
  178SOL    HW2  534   2.678   1.575   0.104  1.2243  0.9155  0.0091
  179SOL     OW  535   0.592   2.592   0.072  0.3608 -0.0179 -0.6066
  179SOL    HW1  536   0.538   2.674   0.103 -1.7093 -0.7242 -2.0921
  179SOL    HW2  537   0.687   2.587   0.114  2.4678 -0.9098  0.2945
  180SOL     OW  538   1.747   1.404   1.677 -0.3818 -0.2705  0.0947
  180SOL    HW1  539   1.737   1.493   1.726 -0.4517  0.4017  0.2839
  180SOL    HW2  540   1.656   1.365   1.671  2.1684 -1.4021  0.2821
  181SOL     OW  541   1.005   1.245   2.225 -0.3218  0.3450  0.7689
  181SOL    HW1  542   1.029   1.204   2.135  1.0154  0.2974 -1.7445
  181SOL    HW2  543   1.081   1.221   2.288  1.3794  0.6090 -1.2406
  182SOL     OW  544   3.074   1.244   2.532 -0.1524 -0.4302  0.0384
  182SOL    HW1  545   0.004   1.327   2.495 -1.6814 -1.8217  0.9628
  182SOL    HW2  546   2.986   1.275   2.575  0.3892 -1.0265  1.3133
  183SOL     OW  547   1.784   0.686   2.199  0.2582  0.6222 -0.6408
  183SOL    HW1  548   1.839   0.693   2.117 -2.3486 -0.0863  3.7410
  183SOL    HW2  549   1.821   0.617   2.269 -0.9938 -3.6510  0.9121
  184SOL     OW  550   0.251   0.453   1.554  0.1591  0.8700 -0.2751
  184SOL    HW1  551   0.348   0.473   1.560  0.9591 -0.1426 -2.7382
  184SOL    HW2  552   0.191   0.525   1.515 -1.8489  0.3604  0.9227
  185SOL     OW  553   2.429   1.761   0.518 -0.3180  0.2307  0.6047
  185SOL    HW1  554   2.447   1.859   0.498  0.9759 -2.2611 -2.6640
  185SOL    HW2  555   2.477   1.706   0.446  2.8111 -1.5141  1.8568
  186SOL     OW  556   0.646   1.813   3.012  0.1561  0.3113 -0.4548
  186SOL    HW1  557   0.584   1.819   2.934  0.2731 -1.6646  0.9976
  186SOL    HW2  558   0.723   1.886   3.006 -1.5433  1.1683  3.5502
  187SOL     OW  559   2.311   1.767   2.828 -0.0463 -0.1269  0.1774
  187SOL    HW1  560   2.310   1.672   2.864  1.7614 -1.0635  1.5944
  187SOL    HW2  561   2.396   1.814   2.847 -1.9944 -1.8117  0.1859
  188SOL     OW  562   0.842   2.424   0.642 -0.1260  0.2099 -0.1255
  188SOL    HW1  563   0.791   2.392   0.725 -1.2300  1.0370  0.5136
  188SOL    HW2  564   0.790   2.492   0.585  0.4588 -1.7482 -0.2178
  189SOL     OW  565   2.310   0.877   2.585 -0.2945  0.2926 -0.1587
  189SOL    HW1  566   2.262   0.803   2.636  1.0692 -0.2175  2.7840
  189SOL    HW2  567   2.249   0.948   2.558  1.6428 -2.2830  1.1873
  190SOL     OW  568   0.959   2.079   2.433  0.0806  0.5259  0.0372
  190SOL    HW1  569   1.052   2.041   2.422  0.4634 -1.3539  0.9099
  190SOL    HW2  570   0.928   2.090   2.529  0.3546  0.7787  2.3628
  191SOL     OW  571   2.526   0.810   1.541 -0.1935  0.6795 -0.5410
  191SOL    HW1  572   2.599   0.881   1.536  0.0448 -0.9677  0.8302
  191SOL    HW2  573   2.471   0.806   1.455  1.5464 -0.0064  0.0729
  192SOL     OW  574   2.266   0.403   2.205  0.0473 -0.2869 -0.5911
  192SOL    HW1  575   2.347   0.449   2.165 -0.1901  0.3856  2.3437
  192SOL    HW2  576   2.283   0.305   2.225 -1.6951 -1.7965  0.3615
  193SOL     OW  577   0.298   0.229   0.724 -1.0947 -0.1793  0.1892
  193SOL    HW1  578   0.223   0.201   0.664  2.6206  2.4975  1.9464
  193SOL    HW2  579   0.260   0.305   0.783 -1.2282  1.7183  2.6947
  194SOL     OW  580   1.192   2.413   1.669  0.1588 -0.2107  0.3746
  194SOL    HW1  581   1.198   2.507   1.630  1.0548  1.3750  0.0751
  194SOL    HW2  582   1.229   2.341   1.610  0.3247 -1.4171 -0.8940
  195SOL     OW  583   2.648   0.641   0.845  0.4890  0.2020  0.6425
  195SOL    HW1  584   2.578   0.584   0.806  0.2774 -0.0769  0.4539
  195SOL    HW2  585   2.613   0.735   0.863  1.4339  1.7112  0.6151
  196SOL     OW  586   1.223   1.848   1.688 -0.1222 -0.0711  0.2067
  196SOL    HW1  587   1.137   1.904   1.691 -0.2988  0.5693  0.9640
  196SOL    HW2  588   1.220   1.790   1.603  1.2046  2.2462 -0.1238
  197SOL     OW  589   0.577   0.324   2.353 -0.5096  0.0195 -0.4525
  197SOL    HW1  590   0.556   0.223   2.344 -0.1785 -1.1168 -0.8460
  197SOL    HW2  591   0.497   0.381   2.394  0.1930  3.1508 -2.2077
  198SOL     OW  592   1.376   1.171   0.837 -0.0552  0.4031 -0.2151
  198SOL    HW1  593   1.453   1.202   0.782 -0.5014 -1.8964  0.9494
  198SOL    HW2  594   1.341   1.239   0.903 -1.3367 -0.7749  1.0574
  199SOL     OW  595   2.491   0.518   2.115  0.9026  0.3635  0.3994
  199SOL    HW1  596   2.503   0.610   2.145 -1.7782 -2.5526 -0.9206
  199SOL    HW2  597   2.574   0.494   2.059 -0.8375  0.8590 -0.4034
  200SOL     OW  598   2.295   2.529   2.240 -0.5278 -0.6218  0.0607
  200SOL    HW1  599   2.376   2.565   2.294  0.1353  2.8536  2.3378
  200SOL    HW2  600   2.307   2.446   2.183  1.3297  1.1483  0.1351
  201SOL     OW  601   1.997   0.402   1.711 -0.7672  0.4820 -0.1691
  201SOL    HW1  602   2.054   0.469   1.764 -0.6881  3.5906  0.4943
  201SOL    HW2  603   1.988   0.313   1.764 -1.0883 -1.9726 -0.1199
  202SOL     OW  604   2.425   2.958   0.183  0.1618  0.4457 -0.0260
  202SOL    HW1  605   2.394   3.043   0.224  1.4087 -4.1283  1.6668
  202SOL    HW2  606   2.350   2.910   0.128  0.3122  1.2602  1.8391
  203SOL     OW  607   0.740   2.078   2.268 -0.3075 -0.3638 -0.1932
  203SOL    HW1  608   0.824   2.060   2.325 -0.3362 -0.2120  0.7267
  203SOL    HW2  609   0.762   2.163   2.217  1.4143 -0.4190 -0.2069
  204SOL     OW  610   1.081   1.334   2.652 -0.1667 -1.1913  0.1263
  204SOL    HW1  611   1.024   1.394   2.594  0.8738  2.2415 -0.9847
  204SOL    HW2  612   1.028   1.298   2.731  1.9124  0.5271 -0.3767
  205SOL     OW  613   0.997   0.869   1.327  0.1509 -0.5091 -0.4175
  205SOL    HW1  614   1.041   0.797   1.382 -0.4157  0.6948  1.6679
  205SOL    HW2  615   1.061   0.917   1.263  1.0891  2.7991 -1.1820
  206SOL     OW  616   0.635   0.501   2.798  0.1991  0.2148  0.2238
  206SOL    HW1  617   0.645   0.509   2.698 -0.8814 -1.1539  4.2848
  206SOL    HW2  618   0.705   0.437   2.843  2.4953 -0.4079 -0.0699
  207SOL     OW  619   1.713   2.557   1.891  0.0650 -0.4526 -0.2005
  207SOL    HW1  620   1.706   2.612   1.977 -0.3455  0.5461 -1.3206
  207SOL    HW2  621   1.742   2.625   1.821 -1.9368  0.0579  1.2722
  208SOL     OW  622   0.814   2.516   1.088 -0.2168 -0.0238  0.2472
  208SOL    HW1  623   0.834   2.614   1.054 -0.5462  3.0817 -2.5857
  208SOL    HW2  624   0.783   2.462   1.009 -0.5909  0.1898 -0.8575
  209SOL     OW  625   1.458   1.579   2.847 -0.6924 -0.4965  0.0738
  209SOL    HW1  626   1.506   1.656   2.900  1.2737  0.1502  0.7612
  209SOL    HW2  627   1.513   1.494   2.862  2.8512 -1.0424 -0.3651
  210SOL     OW  628   2.154   0.777   0.981  0.0927 -0.0018 -0.4045
  210SOL    HW1  629   2.227   0.800   1.042 -4.1833 -3.3728 -0.6016
  210SOL    HW2  630   2.153   0.825   0.891  0.5447 -0.3636  0.7430
  211SOL     OW  631   1.036   2.528   0.319 -0.1476 -0.0028 -0.0419
  211SOL    HW1  632   1.104   2.549   0.243 -0.3458  1.7032 -4.2037
  211SOL    HW2  633   1.006   2.431   0.308 -1.3167  1.5240 -1.1397
  212SOL     OW  634   2.252   2.013   0.065 -0.8647  0.2614  0.0125
  212SOL    HW1  635   2.212   2.037   3.093  2.5005  0.0637 -0.5107
  212SOL    HW2  636   2.321   1.941   0.051 -0.2762  1.4067 -3.2834
  213SOL     OW  637   1.905   0.373   2.932 -0.4426  0.1049 -0.2787
  213SOL    HW1  638   1.955   0.313   2.862 -0.8082 -1.2517 -0.0798
  213SOL    HW2  639   1.804   0.378   2.905  0.3585  0.1933 -3.2804
  214SOL     OW  640   1.122   1.637   1.857 -0.1444  0.4553 -0.2436
  214SOL    HW1  641   1.020   1.632   1.870 -0.5951  2.3929 -1.3873
  214SOL    HW2  642   1.150   1.683   1.770 -2.8068  0.9029 -1.2299
  215SOL     OW  643   0.603   1.654   0.468  0.2607  0.6868  0.3778
  215SOL    HW1  644   0.575   1.582   0.399 -0.2514 -0.8983 -1.3405
  215SOL    HW2  645   0.519   1.698   0.505  0.3798  0.3968  0.8229
  216SOL     OW  646   0.201   3.101   2.601  0.2190  0.3028 -0.1488
  216SOL    HW1  647   0.277   3.030   2.605 -0.5601 -1.2157  0.8668
  216SOL    HW2  648   0.162   3.100   2.508 -0.8601 -0.1992 -1.9643
  217SOL     OW  649   2.389   0.732   1.126 -0.4418  0.6378 -0.2612
  217SOL    HW1  650   2.358   0.663   1.059  0.1175 -2.5152 -0.4124
  217SOL    HW2  651   2.474   0.696   1.177 -1.4481 -0.3465  1.8785
  218SOL     OW  652   1.471   1.750   2.036  0.3597 -0.0377 -0.4512
  218SOL    HW1  653   1.511   1.702   2.118  1.8002  1.6019 -0.1183
  218SOL    HW2  654   1.378   1.782   2.047  2.3540  2.8847 -0.5115
  219SOL     OW  655   2.202   1.608   3.104 -0.1565  0.1032 -0.4393
  219SOL    HW1  656   2.223   1.516   3.057 -1.4335 -0.2338  3.9826
  219SOL    HW2  657   2.114   1.644   3.077 -0.6848  0.5671  0.3897
  220SOL     OW  658   2.177   1.158   0.656  0.2149 -0.2507 -0.0270
  220SOL    HW1  659   2.171   1.137   0.555  2.0930  0.9261 -0.6965
  220SOL    HW2  660   2.222   1.247   0.665  0.0494  0.2312  0.2249
  221SOL     OW  661   0.296   0.677   2.945 -0.1038 -0.5649 -0.0661
  221SOL    HW1  662   0.283   0.704   3.044 -0.8387  0.9466  1.1326
  221SOL    HW2  663   0.351   0.597   2.937 -0.2397  1.9609  0.6060
  222SOL     OW  664   1.540   1.539   0.445 -0.5897  0.0852 -0.2140
  222SOL    HW1  665   1.637   1.538   0.474 -0.5067 -0.3294 -1.1019
  222SOL    HW2  666   1.528   1.617   0.377  0.6702 -0.1102  1.5211
  223SOL     OW  667   1.365   0.172   0.031 -0.1975 -0.4358  0.7005
  223SOL    HW1  668   1.381   0.222   3.062  0.9744 -0.2344  1.4086
  223SOL    HW2  669   1.363   0.247   0.106 -1.1753  2.0281  0.5416
  224SOL     OW  670   1.924   0.047   1.352  0.0655 -0.3042 -0.0951
  224SOL    HW1  671   1.887   0.020   1.444 -0.3281 -2.6134 -0.9671
  224SOL    HW2  672   1.923   3.089   1.280  0.8822  0.6518  3.7126
  225SOL     OW  673   0.683   2.254   1.186  0.1983  0.1526  0.0666
  225SOL    HW1  674   0.701   2.255   1.285 -1.2155 -2.9296  1.5052
  225SOL    HW2  675   0.698   2.344   1.144 -1.7122  0.7477  0.9843
  226SOL     OW  676   1.193   1.351   0.059  0.1155  0.4057 -0.1550
  226SOL    HW1  677   1.247   1.431   0.021  0.7029  2.4012 -0.8883
  226SOL    HW2  678   1.123   1.394   0.120  2.1106 -1.5605 -0.0655
  227SOL     OW  679   1.094   1.498   1.016 -0.0016 -0.0955 -0.5042
  227SOL    HW1  680   1.106   1.582   0.959 -1.7520  1.4213  0.0092
  227SOL    HW2  681   1.021   1.514   1.088  1.2804 -0.0536 -0.0282
  228SOL     OW  682   0.337   1.735   0.531  0.9204  0.0449  0.1600
  228SOL    HW1  683   0.312   1.670   0.603 -0.0995  1.8071  0.0855
  228SOL    HW2  684   0.261   1.756   0.472  0.4359 -1.8547  2.7971
  229SOL     OW  685   1.711   0.076   2.787 -0.0464  0.5062 -0.2625
  229SOL    HW1  686   1.700   0.072   2.687  0.6734 -0.2215 -1.1965
  229SOL    HW2  687   1.691   0.169   2.827 -1.4560 -0.0862 -0.4472
  230SOL     OW  688   1.510   0.944   2.667  0.3613 -0.5426  0.3600
  230SOL    HW1  689   1.507   0.976   2.565  0.5475 -0.9781 -1.2552
  230SOL    HW2  690   1.484   1.016   2.729  0.6949 -3.2134 -0.2734
  231SOL     OW  691   1.057   1.693   2.615  0.4230  0.2461 -0.5565
  231SOL    HW1  692   1.013   1.727   2.699  2.1714  1.3507 -1.2984
  231SOL    HW2  693   0.987   1.667   2.543 -0.7830 -0.7159 -0.0857
  232SOL     OW  694   2.397   2.383   0.374 -0.3822 -0.1213  0.1851
  232SOL    HW1  695   2.325   2.386   0.445  1.8686 -0.7003 -2.0114
  232SOL    HW2  696   2.405   2.285   0.342 -0.1073  0.5348 -0.1394
  233SOL     OW  697   2.603   2.532   0.430 -0.0364 -0.2704  0.0779
  233SOL    HW1  698   2.601   2.612   0.366  0.6483  1.3950 -1.5334
  233SOL    HW2  699   2.528   2.465   0.406  2.6816  0.1919 -2.7336
  234SOL     OW  700   0.751   0.771   2.811 -0.5789 -0.4443 -0.4502
  234SOL    HW1  701   0.732   0.673   2.828 -1.0090 -0.2900 -0.7589
  234SOL    HW2  702   0.845   0.802   2.831  1.3016 -0.2825 -2.1220
  235SOL     OW  703   2.820   0.266   2.786  0.6506 -0.1046 -0.0771
  235SOL    HW1  704   2.856   0.175   2.815  0.2271  2.1106 -0.7107
  235SOL    HW2  705   2.779   0.265   2.691 -2.4283 -0.5482  1.0739
  236SOL     OW  706   1.834   2.469   1.362  0.1674 -0.5124  0.1540
  236SOL    HW1  707   1.827   2.368   1.352 -0.8830  0.0805 -0.6358
  236SOL    HW2  708   1.908   2.498   1.429  1.2561  1.6377  0.2778
  237SOL     OW  709   0.859   1.674   1.920  0.4067  0.2298 -0.5936
  237SOL    HW1  710   0.836   1.771   1.945  1.5022  2.6804  1.2791
  237SOL    HW2  711   0.822   1.609   1.993 -0.7646  1.6038  0.9870
  238SOL     OW  712   1.605   0.521   2.674  0.0774 -0.1174  0.2166
  238SOL    HW1  713   1.555   0.605   2.714 -1.6917  1.4442  0.1251
  238SOL    HW2  714   1.666   0.551   2.595 -0.4797  2.0579 -0.6073
  239SOL     OW  715   0.420   2.217   1.965  0.1001  0.4644 -0.2859
  239SOL    HW1  716   0.443   2.279   2.047 -1.2767  1.6636  1.2314
  239SOL    HW2  717   0.395   2.261   1.883  0.9318 -0.1849  2.2834
  240SOL     OW  718   2.402   2.626   0.603  0.3928 -0.1569 -0.3499
  240SOL    HW1  719   2.381   2.699   0.536  2.0418 -0.3231  0.2729
  240SOL    HW2  720   2.479   2.569   0.566  0.2066 -0.7544  0.9293
  241SOL     OW  721   2.522   0.909   0.936  0.0768 -0.0362 -0.4618
  241SOL    HW1  722   2.443   0.887   0.996 -0.8755  1.4674  0.5095
  241SOL    HW2  723   2.500   0.983   0.864  1.9537 -1.3588 -0.6475
  242SOL     OW  724   2.129   2.587   2.008  0.6580 -0.8024 -0.1163
  242SOL    HW1  725   2.069   2.507   2.037 -0.1419  0.0062  0.4980
  242SOL    HW2  726   2.211   2.595   2.069  1.0799 -1.3896 -0.0465
  243SOL     OW  727   0.792   2.327   1.439  0.1290  0.3107  0.3514
  243SOL    HW1  728   0.857   2.313   1.518 -0.4039  0.8889  2.5938
  243SOL    HW2  729   0.796   2.421   1.412 -0.1436  0.1147  1.4287
  244SOL     OW  730   1.965   0.235   2.712  0.3993 -0.0264  0.2368
  244SOL    HW1  731   1.874   0.220   2.668  0.9940 -3.5888 -0.3115
  244SOL    HW2  732   2.015   0.150   2.726 -0.6403 -0.4158 -1.2373
  245SOL     OW  733   1.384   0.191   1.583  0.1125 -0.1863 -0.2763
  245SOL    HW1  734   1.328   0.196   1.502  1.4823 -1.3458  0.0546
  245SOL    HW2  735   1.326   0.215   1.666  0.8085 -0.7362 -0.5499
  246SOL     OW  736   1.914   2.735   0.071  0.3725 -0.4078  0.0630
  246SOL    HW1  737   1.971   2.661   0.028  0.5968 -1.0924 -0.9742
  246SOL    HW2  738   1.885   2.711   0.167  0.8221  0.7085  2.0887
  247SOL     OW  739   1.271   0.638   2.422  0.1143  0.5661  0.2201
  247SOL    HW1  740   1.237   0.594   2.511  3.2677  0.7286  1.2901
  247SOL    HW2  741   1.338   0.575   2.379  2.7893 -0.0593  2.2767
  248SOL     OW  742   0.769   1.866   1.619  0.0567 -0.0992 -0.5668
  248SOL    HW1  743   0.826   1.935   1.666  0.6801 -1.0379  0.8508
  248SOL    HW2  744   0.675   1.898   1.626 -1.2878  0.3498  0.0462
  249SOL     OW  745   2.136   0.319   0.475  0.0433 -0.0699  0.1895
  249SOL    HW1  746   2.187   0.388   0.419 -0.8511 -1.6582  2.4836
  249SOL    HW2  747   2.087   0.246   0.425  2.9240  1.3371 -2.0606
  250SOL     OW  748   0.004   0.311   0.034 -0.3253 -0.4201  0.3410
  250SOL    HW1  749   0.029   0.279   0.124  2.0156  0.7233 -3.6879
  250SOL    HW2  750   0.051   0.397   0.009  0.0825 -0.8339 -0.8513
  251SOL     OW  751   1.463   0.587   3.024 -0.0860  0.1717 -0.1074
  251SOL    HW1  752   1.383   0.619   3.077  0.5454 -0.7914 -1.3814
  251SOL    HW2  753   1.465   0.636   2.932 -1.0473  4.4402 -1.2184
  252SOL     OW  754   1.598   1.590   1.848 -0.2452 -0.3306 -0.1015
  252SOL    HW1  755   1.532   1.637   1.911 -2.1612 -0.1518  0.8922
  252SOL    HW2  756   1.555   1.505   1.812  0.9702  0.1935  0.0520
  253SOL     OW  757   2.499   2.279   1.177  0.5250 -0.4197  0.1788
  253SOL    HW1  758   2.542   2.346   1.240  0.5047 -0.0186 -0.8974
  253SOL    HW2  759   2.423   2.317   1.120  1.2919  1.0552 -1.4186
  254SOL     OW  760   2.741   1.251   1.109  0.2949 -0.1639 -0.2194
  254SOL    HW1  761   2.808   1.284   1.181  1.5460  0.7512 -0.3511
  254SOL    HW2  762   2.743   1.323   1.033 -0.8636  1.5050  1.3461
  255SOL     OW  763   1.185   0.287   1.062  0.2400 -0.2968  0.5132
  255SOL    HW1  764   1.082   0.276   1.040 -1.0106 -1.3403 -0.6666
  255SOL    HW2  765   1.207   0.382   1.080 -1.0655 -3.5019 -0.4247
  256SOL     OW  766   1.593   2.497   1.148 -0.0704 -0.3245 -0.2908
  256SOL    HW1  767   1.662   2.481   1.221  1.5069 -1.1643  0.5438
  256SOL    HW2  768   1.540   2.416   1.128 -0.0509  1.7064  2.6511
  257SOL     OW  769   0.683   0.062   2.594 -0.0003 -0.3095 -0.7030
  257SOL    HW1  770   0.750   3.106   2.580  0.5818 -0.3308 -3.1785
  257SOL    HW2  771   0.597   0.057   2.535 -0.8250 -0.6938  0.3565
  258SOL     OW  772   0.906   2.160   0.548  0.2187 -0.2764  0.2710
  258SOL    HW1  773   0.889   2.261   0.546 -0.9153 -1.7073  0.2468
  258SOL    HW2  774   0.863   2.121   0.633  0.8882 -0.0362  0.8213
  259SOL     OW  775   1.293   3.034   2.694  0.3208 -0.2262 -0.1649
  259SOL    HW1  776   1.199   3.053   2.730 -0.6635  4.1905  1.5451
  259SOL    HW2  777   1.292   2.947   2.642 -0.6013 -0.2683 -2.7059
  260SOL     OW  778   2.205   0.598   1.468 -0.5088 -0.0187 -0.2535
  260SOL    HW1  779   2.112   0.599   1.501  1.7360 -0.8461 -1.2783
  260SOL    HW2  780   2.266   0.528   1.504  0.8200  1.9693  1.4987
  261SOL     OW  781   0.714   0.494   2.508 -0.6888 -0.4387 -0.3415
  261SOL    HW1  782   0.667   0.433   2.444  0.5024  0.7042 -0.2774
  261SOL    HW2  783   0.762   0.569   2.459 -0.3877  2.4883 -0.3916
  262SOL     OW  784   0.405   2.352   2.353  0.3827 -0.0835 -0.3708
  262SOL    HW1  785   0.338   2.280   2.359  1.5919  3.1298 -0.7081
  262SOL    HW2  786   0.367   2.448   2.359  0.5195 -0.3526  0.4696
  263SOL     OW  787   0.137   1.748   2.517  0.5086  0.0854 -0.3681
  263SOL    HW1  788   0.110   1.838   2.548 -0.0101  0.8027 -1.3885
  263SOL    HW2  789   0.186   1.758   2.429 -2.2548 -2.6805  1.6437
  264SOL     OW  790   1.117   1.063   0.863 -0.2208  0.4457 -0.4332
  264SOL    HW1  791   1.073   0.980   0.830  0.2169  3.1983  0.1413
  264SOL    HW2  792   1.200   1.092   0.813  1.2255  1.0545  3.5186
  265SOL     OW  793   1.350   2.670   0.584  0.1019 -0.2442 -0.3671
  265SOL    HW1  794   1.263   2.631   0.615 -0.2693  2.3230 -0.5397
  265SOL    HW2  795   1.390   2.722   0.664 -1.1885  1.3285 -0.7333
  266SOL     OW  796   1.757   0.956   1.389  0.2172  0.2626 -0.4545
  266SOL    HW1  797   1.838   0.900   1.388 -0.4945 -1.3911  0.9932
  266SOL    HW2  798   1.782   1.044   1.436 -0.3352 -1.6893  1.0508
  267SOL     OW  799   2.547   0.984   2.674 -0.3937  0.4232  0.3074
  267SOL    HW1  800   2.584   1.029   2.586  1.3003  1.5937  0.0414
  267SOL    HW2  801   2.459   0.932   2.654  0.8389  2.2960  1.1199
  268SOL     OW  802   1.475   0.419   0.201  0.2163 -0.2578  0.5489
  268SOL    HW1  803   1.486   0.440   0.297  0.1529  1.2268 -2.0142
  268SOL    HW2  804   1.567   0.388   0.164 -1.4623  1.0427  1.0111
  269SOL     OW  805   2.990   0.682   2.692 -0.1931  0.2931 -0.2791
  269SOL    HW1  806   3.012   0.604   2.631 -1.8275 -2.1151  1.7700
  269SOL    HW2  807   3.050   0.680   2.770 -2.5936 -1.2262 -1.8948
  270SOL     OW  808   0.149   1.339   2.995 -0.0825  0.1505 -0.3763
  270SOL    HW1  809   0.134   1.262   3.060 -1.1479 -2.6365  0.4257
  270SOL    HW2  810   0.110   1.316   2.903 -1.0042 -0.5332 -0.6593
  271SOL     OW  811   2.640   0.907   0.076  0.1948 -0.2505  0.3878
  271SOL    HW1  812   2.571   0.897   3.118  0.3505  0.2361 -0.6497
  271SOL    HW2  813   2.703   0.828   0.052 -1.2415 -0.9705 -0.4803
  272SOL     OW  814   2.819   2.331   2.347 -0.1851 -0.3678 -0.2617
  272SOL    HW1  815   2.745   2.336   2.417 -2.4936 -1.6868 -0.4695
  272SOL    HW2  816   2.883   2.408   2.359 -1.0138 -0.6439  3.5108
  273SOL     OW  817   0.086   3.019   0.118  0.0611  0.0595  0.4601
  273SOL    HW1  818   0.116   3.102   0.164 -1.1493 -1.8150 -3.5587
  273SOL    HW2  819   0.078   2.944   0.185 -0.8935 -2.1672 -0.0070
  274SOL     OW  820   0.833   2.062   0.783 -0.0194 -0.5228  0.9033
  274SOL    HW1  821   0.752   1.993   0.781  0.6091 -0.3156 -1.7975
  274SOL    HW2  822   0.894   2.042   0.860  0.5014 -0.3088  0.2394
  275SOL     OW  823   2.250   0.621   0.598 -0.0624  0.2208 -0.9002
  275SOL    HW1  824   2.334   0.571   0.634  0.8553 -1.9214 -0.0178
  275SOL    HW2  825   2.247   0.719   0.631 -2.0966 -0.7518 -1.1308
  276SOL     OW  826   2.449   1.714   1.297  0.2728  0.1473  0.5833
  276SOL    HW1  827   2.349   1.738   1.309 -0.9973 -0.5290  0.6854
  276SOL    HW2  828   2.503   1.783   1.343 -0.7035 -1.2729  0.0533
  277SOL     OW  829   2.375   0.023   0.821  0.1943  0.1941 -0.5399
  277SOL    HW1  830   2.444   0.002   0.894 -1.9205  2.5334 -0.0856
  277SOL    HW2  831   2.289   0.047   0.868  1.4689  0.0096 -1.6668
  278SOL     OW  832   1.533   2.767   2.245 -0.3331  0.1737 -0.2992
  278SOL    HW1  833   1.490   2.672   2.252 -0.4224 -3.1405 -0.1600
  278SOL    HW2  834   1.504   2.829   2.324 -1.0353  0.1140  1.0302
  279SOL     OW  835   1.188   2.178   1.092 -0.0920 -0.3619  0.0118
  279SOL    HW1  836   1.159   2.189   1.190  1.5820 -0.3458 -1.2472
  279SOL    HW2  837   1.263   2.240   1.067  0.6779 -1.5396  0.3499
  280SOL     OW  838   0.440   0.907   1.049 -0.1286  0.2988 -0.0881
  280SOL    HW1  839   0.351   0.934   1.087  3.6433  1.9906 -0.7050
  280SOL    HW2  840   0.473   0.823   1.096 -1.1598  0.7375  0.3256
  281SOL     OW  841   2.545   1.178   2.873  0.1517 -0.4228 -0.1418
  281SOL    HW1  842   2.538   1.109   2.799 -0.3518 -0.4176 -0.1672
  281SOL    HW2  843   2.502   1.264   2.835  1.8098 -2.5893  2.1929
  282SOL     OW  844   0.352   1.252   0.288  0.4004  0.2024  0.0031
  282SOL    HW1  845   0.253   1.221   0.283 -1.8288 -1.5826 -1.1404
  282SOL    HW2  846   0.408   1.220   0.212  0.2204  1.4017  1.4196
  283SOL     OW  847   1.817   2.527   2.921  0.0658 -0.3639 -0.1387
  283SOL    HW1  848   1.899   2.523   2.983 -0.7582  0.7977  0.4990
  283SOL    HW2  849   1.817   2.461   2.845 -0.1779 -0.7415  2.6811
  284SOL     OW  850   1.006   0.135   0.718  0.0375 -0.0312  0.1334
  284SOL    HW1  851   1.097   0.092   0.700  0.2769 -0.8391  0.4543
  284SOL    HW2  852   0.982   0.189   0.635  3.0580 -0.3761  2.1538
  285SOL     OW  853   2.146   1.084   2.622 -0.0088  0.1648  0.6292
  285SOL    HW1  854   2.128   1.181   2.608 -0.3485 -1.8874  3.8201
  285SOL    HW2  855   2.102   1.050   2.708  0.4801 -0.5974  2.8272
  286SOL     OW  856   1.792   2.765   0.933  0.3138 -0.1676  0.0383
  286SOL    HW1  857   1.840   2.734   1.018 -1.9010  0.3923  0.3084
  286SOL    HW2  858   1.815   2.697   0.856  1.0383 -2.1688 -0.9636
  287SOL     OW  859   1.220   0.446   0.780  0.3672 -0.0441 -0.2953
  287SOL    HW1  860   1.227   0.375   0.854 -0.5241  0.9213  1.1027
  287SOL    HW2  861   1.208   0.537   0.821  1.5180 -0.4234 -2.0254
  288SOL     OW  862   0.840   2.688   2.653  0.1592  0.5252 -0.0688
  288SOL    HW1  863   0.822   2.774   2.704 -2.5492 -0.5224  3.2996
  288SOL    HW2  864   0.785   2.677   2.571 -0.4812 -2.1044  3.2547
  289SOL     OW  865   0.041   1.539   0.901  0.7645  0.3745 -0.1673
  289SOL    HW1  866   0.026   1.455   0.957  2.5812  0.9845  1.3510
  289SOL    HW2  867   0.024   1.624   0.955  1.6958  0.9947 -1.3024
  290SOL     OW  868   1.284   2.036   0.812  0.5745  0.7808  0.9787
  290SOL    HW1  869   1.243   2.100   0.745 -0.4326 -1.2456 -0.5833
  290SOL    HW2  870   1.253   2.053   0.906 -0.0970  0.1982  0.2157
  291SOL     OW  871   1.649   2.972   0.230  0.0429 -0.0767  0.1960
  291SOL    HW1  872   1.568   2.910   0.232 -1.3931 -0.8338  0.5560
  291SOL    HW2  873   1.628   3.036   0.151  0.5936  1.9362 -1.5046
  292SOL     OW  874   0.537   0.434   2.056  0.1066  0.2471  0.3468
  292SOL    HW1  875   0.566   0.400   2.148  1.2339  1.6848  4.0698
  292SOL    HW2  876   0.529   0.534   2.048  1.1125 -0.4874 -0.7492
  293SOL     OW  877   2.705   1.867   0.929  0.1712 -0.0281 -0.1685
  293SOL    HW1  878   2.620   1.847   0.877 -0.1727 -0.0477  1.7306
  293SOL    HW2  879   2.684   1.892   1.022  2.8643  0.6780  0.5592
  294SOL     OW  880   0.774   0.090   2.243 -0.3430 -0.1800 -0.1171
  294SOL    HW1  881   0.682   0.072   2.277  3.9500 -1.2330  0.6264
  294SOL    HW2  882   0.842   0.024   2.282  2.6720  0.4698 -0.2219
  295SOL     OW  883   1.322   1.934   1.275 -0.0350  0.4395 -0.3213
  295SOL    HW1  884   1.255   1.859   1.245 -2.8663 -2.3398 -3.6181
  295SOL    HW2  885   1.313   2.019   1.216  0.1701 -0.7563  1.2708
  296SOL     OW  886   2.421   2.136   0.244 -0.4444 -0.5947 -0.2031
  296SOL    HW1  887   2.359   2.099   0.173  2.1732 -0.4316 -0.2713
  296SOL    HW2  888   2.517   2.128   0.208 -0.6692 -0.1628  0.5223
  297SOL     OW  889   2.604   0.068   0.313 -0.0322  0.0057  0.4178
  297SOL    HW1  890   2.500   0.075   0.317 -2.6353 -0.3046 -1.2925
  297SOL    HW2  891   2.641   3.115   0.376  2.5589 -1.0845  2.8261
  298SOL     OW  892   1.066   0.295   2.922 -0.0295  0.2872  0.1906
  298SOL    HW1  893   1.087   0.306   2.824 -1.5552 -0.8480  0.0171
  298SOL    HW2  894   1.082   0.378   2.974 -0.5984  0.1269  2.5623
  299SOL     OW  895   0.624   2.476   2.469 -0.6309  0.0789  0.2832
  299SOL    HW1  896   0.561   2.404   2.446  2.8504  2.4018 -0.2084
  299SOL    HW2  897   0.597   2.512   2.562 -1.6459 -0.4471 -0.9245
  300SOL     OW  898   2.821   3.043   2.353 -0.3386  0.3542 -0.0794
  300SOL    HW1  899   2.749   2.991   2.305  2.6937  0.8149 -1.7096
  300SOL    HW2  900   2.794   3.073   2.446  0.4809 -0.5302 -1.0697
  301SOL     OW  901   1.390   0.487   1.736 -0.3072 -0.3388 -0.4651
  301SOL    HW1  902   1.473   0.455   1.689 -0.6429  0.6489  1.2499
  301SOL    HW2  903   1.340   0.412   1.780 -0.3983 -0.0206  0.8477
  302SOL     OW  904   3.104   2.273   3.047  0.0885  0.1601  0.2703
  302SOL    HW1  905   0.049   2.331   3.096  0.5068  0.5724  1.5900
  302SOL    HW2  906   3.097   2.311   2.953 -3.5414  1.3433 -0.0483
  303SOL     OW  907   2.060   2.244   1.580  0.0364 -0.4284 -0.5955
  303SOL    HW1  908   1.981   2.186   1.611 -4.5315 -1.2467  0.1708
  303SOL    HW2  909   2.035   2.334   1.542  1.3342 -0.7422 -0.6984
  304SOL     OW  910   2.746   0.998   1.519  0.7807  0.0441 -0.3984
  304SOL    HW1  911   2.756   0.951   1.426 -0.1743  0.6142  0.0014
  304SOL    HW2  912   2.824   0.987   1.582  1.6466  0.9764 -0.4423
  305SOL     OW  913   0.625   1.644   0.877  0.6611 -0.1194 -0.0360
  305SOL    HW1  914   0.687   1.662   0.960  0.0396  0.8030 -2.0527
  305SOL    HW2  915   0.528   1.625   0.907 -2.8888 -0.4257  0.1505
  306SOL     OW  916   0.509   1.521   2.497 -0.0089  0.0315  0.0524
  306SOL    HW1  917   0.569   1.560   2.573 -0.8148  1.2475 -0.7457
  306SOL    HW2  918   0.431   1.476   2.551 -1.1773 -0.6875  0.2005
  307SOL     OW  919   0.983   0.137   1.438  0.4212  0.4873  0.1769
  307SOL    HW1  920   0.993   0.173   1.533 -0.3659 -0.4746 -0.6556
  307SOL    HW2  921   1.053   0.063   1.415 -0.2518 -0.5853  0.5455
  308SOL     OW  922   3.080   0.821   1.232  0.4248  1.1702  0.0857
  308SOL    HW1  923   2.992   0.835   1.281  1.0360  0.8217 -0.9679
  308SOL    HW2  924   3.077   0.841   1.131  0.7739 -1.2665  0.0120
  309SOL     OW  925   2.475   1.248   1.131 -0.0942  0.0379  0.3091
  309SOL    HW1  926   2.442   1.348   1.125 -1.5001  1.1307 -0.1081
  309SOL    HW2  927   2.578   1.240   1.134  3.2872  0.3143 -0.1884
  310SOL     OW  928   0.421   2.041   2.585  0.1543  0.2370 -0.6393
  310SOL    HW1  929   0.518   2.070   2.560 -0.3823  1.3218 -1.9454
  310SOL    HW2  930   0.344   2.089   2.535 -1.1788 -0.1566 -0.7038
  311SOL     OW  931   2.536   2.609   2.373 -0.0833  0.3324  0.3691
  311SOL    HW1  932   2.595   2.628   2.290 -1.1238  1.7580  0.0284
  311SOL    HW2  933   2.558   2.677   2.442  1.5858 -0.0353  0.3277
  312SOL     OW  934   2.203   2.012   2.926 -0.0553  0.3442 -0.1677
  312SOL    HW1  935   2.214   2.106   2.888 -1.9965 -1.1215 -2.4615
  312SOL    HW2  936   2.253   1.933   2.887 -3.0052  2.0116  1.5703
  313SOL     OW  937   0.273   2.945   0.729 -0.1347 -0.0630 -0.1066
  313SOL    HW1  938   0.262   3.046   0.732  0.7085 -1.2185 -1.0702
  313SOL    HW2  939   0.364   2.911   0.694 -0.9432  3.8484 -0.3390
  314SOL     OW  940   1.969   1.023   2.819 -0.0013 -0.6419 -0.2893
  314SOL    HW1  941   2.037   0.984   2.887 -2.8291 -0.1595  2.5384
  314SOL    HW2  942   1.970   1.128   2.838 -0.6855  2.5796 -0.1703
  315SOL     OW  943   1.499   0.042   2.390  0.3577  0.7545 -0.1553
  315SOL    HW1  944   1.487   0.071   2.290  0.9778  0.8858 -2.6092
  315SOL    HW2  945   1.442   3.072   2.407 -2.6362  0.9030  0.9482
  316SOL     OW  946   2.695   1.233   0.739 -0.0102  0.9796  0.1384
  316SOL    HW1  947   2.604   1.184   0.754 -1.9900 -2.2799 -1.1856
  316SOL    HW2  948   2.701   1.258   0.642 -4.1833 -1.4917  1.0430
  317SOL     OW  949   0.613   2.675   2.945 -0.0318  0.0950  0.1775
  317SOL    HW1  950   0.634   2.634   3.039  1.5443  1.4556 -2.3206
  317SOL    HW2  951   0.524   2.732   2.959  0.0707  1.0581 -2.3945
  318SOL     OW  952   2.472   2.583   0.968  0.5946  0.1308 -0.4726
  318SOL    HW1  953   2.425   2.666   0.925 -2.4751 -0.0634  0.9971
  318SOL    HW2  954   2.414   2.498   0.953  0.1081 -0.3178  2.5937
  319SOL     OW  955   1.303   1.958   2.925 -0.6213 -0.0144 -0.0496
  319SOL    HW1  956   1.260   2.013   2.851 -0.2702 -0.4304 -1.8945
  319SOL    HW2  957   1.248   1.873   2.924  1.5896 -1.5499 -1.4848
  320SOL     OW  958   0.562   1.821   1.351 -0.4547  0.3098  0.2415
  320SOL    HW1  959   0.492   1.790   1.285  0.9100  1.6607 -2.3913
  320SOL    HW2  960   0.525   1.901   1.403  3.7336 -0.0201  0.2040
  321SOL     OW  961   1.213   2.792   2.216  0.4271  0.1040  0.2278
  321SOL    HW1  962   1.199   2.816   2.116 -1.9867  0.4849 -1.1037
  321SOL    HW2  963   1.256   2.699   2.227  0.1274  1.5512  1.1042
  322SOL     OW  964   2.495   1.980   1.883  0.3861 -0.1475  0.0775
  322SOL    HW1  965   2.572   1.943   1.941  0.0102 -2.2715 -1.0190
  322SOL    HW2  966   2.505   2.084   1.881 -0.9777  0.3645 -0.3559
  323SOL     OW  967   2.794   0.549   1.048 -0.0402 -0.0510  0.3804
  323SOL    HW1  968   2.761   0.598   0.962  0.1107 -0.0806 -1.4371
  323SOL    HW2  969   2.895   0.542   1.035 -1.6417 -1.8690  0.3475
  324SOL     OW  970   2.642   2.791   2.554 -0.4634 -0.2732 -0.8678
  324SOL    HW1  971   2.656   2.791   2.657 -0.4477 -0.7984  6.9574
  324SOL    HW2  972   2.725   2.744   2.515 -1.0934  0.8080 -0.6388
  325SOL     OW  973   1.110   0.330   2.655  0.0968 -0.0174  0.5287
  325SOL    HW1  974   1.190   0.281   2.616 -0.7691  1.8854 -1.4443
  325SOL    HW2  975   1.025   0.284   2.624 -1.3565 -1.5780 -0.5068
  326SOL     OW  976   2.097   2.662   1.749 -0.3529  0.0852 -0.0823
  326SOL    HW1  977   2.095   2.765   1.733 -1.3571 -1.0323 -0.4587
  326SOL    HW2  978   2.110   2.644   1.849 -0.6984  0.0156  2.4470
  327SOL     OW  979   2.306   3.015   2.912 -0.3132 -0.0367  0.1473
  327SOL    HW1  980   2.365   3.094   2.940  0.5060 -2.0157  2.6843
  327SOL    HW2  981   2.345   2.926   2.948  1.0305 -2.1783 -0.1126
  328SOL     OW  982   0.215   1.357   1.968  0.4858 -0.2919  0.3286
  328SOL    HW1  983   0.203   1.340   2.067 -4.2755 -0.7838 -1.5362
  328SOL    HW2  984   0.138   1.419   1.948  0.3498 -1.4495  0.8124
  329SOL     OW  985   2.168   0.590   1.854  0.1812  0.0150 -0.0405
  329SOL    HW1  986   2.101   0.633   1.920  1.9810  2.0863  1.8032
  329SOL    HW2  987   2.222   0.666   1.814  0.1413  0.1176  1.2076
  330SOL     OW  988   0.046   1.143   0.883 -0.1537 -0.1978  0.1516
  330SOL    HW1  989   0.007   1.057   0.915 -2.1775  1.1437  1.1903
  330SOL    HW2  990   0.034   1.216   0.953 -0.1838 -0.6338 -2.8514
  331SOL     OW  991   0.149   1.785   2.040  0.0116 -0.2092  0.0925
  331SOL    HW1  992   0.051   1.779   2.071 -1.7840 -1.5453  2.0442
  331SOL    HW2  993   0.209   1.758   2.118 -1.8548 -1.3928 -2.8166
  332SOL     OW  994   0.062   2.620   1.638 -0.2638  0.1895 -0.3804
  332SOL    HW1  995   0.126   2.687   1.600 -0.5883 -1.1355  2.0701
  332SOL    HW2  996   3.118   2.578   1.575  0.1295 -0.0957 -0.6090
  333SOL     OW  997   2.465   0.234   1.098 -0.1555  0.2996  0.2119
  333SOL    HW1  998   2.564   0.207   1.095 -0.3767 -1.4468 -0.0542
  333SOL    HW2  999   2.409   0.147   1.107  0.0165 -0.5351  0.9240
  334SOL     OW 1000   0.263   1.541   0.726  0.8540  0.3384  0.2838
  334SOL    HW1 1001   0.323   1.466   0.711 -2.8116  2.7952 -1.8778
  334SOL    HW2 1002   0.181   1.523   0.783 -1.1849 -0.0610 -0.4355
  335SOL     OW 1003   0.155   2.572   2.923  0.2269 -0.1639  0.6162
  335SOL    HW1 1004   0.130   2.481   2.883 -1.7800 -1.8270 -2.5303
  335SOL    HW2 1005   0.179   2.642   2.855  1.0793  1.0447 -3.0510
  336SOL     OW 1006   2.886   2.708   2.409  0.7143  0.4683  0.0185
  336SOL    HW1 1007   2.936   2.695   2.495 -0.8804 -0.0519  0.6873
  336SOL    HW2 1008   2.904   2.796   2.365  0.2788 -0.8831  1.1263
  337SOL     OW 1009   1.834   2.308   1.918  0.6810  0.6645  0.3302
  337SOL    HW1 1010   1.795   2.403   1.915 -2.1793 -0.3738  1.0585
  337SOL    HW2 1011   1.794   2.259   1.833 -1.4343 -0.8425 -0.2117
  338SOL     OW 1012   0.697   3.113   3.008  0.8008 -0.0899  0.4249
  338SOL    HW1 1013   0.654   3.064   3.084 -1.6882  1.9701 -0.7235
  338SOL    HW2 1014   0.780   0.039   3.038 -2.3088 -0.5030  1.1035
  339SOL     OW 1015   0.526   1.298   2.323 -0.8771 -0.3113 -0.1901
  339SOL    HW1 1016   0.543   1.375   2.392  0.7030  1.1755 -0.7856
  339SOL    HW2 1017   0.614   1.286   2.274 -1.1474 -1.1676 -2.0885
  340SOL     OW 1018   1.663   2.931   0.733 -0.1573 -0.3772  0.1008
  340SOL    HW1 1019   1.723   2.870   0.787  2.5608 -0.9634  1.1548
  340SOL    HW2 1020   1.680   3.031   0.744  1.1726  0.3620 -0.6049
  341SOL     OW 1021   2.028   1.168   1.083  0.0322 -0.4403  0.4606
  341SOL    HW1 1022   1.995   1.071   1.109  0.3595 -0.1256  0.1651
  341SOL    HW2 1023   2.009   1.244   1.152 -0.8677  0.7415  4.6122
  342SOL     OW 1024   2.583   2.947   3.071  0.0985 -0.3524 -0.0921
  342SOL    HW1 1025   2.529   2.971   0.036  0.3589 -1.6990  0.4805
  342SOL    HW2 1026   2.663   2.889   3.097  0.4467  0.7991 -0.3382
  343SOL     OW 1027   0.925   2.311   1.685 -0.6971  0.1281 -0.5316
  343SOL    HW1 1028   0.886   2.340   1.773  2.0275 -1.4288 -1.9459
  343SOL    HW2 1029   1.019   2.354   1.681  2.2793 -0.6232  1.3887
  344SOL     OW 1030   2.459   2.663   1.571  0.5166  0.3521 -0.2113
  344SOL    HW1 1031   2.515   2.737   1.612  0.2786 -0.3170 -0.4131
  344SOL    HW2 1032   2.521   2.590   1.535  0.1164 -3.6778 -0.7539
  345SOL     OW 1033   2.517   1.900   2.937  0.0130  0.2678  0.3406
  345SOL    HW1 1034   2.617   1.918   2.920 -2.2491 -3.5387 -1.6402
  345SOL    HW2 1035   2.500   1.865   3.032  1.3204  1.6450 -1.0921
  346SOL     OW 1036   2.258   2.167   0.637 -0.1137  0.3682  0.1142
  346SOL    HW1 1037   2.288   2.261   0.674  2.0140 -2.0248  1.8173
  346SOL    HW2 1038   2.261   2.100   0.715  2.2129  0.8645 -0.4590
  347SOL     OW 1039   1.597   1.926   1.197  0.1747  0.1114 -0.3941
  347SOL    HW1 1040   1.510   1.937   1.239  2.2062  2.4196  2.6957
  347SOL    HW2 1041   1.669   1.937   1.265  2.1179 -1.7639 -1.0449
  348SOL     OW 1042   0.571   1.880   2.185 -0.4422  0.0312  0.0539
  348SOL    HW1 1043   0.586   1.785   2.216  1.7847  0.5922 -2.2332
  348SOL    HW2 1044   0.646   1.950   2.202  1.7053 -0.5226  0.8101
  349SOL     OW 1045   2.198   1.770   0.698  0.2232  0.3850 -0.2691
  349SOL    HW1 1046   2.142   1.680   0.701 -0.6607  0.2190  1.1289
  349SOL    HW2 1047   2.287   1.760   0.647  0.5200 -0.8382 -1.6898
  350SOL     OW 1048   2.822   2.522   0.625  0.3121  0.2693 -0.2336
  350SOL    HW1 1049   2.765   2.553   0.706 -2.0023  0.1939  1.6223
  350SOL    HW2 1050   2.769   2.526   0.537 -0.6761  1.3473 -1.0041
  351SOL     OW 1051   0.398   2.970   1.531  0.0861 -0.2984 -0.4175
  351SOL    HW1 1052   0.481   2.909   1.504  1.6602 -2.9619 -2.1058
  351SOL    HW2 1053   0.314   2.952   1.471  1.4030 -0.2574 -0.0695
  352SOL     OW 1054   0.484   1.409   1.155  0.0070 -0.0970  0.4469
  352SOL    HW1 1055   0.406   1.358   1.193  1.9705  0.5248  1.3313
  352SOL    HW2 1056   0.524   1.365   1.068  2.8729  0.5971  1.8637
  353SOL     OW 1057   1.329   1.266   2.599 -0.1394 -0.5807 -0.0057
  353SOL    HW1 1058   1.233   1.300   2.626  0.8268  0.5300 -0.1731
  353SOL    HW2 1059   1.376   1.235   2.683  0.5543  1.4468 -1.3263
  354SOL     OW 1060   1.531   3.099   1.671  0.1020  0.2310 -0.1943
  354SOL    HW1 1061   1.471   0.051   1.628 -1.1589  0.8868 -3.2952
  354SOL    HW2 1062   1.585   0.017   1.755  0.9554  0.9492  3.4829
  355SOL     OW 1063   2.316   1.388   0.647  0.4718  0.0955  0.0769
  355SOL    HW1 1064   2.357   1.430   0.726  2.8854 -1.6024 -2.1097
  355SOL    HW2 1065   2.371   1.411   0.566  1.1052 -2.5654  2.6699
  356SOL     OW 1066   2.814   1.742   1.824 -0.1404  0.0801 -1.2354
  356SOL    HW1 1067   2.874   1.774   1.748 -0.1722 -1.1468  0.5399
  356SOL    HW2 1068   2.790   1.813   1.892  2.1678  0.0720  0.0902
  357SOL     OW 1069   0.545   2.722   1.378 -0.3217 -0.1248  0.4186
  357SOL    HW1 1070   0.463   2.674   1.331 -1.1846 -0.3436 -0.5567
  357SOL    HW2 1071   0.593   2.786   1.310 -0.3659  1.0688 -2.8759
  358SOL     OW 1072   2.708   1.482   1.849  0.6074 -0.0209  0.1863
  358SOL    HW1 1073   2.722   1.574   1.812 -2.8658 -3.1968 -1.2741
  358SOL    HW2 1074   2.640   1.424   1.795 -0.7503 -2.0220 -2.9980
  359SOL     OW 1075   2.206   2.776   2.526 -0.4752  0.4181  0.5501
  359SOL    HW1 1076   2.199   2.674   2.516 -0.6158 -1.8553  0.8816
  359SOL    HW2 1077   2.174   2.790   2.622  1.4638  1.4629  0.9795
  360SOL     OW 1078   0.654   0.270   0.901  0.2215 -0.2646 -0.2896
  360SOL    HW1 1079   0.683   0.365   0.879  0.6209  1.1326  1.0297
  360SOL    HW2 1080   0.574   0.237   0.847 -2.6820  0.5091  0.6053
  361SOL     OW 1081   1.932   0.277   0.982 -0.4327 -0.5099 -0.6382
  361SOL    HW1 1082   1.992   0.318   0.912 -0.6508 -2.5104 -0.5731
  361SOL    HW2 1083   1.924   0.341   1.061  1.6952 -0.3502  1.2044
  362SOL     OW 1084   1.621   1.164   1.073  0.1051  0.3251  0.3172
  362SOL    HW1 1085   1.668   1.071   1.082 -0.7947  0.1487 -0.0137
  362SOL    HW2 1086   1.654   1.208   0.988 -3.1038 -2.7000 -1.3715
  363SOL     OW 1087   2.280   1.511   2.263 -0.1338  0.2961 -0.5885
  363SOL    HW1 1088   2.342   1.428   2.271  2.8007 -2.5162 -0.2381
  363SOL    HW2 1089   2.187   1.487   2.231 -0.4001 -0.0277  0.7543
  364SOL     OW 1090   0.331   3.031   1.195 -0.5075 -0.7569  0.8693
  364SOL    HW1 1091   0.260   2.995   1.260 -1.5495  0.3451 -1.5987
  364SOL    HW2 1092   0.302   3.006   1.098 -0.0156 -2.1452  0.1480
  365SOL     OW 1093   0.304   3.047   3.082  0.1191  0.0445  0.3296
  365SOL    HW1 1094   0.291   3.107   3.002 -0.3895 -1.9382  0.6487
  365SOL    HW2 1095   0.224   3.004   0.009  0.5624 -0.3197 -1.2802
  366SOL     OW 1096   2.188   2.293   0.104 -0.0247  0.4266 -0.1650
  366SOL    HW1 1097   2.198   2.202   0.066 -1.6879  1.6046 -2.0868
  366SOL    HW2 1098   2.263   2.354   0.077  0.5702  0.7092  0.0294
  367SOL     OW 1099   2.589   2.428   3.031 -0.3444  0.0372  0.1403
  367SOL    HW1 1100   2.554   2.333   3.005 -1.3036  0.6215 -0.6268
  367SOL    HW2 1101   2.689   2.421   3.066 -1.8308 -1.1852  2.2204
  368SOL     OW 1102   0.013   1.332   1.079  0.8293 -0.1939  0.2040
  368SOL    HW1 1103   3.051   1.321   1.145 -0.3802  0.6511 -1.4240
  368SOL    HW2 1104   0.098   1.312   1.127 -1.4354  3.2543 -0.3404
  369SOL     OW 1105   0.727   2.877   2.806 -0.7677 -0.0365  0.3181
  369SOL    HW1 1106   0.691   2.793   2.847  0.2726  1.4182 -2.3886
  369SOL    HW2 1107   0.742   2.950   2.868 -0.6172 -0.3135 -1.1074
  370SOL     OW 1108   2.880   0.711   0.424  0.5371 -0.1018 -0.1103
  370SOL    HW1 1109   2.958   0.735   0.366  1.2494 -0.0427 -2.1749
  370SOL    HW2 1110   2.819   0.794   0.443 -1.8158  1.1426  1.7083
  371SOL     OW 1111   1.818   2.548   0.759 -0.0403  0.1767 -0.0081
  371SOL    HW1 1112   1.912   2.542   0.718  0.2485 -1.2621 -0.6242
  371SOL    HW2 1113   1.752   2.477   0.726 -1.8980  3.7754 -0.0549
  372SOL     OW 1114   3.020   0.980   2.992  0.2404 -0.1913 -0.4237
  372SOL    HW1 1115   3.029   0.879   3.006  0.8126  0.1586  1.1287
  372SOL    HW2 1116   3.113   1.008   2.963 -0.2952  1.0881  0.3915
  373SOL     OW 1117   2.871   1.828   1.337 -0.2749  0.4453  0.1179
  373SOL    HW1 1118   2.844   1.731   1.312  2.8599 -0.7276 -2.1083
  373SOL    HW2 1119   2.836   1.891   1.268 -0.1427  0.0118  0.6504
  374SOL     OW 1120   0.459   2.816   0.162  0.7498 -0.5279  0.0344
  374SOL    HW1 1121   0.427   2.792   0.064  1.3552 -0.0710 -1.4452
  374SOL    HW2 1122   0.535   2.887   0.158 -2.3082  0.9865  0.3149
  375SOL     OW 1123   0.478   0.087   0.129  0.5243  0.4434  0.1389
  375SOL    HW1 1124   0.432   0.105   0.223 -2.6944  0.4183 -0.7818
  375SOL    HW2 1125   0.411   0.050   0.059 -0.6747  0.0441 -0.3528
  376SOL     OW 1126   0.194   2.216   1.517  0.0640  0.9538  0.3467
  376SOL    HW1 1127   0.103   2.173   1.502 -1.2226 -1.2160 -1.4567
  376SOL    HW2 1128   0.214   2.280   1.441 -0.1052 -1.4734 -0.6172
  377SOL     OW 1129   1.794   2.397   2.658  0.3419 -0.0946  0.1732
  377SOL    HW1 1130   1.823   2.330   2.583  0.6846 -1.4056  1.3041
  377SOL    HW2 1131   1.693   2.399   2.656  0.0575  1.1453  2.6119
  378SOL     OW 1132   0.589   0.517   0.330  0.1890  0.5345 -0.1044
  378SOL    HW1 1133   0.628   0.608   0.315  1.4931 -2.1530 -1.5282
  378SOL    HW2 1134   0.646   0.468   0.398 -2.4351 -1.5031 -2.0319
  379SOL     OW 1135   0.312   1.314   0.552 -0.0985 -0.2153 -0.0864
  379SOL    HW1 1136   0.325   1.305   0.448 -0.9516 -0.8102  1.1229
  379SOL    HW2 1137   0.399   1.341   0.597 -0.9309 -1.1265 -0.1632
  380SOL     OW 1138   0.054   1.986   1.749 -0.0792 -0.3718  0.1269
  380SOL    HW1 1139   0.057   1.890   1.734  0.3376  2.6629 -1.0287
  380SOL    HW2 1140   0.103   2.023   1.832  0.8098  0.3247  1.7455
  381SOL     OW 1141   0.669   1.224   1.997 -0.4429 -0.0042  0.2234
  381SOL    HW1 1142   0.717   1.134   2.004  1.7964 -2.3240 -0.9676
  381SOL    HW2 1143   0.615   1.229   1.909  1.4154 -1.0068  1.0296
  382SOL     OW 1144   2.430   2.052   0.487  0.3458  0.4328  0.0420
  382SOL    HW1 1145   2.357   2.097   0.539  1.0283 -1.7064 -1.8542
  382SOL    HW2 1146   2.411   2.064   0.384 -2.0026  0.1914 -1.0421
  383SOL     OW 1147   2.771   1.999   2.855  0.5831 -0.6852 -0.1801
  383SOL    HW1 1148   2.868   1.978   2.838  1.7591 -0.6716 -1.3229
  383SOL    HW2 1149   2.760   2.102   2.846  1.8462 -2.8787  0.8459
  384SOL     OW 1150   0.663   2.118   2.526 -0.1573  0.1306 -0.6236
  384SOL    HW1 1151   0.710   2.206   2.539 -1.4122 -2.8522 -0.2002
  384SOL    HW2 1152   0.661   2.098   2.427  2.9279  2.3605  1.6659
  385SOL     OW 1153   2.858   1.674   1.017 -0.3781 -0.3924  0.1900
  385SOL    HW1 1154   2.817   1.758   0.977  0.8055  0.0748  2.0875
  385SOL    HW2 1155   2.831   1.592   0.961  0.1157  1.8194 -1.0786
  386SOL     OW 1156   2.013   1.380   1.265  0.5270 -0.1683  0.0457
  386SOL    HW1 1157   1.911   1.405   1.268  1.2342 -0.9362  3.5523
  386SOL    HW2 1158   2.057   1.459   1.217 -0.9966 -1.4973 -0.7853
  387SOL     OW 1159   3.082   1.147   2.096  0.2859  0.1412 -0.1856
  387SOL    HW1 1160   3.012   1.071   2.102  0.7307 -1.2149 -0.3495
  387SOL    HW2 1161   3.045   1.223   2.042  2.0316  0.2164 -1.5328
  388SOL     OW 1162   2.560   1.387   2.223 -0.5294 -0.2301 -0.6001
  388SOL    HW1 1163   2.618   1.413   2.306 -1.9791 -0.8753  2.5689
  388SOL    HW2 1164   2.539   1.465   2.159  3.0884 -1.4690 -1.8446
  389SOL     OW 1165   2.079   1.380   2.149 -0.0048  0.4188  0.0814
  389SOL    HW1 1166   1.978   1.364   2.165 -1.8418 -1.2595 -2.1015
  389SOL    HW2 1167   2.125   1.292   2.114  4.1286 -2.4989 -0.7049
  390SOL     OW 1168   1.969   2.805   0.652 -0.5497 -0.3049 -0.0961
  390SOL    HW1 1169   1.887   2.823   0.595 -0.2097  0.3294 -0.8932
  390SOL    HW2 1170   1.987   2.705   0.652 -0.5161 -0.2999  0.5010
  391SOL     OW 1171   2.281   1.964   0.845 -0.1346  0.3883 -0.0292
  391SOL    HW1 1172   2.224   1.890   0.801 -0.0308  0.0645  0.9550
  391SOL    HW2 1173   2.260   1.980   0.940  1.0007 -1.0620 -1.7086
  392SOL     OW 1174   0.075   2.683   1.248 -0.3665 -0.4187  0.6599
  392SOL    HW1 1175   0.016   2.629   1.311 -3.3381  0.4265  2.0255
  392SOL    HW2 1176   0.049   2.665   1.149 -1.7100 -3.8257 -1.2521
  393SOL     OW 1177   2.051   1.932   2.726 -0.4289  0.2388  0.1560
  393SOL    HW1 1178   2.094   1.971   2.814  0.7732 -1.3894  5.0674
  393SOL    HW2 1179   1.954   1.902   2.736 -0.7930  1.2439 -1.8610
  394SOL     OW 1180   0.356   0.446   2.441  0.5404  0.0680 -0.1672
  394SOL    HW1 1181   0.301   0.419   2.521  0.3192  1.6071 -2.4577
  394SOL    HW2 1182   0.327   0.534   2.398 -0.8888 -0.9017 -1.1163
  395SOL     OW 1183   0.639   0.580   0.831  0.4499  0.1777 -0.4319
  395SOL    HW1 1184   0.662   0.533   0.746  1.0092  2.4699 -0.5800
  395SOL    HW2 1185   0.700   0.655   0.846  1.3221 -0.9800  1.2409
  396SOL     OW 1186   1.240   0.870   0.449 -0.6335 -0.2352  0.7005
  396SOL    HW1 1187   1.173   0.946   0.458  3.2885 -2.0849 -2.0794
  396SOL    HW2 1188   1.191   0.784   0.417 -1.1900  0.1043 -0.2242
  397SOL     OW 1189   0.439   1.054   2.197 -0.0692 -0.1017  0.4057
  397SOL    HW1 1190   0.469   1.148   2.224  0.8254 -1.3551  0.1257
  397SOL    HW2 1191   0.382   1.063   2.111  1.9406 -1.6479  0.1911
  398SOL     OW 1192   0.935   3.058   0.258 -0.0620  0.0949  1.2143
  398SOL    HW1 1193   0.959   2.963   0.292 -1.3137 -1.0472  0.1187
  398SOL    HW2 1194   1.020   3.117   0.236  2.3040  2.5801 -0.2363
  399SOL     OW 1195   1.901   3.094   1.801 -0.1000 -0.0588  0.4004
  399SOL    HW1 1196   1.902   0.071   1.833 -1.5576 -1.4519  1.3719
  399SOL    HW2 1197   1.888   3.093   1.702  2.4216  1.1419  2.0855
  400SOL     OW 1198   0.757   1.456   1.764 -0.3799 -0.2934 -0.3001
  400SOL    HW1 1199   0.761   1.537   1.828  0.0232  0.6888  2.7655
  400SOL    HW2 1200   0.781   1.482   1.668  0.3103 -0.2741 -2.7470
  401SOL     OW 1201   0.547   0.943   2.788 -0.1120  0.3080 -0.7193
  401SOL    HW1 1202   0.604   0.856   2.796 -1.0016 -2.1119 -2.1539
  401SOL    HW2 1203   0.452   0.917   2.768  3.4114  0.0940 -0.7316
  402SOL     OW 1204   2.870   2.177   1.432 -0.6989  0.7980  0.2807
  402SOL    HW1 1205   2.768   2.172   1.450  0.3691  0.6129  0.5808
  402SOL    HW2 1206   2.918   2.084   1.448 -0.9058 -1.9454  1.5604
  403SOL     OW 1207   0.211   1.009   2.037 -0.0002 -0.1360  0.3026
  403SOL    HW1 1208   0.121   1.061   2.052 -0.6789  0.4857  2.2222
  403SOL    HW2 1209   0.234   1.003   1.936  0.5924  0.0094  0.4028
  404SOL     OW 1210   0.003   2.751   1.916 -0.2076  0.1050 -0.4853
  404SOL    HW1 1211   0.099   2.746   1.947 -0.6950  1.2148 -2.5698
  404SOL    HW2 1212   3.108   2.689   1.834  0.4530  1.4768 -1.8930
  405SOL     OW 1213   0.546   0.312   1.810  0.5428 -0.2774 -0.3511
  405SOL    HW1 1214   0.462   0.256   1.792  1.8895  0.2581  1.7527
  405SOL    HW2 1215   0.542   0.355   1.904  1.0094  2.6452  2.2826
  406SOL     OW 1216   1.634   2.086   2.533  0.0837 -0.4492  0.1013
  406SOL    HW1 1217   1.730   2.123   2.521  0.6167  0.9856  0.4577
  406SOL    HW2 1218   1.641   1.984   2.520 -0.1140 -0.9987  1.3147
  407SOL     OW 1219   1.475   1.418   2.401  0.6824  0.6584  0.2841
  407SOL    HW1 1220   1.428   1.399   2.313 -0.4494 -0.8248 -0.0760
  407SOL    HW2 1221   1.432   1.357   2.471 -0.5554  2.0323 -0.4333
  408SOL     OW 1222   0.957   0.290   2.295  0.4136 -0.3384 -0.4153
  408SOL    HW1 1223   0.885   0.233   2.252 -0.0927  0.3675 -0.8450
  408SOL    HW2 1224   0.938   0.300   2.393 -0.1609 -0.6399 -1.7158
  409SOL     OW 1225   0.404   1.881   0.093  0.8263 -0.0752 -0.3185
  409SOL    HW1 1226   0.470   1.848   0.027 -0.1343  0.5758  1.7090
  409SOL    HW2 1227   0.378   1.815   0.168 -1.1000 -0.1493  0.6459
  410SOL     OW 1228   2.864   1.446   0.278  0.4095 -0.4825 -0.6101
  410SOL    HW1 1229   2.960   1.470   0.281 -1.7069 -2.8023 -0.5356
  410SOL    HW2 1230   2.839   1.438   0.181 -2.5624  1.2894  2.9118
  411SOL     OW 1231   2.769   0.235   1.072  0.6312  0.0573  0.4189
  411SOL    HW1 1232   2.766   0.334   1.086 -3.5999 -1.1141  1.4924
  411SOL    HW2 1233   2.830   0.206   0.997 -3.6336  0.7550  3.0685
  412SOL     OW 1234   1.351   0.924   1.200 -0.6426  0.4668  0.1134
  412SOL    HW1 1235   1.415   0.905   1.120 -0.8928  0.5386 -1.3970
  412SOL    HW2 1236   1.395   0.990   1.263  1.1751  0.2493  1.2007
  413SOL     OW 1237   0.780   2.583   1.365  0.4905 -0.2611  0.1445
  413SOL    HW1 1238   0.784   2.553   1.266  0.3974  1.8938 -2.1026
  413SOL    HW2 1239   0.693   2.629   1.399 -0.5040  0.2909  1.1481
  414SOL     OW 1240   2.742   1.593   2.798  0.2413  0.2575  0.0039
  414SOL    HW1 1241   2.777   1.643   2.716  0.5918  2.9590  0.0168
  414SOL    HW2 1242   2.789   1.619   2.880 -2.5965  0.9801 -2.2875
  415SOL     OW 1243   0.472   2.278   2.806 -0.1445 -0.1175  0.0383
  415SOL    HW1 1244   0.406   2.196   2.815 -2.0838 -0.0599  2.5892
  415SOL    HW2 1245   0.439   2.353   2.871 -0.5298  0.7741 -1.6816
  416SOL     OW 1246   1.943   0.119   0.399 -0.2990 -0.4928  0.0188
  416SOL    HW1 1247   1.948   0.047   0.330  0.3251 -0.2587  1.8831
  416SOL    HW2 1248   1.847   0.153   0.420  1.5569  1.1928 -0.0926
  417SOL     OW 1249   0.391   0.654   0.894  0.1447 -0.3686  0.1213
  417SOL    HW1 1250   0.395   0.752   0.891  0.3792 -2.2612  0.5733
  417SOL    HW2 1251   0.483   0.618   0.872 -0.0593  0.9704  0.5317
  418SOL     OW 1252   2.674   0.650   1.715  0.2315  0.1316  0.4097
  418SOL    HW1 1253   2.687   0.549   1.700 -1.4253 -3.1298 -1.6756
  418SOL    HW2 1254   2.626   0.695   1.638 -0.1337  3.1310  1.1001
  419SOL     OW 1255   0.094   0.152   0.565 -0.0468  0.4351 -0.3535
  419SOL    HW1 1256   3.115   0.176   0.560  0.7327  1.3879  2.2802
  419SOL    HW2 1257   0.117   0.086   0.487 -0.0271 -1.4098 -1.2573
  420SOL     OW 1258   0.247   1.248   1.191 -0.5421  0.4363  0.3049
  420SOL    HW1 1259   0.234   1.256   1.292  0.7382  2.4799 -0.9702
  420SOL    HW2 1260   0.239   1.149   1.161  0.1193 -0.5012 -0.4519
  421SOL     OW 1261   1.112   2.528   0.609  0.0834  0.1791 -0.0565
  421SOL    HW1 1262   1.105   2.530   0.506  0.5436 -1.1343 -0.6514
  421SOL    HW2 1263   1.026   2.491   0.648 -1.7384  0.9599  0.6750
  422SOL     OW 1264   0.110   0.640   1.387  0.3056  0.6416  1.0156
  422SOL    HW1 1265   0.049   0.694   1.331  0.4584 -1.5181  1.6974
  422SOL    HW2 1266   0.187   0.693   1.422 -6.0261  0.1520 -0.2624
  423SOL     OW 1267   1.127   1.087   1.138  0.0711 -0.4915 -0.0585
  423SOL    HW1 1268   1.207   1.026   1.168 -0.2438 -0.4181  0.0685
  423SOL    HW2 1269   1.119   1.083   1.039 -2.8472 -3.5509  1.2204
  424SOL     OW 1270   1.987   1.280   2.891 -0.1935 -0.7504  0.0358
  424SOL    HW1 1271   2.081   1.303   2.918 -0.3960 -1.6835 -2.6176
  424SOL    HW2 1272   1.935   1.368   2.871 -0.5457  0.7366 -1.2624
  425SOL     OW 1273   0.131   0.530   2.029  0.3541 -0.4158 -0.0507
  425SOL    HW1 1274   0.182   0.616   2.060 -0.2590 -0.6605 -0.5420
  425SOL    HW2 1275   0.031   0.534   2.055  1.3392 -0.6770  2.1430
  426SOL     OW 1276   3.099   2.684   0.024  0.1560  0.0189  0.2240
  426SOL    HW1 1277   0.028   2.599   3.111  0.8844 -0.7290  0.1586
  426SOL    HW2 1278   0.007   2.702   0.123  2.5844 -0.2713 -1.4225
  427SOL     OW 1279   1.000   1.029   2.583  0.2498  0.0337  0.0381
  427SOL    HW1 1280   1.052   1.075   2.511 -1.2793  0.0244  1.8899
  427SOL    HW2 1281   1.050   1.037   2.675  0.9580  0.9845  0.1957
  428SOL     OW 1282   2.474   1.372   1.709 -0.0531  0.3120  0.3481
  428SOL    HW1 1283   2.520   1.309   1.651 -0.2279 -1.8864  1.2035
  428SOL    HW2 1284   2.380   1.336   1.735 -3.6078 -1.9778  0.2097
  429SOL     OW 1285   2.367   2.781   0.836 -0.0272 -0.1164  0.1719
  429SOL    HW1 1286   2.400   2.757   0.745 -1.0517  2.1169 -0.1302
  429SOL    HW2 1287   2.282   2.835   0.831  3.4322 -0.0986 -0.1934
  430SOL     OW 1288   1.191   1.606   2.314 -0.0840  0.4922  0.6707
  430SOL    HW1 1289   1.132   1.633   2.391  0.8843  0.4303 -0.8498
  430SOL    HW2 1290   1.193   1.677   2.240  4.2854  3.0391  1.6729
  431SOL     OW 1291   2.878   1.550   1.544  0.2535 -0.3319 -0.1105
  431SOL    HW1 1292   2.812   1.548   1.465  1.0317 -0.1258 -1.4903
  431SOL    HW2 1293   2.885   1.641   1.589 -2.5084  2.7376 -3.7548
  432SOL     OW 1294   1.361   2.939   2.380  0.0056  0.0152 -0.2003
  432SOL    HW1 1295   1.303   2.888   2.312 -2.0950  0.8339  1.0043
  432SOL    HW2 1296   1.355   2.893   2.468 -0.1272  1.1345 -0.5798
  433SOL     OW 1297   1.898   0.267   2.283 -0.2002  0.0518  0.1939
  433SOL    HW1 1298   1.979   0.210   2.315  0.5854  0.4178 -0.3775
  433SOL    HW2 1299   1.928   0.344   2.226 -0.0165 -3.0027  1.1019
  434SOL     OW 1300   0.246   2.835   2.241  0.0354 -0.2145  0.2918
  434SOL    HW1 1301   0.224   2.745   2.274 -2.7844  0.6947 -2.0363
  434SOL    HW2 1302   0.250   2.835   2.140  1.3592  0.2612 -0.8771
  435SOL     OW 1303   0.023   2.496   0.332  0.1546 -0.1956 -0.9146
  435SOL    HW1 1304   0.088   2.491   0.410  1.1530 -1.0702 -2.0397
  435SOL    HW2 1305   3.098   2.587   0.323  0.0088 -3.4502  1.1295
  436SOL     OW 1306   0.832   0.358   1.887  0.2676  0.4873 -0.5720
  436SOL    HW1 1307   0.734   0.327   1.883  1.3427  2.5182  1.3221
  436SOL    HW2 1308   0.836   0.456   1.864  0.0860 -2.0025 -1.2445
  437SOL     OW 1309   0.424   2.958   2.625 -0.5640 -0.3384  0.0552
  437SOL    HW1 1310   0.459   2.939   2.532  0.0951  0.2470 -0.0025
  437SOL    HW2 1311   0.501   2.973   2.699  0.8031 -3.2011  1.1504
  438SOL     OW 1312   0.549   1.268   1.744 -0.5339 -0.1251  0.4606
  438SOL    HW1 1313   0.616   1.196   1.708  2.2687 -1.8807 -0.8425
  438SOL    HW2 1314   0.597   1.355   1.749 -0.3316 -2.1916  0.1140
  439SOL     OW 1315   2.122   1.074   2.304  0.0325  0.4726  0.5770
  439SOL    HW1 1316   2.200   1.129   2.276 -4.7692  0.0772  0.0139
  439SOL    HW2 1317   2.117   1.072   2.405  0.6641 -0.1392 -4.0725
  440SOL     OW 1318   0.226   0.728   0.074 -0.0949  0.8231  0.1971
  440SOL    HW1 1319   0.294   0.666   0.110 -1.9737  1.9909  0.7174
  440SOL    HW2 1320   0.135   0.728   0.126  1.0630 -1.8285  1.0942
  441SOL     OW 1321   1.042   2.434   1.243 -0.0187  0.0803  0.0999
  441SOL    HW1 1322   1.111   2.511   1.248  1.1974  2.6558  1.6663
  441SOL    HW2 1323   0.970   2.455   1.173 -2.4282 -0.4324 -0.8490
  442SOL     OW 1324   2.468   1.555   0.836  0.0591  0.1479  0.6942
  442SOL    HW1 1325   2.420   1.555   0.925 -0.9618  0.4684  1.1751
  442SOL    HW2 1326   2.493   1.653   0.806  0.2790  3.3707 -2.3236
  443SOL     OW 1327   2.745   1.974   2.387 -0.1762  0.5708 -0.5567
  443SOL    HW1 1328   2.662   2.013   2.342  3.0321  0.9094  1.7889
  443SOL    HW2 1329   2.749   1.874   2.355  0.9266 -0.9561  0.5644
  444SOL     OW 1330   1.603   1.327   0.068  0.1566 -0.1561 -0.0973
  444SOL    HW1 1331   1.703   1.309   0.083 -0.0860 -0.8788  1.8731
  444SOL    HW2 1332   1.547   1.245   0.094 -0.1097 -2.1014  3.5704
  445SOL     OW 1333   2.642   2.684   2.118  0.3743  0.0232 -0.4229
  445SOL    HW1 1334   2.622   2.607   2.052  0.1645  2.0795  3.1726
  445SOL    HW2 1335   2.711   2.742   2.069  2.2385  1.5739 -0.2620
  446SOL     OW 1336   0.226   0.946   1.226  0.6835 -0.4144  0.1784
  446SOL    HW1 1337   0.302   0.903   1.275 -2.5919  1.6141 -1.8091
  446SOL    HW2 1338   0.136   0.898   1.233 -2.4441  2.5094  0.8526
  447SOL     OW 1339   0.996   1.772   0.840  0.8520  0.2455  0.0476
  447SOL    HW1 1340   0.926   1.783   0.909 -0.1564 -0.1685 -1.1798
  447SOL    HW2 1341   0.950   1.771   0.747  1.1292  1.7677 -1.0137
  448SOL     OW 1342   1.392   0.930   1.645 -0.3570  0.1955 -0.0526
  448SOL    HW1 1343   1.369   1.007   1.709 -0.2446 -0.6143  0.8783
  448SOL    HW2 1344   1.324   0.854   1.654 -2.2963 -0.7712  1.1359
  449SOL     OW 1345   0.035   2.209   2.177  0.0036  0.0475  0.2451
  449SOL    HW1 1346   0.027   2.308   2.154  0.0889 -0.8104  1.8580
  449SOL    HW2 1347   0.078   2.161   2.098  1.3177  0.6518 -0.0590
  450SOL     OW 1348   2.799   2.071   1.738 -0.1891 -0.5321 -0.0005
  450SOL    HW1 1349   2.729   2.118   1.681 -0.8198 -0.9359 -0.2170
  450SOL    HW2 1350   2.882   2.129   1.762 -0.9661  3.0829  0.0730
  451SOL     OW 1351   2.323   0.837   1.362 -0.0839  0.2867 -0.8659
  451SOL    HW1 1352   2.248   0.779   1.404 -1.4959 -2.6866 -0.3368
  451SOL    HW2 1353   2.342   0.796   1.274 -0.1340 -1.1834  3.3284
  452SOL     OW 1354   0.530   1.262   0.933 -0.0017  0.2820 -0.3611
  452SOL    HW1 1355   0.563   1.305   0.848  0.1053 -0.5853  0.9420
  452SOL    HW2 1356   0.433   1.234   0.921 -2.8230  0.7531  0.9303
  453SOL     OW 1357   0.800   1.703   1.061  0.4674  0.4353 -0.0575
  453SOL    HW1 1358   0.780   1.788   1.122 -2.7054  2.6909  0.8828
  453SOL    HW2 1359   0.853   1.635   1.116  1.0309  1.4757  0.3542
  454SOL     OW 1360   0.538   1.590   0.016 -0.6545 -0.1439  0.3884
  454SOL    HW1 1361   0.591   1.661   3.087  0.2919 -1.9407  1.5083
  454SOL    HW2 1362   0.528   1.503   3.074 -2.1126 -1.3626 -1.6044
  455SOL     OW 1363   1.877   0.819   0.667 -0.4532 -1.1413  0.1006
  455SOL    HW1 1364   1.808   0.793   0.735  2.5137  0.4314  0.2870
  455SOL    HW2 1365   1.839   0.890   0.610 -0.0282 -0.8506  1.8708
  456SOL     OW 1366   2.129   2.630   0.937 -0.2507  0.4845  0.1234
  456SOL    HW1 1367   2.129   2.726   0.910  1.0068 -2.9405  3.7121
  456SOL    HW2 1368   2.206   2.605   0.999  1.9917  0.5579  1.5359
  457SOL     OW 1369   2.053   2.815   2.755 -0.1089 -0.2758  0.0576
  457SOL    HW1 1370   1.998   2.885   2.805 -0.5483  1.2038  0.0693
  457SOL    HW2 1371   1.987   2.766   2.688 -0.9370 -1.7763 -1.0335
  458SOL     OW 1372   2.244   0.481   0.271  0.3819  0.4041 -0.4453
  458SOL    HW1 1373   2.331   0.506   0.215  0.5964  1.0958 -1.4820
  458SOL    HW2 1374   2.159   0.521   0.235  4.4891 -0.5348 -0.7712
  459SOL     OW 1375   0.086   1.109   2.326 -0.1678 -0.3414 -0.5091
  459SOL    HW1 1376   0.020   1.164   2.384  0.2671 -1.1099 -0.3900
  459SOL    HW2 1377   0.050   1.120   2.234  0.5173 -1.1890  2.4268
  460SOL     OW 1378   0.573   0.797   0.109  0.4057  0.4117  0.3905
  460SOL    HW1 1379   0.667   0.820   0.099 -2.0871  0.8893 -2.2709
  460SOL    HW2 1380   0.551   0.710   0.060 -2.1195 -0.5161 -0.4906
  461SOL     OW 1381   2.708   2.630   0.841  0.4822  0.0297 -0.3414
  461SOL    HW1 1382   2.766   2.685   0.907  0.6739 -0.7669  0.1114
  461SOL    HW2 1383   2.626   2.592   0.894 -1.9335 -0.9242 -0.1629
  462SOL     OW 1384   0.308   0.203   1.661 -0.0852  0.5458  0.2356
  462SOL    HW1 1385   0.287   0.294   1.616  0.6565 -0.1104 -1.9361
  462SOL    HW2 1386   0.375   0.161   1.596 -1.1322 -0.3824  0.7999
  463SOL     OW 1387   1.996   2.363   2.118  0.1765 -0.1076  0.1498
  463SOL    HW1 1388   2.032   2.275   2.151  1.5197  0.7612  0.8360
  463SOL    HW2 1389   1.921   2.341   2.055 -0.0319 -1.0074  2.6268
  464SOL     OW 1390   0.470   0.098   1.470  0.3342  0.2266 -0.9231
  464SOL    HW1 1391   0.567   0.121   1.489 -1.8315  2.3082  0.2333
  464SOL    HW2 1392   0.447   0.004   1.503  0.5311  2.0155 -0.5666
  465SOL     OW 1393   0.759   0.014   1.277 -0.3953  0.3689 -0.6254
  465SOL    HW1 1394   0.856   0.040   1.264 -0.0130 -1.2842  1.6084
  465SOL    HW2 1395   0.731   0.021   1.376 -2.2342  0.1026  2.0710
  466SOL     OW 1396   1.446   1.926   1.816  0.4365 -0.1978 -0.0629
  466SOL    HW1 1397   1.472   1.859   1.885 -1.2090  0.4399  0.8559
  466SOL    HW2 1398   1.348   1.912   1.790  1.0966  0.0455  0.8665
  467SOL     OW 1399   0.156   1.793   1.303  0.4183 -0.2924 -0.2828
  467SOL    HW1 1400   0.113   1.714   1.350  0.5435 -2.2508 -0.3736
  467SOL    HW2 1401   0.251   1.773   1.269  1.1294 -1.0273 -0.0972
  468SOL     OW 1402   2.633   1.890   2.622  0.2331  0.4071 -0.1247
  468SOL    HW1 1403   2.699   1.921   2.552 -0.9036  1.6417  0.5328
  468SOL    HW2 1404   2.677   1.913   2.711 -1.5412 -0.9963  0.2156
  469SOL     OW 1405   1.179   2.217   0.634 -0.3960  0.1323  0.2784
  469SOL    HW1 1406   1.247   2.236   0.558  2.7102  0.0220 -1.0021
  469SOL    HW2 1407   1.091   2.194   0.590  2.4493 -1.2207 -0.7530
  470SOL     OW 1408   2.130   1.597   1.151 -0.2856  0.3892  0.2221
  470SOL    HW1 1409   2.123   1.689   1.189 -0.1817  0.6980  1.0905
  470SOL    HW2 1410   2.053   1.591   1.080 -0.0155  2.6343  1.0552
  471SOL     OW 1411   0.403   2.467   2.977 -0.5653 -0.4952 -0.2803
  471SOL    HW1 1412   0.311   2.508   2.987  1.1470  0.5925 -1.8687
  471SOL    HW2 1413   0.479   2.514   3.024  0.1041 -0.0959 -0.7208
  472SOL     OW 1414   2.736   1.948   1.970  0.2435 -0.4927 -0.4236
  472SOL    HW1 1415   2.756   1.996   1.885 -0.3373  2.3228 -0.1255
  472SOL    HW2 1416   2.740   2.016   2.043  0.4237  1.5385 -0.6702
  473SOL     OW 1417   1.245   3.021   0.905 -0.2734  0.1328  0.7857
  473SOL    HW1 1418   1.265   3.078   0.822  2.0857  4.0304  1.0609
  473SOL    HW2 1419   1.158   3.045   0.945  4.1268 -0.7024  1.8036
  474SOL     OW 1420   2.899   0.059   1.232  0.4240  0.3006 -0.3632
  474SOL    HW1 1421   2.844   0.132   1.182 -1.4683 -1.0135 -3.0027
  474SOL    HW2 1422   2.993   0.091   1.258  2.2580 -2.0670  0.0841
  475SOL     OW 1423   1.740   2.726   1.655  0.8536 -0.5707 -0.4551
  475SOL    HW1 1424   1.830   2.760   1.618  0.7877 -0.6166  0.7690
  475SOL    HW2 1425   1.675   2.712   1.577  1.6898  0.0956  0.0974
  476SOL     OW 1426   0.221   0.428   0.891 -0.0540  0.4098 -0.6006
  476SOL    HW1 1427   0.268   0.517   0.910  0.9600 -2.9090 -2.0237
  476SOL    HW2 1428   0.206   0.377   0.978  1.4067 -0.3113  0.1652
  477SOL     OW 1429   0.776   2.308   0.893  0.8202 -0.6821  0.1965
  477SOL    HW1 1430   0.759   2.265   0.980  0.9735 -1.1160 -0.9017
  477SOL    HW2 1431   0.842   2.254   0.841 -2.6062  0.5177 -0.0241
  478SOL     OW 1432   0.590   2.501   2.736  0.3463  0.0463 -0.3539
  478SOL    HW1 1433   0.565   2.408   2.766  0.6459 -1.6865  0.8937
  478SOL    HW2 1434   0.624   2.558   2.815  2.1668  0.7460 -1.7349
  479SOL     OW 1435   0.509   0.705   2.078 -0.2818  0.2102  0.1260
  479SOL    HW1 1436   0.408   0.717   2.074 -0.5633 -0.3011  1.9699
  479SOL    HW2 1437   0.560   0.775   2.133  1.1288  0.0571  0.3874
  480SOL     OW 1438   0.060   2.064   0.093 -0.2881 -0.5229  0.5237
  480SOL    HW1 1439   0.023   2.146   0.042 -0.5628 -2.3591 -2.6338
  480SOL    HW2 1440   0.103   1.993   0.036  0.5321 -1.3063  0.9207
  481SOL     OW 1441   1.490   2.117   2.081  0.0034  0.1356  0.3381
  481SOL    HW1 1442   1.574   2.061   2.078  1.0264  0.0004  2.0423
  481SOL    HW2 1443   1.484   2.193   2.012  0.1381  0.5870 -1.2845
  482SOL     OW 1444   1.510   2.242   2.698 -0.2472  0.0065  0.0677
  482SOL    HW1 1445   1.408   2.258   2.698 -0.1886  0.3181  0.4400
  482SOL    HW2 1446   1.535   2.178   2.624 -0.0172  0.2955  0.4773
  483SOL     OW 1447   0.893   2.471   2.802  0.1994  0.2824  0.6341
  483SOL    HW1 1448   0.881   2.563   2.760 -1.1445 -2.5077  0.3810
  483SOL    HW2 1449   0.983   2.456   2.843 -2.4863  1.7546 -1.8966
  484SOL     OW 1450   0.042   0.075   1.040 -0.4707 -0.6060 -0.3108
  484SOL    HW1 1451   3.070   0.068   0.991 -2.5614 -1.2116  1.2508
  484SOL    HW2 1452   0.097   3.114   1.005  0.0856 -0.0223  1.4701
  485SOL     OW 1453   1.942   0.688   0.450  0.5672  0.3614 -0.1350
  485SOL    HW1 1454   1.904   0.733   0.534 -0.3752  0.7019 -0.7713
  485SOL    HW2 1455   2.014   0.621   0.473  0.1071  0.4439  3.3356
  486SOL     OW 1456   1.757   2.705   2.110  0.6565  0.1931  0.7116
  486SOL    HW1 1457   1.834   2.771   2.095  0.7954 -0.5777 -5.9932
  486SOL    HW2 1458   1.674   2.745   2.155 -1.7302 -0.8398 -1.4493
  487SOL     OW 1459   1.685   2.286   0.697 -0.1160 -0.1067 -0.9891
  487SOL    HW1 1460   1.736   2.199   0.709 -0.8458 -0.1137 -0.6309
  487SOL    HW2 1461   1.595   2.284   0.742  3.4399  0.6534 -0.6659
  488SOL     OW 1462   2.213   0.879   0.083  0.4869  0.2299  0.5160
  488SOL    HW1 1463   2.156   0.880   0.164  2.3025 -0.1036 -6.2154
  488SOL    HW2 1464   2.294   0.818   0.090 -1.1064  1.3324  1.7674
  489SOL     OW 1465   2.394   0.225   0.660 -0.0431 -0.1833 -0.5099
  489SOL    HW1 1466   2.386   0.154   0.731 -0.6591  3.4687 -0.0384
  489SOL    HW2 1467   2.317   0.211   0.596  0.1303 -1.2918  2.3346
  490SOL     OW 1468   1.749   2.800   2.972 -0.7089  0.3391 -0.2787
  490SOL    HW1 1469   1.805   2.783   3.056  1.6088 -4.1462  0.5083
  490SOL    HW2 1470   1.737   2.712   2.920 -0.5316 -0.7758 -2.5812
  491SOL     OW 1471   0.998   0.550   1.188 -0.0308  0.0539  0.4091
  491SOL    HW1 1472   1.098   0.559   1.151  0.7652  0.1854  0.3671
  491SOL    HW2 1473   0.980   0.462   1.235  1.7248 -1.0941 -2.4985
  492SOL     OW 1474   1.705   0.238   0.132 -0.4631  0.1426  0.5249
  492SOL    HW1 1475   1.670   0.156   0.085  1.9920  0.8721 -1.0394
  492SOL    HW2 1476   1.798   0.263   0.100 -0.5213  4.0556 -2.2032
  493SOL     OW 1477   1.947   2.224   2.845 -0.1334  0.3032  0.1310
  493SOL    HW1 1478   1.855   2.179   2.874 -3.7451 -3.6692 -1.0917
  493SOL    HW2 1479   1.929   2.264   2.754 -3.6214  1.8126  1.0131
  494SOL     OW 1480   0.301   1.164   0.796  0.2537  0.0061  0.7248
  494SOL    HW1 1481   0.299   1.204   0.703 -0.6473 -0.5501 -0.6280
  494SOL    HW2 1482   0.203   1.152   0.833 -0.9930 -1.4994  1.1220
  495SOL     OW 1483   3.097   3.023   1.526 -0.2006  0.4571  0.4154
  495SOL    HW1 1484   3.108   3.117   1.486  0.4047 -0.1023  0.1790
  495SOL    HW2 1485   3.099   3.017   1.627 -0.1746 -2.4218 -0.9498
  496SOL     OW 1486   2.609   2.853   1.673  0.3641 -0.2715  0.5747
  496SOL    HW1 1487   2.643   2.898   1.588 -0.3719 -2.3722  1.0191
  496SOL    HW2 1488   2.636   2.906   1.755 -0.4158  4.1135 -1.0554
  497SOL     OW 1489   1.482   1.654   2.573  0.2009 -0.0808 -0.6400
  497SOL    HW1 1490   1.450   1.614   2.665 -3.6711  1.0780 -0.7376
  497SOL    HW2 1491   1.484   1.581   2.503  0.6095  0.1374  0.4302
  498SOL     OW 1492   0.403   1.999   0.685 -0.9637 -0.2596 -0.0774
  498SOL    HW1 1493   0.392   1.917   0.624 -0.6738 -1.7287 -1.0223
  498SOL    HW2 1494   0.314   2.022   0.735 -1.0189  1.8886 -0.4131
  499SOL     OW 1495   0.053   1.540   1.497  0.4524 -0.0633 -0.0802
  499SOL    HW1 1496   0.122   1.466   1.483  3.8509 -0.9853 -0.2142
  499SOL    HW2 1497   3.075   1.507   1.495  0.2015  0.6133 -1.1413
  500SOL     OW 1498   1.384   2.524   0.377  0.0864 -0.2170  0.4582
  500SOL    HW1 1499   1.374   2.425   0.390  2.3324 -0.3406 -1.8265
  500SOL    HW2 1500   1.371   2.576   0.467 -0.3545  1.1808  0.8785
  501SOL     OW 1501   2.202   2.528   1.194  0.4423  0.0003 -0.0960
  501SOL    HW1 1502   2.202   2.568   1.289  2.1315 -0.0320 -1.5258
  501SOL    HW2 1503   2.200   2.425   1.196 -0.1041 -0.4089 -0.5280
  502SOL     OW 1504   0.035   0.839   1.743 -0.4769 -0.4109  0.2837
  502SOL    HW1 1505   0.125   0.891   1.731 -1.4091  1.5552 -0.5384
  502SOL    HW2 1506   0.044   0.736   1.737  0.7108 -2.1474 -3.2034
  503SOL     OW 1507   2.287   0.119   1.961  0.4067  0.3587 -0.3423
  503SOL    HW1 1508   2.375   0.103   2.008 -0.9186  1.4909  0.6356
  503SOL    HW2 1509   2.276   0.212   1.938 -1.5854 -3.0954  1.5174
  504SOL     OW 1510   1.993   0.716   1.983 -0.1171 -0.3219  0.0811
  504SOL    HW1 1511   1.921   0.741   1.915  0.3934 -0.1793 -0.8339
  504SOL    HW2 1512   2.020   0.798   2.036  0.3896  1.2119  1.4818
  505SOL     OW 1513   1.253   0.122   2.532 -0.0424 -0.0862 -0.4551
  505SOL    HW1 1514   1.241   0.048   2.600 -1.5463  1.1320  2.4053
  505SOL    HW2 1515   1.334   0.105   2.476  1.7135 -1.7010  2.0114
  506SOL     OW 1516   0.551   0.508   1.583 -0.1658  0.1409  0.1991
  506SOL    HW1 1517   0.607   0.513   1.500 -0.8050  2.2346 -0.4519
  506SOL    HW2 1518   0.581   0.434   1.641  0.4839  2.7474 -0.9084
  507SOL     OW 1519   1.866   3.006   2.888 -0.5001  0.7757  0.3613
  507SOL    HW1 1520   1.804   3.084   2.870  1.3751 -0.5906  0.9674
  507SOL    HW2 1521   1.806   2.930   2.922 -1.5176  1.4523 -1.6380
  508SOL     OW 1522   2.422   0.338   2.714  0.0112 -0.1292 -0.0149
  508SOL    HW1 1523   2.441   0.276   2.790 -0.2761  2.9065 -3.2356
  508SOL    HW2 1524   2.466   0.427   2.733  2.0563  0.1412 -0.5607
  509SOL     OW 1525   1.003   1.276   1.731  0.4728 -0.7975 -0.2282
  509SOL    HW1 1526   0.942   1.356   1.747 -3.9740  1.1899 -0.2516
  509SOL    HW2 1527   1.073   1.289   1.657  1.4947 -1.3281  2.6545
  510SOL     OW 1528   3.043   0.923   0.983  0.0469 -0.0978 -0.3093
  510SOL    HW1 1529   3.048   0.856   0.906  1.6011 -2.2292 -2.7256
  510SOL    HW2 1530   2.944   0.949   0.992  0.4723  1.0795  0.6292
  511SOL     OW 1531   1.642   1.815   0.963  0.1669 -0.7078  0.3992
  511SOL    HW1 1532   1.629   1.850   1.057 -0.3404 -2.1416 -0.9993
  511SOL    HW2 1533   1.600   1.723   0.955  1.6181 -0.4544  0.2884
  512SOL     OW 1534   0.778   1.318   0.282 -0.3391  0.1412 -0.1261
  512SOL    HW1 1535   0.685   1.303   0.244 -1.8900 -3.7264 -0.7365
  512SOL    HW2 1536   0.783   1.345   0.381 -0.3535  0.8354 -0.7693
  513SOL     OW 1537   0.178   2.511   0.553  0.1012  0.0401  0.5535
  513SOL    HW1 1538   0.142   2.603   0.584  1.6252  0.5658 -0.4175
  513SOL    HW2 1539   0.279   2.510   0.567  2.0242  2.9510  1.0710
  514SOL     OW 1540   0.189   1.896   3.053  0.0279 -0.1102 -0.4521
  514SOL    HW1 1541   0.279   1.920   3.092 -1.3433  1.8543 -1.0291
  514SOL    HW2 1542   0.191   1.805   3.009  0.0665  1.4038  3.4572
  515SOL     OW 1543   2.380   0.737   0.379  0.0527 -0.5233  0.2650
  515SOL    HW1 1544   2.309   0.683   0.429 -0.0635 -0.3974 -0.4534
  515SOL    HW2 1545   2.368   0.724   0.282  3.4578  1.7733  2.4492
  516SOL     OW 1546   2.235   2.687   1.402  0.3216  0.3334 -0.8304
  516SOL    HW1 1547   2.311   2.673   1.471  2.0582  0.1211  0.9630
  516SOL    HW2 1548   2.243   2.770   1.347  2.6795  1.2825 -3.2378
  517SOL     OW 1549   1.303   1.595   0.031  0.2534 -0.5513 -0.0206
  517SOL    HW1 1550   1.402   1.581   0.018  1.1069  1.1615  0.9695
  517SOL    HW2 1551   1.296   1.668   0.103 -2.1094  0.3688 -2.0145
  518SOL     OW 1552   1.241   0.728   1.724  0.0239 -0.1990  0.1085
  518SOL    HW1 1553   1.165   0.736   1.792  0.9523 -2.8061  2.5215
  518SOL    HW2 1554   1.315   0.661   1.744  1.4427  3.1421 -0.7880
  519SOL     OW 1555   2.856   2.053   0.806  0.0964  0.0541  0.2102
  519SOL    HW1 1556   2.799   1.982   0.855  3.0405  1.6853 -0.7141
  519SOL    HW2 1557   2.817   2.073   0.717  2.3166 -0.4682  0.4698
  520SOL     OW 1558   2.241   2.236   1.798  0.0737  0.0021 -0.1075
  520SOL    HW1 1559   2.184   2.163   1.837  2.2020  0.7528 -0.4900
  520SOL    HW2 1560   2.188   2.277   1.720 -1.3795 -3.4574  0.3137
  521SOL     OW 1561   0.931   3.066   2.542  0.1809  0.4595  0.0908
  521SOL    HW1 1562   0.972   0.039   2.546  1.5369  2.6652  2.1008
  521SOL    HW2 1563   0.957   3.016   2.460  0.6613 -1.8149  2.6078
  522SOL     OW 1564   2.718   0.203   2.538  0.4702 -0.0259  0.1406
  522SOL    HW1 1565   2.767   0.242   2.455  0.0700 -1.1589 -0.0184
  522SOL    HW2 1566   2.626   0.164   2.513 -0.5655 -0.8889 -1.9562
  523SOL     OW 1567   1.560   2.397   1.461 -0.0360  0.4071 -0.0202
  523SOL    HW1 1568   1.599   2.488   1.489  2.5632  0.4684 -0.6641
  523SOL    HW2 1569   1.630   2.338   1.414  1.9595 -0.3619 -0.7617
  524SOL     OW 1570   1.697   2.126   2.858 -0.1742  0.5123 -0.3302
  524SOL    HW1 1571   1.619   2.171   2.806  0.7055 -1.6197 -0.4014
  524SOL    HW2 1572   1.727   2.035   2.825  2.0215 -1.2929  0.3254
  525SOL     OW 1573   3.113   0.743   0.271  0.0245 -0.3192  0.5615
  525SOL    HW1 1574   0.055   0.805   0.328  2.6181  0.2706  1.7144
  525SOL    HW2 1575   0.009   0.647   0.294 -0.1712  0.4897 -3.0436
  526SOL     OW 1576   0.877   3.040   0.820 -0.2735 -0.1340 -0.1703
  526SOL    HW1 1577   0.929   3.116   0.777  0.4218  0.9815 -0.9004
  526SOL    HW2 1578   0.779   3.062   0.827 -1.1330 -1.0677 -3.7627
  527SOL     OW 1579   2.700   1.580   0.430 -0.1090  0.1911 -0.2723
  527SOL    HW1 1580   2.726   1.632   0.517  2.4736 -2.1892 -0.7291
  527SOL    HW2 1581   2.777   1.541   0.384 -0.7578  1.6198 -0.6639
  528SOL     OW 1582   0.656   0.873   2.282 -0.1728  0.3777  0.1610
  528SOL    HW1 1583   0.665   0.890   2.382  1.0060  0.5046 -1.1539
  528SOL    HW2 1584   0.598   0.944   2.243  1.1366  0.1594  1.0721
  529SOL     OW 1585   1.203   1.706   2.902  0.5456  0.2708 -0.4600
  529SOL    HW1 1586   1.187   1.681   2.997  0.4112  0.9473 -2.2838
  529SOL    HW2 1587   1.264   1.637   2.856 -0.6478 -2.8431 -0.6981
  530SOL     OW 1588   1.733   1.300   2.441  0.1313  0.0833  0.3263
  530SOL    HW1 1589   1.636   1.326   2.429  0.9998 -1.3375 -1.1443
  530SOL    HW2 1590   1.745   1.207   2.486 -0.8286  0.5694 -2.2440
  531SOL     OW 1591   0.721   2.229   2.859 -0.2913 -0.3594 -0.3657
  531SOL    HW1 1592   0.623   2.242   2.835 -1.0415  3.4624 -1.0452
  531SOL    HW2 1593   0.772   2.303   2.820 -1.2089 -2.5891 -0.3223
  532SOL     OW 1594   2.488   0.964   0.499 -0.4038  0.4531 -0.0917
  532SOL    HW1 1595   2.496   1.031   0.422 -2.0680  0.8122 -2.7334
  532SOL    HW2 1596   2.417   0.900   0.471 -1.5940 -0.0228  3.6200
  533SOL     OW 1597   0.081   0.548   1.765 -0.4478  0.1282 -0.0500
  533SOL    HW1 1598   0.145   0.492   1.707 -2.4483 -0.0486 -2.3152
  533SOL    HW2 1599   0.106   0.544   1.863 -1.2651 -1.5910  1.8980
  534SOL     OW 1600   1.588   0.024   0.027 -0.4627  0.3264 -0.2387
  534SOL    HW1 1601   1.495   0.065   0.035 -0.3661 -1.7394 -0.7574
  534SOL    HW2 1602   1.580   3.076   3.068  0.2811  0.1229  0.5489
  535SOL     OW 1603   0.643   0.284   0.064  0.0264 -0.2397 -0.4890
  535SOL    HW1 1604   0.590   0.199   0.087 -3.2682  3.0348  0.4176
  535SOL    HW2 1605   0.589   0.347   0.002 -0.8076  1.0699 -2.0883
  536SOL     OW 1606   0.345   1.704   1.820 -0.2088  0.0680 -0.0847
  536SOL    HW1 1607   0.302   1.756   1.892 -1.0277 -0.8878 -1.8852
  536SOL    HW2 1608   0.412   1.637   1.854 -1.1627 -2.0959 -2.1877
  537SOL     OW 1609   0.444   2.571   1.920  0.3227  0.1925  0.2851
  537SOL    HW1 1610   0.393   2.519   1.852  0.4832 -1.8345  0.6439
  537SOL    HW2 1611   0.463   2.523   2.008  1.1577 -0.5875  0.8494
  538SOL     OW 1612   0.004   1.704   0.108  0.1203  0.5421  0.0043
  538SOL    HW1 1613   0.099   1.712   0.078  1.4435 -0.3224 -0.8925
  538SOL    HW2 1614   3.115   1.668   0.204 -0.8230 -2.1473  1.9011
  539SOL     OW 1615   2.731   0.661   2.604  0.0843  0.1668 -0.2689
  539SOL    HW1 1616   2.728   0.603   2.520  0.5624  1.2015 -0.7708
  539SOL    HW2 1617   2.826   0.677   2.637 -1.6398  1.0599  1.1755
  540SOL     OW 1618   1.816   0.598   2.494  0.7729 -0.2530  0.0722
  540SOL    HW1 1619   1.844   0.695   2.484 -0.3048 -1.4925  1.6677
  540SOL    HW2 1620   1.888   0.527   2.493  1.5817 -1.2856  1.1822
  541SOL     OW 1621   0.745   0.007   1.819 -0.3211 -0.4459  0.5881
  541SOL    HW1 1622   0.668   3.093   1.874  0.4798 -1.4865 -1.3464
  541SOL    HW2 1623   0.820   0.028   1.883 -1.9210  0.3361 -1.5203
  542SOL     OW 1624   1.858   2.657   2.628 -0.0270 -0.3913 -0.4090
  542SOL    HW1 1625   1.775   2.709   2.594 -1.2361  0.0693  0.9717
  542SOL    HW2 1626   1.835   2.558   2.637 -2.5048  0.7559  2.5823
  543SOL     OW 1627   0.606   3.019   0.806  0.1821  0.6710  0.1179
  543SOL    HW1 1628   0.605   2.939   0.872 -2.1975 -0.1800 -0.3219
  543SOL    HW2 1629   0.552   3.095   0.847  3.3460  0.1198  0.0287
  544SOL     OW 1630   2.540   1.612   2.056  0.1295 -0.2228  0.0882
  544SOL    HW1 1631   2.607   1.564   1.995  3.5579  3.0824  1.3544
  544SOL    HW2 1632   2.444   1.613   2.017 -1.6547 -0.3500 -0.8022
  545SOL     OW 1633   1.931   1.799   1.085 -0.2857  0.1698  0.5286
  545SOL    HW1 1634   1.919   1.779   1.184  0.7785 -0.4088 -0.5064
  545SOL    HW2 1635   1.856   1.765   1.031  0.6839 -1.0616 -0.4470
  546SOL     OW 1636   0.281   0.219   2.290  0.3238  0.0712  0.3098
  546SOL    HW1 1637   0.248   0.241   2.195 -2.2382  0.5703  2.4798
  546SOL    HW2 1638   0.273   0.295   2.356 -1.1288  0.5378  1.3350
  547SOL     OW 1639   1.251   0.571   1.095  0.6044  0.1422  0.0096
  547SOL    HW1 1640   1.319   0.597   1.168  2.1413 -0.2553  1.1538
  547SOL    HW2 1641   1.271   0.624   1.010  2.6301  0.3543 -2.3841
  548SOL     OW 1642   1.474   2.526   2.819  0.0315  0.3388 -0.0371
  548SOL    HW1 1643   1.459   2.427   2.790 -2.8215  0.6698  1.4559
  548SOL    HW2 1644   1.488   2.584   2.736 -0.0512 -1.6629 -1.1354
  549SOL     OW 1645   2.483   0.110   2.952  0.2302  0.0039  0.3925
  549SOL    HW1 1646   2.418   0.177   2.993 -0.5416 -1.1786  1.8685
  549SOL    HW2 1647   2.568   0.102   3.004  0.3138  0.2897 -0.0521
  550SOL     OW 1648   2.699   2.134   0.518  0.3561 -0.1634 -0.3012
  550SOL    HW1 1649   2.604   2.087   0.517 -0.1862  0.2046 -1.8742
  550SOL    HW2 1650   2.770   2.075   0.479  1.6474 -0.7165 -1.2060
  551SOL     OW 1651   1.176   2.863   1.952 -0.4409  0.4211 -0.2099
  551SOL    HW1 1652   1.095   2.826   1.906 -1.8203  0.6857 -1.0966
  551SOL    HW2 1653   1.182   2.962   1.938 -0.4672  0.6239  1.2329
  552SOL     OW 1654   2.948   2.244   2.671 -0.2456  0.0709  0.0932
  552SOL    HW1 1655   2.949   2.186   2.587 -0.0247  3.4584  1.3203
  552SOL    HW2 1656   2.862   2.236   2.723  2.3410  0.3854 -0.2498
  553SOL     OW 1657   0.160   2.661   0.962 -0.2213 -0.5701 -0.1205
  553SOL    HW1 1658   0.260   2.661   0.942  2.1090 -0.4604 -4.1406
  553SOL    HW2 1659   0.128   2.566   0.970  0.6732  0.7136 -0.0049
  554SOL     OW 1660   1.960   1.892   1.783 -0.4671 -0.2224 -0.2681
  554SOL    HW1 1661   2.039   1.919   1.848 -0.3644  1.0232  3.7474
  554SOL    HW2 1662   1.901   1.970   1.751 -0.1768  1.5292 -0.2515
  555SOL     OW 1663   1.618   2.148   1.773 -0.1784  0.1314 -0.0210
  555SOL    HW1 1664   1.555   2.074   1.788 -0.1506 -0.5786 -0.6466
  555SOL    HW2 1665   1.577   2.231   1.815  1.1628 -1.2247 -0.7841
  556SOL     OW 1666   1.473   1.594   0.938 -0.5481  0.1059 -0.1509
  556SOL    HW1 1667   1.419   1.517   0.979 -0.2191 -1.4269  1.4051
  556SOL    HW2 1668   1.419   1.657   0.881  3.3966 -2.9690  1.8756
  557SOL     OW 1669   1.401   2.853   1.651 -0.1587  0.6437 -0.3304
  557SOL    HW1 1670   1.399   2.811   1.744 -2.5393  2.1759 -1.5288
  557SOL    HW2 1671   1.457   2.935   1.654  0.7669 -0.2247  1.0208
  558SOL     OW 1672   0.232   0.084   1.890 -0.4961 -0.7460  0.3521
  558SOL    HW1 1673   0.263   0.145   1.969 -0.3151 -0.3204 -0.0690
  558SOL    HW2 1674   0.263   0.127   1.804 -4.3726 -1.4461 -1.9688
  559SOL     OW 1675   2.253   3.066   0.593 -0.0244  0.2837 -0.0812
  559SOL    HW1 1676   2.295   3.078   0.685  0.2702 -0.9703  1.1036
  559SOL    HW2 1677   2.153   3.079   0.599  1.1947 -0.2239  2.4771
  560SOL     OW 1678   1.427   2.319   0.799  0.0944  0.6228 -0.7095
  560SOL    HW1 1679   1.346   2.325   0.739  0.2375 -0.0841  0.4611
  560SOL    HW2 1680   1.448   2.409   0.836 -2.8628 -0.9274 -1.3659
  561SOL     OW 1681   0.954   0.299   0.511 -0.2824  0.2000  0.2467
  561SOL    HW1 1682   1.057   0.321   0.505  0.9989 -1.0637  0.0350
  561SOL    HW2 1683   0.915   0.272   0.423  1.4937 -0.1819  3.4669
  562SOL     OW 1684   0.337   1.376   2.682 -0.3147 -0.2728  0.3636
  562SOL    HW1 1685   0.243   1.335   2.687  0.1995  1.9205 -1.5605
  562SOL    HW2 1686   0.410   1.303   2.696 -2.2345 -1.2933  0.9825
  563SOL     OW 1687   1.526   2.233   2.325 -0.0813 -0.1840  0.0056
  563SOL    HW1 1688   1.503   2.197   2.234  0.3982  0.3981  1.6430
  563SOL    HW2 1689   1.545   2.160   2.395  0.7041 -1.0724  2.3573
  564SOL     OW 1690   2.784   1.010   1.015  0.3246 -0.2773  0.0265
  564SOL    HW1 1691   2.782   1.108   1.043 -0.1792 -1.2638  3.0369
  564SOL    HW2 1692   2.693   0.978   0.974  0.2751 -3.6079 -1.2775
  565SOL     OW 1693   0.659   1.018   3.037 -0.1480 -0.5270 -0.0098
  565SOL    HW1 1694   0.598   0.984   2.961 -0.5521  1.5829  0.2071
  565SOL    HW2 1695   0.747   0.972   3.045  1.2123  1.4380  0.7255
  566SOL     OW 1696   2.628   3.087   2.709 -0.4696  0.1496  0.1299
  566SOL    HW1 1697   2.557   3.092   2.777 -0.9214  1.1132  1.1774
  566SOL    HW2 1698   2.594   3.111   2.617  0.0644 -0.9377 -0.8814
  567SOL     OW 1699   1.422   0.910   0.908 -0.0762 -0.5113 -0.5464
  567SOL    HW1 1700   1.527   0.899   0.914  1.5570 -1.6889  0.4320
  567SOL    HW2 1701   1.396   1.005   0.895 -0.0339 -1.7759  1.7646
  568SOL     OW 1702   1.772   1.870   2.775 -0.2872  0.1666 -0.4592
  568SOL    HW1 1703   1.738   1.836   2.682 -1.1075 -1.4379 -0.3047
  568SOL    HW2 1704   1.719   1.826   2.853  0.2687 -1.5879  1.4740
  569SOL     OW 1705   2.248   1.369   2.985  0.0674 -0.4854 -0.1609
  569SOL    HW1 1706   2.250   1.291   3.055 -1.3212 -1.0329 -0.8668
  569SOL    HW2 1707   2.315   1.360   2.910  0.5618  2.6016  0.6725
  570SOL     OW 1708   0.132   2.467   1.857 -0.2698 -0.0760 -0.6020
  570SOL    HW1 1709   0.206   2.400   1.826  0.2354  0.5208  0.6732
  570SOL    HW2 1710   0.102   2.537   1.789 -0.4526 -0.6103 -0.1800
  571SOL     OW 1711   2.911   1.850   1.601 -0.5327  0.0198  0.3833
  571SOL    HW1 1712   2.912   1.839   1.500  0.0721 -0.8688  2.4726
  571SOL    HW2 1713   2.903   1.952   1.627 -0.9363  1.2331  3.5016
  572SOL     OW 1714   1.654   1.954   0.349 -0.2453 -0.5115  0.1017
  572SOL    HW1 1715   1.610   1.966   0.439  0.1060 -1.4679  1.9142
  572SOL    HW2 1716   1.732   2.019   0.333  1.5386  1.6661 -1.7586
  573SOL     OW 1717   1.823   2.183   0.324  0.2879 -0.0601  0.1497
  573SOL    HW1 1718   1.863   2.189   0.230 -1.1367 -1.5770 -2.7935
  573SOL    HW2 1719   1.773   2.271   0.354 -1.4684  3.5197  0.4380
  574SOL     OW 1720   0.899   0.300   1.251 -0.0014 -0.3745  0.1743
  574SOL    HW1 1721   0.916   0.230   1.325 -0.2322  0.2996  1.4835
  574SOL    HW2 1722   0.892   0.260   1.157 -1.7484  2.7427 -0.2727
  575SOL     OW 1723   0.700   0.852   1.779 -0.0791  0.1973  0.6800
  575SOL    HW1 1724   0.734   0.947   1.751  1.8339  2.4398 -0.2210
  575SOL    HW2 1725   0.648   0.853   1.861  2.9740 -1.7141 -3.7271
  576SOL     OW 1726   2.663   0.362   1.729 -0.0498  0.4413  0.3436
  576SOL    HW1 1727   2.760   0.338   1.720 -0.9714 -0.4845 -0.8282
  576SOL    HW2 1728   2.619   0.304   1.660  0.7175 -0.7947  1.3714
  577SOL     OW 1729   1.162   1.139   2.410 -0.1459 -0.0104 -0.2423
  577SOL    HW1 1730   1.210   1.194   2.483  0.4884 -0.4870  0.1296
  577SOL    HW2 1731   1.221   1.058   2.382  0.7712 -2.2787 -0.6846
  578SOL     OW 1732   2.083   1.344   2.431 -0.2258  0.3840 -0.0672
  578SOL    HW1 1733   2.004   1.395   2.469  0.1289  0.0153 -0.1381
  578SOL    HW2 1734   2.093   1.340   2.332  1.9542  0.2545 -1.4657
  579SOL     OW 1735   1.332   2.245   1.497 -0.1882 -0.2886 -0.4360
  579SOL    HW1 1736   1.385   2.165   1.533 -0.4436 -1.7324  0.3325
  579SOL    HW2 1737   1.398   2.317   1.478 -0.0093  0.0841 -0.0644
  580SOL     OW 1738   1.391   2.233   0.469 -0.0143  0.2096 -0.2264
  580SOL    HW1 1739   1.419   2.165   0.541 -0.4249  0.2889  0.0110
  580SOL    HW2 1740   1.398   2.199   0.371  2.3814  0.8602  1.3301
  581SOL     OW 1741   1.287   0.866   2.074 -0.5642 -0.0374 -0.5907
  581SOL    HW1 1742   1.205   0.841   2.019  1.7478 -0.0954 -1.2387
  581SOL    HW2 1743   1.271   0.897   2.170 -1.4158  1.9636  0.4201
  582SOL     OW 1744   0.788   1.117   1.654 -0.5706 -0.2527  0.1888
  582SOL    HW1 1745   0.864   1.180   1.680  1.4921 -0.0813 -1.7052
  582SOL    HW2 1746   0.808   1.085   1.559  0.7660 -0.4716 -1.9374
  583SOL     OW 1747   1.077   1.138   1.971  0.3103  0.5436 -0.3361
  583SOL    HW1 1748   1.174   1.109   1.969 -1.5857  2.1401  0.5909
  583SOL    HW2 1749   1.043   1.172   1.878  1.6433  2.8205  0.7380
  584SOL     OW 1750   2.293   2.316   1.014  0.4516 -0.0218  0.5264
  584SOL    HW1 1751   2.287   2.346   0.919 -1.0071  1.1840  2.6982
  584SOL    HW2 1752   2.201   2.303   1.053 -0.4211  1.0755  1.0560
  585SOL     OW 1753   2.112   0.005   2.723 -0.2472 -0.9592 -0.2075
  585SOL    HW1 1754   2.035   3.062   2.745 -1.2665  0.4054 -0.4116
  585SOL    HW2 1755   2.194   3.085   2.769 -1.0663  1.1302 -1.3496
  586SOL     OW 1756   3.072   2.381   0.662 -0.2794 -0.7531  0.1769
  586SOL    HW1 1757   2.986   2.425   0.638  0.7536  0.2635  0.9851
  586SOL    HW2 1758   0.038   2.425   0.619 -0.3488  1.4542  1.6178
  587SOL     OW 1759   1.589   1.772   2.953  0.6300 -0.5550  0.2825
  587SOL    HW1 1760   1.512   1.834   2.980 -3.9832 -0.8552  1.1682
  587SOL    HW2 1761   1.618   1.715   3.032 -0.1676  2.6031 -1.8483
  588SOL     OW 1762   0.122   0.326   1.119  0.3804  0.3281  0.0240
  588SOL    HW1 1763   0.193   0.337   1.194  3.4014  0.2859  1.0620
  588SOL    HW2 1764   0.100   0.227   1.106  1.6259  0.7649  1.8521
  589SOL     OW 1765   1.214   0.716   0.868  0.5240 -0.0404 -0.3220
  589SOL    HW1 1766   1.294   0.783   0.877 -1.1123  0.4411 -0.2159
  589SOL    HW2 1767   1.135   0.750   0.811  0.6646 -1.7547 -0.8634
  590SOL     OW 1768   1.345   1.144   3.075  0.3532  0.5636  0.1029
  590SOL    HW1 1769   1.389   1.114   0.044 -0.1801  0.9418  0.4027
  590SOL    HW2 1770   1.277   1.220   3.088 -0.3326  0.7426 -0.3886
  591SOL     OW 1771   2.593   2.399   2.562 -0.2198  0.2065  0.2618
  591SOL    HW1 1772   2.501   2.358   2.586 -2.6961  1.4049 -1.9212
  591SOL    HW2 1773   2.588   2.451   2.472 -1.0367 -0.3454 -1.0955
  592SOL     OW 1774   1.729   2.208   1.309 -0.4821  1.0453 -0.3214
  592SOL    HW1 1775   1.718   2.178   1.208  3.6663 -0.7717 -2.3971
  592SOL    HW2 1776   1.751   2.126   1.366 -1.3835 -2.7731  3.2772
  593SOL     OW 1777   0.444   0.087   0.897 -0.2047 -0.3616  0.4833
  593SOL    HW1 1778   0.405   0.089   0.993 -3.0128  2.9534 -3.1326
  593SOL    HW2 1779   0.382   0.136   0.830 -0.0699 -0.4073  1.7056
  594SOL     OW 1780   2.760   0.918   2.329 -0.3590 -0.0241 -0.4669
  594SOL    HW1 1781   2.842   0.882   2.367 -4.0968  0.7840 -2.5184
  594SOL    HW2 1782   2.684   0.850   2.341  0.3781 -0.5411  1.8725
  595SOL     OW 1783   0.541   2.798   0.968  0.3112 -0.0754 -0.2307
  595SOL    HW1 1784   0.495   2.711   0.971  0.9531  4.6657 -0.5084
  595SOL    HW2 1785   0.572   2.832   1.057 -0.0824 -1.4026  1.0609
  596SOL     OW 1786   3.057   1.223   1.477  0.3040  0.0077 -0.6058
  596SOL    HW1 1787   3.018   1.259   1.563 -1.1167  1.9190  0.4528
  596SOL    HW2 1788   3.022   1.129   1.461  3.3110 -0.1692  2.1836
  597SOL     OW 1789   1.491   1.736   0.280 -0.4075 -0.0101  0.1275
  597SOL    HW1 1790   1.542   1.817   0.318  1.1173  0.8242 -0.5261
  597SOL    HW2 1791   1.394   1.765   0.247 -0.9361 -0.8374 -3.0824
  598SOL     OW 1792   0.311   2.978   1.800 -0.0140  0.2118 -0.1119
  598SOL    HW1 1793   0.335   2.983   1.701 -0.0963  0.4354 -0.3460
  598SOL    HW2 1794   0.278   3.070   1.834  1.8663  0.3309 -0.8366
  599SOL     OW 1795   2.444   1.423   2.784 -0.5595  0.3537 -0.1110
  599SOL    HW1 1796   2.379   1.453   2.712 -0.0315 -0.3305  1.1532
  599SOL    HW2 1797   2.535   1.467   2.772  0.1257 -0.8730 -0.7148
  600SOL     OW 1798   0.949   1.098   0.233 -0.4935 -0.2531  0.2743
  600SOL    HW1 1799   0.898   1.182   0.252  0.6295 -1.4564  0.8729
  600SOL    HW2 1800   1.007   1.072   0.312  1.8237 -1.0745 -0.3060
  601SOL     OW 1801   0.448   0.939   0.766 -0.0058 -0.5624  0.4328
  601SOL    HW1 1802   0.416   1.031   0.744  1.0240  0.1121  2.3007
  601SOL    HW2 1803   0.473   0.933   0.866 -0.3431  1.3455 -1.5706
  602SOL     OW 1804   1.736   2.846   0.463 -0.0618  0.0749 -0.0350
  602SOL    HW1 1805   1.676   2.875   0.543 -3.5999  2.9181  1.8640
  602SOL    HW2 1806   1.712   2.887   0.375  1.9828 -2.0622  2.1825
  603SOL     OW 1807   0.650   2.699   2.329  0.1213 -0.2615 -0.7216
  603SOL    HW1 1808   0.740   2.672   2.294  0.3377 -1.0912 -0.3504
  603SOL    HW2 1809   0.616   2.621   2.385  1.5331 -1.4749 -1.9982
  604SOL     OW 1810   0.185   0.311   2.615  0.2578  0.4772 -0.3581
  604SOL    HW1 1811   0.242   0.230   2.638  2.9428  0.1195 -0.4733
  604SOL    HW2 1812   0.128   0.349   2.693 -1.3962 -0.3357  2.3930
  605SOL     OW 1813   2.596   1.453   1.390  0.3460 -0.5358 -0.3025
  605SOL    HW1 1814   2.587   1.368   1.450 -0.7830 -0.0295 -0.3008
  605SOL    HW2 1815   2.511   1.517   1.402 -0.9775  4.5158  1.7309
  606SOL     OW 1816   0.869   1.566   2.474 -0.6750  0.0704  0.2068
  606SOL    HW1 1817   0.798   1.589   2.546 -1.1457 -0.4474  1.0824
  606SOL    HW2 1818   0.841   1.489   2.418  0.2101  1.0822  2.3169
  607SOL     OW 1819   0.409   0.046   0.406  0.0868 -0.2684 -0.7473
  607SOL    HW1 1820   0.310   0.041   0.405  2.0273  1.2631 -0.9802
  607SOL    HW2 1821   0.447   0.132   0.438 -1.8668 -2.4591 -0.8655
  608SOL     OW 1822   1.898   1.743   2.114 -0.0777  0.3546  0.4967
  608SOL    HW1 1823   1.815   1.730   2.173 -3.8920  2.6430  0.9249
  608SOL    HW2 1824   1.884   1.703   2.018 -0.3973 -0.5691 -0.4546
  609SOL     OW 1825   2.551   0.395   1.345 -0.3371 -0.0870  0.2371
  609SOL    HW1 1826   2.539   0.312   1.285 -0.5877  0.0371  1.1641
  609SOL    HW2 1827   2.479   0.399   1.415  1.9972 -0.0264 -1.3574
  610SOL     OW 1828   0.446   2.759   0.605 -0.1775 -0.3151  0.6235
  610SOL    HW1 1829   0.453   2.656   0.607  1.7767 -1.2702 -0.0618
  610SOL    HW2 1830   0.539   2.809   0.608 -0.4340  2.5326  2.5145
  611SOL     OW 1831   1.749   0.874   2.890 -0.1920 -0.1331 -0.2596
  611SOL    HW1 1832   1.820   0.944   2.857  4.3395 -1.2321  0.2477
  611SOL    HW2 1833   1.673   0.860   2.828  0.2283 -0.7553 -1.4245
  612SOL     OW 1834   0.801   2.313   2.124  0.1062  0.3620  0.4058
  612SOL    HW1 1835   0.870   2.326   2.195 -0.6347 -1.0746 -1.4317
  612SOL    HW2 1836   0.834   2.352   2.037 -0.8768 -0.0567  1.4395
  613SOL     OW 1837   0.451   2.473   0.583  0.2643  0.3567 -0.4316
  613SOL    HW1 1838   0.489   2.403   0.642 -0.7759  2.0566 -1.5691
  613SOL    HW2 1839   0.496   2.476   0.497 -1.7955 -0.4573 -0.2483
  614SOL     OW 1840   2.398   3.116   1.720 -0.0447 -0.0523 -0.1359
  614SOL    HW1 1841   2.401   3.019   1.760 -2.4554 -0.5636  1.4303
  614SOL    HW2 1842   2.359   0.059   1.789 -0.1319  1.4429 -1.4436
  615SOL     OW 1843   1.781   0.990   0.245 -0.5076 -0.0975 -0.4814
  615SOL    HW1 1844   1.756   1.087   0.273  1.3168  0.3889  1.1989
  615SOL    HW2 1845   1.743   0.969   0.154 -1.7147  0.6532  1.2613
  616SOL     OW 1846   2.051   0.885   0.293 -0.6802 -0.1501 -0.0542
  616SOL    HW1 1847   2.046   0.799   0.349  1.8468  1.0209  2.2634
  616SOL    HW2 1848   1.962   0.912   0.258  2.2832  1.0954  0.7944
  617SOL     OW 1849   1.122   1.027   2.846  0.1203  0.0404 -0.0420
  617SOL    HW1 1850   1.057   1.074   2.909 -2.7192 -1.0236 -0.8463
  617SOL    HW2 1851   1.190   0.981   2.908  1.9447 -0.0397 -0.0069
  618SOL     OW 1852   0.573   3.009   2.000 -0.1330  0.0295 -0.0567
  618SOL    HW1 1853   0.592   2.910   2.008  0.4113 -0.2647  0.8227
  618SOL    HW2 1854   0.472   3.029   2.006 -3.7199 -1.0500 -0.9431
  619SOL     OW 1855   2.922   1.349   1.273 -0.3395  0.1080  0.1534
  619SOL    HW1 1856   2.981   1.314   1.350  1.2488  1.6788  3.1996
  619SOL    HW2 1857   2.887   1.436   1.303 -1.6139 -2.2617 -0.4092
  620SOL     OW 1858   2.526   0.855   2.922 -0.0434  0.6617  0.4934
  620SOL    HW1 1859   2.586   0.907   2.853  1.9507  0.4777 -0.9277
  620SOL    HW2 1860   2.508   0.757   2.890 -0.2559 -2.1376  1.6891
  621SOL     OW 1861   2.642   2.408   1.386 -0.1363 -0.7448  0.0848
  621SOL    HW1 1862   2.645   2.333   1.455  2.8269 -0.1989  0.4012
  621SOL    HW2 1863   2.694   2.488   1.424 -1.2260 -1.0161  0.3660
  622SOL     OW 1864   0.999   0.731   2.623 -0.8780 -1.0293 -0.4708
  622SOL    HW1 1865   0.919   0.724   2.564  1.5393 -0.0074  3.7249
  622SOL    HW2 1866   1.041   0.826   2.609  2.9955  1.3914  0.6625
  623SOL     OW 1867   1.211   0.582   2.714 -0.4227 -0.1360  0.0751
  623SOL    HW1 1868   1.183   0.488   2.688 -3.9322 -0.1089  0.9656
  623SOL    HW2 1869   1.140   0.652   2.691  1.0700  1.4229  1.1423
  624SOL     OW 1870   2.401   0.674   0.093  0.2723 -0.2222 -0.3920
  624SOL    HW1 1871   2.371   0.634   0.005 -2.3984 -0.9044 -0.5343
  624SOL    HW2 1872   2.490   0.635   0.120 -0.5033 -0.4158  4.2186
  625SOL     OW 1873   0.967   1.278   0.898 -0.0770 -0.0440 -0.8281
  625SOL    HW1 1874   1.027   1.199   0.894 -0.2200  0.8942  0.3883
  625SOL    HW2 1875   1.017   1.364   0.915 -0.0956 -0.5461 -1.2678
  626SOL     OW 1876   1.803   1.058   2.551  0.2723 -0.5858  0.3893
  626SOL    HW1 1877   1.861   0.979   2.528  0.5749 -0.2497  0.9731
  626SOL    HW2 1878   1.811   1.085   2.650 -1.4728 -0.1981  3.2836
  627SOL     OW 1879   1.035   3.030   2.813 -0.4553 -0.1288  0.1364
  627SOL    HW1 1880   0.983   3.027   2.732  0.6947  3.0995  4.0763
  627SOL    HW2 1881   0.992   3.090   2.885 -1.3211  0.5456  0.8994
  628SOL     OW 1882   2.285   0.176   2.551  0.2560  0.2024  0.2014
  628SOL    HW1 1883   2.227   0.133   2.623  0.3572 -3.0225  0.5885
  628SOL    HW2 1884   2.345   0.244   2.593 -0.8729 -1.2739 -1.7467
  629SOL     OW 1885   1.173   0.539   2.995  0.0820 -0.5006 -0.1353
  629SOL    HW1 1886   1.213   0.589   2.915 -0.1993  0.2610 -0.8927
  629SOL    HW2 1887   1.117   0.597   3.060 -0.9436  0.6462  2.5585
  630SOL     OW 1888   1.235   0.136   2.225 -0.9398  0.2817 -0.4230
  630SOL    HW1 1889   1.172   0.212   2.216  5.6222 -0.9790 -2.7770
  630SOL    HW2 1890   1.205   0.092   2.311  0.1924  0.7395 -1.8635
  631SOL     OW 1891   2.467   1.090   0.748 -0.3218 -0.1862  0.1714
  631SOL    HW1 1892   2.390   1.124   0.804 -3.6202  0.3171  1.6331
  631SOL    HW2 1893   2.442   1.038   0.665 -0.8162 -1.3584 -2.5397
  632SOL     OW 1894   2.013   0.856   1.420 -0.0419 -0.0842  0.3250
  632SOL    HW1 1895   2.067   0.924   1.477  1.3349  1.6360 -0.1011
  632SOL    HW2 1896   1.996   0.762   1.465 -1.2547 -0.4655  1.5088
  633SOL     OW 1897   0.794   1.414   0.531 -0.4523  0.4392  0.2009
  633SOL    HW1 1898   0.794   1.514   0.523  0.6218  1.1721  0.4600
  633SOL    HW2 1899   0.894   1.378   0.539  1.4133  2.1095 -2.1584
  634SOL     OW 1900   2.130   0.034   0.980  0.0062 -0.8199  0.1093
  634SOL    HW1 1901   2.132   0.081   1.072 -1.7056  1.8878  1.5982
  634SOL    HW2 1902   2.074   0.089   0.911 -2.5458 -1.7546 -0.0706
  635SOL     OW 1903   1.763   0.655   1.257 -0.0089 -0.1771  0.1507
  635SOL    HW1 1904   1.690   0.696   1.321 -1.8194 -0.7345 -1.1532
  635SOL    HW2 1905   1.782   0.723   1.184 -0.4696  3.2267 -1.2497
  636SOL     OW 1906   1.045   1.094   0.484 -0.1318 -0.3886  0.1573
  636SOL    HW1 1907   1.067   1.188   0.516  0.9813 -0.9921 -0.9824
  636SOL    HW2 1908   0.951   1.070   0.527 -2.5899  0.1072 -1.8507
  637SOL     OW 1909   2.488   2.189   2.936  0.1452 -0.2154 -0.2424
  637SOL    HW1 1910   2.491   2.089   2.940 -1.0348 -1.0215 -0.6837
  637SOL    HW2 1911   2.391   2.213   2.929  2.6405  0.5464  1.0925
  638SOL     OW 1912   1.506   2.643   2.579 -0.2341  0.4268 -0.4665
  638SOL    HW1 1913   1.580   2.715   2.560 -0.8152  0.7919 -0.8644
  638SOL    HW2 1914   1.535   2.556   2.531  1.0823  0.3255  0.5863
  639SOL     OW 1915   0.989   1.958   1.371  0.7888  0.3026 -0.5587
  639SOL    HW1 1916   0.895   1.971   1.333  1.7465 -1.1735 -0.6109
  639SOL    HW2 1917   1.037   2.046   1.370  1.4504 -2.1057  0.6806
  640SOL     OW 1918   2.381   2.863   0.452  0.5222  0.6811  0.2064
  640SOL    HW1 1919   2.375   2.875   0.353  0.0703 -0.4184 -2.9013
  640SOL    HW2 1920   2.310   2.921   0.504  0.1214  3.2522  1.6286
  641SOL     OW 1921   0.151   3.043   0.423 -0.6469 -0.4492  0.2216
  641SOL    HW1 1922   0.222   2.971   0.439  1.3013 -2.3423 -1.4551
  641SOL    HW2 1923   0.050   3.020   0.436  0.0447 -2.1935  0.6790
  642SOL     OW 1924   2.779   0.894   1.248  0.4485  0.6766 -0.2301
  642SOL    HW1 1925   2.715   0.812   1.257  0.2155  0.4182  2.4506
  642SOL    HW2 1926   2.782   0.935   1.156 -0.1090  0.6755  2.2338
  643SOL     OW 1927   0.831   1.932   1.981  0.6160 -0.1939  0.0288
  643SOL    HW1 1928   0.762   1.993   1.933 -1.3640  1.6481  0.4601
  643SOL    HW2 1929   0.880   1.977   2.059 -0.6370  0.5047 -1.4937
  644SOL     OW 1930   1.783   2.645   0.289 -1.1342 -0.3742 -0.2887
  644SOL    HW1 1931   1.800   2.555   0.332 -2.5540 -1.3927 -0.7570
  644SOL    HW2 1932   1.759   2.717   0.360 -1.4786  0.9587 -0.2851
  645SOL     OW 1933   2.062   2.280   1.147 -0.1921  0.3706  0.5194
  645SOL    HW1 1934   2.026   2.196   1.102 -2.4093  0.5213  0.2374
  645SOL    HW2 1935   2.014   2.366   1.119 -0.1413  0.1888  0.8275
  646SOL     OW 1936   1.136   2.785   2.958  0.0997 -0.4539 -0.5323
  646SOL    HW1 1937   1.229   2.769   2.999 -1.2466  1.9181  2.6891
  646SOL    HW2 1938   1.142   2.861   2.889  2.6464  0.3854 -0.2256
  647SOL     OW 1939   0.279   2.781   1.975 -0.2209 -0.1143 -0.0023
  647SOL    HW1 1940   0.309   2.849   1.902 -0.4422  2.1742 -3.0133
  647SOL    HW2 1941   0.336   2.697   1.966 -1.7135  0.3472  0.0794
  648SOL     OW 1942   1.723   0.899   1.054  0.3421 -0.1291  0.0589
  648SOL    HW1 1943   1.724   0.822   0.993 -0.1362  3.0798  1.1851
  648SOL    HW2 1944   1.814   0.914   1.098 -1.2301 -1.3903  0.0110
  649SOL     OW 1945   1.580   2.252   3.094  0.0401  0.0017 -0.1885
  649SOL    HW1 1946   1.624   2.342   0.002  0.1790 -0.4604 -1.6222
  649SOL    HW2 1947   1.628   2.193   3.026 -0.3138  0.8158  2.5897
  650SOL     OW 1948   2.288   1.624   1.933  0.1572  0.1665  0.0026
  650SOL    HW1 1949   2.305   1.665   1.841  1.4699  0.5151  0.4280
  650SOL    HW2 1950   2.199   1.575   1.934  2.7487 -0.0415 -2.3484
  651SOL     OW 1951   1.700   2.498   0.075 -0.0419  0.0374 -0.0949
  651SOL    HW1 1952   1.709   2.571   0.148  1.8886 -1.1712 -1.6984
  651SOL    HW2 1953   1.702   2.542   3.104  2.5834 -3.1399  0.9969
  652SOL     OW 1954   0.840   2.374   3.112  0.3948  0.1647 -0.0780
  652SOL    HW1 1955   0.851   2.447   3.042 -2.1087  1.0286 -1.4086
  652SOL    HW2 1956   0.921   2.311   0.007  1.0106 -1.1470  1.7844
  653SOL     OW 1957   2.418   2.136   1.391 -0.0131  0.2659  0.6825
  653SOL    HW1 1958   2.451   2.196   1.316 -0.7894  1.7790 -0.1844
  653SOL    HW2 1959   2.320   2.126   1.386  3.5567  1.4162  0.7522
  654SOL     OW 1960   2.781   2.652   1.451 -0.3003 -0.1234 -0.5983
  654SOL    HW1 1961   2.766   2.754   1.449  2.6744  0.4216 -1.4418
  654SOL    HW2 1962   2.879   2.625   1.423 -1.7612 -0.2547 -0.7630
  655SOL     OW 1963   0.000   2.216   1.274  0.1883 -0.1614  0.4398
  655SOL    HW1 1964   3.055   2.182   1.341 -1.4211  0.3014 -1.3881
  655SOL    HW2 1965   3.074   2.292   1.218  0.8233  1.5418 -1.4787
  656SOL     OW 1966   3.018   2.691   2.685 -0.4594 -0.0301  0.1356
  656SOL    HW1 1967   2.971   2.668   2.775  0.3329  1.4911  0.3332
  656SOL    HW2 1968   3.044   2.786   2.692 -0.6879  1.6458  0.6338
  657SOL     OW 1969   3.039   0.742   0.023  0.6414 -0.0334  0.1973
  657SOL    HW1 1970   2.940   0.720   0.021 -0.1460 -2.6903 -0.6804
  657SOL    HW2 1971   3.071   0.748   0.121 -2.6137  1.2509  0.1058
  658SOL     OW 1972   2.025   2.039   0.993 -0.1784 -0.4508  0.4194
  658SOL    HW1 1973   2.032   2.027   0.891  1.2302 -2.4340  0.3061
  658SOL    HW2 1974   2.015   1.951   1.042  0.1111  0.0490  0.7553
  659SOL     OW 1975   1.549   0.636   1.432 -0.3993  0.0898 -0.2297
  659SOL    HW1 1976   1.456   0.650   1.394  1.7420  0.3570 -0.3064
  659SOL    HW2 1977   1.573   0.537   1.445  0.2613 -0.1454  1.6246
  660SOL     OW 1978   1.592   1.603   0.068 -0.3400  0.1404  0.0051
  660SOL    HW1 1979   1.568   1.660   0.151 -0.2734  2.5371 -0.8279
  660SOL    HW2 1980   1.597   1.504   0.104  1.1629 -2.0571  2.1411
  661SOL     OW 1981   0.168   1.879   0.346  0.1242  0.2607 -0.1067
  661SOL    HW1 1982   0.156   1.946   0.270 -0.8454 -1.3568  2.1155
  661SOL    HW2 1983   0.071   1.856   0.389 -2.0958 -1.2364 -0.7465
  662SOL     OW 1984   0.249   0.751   2.108  0.2703  0.1508 -0.4055
  662SOL    HW1 1985   0.219   0.723   2.204 -2.4488 -1.0082  0.2916
  662SOL    HW2 1986   0.240   0.851   2.094 -0.3914  0.7501  2.5767
  663SOL     OW 1987   2.025   1.431   0.612 -0.1959  0.0137 -0.1193
  663SOL    HW1 1988   2.008   1.341   0.664  0.8421 -0.5295 -2.1322
  663SOL    HW2 1989   2.123   1.444   0.608 -1.3262 -0.5946  1.2026
  664SOL     OW 1990   0.540   0.465   1.122 -0.3772  0.1033 -0.6912
  664SOL    HW1 1991   0.599   0.407   1.060 -3.1896  0.1101  0.6454
  664SOL    HW2 1992   0.461   0.406   1.143  2.2583 -2.1548 -0.1320
  665SOL     OW 1993   1.154   0.029   0.133  0.5513 -0.3252  0.0401
  665SOL    HW1 1994   1.194   3.063   0.170 -0.1044 -0.1287 -2.7255
  665SOL    HW2 1995   1.227   0.082   0.078  0.1553 -0.0504  1.4804
  666SOL     OW 1996   3.074   0.231   2.439 -0.1001 -0.2458  0.4515
  666SOL    HW1 1997   0.035   0.225   2.501 -2.7312 -1.1162 -1.3842
  666SOL    HW2 1998   3.081   0.160   2.373  1.3255  1.5647 -0.5366
  667SOL     OW 1999   2.133   1.882   2.176  0.0308  0.4115  0.2498
  667SOL    HW1 2000   2.224   1.840   2.195 -0.7489  0.5318  2.2471
  667SOL    HW2 2001   2.054   1.820   2.151 -0.1960  1.1406  2.0675
  668SOL     OW 2002   0.509   1.814   2.759  0.1744 -0.1630  0.2891
  668SOL    HW1 2003   0.509   1.899   2.699  2.1032  0.9913 -0.0797
  668SOL    HW2 2004   0.423   1.763   2.753  0.5362 -1.6146 -1.0828
  669SOL     OW 2005   2.137   2.526   2.466  0.1820  0.0454 -0.3311
  669SOL    HW1 2006   2.183   2.515   2.373 -1.8668  2.2529 -0.2094
  669SOL    HW2 2007   2.039   2.541   2.447 -1.2020 -0.1414  2.4583
  670SOL     OW 2008   2.606   1.121   2.431 -0.3255  0.4807 -0.5301
  670SOL    HW1 2009   2.513   1.098   2.415  3.5131 -0.0178  2.4246
  670SOL    HW2 2010   2.670   1.050   2.396  0.7845 -0.4281 -1.5540
  671SOL     OW 2011   2.438   1.158   0.278  0.1162  0.4921  0.2304
  671SOL    HW1 2012   2.465   1.146   0.180 -0.9560  0.2497 -1.8676
  671SOL    HW2 2013   2.448   1.253   0.320  0.4771 -0.7809 -2.2632
  672SOL     OW 2014   2.742   1.341   2.424  0.3612 -0.2713  0.5554
  672SOL    HW1 2015   2.775   1.360   2.518 -0.3728 -0.8839 -1.3675
  672SOL    HW2 2016   2.699   1.251   2.420  1.5848  0.0074 -1.2985
  673SOL     OW 2017   2.573   1.201   1.516 -0.3178 -0.2281 -0.0017
  673SOL    HW1 2018   2.484   1.172   1.475 -0.3536 -0.1459 -1.3483
  673SOL    HW2 2019   2.642   1.126   1.507 -2.0102 -2.5200  0.6284
  674SOL     OW 2020   1.752   1.975   1.415 -1.0040  0.0002  0.4299
  674SOL    HW1 2021   1.819   1.898   1.410  1.2114 -0.8999  1.6714
  674SOL    HW2 2022   1.666   1.945   1.460  0.9250  2.0770 -0.4916
  675SOL     OW 2023   3.053   0.544   0.997 -0.6540  0.4216 -0.5218
  675SOL    HW1 2024   3.069   0.631   0.944  1.2457  0.7786 -1.4832
  675SOL    HW2 2025   0.021   0.489   1.012  2.3048 -2.5842 -1.8722
  676SOL     OW 2026   1.978   0.908   1.168 -0.4693 -0.5479 -0.2765
  676SOL    HW1 2027   1.980   0.892   1.272  2.6581 -0.4093  1.3142
  676SOL    HW2 2028   2.057   0.858   1.124  1.0610  0.0182  0.1120
  677SOL     OW 2029   1.616   1.572   2.218  0.5515 -0.1422  0.1779
  677SOL    HW1 2030   1.595   1.514   2.139 -0.9190  3.7594 -1.9741
  677SOL    HW2 2031   1.580   1.526   2.308 -2.6453 -3.2056  3.2947
  678SOL     OW 2032   3.098   1.760   1.025  0.4124 -0.3226 -0.3555
  678SOL    HW1 2033   0.018   1.830   1.086 -2.0949 -2.2964  0.7577
  678SOL    HW2 2034   3.006   1.720   1.057 -2.1624 -2.6590  1.9945
  679SOL     OW 2035   3.001   2.964   0.428 -0.5612 -0.4719 -0.2229
  679SOL    HW1 2036   2.928   2.981   0.357 -0.3537 -0.4449 -0.2384
  679SOL    HW2 2037   2.971   2.902   0.506  0.2579 -0.4224 -0.3877
  680SOL     OW 2038   0.253   2.354   1.275 -0.0933  0.3056  0.3426
  680SOL    HW1 2039   0.330   2.314   1.217  2.1677 -0.4722  1.1040
  680SOL    HW2 2040   0.163   2.318   1.245 -1.2734  3.0916 -0.2161
  681SOL     OW 2041   0.814   0.724   1.161  0.5483  0.2665  0.0450
  681SOL    HW1 2042   0.849   0.799   1.215 -0.2792 -4.6207 -2.0620
  681SOL    HW2 2043   0.890   0.653   1.159  0.9959  0.0838  1.5674
  682SOL     OW 2044   1.431   2.812   0.811 -0.6412  0.1290  0.3893
  682SOL    HW1 2045   1.369   2.889   0.828  0.3789  0.2586  1.0650
  682SOL    HW2 2046   1.516   2.842   0.767  0.3641  0.6364 -0.1380
  683SOL     OW 2047   2.122   1.229   1.468 -0.7662 -0.3277  0.3566
  683SOL    HW1 2048   2.079   1.287   1.394  1.0225  1.0517 -0.6894
  683SOL    HW2 2049   2.207   1.191   1.421  0.0035 -2.0078 -1.8709
  684SOL     OW 2050   0.491   1.907   1.701  0.4958 -0.1242 -0.2663
  684SOL    HW1 2051   0.535   1.956   1.780  0.6754  1.2830  0.4813
  684SOL    HW2 2052   0.443   1.821   1.734  0.8283  0.1053  2.8814
  685SOL     OW 2053   2.434   1.790   0.048  0.0555 -0.0395  0.4613
  685SOL    HW1 2054   2.507   1.745   0.104 -3.5674 -0.6138  1.7053
  685SOL    HW2 2055   2.361   1.721   0.027 -0.6584 -1.7651 -0.0463
  686SOL     OW 2056   2.905   0.347   0.764  0.2640  0.0949 -0.2000
  686SOL    HW1 2057   2.811   0.326   0.735  0.4757 -0.1967 -0.3858
  686SOL    HW2 2058   2.914   0.449   0.776 -1.7202 -2.7757 -0.7604
  687SOL     OW 2059   1.244   2.915   0.245 -0.0916  0.1867  0.2090
  687SOL    HW1 2060   1.164   2.870   0.291  2.5685 -1.4759 -0.5565
  687SOL    HW2 2061   1.309   2.847   0.203 -0.6491  1.8504  0.8719
  688SOL     OW 2062   1.740   2.019   2.078  0.0807  0.0809 -0.8269
  688SOL    HW1 2063   1.815   1.991   2.140  0.0991  3.4978  0.4520
  688SOL    HW2 2064   1.773   2.085   2.010 -0.8756  0.4511 -0.0493
  689SOL     OW 2065   2.757   1.217   2.111  0.2395 -0.0358 -0.0919
  689SOL    HW1 2066   2.836   1.282   2.101 -0.0426  3.8377  0.7494
  689SOL    HW2 2067   2.675   1.262   2.159 -0.1129  4.4200 -1.5326
  690SOL     OW 2068   1.952   1.207   0.802 -0.0590 -0.0638 -0.0661
  690SOL    HW1 2069   1.982   1.214   0.898 -2.3331 -3.8247 -3.1803
  690SOL    HW2 2070   2.030   1.162   0.757 -1.9084  2.8398  1.4727
  691SOL     OW 2071   1.012   1.271   1.284  0.4413  0.4411  0.1941
  691SOL    HW1 2072   1.067   1.213   1.221 -1.1145 -1.0164  0.5384
  691SOL    HW2 2073   0.940   1.207   1.322  0.6010 -0.5316  0.8646
  692SOL     OW 2074   1.656   0.305   2.175 -0.0326 -0.2594  0.0823
  692SOL    HW1 2075   1.601   0.221   2.163  0.1127  2.0837  0.4441
  692SOL    HW2 2076   1.746   0.292   2.213 -2.7962 -0.0702 -0.4933
  693SOL     OW 2077   0.158   1.027   2.896  0.2556  0.1156  0.2077
  693SOL    HW1 2078   0.198   1.010   2.982 -3.0888  0.3091 -0.9060
  693SOL    HW2 2079   0.191   0.967   2.818 -0.1072  2.3363  3.2594
  694SOL     OW 2080   2.121   2.893   0.879  0.3635  0.4624 -0.6494
  694SOL    HW1 2081   2.128   2.990   0.909  0.2074 -3.2292 -0.6646
  694SOL    HW2 2082   2.044   2.883   0.816  1.6843  1.3594  1.8303
  695SOL     OW 2083   1.616   1.380   2.920  0.1580  0.2288  0.2187
  695SOL    HW1 2084   1.587   1.374   3.019  0.4330 -4.3452  4.3654
  695SOL    HW2 2085   1.710   1.422   2.909 -3.4533  1.0737 -2.9418
  696SOL     OW 2086   1.862   0.306   1.472 -0.2497  0.0270  0.2621
  696SOL    HW1 2087   1.907   0.321   1.561 -1.5318 -0.0916 -2.7247
  696SOL    HW2 2088   1.862   0.207   1.444  2.1079  0.9368  2.8594
  697SOL     OW 2089   1.627   0.450   1.958 -0.5452 -0.0108  0.0034
  697SOL    HW1 2090   1.647   0.406   2.049 -1.6074 -0.6793  2.1821
  697SOL    HW2 2091   1.554   0.521   1.971  0.1622 -0.0664 -3.3590
  698SOL     OW 2092   1.882   1.495   2.555  0.0584  0.1826  0.0210
  698SOL    HW1 2093   1.887   1.580   2.500 -0.1448 -0.3479  3.7290
  698SOL    HW2 2094   1.819   1.423   2.513 -1.9772 -5.1031 -1.0641
  699SOL     OW 2095   1.691   1.277   0.828  0.4324 -0.2851  0.1062
  699SOL    HW1 2096   1.643   1.278   0.738 -1.7933 -0.0153  0.2989
  699SOL    HW2 2097   1.789   1.242   0.818  1.6190 -1.3253  1.1160
  700SOL     OW 2098   1.908   3.015   0.220 -0.3315 -0.6811 -0.0895
  700SOL    HW1 2099   1.802   3.010   0.215 -0.6821 -0.6402 -0.0223
  700SOL    HW2 2100   1.956   2.983   0.131  2.0000 -2.3927 -0.5152
  701SOL     OW 2101   0.318   0.311   1.317  0.1124  0.0615  0.0600
  701SOL    HW1 2102   0.290   0.328   1.414  0.5134 -1.3541 -1.2319
  701SOL    HW2 2103   0.380   0.229   1.316  0.0116 -1.8188  0.3397
  702SOL     OW 2104   1.788   3.065   1.551 -0.2794 -0.1699 -0.0647
  702SOL    HW1 2105   1.801   2.978   1.500 -3.0546 -1.6739  1.6812
  702SOL    HW2 2106   1.696   3.065   1.590 -0.3631  0.1788 -1.2893
  703SOL     OW 2107   2.549   2.946   2.206  0.1869  0.4672  0.4286
  703SOL    HW1 2108   2.480   2.937   2.283  0.2445  1.6055  3.9753
  703SOL    HW2 2109   2.590   2.851   2.183  0.2176 -3.7463 -1.0539
  704SOL     OW 2110   1.259   1.752   0.826 -0.3987  0.1282  0.0619
  704SOL    HW1 2111   1.158   1.751   0.832 -0.4522  1.3492  1.7154
  704SOL    HW2 2112   1.292   1.848   0.840 -0.1768 -1.7843  0.6894
  705SOL     OW 2113   3.016   1.681   2.121 -0.6161  0.3919  0.1062
  705SOL    HW1 2114   2.920   1.716   2.102 -1.8053 -1.6333 -1.8602
  705SOL    HW2 2115   3.004   1.597   2.178  1.2272  0.7635 -0.3774
  706SOL     OW 2116   1.648   0.191   0.390 -0.5820  0.1718 -0.3688
  706SOL    HW1 2117   1.573   0.118   0.398 -0.8257  0.7174 -1.5304
  706SOL    HW2 2118   1.658   0.209   0.293 -0.0870  0.0889  0.6472
  707SOL     OW 2119   1.309   2.545   2.203  0.1303 -0.1061  0.1953
  707SOL    HW1 2120   1.295   2.473   2.274 -1.4937  2.4785  1.6566
  707SOL    HW2 2121   1.304   2.504   2.109  0.7896 -0.4091  0.0026
  708SOL     OW 2122   0.561   2.283   1.552 -0.0934  0.0538 -0.2632
  708SOL    HW1 2123   0.526   2.204   1.500 -1.6294  2.1787 -1.3057
  708SOL    HW2 2124   0.662   2.300   1.531  0.0508  0.8844 -0.5558
  709SOL     OW 2125   2.608   1.011   2.036  0.1705  0.3362 -0.4628
  709SOL    HW1 2126   2.669   1.086   2.067 -0.2623  0.0334  3.3247
  709SOL    HW2 2127   2.663   0.949   1.973  0.0127  2.7359  0.1209
  710SOL     OW 2128   2.933   0.311   1.674  0.1566 -0.1062  0.0098
  710SOL    HW1 2129   2.899   0.337   1.580 -0.9014  1.3210 -1.6664
  710SOL    HW2 2130   3.012   0.369   1.702 -0.0461 -3.8831 -0.2552
  711SOL     OW 2131   3.037   2.262   0.318 -0.1061 -0.1087  0.5762
  711SOL    HW1 2132   3.079   2.196   0.253 -1.3443 -2.3886  1.1656
  711SOL    HW2 2133   3.080   2.353   0.325 -2.0451 -2.3906  0.1450
  712SOL     OW 2134   0.260   2.753   2.707  0.0675  0.0784 -0.2818
  712SOL    HW1 2135   0.291   2.844   2.671 -0.2938  1.1182  0.3292
  712SOL    HW2 2136   0.218   2.694   2.635  1.7658 -0.1652  0.5561
  713SOL     OW 2137   2.043   0.601   0.099  0.3229  0.1668  0.1070
  713SOL    HW1 2138   1.945   0.624   0.095  1.6117  0.2995 -2.7191
  713SOL    HW2 2139   2.083   0.617   0.010 -1.3916  0.8212  0.1882
  714SOL     OW 2140   1.524   2.012   0.623 -0.0016 -0.6951  0.2122
  714SOL    HW1 2141   1.450   1.974   0.683  0.5570  0.8324 -1.2475
  714SOL    HW2 2142   1.605   2.043   0.678  0.4266  0.7591  0.7020
  715SOL     OW 2143   0.095   0.277   0.303  0.1453 -0.7005 -0.1978
  715SOL    HW1 2144   0.015   0.337   0.315  0.2314 -1.5015 -2.5812
  715SOL    HW2 2145   0.177   0.327   0.335 -1.3203 -1.4193  1.1042
  716SOL     OW 2146   0.994   2.952   2.295 -0.1022  0.5939  0.2596
  716SOL    HW1 2147   1.097   2.947   2.270  0.9268 -1.9768  0.4585
  716SOL    HW2 2148   0.950   2.869   2.259  0.3852  3.0382 -0.5522
  717SOL     OW 2149   0.458   0.444   2.990  0.4049  0.0937 -0.3433
  717SOL    HW1 2150   0.521   0.445   2.910 -0.2530 -0.8960  0.6195
  717SOL    HW2 2151   0.360   0.406   2.961 -1.3918 -0.3225 -0.1673
  718SOL     OW 2152   0.945   0.595   0.527  0.3145  0.1249 -1.0281
  718SOL    HW1 2153   0.963   0.644   0.610  0.7637  0.3111 -1.9840
  718SOL    HW2 2154   0.945   0.493   0.538 -0.1423 -3.3289 -1.0841
  719SOL     OW 2155   2.213   2.269   2.855  0.0941  0.3927 -0.4336
  719SOL    HW1 2156   2.240   2.313   2.765 -1.3965  0.4048  1.1285
  719SOL    HW2 2157   2.108   2.274   2.876 -2.3217 -1.4232  0.8606
  720SOL     OW 2158   1.619   1.128   1.939  0.2712  0.1735  0.2913
  720SOL    HW1 2159   1.624   1.115   1.835 -0.7359 -0.1343 -3.0306
  720SOL    HW2 2160   1.644   1.048   1.996  0.7472  0.5740  1.1318
  721SOL     OW 2161   3.048   2.930   1.119 -0.4177  0.9306  0.0992
  721SOL    HW1 2162   3.016   3.017   1.167 -0.7915 -0.8775  1.4301
  721SOL    HW2 2163   0.017   2.950   1.072  0.5047  1.5671  1.3034
  722SOL     OW 2164   1.211   1.999   2.341  0.0251 -0.0597 -0.2673
  722SOL    HW1 2165   1.286   2.011   2.277  0.1096 -1.1707  1.4340
  722SOL    HW2 2166   1.243   1.940   2.421  0.7660 -1.4220  0.8636
  723SOL     OW 2167   1.233   0.331   0.528 -0.9182  0.3187  0.4415
  723SOL    HW1 2168   1.232   0.377   0.619  1.1956 -2.1175 -0.8761
  723SOL    HW2 2169   1.306   0.373   0.468  0.1766  0.9024  0.4556
  724SOL     OW 2170   0.888   2.035   2.701 -0.0997 -0.0396  0.3858
  724SOL    HW1 2171   0.808   2.042   2.637 -1.2131  0.9248 -0.3648
  724SOL    HW2 2172   0.852   2.033   2.794  2.7572 -0.6596  2.4114
  725SOL     OW 2173   3.056   0.441   1.304  0.0544 -0.3924  0.2272
  725SOL    HW1 2174   3.106   0.507   1.359 -1.1295 -1.7669 -1.4376
  725SOL    HW2 2175   3.092   0.430   1.207 -0.3165 -0.2828 -2.7503
  726SOL     OW 2176   1.986   0.012   0.665 -0.0181  0.1149  0.5491
  726SOL    HW1 2177   1.942   0.053   0.581  0.1108  1.5677 -2.2410
  726SOL    HW2 2178   1.914   3.116   0.738 -0.8768 -1.3217  0.5118
  727SOL     OW 2179   1.897   1.082   2.119  0.4267  0.2837  0.4662
  727SOL    HW1 2180   1.846   1.168   2.127 -1.1924 -0.8057  1.5651
  727SOL    HW2 2181   1.982   1.082   2.176  0.6702 -0.4827 -1.8827
  728SOL     OW 2182   1.539   2.701   1.464  0.1924  0.3465  0.0767
  728SOL    HW1 2183   1.474   2.749   1.529  0.0684  0.4605 -0.7351
  728SOL    HW2 2184   1.537   2.738   1.373 -1.0589 -2.8871  1.9140
  729SOL     OW 2185   1.999   0.442   2.116 -0.3746  0.7375 -0.2505
  729SOL    HW1 2186   2.097   0.439   2.146  1.4875 -0.4276  0.8512
  729SOL    HW2 2187   1.992   0.526   2.059  1.8722 -0.5001 -1.2389
  730SOL     OW 2188   0.601   0.981   1.261  0.0341 -0.0160 -0.0157
  730SOL    HW1 2189   0.519   0.978   1.319 -2.0969 -3.6736  0.2153
  730SOL    HW2 2190   0.582   0.968   1.163  0.5407 -2.8446  0.5585
  731SOL     OW 2191   0.650   3.006   0.129  0.1519 -0.3748  0.4540
  731SOL    HW1 2192   0.738   3.022   0.182  2.1952  0.2623  0.4755
  731SOL    HW2 2193   0.578   3.077   0.145 -0.2303  0.3952  0.9542
  732SOL     OW 2194   0.604   0.923   0.548  0.0077 -0.2671 -0.0080
  732SOL    HW1 2195   0.535   0.910   0.619  0.4150  0.5520 -0.9436
  732SOL    HW2 2196   0.553   0.944   0.464 -0.1903 -2.0059  1.0046
  733SOL     OW 2197   1.452   1.388   1.708  0.6351  0.1885 -0.2842
  733SOL    HW1 2198   1.374   1.411   1.773 -1.1063  0.9236 -1.1162
  733SOL    HW2 2199   1.426   1.410   1.611 -1.1414  1.4976 -1.9489
  734SOL     OW 2200   0.049   2.467   2.115  0.6189 -0.0010  0.8486
  734SOL    HW1 2201   0.067   2.466   2.018 -0.4594 -2.1267  3.7105
  734SOL    HW2 2202   3.079   2.504   2.135  0.9433 -0.7712  0.7711
  735SOL     OW 2203   1.355   0.133   1.212  0.0001 -0.1934  0.0459
  735SOL    HW1 2204   1.334   0.034   1.211  0.8565  0.6353  0.0049
  735SOL    HW2 2205   1.291   0.194   1.156 -0.5231  1.6830 -0.8983
  736SOL     OW 2206   1.016   1.145   3.089 -0.5743 -0.0099  0.0737
  736SOL    HW1 2207   0.991   1.091   0.056  0.4306 -1.8239  2.2135
  736SOL    HW2 2208   1.072   1.227   3.118 -2.0485 -0.2614 -0.4945
  737SOL     OW 2209   3.093   0.758   0.786 -0.1767  0.3291 -0.2907
  737SOL    HW1 2210   0.053   0.782   0.727  0.1793 -1.3277  0.6503
  737SOL    HW2 2211   3.026   0.690   0.743 -2.1084 -0.4618 -1.0329
  738SOL     OW 2212   0.551   2.546   1.598  0.2066 -0.8675  0.4373
  738SOL    HW1 2213   0.524   2.611   1.520 -2.3816  1.1081 -1.8519
  738SOL    HW2 2214   0.543   2.447   1.570  0.6959 -0.6382  2.1706
  739SOL     OW 2215   1.462   2.779   0.189 -0.4801 -0.1551 -0.3219
  739SOL    HW1 2216   1.453   2.702   0.255  0.3231  0.9860 -0.6875
  739SOL    HW2 2217   1.456   2.754   0.090 -0.3540 -0.2202 -0.7886
  740SOL     OW 2218   1.923   2.816   1.470 -0.8440  0.2428 -0.1534
  740SOL    HW1 2219   2.012   2.828   1.522 -0.2792 -0.1652 -0.6081
  740SOL    HW2 2220   1.940   2.767   1.376  0.2774  1.0751 -4.9784
  741SOL     OW 2221   2.117   0.343   0.746 -0.3185  0.1012  0.3431
  741SOL    HW1 2222   2.092   0.313   0.650 -1.8265  1.3708 -0.8088
  741SOL    HW2 2223   2.153   0.433   0.746 -2.9448 -0.1273  1.5636
  742SOL     OW 2224   1.289   2.368   2.414 -0.7930 -0.0911  0.5595
  742SOL    HW1 2225   1.357   2.310   2.364  0.4606 -1.4718 -2.9908
  742SOL    HW2 2226   1.279   2.350   2.515 -0.6193 -1.3186  1.4707
  743SOL     OW 2227   2.345   0.952   1.942 -0.2106 -0.4114  0.4623
  743SOL    HW1 2228   2.318   0.913   1.846 -2.6334 -1.1776 -1.7742
  743SOL    HW2 2229   2.447   0.943   1.964  3.5124 -1.3929  0.0697
  744SOL     OW 2230   1.937   0.573   0.906  0.3165  0.5533 -0.0287
  744SOL    HW1 2231   2.013   0.638   0.934 -0.6377  0.5577  0.7517
  744SOL    HW2 2232   1.974   0.503   0.837 -1.8739 -1.2385 -1.1210
  745SOL     OW 2233   2.253   1.216   1.973 -0.0752  0.4167 -0.0688
  745SOL    HW1 2234   2.243   1.251   1.880 -0.0675 -2.7178  1.4918
  745SOL    HW2 2235   2.273   1.118   1.979  1.5133  2.2699  0.3390
  746SOL     OW 2236   1.240   1.557   0.625  0.0558  0.0926  0.2794
  746SOL    HW1 2237   1.328   1.517   0.602 -3.4926  3.0610  2.9756
  746SOL    HW2 2238   1.249   1.630   0.695 -1.0166  0.9681  1.3919
  747SOL     OW 2239   1.965   1.523   0.933  0.2190  0.1781  0.2768
  747SOL    HW1 2240   1.864   1.521   0.963 -0.8774  0.8497  3.3835
  747SOL    HW2 2241   1.973   1.498   0.833 -1.5031  3.6916 -1.7877
  748SOL     OW 2242   0.291   2.812   0.392  0.2279  0.2131  0.1517
  748SOL    HW1 2243   0.347   2.786   0.474  0.1408 -0.3870 -0.7451
  748SOL    HW2 2244   0.352   2.811   0.310 -1.0604  1.0731  0.6644
  749SOL     OW 2245   0.283   0.926   2.400 -0.7298  0.0983  0.2829
  749SOL    HW1 2246   0.365   0.952   2.342  0.9244 -1.5799 -2.0615
  749SOL    HW2 2247   0.203   0.983   2.377  1.4679 -0.0869 -0.6202
  750SOL     OW 2248   1.431   2.771   1.922 -0.1386 -0.0490 -0.4038
  750SOL    HW1 2249   1.354   2.827   1.945 -1.3715  0.1904 -2.9277
  750SOL    HW2 2250   1.522   2.813   1.929 -2.0005 -1.3789  2.2295
  751SOL     OW 2251   2.606   0.577   0.268 -0.4770  0.4038  0.2153
  751SOL    HW1 2252   2.558   0.637   0.330 -1.0444 -1.7525 -3.5041
  751SOL    HW2 2253   2.621   0.487   0.312  0.5014  2.0833  0.3023
  752SOL     OW 2254   3.118   2.123   0.750  0.9638  0.6014  0.4152
  752SOL    HW1 2255   3.026   2.093   0.773 -0.1913 -0.2037 -1.0706
  752SOL    HW2 2256   0.005   2.219   0.715  1.2530 -1.9805  1.1941
  753SOL     OW 2257   0.904   0.195   0.989  0.0537 -0.4690 -0.2613
  753SOL    HW1 2258   0.951   0.159   0.907 -2.0314  1.2469  3.0321
  753SOL    HW2 2259   0.805   0.212   0.960 -0.7961  0.2737  1.5948
  754SOL     OW 2260   0.522   0.054   2.364  0.1882 -0.7341 -0.0968
  754SOL    HW1 2261   0.434   0.093   2.336 -0.3070 -0.0451  0.4385
  754SOL    HW2 2262   0.516   3.072   2.363  2.1831  0.4095  0.7232
  755SOL     OW 2263   2.236   0.898   2.922 -0.3872 -0.8961 -0.4687
  755SOL    HW1 2264   2.237   0.882   3.021  0.0996  0.7403 -2.2021
  755SOL    HW2 2265   2.325   0.925   2.886 -2.0366 -1.1316 -1.7551
  756SOL     OW 2266   2.418   2.051   2.537  0.2245 -0.2113  0.4662
  756SOL    HW1 2267   2.456   2.079   2.447  2.6845  0.4006  0.6523
  756SOL    HW2 2268   2.491   2.020   2.596 -1.3834  0.7045  1.0943
  757SOL     OW 2269   1.495   0.528   0.761 -0.6893  0.0636  0.1783
  757SOL    HW1 2270   1.397   0.505   0.756  1.2083  0.6103  1.6992
  757SOL    HW2 2271   1.539   0.479   0.838 -0.0934  2.3698  0.3860
  758SOL     OW 2272   1.577   0.276   1.204  0.2370 -0.3576 -0.4886
  758SOL    HW1 2273   1.486   0.235   1.213 -0.4197 -2.7214  1.3007
  758SOL    HW2 2274   1.608   0.330   1.289  1.0613  1.1279  3.3064
  759SOL     OW 2275   2.618   0.637   1.225  0.4400  0.4444 -0.0102
  759SOL    HW1 2276   2.588   0.559   1.289 -1.0335 -1.9873 -0.2908
  759SOL    HW2 2277   2.698   0.605   1.165  0.4138  2.4236  2.9710
  760SOL     OW 2278   2.368   1.120   1.348  0.0428 -0.2643 -0.0393
  760SOL    HW1 2279   2.397   1.147   1.250  1.3571 -0.0270 -1.3308
  760SOL    HW2 2280   2.359   1.018   1.356  0.9201 -1.1590  1.8756
  761SOL     OW 2281   0.278   0.448   0.364 -0.0679  0.0009  0.1425
  761SOL    HW1 2282   0.353   0.469   0.300  2.3360 -1.2465 -1.5265
  761SOL    HW2 2283   0.232   0.528   0.406  0.7462 -2.4355  0.7881
  762SOL     OW 2284   1.740   2.135   1.044 -0.1401  0.2840  0.0869
  762SOL    HW1 2285   1.828   2.140   0.986  1.5965  2.3693  0.8269
  762SOL    HW2 2286   1.688   2.045   1.035 -0.2500 -0.7200  3.0578
  763SOL     OW 2287   1.256   1.391   1.895 -0.0529  0.3663 -0.3402
  763SOL    HW1 2288   1.191   1.467   1.899  1.9893  3.0754  3.0008
  763SOL    HW2 2289   1.214   1.301   1.878  3.1837 -0.0652  1.6671
  764SOL     OW 2290   0.087   2.008   2.570 -0.5120 -0.0441 -0.2087
  764SOL    HW1 2291   3.116   2.007   2.521  0.7713  0.8520  0.7240
  764SOL    HW2 2292   0.075   2.007   2.673  1.8999 -0.6541 -0.7199
  765SOL     OW 2293   1.479   2.762   1.183 -0.1558  0.3118 -0.1066
  765SOL    HW1 2294   1.523   2.670   1.193  1.0449 -0.1907 -0.1798
  765SOL    HW2 2295   1.543   2.832   1.139 -0.4956  1.6959 -0.1112
  766SOL     OW 2296   0.094   2.554   2.584 -0.1254  0.2791 -0.0418
  766SOL    HW1 2297   0.013   2.602   2.625  0.4107  0.4476 -0.1341
  766SOL    HW2 2298   0.117   2.475   2.638  0.1562 -1.9176 -1.7894
  767SOL     OW 2299   1.305   0.913   2.348 -0.0586 -0.2769  0.8189
  767SOL    HW1 2300   1.402   0.933   2.372 -1.1681 -0.4200 -0.9527
  767SOL    HW2 2301   1.285   0.820   2.374  2.4863  2.3782 -1.8155
  768SOL     OW 2302   1.337   2.244   2.963  0.1540  0.3705  0.4180
  768SOL    HW1 2303   1.417   2.275   3.018 -1.0294 -0.6384  2.3387
  768SOL    HW2 2304   1.350   2.150   2.932 -0.0465  0.8013  0.3538
  769SOL     OW 2305   0.382   2.181   1.103 -0.0772 -0.0983 -0.0073
  769SOL    HW1 2306   0.299   2.121   1.103 -0.3917  1.1197 -0.9313
  769SOL    HW2 2307   0.466   2.131   1.140  1.3146 -2.1869  0.8947
  770SOL     OW 2308   1.998   0.665   2.941 -0.3281 -0.4752  0.2553
  770SOL    HW1 2309   1.959   0.574   2.964  0.1081  1.5506 -0.7519
  770SOL    HW2 2310   1.932   0.742   2.951 -0.9386  1.6806  0.5317
  771SOL     OW 2311   0.129   3.068   2.353 -0.5169 -0.4665 -0.0122
  771SOL    HW1 2312   0.039   3.082   2.310 -0.6588 -1.7258  3.9479
  771SOL    HW2 2313   0.178   2.988   2.307  1.5843 -1.9469 -0.3951
  772SOL     OW 2314   2.006   2.812   2.113  0.2867  0.6336 -0.4502
  772SOL    HW1 2315   2.041   2.720   2.076  1.1586 -1.9535 -0.6572
  772SOL    HW2 2316   2.027   2.894   2.060  0.0213 -0.9089  1.7432
  773SOL     OW 2317   1.021   2.015   1.647 -0.3340  0.0210  0.0370
  773SOL    HW1 2318   1.004   2.003   1.548  2.2079  1.0766  1.2923
  773SOL    HW2 2319   0.993   2.110   1.681 -2.2666  0.0839 -2.9394
  774SOL     OW 2320   1.174   0.022   1.956  0.0726 -0.0685  0.3360
  774SOL    HW1 2321   1.212   0.056   2.045  0.4791 -0.5125  3.6560
  774SOL    HW2 2322   1.074   0.037   1.960 -1.4334  0.4210 -0.5129
  775SOL     OW 2323   2.238   2.813   0.069 -0.1479 -0.0007 -0.0657
  775SOL    HW1 2324   2.243   2.756   3.106  1.2044  2.5780 -1.6258
  775SOL    HW2 2325   2.142   2.853   0.081 -0.5903  0.7098 -0.5315
  776SOL     OW 2326   3.037   0.729   2.245 -0.0157 -0.5529 -0.1741
  776SOL    HW1 2327   2.995   0.813   2.201 -2.7623  0.3492 -0.8522
  776SOL    HW2 2328   3.050   0.748   2.346 -1.0087  0.7744 -0.1466
  777SOL     OW 2329   2.323   2.294   2.070  0.1463 -0.1859 -0.0147
  777SOL    HW1 2330   2.304   2.269   1.974  0.3565  1.9832  1.0861
  777SOL    HW2 2331   2.253   2.257   2.137 -1.7570 -2.3241  0.7336
  778SOL     OW 2332   1.959   0.844   2.508 -0.0769 -0.0521  0.5317
  778SOL    HW1 2333   2.002   0.809   2.593  1.2232 -0.8332 -1.6246
  778SOL    HW2 2334   2.006   0.802   2.425 -1.0857  0.7927  0.5264
  779SOL     OW 2335   2.609   0.337   0.424  0.3861  0.0769 -0.4328
  779SOL    HW1 2336   2.609   0.336   0.526  2.4193  2.6656  1.0050
  779SOL    HW2 2337   2.602   0.248   0.379 -1.4713  1.1209  0.7142
  780SOL     OW 2338   2.539   0.384   3.111 -0.1500  0.2981 -0.2012
  780SOL    HW1 2339   2.603   0.321   0.043 -5.3283  1.7586 -2.5794
  780SOL    HW2 2340   2.442   0.351   0.002  2.3229 -1.5665 -2.2792
  781SOL     OW 2341   0.328   2.609   1.252 -0.0751  0.2004 -0.2993
  781SOL    HW1 2342   0.312   2.510   1.272  1.6475  0.4863  1.1686
  781SOL    HW2 2343   0.239   2.654   1.237  0.3996  1.3051  2.0753
  782SOL     OW 2344   2.132   2.634   0.299  0.2150  0.4173 -0.2681
  782SOL    HW1 2345   2.117   2.731   0.330  0.8386 -0.7093  0.5354
  782SOL    HW2 2346   2.200   2.626   0.228  1.0141 -1.1158  1.8597
  783SOL     OW 2347   0.834   1.088   1.386 -0.1549 -0.0180 -0.0209
  783SOL    HW1 2348   0.748   1.055   1.336 -0.1172 -1.0668 -2.3416
  783SOL    HW2 2349   0.891   0.999   1.392  1.4075  0.1258  1.0545
  784SOL     OW 2350   1.449   0.705   2.766 -0.5307 -0.1155 -0.2012
  784SOL    HW1 2351   1.364   0.671   2.724 -0.1937  2.2597  3.6911
  784SOL    HW2 2352   1.468   0.798   2.727  2.0132 -1.8568  0.5959
  785SOL     OW 2353   2.338   0.474   0.996 -0.0052 -0.7252 -0.0982
  785SOL    HW1 2354   2.390   0.394   1.029 -0.5395 -0.0553  1.4673
  785SOL    HW2 2355   2.248   0.480   1.043  0.4806  0.0560 -1.5865
  786SOL     OW 2356   1.186   2.219   2.046  0.7256  0.0787 -0.0473
  786SOL    HW1 2357   1.209   2.300   1.991  2.3292  0.8482 -0.5806
  786SOL    HW2 2358   1.257   2.147   2.038 -1.3814 -1.9065 -1.2383
  787SOL     OW 2359   1.876   0.416   1.213 -0.0049  0.8105 -0.0719
  787SOL    HW1 2360   1.838   0.509   1.217 -0.3090  1.5633 -0.3092
  787SOL    HW2 2361   1.848   0.366   1.298  0.3133 -0.9428 -1.1590
  788SOL     OW 2362   0.199   0.847   0.622  0.6248 -0.4982  0.3265
  788SOL    HW1 2363   0.285   0.870   0.675  1.4587  1.3541 -1.2632
  788SOL    HW2 2364   0.198   0.900   0.536 -1.1330 -2.1170 -1.4424
  789SOL     OW 2365   0.421   2.042   1.485  0.3326 -0.5277 -0.0061
  789SOL    HW1 2366   0.324   2.068   1.495 -1.1348 -1.0601 -0.1788
  789SOL    HW2 2367   0.455   1.989   1.562 -0.9584 -0.2889 -0.7202
  790SOL     OW 2368   0.842   0.691   2.350 -0.7973 -0.0304 -0.2820
  790SOL    HW1 2369   0.769   0.755   2.324 -0.1272 -1.1395  0.4462
  790SOL    HW2 2370   0.910   0.679   2.276  0.2150  1.2084  4.8169
  791SOL     OW 2371   1.704   0.708   0.850 -0.7850 -0.3449 -0.0286
  791SOL    HW1 2372   1.631   0.663   0.798  1.1734  0.2854  2.1494
  791SOL    HW2 2373   1.767   0.632   0.889 -2.4755 -0.7822 -1.8152
  792SOL     OW 2374   0.940   2.657   2.256  0.3933  0.1137 -0.0552
  792SOL    HW1 2375   1.035   2.692   2.265  1.0962  1.5659 -0.2571
  792SOL    HW2 2376   0.947   2.557   2.245 -0.8821  0.9497 -1.0526
  793SOL     OW 2377   0.764   0.222   0.305 -1.0207 -0.3857  0.1783
  793SOL    HW1 2378   0.736   0.272   0.223  2.4084 -2.1926  2.7605
  793SOL    HW2 2379   0.829   0.144   0.274  1.5258 -1.6866 -1.1458
  794SOL     OW 2380   0.487   1.504   1.951 -0.4085 -0.4958 -0.2480
  794SOL    HW1 2381   0.393   1.464   1.952 -1.4023 -1.1147  0.3079
  794SOL    HW2 2382   0.543   1.463   2.024  1.1200 -1.5432 -0.2640
  795SOL     OW 2383   0.203   2.174   2.396  0.1529 -0.4560  0.3785
  795SOL    HW1 2384   0.154   2.116   2.458 -2.6233  0.7146 -3.9319
  795SOL    HW2 2385   0.154   2.182   2.308 -2.0739 -1.0384  1.0872
  796SOL     OW 2386   2.568   0.751   2.201  0.5134  0.4048  0.2275
  796SOL    HW1 2387   2.529   0.771   2.288  0.8049  0.9635 -0.4559
  796SOL    HW2 2388   2.605   0.829   2.155  0.5300 -3.5045  1.8177
  797SOL     OW 2389   2.698   2.269   2.777 -0.7126  0.2088  0.0299
  797SOL    HW1 2390   2.674   2.330   2.699 -0.2893 -0.2941  1.9590
  797SOL    HW2 2391   2.619   2.278   2.848  0.7342 -0.1899  3.2952
  798SOL     OW 2392   3.017   0.036   2.218 -0.1440  0.0780 -0.2127
  798SOL    HW1 2393   2.937   0.001   2.274  1.0644 -0.5086  1.1744
  798SOL    HW2 2394   2.991   0.067   2.127 -1.3410  0.9053  0.9197
  799SOL     OW 2395   0.193   2.577   2.334 -0.2933  0.2135 -0.0224
  799SOL    HW1 2396   0.158   2.566   2.433  0.4597 -1.1484  0.4413
  799SOL    HW2 2397   0.132   2.541   2.263  3.1692  1.1868  1.9237
  800SOL     OW 2398   0.425   2.148   0.156  0.6153  0.1009  0.0130
  800SOL    HW1 2399   0.351   2.169   0.086 -0.6102 -0.1037 -3.5480
  800SOL    HW2 2400   0.425   2.043   0.166 -1.2308 -2.2939  1.4714
  801SOL     OW 2401   1.712   1.504   0.997  0.5451 -0.0432 -0.3237
  801SOL    HW1 2402   1.710   1.448   0.910  2.0080 -1.3517 -0.5121
  801SOL    HW2 2403   1.620   1.542   1.011  0.7988  1.3975  2.3309
  802SOL     OW 2404   3.015   1.258   0.652 -0.0785 -0.3375 -0.0768
  802SOL    HW1 2405   2.917   1.234   0.642  2.1034  1.2607 -0.2571
  802SOL    HW2 2406   3.051   1.216   0.736 -0.8157 -0.4732 -1.5016
  803SOL     OW 2407   1.206   1.811   2.074 -0.0714  0.1899 -0.2521
  803SOL    HW1 2408   1.174   1.777   1.988  0.4808 -1.2029  1.2675
  803SOL    HW2 2409   1.143   1.883   2.108 -0.2978  1.7450 -1.2702
  804SOL     OW 2410   1.810   1.525   0.457 -0.0482 -0.1001  0.4115
  804SOL    HW1 2411   1.846   1.610   0.412  2.0602  2.3161 -2.2237
  804SOL    HW2 2412   1.884   1.480   0.513 -2.0025  1.0481 -0.5191
  805SOL     OW 2413   2.573   1.162   0.028 -0.1223  0.9430  0.6924
  805SOL    HW1 2414   2.553   1.181   3.047 -1.2022 -0.2376  3.2050
  805SOL    HW2 2415   2.579   1.063   0.046  0.6188 -2.6744 -0.2233
  806SOL     OW 2416   0.707   2.616   0.517  0.1582  0.4416 -0.2581
  806SOL    HW1 2417   0.698   2.627   0.417 -0.2850 -0.0499  2.4445
  806SOL    HW2 2418   0.757   2.694   0.554  1.8276  2.0861 -2.6577
  807SOL     OW 2419   2.239   1.494   2.615  0.5926  0.4923 -0.4445
  807SOL    HW1 2420   2.201   1.588   2.629 -0.2456  3.7178  1.9310
  807SOL    HW2 2421   2.195   1.448   2.537  1.5134  2.5516  2.2899
  808SOL     OW 2422   0.917   1.510   1.223  0.1587  0.6626 -0.0768
  808SOL    HW1 2423   0.966   1.422   1.248 -0.6516  0.2630  1.8257
  808SOL    HW2 2424   0.831   1.522   1.269  0.8767 -2.2438 -1.1189
  809SOL     OW 2425   2.877   0.611   0.689  0.2090 -0.5370 -0.4673
  809SOL    HW1 2426   2.797   0.632   0.752 -2.5777 -0.5239  0.5754
  809SOL    HW2 2427   2.865   0.650   0.599 -2.0190 -1.5296  1.3910
  810SOL     OW 2428   0.574   1.420   0.705  0.0670 -0.1242 -0.4223
  810SOL    HW1 2429   0.582   1.508   0.754  1.0544  1.7102  0.8495
  810SOL    HW2 2430   0.658   1.405   0.648 -2.0738  2.9859 -0.8507
  811SOL     OW 2431   1.970   2.682   1.230  0.7857  0.2767 -0.4755
  811SOL    HW1 2432   2.059   2.656   1.186  1.8724 -1.7210 -0.0842
  811SOL    HW2 2433   1.917   2.597   1.258  0.4764 -0.9800  1.1327
  812SOL     OW 2434   1.153   2.697   1.585  0.0190  0.6044  0.3640
  812SOL    HW1 2435   1.225   2.770   1.589  2.6950  2.5490 -0.3588
  812SOL    HW2 2436   1.082   2.714   1.514  2.5637  3.4332  1.2258
  813SOL     OW 2437   0.754   2.904   1.623  0.0241  0.2632  0.3958
  813SOL    HW1 2438   0.710   2.815   1.658  0.9584  1.0710 -2.0636
  813SOL    HW2 2439   0.732   2.978   1.687  0.7762  0.0653 -0.9043
  814SOL     OW 2440   1.081   2.627   2.557  0.0304  0.4254  0.0030
  814SOL    HW1 2441   1.089   2.531   2.534  0.9131  0.4067 -0.4986
  814SOL    HW2 2442   0.996   2.646   2.606  1.2449  0.0493  0.4316
  815SOL     OW 2443   0.861   0.262   2.551 -0.0348 -0.2301 -0.2329
  815SOL    HW1 2444   0.800   0.179   2.577  1.5493  0.9274  3.4425
  815SOL    HW2 2445   0.814   0.350   2.569 -1.8369 -0.0879 -1.5991
  816SOL     OW 2446   2.310   0.278   3.086 -0.0577 -0.1216  0.1979
  816SOL    HW1 2447   2.245   0.220   0.021 -1.5971 -1.6079 -2.7523
  816SOL    HW2 2448   2.254   0.326   3.012 -1.5521 -4.3467 -0.7108
  817SOL     OW 2449   2.107   3.029   1.944 -0.0826  0.0118  0.0597
  817SOL    HW1 2450   2.174   3.106   1.948 -3.1543 -0.8921  0.2786
  817SOL    HW2 2451   2.019   3.059   1.900 -1.4159  0.8329 -1.0465
  818SOL     OW 2452   1.123   0.634   0.321  0.1530 -0.2882  0.1741
  818SOL    HW1 2453   1.080   0.658   0.231 -0.4633 -1.9004 -0.9658
  818SOL    HW2 2454   1.061   0.613   0.400  2.4974  0.8109  4.3458
  819SOL     OW 2455   1.714   1.825   2.514  0.0609  0.4960 -0.6514
  819SOL    HW1 2456   1.649   1.746   2.521 -0.6596 -0.5287  0.3409
  819SOL    HW2 2457   1.803   1.803   2.464  0.0789  0.1374 -2.0378
  820SOL     OW 2458   0.143   1.610   2.944 -0.1499  0.0408  0.0238
  820SOL    HW1 2459   0.207   1.611   2.865  0.8760 -2.4023  1.6419
  820SOL    HW2 2460   0.142   1.517   2.982 -1.6683  2.1162 -0.6988
  821SOL     OW 2461   0.077   2.721   0.698  0.1531  0.6745 -0.2785
  821SOL    HW1 2462   0.148   2.788   0.685 -1.2743  0.1137  3.5388
  821SOL    HW2 2463   0.070   2.702   0.797  3.8589 -2.4788  0.0721
  822SOL     OW 2464   2.335   2.396   2.632  0.1434  0.2455 -0.1848
  822SOL    HW1 2465   2.265   2.428   2.563  0.5286 -0.1114  1.2702
  822SOL    HW2 2466   2.376   2.471   2.696  0.4089  1.4008  1.2264
  823SOL     OW 2467   1.484   0.111   2.121  0.5560 -0.1016  0.3367
  823SOL    HW1 2468   1.495   0.011   2.105 -0.7419  0.2710  0.1606
  823SOL    HW2 2469   1.390   0.137   2.143  2.0397 -2.9455 -2.0712
  824SOL     OW 2470   2.856   2.297   2.059  0.1551 -0.4192  0.2910
  824SOL    HW1 2471   2.850   2.377   1.999 -0.8635  3.2919  1.0178
  824SOL    HW2 2472   2.865   2.326   2.158 -0.1139 -0.9870 -0.3832
  825SOL     OW 2473   2.986   2.094   2.427  0.5566 -0.2402 -0.2054
  825SOL    HW1 2474   2.906   2.024   2.423 -1.8061 -0.3157  1.8618
  825SOL    HW2 2475   2.984   2.163   2.351  0.1897  1.8077 -0.9039
  826SOL     OW 2476   2.543   0.791   2.455  0.3253  0.3769  0.1399
  826SOL    HW1 2477   2.608   0.737   2.517  3.1180 -2.3028  5.2635
  826SOL    HW2 2478   2.458   0.822   2.507 -0.1390  1.1116  1.0679
  827SOL     OW 2479   2.601   2.198   1.575 -0.3057 -0.4314  0.0246
  827SOL    HW1 2480   2.578   2.232   1.671  0.5643 -0.0181 -0.2039
  827SOL    HW2 2481   2.515   2.187   1.518 -1.2350  3.9529  0.8514
  828SOL     OW 2482   2.905   0.093   1.849  0.1652  0.1118  0.2576
  828SOL    HW1 2483   2.973   0.017   1.841  1.1916  0.1086 -2.9796
  828SOL    HW2 2484   2.925   0.172   1.786  3.2251 -1.9289 -2.3069
  829SOL     OW 2485   1.161   2.067   2.727  0.2488  0.4503  0.0884
  829SOL    HW1 2486   1.193   1.972   2.695  2.2330  0.3989  0.2790
  829SOL    HW2 2487   1.057   2.081   2.715 -0.8913  0.3299  3.0143
  830SOL     OW 2488   0.752   0.816   0.903  0.2707 -0.0993 -0.2777
  830SOL    HW1 2489   0.776   0.777   0.995 -0.1859 -0.7518  1.1176
  830SOL    HW2 2490   0.729   0.915   0.910  1.4222 -1.4457  1.2313
  831SOL     OW 2491   3.063   1.768   2.904  0.1246  0.4656 -0.5095
  831SOL    HW1 2492   2.976   1.728   2.938 -0.9076 -1.5530 -2.0362
  831SOL    HW2 2493   0.025   1.717   2.933  2.4621 -0.3632 -1.9819
  832SOL     OW 2494   1.861   2.509   2.282  0.2910  0.3067 -0.3315
  832SOL    HW1 2495   1.910   2.447   2.216 -1.4587  0.9865  0.4770
  832SOL    HW2 2496   1.815   2.578   2.223 -1.0511 -1.9506  0.8388
  833SOL     OW 2497   0.922   0.137   2.014 -0.2100 -0.1272 -0.2322
  833SOL    HW1 2498   0.898   0.232   1.995  1.3627 -1.2146 -1.0495
  833SOL    HW2 2499   0.876   0.108   2.102  3.1338 -0.4776 -0.1568
  834SOL     OW 2500   0.001   0.159   1.384  0.1636  0.0759  0.1328
  834SOL    HW1 2501   3.088   0.253   1.368  0.3620  1.8996 -0.3252
  834SOL    HW2 2502   0.101   0.159   1.358  2.7869  0.7682 -0.1232
  835SOL     OW 2503   2.765   0.660   0.054  0.2236 -0.6768  0.0050
  835SOL    HW1 2504   2.713   0.616   0.127 -0.6101  0.0599 -2.5456
  835SOL    HW2 2505   2.742   0.611   3.085 -3.5690 -1.5615 -5.6958
  836SOL     OW 2506   1.472   2.128   0.214  0.2563  0.2120 -0.5798
  836SOL    HW1 2507   1.512   2.169   0.128  0.2550  2.6211 -1.2865
  836SOL    HW2 2508   1.541   2.066   0.249 -3.3882  2.5523 -1.1433
  837SOL     OW 2509   2.008   1.984   0.692  0.0266 -0.1585 -0.1602
  837SOL    HW1 2510   2.062   1.892   0.696 -1.3972 -0.9755  1.3207
  837SOL    HW2 2511   2.010   2.026   0.601 -1.0117  1.0157  0.6674
  838SOL     OW 2512   1.572   1.007   2.393 -0.1513  0.0337 -0.0082
  838SOL    HW1 2513   1.603   0.983   2.298 -2.2783  2.1944  0.8072
  838SOL    HW2 2514   1.655   1.005   2.454 -0.2766 -0.6291  1.4612
  839SOL     OW 2515   0.759   1.459   2.107  0.0897  0.3010  0.2059
  839SOL    HW1 2516   0.731   1.379   2.045  0.5146 -1.8890  0.4110
  839SOL    HW2 2517   0.840   1.432   2.165  1.5694 -0.0180 -0.7536
  840SOL     OW 2518   1.048   1.648   0.399  0.2204 -0.0414 -0.2239
  840SOL    HW1 2519   0.963   1.702   0.405 -0.7248 -1.6096 -0.6388
  840SOL    HW2 2520   1.094   1.647   0.489 -1.5814  3.7861 -0.7008
  841SOL     OW 2521   1.714   2.411   0.461 -0.1169  0.3729  0.0172
  841SOL    HW1 2522   1.720   2.335   0.529 -1.2830  0.2228 -0.8034
  841SOL    HW2 2523   1.620   2.446   0.455  2.6268 -1.5712 -2.4005
  842SOL     OW 2524   0.421   0.525   0.123  0.0936  0.4837 -0.0410
  842SOL    HW1 2525   0.500   0.515   0.189  0.3825 -2.1999  2.9168
  842SOL    HW2 2526   0.439   0.479   0.030  1.5363 -0.1998 -2.2168
  843SOL     OW 2527   0.676   0.381   0.628 -0.1616 -0.0166 -0.0529
  843SOL    HW1 2528   0.586   0.343   0.591  0.2866  1.0827 -1.5024
  843SOL    HW2 2529   0.760   0.341   0.592 -1.7901  1.7769  0.8761
  844SOL     OW 2530   2.874   3.099   2.846 -0.0154 -0.2701  0.2270
  844SOL    HW1 2531   2.795   3.093   2.787  0.6150  0.0294  3.1185
  844SOL    HW2 2532   2.950   3.043   2.808  1.8195  0.3486  2.5723
  845SOL     OW 2533   2.952   2.388   1.591  0.0756 -0.0375 -0.0074
  845SOL    HW1 2534   2.999   2.344   1.674 -1.7486 -0.1835  3.4262
  845SOL    HW2 2535   2.923   2.316   1.525  2.9239  0.5132  0.0815
  846SOL     OW 2536   2.711   1.692   2.315  0.0416 -0.2050 -0.1095
  846SOL    HW1 2537   2.634   1.675   2.378 -2.2176  0.0617 -1.6700
  846SOL    HW2 2538   2.672   1.699   2.223 -0.5336 -2.8123  2.5147
  847SOL     OW 2539   1.041   0.742   1.967 -0.0380 -0.9326 -0.3335
  847SOL    HW1 2540   1.032   0.699   2.054  1.0600 -3.2816 -6.1713
  847SOL    HW2 2541   0.973   0.700   1.907  1.6429 -0.4039  0.8633
  848SOL     OW 2542   2.647   2.786   2.849 -0.0807 -0.0003 -0.7963
  848SOL    HW1 2543   2.718   2.734   2.900  2.7223  0.7747 -0.6499
  848SOL    HW2 2544   2.634   2.878   2.885  2.9119  0.2841 -1.5989
  849SOL     OW 2545   0.391   2.791   2.999  0.5236 -0.2840 -0.1774
  849SOL    HW1 2546   0.363   2.886   3.020  0.9973  0.3335  2.1148
  849SOL    HW2 2547   0.339   2.751   2.920 -0.2160 -0.3716 -0.6017
  850SOL     OW 2548   1.302   2.996   1.165  0.4373  0.0132  0.2041
  850SOL    HW1 2549   1.376   2.936   1.196  0.9357 -0.8610  0.7122
  850SOL    HW2 2550   1.292   2.999   1.065  0.8854  0.5329 -1.2970
  851SOL     OW 2551   2.720   0.544   2.334 -0.4920  0.7447 -0.3348
  851SOL    HW1 2552   2.667   0.601   2.265 -1.9926  2.0631 -0.8030
  851SOL    HW2 2553   2.731   0.447   2.301  0.5578  0.3894  1.9744
  852SOL     OW 2554   1.492   0.506   2.324  0.2479  0.7640  0.2577
  852SOL    HW1 2555   1.565   0.577   2.340  1.3940 -0.3475  1.0686
  852SOL    HW2 2556   1.539   0.421   2.299 -1.2526  1.6881  0.5588
  853SOL     OW 2557   0.032   2.775   0.288 -0.1359 -0.8029  0.0784
  853SOL    HW1 2558   3.086   2.830   0.343 -0.4496 -0.9396  1.0884
  853SOL    HW2 2559   0.124   2.773   0.333 -0.9557  0.9433 -0.6114
  854SOL     OW 2560   2.409   1.145   2.234 -0.0008 -0.1646 -0.0766
  854SOL    HW1 2561   2.477   1.225   2.229  3.4657  1.7508  1.4248
  854SOL    HW2 2562   2.413   1.085   2.153  1.5024  0.2267  0.9684
  855SOL     OW 2563   0.802   2.644   0.249  0.2427  0.0308 -0.0152
  855SOL    HW1 2564   0.881   2.582   0.274  0.2201 -3.9691  2.1724
  855SOL    HW2 2565   0.813   2.694   0.161 -1.6837 -2.7764  1.8495
  856SOL     OW 2566   3.099   2.980   2.742  0.3034 -0.0212  0.3410
  856SOL    HW1 2567   0.053   3.034   2.699 -0.4620  0.4797  0.1266
  856SOL    HW2 2568   0.006   2.928   2.831 -0.9134  1.9936  2.6814
  857SOL     OW 2569   0.935   2.825   1.406 -0.5001 -0.5556  0.4189
  857SOL    HW1 2570   0.867   2.857   1.476 -0.0648 -0.3098  2.3667
  857SOL    HW2 2571   0.904   2.739   1.359 -0.2605 -0.2468  0.2502
  858SOL     OW 2572   2.513   2.284   1.807  0.0858 -0.3894  0.1963
  858SOL    HW1 2573   2.544   2.367   1.863  1.3629 -0.0293  2.7875
  858SOL    HW2 2574   2.413   2.274   1.792  0.7207 -0.5381  0.8678
  859SOL     OW 2575   1.842   2.082   1.655 -0.1930  0.3620  0.1428
  859SOL    HW1 2576   1.823   2.034   1.566  0.2815  0.9471 -0.5871
  859SOL    HW2 2577   1.751   2.101   1.704 -0.3154 -2.8973 -0.1072
  860SOL     OW 2578   2.342   0.076   0.313 -0.3876  0.3152 -0.3011
  860SOL    HW1 2579   2.276   0.133   0.253  0.2486 -0.9018  1.9905
  860SOL    HW2 2580   2.294   0.043   0.397 -0.6421 -0.6370  0.1860
  861SOL     OW 2581   2.666   0.212   0.686 -0.1571 -0.1476  0.6353
  861SOL    HW1 2582   2.702   0.119   0.704 -0.2588  0.5407  1.4953
  861SOL    HW2 2583   2.565   0.203   0.669  2.4983  1.5611  0.5591
  862SOL     OW 2584   1.284   2.796   2.593 -0.0533  0.0132  0.3380
  862SOL    HW1 2585   1.353   2.718   2.598  0.4800 -1.4812  2.3493
  862SOL    HW2 2586   1.191   2.753   2.592  1.6841 -2.4920 -0.8444
  863SOL     OW 2587   0.535   0.716   1.220  0.0364  0.0789  0.0608
  863SOL    HW1 2588   0.534   0.630   1.164  1.3756  3.6339  0.1212
  863SOL    HW2 2589   0.631   0.731   1.245 -0.6248 -1.8974  0.7799
  864SOL     OW 2590   3.097   3.014   1.829  0.0601 -0.2470  0.4859
  864SOL    HW1 2591   0.055   3.073   1.856 -2.3548 -0.0665 -1.2204
  864SOL    HW2 2592   3.108   2.915   1.854 -0.5871  0.6116  1.9601
  865SOL     OW 2593   0.493   1.171   0.083 -0.4834  0.3590  0.6676
  865SOL    HW1 2594   0.478   1.251   0.020 -0.5964  1.3354  2.1628
  865SOL    HW2 2595   0.567   1.114   0.040  3.0420 -2.8637 -1.0793
  866SOL     OW 2596   3.014   0.472   0.347  0.5967  0.0068  0.9870
  866SOL    HW1 2597   3.047   0.492   0.440 -1.3374  1.7050 -0.6792
  866SOL    HW2 2598   2.925   0.517   0.334 -1.3145 -0.0289 -1.5381
  867SOL     OW 2599   2.908   2.621   2.940 -0.2745  0.5327  0.0556
  867SOL    HW1 2600   2.975   2.663   3.011  2.6881 -1.2631 -0.1545
  867SOL    HW2 2601   2.861   2.541   2.982 -1.6953 -0.2334  0.0873
  868SOL     OW 2602   1.376   0.668   0.195 -0.4362  0.1443  0.5008
  868SOL    HW1 2603   1.427   0.585   0.164 -1.1969 -0.4715 -1.2770
  868SOL    HW2 2604   1.296   0.633   0.252  0.8167 -0.6680  0.6314
  869SOL     OW 2605   2.444   1.423   0.382 -0.7223 -0.0511 -0.3918
  869SOL    HW1 2606   2.385   1.496   0.344  1.5760 -1.4315 -0.8475
  869SOL    HW2 2607   2.541   1.454   0.375 -1.2247 -1.7684 -0.0634
  870SOL     OW 2608   2.240   1.570   0.262 -0.2273  0.4680 -0.1518
  870SOL    HW1 2609   2.223   1.537   0.169 -0.3632  0.6929  1.1111
  870SOL    HW2 2610   2.194   1.655   0.282  0.3397 -2.0922 -2.3912
  871SOL     OW 2611   1.332   1.379   1.028  0.0263 -0.3241 -0.3125
  871SOL    HW1 2612   1.237   1.414   1.038 -0.3231  2.1522 -3.9337
  871SOL    HW2 2613   1.370   1.331   1.109 -2.0481  2.9794 -0.2257
  872SOL     OW 2614   1.230   1.693   1.482 -0.1288  0.7574 -0.0474
  872SOL    HW1 2615   1.284   1.603   1.481  1.0038 -2.3672 -0.0925
  872SOL    HW2 2616   1.198   1.716   1.388  0.3032 -1.5468  0.7883
  873SOL     OW 2617   0.587   1.598   2.238  0.6148  0.0256 -0.0610
  873SOL    HW1 2618   0.576   1.553   2.330  2.8026  0.6204 -0.6488
  873SOL    HW2 2619   0.653   1.544   2.183  0.1781 -1.1758 -3.9907
  874SOL     OW 2620   0.656   1.564   1.325 -0.4169 -0.3024 -0.6376
  874SOL    HW1 2621   0.615   1.648   1.360 -0.4733 -2.3061  1.0356
  874SOL    HW2 2622   0.589   1.501   1.284 -0.0910  1.3343 -2.0530
  875SOL     OW 2623   2.158   0.490   1.208  0.3771  0.4008  0.3233
  875SOL    HW1 2624   2.058   0.495   1.183  1.4993 -1.1594  0.5502
  875SOL    HW2 2625   2.184   0.549   1.282  0.2946 -1.8284 -1.2360
  876SOL     OW 2626   1.059   0.753   0.031  0.1491  0.3467 -0.4519
  876SOL    HW1 2627   0.985   0.819   0.043  1.4545 -1.9640  0.4250
  876SOL    HW2 2628   1.153   0.801   0.018  0.2049 -1.2036 -1.2992
  877SOL     OW 2629   2.820   0.378   1.423  0.0823 -0.3386  0.2670
  877SOL    HW1 2630   2.726   0.396   1.389  1.1042  2.9819 -1.6578
  877SOL    HW2 2631   2.895   0.406   1.361 -3.5477  0.7853  1.8278
  878SOL     OW 2632   1.903   2.244   0.074  0.2866  0.3019  0.2514
  878SOL    HW1 2633   2.002   2.272   0.073 -0.9653 -1.1203  0.0328
  878SOL    HW2 2634   1.849   2.296   0.004  1.8030 -0.5606 -1.2842
  879SOL     OW 2635   2.561   1.923   1.423  0.4589  0.0710 -0.3809
  879SOL    HW1 2636   2.512   2.012   1.419 -3.1627 -0.2823  0.3948
  879SOL    HW2 2637   2.588   1.899   1.517  0.2221  1.1832 -0.4610
  880SOL     OW 2638   1.104   3.024   1.354 -0.2933 -0.3908  0.2971
  880SOL    HW1 2639   1.025   2.959   1.372  1.8789  1.5118  1.9782
  880SOL    HW2 2640   1.166   2.999   1.279 -2.7837  0.8511 -0.5135
  881SOL     OW 2641   1.245   1.806   0.209 -0.0887  0.2195  0.1768
  881SOL    HW1 2642   1.170   1.767   0.269  0.8129 -0.6747  2.0433
  881SOL    HW2 2643   1.212   1.884   0.161  1.1811  0.1934  1.9784
  882SOL     OW 2644   2.175   0.869   2.124  0.0294 -0.0660  0.3487
  882SOL    HW1 2645   2.148   0.946   2.184 -0.9404  0.0904 -1.2932
  882SOL    HW2 2646   2.232   0.883   2.038 -0.2971 -0.2540  0.6186
  883SOL     OW 2647   1.242   0.409   2.001  0.0248 -0.9217  0.4544
  883SOL    HW1 2648   1.316   0.477   1.992 -0.5025 -0.1725 -1.3689
  883SOL    HW2 2649   1.150   0.444   2.029  0.2834  2.7598  1.2710
  884SOL     OW 2650   2.936   0.053   3.117  0.2860  0.1006 -1.1324
  884SOL    HW1 2651   2.990   0.138   0.010  0.4558  0.5202 -2.1741
  884SOL    HW2 2652   2.932   0.036   3.017 -0.4410  1.0537  1.0675
  885SOL     OW 2653   0.819   1.779   0.336  0.0708  0.2696 -0.1969
  885SOL    HW1 2654   0.730   1.736   0.374 -0.6829  0.7268 -1.8085
  885SOL    HW2 2655   0.828   1.876   0.361  0.0749 -1.8277 -2.0529
  886SOL     OW 2656   1.859   1.511   2.840 -0.2804 -0.4529 -0.1242
  886SOL    HW1 2657   1.868   1.519   2.738  2.7284  1.9947 -1.4586
  886SOL    HW2 2658   1.897   1.592   2.896  0.9362 -0.7477 -0.5535
  887SOL     OW 2659   1.792   0.641   1.797 -0.2305 -0.1087 -0.1971
  887SOL    HW1 2660   1.714   0.674   1.735 -2.3394  0.0471  1.2235
  887SOL    HW2 2661   1.770   0.571   1.868  0.8628 -0.4605 -1.0386
  888SOL     OW 2662   2.776   0.838   1.882 -0.5133 -0.0589 -0.1818
  888SOL    HW1 2663   2.826   0.904   1.824  0.2522 -0.6647 -0.9222
  888SOL    HW2 2664   2.748   0.758   1.825 -2.4576  2.6275  0.5349
  889SOL     OW 2665   2.944   2.788   0.626 -0.2433 -0.8382  0.1967
  889SOL    HW1 2666   2.888   2.709   0.612  3.2331  1.2255  1.2758
  889SOL    HW2 2667   3.036   2.750   0.648 -1.0802  1.4500 -1.1630
  890SOL     OW 2668   2.858   2.399   0.013 -0.1617 -0.1816 -0.0639
  890SOL    HW1 2669   2.841   2.389   0.111  1.2211  0.6284 -1.0399
  890SOL    HW2 2670   2.951   2.355   3.109  2.4449 -0.2054  1.5128
  891SOL     OW 2671   0.937   1.657   2.895  0.1460 -0.1644 -0.7055
  891SOL    HW1 2672   0.900   1.665   2.990 -0.5830  0.8713 -0.8408
  891SOL    HW2 2673   1.039   1.676   2.888  0.0014 -1.7306 -0.8621
  892SOL     OW 2674   0.188   2.948   0.988 -0.1965 -0.3773  0.1483
  892SOL    HW1 2675   0.221   2.966   0.892  1.5085 -0.5088 -0.6138
  892SOL    HW2 2676   0.169   2.848   1.002  0.9951  1.7812  1.8479
  893SOL     OW 2677   0.678   2.884   1.184 -0.0023  0.1921 -0.1544
  893SOL    HW1 2678   0.689   2.982   1.202 -1.6852  3.4725  0.6009
  893SOL    HW2 2679   0.758   2.849   1.131 -1.0441 -0.2814 -2.7774
  894SOL     OW 2680   2.715   1.471   0.879 -0.2498 -0.2261 -0.5227
  894SOL    HW1 2681   2.617   1.498   0.885 -0.7555 -0.1942 -0.8490
  894SOL    HW2 2682   2.724   1.379   0.830  0.3102 -1.1704  0.8981
  895SOL     OW 2683   2.806   2.565   1.740 -0.1849  0.0608  0.0379
  895SOL    HW1 2684   2.835   2.506   1.659 -2.0685  1.3562  0.3781
  895SOL    HW2 2685   2.779   2.662   1.707  1.6375  3.7396 -0.9521
  896SOL     OW 2686   1.004   0.256   1.676 -0.0862 -0.1329 -0.2086
  896SOL    HW1 2687   0.936   0.272   1.751 -2.2075 -2.7768 -1.2445
  896SOL    HW2 2688   1.098   0.258   1.713 -0.8020  0.6458 -0.3454
  897SOL     OW 2689   1.103   1.416   1.495 -0.0080  0.0546 -0.7566
  897SOL    HW1 2690   1.076   1.362   1.413  1.5555 -0.0121  1.5151
  897SOL    HW2 2691   1.029   1.473   1.519  0.1388 -1.4917 -0.7454
  898SOL     OW 2692   1.296   2.480   1.924  0.1543  0.1926  0.5771
  898SOL    HW1 2693   1.305   2.578   1.926  1.2862 -1.0456 -0.2875
  898SOL    HW2 2694   1.264   2.451   1.833  0.3059 -0.5528  4.4365
  899SOL     OW 2695   0.750   0.733   0.392  0.5514 -0.0115 -0.0539
  899SOL    HW1 2696   0.703   0.800   0.450  0.1714 -0.7526 -1.5204
  899SOL    HW2 2697   0.835   0.695   0.438  0.4428 -1.5219 -0.7626
  900SOL     OW 2698   1.523   2.340   1.926 -0.3193 -0.1669  0.2680
  900SOL    HW1 2699   1.429   2.389   1.920 -2.7652  0.3976 -0.2454
  900SOL    HW2 2700   1.596   2.409   1.943 -1.8417 -1.5415  1.1435
  901SOL     OW 2701   1.025   2.268   0.256 -0.4710  0.0628  0.0730
  901SOL    HW1 2702   0.966   2.188   0.267  4.2141 -2.5032  0.5613
  901SOL    HW2 2703   1.067   2.258   0.161 -0.0849 -0.5349 -0.7644
  902SOL     OW 2704   1.868   1.296   0.030  0.0503 -0.2704 -0.0323
  902SOL    HW1 2705   1.952   1.330   0.070  0.4246  3.1208  0.0979
  902SOL    HW2 2706   1.884   1.267   3.053 -2.1318  0.3034  2.6447
  903SOL     OW 2707   2.188   1.087   0.401  0.3141 -0.2983  0.1667
  903SOL    HW1 2708   2.283   1.094   0.370 -2.2155  0.3290  2.3349
  903SOL    HW2 2709   2.129   1.015   0.360 -2.7672  0.4935 -3.7839
  904SOL     OW 2710   0.870   1.293   2.863 -0.1135  0.1536 -0.3032
  904SOL    HW1 2711   0.862   1.387   2.902 -3.6877  1.0208 -1.1761
  904SOL    HW2 2712   0.902   1.226   2.938 -1.0638  1.4177  0.4858
  905SOL     OW 2713   1.727   0.104   1.052 -0.1050  0.1656  0.3269
  905SOL    HW1 2714   1.808   0.164   1.033 -1.1104  3.3852  0.5284
  905SOL    HW2 2715   1.676   0.143   1.126  2.6761 -4.3399 -2.1444
  906SOL     OW 2716   2.975   2.427   1.128  0.4081 -0.6767 -0.5540
  906SOL    HW1 2717   2.886   2.398   1.082 -0.2476 -0.1252  2.3494
  906SOL    HW2 2718   3.043   2.443   1.055 -3.6499  1.3367  0.6093
  907SOL     OW 2719   0.828   0.879   0.150 -0.4054 -0.1529  0.5869
  907SOL    HW1 2720   0.867   0.969   0.184  0.2755  0.0148  2.8129
  907SOL    HW2 2721   0.806   0.816   0.229 -0.5380  2.7349 -2.5778
  908SOL     OW 2722   1.619   2.967   1.063  0.2341  0.2893  0.3647
  908SOL    HW1 2723   1.645   2.914   0.975  1.3597 -0.3026 -1.8108
  908SOL    HW2 2724   1.645   3.066   1.058 -2.6227 -1.4785  0.7413
  909SOL     OW 2725   2.216   1.330   1.711  0.2457 -0.3383  0.1664
  909SOL    HW1 2726   2.153   1.390   1.769 -3.0476 -0.3610 -0.6338
  909SOL    HW2 2727   2.181   1.325   1.613 -1.0570 -1.1096  0.1477
  910SOL     OW 2728   1.556   2.970   2.076 -0.6185  0.2683 -0.0346
  910SOL    HW1 2729   1.546   2.894   2.146  1.3763 -0.4574  0.5548
  910SOL    HW2 2730   1.633   2.947   2.008  0.8138 -1.3432  0.9901
  911SOL     OW 2731   3.008   0.866   2.492  0.6849  0.0478 -0.0444
  911SOL    HW1 2732   3.062   0.947   2.516 -2.3861 -2.7275 -0.1339
  911SOL    HW2 2733   2.995   0.802   2.575 -0.6574 -2.4513  2.5593
  912SOL     OW 2734   0.190   1.295   1.457 -0.0654 -0.1804 -0.5659
  912SOL    HW1 2735   0.093   1.257   1.458 -0.1266  1.9807 -1.3803
  912SOL    HW2 2736   0.226   1.291   1.553  0.1362 -0.2709 -0.9581
  913SOL     OW 2737   3.001   2.534   1.363  0.2532 -0.5650  0.3863
  913SOL    HW1 2738   2.986   2.477   1.447  0.2899  2.4648 -0.1951
  913SOL    HW2 2739   2.975   2.486   1.278  1.4324 -2.4582  1.1083
  914SOL     OW 2740   1.716   1.043   1.707  0.5089  0.6768 -0.0246
  914SOL    HW1 2741   1.696   0.952   1.669 -0.6758  1.0902 -2.8519
  914SOL    HW2 2742   1.767   1.097   1.639 -0.3724 -1.1713 -0.3596
  915SOL     OW 2743   1.928   0.607   1.502 -0.0891 -0.4950  0.0260
  915SOL    HW1 2744   1.913   0.541   1.574  1.1499  2.1220 -3.6904
  915SOL    HW2 2745   1.858   0.602   1.427 -1.1648 -0.4855 -1.9627
  916SOL     OW 2746   2.617   2.724   1.180  0.3386  0.3123 -0.3126
  916SOL    HW1 2747   2.622   2.686   1.275 -1.4543  0.7115 -2.0779
  916SOL    HW2 2748   2.571   2.664   1.116  2.7576  2.6618 -0.7677
  917SOL     OW 2749   1.938   1.924   3.079 -0.1708 -0.0234  0.4924
  917SOL    HW1 2750   1.897   2.006   3.117  0.4354  1.6863  1.4879
  917SOL    HW2 2751   2.024   1.944   3.025 -0.2963  0.7797 -0.0678
  918SOL     OW 2752   1.649   2.873   2.551  0.6040 -0.2728  0.2190
  918SOL    HW1 2753   1.724   2.920   2.500 -0.3767  2.6612 -1.7508
  918SOL    HW2 2754   1.630   2.930   2.634 -0.0180  1.1461 -0.1667
  919SOL     OW 2755   1.250   2.619   1.308  0.1879  0.5486  0.1699
  919SOL    HW1 2756   1.330   2.663   1.255  2.8676  0.3299  0.2402
  919SOL    HW2 2757   1.267   2.621   1.404  2.3152  0.2553 -2.2943
  920SOL     OW 2758   2.851   0.289   2.308  0.4400 -0.4278 -0.4789
  920SOL    HW1 2759   2.853   0.227   2.228  0.4834  1.0946 -0.9220
  920SOL    HW2 2760   2.942   0.298   2.354 -0.4147  0.1156  0.9963
  921SOL     OW 2761   2.947   1.006   1.710  0.1676 -0.1187 -0.4241
  921SOL    HW1 2762   2.943   1.106   1.739  0.2094  0.1455  2.8405
  921SOL    HW2 2763   3.034   0.958   1.729  0.0386  0.4784  1.8661
  922SOL     OW 2764   2.043   2.069   0.442  0.5660  0.1349 -0.0268
  922SOL    HW1 2765   2.101   2.140   0.488 -4.4932  3.5851  0.1226
  922SOL    HW2 2766   1.964   2.117   0.398 -2.3132  1.4958  4.3157
  923SOL     OW 2767   0.970   1.967   0.077 -0.0441 -0.3554  0.0785
  923SOL    HW1 2768   0.948   1.866   0.067  2.1941 -0.4373  1.1623
  923SOL    HW2 2769   0.929   2.008   0.160  3.3675 -0.6388  0.3555
  924SOL     OW 2770   1.413   0.335   2.934  0.5818 -0.2430 -0.3965
  924SOL    HW1 2771   1.331   0.337   2.871 -0.0936 -0.6526 -1.0118
  924SOL    HW2 2772   1.440   0.432   2.959 -0.0899 -2.2719  3.7948
  925SOL     OW 2773   2.439   0.500   0.765 -0.3429  0.0952  0.1689
  925SOL    HW1 2774   2.447   0.400   0.742  0.2963 -2.6321  0.3295
  925SOL    HW2 2775   2.398   0.510   0.858 -0.2070  0.9504 -0.0879
  926SOL     OW 2776   0.511   0.116   1.183  0.1028 -0.3284  0.0804
  926SOL    HW1 2777   0.450   0.054   1.238  1.2370 -1.3989  0.2673
  926SOL    HW2 2778   0.604   0.094   1.210 -1.2023 -0.3306 -1.2672
  927SOL     OW 2779   0.063   1.449   2.402  0.1470  0.2062 -0.8235
  927SOL    HW1 2780   0.089   1.547   2.406 -1.7892 -3.4237 -1.0376
  927SOL    HW2 2781   0.151   1.396   2.384  3.2799 -0.6798  0.4825
  928SOL     OW 2782   3.067   0.372   2.800 -0.2819 -0.3119  0.4114
  928SOL    HW1 2783   3.086   0.457   2.849 -0.7218 -1.8250 -0.0917
  928SOL    HW2 2784   2.966   0.350   2.803  0.5180  0.9710  1.3888
  929SOL     OW 2785   2.529   0.150   1.552 -0.0955  0.0593  0.2304
  929SOL    HW1 2786   2.584   0.107   1.485 -0.7431  1.7554 -0.4745
  929SOL    HW2 2787   2.488   0.080   1.620 -1.2052 -3.3332 -0.2834
  930SOL     OW 2788   1.968   1.015   1.841  0.4204  0.6082  0.3193
  930SOL    HW1 2789   1.875   1.022   1.795  1.1198 -0.1141 -0.2094
  930SOL    HW2 2790   1.966   1.049   1.938 -0.8273 -0.0253 -0.6400
  931SOL     OW 2791   2.189   1.176   0.051  0.4992  0.7745 -0.4078
  931SOL    HW1 2792   2.176   1.211   0.146  1.9365 -1.7207 -1.3418
  931SOL    HW2 2793   2.207   1.076   0.053  2.4413 -1.3675 -0.0324
  932SOL     OW 2794   2.281   1.124   0.984 -0.1427 -0.1946  0.5989
  932SOL    HW1 2795   2.349   1.171   1.051  2.3902  0.2750  2.9026
  932SOL    HW2 2796   2.186   1.154   1.002  1.1579  0.5284 -0.1910
  933SOL     OW 2797   2.506   1.815   0.791  0.7930 -0.0274 -0.0519
  933SOL    HW1 2798   2.525   1.836   0.695 -0.9204  0.9820  1.8397
  933SOL    HW2 2799   2.423   1.863   0.820 -2.8066 -0.6034 -1.8655
  934SOL     OW 2800   2.042   0.438   2.552 -0.6107 -0.1851 -0.1381
  934SOL    HW1 2801   2.110   0.417   2.480 -0.5379 -0.3171  1.3659
  934SOL    HW2 2802   2.041   0.362   2.626  0.1226  0.1240  0.2062
  935SOL     OW 2803   0.054   1.346   0.453  0.0797 -0.2856  0.3853
  935SOL    HW1 2804   3.108   1.303   0.519 -2.6094  2.5207 -0.3234
  935SOL    HW2 2805   0.149   1.337   0.502  2.3868 -0.0672 -3.0103
  936SOL     OW 2806   0.065   0.475   0.684  0.3678  0.4371  0.1113
  936SOL    HW1 2807   3.105   0.408   0.702 -1.8735 -2.2590 -1.0434
  936SOL    HW2 2808   0.137   0.473   0.758  2.3616 -1.7127 -0.7267
  937SOL     OW 2809   2.634   3.097   1.286 -0.2018  0.0922 -0.0745
  937SOL    HW1 2810   2.559   3.089   1.216  2.2407 -2.1565  1.4044
  937SOL    HW2 2811   2.726   3.115   1.248 -1.8001 -0.2809  0.8347
  938SOL     OW 2812   2.776   2.359   0.283  0.4485 -0.1163  0.4365
  938SOL    HW1 2813   2.860   2.320   0.327 -2.0503 -1.0535 -1.2776
  938SOL    HW2 2814   2.720   2.416   0.350 -0.2126  1.4551  0.2155
  939SOL     OW 2815   0.625   1.904   0.804 -0.0463  0.3449 -0.0054
  939SOL    HW1 2816   0.618   1.813   0.847 -2.3651  2.5832 -1.1315
  939SOL    HW2 2817   0.538   1.944   0.769  0.6375  1.3871  0.3682
  940SOL     OW 2818   0.225   0.341   2.930 -0.0904  0.0690 -0.0965
  940SOL    HW1 2819   0.126   0.337   2.940  1.9802  2.0242 -1.9289
  940SOL    HW2 2820   0.259   0.252   2.900 -0.0405  2.1626  0.4450
  941SOL     OW 2821   1.652   0.326   2.850  0.2039 -0.9106 -0.4602
  941SOL    HW1 2822   1.649   0.401   2.787  1.6946  0.9473  1.3491
  941SOL    HW2 2823   1.558   0.307   2.889 -0.8372 -2.0665 -0.1535
  942SOL     OW 2824   1.107   0.660   1.500  0.1312  0.1374  0.2183
  942SOL    HW1 2825   1.039   0.587   1.493  0.4803 -2.2096  0.5264
  942SOL    HW2 2826   1.153   0.657   1.589 -1.1267 -2.8512 -1.6536
  943SOL     OW 2827   1.353   1.072   1.890  0.4947  0.4276  0.3119
  943SOL    HW1 2828   1.437   1.124   1.904  2.4243 -0.7677 -1.4190
  943SOL    HW2 2829   1.347   0.990   1.948 -0.4593  0.8475 -0.4011
  944SOL     OW 2830   2.112   1.002   1.619 -0.4741  0.7019 -0.2753
  944SOL    HW1 2831   2.054   0.996   1.705 -0.0937 -0.3291 -0.1031
  944SOL    HW2 2832   2.149   1.094   1.604 -3.2520 -1.6381  1.7446
  945SOL     OW 2833   2.826   3.035   0.196 -0.0791 -0.3483 -0.0861
  945SOL    HW1 2834   2.742   3.097   0.215 -2.1005  1.2300 -0.8124
  945SOL    HW2 2835   2.882   3.081   0.118  0.7292 -2.4929  2.2553
  946SOL     OW 2836   2.919   0.913   2.110  0.1914 -0.3090 -0.0512
  946SOL    HW1 2837   2.869   0.881   2.023 -0.4043 -0.5771 -0.0917
  946SOL    HW2 2838   2.847   0.941   2.175 -1.5899 -3.1434 -0.3598
  947SOL     OW 2839   1.033   2.809   0.354  0.2134  0.1561 -0.1959
  947SOL    HW1 2840   0.953   2.830   0.421 -1.5176  1.2721 -0.3341
  947SOL    HW2 2841   1.040   2.709   0.349 -0.0496 -0.0620  0.5496
  948SOL     OW 2842   2.368   1.673   1.674 -0.0314  0.4861  0.0211
  948SOL    HW1 2843   2.440   1.737   1.653 -1.4139 -0.8887  0.6437
  948SOL    HW2 2844   2.406   1.580   1.702  0.5554  2.5325  1.1011
  949SOL     OW 2845   0.459   1.340   3.005  0.0346 -0.8625 -0.4335
  949SOL    HW1 2846   0.362   1.353   2.986 -1.9311 -1.9680  3.8113
  949SOL    HW2 2847   0.509   1.310   2.925  0.0130 -0.6462  1.5363
  950SOL     OW 2848   0.396   2.583   0.874  0.1487 -0.2900  0.0566
  950SOL    HW1 2849   0.408   2.629   0.790 -0.8669 -2.2546  1.0363
  950SOL    HW2 2850   0.368   2.487   0.865  0.6575  1.6849 -0.6471
  951SOL     OW 2851   0.811   1.330   2.378  0.1485  0.2119  0.2086
  951SOL    HW1 2852   0.894   1.317   2.319 -2.4268  1.6766 -0.4325
  951SOL    HW2 2853   0.815   1.256   2.446 -0.1080 -0.1098 -0.8440
  952SOL     OW 2854   0.203   0.965   0.370 -0.0152 -0.1625  0.4468
  952SOL    HW1 2855   0.300   0.964   0.342 -1.4735  0.9196  0.8840
  952SOL    HW2 2856   0.156   1.041   0.320 -2.6222 -0.5983 -0.6478
  953SOL     OW 2857   2.499   0.035   2.450 -0.3094 -0.3005  0.0302
  953SOL    HW1 2858   2.411   0.081   2.464  1.7451 -2.7462  3.7831
  953SOL    HW2 2859   2.485   3.060   2.412  1.9491  0.7728 -2.8561
  954SOL     OW 2860   1.806   1.237   0.377 -0.1078  0.0332  0.0737
  954SOL    HW1 2861   1.773   1.325   0.410  0.1056 -0.6298 -0.0928
  954SOL    HW2 2862   1.889   1.255   0.329 -0.9503 -0.3624  0.0197
  955SOL     OW 2863   0.823   2.026   2.976 -0.1924 -0.1587 -0.1467
  955SOL    HW1 2864   0.864   2.033   3.071 -0.6678  0.9903  1.5904
  955SOL    HW2 2865   0.787   2.112   2.938 -4.2064 -1.9241  0.0014
  956SOL     OW 2866   2.101   0.683   2.339  0.5467  0.4597  0.1309
  956SOL    HW1 2867   2.155   0.598   2.359  0.1507  0.4670  1.2813
  956SOL    HW2 2868   2.148   0.725   2.259  1.2817 -0.3921  0.6757
  957SOL     OW 2869   2.155   2.103   2.497  0.1814  0.1528  0.0674
  957SOL    HW1 2870   2.119   2.047   2.578  1.7249  0.1989  0.4851
  957SOL    HW2 2871   2.255   2.098   2.498 -3.8202 -2.0763  0.3442
  958SOL     OW 2872   1.461   1.275   1.258  0.0324  0.2509 -0.3491
  958SOL    HW1 2873   1.532   1.258   1.187 -0.4992  0.1193 -1.9198
  958SOL    HW2 2874   1.484   1.216   1.342  1.0084  0.2209  0.7392
  959SOL     OW 2875   1.893   2.224   2.470 -0.0499 -0.3687 -0.0004
  959SOL    HW1 2876   1.893   2.313   2.419  1.1024  0.5751 -1.7946
  959SOL    HW2 2877   1.988   2.188   2.471 -0.3537 -1.5276  1.5383
  960SOL     OW 2878   0.204   0.673   2.352 -0.1875 -0.3218 -0.3207
  960SOL    HW1 2879   0.228   0.766   2.387 -1.3258  1.4726  0.1371
  960SOL    HW2 2880   0.118   0.647   2.398 -1.3930  0.5736 -0.2652
  961SOL     OW 2881   0.261   0.837   2.711  0.3296 -0.0325  0.4632
  961SOL    HW1 2882   0.279   0.787   2.622 -1.3102 -0.2188  0.9059
  961SOL    HW2 2883   0.261   0.773   2.787 -0.4608  0.0983  1.0339
  962SOL     OW 2884   0.612   1.219   2.786 -0.1240 -0.1814  0.1742
  962SOL    HW1 2885   0.705   1.259   2.769  3.6150 -0.7202  2.2938
  962SOL    HW2 2886   0.617   1.117   2.784 -0.2029 -1.2423 -1.2068
  963SOL     OW 2887   2.671   2.115   0.161 -0.7057 -0.5994 -0.0834
  963SOL    HW1 2888   2.698   2.204   0.207 -0.3446  1.4686 -0.7743
  963SOL    HW2 2889   2.750   2.074   0.111  4.6663  1.6830 -1.6826
  964SOL     OW 2890   0.862   2.462   1.894  0.2865  0.1618 -0.2917
  964SOL    HW1 2891   0.919   2.542   1.862  0.6225  1.6963 -1.5942
  964SOL    HW2 2892   0.769   2.498   1.876  2.3650 -1.3848  0.0817
  965SOL     OW 2893   1.864   1.755   0.333 -0.8865 -0.0725  0.3603
  965SOL    HW1 2894   1.956   1.791   0.313 -0.5928  1.2236 -1.5345
  965SOL    HW2 2895   1.790   1.827   0.325  1.1491  0.2981  0.0096
  966SOL     OW 2896   3.103   1.600   0.352 -0.1620  0.2095 -0.1223
  966SOL    HW1 2897   0.019   1.524   0.405  1.3264  1.1420 -1.0966
  966SOL    HW2 2898   3.073   1.677   0.410 -0.6986  0.8649 -0.1297
  967SOL     OW 2899   1.712   2.890   1.875 -0.0293  0.0654 -0.1053
  967SOL    HW1 2900   1.774   2.970   1.860  0.2307 -1.2814  1.2753
  967SOL    HW2 2901   1.721   2.828   1.795 -0.1002  1.5194  1.3130
  968SOL     OW 2902   1.702   0.666   0.294 -0.3600  0.3640  0.0247
  968SOL    HW1 2903   1.659   0.758   0.321 -2.3817 -0.7503  2.5331
  968SOL    HW2 2904   1.776   0.653   0.362  1.3123  0.2059  2.4214
  969SOL     OW 2905   0.270   1.310   2.252  0.1800 -0.1424  0.3529
  969SOL    HW1 2906   0.366   1.311   2.271 -1.6570 -0.3074 -2.1610
  969SOL    HW2 2907   0.221   1.221   2.279 -0.8199 -0.7017  0.2916
  970SOL     OW 2908   2.151   2.131   1.334  0.3490  0.0804 -0.1028
  970SOL    HW1 2909   2.119   2.193   1.258  0.3028 -1.0348  0.3883
  970SOL    HW2 2910   2.113   2.167   1.424 -0.9928 -0.0665  0.4390
  971SOL     OW 2911   2.797   2.826   1.018  0.5245  0.1215 -0.7070
  971SOL    HW1 2912   2.733   2.797   1.099  1.9883 -0.9296  1.7007
  971SOL    HW2 2913   2.886   2.858   1.055 -1.3791  0.2108 -1.5346
  972SOL     OW 2914   0.093   1.248   2.751  0.0928 -0.6826 -0.2197
  972SOL    HW1 2915   0.118   1.154   2.782 -2.2019  3.6520 -0.8956
  972SOL    HW2 2916   0.031   1.243   2.672  0.8545 -0.7795  1.3121
  973SOL     OW 2917   0.458   0.279   0.516  0.5623 -0.0427 -0.0318
  973SOL    HW1 2918   0.402   0.248   0.599  1.7111  0.0680  3.6985
  973SOL    HW2 2919   0.412   0.348   0.459 -0.8552 -0.5072 -0.8568
  974SOL     OW 2920   2.304   0.820   1.711 -0.9087 -0.0891 -0.0721
  974SOL    HW1 2921   2.236   0.876   1.663  0.6786  0.7147  2.2001
  974SOL    HW2 2922   2.393   0.818   1.664 -1.0554 -0.0686  1.0123
  975SOL     OW 2923   2.803   2.781   0.078 -0.5152  0.7651 -0.0424
  975SOL    HW1 2924   2.828   2.865   0.124 -1.5576 -1.5048 -1.1368
  975SOL    HW2 2925   2.887   2.727   0.060 -1.9726 -0.5929 -0.5194
  976SOL     OW 2926   0.401   1.695   1.181 -0.3876  0.0592 -0.4120
  976SOL    HW1 2927   0.405   1.596   1.165  2.1461  2.9997  0.5450
  976SOL    HW2 2928   0.392   1.740   1.092  1.4427 -1.2438 -0.4399
  977SOL     OW 2929   0.944   2.050   1.025 -1.3858 -0.0962 -0.0924
  977SOL    HW1 2930   1.032   2.089   1.061  0.4997  0.3468  0.2342
  977SOL    HW2 2931   0.884   2.020   1.102 -2.1846  0.4688 -0.0436
  978SOL     OW 2932   0.475   0.966   0.296  0.1522  0.0579  0.6599
  978SOL    HW1 2933   0.504   1.051   0.252 -0.8795 -3.1570  2.7649
  978SOL    HW2 2934   0.507   0.890   0.238  0.5277 -1.0486 -0.2894
  979SOL     OW 2935   2.106   1.871   0.264 -0.2111 -0.0821  0.3758
  979SOL    HW1 2936   2.089   1.944   0.337 -1.7178  0.5800  1.1620
  979SOL    HW2 2937   2.162   1.916   0.189  1.2676 -0.7657 -1.1243
  980SOL     OW 2938   0.310   1.720   2.263  0.5785 -0.3479 -0.1307
  980SOL    HW1 2939   0.384   1.652   2.238  1.2245 -1.5917 -0.5097
  980SOL    HW2 2940   0.351   1.810   2.286 -0.8461 -2.1061  0.9991
  981SOL     OW 2941   2.752   1.088   0.251 -0.3325 -0.2405  0.0776
  981SOL    HW1 2942   2.776   1.049   0.339 -3.6232  1.3177 -0.4147
  981SOL    HW2 2943   2.697   1.023   0.195 -1.4756  0.2693  0.7824
  982SOL     OW 2944   2.872   2.789   1.986 -0.1756 -0.3250 -0.1571
  982SOL    HW1 2945   2.826   2.874   1.946  0.8698  0.9341  0.6466
  982SOL    HW2 2946   2.971   2.788   1.969 -4.7069  0.6305  0.8588
  983SOL     OW 2947   1.579   0.367   1.476  0.4431 -0.2377  0.3409
  983SOL    HW1 2948   1.515   0.294   1.499  3.6458  1.2568  0.4476
  983SOL    HW2 2949   1.668   0.345   1.516  2.0264 -1.0335  0.0514
  984SOL     OW 2950   1.435   2.725   3.022  0.4380 -0.1423  0.1433
  984SOL    HW1 2951   1.449   2.660   2.946 -0.7289 -0.4175 -1.7137
  984SOL    HW2 2952   1.509   2.793   3.023  0.2426 -0.5809  2.4228
  985SOL     OW 2953   1.500   1.940   1.526 -0.2025 -0.3611  0.4239
  985SOL    HW1 2954   1.410   1.959   1.483 -0.5284  1.3085 -1.9505
  985SOL    HW2 2955   1.482   1.910   1.623 -0.1705 -1.6386 -1.0356
  986SOL     OW 2956   1.848   3.010   2.451  0.3445 -0.1589 -0.1626
  986SOL    HW1 2957   1.937   2.998   2.400  1.4084  1.5874 -5.2825
  986SOL    HW2 2958   1.833   3.109   2.477 -0.9742  1.4074 -1.7962
  987SOL     OW 2959   2.886   1.677   2.576 -0.1836 -0.0685  0.4909
  987SOL    HW1 2960   2.984   1.652   2.563 -2.0681 -0.0012  1.6890
  987SOL    HW2 2961   2.833   1.669   2.489 -1.1088  0.6767 -1.4548
  988SOL     OW 2962   2.943   0.584   2.022 -0.3482  0.2848  0.1580
  988SOL    HW1 2963   2.928   0.663   1.963 -1.9416 -1.2121  2.5078
  988SOL    HW2 2964   2.975   0.605   2.119  1.6628 -2.5899  2.5376
  989SOL     OW 2965   1.820   1.199   1.521  0.3111  0.0991  0.2654
  989SOL    HW1 2966   1.798   1.282   1.572  1.5799 -0.8997 -0.6422
  989SOL    HW2 2967   1.920   1.191   1.508 -0.5867 -0.5604 -1.2646
  990SOL     OW 2968   2.956   1.150   0.085  0.1354  0.3282  0.4749
  990SOL    HW1 2969   2.871   1.130   0.144 -0.8918 -2.7224 -1.8193
  990SOL    HW2 2970   2.962   1.095   0.002  0.9791  0.6090  2.7653
  991SOL     OW 2971   0.279   2.099   2.834 -0.1591 -0.0140 -0.0636
  991SOL    HW1 2972   0.212   2.042   2.886 -1.0500  2.5868  1.0803
  991SOL    HW2 2973   0.324   2.050   2.757 -1.5460  0.1949 -0.4640
  992SOL     OW 2974   2.613   2.189   2.076  0.0114 -0.3473  0.0299
  992SOL    HW1 2975   2.532   2.246   2.051 -2.4112  1.3624  0.4161
  992SOL    HW2 2976   2.692   2.245   2.049 -0.1503 -1.1604  1.4017
  993SOL     OW 2977   0.604   2.985   0.535  0.1982  0.3012 -0.6160
  993SOL    HW1 2978   0.561   3.066   0.491 -0.5947  2.0146  1.5850
  993SOL    HW2 2979   0.622   3.002   0.636  0.1834  1.4913  2.0792
  994SOL     OW 2980   3.112   2.000   1.475  0.4038 -0.4618 -0.2129
  994SOL    HW1 2981   3.106   1.989   1.578  2.5997  0.3773  2.9482
  994SOL    HW2 2982   0.054   1.925   1.433 -2.7111  1.2642  0.5512
  995SOL     OW 2983   2.369   1.766   2.267 -0.3103  0.3296  0.4579
  995SOL    HW1 2984   2.412   1.764   2.356 -3.8847 -2.1110  1.1013
  995SOL    HW2 2985   2.312   1.681   2.257  0.0632  1.8253 -2.7158
  996SOL     OW 2986   1.944   1.668   3.027  0.0070 -0.0519 -0.0142
  996SOL    HW1 2987   1.928   1.605   3.112  1.2736 -0.9966  2.0274
  996SOL    HW2 2988   1.927   1.770   3.041  1.6912 -0.2548  0.3790
  997SOL     OW 2989   1.364   1.454   1.471  0.4266  0.6720 -0.8928
  997SOL    HW1 2990   1.266   1.435   1.488  0.8978  0.6148  1.3809
  997SOL    HW2 2991   1.407   1.403   1.395 -2.0541 -1.1210 -2.1488
  998SOL     OW 2992   2.759   2.310   0.962 -0.0516 -0.1270 -0.6546
  998SOL    HW1 2993   2.797   2.237   0.902  2.4965 -2.7535 -1.0920
  998SOL    HW2 2994   2.664   2.287   0.988 -0.9172  0.6416  1.2028
  999SOL     OW 2995   2.581   2.712   0.236 -0.8912  0.3539 -0.1422
  999SOL    HW1 2996   2.522   2.794   0.248  1.2306  1.5411  2.2268
  999SOL    HW2 2997   2.658   2.732   0.171  0.4247  2.3180  0.2231
 1000SOL     OW 2998   0.948   0.071   3.078 -0.5092 -0.3860  0.3864
 1000SOL    HW1 2999   1.012   0.033   0.033 -0.4734 -0.4813  0.5282
 1000SOL    HW2 3000   0.969   0.165   3.041 -0.0973  0.7465 -0.3832
   3.11874   3.11874   3.11874
