1000 SPC/Fw water molecules t= 119.00000 step= 119000
 3000
    1SOL     OW    1   2.164   2.153   0.741  0.4408 -0.3679 -0.4067
    1SOL    HW1    2   2.264   2.162   0.709  0.6166  0.2009  2.4351
    1SOL    HW2    3   2.139   2.069   0.795  0.0023  3.1675 -1.9306
    2SOL     OW    4   1.441   1.784   2.265 -0.2371 -0.1249 -0.1488
    2SOL    HW1    5   1.378   1.867   2.260  2.0858  2.0063 -1.0148
    2SOL    HW2    6   1.395   1.692   2.270  0.0055  1.8830 -0.1363
    3SOL     OW    7   1.332   2.447   2.218  0.6997 -0.1530 -0.5684
    3SOL    HW1    8   1.254   2.389   2.194  2.3455  0.7646  0.9428
    3SOL    HW2    9   1.406   2.393   2.264 -1.5788 -1.4167  1.5803
    4SOL     OW   10   1.011   2.281   1.845 -0.4105  0.5659 -0.1904
    4SOL    HW1   11   0.950   2.254   1.923  1.7615  0.4144 -0.1882
    4SOL    HW2   12   0.976   2.242   1.754  0.7134 -1.6633 -1.7831
    5SOL     OW   13   0.576   0.860   1.627  0.0703  0.0859 -0.4997
    5SOL    HW1   14   0.671   0.896   1.621  0.1379 -0.7073  0.1757
    5SOL    HW2   15   0.576   0.773   1.686  0.1405 -1.6970  2.3255
    6SOL     OW   16   2.352   0.816   0.001 -0.0460  0.3533  0.7859
    6SOL    HW1   17   2.256   0.779   3.107 -0.0910  0.7074 -1.3784
    6SOL    HW2   18   2.422   0.744   3.094  1.2629 -0.2020 -0.7584
    7SOL     OW   19   1.016   0.427   1.584 -0.2031 -0.0261 -0.6882
    7SOL    HW1   20   1.041   0.460   1.679 -0.0541 -0.0056 -0.5140
    7SOL    HW2   21   1.070   0.354   1.545 -2.6840  3.3108 -0.1005
    8SOL     OW   22   1.443   0.172   1.726  0.6548 -0.1742 -0.3258
    8SOL    HW1   23   1.452   0.218   1.633  0.1759 -0.5365 -2.3890
    8SOL    HW2   24   1.531   0.188   1.775 -1.6986  1.4165  0.6482
    9SOL     OW   25   0.513   0.663   0.603  0.0814 -0.6213  0.3980
    9SOL    HW1   26   0.604   0.627   0.631  0.9049 -4.3321 -0.3938
    9SOL    HW2   27   0.477   0.726   0.682 -1.4614 -0.4257 -0.2774
   10SOL     OW   28   0.485   2.371   2.402 -0.0265  0.0043  0.2316
   10SOL    HW1   29   0.505   2.305   2.482 -0.0472 -0.8935  1.8742
   10SOL    HW2   30   0.388   2.362   2.375 -0.0668 -1.1064 -1.6768
   11SOL     OW   31   0.453   1.975   2.980  0.2172  0.5580  0.3841
   11SOL    HW1   32   0.534   1.958   3.036 -1.0590  0.7450  1.1577
   11SOL    HW2   33   0.378   1.918   3.008  3.5485  0.4160  0.3083
   12SOL     OW   34   0.223   3.105   1.247 -0.4170 -0.5742 -0.5153
   12SOL    HW1   35   0.317   0.026   1.271 -1.2517  0.1622  0.0901
   12SOL    HW2   36   0.206   3.013   1.289  2.2691 -0.3157  0.1248
   13SOL     OW   37   0.798   2.691   0.154 -0.2052  0.0967 -0.1627
   13SOL    HW1   38   0.897   2.679   0.153 -1.3773 -0.5650 -0.0469
   13SOL    HW2   39   0.765   2.777   0.114  2.2676 -6.2517 -1.6415
   14SOL     OW   40   1.527   1.888   0.892  0.5524  0.3244  0.2153
   14SOL    HW1   41   1.515   1.978   0.940 -1.3415 -0.2218 -0.0851
   14SOL    HW2   42   1.448   1.828   0.919 -0.5055 -0.8417  0.5276
   15SOL     OW   43   2.827   1.284   2.186  0.2235 -0.1750 -0.4545
   15SOL    HW1   44   2.896   1.248   2.248  2.4932 -1.0035 -0.1338
   15SOL    HW2   45   2.781   1.373   2.219 -1.2545 -0.8007 -1.0657
   16SOL     OW   46   1.207   3.047   3.055  0.0734 -0.0653  0.2635
   16SOL    HW1   47   1.111   3.025   3.071  1.1130  1.1136  0.5957
   16SOL    HW2   48   1.207   3.090   2.961 -0.1122 -0.6680  2.5926
   17SOL     OW   49   0.469   2.155   2.045 -0.0087  0.8247 -0.3611
   17SOL    HW1   50   0.467   2.097   2.129  0.5858 -1.5775  0.3966
   17SOL    HW2   51   0.376   2.171   2.004  0.3294  0.3183  1.6516
   18SOL     OW   52   1.691   0.853   0.244 -0.2440  0.0047 -0.7481
   18SOL    HW1   53   1.724   0.952   0.237  0.2757 -0.3430 -1.6684
   18SOL    HW2   54   1.699   0.795   0.160 -0.9191  0.4243 -0.7746
   19SOL     OW   55   2.313   1.867   2.649 -0.0299 -0.2991 -0.1212
   19SOL    HW1   56   2.273   1.871   2.743  0.0174  0.4156 -0.9696
   19SOL    HW2   57   2.400   1.822   2.659 -0.7672  0.6892  0.0825
   20SOL     OW   58   2.576   2.200   2.368 -1.0028 -0.7428 -0.2573
   20SOL    HW1   59   2.530   2.288   2.399  2.4327  0.8210 -2.0972
   20SOL    HW2   60   2.644   2.172   2.445  0.9381 -2.3032  2.6586
   21SOL     OW   61   0.477   2.039   0.189 -0.3140 -0.1789  0.1733
   21SOL    HW1   62   0.429   2.125   0.211  0.1914 -0.1759 -0.5022
   21SOL    HW2   63   0.406   1.969   0.191 -0.3194  0.3564  0.5335
   22SOL     OW   64   2.426   2.720   1.461 -0.5836 -0.0318  0.5527
   22SOL    HW1   65   2.526   2.706   1.441  1.3060 -2.1757 -0.6358
   22SOL    HW2   66   2.393   2.815   1.433  0.2117  1.1309  1.9082
   23SOL     OW   67   0.385   1.105   1.628 -0.3104  0.0845 -0.2028
   23SOL    HW1   68   0.444   1.189   1.620  1.0921 -2.9801  1.4966
   23SOL    HW2   69   0.450   1.028   1.608  0.8253  1.9074  2.3821
   24SOL     OW   70   2.087   2.041   1.685 -0.2885 -0.0718 -0.1833
   24SOL    HW1   71   2.066   1.941   1.670  2.3422 -0.4629  0.4287
   24SOL    HW2   72   2.070   2.073   1.782  0.9487  0.5418  3.6552
   25SOL     OW   73   1.808   0.155   2.622 -0.0173 -0.1884 -0.0388
   25SOL    HW1   74   1.815   0.258   2.604 -3.2437 -0.7523  2.0413
   25SOL    HW2   75   1.786   0.109   2.538  2.1252  1.2904  2.9859
   26SOL     OW   76   1.436   3.040   0.941  0.0531  0.2104 -0.3426
   26SOL    HW1   77   1.478   3.007   0.854 -0.6923  0.0897  1.3811
   26SOL    HW2   78   1.487   3.119   0.981 -0.5115 -1.6959  0.7643
   27SOL     OW   79   1.138   1.846   0.007 -0.6309  0.3992  0.0280
   27SOL    HW1   80   1.183   1.906   0.070 -0.0866 -0.7967 -4.9973
   27SOL    HW2   81   1.064   1.798   0.055 -0.1859 -2.2552 -1.0694
   28SOL     OW   82   2.877   1.881   1.254  0.5771 -0.1559 -0.4418
   28SOL    HW1   83   2.788   1.854   1.294 -1.1376 -1.6728  1.8187
   28SOL    HW2   84   2.945   1.894   1.332  1.5328  0.3450  1.6174
   29SOL     OW   85   2.201   2.740   1.943 -0.1384 -0.4724  0.0724
   29SOL    HW1   86   2.152   2.672   1.882  1.5990 -1.1274  1.2096
   29SOL    HW2   87   2.248   2.699   2.019 -0.4518  0.5587 -2.6806
   30SOL     OW   88   1.041   2.750   1.178 -0.1571 -0.1310  0.3992
   30SOL    HW1   89   1.087   2.720   1.095 -1.2642  2.7383 -0.1051
   30SOL    HW2   90   0.954   2.801   1.160 -0.2962 -2.4862 -0.6996
   31SOL     OW   91   2.970   2.301   1.900 -0.4422  0.0111  0.4469
   31SOL    HW1   92   3.000   2.204   1.906 -0.1133  0.6512  0.4899
   31SOL    HW2   93   3.018   2.347   1.976 -0.9619 -1.5011  0.0109
   32SOL     OW   94   1.530   1.267   1.968  0.1728 -0.6464  0.6151
   32SOL    HW1   95   1.547   1.169   1.954 -1.2998 -0.7002 -0.9244
   32SOL    HW2   96   1.437   1.292   1.936  0.4571  0.1013  0.6219
   33SOL     OW   97   0.165   0.044   2.766  0.3641 -0.5005 -0.2724
   33SOL    HW1   98   0.184   0.133   2.727 -0.5391  0.4224  1.3524
   33SOL    HW2   99   0.206   3.089   2.717 -1.3796  0.8729 -4.5473
   34SOL     OW  100   1.807   0.196   1.453 -0.4563 -0.2629  0.1500
   34SOL    HW1  101   1.861   0.281   1.456  0.0331 -0.2634  0.2281
   34SOL    HW2  102   1.869   0.118   1.426  2.0670 -1.0968 -3.3378
   35SOL     OW  103   2.427   0.508   1.444 -0.1827  0.2462 -0.1517
   35SOL    HW1  104   2.499   0.486   1.512  1.7014  1.3954 -2.4195
   35SOL    HW2  105   2.440   0.604   1.414  1.3969 -2.0597  2.8416
   36SOL     OW  106   2.449   3.072   2.371  0.4587  0.2020  0.1744
   36SOL    HW1  107   2.388   2.993   2.390 -1.7249 -2.3543  1.0215
   36SOL    HW2  108   2.545   3.045   2.401  2.1135 -1.4704  1.2178
   37SOL     OW  109   1.190   2.271   2.894 -0.0585  0.5599  0.0501
   37SOL    HW1  110   1.130   2.320   2.964 -1.8954 -1.4817  0.8090
   37SOL    HW2  111   1.157   2.174   2.881  0.5901  2.2354  0.9491
   38SOL     OW  112   2.810   0.973   2.726 -0.0796  0.2356 -0.0219
   38SOL    HW1  113   2.739   0.914   2.678 -1.2353 -0.7456 -1.0767
   38SOL    HW2  114   2.795   0.986   2.826  0.5753 -1.0542  1.7833
   39SOL     OW  115   2.113   2.184   2.255  0.5659  0.0006  0.1618
   39SOL    HW1  116   2.009   2.175   2.255 -3.3443 -0.7847 -0.3319
   39SOL    HW2  117   2.149   2.141   2.342  1.6130  0.3174 -0.0726
   40SOL     OW  118   0.479   0.191   3.118 -0.1194 -0.1240 -0.3338
   40SOL    HW1  119   0.547   0.239   0.054 -0.5335 -1.6184 -2.0623
   40SOL    HW2  120   0.457   0.099   0.032  1.8581 -1.5251  3.0804
   41SOL     OW  121   1.435   0.871   1.394 -0.4834  0.5003 -0.3243
   41SOL    HW1  122   1.507   0.928   1.351 -2.1964 -1.3695  0.8330
   41SOL    HW2  123   1.422   0.893   1.494  0.0560  0.4037 -0.5326
   42SOL     OW  124   0.303   0.295   2.007 -0.0782  0.0201 -0.3336
   42SOL    HW1  125   0.238   0.369   2.013 -0.1420 -0.1153  0.9296
   42SOL    HW2  126   0.397   0.323   1.986  3.2772  0.1069  0.2958
   43SOL     OW  127   1.599   1.397   2.199  0.2322  0.7443  0.5822
   43SOL    HW1  128   1.521   1.438   2.248 -0.1340 -2.7744 -2.3801
   43SOL    HW2  129   1.560   1.350   2.118 -4.3608 -0.7125 -1.5584
   44SOL     OW  130   2.999   3.037   2.998  0.3786 -0.3498  0.1767
   44SOL    HW1  131   3.037   3.082   3.078 -1.5745 -1.5253 -0.0401
   44SOL    HW2  132   3.041   2.946   2.986  0.4458  0.4813 -0.2038
   45SOL     OW  133   0.841   2.147   1.368  0.0130  0.4046  0.4360
   45SOL    HW1  134   0.860   2.209   1.285  2.7563  0.0753 -2.5823
   45SOL    HW2  135   0.786   2.065   1.350  1.7182  0.9081 -2.2782
   46SOL     OW  136   2.643   2.616   1.895  0.8240 -0.5572 -0.2903
   46SOL    HW1  137   2.655   2.696   1.833 -1.2437 -0.4453 -0.1131
   46SOL    HW2  138   2.553   2.570   1.865 -1.6845 -2.5462  0.8952
   47SOL     OW  139   1.593   1.672   1.357  0.1720  0.2794 -0.5062
   47SOL    HW1  140   1.518   1.736   1.326 -0.3130  1.2873  1.2118
   47SOL    HW2  141   1.683   1.717   1.358 -2.3175 -0.9860 -1.3587
   48SOL     OW  142   0.268   2.137   0.520  0.4627  0.1436  0.1645
   48SOL    HW1  143   0.175   2.117   0.564 -2.4183 -2.2009  3.0270
   48SOL    HW2  144   0.346   2.146   0.587  0.6954  3.5085  2.0794
   49SOL     OW  145   3.047   1.283   1.984  0.0325  0.2218  0.3154
   49SOL    HW1  146   3.044   1.383   1.954 -0.9372  0.6380  1.5084
   49SOL    HW2  147   2.986   1.267   2.063  2.1712 -0.2296 -0.4289
   50SOL     OW  148   2.071   0.948   0.653  0.0824 -0.2599 -0.2624
   50SOL    HW1  149   2.132   0.880   0.616 -1.7714  4.1126  2.3130
   50SOL    HW2  150   2.005   0.983   0.581 -4.7116  0.3465 -0.6249
   51SOL     OW  151   1.249   0.667   0.755  0.1735 -0.0047  0.3583
   51SOL    HW1  152   1.182   0.736   0.721 -2.0674 -0.6457  2.1921
   51SOL    HW2  153   1.269   0.680   0.851  1.5079  2.9620 -1.6918
   52SOL     OW  154   1.370   1.127   0.122 -0.5257  0.2561 -0.3168
   52SOL    HW1  155   1.349   1.033   0.152 -0.6065  1.8664 -0.3036
   52SOL    HW2  156   1.459   1.123   0.068 -0.5623  0.2079 -0.0137
   53SOL     OW  157   1.127   2.355   2.624  0.2173  0.0449  0.1239
   53SOL    HW1  158   1.183   2.304   2.559  0.6184  0.5539  2.4760
   53SOL    HW2  159   1.164   2.335   2.718 -1.4845 -0.3886  3.0387
   54SOL     OW  160   1.628   0.740   1.577 -0.5450 -0.3396 -0.0522
   54SOL    HW1  161   1.554   0.782   1.630  0.1005  0.9077  0.1310
   54SOL    HW2  162   1.594   0.712   1.485 -2.7170 -1.3793 -0.3430
   55SOL     OW  163   2.369   3.003   0.485 -0.0531  0.3473 -0.4123
   55SOL    HW1  164   2.271   2.986   0.463  0.8783 -0.7350 -1.4985
   55SOL    HW2  165   2.438   2.948   0.433 -0.5337  1.6787 -1.6118
   56SOL     OW  166   0.923   2.479   1.569  0.1425 -0.0515 -0.0149
   56SOL    HW1  167   0.922   2.561   1.626  0.8594  0.0250 -4.4023
   56SOL    HW2  168   0.916   2.503   1.472 -0.2705 -0.9321  0.8690
   57SOL     OW  169   1.983   0.576   2.866 -0.1168  0.1758  0.2866
   57SOL    HW1  170   1.956   0.643   2.791  1.6943  1.2325 -3.8627
   57SOL    HW2  171   1.916   0.503   2.889  0.3668 -0.4480  0.3460
   58SOL     OW  172   2.940   1.208   1.732  0.2035 -0.8489 -0.6543
   58SOL    HW1  173   2.969   1.219   1.830 -1.4538 -0.2869  2.1272
   58SOL    HW2  174   2.848   1.245   1.718  0.6614 -0.2598 -1.5955
   59SOL     OW  175   0.515   2.781   2.370 -0.7905 -0.0715 -0.2556
   59SOL    HW1  176   0.469   2.790   2.283  2.9815  0.7115  3.3681
   59SOL    HW2  177   0.563   2.869   2.397 -1.1017 -0.8527  0.1912
   60SOL     OW  178   2.710   2.368   0.859 -0.5348 -0.1290 -0.3277
   60SOL    HW1  179   2.682   2.287   0.909  3.5935  5.0036 -2.8366
   60SOL    HW2  180   2.627   2.416   0.822 -0.6804 -0.0122  0.8614
   61SOL     OW  181   0.893   2.320   0.235 -0.1916 -0.1186  0.2474
   61SOL    HW1  182   0.979   2.368   0.241 -1.6533 -1.2151 -1.2244
   61SOL    HW2  183   0.881   2.243   0.298 -1.1823 -1.3689 -0.0977
   62SOL     OW  184   2.064   2.688   2.925  0.6041 -0.3854 -0.3865
   62SOL    HW1  185   2.133   2.663   2.854  2.3266  0.2978  1.2880
   62SOL    HW2  186   1.974   2.700   2.873 -2.3530  0.6861  0.7762
   63SOL     OW  187   1.895   0.143   3.038  0.0018 -0.1643 -0.7071
   63SOL    HW1  188   1.832   0.075   3.078 -0.8294 -0.0023  0.1182
   63SOL    HW2  189   1.993   0.107   3.014  1.9093 -1.1276 -0.9250
   64SOL     OW  190   0.967   1.092   2.536 -0.2550 -0.0545  0.1438
   64SOL    HW1  191   1.012   1.027   2.595 -2.3146 -2.2234 -2.2535
   64SOL    HW2  192   0.871   1.103   2.566  1.9205 -0.9580  1.1809
   65SOL     OW  193   1.351   2.769   0.627  0.4929  0.8866  0.3581
   65SOL    HW1  194   1.380   2.713   0.709 -1.2956 -0.4859 -2.3744
   65SOL    HW2  195   1.382   2.728   0.539 -1.1366 -2.5699 -2.0779
   66SOL     OW  196   0.527   1.363   1.679  0.1736  0.6338 -0.2552
   66SOL    HW1  197   0.600   1.333   1.741 -0.2624  1.2976  1.4626
   66SOL    HW2  198   0.455   1.417   1.730 -1.4490 -2.2142 -0.6358
   67SOL     OW  199   2.193   3.094   2.010  0.3486  0.1668  0.1566
   67SOL    HW1  200   2.201   3.052   1.913  2.7854  0.4354 -0.9769
   67SOL    HW2  201   2.286   3.098   2.046 -0.7206 -1.2108 -1.5122
   68SOL     OW  202   0.943   0.801   1.504 -0.4005 -0.2111  0.1232
   68SOL    HW1  203   0.904   0.711   1.519  0.3727  1.7715  0.9303
   68SOL    HW2  204   0.900   0.874   1.559  1.5134  0.0020  1.1173
   69SOL     OW  205   2.057   2.965   0.493  0.1005  0.3229  0.4936
   69SOL    HW1  206   2.042   2.866   0.468  0.5135 -2.4037 -0.1916
   69SOL    HW2  207   2.013   3.026   0.426 -0.9420 -0.8228 -1.8609
   70SOL     OW  208   2.547   0.649   3.036  0.4178 -0.5380 -0.4600
   70SOL    HW1  209   2.642   0.677   3.067 -0.4934  1.1282  1.2259
   70SOL    HW2  210   2.524   0.558   3.069 -0.5173  1.6866 -2.6789
   71SOL     OW  211   2.816   1.855   2.960  0.6530 -0.2550  0.0895
   71SOL    HW1  212   2.816   1.761   2.914  1.8947  2.0802  0.0142
   71SOL    HW2  213   2.912   1.881   2.979  0.4572  2.9704 -0.1832
   72SOL     OW  214   3.002   1.893   0.348 -0.1700  0.5453 -0.2946
   72SOL    HW1  215   2.902   1.879   0.348  2.3745  0.1105  0.9544
   72SOL    HW2  216   3.031   1.906   0.447 -1.8114  2.6317  0.3618
   73SOL     OW  217   0.813   0.896   0.518  0.3182 -0.1385 -0.4693
   73SOL    HW1  218   0.769   0.986   0.535 -0.4806 -1.7201  0.5111
   73SOL    HW2  219   0.814   0.875   0.417  1.7837  1.2238  0.9030
   74SOL     OW  220   3.097   2.060   1.886  0.1570  0.5692  0.1956
   74SOL    HW1  221   0.055   2.122   1.884 -3.2963 -1.6804  3.1160
   74SOL    HW2  222   3.116   1.972   1.941  2.2055 -3.0505  0.3010
   75SOL     OW  223   1.811   1.372   1.611 -0.8586  0.0416 -0.1440
   75SOL    HW1  224   1.738   1.336   1.549 -0.0695 -0.8647  2.5221
   75SOL    HW2  225   1.781   1.352   1.706  1.1376 -1.0237  1.3022
   76SOL     OW  226   1.978   2.271   1.137 -0.5047  0.6204 -0.5664
   76SOL    HW1  227   1.985   2.280   1.240  0.7761 -1.3927  0.3604
   76SOL    HW2  228   2.054   2.316   1.090 -0.5805  2.6540 -0.2181
   77SOL     OW  229   2.745   1.705   1.592  0.3291 -0.3137  0.0429
   77SOL    HW1  230   2.699   1.778   1.648 -0.6561 -1.8096 -0.8573
   77SOL    HW2  231   2.818   1.659   1.650 -2.8109  2.5669 -3.3233
   78SOL     OW  232   1.532   0.595   0.498 -0.0569 -0.4674 -0.1451
   78SOL    HW1  233   1.510   0.612   0.594  1.6275 -1.7521 -2.1648
   78SOL    HW2  234   1.632   0.567   0.486  2.6221 -1.9532  0.7897
   79SOL     OW  235   2.376   1.687   1.712 -0.2301 -0.3183 -0.3996
   79SOL    HW1  236   2.422   1.727   1.794  2.4602 -0.1406 -0.0011
   79SOL    HW2  237   2.406   1.593   1.696 -3.8094  2.2493  3.0720
   80SOL     OW  238   0.788   0.570   1.584  0.2615  0.4480  0.7907
   80SOL    HW1  239   0.869   0.515   1.608  2.4915  0.7004  0.4817
   80SOL    HW2  240   0.732   0.522   1.507 -0.8063 -1.4763 -1.2893
   81SOL     OW  241   0.607   2.607   0.939  0.0739  0.6969  0.3512
   81SOL    HW1  242   0.686   2.669   0.923 -0.9399 -2.1046  1.8861
   81SOL    HW2  243   0.531   2.657   0.986 -0.0252  0.3218  0.1530
   82SOL     OW  244   1.250   0.006   1.818  0.0437 -0.2490  0.0871
   82SOL    HW1  245   1.322   0.066   1.776  1.5261 -1.7342  3.2250
   82SOL    HW2  246   1.192   0.054   1.888  0.9700  2.9762 -0.8534
   83SOL     OW  247   1.110   1.911   0.625  0.4045 -0.0706 -0.0736
   83SOL    HW1  248   1.120   2.003   0.584 -1.4092 -2.0644 -3.2225
   83SOL    HW2  249   1.013   1.901   0.643 -0.8866 -1.1276 -1.7693
   84SOL     OW  250   0.039   1.426   2.914  0.5011 -0.1763 -0.4551
   84SOL    HW1  251   0.006   1.330   2.922 -3.0657  0.4209 -0.5144
   84SOL    HW2  252   3.092   1.492   2.960 -0.6778 -1.2882 -1.2777
   85SOL     OW  253   0.229   2.297   0.935 -0.4963  0.1007 -0.2847
   85SOL    HW1  254   0.194   2.339   0.848 -0.3039  0.9902  0.0698
   85SOL    HW2  255   0.327   2.316   0.953 -3.1720 -0.8766 -1.8253
   86SOL     OW  256   2.067   2.649   1.597 -0.3802 -0.0234  0.5144
   86SOL    HW1  257   2.132   2.600   1.533  0.2976 -1.7859 -0.7875
   86SOL    HW2  258   2.065   2.595   1.685 -1.0749  0.3003  0.2049
   87SOL     OW  259   0.008   1.995   0.592  0.3799  0.2239 -0.0361
   87SOL    HW1  260   0.004   2.097   0.616  1.1985  0.0372  0.6575
   87SOL    HW2  261   0.007   1.938   0.681 -1.5264  0.7227  0.2268
   88SOL     OW  262   0.939   0.639   1.035  0.4946 -0.5478  0.0063
   88SOL    HW1  263   0.909   0.732   1.017 -0.4128  1.1819 -0.4586
   88SOL    HW2  264   1.037   0.639   1.067 -1.5121  1.1994  0.8500
   89SOL     OW  265   0.874   2.940   1.822  0.4009  0.6568 -0.6391
   89SOL    HW1  266   0.876   2.964   1.726 -2.2102 -2.2053  1.2998
   89SOL    HW2  267   0.910   3.010   1.884 -2.1667 -0.8572 -2.9434
   90SOL     OW  268   0.274   2.098   1.428 -0.0792 -0.2497  0.0609
   90SOL    HW1  269   0.333   2.029   1.378  0.0673 -1.4061 -0.9168
   90SOL    HW2  270   0.316   2.129   1.514 -1.2933 -1.3097  0.2983
   91SOL     OW  271   1.411   2.134   1.310  0.5416  0.6744 -0.2805
   91SOL    HW1  272   1.344   2.130   1.386 -1.1156  0.2609 -2.3473
   91SOL    HW2  273   1.497   2.102   1.351 -0.7527  0.8957  1.9625
   92SOL     OW  274   2.795   2.878   1.521 -0.0247  0.0487  0.2160
   92SOL    HW1  275   2.815   2.956   1.457  0.9211  0.4300  1.2763
   92SOL    HW2  276   2.876   2.835   1.561 -1.2163  1.8370  0.0654
   93SOL     OW  277   3.110   1.183   3.018 -0.0574  0.2623  0.3969
   93SOL    HW1  278   3.114   1.082   2.994  0.8674 -1.7433 -1.0838
   93SOL    HW2  279   0.029   1.198   3.110  0.2961  2.3038 -0.5523
   94SOL     OW  280   2.864   2.672   2.036 -0.1225 -0.5267  0.1769
   94SOL    HW1  281   2.877   2.776   2.034 -0.6997  0.4100  0.7468
   94SOL    HW2  282   2.787   2.631   1.988  2.9091 -1.4723 -0.0270
   95SOL     OW  283   1.609   0.606   2.020 -0.2810 -0.2016  0.3523
   95SOL    HW1  284   1.617   0.533   2.086 -0.5472  2.3039 -2.6380
   95SOL    HW2  285   1.551   0.679   2.058 -1.0112 -0.4209  0.7706
   96SOL     OW  286   2.594   0.509   1.653  0.0442 -0.6088 -0.0164
   96SOL    HW1  287   2.518   0.466   1.702  0.5043 -0.5917  0.3812
   96SOL    HW2  288   2.681   0.484   1.698  0.6843 -0.8320  1.0431
   97SOL     OW  289   2.349   0.246   1.438  0.4812 -0.0555  0.2879
   97SOL    HW1  290   2.365   0.193   1.519  1.8366  1.5690 -4.0404
   97SOL    HW2  291   2.346   0.350   1.451 -0.3612  1.1419  2.6881
   98SOL     OW  292   2.220   2.711   1.196 -0.2815 -0.1307  0.4354
   98SOL    HW1  293   2.121   2.722   1.204  1.0978 -1.0147 -0.3751
   98SOL    HW2  294   2.265   2.776   1.260 -4.0026 -1.0796  0.9963
   99SOL     OW  295   2.966   0.349   2.151 -0.4724  0.5975 -0.3505
   99SOL    HW1  296   2.995   0.341   2.254  0.2012  3.0550  1.1090
   99SOL    HW2  297   2.930   0.443   2.134  1.1121  0.1304  0.7071
  100SOL     OW  298   2.592   1.768   1.897  0.5788 -0.2398 -0.1924
  100SOL    HW1  299   2.519   1.737   1.962  0.2096  0.4317  1.5453
  100SOL    HW2  300   2.590   1.871   1.891  1.1198 -0.6952 -0.4164
  101SOL     OW  301   1.806   0.096   0.767  0.2282 -0.2372  0.1507
  101SOL    HW1  302   1.842   0.167   0.834  1.2950  2.2745 -1.4214
  101SOL    HW2  303   1.810   0.004   0.816  0.7896  0.8087  0.3517
  102SOL     OW  304   0.478   0.784   1.387  0.7992  0.4371 -0.3018
  102SOL    HW1  305   0.537   0.705   1.366 -2.6717  1.8081  1.0965
  102SOL    HW2  306   0.486   0.814   1.485 -0.2459  0.6477 -0.6642
  103SOL     OW  307   2.699   0.165   0.063  0.1763 -0.2352 -0.0827
  103SOL    HW1  308   2.716   0.135   3.085 -0.6355 -1.0823 -1.3195
  103SOL    HW2  309   2.747   0.255   0.077 -0.5974  0.1110 -0.9078
  104SOL     OW  310   2.770   0.252   2.004 -0.0624  0.0360  0.3360
  104SOL    HW1  311   2.795   0.258   1.907  0.6067  0.7887  3.4814
  104SOL    HW2  312   2.851   0.277   2.061  1.3443  0.3620  2.0076
  105SOL     OW  313   1.829   0.834   2.303 -0.6908  0.7393  0.1358
  105SOL    HW1  314   1.898   0.763   2.263  1.5854 -0.5760 -3.0678
  105SOL    HW2  315   1.867   0.927   2.291 -0.9366 -5.4493  0.2247
  106SOL     OW  316   1.827   2.976   0.919 -0.4859  0.3117  0.1309
  106SOL    HW1  317   1.866   3.025   0.998  1.4401  0.0912  0.1866
  106SOL    HW2  318   1.897   2.967   0.844  2.0401 -0.6096 -0.5997
  107SOL     OW  319   0.798   1.133   0.905 -0.4133  0.2917 -0.1582
  107SOL    HW1  320   0.719   1.152   0.844  1.0598 -1.0047  1.3905
  107SOL    HW2  321   0.829   1.221   0.944 -0.1221  0.8966  2.4103
  108SOL     OW  322   2.953   0.604   2.536  0.5296  0.5047 -0.0416
  108SOL    HW1  323   3.014   0.534   2.573  1.1030 -0.4807  1.8960
  108SOL    HW2  324   2.854   0.570   2.522  0.2394 -1.2392 -0.8455
  109SOL     OW  325   1.997   0.278   0.151  0.0912  0.1371 -0.2807
  109SOL    HW1  326   1.973   0.236   0.061  2.7568  0.3198 -2.2165
  109SOL    HW2  327   1.932   0.360   0.170 -0.9127  4.0403 -0.0250
  110SOL     OW  328   0.050   2.031   2.826  0.3301  0.4055  0.0476
  110SOL    HW1  329   0.006   1.996   2.912  2.4784  2.7412  0.2153
  110SOL    HW2  330   0.097   1.951   2.781 -0.0483  0.0583 -0.0314
  111SOL     OW  331   2.011   0.135   2.132 -0.6425  0.4025 -0.3196
  111SOL    HW1  332   2.077   0.072   2.077 -0.8204 -0.4653 -0.5723
  111SOL    HW2  333   2.060   0.164   2.221  1.6108 -0.5373 -0.3089
  112SOL     OW  334   2.478   2.962   0.732 -0.4431 -0.1530  0.3830
  112SOL    HW1  335   2.462   3.050   0.786 -2.0589  3.1798  0.2501
  112SOL    HW2  336   2.436   2.971   0.638  0.8059 -1.3928  0.6941
  113SOL     OW  337   2.399   2.505   1.777  0.5368 -0.2731  0.3406
  113SOL    HW1  338   2.337   2.507   1.695  0.0097 -1.8878 -0.0182
  113SOL    HW2  339   2.366   2.444   1.857  0.9884 -1.7008  2.1821
  114SOL     OW  340   3.063   0.439   0.594  0.7397  0.0343 -0.1710
  114SOL    HW1  341   3.053   0.357   0.656 -0.4946 -0.4049  0.7666
  114SOL    HW2  342   3.102   0.521   0.637  3.0098 -1.0768 -5.0522
  115SOL     OW  343   2.685   1.803   0.090  0.0401 -0.1174  0.6704
  115SOL    HW1  344   2.742   1.850   0.026  1.2611 -0.2953 -0.3499
  115SOL    HW2  345   2.645   1.715   0.054  3.4279 -4.0988  1.9799
  116SOL     OW  346   3.075   1.569   1.948  0.9564 -0.1673  1.2927
  116SOL    HW1  347   3.006   1.600   2.016 -2.8383 -1.5465  1.7604
  116SOL    HW2  348   3.030   1.583   1.853 -2.6796  2.0270 -1.6274
  117SOL     OW  349   2.725   3.078   0.638 -0.3417 -0.5199 -0.0309
  117SOL    HW1  350   2.630   3.060   0.672  3.1335  0.8568  2.3377
  117SOL    HW2  351   2.735   3.044   0.546  0.2821  0.2007  3.0024
  118SOL     OW  352   0.420   2.629   1.582  0.2292  0.4434  0.5103
  118SOL    HW1  353   0.328   2.584   1.578  0.3364  0.5838  0.0574
  118SOL    HW2  354   0.469   2.596   1.661  0.8434  0.2700 -2.0318
  119SOL     OW  355   1.723   2.316   1.000  1.0612  0.0531 -0.2596
  119SOL    HW1  356   1.813   2.286   1.036  0.9347  1.1594 -1.3500
  119SOL    HW2  357   1.694   2.402   1.039  3.1306 -2.5521 -4.5832
  120SOL     OW  358   0.461   1.979   2.246  0.5130 -0.2322  0.5193
  120SOL    HW1  359   0.539   1.915   2.262 -0.4557  3.1255 -1.3957
  120SOL    HW2  360   0.427   2.022   2.330  0.9365 -0.4270 -0.6200
  121SOL     OW  361   2.762   1.395   0.913 -0.2598  0.7553  0.0914
  121SOL    HW1  362   2.707   1.449   0.978  1.7730  3.0927  0.5665
  121SOL    HW2  363   2.781   1.304   0.952 -1.1300 -1.2295 -0.3699
  122SOL     OW  364   2.060   1.533   2.429 -0.6662  0.4092  0.0677
  122SOL    HW1  365   1.990   1.533   2.353  0.2434  0.4512 -0.9003
  122SOL    HW2  366   2.127   1.608   2.416 -1.2395  0.5965 -0.9247
  123SOL     OW  367   2.840   0.173   0.746  0.1878 -0.0310  0.0457
  123SOL    HW1  368   2.943   0.167   0.751  1.6214  2.6575 -0.1230
  123SOL    HW2  369   2.795   0.093   0.703 -0.7959  1.6585 -0.0627
  124SOL     OW  370   1.469   1.229   2.747 -0.2597  0.3033 -0.0043
  124SOL    HW1  371   1.406   1.231   2.826 -2.0731 -0.8450 -0.6426
  124SOL    HW2  372   1.555   1.182   2.770 -2.9091  0.6665  1.4507
  125SOL     OW  373   0.239   1.724   2.405  0.6500 -0.2694  0.3090
  125SOL    HW1  374   0.286   1.763   2.485 -6.2301 -0.2926  0.7323
  125SOL    HW2  375   0.296   1.655   2.357 -1.0965  0.8893 -0.2402
  126SOL     OW  376   2.802   2.083   0.306 -0.4457  0.1976  0.1544
  126SOL    HW1  377   2.829   2.176   0.339  3.0939 -1.3552  1.1547
  126SOL    HW2  378   2.870   2.037   0.245  3.7936 -0.8948 -0.0969
  127SOL     OW  379   0.590   1.768   1.073  0.6051  0.1429  0.2144
  127SOL    HW1  380   0.566   1.679   1.122  0.6295 -0.7197  1.9304
  127SOL    HW2  381   0.514   1.825   1.037 -0.3737 -0.5136 -1.2894
  128SOL     OW  382   1.356   0.800   3.058  0.0737 -0.4439  0.4748
  128SOL    HW1  383   1.340   0.805   0.036  0.2118 -0.6564 -1.0041
  128SOL    HW2  384   1.454   0.818   3.039 -1.3161 -3.7361  1.1027
  129SOL     OW  385   2.372   1.801   1.449 -0.5235 -0.4268  0.6682
  129SOL    HW1  386   2.284   1.844   1.436 -1.7101  1.6580  2.1143
  129SOL    HW2  387   2.388   1.769   1.543 -0.0461 -1.4686 -3.1315
  130SOL     OW  388   1.964   1.368   0.406  0.2770  0.4934 -0.2001
  130SOL    HW1  389   2.068   1.357   0.422  3.3303 -0.8258 -1.8561
  130SOL    HW2  390   1.908   1.353   0.490 -2.7671  0.6398 -0.9705
  131SOL     OW  391   2.965   1.185   2.606 -0.1770 -0.9470 -0.2806
  131SOL    HW1  392   2.917   1.104   2.646 -1.1016  0.2279  1.8099
  131SOL    HW2  393   2.930   1.275   2.641 -1.1564 -1.2099 -2.3700
  132SOL     OW  394   2.106   1.741   1.708 -0.7565 -0.2000 -0.7661
  132SOL    HW1  395   2.202   1.717   1.725 -0.5899 -0.3281  1.4280
  132SOL    HW2  396   2.044   1.684   1.766 -0.0150 -0.6304 -1.6064
  133SOL     OW  397   0.279   1.347   3.065  0.1680  0.4121  0.2561
  133SOL    HW1  398   0.190   1.380   3.020 -0.4086 -2.7748 -1.4235
  133SOL    HW2  399   0.269   1.363   0.047 -0.6955  1.9127 -1.2578
  134SOL     OW  400   2.663   1.335   0.080 -0.4746 -0.0605  0.2046
  134SOL    HW1  401   2.728   1.258   0.054  1.2020 -3.1461 -0.9265
  134SOL    HW2  402   2.704   1.395   0.149  0.3000 -0.4004  0.2593
  135SOL     OW  403   2.632   1.021   0.399 -0.4372  0.3780 -0.1194
  135SOL    HW1  404   2.539   1.067   0.406 -2.5817 -0.1086 -4.2557
  135SOL    HW2  405   2.710   1.087   0.422  0.1608  2.9726  0.2298
  136SOL     OW  406   2.030   1.501   1.539  0.0251  0.4293  0.0325
  136SOL    HW1  407   2.060   1.587   1.586 -3.4413 -0.2705  1.4695
  136SOL    HW2  408   1.941   1.462   1.576  1.5462 -1.7539  0.5572
  137SOL     OW  409   2.545   2.104   0.344 -0.2396 -0.8462 -0.1046
  137SOL    HW1  410   2.501   2.018   0.320  1.5990  2.0011 -0.7536
  137SOL    HW2  411   2.642   2.100   0.304 -1.2976 -0.1863 -0.0941
  138SOL     OW  412   1.712   0.199   1.843  0.1715 -0.1855 -0.3245
  138SOL    HW1  413   1.753   0.107   1.850 -2.6065 -2.3264 -0.0347
  138SOL    HW2  414   1.778   0.257   1.792  0.9015 -0.3204  1.6907
  139SOL     OW  415   2.427   0.144   0.153  0.2284 -0.3489 -0.1508
  139SOL    HW1  416   2.528   0.143   0.151 -0.2277 -0.3837 -1.0060
  139SOL    HW2  417   2.392   0.072   0.095  1.3657  0.5403 -0.1788
  140SOL     OW  418   1.305   1.998   2.643 -0.0948 -0.4430  0.3372
  140SOL    HW1  419   1.329   1.899   2.651  0.5038 -0.4513 -1.2254
  140SOL    HW2  420   1.236   2.028   2.710  2.5916  0.3117 -1.5113
  141SOL     OW  421   0.979   0.928   1.942 -0.3011  0.0806  0.5822
  141SOL    HW1  422   0.942   0.922   2.034  1.2041 -2.7771 -5.7328
  141SOL    HW2  423   1.063   0.868   1.937  2.4567 -0.1768  0.4641
  142SOL     OW  424   2.138   2.549   0.029  0.1628  0.4979 -0.1005
  142SOL    HW1  425   2.084   2.608   3.084  0.1486  0.1488 -0.4671
  142SOL    HW2  426   2.216   2.506   3.103  1.5840  2.7716 -2.3038
  143SOL     OW  427   0.718   2.002   0.045  0.0176 -0.1027  0.2664
  143SOL    HW1  428   0.731   2.078   3.097 -1.7777 -0.9997  1.4060
  143SOL    HW2  429   0.626   2.021   0.086  0.3739  0.8680 -1.0104
  144SOL     OW  430   1.132   2.573   0.163 -0.1248  0.2155 -0.2341
  144SOL    HW1  431   1.111   2.597   0.065 -0.0892 -0.2028  0.2641
  144SOL    HW2  432   1.155   2.474   0.181 -0.0201  0.7613  2.8301
  145SOL     OW  433   2.229   1.836   2.900  0.5004  0.4688 -0.3772
  145SOL    HW1  434   2.262   1.860   2.994  2.0029  2.2217  2.6804
  145SOL    HW2  435   2.128   1.854   2.897  0.3121  1.7456  2.1265
  146SOL     OW  436   2.556   2.774   2.571  1.0187 -0.4234 -0.3208
  146SOL    HW1  437   2.475   2.802   2.517 -1.9243 -0.5896 -2.0922
  146SOL    HW2  438   2.591   2.841   2.637  1.0839 -0.3327  1.6126
  147SOL     OW  439   2.719   1.777   1.033 -0.8283  0.4925  0.0847
  147SOL    HW1  440   2.776   1.803   1.115 -0.0429  0.4471 -0.0769
  147SOL    HW2  441   2.664   1.687   1.042 -2.4142 -1.2801 -0.4669
  148SOL     OW  442   1.749   3.031   3.103 -0.2448 -0.5232  0.0621
  148SOL    HW1  443   1.655   3.019   3.069  3.3104  0.3643  0.3744
  148SOL    HW2  444   1.749   2.992   0.076  2.4615  0.4398  0.5417
  149SOL     OW  445   0.934   1.425   2.784 -0.6034  0.0259  0.1560
  149SOL    HW1  446   1.004   1.433   2.859  2.4484  1.6524  0.1801
  149SOL    HW2  447   0.856   1.375   2.829  1.5361 -0.1328 -1.7140
  150SOL     OW  448   0.480   2.178   0.675  0.0199 -0.0269 -0.4405
  150SOL    HW1  449   0.494   2.246   0.746  0.7818 -0.4264 -2.5676
  150SOL    HW2  450   0.499   2.085   0.702 -1.7763  3.2696 -1.1921
  151SOL     OW  451   0.445   1.685   0.076 -0.0185 -0.2361 -0.4278
  151SOL    HW1  452   0.474   1.685   0.175 -2.3535 -0.1974  2.0638
  151SOL    HW2  453   0.514   1.662   0.006 -0.6929 -1.0184 -0.1500
  152SOL     OW  454   2.850   1.186   0.489  0.4641  0.1911 -0.7993
  152SOL    HW1  455   2.784   1.259   0.519  0.3401 -1.0760  1.4338
  152SOL    HW2  456   2.928   1.182   0.553  0.6420  0.7752 -1.5645
  153SOL     OW  457   2.173   2.357   0.323 -0.0550  0.1758  0.2136
  153SOL    HW1  458   2.085   2.306   0.313  1.0981  2.3504  1.1732
  153SOL    HW2  459   2.166   2.445   0.373 -0.0066 -0.4147 -3.2132
  154SOL     OW  460   0.720   2.849   0.582  0.3415  0.4977 -0.2810
  154SOL    HW1  461   0.773   2.927   0.620  0.3455  1.5149  0.8000
  154SOL    HW2  462   0.645   2.819   0.646 -0.9530  2.7106  0.3171
  155SOL     OW  463   0.452   1.986   0.973 -0.0588 -1.0012 -0.0787
  155SOL    HW1  464   0.437   2.073   1.026  0.4283  3.5989  0.3676
  155SOL    HW2  465   0.369   1.970   0.915  4.1372  2.6310 -1.0215
  156SOL     OW  466   2.389   2.410   3.091 -0.2913  0.6263 -0.4749
  156SOL    HW1  467   2.438   2.495   3.079 -0.3095  0.0568  5.6174
  156SOL    HW2  468   2.401   2.378   0.063 -0.2048  2.6733  2.6764
  157SOL     OW  469   1.077   2.010   1.316  0.1474 -0.0974 -0.4052
  157SOL    HW1  470   1.005   2.086   1.316  0.0856  2.3349  1.9548
  157SOL    HW2  471   1.050   1.933   1.265  1.5360  0.1482  0.6120
  158SOL     OW  472   1.757   0.448   0.207 -0.4401 -0.0600 -0.2819
  158SOL    HW1  473   1.733   0.507   0.128 -1.6592  1.5703 -0.1050
  158SOL    HW2  474   1.707   0.364   0.194 -0.3482  3.0659  3.9695
  159SOL     OW  475   1.033   0.628   3.053  0.3855  0.0165  0.5792
  159SOL    HW1  476   1.131   0.594   3.026  1.8828 -0.5591  2.2579
  159SOL    HW2  477   1.036   0.637   0.030 -1.0600  0.8262 -2.9760
  160SOL     OW  478   1.223   1.506   0.107  0.3593  0.1242 -0.5040
  160SOL    HW1  479   1.228   1.606   0.137  0.1179  1.9977  2.6333
  160SOL    HW2  480   1.254   1.453   0.190  0.4534  0.9191  0.3068
  161SOL     OW  481   0.127   2.111   2.520  0.3960 -0.1546  0.4223
  161SOL    HW1  482   0.086   2.080   2.606 -0.8461 -2.5739  2.1258
  161SOL    HW2  483   0.098   2.050   2.445 -3.2176 -1.4668  0.4269
  162SOL     OW  484   0.496   2.353   0.948 -0.7608 -0.1181 -0.0093
  162SOL    HW1  485   0.527   2.450   0.934  3.3305  1.0718 -1.3128
  162SOL    HW2  486   0.524   2.302   1.035 -1.2410 -3.0221  1.5348
  163SOL     OW  487   2.822   0.656   3.110 -0.2295 -0.2081  0.3555
  163SOL    HW1  488   2.876   0.619   3.038  0.3614  4.8450  0.0866
  163SOL    HW2  489   2.870   0.729   0.039  0.4518 -1.9828  1.5260
  164SOL     OW  490   0.498   0.168   2.838  0.3506 -0.2326 -0.5629
  164SOL    HW1  491   0.488   0.163   2.941 -0.5197 -0.9270  1.5838
  164SOL    HW2  492   0.499   0.076   2.795 -0.3794  1.3975 -1.6555
  165SOL     OW  493   2.156   0.571   1.379 -0.3787 -1.2222 -0.6083
  165SOL    HW1  494   2.152   0.675   1.384  3.9183  2.8670 -0.9728
  165SOL    HW2  495   2.254   0.547   1.404  0.6838 -0.4559  0.8507
  166SOL     OW  496   2.109   2.914   1.608 -0.3054 -0.5697  0.2938
  166SOL    HW1  497   2.184   2.933   1.670 -0.1195 -0.6045 -1.1361
  166SOL    HW2  498   2.089   2.813   1.608  2.7677  1.9454 -1.1790
  167SOL     OW  499   1.133   0.490   1.988 -0.4266  0.4807  0.2737
  167SOL    HW1  500   1.094   0.486   2.080  4.6853 -1.7697 -2.5685
  167SOL    HW2  501   1.231   0.451   1.981  3.5268  2.2222 -3.8536
  168SOL     OW  502   2.502   0.259   2.106 -0.0785 -0.1965  0.0634
  168SOL    HW1  503   2.584   0.273   2.042  1.0762  0.4297  0.0362
  168SOL    HW2  504   2.487   0.156   2.120 -0.3324 -2.2208  0.6010
  169SOL     OW  505   0.241   1.337   0.216  0.2023 -0.4652 -0.2240
  169SOL    HW1  506   0.202   1.409   0.278  0.0105 -1.2577 -0.6116
  169SOL    HW2  507   0.168   1.265   0.206 -1.2734  1.7652  0.1453
  170SOL     OW  508   0.186   1.667   1.627  0.0857 -0.0329  0.0291
  170SOL    HW1  509   0.264   1.726   1.608 -0.4066  1.0972  2.6917
  170SOL    HW2  510   0.133   1.649   1.539 -2.5574 -1.4191 -1.1328
  171SOL     OW  511   0.867   2.502   2.132  0.0535  0.1066 -0.3365
  171SOL    HW1  512   0.847   2.412   2.168 -1.5263  3.3594  0.1383
  171SOL    HW2  513   0.960   2.512   2.089  0.4940  0.6394  0.0458
  172SOL     OW  514   0.652   2.773   1.504 -0.2667  0.5638 -0.1928
  172SOL    HW1  515   0.634   2.729   1.600 -0.1568 -0.9844  2.5455
  172SOL    HW2  516   0.644   2.699   1.431  2.9396 -1.6957 -1.4309
  173SOL     OW  517   1.470   2.363   0.907 -0.2731  0.9120  0.2038
  173SOL    HW1  518   1.554   2.304   0.901 -0.8685  2.2134  0.3911
  173SOL    HW2  519   1.454   2.389   1.003 -1.0222 -0.6662 -2.2789
  174SOL     OW  520   1.377   0.282   0.607 -0.2862  0.5410 -0.1618
  174SOL    HW1  521   1.413   0.277   0.701  0.3186 -2.5157 -1.0383
  174SOL    HW2  522   1.417   0.204   0.558  2.1315  1.6381  2.0001
  175SOL     OW  523   1.274   1.328   0.327 -0.3370 -0.0784  0.0907
  175SOL    HW1  524   1.311   1.267   0.257  1.0585  2.2712 -1.1620
  175SOL    HW2  525   1.307   1.296   0.418  0.2865  0.3700  0.9655
  176SOL     OW  526   1.461   0.845   0.398 -0.1269  0.1921  0.3492
  176SOL    HW1  527   1.542   0.858   0.335 -0.7495 -0.7759 -1.1752
  176SOL    HW2  528   1.464   0.748   0.422  0.5427  0.6359  1.8313
  177SOL     OW  529   1.313   0.635   1.349  0.2150  0.2598  0.4932
  177SOL    HW1  530   1.304   0.560   1.420 -1.1410 -2.1496  4.3828
  177SOL    HW2  531   1.340   0.725   1.389  1.8665 -0.6997  2.7828
  178SOL     OW  532   2.558   1.575   3.108 -0.0353 -0.0113 -0.1297
  178SOL    HW1  533   2.589   1.483   0.020 -1.3999  1.2518 -0.4607
  178SOL    HW2  534   2.468   1.568   3.069  3.1179  1.2263 -1.8502
  179SOL     OW  535   0.546   2.508   3.014  0.3176  0.5184  0.2764
  179SOL    HW1  536   0.509   2.606   3.031 -1.9452  0.6893  0.9615
  179SOL    HW2  537   0.582   2.453   3.094  1.6603 -1.2558  0.5064
  180SOL     OW  538   1.962   1.549   1.859  0.3663 -0.1295  0.5765
  180SOL    HW1  539   2.048   1.505   1.886 -1.7851 -1.0547 -0.5298
  180SOL    HW2  540   1.887   1.481   1.861  1.2148  1.0627  0.2228
  181SOL     OW  541   1.248   1.225   2.213  0.3533  1.1261 -0.1674
  181SOL    HW1  542   1.215   1.193   2.120 -1.8434 -0.0370  2.3914
  181SOL    HW2  543   1.262   1.143   2.269 -1.6618 -1.0298 -1.4999
  182SOL     OW  544   3.033   1.189   2.328  0.1160 -0.4462  0.4718
  182SOL    HW1  545   0.010   1.215   2.314  0.3925 -1.3343 -0.1009
  182SOL    HW2  546   3.008   1.188   2.429  0.4972 -0.3741  2.0537
  183SOL     OW  547   1.760   0.367   2.242 -0.0020 -0.1084 -0.1282
  183SOL    HW1  548   1.764   0.289   2.311  0.0904  1.2320  1.1571
  183SOL    HW2  549   1.789   0.450   2.295  0.6580 -1.7952  0.5986
  184SOL     OW  550   0.309   0.687   1.708  0.1226 -0.1847 -0.4297
  184SOL    HW1  551   0.395   0.629   1.721 -0.5382 -1.8039  1.2273
  184SOL    HW2  552   0.263   0.669   1.618 -1.4084  3.2622 -3.0985
  185SOL     OW  553   2.384   1.683   0.862  0.5250 -0.1905 -0.4460
  185SOL    HW1  554   2.328   1.754   0.905  1.3173  0.2369  1.7432
  185SOL    HW2  555   2.439   1.725   0.784  0.6377  1.4925 -2.1574
  186SOL     OW  556   0.592   1.779   2.766  0.1912  0.4001  0.1081
  186SOL    HW1  557   0.624   1.876   2.775 -0.2933  0.3817 -0.3561
  186SOL    HW2  558   0.515   1.784   2.698 -0.3464  0.8373  1.3098
  187SOL     OW  559   2.369   1.963   0.014  0.5647 -0.2057  0.4538
  187SOL    HW1  560   2.410   1.949   0.107 -2.6229 -2.6018  4.0589
  187SOL    HW2  561   2.438   1.994   3.067 -0.2070  2.3924 -0.6168
  188SOL     OW  562   0.626   2.239   0.443 -0.2622 -0.1210 -0.4331
  188SOL    HW1  563   0.558   2.209   0.510 -1.1563 -0.4904  1.6025
  188SOL    HW2  564   0.617   2.191   0.356  0.2730  2.4148  2.7206
  189SOL     OW  565   2.228   0.556   2.731 -0.7767  0.7943  0.4942
  189SOL    HW1  566   2.144   0.553   2.792 -2.2826 -0.1806 -0.8784
  189SOL    HW2  567   2.225   0.650   2.700 -0.8754  0.8796  0.4707
  190SOL     OW  568   1.207   1.943   2.282 -0.5176 -0.0487  0.1787
  190SOL    HW1  569   1.246   2.030   2.321 -3.0461  1.0441 -1.1786
  190SOL    HW2  570   1.181   1.866   2.346 -1.5390 -0.1050  0.9897
  191SOL     OW  571   2.436   0.781   1.367  0.5140 -0.0395 -0.6486
  191SOL    HW1  572   2.463   0.849   1.441  1.6333 -0.3806  2.9098
  191SOL    HW2  573   2.402   0.832   1.286  0.5237  1.3577 -1.4859
  192SOL     OW  574   2.031   0.367   2.000  0.3221 -0.3432  0.1534
  192SOL    HW1  575   2.130   0.385   2.024  1.3180  1.5373 -1.8834
  192SOL    HW2  576   1.990   0.290   2.052  1.6023  0.0869 -0.3317
  193SOL     OW  577   3.112   0.309   0.988 -0.4844  0.3411 -0.1056
  193SOL    HW1  578   3.118   0.289   1.089 -2.0187 -0.5388 -0.1934
  193SOL    HW2  579   0.009   0.409   0.987  2.2576 -0.0719  1.2932
  194SOL     OW  580   1.416   2.516   1.562  0.4903 -0.5578  0.2938
  194SOL    HW1  581   1.424   2.593   1.491 -1.4152 -1.6744 -1.6691
  194SOL    HW2  582   1.506   2.476   1.591 -0.7317 -0.2835 -0.0814
  195SOL     OW  583   2.692   0.638   0.686  0.3891  0.2211 -0.0090
  195SOL    HW1  584   2.687   0.542   0.654  0.4430 -1.9403  1.6117
  195SOL    HW2  585   2.773   0.640   0.742 -0.6849 -0.4658  0.1568
  196SOL     OW  586   1.239   1.928   1.733  0.1175  0.4045 -0.6121
  196SOL    HW1  587   1.275   1.990   1.660  2.1855 -2.9071  2.4975
  196SOL    HW2  588   1.277   1.834   1.726  3.7766 -3.7548  0.4645
  197SOL     OW  589   0.262   0.278   2.686 -0.6192 -0.2527 -0.3456
  197SOL    HW1  590   0.351   0.232   2.707  3.0409  0.3760  0.8639
  197SOL    HW2  591   0.271   0.378   2.685  0.0470 -1.2184  0.6376
  198SOL     OW  592   1.215   1.213   0.629 -0.3443 -0.0786  0.3613
  198SOL    HW1  593   1.275   1.143   0.577  0.4744 -1.3848  1.8627
  198SOL    HW2  594   1.121   1.230   0.591 -3.5609 -3.0653 -0.9724
  199SOL     OW  595   2.390   0.714   1.771 -0.1495 -0.2909 -0.0623
  199SOL    HW1  596   2.369   0.617   1.754  2.3014  2.0694 -1.1836
  199SOL    HW2  597   2.453   0.755   1.700  3.2737  1.6360 -0.3181
  200SOL     OW  598   2.539   2.683   2.133 -0.5018  0.3440  0.1794
  200SOL    HW1  599   2.594   2.748   2.184 -0.3074 -3.2783  0.1222
  200SOL    HW2  600   2.578   2.650   2.044  1.5491 -1.3286 -2.0768
  201SOL     OW  601   2.305   0.147   1.694 -0.1627  0.0468  0.5340
  201SOL    HW1  602   2.208   0.118   1.708 -0.1977 -1.7910  0.5935
  201SOL    HW2  603   2.372   0.068   1.721 -0.7605 -3.8650  1.5537
  202SOL     OW  604   2.150   2.952   0.150 -0.3500 -0.2972 -0.7861
  202SOL    HW1  605   2.099   2.982   0.232  0.9651 -0.3309  0.3737
  202SOL    HW2  606   2.085   2.946   0.076  0.4057  0.3222  0.5562
  203SOL     OW  607   1.073   2.248   2.201 -0.6047  0.0340  0.0273
  203SOL    HW1  608   1.004   2.187   2.162  1.1588 -0.6622 -2.7217
  203SOL    HW2  609   1.082   2.219   2.296 -0.7959  0.6284 -1.4371
  204SOL     OW  610   1.037   1.393   2.545  0.4750  0.0175 -0.0185
  204SOL    HW1  611   1.002   1.421   2.635 -1.5523  0.4513 -0.9780
  204SOL    HW2  612   1.028   1.295   2.517  1.9554 -0.0443  1.1431
  205SOL     OW  613   0.888   1.131   1.259  0.0287 -0.3143  0.0912
  205SOL    HW1  614   0.914   1.033   1.271 -0.9759  0.9453  1.0946
  205SOL    HW2  615   0.966   1.174   1.202  1.6449  0.2207 -0.9263
  206SOL     OW  616   0.586   0.467   2.750 -0.6277 -0.5778 -0.2234
  206SOL    HW1  617   0.587   0.488   2.649 -0.7891 -3.1171  0.1628
  206SOL    HW2  618   0.584   0.366   2.763 -0.3429 -3.1648 -0.1753
  207SOL     OW  619   1.657   2.726   2.434  0.0590 -0.2933 -0.0067
  207SOL    HW1  620   1.749   2.771   2.407  3.3845  0.4534 -1.8727
  207SOL    HW2  621   1.577   2.761   2.383 -2.8962 -0.9982 -0.7396
  208SOL     OW  622   0.910   2.525   1.293  0.7111 -0.4926  0.2569
  208SOL    HW1  623   0.954   2.600   1.241  1.4108 -3.2631 -1.4153
  208SOL    HW2  624   0.918   2.433   1.252  0.0008 -0.5482  0.7322
  209SOL     OW  625   1.603   1.454   2.669 -0.3836 -0.7856 -0.4390
  209SOL    HW1  626   1.655   1.409   2.598  0.3490  1.2949 -1.7750
  209SOL    HW2  627   1.539   1.392   2.716  2.7286 -1.1203 -0.4386
  210SOL     OW  628   1.893   1.039   0.862  0.0332 -0.1441 -0.3096
  210SOL    HW1  629   1.951   1.001   0.940  1.1351 -0.9169 -0.4643
  210SOL    HW2  630   1.930   1.011   0.771  0.5418 -1.5085  0.7834
  211SOL     OW  631   0.727   2.451   0.587 -0.1611 -0.1109  0.1173
  211SOL    HW1  632   0.750   2.536   0.537  0.0059 -0.3337  1.5196
  211SOL    HW2  633   0.736   2.372   0.528  2.8542  1.0667  1.7583
  212SOL     OW  634   2.024   1.768   0.283  0.1198  0.2917  0.5481
  212SOL    HW1  635   1.983   1.829   0.216  0.3662  1.2906 -0.9559
  212SOL    HW2  636   2.029   1.808   0.377 -3.7089  2.0268  1.3874
  213SOL     OW  637   1.787   0.419   2.958 -0.3492 -0.4162  0.1738
  213SOL    HW1  638   1.810   0.322   2.984  0.3051 -1.0258  1.7157
  213SOL    HW2  639   1.705   0.421   2.892 -0.2057 -0.6648 -2.7412
  214SOL     OW  640   1.100   1.566   1.917 -0.2809 -0.7129 -0.1501
  214SOL    HW1  641   1.035   1.604   1.847  0.5906  0.7758  0.3568
  214SOL    HW2  642   1.123   1.642   1.985  0.9833  0.8576  2.1624
  215SOL     OW  643   0.763   1.754   0.389 -0.0835 -0.0443 -0.4410
  215SOL    HW1  644   0.799   1.779   0.297 -2.4474 -0.1076 -0.4706
  215SOL    HW2  645   0.664   1.736   0.383 -0.8316 -0.3362 -0.7422
  216SOL     OW  646   0.197   2.922   2.602  0.0894  0.1191  0.0937
  216SOL    HW1  647   0.277   2.868   2.579 -2.9743  0.3397  0.4226
  216SOL    HW2  648   0.130   2.868   2.651  4.0745  0.1933 -1.3210
  217SOL     OW  649   2.620   0.753   1.013  0.4473 -0.6056  0.4253
  217SOL    HW1  650   2.572   0.674   0.966  2.5254 -0.7691 -1.7817
  217SOL    HW2  651   2.661   0.731   1.104 -3.6648 -1.5119 -1.7335
  218SOL     OW  652   1.741   1.721   2.228 -0.5108  0.6566 -0.3940
  218SOL    HW1  653   1.687   1.705   2.149  6.3063  2.7015  3.0032
  218SOL    HW2  654   1.695   1.771   2.299  1.7705  0.2777 -1.2630
  219SOL     OW  655   2.128   1.583   0.124  0.6982 -0.7332 -0.1957
  219SOL    HW1  656   2.099   1.600   0.027 -0.5462 -0.5352 -0.2799
  219SOL    HW2  657   2.093   1.650   0.195  0.3599  1.8137 -0.2081
  220SOL     OW  658   1.394   1.108   0.459  0.1489  0.5113  0.2135
  220SOL    HW1  659   1.398   1.010   0.430  2.3322  3.1334 -0.1632
  220SOL    HW2  660   1.487   1.149   0.448  1.9256 -1.3694  0.6165
  221SOL     OW  661   0.615   0.652   2.925 -0.4200 -0.1820 -0.3360
  221SOL    HW1  662   0.564   0.641   3.013  1.3320  1.0268  1.1326
  221SOL    HW2  663   0.582   0.585   2.850 -1.2227 -1.6941  1.4217
  222SOL     OW  664   1.543   1.437   3.084  0.4575 -0.2521 -0.5565
  222SOL    HW1  665   1.540   1.496   0.043  0.0796  0.2740 -1.6319
  222SOL    HW2  666   1.448   1.431   3.042 -1.8992  0.2697 -0.3812
  223SOL     OW  667   1.191   0.329   0.192  0.3265  0.5097 -0.3004
  223SOL    HW1  668   1.092   0.353   0.186  1.1042 -0.4982 -1.3436
  223SOL    HW2  669   1.228   0.360   0.276 -1.4119  1.3024 -1.5438
  224SOL     OW  670   1.986   3.113   1.458  0.0545 -0.4003 -0.0338
  224SOL    HW1  671   1.991   0.044   1.554 -1.8346  2.8781  3.8814
  224SOL    HW2  672   2.032   3.022   1.473 -1.1679  0.4869  2.1821
  225SOL     OW  673   0.414   2.445   1.356 -0.1210 -0.2049  0.4230
  225SOL    HW1  674   0.437   2.411   1.447  0.0711  2.5295  0.2156
  225SOL    HW2  675   0.484   2.515   1.319 -1.1836 -0.0443 -1.8204
  226SOL     OW  676   1.196   1.485   2.956 -0.3039  0.3444  0.2614
  226SOL    HW1  677   1.234   1.561   2.905  0.9680 -2.0631  1.8538
  226SOL    HW2  678   1.187   1.506   3.057  2.1889  1.5272 -0.4214
  227SOL     OW  679   1.102   1.455   0.831  0.2507 -0.0235 -0.0690
  227SOL    HW1  680   1.106   1.556   0.841 -0.3014 -0.1665 -0.1936
  227SOL    HW2  681   1.182   1.409   0.877  0.7048  4.0656 -2.2171
  228SOL     OW  682   0.262   1.834   0.469  0.0297  0.4174  0.6864
  228SOL    HW1  683   0.279   1.822   0.570 -0.8401  2.3932 -1.4133
  228SOL    HW2  684   0.226   1.929   0.458  0.5323 -0.4992  1.0651
  229SOL     OW  685   1.531   0.216   3.015  0.0530  0.1872 -0.2950
  229SOL    HW1  686   1.550   0.219   2.917 -1.8170  1.4583 -1.6851
  229SOL    HW2  687   1.437   0.252   3.040 -1.3283 -0.0645 -0.5047
  230SOL     OW  688   1.478   0.842   2.613  0.2626  0.2560 -0.0050
  230SOL    HW1  689   1.567   0.860   2.666 -0.2665 -1.4869 -0.7972
  230SOL    HW2  690   1.422   0.927   2.589  0.3139  0.0266  3.0221
  231SOL     OW  691   1.173   1.744   2.477 -0.1172 -0.2361  0.3867
  231SOL    HW1  692   1.245   1.736   2.548  1.4716  3.3062 -1.2724
  231SOL    HW2  693   1.105   1.673   2.486  2.2972  2.2970  1.5926
  232SOL     OW  694   2.420   2.311   0.225  0.2067 -0.3938 -0.1035
  232SOL    HW1  695   2.321   2.298   0.247  0.9140  2.0356 -3.2025
  232SOL    HW2  696   2.464   2.227   0.255 -1.0005  0.4233 -1.7204
  233SOL     OW  697   2.486   2.589   0.265 -1.2377 -0.0404 -0.6771
  233SOL    HW1  698   2.410   2.646   0.225 -1.5863 -0.8005  3.6345
  233SOL    HW2  699   2.450   2.491   0.261  0.5757  0.1941  2.2134
  234SOL     OW  700   0.752   0.862   2.806  0.0652 -0.0557  0.8126
  234SOL    HW1  701   0.698   0.783   2.848 -0.8204 -0.8593  0.4530
  234SOL    HW2  702   0.828   0.883   2.866 -1.6168  0.6432 -0.3289
  235SOL     OW  703   2.840   0.372   2.768  0.1829 -0.1070  0.4207
  235SOL    HW1  704   2.848   0.288   2.824 -0.2020 -0.2420  0.9997
  235SOL    HW2  705   2.750   0.384   2.722  2.5007  0.8813 -2.8446
  236SOL     OW  706   2.065   2.533   1.841 -0.0301 -0.0787  0.2619
  236SOL    HW1  707   2.153   2.500   1.879  0.6137  1.3820 -0.4444
  236SOL    HW2  708   1.988   2.466   1.853  1.4434  1.9542  0.7388
  237SOL     OW  709   0.673   1.638   2.104  0.6028 -0.4725 -0.2213
  237SOL    HW1  710   0.735   1.718   2.113  0.2946 -2.7377 -0.4507
  237SOL    HW2  711   0.657   1.590   2.194  1.5700  1.4199 -2.2553
  238SOL     OW  712   1.605   0.430   2.743 -0.1212 -0.0782  0.2657
  238SOL    HW1  713   1.532   0.495   2.719  1.3529 -0.4845 -1.8443
  238SOL    HW2  714   1.574   0.335   2.732 -0.4325  2.2729 -1.2280
  239SOL     OW  715   0.366   2.116   1.702 -0.4027 -0.3393  0.2886
  239SOL    HW1  716   0.277   2.124   1.750  1.6629  0.5104 -0.2944
  239SOL    HW2  717   0.398   2.022   1.695  0.0411 -0.6212  2.3868
  240SOL     OW  718   2.634   2.245   0.585 -0.1788  0.3443 -0.2915
  240SOL    HW1  719   2.649   2.345   0.573 -3.5777 -0.6184 -0.9626
  240SOL    HW2  720   2.592   2.198   0.499 -0.3723 -2.7899 -0.0134
  241SOL     OW  721   2.751   0.969   0.831  0.4995 -0.5493 -0.2895
  241SOL    HW1  722   2.717   0.881   0.868  3.2409 -0.5439 -1.9137
  241SOL    HW2  723   2.670   1.030   0.810 -1.8121  1.9875 -1.9934
  242SOL     OW  724   2.271   2.673   2.234 -0.6816  0.2816 -0.2145
  242SOL    HW1  725   2.223   2.583   2.215 -1.0687  1.4391  0.2699
  242SOL    HW2  726   2.371   2.668   2.208 -2.0687  1.1433  1.0090
  243SOL     OW  727   0.790   2.253   1.622 -0.4293 -0.2758  0.0301
  243SOL    HW1  728   0.833   2.348   1.613  2.8535  1.6720 -0.6242
  243SOL    HW2  729   0.807   2.202   1.534 -0.5197 -1.2491  2.0885
  244SOL     OW  730   1.548   0.160   2.742 -0.3184  0.0144  0.3769
  244SOL    HW1  731   1.647   0.148   2.715  0.8361  1.4227 -0.8445
  244SOL    HW2  732   1.480   0.117   2.677  1.7225 -0.9926  0.5522
  245SOL     OW  733   1.371   0.187   1.243  0.0282  0.0498  0.2678
  245SOL    HW1  734   1.292   0.215   1.188  2.7955  0.1947  2.0379
  245SOL    HW2  735   1.354   0.098   1.285  0.6484 -0.9833 -0.1687
  246SOL     OW  736   1.775   2.690   0.204  0.6402  0.2527 -0.1111
  246SOL    HW1  737   1.802   2.591   0.191  1.0082  1.3290  0.8369
  246SOL    HW2  738   1.694   2.715   0.150  0.3280  0.1836  0.1811
  247SOL     OW  739   1.172   0.549   2.515 -0.1637  0.1996 -0.0103
  247SOL    HW1  740   1.099   0.616   2.536  0.2560 -2.1380 -0.0633
  247SOL    HW2  741   1.130   0.456   2.523  1.4962  1.5072 -0.1456
  248SOL     OW  742   0.686   1.824   1.834 -0.1127 -0.7778  0.0500
  248SOL    HW1  743   0.688   1.927   1.820  2.6039  0.3116  1.1918
  248SOL    HW2  744   0.593   1.796   1.865 -1.0381  1.0224 -0.7301
  249SOL     OW  745   2.281   0.305   0.578 -0.5262 -1.0605 -0.0793
  249SOL    HW1  746   2.268   0.309   0.476  0.4272  0.9080  0.2059
  249SOL    HW2  747   2.185   0.308   0.617 -0.9808  0.0286  0.3677
  250SOL     OW  748   0.278   0.712   0.343  0.1658 -0.3363  0.4315
  250SOL    HW1  749   0.367   0.669   0.341  1.7560  2.5449  0.4493
  250SOL    HW2  750   0.204   0.642   0.348 -0.1960  1.2675 -0.8373
  251SOL     OW  751   1.267   0.582   2.942  0.0994 -0.2438 -0.4766
  251SOL    HW1  752   1.312   0.664   2.985  1.2195  1.7582  0.2777
  251SOL    HW2  753   1.284   0.570   2.843 -2.2904 -1.2763 -0.3884
  252SOL     OW  754   1.609   1.887   1.943 -0.2138  0.3896  0.0252
  252SOL    HW1  755   1.706   1.864   1.921  2.9049 -0.2575 -0.3892
  252SOL    HW2  756   1.556   1.804   1.927  1.7078 -0.8484  1.2706
  253SOL     OW  757   2.454   2.359   1.431 -0.0069 -0.3265 -0.2233
  253SOL    HW1  758   2.525   2.360   1.504  1.0047  1.4034 -0.0398
  253SOL    HW2  759   2.505   2.348   1.344 -0.0971 -0.1820 -0.2388
  254SOL     OW  760   2.825   1.134   1.259  0.5488 -0.4737 -0.0634
  254SOL    HW1  761   2.880   1.190   1.324 -1.5583 -0.8350  0.8103
  254SOL    HW2  762   2.841   1.145   1.157 -2.3818 -1.1819 -0.8924
  255SOL     OW  763   1.220   0.371   1.026  0.0532 -0.2110 -0.1509
  255SOL    HW1  764   1.167   0.302   1.077  0.3964  0.3092 -1.5893
  255SOL    HW2  765   1.193   0.467   1.048  1.0315  2.6402 -0.0666
  256SOL     OW  766   1.680   2.341   1.438 -0.8471  0.0698  0.2964
  256SOL    HW1  767   1.650   2.368   1.537 -1.4124  0.0214  1.9425
  256SOL    HW2  768   1.676   2.246   1.403 -0.4980 -1.5772  1.9217
  257SOL     OW  769   0.543   3.030   2.733  0.0168 -0.2958 -0.3597
  257SOL    HW1  770   0.582   2.947   2.784  0.0003 -1.9494  1.4396
  257SOL    HW2  771   0.532   3.004   2.637  1.7400 -0.2039  1.3334
  258SOL     OW  772   0.885   2.135   0.464  0.6648  0.0788  0.4622
  258SOL    HW1  773   0.795   2.185   0.455 -2.4563  2.0152 -1.4377
  258SOL    HW2  774   0.882   2.058   0.532 -0.5527 -1.0154  0.3005
  259SOL     OW  775   1.164   3.081   2.789  0.5499 -0.2290 -0.5451
  259SOL    HW1  776   1.075   3.041   2.773 -1.9609 -0.0079  2.2861
  259SOL    HW2  777   1.236   3.038   2.733 -1.4328  1.6960 -0.4881
  260SOL     OW  778   2.183   0.787   1.066 -0.2353 -0.4105 -0.5334
  260SOL    HW1  779   2.111   0.847   1.102  0.7117 -3.0164  0.0156
  260SOL    HW2  780   2.156   0.691   1.081 -0.7771  0.5820  1.9583
  261SOL     OW  781   0.623   0.506   2.484  0.2734 -0.4091  0.2139
  261SOL    HW1  782   0.550   0.480   2.413 -1.3505 -0.6015 -1.1206
  261SOL    HW2  783   0.634   0.611   2.496  0.0272  3.4311 -2.8578
  262SOL     OW  784   0.203   2.216   1.904  0.3405  0.0621 -0.6296
  262SOL    HW1  785   0.166   2.193   1.997 -1.6913 -0.7919 -1.9841
  262SOL    HW2  786   0.191   2.313   1.890 -0.5277 -2.3010 -1.0462
  263SOL     OW  787   2.950   1.639   2.399  0.0046  0.1056 -0.7984
  263SOL    HW1  788   3.009   1.610   2.474 -0.3401 -1.0937 -1.6880
  263SOL    HW2  789   2.931   1.739   2.402 -1.2963 -0.0653  1.0156
  264SOL     OW  790   1.113   1.134   0.878  0.5542  0.0138  0.2056
  264SOL    HW1  791   1.021   1.092   0.862 -2.0180 -0.1571  2.7881
  264SOL    HW2  792   1.149   1.172   0.789  1.6710  1.4685 -0.2266
  265SOL     OW  793   1.408   2.650   0.878 -0.1011 -0.3332  0.6565
  265SOL    HW1  794   1.457   2.566   0.903  0.2031  0.9377 -0.5809
  265SOL    HW2  795   1.469   2.730   0.896 -0.0909  0.2943  0.1596
  266SOL     OW  796   1.646   1.021   1.313  0.0866 -0.3739 -0.1556
  266SOL    HW1  797   1.740   1.012   1.355 -0.3472  0.5765  0.0351
  266SOL    HW2  798   1.656   1.070   1.223  1.7405  0.6294  2.2143
  267SOL     OW  799   2.446   1.008   2.953  0.1591  0.7126 -0.0271
  267SOL    HW1  800   2.382   1.027   2.876 -0.6425  1.6311 -0.7786
  267SOL    HW2  801   2.408   0.930   3.006 -0.2045  0.1223 -1.1173
  268SOL     OW  802   1.332   0.441   0.395 -0.0282 -0.6436  0.4156
  268SOL    HW1  803   1.343   0.357   0.448 -0.1548  2.6155  0.0089
  268SOL    HW2  804   1.411   0.508   0.422  3.3731  2.2670 -0.5514
  269SOL     OW  805   3.022   0.807   2.708  0.0006 -0.0422 -0.1708
  269SOL    HW1  806   3.004   0.743   2.631 -0.0234 -0.6655  3.4817
  269SOL    HW2  807   2.935   0.859   2.728 -0.7813 -0.1529 -0.9011
  270SOL     OW  808   0.287   1.514   2.806  0.0694  0.2171  0.3568
  270SOL    HW1  809   0.359   1.458   2.843 -1.5159  3.4553 -2.2957
  270SOL    HW2  810   0.192   1.475   2.822 -4.1096 -0.0636  1.7473
  271SOL     OW  811   2.657   0.946   0.143  0.1674  0.0406  0.6179
  271SOL    HW1  812   2.574   0.900   0.106 -1.2361  1.4425  0.2102
  271SOL    HW2  813   2.654   0.965   0.241 -1.1895 -0.2686  1.6115
  272SOL     OW  814   2.906   2.603   2.507  0.0889 -0.3778  0.2686
  272SOL    HW1  815   2.947   2.691   2.531  2.1860 -2.2949 -3.1027
  272SOL    HW2  816   2.941   2.533   2.570  0.0464  2.8667 -0.8269
  273SOL     OW  817   0.009   0.014   0.092 -0.2699 -0.7492  0.0423
  273SOL    HW1  818   3.115   0.115   0.106 -0.8162  0.5774 -1.7487
  273SOL    HW2  819   3.112   3.085   0.175 -1.2797  1.8840 -0.4410
  274SOL     OW  820   0.776   2.274   0.913 -0.0366  0.6747  0.5125
  274SOL    HW1  821   0.678   2.266   0.930  0.0295 -0.4221 -1.3359
  274SOL    HW2  822   0.797   2.361   0.863  1.5842 -2.6730  0.7936
  275SOL     OW  823   2.230   0.731   0.559 -0.8709  0.0206  0.2100
  275SOL    HW1  824   2.234   0.669   0.478 -1.3451  1.6429  0.5337
  275SOL    HW2  825   2.320   0.733   0.608  3.3520  1.7568  1.5342
  276SOL     OW  826   2.672   1.528   1.332 -0.5381 -0.3277 -0.3211
  276SOL    HW1  827   2.577   1.489   1.327  1.2113  2.9793 -2.1530
  276SOL    HW2  828   2.691   1.598   1.406  0.2875 -1.3117 -0.6905
  277SOL     OW  829   2.271   3.070   1.057  0.4850  0.6172  0.0026
  277SOL    HW1  830   2.275   2.967   1.048  1.4143 -0.5177  1.9151
  277SOL    HW2  831   2.248   3.110   1.146 -0.8534 -1.2784 -2.8180
  278SOL     OW  832   1.367   2.728   2.332  0.2204  0.6882 -0.5049
  278SOL    HW1  833   1.349   2.630   2.329 -2.7484  1.6300  2.5980
  278SOL    HW2  834   1.276   2.768   2.359 -0.8237 -1.2541  0.3633
  279SOL     OW  835   1.513   2.100   1.061  0.2371 -0.1182 -0.1022
  279SOL    HW1  836   1.464   2.088   1.151  1.6622 -1.4767  0.5288
  279SOL    HW2  837   1.571   2.183   1.058  1.6215 -1.3439  0.7188
  280SOL     OW  838   0.415   1.215   1.130 -0.4054 -0.6813 -0.5962
  280SOL    HW1  839   0.322   1.177   1.153 -1.5949 -1.5717  1.2742
  280SOL    HW2  840   0.491   1.159   1.174  3.4647  0.6979  3.1525
  281SOL     OW  841   2.675   1.335   2.605 -0.4933 -0.1799  0.1294
  281SOL    HW1  842   2.600   1.368   2.665 -1.1177 -0.5499 -0.6642
  281SOL    HW2  843   2.766   1.362   2.646  0.0186 -0.6642  1.1105
  282SOL     OW  844   0.497   1.714   0.353  0.5174 -0.4868 -0.3662
  282SOL    HW1  845   0.413   1.761   0.393 -3.0709  0.1367 -0.8299
  282SOL    HW2  846   0.489   1.610   0.345 -0.8599 -2.0932  1.7964
  283SOL     OW  847   1.892   2.418   0.113  0.5771 -0.4302  0.2041
  283SOL    HW1  848   1.980   2.461   0.093 -3.6011 -0.6783  0.1425
  283SOL    HW2  849   1.834   2.408   0.026 -2.4791 -0.7658 -1.6357
  284SOL     OW  850   0.995   0.064   0.943 -0.0665  0.2231  0.5875
  284SOL    HW1  851   1.038   3.089   0.935  2.1926  0.9499  1.8848
  284SOL    HW2  852   1.023   0.121   0.863 -0.1645 -0.2158 -0.4766
  285SOL     OW  853   2.235   1.064   2.789  0.2013  0.1536 -0.1224
  285SOL    HW1  854   2.244   1.141   2.723 -1.1803 -4.7922  1.0489
  285SOL    HW2  855   2.161   1.080   2.864 -1.8091 -1.8877  3.4901
  286SOL     OW  856   2.027   2.584   0.952  0.6770 -0.8822 -0.3011
  286SOL    HW1  857   2.094   2.508   0.942  0.4679  0.9851  1.3950
  286SOL    HW2  858   2.052   2.674   0.911  0.9768 -3.7178 -1.1477
  287SOL     OW  859   1.460   0.311   0.899  0.2035  0.5259 -0.2059
  287SOL    HW1  860   1.528   0.284   0.968  3.2384 -0.9095 -0.8193
  287SOL    HW2  861   1.371   0.340   0.941 -0.3766  1.0668  1.6357
  288SOL     OW  862   0.682   2.438   2.805  0.3983  0.0070 -0.3127
  288SOL    HW1  863   0.769   2.500   2.797  4.1998  4.2516  0.2157
  288SOL    HW2  864   0.622   2.469   2.883 -0.3135 -0.0245 -0.2075
  289SOL     OW  865   0.086   1.668   0.844 -0.5076 -0.1863  0.2065
  289SOL    HW1  866   0.037   1.611   0.914  1.6762  0.3301  0.9842
  289SOL    HW2  867   0.022   1.745   0.824  0.3425  0.5728 -0.3203
  290SOL     OW  868   1.162   2.030   1.029 -0.1039 -0.5354 -0.2236
  290SOL    HW1  869   1.176   2.087   1.111 -0.3555  0.0786  0.5833
  290SOL    HW2  870   1.232   1.961   1.021 -0.0903  0.8296  2.4031
  291SOL     OW  871   1.444   3.000   0.276 -0.0964  0.7848  0.0738
  291SOL    HW1  872   1.406   2.906   0.283 -1.5892 -1.3048  1.1362
  291SOL    HW2  873   1.378   3.063   0.233  0.5222 -1.6814  1.1981
  292SOL     OW  874   0.539   0.556   2.153 -0.0234 -0.0311  0.0663
  292SOL    HW1  875   0.470   0.525   2.221  0.7425  0.7704  1.3974
  292SOL    HW2  876   0.534   0.656   2.149  0.0108 -1.5343 -1.5794
  293SOL     OW  877   2.449   1.992   1.122 -0.1924 -0.1037  0.4345
  293SOL    HW1  878   2.480   1.896   1.144  0.7569  0.4250  2.7958
  293SOL    HW2  879   2.403   2.028   1.205 -0.5075  1.1201  1.9361
  294SOL     OW  880   0.725   0.340   2.179  0.3939  0.0953  0.0906
  294SOL    HW1  881   0.667   0.424   2.175 -0.0354 -3.6735  0.9066
  294SOL    HW2  882   0.671   0.257   2.199 -0.1357  3.1621 -2.6736
  295SOL     OW  883   1.815   1.489   1.292  0.3217  0.1519 -0.3935
  295SOL    HW1  884   1.858   1.450   1.375 -0.0818  1.3582 -1.6737
  295SOL    HW2  885   1.725   1.528   1.310  2.7289  0.3857 -1.8696
  296SOL     OW  886   2.474   1.838   0.256 -0.6792  0.2796  0.2127
  296SOL    HW1  887   2.418   1.752   0.255 -4.4681 -1.1033  0.2121
  296SOL    HW2  888   2.552   1.838   0.193 -1.8018  2.0225 -1.1108
  297SOL     OW  889   2.506   0.157   0.485  0.3901 -0.4484 -0.1417
  297SOL    HW1  890   2.458   0.070   0.464  0.0300  1.4365  0.3935
  297SOL    HW2  891   2.441   0.216   0.539  1.1934  0.5558  2.2774
  298SOL     OW  892   0.859   0.178   2.989  0.3469 -0.2954  0.3006
  298SOL    HW1  893   0.817   0.154   2.901  1.8222  1.9204 -1.2805
  298SOL    HW2  894   0.860   0.277   3.003 -1.4797 -2.4953 -0.0539
  299SOL     OW  895   0.730   2.286   2.249  0.5072  0.7638  0.6266
  299SOL    HW1  896   0.779   2.228   2.319 -0.3686 -0.8672  2.7099
  299SOL    HW2  897   0.643   2.313   2.280  1.1655 -0.7082  0.6946
  300SOL     OW  898   2.947   0.072   2.452 -0.5422  0.7951  0.1340
  300SOL    HW1  899   2.999   0.157   2.438 -0.5552  1.9661  0.6267
  300SOL    HW2  900   2.973   0.027   2.541 -0.1112 -1.2137 -0.9184
  301SOL     OW  901   1.318   0.501   1.578 -0.6362  0.3446  0.2146
  301SOL    HW1  902   1.382   0.526   1.645 -0.5892 -3.8755 -1.9938
  301SOL    HW2  903   1.309   0.398   1.573 -0.9414 -0.9210 -0.2008
  302SOL     OW  904   2.738   2.349   2.875 -0.0709  0.2185  0.7761
  302SOL    HW1  905   2.721   2.335   2.973 -0.0776  2.1195 -1.6947
  302SOL    HW2  906   2.691   2.286   2.813  0.3499  2.2338 -0.1927
  303SOL     OW  907   2.248   2.523   1.449 -0.4630 -0.5761  0.1605
  303SOL    HW1  908   2.303   2.438   1.425  0.3204 -1.3830  0.6243
  303SOL    HW2  909   2.312   2.607   1.451 -0.3480  1.5856 -2.3626
  304SOL     OW  910   2.724   0.833   1.687  0.0226 -0.4121  0.0924
  304SOL    HW1  911   2.692   0.741   1.707  0.6143  1.7416 -1.0927
  304SOL    HW2  912   2.819   0.831   1.666 -2.1451 -1.1120  0.2291
  305SOL     OW  913   0.814   1.766   0.900 -0.1397  0.1076  0.3507
  305SOL    HW1  914   0.846   1.862   0.872  0.8632  0.4700  1.2355
  305SOL    HW2  915   0.735   1.776   0.968 -1.7051 -0.1448  1.5915
  306SOL     OW  916   0.355   1.592   2.187  0.3032 -0.0350 -0.9810
  306SOL    HW1  917   0.329   1.521   2.115 -0.7256 -0.7734 -1.2379
  306SOL    HW2  918   0.365   1.678   2.140 -0.0341 -2.1767 -2.0660
  307SOL     OW  919   1.198   0.248   1.512  0.3723  0.1789  0.0330
  307SOL    HW1  920   1.195   0.153   1.554  2.5581 -1.5616  1.2774
  307SOL    HW2  921   1.190   0.232   1.413 -0.1551  0.2311 -0.5429
  308SOL     OW  922   0.082   0.882   1.143  0.5166  0.0136  0.5895
  308SOL    HW1  923   3.116   0.882   1.195  0.9002  1.9311  0.6146
  308SOL    HW2  924   0.078   0.943   1.057 -2.5603  1.4529  1.4438
  309SOL     OW  925   2.605   1.219   1.378 -0.2810  0.4087  0.0571
  309SOL    HW1  926   2.608   1.317   1.395  0.2691  0.3921 -0.5166
  309SOL    HW2  927   2.691   1.189   1.330 -0.3049 -0.2625 -0.3031
  310SOL     OW  928   0.091   1.919   2.298 -0.0895  0.3115  0.0865
  310SOL    HW1  929   0.140   1.832   2.329  2.2569 -0.2572 -1.6840
  310SOL    HW2  930   0.063   1.893   2.202  1.7858 -1.7403 -0.8384
  311SOL     OW  931   2.730   2.839   2.280 -0.2618 -0.1281 -0.7636
  311SOL    HW1  932   2.827   2.815   2.258 -0.1728  1.2157  0.6650
  311SOL    HW2  933   2.735   2.904   2.358 -1.7055 -2.7384 -0.2978
  312SOL     OW  934   1.943   2.196   2.943 -0.0060  0.1019 -0.7476
  312SOL    HW1  935   1.867   2.255   2.980  2.5946 -0.9675 -1.1921
  312SOL    HW2  936   2.036   2.226   2.980 -1.3499  1.9577  2.0329
  313SOL     OW  937   2.944   2.965   0.761  0.0824  0.4199  0.1831
  313SOL    HW1  938   2.853   2.965   0.718 -0.5300  0.0669 -0.5404
  313SOL    HW2  939   3.000   3.027   0.701 -0.6568 -3.6344 -0.7276
  314SOL     OW  940   1.934   0.915   3.095 -0.0290  0.1902  0.0329
  314SOL    HW1  941   1.890   0.945   0.059  0.8536 -0.6425 -1.2160
  314SOL    HW2  942   1.973   0.992   3.044  1.4899 -1.8312  0.5306
  315SOL     OW  943   1.440   0.076   2.507 -0.0158 -0.0265 -0.4186
  315SOL    HW1  944   1.487   0.064   2.417 -0.2438 -3.7827 -1.9091
  315SOL    HW2  945   1.391   3.111   2.537  0.4444 -2.2608  0.7884
  316SOL     OW  946   3.088   1.307   0.569  0.3191  0.2023 -0.4884
  316SOL    HW1  947   0.045   1.370   0.589  1.7790 -1.9613  0.4466
  316SOL    HW2  948   3.115   1.205   0.567  1.8118 -1.0890 -0.4716
  317SOL     OW  949   0.491   2.767   3.057  0.1635  0.1642 -0.4287
  317SOL    HW1  950   0.393   2.789   3.085 -0.4462 -0.2446 -1.8096
  317SOL    HW2  951   0.549   2.816   3.121 -1.8476 -0.3446 -0.2794
  318SOL     OW  952   2.558   2.372   1.188  0.4436  0.0274 -0.5562
  318SOL    HW1  953   2.582   2.293   1.129  0.8684  0.7431  2.2410
  318SOL    HW2  954   2.485   2.430   1.151  1.9006  2.2615 -0.4582
  319SOL     OW  955   1.108   2.006   2.870 -0.3507  0.2904  0.0081
  319SOL    HW1  956   1.043   1.963   2.799  1.0580  2.1772 -0.0279
  319SOL    HW2  957   1.115   1.947   2.953 -2.0382  0.1017 -0.5463
  320SOL     OW  958   0.689   1.923   1.326  0.7382  0.0452  0.0356
  320SOL    HW1  959   0.699   1.855   1.250 -0.3951 -0.4711  0.1917
  320SOL    HW2  960   0.745   1.897   1.407  0.5378 -2.5516  0.1728
  321SOL     OW  961   1.145   2.831   2.465 -0.1791 -0.2622  0.3218
  321SOL    HW1  962   1.059   2.879   2.433 -0.5291 -0.6172  1.5549
  321SOL    HW2  963   1.120   2.741   2.503  0.2014 -1.0180 -0.8604
  322SOL     OW  964   2.553   2.049   1.902 -0.5788  0.0881  0.2758
  322SOL    HW1  965   2.513   2.030   1.994  1.9971 -1.3214 -1.2094
  322SOL    HW2  966   2.616   2.131   1.903 -1.6936 -0.1229 -0.4433
  323SOL     OW  967   2.918   0.656   0.837 -0.1246 -0.2618 -0.3122
  323SOL    HW1  968   2.929   0.757   0.830 -0.8702 -2.2116 -0.1464
  323SOL    HW2  969   3.000   0.616   0.874  1.7813 -2.2485 -1.0565
  324SOL     OW  970   2.696   3.033   2.471  0.3443 -0.2608 -0.0563
  324SOL    HW1  971   2.689   3.009   2.572  0.1039  2.1685  1.1164
  324SOL    HW2  972   2.769   3.096   2.454  1.2580  1.2890  0.8278
  325SOL     OW  973   0.948   0.669   2.584  0.0303  0.2232 -0.4003
  325SOL    HW1  974   0.925   0.586   2.643 -0.8876 -2.0314  1.0365
  325SOL    HW2  975   0.888   0.674   2.502  0.1065 -1.2736 -1.7386
  326SOL     OW  976   1.871   2.735   1.987  0.0893 -0.0876 -0.3379
  326SOL    HW1  977   1.804   2.750   1.908 -3.2766  1.0268  0.6438
  326SOL    HW2  978   1.933   2.814   1.990  0.1245 -1.7219 -1.2463
  327SOL     OW  979   2.137   0.020   2.962  0.0408 -0.1656 -0.1818
  327SOL    HW1  980   2.226   0.037   3.008  1.5393 -0.6949 -0.0996
  327SOL    HW2  981   2.103   3.048   2.980 -0.3648  1.8862 -1.4957
  328SOL     OW  982   0.190   1.438   2.013  0.4128  0.4436  0.2547
  328SOL    HW1  983   0.186   1.382   2.097  0.5812  1.8078  0.1051
  328SOL    HW2  984   0.099   1.484   1.998  2.6715 -0.8663  0.4461
  329SOL     OW  985   1.973   0.403   1.485 -0.0718 -0.3766  0.1266
  329SOL    HW1  986   1.957   0.421   1.586  0.6956 -2.5188  0.6630
  329SOL    HW2  987   2.033   0.471   1.436  1.8706  2.8824  0.4919
  330SOL     OW  988   0.322   1.171   0.887 -0.4728 -0.5840 -0.0736
  330SOL    HW1  989   0.239   1.116   0.896  1.5054 -1.4770 -1.6282
  330SOL    HW2  990   0.352   1.191   0.981 -1.3067  0.5557 -0.3028
  331SOL     OW  991   0.028   1.834   2.046  0.4662  0.0874  0.4687
  331SOL    HW1  992   3.098   1.745   2.025 -0.4933 -1.3547  0.3281
  331SOL    HW2  993   0.124   1.831   2.023 -2.7146 -0.9287  2.0321
  332SOL     OW  994   3.018   2.730   1.591  0.0964 -0.0255  0.1120
  332SOL    HW1  995   3.080   2.699   1.514  3.8448  1.4931 -0.3611
  332SOL    HW2  996   2.980   2.661   1.652  1.4842  3.5762 -1.1418
  333SOL     OW  997   2.477   0.064   0.909  0.4051  0.1135 -0.0576
  333SOL    HW1  998   2.404   0.014   0.961 -0.3869  0.3363 -1.1909
  333SOL    HW2  999   2.544   0.103   0.975 -0.1232 -1.1737  0.8179
  334SOL     OW 1000   0.350   1.742   0.718 -0.4034  0.4614 -0.6455
  334SOL    HW1 1001   0.385   1.648   0.706 -3.3585  0.9309  1.3710
  334SOL    HW2 1002   0.274   1.733   0.787 -2.0886 -1.4390  2.4794
  335SOL     OW 1003   0.103   2.601   3.019  0.0154  0.0339 -0.2959
  335SOL    HW1 1004   0.073   2.607   2.921  0.8952 -1.9066 -0.0592
  335SOL    HW2 1005   0.171   2.529   3.032 -1.5803  0.5648 -1.2780
  336SOL     OW 1006   3.115   2.878   2.310  0.8592  0.1316  0.2273
  336SOL    HW1 1007   3.115   2.958   2.244  0.2879  2.9956 -2.6981
  336SOL    HW2 1008   0.048   2.794   2.290  0.0501  1.0250 -2.7482
  337SOL     OW 1009   1.844   2.502   2.148 -0.0024 -0.1732  0.2743
  337SOL    HW1 1010   1.863   2.582   2.083  1.0281  2.8173 -1.9581
  337SOL    HW2 1011   1.752   2.462   2.128 -0.5573  0.5014  1.5754
  338SOL     OW 1012   0.664   2.913   0.076 -0.1469  0.3202  0.5242
  338SOL    HW1 1013   0.623   2.953   0.159  2.3214  1.4265 -1.3392
  338SOL    HW2 1014   0.716   2.979   0.025 -0.3023 -2.9071  0.4903
  339SOL     OW 1015   0.452   1.171   2.206 -0.0540  0.4913 -0.4456
  339SOL    HW1 1016   0.513   1.244   2.229 -1.3363  0.2717  0.3263
  339SOL    HW2 1017   0.453   1.134   2.114 -1.1615  1.2221 -2.8862
  340SOL     OW 1018   1.728   2.821   0.598 -0.5597  0.2875  0.6807
  340SOL    HW1 1019   1.751   2.760   0.677 -1.4430  3.6267  1.4226
  340SOL    HW2 1020   1.651   2.885   0.620 -0.0639  0.5938 -1.1500
  341SOL     OW 1021   2.284   1.068   0.809 -0.4226  0.0593 -0.5114
  341SOL    HW1 1022   2.222   1.036   0.739  3.0120  1.4629  3.5606
  341SOL    HW2 1023   2.282   1.012   0.895  2.1830  2.0345  1.1327
  342SOL     OW 1024   2.358   3.064   3.112 -0.3400 -0.3027  0.3364
  342SOL    HW1 1025   2.277   3.037   0.042  1.3661  1.2992 -1.1007
  342SOL    HW2 1026   2.443   3.003   0.002  0.9941  3.0217 -2.2046
  343SOL     OW 1027   1.306   2.117   1.559  0.1042  0.5911  0.4764
  343SOL    HW1 1028   1.245   2.199   1.553  0.5809  0.2886 -0.3640
  343SOL    HW2 1029   1.385   2.133   1.618 -2.6454 -0.9265  1.0544
  344SOL     OW 1030   2.679   2.886   1.111  0.1583  0.0481  0.2538
  344SOL    HW1 1031   2.673   2.821   1.186 -0.9148  3.3226 -0.7363
  344SOL    HW2 1032   2.780   2.897   1.090  2.0565 -0.1284 -0.5446
  345SOL     OW 1033   2.596   2.041   2.996 -0.1717  0.1200  0.3169
  345SOL    HW1 1034   2.653   1.970   2.959 -1.2315  0.3211  1.2174
  345SOL    HW2 1035   2.642   2.111   3.054  0.0478  2.9381 -0.3424
  346SOL     OW 1036   2.448   2.091   0.697 -0.2441 -0.0842 -0.2195
  346SOL    HW1 1037   2.502   2.178   0.673  1.2678  2.3369 -1.6220
  346SOL    HW2 1038   2.510   2.021   0.742  0.4955 -1.2196  3.7196
  347SOL     OW 1039   1.572   2.036   1.641  0.0990  0.1484  0.3867
  347SOL    HW1 1040   1.549   2.091   1.724  1.1559 -2.9927 -0.0591
  347SOL    HW2 1041   1.520   1.946   1.636 -0.1349 -1.1179 -1.8854
  348SOL     OW 1042   0.626   1.790   2.383 -0.1340  0.2715  0.2839
  348SOL    HW1 1043   0.724   1.811   2.404  0.4256  0.8033 -1.7549
  348SOL    HW2 1044   0.574   1.768   2.468  0.4693  1.4047  0.4186
  349SOL     OW 1045   2.106   1.567   0.778 -0.5933  0.3695 -0.3000
  349SOL    HW1 1046   2.096   1.475   0.733 -0.3296 -0.6721  0.6241
  349SOL    HW2 1047   2.194   1.564   0.832  0.0182  0.1653 -0.6553
  350SOL     OW 1048   2.894   2.377   0.666  0.5112 -0.3923  0.0033
  350SOL    HW1 1049   2.893   2.481   0.649 -2.5105 -0.7877  0.6276
  350SOL    HW2 1050   2.826   2.357   0.739  0.1500 -0.7690 -1.0578
  351SOL     OW 1051   0.489   3.046   1.726  0.0076  0.3788  0.0155
  351SOL    HW1 1052   0.453   2.988   1.648  0.0898 -3.5875 -1.4458
  351SOL    HW2 1053   0.579   3.084   1.697 -0.7699  1.3936  0.0626
  352SOL     OW 1054   0.818   1.546   1.202  0.7702  0.9595  0.6962
  352SOL    HW1 1055   0.726   1.507   1.181 -2.3448 -0.3363  1.4047
  352SOL    HW2 1056   0.881   1.522   1.127 -1.2467  0.9613  1.1497
  353SOL     OW 1057   1.306   1.482   2.600  0.4554  0.5834 -0.6164
  353SOL    HW1 1058   1.210   1.453   2.610 -1.2417 -1.9376 -1.4324
  353SOL    HW2 1059   1.376   1.421   2.646  2.5184  1.8973  1.7352
  354SOL     OW 1060   1.530   3.079   1.511  0.6320  0.1055  0.2551
  354SOL    HW1 1061   1.447   3.064   1.458  0.3067 -3.9640 -0.3541
  354SOL    HW2 1062   1.547   0.059   1.504 -0.6759  1.9784 -0.2320
  355SOL     OW 1063   2.147   1.292   0.724  0.4453  0.1855 -0.3277
  355SOL    HW1 1064   2.195   1.222   0.773 -1.2817  2.7617 -1.3754
  355SOL    HW2 1065   2.189   1.294   0.629 -0.5349  1.6135  2.5558
  356SOL     OW 1066   2.794   1.875   2.095  0.2712  0.3348 -0.4207
  356SOL    HW1 1067   2.737   1.892   2.014  0.8944 -1.0918 -2.0316
  356SOL    HW2 1068   2.824   1.957   2.141  0.4332 -2.8957 -0.1922
  357SOL     OW 1069   0.543   2.954   1.270  0.0930 -0.8770 -0.1543
  357SOL    HW1 1070   0.525   2.915   1.365  1.1793  1.1138  2.5522
  357SOL    HW2 1071   0.636   2.948   1.237 -2.4873  3.5175  1.2001
  358SOL     OW 1072   2.638   1.309   1.715 -0.2820  0.3934 -0.2077
  358SOL    HW1 1073   2.684   1.392   1.745  2.1681 -3.7638 -0.5299
  358SOL    HW2 1074   2.569   1.276   1.783 -0.0196 -1.9694  0.1131
  359SOL     OW 1075   2.311   2.862   2.517 -0.3422 -0.3255  0.1902
  359SOL    HW1 1076   2.264   2.771   2.535 -1.0920 -2.4749  1.2332
  359SOL    HW2 1077   2.245   2.941   2.535 -0.1312  3.8746  0.2584
  360SOL     OW 1078   0.550   0.454   0.922  0.5287 -0.0852 -0.1664
  360SOL    HW1 1079   0.507   0.425   0.836 -0.5339 -2.0944  1.2723
  360SOL    HW2 1080   0.540   0.379   0.990  1.6780  0.2433 -0.1572
  361SOL     OW 1081   1.917   2.994   1.180  0.0294 -0.3897 -0.5221
  361SOL    HW1 1082   1.995   3.053   1.214  2.4744  1.2946 -1.4822
  361SOL    HW2 1083   1.830   3.006   1.235 -3.1473 -2.1935  0.0204
  362SOL     OW 1084   1.383   1.015   0.922  0.6275  0.1528 -0.1384
  362SOL    HW1 1085   1.467   1.069   0.909 -3.0080  0.3206 -0.4640
  362SOL    HW2 1086   1.297   1.069   0.920  0.1288  0.2656 -1.0640
  363SOL     OW 1087   2.317   1.330   2.302  0.6117  0.1229  0.3655
  363SOL    HW1 1088   2.377   1.263   2.351 -1.1968  1.0037 -0.7772
  363SOL    HW2 1089   2.371   1.413   2.277 -0.3923  0.0179  0.1314
  364SOL     OW 1090   0.098   3.116   1.017  0.2100  0.5863 -0.3079
  364SOL    HW1 1091   0.140   0.001   1.104 -1.3184  0.5091 -0.5958
  364SOL    HW2 1092   0.016   0.054   1.017  1.0223 -0.7980  0.8721
  365SOL     OW 1093   0.197   3.048   3.038 -0.5352  0.4319 -0.1545
  365SOL    HW1 1094   0.191   3.086   2.943  1.0448 -0.6878  1.2164
  365SOL    HW2 1095   0.126   3.084   3.097  0.4294 -0.0512 -1.1828
  366SOL     OW 1096   2.219   2.201   3.042 -0.5178 -0.0362  0.3210
  366SOL    HW1 1097   2.260   2.113   3.063  0.2062 -0.1173 -1.5300
  366SOL    HW2 1098   2.285   2.276   3.057 -3.5428 -0.7393  1.4578
  367SOL     OW 1099   2.572   2.592   3.036  0.0745  0.4000  0.7723
  367SOL    HW1 1100   2.563   2.590   2.932  0.1301 -3.7928 -1.6289
  367SOL    HW2 1101   2.671   2.589   3.062  0.8252  1.1245  0.6520
  368SOL     OW 1102   3.078   1.499   1.046 -0.3610 -0.1385  0.3557
  368SOL    HW1 1103   2.999   1.485   1.113  3.0733  0.0944 -1.1464
  368SOL    HW2 1104   0.043   1.481   1.095 -1.7420  1.0618  0.3298
  369SOL     OW 1105   0.628   2.797   2.820  0.5778 -0.3254  0.4739
  369SOL    HW1 1106   0.571   2.769   2.901  0.7390 -0.3524  2.1989
  369SOL    HW2 1107   0.726   2.792   2.845  0.2761  0.2278 -0.1138
  370SOL     OW 1108   3.060   0.854   0.428 -0.5141 -0.2269  0.8038
  370SOL    HW1 1109   3.004   0.910   0.369  2.1478 -1.6761  0.7337
  370SOL    HW2 1110   3.018   0.764   0.438  0.1690 -0.9069  0.2666
  371SOL     OW 1111   1.872   2.187   0.677 -0.3367  0.1881  0.2469
  371SOL    HW1 1112   1.970   2.191   0.690 -0.4505 -1.3132  1.0648
  371SOL    HW2 1113   1.828   2.151   0.760  0.6815  1.4754 -1.9295
  372SOL     OW 1114   0.020   0.922   2.986 -0.3862 -0.5954 -0.2356
  372SOL    HW1 1115   0.119   0.909   2.971 -1.1997  0.3728 -1.0281
  372SOL    HW2 1116   3.108   0.867   3.066 -1.0970  0.8187 -2.5080
  373SOL     OW 1117   2.891   2.052   1.039  0.1768 -0.0756  0.0266
  373SOL    HW1 1118   2.958   2.127   1.044  1.3561  0.3207 -1.4824
  373SOL    HW2 1119   2.898   1.983   1.114  1.4481  1.3063 -0.9140
  374SOL     OW 1120   0.383   2.784   0.256  0.3362  0.5599 -0.0567
  374SOL    HW1 1121   0.346   2.765   0.164  1.3177  1.7253 -1.2018
  374SOL    HW2 1122   0.447   2.861   0.256  1.7059 -0.0038  1.7346
  375SOL     OW 1123   0.166   0.153   0.383  0.3574 -0.1607  0.1096
  375SOL    HW1 1124   0.218   0.238   0.370 -0.1719  1.4188  0.2834
  375SOL    HW2 1125   0.064   0.165   0.388  1.3257 -1.2593 -3.4880
  376SOL     OW 1126   0.156   2.507   1.589 -0.3925  0.0790  0.1950
  376SOL    HW1 1127   0.062   2.509   1.620  1.5861  0.6922 -0.4358
  376SOL    HW2 1128   0.177   2.427   1.530 -0.5000 -1.3287 -0.6079
  377SOL     OW 1129   1.772   2.516   2.770  0.5127  0.1216  0.9989
  377SOL    HW1 1130   1.766   2.610   2.794 -2.2272 -4.4552 -1.3384
  377SOL    HW2 1131   1.811   2.504   2.676 -1.5467  0.3755 -1.1747
  378SOL     OW 1132   0.610   0.244   0.261  0.4622  0.2938  0.4572
  378SOL    HW1 1133   0.640   0.341   0.273  0.5730  0.0126 -0.2030
  378SOL    HW2 1134   0.690   0.181   0.260  0.1390  1.5154 -1.6420
  379SOL     OW 1135   0.491   1.446   0.613  0.1949 -0.5031 -0.5852
  379SOL    HW1 1136   0.447   1.448   0.523  2.2055 -1.3368 -1.4485
  379SOL    HW2 1137   0.557   1.527   0.622  0.3783  2.4772 -0.5002
  380SOL     OW 1138   0.408   1.812   1.584 -0.3421 -0.2963 -0.0584
  380SOL    HW1 1139   0.481   1.742   1.596 -0.1659 -0.1499 -0.9502
  380SOL    HW2 1140   0.414   1.844   1.488  1.2043  1.8523 -1.2240
  381SOL     OW 1141   0.718   1.085   2.032  0.3762 -0.4278 -0.4255
  381SOL    HW1 1142   0.664   1.106   1.949 -0.0707 -0.5113 -0.9409
  381SOL    HW2 1143   0.742   1.175   2.078 -1.8390  2.3782 -3.7343
  382SOL     OW 1144   2.258   1.947   0.494 -0.3671 -0.3638 -0.0208
  382SOL    HW1 1145   2.273   2.036   0.538 -2.8141  0.0265 -1.0786
  382SOL    HW2 1146   2.327   1.925   0.424 -0.4585  1.8127 -0.1621
  383SOL     OW 1147   2.809   1.855   2.634 -0.1101 -0.1643 -0.2122
  383SOL    HW1 1148   2.830   1.768   2.685  2.9415  1.5376  1.5041
  383SOL    HW2 1149   2.859   1.854   2.547  3.1932  0.4866 -2.0246
  384SOL     OW 1150   0.394   2.071   2.496  0.5859 -0.2117 -0.3874
  384SOL    HW1 1151   0.293   2.098   2.503 -1.0033 -2.1072  1.2408
  384SOL    HW2 1152   0.445   2.116   2.574 -2.0054 -0.2174  2.5212
  385SOL     OW 1153   2.799   1.839   0.778 -0.1877  0.7638  0.6143
  385SOL    HW1 1154   2.779   1.845   0.875 -1.4841 -0.6159  0.9513
  385SOL    HW2 1155   2.792   1.931   0.734 -1.0801 -0.1547 -1.4808
  386SOL     OW 1156   1.703   1.147   1.078 -0.3671  0.0618 -0.0848
  386SOL    HW1 1157   1.721   1.240   1.046  1.3474  2.6773  0.6061
  386SOL    HW2 1158   1.780   1.082   1.060 -0.2699 -0.0913 -2.1577
  387SOL     OW 1159   0.101   1.010   2.043 -0.2156 -0.8299 -0.2136
  387SOL    HW1 1160   0.006   0.979   2.035  0.8412 -2.5503 -0.3510
  387SOL    HW2 1161   0.108   1.103   2.007  0.6378  0.1361  3.1046
  388SOL     OW 1162   2.465   1.099   2.096 -0.1733  0.2928 -0.0950
  388SOL    HW1 1163   2.421   1.127   2.186  1.1338 -1.5647  1.0778
  388SOL    HW2 1164   2.449   0.996   2.084  0.9131 -0.8335  0.9655
  389SOL     OW 1165   2.082   1.293   2.183 -0.0970 -0.5620  0.0723
  389SOL    HW1 1166   2.159   1.309   2.246  1.6992  2.6639  0.5671
  389SOL    HW2 1167   2.008   1.362   2.197  1.9566  0.3057 -2.1665
  390SOL     OW 1168   1.924   2.716   0.423 -0.5364 -0.1318 -0.1497
  390SOL    HW1 1169   1.865   2.762   0.492 -0.9300  2.0866  1.9218
  390SOL    HW2 1170   1.873   2.684   0.344 -2.7588 -1.1162  1.6976
  391SOL     OW 1171   2.237   1.907   0.919 -0.0849 -0.4671 -0.0010
  391SOL    HW1 1172   2.168   1.935   0.984 -0.5074  0.1159 -2.2855
  391SOL    HW2 1173   2.324   1.954   0.946  0.3907 -0.0828  2.7582
  392SOL     OW 1174   3.103   2.611   1.336  0.3913  0.1489  0.2265
  392SOL    HW1 1175   3.021   2.554   1.353 -0.2812  2.0713 -0.6547
  392SOL    HW2 1176   0.045   2.551   1.290 -2.4411  2.2483 -0.2583
  393SOL     OW 1177   1.958   1.908   2.944  0.5745  0.3945 -0.1227
  393SOL    HW1 1178   1.956   2.006   2.968  0.6802 -0.8274 -1.3747
  393SOL    HW2 1179   1.872   1.889   2.894  0.2652 -0.0778 -0.2141
  394SOL     OW 1180   0.307   0.581   2.653  0.0923  0.2403  0.5012
  394SOL    HW1 1181   0.338   0.541   2.743 -1.3973  2.0884  0.4991
  394SOL    HW2 1182   0.235   0.655   2.678 -2.2611  1.6711 -0.6948
  395SOL     OW 1183   0.694   0.639   0.792  0.0709  0.3504  0.7748
  395SOL    HW1 1184   0.629   0.582   0.846 -2.9556 -0.6545  0.0246
  395SOL    HW2 1185   0.726   0.706   0.860  0.0918 -2.9474  1.3856
  396SOL     OW 1186   1.022   1.185   0.147 -0.0471 -0.1220 -0.4452
  396SOL    HW1 1187   1.012   1.281   0.178  0.3614  1.6775 -1.4658
  396SOL    HW2 1188   1.090   1.141   0.210  1.1796  1.3675 -0.4951
  397SOL     OW 1189   0.467   0.938   2.357 -0.0720 -0.8083  0.0829
  397SOL    HW1 1190   0.456   1.041   2.341  2.0166  0.9884  0.0217
  397SOL    HW2 1191   0.483   0.892   2.268  0.2920 -0.1065  0.7872
  398SOL     OW 1192   0.863   0.125   0.275 -0.4481 -0.3806 -0.4727
  398SOL    HW1 1193   0.878   0.145   0.375 -0.7631 -0.0165 -1.1043
  398SOL    HW2 1194   0.912   0.042   0.253 -0.5292  2.3297  0.9462
  399SOL     OW 1195   2.025   0.125   1.710 -0.7233 -0.3331  0.4689
  399SOL    HW1 1196   2.004   0.225   1.725 -0.0051  2.8921  0.7085
  399SOL    HW2 1197   1.958   0.061   1.752  3.6669 -0.2806  0.3510
  400SOL     OW 1198   0.481   1.692   1.926  0.4427 -0.5602 -0.4060
  400SOL    HW1 1199   0.547   1.655   1.999  1.8980  0.2173  1.0036
  400SOL    HW2 1200   0.437   1.614   1.875  3.4292  0.6709 -0.8257
  401SOL     OW 1201   0.719   1.080   2.665  0.0129 -0.8355 -0.1116
  401SOL    HW1 1202   0.712   0.995   2.723 -2.0276 -0.1786 -0.0189
  401SOL    HW2 1203   0.633   1.137   2.672  1.3389 -0.0951 -2.1334
  402SOL     OW 1204   2.911   2.272   1.452  0.2915 -0.4295 -0.1084
  402SOL    HW1 1205   2.841   2.199   1.472 -0.7492  1.3170 -0.8710
  402SOL    HW2 1206   3.006   2.236   1.442 -0.2266 -1.9403  2.3438
  403SOL     OW 1207   0.415   1.099   1.940  0.0554  0.1731  0.2807
  403SOL    HW1 1208   0.434   1.010   1.892  2.4185  2.6941 -3.7132
  403SOL    HW2 1209   0.355   1.156   1.886  2.7841 -1.5528  1.9862
  404SOL     OW 1210   3.092   2.882   1.813 -0.4082 -0.5101  0.0516
  404SOL    HW1 1211   0.073   2.876   1.811  0.5206  2.2583  0.1491
  404SOL    HW2 1212   3.046   2.826   1.741 -1.1670 -0.8064 -0.1651
  405SOL     OW 1213   0.565   0.380   1.923 -0.3126  0.2724 -0.1505
  405SOL    HW1 1214   0.664   0.348   1.924 -1.2563  2.0783  0.4172
  405SOL    HW2 1215   0.565   0.460   1.985  0.2009  0.3484  0.3490
  406SOL     OW 1216   1.703   2.245   2.508 -0.2047  0.0476 -0.0507
  406SOL    HW1 1217   1.716   2.336   2.458 -3.1430  1.1378 -3.0051
  406SOL    HW2 1218   1.780   2.211   2.565  0.5241 -0.7647  0.2722
  407SOL     OW 1219   1.369   1.461   2.314  0.0540 -0.3338 -0.4489
  407SOL    HW1 1220   1.311   1.380   2.290  0.6963 -2.7275  0.7619
  407SOL    HW2 1221   1.332   1.511   2.393  0.2718 -2.6902 -1.4551
  408SOL     OW 1222   0.828   0.307   2.572 -1.1074 -0.0050 -0.1767
  408SOL    HW1 1223   0.769   0.369   2.519  1.3547 -0.3646  0.9517
  408SOL    HW2 1224   0.891   0.360   2.636 -2.2986  0.8098 -0.4287
  409SOL     OW 1225   0.237   1.808   3.101 -0.1721  0.3986 -0.4191
  409SOL    HW1 1226   0.303   1.734   0.007  0.8903 -1.7763 -0.0422
  409SOL    HW2 1227   0.206   1.862   0.055  1.2777 -0.8283 -0.7670
  410SOL     OW 1228   2.806   1.514   0.225  0.5454  0.1919  0.9330
  410SOL    HW1 1229   2.791   1.608   0.200 -0.7064 -3.8792 -0.2745
  410SOL    HW2 1230   2.866   1.509   0.313  1.0575 -2.1300  2.8943
  411SOL     OW 1231   2.787   0.474   0.998  0.3225  0.0917  0.0619
  411SOL    HW1 1232   2.839   0.547   0.949  0.6098 -0.2035  1.8116
  411SOL    HW2 1233   2.689   0.487   0.971  0.4909  1.7332 -0.4826
  412SOL     OW 1234   1.286   0.980   1.191  0.1651 -0.6762  0.3402
  412SOL    HW1 1235   1.329   0.963   1.097  1.5088 -0.9662 -0.2047
  412SOL    HW2 1236   1.338   0.923   1.257  0.7505 -1.1673  1.3286
  413SOL     OW 1237   0.635   2.582   1.279 -0.3521 -0.0822 -0.2740
  413SOL    HW1 1238   0.733   2.554   1.299  2.4976 -2.1088  0.3700
  413SOL    HW2 1239   0.614   2.590   1.176  1.6176 -0.3861 -2.6432
  414SOL     OW 1240   2.910   1.427   2.692 -0.0402 -0.1043 -0.0508
  414SOL    HW1 1241   3.001   1.462   2.654 -0.8488  0.4280 -0.5968
  414SOL    HW2 1242   2.880   1.493   2.770 -1.7508 -0.3718  2.2225
  415SOL     OW 1243   0.298   2.173   2.863 -0.0819 -0.0957 -0.4701
  415SOL    HW1 1244   0.364   2.107   2.889 -1.0242  1.5748  1.2758
  415SOL    HW2 1245   0.211   2.130   2.840  2.9097 -3.4915  1.2079
  416SOL     OW 1246   1.475   0.060   0.505  0.5162  0.1191 -0.1272
  416SOL    HW1 1247   1.572   0.090   0.506 -0.1957 -0.7859  1.2574
  416SOL    HW2 1248   1.447   0.016   0.415  0.0147 -0.8319 -2.0189
  417SOL     OW 1249   0.396   0.794   0.808  0.3536 -0.0474  0.3164
  417SOL    HW1 1250   0.462   0.839   0.871 -1.5263 -1.5999  1.0404
  417SOL    HW2 1251   0.335   0.861   0.758 -0.2933 -0.4271 -1.1955
  418SOL     OW 1252   2.334   1.202   1.830  0.6589 -0.1208 -0.0352
  418SOL    HW1 1253   2.333   1.144   1.746 -0.8123  1.3426  0.6471
  418SOL    HW2 1254   2.382   1.162   1.910  0.1838 -3.4964  1.1802
  419SOL     OW 1255   3.118   0.192   0.749  0.6397  0.5349  0.7774
  419SOL    HW1 1256   0.059   0.114   0.750  1.8381 -2.4747 -0.0308
  419SOL    HW2 1257   0.003   0.235   0.842 -0.2054 -3.2454  2.3402
  420SOL     OW 1258   0.195   1.444   1.124  0.0190  0.4976 -0.1212
  420SOL    HW1 1259   0.194   1.353   1.174  1.4020 -3.4559  0.6909
  420SOL    HW2 1260   0.261   1.429   1.049  1.8144  1.3741 -0.3250
  421SOL     OW 1261   0.947   2.506   0.791  0.6794 -0.3176 -0.4784
  421SOL    HW1 1262   0.900   2.495   0.704 -2.9490 -1.2303 -0.2058
  421SOL    HW2 1263   1.032   2.449   0.783  0.2322  0.0675  0.6606
  422SOL     OW 1264   0.142   0.661   1.501  0.5185 -0.2138  0.0595
  422SOL    HW1 1265   0.061   0.600   1.479  0.4709 -1.7028  1.1646
  422SOL    HW2 1266   0.188   0.688   1.411 -0.3699 -0.1411 -1.0463
  423SOL     OW 1267   1.128   1.198   1.137  0.2475 -0.2508  0.3604
  423SOL    HW1 1268   1.195   1.127   1.168  0.0326 -0.6059  0.4915
  423SOL    HW2 1269   1.133   1.199   1.031 -0.4723  2.3321 -2.8788
  424SOL     OW 1270   2.053   1.170   2.987 -0.2734 -0.3500 -0.4643
  424SOL    HW1 1271   2.090   1.216   3.070 -0.9996  0.2290  1.3517
  424SOL    HW2 1272   2.021   1.243   2.924  0.7827 -3.0574  2.2523
  425SOL     OW 1273   0.082   0.458   1.989 -0.1273  0.0730 -0.6835
  425SOL    HW1 1274   0.131   0.531   2.043 -0.3390 -2.1568 -1.4988
  425SOL    HW2 1275   0.002   0.427   2.042  1.7880 -1.3499  2.0794
  426SOL     OW 1276   3.061   2.734   0.060 -0.4661 -0.0240 -0.1838
  426SOL    HW1 1277   3.108   2.688   3.106 -3.8021  1.3797 -0.0394
  426SOL    HW2 1278   0.008   2.764   0.123 -2.9220  0.0889 -0.2576
  427SOL     OW 1279   0.845   0.627   2.316 -0.1761 -0.1726  0.0469
  427SOL    HW1 1280   0.760   0.573   2.307 -1.4480 -0.3750  1.6342
  427SOL    HW2 1281   0.843   0.716   2.269 -2.3982  1.2647 -0.0875
  428SOL     OW 1282   2.273   0.981   1.617  0.0126 -0.5985  0.0588
  428SOL    HW1 1283   2.375   0.985   1.600 -0.1797  1.6988  1.9452
  428SOL    HW2 1284   2.234   1.070   1.589 -0.7854 -2.2601  1.0352
  429SOL     OW 1285   2.638   2.503   0.498 -0.4046 -0.3018 -0.5572
  429SOL    HW1 1286   2.695   2.585   0.468  1.5275  0.9930 -0.0844
  429SOL    HW2 1287   2.538   2.514   0.487  0.7019 -2.4193 -0.1494
  430SOL     OW 1288   1.631   1.920   2.406  0.3335 -0.1436 -0.0263
  430SOL    HW1 1289   1.555   1.862   2.370  0.7623  2.7386  2.3336
  430SOL    HW2 1290   1.606   2.017   2.412 -0.5110 -4.3240  0.8855
  431SOL     OW 1291   0.027   1.658   1.413  0.1861  0.7795  0.3541
  431SOL    HW1 1292   3.071   1.603   1.375  1.2717 -0.6823 -1.7561
  431SOL    HW2 1293   3.119   1.756   1.437  1.3269  0.8887  1.4985
  432SOL     OW 1294   1.342   2.965   2.594 -0.5437 -0.3099 -0.2263
  432SOL    HW1 1295   1.259   2.929   2.548 -0.7209 -2.1838  3.1407
  432SOL    HW2 1296   1.422   2.907   2.570 -2.5652 -3.4124 -2.1077
  433SOL     OW 1297   1.748   3.115   2.396  0.4530  0.2513 -0.2684
  433SOL    HW1 1298   1.792   3.028   2.378 -0.6846  0.8527  1.9863
  433SOL    HW2 1299   1.667   0.003   2.328 -3.1510  0.6241 -2.6760
  434SOL     OW 1300   0.321   2.827   2.179 -0.3029 -0.2015 -0.0605
  434SOL    HW1 1301   0.253   2.763   2.223 -2.7036 -3.6080 -1.7057
  434SOL    HW2 1302   0.370   2.783   2.097  2.8622  0.0516 -2.2726
  435SOL     OW 1303   3.069   2.391   0.096  0.1719 -0.0097 -0.1445
  435SOL    HW1 1304   0.002   2.405   0.012  0.5570 -2.6223  2.5114
  435SOL    HW2 1305   3.074   2.463   0.169  0.4337  1.7251  0.4536
  436SOL     OW 1306   0.534   0.841   2.125 -0.1264  0.2407 -0.1569
  436SOL    HW1 1307   0.449   0.839   2.061 -3.7618  1.7158 -1.8120
  436SOL    HW2 1308   0.606   0.901   2.094 -1.3344 -1.4530  0.9592
  437SOL     OW 1309   0.440   2.719   2.615  1.0024 -0.1559 -0.4521
  437SOL    HW1 1310   0.459   2.715   2.517 -0.2991  0.8566  1.2835
  437SOL    HW2 1311   0.518   2.729   2.680  2.4073  3.4739 -1.3361
  438SOL     OW 1312   0.591   1.603   1.557  0.1502  0.0135 -0.4679
  438SOL    HW1 1313   0.684   1.623   1.526 -1.8344  2.0744  1.1542
  438SOL    HW2 1314   0.592   1.513   1.608  0.5391 -1.1266 -0.6410
  439SOL     OW 1315   2.219   0.825   2.655 -0.1733 -0.4231  0.1370
  439SOL    HW1 1316   2.223   0.864   2.562 -1.7447 -1.7893 -0.2577
  439SOL    HW2 1317   2.238   0.901   2.716  0.7221 -2.1472 -1.7701
  440SOL     OW 1318   0.445   0.657   0.073 -0.6423  0.3049 -0.0206
  440SOL    HW1 1319   0.493   0.651   0.163  0.6272  0.9191 -0.0748
  440SOL    HW2 1320   0.385   0.572   0.058 -0.8817  3.3069  2.4759
  441SOL     OW 1321   1.171   2.315   1.256 -0.4034 -0.0285  0.7088
  441SOL    HW1 1322   1.257   2.365   1.223  0.2625  5.1082 -1.1101
  441SOL    HW2 1323   1.165   2.304   1.351  0.4760 -0.3985 -1.8376
  442SOL     OW 1324   2.861   1.584   0.717 -0.1914  0.3611 -0.0504
  442SOL    HW1 1325   2.847   1.677   0.756  0.3574 -0.7247  0.7241
  442SOL    HW2 1326   2.870   1.515   0.793  2.9215 -0.8383  1.3682
  443SOL     OW 1327   2.738   2.116   2.590  0.1860  0.3803  0.1009
  443SOL    HW1 1328   2.775   2.026   2.606 -1.0389  1.9088 -1.1662
  443SOL    HW2 1329   2.658   2.133   2.652  0.2020  2.0783 -1.6321
  444SOL     OW 1330   1.611   1.159   0.000 -0.3833 -0.3056 -0.8627
  444SOL    HW1 1331   1.672   1.170   0.082 -1.5393  0.4978  2.0858
  444SOL    HW2 1332   1.572   1.249   3.083 -0.3025  0.5961  0.3966
  445SOL     OW 1333   2.705   0.000   1.994 -0.2700 -0.1222  0.3741
  445SOL    HW1 1334   2.725   0.099   2.004  0.5515 -0.8850 -2.9577
  445SOL    HW2 1335   2.783   3.055   2.013  2.0304 -2.3610  1.7177
  446SOL     OW 1336   0.380   0.908   1.172 -0.0749  0.3695 -0.2529
  446SOL    HW1 1337   0.412   0.855   1.257  1.9710 -0.8200  3.1063
  446SOL    HW2 1338   0.280   0.887   1.167  0.1267 -1.8710  2.1882
  447SOL     OW 1339   1.086   1.724   0.818 -0.1709  0.4719  0.0138
  447SOL    HW1 1340   0.988   1.741   0.829  1.9226  1.6495 -2.7367
  447SOL    HW2 1341   1.118   1.784   0.745 -0.6384 -0.6209 -0.9632
  448SOL     OW 1342   1.407   0.861   1.678  0.4958 -0.3024  0.0218
  448SOL    HW1 1343   1.419   0.929   1.748 -0.6519  0.0838 -1.5219
  448SOL    HW2 1344   1.307   0.830   1.686 -3.4682 -3.4883  2.9824
  449SOL     OW 1345   2.978   2.318   2.274 -0.2460  0.1581  0.2327
  449SOL    HW1 1346   2.910   2.393   2.275 -0.1977 -1.1698 -0.2566
  449SOL    HW2 1347   3.057   2.347   2.221  2.3543 -0.2224  2.5322
  450SOL     OW 1348   2.896   1.947   1.726  0.3168 -0.2776 -0.0971
  450SOL    HW1 1349   2.824   2.009   1.686  1.3555 -0.9096  1.6832
  450SOL    HW2 1350   2.956   2.001   1.789 -0.5022 -2.3544 -0.3768
  451SOL     OW 1351   2.407   0.937   1.061  0.2618 -0.2316  0.0438
  451SOL    HW1 1352   2.324   0.874   1.071  1.9550 -1.9647  3.3851
  451SOL    HW2 1353   2.493   0.887   1.067 -3.2241 -0.9722 -2.9074
  452SOL     OW 1354   0.836   1.424   0.947 -0.2509  0.1765  0.4909
  452SOL    HW1 1355   0.915   1.431   0.884  0.4207 -0.2213 -1.8737
  452SOL    HW2 1356   0.756   1.485   0.920 -0.1917 -0.6136  4.2994
  453SOL     OW 1357   0.911   2.026   0.894 -0.3198 -0.3998  0.0984
  453SOL    HW1 1358   0.858   2.111   0.907 -0.1714  2.3527  0.2290
  453SOL    HW2 1359   1.007   2.053   0.906  2.0093 -0.6902  2.5898
  454SOL     OW 1360   0.589   1.615   2.978 -0.4257  0.0569  0.4580
  454SOL    HW1 1361   0.594   1.699   2.918 -1.8382  3.5569 -1.8822
  454SOL    HW2 1362   0.542   1.536   2.934  1.9648 -0.4691 -1.1031
  455SOL     OW 1363   1.641   0.884   0.590 -0.1984  0.5314  0.1194
  455SOL    HW1 1364   1.629   0.809   0.658  0.0942  0.5454  0.5336
  455SOL    HW2 1365   1.566   0.866   0.525 -1.5546  1.6693  2.7509
  456SOL     OW 1366   2.195   2.378   0.912 -0.1350 -0.0744  0.3109
  456SOL    HW1 1367   2.164   2.288   0.880  1.3489  2.7259  0.3322
  456SOL    HW2 1368   2.288   2.395   0.885 -0.2633 -0.9630  0.3871
  457SOL     OW 1369   1.566   2.826   2.891  0.2454  0.0429 -0.3110
  457SOL    HW1 1370   1.538   2.919   2.928 -1.3468 -2.4202  2.2184
  457SOL    HW2 1371   1.532   2.810   2.797 -1.1752 -0.0473  1.9584
  458SOL     OW 1372   2.221   0.577   0.311  0.1951  0.5544  0.0312
  458SOL    HW1 1373   2.219   0.477   0.294 -1.0228 -2.4658 -0.4789
  458SOL    HW2 1374   2.128   0.608   0.294 -0.4514  2.4829  0.2853
  459SOL     OW 1375   0.013   0.953   2.300  0.4939 -0.0702 -0.1209
  459SOL    HW1 1376   3.081   1.034   2.325  2.5241 -0.7026  0.1636
  459SOL    HW2 1377   0.055   0.968   2.208 -0.5531  1.6089  2.5599
  460SOL     OW 1378   0.419   0.941   0.072 -0.8803  0.0681 -0.1045
  460SOL    HW1 1379   0.492   1.006   0.099  2.0515  0.7215  0.4921
  460SOL    HW2 1380   0.451   0.844   0.069  2.9530 -0.7582 -0.4501
  461SOL     OW 1381   2.757   2.683   0.796 -0.1431  0.4489 -0.2490
  461SOL    HW1 1382   2.734   2.703   0.892  1.3065 -1.9318 -1.2374
  461SOL    HW2 1383   2.688   2.634   0.745  0.7383 -0.1216  1.4226
  462SOL     OW 1384   0.278   0.088   1.635 -0.1704 -0.1650 -0.1062
  462SOL    HW1 1385   0.267   0.154   1.559 -4.1188  0.9578  0.1199
  462SOL    HW2 1386   0.366   0.033   1.622 -0.6749 -2.2998 -1.5313
  463SOL     OW 1387   2.126   2.435   2.156 -0.0267  0.6944 -0.3021
  463SOL    HW1 1388   2.098   2.345   2.201  1.4040  0.5084 -0.4558
  463SOL    HW2 1389   2.047   2.497   2.138 -0.9208  1.9913  1.6850
  464SOL     OW 1390   0.823   0.050   1.349  0.6156  0.2747  0.4947
  464SOL    HW1 1391   0.808   0.034   1.249  0.6646  0.5473  2.0491
  464SOL    HW2 1392   0.842   0.149   1.363 -1.7345  1.0076  0.1734
  465SOL     OW 1393   0.643   0.092   1.567  0.0699  0.2291 -0.2072
  465SOL    HW1 1394   0.695   0.066   1.483 -1.9255 -0.8694  0.6275
  465SOL    HW2 1395   0.708   0.127   1.641  0.6188 -1.3842  2.6879
  466SOL     OW 1396   1.268   2.123   1.958  0.1217 -0.0296  0.0343
  466SOL    HW1 1397   1.181   2.178   1.965 -2.1232 -0.8632  0.7090
  466SOL    HW2 1398   1.247   2.047   1.890 -0.0957 -0.2770 -0.2451
  467SOL     OW 1399   0.438   1.914   1.325 -0.1335  0.5388  0.3222
  467SOL    HW1 1400   0.388   1.851   1.260 -3.2207 -0.8490 -1.5258
  467SOL    HW2 1401   0.540   1.911   1.311  0.1303 -1.6945  0.3707
  468SOL     OW 1402   2.539   1.687   2.565 -0.6366  0.0550 -0.4790
  468SOL    HW1 1403   2.609   1.765   2.562  2.0583  1.6904  2.2343
  468SOL    HW2 1404   2.517   1.658   2.468 -1.3649 -2.4056  1.0655
  469SOL     OW 1405   1.169   2.166   0.548 -0.0408  0.3079 -0.8532
  469SOL    HW1 1406   1.257   2.185   0.498 -2.3577 -0.5112  1.1795
  469SOL    HW2 1407   1.092   2.192   0.486  1.1054  0.1843 -0.6962
  470SOL     OW 1408   2.420   1.433   1.259 -0.0441 -0.2376  0.1101
  470SOL    HW1 1409   2.412   1.340   1.221  1.0807 -1.2075 -1.0555
  470SOL    HW2 1410   2.328   1.469   1.290 -0.7515 -0.8685 -1.3966
  471SOL     OW 1411   0.293   2.396   3.020 -0.1315  0.4783  0.2776
  471SOL    HW1 1412   0.277   2.309   2.967 -1.1613  1.4829  2.2047
  471SOL    HW2 1413   0.389   2.408   3.044 -2.0514  0.5340  0.8339
  472SOL     OW 1414   2.841   2.100   2.261 -0.2132  0.8846  0.4109
  472SOL    HW1 1415   2.893   2.188   2.260  0.2371 -0.2780 -0.2846
  472SOL    HW2 1416   2.751   2.108   2.303 -0.6923 -1.5401  0.0953
  473SOL     OW 1417   0.842   2.753   0.873 -0.1758  0.5540 -0.2432
  473SOL    HW1 1418   0.868   2.652   0.859 -3.1951 -0.6932 -1.8995
  473SOL    HW2 1419   0.871   2.810   0.793  0.6416  0.0904 -2.6820
  474SOL     OW 1420   2.958   0.010   1.139  0.3081  0.0960 -0.9719
  474SOL    HW1 1421   2.882   0.069   1.111 -0.2262  0.6615  1.1158
  474SOL    HW2 1422   2.961   3.117   1.243 -3.0311  0.0974 -0.2956
  475SOL     OW 1423   1.832   3.102   1.825  0.4303 -0.4391 -0.3008
  475SOL    HW1 1424   1.848   3.067   1.920  2.4254 -0.4910 -0.0641
  475SOL    HW2 1425   1.768   3.035   1.778 -1.3188  0.8049  2.0510
  476SOL     OW 1426   0.318   0.613   0.993  0.3432 -0.4244 -1.0042
  476SOL    HW1 1427   0.327   0.708   0.953 -0.0908  1.9228  0.6723
  476SOL    HW2 1428   0.392   0.550   0.959  3.0511  0.4418 -2.0905
  477SOL     OW 1429   0.914   2.287   1.152  0.2003  0.7469 -0.0073
  477SOL    HW1 1430   0.867   2.286   1.058 -1.2080  2.1558  0.5129
  477SOL    HW2 1431   1.017   2.277   1.145  2.7753 -0.0640  1.0840
  478SOL     OW 1432   0.175   2.369   2.412 -0.0840  0.3372 -0.3014
  478SOL    HW1 1433   0.182   2.433   2.486  0.3351 -1.5040 -3.3330
  478SOL    HW2 1434   0.142   2.276   2.448  1.5522  0.6774  1.0100
  479SOL     OW 1435   0.314   0.839   1.960  0.4262  0.6962  0.1109
  479SOL    HW1 1436   0.235   0.897   1.978  3.9899 -4.7782 -2.0323
  479SOL    HW2 1437   0.300   0.784   1.876  0.9039  1.3455 -0.6930
  480SOL     OW 1438   2.917   2.187   0.007  0.4117 -0.6290  0.1332
  480SOL    HW1 1439   2.823   2.231   0.019 -3.8879  0.3167 -0.9424
  480SOL    HW2 1440   2.982   2.262   0.034 -0.7245  0.7696 -0.5700
  481SOL     OW 1441   1.516   2.109   2.093 -0.0449  0.0621 -0.0872
  481SOL    HW1 1442   1.554   2.032   2.032  0.1627  0.1730 -1.0121
  481SOL    HW2 1443   1.415   2.121   2.068 -1.3967  2.5909 -0.0121
  482SOL     OW 1444   1.501   2.199   2.721  0.3991  0.2619 -0.3098
  482SOL    HW1 1445   1.442   2.122   2.690 -1.2462  0.2041 -0.4488
  482SOL    HW2 1446   1.571   2.232   2.658  0.2750  3.7890  1.6919
  483SOL     OW 1447   0.879   2.268   2.665  0.6743 -0.4006 -0.0986
  483SOL    HW1 1448   0.816   2.344   2.693  1.2891 -0.5843 -0.7700
  483SOL    HW2 1449   0.975   2.302   2.662  0.3731  1.7879  1.1412
  484SOL     OW 1450   0.029   0.214   1.231 -0.5349  0.3011  0.0833
  484SOL    HW1 1451   0.110   0.172   1.271 -3.3983 -0.1168 -0.4139
  484SOL    HW2 1452   3.089   0.139   1.196  1.2727  0.0972 -2.5650
  485SOL     OW 1453   1.949   0.673   0.574  0.0470 -0.4721 -0.4896
  485SOL    HW1 1454   1.887   0.739   0.523 -0.2007  0.6493 -3.5806
  485SOL    HW2 1455   2.045   0.698   0.562 -1.9984 -0.3899 -0.6816
  486SOL     OW 1456   1.878   2.864   2.410  0.2297 -0.0133 -0.5548
  486SOL    HW1 1457   1.951   2.871   2.340 -1.3423  0.4182  2.8524
  486SOL    HW2 1458   1.921   2.860   2.499  1.0165 -1.1950  0.2617
  487SOL     OW 1459   1.578   1.792   0.647  0.0827  0.6397  0.2293
  487SOL    HW1 1460   1.669   1.750   0.649 -0.8824  1.7244  0.6310
  487SOL    HW2 1461   1.568   1.842   0.738  1.6987  0.5453 -0.9897
  488SOL     OW 1462   2.373   1.136   0.331  0.0912  0.0494 -0.1433
  488SOL    HW1 1463   2.337   1.040   0.320  1.4189 -1.6644 -1.1807
  488SOL    HW2 1464   2.404   1.165   0.241 -0.1338  0.8833  2.7528
  489SOL     OW 1465   2.459   0.311   0.781  0.4937 -0.4642  0.2455
  489SOL    HW1 1466   2.393   0.303   0.700 -2.6543  1.2482  0.5867
  489SOL    HW2 1467   2.469   0.223   0.836  0.5849  0.4297 -0.1283
  490SOL     OW 1468   1.548   2.741   0.056  0.0468  0.4064 -0.1330
  490SOL    HW1 1469   1.460   2.747   0.100 -0.1456 -0.0225 -1.8555
  490SOL    HW2 1470   1.547   2.780   3.090 -0.5882 -1.8995  3.6478
  491SOL     OW 1471   0.972   0.812   0.730 -0.2585 -0.2266  0.1666
  491SOL    HW1 1472   0.943   0.846   0.825 -1.3242 -1.4816  0.4395
  491SOL    HW2 1473   0.918   0.848   0.649  0.9551  1.0421  0.5805
  492SOL     OW 1474   1.647   0.205   0.138 -0.3514  0.2266  0.1920
  492SOL    HW1 1475   1.662   0.103   0.152  3.6002 -2.4582 -0.4796
  492SOL    HW2 1476   1.614   0.219   0.040  0.2447  0.2212  0.9877
  493SOL     OW 1477   1.768   2.386   2.999  0.5863 -0.4283  0.4680
  493SOL    HW1 1478   1.676   2.413   3.042 -0.4733 -1.1722  2.7333
  493SOL    HW2 1479   1.780   2.421   2.901  1.5008  3.1811  0.9169
  494SOL     OW 1480   0.582   1.209   0.756  0.7862  0.0020 -0.4581
  494SOL    HW1 1481   0.545   1.282   0.696 -2.8199  1.2760  0.2989
  494SOL    HW2 1482   0.505   1.153   0.803 -2.0879 -2.8811 -0.2039
  495SOL     OW 1483   2.958   3.064   1.413 -0.3552  0.0609  0.2144
  495SOL    HW1 1484   2.912   0.026   1.445  0.2349 -1.0411  0.8389
  495SOL    HW2 1485   3.023   3.030   1.481 -0.1869  1.2561  0.5516
  496SOL     OW 1486   2.567   3.110   1.737 -0.3935  0.2554 -0.4341
  496SOL    HW1 1487   2.608   0.006   1.830  1.1802  1.0631  3.0382
  496SOL    HW2 1488   2.641   3.112   1.665 -1.2858 -1.2932  1.7551
  497SOL     OW 1489   1.716   1.731   2.608  0.4545  0.2467  0.3172
  497SOL    HW1 1490   1.673   1.639   2.601 -0.2825 -1.9794 -1.4606
  497SOL    HW2 1491   1.676   1.798   2.542  1.0957  0.3892 -2.6812
  498SOL     OW 1492   0.552   1.914   0.628  0.3300 -0.3097 -0.2892
  498SOL    HW1 1493   0.587   1.871   0.545  0.2344 -0.8030  2.0232
  498SOL    HW2 1494   0.484   1.864   0.682  2.4022  0.2792  1.0910
  499SOL     OW 1495   0.227   1.708   1.211 -0.4666 -0.0011 -0.5372
  499SOL    HW1 1496   0.229   1.621   1.162 -0.3350  2.9406  0.2926
  499SOL    HW2 1497   0.136   1.712   1.263  1.4798  0.5401 -1.2380
  500SOL     OW 1498   1.180   2.316   0.288  0.7425 -0.0718  0.1383
  500SOL    HW1 1499   1.184   2.232   0.234  0.8055 -1.3544  1.9906
  500SOL    HW2 1500   1.272   2.321   0.331 -0.4431 -1.7717 -2.9555
  501SOL     OW 1501   2.406   2.552   1.072  0.1112 -0.9071  0.8046
  501SOL    HW1 1502   2.450   2.641   1.040 -0.7373  3.3268  1.4175
  501SOL    HW2 1503   2.324   2.584   1.124  0.6906 -1.1305 -2.8093
  502SOL     OW 1504   0.144   0.961   1.558 -0.0954  0.2972 -0.0881
  502SOL    HW1 1505   0.218   1.017   1.594  0.4821 -0.2370  0.6106
  502SOL    HW2 1506   0.150   0.861   1.588 -0.4067 -2.0802 -0.5347
  503SOL     OW 1507   2.406   0.389   1.838 -0.1024  0.5101  0.3301
  503SOL    HW1 1508   2.352   0.311   1.797  0.1676  1.3957  0.4238
  503SOL    HW2 1509   2.365   0.411   1.930 -2.7796  0.2508 -1.4197
  504SOL     OW 1510   1.782   0.646   1.800 -0.5022  0.0709  0.0619
  504SOL    HW1 1511   1.734   0.622   1.885  2.3762 -1.9616 -3.5406
  504SOL    HW2 1512   1.719   0.670   1.724  0.9486 -0.7541  1.7964
  505SOL     OW 1513   1.204   0.223   2.813 -0.3142 -0.1653  0.1829
  505SOL    HW1 1514   1.196   0.123   2.807 -1.7983  1.4472  0.1861
  505SOL    HW2 1515   1.247   0.251   2.903  0.9798  1.7866 -0.6319
  506SOL     OW 1516   0.560   0.582   1.734 -0.4686 -0.8492 -0.6967
  506SOL    HW1 1517   0.650   0.587   1.684  1.0327 -0.0198 -1.9956
  506SOL    HW2 1518   0.565   0.508   1.803 -0.9117  1.1911 -1.4825
  507SOL     OW 1519   1.491   3.050   3.004 -0.0787 -0.0247 -0.3235
  507SOL    HW1 1520   1.508   0.025   2.988 -1.1695 -0.9984  1.9044
  507SOL    HW2 1521   1.395   3.032   3.035  1.0309 -0.6823  2.6330
  508SOL     OW 1522   2.593   0.349   2.654 -0.2469 -0.7123  0.1756
  508SOL    HW1 1523   2.529   0.376   2.729 -1.4094  2.8456  1.1080
  508SOL    HW2 1524   2.566   0.254   2.628 -1.3798  0.6020  1.3892
  509SOL     OW 1525   0.967   1.336   1.965 -0.3051  0.3533  0.0675
  509SOL    HW1 1526   0.909   1.346   2.049  0.6972  2.5827 -0.9691
  509SOL    HW2 1527   1.000   1.429   1.945  0.5008 -0.7677 -1.7136
  510SOL     OW 1528   0.055   1.042   0.933 -0.2629  0.4427 -0.0839
  510SOL    HW1 1529   0.030   1.138   0.923 -0.7811 -0.4931  1.4658
  510SOL    HW2 1530   0.006   0.977   0.875  2.0334  0.4163 -0.3597
  511SOL     OW 1531   1.679   1.422   1.040 -0.3073 -0.1865  0.1119
  511SOL    HW1 1532   1.723   1.435   1.130 -0.8608 -0.5927 -0.6606
  511SOL    HW2 1533   1.698   1.505   0.980  0.9572 -3.5207 -1.3589
  512SOL     OW 1534   0.918   1.433   0.207  0.0722  0.4859 -0.2054
  512SOL    HW1 1535   0.881   1.487   0.134  2.2803 -2.5604  1.6949
  512SOL    HW2 1536   0.953   1.491   0.284  0.1694  1.8425  0.6288
  513SOL     OW 1537   0.211   2.451   0.716  0.7547  0.0483 -0.0724
  513SOL    HW1 1538   0.184   2.548   0.713 -0.0245 -1.0941  2.7130
  513SOL    HW2 1539   0.309   2.447   0.686  0.6105 -0.8792  0.1216
  514SOL     OW 1540   0.218   1.779   2.818  0.7029 -0.1730 -0.3715
  514SOL    HW1 1541   0.224   1.803   2.918  0.5514 -0.4765  1.0107
  514SOL    HW2 1542   0.241   1.684   2.806 -1.9658  3.0133  2.5782
  515SOL     OW 1543   2.491   0.585   0.262  0.3261 -0.5578 -0.1682
  515SOL    HW1 1544   2.529   0.651   0.335 -1.4737 -0.6412  2.5372
  515SOL    HW2 1545   2.391   0.587   0.265 -0.6506 -1.2542 -2.3526
  516SOL     OW 1546   2.453   2.814   0.969  0.3672 -0.0521  0.3171
  516SOL    HW1 1547   2.518   2.845   1.042 -2.3453 -2.2671 -0.0578
  516SOL    HW2 1548   2.474   2.862   0.878 -0.9019  1.9149 -0.1679
  517SOL     OW 1549   1.331   1.745   2.970 -0.0327 -0.5760  0.0464
  517SOL    HW1 1550   1.417   1.742   3.025 -0.1902  0.1342 -1.1783
  517SOL    HW2 1551   1.254   1.786   3.022  3.2397 -0.7904 -2.8305
  518SOL     OW 1552   1.176   0.731   1.663 -0.5493 -0.2201 -0.8325
  518SOL    HW1 1553   1.091   0.766   1.623 -1.9002  1.4702  0.9727
  518SOL    HW2 1554   1.223   0.654   1.611  0.6760 -0.0713  0.7343
  519SOL     OW 1555   2.947   1.523   0.471  0.2027 -0.4740  0.2490
  519SOL    HW1 1556   2.896   1.573   0.543  0.2025  2.1842 -1.4506
  519SOL    HW2 1557   2.998   1.438   0.505 -0.5368 -0.7293  2.0021
  520SOL     OW 1558   2.070   2.132   1.947  0.6749  0.4795  0.6978
  520SOL    HW1 1559   2.153   2.136   1.997 -0.1523 -1.3267 -2.7908
  520SOL    HW2 1560   2.005   2.070   1.995  2.1364  0.6781  0.7997
  521SOL     OW 1561   0.905   2.998   2.661  0.7484 -0.3157 -0.0679
  521SOL    HW1 1562   0.869   3.091   2.684 -0.3824  2.8239  0.2178
  521SOL    HW2 1563   0.860   2.968   2.572 -2.2790 -1.7759 -1.1489
  522SOL     OW 1564   2.691   0.545   2.483  0.0931  0.1311 -0.3872
  522SOL    HW1 1565   2.657   0.526   2.389 -2.8223  0.1055  1.1869
  522SOL    HW2 1566   2.673   0.461   2.543  1.6748 -3.5333  4.8967
  523SOL     OW 1567   1.645   2.442   1.709 -0.6564 -0.0744 -0.0458
  523SOL    HW1 1568   1.636   2.540   1.733  1.3051  0.8331  1.3182
  523SOL    HW2 1569   1.723   2.404   1.762  0.7738 -0.6690  3.5398
  524SOL     OW 1570   1.588   2.112   2.964  0.2130  0.2636  0.2607
  524SOL    HW1 1571   1.557   2.152   2.875 -0.8982  1.2836 -0.8834
  524SOL    HW2 1572   1.624   2.017   2.948 -1.1053 -0.6795 -0.1517
  525SOL     OW 1573   0.147   0.849   0.151 -0.2339 -0.2521  0.1606
  525SOL    HW1 1574   0.183   0.797   0.233  2.0606  0.8519  1.3507
  525SOL    HW2 1575   0.220   0.886   0.098 -3.4187 -0.4608  1.0151
  526SOL     OW 1576   1.100   2.946   0.682 -0.0330  0.1552 -0.2422
  526SOL    HW1 1577   1.163   2.880   0.639  2.7988 -0.1003  0.2898
  526SOL    HW2 1578   1.137   2.975   0.774  1.2506  0.2187 -1.1026
  527SOL     OW 1579   2.546   1.763   0.676 -0.7616  0.1377  0.1529
  527SOL    HW1 1580   2.645   1.790   0.699  1.8882  1.2703  1.5647
  527SOL    HW2 1581   2.544   1.691   0.603 -0.6669  0.5997 -1.4949
  528SOL     OW 1582   0.884   0.939   2.188  0.2376  0.0636  0.2065
  528SOL    HW1 1583   0.943   0.993   2.246  1.2361 -1.8934 -1.5918
  528SOL    HW2 1584   0.808   0.992   2.138  0.5414 -0.7363  0.2190
  529SOL     OW 1585   1.349   1.734   2.694 -0.0501 -0.2967  0.0884
  529SOL    HW1 1586   1.333   1.755   2.793 -0.0946 -1.5506  2.2402
  529SOL    HW2 1587   1.367   1.631   2.686  0.1514 -2.2822 -1.5577
  530SOL     OW 1588   1.727   1.244   2.397 -0.1390  0.3259 -0.2489
  530SOL    HW1 1589   1.679   1.292   2.318 -2.1314  1.5333 -0.6400
  530SOL    HW2 1590   1.717   1.143   2.394 -0.8559 -0.2353 -0.8738
  531SOL     OW 1591   0.513   2.246   2.670  0.3184  0.4233  0.1407
  531SOL    HW1 1592   0.426   2.257   2.722 -2.1276  3.0938  1.8597
  531SOL    HW2 1593   0.585   2.309   2.709 -0.0472  0.4937  1.4042
  532SOL     OW 1594   2.451   0.747   0.722 -0.1000 -0.2698 -0.1937
  532SOL    HW1 1595   2.444   0.849   0.733  2.0781 -0.4157 -0.7109
  532SOL    HW2 1596   2.544   0.709   0.711 -0.9072 -0.0655  2.4581
  533SOL     OW 1597   0.139   0.464   1.732 -0.1194 -0.0613 -0.0524
  533SOL    HW1 1598   0.186   0.554   1.723 -0.3825  0.4204  0.9197
  533SOL    HW2 1599   0.120   0.458   1.831  2.5604 -2.4599 -0.5413
  534SOL     OW 1600   1.258   0.040   0.177  0.2461  0.0405 -0.2300
  534SOL    HW1 1601   1.244   0.140   0.186  0.4945 -0.8152  2.4520
  534SOL    HW2 1602   1.239   3.120   0.087 -1.8005 -1.1289 -1.8870
  535SOL     OW 1603   0.301   0.016   0.154 -0.1004  0.1386  0.7300
  535SOL    HW1 1604   0.269   3.112   0.059 -0.3467  0.5644  1.4335
  535SOL    HW2 1605   0.227   0.038   0.222 -0.8414 -1.1439 -0.7702
  536SOL     OW 1606   0.463   1.583   1.286 -0.1745  0.5328 -0.3934
  536SOL    HW1 1607   0.364   1.607   1.290  1.3171 -0.5190  1.1425
  536SOL    HW2 1608   0.501   1.578   1.380 -0.9229  0.6687 -0.8203
  537SOL     OW 1609   0.609   2.610   1.786  0.4489  0.2399 -0.0117
  537SOL    HW1 1610   0.703   2.647   1.800 -2.0725 -0.7971 -0.1736
  537SOL    HW2 1611   0.610   2.518   1.830 -0.0372 -1.0091  1.4673
  538SOL     OW 1612   3.042   1.679   3.030 -0.3704 -0.0591 -0.5492
  538SOL    HW1 1613   3.072   1.759   2.986 -0.4879 -0.2907 -1.0928
  538SOL    HW2 1614   3.053   1.691   0.009  1.9095 -0.4940  0.3244
  539SOL     OW 1615   2.630   0.775   2.618  0.2526 -0.0941 -0.2537
  539SOL    HW1 1616   2.643   0.686   2.564  0.5370 -0.0440 -1.1995
  539SOL    HW2 1617   2.570   0.760   2.701  0.7004 -0.0516  3.5240
  540SOL     OW 1618   1.805   0.412   2.539  0.6317 -0.2502  0.3339
  540SOL    HW1 1619   1.750   0.458   2.606 -1.1188  0.3721 -2.2014
  540SOL    HW2 1620   1.877   0.476   2.507  4.1515 -0.3958 -0.3828
  541SOL     OW 1621   0.767   0.106   1.833  0.1783  0.7118  0.1445
  541SOL    HW1 1622   0.679   0.071   1.872  0.3564  3.3589 -2.2286
  541SOL    HW2 1623   0.818   0.182   1.880  2.2168  1.7059  0.8255
  542SOL     OW 1624   1.816   2.796   2.807  0.0442  0.2171  0.1358
  542SOL    HW1 1625   1.724   2.813   2.842 -2.2482  1.0396 -0.1357
  542SOL    HW2 1626   1.851   2.879   2.755  0.4741 -0.9793  0.4014
  543SOL     OW 1627   0.870   3.057   0.674 -0.1430 -0.4130  0.3741
  543SOL    HW1 1628   0.878   0.014   0.738  0.4768 -1.6430 -1.4776
  543SOL    HW2 1629   0.964   3.022   0.656 -3.7714  1.3454 -2.0948
  544SOL     OW 1630   2.709   1.530   1.840 -0.4612  0.5506 -0.2426
  544SOL    HW1 1631   2.783   1.537   1.908 -1.0659 -0.6458  2.8382
  544SOL    HW2 1632   2.673   1.622   1.818  1.8503 -3.1760  0.9071
  545SOL     OW 1633   1.858   1.780   1.344 -0.0121 -0.6639  0.3017
  545SOL    HW1 1634   1.859   1.704   1.276 -2.4453 -0.9856  1.4208
  545SOL    HW2 1635   1.944   1.832   1.344 -0.2743 -2.7153  1.2272
  546SOL     OW 1636   0.229   0.227   2.265 -0.3946  0.7393 -0.1257
  546SOL    HW1 1637   0.274   0.253   2.179 -2.1240 -0.9661  3.1471
  546SOL    HW2 1638   0.252   0.125   2.278  0.7667  0.1883 -1.1121
  547SOL     OW 1639   1.201   0.625   1.114  0.1376 -0.2422 -0.4981
  547SOL    HW1 1640   1.231   0.618   1.215 -0.7469  0.1151  1.8283
  547SOL    HW2 1641   1.269   0.687   1.064 -2.0700 -1.3744  0.9300
  548SOL     OW 1642   1.430   2.379   2.919  0.6507 -0.4710  0.2178
  548SOL    HW1 1643   1.343   2.322   2.913 -2.4568 -0.0766 -0.4789
  548SOL    HW2 1644   1.502   2.334   2.863 -1.5612  0.8440  1.9794
  549SOL     OW 1645   2.235   0.305   0.301 -0.2986 -0.2256  0.8441
  549SOL    HW1 1646   2.142   0.284   0.257 -0.4731  0.5778 -1.5901
  549SOL    HW2 1647   2.309   0.241   0.261  0.9630  2.3536 -2.8489
  550SOL     OW 1648   2.804   2.057   0.624 -0.2927  0.7529 -0.3134
  550SOL    HW1 1649   2.724   2.127   0.615 -2.1822  3.5732 -1.8787
  550SOL    HW2 1650   2.882   2.100   0.576  1.9608  1.8498 -1.1110
  551SOL     OW 1651   1.063   3.070   2.199 -0.1131 -0.9093  0.0679
  551SOL    HW1 1652   1.057   0.000   2.111 -0.6752  2.5504  1.9854
  551SOL    HW2 1653   1.043   0.013   2.274 -2.6348 -0.4231 -1.5784
  552SOL     OW 1654   2.966   2.433   2.750 -0.0364  0.0950  0.0178
  552SOL    HW1 1655   3.002   2.365   2.683 -0.4615 -0.1929 -2.2805
  552SOL    HW2 1656   2.888   2.396   2.804 -1.1486 -0.9856 -1.1821
  553SOL     OW 1657   0.154   2.817   0.998 -0.3928 -0.1415 -0.3508
  553SOL    HW1 1658   0.114   2.911   1.000  1.1031 -0.9070  1.5096
  553SOL    HW2 1659   0.086   2.745   0.978  4.1128 -1.8210 -0.4265
  554SOL     OW 1660   2.366   2.087   1.660  0.2438  0.1142  0.4306
  554SOL    HW1 1661   2.263   2.085   1.681  0.0439  1.0520  1.0421
  554SOL    HW2 1662   2.426   2.079   1.740  2.4788 -2.3370  0.5018
  555SOL     OW 1663   1.638   2.356   2.022 -0.1941 -0.3765  0.0939
  555SOL    HW1 1664   1.593   2.266   2.019  0.6720 -0.3738 -0.2821
  555SOL    HW2 1665   1.575   2.436   2.013  0.0941 -3.0073 -0.2600
  556SOL     OW 1666   1.307   1.370   0.979 -0.2737  0.0191  0.2285
  556SOL    HW1 1667   1.399   1.384   0.934  0.7240  1.4632  0.3779
  556SOL    HW2 1668   1.316   1.320   1.069 -2.8824  3.1716  0.6773
  557SOL     OW 1669   1.595   2.972   1.752 -0.6866 -0.2294  0.2446
  557SOL    HW1 1670   1.518   2.938   1.808 -0.2566  1.5358  0.7550
  557SOL    HW2 1671   1.564   3.015   1.664  1.4869 -0.7931 -0.1405
  558SOL     OW 1672   0.222   0.038   1.893 -0.3555  0.7069 -0.2992
  558SOL    HW1 1673   0.259   0.119   1.942 -0.5375 -0.1994  0.0384
  558SOL    HW2 1674   0.241   0.052   1.793 -0.3485  1.8822  0.5530
  559SOL     OW 1675   2.050   3.008   0.757  0.1579 -0.1021 -0.4834
  559SOL    HW1 1676   2.053   3.101   0.792 -0.3218 -1.2537  1.8348
  559SOL    HW2 1677   2.059   2.998   0.655  2.9006 -0.5972 -2.1071
  560SOL     OW 1678   1.797   2.647   0.805 -0.7336  0.0099 -0.1588
  560SOL    HW1 1679   1.888   2.612   0.837  0.4190  0.5837 -1.5991
  560SOL    HW2 1680   1.740   2.650   0.896  0.1146 -0.1416  4.9619
  561SOL     OW 1681   0.921   0.192   0.535  0.2664 -0.5001  0.3046
  561SOL    HW1 1682   1.000   0.230   0.581 -1.6761 -1.0091 -1.3534
  561SOL    HW2 1683   0.831   0.216   0.581 -2.2204 -0.5717 -0.6324
  562SOL     OW 1684   0.566   1.437   2.278  0.3436  0.2561  0.1015
  562SOL    HW1 1685   0.491   1.477   2.220  1.8855  1.0300 -0.6529
  562SOL    HW2 1686   0.550   1.449   2.378 -0.5427  1.2053  0.3981
  563SOL     OW 1687   1.505   2.234   2.322  0.3869 -0.3890 -0.3633
  563SOL    HW1 1688   1.541   2.192   2.237 -0.1470  5.0962  1.9827
  563SOL    HW2 1689   1.576   2.241   2.397  1.5351  0.1362 -4.5319
  564SOL     OW 1690   3.000   0.922   0.746  0.2086 -0.0402  0.2467
  564SOL    HW1 1691   3.054   0.983   0.685 -0.0372 -1.4768  3.5943
  564SOL    HW2 1692   2.898   0.943   0.747 -0.6947 -0.7358  0.9043
  565SOL     OW 1693   0.635   1.059   0.172  0.4264  0.4692 -0.2124
  565SOL    HW1 1694   0.690   1.065   0.086 -0.6401 -0.2481 -4.6098
  565SOL    HW2 1695   0.658   1.142   0.226 -0.8735 -0.4411 -0.4183
  566SOL     OW 1696   2.515   0.032   2.907  0.1505  0.4875 -0.3623
  566SOL    HW1 1697   2.453   3.122   2.979  0.7148  2.7659  0.6645
  566SOL    HW2 1698   2.471   0.091   2.840  2.5108  0.9215  1.5230
  567SOL     OW 1699   1.430   0.742   0.976 -0.2555  0.0602  0.5228
  567SOL    HW1 1700   1.527   0.740   0.996 -2.9362 -0.4848 -3.0713
  567SOL    HW2 1701   1.406   0.836   0.939 -0.9819 -1.0487  0.5880
  568SOL     OW 1702   1.697   1.876   2.841 -0.0633 -0.2582  0.2384
  568SOL    HW1 1703   1.644   1.828   2.912  3.4500  0.9895 -0.7686
  568SOL    HW2 1704   1.703   1.824   2.755 -2.6162  0.7567  2.3149
  569SOL     OW 1705   2.170   1.280   0.109  1.0961 -0.5540 -0.4130
  569SOL    HW1 1706   2.134   1.374   0.134 -1.5040  2.4084  1.8792
  569SOL    HW2 1707   2.270   1.274   0.099  1.5007 -0.3713 -0.6766
  570SOL     OW 1708   0.211   2.483   1.877 -0.1906  0.0746  0.5293
  570SOL    HW1 1709   0.288   2.535   1.926  0.9359  1.5113 -1.6792
  570SOL    HW2 1710   0.204   2.512   1.779  0.3800  0.0035 -1.2344
  571SOL     OW 1711   2.999   1.685   1.702  0.3654 -0.7144  0.3339
  571SOL    HW1 1712   2.969   1.788   1.703  1.1006  3.7469 -0.6752
  571SOL    HW2 1713   3.093   1.672   1.664 -1.1439  1.9291 -1.3725
  572SOL     OW 1714   1.550   2.009   0.462 -0.3959 -0.0210 -0.0390
  572SOL    HW1 1715   1.539   1.930   0.532 -1.7029 -1.2019  0.8878
  572SOL    HW2 1716   1.648   2.034   0.446 -1.2310  0.7407  2.4313
  573SOL     OW 1717   1.815   2.072   0.449  0.5326 -0.3365  0.3919
  573SOL    HW1 1718   1.849   2.123   0.367 -0.7070  1.9224 -0.4824
  573SOL    HW2 1719   1.830   2.129   0.534 -2.0818 -3.5299  0.5821
  574SOL     OW 1720   0.739   0.062   1.077  0.1248  0.2975 -0.0750
  574SOL    HW1 1721   0.668   0.130   1.054 -1.0166  0.9635 -2.1040
  574SOL    HW2 1722   0.816   0.068   1.013 -0.2215  1.3434  1.6413
  575SOL     OW 1723   0.820   0.991   1.714 -0.1116  0.1326 -0.3523
  575SOL    HW1 1724   0.825   1.094   1.738 -1.5160  0.6463  1.4292
  575SOL    HW2 1725   0.871   0.948   1.796 -1.0952  2.0476 -0.2474
  576SOL     OW 1726   2.781   0.109   1.565  0.1874  0.7761  0.2073
  576SOL    HW1 1727   2.808   0.181   1.631 -0.6161  0.7671  0.3502
  576SOL    HW2 1728   2.731   0.148   1.488 -2.8553  1.4046  3.2379
  577SOL     OW 1729   1.216   0.949   2.337  0.0377  0.3053  0.2366
  577SOL    HW1 1730   1.171   0.961   2.423 -1.2326  0.3016 -2.5898
  577SOL    HW2 1731   1.262   0.858   2.333 -0.8796  0.7977  0.1091
  578SOL     OW 1732   2.227   1.266   2.614 -0.2956 -0.2351 -0.4950
  578SOL    HW1 1733   2.129   1.289   2.593  1.1648 -1.5900 -1.1238
  578SOL    HW2 1734   2.291   1.340   2.578 -1.1220  3.1054 -1.9486
  579SOL     OW 1735   1.478   2.206   1.817 -0.6081 -0.0972  0.1918
  579SOL    HW1 1736   1.394   2.205   1.878  1.8341  1.5233  1.2722
  579SOL    HW2 1737   1.518   2.301   1.809  0.5016 -1.4242  0.6752
  580SOL     OW 1738   1.251   1.982   0.338 -0.2731  0.3812 -0.0050
  580SOL    HW1 1739   1.349   1.962   0.363  0.8102  0.7996  0.0236
  580SOL    HW2 1740   1.180   1.914   0.368  0.3032  4.9196 -1.2078
  581SOL     OW 1741   1.422   0.775   2.076 -0.3808  0.8693 -0.3217
  581SOL    HW1 1742   1.337   0.777   2.017 -0.6677 -2.4993  0.6159
  581SOL    HW2 1743   1.399   0.747   2.174  0.6644 -1.4859  0.9400
  582SOL     OW 1744   0.828   1.268   1.734  0.2335 -0.5472 -0.9129
  582SOL    HW1 1745   0.869   1.301   1.821  1.7080  1.7424  0.9180
  582SOL    HW2 1746   0.902   1.284   1.670 -0.7332 -1.4985  0.2827
  583SOL     OW 1747   1.155   1.157   1.975 -0.0238  0.1042  0.2972
  583SOL    HW1 1748   1.121   1.064   1.959  0.4068  2.6276 -1.8136
  583SOL    HW2 1749   1.081   1.225   1.991  3.1386 -2.6443  0.7277
  584SOL     OW 1750   2.444   2.474   0.826  1.1166  0.3560 -0.1411
  584SOL    HW1 1751   2.399   2.543   0.765 -0.5388  0.2407 -0.1138
  584SOL    HW2 1752   2.437   2.500   0.925  1.3497  1.1476 -1.7511
  585SOL     OW 1753   2.133   0.156   2.733 -0.1492 -0.5902  0.5492
  585SOL    HW1 1754   2.105   0.251   2.744  4.6434  2.9725 -3.5828
  585SOL    HW2 1755   2.130   0.105   2.819 -0.2547  3.0328 -0.7533
  586SOL     OW 1756   0.015   2.248   0.678  0.0337  0.4291 -0.1579
  586SOL    HW1 1757   3.048   2.295   0.671  0.4650  0.3191  0.9624
  586SOL    HW2 1758   0.089   2.316   0.669  3.1039  0.1576 -0.7555
  587SOL     OW 1759   1.599   1.760   3.073  0.3966  0.1282  0.0210
  587SOL    HW1 1760   1.588   1.812   0.037 -2.7482  2.0308 -1.8733
  587SOL    HW2 1761   1.678   1.700   3.076 -1.9127  2.6082  0.1448
  588SOL     OW 1762   0.403   0.329   1.273 -0.2989 -0.1952 -0.3786
  588SOL    HW1 1763   0.434   0.237   1.297 -0.8396  3.1400  0.7143
  588SOL    HW2 1764   0.325   0.355   1.336 -3.6378 -0.5087  0.5191
  589SOL     OW 1765   1.602   0.674   0.763 -0.3532 -0.0156  0.0025
  589SOL    HW1 1766   1.659   0.596   0.804 -0.1429 -3.2402  0.6979
  589SOL    HW2 1767   1.532   0.698   0.832  1.7487  1.2869  3.2591
  590SOL     OW 1768   1.300   1.228   2.970  0.3709  0.1068  0.3886
  590SOL    HW1 1769   1.306   1.213   3.072 -0.5234  0.7321  0.4760
  590SOL    HW2 1770   1.246   1.311   2.955  1.1613 -0.0291  3.4009
  591SOL     OW 1771   2.619   2.526   2.455 -0.9988 -0.2434  0.5819
  591SOL    HW1 1772   2.603   2.615   2.503  0.6216  2.5550  0.0965
  591SOL    HW2 1773   2.696   2.538   2.392  0.2597 -3.2365  3.8045
  592SOL     OW 1774   1.955   2.197   1.445  0.0501 -0.5213 -0.5341
  592SOL    HW1 1775   1.875   2.258   1.452  3.2480  1.0389 -1.4176
  592SOL    HW2 1776   1.997   2.178   1.538 -0.8006  1.5023 -1.9798
  593SOL     OW 1777   0.878   0.315   1.343  0.5475  0.0653  0.0114
  593SOL    HW1 1778   0.919   0.382   1.408 -0.1229 -0.3338 -2.7291
  593SOL    HW2 1779   0.817   0.366   1.277 -0.3563  0.7061 -0.8641
  594SOL     OW 1780   2.523   0.920   2.399 -0.2171  0.2670 -0.0906
  594SOL    HW1 1781   2.552   0.872   2.486 -0.3375  2.4266  1.3323
  594SOL    HW2 1782   2.597   0.896   2.330 -1.1715  2.0361 -0.8365
  595SOL     OW 1783   0.310   0.080   0.853 -0.5455  0.6814  0.4156
  595SOL    HW1 1784   0.229   0.054   0.899  1.9452  2.0399 -2.8102
  595SOL    HW2 1785   0.365   3.117   0.828 -0.4040 -2.1419 -0.0897
  596SOL     OW 1786   0.155   1.212   1.233  0.4686 -0.0214  0.0212
  596SOL    HW1 1787   0.156   1.215   1.333 -1.4524  0.8345 -0.2373
  596SOL    HW2 1788   0.090   1.141   1.207  4.1626 -0.9060 -1.2670
  597SOL     OW 1789   1.822   1.571   0.278  0.0673 -0.2663 -0.1932
  597SOL    HW1 1790   1.875   1.498   0.329  1.2772 -2.1572  0.2266
  597SOL    HW2 1791   1.871   1.659   0.279 -4.2095 -0.6230 -0.9867
  598SOL     OW 1792   0.240   2.892   1.791 -0.3488 -0.0300 -0.4937
  598SOL    HW1 1793   0.263   2.900   1.693  0.2443 -0.3254 -0.1280
  598SOL    HW2 1794   0.242   2.981   1.836 -0.7834  0.3139  0.6709
  599SOL     OW 1795   2.495   1.500   2.749  0.3066 -0.3374  0.0491
  599SOL    HW1 1796   2.428   1.529   2.819 -0.9970 -2.0070  1.5476
  599SOL    HW2 1797   2.512   1.578   2.686 -2.7578 -1.5726 -0.6971
  600SOL     OW 1798   0.696   1.276   0.304  0.1463 -0.5121  0.2371
  600SOL    HW1 1799   0.788   1.299   0.279 -4.7005 -0.6880 -0.3883
  600SOL    HW2 1800   0.697   1.231   0.395 -0.5137  0.9656 -2.5685
  601SOL     OW 1801   0.547   0.953   0.976 -0.0661 -0.3875  0.0484
  601SOL    HW1 1802   0.620   1.021   0.996  0.0800 -1.1663  0.1416
  601SOL    HW2 1803   0.483   0.942   1.057  0.7189  0.3741 -2.4689
  602SOL     OW 1804   1.485   2.614   0.434 -0.2527 -0.6779  0.4484
  602SOL    HW1 1805   1.491   2.526   0.488 -2.5472  0.4440 -1.0318
  602SOL    HW2 1806   1.577   2.646   0.400 -1.2993  0.8486 -0.1044
  603SOL     OW 1807   0.609   2.378   1.928  0.2045 -0.3723  0.1517
  603SOL    HW1 1808   0.681   2.395   1.994 -1.2730 -3.0988 -1.7636
  603SOL    HW2 1809   0.537   2.319   1.965 -1.0076  2.7555 -0.4292
  604SOL     OW 1810   0.382   0.448   2.349 -0.2719  0.0158  0.7913
  604SOL    HW1 1811   0.350   0.354   2.341  0.9892  1.0816 -2.3785
  604SOL    HW2 1812   0.347   0.499   2.426 -1.5001 -2.0458 -1.3923
  605SOL     OW 1813   2.996   1.310   1.462 -0.2668  0.0693  0.2230
  605SOL    HW1 1814   3.094   1.288   1.480 -0.6631  4.5774 -0.9831
  605SOL    HW2 1815   2.940   1.278   1.539  1.3849 -1.3909  1.1626
  606SOL     OW 1816   0.926   1.631   2.488 -0.0433  0.3134 -0.2636
  606SOL    HW1 1817   0.834   1.632   2.534  0.6280  0.0901  0.6052
  606SOL    HW2 1818   0.968   1.539   2.477 -1.7338  1.8225 -0.5276
  607SOL     OW 1819   0.279   3.103   0.540 -0.5582  0.8040 -0.8093
  607SOL    HW1 1820   0.368   3.077   0.487  1.1193  1.0141 -1.1544
  607SOL    HW2 1821   0.227   0.053   0.490 -1.3116 -0.6751 -1.7380
  608SOL     OW 1822   2.217   1.835   2.170 -0.3174  0.3703  0.2110
  608SOL    HW1 1823   2.125   1.866   2.178  2.4785 -1.3493  1.5518
  608SOL    HW2 1824   2.231   1.778   2.248  1.5399  1.4022 -3.4565
  609SOL     OW 1825   2.783   0.451   1.281 -0.4049  0.1939  0.4062
  609SOL    HW1 1826   2.770   0.450   1.180  1.4561  1.1291  0.6898
  609SOL    HW2 1827   2.723   0.383   1.325 -0.4342  1.1573 -1.8940
  610SOL     OW 1828   0.512   2.741   0.717 -0.3206 -0.0370 -0.0466
  610SOL    HW1 1829   0.549   2.708   0.806  2.3492 -2.5433 -1.1473
  610SOL    HW2 1830   0.494   2.656   0.665 -1.9239  3.5395  0.6772
  611SOL     OW 1831   1.602   0.871   3.006  0.2231  0.4856  0.0458
  611SOL    HW1 1832   1.608   0.951   3.063  0.5568 -0.4270  0.5095
  611SOL    HW2 1833   1.663   0.884   2.926 -0.5903  2.3544  0.5666
  612SOL     OW 1834   0.708   2.088   1.829 -0.0485  0.2105  0.4846
  612SOL    HW1 1835   0.620   2.127   1.865 -0.8350 -2.9614 -1.7358
  612SOL    HW2 1836   0.731   2.134   1.745  0.7117  1.2354  2.3889
  613SOL     OW 1837   0.465   2.497   0.599 -0.1345  0.8393 -0.4899
  613SOL    HW1 1838   0.563   2.469   0.605 -0.8379  1.9725  2.0510
  613SOL    HW2 1839   0.426   2.486   0.501 -1.5265  2.9555  0.6276
  614SOL     OW 1840   2.277   2.957   1.373 -0.0924  0.1021 -0.6059
  614SOL    HW1 1841   2.245   3.041   1.322  0.9498  1.3749 -2.3689
  614SOL    HW2 1842   2.246   2.953   1.470  3.0170 -1.5924 -0.0475
  615SOL     OW 1843   1.763   1.176   0.209 -0.1473  0.7391 -0.2171
  615SOL    HW1 1844   1.709   1.210   0.288 -2.6293 -0.4406 -0.6639
  615SOL    HW2 1845   1.863   1.184   0.222 -1.6495  0.7734 -0.9216
  616SOL     OW 1846   1.998   0.660   0.180 -0.0041 -0.4326 -0.1557
  616SOL    HW1 1847   2.045   0.698   0.098 -0.7171  0.1503 -0.7219
  616SOL    HW2 1848   1.938   0.586   0.154  0.9553 -0.0125 -1.8350
  617SOL     OW 1849   0.959   0.886   2.983 -0.1754  0.4682  0.3584
  617SOL    HW1 1850   1.052   0.912   2.955 -2.0738 -3.0469  0.8583
  617SOL    HW2 1851   0.956   0.788   3.005 -2.0374 -0.9437 -0.8966
  618SOL     OW 1852   0.580   3.063   1.977  0.1459 -0.1826 -0.2711
  618SOL    HW1 1853   0.630   2.975   1.983 -3.3744 -0.6497 -0.5898
  618SOL    HW2 1854   0.504   3.050   1.906 -0.0180 -1.1247  1.9658
  619SOL     OW 1855   2.937   1.505   1.283  0.0866  0.7240  0.2855
  619SOL    HW1 1856   2.962   1.435   1.354 -1.6277  0.3673 -4.7533
  619SOL    HW2 1857   2.836   1.501   1.280  0.3483 -0.3620  1.4459
  620SOL     OW 1858   2.710   1.013   2.979 -0.1820 -0.1605 -0.2978
  620SOL    HW1 1859   2.607   1.011   2.964 -4.1616  1.8014  1.9583
  620SOL    HW2 1860   2.719   1.010   3.082  0.2032 -0.2190  1.0170
  621SOL     OW 1861   2.338   2.354   1.982 -0.0102 -0.5882 -0.3235
  621SOL    HW1 1862   2.429   2.340   2.022  0.8117 -0.2038  3.0335
  621SOL    HW2 1863   2.266   2.360   2.051 -0.6460  1.2213  0.0708
  622SOL     OW 1864   1.058   0.488   2.247  0.1701 -0.0721  0.2223
  622SOL    HW1 1865   1.126   0.505   2.320  0.9549  1.0006  1.5571
  622SOL    HW2 1866   0.969   0.531   2.267 -0.6576 -1.6444 -1.2328
  623SOL     OW 1867   1.124   0.882   2.642 -0.3000 -0.8104  0.3518
  623SOL    HW1 1868   1.051   0.812   2.658  0.3659  0.4219  1.6941
  623SOL    HW2 1869   1.150   0.932   2.726 -2.5396  1.0596  0.4731
  624SOL     OW 1870   2.600   0.746   0.449 -0.4775  0.2378  0.5396
  624SOL    HW1 1871   2.618   0.842   0.424  0.7281  0.9097  0.3130
  624SOL    HW2 1872   2.648   0.723   0.533  0.8345 -0.7403 -1.1279
  625SOL     OW 1873   0.968   1.346   0.603 -0.0812 -0.8360 -0.0008
  625SOL    HW1 1874   1.016   1.365   0.693  3.8548 -1.3000  0.7106
  625SOL    HW2 1875   0.972   1.425   0.535 -0.0979 -1.8155 -1.7221
  626SOL     OW 1876   1.712   0.902   2.735  0.0922 -0.3793  0.0451
  626SOL    HW1 1877   1.791   0.864   2.685 -1.6695  0.9432 -0.8266
  626SOL    HW2 1878   1.725   1.001   2.763  0.8240 -0.1011 -1.6122
  627SOL     OW 1879   0.918   2.871   2.907 -0.1041 -0.4567  0.1137
  627SOL    HW1 1880   0.909   2.905   2.812 -1.4085 -0.1304 -1.2909
  627SOL    HW2 1881   0.933   2.951   2.969  0.7513 -1.3983 -3.4311
  628SOL     OW 1882   2.205   0.226   2.333 -0.1144  0.0320 -0.0267
  628SOL    HW1 1883   2.287   0.195   2.279  0.7160 -0.6735 -2.5719
  628SOL    HW2 1884   2.231   0.311   2.385 -0.0326 -4.5900 -0.4251
  629SOL     OW 1885   0.822   0.470   3.002  0.1960  0.5322  0.2606
  629SOL    HW1 1886   0.756   0.515   2.938  0.3725 -0.0058 -3.3410
  629SOL    HW2 1887   0.884   0.540   3.048  1.4789  1.9546  2.5603
  630SOL     OW 1888   0.999   0.430   2.769 -0.1082 -0.0763  0.4370
  630SOL    HW1 1889   1.074   0.361   2.791  0.6778  0.1307 -1.1281
  630SOL    HW2 1890   0.970   0.483   2.847  0.1166 -4.1198 -1.6699
  631SOL     OW 1891   2.536   1.134   0.768  0.2863  0.2911 -0.1586
  631SOL    HW1 1892   2.439   1.123   0.773 -2.4283  2.9396  1.0531
  631SOL    HW2 1893   2.571   1.212   0.707  3.5395 -0.4471 -2.4463
  632SOL     OW 1894   1.922   0.769   1.256 -0.2396 -0.2413 -0.1625
  632SOL    HW1 1895   1.991   0.795   1.329  0.9832 -0.0174 -1.9835
  632SOL    HW2 1896   1.855   0.696   1.289  0.0687  1.0940  2.6933
  633SOL     OW 1897   0.944   1.561   0.463 -0.4675 -0.1086 -0.1339
  633SOL    HW1 1898   0.875   1.636   0.445 -2.8002  0.2368  0.6579
  633SOL    HW2 1899   1.038   1.598   0.458  1.8439  0.9935 -1.2247
  634SOL     OW 1900   2.176   0.104   1.297 -0.2424 -0.2910 -0.2822
  634SOL    HW1 1901   2.086   0.102   1.348 -2.0656  0.8910  1.6290
  634SOL    HW2 1902   2.243   0.160   1.352  1.6108  0.5458 -0.0538
  635SOL     OW 1903   1.928   0.480   1.091 -0.5613  0.3146  0.2780
  635SOL    HW1 1904   1.900   0.531   1.172 -2.1199 -0.6131  1.9928
  635SOL    HW2 1905   1.946   0.546   1.012 -0.8219  0.7350 -1.4279
  636SOL     OW 1906   0.743   1.165   0.556 -0.4041  0.1096 -0.0566
  636SOL    HW1 1907   0.670   1.177   0.631  3.6111  1.2473  1.5362
  636SOL    HW2 1908   0.826   1.219   0.572 -1.0885 -0.8255 -0.0110
  637SOL     OW 1909   2.547   2.177   2.767 -0.4615  0.1045 -0.6471
  637SOL    HW1 1910   2.561   2.120   2.850 -2.0052 -1.0590  0.4156
  637SOL    HW2 1911   2.467   2.240   2.766  0.9033  0.8363  1.7154
  638SOL     OW 1912   1.490   2.729   2.662  0.1104 -0.1019 -0.0111
  638SOL    HW1 1913   1.541   2.736   2.571  0.1939  0.4278 -1.9276
  638SOL    HW2 1914   1.450   2.638   2.668 -2.6482  0.7536  1.2080
  639SOL     OW 1915   1.396   1.833   1.311  0.2686 -0.0849  0.1991
  639SOL    HW1 1916   1.301   1.801   1.283 -1.5057  1.2476 -4.1895
  639SOL    HW2 1917   1.394   1.934   1.333  0.0107 -0.9064 -1.5434
  640SOL     OW 1918   2.538   2.813   0.384 -0.4291 -0.1941 -0.4655
  640SOL    HW1 1919   2.512   2.723   0.349  1.4895 -1.2446  1.4854
  640SOL    HW2 1920   2.634   2.803   0.426  2.8284  3.9642 -1.0345
  641SOL     OW 1921   3.116   2.928   0.275  0.2133 -0.0875 -0.3972
  641SOL    HW1 1922   0.048   2.847   0.313  1.2151 -3.4988  3.1593
  641SOL    HW2 1923   3.016   2.925   0.292 -0.8597 -1.6444  0.4834
  642SOL     OW 1924   2.958   0.902   1.239 -0.4615 -0.2796 -0.0528
  642SOL    HW1 1925   2.902   0.820   1.223 -1.0744 -1.5876  0.5229
  642SOL    HW2 1926   2.899   0.984   1.238 -0.0321 -1.5690  0.5496
  643SOL     OW 1927   0.837   1.879   2.137 -0.6898 -0.2366  0.5341
  643SOL    HW1 1928   0.810   1.952   2.069 -0.0273 -1.2707 -0.9247
  643SOL    HW2 1929   0.936   1.858   2.129  2.6678 -0.9207 -0.5288
  644SOL     OW 1930   1.762   2.438   0.608  0.1045  0.1827  0.0993
  644SOL    HW1 1931   1.818   2.352   0.625 -0.5684 -2.5982  2.3265
  644SOL    HW2 1932   1.807   2.517   0.655  0.0385 -0.1687  0.1973
  645SOL     OW 1933   1.999   2.025   1.049 -0.2572  0.0167  0.4675
  645SOL    HW1 1934   1.918   1.995   0.997  0.0096 -1.3376 -0.3248
  645SOL    HW2 1935   1.991   2.126   1.069 -1.8982  0.3287 -2.8566
  646SOL     OW 1936   1.075   2.711   3.029 -0.7422 -0.4879 -0.2116
  646SOL    HW1 1937   1.177   2.728   3.035  0.1675  4.1781  1.7452
  646SOL    HW2 1938   1.033   2.783   2.981  2.1404 -1.9754  3.4776
  647SOL     OW 1939   0.389   2.695   1.940 -0.3098 -0.2946 -0.4500
  647SOL    HW1 1940   0.314   2.757   1.910  1.9100  0.6323 -1.3769
  647SOL    HW2 1941   0.459   2.683   1.868  1.5568 -0.7805  1.2130
  648SOL     OW 1942   1.707   0.767   1.044  0.0563  0.5374 -0.5761
  648SOL    HW1 1943   1.747   0.833   1.107 -0.5371 -0.3919 -0.7466
  648SOL    HW2 1944   1.761   0.764   0.959  1.6654 -1.1795 -3.0139
  649SOL     OW 1945   1.541   2.191   0.103  0.3903 -0.1128  0.2929
  649SOL    HW1 1946   1.568   2.287   0.117 -1.6710  0.7758 -0.8276
  649SOL    HW2 1947   1.539   2.171   3.121  0.9945  0.2078 -3.5128
  650SOL     OW 1948   2.365   1.642   2.027 -0.4641 -0.0469 -0.9584
  650SOL    HW1 1949   2.309   1.724   2.065  2.0136  0.5701 -0.1175
  650SOL    HW2 1950   2.302   1.573   2.005  1.9612  0.5458  0.2264
  651SOL     OW 1951   1.561   2.481   0.012 -0.2018  0.3035  0.2516
  651SOL    HW1 1952   1.505   2.444   3.058 -0.9574 -2.0498 -2.0463
  651SOL    HW2 1953   1.551   2.580   0.022  2.0315 -0.8933 -1.6837
  652SOL     OW 1954   0.318   2.266   0.284 -0.4639 -0.2030 -0.0936
  652SOL    HW1 1955   0.286   2.231   0.375 -0.5499 -0.7904 -0.1991
  652SOL    HW2 1956   0.333   2.368   0.285 -0.8574 -1.5255  2.1647
  653SOL     OW 1957   2.391   2.103   1.368 -0.2074 -0.1735  0.1158
  653SOL    HW1 1958   2.389   2.202   1.388 -1.1520  2.1407 -1.6359
  653SOL    HW2 1959   2.363   2.054   1.451 -2.2542 -0.2146  1.8508
  654SOL     OW 1960   2.681   2.692   1.336  0.0146 -0.4004 -0.1658
  654SOL    HW1 1961   2.733   2.750   1.402 -2.1427 -1.1792  0.0180
  654SOL    HW2 1962   2.727   2.604   1.314 -0.5529 -0.3138  0.6682
  655SOL     OW 1963   0.021   2.130   1.343 -0.1857  0.3538 -0.0181
  655SOL    HW1 1964   0.109   2.118   1.387 -2.1898 -0.2876  0.7930
  655SOL    HW2 1965   0.031   2.155   1.248  0.0988 -1.5285  2.5225
  656SOL     OW 1966   3.042   2.808   2.588 -0.3741  0.8634  0.5457
  656SOL    HW1 1967   3.090   2.835   2.498  1.4277  1.2306 -2.8729
  656SOL    HW2 1968   3.010   2.891   2.639  0.2379  2.2991  2.3261
  657SOL     OW 1969   3.010   0.838   0.088  0.3551  0.0101 -1.0967
  657SOL    HW1 1970   2.967   0.931   0.120 -1.2867  2.4461  3.3333
  657SOL    HW2 1971   3.100   0.819   0.132  1.1321 -0.7414 -2.2770
  658SOL     OW 1972   1.799   1.938   0.860  0.3753 -0.2328 -0.5748
  658SOL    HW1 1973   1.826   1.871   0.791 -0.1638  0.9054  1.0694
  658SOL    HW2 1974   1.702   1.920   0.884  1.0147  3.2899 -0.7533
  659SOL     OW 1975   1.522   0.446   1.240 -0.0854  0.1286 -0.3445
  659SOL    HW1 1976   1.455   0.525   1.254 -0.4195 -2.2636 -1.0869
  659SOL    HW2 1977   1.476   0.354   1.226  1.2681  1.3550 -0.1926
  660SOL     OW 1978   1.801   1.552   0.003  0.5194  0.5572  0.2851
  660SOL    HW1 1979   1.818   1.533   0.099 -1.3193  2.2602  0.3510
  660SOL    HW2 1980   1.714   1.505   3.090 -1.3114  1.1338 -1.9411
  661SOL     OW 1981   0.075   1.998   0.177 -0.2744 -0.0667 -0.5520
  661SOL    HW1 1982   0.091   2.099   0.187 -0.4607  0.3311 -0.9633
  661SOL    HW2 1983   0.002   1.965   0.248 -2.1125  1.7217  0.7333
  662SOL     OW 1984   0.214   0.631   2.130 -0.2633  0.6667  0.1288
  662SOL    HW1 1985   0.215   0.658   2.226  0.6230  0.7238 -2.7269
  662SOL    HW2 1986   0.261   0.699   2.073 -2.3426 -0.0803  0.8764
  663SOL     OW 1987   1.879   1.325   0.655 -0.1034 -0.8967 -0.1526
  663SOL    HW1 1988   1.839   1.379   0.734 -1.4963  1.2674  2.4776
  663SOL    HW2 1989   1.975   1.300   0.677  1.1438 -0.7482  1.2494
  664SOL     OW 1990   0.748   0.463   1.130  0.1850  0.0098 -0.0396
  664SOL    HW1 1991   0.836   0.515   1.097  0.5169 -0.1556 -0.6323
  664SOL    HW2 1992   0.691   0.418   1.056 -0.4643 -1.8190  2.8356
  665SOL     OW 1993   1.006   3.011   0.217  0.5692 -0.3701  0.1298
  665SOL    HW1 1994   1.003   2.938   0.288 -1.6283  1.1821  0.0710
  665SOL    HW2 1995   1.094   3.059   0.228  2.4292  1.2336 -0.9626
  666SOL     OW 1996   3.105   0.388   2.645 -0.1909  0.4381 -0.3628
  666SOL    HW1 1997   0.062   0.347   2.691 -0.5450  1.1183  2.9208
  666SOL    HW2 1998   3.022   0.376   2.699  1.6874  0.3497 -0.5169
  667SOL     OW 1999   2.446   2.016   2.141  0.1959  0.1139 -0.0942
  667SOL    HW1 2000   2.464   2.070   2.227  0.9181  0.1651  0.4217
  667SOL    HW2 2001   2.378   1.939   2.156  2.3909 -0.4632  0.8549
  668SOL     OW 2002   0.693   1.601   2.598 -0.0679  0.2275  0.3785
  668SOL    HW1 2003   0.664   1.668   2.666 -0.1206 -0.3341  0.3003
  668SOL    HW2 2004   0.615   1.547   2.566  0.8876 -0.0895 -0.3193
  669SOL     OW 2005   2.164   2.620   2.494  0.0466 -0.5907 -0.1053
  669SOL    HW1 2006   2.189   2.636   2.397 -1.6792  0.9077 -0.9451
  669SOL    HW2 2007   2.078   2.574   2.518  2.4496  2.0698  2.6125
  670SOL     OW 2008   2.255   1.042   2.427 -0.2221 -0.7038  0.1733
  670SOL    HW1 2009   2.337   0.995   2.392  0.3367  0.3177 -0.7777
  670SOL    HW2 2010   2.276   1.116   2.492 -0.9325 -0.2789  2.1830
  671SOL     OW 2011   2.448   1.175   0.077 -0.2689  0.0454 -0.2430
  671SOL    HW1 2012   2.432   1.114   0.000  1.7748  1.1119  2.1816
  671SOL    HW2 2013   2.524   1.241   0.064  2.6318  0.2229  0.6407
  672SOL     OW 2014   2.511   1.178   2.442 -0.5883 -0.4784 -0.6861
  672SOL    HW1 2015   2.578   1.207   2.516  0.3699  2.7264 -0.1358
  672SOL    HW2 2016   2.523   1.080   2.427  0.5715 -1.7321 -2.6797
  673SOL     OW 2017   2.531   1.011   1.579 -0.1867 -1.0693  0.7007
  673SOL    HW1 2018   2.561   1.092   1.524  0.4039 -0.2788  1.9453
  673SOL    HW2 2019   2.596   0.980   1.650 -0.6572 -0.2782 -0.3871
  674SOL     OW 2020   1.861   1.810   1.899 -0.0636  0.0102  0.2548
  674SOL    HW1 2021   1.865   1.708   1.888 -0.1989 -0.0574 -0.0736
  674SOL    HW2 2022   1.884   1.833   1.801  1.1305 -1.1431  1.0411
  675SOL     OW 2023   0.054   0.584   0.906 -0.2550  0.2158  0.7242
  675SOL    HW1 2024   0.068   0.607   0.814 -0.7120  0.2832  1.9718
  675SOL    HW2 2025   0.143   0.581   0.957 -0.4431 -1.1009 -0.6838
  676SOL     OW 2026   2.017   0.982   1.115 -0.1370 -0.2051 -0.1240
  676SOL    HW1 2027   2.059   1.064   1.162 -2.3656  0.6623 -1.2566
  676SOL    HW2 2028   1.962   0.931   1.187  0.6896  0.2450  1.8611
  677SOL     OW 2029   1.870   1.487   2.221  0.1490  0.8610 -0.0252
  677SOL    HW1 2030   1.796   1.417   2.217  0.6239  3.1075 -0.1874
  677SOL    HW2 2031   1.836   1.588   2.217 -0.2306  1.3779  1.0171
  678SOL     OW 2032   3.051   1.901   0.842 -0.0359  0.1151 -0.5935
  678SOL    HW1 2033   3.038   1.951   0.926 -1.0452 -2.5941  1.2618
  678SOL    HW2 2034   2.959   1.890   0.805  1.4159  0.6128 -0.5140
  679SOL     OW 2035   2.807   2.762   0.460  0.1185  0.2700 -0.1691
  679SOL    HW1 2036   2.847   2.857   0.439  0.7736  2.9259  0.0737
  679SOL    HW2 2037   2.863   2.723   0.538  0.0693  0.4026  1.6432
  680SOL     OW 2038   0.183   2.479   1.220 -0.0623 -0.0834  0.8193
  680SOL    HW1 2039   0.273   2.480   1.261  0.0056  1.9017 -2.3055
  680SOL    HW2 2040   0.194   2.441   1.124  2.2349 -1.7714 -0.6644
  681SOL     OW 2041   0.628   1.082   1.214 -0.4493  0.1157 -0.1786
  681SOL    HW1 2042   0.733   1.098   1.231  1.3967  1.3813 -0.4499
  681SOL    HW2 2043   0.602   0.989   1.248  0.6339  0.6608  0.5343
  682SOL     OW 2044   1.938   2.723   1.161 -0.4703 -0.0796 -0.2735
  682SOL    HW1 2045   1.966   2.674   1.072  0.7508  0.1645 -3.0399
  682SOL    HW2 2046   1.929   2.824   1.153 -1.7664 -1.8382  3.5007
  683SOL     OW 2047   2.105   1.199   1.253  0.3047  0.1972  0.2693
  683SOL    HW1 2048   2.091   1.296   1.251 -0.7901 -2.3137  0.9770
  683SOL    HW2 2049   2.203   1.186   1.238 -3.2922 -0.1407  2.0583
  684SOL     OW 2050   0.856   2.151   2.049  0.5160 -0.1128 -0.2675
  684SOL    HW1 2051   0.808   2.116   1.963 -1.7956 -1.5597 -0.1229
  684SOL    HW2 2052   0.782   2.180   2.118 -0.5217 -0.1346  0.3578
  685SOL     OW 2053   2.373   1.605   0.207  0.2531 -0.1134 -0.1707
  685SOL    HW1 2054   2.435   1.570   0.130 -1.4391  0.1941  0.1718
  685SOL    HW2 2055   2.277   1.581   0.190 -1.6472  0.2573 -0.4600
  686SOL     OW 2056   0.031   0.529   0.287 -0.1117 -0.0079 -0.2926
  686SOL    HW1 2057   0.012   0.436   0.243  2.1880 -2.9526  0.0322
  686SOL    HW2 2058   3.065   0.564   0.333  0.4405 -0.9623  0.5773
  687SOL     OW 2059   1.067   2.792   0.388 -0.2952  0.0665 -0.1918
  687SOL    HW1 2060   1.005   2.713   0.410 -3.2780 -1.2809  2.8522
  687SOL    HW2 2061   1.138   2.770   0.318 -0.0144 -0.6133 -1.8033
  688SOL     OW 2062   1.935   1.925   2.116 -0.4678  0.0542 -0.1389
  688SOL    HW1 2063   1.919   1.879   2.022 -1.2991 -2.5886  2.9214
  688SOL    HW2 2064   1.863   1.895   2.182 -0.7914  0.8243 -1.3240
  689SOL     OW 2065   2.743   1.065   2.039  0.7408  0.1675  0.0057
  689SOL    HW1 2066   2.641   1.042   2.017 -3.7385 -3.7625 -0.5227
  689SOL    HW2 2067   2.751   1.143   2.102  0.0212 -0.2774 -0.2760
  690SOL     OW 2068   1.622   1.076   0.794  0.0022  0.3305 -0.0183
  690SOL    HW1 2069   1.709   1.051   0.848  1.5665 -0.7830  2.2320
  690SOL    HW2 2070   1.625   1.023   0.707 -0.2895  1.4604 -3.2502
  691SOL     OW 2071   1.177   1.387   1.324 -0.1876  0.4638 -0.3938
  691SOL    HW1 2072   1.159   1.313   1.256  1.1757  1.9606  3.7346
  691SOL    HW2 2073   1.110   1.371   1.398  1.7896  1.8305 -0.6905
  692SOL     OW 2074   1.594   0.284   2.053 -0.2353 -0.5928 -0.3598
  692SOL    HW1 2075   1.671   0.317   2.111  3.9521  2.0603  0.4254
  692SOL    HW2 2076   1.638   0.247   1.969 -1.5279 -2.6165  1.9129
  693SOL     OW 2077   0.298   1.093   2.979 -0.0538 -0.3163  0.2656
  693SOL    HW1 2078   0.313   1.194   2.990 -0.9235  0.0156  0.8709
  693SOL    HW2 2079   0.358   1.038   3.039 -1.4198  0.4891  0.9301
  694SOL     OW 2080   2.293   2.626   0.667 -0.1081 -0.3840  0.0001
  694SOL    HW1 2081   2.252   2.710   0.708 -1.3912  0.6263  0.6913
  694SOL    HW2 2082   2.246   2.599   0.577 -2.0866 -2.1918 -1.3345
  695SOL     OW 2083   1.710   1.145   2.864  0.7874  0.5465  0.2148
  695SOL    HW1 2084   1.683   1.154   2.962 -3.7543  0.6149  1.1969
  695SOL    HW2 2085   1.784   1.213   2.843 -1.3970 -0.2943 -2.5718
  696SOL     OW 2086   1.549   0.259   1.500 -0.7153 -0.1073  0.1852
  696SOL    HW1 2087   1.523   0.316   1.420 -2.2238 -0.8684 -0.4085
  696SOL    HW2 2088   1.646   0.230   1.498 -1.9360  0.2927 -0.4018
  697SOL     OW 2089   1.352   0.302   1.961 -0.5772 -0.1693 -0.3258
  697SOL    HW1 2090   1.374   0.258   1.871 -1.0672 -1.4802 -1.9632
  697SOL    HW2 2091   1.438   0.308   2.018  0.8845 -3.3839  2.1888
  698SOL     OW 2092   1.953   1.297   2.545 -0.8106  0.1805  0.2581
  698SOL    HW1 2093   1.985   1.382   2.497  2.6697  0.1406  1.3597
  698SOL    HW2 2094   1.863   1.266   2.506  2.1084 -0.2512  0.0254
  699SOL     OW 2095   1.552   1.310   0.835  0.1294 -0.4329 -0.1869
  699SOL    HW1 2096   1.606   1.345   0.915 -3.3469  0.5997 -3.0653
  699SOL    HW2 2097   1.578   1.215   0.807 -0.7398  3.2653  1.1136
  700SOL     OW 2098   1.753   2.971   0.267  0.1006 -0.1599 -0.3492
  700SOL    HW1 2099   1.803   2.885   0.253  2.2163  2.0069 -1.0258
  700SOL    HW2 2100   1.663   2.949   0.314 -0.8425  0.8589  1.4263
  701SOL     OW 2101   0.457   0.073   1.354  0.0011 -0.0534 -0.1942
  701SOL    HW1 2102   0.483   3.107   1.311 -0.1251  1.3152  1.5826
  701SOL    HW2 2103   0.524   0.092   1.437  0.7995  1.8879  2.7807
  702SOL     OW 2104   1.487   2.928   1.190  0.4898  0.1998  0.1031
  702SOL    HW1 2105   1.563   2.973   1.239 -1.0537  0.0227  0.9150
  702SOL    HW2 2106   1.457   2.974   1.102 -1.7582 -0.7139 -2.1452
  703SOL     OW 2107   2.455   3.105   2.105  0.1481  0.2304 -0.7091
  703SOL    HW1 2108   2.465   3.076   2.207 -0.8192 -1.7153  3.0047
  703SOL    HW2 2109   2.547   3.100   2.064 -1.0231  0.6637  1.0448
  704SOL     OW 2110   1.289   1.760   1.008  0.0889  0.4061 -0.0282
  704SOL    HW1 2111   1.207   1.743   0.948 -0.4616  2.8012  2.1607
  704SOL    HW2 2112   1.287   1.700   1.088  0.6371 -0.1215  0.0193
  705SOL     OW 2113   2.898   1.647   2.123 -0.1759  0.2977  0.0142
  705SOL    HW1 2114   2.857   1.740   2.115 -0.2116 -1.3964  0.7472
  705SOL    HW2 2115   2.941   1.629   2.214 -0.3140  0.2263  0.8036
  706SOL     OW 2116   1.508   2.966   0.680 -0.2584 -0.2007  0.1154
  706SOL    HW1 2117   1.428   2.912   0.651 -1.2327  1.7728 -1.6166
  706SOL    HW2 2118   1.514   3.057   0.643  1.3025 -3.8259  2.6012
  707SOL     OW 2119   1.035   2.589   2.511  0.1985 -0.0734 -0.1851
  707SOL    HW1 2120   0.947   2.588   2.462  1.0762 -1.2788  1.9932
  707SOL    HW2 2121   1.063   2.498   2.539 -1.1489 -0.3087  0.0243
  708SOL     OW 2122   0.491   2.326   1.588 -0.3421  0.1102  0.2713
  708SOL    HW1 2123   0.439   2.250   1.637  1.2525  1.0261  0.6669
  708SOL    HW2 2124   0.590   2.314   1.611  1.0878 -0.2484 -1.8254
  709SOL     OW 2125   2.500   0.851   2.013  0.5741 -0.4637 -0.2822
  709SOL    HW1 2126   2.561   0.798   2.058 -2.7313  4.3982 -1.4227
  709SOL    HW2 2127   2.464   0.797   1.935 -0.7359  1.0812  0.8090
  710SOL     OW 2128   3.005   0.471   1.620 -0.1828 -0.2375  0.3246
  710SOL    HW1 2129   3.015   0.481   1.518 -0.1098  2.0202 -0.8070
  710SOL    HW2 2130   3.097   0.468   1.660 -1.3805 -0.6845 -1.2813
  711SOL     OW 2131   2.898   2.329   0.397  0.3529 -0.0954 -0.1023
  711SOL    HW1 2132   2.872   2.355   0.492 -0.6631  0.5891 -0.0361
  711SOL    HW2 2133   2.981   2.385   0.371  4.0190  4.5362  2.1887
  712SOL     OW 2134   0.193   2.605   2.574 -0.5215  0.2343  0.3231
  712SOL    HW1 2135   0.277   2.652   2.603 -3.5329 -2.9828  1.8964
  712SOL    HW2 2136   0.122   2.607   2.648 -1.3737 -1.9442  1.1877
  713SOL     OW 2137   2.106   0.721   3.069  0.4084 -0.0728  0.5965
  713SOL    HW1 2138   2.034   0.796   3.076  1.3198  0.2505 -1.3978
  713SOL    HW2 2139   2.086   0.659   2.988  1.3505 -2.5804 -1.0120
  714SOL     OW 2140   1.397   2.274   0.418 -0.3475 -0.0667 -0.0956
  714SOL    HW1 2141   1.456   2.194   0.431  0.1591 -0.8547  1.2162
  714SOL    HW2 2142   1.414   2.340   0.496 -0.0366 -1.5423  1.9295
  715SOL     OW 2143   3.089   3.082   0.562  0.0190 -0.0559 -0.6916
  715SOL    HW1 2144   3.085   0.061   0.542  1.5453 -0.4911 -0.4116
  715SOL    HW2 2145   0.060   3.050   0.574 -0.3772 -0.0126  1.9728
  716SOL     OW 2146   0.515   0.089   2.221 -0.3251  0.6216  0.1167
  716SOL    HW1 2147   0.426   0.040   2.240  0.0902 -2.2832 -0.6809
  716SOL    HW2 2148   0.552   0.064   2.126  1.7052 -1.6558 -4.7709
  717SOL     OW 2149   0.322   0.439   0.037 -0.0427 -0.0422 -0.3629
  717SOL    HW1 2150   0.353   0.353   3.118 -0.8154  2.4693  2.5309
  717SOL    HW2 2151   0.220   0.444   0.037 -0.4160  2.3015  0.7491
  718SOL     OW 2152   1.121   0.602   0.482  0.4350 -0.5270  0.4062
  718SOL    HW1 2153   1.145   0.646   0.573 -2.4270  0.9353  0.4427
  718SOL    HW2 2154   1.196   0.537   0.465  0.4325  2.9126  0.3440
  719SOL     OW 2155   2.326   2.315   2.792  0.8990  0.2718  0.2046
  719SOL    HW1 2156   2.272   2.397   2.769  1.0424  0.3811 -1.4057
  719SOL    HW2 2157   2.297   2.276   2.882  0.2609 -0.4845  1.2877
  720SOL     OW 2158   1.791   0.881   1.934  0.0101 -0.7311  0.2369
  720SOL    HW1 2159   1.805   0.797   1.881  0.4049 -0.1354  0.7880
  720SOL    HW2 2160   1.806   0.855   2.031  0.2133 -0.3347 -1.8709
  721SOL     OW 2161   2.765   0.204   1.008 -0.1501  0.6755 -0.2924
  721SOL    HW1 2162   2.774   0.306   1.015 -3.3515  0.9881  0.8958
  721SOL    HW2 2163   2.773   0.181   0.912  3.5663  0.7420 -0.0715
  722SOL     OW 2164   1.261   2.183   2.439 -0.3056 -0.9498 -0.0358
  722SOL    HW1 2165   1.349   2.211   2.393 -1.4642  1.1290 -1.5189
  722SOL    HW2 2166   1.277   2.112   2.512 -0.3123  0.1936 -0.3205
  723SOL     OW 2167   1.135   0.252   0.777  0.3614 -0.4443  0.0974
  723SOL    HW1 2168   1.167   0.277   0.868  1.5553 -4.7994  0.8932
  723SOL    HW2 2169   1.211   0.278   0.712  3.2550  2.8040  1.2257
  724SOL     OW 2170   0.875   2.159   2.431 -0.6194 -0.1912 -0.0460
  724SOL    HW1 2171   0.869   2.204   2.522 -3.2942  0.2908 -1.0578
  724SOL    HW2 2172   0.907   2.061   2.424  0.4308 -2.2579  1.0674
  725SOL     OW 2173   0.170   0.641   1.229  0.3749  0.4273  0.4926
  725SOL    HW1 2174   0.114   0.720   1.195  1.4739  1.4806 -2.2257
  725SOL    HW2 2175   0.240   0.618   1.164 -1.7427  0.7580 -0.8267
  726SOL     OW 2176   1.719   0.165   0.530  0.5980 -0.5580  0.2996
  726SOL    HW1 2177   1.757   0.239   0.476 -0.0998 -0.7834  0.5338
  726SOL    HW2 2178   1.777   0.143   0.609  1.2063 -1.3979 -0.4684
  727SOL     OW 2179   2.030   1.039   2.262  0.0215  0.2114  0.3741
  727SOL    HW1 2180   2.026   1.137   2.241  2.8745 -2.2174 -0.8468
  727SOL    HW2 2181   2.100   1.020   2.335 -2.4785 -0.6468 -2.2698
  728SOL     OW 2182   1.733   2.735   1.738  0.0495 -0.0750 -0.2879
  728SOL    HW1 2183   1.659   2.805   1.741 -0.1542  0.2498 -2.7569
  728SOL    HW2 2184   1.794   2.731   1.655  0.9230 -0.6149 -3.5199
  729SOL     OW 2185   1.907   0.399   1.780  0.5195 -0.1554  0.0668
  729SOL    HW1 2186   1.965   0.384   1.865  0.5839  0.6397  0.6035
  729SOL    HW2 2187   1.856   0.491   1.779 -3.1840  2.5934 -0.4434
  730SOL     OW 2188   0.877   1.578   1.478  0.1128  0.2803  0.2234
  730SOL    HW1 2189   0.904   1.674   1.501  0.7528  0.3926  0.2563
  730SOL    HW2 2190   0.872   1.563   1.379 -0.0445  1.1309 -1.2029
  731SOL     OW 2191   0.505   3.016   0.299 -0.6444  0.2534  0.6215
  731SOL    HW1 2192   0.550   3.073   0.368 -1.2637 -1.5498  0.7859
  731SOL    HW2 2193   0.436   3.074   0.251 -0.3877 -0.4670  1.1418
  732SOL     OW 2194   0.556   0.693   0.326  0.1980  0.3929 -0.4889
  732SOL    HW1 2195   0.642   0.642   0.306  0.4018 -0.0325 -2.2588
  732SOL    HW2 2196   0.525   0.691   0.423 -2.2872 -1.3804  0.7813
  733SOL     OW 2197   1.508   1.639   1.919  0.0276  0.0283 -0.5770
  733SOL    HW1 2198   1.458   1.598   1.998 -2.3484 -2.0917  2.1616
  733SOL    HW2 2199   1.485   1.587   1.832 -1.2850  2.2753 -3.0720
  734SOL     OW 2200   3.112   2.475   2.064 -0.6640 -0.3920  0.0238
  734SOL    HW1 2201   0.063   2.492   1.997 -0.1923  0.5405  3.2336
  734SOL    HW2 2202   3.037   2.542   2.053  2.1647 -0.7508  0.7306
  735SOL     OW 2203   1.153   2.958   0.960 -0.1423 -0.2096  0.5578
  735SOL    HW1 2204   1.129   2.862   0.954  0.0192  3.2099  0.8031
  735SOL    HW2 2205   1.247   2.980   0.998  2.7516  1.6112  1.5981
  736SOL     OW 2206   1.204   0.992   2.892  0.0591  0.1360  0.0315
  736SOL    HW1 2207   1.266   0.930   2.947 -2.1674 -2.9059  0.9693
  736SOL    HW2 2208   1.229   1.087   2.920  0.0739 -0.2607  2.6343
  737SOL     OW 2209   0.043   1.057   0.582  0.0912  0.5095 -0.2750
  737SOL    HW1 2210   0.145   1.043   0.606 -0.7166  2.3528 -0.0501
  737SOL    HW2 2211   0.015   0.983   0.516 -1.0680  1.4454 -0.6847
  738SOL     OW 2212   0.362   2.884   1.529 -0.4444  0.1613  0.0982
  738SOL    HW1 2213   0.415   2.791   1.542  4.9876 -6.7567  0.6992
  738SOL    HW2 2214   0.277   2.860   1.481  0.1624  0.4479 -0.9179
  739SOL     OW 2215   1.331   2.731   0.240  0.9918  0.0386  0.3317
  739SOL    HW1 2216   1.397   2.677   0.297  1.7980  0.7475 -4.7147
  739SOL    HW2 2217   1.260   2.672   0.198  0.3097  0.1868 -0.5043
  740SOL     OW 2218   1.708   2.955   1.364  0.2329 -0.0020  0.5315
  740SOL    HW1 2219   1.652   3.010   1.431  3.1644 -0.2895  0.6026
  740SOL    HW2 2220   1.744   2.870   1.405 -1.0123 -0.7844 -0.5568
  741SOL     OW 2221   2.027   0.352   0.695  0.4586 -0.3061  0.0799
  741SOL    HW1 2222   2.026   0.447   0.730 -1.8523 -1.3211  1.6050
  741SOL    HW2 2223   1.947   0.330   0.639  0.6511  1.0143 -2.1556
  742SOL     OW 2224   0.814   2.633   2.356  0.3446  0.2075 -0.1179
  742SOL    HW1 2225   0.712   2.629   2.367  0.4826  2.6038  0.3453
  742SOL    HW2 2226   0.845   2.592   2.266  1.8769  0.0109  1.3844
  743SOL     OW 2227   2.191   0.907   1.886 -0.6048 -0.4560  0.7831
  743SOL    HW1 2228   2.152   0.968   1.811  1.3140  0.4714 -0.9555
  743SOL    HW2 2229   2.261   0.838   1.850 -0.1457 -1.3789 -1.0842
  744SOL     OW 2230   2.208   0.548   0.839  0.0312  0.3173  0.3048
  744SOL    HW1 2231   2.230   0.468   0.897  1.2800  1.1850  1.6584
  744SOL    HW2 2232   2.290   0.588   0.796 -0.3267  3.4572  0.1322
  745SOL     OW 2233   2.189   1.412   1.973 -0.4560  0.5877  0.4225
  745SOL    HW1 2234   2.235   1.346   1.914  0.3230  0.0905 -0.6457
  745SOL    HW2 2235   2.144   1.353   2.048 -1.4308 -1.8307  1.1401
  746SOL     OW 2236   1.420   1.656   0.469 -0.1348 -0.2355 -0.1681
  746SOL    HW1 2237   1.481   1.702   0.537  1.5646 -0.4927  1.5717
  746SOL    HW2 2238   1.432   1.553   0.465 -3.5042 -0.7728  1.1688
  747SOL     OW 2239   2.099   1.462   1.271 -0.2343 -0.4531  0.3406
  747SOL    HW1 2240   2.063   1.523   1.196  1.8924  0.4698 -3.5756
  747SOL    HW2 2241   2.069   1.493   1.365  0.0825 -0.9545  1.0986
  748SOL     OW 2242   0.157   2.728   0.399  0.5234  0.3654 -0.0264
  748SOL    HW1 2243   0.159   2.730   0.501  2.0756  0.5562  0.8672
  748SOL    HW2 2244   0.239   2.775   0.356 -1.0197 -2.5017  1.1612
  749SOL     OW 2245   0.217   0.769   2.384 -0.1393  0.0770  0.3017
  749SOL    HW1 2246   0.298   0.832   2.395  1.4946 -1.5612 -1.2159
  749SOL    HW2 2247   0.132   0.817   2.355 -0.5566 -0.6547  0.2749
  750SOL     OW 2248   1.346   2.896   1.888  0.9490 -0.1451  0.3940
  750SOL    HW1 2249   1.310   2.980   1.838  0.6590  1.0726  0.5702
  750SOL    HW2 2250   1.348   2.915   1.986 -3.0190  1.9285 -0.1213
  751SOL     OW 2251   2.692   0.441   0.384  0.2159  0.3537 -0.7114
  751SOL    HW1 2252   2.596   0.457   0.356  2.5209 -1.2161 -3.4935
  751SOL    HW2 2253   2.699   0.415   0.482  1.1641  2.4735  1.5128
  752SOL     OW 2254   0.200   2.032   0.835  0.6147  0.3843  0.3135
  752SOL    HW1 2255   0.117   1.969   0.852 -3.4185 -0.0415  1.7760
  752SOL    HW2 2256   0.189   2.130   0.858  1.5841 -0.4927 -1.2498
  753SOL     OW 2257   1.092   0.182   1.169  0.6351  0.4032 -0.0269
  753SOL    HW1 2258   1.058   0.122   1.093 -0.4230 -1.9226  1.0334
  753SOL    HW2 2259   1.012   0.190   1.237 -1.3972  0.3022  1.6941
  754SOL     OW 2260   0.631   3.015   2.414 -0.1720 -0.3117 -1.0052
  754SOL    HW1 2261   0.592   3.105   2.386 -2.9392 -0.7757  0.4793
  754SOL    HW2 2262   0.723   2.995   2.376  2.9117 -1.4912 -1.2948
  755SOL     OW 2263   2.240   0.889   0.263  0.3760  0.3697  0.6005
  755SOL    HW1 2264   2.273   0.833   0.338 -0.9449 -0.0267 -0.2902
  755SOL    HW2 2265   2.277   0.851   0.177  0.4178  0.7808 -0.3472
  756SOL     OW 2266   2.200   2.094   2.547  0.3070 -0.1554  0.1019
  756SOL    HW1 2267   2.247   2.012   2.585  1.1775 -2.0668 -1.4816
  756SOL    HW2 2268   2.250   2.178   2.561 -0.3619 -0.2819 -0.5294
  757SOL     OW 2269   1.679   0.421   0.783 -0.2857 -0.1990  0.6821
  757SOL    HW1 2270   1.598   0.367   0.814 -0.8420 -1.3210  0.1691
  757SOL    HW2 2271   1.686   0.426   0.678  2.6915  0.4021 -4.8848
  758SOL     OW 2272   1.649   2.793   0.993 -0.1870 -0.3339  0.0444
  758SOL    HW1 2273   1.715   2.869   0.965  1.3142  1.1183  0.3750
  758SOL    HW2 2274   1.596   2.812   1.077 -2.1610 -2.1256  0.8356
  759SOL     OW 2275   2.740   0.712   1.259  0.8431 -0.1333 -0.4385
  759SOL    HW1 2276   2.668   0.744   1.324  1.6068 -1.3104  5.1799
  759SOL    HW2 2277   2.755   0.615   1.284  1.3218  1.6752 -1.0962
  760SOL     OW 2278   2.385   1.177   1.218  0.9015 -0.0178 -0.1159
  760SOL    HW1 2279   2.475   1.175   1.263  0.1386  2.2668  0.6050
  760SOL    HW2 2280   2.386   1.109   1.138  0.4954 -1.3613  0.5954
  761SOL     OW 2281   0.328   0.474   0.529  0.4556  0.1541  0.3725
  761SOL    HW1 2282   0.333   0.450   0.430  1.3768 -4.2862 -0.6007
  761SOL    HW2 2283   0.407   0.532   0.557  0.8516  1.4316 -1.3507
  762SOL     OW 2284   1.658   2.059   1.392 -0.1938  0.3792  0.3088
  762SOL    HW1 2285   1.740   2.010   1.365 -1.8938  0.3521 -1.5468
  762SOL    HW2 2286   1.627   2.033   1.483  1.2115 -2.7137 -1.4159
  763SOL     OW 2287   1.300   1.373   1.866  0.0281 -0.3881 -0.2853
  763SOL    HW1 2288   1.229   1.444   1.888 -0.8552 -0.9502  0.8010
  763SOL    HW2 2289   1.262   1.280   1.888 -2.5341 -0.0777  0.8423
  764SOL     OW 2290   2.951   1.896   2.397 -0.1648 -0.3233  0.3236
  764SOL    HW1 2291   2.889   1.966   2.350 -2.5286 -0.0381  1.9218
  764SOL    HW2 2292   3.044   1.900   2.353 -2.2016  0.4694 -1.3948
  765SOL     OW 2293   1.722   2.523   1.216 -0.4153 -0.0355  0.0941
  765SOL    HW1 2294   1.721   2.472   1.303  2.0167 -0.7322 -0.1817
  765SOL    HW2 2295   1.786   2.605   1.216  1.0294  0.7178 -1.1849
  766SOL     OW 2296   0.007   2.637   2.768 -0.1405 -0.0911 -0.4890
  766SOL    HW1 2297   3.080   2.696   2.702  1.0075  0.4442  2.6664
  766SOL    HW2 2298   3.086   2.549   2.769  0.0816  3.2365 -0.9015
  767SOL     OW 2299   1.331   0.701   2.343 -0.0806 -0.1605  0.5187
  767SOL    HW1 2300   1.426   0.666   2.364 -0.9325  0.8910  1.3826
  767SOL    HW2 2301   1.270   0.669   2.423  0.9840 -1.7352  0.7709
  768SOL     OW 2302   1.262   2.126   0.107 -0.7125 -0.4788 -0.4467
  768SOL    HW1 2303   1.349   2.154   0.061  1.0897 -1.3081 -2.2179
  768SOL    HW2 2304   1.289   2.083   0.193  1.2116  1.4660 -1.8989
  769SOL     OW 2305   0.493   2.218   1.210 -0.7742  0.1333  0.1283
  769SOL    HW1 2306   0.444   2.135   1.250 -2.2052  0.0201  0.9830
  769SOL    HW2 2307   0.480   2.296   1.275 -0.5921  0.6677  1.2773
  770SOL     OW 2308   1.689   0.633   3.122 -0.0324 -0.4798  0.5323
  770SOL    HW1 2309   1.725   0.561   3.059 -0.3059 -1.2015  0.4982
  770SOL    HW2 2310   1.672   0.712   3.062  2.7081 -2.8597 -0.8375
  771SOL     OW 2311   0.270   3.073   2.303 -0.8518  0.1224  0.6070
  771SOL    HW1 2312   0.245   3.043   2.394  0.5869  1.1909 -3.0478
  771SOL    HW2 2313   0.289   2.986   2.252 -2.4666 -0.1956 -1.3595
  772SOL     OW 2314   2.076   2.888   2.188 -0.2499 -0.6931  0.0639
  772SOL    HW1 2315   2.141   2.804   2.191  0.6508 -2.6360  1.5113
  772SOL    HW2 2316   2.098   2.944   2.103  1.6573  0.1967 -0.4371
  773SOL     OW 2317   1.067   1.848   1.536 -0.1809  0.2492  0.0704
  773SOL    HW1 2318   1.130   1.882   1.606  1.6718 -1.3107 -1.9015
  773SOL    HW2 2319   1.089   1.898   1.449  0.4898 -0.6455  0.8561
  774SOL     OW 2320   1.103   0.148   1.989  0.0598  0.1934 -0.5499
  774SOL    HW1 2321   1.039   0.221   1.963  0.5383  0.3674  0.3124
  774SOL    HW2 2322   1.187   0.191   2.027  1.3179  0.4917  0.0287
  775SOL     OW 2323   2.005   2.931   3.038  0.1660  0.1992  0.0379
  775SOL    HW1 2324   2.024   2.839   2.997 -0.3597  3.5854 -0.5820
  775SOL    HW2 2325   1.908   2.950   3.037  0.9828  1.3819  2.1802
  776SOL     OW 2326   2.735   0.866   2.238 -0.2672 -0.2310  0.5655
  776SOL    HW1 2327   2.823   0.825   2.259 -2.4820  1.0828  0.6739
  776SOL    HW2 2328   2.744   0.931   2.159 -1.3793 -1.1131 -1.2983
  777SOL     OW 2329   2.576   2.363   2.124  0.3187 -0.5608 -0.4028
  777SOL    HW1 2330   2.582   2.285   2.184  0.7317  2.0158 -4.4143
  777SOL    HW2 2331   2.596   2.442   2.185  0.1804 -0.1195  1.4570
  778SOL     OW 2332   1.941   0.735   2.637 -0.3457 -0.1347 -0.0267
  778SOL    HW1 2333   2.028   0.785   2.663 -1.4023 -0.5701 -1.4151
  778SOL    HW2 2334   1.936   0.702   2.543  0.8883  1.6910  1.1686
  779SOL     OW 2335   3.032   0.210   0.448 -0.2292 -0.2714  0.0230
  779SOL    HW1 2336   3.044   0.299   0.496  0.5423  1.4271 -2.5507
  779SOL    HW2 2337   2.949   0.207   0.389 -1.0720  0.2083  1.0328
  780SOL     OW 2338   2.460   0.420   0.036  0.4666  0.3808  0.5381
  780SOL    HW1 2339   2.425   0.326   0.066 -1.4298 -0.0001  1.3610
  780SOL    HW2 2340   2.491   0.469   0.117 -0.8457 -1.6870 -1.5994
  781SOL     OW 2341   0.162   2.836   1.320 -0.2515 -0.3459  0.6497
  781SOL    HW1 2342   0.199   2.819   1.230 -0.5304 -0.7713  2.0718
  781SOL    HW2 2343   0.096   2.758   1.328 -1.8833  0.3418  1.7229
  782SOL     OW 2344   2.151   2.595   0.437 -0.4635  0.3292 -0.3051
  782SOL    HW1 2345   2.196   2.622   0.351  0.2708 -0.1796 -1.2900
  782SOL    HW2 2346   2.061   2.636   0.442  2.8039  1.0116 -0.1300
  783SOL     OW 2347   0.965   1.333   1.486  0.1039  0.4140 -0.1539
  783SOL    HW1 2348   0.921   1.425   1.463 -1.2117  0.6186 -1.7494
  783SOL    HW2 2349   0.918   1.258   1.436 -0.2615  2.2800 -0.0689
  784SOL     OW 2350   1.389   0.582   2.679 -0.3828 -0.2180  0.2187
  784SOL    HW1 2351   1.315   0.563   2.610 -2.7957 -1.2340 -1.7336
  784SOL    HW2 2352   1.420   0.677   2.666 -1.4803 -0.3028  0.3505
  785SOL     OW 2353   2.364   0.449   1.179 -0.0131  0.4103  0.4909
  785SOL    HW1 2354   2.406   0.453   1.268 -1.9419  1.2843 -0.9080
  785SOL    HW2 2355   2.301   0.368   1.172 -0.6352  0.1829  0.5111
  786SOL     OW 2356   1.072   2.526   1.929  0.0739 -0.3805  0.3049
  786SOL    HW1 2357   1.154   2.565   1.886 -0.5143 -2.0902 -1.4101
  786SOL    HW2 2358   1.052   2.427   1.903 -0.4482  0.0758  0.4869
  787SOL     OW 2359   1.743   0.298   1.005 -0.3197  0.5026  0.0073
  787SOL    HW1 2360   1.786   0.366   1.065 -3.0369  0.5342 -0.9806
  787SOL    HW2 2361   1.735   0.342   0.915 -0.8300 -0.3893  2.0206
  788SOL     OW 2362   0.294   1.037   0.658 -0.6126 -0.0753 -0.0091
  788SOL    HW1 2363   0.323   1.100   0.732  0.8436  0.7780 -1.3807
  788SOL    HW2 2364   0.362   1.021   0.582 -0.7992 -0.7557 -0.5791
  789SOL     OW 2365   0.799   1.849   1.550  0.2522  0.9294  0.2276
  789SOL    HW1 2366   0.894   1.887   1.572  1.1756 -0.0094 -1.8015
  789SOL    HW2 2367   0.741   1.846   1.634 -0.4785 -0.6898  2.0489
  790SOL     OW 2368   0.632   0.777   2.515 -0.5396  0.1038 -0.1568
  790SOL    HW1 2369   0.677   0.801   2.606 -0.2610 -1.6689 -0.9773
  790SOL    HW2 2370   0.576   0.857   2.477  4.0042  1.3821 -1.3743
  791SOL     OW 2371   1.936   0.667   0.859  0.2258 -0.3439  0.1469
  791SOL    HW1 2372   1.927   0.665   0.760 -2.3263 -0.7447 -1.2714
  791SOL    HW2 2373   2.036   0.681   0.883 -1.2942 -3.2656  0.6055
  792SOL     OW 2374   0.913   2.674   1.779 -0.1147  0.1466  0.1752
  792SOL    HW1 2375   0.902   2.774   1.801 -1.7336 -0.2566  1.6654
  792SOL    HW2 2376   0.970   2.624   1.848 -0.3227  2.2565  0.0829
  793SOL     OW 2377   0.616   0.007   0.527  0.1469 -0.5637  0.2770
  793SOL    HW1 2378   0.630   0.106   0.539  0.5831 -1.3483 -0.5170
  793SOL    HW2 2379   0.693   3.079   0.564  3.1872  2.2382  0.1402
  794SOL     OW 2380   0.327   1.480   1.802  0.1274 -0.2261  0.1401
  794SOL    HW1 2381   0.280   1.462   1.891 -0.7534 -1.1329 -1.5092
  794SOL    HW2 2382   0.254   1.515   1.728 -2.3697  2.1709 -5.7187
  795SOL     OW 2383   0.176   2.203   2.179  0.3758  0.1552  0.0155
  795SOL    HW1 2384   0.183   2.261   2.262 -0.4879 -0.6494  0.7741
  795SOL    HW2 2385   0.178   2.105   2.194  2.6801  2.7643  1.0905
  796SOL     OW 2386   2.303   0.436   2.068 -0.0555  0.4333  0.1477
  796SOL    HW1 2387   2.370   0.362   2.088  2.3221 -0.0129 -0.7575
  796SOL    HW2 2388   2.297   0.495   2.150  0.6587  0.4624 -1.3556
  797SOL     OW 2389   2.560   2.578   2.772  0.2757 -0.3481 -0.2168
  797SOL    HW1 2390   2.563   2.631   2.687 -1.2170  0.5277  0.2648
  797SOL    HW2 2391   2.631   2.506   2.764 -0.6481 -0.1267 -1.4454
  798SOL     OW 2392   3.023   0.023   2.166 -0.1652 -0.3280  0.2274
  798SOL    HW1 2393   3.029   0.038   2.269  1.6008  1.3446  0.0333
  798SOL    HW2 2394   3.026   0.113   2.119  1.1950  0.7496  2.0801
  799SOL     OW 2395   0.127   2.652   2.295  0.0788 -0.1512 -0.4073
  799SOL    HW1 2396   0.169   2.604   2.376 -2.3488 -0.4811  1.5010
  799SOL    HW2 2397   0.070   2.583   2.247 -0.4543  0.6657  0.8521
  800SOL     OW 2398   3.053   1.955   3.050  0.1708 -0.1946 -0.2492
  800SOL    HW1 2399   2.997   2.039   3.082 -0.5487  1.5062  1.9346
  800SOL    HW2 2400   3.114   1.932   0.007  3.1322  0.5464  3.0844
  801SOL     OW 2401   1.617   1.255   1.476 -0.1395  0.2194 -0.1356
  801SOL    HW1 2402   1.625   1.160   1.441 -1.1454  1.0259  0.1433
  801SOL    HW2 2403   1.527   1.299   1.463  2.8343  0.4150  1.2562
  802SOL     OW 2404   0.198   1.490   0.669  0.6919 -0.1913 -0.9635
  802SOL    HW1 2405   0.168   1.556   0.746  1.3776  2.0979  3.3126
  802SOL    HW2 2406   0.268   1.426   0.707  3.1663  0.6533 -0.3419
  803SOL     OW 2407   1.143   1.820   2.048  0.5582  0.2261 -0.7361
  803SOL    HW1 2408   1.168   1.865   1.962  0.4200 -3.0105  1.6965
  803SOL    HW2 2409   1.155   1.873   2.134  1.8966 -0.0372  0.1964
  804SOL     OW 2410   1.805   1.641   0.954  0.3784 -0.2425  0.0906
  804SOL    HW1 2411   1.821   1.722   1.016  1.1935 -0.4142 -0.2902
  804SOL    HW2 2412   1.871   1.651   0.876  2.3182  0.0314 -2.0851
  805SOL     OW 2413   2.867   1.174   0.012 -0.7087 -0.0523  0.3991
  805SOL    HW1 2414   2.829   1.122   3.056  0.9561  0.0762  2.1522
  805SOL    HW2 2415   2.955   1.215   3.097  1.3497  0.3423  0.3131
  806SOL     OW 2416   0.430   2.523   0.312  0.0286 -0.0952  0.4752
  806SOL    HW1 2417   0.519   2.503   0.271  1.1233 -0.3904 -1.1499
  806SOL    HW2 2418   0.412   2.623   0.304 -0.5093  0.9902  0.2836
  807SOL     OW 2419   2.323   1.580   2.972  0.4653  0.2775 -0.6125
  807SOL    HW1 2420   2.236   1.527   2.981  1.9071  1.5376  0.1614
  807SOL    HW2 2421   2.300   1.672   2.944 -0.5231 -0.5872  0.1803
  808SOL     OW 2422   1.207   1.656   1.238  0.2516  0.1617  0.2537
  808SOL    HW1 2423   1.202   1.581   1.307 -0.0427  1.1989  0.9054
  808SOL    HW2 2424   1.120   1.676   1.190  0.1500 -1.3371 -0.6419
  809SOL     OW 2425   2.924   0.599   0.428  0.2294 -0.4735 -0.3392
  809SOL    HW1 2426   2.968   0.547   0.505 -0.0587 -0.1728 -0.5054
  809SOL    HW2 2427   2.833   0.566   0.403  1.3177 -0.5508  0.5774
  810SOL     OW 2428   0.715   1.594   0.721 -0.2730  0.0992 -0.0195
  810SOL    HW1 2429   0.751   1.648   0.795 -0.2624 -2.0191 -1.1526
  810SOL    HW2 2430   0.788   1.539   0.681  0.3593 -1.3106  0.1872
  811SOL     OW 2431   1.855   2.724   1.437 -0.1009  0.1870 -0.1326
  811SOL    HW1 2432   1.864   2.724   1.335 -2.2641 -1.7950 -2.3120
  811SOL    HW2 2433   1.943   2.704   1.484  0.0222  1.4259  1.7534
  812SOL     OW 2434   1.421   2.715   1.364 -0.6903 -0.4962  0.9378
  812SOL    HW1 2435   1.468   2.782   1.301 -2.2716 -0.0063  2.6160
  812SOL    HW2 2436   1.320   2.729   1.349  0.0165  1.4883  0.7255
  813SOL     OW 2437   0.877   2.963   1.538  0.4220 -0.3351 -0.0560
  813SOL    HW1 2438   0.804   2.894   1.534  1.0539 -0.1164 -0.9897
  813SOL    HW2 2439   0.853   3.047   1.488  0.7449 -1.0323 -0.9753
  814SOL     OW 2440   0.884   2.934   2.337  0.2675  0.0065 -0.3709
  814SOL    HW1 2441   0.944   2.986   2.271  2.1403 -0.8027 -1.4819
  814SOL    HW2 2442   0.867   2.841   2.303  0.8933 -0.5266  0.2293
  815SOL     OW 2443   0.773   0.113   2.745  0.2449  0.2427 -0.6633
  815SOL    HW1 2444   0.672   0.099   2.763  2.2168 -0.5984 -1.4419
  815SOL    HW2 2445   0.795   0.176   2.670 -4.0735 -2.6235  0.1072
  816SOL     OW 2446   2.412   0.411   2.876 -0.5354 -0.5439 -0.2131
  816SOL    HW1 2447   2.397   0.431   2.978 -1.5104  1.3067  1.3683
  816SOL    HW2 2448   2.341   0.457   2.823  0.6628  0.1477  0.5270
  817SOL     OW 2449   2.331   2.963   1.769  0.2436 -0.7964 -0.6027
  817SOL    HW1 2450   2.415   3.018   1.755 -1.0888 -1.3742 -1.5424
  817SOL    HW2 2451   2.357   2.872   1.795 -1.7557 -0.1773 -0.1358
  818SOL     OW 2452   1.045   0.715   0.236  0.3019 -0.0798 -0.3858
  818SOL    HW1 2453   0.948   0.751   0.238 -2.3020  2.1347 -3.8220
  818SOL    HW2 2454   1.062   0.678   0.328  0.1994  0.6566 -0.8470
  819SOL     OW 2455   1.954   1.610   2.704 -0.4198  0.3327  0.7979
  819SOL    HW1 2456   1.873   1.670   2.682 -0.0693  1.2712  2.1205
  819SOL    HW2 2457   2.005   1.578   2.618  0.1732 -2.3174 -0.7009
  820SOL     OW 2458   0.018   1.555   2.599 -0.5814 -0.6357 -0.5848
  820SOL    HW1 2459   0.078   1.477   2.572 -0.0227 -1.7118  1.3630
  820SOL    HW2 2460   0.073   1.626   2.645  0.4318  0.9485 -0.7676
  821SOL     OW 2461   0.134   2.755   0.690  0.1124 -0.2316 -0.0899
  821SOL    HW1 2462   0.210   2.823   0.714  1.3742  1.6411  1.1774
  821SOL    HW2 2463   0.065   2.758   0.763  2.3835  0.3984 -0.6826
  822SOL     OW 2464   2.254   2.580   2.732 -0.4032  0.3462  0.2991
  822SOL    HW1 2465   2.224   2.592   2.637  1.2340  0.8641  0.4122
  822SOL    HW2 2466   2.354   2.585   2.745  1.7405  3.2259  1.0866
  823SOL     OW 2467   1.522   0.037   2.234 -0.2716 -0.3191 -0.2040
  823SOL    HW1 2468   1.551   0.121   2.181  0.6357  0.4735 -0.2894
  823SOL    HW2 2469   1.455   3.110   2.181  1.4114 -1.7315 -1.1918
  824SOL     OW 2470   2.814   2.534   2.270 -0.1366  0.2175  0.3975
  824SOL    HW1 2471   2.840   2.590   2.187  2.1641  0.0557  3.1463
  824SOL    HW2 2472   2.854   2.567   2.360 -1.2932  2.7093  2.1041
  825SOL     OW 2473   2.991   2.268   2.547 -0.0091 -0.0134 -0.1474
  825SOL    HW1 2474   2.909   2.208   2.563 -0.1204  1.3209  0.3989
  825SOL    HW2 2475   3.007   2.282   2.451  0.6865  2.7510  2.2591
  826SOL     OW 2476   2.249   0.459   2.472  0.4250  0.6037  0.2492
  826SOL    HW1 2477   2.251   0.495   2.568  0.3773 -0.9617 -2.1759
  826SOL    HW2 2478   2.292   0.522   2.406 -1.8752 -0.0170  0.5213
  827SOL     OW 2479   2.742   2.068   1.517 -0.2853 -0.2737  0.7200
  827SOL    HW1 2480   2.673   2.112   1.581  1.5314 -0.5750  0.3436
  827SOL    HW2 2481   2.699   1.996   1.456 -2.0321 -0.4868  1.1512
  828SOL     OW 2482   2.882   0.281   1.757 -0.0921  0.6419  0.1565
  828SOL    HW1 2483   2.953   0.209   1.760  0.5074  1.6519  2.3000
  828SOL    HW2 2484   2.917   0.362   1.703  0.5678  1.0467  2.6644
  829SOL     OW 2485   0.922   1.893   2.684 -0.0285  0.1560 -0.8956
  829SOL    HW1 2486   0.833   1.936   2.683  0.2581 -0.7083  1.6004
  829SOL    HW2 2487   0.947   1.863   2.594  0.1703  2.2543  1.8584
  830SOL     OW 2488   0.884   0.888   0.984 -0.0824 -0.3427  0.1532
  830SOL    HW1 2489   0.945   0.897   1.064  0.1697  1.7578  1.2222
  830SOL    HW2 2490   0.835   0.975   0.969 -1.6169 -0.2076  1.6533
  831SOL     OW 2491   2.835   1.595   2.889 -0.5362  0.1979  0.1517
  831SOL    HW1 2492   2.898   1.603   2.966 -2.5355  3.1327 -1.8584
  831SOL    HW2 2493   2.747   1.555   2.921  2.5349  1.4093 -0.5634
  832SOL     OW 2494   1.743   2.476   2.394 -0.0912  0.4411  0.2215
  832SOL    HW1 2495   1.788   2.488   2.302  1.4408  1.6971 -3.2636
  832SOL    HW2 2496   1.691   2.559   2.418  1.6103 -1.6919 -1.7444
  833SOL     OW 2497   0.875   0.342   1.956 -0.3135  0.0420 -0.1034
  833SOL    HW1 2498   0.946   0.411   1.940 -2.0580 -2.4179 -2.7312
  833SOL    HW2 2499   0.849   0.352   2.054  0.5220 -2.5465 -2.2472
  834SOL     OW 2500   0.179   0.297   1.467  0.1724  0.2991  0.1607
  834SOL    HW1 2501   0.092   0.300   1.410 -2.0848 -1.1128  1.5286
  834SOL    HW2 2502   0.153   0.319   1.567 -1.5832  2.6836  0.4491
  835SOL     OW 2503   2.823   0.392   0.143 -0.4238  0.8790  0.0363
  835SOL    HW1 2504   2.770   0.414   0.223  1.2810  0.5386 -3.8826
  835SOL    HW2 2505   2.845   0.478   0.091  2.3500  1.6677  3.2342
  836SOL     OW 2506   1.627   1.935   0.163  0.0818  0.2683  0.1368
  836SOL    HW1 2507   1.609   2.035   0.149 -1.6481 -1.7866 -1.6608
  836SOL    HW2 2508   1.620   1.897   0.259  0.6512  1.6774 -2.1965
  837SOL     OW 2509   1.892   1.707   0.697  0.0487 -0.3019 -0.2768
  837SOL    HW1 2510   1.974   1.653   0.722 -1.8895  1.9220  0.1710
  837SOL    HW2 2511   1.925   1.770   0.626  1.6060 -2.6412  1.4634
  838SOL     OW 2512   1.607   0.699   2.400 -0.1278  0.1137  0.3050
  838SOL    HW1 2513   1.560   0.768   2.460 -1.4576  0.7772  1.7714
  838SOL    HW2 2514   1.694   0.732   2.356  0.8575 -1.7858  1.5317
  839SOL     OW 2515   0.775   1.299   2.170 -0.3817  0.2607 -0.4621
  839SOL    HW1 2516   0.709   1.359   2.221  0.9539  2.1377 -1.7438
  839SOL    HW2 2517   0.849   1.266   2.232  0.9111  1.2369  0.4575
  840SOL     OW 2518   1.170   1.730   0.429 -0.0314 -0.0716 -0.3197
  840SOL    HW1 2519   1.153   1.807   0.491  0.3072 -1.9720 -0.9418
  840SOL    HW2 2520   1.269   1.700   0.442  0.9161 -1.1394  1.6574
  841SOL     OW 2521   1.495   2.416   0.620  0.5133 -0.1824 -0.1826
  841SOL    HW1 2522   1.598   2.419   0.616 -0.2650  2.7610  0.0324
  841SOL    HW2 2523   1.471   2.375   0.711 -0.6256  1.1220 -1.9831
  842SOL     OW 2524   0.357   0.344   0.292 -0.4481  0.4834  0.1749
  842SOL    HW1 2525   0.438   0.285   0.283  1.1998  0.3051 -0.5188
  842SOL    HW2 2526   0.348   0.394   0.205  0.4294 -1.7027  4.4723
  843SOL     OW 2527   0.695   0.284   0.653 -0.5640  0.6398  0.3402
  843SOL    HW1 2528   0.602   0.282   0.682  2.7246  0.8120  0.8967
  843SOL    HW2 2529   0.728   0.379   0.647  1.8758  0.0791  0.7230
  844SOL     OW 2530   2.778   0.105   2.925  0.4527  0.3026 -0.0078
  844SOL    HW1 2531   2.689   0.055   2.910 -1.9235  0.9874 -0.9856
  844SOL    HW2 2532   2.859   0.048   2.943 -2.4174 -0.1773 -0.2581
  845SOL     OW 2533   2.996   2.450   1.680 -0.6484  0.4606  0.0386
  845SOL    HW1 2534   2.978   2.403   1.767  0.0006  0.5744 -2.2313
  845SOL    HW2 2535   2.956   2.394   1.603 -2.8101 -0.9322 -0.4975
  846SOL     OW 2536   2.491   1.615   2.284 -0.1039 -0.6121  0.3975
  846SOL    HW1 2537   2.577   1.571   2.302 -0.2810  0.2387 -1.5924
  846SOL    HW2 2538   2.470   1.609   2.187 -1.7700  0.7997  3.2028
  847SOL     OW 2539   1.200   0.762   1.927  0.2240  0.2847  0.0553
  847SOL    HW1 2540   1.179   0.675   1.971  1.4145  0.6866 -0.1484
  847SOL    HW2 2541   1.192   0.737   1.826 -2.3799 -2.1905  0.3363
  848SOL     OW 2542   2.649   2.972   2.733 -0.2317 -0.2039 -0.3034
  848SOL    HW1 2543   2.694   2.932   2.815 -2.0008  1.0986  1.6048
  848SOL    HW2 2544   2.580   3.043   2.765 -3.0791 -0.0636  1.3598
  849SOL     OW 2545   0.245   2.804   0.014  0.4241  0.4636 -0.0622
  849SOL    HW1 2546   0.227   2.895   3.096  1.6890 -0.8018 -1.4902
  849SOL    HW2 2547   0.197   2.723   3.094 -1.2644 -0.2618 -1.5560
  850SOL     OW 2548   1.138   2.665   0.942 -0.0261  0.1168 -0.8300
  850SOL    HW1 2549   1.238   2.647   0.930 -2.0420 -0.7445  0.3978
  850SOL    HW2 2550   1.084   2.621   0.871  1.1854  1.5789 -0.3100
  851SOL     OW 2551   2.607   0.479   2.227  0.1589 -0.5826 -0.2124
  851SOL    HW1 2552   2.559   0.404   2.179  3.8451 -0.6450  2.2930
  851SOL    HW2 2553   2.701   0.489   2.191  0.1156  0.0781  1.3552
  852SOL     OW 2554   1.189   0.241   2.546  0.3362  0.2222 -0.1626
  852SOL    HW1 2555   1.272   0.196   2.516 -0.4859 -0.9716 -0.7494
  852SOL    HW2 2556   1.194   0.241   2.646  0.3020 -2.4901 -0.9717
  853SOL     OW 2557   3.091   2.534   0.359  0.4053 -0.1059  0.1035
  853SOL    HW1 2558   3.031   2.590   0.415  0.5179 -2.2546  0.1151
  853SOL    HW2 2559   0.062   2.579   0.365  0.5879 -0.5199 -0.6108
  854SOL     OW 2560   2.298   0.606   2.257 -0.2277 -0.8631  0.3356
  854SOL    HW1 2561   2.403   0.616   2.265  3.1550 -1.0705  0.2240
  854SOL    HW2 2562   2.252   0.690   2.215 -0.5047  0.1675  2.0359
  855SOL     OW 2563   0.653   2.450   0.175  0.0910 -0.6850  0.2803
  855SOL    HW1 2564   0.725   2.390   0.214  1.1840  0.2767  0.9213
  855SOL    HW2 2565   0.690   2.544   0.147  2.6431  1.1566  1.4644
  856SOL     OW 2566   3.019   3.090   2.713  0.3411  0.1475 -0.5245
  856SOL    HW1 2567   3.113   0.005   2.726  1.0503  1.3435 -0.3033
  856SOL    HW2 2568   2.979   3.065   2.799  0.8420  4.0748  1.8019
  857SOL     OW 2569   1.156   2.848   1.428  0.3067  0.1034 -0.2237
  857SOL    HW1 2570   1.097   2.818   1.506 -1.6076  0.5162  0.1831
  857SOL    HW2 2571   1.117   2.814   1.339  0.3356 -0.0524  1.9991
  858SOL     OW 2572   2.589   2.229   1.648  0.0141 -0.0482  0.4602
  858SOL    HW1 2573   2.614   2.259   1.746  3.1942  0.6433 -0.3982
  858SOL    HW2 2574   2.490   2.206   1.637  3.5077 -0.9529 -0.2667
  859SOL     OW 2575   1.894   2.345   1.892 -0.3280 -0.1985 -0.0961
  859SOL    HW1 2576   1.955   2.268   1.908 -1.2161  0.8750  1.8147
  859SOL    HW2 2577   1.814   2.338   1.955 -4.2141 -0.9473  1.2245
  860SOL     OW 2578   1.960   0.017   0.244  0.0731  0.1897  0.3962
  860SOL    HW1 2579   1.950   0.118   0.220  0.2143  0.2841  1.7179
  860SOL    HW2 2580   1.872   3.093   0.262 -0.6351  0.8983  0.0478
  861SOL     OW 2581   2.683   0.367   0.650 -0.2535  0.2705  0.0986
  861SOL    HW1 2582   2.756   0.303   0.685  0.6631 -2.6299 -2.0684
  861SOL    HW2 2583   2.587   0.353   0.686 -0.4444 -1.4955  2.2118
  862SOL     OW 2584   0.921   2.609   2.773 -0.3360  0.0133  0.4084
  862SOL    HW1 2585   0.973   2.651   2.850 -0.1491  1.3536  1.5843
  862SOL    HW2 2586   0.978   2.615   2.687 -0.7254 -0.7443 -3.5836
  863SOL     OW 2587   0.614   0.537   1.368 -0.2899  1.2597  0.0519
  863SOL    HW1 2588   0.665   0.532   1.280  0.7844 -0.0740 -1.7875
  863SOL    HW2 2589   0.525   0.493   1.351  2.0353  1.9063 -1.5084
  864SOL     OW 2590   3.030   0.052   1.758  0.0932  0.2564 -0.3673
  864SOL    HW1 2591   3.120   0.026   1.793  0.6386 -0.7026 -0.3151
  864SOL    HW2 2592   2.958   3.108   1.774 -0.9038  0.8588 -0.0729
  865SOL     OW 2593   0.500   1.385   2.915  0.2123 -0.2630 -0.5790
  865SOL    HW1 2594   0.586   1.330   2.923 -0.6306 -0.7920 -0.9100
  865SOL    HW2 2595   0.439   1.376   2.998 -1.3285  2.2151 -1.5328
  866SOL     OW 2596   3.076   0.288   0.162 -0.0195 -0.2645 -0.6136
  866SOL    HW1 2597   3.117   0.326   0.077  1.1706  0.2768 -2.3192
  866SOL    HW2 2598   2.979   0.315   0.185 -1.6924 -0.0437  3.5629
  867SOL     OW 2599   2.757   2.875   2.952 -0.0450  0.6432 -0.0139
  867SOL    HW1 2600   2.750   2.777   2.976  1.2633  0.6272 -2.6323
  867SOL    HW2 2601   2.826   2.927   3.010  1.0311 -1.2716 -1.4360
  868SOL     OW 2602   1.276   0.852   0.179 -0.1612 -0.2497  0.0641
  868SOL    HW1 2603   1.185   0.809   0.191 -1.3910 -0.9931  2.2069
  868SOL    HW2 2604   1.313   0.856   0.275  0.4927  0.2616 -0.0776
  869SOL     OW 2605   2.626   1.382   0.660  0.5222 -0.2694  0.1817
  869SOL    HW1 2606   2.580   1.454   0.602  1.8312 -1.1319 -1.9959
  869SOL    HW2 2607   2.688   1.422   0.733  0.5074 -1.2428  0.8293
  870SOL     OW 2608   2.508   1.574   0.496  0.0559  0.2275 -0.3762
  870SOL    HW1 2609   2.527   1.571   0.397  0.8005 -0.0312  3.6083
  870SOL    HW2 2610   2.411   1.606   0.512  1.2113 -1.0827 -2.5211
  871SOL     OW 2611   1.445   1.379   0.612  0.1538  0.7484  0.4534
  871SOL    HW1 2612   1.361   1.327   0.616  0.5567 -2.8861 -1.7495
  871SOL    HW2 2613   1.489   1.369   0.701 -0.0645 -1.1798 -0.4276
  872SOL     OW 2614   1.477   1.771   1.628 -0.6637 -0.2326  0.0785
  872SOL    HW1 2615   1.481   1.694   1.694  0.2321  3.7621 -0.3769
  872SOL    HW2 2616   1.504   1.739   1.534  0.9520  1.4540 -0.1868
  873SOL     OW 2617   0.892   1.882   2.406 -0.6480 -0.1335 -0.3102
  873SOL    HW1 2618   0.879   1.893   2.308  0.0740  2.0612 -1.3752
  873SOL    HW2 2619   0.911   1.781   2.418  0.3299  2.1476 -0.3399
  874SOL     OW 2620   0.981   1.788   1.159 -0.3932  0.4436  0.2603
  874SOL    HW1 2621   0.973   1.843   1.070 -0.5317  0.1626 -1.0461
  874SOL    HW2 2622   0.910   1.722   1.182  0.9736  2.2641  3.1449
  875SOL     OW 2623   2.139   0.310   1.123  0.3249 -0.2370  0.0753
  875SOL    HW1 2624   2.123   0.227   1.183 -2.0905  2.9477 -1.5228
  875SOL    HW2 2625   2.057   0.372   1.115 -0.2301  1.9819 -2.2253
  876SOL     OW 2626   0.732   0.500   0.314 -0.3551 -0.1845 -0.2823
  876SOL    HW1 2627   0.783   0.513   0.405 -0.2749  1.1139  0.5941
  876SOL    HW2 2628   0.807   0.475   0.253 -4.3547  1.1285  0.1751
  877SOL     OW 2629   3.092   0.490   1.367 -0.0661 -0.5636 -0.2626
  877SOL    HW1 2630   3.010   0.478   1.310 -1.6545 -1.2448 -0.7569
  877SOL    HW2 2631   0.042   0.528   1.310 -2.8010 -2.3091  0.1333
  878SOL     OW 2632   1.923   2.159   0.212  0.2861 -0.0412 -0.1465
  878SOL    HW1 2633   1.903   2.249   0.172  0.3863  0.0263 -1.0429
  878SOL    HW2 2634   1.927   2.082   0.144  0.8415  2.2828 -1.2252
  879SOL     OW 2635   2.640   1.863   1.378  0.2808  0.0501  0.4849
  879SOL    HW1 2636   2.539   1.852   1.373  1.3467 -2.4793  0.7023
  879SOL    HW2 2637   2.676   1.800   1.452 -0.2682 -0.1406  0.8925
  880SOL     OW 2638   1.316   3.069   1.342 -0.0076  0.0549  0.2341
  880SOL    HW1 2639   1.368   2.993   1.294  1.0831 -1.3134 -1.8764
  880SOL    HW2 2640   1.246   3.027   1.408 -0.1388 -2.2254  0.6783
  881SOL     OW 2641   1.008   2.186   3.121 -0.2568 -0.7862 -0.0880
  881SOL    HW1 2642   0.947   2.195   0.079 -0.4198 -0.1095 -0.7676
  881SOL    HW2 2643   1.106   2.161   0.032  1.4388 -2.5449 -0.6383
  882SOL     OW 2644   2.196   0.835   2.177 -0.1249 -0.6024 -0.2429
  882SOL    HW1 2645   2.158   0.910   2.238 -0.6089  0.6617 -3.6791
  882SOL    HW2 2646   2.194   0.864   2.076 -1.8407  0.8242  0.4854
  883SOL     OW 2647   0.983   0.135   2.390  0.0008  0.2011  0.0443
  883SOL    HW1 2648   1.060   0.196   2.419  2.2280 -0.4404 -0.0285
  883SOL    HW2 2649   0.896   0.165   2.433 -2.1255  1.0081  1.5060
  884SOL     OW 2650   2.759   0.132   0.331 -0.1452  0.3444  0.1802
  884SOL    HW1 2651   2.686   0.160   0.403  0.2037 -1.3291 -1.6903
  884SOL    HW2 2652   2.723   0.136   0.237  1.6685 -1.0318  0.3715
  885SOL     OW 2653   0.834   1.616   3.073  0.5365  0.2568  0.0740
  885SOL    HW1 2654   0.893   1.648   2.994 -1.0594  0.9553 -3.3002
  885SOL    HW2 2655   0.736   1.598   3.044  0.0881  1.3673 -0.7621
  886SOL     OW 2656   1.910   1.339   2.809  0.4622 -0.2130  0.3275
  886SOL    HW1 2657   1.938   1.319   2.711  2.5864  0.5127 -1.9820
  886SOL    HW2 2658   1.917   1.440   2.825  0.6673 -0.8860 -0.1764
  887SOL     OW 2659   1.457   0.544   1.811  0.3023  0.1506  0.7396
  887SOL    HW1 2660   1.411   0.461   1.848  0.8156 -0.7312  2.7799
  887SOL    HW2 2661   1.506   0.591   1.887 -1.2752  4.1618  2.2225
  888SOL     OW 2662   3.024   0.710   1.817  0.9230 -0.0588  0.8303
  888SOL    HW1 2663   3.039   0.797   1.764  1.4169 -0.3538 -0.8594
  888SOL    HW2 2664   3.031   0.628   1.755 -1.7314 -0.5384 -1.1488
  889SOL     OW 2665   2.977   2.650   0.649 -0.0504 -0.2524 -0.2953
  889SOL    HW1 2666   2.920   2.669   0.733  0.7271 -0.4557  1.3290
  889SOL    HW2 2667   3.066   2.700   0.651  0.7991  0.0296 -1.1539
  890SOL     OW 2668   2.822   2.624   0.022  0.5644 -0.1968  0.1885
  890SOL    HW1 2669   2.800   2.572   0.104  1.0063  0.1913 -0.9894
  890SOL    HW2 2670   2.917   2.669   0.027  1.6315  2.1052  1.6325
  891SOL     OW 2671   0.970   1.695   2.855  0.1911  0.4132  0.4143
  891SOL    HW1 2672   0.942   1.616   2.798 -2.2397  1.1340 -3.9635
  891SOL    HW2 2673   0.959   1.779   2.802  0.6472  1.1313  1.1688
  892SOL     OW 2674   2.944   2.883   1.031  0.3516 -0.2808  0.1154
  892SOL    HW1 2675   2.950   2.889   0.926  0.7103  0.0269 -0.4705
  892SOL    HW2 2676   2.973   2.973   1.067 -0.8040 -0.9496 -0.2442
  893SOL     OW 2677   0.799   2.906   1.099 -0.2176  0.1993 -0.1325
  893SOL    HW1 2678   0.825   2.846   1.019  0.5298  1.5452  0.8671
  893SOL    HW2 2679   0.767   2.998   1.075 -0.8604 -0.1384 -0.3884
  894SOL     OW 2680   3.073   1.292   0.871 -0.0939 -0.6650  0.3325
  894SOL    HW1 2681   3.080   1.374   0.930 -0.1369 -0.0472 -3.5790
  894SOL    HW2 2682   3.058   1.312   0.775  1.4070  0.1989  1.5857
  895SOL     OW 2683   2.641   2.828   1.724 -0.0478 -0.3102  0.0913
  895SOL    HW1 2684   2.609   2.925   1.741 -2.2513 -1.3287  0.6858
  895SOL    HW2 2685   2.699   2.825   1.639  2.6382  0.7686  0.4980
  896SOL     OW 2686   1.107   3.110   1.562  0.1333  0.3124  0.1231
  896SOL    HW1 2687   1.025   3.051   1.548 -1.9162 -1.7203 -0.2683
  896SOL    HW2 2688   1.159   3.074   1.638 -0.5901  0.3403 -0.3989
  897SOL     OW 2689   0.861   1.618   1.757 -0.2827 -0.2323  0.5528
  897SOL    HW1 2690   0.867   1.589   1.662 -2.0886  1.8432  1.7788
  897SOL    HW2 2691   0.790   1.683   1.782  2.1675  0.5154 -0.5015
  898SOL     OW 2692   1.290   2.618   1.804  0.3198  0.5021 -0.2900
  898SOL    HW1 2693   1.301   2.716   1.809 -0.4571 -2.0107 -1.4620
  898SOL    HW2 2694   1.326   2.583   1.713 -0.7201 -1.5914 -4.1326
  899SOL     OW 2695   0.828   0.535   0.572 -0.5408  0.1098 -0.3029
  899SOL    HW1 2696   0.794   0.578   0.659 -0.9040  1.0384  0.7058
  899SOL    HW2 2697   0.929   0.546   0.554  0.0435  0.3991 -2.1490
  900SOL     OW 2698   1.457   2.548   1.983 -0.2226  0.3647 -0.3701
  900SOL    HW1 2699   1.403   2.573   1.907 -1.1371 -2.3144  3.1029
  900SOL    HW2 2700   1.398   2.537   2.066  0.1474 -1.3082 -0.2540
  901SOL     OW 2701   0.782   2.194   2.975 -0.1712  0.3521 -0.5833
  901SOL    HW1 2702   0.872   2.180   3.014 -0.8727  3.2984 -2.5692
  901SOL    HW2 2703   0.772   2.280   2.917 -0.9337  1.2169 -0.2302
  902SOL     OW 2704   2.040   1.066   0.255 -0.2291 -0.0310 -0.4227
  902SOL    HW1 2705   2.110   0.991   0.256  0.5819 -0.9060  1.5831
  902SOL    HW2 2706   2.083   1.146   0.214 -1.5812 -0.4705  2.9324
  903SOL     OW 2707   1.879   0.969   0.472 -0.1624 -0.0896  0.7245
  903SOL    HW1 2708   1.783   0.949   0.500  1.1721  0.7951  1.2779
  903SOL    HW2 2709   1.893   1.011   0.384 -2.1406 -1.5159  2.0831
  904SOL     OW 2710   0.829   1.088   3.102 -0.4024  0.0332  0.0574
  904SOL    HW1 2711   0.889   1.148   0.042  1.3628 -1.6256  2.8031
  904SOL    HW2 2712   0.880   1.015   3.057  0.0839  3.0261  1.0365
  905SOL     OW 2713   2.106   0.134   0.868 -0.1511  0.3903  0.4327
  905SOL    HW1 2714   2.158   0.151   0.957  3.7300  1.0440 -0.3708
  905SOL    HW2 2715   2.093   0.220   0.815  1.8009  2.0792  1.2635
  906SOL     OW 2716   0.018   2.205   1.087  0.7389  0.2360 -0.0182
  906SOL    HW1 2717   3.072   2.280   1.087  1.4124 -1.5711 -1.5467
  906SOL    HW2 2718   0.095   2.222   1.028 -2.7393 -2.4548 -0.8930
  907SOL     OW 2719   0.820   0.859   0.233 -0.5183 -0.0432  0.0788
  907SOL    HW1 2720   0.852   0.902   0.147  1.1194  1.6541 -0.0067
  907SOL    HW2 2721   0.724   0.885   0.250  0.5735 -0.1051  1.8610
  908SOL     OW 2722   2.189   2.804   0.861 -0.4142 -0.2187 -0.2720
  908SOL    HW1 2723   2.280   2.830   0.908  1.0541  1.1208  1.1682
  908SOL    HW2 2724   2.135   2.886   0.833  1.6120 -1.4739 -0.3138
  909SOL     OW 2725   2.175   1.245   1.531 -0.3395  0.1032 -0.0039
  909SOL    HW1 2726   2.166   1.197   1.442  1.3282 -3.4844 -1.8716
  909SOL    HW2 2727   2.128   1.337   1.539  0.1033  2.5665 -0.0711
  910SOL     OW 2728   1.330   2.957   2.158 -0.1371  0.0727 -0.1292
  910SOL    HW1 2729   1.344   2.870   2.215 -0.9101  0.7522  0.5268
  910SOL    HW2 2730   1.232   2.987   2.164 -0.9029  0.4881 -1.5774
  911SOL     OW 2731   2.972   0.737   2.304  0.2199 -0.0084 -0.2553
  911SOL    HW1 2732   3.023   0.826   2.306 -2.6781  1.8170  0.7353
  911SOL    HW2 2733   2.959   0.695   2.400  0.7615 -1.0211  2.2928
  912SOL     OW 2734   0.119   1.223   1.516  0.1220  0.5392  0.5936
  912SOL    HW1 2735   0.110   1.123   1.532 -0.9589 -1.4694 -1.3762
  912SOL    HW2 2736   0.201   1.261   1.567 -1.1575  0.1790 -1.6256
  913SOL     OW 2737   2.817   2.461   1.270  0.9593  0.3278 -0.2289
  913SOL    HW1 2738   2.840   2.380   1.337  0.4140 -3.9505  1.2420
  913SOL    HW2 2739   2.716   2.465   1.258 -0.7968  0.1745 -0.0200
  914SOL     OW 2740   1.850   0.939   1.510 -0.4998 -0.3760 -0.8765
  914SOL    HW1 2741   1.757   0.906   1.533  2.7605  0.9779 -1.9649
  914SOL    HW2 2742   1.877   1.019   1.569  0.1579  1.6823  0.4411
  915SOL     OW 2743   1.768   0.561   1.322 -0.4189 -0.0218 -0.2037
  915SOL    HW1 2744   1.818   0.490   1.376 -2.3566  0.1890  0.7046
  915SOL    HW2 2745   1.674   0.526   1.302 -1.7592  0.6938 -1.9857
  916SOL     OW 2746   2.927   2.415   1.036 -0.1363 -0.7633 -0.4413
  916SOL    HW1 2747   2.842   2.401   0.979  1.1945 -0.0023  1.5092
  916SOL    HW2 2748   2.888   2.435   1.132 -3.3488 -2.2272 -2.3006
  917SOL     OW 2749   1.886   1.899   0.087  0.5176  0.0476  0.0504
  917SOL    HW1 2750   1.793   1.909   0.123  4.4645 -2.3504  2.0322
  917SOL    HW2 2751   1.886   1.900   3.107 -1.1981  1.0196 -1.9514
  918SOL     OW 2752   1.932   3.020   2.695 -0.4458 -0.0392  0.1416
  918SOL    HW1 2753   2.030   3.023   2.662  0.2080  1.0474 -1.8510
  918SOL    HW2 2754   1.883   3.110   2.673 -2.4663 -2.1848  0.3297
  919SOL     OW 2755   1.420   2.381   1.186 -0.0602 -0.3576 -0.0722
  919SOL    HW1 2756   1.393   2.289   1.229 -1.1876 -1.1445 -0.3753
  919SOL    HW2 2757   1.484   2.433   1.244 -1.3836 -3.5229 -1.5590
  920SOL     OW 2758   3.098   0.296   2.391 -0.3065 -0.2436  0.0366
  920SOL    HW1 2759   3.105   0.317   2.493 -1.8031  0.0564  0.9601
  920SOL    HW2 2760   0.065   0.281   2.344 -0.8793  0.8391  0.8030
  921SOL     OW 2761   3.030   0.950   1.680 -0.0466  0.5582  0.0536
  921SOL    HW1 2762   2.991   1.044   1.679  2.4467 -1.0200  0.7241
  921SOL    HW2 2763   3.091   0.931   1.601 -2.4315 -0.1223  0.7012
  922SOL     OW 2764   2.008   1.869   0.530 -0.0959  0.1894  0.4553
  922SOL    HW1 2765   2.105   1.907   0.536  2.3172 -0.1138 -2.6794
  922SOL    HW2 2766   1.950   1.948   0.498  0.0126 -3.6742  3.1482
  923SOL     OW 2767   0.879   1.796   0.124  0.0462 -0.3756 -1.1410
  923SOL    HW1 2768   0.849   1.719   0.068 -1.4282 -1.6616  2.0638
  923SOL    HW2 2769   0.834   1.886   0.094  0.0612 -0.1976 -1.4437
  924SOL     OW 2770   0.894   0.354   0.145  0.0074 -0.4043 -0.2467
  924SOL    HW1 2771   0.874   0.260   0.183  0.2194  0.1024 -1.4113
  924SOL    HW2 2772   0.883   0.358   0.044 -1.6136 -2.2773 -1.3671
  925SOL     OW 2773   2.519   0.501   0.967 -0.2595 -0.0350  0.0827
  925SOL    HW1 2774   2.493   0.441   0.888 -0.4385  0.1200  3.3986
  925SOL    HW2 2775   2.450   0.497   1.042 -0.3803  0.7872 -0.8362
  926SOL     OW 2776   0.480   0.221   1.036  0.0532 -0.2772  0.0796
  926SOL    HW1 2777   0.414   0.170   0.970 -3.2032 -2.1587  0.7498
  926SOL    HW2 2778   0.431   0.283   1.104 -0.6119 -0.3199  2.4603
  927SOL     OW 2779   0.123   1.300   2.558  0.4205  0.8242  0.6314
  927SOL    HW1 2780   0.198   1.251   2.606  2.0694  0.7655 -0.2290
  927SOL    HW2 2781   0.034   1.256   2.575 -2.0368 -0.0422  0.0268
  928SOL     OW 2782   3.021   0.623   2.919  0.0121 -0.1746  0.2384
  928SOL    HW1 2783   3.035   0.712   2.874  0.6442  2.5462 -0.1145
  928SOL    HW2 2784   2.974   0.566   2.853  1.8807  2.5087  0.9074
  929SOL     OW 2785   2.629   0.227   1.377 -0.0591 -0.0997 -0.1095
  929SOL    HW1 2786   2.534   0.231   1.408  3.4375  0.3109 -3.0707
  929SOL    HW2 2787   2.633   0.180   1.288  1.3417  3.0638 -1.4313
  930SOL     OW 2788   1.923   1.100   1.940 -0.1200 -0.1389 -0.2429
  930SOL    HW1 2789   1.876   1.013   1.925 -0.2735  0.2198  3.0117
  930SOL    HW2 2790   1.998   1.083   2.008  0.4381  0.6022  1.2961
  931SOL     OW 2791   2.225   1.339   0.466  0.4035  0.4680  0.3522
  931SOL    HW1 2792   2.248   1.260   0.406 -0.3462  0.9872  0.2833
  931SOL    HW2 2793   2.302   1.406   0.461  0.3922 -1.3424  2.9798
  932SOL     OW 2794   2.880   1.143   1.000  0.5868 -0.0557 -0.5320
  932SOL    HW1 2795   2.956   1.197   0.960 -2.2368  1.0215  2.9091
  932SOL    HW2 2796   2.836   1.069   0.938  0.1216 -1.9157  0.8915
  933SOL     OW 2797   2.563   1.564   1.038  0.0027 -0.2221  0.1990
  933SOL    HW1 2798   2.498   1.526   1.109 -0.2914 -0.9434  0.9119
  933SOL    HW2 2799   2.513   1.596   0.956  2.5647  0.5699  0.7972
  934SOL     OW 2800   1.990   0.546   2.429  0.2107 -0.7379  0.1571
  934SOL    HW1 2801   1.986   0.560   2.327  3.7976  0.9988 -1.0031
  934SOL    HW2 2802   2.088   0.516   2.455  2.3029  0.3492 -0.1524
  935SOL     OW 2803   0.158   1.569   0.386  0.1283  0.7567  0.4335
  935SOL    HW1 2804   0.170   1.531   0.476  0.2120  2.7064 -0.5147
  935SOL    HW2 2805   0.157   1.673   0.391  1.4639 -1.3076  0.6321
  936SOL     OW 2806   0.133   0.638   0.662 -0.2343 -0.0474  0.1972
  936SOL    HW1 2807   0.100   0.707   0.591 -0.1641 -0.7714 -2.3737
  936SOL    HW2 2808   0.204   0.576   0.626  1.4972 -2.4023  0.0939
  937SOL     OW 2809   2.639   0.030   1.180  0.5156  0.4469 -0.7742
  937SOL    HW1 2810   2.659   3.058   1.145 -0.6267  0.2427 -0.4542
  937SOL    HW2 2811   2.690   0.098   1.117  1.6628  3.5954  0.5931
  938SOL     OW 2812   2.720   2.442   0.203  0.1807 -0.0376  0.6929
  938SOL    HW1 2813   2.765   2.384   0.268 -0.6243  2.3879 -2.4703
  938SOL    HW2 2814   2.638   2.486   0.246  3.4784 -2.2943 -4.8560
  939SOL     OW 2815   0.837   1.905   0.616  0.0425 -0.5753  0.5116
  939SOL    HW1 2816   0.813   1.871   0.525 -0.4893  0.0984 -0.5723
  939SOL    HW2 2817   0.756   1.919   0.669  0.3235 -0.6347 -2.9804
  940SOL     OW 2818   0.041   0.495   3.115 -0.0935  0.9579 -0.3219
  940SOL    HW1 2819   0.023   0.564   0.064 -2.2182 -1.4127 -0.1155
  940SOL    HW2 2820   3.122   0.537   3.029 -2.2900  0.9633  0.3353
  941SOL     OW 2821   1.294   0.319   3.070  0.3045  0.1585 -0.3383
  941SOL    HW1 2822   1.285   0.401   3.018  0.4452 -1.9331 -0.1888
  941SOL    HW2 2823   1.270   0.327   0.047 -0.4022 -2.3678  0.7835
  942SOL     OW 2824   1.033   0.875   1.219  0.3408 -0.6326 -0.1266
  942SOL    HW1 2825   1.127   0.906   1.222 -1.6968 -2.6572  2.6311
  942SOL    HW2 2826   1.010   0.816   1.298  0.7321  2.8364 -1.0595
  943SOL     OW 2827   1.530   0.996   1.941  0.1762 -0.1660 -0.3656
  943SOL    HW1 2828   1.625   0.966   1.924 -0.0522  1.2687  2.4470
  943SOL    HW2 2829   1.482   0.933   2.010 -2.8795 -2.6229 -2.0473
  944SOL     OW 2830   1.931   1.123   1.679  0.1393 -0.2685 -0.1626
  944SOL    HW1 2831   1.930   1.124   1.782  1.6231 -0.6311 -1.1872
  944SOL    HW2 2832   1.917   1.217   1.635  2.1697  2.1644  1.0597
  945SOL     OW 2833   2.868   3.015   0.405  0.5160  0.0972  0.0636
  945SOL    HW1 2834   2.955   3.033   0.448 -4.6178  0.8479  1.1458
  945SOL    HW2 2835   2.823   3.098   0.365  1.0883  1.9082 -2.3155
  946SOL     OW 2836   2.977   0.975   1.955  0.2648  0.0987  0.5796
  946SOL    HW1 2837   2.976   0.956   1.853  0.3639 -1.1998  1.6084
  946SOL    HW2 2838   2.890   1.010   1.996  0.3344  2.3609  2.0949
  947SOL     OW 2839   0.803   2.634   0.412  0.1021 -0.2737  0.2887
  947SOL    HW1 2840   0.794   2.715   0.468 -1.0598 -1.0839 -2.2208
  947SOL    HW2 2841   0.794   2.648   0.312  2.6340  0.7876 -0.9852
  948SOL     OW 2842   2.424   1.428   1.601 -0.5881  0.4501 -0.4625
  948SOL    HW1 2843   2.506   1.377   1.623  2.9291 -1.8942  2.0968
  948SOL    HW2 2844   2.342   1.368   1.619 -2.1328 -0.6714  1.0725
  949SOL     OW 2845   0.477   1.463   2.543 -0.4315  0.1746  0.3183
  949SOL    HW1 2846   0.396   1.512   2.575 -0.9160  2.1060 -1.2422
  949SOL    HW2 2847   0.482   1.366   2.577  0.4361 -3.0928  3.8434
  950SOL     OW 2848   0.416   2.748   1.077 -0.0669 -0.6682 -0.5762
  950SOL    HW1 2849   0.314   2.759   1.068 -4.1203  2.9849  2.1125
  950SOL    HW2 2850   0.447   2.815   1.146  2.3597  0.1568 -1.3548
  951SOL     OW 2851   0.974   1.176   2.295 -0.5974  0.4145 -0.0862
  951SOL    HW1 2852   1.073   1.201   2.283 -1.2993 -1.0640 -1.8430
  951SOL    HW2 2853   0.959   1.139   2.389 -2.0051 -2.1978  0.1016
  952SOL     OW 2854   0.490   1.439   0.335  0.3491 -0.3872  0.2167
  952SOL    HW1 2855   0.576   1.400   0.312 -2.7857 -0.2371  0.2236
  952SOL    HW2 2856   0.411   1.392   0.289 -2.1384  0.6143 -0.2197
  953SOL     OW 2857   2.473   0.085   2.620  0.3428  0.2711  0.0211
  953SOL    HW1 2858   2.373   0.079   2.618  0.2723  1.6975 -0.3757
  953SOL    HW2 2859   2.506   0.053   2.528 -1.9751 -0.8311 -1.8274
  954SOL     OW 2860   1.640   1.265   0.476  0.3963 -0.2009  0.6324
  954SOL    HW1 2861   1.578   1.327   0.533  0.4118 -1.0196  0.0634
  954SOL    HW2 2862   1.720   1.255   0.533 -1.5208  1.3611 -3.3540
  955SOL     OW 2863   0.678   2.038   2.757  0.6164  0.2428 -0.2659
  955SOL    HW1 2864   0.707   2.073   2.848 -0.7266  1.3595 -1.5007
  955SOL    HW2 2865   0.653   2.119   2.698 -1.4460  2.5459 -2.1138
  956SOL     OW 2866   1.988   0.646   2.165  0.5735 -0.3096  0.1291
  956SOL    HW1 2867   1.970   0.571   2.096 -0.3738 -2.2466 -2.0921
  956SOL    HW2 2868   2.073   0.700   2.147  1.0890 -1.0513  2.0578
  957SOL     OW 2869   1.968   2.214   2.675 -0.6292  0.0719 -0.1496
  957SOL    HW1 2870   2.043   2.155   2.633  0.9745 -1.2209 -1.5202
  957SOL    HW2 2871   1.960   2.196   2.777 -0.9524 -0.2098 -1.4320
  958SOL     OW 2872   1.422   1.436   1.435  0.3095  0.0521  0.0576
  958SOL    HW1 2873   1.329   1.422   1.390 -1.5035 -1.5016 -0.3725
  958SOL    HW2 2874   1.467   1.516   1.395 -0.4264 -3.0450  1.7622
  959SOL     OW 2875   1.961   2.455   2.563 -0.3646 -0.6752  0.0712
  959SOL    HW1 2876   1.881   2.472   2.506  0.2178  1.6122  0.3039
  959SOL    HW2 2877   1.959   2.363   2.609  0.9042 -1.2129  0.7440
  960SOL     OW 2878   0.176   0.816   2.678 -0.1434  0.3426 -0.1300
  960SOL    HW1 2879   0.179   0.798   2.576 -0.2342  2.2831  0.4677
  960SOL    HW2 2880   0.082   0.845   2.710 -1.2780  2.1068  1.0034
  961SOL     OW 2881   0.469   1.224   2.674 -0.0646 -0.3089  0.0211
  961SOL    HW1 2882   0.390   1.161   2.687  2.8092 -0.2202 -0.5827
  961SOL    HW2 2883   0.488   1.270   2.761  0.6469  0.0316 -1.1832
  962SOL     OW 2884   0.749   1.240   2.906 -0.2784  0.4145 -0.0055
  962SOL    HW1 2885   0.777   1.175   2.979  1.5474 -0.0118  0.4423
  962SOL    HW2 2886   0.780   1.209   2.816  1.3029  1.3155  0.1359
  963SOL     OW 2887   2.652   2.289   0.005 -0.5695  0.6862  0.2696
  963SOL    HW1 2888   2.680   2.342   0.089  0.7077  2.3923  0.2981
  963SOL    HW2 2889   2.567   2.333   3.095  0.8339 -1.1800  1.9755
  964SOL     OW 2890   1.182   2.355   1.541  0.8986  0.4315  0.0147
  964SOL    HW1 2891   1.266   2.403   1.568 -2.7714 -3.9247 -0.2927
  964SOL    HW2 2892   1.097   2.404   1.566 -0.1123 -2.7815  2.4299
  965SOL     OW 2893   1.556   1.599   0.227  0.2381  0.0507  0.0659
  965SOL    HW1 2894   1.648   1.579   0.262 -1.7949 -0.4151  0.3122
  965SOL    HW2 2895   1.496   1.639   0.299 -0.2361 -0.5275 -0.6967
  966SOL     OW 2896   3.099   1.685   0.212 -0.0828  0.0325  0.3995
  966SOL    HW1 2897   0.035   1.615   0.260  0.5313 -1.3140  0.3959
  966SOL    HW2 2898   3.047   1.743   0.277  1.2122  0.1626  1.3354
  967SOL     OW 2899   1.850   3.054   2.090 -0.1514  0.0943 -0.1118
  967SOL    HW1 2900   1.888   0.018   2.126 -0.4248 -0.4550 -3.1397
  967SOL    HW2 2901   1.886   2.976   2.138 -2.0791 -1.7804 -0.5823
  968SOL     OW 2902   1.832   0.446   0.454 -0.6759 -1.0013 -0.3123
  968SOL    HW1 2903   1.802   0.460   0.356 -3.0682 -0.9224 -0.9933
  968SOL    HW2 2904   1.866   0.534   0.493 -0.4007  0.8897 -2.6058
  969SOL     OW 2905   0.180   1.264   2.282  0.3467  0.2536 -0.0562
  969SOL    HW1 2906   0.268   1.221   2.268 -3.4938  3.1078  0.9059
  969SOL    HW2 2907   0.169   1.290   2.378  2.5329 -3.3099 -0.1692
  970SOL     OW 2908   2.067   1.974   1.313 -0.0664  0.2132 -0.1632
  970SOL    HW1 2909   2.071   2.020   1.224  3.9901  1.0264  4.2867
  970SOL    HW2 2910   2.027   2.030   1.391 -1.3707  1.1418  1.0240
  971SOL     OW 2911   3.079   2.653   0.970 -0.0025 -0.3696  0.8551
  971SOL    HW1 2912   3.050   2.557   0.969 -0.4141  1.0919  2.3591
  971SOL    HW2 2913   3.020   2.711   1.030  0.3937  1.9626 -0.1239
  972SOL     OW 2914   0.229   1.102   2.697  0.4201  0.3587 -0.4152
  972SOL    HW1 2915   0.231   1.125   2.796  0.1524  0.9008  1.1090
  972SOL    HW2 2916   0.214   1.002   2.685  1.2455 -3.9154  0.2350
  973SOL     OW 2917   0.415   0.296   0.723  0.0606  0.2944  0.0280
  973SOL    HW1 2918   0.383   0.204   0.761 -1.2599 -2.0031  0.3529
  973SOL    HW2 2919   0.351   0.332   0.650  0.8824 -0.6836  2.7788
  974SOL     OW 2920   2.094   0.843   1.457 -0.3474  0.5151 -0.0578
  974SOL    HW1 2921   1.998   0.880   1.477 -0.6858  0.4212  1.8656
  974SOL    HW2 2922   2.156   0.881   1.525  1.1111 -0.0309 -1.5730
  975SOL     OW 2923   2.537   2.857   0.037  0.4445 -0.1023 -0.2133
  975SOL    HW1 2924   2.569   2.860   0.131  2.1183 -1.2016 -3.4723
  975SOL    HW2 2925   2.549   2.762   0.004  0.0975 -1.2731 -2.7599
  976SOL     OW 2926   0.552   1.456   1.071  0.0130  0.0977 -0.4840
  976SOL    HW1 2927   0.534   1.355   1.054  1.2485  0.4808  0.0468
  976SOL    HW2 2928   0.497   1.482   1.149 -0.1081 -2.2168 -2.3988
  977SOL     OW 2929   1.163   2.357   0.774 -0.0398  0.2364 -0.1706
  977SOL    HW1 2930   1.168   2.290   0.696  0.2654 -2.1703 -2.5392
  977SOL    HW2 2931   1.235   2.334   0.845 -0.8653 -0.8953  0.1324
  978SOL     OW 2932   0.376   0.983   0.387 -0.0591  0.5751 -0.2980
  978SOL    HW1 2933   0.404   1.039   0.305  0.8230  1.1476 -1.1629
  978SOL    HW2 2934   0.360   0.888   0.363  1.1817 -0.4177  0.4578
  979SOL     OW 2935   2.260   1.631   0.534 -0.0744  0.1166  0.4244
  979SOL    HW1 2936   2.245   1.591   0.624 -0.5389  0.6492 -0.4208
  979SOL    HW2 2937   2.229   1.723   0.526  1.0322 -3.8435  0.5012
  980SOL     OW 2938   0.293   1.860   2.041  0.0705  0.3529  0.2638
  980SOL    HW1 2939   0.341   1.848   1.954 -0.7877 -1.7443 -1.8421
  980SOL    HW2 2940   0.347   1.913   2.109 -1.5872 -1.0409 -0.5143
  981SOL     OW 2941   2.951   1.059   0.262 -0.2897  0.0414  0.2319
  981SOL    HW1 2942   2.912   1.074   0.352 -0.1146 -3.4379 -2.9138
  981SOL    HW2 2943   2.895   1.110   0.193  0.2508 -0.6828  2.6383
  982SOL     OW 2944   2.911   2.934   2.023 -0.1650  0.0651 -0.0036
  982SOL    HW1 2945   2.941   3.013   2.085 -0.7516  2.0390  2.2978
  982SOL    HW2 2946   2.972   2.929   1.944 -0.4418 -1.6664 -1.8658
  983SOL     OW 2947   1.602   0.086   1.094  0.2679 -0.1152 -0.3267
  983SOL    HW1 2948   1.527   0.127   1.152 -1.4459  1.2288  1.0813
  983SOL    HW2 2949   1.661   0.163   1.057  0.7956  0.4212  1.5404
  984SOL     OW 2950   1.373   2.656   2.966 -0.2159 -0.3680  0.6528
  984SOL    HW1 2951   1.382   2.556   2.940  2.2659 -2.1022  0.2034
  984SOL    HW2 2952   1.455   2.706   2.928 -0.4649  1.8104 -2.9765
  985SOL     OW 2953   1.821   1.852   1.633 -0.0042  0.2434 -0.4739
  985SOL    HW1 2954   1.757   1.931   1.627  0.0321  2.1865  0.2774
  985SOL    HW2 2955   1.852   1.814   1.542 -1.1591 -2.4172 -1.6070
  986SOL     OW 2956   2.194   3.121   2.548 -0.3251 -0.0472 -0.0002
  986SOL    HW1 2957   2.167   0.026   2.458 -0.3366 -0.0460  1.4344
  986SOL    HW2 2958   2.175   0.075   2.619 -1.1564  3.5008 -0.1214
  987SOL     OW 2959   2.725   1.489   2.368 -0.3500  0.1681 -0.0259
  987SOL    HW1 2960   2.711   1.425   2.446  1.8076 -0.2660  0.6151
  987SOL    HW2 2961   2.809   1.551   2.378 -2.5728  0.8213  0.7991
  988SOL     OW 2962   2.929   0.591   2.083 -0.2482  0.0981 -0.4865
  988SOL    HW1 2963   2.978   0.623   2.001 -0.4848 -0.0139  0.9765
  988SOL    HW2 2964   2.945   0.665   2.155  2.2706  1.4875  2.8313
  989SOL     OW 2965   1.771   1.344   1.882  0.2091 -0.1198  0.5804
  989SOL    HW1 2966   1.672   1.339   1.909  0.9886 -1.1975  1.6726
  989SOL    HW2 2967   1.831   1.271   1.926  3.3610 -1.5832 -1.3015
  990SOL     OW 2968   0.071   1.141   0.161  0.2568 -0.0202  0.0671
  990SOL    HW1 2969   3.103   1.129   0.205 -0.1567  1.2301  0.9493
  990SOL    HW2 2970   0.123   1.055   0.177  0.8989  1.6087 -0.3444
  991SOL     OW 2971   0.379   1.818   2.615 -0.4190 -0.1158  0.1660
  991SOL    HW1 2972   0.344   1.834   2.707  4.5291 -1.8003 -1.5683
  991SOL    HW2 2973   0.385   1.906   2.564  1.2759 -2.3235  1.1783
  992SOL     OW 2974   2.690   2.287   1.889 -0.8562  0.1212  0.1518
  992SOL    HW1 2975   2.644   2.344   1.959 -1.5221  0.6068  0.7524
  992SOL    HW2 2976   2.790   2.306   1.895 -0.1973 -0.6873  2.0992
  993SOL     OW 2977   0.318   2.943   0.735 -0.0441 -0.0090 -0.4086
  993SOL    HW1 2978   0.289   3.002   0.658  1.2416 -1.7371 -2.0394
  993SOL    HW2 2979   0.396   2.881   0.716  0.0586  1.1365  3.0469
  994SOL     OW 2980   3.052   1.914   1.482  0.1964  0.0710  0.2935
  994SOL    HW1 2981   2.997   1.921   1.564 -0.5501 -4.6929 -0.9089
  994SOL    HW2 2982   3.082   1.998   1.448 -2.2820 -4.0120  1.0510
  995SOL     OW 2983   2.256   1.737   2.413 -0.0548 -0.4185 -0.4171
  995SOL    HW1 2984   2.272   1.786   2.498  3.6235  1.5865  0.0424
  995SOL    HW2 2985   2.341   1.696   2.383 -2.3820  3.5147  2.7059
  996SOL     OW 2986   2.039   1.560   2.989 -0.0367  0.2810  0.1887
  996SOL    HW1 2987   1.946   1.544   3.027  1.1594  3.4196 -3.0900
  996SOL    HW2 2988   2.021   1.617   2.909  0.8820 -2.4454 -0.2853
  997SOL     OW 2989   1.460   1.496   1.708  0.2606  0.1516  0.4691
  997SOL    HW1 2990   1.408   1.427   1.766 -0.5790  0.9915 -0.6216
  997SOL    HW2 2991   1.456   1.463   1.610  0.5143 -1.3683  1.1028
  998SOL     OW 2992   2.632   2.161   1.013 -0.1809 -0.5216  0.2210
  998SOL    HW1 2993   2.561   2.097   1.052  0.3986  0.5861 -0.2065
  998SOL    HW2 2994   2.724   2.121   1.034  2.7412 -2.0851 -1.4574
  999SOL     OW 2995   2.257   2.703   0.219  0.6913 -0.3685  0.4936
  999SOL    HW1 2996   2.243   2.803   0.215 -1.0817  1.0242  1.9154
  999SOL    HW2 2997   2.198   2.652   0.156 -1.2464  0.6117  1.4336
 1000SOL     OW 2998   0.940   3.050   3.086 -0.4739  0.0855  0.4905
 1000SOL    HW1 2999   0.926   3.031   0.064  1.9763 -0.2412 -3.3919
 1000SOL    HW2 3000   0.909   0.022   3.064 -1.6539 -1.4831 -0.5729
   3.12201   3.12201   3.12201
