1000 SPC/Fw water molecules t= 244.00000 step= 244000
 3000
    1SOL     OW    1   2.777   2.449   1.193  0.3366 -0.5209 -0.0710
    1SOL    HW1    2   2.800   2.352   1.198 -0.0999  0.3989 -1.2673
    1SOL    HW2    3   2.707   2.470   1.119 -0.6598 -0.0611 -1.3910
    2SOL     OW    4   1.722   1.975   1.380  0.0237 -0.6508  0.2343
    2SOL    HW1    5   1.686   1.888   1.421 -1.5935 -3.6848 -0.3950
    2SOL    HW2    6   1.790   2.019   1.447  0.3760 -0.6292  0.9877
    3SOL     OW    7   1.587   2.644   2.939 -0.2314  0.1346 -0.7058
    3SOL    HW1    8   1.563   2.740   2.941  3.5178  1.5937 -0.9263
    3SOL    HW2    9   1.689   2.636   2.910  3.4377  2.8735  1.0632
    4SOL     OW   10   1.685   1.879   2.071 -0.1728  0.3971 -0.4948
    4SOL    HW1   11   1.766   1.825   2.103  2.1776  3.3718 -3.1399
    4SOL    HW2   12   1.666   1.858   1.973 -2.3753 -0.5067 -1.9492
    5SOL     OW   13   1.169   1.158   1.392 -0.6217  0.3933  0.1555
    5SOL    HW1   14   1.233   1.112   1.328  0.5519  1.8297  0.4078
    5SOL    HW2   15   1.129   1.074   1.437 -0.5602 -2.1035  2.0521
    6SOL     OW   16   2.266   0.021   3.055  0.4921  0.2251  0.5285
    6SOL    HW1   17   2.336   0.054   2.988  0.2578 -0.9355  1.4125
    6SOL    HW2   18   2.285   3.026   0.004  0.0026 -1.8074  0.3984
    7SOL     OW   19   2.776   1.569   1.569  0.6700  0.3238 -0.1481
    7SOL    HW1   20   2.822   1.525   1.651 -0.5409 -1.9119  1.4759
    7SOL    HW2   21   2.777   1.515   1.485  0.8817 -0.8617  0.6309
    8SOL     OW   22   1.097   0.273   0.998 -0.0016 -0.0390 -0.2835
    8SOL    HW1   23   1.024   0.211   1.032 -1.9413 -2.5755  1.0730
    8SOL    HW2   24   1.163   0.232   0.929  0.6310 -0.0105  1.1791
    9SOL     OW   25   1.650   0.468   2.672  0.2805  0.3537  0.0069
    9SOL    HW1   26   1.657   0.568   2.656  1.1411 -2.1550 -1.7991
    9SOL    HW2   27   1.706   0.414   2.610  0.8528  1.1796  2.0003
   10SOL     OW   28   0.584   2.170   0.198  0.2245  0.2344  0.3827
   10SOL    HW1   29   0.564   2.072   0.171 -0.3575  1.4497 -2.1866
   10SOL    HW2   30   0.595   2.180   0.298  2.2036 -0.5012  1.2263
   11SOL     OW   31   0.876   1.028   0.574  0.2985 -0.6026 -0.0402
   11SOL    HW1   32   0.797   0.982   0.621  0.5730  0.2050 -1.8099
   11SOL    HW2   33   0.845   1.092   0.498  0.2067 -2.6487 -3.2027
   12SOL     OW   34   0.070   0.127   1.671 -0.3344  0.2122  0.3258
   12SOL    HW1   35   0.011   0.207   1.683 -0.2520  0.4830  0.8660
   12SOL    HW2   36   0.125   0.134   1.584  0.4595  1.7883 -0.9822
   13SOL     OW   37   1.514   0.099   0.264  0.2061  0.0372  0.7780
   13SOL    HW1   38   1.414   0.114   0.262 -1.4996  1.5000 -0.9480
   13SOL    HW2   39   1.551   0.151   0.346  0.9070  1.0300  0.8771
   14SOL     OW   40   1.090   2.350   1.301 -0.4668 -0.4413  0.4781
   14SOL    HW1   41   1.139   2.410   1.367  2.0178  1.5174 -1.4455
   14SOL    HW2   42   1.159   2.323   1.229 -0.6912 -1.9437 -0.0722
   15SOL     OW   43   2.476   1.181   1.638  0.8422 -0.2337 -0.0762
   15SOL    HW1   44   2.542   1.216   1.567 -1.4019  0.7541 -1.1747
   15SOL    HW2   45   2.475   1.247   1.715 -1.3751  0.6251 -0.4573
   16SOL     OW   46   2.035   2.746   0.033  0.4570  0.1547  0.0506
   16SOL    HW1   47   2.040   2.783   3.037  0.2930 -2.7401 -0.0316
   16SOL    HW2   48   1.940   2.711   0.055 -3.6862  0.0886  5.6515
   17SOL     OW   49   0.953   0.105   1.306 -0.6406 -0.4895  0.2517
   17SOL    HW1   50   0.892   0.185   1.286  1.4030 -0.4790  1.5530
   17SOL    HW2   51   0.900   0.047   1.372 -2.5083 -0.2297 -1.0391
   18SOL     OW   52   1.393   0.581   3.000 -0.1795  0.5214 -0.0899
   18SOL    HW1   53   1.414   0.528   3.086  0.1922 -0.9645 -1.0546
   18SOL    HW2   54   1.477   0.628   2.975 -3.7840 -1.0510  1.7104
   19SOL     OW   55   2.029   2.107   0.001  0.2650  0.2927  0.2649
   19SOL    HW1   56   2.081   2.038   0.050 -1.7199  2.1568 -2.5900
   19SOL    HW2   57   1.964   2.061   3.035  0.9098 -0.1595 -0.0333
   20SOL     OW   58   2.148   1.961   1.733 -0.3017  0.3366  0.8140
   20SOL    HW1   59   2.148   1.876   1.792 -2.1892 -1.0218  0.1699
   20SOL    HW2   60   2.244   1.995   1.715 -3.5586  0.1335  0.1948
   21SOL     OW   61   0.763   1.416   3.028 -0.1426  0.2862  0.0875
   21SOL    HW1   62   0.843   1.442   2.967  2.8220  1.3487 -0.8241
   21SOL    HW2   63   0.788   1.441   0.024  1.3994  0.2132  0.9341
   22SOL     OW   64   1.676   2.885   1.351  0.0938 -0.0558 -0.2024
   22SOL    HW1   65   1.635   2.934   1.272  0.7342  1.9150 -0.0726
   22SOL    HW2   66   1.640   2.791   1.357 -0.8357  2.5104  0.0422
   23SOL     OW   67   0.030   0.651   1.631  0.2778  0.3841  0.1488
   23SOL    HW1   68   0.121   0.606   1.624 -0.9361  3.2467  0.3160
   23SOL    HW2   69   3.095   0.710   1.551  0.2212  1.8946 -0.6883
   24SOL     OW   70   2.227   2.579   0.928  0.0582  0.1913 -0.0418
   24SOL    HW1   71   2.268   2.559   1.023  0.2482  0.7894  4.1891
   24SOL    HW2   72   2.194   2.496   0.878 -1.0451  3.2926 -0.2201
   25SOL     OW   73   1.267   2.713   2.793 -0.5972 -0.3098  0.3084
   25SOL    HW1   74   1.337   2.640   2.794  1.2478  2.2631  1.1907
   25SOL    HW2   75   1.263   2.750   2.696  2.1389  1.5007 -2.5436
   26SOL     OW   76   1.975   2.894   2.867  0.2395  0.0446  0.4514
   26SOL    HW1   77   2.041   2.935   2.808 -1.8622 -2.1346  1.1482
   26SOL    HW2   78   1.909   2.961   2.903  0.8633 -0.6710 -0.5679
   27SOL     OW   79   0.150   1.890   2.635  0.6179  0.5403  0.4785
   27SOL    HW1   80   0.073   1.957   2.644  2.0879 -0.0762 -0.0668
   27SOL    HW2   81   0.109   1.795   2.619 -0.6919  0.0627  0.5124
   28SOL     OW   82   2.817   0.978   1.469 -0.2088  0.1276 -0.3533
   28SOL    HW1   83   2.723   0.956   1.493  2.3392 -1.3323 -1.5624
   28SOL    HW2   84   2.843   1.073   1.494  0.9788  0.5142 -1.3627
   29SOL     OW   85   2.390   2.516   1.464  0.7870 -0.0142 -0.1323
   29SOL    HW1   86   2.349   2.573   1.535  0.3199 -1.7587  3.3731
   29SOL    HW2   87   2.485   2.544   1.444 -0.6784 -0.8098  1.1296
   30SOL     OW   88   1.451   0.483   0.148  0.1084  0.5491  0.4705
   30SOL    HW1   89   1.368   0.456   0.201  2.2257 -0.1747  1.1280
   30SOL    HW2   90   1.519   0.526   0.211 -0.5025  0.9725  1.1762
   31SOL     OW   91   2.586   2.906   1.683 -0.2853 -0.5708 -0.4962
   31SOL    HW1   92   2.550   2.985   1.739 -0.8123 -0.1514 -1.4393
   31SOL    HW2   93   2.663   2.940   1.622  0.9480  0.2171 -0.9644
   32SOL     OW   94   0.734   1.676   1.489 -0.3228  0.0635  0.2708
   32SOL    HW1   95   0.711   1.774   1.466  1.0556 -1.3407 -0.9996
   32SOL    HW2   96   0.752   1.616   1.410 -2.6649  1.5572 -1.8697
   33SOL     OW   97   0.468   2.722   2.259 -0.0385  0.2519  0.3432
   33SOL    HW1   98   0.479   2.636   2.210 -2.6046  0.1491 -0.5234
   33SOL    HW2   99   0.547   2.778   2.224  1.6534 -1.1877 -1.4192
   34SOL     OW  100   1.405   3.014   0.575  0.0603  0.1855  0.1536
   34SOL    HW1  101   1.460   3.089   0.607 -1.5124 -2.5553  0.6109
   34SOL    HW2  102   1.460   2.936   0.541 -0.5871  0.6799 -0.2955
   35SOL     OW  103   1.978   3.026   0.909  0.1227  0.4304  0.0950
   35SOL    HW1  104   1.932   3.016   0.820  0.9423 -1.4903 -0.8044
   35SOL    HW2  105   1.941   0.004   0.968 -0.4626  1.2694 -3.0347
   36SOL     OW  106   1.845   2.494   2.327  0.0777 -0.1072 -0.5877
   36SOL    HW1  107   1.767   2.494   2.392  0.6010 -3.5892 -0.2550
   36SOL    HW2  108   1.904   2.409   2.334 -0.7965  0.8433  0.3052
   37SOL     OW  109   0.747   2.986   2.329 -0.1237  0.0593  0.1064
   37SOL    HW1  110   0.701   2.964   2.240 -2.0171 -0.1631 -2.0647
   37SOL    HW2  111   0.696   2.944   2.407 -0.5382  1.2729  1.8973
   38SOL     OW  112   0.165   2.608   2.467 -0.4745  0.2695  0.0091
   38SOL    HW1  113   0.263   2.621   2.477 -1.5875  0.4066 -0.5594
   38SOL    HW2  114   0.146   2.621   2.368 -0.7266 -0.4172  1.5726
   39SOL     OW  115   2.414   1.119   1.978  0.0755 -0.1685 -0.6337
   39SOL    HW1  116   2.435   1.210   1.931  1.3521  0.2776 -2.3847
   39SOL    HW2  117   2.362   1.125   2.066  1.2135 -1.2926  1.7144
   40SOL     OW  118   0.749   2.893   3.078  0.2455 -0.0671 -0.1526
   40SOL    HW1  119   0.797   2.966   0.030  1.7195 -1.7801 -2.2260
   40SOL    HW2  120   0.804   2.807   3.066 -2.2843 -0.5207 -0.1897
   41SOL     OW  121   1.975   0.987   1.193  0.1127 -0.9027  0.2974
   41SOL    HW1  122   2.035   0.909   1.183  0.9699  2.5692  2.6988
   41SOL    HW2  123   1.973   1.048   1.110 -0.7178 -2.2282 -1.5271
   42SOL     OW  124   0.416   0.323   1.091  0.6693 -0.2882  0.6333
   42SOL    HW1  125   0.494   0.369   1.051 -2.6003 -2.1852  1.2838
   42SOL    HW2  126   0.324   0.368   1.072 -2.8296 -0.2120  0.7701
   43SOL     OW  127   2.451   1.196   2.693 -0.2956 -0.2583  0.4166
   43SOL    HW1  128   2.427   1.127   2.621 -1.2560 -0.3935 -1.1445
   43SOL    HW2  129   2.537   1.249   2.670  1.4131 -0.7364  0.8166
   44SOL     OW  130   3.021   2.872   0.645 -0.5223  0.3122 -0.6960
   44SOL    HW1  131   3.000   2.965   0.618  2.3307 -2.0580  0.5800
   44SOL    HW2  132   0.018   2.860   0.678 -3.8965 -2.0561 -0.4194
   45SOL     OW  133   3.024   2.781   1.352 -0.2551 -0.1360 -0.0134
   45SOL    HW1  134   3.063   2.873   1.380  4.2857 -1.0346 -1.8255
   45SOL    HW2  135   2.960   2.795   1.270 -1.4236  0.6826  0.1356
   46SOL     OW  136   2.271   2.492   2.442  0.4642  0.1008 -0.1828
   46SOL    HW1  137   2.241   2.394   2.455 -0.3463  2.1958  0.1141
   46SOL    HW2  138   2.195   2.556   2.458  1.2046 -1.6408 -1.6790
   47SOL     OW  139   1.982   2.128   1.241 -0.2285  0.0508  0.4036
   47SOL    HW1  140   2.020   2.166   1.152  1.0861 -2.7022 -1.8787
   47SOL    HW2  141   1.968   2.032   1.219  2.5951  4.3316 -2.5236
   48SOL     OW  142   0.592   1.411   0.355  0.1385  0.3716  0.4393
   48SOL    HW1  143   0.675   1.439   0.298  0.6505  0.7824 -1.8576
   48SOL    HW2  144   0.557   1.322   0.321 -2.4911 -0.7806 -0.9081
   49SOL     OW  145   0.000   0.119   2.515 -0.4420  0.1513  0.0766
   49SOL    HW1  146   3.064   0.105   2.612  0.1506  1.6382  0.6070
   49SOL    HW2  147   3.068   0.048   2.451 -1.1117  1.2738  5.0140
   50SOL     OW  148   2.241   0.701   0.395 -0.5127 -0.8304 -0.3875
   50SOL    HW1  149   2.174   0.777   0.402 -1.8420  0.0268 -1.2214
   50SOL    HW2  150   2.213   0.615   0.442  2.0270 -1.6727  1.7183
   51SOL     OW  151   2.375   0.876   1.065  0.0866 -0.3094  0.2885
   51SOL    HW1  152   2.466   0.903   1.108 -0.3234  2.7593  1.7913
   51SOL    HW2  153   2.354   0.928   0.976 -3.0376 -0.3022 -3.3462
   52SOL     OW  154   1.267   1.199   2.517 -0.3804 -0.2040  1.1105
   52SOL    HW1  155   1.300   1.185   2.421  0.7483 -2.7896 -0.8048
   52SOL    HW2  156   1.252   1.112   2.567 -0.0953  1.2874  3.9593
   53SOL     OW  157   0.583   1.772   1.920  0.8617  0.2336  1.1422
   53SOL    HW1  158   0.660   1.706   1.931  2.1751 -0.6235  0.4608
   53SOL    HW2  159   0.519   1.756   1.991 -1.2799  0.8021 -1.8633
   54SOL     OW  160   2.000   0.330   0.968 -0.1342 -0.4237  0.0470
   54SOL    HW1  161   2.054   0.319   0.880 -1.4750  0.3241  1.5455
   54SOL    HW2  162   2.061   0.375   1.032 -1.6056 -0.2239 -2.6439
   55SOL     OW  163   2.421   2.270   1.090 -0.2311 -0.0820  0.7534
   55SOL    HW1  164   2.372   2.183   1.105 -0.1056  1.1450  1.3926
   55SOL    HW2  165   2.516   2.259   1.055  0.6979  0.7434  0.9664
   56SOL     OW  166   1.104   0.062   1.728  0.7462  0.2488  0.5261
   56SOL    HW1  167   1.153   0.083   1.817  0.6846  2.3026  1.2499
   56SOL    HW2  168   1.134   0.130   1.656  1.4053 -0.1344 -2.0551
   57SOL     OW  169   1.465   1.520   3.086  0.3813 -0.4221 -0.2779
   57SOL    HW1  170   1.450   1.548   0.088 -1.9419  0.6414  0.4871
   57SOL    HW2  171   1.548   1.565   3.042  1.8273 -1.4731  1.1267
   58SOL     OW  172   0.007   0.926   2.490 -0.1731 -0.0560 -0.2760
   58SOL    HW1  173   0.078   0.998   2.501 -1.2568 -0.8157 -2.1413
   58SOL    HW2  174   3.096   0.886   2.395 -1.3804 -0.4605 -0.0590
   59SOL     OW  175   0.772   2.875   2.801  0.1916  0.0234 -0.2477
   59SOL    HW1  176   0.752   2.941   2.877  0.5299 -3.3873  1.2762
   59SOL    HW2  177   0.876   2.868   2.785  1.0718 -0.1216 -1.5525
   60SOL     OW  178   2.610   2.361   0.600 -0.3229 -0.3662 -0.2701
   60SOL    HW1  179   2.621   2.446   0.650  0.1401 -1.5474 -0.0668
   60SOL    HW2  180   2.660   2.370   0.512  1.2051  0.0622 -1.4784
   61SOL     OW  181   1.252   1.900   0.635  0.3722 -0.1815 -0.5022
   61SOL    HW1  182   1.274   1.821   0.696 -0.4285 -1.0568 -2.2080
   61SOL    HW2  183   1.150   1.913   0.627  0.9702  3.3366 -1.2261
   62SOL     OW  184   2.241   2.071   2.638  0.7608 -0.5750  0.7831
   62SOL    HW1  185   2.239   2.090   2.737 -2.2507  0.6986 -0.0846
   62SOL    HW2  186   2.155   2.031   2.596 -1.6862 -0.1855  0.0973
   63SOL     OW  187   2.312   2.677   2.989  0.7608  0.1244 -0.5171
   63SOL    HW1  188   2.287   2.697   2.891  1.0670  1.7796  2.3611
   63SOL    HW2  189   2.410   2.658   2.988  1.0613 -0.9210 -2.7343
   64SOL     OW  190   1.276   0.920   2.618 -0.2911  0.6113 -0.2597
   64SOL    HW1  191   1.237   0.836   2.653  2.7180  1.3759 -1.3784
   64SOL    HW2  192   1.344   0.900   2.545  1.3833 -3.3026 -2.3165
   65SOL     OW  193   1.371   2.488   3.054  0.3833  0.6200 -0.0869
   65SOL    HW1  194   1.444   2.550   3.022  0.2468 -1.4727 -1.0373
   65SOL    HW2  195   1.363   2.499   0.058  0.3626 -0.9381 -3.6529
   66SOL     OW  196   0.229   1.239   1.797 -0.1676  0.1221  0.0648
   66SOL    HW1  197   0.231   1.223   1.899  1.6051  0.4940 -0.4533
   66SOL    HW2  198   0.218   1.154   1.737  1.6501 -4.0559  1.9158
   67SOL     OW  199   2.755   2.801   2.738  0.4040 -0.3820 -0.5594
   67SOL    HW1  200   2.715   2.711   2.715  1.5301 -0.7470  2.3896
   67SOL    HW2  201   2.841   2.817   2.686 -0.0500  1.3600 -0.0458
   68SOL     OW  202   0.814   2.601   1.472  0.0623  0.2907 -0.2025
   68SOL    HW1  203   0.901   2.550   1.473 -0.0945 -2.5254  1.2827
   68SOL    HW2  204   0.781   2.619   1.378 -0.6333  0.3576 -1.2308
   69SOL     OW  205   0.614   2.285   0.501  0.0566  0.3172 -0.3454
   69SOL    HW1  206   0.688   2.315   0.567  0.4700 -2.1231  2.5382
   69SOL    HW2  207   0.557   2.367   0.476 -1.8953 -2.5257 -0.2071
   70SOL     OW  208   2.620   0.870   2.488  0.1998 -0.6242  0.6402
   70SOL    HW1  209   2.691   0.935   2.520  0.0202  1.0420  0.4189
   70SOL    HW2  210   2.651   0.776   2.512  1.6273  1.3270 -1.1700
   71SOL     OW  211   0.565   1.114   2.548 -0.4348  0.3391  0.1944
   71SOL    HW1  212   0.540   1.125   2.448 -1.0029 -1.3914 -0.9652
   71SOL    HW2  213   0.517   1.033   2.581 -1.2351  0.8244  1.1019
   72SOL     OW  214   0.353   2.174   0.464 -0.2909  0.0937 -0.6213
   72SOL    HW1  215   0.449   2.193   0.504  1.4588  0.1160 -0.8412
   72SOL    HW2  216   0.346   2.081   0.422 -0.0300 -0.0372 -0.0553
   73SOL     OW  217   1.108   1.288   0.105  0.1647  0.6805 -0.0317
   73SOL    HW1  218   1.076   1.357   0.171 -0.6344  0.1863  0.0911
   73SOL    HW2  219   1.163   1.215   0.152  0.0716 -0.8239 -0.2360
   74SOL     OW  220   2.677   3.012   0.047 -0.7893 -0.1083 -0.2400
   74SOL    HW1  221   2.592   2.963   0.075 -3.0869 -3.0983  1.6857
   74SOL    HW2  222   2.652   0.005   0.011  2.5811  1.4239  0.1511
   75SOL     OW  223   2.272   1.569   2.109 -0.3147  0.3106  0.2074
   75SOL    HW1  224   2.319   1.547   2.022  1.0284  0.1447  0.2478
   75SOL    HW2  225   2.264   1.672   2.124 -2.9755  2.1352 -2.2122
   76SOL     OW  226   1.942   2.681   1.582  0.1077  0.5001  0.4327
   76SOL    HW1  227   1.913   2.696   1.676  0.9564  0.0725 -1.6370
   76SOL    HW2  228   1.923   2.755   1.515  0.1889 -1.4665 -0.3981
   77SOL     OW  229   2.416   0.556   1.240 -0.0939  0.0754 -0.4425
   77SOL    HW1  230   2.475   0.526   1.165  0.1583  1.3726 -0.2492
   77SOL    HW2  231   2.441   0.647   1.278 -0.3285 -2.1731  1.8589
   78SOL     OW  232   2.047   0.929   2.838 -0.0505  0.2910 -0.1454
   78SOL    HW1  233   2.149   0.931   2.823  0.8907 -0.8374 -0.4737
   78SOL    HW2  234   2.025   0.976   2.926  0.4211  1.4849  1.7036
   79SOL     OW  235   0.262   1.529   1.896 -0.3165 -0.5967  0.1341
   79SOL    HW1  236   0.210   1.605   1.945 -0.9460  1.4907 -1.6276
   79SOL    HW2  237   0.202   1.497   1.818 -1.1106  1.4637  1.0942
   80SOL     OW  238   1.777   1.010   1.376 -0.2852 -0.0200  0.4517
   80SOL    HW1  239   1.863   1.010   1.317 -1.0229 -2.1476  0.8222
   80SOL    HW2  240   1.747   0.916   1.407 -1.6148 -2.1881  1.6184
   81SOL     OW  241   1.340   0.398   1.293  0.6466 -0.0056 -1.0575
   81SOL    HW1  242   1.329   0.297   1.298 -0.9189  0.9010 -2.2469
   81SOL    HW2  243   1.263   0.438   1.239  0.0904  0.1867 -0.1524
   82SOL     OW  244   1.479   2.390   1.811 -0.4093 -0.1556 -0.4682
   82SOL    HW1  245   1.450   2.364   1.713 -1.1089 -1.3307 -2.8037
   82SOL    HW2  246   1.532   2.314   1.853  0.9773  1.6882  0.2801
   83SOL     OW  247   0.579   2.932   0.796  0.0624 -0.1206  0.2505
   83SOL    HW1  248   0.619   2.931   0.887  0.8770  3.1160  1.3529
   83SOL    HW2  249   0.567   3.031   0.779  4.1296  0.7071  0.9250
   84SOL     OW  250   0.141   1.000   2.864  0.0094 -0.2599  0.0901
   84SOL    HW1  251   0.229   1.038   2.894  1.3965  3.4464  0.2480
   84SOL    HW2  252   0.077   1.075   2.842 -2.5197 -1.0614 -0.8553
   85SOL     OW  253   2.647   2.344   1.740 -0.5510 -0.3933 -0.1336
   85SOL    HW1  254   2.707   2.418   1.702 -1.2920 -0.4033  0.7823
   85SOL    HW2  255   2.558   2.383   1.769  0.3171  3.3450 -0.3430
   86SOL     OW  256   2.821   2.541   1.656 -0.0188  0.2952 -0.2678
   86SOL    HW1  257   2.867   2.628   1.635 -0.3863 -2.4603 -1.5009
   86SOL    HW2  258   2.883   2.467   1.619  0.9800 -1.3946  1.1445
   87SOL     OW  259   0.491   2.801   0.031  0.3990 -0.0253  0.6304
   87SOL    HW1  260   0.495   2.701   0.014  1.3368  4.2674  1.0146
   87SOL    HW2  261   0.585   2.843   0.039  2.8497 -0.2784  0.3736
   88SOL     OW  262   0.159   2.064   1.075  0.1392 -0.0835  0.1802
   88SOL    HW1  263   0.125   2.117   0.995  0.7708 -0.0080 -0.5213
   88SOL    HW2  264   0.105   1.983   1.099 -0.6918 -1.0256 -1.0435
   89SOL     OW  265   1.066   0.878   1.867 -0.0882 -0.6254  0.2516
   89SOL    HW1  266   0.970   0.844   1.871  0.7774 -2.7686 -3.3965
   89SOL    HW2  267   1.128   0.830   1.932  1.5218 -0.8595  1.4871
   90SOL     OW  268   2.775   1.643   1.999  0.2796 -0.1261  0.0308
   90SOL    HW1  269   2.807   1.637   2.099  0.2186 -0.8616  2.3667
   90SOL    HW2  270   2.743   1.733   1.971 -1.0634  2.7443 -2.5028
   91SOL     OW  271   1.544   1.821   0.803 -0.4983 -0.4994 -0.3356
   91SOL    HW1  272   1.447   1.808   0.789  1.0848  3.8753  0.4560
   91SOL    HW2  273   1.568   1.859   0.892 -1.8903  0.8562 -1.8997
   92SOL     OW  274   2.131   0.769   1.162  0.3512  0.6590 -0.2188
   92SOL    HW1  275   2.139   0.669   1.158 -1.9266  2.1276  0.0419
   92SOL    HW2  276   2.217   0.817   1.139 -0.8577 -0.9232 -1.0504
   93SOL     OW  277   2.352   1.459   0.177 -0.0380 -0.7635  0.0213
   93SOL    HW1  278   2.271   1.502   0.135 -0.1996 -1.3625 -0.3668
   93SOL    HW2  279   2.376   1.381   0.116 -0.3343 -0.7268 -1.1525
   94SOL     OW  280   2.283   2.210   2.397 -0.2545  0.1199  0.2926
   94SOL    HW1  281   2.286   2.158   2.484 -0.5287 -1.5694 -3.4372
   94SOL    HW2  282   2.369   2.207   2.345 -3.5778  0.6099 -0.3384
   95SOL     OW  283   1.830   0.515   0.865 -0.1735 -0.0291  0.1235
   95SOL    HW1  284   1.854   0.597   0.917  0.5898 -0.8813  0.2439
   95SOL    HW2  285   1.887   0.447   0.918 -0.8250  2.1325 -0.5314
   96SOL     OW  286   2.785   2.979   1.521 -0.7027  0.4735  0.1168
   96SOL    HW1  287   2.757   2.937   1.428  0.1000 -0.0467 -1.4329
   96SOL    HW2  288   2.832   3.070   1.517  1.0970  0.1593  1.2414
   97SOL     OW  289   2.057   0.026   1.305 -0.5508  0.4584 -0.2923
   97SOL    HW1  290   2.032   0.125   1.308  1.7091  1.3447  1.1680
   97SOL    HW2  291   2.154   0.022   1.342  3.0409 -2.4359  1.7816
   98SOL     OW  292   1.435   2.358   1.533 -0.3194  0.0417  0.3864
   98SOL    HW1  293   1.534   2.380   1.511  2.0750 -0.5071 -0.3259
   98SOL    HW2  294   1.404   2.263   1.518  0.9743  4.9398  1.5540
   99SOL     OW  295   2.601   2.671   1.892 -0.1276  0.0707  0.0357
   99SOL    HW1  296   2.519   2.729   1.906 -0.5015 -0.8526 -0.3299
   99SOL    HW2  297   2.668   2.721   1.834  0.3379 -2.1276  0.2109
  100SOL     OW  298   0.394   0.925   2.661  0.1104 -0.0093  0.0930
  100SOL    HW1  299   0.376   0.968   2.751  2.3587  0.4601  0.6369
  100SOL    HW2  300   0.422   0.827   2.672  1.5708 -0.3063 -1.8199
  101SOL     OW  301   1.957   0.900   0.169  0.1184  0.7505 -0.0118
  101SOL    HW1  302   2.030   0.939   0.226 -1.1017  1.1719  1.4207
  101SOL    HW2  303   1.951   0.798   0.185 -0.8506 -1.5249  0.0290
  102SOL     OW  304   0.270   0.517   1.610  0.3290 -0.9150 -0.6232
  102SOL    HW1  305   0.286   0.519   1.714  2.4017  0.5584  2.0120
  102SOL    HW2  306   0.271   0.423   1.572 -1.9105  0.4676  2.3843
  103SOL     OW  307   2.936   1.006   2.005 -1.1983  0.0602 -0.8537
  103SOL    HW1  308   2.844   1.001   2.049 -1.6684 -0.5630  1.0952
  103SOL    HW2  309   2.932   0.973   1.908  0.9150 -1.7378 -1.0089
  104SOL     OW  310   0.355   0.328   2.741  0.4256 -0.1252 -0.4149
  104SOL    HW1  311   0.454   0.336   2.721  0.3545 -1.1576  1.2431
  104SOL    HW2  312   0.312   0.417   2.729 -1.3017 -1.3586 -1.2861
  105SOL     OW  313   1.967   2.091   1.515 -0.2141 -0.6351  0.6285
  105SOL    HW1  314   2.011   1.999   1.521  0.9657  0.1483 -0.3087
  105SOL    HW2  315   1.984   2.137   1.428 -2.3342  1.0084  0.4906
  106SOL     OW  316   1.920   0.238   0.335 -0.0825  0.3480 -0.6981
  106SOL    HW1  317   1.980   0.163   0.369  1.9735 -0.1736  0.7035
  106SOL    HW2  318   1.978   0.304   0.276  3.9045  2.2089  1.1305
  107SOL     OW  319   0.106   1.789   1.574 -0.2607  0.1426  0.3330
  107SOL    HW1  320   0.166   1.853   1.630  0.7990  1.3223  0.9356
  107SOL    HW2  321   0.122   1.792   1.470 -1.7189 -1.3820 -3.1473
  108SOL     OW  322   2.828   2.858   1.921  0.1882  0.0572 -0.3252
  108SOL    HW1  323   2.914   2.843   1.871  0.8902  3.1641 -0.5547
  108SOL    HW2  324   2.802   2.778   1.968  1.9718  3.0338 -2.7189
  109SOL     OW  325   1.658   0.241   0.464 -0.0110  0.3765 -0.0536
  109SOL    HW1  326   1.755   0.232   0.438  2.9463 -1.1540 -2.0816
  109SOL    HW2  327   1.633   0.192   0.545  2.5245  1.5950 -1.4177
  110SOL     OW  328   0.456   2.171   2.318 -0.5570  0.3860 -0.5152
  110SOL    HW1  329   0.406   2.234   2.380  0.9922 -1.7606  1.7614
  110SOL    HW2  330   0.452   2.082   2.369  2.8547 -0.0363  2.8857
  111SOL     OW  331   1.596   2.242   2.193 -0.1219  0.3810  0.1353
  111SOL    HW1  332   1.664   2.176   2.230  1.6405  0.4609  1.1609
  111SOL    HW2  333   1.504   2.216   2.226  1.8390  0.5105 -2.1857
  112SOL     OW  334   1.734   2.732   2.573  0.6695  0.4997 -0.0108
  112SOL    HW1  335   1.786   2.754   2.660  2.2833  0.5767 -0.8342
  112SOL    HW2  336   1.704   2.633   2.567 -0.4384 -1.3115  0.7959
  113SOL     OW  337   1.701   2.438   1.530 -0.1389  0.2974  0.3785
  113SOL    HW1  338   1.731   2.389   1.448 -2.4968  1.8480  1.2460
  113SOL    HW2  339   1.758   2.422   1.609 -0.3483 -3.4618 -1.8385
  114SOL     OW  340   2.784   0.753   0.696 -0.1893  0.4276 -0.1159
  114SOL    HW1  341   2.768   0.704   0.608  4.2893 -0.0114 -0.1193
  114SOL    HW2  342   2.883   0.761   0.718 -0.1152  1.0709  0.8887
  115SOL     OW  343   0.427   1.026   2.900 -0.0268 -0.0244  0.4478
  115SOL    HW1  344   0.461   1.104   2.957  0.4843  1.9446  0.9299
  115SOL    HW2  345   0.494   0.946   2.913 -1.3073 -1.7723 -1.7476
  116SOL     OW  346   0.010   1.320   2.304  0.3638 -0.3630  0.4381
  116SOL    HW1  347   3.087   1.254   2.231 -1.8202 -0.6185  0.1235
  116SOL    HW2  348   0.110   1.326   2.319  2.8398 -0.5966 -0.9648
  117SOL     OW  349   2.743   3.024   0.681 -0.0230  0.4993  0.2023
  117SOL    HW1  350   2.839   3.058   0.663 -0.6826 -1.3993  0.7639
  117SOL    HW2  351   2.706   3.007   0.586 -1.5294  1.4526  1.1439
  118SOL     OW  352   1.184   1.990   1.516 -0.1454 -0.1862 -0.3075
  118SOL    HW1  353   1.178   1.897   1.484 -3.1251  1.0603 -0.9970
  118SOL    HW2  354   1.275   2.028   1.534 -0.9113 -0.2577 -0.6541
  119SOL     OW  355   0.782   2.224   2.825  0.6850 -0.0080  0.0958
  119SOL    HW1  356   0.868   2.259   2.873  0.9376  3.1676  1.7869
  119SOL    HW2  357   0.709   2.244   2.893  0.7327  0.0543 -0.9789
  120SOL     OW  358   0.642   0.864   2.936 -0.6182  0.1894  0.0897
  120SOL    HW1  359   0.690   0.770   2.934  1.8710 -1.0973  1.3710
  120SOL    HW2  360   0.707   0.938   2.911 -0.5475 -0.0082 -0.0367
  121SOL     OW  361   1.595   2.557   1.148  0.3543  0.4620 -0.4600
  121SOL    HW1  362   1.664   2.629   1.121  0.8913 -1.0697 -0.8452
  121SOL    HW2  363   1.625   2.467   1.098  0.3446 -3.1091 -2.6192
  122SOL     OW  364   2.147   2.506   1.652 -0.1433 -0.2589  0.6561
  122SOL    HW1  365   2.070   2.562   1.614 -3.1069  0.9974  0.0930
  122SOL    HW2  366   2.109   2.414   1.677 -1.0498 -0.0439 -1.9757
  123SOL     OW  367   0.170   2.803   0.340  0.0537 -0.3706  0.1630
  123SOL    HW1  368   0.239   2.853   0.397  1.0180  1.0487  0.1344
  123SOL    HW2  369   0.201   2.811   0.244 -1.6022  0.4738  0.9770
  124SOL     OW  370   2.199   1.330   2.753 -0.2119 -0.4472  0.7886
  124SOL    HW1  371   2.295   1.314   2.759 -1.8953 -1.3099  2.3428
  124SOL    HW2  372   2.170   1.311   2.847  4.2042 -1.1845 -0.9538
  125SOL     OW  373   0.540   0.872   0.540  0.2469 -0.0583 -0.4478
  125SOL    HW1  374   0.568   0.870   0.637  1.2954  2.4729 -0.3864
  125SOL    HW2  375   0.522   0.965   0.506 -0.2901 -0.1046  0.7363
  126SOL     OW  376   2.652   1.789   0.939  0.6596 -0.1757  0.6059
  126SOL    HW1  377   2.744   1.808   0.971  0.4513 -0.6610  2.6410
  126SOL    HW2  378   2.639   1.798   0.835 -2.1122  1.1273  2.9897
  127SOL     OW  379   0.052   2.166   1.775 -0.4377  0.8942  0.0027
  127SOL    HW1  380   0.133   2.115   1.725  4.8696 -0.1936 -1.9768
  127SOL    HW2  381   0.055   2.157   1.874 -2.3999  0.5259  0.8773
  128SOL     OW  382   0.999   0.915   0.219  0.0799 -0.2540  0.1819
  128SOL    HW1  383   0.982   0.858   0.135 -2.8177  2.2437 -0.0398
  128SOL    HW2  384   0.929   0.895   0.288  0.3755 -1.1527 -2.0913
  129SOL     OW  385   2.340   1.069   0.872  0.8971  0.2513  0.4365
  129SOL    HW1  386   2.372   1.146   0.933 -1.8940  0.3630 -0.2803
  129SOL    HW2  387   2.407   1.055   0.798  1.6287  2.0752  1.5122
  130SOL     OW  388   2.261   1.061   1.493 -0.3326 -0.2527 -0.2781
  130SOL    HW1  389   2.327   1.072   1.564 -3.4580  1.0535 -3.0039
  130SOL    HW2  390   2.293   1.109   1.410 -1.8909  0.8485 -1.9004
  131SOL     OW  391   2.895   2.894   3.007 -0.1931  0.1083  0.3183
  131SOL    HW1  392   2.867   2.840   2.932 -0.9226  1.4943  0.7822
  131SOL    HW2  393   2.822   2.947   3.049  1.6122  0.1022  1.1610
  132SOL     OW  394   2.841   2.156   1.779 -0.4475  0.1482  0.0801
  132SOL    HW1  395   2.759   2.206   1.760  0.1557 -1.3516 -3.5498
  132SOL    HW2  396   2.923   2.216   1.789 -1.2648  2.6842  0.2685
  133SOL     OW  397   1.165   0.493   1.122 -0.1261 -0.4462 -0.0701
  133SOL    HW1  398   1.142   0.417   1.058  0.9993  0.5285 -1.4963
  133SOL    HW2  399   1.106   0.573   1.098  0.4720  0.3638  0.3979
  134SOL     OW  400   0.011   1.267   0.401 -0.7940  0.4029 -0.2130
  134SOL    HW1  401   3.042   1.264   0.322 -1.0521 -0.1895  0.5749
  134SOL    HW2  402   0.105   1.270   0.363 -1.3899  0.2364  2.1938
  135SOL     OW  403   2.064   1.030   1.708  0.1592  0.1972 -0.2730
  135SOL    HW1  404   2.112   0.975   1.776 -0.5498  0.7380  0.0159
  135SOL    HW2  405   2.117   1.038   1.626 -2.8745  0.9204 -0.2801
  136SOL     OW  406   0.181   1.030   0.577  0.0982 -0.0312  0.0353
  136SOL    HW1  407   0.082   1.003   0.589 -1.5700  2.3534 -3.3813
  136SOL    HW2  408   0.203   1.042   0.482  0.6891  2.9488  4.3312
  137SOL     OW  409   2.627   1.302   1.443  0.2698  0.3018 -0.0533
  137SOL    HW1  410   2.560   1.256   1.388  1.9147  2.1857  0.6396
  137SOL    HW2  411   2.714   1.311   1.398 -4.3114 -0.4414  0.7890
  138SOL     OW  412   1.810   1.053   1.688 -0.4978  0.1311  0.7017
  138SOL    HW1  413   1.912   1.043   1.698  1.5235  0.8029 -0.8102
  138SOL    HW2  414   1.784   1.041   1.590 -0.5865  0.9316 -1.2767
  139SOL     OW  415   2.031   0.130   3.083  0.6165  0.1468  0.1305
  139SOL    HW1  416   2.121   0.079   3.084 -0.7356 -0.2674  2.3972
  139SOL    HW2  417   1.955   0.063   3.074  2.8750  0.4376  0.2654
  140SOL     OW  418   1.454   1.998   1.853 -0.1684 -0.0672 -0.5146
  140SOL    HW1  419   1.417   2.037   1.943 -0.6564  1.9883  1.9786
  140SOL    HW2  420   1.434   1.899   1.843  0.4369 -1.9940  1.7041
  141SOL     OW  421   1.871   2.048   0.588 -0.8985  0.4399  0.1929
  141SOL    HW1  422   1.950   2.002   0.559 -0.7746  1.6931  0.4572
  141SOL    HW2  423   1.889   2.148   0.594  2.4320 -2.3199 -1.1153
  142SOL     OW  424   0.310   0.858   0.162 -0.0413 -0.2077 -0.4641
  142SOL    HW1  425   0.404   0.838   0.136 -3.0071  0.0756  0.5514
  142SOL    HW2  426   0.239   0.835   0.093  0.4581 -2.9667  0.1585
  143SOL     OW  427   0.318   2.207   2.759 -0.2614  0.3185  0.5285
  143SOL    HW1  428   0.222   2.245   2.747  0.9415  1.4768 -0.1138
  143SOL    HW2  429   0.316   2.111   2.780  1.5339  3.5168 -3.5407
  144SOL     OW  430   1.331   0.111   1.471 -0.7098 -0.0419 -0.1551
  144SOL    HW1  431   1.238   0.150   1.468 -0.5011 -1.8890  0.1324
  144SOL    HW2  432   1.351   0.076   1.377 -2.1629  0.3942 -2.6591
  145SOL     OW  433   2.312   1.309   0.455 -0.2562 -0.4471  0.2862
  145SOL    HW1  434   2.381   1.345   0.383  2.1982  0.8775 -1.5765
  145SOL    HW2  435   2.249   1.383   0.484  0.2655 -0.6998  0.1705
  146SOL     OW  436   2.534   2.305   0.113 -0.0458 -0.2579 -0.3138
  146SOL    HW1  437   2.576   2.280   0.027 -0.5523  0.7022 -0.6439
  146SOL    HW2  438   2.441   2.347   0.106 -2.1734  0.9700  4.5164
  147SOL     OW  439   1.917   2.926   1.437 -0.5610 -0.1253 -0.3639
  147SOL    HW1  440   1.967   2.987   1.374  0.4829 -1.6445  2.5274
  147SOL    HW2  441   1.820   2.918   1.409 -0.8984  2.0352  0.0526
  148SOL     OW  442   1.479   2.909   2.297 -0.6221 -0.0185 -0.0183
  148SOL    HW1  443   1.548   2.908   2.218  1.8846 -1.2518 -1.3691
  148SOL    HW2  444   1.424   2.994   2.299  0.5161 -1.7313 -0.0886
  149SOL     OW  445   1.257   0.434   2.241 -0.1390  0.2676  0.4483
  149SOL    HW1  446   1.342   0.382   2.249  0.7348 -0.1185  0.0523
  149SOL    HW2  447   1.266   0.534   2.261  0.9241  1.4511 -2.6186
  150SOL     OW  448   0.655   2.578   0.251 -0.1444 -0.1826  0.6654
  150SOL    HW1  449   0.668   2.636   0.175 -2.4303 -3.9023  4.2753
  150SOL    HW2  450   0.746   2.544   0.284 -1.1228  0.1518 -2.0334
  151SOL     OW  451   0.217   1.591   0.178  0.0229 -0.0089 -0.0624
  151SOL    HW1  452   0.143   1.601   0.255 -2.6889 -0.7206  2.0168
  151SOL    HW2  453   0.176   1.634   0.094 -0.0781 -1.1446  0.9229
  152SOL     OW  454   2.955   0.044   0.603 -0.1721  0.1210 -0.2770
  152SOL    HW1  455   2.983   0.137   0.632  0.1328  0.8296 -1.2559
  152SOL    HW2  456   2.990   0.034   0.507 -0.9540 -1.9825  0.3806
  153SOL     OW  457   2.265   2.992   0.860 -0.1266 -0.5756 -0.4034
  153SOL    HW1  458   2.166   3.013   0.849 -1.3479  1.2207  1.0910
  153SOL    HW2  459   2.310   2.956   0.776  0.1983 -1.2433 -1.0413
  154SOL     OW  460   1.036   0.506   1.617 -0.6457  0.0206 -0.2279
  154SOL    HW1  461   0.999   0.559   1.699 -0.1770 -0.1950 -2.0735
  154SOL    HW2  462   1.128   0.532   1.593 -0.8072 -1.2178 -0.0304
  155SOL     OW  463   2.515   1.313   0.970 -0.5580 -0.5223 -0.0548
  155SOL    HW1  464   2.602   1.258   0.985  3.0088 -5.0736 -0.7152
  155SOL    HW2  465   2.522   1.399   1.027  0.3996 -0.0617  3.0552
  156SOL     OW  466   2.683   1.993   3.061 -0.0919 -0.0899  0.3400
  156SOL    HW1  467   2.584   1.967   3.050 -0.9269  1.0965 -0.5990
  156SOL    HW2  468   2.698   2.086   3.020 -2.2429 -2.0093 -0.4091
  157SOL     OW  469   1.243   3.016   0.335 -0.0643 -0.0308 -0.6340
  157SOL    HW1  470   1.249   2.934   0.281 -0.9998  2.7666  0.9003
  157SOL    HW2  471   1.294   3.004   0.423 -2.5184  0.8495 -0.4321
  158SOL     OW  472   2.438   0.281   2.610  0.1860 -0.3304  0.0808
  158SOL    HW1  473   2.528   0.268   2.574 -2.2755  0.4773  3.6400
  158SOL    HW2  474   2.364   0.240   2.554 -0.5402  1.3298  0.4420
  159SOL     OW  475   0.467   0.023   0.150 -0.4251  0.4330  0.5444
  159SOL    HW1  476   0.425   3.029   0.160  1.9147 -2.6631  0.2806
  159SOL    HW2  477   0.396   0.094   0.170 -2.5966  2.8214  1.3043
  160SOL     OW  478   1.171   2.045   0.110 -0.3286 -0.3146 -0.1864
  160SOL    HW1  479   1.151   2.071   0.013  3.0319 -0.0566 -0.8713
  160SOL    HW2  480   1.093   2.001   0.159 -1.6979  1.2988  0.0328
  161SOL     OW  481   2.797   1.842   2.452  0.2457 -0.9704 -0.0211
  161SOL    HW1  482   2.872   1.909   2.446  3.1815  0.2671  3.0408
  161SOL    HW2  483   2.703   1.886   2.457 -1.6873 -1.2449 -1.2675
  162SOL     OW  484   0.061   2.574   1.230 -0.5048  0.2914 -0.2213
  162SOL    HW1  485   0.151   2.555   1.272 -0.7335  0.0724 -1.1001
  162SOL    HW2  486   0.009   2.651   1.280  2.5027  0.6419  1.6593
  163SOL     OW  487   2.265   0.453   2.787 -0.0072  0.1483 -0.7673
  163SOL    HW1  488   2.176   0.403   2.790 -2.7360  1.0122  1.4223
  163SOL    HW2  489   2.332   0.411   2.722  1.2006  1.2485 -0.3148
  164SOL     OW  490   2.912   1.571   0.859 -0.0783 -0.9558  0.2152
  164SOL    HW1  491   2.826   1.547   0.808  0.6234  1.3716  0.3031
  164SOL    HW2  492   2.968   1.642   0.816 -0.7373  0.4225 -0.0912
  165SOL     OW  493   2.870   0.094   1.822 -0.4399 -0.5351  0.0927
  165SOL    HW1  494   2.910   0.002   1.833 -0.8864 -0.0257 -1.2891
  165SOL    HW2  495   2.832   0.118   1.914  1.3101 -0.1837  0.6909
  166SOL     OW  496   2.090   0.679   0.809 -0.2212  0.2098  0.3466
  166SOL    HW1  497   2.018   0.752   0.794  0.4197  0.2170  0.8401
  166SOL    HW2  498   2.097   0.621   0.725  0.8947  0.8470  1.5168
  167SOL     OW  499   0.441   0.391   0.434  0.0739  0.1456 -0.3259
  167SOL    HW1  500   0.365   0.444   0.390 -0.9629 -0.9795 -0.2973
  167SOL    HW2  501   0.417   0.374   0.537 -1.9736 -0.3774  2.9816
  168SOL     OW  502   1.840   2.711   2.126 -0.4037 -0.4629  0.8426
  168SOL    HW1  503   1.807   2.621   2.154 -1.8247  1.4548 -0.6207
  168SOL    HW2  504   1.860   2.759   2.214 -2.0382 -0.0214 -2.9055
  169SOL     OW  505   1.079   1.092   0.754 -0.1130  0.4089  0.0921
  169SOL    HW1  506   1.020   1.045   0.684  0.7066  2.0088 -0.6226
  169SOL    HW2  507   1.019   1.151   0.809  2.2981 -0.4259 -0.0936
  170SOL     OW  508   3.031   0.355   1.403 -0.1984  0.1551  0.8816
  170SOL    HW1  509   2.982   0.434   1.366 -1.1050 -0.9369 -0.2397
  170SOL    HW2  510   3.041   0.365   1.503  0.4482 -1.9131 -1.5463
  171SOL     OW  511   1.123   2.872   1.728 -0.4367 -0.6322 -0.2521
  171SOL    HW1  512   1.140   2.831   1.637 -1.3062 -0.8447  1.3973
  171SOL    HW2  513   1.134   2.976   1.733 -0.4891 -2.6973  0.6377
  172SOL     OW  514   0.365   2.259   1.778 -0.0419 -0.1961 -0.2898
  172SOL    HW1  515   0.319   2.173   1.789 -0.3300  0.5163  0.8944
  172SOL    HW2  516   0.464   2.248   1.753  2.9306 -0.2952 -0.3996
  173SOL     OW  517   1.238   0.688   2.801  0.3328 -0.2681  0.3105
  173SOL    HW1  518   1.229   0.604   2.751 -1.1837  3.2176  2.4243
  173SOL    HW2  519   1.292   0.671   2.884 -0.5487  0.4283  1.3299
  174SOL     OW  520   1.642   0.045   2.466  0.2121 -0.1075 -0.1407
  174SOL    HW1  521   1.556   0.101   2.489 -3.8113 -0.8170 -0.0977
  174SOL    HW2  522   1.643   3.049   2.510 -0.5204 -3.6882 -0.6097
  175SOL     OW  523   1.750   2.700   0.069 -0.1272 -0.2307  0.2957
  175SOL    HW1  524   1.697   2.691   0.152  0.1500 -1.2872  1.1324
  175SOL    HW2  525   1.705   2.758   3.094 -0.7252 -0.7680  2.3246
  176SOL     OW  526   1.710   0.378   2.914 -0.2719  0.0568  0.3878
  176SOL    HW1  527   1.772   0.442   2.968  0.1735  1.4721  1.4780
  176SOL    HW2  528   1.699   0.410   2.819 -0.9358 -0.1384  1.1593
  177SOL     OW  529   0.898   1.444   0.492  0.0568  0.0006  0.1969
  177SOL    HW1  530   0.987   1.450   0.537  0.4387 -2.6792  3.1493
  177SOL    HW2  531   0.856   1.534   0.481  0.1598 -1.1445 -2.8436
  178SOL     OW  532   2.960   2.201   2.418 -0.2687  0.1758  0.1018
  178SOL    HW1  533   3.050   2.246   2.416 -2.1622 -0.2196  0.7566
  178SOL    HW2  534   2.956   2.146   2.502 -1.4148 -0.9826  0.1973
  179SOL     OW  535   0.444   2.592   2.504 -0.6182  0.0727 -0.1893
  179SOL    HW1  536   0.453   2.637   2.416 -0.0805 -0.5825  1.6341
  179SOL    HW2  537   0.528   2.608   2.562  2.8818 -0.6805 -1.0429
  180SOL     OW  538   1.982   1.868   1.151  0.2227  0.0208 -0.0498
  180SOL    HW1  539   2.005   1.774   1.188  0.2662 -2.0861 -1.6309
  180SOL    HW2  540   1.883   1.864   1.118 -3.1181  0.8889  0.6204
  181SOL     OW  541   1.885   0.971   2.296 -0.3714 -0.0785  0.0743
  181SOL    HW1  542   1.925   1.019   2.216 -0.4080  0.9129 -0.0715
  181SOL    HW2  543   1.935   0.993   2.385 -1.1928  0.6750  0.4350
  182SOL     OW  544   2.803   2.754   2.334 -0.0693 -0.8187  0.0451
  182SOL    HW1  545   2.861   2.686   2.292 -0.7692 -1.8471  0.6698
  182SOL    HW2  546   2.852   2.836   2.370 -2.2231  2.0188  0.4651
  183SOL     OW  547   1.456   0.837   2.414 -0.5310  0.2338 -0.0398
  183SOL    HW1  548   1.506   0.912   2.366  2.1097 -1.0935  0.6321
  183SOL    HW2  549   1.520   0.777   2.465  1.7042 -1.1322  2.4391
  184SOL     OW  550   0.679   0.723   1.597  0.0042 -0.2276  0.3049
  184SOL    HW1  551   0.632   0.710   1.689  1.1252 -0.5881 -0.5506
  184SOL    HW2  552   0.734   0.814   1.588  1.1040 -0.7307  0.0552
  185SOL     OW  553   1.914   1.079   0.662 -0.0288 -0.4591  0.2922
  185SOL    HW1  554   1.858   1.153   0.624 -2.5710 -0.1805 -2.6041
  185SOL    HW2  555   2.015   1.094   0.653  1.6844  0.7751 -1.1517
  186SOL     OW  556   0.351   1.912   2.827  0.4494 -0.1918  0.0153
  186SOL    HW1  557   0.367   1.844   2.896 -0.7020  0.1023 -2.7192
  186SOL    HW2  558   0.278   1.887   2.758 -1.3496 -0.3711 -3.5132
  187SOL     OW  559   2.687   1.493   0.154  0.5565  0.6451  0.0232
  187SOL    HW1  560   2.787   1.490   0.141 -2.5153  0.3216  1.2404
  187SOL    HW2  561   2.666   1.429   0.231  0.9702  0.5965  2.9405
  188SOL     OW  562   0.252   1.962   0.727  0.0132  0.2647 -0.1239
  188SOL    HW1  563   0.295   1.890   0.670 -0.4964  1.0128  0.5102
  188SOL    HW2  564   0.317   2.027   0.769 -0.7313 -0.9811  0.4659
  189SOL     OW  565   2.513   0.431   0.080  0.6668 -0.5819 -0.2098
  189SOL    HW1  566   2.434   0.405   0.142 -0.3932 -1.0573 -0.2201
  189SOL    HW2  567   2.601   0.413   0.129 -1.0067 -0.4758  1.6435
  190SOL     OW  568   1.122   1.624   2.178 -0.5385 -0.0155 -0.4315
  190SOL    HW1  569   1.148   1.723   2.182 -1.8407  2.0562 -1.5979
  190SOL    HW2  570   1.025   1.613   2.204  2.4588 -0.0607 -1.1634
  191SOL     OW  571   2.940   0.099   1.506 -0.1475 -0.0913  0.2157
  191SOL    HW1  572   2.940   0.177   1.445  2.6851 -2.0949  1.1525
  191SOL    HW2  573   2.925   0.134   1.601  1.5684  4.3502 -1.3918
  192SOL     OW  574   1.973   1.375   1.420 -0.0230 -0.0712  0.1122
  192SOL    HW1  575   1.915   1.299   1.384  0.5258  0.3386  0.4966
  192SOL    HW2  576   1.913   1.433   1.480  0.5316 -0.5088 -0.9980
  193SOL     OW  577   1.101   0.610   0.708  0.0018  0.2768  0.0671
  193SOL    HW1  578   1.106   0.689   0.641 -0.6923  2.0455  1.0307
  193SOL    HW2  579   1.070   0.643   0.799  2.3333 -0.1387 -6.0504
  194SOL     OW  580   1.165   2.934   1.102  0.5621 -0.4207 -0.0497
  194SOL    HW1  581   1.143   2.896   1.009 -0.5414  2.6845  1.3852
  194SOL    HW2  582   1.100   2.899   1.177 -0.7664 -1.2779  0.1644
  195SOL     OW  583   2.346   0.346   0.270  0.5657  1.0367  0.5080
  195SOL    HW1  584   2.382   0.253   0.261 -1.2148 -1.1704 -3.7946
  195SOL    HW2  585   2.341   0.365   0.370  0.4309 -0.5241  0.5281
  196SOL     OW  586   0.699   2.359   1.519 -0.3061 -0.1139  0.0265
  196SOL    HW1  587   0.756   2.312   1.456 -1.5802 -1.3777  1.6714
  196SOL    HW2  588   0.709   2.465   1.513 -0.2644  3.9946  0.9234
  197SOL     OW  589   0.471   2.529   0.483  0.3797  0.3587 -0.4152
  197SOL    HW1  590   0.537   2.596   0.450  0.3407 -3.0072  3.1257
  197SOL    HW2  591   0.379   2.572   0.503 -2.8726  1.8459 -1.8545
  198SOL     OW  592   0.654   1.045   0.800  0.1886 -0.1114 -0.5139
  198SOL    HW1  593   0.688   1.079   0.890 -2.7993  0.8949 -1.0194
  198SOL    HW2  594   0.645   1.123   0.737  0.4068 -0.0020  0.9686
  199SOL     OW  595   0.026   3.012   1.433 -0.3017 -0.5466  0.1303
  199SOL    HW1  596   3.046   3.062   1.478  1.9391 -0.3287 -0.8871
  199SOL    HW2  597   0.098   2.977   1.498  0.7584  1.0136  0.7046
  200SOL     OW  598   2.323   1.771   2.825  0.1594 -0.4233 -0.0432
  200SOL    HW1  599   2.399   1.704   2.814 -3.0976  1.9422  2.4223
  200SOL    HW2  600   2.257   1.768   2.748  0.2357  0.2502 -0.3646
  201SOL     OW  601   2.869   2.200   1.277 -0.3204  0.0243 -0.3175
  201SOL    HW1  602   2.921   2.259   1.338 -1.4610  0.7651  1.2054
  201SOL    HW2  603   2.823   2.122   1.319 -0.0390  0.7390 -1.2292
  202SOL     OW  604   2.733   0.246   0.413  0.3095 -0.1053 -0.2906
  202SOL    HW1  605   2.719   0.288   0.321  0.4819 -2.1778  0.7748
  202SOL    HW2  606   2.756   0.152   0.382 -2.0311  1.1790  0.1652
  203SOL     OW  607   1.358   2.153   2.280  0.0451 -0.5430  0.1083
  203SOL    HW1  608   1.259   2.172   2.260  0.2088  0.1486  1.4007
  203SOL    HW2  609   1.366   2.135   2.380  0.5327 -2.3453  3.4659
  204SOL     OW  610   0.997   1.686   1.679 -0.3380  0.3746 -0.0175
  204SOL    HW1  611   0.908   1.687   1.634  0.0635  0.3526  1.0117
  204SOL    HW2  612   1.007   1.750   1.755  0.3792  2.1918 -1.0083
  205SOL     OW  613   1.094   2.060   1.751  0.0496 -0.3766 -0.4153
  205SOL    HW1  614   1.121   2.048   1.653  3.8092 -1.7115 -1.7277
  205SOL    HW2  615   1.014   2.002   1.777  0.2160  0.2286  0.4919
  206SOL     OW  616   0.220   0.558   2.753  0.0874 -0.0205  0.8773
  206SOL    HW1  617   0.301   0.616   2.776 -2.2239  0.6745 -1.1733
  206SOL    HW2  618   0.131   0.611   2.754  0.2706 -0.3915 -0.9988
  207SOL     OW  619   1.650   2.952   2.086 -0.1552  1.0712  0.3882
  207SOL    HW1  620   1.599   2.960   1.999 -1.1675  1.7054 -0.7634
  207SOL    HW2  621   1.715   2.876   2.093  1.2922  3.2581  0.4574
  208SOL     OW  622   0.934   2.487   1.963 -0.4428 -0.0193 -0.1111
  208SOL    HW1  623   0.972   2.498   2.052  1.0304 -2.0470 -2.4777
  208SOL    HW2  624   0.899   2.581   1.935 -0.4315  4.1138 -0.3515
  209SOL     OW  625   1.926   1.065   3.051 -0.2500  0.3689  0.0215
  209SOL    HW1  626   1.928   1.006   0.039 -1.4080 -0.8913 -0.8571
  209SOL    HW2  627   1.836   1.110   3.046  0.1262 -0.5344  1.4065
  210SOL     OW  628   3.065   0.261   1.114 -0.0547  0.4737 -0.1697
  210SOL    HW1  629   2.979   0.268   1.063 -0.8553 -0.0216 -1.2096
  210SOL    HW2  630   3.051   0.284   1.211  1.9182 -2.8968 -1.9913
  211SOL     OW  631   0.861   0.969   1.234 -0.0407  0.0097  0.0672
  211SOL    HW1  632   0.823   0.895   1.176  0.0348  2.6515  3.4236
  211SOL    HW2  633   0.810   0.975   1.324 -0.2484  1.2671  1.7630
  212SOL     OW  634   0.998   1.945   1.033  0.2099  0.0569 -0.5276
  212SOL    HW1  635   0.900   1.972   1.043  0.4859  1.4601  0.1028
  212SOL    HW2  636   1.053   2.025   0.994 -1.6662 -0.2223  0.0330
  213SOL     OW  637   2.109   0.288   1.586 -0.1260  0.3254 -0.2952
  213SOL    HW1  638   2.033   0.261   1.649  0.9062  0.1143  2.3792
  213SOL    HW2  639   2.191   0.222   1.599  2.3014 -1.5264 -0.3353
  214SOL     OW  640   1.479   2.232   2.727  0.0565  0.2444  0.1946
  214SOL    HW1  641   1.497   2.190   2.635  0.5393  4.3545  0.8740
  214SOL    HW2  642   1.564   2.218   2.789  0.0481 -1.0919  1.2254
  215SOL     OW  643   2.929   1.700   1.328  0.1958 -0.2460  0.2922
  215SOL    HW1  644   2.916   1.758   1.409 -0.7195  0.4194  1.4539
  215SOL    HW2  645   2.862   1.629   1.310 -0.8637 -0.5146  0.4230
  216SOL     OW  646   0.573   0.157   2.144  0.0463  0.8337 -0.1078
  216SOL    HW1  647   0.645   0.114   2.082  1.5791 -1.4031 -0.9445
  216SOL    HW2  648   0.551   0.096   2.220 -0.9686  2.4052  1.8752
  217SOL     OW  649   2.764   0.202   3.038  0.3828  0.3100 -0.1512
  217SOL    HW1  650   2.793   0.267   2.966 -2.0864 -2.2514  1.4382
  217SOL    HW2  651   2.846   0.149   3.073  0.4046 -0.9738  1.3005
  218SOL     OW  652   1.760   1.782   2.397  0.0170 -0.2993 -0.0175
  218SOL    HW1  653   1.702   1.773   2.476  0.0309  0.7219 -0.8523
  218SOL    HW2  654   1.738   1.717   2.319 -1.2513  1.3490  0.2502
  219SOL     OW  655   1.746   0.950   0.422  0.0749 -0.1222 -0.1654
  219SOL    HW1  656   1.800   1.034   0.396  1.0487  1.8174  1.1188
  219SOL    HW2  657   1.654   0.979   0.455 -1.2730  1.4012  0.5081
  220SOL     OW  658   1.469   2.015   1.063 -0.2669  0.0780  0.3225
  220SOL    HW1  659   1.409   1.938   1.093 -2.6691 -0.5820  0.3532
  220SOL    HW2  660   1.434   2.051   0.973  0.5113 -0.3944  0.1481
  221SOL     OW  661   0.123   0.764   3.051  0.7804  0.0432 -0.1744
  221SOL    HW1  662   0.029   0.725   3.026 -0.5705  1.0846 -3.4132
  221SOL    HW2  663   0.145   0.837   2.983  1.7809 -0.2233  0.0443
  222SOL     OW  664   1.154   2.722   1.483  0.1312 -0.4437 -0.4083
  222SOL    HW1  665   1.163   2.618   1.507  0.5051 -2.6469 -2.2400
  222SOL    HW2  666   1.230   2.756   1.423 -0.7718 -2.5883  0.6294
  223SOL     OW  667   1.430   0.316   2.763  0.1974  0.5287 -0.4884
  223SOL    HW1  668   1.510   0.370   2.729  1.4006 -2.4290 -1.4435
  223SOL    HW2  669   1.386   0.365   2.842  0.9252  0.4272  0.3066
  224SOL     OW  670   2.828   0.933   1.087  0.3562 -0.0332  0.6442
  224SOL    HW1  671   2.914   0.880   1.074  2.3947 -2.6420 -0.5125
  224SOL    HW2  672   2.757   0.902   1.022 -1.3621 -0.2191 -0.0277
  225SOL     OW  673   0.774   1.186   1.651  0.4721 -0.3306 -0.0358
  225SOL    HW1  674   0.829   1.230   1.579  1.0609 -2.2611  3.5481
  225SOL    HW2  675   0.677   1.185   1.626  3.3618  1.0141  2.8155
  226SOL     OW  676   1.599   2.897   3.070  0.0753 -0.3735  0.4004
  226SOL    HW1  677   1.524   2.946   3.012 -0.7655 -3.5793  0.2680
  226SOL    HW2  678   1.562   2.879   0.065  1.2017  1.2128 -0.3612
  227SOL     OW  679   0.577   1.579   1.181  0.5385  0.0638  0.4566
  227SOL    HW1  680   0.494   1.533   1.149 -1.1985  0.0729  1.3079
  227SOL    HW2  681   0.547   1.663   1.232  0.4620 -2.1466  2.6194
  228SOL     OW  682   0.275   2.470   1.412 -0.3154 -0.0211  0.5342
  228SOL    HW1  683   0.229   2.377   1.405 -1.0671 -0.7256  1.2715
  228SOL    HW2  684   0.274   2.494   1.513 -0.4876  0.5035 -0.2147
  229SOL     OW  685   2.362   1.207   0.054  0.0735 -0.3293  0.4311
  229SOL    HW1  686   2.362   1.130   0.122  1.0244 -1.8930  0.1139
  229SOL    HW2  687   2.446   1.195   0.002 -1.7551 -2.9765  0.3018
  230SOL     OW  688   0.686   1.085   2.030  0.5504 -0.0844  0.2770
  230SOL    HW1  689   0.617   1.044   1.963 -0.3179 -0.2022  1.3899
  230SOL    HW2  690   0.728   1.166   1.989 -2.2509 -1.8298  0.4611
  231SOL     OW  691   1.448   2.057   1.594 -0.3733  0.1928  0.1443
  231SOL    HW1  692   1.550   2.071   1.591 -0.4102 -1.7560  1.6371
  231SOL    HW2  693   1.415   2.037   1.686 -1.0862 -1.1794 -0.7948
  232SOL     OW  694   1.958   2.323   0.598 -0.2776  0.2307 -0.5872
  232SOL    HW1  695   1.917   2.412   0.640 -2.3394  4.5048  1.1128
  232SOL    HW2  696   1.968   2.323   0.497 -1.0557  0.0852  0.2706
  233SOL     OW  697   0.897   2.668   3.092 -0.4770 -0.0976 -0.1256
  233SOL    HW1  698   0.910   2.574   0.037  0.2168 -0.0827 -2.7145
  233SOL    HW2  699   0.928   2.670   2.994  0.6822  0.0629 -2.6828
  234SOL     OW  700   1.143   0.135   2.422  0.5589 -0.7016  0.2906
  234SOL    HW1  701   1.122   0.230   2.381  0.1410  3.0438 -0.3347
  234SOL    HW2  702   1.060   0.093   2.463 -1.4695  0.0421 -0.3015
  235SOL     OW  703   2.956   2.288   0.071 -0.4373 -0.0290  0.0044
  235SOL    HW1  704   2.990   2.336   0.150  0.8495 -0.2763 -0.5871
  235SOL    HW2  705   2.948   2.186   0.090 -1.5451  1.1941 -0.1654
  236SOL     OW  706   2.005   2.263   2.391 -0.0776  0.1818  0.4036
  236SOL    HW1  707   1.954   2.178   2.381 -1.2555  0.2846  0.0443
  236SOL    HW2  708   2.105   2.242   2.405  1.7778  0.4008 -0.1017
  237SOL     OW  709   1.649   1.250   1.384  0.2947  0.0320  0.4759
  237SOL    HW1  710   1.700   1.164   1.374 -0.8344 -0.6137 -1.8322
  237SOL    HW2  711   1.593   1.268   1.297  0.2802  0.2440 -1.1773
  238SOL     OW  712   2.101   0.148   2.237  0.3448  0.4559 -0.4502
  238SOL    HW1  713   2.107   0.247   2.229 -1.4142 -3.0061  0.3764
  238SOL    HW2  714   2.005   0.112   2.237 -1.0741 -1.2392  0.3526
  239SOL     OW  715   0.535   1.572   1.622 -0.5826  0.4143 -0.1357
  239SOL    HW1  716   0.537   1.495   1.688  1.1202 -0.2088  0.2693
  239SOL    HW2  717   0.620   1.585   1.575 -1.0581 -2.1837  2.0465
  240SOL     OW  718   0.014   2.024   0.573  0.0099  0.1637  0.4729
  240SOL    HW1  719   3.044   2.097   0.599  2.1339 -3.6247  2.9067
  240SOL    HW2  720   0.099   2.030   0.624 -4.0109  1.1323  0.7338
  241SOL     OW  721   1.287   2.197   0.531  0.2658  0.2134 -0.3495
  241SOL    HW1  722   1.268   2.110   0.582  2.2810  0.4068  3.0922
  241SOL    HW2  723   1.385   2.202   0.502 -1.2528 -0.9768 -0.6167
  242SOL     OW  724   1.562   1.344   0.382  0.4354 -0.4291 -0.0084
  242SOL    HW1  725   1.646   1.303   0.344 -0.1272  1.8092 -1.4674
  242SOL    HW2  726   1.484   1.273   0.394 -0.2857 -1.1670  1.5765
  243SOL     OW  727   0.779   0.042   1.982  0.1957 -0.0992 -0.7385
  243SOL    HW1  728   0.864   0.017   2.033 -0.2048 -1.9819  0.4779
  243SOL    HW2  729   0.809   0.052   1.883 -0.4256  0.6061  0.4678
  244SOL     OW  730   1.800   3.077   2.973  0.5403  0.0253 -0.0267
  244SOL    HW1  731   1.747   0.065   2.953 -1.3989 -0.1299 -0.7267
  244SOL    HW2  732   1.740   3.017   3.031 -1.5188 -2.8181 -0.7117
  245SOL     OW  733   1.428   3.041   2.936  0.3506 -0.0684  0.0802
  245SOL    HW1  734   1.486   0.027   2.957 -0.2046 -0.5222 -1.4292
  245SOL    HW2  735   1.372   3.062   2.850  0.0330  1.0018 -0.0060
  246SOL     OW  736   0.857   0.767   2.512 -0.1633 -0.3793 -0.1422
  246SOL    HW1  737   0.900   0.726   2.594 -0.9288 -1.9972  1.2243
  246SOL    HW2  738   0.860   0.871   2.508 -0.5055  0.6005 -1.8058
  247SOL     OW  739   0.305   0.570   1.881  0.2509 -0.2595 -0.1834
  247SOL    HW1  740   0.363   0.552   1.963 -1.5113 -1.6151 -0.1547
  247SOL    HW2  741   0.210   0.591   1.913  1.6437 -0.4576  1.6103
  248SOL     OW  742   0.762   0.823   2.095  0.0082  0.6095  0.0805
  248SOL    HW1  743   0.814   0.774   2.170  1.9122 -2.5997  1.1102
  248SOL    HW2  744   0.788   0.924   2.092  1.6336  2.4788 -1.3707
  249SOL     OW  745   2.077   0.378   0.167 -0.4212  0.0898  0.3561
  249SOL    HW1  746   2.073   0.300   0.100  1.9641 -1.7969  1.4870
  249SOL    HW2  747   2.175   0.386   0.202 -1.0026  0.7711  1.5264
  250SOL     OW  748   0.549   0.101   0.728 -0.0269 -0.1021  0.0902
  250SOL    HW1  749   0.648   0.124   0.737  0.0714 -3.2618 -1.9466
  250SOL    HW2  750   0.500   0.180   0.685  1.4097  0.7146  1.6252
  251SOL     OW  751   0.983   0.398   2.341 -0.1522  0.5277  0.2980
  251SOL    HW1  752   1.060   0.457   2.323 -0.5767 -0.7238 -0.0483
  251SOL    HW2  753   0.924   0.383   2.259 -1.4960 -1.2976  2.6349
  252SOL     OW  754   1.399   1.731   1.848  0.1798  0.3442 -0.3770
  252SOL    HW1  755   1.493   1.717   1.808 -0.9414  0.6735 -0.3671
  252SOL    HW2  756   1.362   1.655   1.907 -0.6893  1.8542 -0.1189
  253SOL     OW  757   1.668   2.453   2.033  0.2951  0.4782 -0.7088
  253SOL    HW1  758   1.608   2.537   2.016  1.0546  1.2386 -1.6798
  253SOL    HW2  759   1.631   2.393   2.108 -1.5712  1.5826  2.0576
  254SOL     OW  760   0.793   2.108   2.191  0.0395 -0.0576 -0.5344
  254SOL    HW1  761   0.875   2.124   2.242 -3.8003  0.2587  0.8171
  254SOL    HW2  762   0.791   2.014   2.151  1.7863 -1.0725 -1.3158
  255SOL     OW  763   1.302   0.542   0.550  0.6085 -0.1961 -0.0442
  255SOL    HW1  764   1.245   0.559   0.636  1.9673  1.0892  2.0652
  255SOL    HW2  765   1.291   0.622   0.482  1.7875 -1.8036  2.6006
  256SOL     OW  766   1.814   1.927   1.765 -0.1538 -0.2209  0.1087
  256SOL    HW1  767   1.918   1.929   1.764  0.8898 -0.5592  2.3746
  256SOL    HW2  768   1.779   2.014   1.722 -0.9803  1.0960  1.4712
  257SOL     OW  769   0.327   2.338   2.479  0.4667 -0.1913 -0.0917
  257SOL    HW1  770   0.378   2.429   2.494 -0.7154  0.4520 -0.5900
  257SOL    HW2  771   0.326   2.285   2.566  2.3881  0.3082 -3.0858
  258SOL     OW  772   0.842   0.279   2.133  0.8759  0.2901 -0.0326
  258SOL    HW1  773   0.912   0.207   2.116  1.6294 -0.3174  0.1283
  258SOL    HW2  774   0.771   0.230   2.183 -1.5730  0.8760  2.4197
  259SOL     OW  775   1.088   1.252   2.101 -0.6066 -0.9705 -0.0066
  259SOL    HW1  776   1.042   1.171   2.145  0.8484  1.0949  1.0238
  259SOL    HW2  777   1.086   1.241   2.000 -0.7831 -1.7690  0.9530
  260SOL     OW  778   1.609   0.782   0.684  0.2761  0.1505 -0.4098
  260SOL    HW1  779   1.531   0.741   0.734  1.7890 -0.3615  1.4750
  260SOL    HW2  780   1.664   0.705   0.640  1.4776 -3.1098 -1.5468
  261SOL     OW  781   0.543   3.038   2.893  0.2912  0.3938 -0.0628
  261SOL    HW1  782   0.555   2.967   2.962 -1.3135 -0.7127  1.2184
  261SOL    HW2  783   0.463   3.022   2.832 -1.3801 -3.0631  0.7231
  262SOL     OW  784   2.535   2.959   2.742 -0.4751  0.5118  0.1236
  262SOL    HW1  785   2.618   2.897   2.754 -0.0036 -0.4326 -0.7654
  262SOL    HW2  786   2.551   3.053   2.781 -1.4518 -0.9070 -0.0137
  263SOL     OW  787   0.257   1.961   0.083 -0.0797  0.0186  0.1056
  263SOL    HW1  788   0.204   1.946   0.172 -1.3204 -0.2648  2.6412
  263SOL    HW2  789   0.201   1.970   3.095  3.1788 -0.5937  1.2297
  264SOL     OW  790   0.530   1.200   1.555 -0.2965 -0.7658 -0.0464
  264SOL    HW1  791   0.467   1.277   1.530 -1.1645  0.7316  1.4481
  264SOL    HW2  792   0.501   1.110   1.511  1.5055 -1.9237  2.6111
  265SOL     OW  793   0.506   1.136   0.395  0.2124 -0.0164  0.1188
  265SOL    HW1  794   0.413   1.094   0.370 -2.9769 -0.2754 -0.2194
  265SOL    HW2  795   0.576   1.116   0.326  1.9941  0.8256 -1.1132
  266SOL     OW  796   1.945   1.441   0.399 -0.5599  0.2888  0.2553
  266SOL    HW1  797   2.000   1.371   0.348  2.6098  1.1611 -1.3176
  266SOL    HW2  798   1.885   1.393   0.467 -2.7677 -2.2441  0.2629
  267SOL     OW  799   2.989   0.453   0.067  0.3376  0.0849 -0.5514
  267SOL    HW1  800   3.052   0.373   0.074 -0.9714 -1.4069  2.2881
  267SOL    HW2  801   3.000   0.494   3.072  1.8450  0.6520  1.4478
  268SOL     OW  802   0.336   2.975   2.708 -0.3437  0.0301  0.0162
  268SOL    HW1  803   0.259   2.910   2.725  0.1953 -1.0576  3.3566
  268SOL    HW2  804   0.305   3.072   2.691  0.2994  1.7986 -0.4918
  269SOL     OW  805   2.060   0.178   2.645 -0.0425 -0.3361  0.7554
  269SOL    HW1  806   2.029   0.232   2.722  0.8889 -0.1784 -2.0114
  269SOL    HW2  807   2.152   0.219   2.612  1.4119  1.3238  0.5605
  270SOL     OW  808   0.822   1.033   2.515  0.2987 -0.1168  0.5854
  270SOL    HW1  809   0.722   1.055   2.530 -0.2679  1.0011 -1.4106
  270SOL    HW2  810   0.872   1.116   2.549  2.4174  0.0653 -1.2033
  271SOL     OW  811   2.658   1.018   0.199 -0.0481 -0.1341 -0.3657
  271SOL    HW1  812   2.603   0.931   0.189 -4.6689  0.9788 -0.0995
  271SOL    HW2  813   2.746   0.998   0.150  3.4333 -1.3937 -2.9311
  272SOL     OW  814   2.774   1.651   2.638  0.0711 -0.3348 -0.4730
  272SOL    HW1  815   2.761   1.731   2.575  2.3090 -1.2706  1.8010
  272SOL    HW2  816   2.730   1.668   2.729  1.5868 -0.4394  2.5451
  273SOL     OW  817   2.484   0.542   2.939 -0.0050 -0.2071  0.1472
  273SOL    HW1  818   2.402   0.508   2.878 -2.1785 -1.3897 -1.7042
  273SOL    HW2  819   2.483   0.489   3.030  0.1036  0.3921  1.3223
  274SOL     OW  820   0.193   2.863   0.691  0.8324  0.3314  0.7128
  274SOL    HW1  821   0.276   2.866   0.630  0.4335  0.4233  1.1314
  274SOL    HW2  822   0.200   2.918   0.779 -1.1004  0.0209  1.0381
  275SOL     OW  823   1.927   1.655   0.781  0.2721 -0.2008  0.0577
  275SOL    HW1  824   1.874   1.660   0.697  1.2532 -2.4072  0.2511
  275SOL    HW2  825   1.961   1.746   0.809 -1.5750  0.3833 -1.3006
  276SOL     OW  826   0.191   1.346   2.760  0.5526 -0.0152  0.2593
  276SOL    HW1  827   0.287   1.352   2.728 -1.1573  2.7664  4.1404
  276SOL    HW2  828   0.139   1.297   2.689  0.6566 -2.1214  0.1304
  277SOL     OW  829   1.854   2.663   1.841  0.7934 -0.5077 -0.3295
  277SOL    HW1  830   1.754   2.682   1.822  1.6779 -0.0495 -2.3418
  277SOL    HW2  831   1.871   2.673   1.943 -0.6255  0.7550  0.8898
  278SOL     OW  832   1.514   0.363   1.921 -0.4162 -0.2378 -0.3988
  278SOL    HW1  833   1.427   0.390   1.870  0.5997  0.8178 -1.0922
  278SOL    HW2  834   1.602   0.377   1.871  0.9420  0.3389  0.1712
  279SOL     OW  835   2.016   1.731   0.322 -0.0860 -0.0543 -0.2127
  279SOL    HW1  836   2.006   1.630   0.318  2.5383  1.4402  2.3560
  279SOL    HW2  837   1.926   1.775   0.328  0.0675 -3.0155  0.5483
  280SOL     OW  838   0.502   1.602   0.757  0.5136  0.0097 -0.3924
  280SOL    HW1  839   0.460   1.521   0.713 -0.2045  0.6651  3.8470
  280SOL    HW2  840   0.436   1.623   0.833 -1.8307  1.3585 -0.4447
  281SOL     OW  841   0.277   0.110   2.568  0.1404  0.3219  0.4130
  281SOL    HW1  842   0.296   0.174   2.643  0.7730 -3.1187 -1.4849
  281SOL    HW2  843   0.183   0.126   2.536  0.2887 -1.2584  1.4422
  282SOL     OW  844   0.326   0.989   1.068 -0.5868 -0.1128 -0.1090
  282SOL    HW1  845   0.284   0.996   0.973  0.4650  0.6892  0.3563
  282SOL    HW2  846   0.258   0.975   1.139 -1.6423 -1.5857 -0.0290
  283SOL     OW  847   1.851   2.095   0.217  0.1849 -0.0298 -0.2639
  283SOL    HW1  848   1.890   2.095   0.123 -0.5267  0.6746 -0.1887
  283SOL    HW2  849   1.771   2.164   0.221 -1.0870  0.9903 -0.6204
  284SOL     OW  850   1.575   1.589   0.621  0.1429  0.3011 -0.4216
  284SOL    HW1  851   1.560   1.649   0.706 -1.1428  3.1389 -2.1309
  284SOL    HW2  852   1.652   1.626   0.566  0.9926 -0.2530  1.5504
  285SOL     OW  853   3.002   0.106   2.761  0.7275  0.3750  0.2456
  285SOL    HW1  854   2.984   0.196   2.806 -0.3502  0.2824 -0.7969
  285SOL    HW2  855   2.997   0.027   2.826 -1.6601 -0.0487  3.0315
  286SOL     OW  856   1.500   3.050   1.607  0.5914 -0.1882 -0.1855
  286SOL    HW1  857   1.504   2.957   1.566  0.3543  1.9515 -2.5159
  286SOL    HW2  858   1.420   0.007   1.575  0.8333 -0.2305  0.5245
  287SOL     OW  859   0.753   1.136   1.040  0.2537  0.3436 -0.0931
  287SOL    HW1  860   0.808   1.072   1.098 -1.8846  1.5603 -0.2331
  287SOL    HW2  861   0.684   1.188   1.101 -1.2450 -1.0973 -1.2371
  288SOL     OW  862   1.584   0.148   3.007  0.2335  0.0764 -0.1178
  288SOL    HW1  863   1.610   0.246   2.979  0.8742 -2.1183 -0.6769
  288SOL    HW2  864   1.635   0.127   3.097  1.0808  3.6463  1.5248
  289SOL     OW  865   0.011   1.538   2.790  0.1382  0.0275  0.1090
  289SOL    HW1  866   0.003   1.579   2.698 -4.9130 -1.9888 -0.2726
  289SOL    HW2  867   0.079   1.464   2.781  0.6402  1.0834 -1.5576
  290SOL     OW  868   1.426   2.354   0.835 -0.1542  0.0859  0.3202
  290SOL    HW1  869   1.342   2.397   0.796  0.7703 -1.4203 -0.6236
  290SOL    HW2  870   1.429   2.252   0.817  1.6407  0.6287 -0.5048
  291SOL     OW  871   2.237   2.128   2.903 -0.0383  0.4093  0.2352
  291SOL    HW1  872   2.165   2.128   2.975  1.0031 -4.3393  1.8851
  291SOL    HW2  873   2.310   2.071   2.942 -0.9060 -2.0411 -0.7638
  292SOL     OW  874   1.472   1.031   2.007  0.5936  0.3615 -0.0926
  292SOL    HW1  875   1.573   1.026   2.002 -1.2448  1.2090 -0.4543
  292SOL    HW2  876   1.445   1.100   1.941  0.7571  0.9262 -1.4094
  293SOL     OW  877   1.976   2.737   0.922  0.2286  0.0489 -0.1417
  293SOL    HW1  878   1.985   2.839   0.922  0.6865  0.4835 -1.6759
  293SOL    HW2  879   2.064   2.694   0.920 -0.2898  2.1530 -0.4888
  294SOL     OW  880   0.207   0.448   2.323  0.0596  0.3669  0.1994
  294SOL    HW1  881   0.202   0.512   2.398  1.3095 -2.8924 -2.4274
  294SOL    HW2  882   0.298   0.408   2.314  1.9198 -1.4539 -0.4887
  295SOL     OW  883   1.507   1.852   0.347 -0.3343  0.1012  0.1343
  295SOL    HW1  884   1.514   1.879   0.444 -0.2494 -0.7576 -0.0030
  295SOL    HW2  885   1.488   1.751   0.348  0.3864 -2.6168  1.1734
  296SOL     OW  886   2.166   1.861   0.127 -0.5022  0.1882  0.2853
  296SOL    HW1  887   2.130   1.819   0.040 -0.4515  0.6844 -2.3999
  296SOL    HW2  888   2.140   1.808   0.212  1.5781 -1.1206  2.2341
  297SOL     OW  889   2.197   0.585   3.059  1.1097 -0.4184  0.0734
  297SOL    HW1  890   2.225   0.556   2.967  0.2752 -0.7336  2.5440
  297SOL    HW2  891   2.146   0.511   0.011 -1.7343 -0.9915  0.2354
  298SOL     OW  892   1.024   2.487   2.584 -0.4779  0.3143  0.5431
  298SOL    HW1  893   0.992   2.399   2.612  0.2837  2.6621  2.2515
  298SOL    HW2  894   1.112   2.476   2.538 -0.2626  1.7133 -0.1872
  299SOL     OW  895   1.271   2.879   2.490  0.0974 -0.6780  0.5182
  299SOL    HW1  896   1.354   2.900   2.432 -0.8288 -3.0938  0.2779
  299SOL    HW2  897   1.185   2.916   2.448  1.5430  1.0082  2.9252
  300SOL     OW  898   2.511   0.105   2.871  0.1142  0.0977 -0.5304
  300SOL    HW1  899   2.590   0.168   2.893  0.1316  2.1289 -1.5510
  300SOL    HW2  900   2.457   0.143   2.793 -0.4125 -1.1427  2.8374
  301SOL     OW  901   1.391   1.504   1.309 -0.5572  0.8366  0.2499
  301SOL    HW1  902   1.367   1.447   1.389 -0.1948 -0.1122 -0.0864
  301SOL    HW2  903   1.432   1.449   1.234 -2.1232  0.6673  0.5358
  302SOL     OW  904   2.711   2.344   0.333 -0.4024 -0.0993 -0.1935
  302SOL    HW1  905   2.812   2.347   0.322  0.5567 -1.4160 -2.0290
  302SOL    HW2  906   2.664   2.351   0.242  2.5570  0.0488 -1.2091
  303SOL     OW  907   2.947   2.570   2.224  0.7881 -0.7371  0.4903
  303SOL    HW1  908   3.045   2.598   2.212  2.3707 -1.3750 -0.3714
  303SOL    HW2  909   2.916   2.518   2.140 -0.0085  1.3148 -1.2942
  304SOL     OW  910   0.030   0.624   1.909  0.5412 -0.3308  0.0311
  304SOL    HW1  911   0.034   0.662   1.812 -1.5589  3.3237 -3.4275
  304SOL    HW2  912   3.025   0.623   1.931 -1.8135  0.8359  0.6591
  305SOL     OW  913   0.499   2.027   1.933 -0.0040 -0.0094  0.1157
  305SOL    HW1  914   0.534   1.932   1.925  0.7669 -1.2166  0.0605
  305SOL    HW2  915   0.543   2.095   1.872 -0.2448 -0.3276 -0.0801
  306SOL     OW  916   2.710   0.806   1.906  0.2295  0.2149  0.4694
  306SOL    HW1  917   2.680   0.858   1.989  2.2131  0.1010  1.5340
  306SOL    HW2  918   2.627   0.772   1.857  1.0016  1.8040  0.1677
  307SOL     OW  919   1.715   1.326   1.772 -0.1418  0.3270  0.0587
  307SOL    HW1  920   1.660   1.368   1.699 -0.4504 -2.2245  0.4173
  307SOL    HW2  921   1.748   1.236   1.742 -1.5905  0.8603 -2.9579
  308SOL     OW  922   2.583   1.569   1.106  0.3218 -0.5000  0.2113
  308SOL    HW1  923   2.503   1.613   1.155 -3.1388 -1.6915 -0.3657
  308SOL    HW2  924   2.619   1.629   1.028  0.5053 -0.4197 -0.8242
  309SOL     OW  925   2.301   1.724   1.536  0.3750 -0.3064 -0.1036
  309SOL    HW1  926   2.331   1.803   1.593 -3.3312  0.1915  2.6662
  309SOL    HW2  927   2.348   1.637   1.552  0.8268  2.2060  0.3266
  310SOL     OW  928   2.698   1.393   2.590  0.3505 -0.1730 -0.4099
  310SOL    HW1  929   2.695   1.388   2.487 -2.1482 -0.8407  0.6840
  310SOL    HW2  930   2.730   1.485   2.616  0.5719 -1.7514 -3.6227
  311SOL     OW  931   2.902   1.857   2.938  0.2829  0.4807 -0.8754
  311SOL    HW1  932   2.825   1.885   3.004 -0.9047  1.9370  0.2435
  311SOL    HW2  933   2.904   1.756   2.922  0.6933  0.7013 -2.8720
  312SOL     OW  934   2.369   1.694   1.224 -0.3044 -0.0066  0.1781
  312SOL    HW1  935   2.312   1.632   1.162 -0.9394 -2.0356 -0.0331
  312SOL    HW2  936   2.323   1.708   1.308 -0.5609  0.8316 -1.9018
  313SOL     OW  937   2.578   2.595   1.064 -0.0987  0.4242 -0.0530
  313SOL    HW1  938   2.554   2.691   1.031  0.1783  1.0283  1.3846
  313SOL    HW2  939   2.502   2.547   1.118 -3.0290 -3.3104  2.1360
  314SOL     OW  940   1.072   1.561   0.170 -0.0443  0.8673 -0.6244
  314SOL    HW1  941   1.072   1.628   0.095 -0.2938  3.3797 -0.2331
  314SOL    HW2  942   1.136   1.589   0.244  0.2536 -1.6018 -2.1330
  315SOL     OW  943   0.892   2.684   2.442 -0.5097  0.1545  0.3683
  315SOL    HW1  944   0.943   2.651   2.523  1.6775  1.5352  2.0906
  315SOL    HW2  945   0.940   2.766   2.395  1.9805  1.5652 -3.8743
  316SOL     OW  946   0.117   0.657   0.671  0.1374 -0.1312 -0.2197
  316SOL    HW1  947   0.180   0.690   0.596  1.0096  0.6886  0.9447
  316SOL    HW2  948   0.048   0.588   0.632 -2.0300 -1.5190 -1.5498
  317SOL     OW  949   0.935   0.247   0.484 -0.0982  0.6647  0.1293
  317SOL    HW1  950   0.861   0.293   0.429  0.7349  2.4871  1.6032
  317SOL    HW2  951   0.938   0.144   0.472 -1.1946 -0.1450 -1.1459
  318SOL     OW  952   3.028   2.360   0.340 -0.1114 -0.0625 -0.1107
  318SOL    HW1  953   0.032   2.370   0.326  0.9077  2.9744 -0.2017
  318SOL    HW2  954   3.002   2.408   0.423 -2.1765  2.5612 -1.4111
  319SOL     OW  955   0.271   1.332   2.334  0.6481 -0.4954  0.2910
  319SOL    HW1  956   0.323   1.407   2.383 -2.0762  1.3586  1.3350
  319SOL    HW2  957   0.303   1.318   2.241  2.5958  0.7860  0.2825
  320SOL     OW  958   0.901   2.750   1.868  0.4971 -0.5923 -0.0609
  320SOL    HW1  959   0.967   2.781   1.796 -1.4948  1.4885 -1.4362
  320SOL    HW2  960   0.818   2.808   1.855 -0.7554  1.7906 -2.5317
  321SOL     OW  961   1.075   2.436   0.086  0.4435 -0.0675  0.6475
  321SOL    HW1  962   1.128   2.380   0.150 -1.2972  3.1290 -0.5263
  321SOL    HW2  963   1.148   2.497   0.049 -0.0542 -0.8753 -1.1428
  322SOL     OW  964   2.652   0.984   2.119  0.1957 -0.2640 -0.2725
  322SOL    HW1  965   2.587   1.034   2.062 -0.2583 -0.4204 -0.4628
  322SOL    HW2  966   2.699   1.042   2.190  0.1829 -1.6417 -0.1956
  323SOL     OW  967   2.484   0.773   0.482 -0.5953 -0.3548 -0.3688
  323SOL    HW1  968   2.392   0.756   0.441 -2.7203 -0.6641  1.1696
  323SOL    HW2  969   2.567   0.731   0.437 -1.3204 -0.7731  0.0470
  324SOL     OW  970   0.305   2.546   3.085 -0.2695 -0.0322 -0.0384
  324SOL    HW1  971   0.348   2.552   2.994 -1.0664  1.0490  2.6819
  324SOL    HW2  972   0.370   2.520   0.064 -2.5907  0.5025  0.0036
  325SOL     OW  973   1.833   0.316   2.547 -0.2998  0.4480  0.7232
  325SOL    HW1  974   1.894   0.244   2.586  0.5900  0.1102  0.8480
  325SOL    HW2  975   1.804   0.297   2.451 -1.2112 -1.2201  1.7782
  326SOL     OW  976   2.366   2.823   1.549  0.3200 -0.3346 -0.4300
  326SOL    HW1  977   2.450   2.846   1.600 -0.7519 -0.7555  0.2238
  326SOL    HW2  978   2.386   2.838   1.451  0.2987  1.0486 -0.2926
  327SOL     OW  979   1.892   0.517   3.051 -0.0184 -0.4847 -0.1184
  327SOL    HW1  980   1.902   0.551   0.053 -2.9350 -0.0446  0.3014
  327SOL    HW2  981   1.892   0.600   2.991  0.8581  0.2055  2.8035
  328SOL     OW  982   2.776   1.143   2.297 -0.1014 -0.1368 -0.1537
  328SOL    HW1  983   2.765   1.242   2.298  1.0798  0.0332 -0.9996
  328SOL    HW2  984   2.772   1.105   2.392 -1.1639  1.2266  0.9696
  329SOL     OW  985   1.914   0.194   1.761 -0.0260 -0.3007 -0.0551
  329SOL    HW1  986   1.880   0.122   1.702  1.6484  2.3393  3.0362
  329SOL    HW2  987   1.886   0.179   1.861 -0.0532 -3.2124  1.0104
  330SOL     OW  988   2.714   1.821   1.653 -0.4483 -0.0331 -0.7037
  330SOL    HW1  989   2.749   1.888   1.583 -1.7920  0.9844  0.7244
  330SOL    HW2  990   2.745   1.726   1.620 -0.5958  3.1575 -0.2647
  331SOL     OW  991   0.491   1.389   1.807 -0.1677  0.1861  0.2303
  331SOL    HW1  992   0.438   1.302   1.823  1.2290  1.6761  0.5547
  331SOL    HW2  993   0.433   1.467   1.834  0.3335 -0.9400  1.4284
  332SOL     OW  994   0.556   0.188   1.285  0.5980  0.0526  0.4187
  332SOL    HW1  995   0.484   0.232   1.228 -0.3086  0.2429 -0.5427
  332SOL    HW2  996   0.641   0.244   1.284  1.3540  1.3852  0.7363
  333SOL     OW  997   2.330   2.753   1.823 -0.1035 -0.1995  0.0050
  333SOL    HW1  998   2.353   2.769   1.726  0.4545 -0.6533 -2.1664
  333SOL    HW2  999   2.237   2.724   1.824 -0.1663  0.7787  0.6053
  334SOL     OW 1000   0.799   1.494   1.290 -0.1973  0.0315  0.3297
  334SOL    HW1 1001   0.706   1.512   1.254 -0.1331  0.3282 -0.2714
  334SOL    HW2 1002   0.870   1.554   1.243 -0.4132  0.5582  0.8964
  335SOL     OW 1003   0.401   2.552   2.833  0.0095  0.5778  0.4676
  335SOL    HW1 1004   0.485   2.579   2.781 -1.9282  1.1083 -0.2415
  335SOL    HW2 1005   0.327   2.515   2.776  2.7066  0.1112  1.4508
  336SOL     OW 1006   3.085   2.979   1.809  0.4418  0.0217 -0.0146
  336SOL    HW1 1007   3.094   3.080   1.792 -0.1934  1.7640 -0.3508
  336SOL    HW2 1008   3.086   2.927   1.724 -1.4918  1.4461 -0.0599
  337SOL     OW 1009   2.605   2.100   0.527  0.3508 -0.0344 -0.5420
  337SOL    HW1 1010   2.609   2.194   0.561 -0.2392 -2.4406 -0.1849
  337SOL    HW2 1011   2.559   2.102   0.433  0.2567  1.4263 -1.8728
  338SOL     OW 1012   0.924   2.132   1.462  0.0910 -0.0950  0.4921
  338SOL    HW1 1013   1.014   2.087   1.455 -1.1236  0.1024  0.1105
  338SOL    HW2 1014   0.896   2.173   1.376 -1.0475 -2.6733  4.4078
  339SOL     OW 1015   0.004   0.568   2.207  0.2741  0.6276  0.6105
  339SOL    HW1 1016   0.011   0.557   2.105  0.6840  0.0094 -1.1205
  339SOL    HW2 1017   0.070   0.505   2.249  0.2089  1.5916 -0.6904
  340SOL     OW 1018   1.595   2.560   0.848 -0.0897  0.3734  0.4516
  340SOL    HW1 1019   1.542   2.478   0.825 -1.5390 -0.1461  2.8038
  340SOL    HW2 1020   1.627   2.569   0.939 -0.8329  1.2585 -2.4286
  341SOL     OW 1021   1.631   1.479   1.015 -0.5207  0.2738 -0.4053
  341SOL    HW1 1022   1.576   1.464   0.934  1.4053  0.0858  0.6496
  341SOL    HW2 1023   1.725   1.513   1.000  1.9977 -0.1724  0.5340
  342SOL     OW 1024   0.104   1.271   0.807  0.4754 -0.2815  0.4764
  342SOL    HW1 1025   0.101   1.367   0.786  1.2774 -1.4476  2.8652
  342SOL    HW2 1026   0.194   1.230   0.784 -0.8372  0.2448 -0.4417
  343SOL     OW 1027   1.726   0.250   1.323  0.4363 -0.2408 -0.5353
  343SOL    HW1 1028   1.655   0.313   1.297  0.1475 -0.3253  0.6858
  343SOL    HW2 1029   1.694   0.187   1.397 -1.0750  3.3722 -2.2890
  344SOL     OW 1030   2.016   2.503   1.181  0.1185 -0.3658  0.3049
  344SOL    HW1 1031   2.026   2.434   1.255 -1.6190 -1.4990 -2.3134
  344SOL    HW2 1032   1.946   2.567   1.208  1.7355 -0.8881  0.7393
  345SOL     OW 1033   2.775   2.335   2.723  0.7696  0.2039  0.3364
  345SOL    HW1 1034   2.798   2.415   2.661  0.5011  2.7419  1.1598
  345SOL    HW2 1035   2.803   2.246   2.680  0.2921 -1.1739  1.1036
  346SOL     OW 1036   0.249   1.556   0.839  0.0972 -0.0630 -0.4587
  346SOL    HW1 1037   0.211   1.636   0.890  0.2484 -0.7802 -0.3913
  346SOL    HW2 1038   0.199   1.527   0.751 -3.2347 -2.2149 -2.0438
  347SOL     OW 1039   1.842   2.537   0.716 -0.3209  0.2811 -0.6591
  347SOL    HW1 1040   1.747   2.548   0.749 -0.8067  1.6710 -0.6903
  347SOL    HW2 1041   1.913   2.581   0.781  1.8302 -1.8499 -0.3365
  348SOL     OW 1042   1.240   1.492   2.395 -0.0510  0.1441 -0.1744
  348SOL    HW1 1043   1.187   1.525   2.318  1.8949 -2.0017  0.2345
  348SOL    HW2 1044   1.208   1.404   2.431  0.0469  0.5945 -0.8174
  349SOL     OW 1045   2.292   1.133   2.270 -0.6157 -0.1225  0.4702
  349SOL    HW1 1046   2.205   1.100   2.231  0.9971  1.6365 -0.2344
  349SOL    HW2 1047   2.321   1.080   2.355 -0.3528  0.8905  1.1290
  350SOL     OW 1048   0.134   2.223   1.368 -0.5536 -0.0203  0.3984
  350SOL    HW1 1049   0.072   2.167   1.425  3.1509 -0.7030  0.3327
  350SOL    HW2 1050   0.162   2.172   1.287 -1.2168 -1.6187  1.5187
  351SOL     OW 1051   0.607   0.295   2.679  0.7204  0.2477  0.7001
  351SOL    HW1 1052   0.660   0.243   2.751 -0.3407  1.7743  1.3483
  351SOL    HW2 1053   0.661   0.357   2.619 -1.9775 -0.0572 -2.1243
  352SOL     OW 1054   0.975   2.841   1.305  0.6038 -0.9107 -0.6276
  352SOL    HW1 1055   1.039   2.796   1.368 -0.3020  0.7138 -1.3436
  352SOL    HW2 1056   0.931   2.918   1.363 -1.8339  0.8436  0.3507
  353SOL     OW 1057   0.987   1.047   2.270  0.5047 -0.1799  0.2779
  353SOL    HW1 1058   1.030   0.954   2.245 -0.5595 -0.1140  0.5413
  353SOL    HW2 1059   0.924   1.037   2.348  0.0575  1.2952  1.9401
  354SOL     OW 1060   1.769   1.289   0.561  0.1416  0.0053  0.1156
  354SOL    HW1 1061   1.743   1.274   0.654 -0.2692 -1.1211 -0.6289
  354SOL    HW2 1062   1.691   1.325   0.506  2.6481 -0.3059 -0.7127
  355SOL     OW 1063   2.366   0.352   0.563 -0.1298 -0.0106  0.5690
  355SOL    HW1 1064   2.410   0.427   0.618 -0.6104  0.9350 -0.6819
  355SOL    HW2 1065   2.426   0.275   0.563 -0.1601  2.4346 -2.5183
  356SOL     OW 1066   2.832   1.032   2.562  0.2782 -0.6666  0.5862
  356SOL    HW1 1067   2.852   1.098   2.640  2.0108 -0.9749  1.1679
  356SOL    HW2 1068   2.916   0.985   2.532 -0.3861 -0.2387 -0.1810
  357SOL     OW 1069   0.699   2.914   1.811 -0.3223 -0.5141  0.1731
  357SOL    HW1 1070   0.692   3.005   1.768 -0.7906  1.0554 -0.4989
  357SOL    HW2 1071   0.669   2.847   1.744 -2.0308 -0.2936  1.9383
  358SOL     OW 1072   2.883   1.264   2.757 -0.3291  0.4036  0.1913
  358SOL    HW1 1073   2.803   1.309   2.710 -1.3387 -1.0687  2.1978
  358SOL    HW2 1074   2.968   1.269   2.705 -2.5393  0.6717  1.0959
  359SOL     OW 1075   2.526   2.595   2.748  0.2327  0.3959 -0.2179
  359SOL    HW1 1076   2.452   2.666   2.729  0.3879  1.6602  1.1028
  359SOL    HW2 1077   2.505   2.512   2.696  0.7961  0.4476  1.5918
  360SOL     OW 1078   1.884   1.293   0.914 -0.0002  0.5616  0.7867
  360SOL    HW1 1079   1.797   1.253   0.878  0.4018  2.7372  0.9588
  360SOL    HW2 1080   1.951   1.227   0.948  0.9440 -1.4981  0.0125
  361SOL     OW 1081   1.814   2.731   1.159 -0.2351  0.0697  1.0474
  361SOL    HW1 1082   1.805   2.808   1.227 -0.0043  0.1694  0.9105
  361SOL    HW2 1083   1.881   2.754   1.086 -0.3060  1.3584 -0.1561
  362SOL     OW 1084   1.465   1.417   0.798  0.2730 -0.2417  0.1477
  362SOL    HW1 1085   1.376   1.373   0.764 -0.9717 -0.1728 -3.5802
  362SOL    HW2 1086   1.497   1.482   0.727 -0.8216 -1.8444  1.2232
  363SOL     OW 1087   3.037   2.055   2.663 -0.2508 -0.4056 -0.1131
  363SOL    HW1 1088   2.944   2.046   2.687  4.7479  1.1172 -0.9872
  363SOL    HW2 1089   3.082   2.146   2.692  0.4900  2.8323  0.7194
  364SOL     OW 1090   1.665   0.777   1.476  0.0157  0.5752  0.8551
  364SOL    HW1 1091   1.581   0.744   1.516  3.0908  0.6335  1.3016
  364SOL    HW2 1092   1.687   0.726   1.391 -0.3309  0.0371  1.2686
  365SOL     OW 1093   2.897   2.719   1.127 -0.1464  0.0034  0.2746
  365SOL    HW1 1094   2.880   2.719   1.024  0.0303 -2.5552  1.4703
  365SOL    HW2 1095   2.869   2.632   1.173 -0.3114  1.5196  1.2496
  366SOL     OW 1096   2.944   1.280   0.195  0.2529  0.1408  0.3083
  366SOL    HW1 1097   2.945   1.374   0.167  0.8961 -1.7124 -0.0618
  366SOL    HW2 1098   2.864   1.267   0.253  0.3095 -0.7072  0.4070
  367SOL     OW 1099   2.779   2.016   2.721 -0.3660  0.4954  0.0723
  367SOL    HW1 1100   2.684   2.037   2.749  2.0711  1.3820  0.9604
  367SOL    HW2 1101   2.820   1.938   2.779  0.3619 -2.8790 -1.3106
  368SOL     OW 1102   2.763   2.007   1.461 -0.3672 -0.2242  0.4833
  368SOL    HW1 1103   2.706   2.081   1.492  1.1066 -3.3895 -2.6970
  368SOL    HW2 1104   2.712   1.965   1.383  0.8405 -0.4403 -2.5127
  369SOL     OW 1105   0.707   0.338   0.341 -0.0953 -0.1284 -0.2902
  369SOL    HW1 1106   0.697   0.250   0.286 -0.2807 -0.0512  0.0849
  369SOL    HW2 1107   0.618   0.364   0.386  1.7776  0.5474  1.5877
  370SOL     OW 1108   0.951   0.626   1.064  0.0348  0.3040  0.0329
  370SOL    HW1 1109   0.886   0.681   1.115  3.6466  0.3426 -1.0859
  370SOL    HW2 1110   0.903   0.556   1.010  0.6087  2.2222  1.7779
  371SOL     OW 1111   2.654   1.745   0.295  0.3723 -0.1944  0.0839
  371SOL    HW1 1112   2.648   1.661   0.237  0.2074  4.3422  1.6700
  371SOL    HW2 1113   2.554   1.775   0.316 -1.8923  0.6431  0.2135
  372SOL     OW 1114   0.224   1.073   2.513 -0.0782 -0.5827  0.1147
  372SOL    HW1 1115   0.289   1.014   2.563 -3.6743  2.7180 -1.3232
  372SOL    HW2 1116   0.275   1.125   2.441  0.9402  2.3863  0.0323
  373SOL     OW 1117   2.633   1.241   0.593 -0.3241  0.1126  0.4694
  373SOL    HW1 1118   2.569   1.317   0.623  0.2600  0.9666 -0.3415
  373SOL    HW2 1119   2.725   1.245   0.636  0.0184 -0.3915 -0.1977
  374SOL     OW 1120   0.453   2.422   0.193  0.0569  0.1417  0.1001
  374SOL    HW1 1121   0.518   2.342   0.180  0.6700  0.6585 -1.8293
  374SOL    HW2 1122   0.504   2.496   0.243 -0.6885  1.2878  1.0955
  375SOL     OW 1123   0.951   0.742   0.021  0.3090  0.0412 -0.3862
  375SOL    HW1 1124   0.962   0.771   3.021  0.8156  0.4577  3.4203
  375SOL    HW2 1125   0.872   0.686   0.039  1.2841 -0.5407 -0.0563
  376SOL     OW 1126   0.136   2.903   2.017 -0.7306  0.0180 -0.3259
  376SOL    HW1 1127   0.095   2.919   1.926  0.8527  0.9190  0.5529
  376SOL    HW2 1128   0.112   2.965   2.092 -0.8465 -1.2092  2.4777
  377SOL     OW 1129   0.434   1.916   2.440 -0.8864 -0.5617  0.4142
  377SOL    HW1 1130   0.371   1.855   2.387 -0.8026 -2.7540 -0.5449
  377SOL    HW2 1131   0.413   1.907   2.540  0.1090 -0.5748  2.0864
  378SOL     OW 1132   1.458   0.932   0.507  0.1562 -0.0458 -0.1296
  378SOL    HW1 1133   1.384   0.868   0.469  1.3099 -0.2500 -3.0360
  378SOL    HW2 1134   1.521   0.877   0.567  3.1521 -0.8799 -1.0453
  379SOL     OW 1135   1.333   1.293   3.018 -0.4896 -0.3530 -0.2554
  379SOL    HW1 1136   1.252   1.287   3.079  1.1701 -1.7574  0.2947
  379SOL    HW2 1137   1.388   1.377   3.030 -4.9285 -3.2542  0.6636
  380SOL     OW 1138   2.524   2.175   2.265 -0.0660 -0.1137 -0.0253
  380SOL    HW1 1139   2.547   2.273   2.243  1.3213  1.7008 -3.0244
  380SOL    HW2 1140   2.588   2.109   2.229  0.5031 -1.7694  1.0163
  381SOL     OW 1141   0.303   0.856   1.795 -0.4819 -0.0785  0.0242
  381SOL    HW1 1142   0.235   0.898   1.731  1.0018  0.8188  1.0969
  381SOL    HW2 1143   0.323   0.760   1.767  1.3832 -0.4969  1.9304
  382SOL     OW 1144   2.615   2.562   3.013 -0.6429 -0.0532  0.0969
  382SOL    HW1 1145   2.592   2.581   2.919 -1.1396 -0.9277  1.7131
  382SOL    HW2 1146   2.603   2.459   3.030 -3.1363 -0.4380 -2.2480
  383SOL     OW 1147   2.050   1.589   2.262  0.4797 -0.3440 -0.1048
  383SOL    HW1 1148   2.142   1.573   2.222 -1.6033  0.7740 -1.2487
  383SOL    HW2 1149   1.994   1.508   2.240  0.2045  1.1008  1.9516
  384SOL     OW 1150   0.701   2.268   2.368 -0.2175 -0.2949 -0.1846
  384SOL    HW1 1151   0.749   2.223   2.291  0.2640 -0.4897  4.4005
  384SOL    HW2 1152   0.606   2.233   2.376  3.4953  0.3603  1.2376
  385SOL     OW 1153   2.645   2.259   0.929  0.8636 -0.5736 -0.0915
  385SOL    HW1 1154   2.734   2.225   0.957 -3.3902 -0.7027  3.5186
  385SOL    HW2 1155   2.634   2.272   0.826 -0.3563  0.4368 -1.6445
  386SOL     OW 1156   1.686   0.826   0.091  0.3760 -0.0324  0.5899
  386SOL    HW1 1157   1.646   0.751   0.158 -0.8247 -1.5907  0.2509
  386SOL    HW2 1158   1.773   0.858   0.132 -0.6749 -1.2184 -0.5608
  387SOL     OW 1159   0.453   0.988   1.362 -0.0590  0.1820 -0.4004
  387SOL    HW1 1160   0.351   0.995   1.377 -0.3196 -1.9833 -3.9566
  387SOL    HW2 1161   0.488   1.059   1.292  1.5290 -1.1785 -1.0718
  388SOL     OW 1162   3.021   0.797   1.420 -0.1226  0.2280 -0.2014
  388SOL    HW1 1163   2.977   0.716   1.370 -2.0805 -1.7910 -4.7957
  388SOL    HW2 1164   2.949   0.864   1.433  0.8900 -3.9871 -2.4647
  389SOL     OW 1165   1.923   0.987   2.600 -0.0195  0.0745  0.1377
  389SOL    HW1 1166   1.837   1.026   2.638  2.0655 -2.6871  0.1628
  389SOL    HW2 1167   1.980   0.968   2.680  0.1734  2.1388  0.8753
  390SOL     OW 1168   2.244   2.137   0.389  0.8460 -0.2366 -0.3421
  390SOL    HW1 1169   2.263   2.221   0.448 -1.3686  1.7199  0.8165
  390SOL    HW2 1170   2.173   2.076   0.419  1.9779 -2.0179 -2.7444
  391SOL     OW 1171   1.221   2.594   0.853  0.7860 -0.2564  0.0843
  391SOL    HW1 1172   1.126   2.559   0.841  0.8898 -0.0397  0.8086
  391SOL    HW2 1173   1.247   2.627   0.948 -1.6367  2.0918  1.0165
  392SOL     OW 1174   2.663   2.842   1.325 -0.1270 -0.0262 -0.0007
  392SOL    HW1 1175   2.699   2.748   1.340  0.2716 -0.0404  1.5495
  392SOL    HW2 1176   2.579   2.844   1.269 -1.6898  0.7679  0.4564
  393SOL     OW 1177   1.803   2.318   2.656 -0.3040  0.0346 -0.0296
  393SOL    HW1 1178   1.876   2.388   2.655 -1.8825  0.5252 -0.1313
  393SOL    HW2 1179   1.840   2.230   2.616  0.4863 -1.9952 -0.3951
  394SOL     OW 1180   0.669   2.621   2.703  0.0430 -0.0680 -0.3283
  394SOL    HW1 1181   0.703   2.719   2.715 -0.2444 -0.2014 -0.8449
  394SOL    HW2 1182   0.736   2.552   2.682 -7.1728  0.5883 -0.4563
  395SOL     OW 1183   0.494   1.171   1.156 -0.5227  0.0540  0.0078
  395SOL    HW1 1184   0.444   1.098   1.113  0.2917  4.0620  0.9235
  395SOL    HW2 1185   0.468   1.258   1.113 -1.6280  0.4233  0.0722
  396SOL     OW 1186   1.992   1.294   2.608 -0.2538  0.3781  0.3763
  396SOL    HW1 1187   2.089   1.301   2.643  1.7362 -0.6505  1.6976
  396SOL    HW2 1188   1.961   1.199   2.588  1.2232 -0.4161 -1.1561
  397SOL     OW 1189   2.866   0.422   2.455 -0.2117 -0.6643  0.1284
  397SOL    HW1 1190   2.819   0.339   2.492  2.3134  0.1022  3.0600
  397SOL    HW2 1191   2.952   0.442   2.506  3.0069 -1.0693  0.7200
  398SOL     OW 1192   1.598   0.497   0.519  0.0835 -0.1866  0.4807
  398SOL    HW1 1193   1.614   0.396   0.504  0.9664 -0.3580 -1.7005
  398SOL    HW2 1194   1.497   0.513   0.531  0.3554 -0.0921 -1.3861
  399SOL     OW 1195   2.156   2.975   1.631  0.5032  0.4084  0.0675
  399SOL    HW1 1196   2.079   2.949   1.570 -2.8595 -1.1132 -3.2862
  399SOL    HW2 1197   2.239   2.919   1.603  2.4259 -1.2208  1.9436
  400SOL     OW 1198   0.075   2.445   1.804 -0.4291 -0.3309 -0.8508
  400SOL    HW1 1199   0.076   2.343   1.795  2.0180 -1.6838 -1.5186
  400SOL    HW2 1200   0.158   2.488   1.772 -1.1547 -0.6183 -1.2018
  401SOL     OW 1201   0.690   0.146   0.174  0.0226 -0.4427 -0.4519
  401SOL    HW1 1202   0.606   0.113   0.134  1.1355  1.5434  0.2912
  401SOL    HW2 1203   0.755   0.164   0.098 -1.9004 -0.2476 -0.7619
  402SOL     OW 1204   0.627   2.723   1.651 -0.0451 -0.0045 -0.3862
  402SOL    HW1 1205   0.707   2.677   1.605 -0.5606  1.1191 -1.5905
  402SOL    HW2 1206   0.554   2.737   1.584 -2.7405 -1.5842  1.1142
  403SOL     OW 1207   0.102   0.977   1.673 -0.2972  0.4894 -0.2341
  403SOL    HW1 1208   0.008   0.939   1.690 -1.9945 -0.4467  1.1463
  403SOL    HW2 1209   0.114   1.006   1.577  0.8767 -0.1178 -0.6012
  404SOL     OW 1210   2.952   2.437   1.965  0.5146 -0.6353  0.2964
  404SOL    HW1 1211   3.043   2.445   1.911  3.7813  1.0269  0.1832
  404SOL    HW2 1212   2.883   2.491   1.915  1.7037 -1.6495 -1.2057
  405SOL     OW 1213   2.459   0.148   2.161 -0.4723 -0.0916  0.1478
  405SOL    HW1 1214   2.410   0.062   2.141  1.4658  0.1481 -0.2238
  405SOL    HW2 1215   2.558   0.133   2.186 -0.3019  0.8094  0.9821
  406SOL     OW 1216   1.757   2.556   0.345  0.3676  0.1584  0.0312
  406SOL    HW1 1217   1.817   2.472   0.340 -0.9014 -0.6894  0.0617
  406SOL    HW2 1218   1.670   2.535   0.393 -0.0555  0.3604  1.4830
  407SOL     OW 1219   1.815   1.671   0.522  0.4871  0.7071 -0.1508
  407SOL    HW1 1220   1.871   1.601   0.483 -1.0811  3.4730  0.4088
  407SOL    HW2 1221   1.791   1.746   0.458 -0.2668  0.6179 -1.0921
  408SOL     OW 1222   0.491   0.563   2.094 -0.0530  0.1808  1.0225
  408SOL    HW1 1223   0.495   0.486   2.159  1.1627  2.6953 -2.1106
  408SOL    HW2 1224   0.495   0.655   2.139  1.0918  2.9119  2.7869
  409SOL     OW 1225   2.937   1.542   0.115  0.3501  0.1642  0.7139
  409SOL    HW1 1226   2.929   1.555   0.012 -2.2997 -1.7393 -2.7787
  409SOL    HW2 1227   2.978   1.622   0.154  0.4346 -2.1488  1.0950
  410SOL     OW 1228   2.064   1.823   1.435  0.5389  0.3703  0.2050
  410SOL    HW1 1229   2.153   1.813   1.483  0.9977 -0.2161  1.3988
  410SOL    HW2 1230   2.032   1.733   1.404  0.5222  1.3778  0.4993
  411SOL     OW 1231   3.028   0.495   0.537  0.6532 -0.1638 -0.7826
  411SOL    HW1 1232   3.032   0.539   0.443 -1.2015  0.1225 -1.2287
  411SOL    HW2 1233   2.928   0.500   0.576 -2.3886  2.5221  2.9387
  412SOL     OW 1234   1.754   0.101   0.128  0.0962 -0.4202  0.0946
  412SOL    HW1 1235   1.830   0.156   0.172  3.2176  0.4650 -0.1016
  412SOL    HW2 1236   1.668   0.103   0.185  1.9994  4.4962 -4.3380
  413SOL     OW 1237   1.303   0.522   1.536  0.0088 -0.5168 -0.5322
  413SOL    HW1 1238   1.371   0.595   1.565  0.7943 -1.5351  1.6947
  413SOL    HW2 1239   1.338   0.470   1.461  1.2172  0.7302 -1.7071
  414SOL     OW 1240   0.259   1.055   0.326  0.0199 -0.3350  0.2224
  414SOL    HW1 1241   0.290   0.978   0.260 -1.2372 -1.9366  0.0854
  414SOL    HW2 1242   0.221   1.133   0.270 -0.1748 -0.1542 -1.4321
  415SOL     OW 1243   0.057   1.485   0.620 -0.0955  0.1971  0.2098
  415SOL    HW1 1244   0.033   1.574   0.582  1.5570  0.1708  1.1170
  415SOL    HW2 1245   0.029   1.414   0.554  2.6090  0.5701  0.1179
  416SOL     OW 1246   2.102   0.960   0.398 -0.0583  0.1753  0.3192
  416SOL    HW1 1247   2.113   1.018   0.482 -1.1788  4.1438 -2.0554
  416SOL    HW2 1248   2.025   0.896   0.404 -0.1923  4.6082 -0.1768
  417SOL     OW 1249   2.801   3.093   0.294  0.0435 -0.5245  0.5625
  417SOL    HW1 1250   2.889   3.044   0.308 -3.6861  2.8819  0.7241
  417SOL    HW2 1251   2.781   3.093   0.191 -0.2804 -1.5621 -2.6568
  418SOL     OW 1252   2.516   0.800   0.168 -0.4065  0.1258  0.8234
  418SOL    HW1 1253   2.526   0.744   0.082 -0.6015  1.4145 -2.1033
  418SOL    HW2 1254   2.562   0.747   0.240 -1.0727  0.6840 -1.3388
  419SOL     OW 1255   0.697   0.532   0.117  0.0333 -1.0531 -0.3297
  419SOL    HW1 1256   0.633   0.483   0.055 -2.8864 -1.5267 -2.5121
  419SOL    HW2 1257   0.737   0.467   0.181 -4.2127  2.5825 -1.9243
  420SOL     OW 1258   0.374   1.190   0.811 -0.2043 -0.2087 -0.7101
  420SOL    HW1 1259   0.386   1.091   0.792  3.2975 -0.8258 -2.4201
  420SOL    HW2 1260   0.368   1.239   0.722  0.6884  0.0507 -0.0664
  421SOL     OW 1261   0.506   1.932   0.151  0.3320  0.3663 -0.2813
  421SOL    HW1 1262   0.509   1.848   0.205  1.5145  1.5242 -1.2903
  421SOL    HW2 1263   0.409   1.943   0.122  1.0677 -1.2112  0.6238
  422SOL     OW 1264   2.678   0.283   1.334  0.1765 -0.8501  0.1066
  422SOL    HW1 1265   2.578   0.277   1.330  0.0325 -0.7400 -1.3825
  422SOL    HW2 1266   2.724   0.197   1.302 -1.9436  0.0939 -0.6920
  423SOL     OW 1267   2.098   1.919   0.489 -0.2452  0.3079  0.0408
  423SOL    HW1 1268   2.184   1.888   0.539  2.3412 -1.0368 -1.1917
  423SOL    HW2 1269   2.075   1.849   0.421  1.2330  0.3257 -0.7395
  424SOL     OW 1270   1.848   1.466   3.080  0.0445  0.1431  0.3659
  424SOL    HW1 1271   1.784   1.537   0.021  0.5440 -0.7419  0.3516
  424SOL    HW2 1272   1.801   1.378   3.059  0.9590  0.2202  1.2310
  425SOL     OW 1273   0.282   2.929   2.302 -0.4978 -0.4202  0.0470
  425SOL    HW1 1274   0.345   2.997   2.338 -1.3681 -0.5419 -0.8189
  425SOL    HW2 1275   0.328   2.844   2.274 -0.4207  1.1736  2.0742
  426SOL     OW 1276   2.305   2.773   2.739 -0.6294  0.3745 -0.4497
  426SOL    HW1 1277   2.388   2.831   2.737  1.6186  0.0982 -0.1415
  426SOL    HW2 1278   2.226   2.836   2.728 -0.2951  0.0889 -0.2636
  427SOL     OW 1279   0.552   1.171   2.259  0.5019  0.4813  0.2825
  427SOL    HW1 1280   0.617   1.119   2.194  2.7581 -4.1330 -0.1125
  427SOL    HW2 1281   0.507   1.248   2.206 -1.0701  2.8807  0.5152
  428SOL     OW 1282   2.423   1.423   2.278  0.0996  0.2848 -0.1098
  428SOL    HW1 1283   2.363   1.345   2.296  0.9052  0.7361  2.0837
  428SOL    HW2 1284   2.380   1.478   2.201  0.5641  1.4984 -0.6679
  429SOL     OW 1285   2.555   0.151   0.577  0.0598  0.2071  0.0279
  429SOL    HW1 1286   2.610   0.202   0.507 -1.7516 -1.3619 -0.3468
  429SOL    HW2 1287   2.539   0.053   0.559 -0.2431  0.7284  4.5684
  430SOL     OW 1288   1.672   1.489   2.544 -0.3226  0.0495 -0.5044
  430SOL    HW1 1289   1.618   1.490   2.457 -0.4403 -0.3432 -2.2330
  430SOL    HW2 1290   1.769   1.507   2.517 -1.0017 -2.3260 -0.1395
  431SOL     OW 1291   2.755   1.929   1.903  0.0141 -0.2271 -0.1697
  431SOL    HW1 1292   2.725   1.889   1.813 -0.4651 -3.4650 -3.0887
  431SOL    HW2 1293   2.793   2.021   1.881  0.2255  0.2491  0.6900
  432SOL     OW 1294   1.057   2.767   2.095  0.1599 -0.2906  0.1181
  432SOL    HW1 1295   1.154   2.729   2.104 -0.9986 -0.7746  1.0804
  432SOL    HW2 1296   1.009   2.757   2.007  1.0096 -1.3779  2.5045
  433SOL     OW 1297   1.341   2.852   0.799  0.1768 -0.5573  0.0950
  433SOL    HW1 1298   1.367   2.927   0.733 -0.8014  0.8486 -0.8436
  433SOL    HW2 1299   1.401   2.773   0.801 -0.8815  0.9035 -0.2838
  434SOL     OW 1300   0.464   2.286   2.069 -0.0117  0.0909  0.2401
  434SOL    HW1 1301   0.494   2.217   2.002 -1.2563  0.4128 -2.5786
  434SOL    HW2 1302   0.447   2.250   2.160  0.3993  0.8888 -0.0283
  435SOL     OW 1303   0.389   1.382   0.612  0.2679  0.2402 -0.3647
  435SOL    HW1 1304   0.481   1.340   0.596 -0.5211  1.0153  0.1668
  435SOL    HW2 1305   0.353   1.404   0.522  0.7252 -0.6399  1.9972
  436SOL     OW 1306   0.089   1.512   1.658  0.4171  0.0081  0.1113
  436SOL    HW1 1307   0.085   1.611   1.648  0.1261 -3.1741  5.0533
  436SOL    HW2 1308   0.082   1.466   1.567 -0.4959 -0.7203  1.4072
  437SOL     OW 1309   1.178   0.451   0.273 -0.5380 -0.1771  0.3433
  437SOL    HW1 1310   1.075   0.454   0.286  0.2195  2.4327 -2.3075
  437SOL    HW2 1311   1.220   0.520   0.335  1.9752 -0.0598  0.6725
  438SOL     OW 1312   0.570   1.837   1.271  0.1907 -0.0892  0.6784
  438SOL    HW1 1313   0.501   1.902   1.304  0.3750 -2.3206 -1.6218
  438SOL    HW2 1314   0.631   1.899   1.214  1.4954  1.3459 -0.7253
  439SOL     OW 1315   1.571   1.868   2.635 -0.5218  0.7871 -0.0000
  439SOL    HW1 1316   1.492   1.815   2.676 -3.5788 -0.6111  0.6209
  439SOL    HW2 1317   1.658   1.852   2.689  2.3497 -1.5887  1.7443
  440SOL     OW 1318   1.566   0.494   1.164 -0.2183  0.1826 -0.1927
  440SOL    HW1 1319   1.487   0.464   1.220 -1.4245  1.4903 -2.0751
  440SOL    HW2 1320   1.545   0.484   1.065  0.0361  1.2290  3.1287
  441SOL     OW 1321   0.836   3.037   1.477  0.4974  0.0602 -0.4193
  441SOL    HW1 1322   0.737   3.050   1.459  0.3749 -2.0543 -2.8547
  441SOL    HW2 1323   0.862   3.067   1.575 -0.0960  0.0940  1.3005
  442SOL     OW 1324   2.330   2.325   0.572 -0.0916  0.3853 -0.0297
  442SOL    HW1 1325   2.429   2.339   0.594  0.2997  0.3458 -0.2722
  442SOL    HW2 1326   2.272   2.331   0.657 -1.1866 -0.4758 -3.6959
  443SOL     OW 1327   2.808   0.462   2.201 -0.2971  0.3863 -0.4184
  443SOL    HW1 1328   2.713   0.486   2.209  2.1379 -0.8692  2.3484
  443SOL    HW2 1329   2.851   0.469   2.293  1.0342 -3.5297  0.8167
  444SOL     OW 1330   1.619   1.063   2.341  0.7048  0.2642 -0.2375
  444SOL    HW1 1331   1.711   1.020   2.345 -1.3673  1.9472 -0.5989
  444SOL    HW2 1332   1.622   1.155   2.295 -0.3313 -0.6343 -1.8002
  445SOL     OW 1333   2.559   2.156   1.566  0.1211  0.3643  0.0663
  445SOL    HW1 1334   2.600   2.227   1.626  3.6480 -0.8045 -0.3119
  445SOL    HW2 1335   2.467   2.183   1.536  3.1515 -1.7334 -0.5354
  446SOL     OW 1336   0.284   0.871   0.775 -0.1479 -0.4697 -0.0018
  446SOL    HW1 1337   0.230   0.788   0.780  2.1822  0.3770  0.5444
  446SOL    HW2 1338   0.251   0.918   0.689  0.5453 -1.8364 -0.2718
  447SOL     OW 1339   0.664   1.923   0.794 -1.2772 -0.1141 -0.4223
  447SOL    HW1 1340   0.587   1.976   0.839  0.9355 -0.2055 -1.3676
  447SOL    HW2 1341   0.634   1.869   0.714 -1.0767  1.8666 -0.4044
  448SOL     OW 1342   1.298   1.368   1.521  0.0374 -0.3389 -0.0378
  448SOL    HW1 1343   1.229   1.411   1.577 -0.8498 -0.0337 -2.9539
  448SOL    HW2 1344   1.254   1.291   1.471  1.4303  1.5133  1.5129
  449SOL     OW 1345   0.352   1.650   2.965  0.6179  0.1478 -0.1121
  449SOL    HW1 1346   0.364   1.551   2.948  1.4854  0.1958  0.9006
  449SOL    HW2 1347   0.438   1.691   3.007 -0.4877 -0.0973  0.1741
  450SOL     OW 1348   2.324   2.201   1.878 -0.1978 -0.1513 -0.2095
  450SOL    HW1 1349   2.224   2.209   1.851 -0.0191  1.8165  0.4686
  450SOL    HW2 1350   2.351   2.295   1.906 -1.5287  0.9572  4.1296
  451SOL     OW 1351   2.241   0.355   1.839  0.4896 -0.1224 -0.9279
  451SOL    HW1 1352   2.220   0.260   1.799  2.3891 -0.7421  1.0319
  451SOL    HW2 1353   2.168   0.427   1.825  0.5863  1.4805 -0.8271
  452SOL     OW 1354   0.840   2.704   1.127 -0.0619  0.2563 -0.4537
  452SOL    HW1 1355   0.743   2.735   1.129 -4.7284 -0.2817  0.1997
  452SOL    HW2 1356   0.897   2.753   1.197  0.5840 -1.5707 -2.3254
  453SOL     OW 1357   0.899   1.274   0.859  0.5791 -0.3611 -0.0957
  453SOL    HW1 1358   0.855   1.358   0.818 -1.2163  0.3247  1.4340
  453SOL    HW2 1359   0.836   1.220   0.926 -0.3493 -3.3832  0.1161
  454SOL     OW 1360   2.865   1.253   0.735 -1.3048 -0.4971  0.4560
  454SOL    HW1 1361   2.832   1.213   0.823  0.6815 -1.3564  0.3985
  454SOL    HW2 1362   2.936   1.327   0.748  0.4767  2.5690  0.7483
  455SOL     OW 1363   0.247   0.212   0.259 -0.5200 -0.5213 -0.1508
  455SOL    HW1 1364   0.184   0.252   0.187 -1.2781 -0.7279  0.3707
  455SOL    HW2 1365   0.291   0.286   0.315 -1.4807  4.3173 -2.6089
  456SOL     OW 1366   2.313   2.567   0.458 -0.3205  0.2234  0.3798
  456SOL    HW1 1367   2.331   2.600   0.554 -2.2341  2.6473  3.2769
  456SOL    HW2 1368   2.307   2.462   0.463 -1.6052 -2.6091 -0.1161
  457SOL     OW 1369   1.216   2.892   3.007  0.3735  0.5301  0.3151
  457SOL    HW1 1370   1.269   2.974   3.010 -2.3243 -0.4938 -0.7405
  457SOL    HW2 1371   1.252   2.828   2.933  1.2948 -2.5531 -1.3645
  458SOL     OW 1372   2.932   2.738   0.177 -0.1862  0.0458  0.1072
  458SOL    HW1 1373   2.912   2.769   0.086 -0.7832 -2.2682 -0.0223
  458SOL    HW2 1374   3.010   2.672   0.171 -0.7525 -1.6422  1.1831
  459SOL     OW 1375   2.498   0.409   1.862 -0.2017 -0.5564  0.4410
  459SOL    HW1 1376   2.497   0.399   1.959  0.9311  0.0059 -1.0344
  459SOL    HW2 1377   2.403   0.387   1.826  0.3048  0.1319 -0.8158
  460SOL     OW 1378   3.064   0.606   0.298 -0.0936 -0.0290  0.1684
  460SOL    HW1 1379   3.028   0.698   0.308  2.5715 -3.3643  1.7123
  460SOL    HW2 1380   3.032   0.565   0.209 -0.9859  0.7506 -0.0652
  461SOL     OW 1381   0.223   1.778   1.316 -0.0745 -0.6190 -0.4501
  461SOL    HW1 1382   0.196   1.750   1.225 -1.7447 -0.1447  2.0836
  461SOL    HW2 1383   0.263   1.872   1.320 -0.8849  0.7234  0.0883
  462SOL     OW 1384   2.829   2.774   0.870  0.5615  0.6898 -0.2701
  462SOL    HW1 1385   2.906   2.801   0.812 -1.0633 -2.7952  0.3592
  462SOL    HW2 1386   2.773   2.857   0.896 -2.1393  2.4251 -1.3817
  463SOL     OW 1387   2.939   0.987   0.077  0.0721 -0.1163 -0.3082
  463SOL    HW1 1388   2.920   1.006   3.076 -1.3858  2.4808  2.3907
  463SOL    HW2 1389   2.969   1.075   0.115 -0.5059  1.9235  0.8718
  464SOL     OW 1390   0.496   2.268   1.335  0.1165 -0.7223 -0.5983
  464SOL    HW1 1391   0.512   2.351   1.278 -0.3062  0.1699 -2.2326
  464SOL    HW2 1392   0.548   2.278   1.420  3.3943 -0.9117  1.4051
  465SOL     OW 1393   0.802   0.440   0.958 -0.3258 -0.0449 -0.4093
  465SOL    HW1 1394   0.862   0.429   0.877  0.6555  0.1860  0.7418
  465SOL    HW2 1395   0.703   0.454   0.937  1.2526  0.7873  1.6196
  466SOL     OW 1396   1.457   2.591   2.343  0.4609 -0.2091 -0.5049
  466SOL    HW1 1397   1.441   2.690   2.352 -0.7038  1.5981  3.7194
  466SOL    HW2 1398   1.544   2.561   2.388 -0.5268 -0.5922  2.3188
  467SOL     OW 1399   0.930   0.589   1.862  0.7248 -0.0367  0.2424
  467SOL    HW1 1400   1.019   0.566   1.910 -0.1951 -1.8254  1.2811
  467SOL    HW2 1401   0.849   0.533   1.890 -0.2459 -0.5329 -1.9418
  468SOL     OW 1402   0.252   0.894   2.063 -0.2240 -0.8125  0.3731
  468SOL    HW1 1403   0.259   0.862   1.962  0.5012 -1.3651 -0.1799
  468SOL    HW2 1404   0.180   0.836   2.109  0.3721 -0.3137 -1.4900
  469SOL     OW 1405   0.827   2.096   0.640  0.2284  0.2336  0.2349
  469SOL    HW1 1406   0.819   2.197   0.658  2.0818  3.9845  2.4609
  469SOL    HW2 1407   0.774   2.038   0.707 -1.9315  0.3069 -0.2690
  470SOL     OW 1408   2.262   1.837   2.143 -0.0185  0.9901  0.1533
  470SOL    HW1 1409   2.339   1.901   2.110 -1.2772  0.6308 -2.6430
  470SOL    HW2 1410   2.171   1.881   2.134  0.2819 -0.7973 -1.8869
  471SOL     OW 1411   1.096   0.404   2.738 -0.2106  0.1983 -0.0878
  471SOL    HW1 1412   1.092   0.403   2.842  0.1729  0.0105  0.8072
  471SOL    HW2 1413   1.133   0.317   2.705  1.4350 -0.1668  2.4922
  472SOL     OW 1414   0.464   2.651   1.858 -0.6099  0.0176 -0.0065
  472SOL    HW1 1415   0.502   2.613   1.945 -0.4245 -0.2572  0.9294
  472SOL    HW2 1416   0.537   2.657   1.785  1.0731  2.0680  1.8560
  473SOL     OW 1417   0.861   0.061   2.522 -0.1393 -0.4874  0.0523
  473SOL    HW1 1418   0.796   0.101   2.589  2.3204  3.4383 -0.9057
  473SOL    HW2 1419   0.811   0.035   2.440  3.6625  2.5661  2.9237
  474SOL     OW 1420   1.621   0.027   0.954 -0.0189 -0.2738 -0.4737
  474SOL    HW1 1421   1.547   0.096   0.968 -1.0355 -0.7444 -0.5559
  474SOL    HW2 1422   1.714   0.054   0.996  0.0927 -0.8650  2.5243
  475SOL     OW 1423   1.745   0.652   1.258 -0.7860 -0.1931 -0.2385
  475SOL    HW1 1424   1.827   0.646   1.194  1.6928 -0.6597  0.8416
  475SOL    HW2 1425   1.673   0.595   1.221 -0.6227  0.6656  0.4998
  476SOL     OW 1426   0.539   0.821   0.979 -0.0606  0.6405 -0.1938
  476SOL    HW1 1427   0.439   0.822   1.006  0.8351 -1.0020  1.3354
  476SOL    HW2 1428   0.566   0.903   0.922 -0.6998 -1.8700 -0.4948
  477SOL     OW 1429   1.165   2.198   0.926  0.4778 -0.0896 -0.8257
  477SOL    HW1 1430   1.110   2.247   0.857  0.3512 -2.0311  1.5857
  477SOL    HW2 1431   1.199   2.268   0.995 -0.8009 -0.3328  0.8858
  478SOL     OW 1432   0.126   2.621   2.207  0.3867 -0.1886  0.5561
  478SOL    HW1 1433   0.148   2.700   2.150  2.0397 -1.6699  1.0285
  478SOL    HW2 1434   0.156   2.535   2.168 -0.8315  1.0073  2.3900
  479SOL     OW 1435   2.748   0.602   1.084  0.6813 -0.2996 -0.4780
  479SOL    HW1 1436   2.732   0.690   1.036  0.6729 -0.2648  0.0660
  479SOL    HW2 1437   2.678   0.533   1.059  0.7577  3.1778  0.2231
  480SOL     OW 1438   0.209   2.362   0.326  0.3065 -0.3150 -0.0312
  480SOL    HW1 1439   0.283   2.390   0.256  2.3095  3.7182  0.9039
  480SOL    HW2 1440   0.248   2.282   0.379 -1.5546 -2.1772  1.0617
  481SOL     OW 1441   2.066   2.275   1.750 -0.4099  0.4240 -0.4838
  481SOL    HW1 1442   2.002   2.256   1.828 -1.0844  0.9031 -0.9769
  481SOL    HW2 1443   2.037   2.213   1.676  1.4767 -0.7173  1.1163
  482SOL     OW 1444   1.467   2.522   2.717  0.7644  0.0302 -0.4887
  482SOL    HW1 1445   1.526   2.559   2.791 -0.2143  0.5344  2.1309
  482SOL    HW2 1446   1.475   2.421   2.707  1.8449  1.3782  0.3748
  483SOL     OW 1447   0.846   1.908   1.828  0.2171  0.4654  0.7347
  483SOL    HW1 1448   0.922   1.882   1.895 -1.8164 -3.2296  2.0245
  483SOL    HW2 1449   0.757   1.860   1.853 -3.1501 -0.5844 -1.0531
  484SOL     OW 1450   0.762   0.352   1.251 -0.2259  0.5506  0.7802
  484SOL    HW1 1451   0.767   0.405   1.334  0.6555 -3.2818 -2.2128
  484SOL    HW2 1452   0.804   0.400   1.175  0.7764 -1.1438  1.2568
  485SOL     OW 1453   2.297   0.970   0.211  0.1492 -0.1647  0.2133
  485SOL    HW1 1454   2.376   0.904   0.218 -0.0462  0.3864  0.7334
  485SOL    HW2 1455   2.237   0.986   0.292  1.8127 -0.0488  1.4177
  486SOL     OW 1456   2.004   0.306   1.340 -0.6550  0.6674 -0.5292
  486SOL    HW1 1457   2.034   0.319   1.435  1.7006  0.6718 -0.8502
  486SOL    HW2 1458   1.903   0.307   1.323  1.5042 -2.3866 -1.3379
  487SOL     OW 1459   0.373   2.010   1.385  0.0071  0.6774  0.0971
  487SOL    HW1 1460   0.411   2.104   1.386  1.1052  2.2066 -1.3089
  487SOL    HW2 1461   0.393   1.958   1.469 -0.3309  1.3473 -1.9600
  488SOL     OW 1462   2.191   2.449   2.864  0.2528 -0.9305  0.4703
  488SOL    HW1 1463   2.225   2.351   2.872  1.5695 -1.2283  3.2673
  488SOL    HW2 1464   2.227   2.504   2.938 -3.0587  0.3327  0.3781
  489SOL     OW 1465   1.880   2.994   0.659  0.1692  0.0696 -0.3404
  489SOL    HW1 1466   1.837   2.906   0.641 -0.0383 -1.9165 -1.4966
  489SOL    HW2 1467   1.925   3.025   0.570  0.8605 -2.1678 -1.3048
  490SOL     OW 1468   1.000   2.311   2.954 -0.2016 -0.4593 -0.1361
  490SOL    HW1 1469   1.096   2.311   2.921 -0.7297 -0.1386 -0.7220
  490SOL    HW2 1470   0.990   2.362   3.040 -1.9950 -0.3061  0.5580
  491SOL     OW 1471   0.473   1.869   1.597  0.1572 -0.1318 -0.2907
  491SOL    HW1 1472   0.477   1.773   1.622  0.8239  2.1955 -0.5070
  491SOL    HW2 1473   0.568   1.906   1.599 -0.2063  0.4666  1.3289
  492SOL     OW 1474   1.128   1.229   1.823 -0.3379 -0.3825 -0.4732
  492SOL    HW1 1475   1.079   1.144   1.799 -4.8885  0.1918 -1.4633
  492SOL    HW2 1476   1.105   1.303   1.758 -1.8825 -0.3132  2.3705
  493SOL     OW 1477   2.387   1.937   1.020  0.1076 -0.2793 -0.2785
  493SOL    HW1 1478   2.467   1.874   1.004 -0.2249  1.1990 -0.3006
  493SOL    HW2 1479   2.355   1.923   1.114  1.7569 -0.2024 -2.0291
  494SOL     OW 1480   0.002   1.831   1.106  0.4291 -0.0803 -0.4505
  494SOL    HW1 1481   3.022   1.855   1.043  1.3023  0.1172  2.1847
  494SOL    HW2 1482   3.050   1.777   1.178 -0.3256  0.6102 -0.7174
  495SOL     OW 1483   2.378   2.656   0.716 -0.1717  0.0945  0.0253
  495SOL    HW1 1484   2.473   2.639   0.746  0.8433 -1.0091  1.9980
  495SOL    HW2 1485   2.318   2.645   0.798  1.2944  0.8443  0.1524
  496SOL     OW 1486   2.350   0.059   1.303  0.2868 -0.4164  0.4253
  496SOL    HW1 1487   2.445   0.018   1.304 -0.9610 -0.0798 -1.6380
  496SOL    HW2 1488   2.349   0.153   1.339 -1.2523  0.3421 -1.1353
  497SOL     OW 1489   2.513   1.154   2.945 -0.0213 -0.1352 -0.4152
  497SOL    HW1 1490   2.487   1.179   2.850  0.0627  1.4839 -0.3493
  497SOL    HW2 1491   2.516   1.055   2.945 -2.8100  0.5264  1.6825
  498SOL     OW 1492   3.050   2.089   1.510 -0.2075  0.1483 -0.0869
  498SOL    HW1 1493   3.067   2.112   1.609 -1.3609  0.3260  2.1026
  498SOL    HW2 1494   2.967   2.033   1.488  1.2843 -2.7929 -1.3777
  499SOL     OW 1495   1.048   2.173   2.326  0.5256  0.3153 -0.3232
  499SOL    HW1 1496   1.074   2.271   2.306  1.3072  0.8353 -0.1354
  499SOL    HW2 1497   0.999   2.167   2.412 -1.0273 -0.0523 -0.8053
  500SOL     OW 1498   1.211   1.629   0.383  0.4507 -0.5751 -0.3959
  500SOL    HW1 1499   1.241   1.725   0.403 -2.6132  1.5371  2.9607
  500SOL    HW2 1500   1.168   1.592   0.464  0.1516 -0.6601  0.7002
  501SOL     OW 1501   1.807   0.001   1.619  0.2931 -0.0050 -0.3818
  501SOL    HW1 1502   1.851   3.019   1.576 -2.5847  2.1143  3.0799
  501SOL    HW2 1503   1.704   3.087   1.622 -2.5041 -1.4320  0.1718
  502SOL     OW 1504   2.719   0.501   1.501  0.0878 -0.0943  0.1127
  502SOL    HW1 1505   2.725   0.482   1.598 -1.9988 -0.6822  2.2087
  502SOL    HW2 1506   2.689   0.419   1.446 -0.2050  0.0303 -0.5296
  503SOL     OW 1507   2.697   1.426   2.324  0.0845 -0.3699  0.0303
  503SOL    HW1 1508   2.759   1.501   2.308 -3.0997 -0.2577  2.3181
  503SOL    HW2 1509   2.604   1.453   2.289 -2.0785  1.7046  0.8112
  504SOL     OW 1510   1.572   1.415   1.568 -0.6420 -0.1491 -0.2874
  504SOL    HW1 1511   1.615   1.366   1.493  0.3007  0.6247  0.4064
  504SOL    HW2 1512   1.473   1.417   1.555  0.0070  2.0281 -0.8785
  505SOL     OW 1513   0.572   3.076   1.454  0.2413  0.0948 -0.5278
  505SOL    HW1 1514   0.547   0.018   1.546 -0.2159 -2.4043  0.7566
  505SOL    HW2 1515   0.556   0.045   1.380 -0.8817 -2.8363  2.3762
  506SOL     OW 1516   0.108   0.310   0.042 -0.3270  0.0967  0.0010
  506SOL    HW1 1517   0.179   0.379   0.020 -0.6989  0.4913 -0.9530
  506SOL    HW2 1518   0.122   0.226   3.078 -1.2420  0.4659 -0.3361
  507SOL     OW 1519   0.044   2.585   2.853  0.7165 -0.5675 -0.6747
  507SOL    HW1 1520   0.000   2.543   2.767  0.0970 -0.4290 -0.4589
  507SOL    HW2 1521   0.063   2.516   2.922 -2.6899  1.7768 -0.3355
  508SOL     OW 1522   1.171   0.508   1.976 -0.4594  0.2003 -0.2519
  508SOL    HW1 1523   1.200   0.446   1.899  0.9310 -0.1348  1.4568
  508SOL    HW2 1524   1.192   0.465   2.067 -2.1005 -3.4547  0.7289
  509SOL     OW 1525   1.729   1.949   1.099 -0.0737  0.0070  0.0218
  509SOL    HW1 1526   1.741   1.946   1.200 -1.5012  0.6173  1.2456
  509SOL    HW2 1527   1.636   1.991   1.071 -1.3379  2.4290 -1.7393
  510SOL     OW 1528   2.565   0.912   1.588 -0.7014 -0.3046  0.1918
  510SOL    HW1 1529   2.567   0.835   1.656  3.4022  2.3217  0.5634
  510SOL    HW2 1530   2.518   0.997   1.627 -0.8842 -0.4321  1.1580
  511SOL     OW 1531   1.225   1.847   1.107 -0.0828 -0.3617  0.3827
  511SOL    HW1 1532   1.128   1.884   1.097 -0.0633  0.9278  1.3792
  511SOL    HW2 1533   1.236   1.790   1.187 -0.2009  2.7327 -2.9955
  512SOL     OW 1534   0.013   1.667   0.359  0.2150  0.2623 -0.3704
  512SOL    HW1 1535   3.014   1.654   0.401 -3.7994 -2.7055 -0.6773
  512SOL    HW2 1536   0.016   1.754   0.309  0.1438 -2.3461  3.2643
  513SOL     OW 1537   0.202   1.290   0.164  0.0484 -0.3277 -0.3308
  513SOL    HW1 1538   0.215   1.391   0.183 -1.4485  3.4273  1.2668
  513SOL    HW2 1539   0.148   1.272   0.077 -1.1353  1.1957  1.5254
  514SOL     OW 1540   2.052   2.027   2.213 -0.1190 -0.3188 -0.5451
  514SOL    HW1 1541   2.118   2.104   2.220 -1.7199  2.0188  0.8141
  514SOL    HW2 1542   2.047   1.965   2.295 -3.6623 -0.3755  0.8137
  515SOL     OW 1543   2.491   0.980   0.660  0.1290 -0.2644  0.5689
  515SOL    HW1 1544   2.513   0.900   0.600  0.5315  1.9627  1.4638
  515SOL    HW2 1545   2.521   1.063   0.608  0.2652  0.6575 -0.4476
  516SOL     OW 1546   2.523   2.778   0.101 -0.2644  0.5296 -0.1197
  516SOL    HW1 1547   2.590   2.737   0.033  0.0467 -3.6763  0.9113
  516SOL    HW2 1548   2.529   2.735   0.190 -2.1602  1.1206  0.4236
  517SOL     OW 1549   0.770   1.661   2.771 -0.4668  0.1276  0.2378
  517SOL    HW1 1550   0.815   1.619   2.695 -5.1329  3.1295  1.7498
  517SOL    HW2 1551   0.830   1.736   2.804 -0.9185 -0.5352  0.8768
  518SOL     OW 1552   0.118   0.256   1.922 -0.2271  0.3279  0.5133
  518SOL    HW1 1553   0.192   0.194   1.899 -5.2926 -0.5514 -1.7677
  518SOL    HW2 1554   0.058   0.259   1.838 -0.2106 -0.5654  0.5799
  519SOL     OW 1555   1.234   1.071   0.198  0.3657  0.2536  0.2474
  519SOL    HW1 1556   1.156   1.004   0.203  0.7034 -0.3941  0.5469
  519SOL    HW2 1557   1.297   1.052   0.117  2.0841 -0.0732 -1.0482
  520SOL     OW 1558   2.649   2.525   2.108 -0.1202 -0.2064 -0.0899
  520SOL    HW1 1559   2.640   2.576   2.020  1.0287  2.6249  0.8222
  520SOL    HW2 1560   2.574   2.560   2.168  1.3486 -0.5522 -1.2615
  521SOL     OW 1561   0.252   1.938   2.040 -0.1194  0.0726  0.3365
  521SOL    HW1 1562   0.175   2.007   2.048  2.5297  1.4954 -0.7818
  521SOL    HW2 1563   0.336   1.996   2.031  1.0072  0.8587  0.4062
  522SOL     OW 1564   1.496   2.974   1.866  0.4268  0.3914 -0.2185
  522SOL    HW1 1565   1.442   2.885   1.861  1.4767  0.1875 -1.4525
  522SOL    HW2 1566   1.489   3.017   1.771 -1.7710  1.0753 -2.6703
  523SOL     OW 1567   1.761   2.306   1.303 -0.0416  0.1269 -0.2496
  523SOL    HW1 1568   1.841   2.248   1.272 -1.3116  2.0391 -1.1187
  523SOL    HW2 1569   1.679   2.297   1.241 -3.0377 -3.0727 -1.0363
  524SOL     OW 1570   0.796   2.375   0.669  0.2810  0.2507  0.7237
  524SOL    HW1 1571   0.737   2.443   0.718  0.7618  0.8001 -0.8168
  524SOL    HW2 1572   0.876   2.421   0.639 -1.5997 -1.4336 -1.5456
  525SOL     OW 1573   2.743   0.470   0.556 -0.1944  0.1308  0.1734
  525SOL    HW1 1574   2.662   0.482   0.612  1.6724 -1.0624 -1.5311
  525SOL    HW2 1575   2.754   0.380   0.513 -1.9017 -4.0881  0.4213
  526SOL     OW 1576   0.943   3.087   0.429  0.4842 -0.3280  0.5067
  526SOL    HW1 1577   0.932   3.081   0.527  1.6879  3.2575  0.0313
  526SOL    HW2 1578   1.003   3.018   0.382  0.3884 -0.2814 -1.3030
  527SOL     OW 1579   1.926   1.524   1.000 -0.7538 -0.9507  0.6484
  527SOL    HW1 1580   1.906   1.424   0.974 -0.1158 -0.5774  1.5458
  527SOL    HW2 1581   1.925   1.573   0.910  1.0998 -0.4127  0.5799
  528SOL     OW 1582   2.688   2.391   2.345 -0.4795  0.0352  0.4542
  528SOL    HW1 1583   2.685   2.441   2.253 -0.5464  1.2677 -1.5434
  528SOL    HW2 1584   2.770   2.337   2.353 -2.7582  3.1630  2.0208
  529SOL     OW 1585   0.847   1.531   2.540 -0.1900  0.0693 -0.6325
  529SOL    HW1 1586   0.773   1.496   2.474 -1.2974  0.3950 -1.3889
  529SOL    HW2 1587   0.890   1.616   2.508 -1.4157 -1.1236  0.4885
  530SOL     OW 1588   1.634   0.741   2.947  0.5085  0.2034 -0.9879
  530SOL    HW1 1589   1.720   0.728   2.893 -0.9279  0.2135  0.0429
  530SOL    HW2 1590   1.659   0.772   3.040 -1.9622  1.0848  2.7008
  531SOL     OW 1591   0.297   0.750   0.470 -0.2725  0.1073 -0.1459
  531SOL    HW1 1592   0.392   0.778   0.499  2.0656 -1.5844  1.7484
  531SOL    HW2 1593   0.249   0.830   0.433  1.5650 -2.4033  0.9703
  532SOL     OW 1594   1.646   1.214   0.830  0.1444 -0.2751  0.4974
  532SOL    HW1 1595   1.612   1.123   0.799 -0.1211 -0.7268  0.6517
  532SOL    HW2 1596   1.583   1.288   0.825 -0.3784 -0.4611  0.5608
  533SOL     OW 1597   0.475   0.381   2.289  0.4282  0.3972  0.1508
  533SOL    HW1 1598   0.486   0.290   2.241  2.4867  0.1551  1.0565
  533SOL    HW2 1599   0.551   0.410   2.349 -2.2271 -1.0011 -1.9036
  534SOL     OW 1600   0.773   0.114   2.831  0.3007  0.0231 -0.0088
  534SOL    HW1 1601   0.793   0.155   2.921  0.4196 -4.1817 -4.0700
  534SOL    HW2 1602   0.716   0.029   2.841 -2.5089 -1.1420  0.8694
  535SOL     OW 1603   0.507   0.403   3.044 -0.7874 -0.2521 -0.3224
  535SOL    HW1 1604   0.430   0.457   3.073  0.8058 -0.5844 -3.8115
  535SOL    HW2 1605   0.469   0.316   3.012  1.6585  2.3463  0.6748
  536SOL     OW 1606   0.495   0.824   2.211  0.4403 -0.1900 -0.0850
  536SOL    HW1 1607   0.412   0.873   2.181 -1.7151 -0.4920  0.5687
  536SOL    HW2 1608   0.572   0.876   2.170 -3.0539  4.2186 -2.6784
  537SOL     OW 1609   1.372   0.119   1.193  0.0466  0.6940  0.9987
  537SOL    HW1 1610   1.360   0.021   1.166 -0.8488 -1.6369  1.1352
  537SOL    HW2 1611   1.404   0.173   1.113 -4.9476 -0.5427  1.1206
  538SOL     OW 1612   0.808   1.764   0.053  0.0767 -0.0348  0.0721
  538SOL    HW1 1613   0.818   1.860   0.088  2.0104 -0.6347 -2.8725
  538SOL    HW2 1614   0.900   1.745   0.015 -0.7322 -1.0227  1.7038
  539SOL     OW 1615   2.486   1.365   1.848  0.6452  0.9337  0.4928
  539SOL    HW1 1616   2.582   1.389   1.843 -1.8379  0.2446 -0.6839
  539SOL    HW2 1617   2.439   1.445   1.885 -0.4118 -3.3864 -0.1296
  540SOL     OW 1618   1.644   1.738   1.725 -0.0033 -0.3454 -0.2764
  540SOL    HW1 1619   1.611   1.736   1.633 -0.3953 -1.7730  0.3512
  540SOL    HW2 1620   1.701   1.821   1.733 -0.6121 -1.5353  2.0665
  541SOL     OW 1621   0.766   1.369   1.838 -0.0029 -0.1548  0.3741
  541SOL    HW1 1622   0.671   1.401   1.833 -1.0432  0.2149 -0.4608
  541SOL    HW2 1623   0.795   1.301   1.772 -1.9288 -1.0228  0.9157
  542SOL     OW 1624   1.769   0.712   2.335  0.1046  0.2686 -0.4276
  542SOL    HW1 1625   1.783   0.813   2.324  0.7339 -0.3058 -0.1783
  542SOL    HW2 1626   1.752   0.673   2.241  0.1462 -2.0627 -3.0752
  543SOL     OW 1627   1.035   0.779   0.515  0.3185  0.1756 -0.0788
  543SOL    HW1 1628   0.980   0.852   0.560 -0.1415  1.5652 -0.2778
  543SOL    HW2 1629   0.973   0.730   0.454  0.8171  3.1329 -2.8262
  544SOL     OW 1630   2.356   1.786   2.392  0.1126 -0.6417 -0.0031
  544SOL    HW1 1631   2.304   1.806   2.304 -1.1068  0.9348  0.1657
  544SOL    HW2 1632   2.418   1.862   2.410  1.0012 -0.9104 -0.5668
  545SOL     OW 1633   1.721   2.157   1.643 -0.0088  0.3444  0.1035
  545SOL    HW1 1634   1.809   2.157   1.598 -0.2672 -1.1902  2.0653
  545SOL    HW2 1635   1.705   2.247   1.686  0.5098  0.3774 -0.0580
  546SOL     OW 1636   0.426   0.169   2.947  0.0665 -0.2652 -0.2160
  546SOL    HW1 1637   0.396   0.229   2.865 -1.8075  1.1189 -2.8804
  546SOL    HW2 1638   0.476   0.083   2.923  1.2784 -0.9629  1.0712
  547SOL     OW 1639   2.342   0.848   3.039 -0.4328  0.5988 -0.7096
  547SOL    HW1 1640   2.356   0.896   0.033  1.7130  0.0693  2.4499
  547SOL    HW2 1641   2.274   0.774   3.053 -0.5297 -1.7590  2.7325
  548SOL     OW 1642   2.021   1.878   2.419 -0.3985  0.2023  0.0633
  548SOL    HW1 1643   2.070   1.837   2.498 -1.9998 -0.0295  1.0214
  548SOL    HW2 1644   1.940   1.814   2.395  0.4820 -4.9179 -0.4392
  549SOL     OW 1645   2.146   0.272   0.728  0.2503  0.4519 -0.1324
  549SOL    HW1 1646   2.153   0.169   0.729  1.0524 -1.2119 -0.8403
  549SOL    HW2 1647   2.215   0.317   0.665  1.3944  1.1029 -3.1632
  550SOL     OW 1648   2.336   1.781   0.583 -0.3883  0.1417 -0.1152
  550SOL    HW1 1649   2.377   1.814   0.494  1.1659  0.6868 -5.1951
  550SOL    HW2 1650   2.324   1.855   0.652 -1.3056 -0.6738 -2.7447
  551SOL     OW 1651   1.267   0.361   1.777  0.1183  0.1785  0.0195
  551SOL    HW1 1652   1.251   0.260   1.763  0.9088  1.0791 -1.2452
  551SOL    HW2 1653   1.291   0.423   1.698 -0.3459  4.0805 -1.8603
  552SOL     OW 1654   0.152   2.300   2.276  0.2625  0.1567  0.2865
  552SOL    HW1 1655   0.181   2.351   2.192  2.0076  1.0144 -0.3033
  552SOL    HW2 1656   0.225   2.309   2.346 -1.7382 -1.4234  1.5595
  553SOL     OW 1657   0.985   2.783   0.292 -0.6525 -0.1575  0.4167
  553SOL    HW1 1658   0.941   2.853   0.230 -0.3535  0.5329 -0.8198
  553SOL    HW2 1659   0.927   2.760   0.372  0.0571  2.2949  1.4121
  554SOL     OW 1660   1.816   2.393   1.766 -0.5715 -0.2537  0.2299
  554SOL    HW1 1661   1.763   2.370   1.851 -0.6751 -0.6142  1.0884
  554SOL    HW2 1662   1.849   2.488   1.764  0.2807  1.2310  1.1489
  555SOL     OW 1663   1.200   2.111   2.003  0.1306 -0.4446 -0.2741
  555SOL    HW1 1664   1.244   2.197   2.020 -1.8722  1.3507  1.0607
  555SOL    HW2 1665   1.165   2.101   1.901 -0.0834 -2.3519 -0.9569
  556SOL     OW 1666   1.288   1.740   0.852  0.1816  0.5830  0.2329
  556SOL    HW1 1667   1.273   1.643   0.869  1.9086  2.5816  1.4031
  556SOL    HW2 1668   1.242   1.786   0.931  1.6899  0.7565 -0.9216
  557SOL     OW 1669   1.627   2.191   1.918  0.0732  0.3305  0.0290
  557SOL    HW1 1670   1.625   2.205   2.018  1.1550 -2.7513 -3.8856
  557SOL    HW2 1671   1.589   2.098   1.890 -0.9780 -1.4587 -1.7459
  558SOL     OW 1672   0.500   0.085   1.694  0.2389 -0.1146 -0.5914
  558SOL    HW1 1673   0.427   0.106   1.769 -4.1342  1.7820 -0.0978
  558SOL    HW2 1674   0.570   0.159   1.700 -0.1829  0.9604  0.1926
  559SOL     OW 1675   2.403   2.879   1.242 -0.3377 -0.1314 -0.3571
  559SOL    HW1 1676   2.393   2.820   1.157 -1.8092 -2.4148 -4.8566
  559SOL    HW2 1677   2.372   2.975   1.220 -0.8218  0.9163 -1.0515
  560SOL     OW 1678   0.912   2.188   0.343 -0.0443 -0.2478  0.1295
  560SOL    HW1 1679   1.012   2.196   0.352 -1.2808  1.3663  1.4445
  560SOL    HW2 1680   0.868   2.174   0.429  2.1044 -1.1206 -1.0833
  561SOL     OW 1681   0.912   0.540   0.344 -0.1259  0.1428  0.1593
  561SOL    HW1 1682   0.845   0.483   0.404 -0.0930 -0.0594  1.3518
  561SOL    HW2 1683   0.856   0.613   0.298 -1.7304 -0.3825 -2.0120
  562SOL     OW 1684   0.763   0.429   2.504 -0.2168 -0.5070 -0.2889
  562SOL    HW1 1685   0.803   0.484   2.581 -3.0430 -1.5635 -0.9821
  562SOL    HW2 1686   0.835   0.424   2.436 -5.4956  0.0374  1.2387
  563SOL     OW 1687   1.690   2.237   2.929  0.4446 -0.4519 -0.6669
  563SOL    HW1 1688   1.747   2.275   2.857 -1.9078  1.0513  1.3833
  563SOL    HW2 1689   1.683   2.295   3.017  0.6724 -1.0073  0.4587
  564SOL     OW 1690   3.010   1.038   0.508 -0.3221  0.3546  0.0212
  564SOL    HW1 1691   3.045   1.130   0.483  0.0606 -0.8522  0.6995
  564SOL    HW2 1692   2.939   1.047   0.578  1.2149 -0.1182 -0.1261
  565SOL     OW 1693   1.398   0.140   2.518 -0.3388 -0.1102 -0.4328
  565SOL    HW1 1694   1.310   0.134   2.462 -2.1047  2.3471 -2.2025
  565SOL    HW2 1695   1.399   0.228   2.568 -0.0501  0.8049  0.4097
  566SOL     OW 1696   1.742   0.216   2.299  0.1946  0.6433 -0.1510
  566SOL    HW1 1697   1.719   0.148   2.370 -1.4799  0.5093 -0.1500
  566SOL    HW2 1698   1.808   0.173   2.229  2.0579 -0.2828 -0.8840
  567SOL     OW 1699   2.444   1.432   0.740 -0.4632  0.0990 -0.1244
  567SOL    HW1 1700   2.351   1.475   0.731 -3.3395 -2.1710  2.5359
  567SOL    HW2 1701   2.444   1.370   0.822  1.4200  0.0369  4.0851
  568SOL     OW 1702   1.773   1.850   0.303  0.2999 -0.1104 -0.3641
  568SOL    HW1 1703   1.822   1.933   0.274 -2.2018 -1.3452  0.9058
  568SOL    HW2 1704   1.674   1.869   0.331  2.6335  0.5531 -0.2342
  569SOL     OW 1705   2.117   1.766   2.995  0.2376  0.2863  0.3554
  569SOL    HW1 1706   2.196   1.791   2.939 -1.3858 -0.5453 -0.6637
  569SOL    HW2 1707   2.067   1.694   2.946  1.0740  1.9012 -0.2837
  570SOL     OW 1708   2.946   2.778   1.615 -0.2090  0.5443  0.3135
  570SOL    HW1 1709   2.875   2.847   1.595 -0.0769 -1.8432 -1.7494
  570SOL    HW2 1710   2.992   2.749   1.526  2.8979 -2.1502  1.1201
  571SOL     OW 1711   0.069   0.236   2.187 -0.2002  0.3505  0.0890
  571SOL    HW1 1712   0.086   0.251   2.085 -3.5028 -0.2970  2.1137
  571SOL    HW2 1713   0.107   0.308   2.248 -0.0858 -0.5361 -1.5881
  572SOL     OW 1714   0.775   1.509   0.771  0.3685  0.1134  0.4326
  572SOL    HW1 1715   0.681   1.535   0.794  2.2259  0.1691 -0.2409
  572SOL    HW2 1716   0.835   1.589   0.777  0.0036  0.4296  0.6550
  573SOL     OW 1717   0.868   0.240   3.052 -0.0971  0.1322 -0.1581
  573SOL    HW1 1718   0.934   0.168   3.012 -1.1725 -0.0237 -0.2028
  573SOL    HW2 1719   0.918   0.328   3.063 -2.8305 -1.6903 -0.0558
  574SOL     OW 1720   0.784   0.176   0.819 -0.1023 -0.4864 -0.6207
  574SOL    HW1 1721   0.797   0.268   0.773 -0.2898  2.0591 -0.1873
  574SOL    HW2 1722   0.856   0.169   0.895 -1.5222 -1.8584 -0.6042
  575SOL     OW 1723   2.970   1.241   1.534 -0.2086 -0.2787  0.2519
  575SOL    HW1 1724   2.975   1.251   1.630  1.5836 -1.3774 -0.5100
  575SOL    HW2 1725   3.007   1.320   1.483 -2.4855 -0.9927 -0.9330
  576SOL     OW 1726   2.035   0.504   1.741 -0.3701  0.3440  0.7449
  576SOL    HW1 1727   2.084   0.428   1.687  1.9558 -1.8024 -0.8106
  576SOL    HW2 1728   1.992   0.574   1.679 -0.9155  0.9223  0.1467
  577SOL     OW 1729   0.012   1.208   2.046 -0.3060 -0.1395  0.1363
  577SOL    HW1 1730   3.047   1.129   2.023  0.8613  0.6236  1.5553
  577SOL    HW2 1731   0.098   1.184   2.096 -0.6896 -1.4702  1.0976
  578SOL     OW 1732   1.803   2.877   2.340  0.3847  0.1049  0.1634
  578SOL    HW1 1733   1.712   2.913   2.318  0.8595 -2.0600  1.3424
  578SOL    HW2 1734   1.806   2.834   2.433 -0.9443  1.5864  0.3290
  579SOL     OW 1735   1.917   2.129   1.987  0.3080 -1.0239 -0.6085
  579SOL    HW1 1736   1.954   2.068   2.061 -1.8203  3.5642  0.8569
  579SOL    HW2 1737   1.825   2.100   1.953 -2.8237  1.4139 -1.4998
  580SOL     OW 1738   1.822   1.438   2.210  0.9652  0.3898  0.1457
  580SOL    HW1 1739   1.735   1.490   2.235 -0.3652  2.0677 -1.0141
  580SOL    HW2 1740   1.794   1.359   2.148 -3.8370 -1.5939  0.8076
  581SOL     OW 1741   1.460   0.960   2.839 -0.1324  0.6613 -0.2749
  581SOL    HW1 1742   1.391   0.967   2.765  0.3291 -0.3478  2.2176
  581SOL    HW2 1743   1.507   0.870   2.835  1.5797  0.9363 -0.6445
  582SOL     OW 1744   0.634   2.225   1.769 -0.3519  0.0404 -0.1698
  582SOL    HW1 1745   0.694   2.252   1.847  0.3833  0.1558  1.1983
  582SOL    HW2 1746   0.667   2.272   1.685 -1.9034 -2.5922  1.6913
  583SOL     OW 1747   1.497   1.308   1.158  0.1476  0.1939 -0.0184
  583SOL    HW1 1748   1.426   1.272   1.092  1.0950  0.6245  0.3688
  583SOL    HW2 1749   1.566   1.369   1.115 -1.4139 -0.9658  0.0505
  584SOL     OW 1750   1.152   2.361   0.707 -0.2598  0.0523  0.4351
  584SOL    HW1 1751   1.207   2.305   0.644  0.3761  0.2248 -3.7645
  584SOL    HW2 1752   1.094   2.432   0.661 -0.7111  0.3837 -1.3796
  585SOL     OW 1753   2.724   2.288   2.997 -0.3550  0.2742 -0.3752
  585SOL    HW1 1754   2.808   2.308   3.047  0.7457 -0.3694 -2.0745
  585SOL    HW2 1755   2.738   2.308   2.898 -3.2363 -0.2889  1.8719
  586SOL     OW 1756   2.661   1.557   0.673 -0.1227 -0.4099 -0.2313
  586SOL    HW1 1757   2.579   1.499   0.700 -1.8068 -2.0722 -0.7130
  586SOL    HW2 1758   2.637   1.653   0.697 -0.6520  2.9273  1.6265
  587SOL     OW 1759   1.053   1.462   2.973  0.2861 -0.2782  0.3083
  587SOL    HW1 1760   1.060   1.390   2.902 -0.4884  1.9880 -1.7398
  587SOL    HW2 1761   1.100   1.430   3.056 -0.8987 -2.7100 -1.8199
  588SOL     OW 1762   0.360   0.321   0.688  0.1326  0.2411 -0.0235
  588SOL    HW1 1763   0.303   0.238   0.689  2.4887 -0.4146  3.0818
  588SOL    HW2 1764   0.323   0.393   0.753  2.7871  2.1830 -0.9149
  589SOL     OW 1765   1.206   0.290   0.557 -0.6073 -0.5834  0.6638
  589SOL    HW1 1766   1.113   0.294   0.512 -0.4914 -1.0757  0.7397
  589SOL    HW2 1767   1.257   0.376   0.545 -0.0651 -0.5762  1.1392
  590SOL     OW 1768   2.090   2.546   0.239 -0.0355 -0.0454  0.1923
  590SOL    HW1 1769   2.138   2.566   0.324 -0.9381 -1.6397 -1.5512
  590SOL    HW2 1770   2.092   2.620   0.171  0.3617 -1.5859 -0.6819
  591SOL     OW 1771   0.393   2.908   1.929  0.8616  0.1558  0.3244
  591SOL    HW1 1772   0.293   2.919   1.958 -1.1882  2.0144 -2.2606
  591SOL    HW2 1773   0.409   2.817   1.888 -1.4786  2.5467  1.6820
  592SOL     OW 1774   0.034   1.609   2.273  0.0794  0.0073  0.1091
  592SOL    HW1 1775   0.007   1.509   2.284  0.6120 -0.3047  1.5878
  592SOL    HW2 1776   0.060   1.625   2.174 -2.0614 -0.7416 -1.0332
  593SOL     OW 1777   2.052   1.579   1.222 -0.2435  0.0976 -0.3993
  593SOL    HW1 1778   2.030   1.508   1.296 -0.0703  0.6957  1.7202
  593SOL    HW2 1779   2.005   1.553   1.135 -0.2979  1.1747 -0.5428
  594SOL     OW 1780   0.459   1.236   0.072  0.1558 -0.1059 -0.0652
  594SOL    HW1 1781   0.489   1.310   0.011  1.4944  1.0483  0.1660
  594SOL    HW2 1782   0.365   1.257   0.107 -2.7596 -0.9178  0.7559
  595SOL     OW 1783   1.295   1.132   1.021  0.6831 -0.6047  0.0483
  595SOL    HW1 1784   1.263   1.052   1.077  0.3048  1.8365 -0.1833
  595SOL    HW2 1785   1.238   1.138   0.941 -0.6980  0.1742 -1.2888
  596SOL     OW 1786   2.766   1.200   1.012  0.0955  0.0041 -0.1943
  596SOL    HW1 1787   2.798   1.108   1.048 -1.1896 -0.5294 -0.2936
  596SOL    HW2 1788   2.834   1.275   1.028  2.0786  1.6731  2.3917
  597SOL     OW 1789   1.093   2.330   1.786  0.5168 -0.3311 -0.0992
  597SOL    HW1 1790   1.023   2.375   1.849 -3.4106  3.5160  1.9938
  597SOL    HW2 1791   1.060   2.240   1.755  1.0321 -0.7339 -2.9928
  598SOL     OW 1792   2.193   2.529   2.023 -0.2318 -0.0957 -0.4965
  598SOL    HW1 1793   2.093   2.509   2.045 -0.2801 -1.5312 -0.4502
  598SOL    HW2 1794   2.220   2.477   1.940  1.0988 -1.1670 -0.4118
  599SOL     OW 1795   0.892   1.099   0.005 -0.0732 -0.0235 -0.0448
  599SOL    HW1 1796   0.953   1.180   0.023 -0.1028  1.0162  0.0302
  599SOL    HW2 1797   0.908   1.029   0.070  0.1767  1.2655 -2.1648
  600SOL     OW 1798   1.378   0.800   0.118 -0.1790 -0.2484  0.5730
  600SOL    HW1 1799   1.399   0.896   0.101 -0.3260 -1.3843 -1.0946
  600SOL    HW2 1800   1.380   0.750   0.034  1.2774 -0.4592  3.1296
  601SOL     OW 1801   0.793   0.497   1.490  0.7706 -0.3083 -0.6129
  601SOL    HW1 1802   0.889   0.495   1.520 -2.4536  0.3019 -1.3877
  601SOL    HW2 1803   0.750   0.584   1.521 -1.2748 -2.1157  2.5493
  602SOL     OW 1804   0.314   2.398   0.760 -0.2055  0.0024  0.1089
  602SOL    HW1 1805   0.232   2.339   0.764 -1.4000  0.8500 -0.0101
  602SOL    HW2 1806   0.318   2.422   0.664  2.8834  0.1124 -0.0498
  603SOL     OW 1807   1.049   2.449   2.258  0.2783 -0.2366 -0.0944
  603SOL    HW1 1808   0.991   2.505   2.322 -1.5460  1.3602 -0.8332
  603SOL    HW2 1809   1.145   2.478   2.254  3.4492  1.0341 -0.2408
  604SOL     OW 1810   0.041   2.016   2.977 -0.0941 -0.5688 -0.4624
  604SOL    HW1 1811   0.039   2.102   2.923 -0.1974 -0.6260 -2.1896
  604SOL    HW2 1812   3.051   1.965   2.977  1.2829 -0.8266  0.5489
  605SOL     OW 1813   2.095   1.680   1.819  0.1278  0.0093  0.0665
  605SOL    HW1 1814   2.006   1.661   1.865  2.3931 -0.1615 -0.8086
  605SOL    HW2 1815   2.114   1.628   1.738 -2.3457 -0.8426 -0.4793
  606SOL     OW 1816   0.929   1.257   2.645  0.1188  0.0242 -0.2127
  606SOL    HW1 1817   0.887   1.346   2.627 -0.1178  0.3916  1.0313
  606SOL    HW2 1818   1.015   1.268   2.698 -0.9383  0.8634  1.1495
  607SOL     OW 1819   1.109   0.949   1.146  0.5250  0.0213 -0.0467
  607SOL    HW1 1820   1.160   0.887   1.210  0.3318  2.5290 -0.7962
  607SOL    HW2 1821   1.019   0.974   1.187  2.5955  0.2826 -1.0799
  608SOL     OW 1822   2.715   2.035   2.153 -0.0153  0.3839 -0.5571
  608SOL    HW1 1823   2.745   1.993   2.068 -1.1549  1.4634  3.3945
  608SOL    HW2 1824   2.788   2.099   2.187 -1.7837 -1.4487  0.2891
  609SOL     OW 1825   2.411   0.096   0.219  0.2872 -0.0855  0.0167
  609SOL    HW1 1826   2.378   0.066   0.125  0.6593  0.0590 -2.3478
  609SOL    HW2 1827   2.386   0.030   0.294 -1.2321  2.7851  1.1229
  610SOL     OW 1828   2.985   2.385   1.445 -0.2961 -0.0748 -0.0025
  610SOL    HW1 1829   3.008   2.463   1.383  2.8681 -0.6672 -1.6325
  610SOL    HW2 1830   3.064   2.323   1.457  1.0414  0.0633 -2.1218
  611SOL     OW 1831   1.548   2.223   0.480  0.3421 -0.1919 -0.0927
  611SOL    HW1 1832   1.580   2.220   0.384  0.4429  0.7071 -0.7269
  611SOL    HW2 1833   1.574   2.137   0.530  2.5626 -2.0532 -0.1668
  612SOL     OW 1834   0.841   0.086   1.732 -0.0586  0.4789 -0.8729
  612SOL    HW1 1835   0.943   0.098   1.730 -2.8212 -0.6751 -1.6911
  612SOL    HW2 1836   0.794   0.177   1.727 -1.0011 -1.5280 -0.7187
  613SOL     OW 1837   2.982   1.813   0.677 -0.3223  0.2895 -0.1234
  613SOL    HW1 1838   2.951   1.752   0.601 -0.1695 -1.7597 -0.8417
  613SOL    HW2 1839   3.034   1.896   0.640 -0.5785 -0.7394 -2.2404
  614SOL     OW 1840   1.959   0.549   2.009 -0.3732 -0.1807 -1.1229
  614SOL    HW1 1841   1.971   0.647   2.005  2.9270 -2.3306  2.2970
  614SOL    HW2 1842   1.968   0.510   1.914 -0.6322  0.3979 -0.1160
  615SOL     OW 1843   1.166   1.508   0.960 -0.2951  0.5381 -0.1011
  615SOL    HW1 1844   1.080   1.527   1.015 -3.0523 -0.5983 -0.3472
  615SOL    HW2 1845   1.236   1.453   1.013  0.5811 -0.2044  0.2935
  616SOL     OW 1846   1.708   1.694   0.074  0.3033  0.0205 -0.1097
  616SOL    HW1 1847   1.732   1.726   0.170  0.0761  0.4924 -1.6513
  616SOL    HW2 1848   1.654   1.763   0.025  0.4900 -1.2146 -3.9167
  617SOL     OW 1849   2.028   3.093   0.430 -0.5613 -0.7010 -0.1084
  617SOL    HW1 1850   2.126   3.080   0.409  2.0147 -1.1112 -2.2534
  617SOL    HW2 1851   1.980   3.040   0.354 -0.0846 -0.0295 -0.1402
  618SOL     OW 1852   0.581   0.765   2.460 -0.1702 -0.0889 -0.1020
  618SOL    HW1 1853   0.571   0.778   2.362 -2.0278 -1.0009 -1.3851
  618SOL    HW2 1854   0.680   0.776   2.492 -0.9238  0.1811  0.5140
  619SOL     OW 1855   2.785   1.453   1.276 -0.0185  0.5559 -0.4624
  619SOL    HW1 1856   2.856   1.420   1.214 -3.0956 -0.6517  1.2321
  619SOL    HW2 1857   2.698   1.461   1.225 -3.5597 -2.2016  0.1119
  620SOL     OW 1858   2.140   2.988   2.674  0.2188  0.0130  0.0011
  620SOL    HW1 1859   2.138   3.091   2.684  0.8322  2.0856  1.3419
  620SOL    HW2 1860   2.113   2.964   2.579 -1.6148 -1.2232  1.4041
  621SOL     OW 1861   2.447   1.691   0.066 -0.1108 -0.1439  0.7669
  621SOL    HW1 1862   2.540   1.666   0.050 -1.1585 -0.2970  0.4623
  621SOL    HW2 1863   2.410   1.615   0.126 -1.1354 -2.7186 -1.4082
  622SOL     OW 1864   1.887   0.056   2.089  0.1845 -0.2800  0.2486
  622SOL    HW1 1865   1.806   0.008   2.064  3.8503  0.9446  0.5967
  622SOL    HW2 1866   1.973   0.019   2.047  2.4459  2.3495 -0.8480
  623SOL     OW 1867   0.744   2.019   1.122  0.3225  0.3226  0.9527
  623SOL    HW1 1868   0.788   2.099   1.161  0.3410 -0.8903 -0.9608
  623SOL    HW2 1869   0.655   2.051   1.083 -0.1893  3.1342 -0.8195
  624SOL     OW 1870   0.171   0.085   3.034 -0.7790  0.0561  0.3847
  624SOL    HW1 1871   0.187   3.091   3.074  0.0523  0.7572  0.7589
  624SOL    HW2 1872   0.262   0.121   3.004  2.0345  1.7084  0.9078
  625SOL     OW 1873   0.952   1.742   0.753  0.7093 -0.3989  0.7364
  625SOL    HW1 1874   0.899   1.795   0.821  0.2692 -0.6932 -0.5995
  625SOL    HW2 1875   0.980   1.803   0.675  0.0043 -1.3311 -1.8689
  626SOL     OW 1876   2.992   0.036   3.069  0.2561 -0.5209  0.1987
  626SOL    HW1 1877   3.086   0.067   3.068 -1.9043  1.3699  0.3506
  626SOL    HW2 1878   2.985   3.033   3.048 -0.1083  0.0394  0.6356
  627SOL     OW 1879   1.368   1.666   2.747 -0.2637  0.1015 -0.1968
  627SOL    HW1 1880   1.381   1.570   2.779 -2.5967  2.1684  0.9147
  627SOL    HW2 1881   1.354   1.673   2.645  0.6238 -0.2011  0.9968
  628SOL     OW 1882   0.137   2.793   2.697 -0.3101 -0.2640  0.0790
  628SOL    HW1 1883   0.112   2.765   2.604  1.4307 -1.7170  2.7523
  628SOL    HW2 1884   0.126   2.712   2.758  1.6543  3.3976 -2.5213
  629SOL     OW 1885   0.612   2.943   2.573 -0.1862  0.2780  0.2652
  629SOL    HW1 1886   0.683   2.906   2.636  2.3575 -0.0340  0.3065
  629SOL    HW2 1887   0.516   2.937   2.610 -3.0295  2.2577  0.6643
  630SOL     OW 1888   1.467   1.371   2.083  0.3160 -0.3510 -0.3091
  630SOL    HW1 1889   1.415   1.309   2.139  1.1714  0.7791 -1.3690
  630SOL    HW2 1890   1.402   1.436   2.038  1.9265 -0.8601  3.4450
  631SOL     OW 1891   2.178   1.122   0.600 -0.2798 -0.2403 -0.6406
  631SOL    HW1 1892   2.200   1.209   0.555 -1.4205 -2.7112  3.8286
  631SOL    HW2 1893   2.261   1.069   0.623  1.0225  4.0482  0.7197
  632SOL     OW 1894   2.779   0.426   1.775  0.3073  0.0582 -0.2530
  632SOL    HW1 1895   2.842   0.474   1.837  0.8992  1.1999 -2.2438
  632SOL    HW2 1896   2.682   0.433   1.803 -0.1972  2.4009 -0.2858
  633SOL     OW 1897   0.796   1.521   0.196  0.1039  0.2797 -0.3741
  633SOL    HW1 1898   0.751   1.602   0.152 -3.2811 -1.5311 -2.8995
  633SOL    HW2 1899   0.898   1.526   0.197  0.4224  1.4592 -1.7404
  634SOL     OW 1900   2.041   2.649   2.465  0.0012 -0.3967  0.2760
  634SOL    HW1 1901   2.065   2.750   2.448 -0.4905 -1.1291 -0.8580
  634SOL    HW2 1902   1.971   2.611   2.398  1.2086 -1.6089  1.2548
  635SOL     OW 1903   1.944   0.617   0.211  0.8588  0.2009 -0.0394
  635SOL    HW1 1904   1.931   0.633   0.306  0.6502 -2.0546 -3.2494
  635SOL    HW2 1905   2.013   0.542   0.203 -0.3384 -0.2838 -0.8313
  636SOL     OW 1906   0.664   1.306   0.648  0.0891  0.0181  0.7020
  636SOL    HW1 1907   0.722   1.287   0.567  1.0535 -0.4030  0.8392
  636SOL    HW2 1908   0.698   1.390   0.695  0.1910 -2.5862 -0.3733
  637SOL     OW 1909   0.094   1.962   0.320  0.3292  0.1824  0.9501
  637SOL    HW1 1910   0.028   1.964   0.240  1.4799  1.4500 -0.0653
  637SOL    HW2 1911   0.046   2.004   0.398  0.8302 -2.4678  1.1199
  638SOL     OW 1912   0.986   2.677   2.821 -0.2049 -0.7733 -0.1192
  638SOL    HW1 1913   1.074   2.731   2.830  0.9909 -0.9307  0.0849
  638SOL    HW2 1914   0.996   2.616   2.741  2.0849 -0.3009  0.5678
  639SOL     OW 1915   1.470   2.035   0.160 -0.1593  0.1497  0.3072
  639SOL    HW1 1916   1.367   2.034   0.155 -1.8300 -4.1273  1.8636
  639SOL    HW2 1917   1.495   1.964   0.233 -0.9237 -0.6140  2.2994
  640SOL     OW 1918   1.626   0.066   0.683  0.1137 -0.0216  0.2048
  640SOL    HW1 1919   1.615   0.042   0.784 -1.3208 -1.1694 -0.8336
  640SOL    HW2 1920   1.708   0.023   0.640 -1.8538  2.3941  0.4592
  641SOL     OW 1921   3.025   2.933   0.326  0.2246  0.0410 -0.6589
  641SOL    HW1 1922   0.019   2.898   0.317 -1.8589  1.4271 -0.1664
  641SOL    HW2 1923   2.960   2.883   0.266 -0.1799  2.3206 -0.1236
  642SOL     OW 1924   1.094   0.254   1.513 -0.1677  0.4533  0.3922
  642SOL    HW1 1925   1.035   0.207   1.445  1.1540 -0.3899 -0.5952
  642SOL    HW2 1926   1.056   0.343   1.548 -0.5027 -1.1752 -1.0320
  643SOL     OW 1927   0.458   1.388   2.130 -0.0343 -0.0199 -0.0038
  643SOL    HW1 1928   0.403   1.370   2.046 -0.7562  0.8632  0.8240
  643SOL    HW2 1929   0.461   1.485   2.152 -1.6881 -3.7547 -2.8383
  644SOL     OW 1930   0.908   2.459   0.305  0.1326 -0.0363 -0.2758
  644SOL    HW1 1931   0.873   2.360   0.304  1.6974 -1.2976  0.4952
  644SOL    HW2 1932   0.977   2.479   0.233  0.1206 -2.9048  1.0668
  645SOL     OW 1933   1.624   2.235   0.230  0.5531  0.5056 -0.5617
  645SOL    HW1 1934   1.638   2.316   0.169 -0.6401  2.0889 -1.2813
  645SOL    HW2 1935   1.550   2.174   0.195  1.2610  0.7064  1.5673
  646SOL     OW 1936   0.078   1.680   3.014  0.4309 -0.0734  0.3805
  646SOL    HW1 1937   0.027   1.622   2.945  2.2667  0.8185 -1.2916
  646SOL    HW2 1938   0.177   1.690   2.989 -0.0302 -1.9706 -0.3653
  647SOL     OW 1939   0.683   3.012   1.040  0.1189 -0.3693 -0.2755
  647SOL    HW1 1940   0.778   3.042   1.068  0.6580  1.1668 -0.7106
  647SOL    HW2 1941   0.613   3.084   1.061  2.0467 -0.0088  0.3968
  648SOL     OW 1942   1.723   0.416   1.743  0.2105  0.4479  0.1575
  648SOL    HW1 1943   1.788   0.339   1.746  1.0713  0.0858  1.4446
  648SOL    HW2 1944   1.752   0.472   1.666 -2.7103 -0.8494 -1.3348
  649SOL     OW 1945   1.291   1.813   2.945 -0.7659 -0.3427 -0.3349
  649SOL    HW1 1946   1.308   1.746   2.869  0.5262 -0.2683 -0.3971
  649SOL    HW2 1947   1.209   1.787   2.999 -1.4009 -2.2874 -1.8583
  650SOL     OW 1948   2.864   1.641   2.281 -0.0787 -0.0342  0.4211
  650SOL    HW1 1949   2.823   1.711   2.342  2.4994 -1.9358  1.6159
  650SOL    HW2 1950   2.967   1.646   2.282  0.8761  0.2665  0.0808
  651SOL     OW 1951   1.097   0.088   2.987 -0.5297 -0.5991  0.0661
  651SOL    HW1 1952   1.096   0.013   2.917  0.8853  2.4070  1.0761
  651SOL    HW2 1953   1.189   0.125   3.011  0.4908 -4.0214  1.6546
  652SOL     OW 1954   2.872   2.036   0.151 -0.0122 -0.2972  0.6463
  652SOL    HW1 1955   2.859   2.041   0.250 -0.1417  0.8490 -0.7949
  652SOL    HW2 1956   2.790   2.002   0.099  0.2304  0.2850  0.1463
  653SOL     OW 1957   0.249   2.988   0.932 -0.2655 -0.0806 -0.9100
  653SOL    HW1 1958   0.189   3.027   1.004  1.4472 -1.8345 -1.0188
  653SOL    HW2 1959   0.338   3.029   0.951 -2.7743  2.6897  1.7765
  654SOL     OW 1960   2.280   0.142   2.469  0.0711  0.5485 -0.0313
  654SOL    HW1 1961   2.228   0.145   2.381 -1.9805 -0.4158 -0.0818
  654SOL    HW2 1962   2.317   0.045   2.486 -0.5408 -0.0411  0.3835
  655SOL     OW 1963   0.296   2.759   1.082 -0.4359 -0.1891 -0.5068
  655SOL    HW1 1964   0.276   2.827   1.008 -4.1276  0.5882 -0.5136
  655SOL    HW2 1965   0.212   2.732   1.131  1.9820 -3.8308 -0.0366
  656SOL     OW 1966   2.926   3.021   2.385 -0.2877  0.3812  0.2939
  656SOL    HW1 1967   2.838   3.072   2.384 -0.9540  3.0799 -0.2657
  656SOL    HW2 1968   2.982   3.042   2.302  1.9040  1.8746 -2.6380
  657SOL     OW 1969   2.664   0.604   2.520  0.5276 -0.2970 -0.0752
  657SOL    HW1 1970   2.585   0.571   2.462 -1.0501 -0.4792  2.0948
  657SOL    HW2 1971   2.743   0.537   2.507  0.4176 -1.5336 -1.8710
  658SOL     OW 1972   2.295   1.983   0.763  0.2227  0.4591 -0.4892
  658SOL    HW1 1973   2.331   1.951   0.853 -0.3553 -0.7726  0.6175
  658SOL    HW2 1974   2.285   2.086   0.763  2.3356  0.1004 -4.1011
  659SOL     OW 1975   2.267   2.871   0.133  0.1491  0.0076 -0.2996
  659SOL    HW1 1976   2.192   2.820   0.088  2.0642 -1.4364  0.3447
  659SOL    HW2 1977   2.355   2.820   0.132  1.5074 -1.8192 -0.0104
  660SOL     OW 1978   1.713   1.073   2.746 -0.1967 -0.2059 -0.8667
  660SOL    HW1 1979   1.716   1.170   2.770 -0.4874 -0.4180  0.7840
  660SOL    HW2 1980   1.634   1.024   2.780  0.9862  3.1494  0.3227
  661SOL     OW 1981   2.345   2.512   1.190 -0.2454 -0.1476  0.0718
  661SOL    HW1 1982   2.376   2.425   1.155 -0.7558  2.0386  3.9912
  661SOL    HW2 1983   2.327   2.506   1.287 -2.0575 -1.0474  0.5596
  662SOL     OW 1984   0.749   0.816   0.361 -0.6122 -0.5797  0.0510
  662SOL    HW1 1985   0.703   0.818   0.270 -0.8048  3.0583 -2.1377
  662SOL    HW2 1986   0.679   0.826   0.440 -5.9463  3.2638  0.0140
  663SOL     OW 1987   1.927   2.341   0.327  0.1177  0.6181 -0.2776
  663SOL    HW1 1988   1.919   2.247   0.284 -0.3838  0.1715 -1.1700
  663SOL    HW2 1989   1.979   2.402   0.267 -2.9670 -0.7322  0.5140
  664SOL     OW 1990   0.735   1.964   1.582 -0.4076  0.2613 -0.2923
  664SOL    HW1 1991   0.774   2.034   1.519 -2.1606 -2.1709  1.8289
  664SOL    HW2 1992   0.786   1.974   1.674  2.2200  0.5549 -0.7349
  665SOL     OW 1993   1.778   2.063   2.335  0.1530 -0.1250  0.0007
  665SOL    HW1 1994   1.849   2.034   2.268 -0.4302  0.9386 -0.0457
  665SOL    HW2 1995   1.746   1.983   2.389  0.5122  0.9593  0.0342
  666SOL     OW 1996   0.286   2.239   0.046 -0.1574 -0.6108 -1.0145
  666SOL    HW1 1997   0.364   2.299   0.076 -1.9966  0.1924  1.0884
  666SOL    HW2 1998   0.293   2.149   0.086 -0.5496  1.0510  0.4640
  667SOL     OW 1999   2.373   1.606   1.861 -0.1774 -0.3083 -0.1824
  667SOL    HW1 2000   2.418   1.683   1.820 -0.9790 -1.7557  1.1926
  667SOL    HW2 2001   2.270   1.617   1.871 -4.1130  1.3623 -0.7005
  668SOL     OW 2002   0.488   0.662   2.717  0.4595  0.5977  0.4470
  668SOL    HW1 2003   0.500   0.685   2.619 -2.5718  0.5162  1.5407
  668SOL    HW2 2004   0.576   0.655   2.775  3.8310 -2.9291 -1.5722
  669SOL     OW 2005   1.704   2.410   0.052 -0.3253  0.4558  0.0520
  669SOL    HW1 2006   1.681   2.506   0.068 -1.5949 -3.6037 -1.0456
  669SOL    HW2 2007   1.796   2.400   0.013  0.8630 -2.1138  0.6170
  670SOL     OW 2008   2.415   1.943   3.003 -0.6130 -0.0678  0.5979
  670SOL    HW1 2009   2.386   1.877   2.928 -2.4435  2.1727  2.1231
  670SOL    HW2 2010   2.411   1.899   3.095  2.1552  1.2407 -2.3068
  671SOL     OW 2011   0.141   1.354   1.175  0.7287 -0.3396 -0.4353
  671SOL    HW1 2012   0.237   1.374   1.156 -3.3676  0.5753  0.5319
  671SOL    HW2 2013   0.128   1.258   1.208  1.4133 -2.2395  1.8598
  672SOL     OW 2014   2.504   0.791   2.260 -0.0789 -0.0641 -0.1251
  672SOL    HW1 2015   2.549   0.854   2.192  1.8074 -0.5734 -0.7601
  672SOL    HW2 2016   2.535   0.814   2.356  2.2207 -2.2889 -2.3987
  673SOL     OW 2017   2.415   2.560   2.211 -0.1223  0.3432 -0.5384
  673SOL    HW1 2018   2.364   2.543   2.297  1.2731 -2.1736  0.1432
  673SOL    HW2 2019   2.357   2.542   2.130  2.3623 -1.1334  1.8518
  674SOL     OW 2020   1.282   2.619   2.112  0.8430  0.1398 -0.1152
  674SOL    HW1 2021   1.269   2.532   2.062 -0.0475 -3.0659  0.2629
  674SOL    HW2 2022   1.351   2.609   2.186  1.5875 -3.4478  0.1221
  675SOL     OW 2023   0.706   0.748   1.155 -0.1618 -0.1093  0.1886
  675SOL    HW1 2024   0.648   0.780   1.077 -0.4692 -0.5816  2.7478
  675SOL    HW2 2025   0.647   0.726   1.231  0.8184  1.5664 -2.6179
  676SOL     OW 2026   1.866   0.865   0.794  0.2789 -0.5887  0.0151
  676SOL    HW1 2027   1.774   0.827   0.767 -0.2380  2.6830 -0.5252
  676SOL    HW2 2028   1.884   0.953   0.747  1.0779  2.0081 -0.0107
  677SOL     OW 2029   3.076   1.672   2.549  0.6226  0.3685  0.2615
  677SOL    HW1 2030   0.005   1.636   2.456 -1.3315 -2.5178  2.2706
  677SOL    HW2 2031   2.977   1.673   2.569  1.3496 -2.0310  1.7722
  678SOL     OW 2032   2.577   1.909   1.292 -0.3026  0.1722 -0.0471
  678SOL    HW1 2033   2.533   1.818   1.284 -1.3808  1.8288 -0.8612
  678SOL    HW2 2034   2.506   1.982   1.300 -2.2009  0.2558  1.8397
  679SOL     OW 2035   1.850   2.741   0.523  0.4672 -0.2717 -0.0335
  679SOL    HW1 2036   1.851   2.701   0.430 -0.1859 -1.3086  0.8385
  679SOL    HW2 2037   1.866   2.669   0.590 -1.3687  1.0670 -2.4393
  680SOL     OW 2038   0.591   2.541   2.079 -0.0253  0.3801 -0.1716
  680SOL    HW1 2039   0.636   2.542   2.171  0.5400  1.2764  0.0937
  680SOL    HW2 2040   0.567   2.444   2.056  2.4597  0.2329  1.5921
  681SOL     OW 2041   2.789   1.419   1.805  0.6746 -0.4141  0.6341
  681SOL    HW1 2042   2.868   1.361   1.797 -3.8959  0.5567 -1.1919
  681SOL    HW2 2043   2.784   1.482   1.883  0.3930 -1.4072  0.3295
  682SOL     OW 2044   0.723   1.710   0.995 -0.5160 -0.2741 -0.1834
  682SOL    HW1 2045   0.698   1.789   0.936  2.9753  2.1513  1.2680
  682SOL    HW2 2046   0.643   1.661   1.034 -3.6406  3.1592  0.7272
  683SOL     OW 2047   2.215   1.320   1.159  0.3553  0.1859  0.5247
  683SOL    HW1 2048   2.256   1.411   1.127  0.0565  1.5004  0.4787
  683SOL    HW2 2049   2.154   1.342   1.238  0.3552  0.6513  2.2626
  684SOL     OW 2050   2.887   1.596   2.920  0.2270 -0.1500 -0.0267
  684SOL    HW1 2051   2.943   1.544   2.855  0.8163  0.6486  0.0665
  684SOL    HW2 2052   2.790   1.556   2.918 -0.5308  2.2785  0.7906
  685SOL     OW 2053   1.692   1.168   0.016 -0.0561 -0.0333  0.2802
  685SOL    HW1 2054   1.696   1.223   3.024  0.7318  0.7420 -0.6980
  685SOL    HW2 2055   1.615   1.102   0.018  0.3306 -1.9878 -1.1922
  686SOL     OW 2056   0.291   0.572   1.347  0.0471 -0.0800  0.5912
  686SOL    HW1 2057   0.379   0.619   1.321  1.0389 -2.1191  1.0071
  686SOL    HW2 2058   0.285   0.568   1.447  2.7381  3.0656 -1.5453
  687SOL     OW 2059   1.188   2.053   2.889  1.1982  0.0969 -0.3155
  687SOL    HW1 2060   1.247   1.968   2.899  0.4813 -0.7467 -2.2448
  687SOL    HW2 2061   1.238   2.141   2.894 -0.5313 -2.6180  0.5322
  688SOL     OW 2062   0.374   1.555   1.410 -0.2864 -0.9893 -0.2361
  688SOL    HW1 2063   0.450   1.569   1.479  2.2198  0.0257  0.5744
  688SOL    HW2 2064   0.320   1.639   1.386 -0.6957 -1.8484 -2.2998
  689SOL     OW 2065   1.402   1.183   1.761 -0.4078 -0.3580 -0.3631
  689SOL    HW1 2066   1.316   1.224   1.800  0.0452  1.0981 -0.8172
  689SOL    HW2 2067   1.462   1.254   1.718  0.2888 -1.1349 -0.7642
  690SOL     OW 2068   2.578   0.990   1.188 -0.0462  0.1994  0.4342
  690SOL    HW1 2069   2.574   0.921   1.264 -1.9753  1.4822  2.2860
  690SOL    HW2 2070   2.678   0.997   1.161 -0.0886 -0.1242  2.4487
  691SOL     OW 2071   0.762   2.267   1.984  0.3380 -0.4814  0.5121
  691SOL    HW1 2072   0.782   2.203   2.055 -3.3045 -0.4328 -2.1801
  691SOL    HW2 2073   0.829   2.340   1.983 -0.8276 -0.0713  2.6029
  692SOL     OW 2074   1.839   0.141   1.061  0.1136 -0.1958 -0.5471
  692SOL    HW1 2075   1.899   0.211   1.016 -2.7681 -1.6436 -0.1449
  692SOL    HW2 2076   1.812   0.175   1.156  2.5318 -0.9116  2.7042
  693SOL     OW 2077   0.314   1.136   2.032  0.1068  0.5447  0.0781
  693SOL    HW1 2078   0.383   1.136   1.956  1.7078  0.9989  1.2132
  693SOL    HW2 2079   0.280   1.042   2.045  0.2924  0.8142 -3.2021
  694SOL     OW 2080   2.128   0.486   1.163 -0.2801  0.1112 -0.2684
  694SOL    HW1 2081   2.084   0.420   1.227 -4.2089  1.4214 -0.3740
  694SOL    HW2 2082   2.223   0.513   1.187 -0.7558  2.1931 -2.8727
  695SOL     OW 2083   1.073   1.437   1.662  0.8609  0.1496  0.1316
  695SOL    HW1 2084   1.037   1.532   1.671  0.6155  0.0775 -0.8053
  695SOL    HW2 2085   1.018   1.391   1.592 -1.5359  3.6045 -0.0117
  696SOL     OW 2086   1.388   2.570   0.213  0.2708  0.3668 -0.3098
  696SOL    HW1 2087   1.338   2.660   0.204 -1.6229 -0.1011  0.3093
  696SOL    HW2 2088   1.438   2.555   0.301  0.7160 -2.3015  1.6240
  697SOL     OW 2089   0.913   0.396   0.701  0.4576  0.5984 -0.1671
  697SOL    HW1 2090   0.913   0.344   0.613 -2.6029 -0.4558 -2.8145
  697SOL    HW2 2091   0.964   0.486   0.699  1.4970  1.2367 -0.4918
  698SOL     OW 2092   1.366   1.705   2.484  0.2414  0.3570  0.3507
  698SOL    HW1 2093   1.296   1.634   2.446 -1.2000 -2.4266  0.1961
  698SOL    HW2 2094   1.415   1.744   2.405 -0.8379  0.3540 -0.3305
  699SOL     OW 2095   1.483   1.003   1.293  0.0372 -0.3767 -0.5473
  699SOL    HW1 2096   1.496   1.092   1.246  1.2156  0.2671  1.5119
  699SOL    HW2 2097   1.523   1.014   1.386 -2.2433  1.6970 -0.0816
  700SOL     OW 2098   0.892   2.792   0.552  0.3943 -0.0745  0.2159
  700SOL    HW1 2099   0.789   2.798   0.562 -1.6496  0.4256  0.3201
  700SOL    HW2 2100   0.929   2.874   0.611 -2.2843  1.0854  1.1545
  701SOL     OW 2101   2.410   2.983   2.490  0.3012 -0.2146  0.1530
  701SOL    HW1 2102   2.448   2.988   2.585 -0.6153 -1.6503  0.3742
  701SOL    HW2 2103   2.478   2.937   2.423  0.3316 -1.6279 -3.1273
  702SOL     OW 2104   1.100   0.398   3.026  0.3194  0.1105  0.1479
  702SOL    HW1 2105   1.167   0.323   3.056  0.7443  1.6826  0.5253
  702SOL    HW2 2106   1.124   0.486   3.070 -0.3125 -0.1189  0.1598
  703SOL     OW 2107   2.533   2.850   2.300 -0.2245  0.1690 -0.1270
  703SOL    HW1 2108   2.477   2.806   2.226 -1.9049 -1.7090 -1.2790
  703SOL    HW2 2109   2.621   2.797   2.303 -0.2277 -0.1531 -1.0969
  704SOL     OW 2110   0.077   2.243   0.817 -0.3740  0.8529 -0.4879
  704SOL    HW1 2111   3.079   2.234   0.783 -1.2087 -3.1686  1.8614
  704SOL    HW2 2112   0.079   2.323   0.881 -0.9209 -0.3531 -2.5820
  705SOL     OW 2113   2.708   0.069   2.275 -0.6080 -0.6522  0.0679
  705SOL    HW1 2114   2.770   0.132   2.226 -0.4826 -2.4124 -0.5625
  705SOL    HW2 2115   2.701   3.078   2.219 -1.1237 -1.7416  0.2882
  706SOL     OW 2116   1.857   2.948   0.283 -0.4220  0.5471 -0.1862
  706SOL    HW1 2117   1.866   2.869   0.214 -1.2024  0.0037 -2.7775
  706SOL    HW2 2118   1.783   3.006   0.252  0.0729  1.9078  1.3903
  707SOL     OW 2119   0.822   1.800   2.134  0.0059 -0.1099 -0.5451
  707SOL    HW1 2120   0.867   1.790   2.225 -1.1793 -3.7991 -2.7074
  707SOL    HW2 2121   0.831   1.715   2.085 -1.2229  1.6151  3.1857
  708SOL     OW 2122   0.306   2.495   1.680 -0.0459  0.4299  0.2540
  708SOL    HW1 2123   0.330   2.396   1.706 -4.6986 -1.9901 -1.4198
  708SOL    HW2 2124   0.357   2.564   1.738 -2.1115  0.8471 -0.7943
  709SOL     OW 2125   2.075   3.035   1.922 -0.2826 -0.2342 -0.0228
  709SOL    HW1 2126   2.096   2.935   1.946  1.5350 -1.1059 -1.2027
  709SOL    HW2 2127   2.097   3.054   1.828  1.2382  0.8896  1.3161
  710SOL     OW 2128   2.074   0.634   2.370  0.0010 -0.5358 -0.0159
  710SOL    HW1 2129   2.000   0.687   2.321 -1.5361 -1.5474 -1.3794
  710SOL    HW2 2130   2.110   0.689   2.445 -2.1137 -1.5841 -0.2164
  711SOL     OW 2131   0.836   2.015   0.135 -0.5480  0.2820  0.3472
  711SOL    HW1 2132   0.828   2.088   0.203 -1.8633  0.1509  2.6231
  711SOL    HW2 2133   0.783   2.041   0.056 -3.5229 -0.7172 -0.7137
  712SOL     OW 2134   0.706   2.545   2.312  0.3304  0.2198 -0.4545
  712SOL    HW1 2135   0.711   2.448   2.347  0.5082 -1.0699 -0.1190
  712SOL    HW2 2136   0.770   2.605   2.364  0.6338 -0.8266  0.8080
  713SOL     OW 2137   1.826   1.183   0.273  0.8079 -0.9421 -0.5197
  713SOL    HW1 2138   1.795   1.154   0.177 -1.0598 -1.0860 -1.8068
  713SOL    HW2 2139   1.914   1.224   0.273 -2.5871  1.4846  1.4555
  714SOL     OW 2140   0.414   1.395   0.988  0.2768 -0.0548 -0.1268
  714SOL    HW1 2141   0.429   1.316   0.919  1.7938 -2.7183 -1.0704
  714SOL    HW2 2142   0.346   1.458   0.949  3.2795  1.0666 -2.3898
  715SOL     OW 2143   2.019   0.317   2.894 -0.0940  0.3540  0.1875
  715SOL    HW1 2144   1.978   0.393   2.950  3.7872  2.6203 -0.4181
  715SOL    HW2 2145   2.018   0.232   2.953  0.5896  0.0435  0.5581
  716SOL     OW 2146   2.647   3.020   2.031 -0.0364 -0.1489 -0.1798
  716SOL    HW1 2147   2.562   2.965   2.035  1.2566 -0.8763  1.2626
  716SOL    HW2 2148   2.721   2.955   1.998  1.1308  0.0103  2.0197
  717SOL     OW 2149   3.030   0.830   0.783  0.0719  0.1398  0.0738
  717SOL    HW1 2150   0.012   0.789   0.734 -0.1263  1.2053  2.7870
  717SOL    HW2 2151   3.022   0.779   0.877  1.9070  0.0929 -0.8916
  718SOL     OW 2152   0.672   1.399   2.369 -0.0209 -0.3081  0.0526
  718SOL    HW1 2153   0.584   1.460   2.378 -3.2369 -1.3683 -0.0446
  718SOL    HW2 2154   0.644   1.304   2.339 -0.9830  0.0419 -0.5456
  719SOL     OW 2155   2.624   1.413   2.948 -0.2412  0.1721  0.2276
  719SOL    HW1 2156   2.630   1.439   3.045  0.9623 -2.2634  0.2605
  719SOL    HW2 2157   2.593   1.314   2.943 -1.1162  0.0804  0.0806
  720SOL     OW 2158   1.137   0.851   0.892  0.1508  0.4814  0.0490
  720SOL    HW1 2159   1.095   0.856   0.985  0.4808 -3.1287 -0.3479
  720SOL    HW2 2160   1.120   0.931   0.832  1.7090 -0.1528 -2.3789
  721SOL     OW 2161   2.739   0.364   0.166  0.2945  0.7297 -0.0957
  721SOL    HW1 2162   2.729   0.306   0.082 -0.7664  1.0190 -0.7907
  721SOL    HW2 2163   2.838   0.391   0.170  2.7416  0.3586 -2.1393
  722SOL     OW 2164   1.886   0.709   2.843 -0.1721 -0.2800  0.5949
  722SOL    HW1 2165   1.945   0.795   2.861 -0.2765  3.2168 -2.0640
  722SOL    HW2 2166   1.931   0.664   2.763 -0.9856  1.1986 -1.0508
  723SOL     OW 2167   2.722   0.674   0.351 -0.3007  0.7085 -0.5641
  723SOL    HW1 2168   2.745   0.575   0.371  0.3730 -2.4474  1.4608
  723SOL    HW2 2169   2.799   0.736   0.354 -1.8048  1.4200 -0.3539
  724SOL     OW 2170   0.786   1.574   2.008 -0.3723 -0.3586  0.6774
  724SOL    HW1 2171   0.797   1.509   1.930 -0.3007  0.1296 -1.0281
  724SOL    HW2 2172   0.837   1.541   2.092 -0.6816  0.5330 -0.5745
  725SOL     OW 2173   1.968   0.816   2.029  0.1352 -0.0865 -0.3844
  725SOL    HW1 2174   2.058   0.857   2.011 -0.1530  0.9014  1.5583
  725SOL    HW2 2175   1.884   0.879   2.024 -0.2424  2.2074 -0.7550
  726SOL     OW 2176   1.537   2.792   0.491  0.6158  0.0515  0.0426
  726SOL    HW1 2177   1.632   2.752   0.498  0.5894  0.4258  0.1164
  726SOL    HW2 2178   1.474   2.718   0.519  0.1313 -0.4520 -1.1307
  727SOL     OW 2179   1.564   1.554   2.253  0.0322  0.0676  0.4772
  727SOL    HW1 2180   1.531   1.481   2.183  1.8104 -0.8466 -0.1659
  727SOL    HW2 2181   1.509   1.643   2.246 -3.6822  1.7372 -0.6712
  728SOL     OW 2182   1.578   2.643   1.398  0.5780  0.1693  0.3660
  728SOL    HW1 2183   1.628   2.577   1.459  2.3639 -1.2023 -0.7102
  728SOL    HW2 2184   1.579   2.597   1.307 -0.2607 -2.0395  4.7441
  729SOL     OW 2185   2.085   1.132   0.980 -0.4789 -0.0776 -0.1572
  729SOL    HW1 2186   2.149   1.187   1.041  0.5320 -1.2398  0.1980
  729SOL    HW2 2187   2.130   1.085   0.904 -1.3343  0.2731  0.0136
  730SOL     OW 2188   0.455   1.330   2.692  0.4392  0.0354  0.3479
  730SOL    HW1 2189   0.487   1.404   2.636 -0.8546 -2.5725  0.7038
  730SOL    HW2 2190   0.497   1.241   2.662 -0.5667  1.0198 -0.9832
  731SOL     OW 2191   0.174   0.114   0.675  0.0514  0.1228 -0.0861
  731SOL    HW1 2192   0.143   0.091   0.580  0.5314  0.1027  0.7577
  731SOL    HW2 2193   0.177   0.035   0.736 -1.0270 -0.3334 -1.7285
  732SOL     OW 2194   1.277   0.738   0.371 -0.1616  0.1185  0.4016
  732SOL    HW1 2195   1.314   0.770   0.280  0.4030 -0.7460 -3.8219
  732SOL    HW2 2196   1.184   0.777   0.382  0.9449 -3.5842  1.0669
  733SOL     OW 2197   0.578   1.779   0.569 -0.2903 -0.4010  0.0371
  733SOL    HW1 2198   0.559   1.696   0.623 -1.9953  1.3967  1.9093
  733SOL    HW2 2199   0.504   1.813   0.507  0.2006  1.3388 -1.1229
  734SOL     OW 2200   0.073   2.352   3.003 -0.3878  0.1012  0.0775
  734SOL    HW1 2201   0.159   2.317   3.042 -1.1815 -1.1844 -0.8426
  734SOL    HW2 2202   0.002   2.332   3.068  1.4133 -0.7818 -1.1416
  735SOL     OW 2203   1.254   0.793   1.308  0.4307  0.4136 -0.3339
  735SOL    HW1 2204   1.240   0.691   1.301 -0.6627 -1.1628 -0.0586
  735SOL    HW2 2205   1.352   0.820   1.300 -1.5830 -2.7865 -1.9350
  736SOL     OW 2206   2.296   2.437   0.092 -0.5556  0.1565  0.6153
  736SOL    HW1 2207   2.317   2.525   0.052 -0.4483 -2.1030  2.5276
  736SOL    HW2 2208   2.205   2.436   0.143  1.6519  1.6499 -3.7430
  737SOL     OW 2209   2.584   0.227   0.854  0.3556  0.5105  0.4656
  737SOL    HW1 2210   2.594   0.188   0.760  1.1548 -2.7990 -2.9846
  737SOL    HW2 2211   2.544   0.155   0.917 -0.2828 -2.4036 -2.2748
  738SOL     OW 2212   2.426   0.038   1.029  0.2354  0.4202  0.0987
  738SOL    HW1 2213   2.374   0.068   1.104  0.1747 -2.2451 -0.2757
  738SOL    HW2 2214   2.361   0.004   0.957 -0.2019  1.4345  0.6923
  739SOL     OW 2215   1.501   2.488   0.478 -0.7718  0.3368 -0.1784
  739SOL    HW1 2216   1.511   2.386   0.473  0.2580  0.9226  2.9435
  739SOL    HW2 2217   1.420   2.512   0.531  0.6363  1.4036  0.9579
  740SOL     OW 2218   1.542   0.498   0.888  0.2330 -0.2122  0.4240
  740SOL    HW1 2219   1.482   0.579   0.860 -1.4302  0.8115 -1.2713
  740SOL    HW2 2220   1.644   0.523   0.889  0.7537 -1.1741  1.4498
  741SOL     OW 2221   2.634   0.801   0.938  0.2514 -0.3615 -0.7288
  741SOL    HW1 2222   2.687   0.775   0.855 -2.8506 -1.1601  0.4087
  741SOL    HW2 2223   2.551   0.846   0.904  2.3711 -4.1875  1.5658
  742SOL     OW 2224   0.927   1.808   2.386  0.8589  0.1405 -0.2995
  742SOL    HW1 2225   1.022   1.832   2.418 -1.2474 -2.0551  1.6232
  742SOL    HW2 2226   0.861   1.838   2.454  0.9846 -0.6531 -0.1681
  743SOL     OW 2227   1.545   0.751   1.893 -0.0783  0.0606  0.4232
  743SOL    HW1 2228   1.639   0.732   1.921 -0.1542  0.0250  0.4467
  743SOL    HW2 2229   1.520   0.850   1.899  2.2818  0.6903  1.5093
  744SOL     OW 2230   2.183   0.796   1.438  0.1325  0.0965  0.4351
  744SOL    HW1 2231   2.170   0.803   1.338 -1.5012 -0.8363 -2.3756
  744SOL    HW2 2232   2.212   0.893   1.464 -1.4819  0.3624  0.4215
  745SOL     OW 2233   1.841   1.538   1.580 -0.2268  0.6161 -0.6155
  745SOL    HW1 2234   1.903   1.543   1.662 -1.0107  1.0474  1.6831
  745SOL    HW2 2235   1.742   1.543   1.608  0.7225  0.6761 -0.2032
  746SOL     OW 2236   2.041   1.873   0.862  0.4965 -0.4072 -0.2753
  746SOL    HW1 2237   2.042   1.882   0.966  1.7888  0.4976 -2.5102
  746SOL    HW2 2238   2.116   1.933   0.828 -0.1630  1.7368  2.8464
  747SOL     OW 2239   2.247   1.549   1.020  0.2955 -0.0489 -0.3589
  747SOL    HW1 2240   2.244   1.542   0.919  2.0301 -3.1695  1.0200
  747SOL    HW2 2241   2.156   1.586   1.050 -1.6970  0.0030 -1.5494
  748SOL     OW 2242   0.419   2.147   0.836  0.5935  0.2142 -0.1112
  748SOL    HW1 2243   0.395   2.237   0.796  0.1857  0.8756 -0.4384
  748SOL    HW2 2244   0.452   2.164   0.933  2.3901 -2.6530 -2.0536
  749SOL     OW 2245   2.431   2.861   2.045  0.2273  0.3343  0.1670
  749SOL    HW1 2246   2.382   2.813   1.964 -1.5637  1.6743 -2.8387
  749SOL    HW2 2247   2.369   2.933   2.079  0.1664 -0.8795 -1.3260
  750SOL     OW 2248   2.339   0.647   0.895  0.0705 -0.3337 -0.3031
  750SOL    HW1 2249   2.236   0.650   0.873 -1.3099 -0.4913  1.6974
  750SOL    HW2 2250   2.362   0.728   0.957  0.8386  0.6829  1.4162
  751SOL     OW 2251   2.604   2.982   0.436 -0.1320 -0.3677 -0.1139
  751SOL    HW1 2252   2.596   2.890   0.389  2.9423  0.8209  3.1187
  751SOL    HW2 2253   2.667   3.047   0.385  1.2137 -1.5062  0.9345
  752SOL     OW 2254   0.379   2.918   0.501 -0.1799 -0.6788 -0.0534
  752SOL    HW1 2255   0.458   2.857   0.521 -0.0102  0.9646 -1.8650
  752SOL    HW2 2256   0.417   3.011   0.482 -3.6322  2.7933  0.0759
  753SOL     OW 2257   1.703   0.558   2.086  0.4159  0.0967  0.3562
  753SOL    HW1 2258   1.643   0.483   2.054  0.1786  1.2319 -3.1185
  753SOL    HW2 2259   1.799   0.535   2.077  0.9389 -1.1799 -0.6405
  754SOL     OW 2260   1.290   2.385   1.994  0.1543 -0.2167  0.2417
  754SOL    HW1 2261   1.208   2.401   1.936  3.1589 -1.5849 -0.2564
  754SOL    HW2 2262   1.372   2.387   1.932  1.0900 -0.8743 -1.7331
  755SOL     OW 2263   2.507   0.576   0.669  0.2120  0.5742  0.1811
  755SOL    HW1 2264   2.477   0.610   0.761  3.0291 -1.4895  0.5029
  755SOL    HW2 2265   2.489   0.645   0.595  0.3732  1.1034 -1.8013
  756SOL     OW 2266   1.035   1.718   3.039  0.5360 -0.1491 -0.3796
  756SOL    HW1 2267   1.043   1.631   2.987 -0.8818 -1.9688  0.1762
  756SOL    HW2 2268   0.996   1.794   2.982 -2.0542  0.6575  0.8602
  757SOL     OW 2269   0.920   3.022   0.704  0.9503 -0.1622 -0.2819
  757SOL    HW1 2270   0.981   2.973   0.765  1.5517  0.9753 -3.2509
  757SOL    HW2 2271   0.869   3.096   0.748 -3.4783  2.2383 -0.8234
  758SOL     OW 2272   0.946   0.025   1.024  0.4328  0.0240 -0.1809
  758SOL    HW1 2273   1.027   3.061   0.998  0.5050 -0.5456 -0.4581
  758SOL    HW2 2274   0.946   0.036   1.122  1.2313 -1.2962 -0.6725
  759SOL     OW 2275   0.283   0.525   0.847  0.1640 -0.0475 -0.2364
  759SOL    HW1 2276   0.220   0.591   0.800 -0.3171  3.2171 -0.6974
  759SOL    HW2 2277   0.259   0.512   0.944  3.3344 -0.7470  0.3941
  760SOL     OW 2278   2.421   1.188   1.299  0.1481  0.3008  0.9240
  760SOL    HW1 2279   2.480   1.114   1.262  2.2290  1.2489  1.0093
  760SOL    HW2 2280   2.350   1.220   1.234 -0.7964  0.7368  0.9161
  761SOL     OW 2281   1.845   0.542   0.601 -0.3528  0.0952 -0.3091
  761SOL    HW1 2282   1.748   0.522   0.581  0.0907  2.2972 -2.2057
  761SOL    HW2 2283   1.863   0.533   0.700 -1.3911 -1.7297  1.5483
  762SOL     OW 2284   2.163   2.357   0.792  0.4363  0.2190  0.1415
  762SOL    HW1 2285   2.070   2.351   0.750  1.3298  0.4266  0.2097
  762SOL    HW2 2286   2.156   2.319   0.890 -0.9177 -2.2483  0.1252
  763SOL     OW 2287   1.265   1.509   1.966  0.0314  0.2983 -0.0090
  763SOL    HW1 2288   1.214   1.547   2.047  0.5543  1.1048 -2.7357
  763SOL    HW2 2289   1.196   1.480   1.894 -1.1554 -2.6206 -1.4821
  764SOL     OW 2290   2.536   1.977   2.467  0.0241 -0.0087 -0.4640
  764SOL    HW1 2291   2.529   2.026   2.559  1.1180  0.3228 -1.5530
  764SOL    HW2 2292   2.528   2.046   2.393  2.5061 -1.4953 -1.6321
  765SOL     OW 2293   0.656   2.447   1.153  0.7683 -0.0253 -0.5383
  765SOL    HW1 2294   0.571   2.468   1.094  0.0475 -0.6156 -0.4902
  765SOL    HW2 2295   0.714   2.529   1.159 -0.6166  1.2497  0.4419
  766SOL     OW 2296   0.268   1.736   2.305  0.1601  0.2840 -0.6497
  766SOL    HW1 2297   0.167   1.706   2.298 -2.7223  0.6500 -1.4490
  766SOL    HW2 2298   0.305   1.747   2.209 -3.1510  1.4776 -2.6787
  767SOL     OW 2299   2.256   0.727   2.592 -0.1852 -0.0765 -0.6038
  767SOL    HW1 2300   2.185   0.684   2.649  1.7968 -1.6332 -1.6596
  767SOL    HW2 2301   2.347   0.714   2.635  0.0219 -0.8919  0.5523
  768SOL     OW 2302   1.025   3.004   2.689 -0.5185 -0.3264  0.3365
  768SOL    HW1 2303   1.123   3.018   2.706 -0.6780 -0.1190  0.4197
  768SOL    HW2 2304   0.975   3.059   2.625 -1.5452  1.8298 -1.1907
  769SOL     OW 2305   0.048   2.594   0.779  0.5824  0.5220 -0.5599
  769SOL    HW1 2306   0.116   2.560   0.707  0.4619 -0.8569  0.4110
  769SOL    HW2 2307   0.031   2.691   0.771 -0.5879  0.2978 -1.7182
  770SOL     OW 2308   0.917   3.046   0.126 -0.1097  0.2044 -0.0877
  770SOL    HW1 2309   0.977   3.068   0.047 -0.4221 -0.0716 -1.1666
  770SOL    HW2 2310   0.888   0.033   0.169 -0.6256 -1.6488  0.8693
  771SOL     OW 2311   1.140   2.130   2.621 -0.1467 -0.5217 -0.5762
  771SOL    HW1 2312   1.161   2.090   2.710 -0.2566  0.6754 -0.3229
  771SOL    HW2 2313   1.049   2.179   2.608 -1.2711 -0.1955  0.3840
  772SOL     OW 2314   2.258   3.056   2.122 -0.0661  0.2380  0.0399
  772SOL    HW1 2315   2.194   3.063   2.044 -2.0035 -0.0001 -0.4903
  772SOL    HW2 2316   2.228   0.029   2.188  1.6467  3.1585 -0.7090
  773SOL     OW 2317   1.301   0.098   1.941 -0.5276  0.2854  0.4776
  773SOL    HW1 2318   1.334   0.185   1.988  0.7763  1.2902  0.7389
  773SOL    HW2 2319   1.380   0.034   1.939  0.4402 -1.7229 -0.8808
  774SOL     OW 2320   1.294   0.933   1.717 -0.3034 -0.5212  0.5315
  774SOL    HW1 2321   1.322   1.031   1.722 -1.4698 -0.5593  2.9054
  774SOL    HW2 2322   1.215   0.916   1.780  1.0892  0.7925 -1.7760
  775SOL     OW 2323   2.279   3.016   0.387  0.3097 -0.1658  0.2537
  775SOL    HW1 2324   2.309   2.986   0.479  0.4695  0.5288  2.1722
  775SOL    HW2 2325   2.249   2.945   0.320 -1.0025  0.7647 -0.8459
  776SOL     OW 2326   2.086   1.265   1.872  0.0891 -0.2951 -0.2881
  776SOL    HW1 2327   2.100   1.346   1.811  0.5311  0.3254 -0.3219
  776SOL    HW2 2328   2.080   1.182   1.818  0.0016 -0.4900 -0.4375
  777SOL     OW 2329   0.010   1.236   2.584 -0.2377 -0.1577  0.2873
  777SOL    HW1 2330   0.085   1.169   2.581 -0.7740  1.6993 -0.0273
  777SOL    HW2 2331   3.074   1.265   2.489 -1.4554 -0.7716 -0.4910
  778SOL     OW 2332   2.346   0.972   2.501  0.1629  0.5876  0.4898
  778SOL    HW1 2333   2.287   0.887   2.501  1.4183  0.6605 -1.2005
  778SOL    HW2 2334   2.442   0.945   2.476  2.6991 -1.2046 -0.9404
  779SOL     OW 2335   0.016   0.386   2.628  0.5480  0.2203  0.1492
  779SOL    HW1 2336   0.098   0.444   2.644  0.5155  1.7591  0.8775
  779SOL    HW2 2337   0.031   0.302   2.575  0.7641  3.4432  1.5807
  780SOL     OW 2338   2.154   2.886   2.411  0.5189 -0.4641  0.2521
  780SOL    HW1 2339   2.119   2.931   2.323 -0.4933  1.7141  2.5694
  780SOL    HW2 2340   2.255   2.892   2.422 -1.0371 -0.9408  1.7107
  781SOL     OW 2341   2.914   0.896   1.729 -0.5808 -0.2454 -0.3693
  781SOL    HW1 2342   2.851   0.831   1.772 -0.3494 -0.5039  2.3498
  781SOL    HW2 2343   2.879   0.925   1.635 -1.9462  0.9569 -0.6014
  782SOL     OW 2344   1.940   2.361   3.020 -0.3862  0.0753 -0.1352
  782SOL    HW1 2345   1.986   2.272   3.056  4.1626 -2.6477 -0.7464
  782SOL    HW2 2346   2.010   2.410   2.963  0.5634 -4.0130  0.0597
  783SOL     OW 2347   0.447   2.110   1.102 -0.1282 -0.1604  0.4514
  783SOL    HW1 2348   0.348   2.090   1.110  1.5313  0.3770 -2.0204
  783SOL    HW2 2349   0.476   2.164   1.180 -2.6329 -1.4324 -1.8395
  784SOL     OW 2350   2.546   0.529   2.257  0.5318  0.6784 -0.4076
  784SOL    HW1 2351   2.475   0.466   2.213 -1.2863 -2.1082 -0.7001
  784SOL    HW2 2352   2.517   0.628   2.263  1.2410  2.1365  0.0086
  785SOL     OW 2353   0.107   3.088   1.192  0.3982 -0.0028 -0.8857
  785SOL    HW1 2354   0.102   0.093   1.205  0.8318  2.8961 -2.8169
  785SOL    HW2 2355   0.100   3.040   1.284  0.3481 -0.0715 -0.6151
  786SOL     OW 2356   1.282   2.628   0.570 -0.0966  0.2031  0.5031
  786SOL    HW1 2357   1.276   2.618   0.672 -0.2051  2.9431 -1.9083
  786SOL    HW2 2358   1.183   2.632   0.537 -1.0286  1.6467  2.8404
  787SOL     OW 2359   1.225   0.165   0.792  0.1246 -0.2343 -0.6548
  787SOL    HW1 2360   1.226   0.207   0.699  0.8115  1.6972  2.0933
  787SOL    HW2 2361   1.221   0.065   0.791  3.2999 -1.1751 -0.4903
  788SOL     OW 2362   2.966   1.394   1.067  0.2417 -0.3288  0.1515
  788SOL    HW1 2363   2.955   1.469   1.000 -1.1685  0.0735 -1.2396
  788SOL    HW2 2364   3.064   1.383   1.088 -0.3652 -2.1965  0.9821
  789SOL     OW 2365   2.869   0.578   1.980 -0.3762 -0.4933 -0.0568
  789SOL    HW1 2366   2.814   0.663   1.954  2.6363 -1.0766 -0.5602
  789SOL    HW2 2367   2.855   0.540   2.070  1.0304  1.6822  1.8095
  790SOL     OW 2368   0.971   0.814   2.832 -0.4769  0.0456 -0.2103
  790SOL    HW1 2369   1.075   0.821   2.831 -0.5753  0.0070  1.2158
  790SOL    HW2 2370   0.926   0.906   2.824  1.8609  2.8487 -1.1329
  791SOL     OW 2371   0.085   2.668   0.024 -0.3076  0.2282  0.1372
  791SOL    HW1 2372   0.161   2.602   0.014  1.2903  0.3159 -0.6876
  791SOL    HW2 2373   0.044   2.693   3.032 -0.5963  3.0740 -0.4962
  792SOL     OW 2374   1.278   0.745   2.001  0.0590 -0.0720 -0.5814
  792SOL    HW1 2375   1.236   0.659   1.980  1.3248  3.6004  1.9065
  792SOL    HW2 2376   1.381   0.740   1.987  0.4947  1.8518  0.6430
  793SOL     OW 2377   2.899   0.579   1.315 -0.0840 -0.0458 -0.0020
  793SOL    HW1 2378   2.845   0.565   1.400 -1.4312 -0.0682  0.9358
  793SOL    HW2 2379   2.842   0.567   1.232  0.7659  1.8059  1.7293
  794SOL     OW 2380   2.899   0.211   2.144 -0.3853 -0.0558 -0.3814
  794SOL    HW1 2381   2.848   0.299   2.162 -1.5051 -1.2136  1.1978
  794SOL    HW2 2382   3.001   0.219   2.150 -1.0661  1.2587  0.8490
  795SOL     OW 2383   0.559   1.816   3.016  0.3831 -0.2244  0.1604
  795SOL    HW1 2384   0.543   1.849   0.015  3.1046  1.1145  1.0052
  795SOL    HW2 2385   0.648   1.766   3.010 -0.5401  0.0855  2.1777
  796SOL     OW 2386   2.742   0.665   2.957  0.7334  0.7061 -0.3074
  796SOL    HW1 2387   2.654   0.608   2.957 -1.1391  0.7795  0.0121
  796SOL    HW2 2388   2.715   0.760   2.960  1.9943 -0.9466 -1.4763
  797SOL     OW 2389   2.497   2.143   2.696  0.3493  0.0913  0.0256
  797SOL    HW1 2390   2.395   2.124   2.695 -1.0712 -1.4509  1.1128
  797SOL    HW2 2391   2.518   2.241   2.672  1.1090  2.4820 -0.5586
  798SOL     OW 2392   2.976   3.073   1.025  0.4457  0.6261  0.5462
  798SOL    HW1 2393   3.059   3.066   1.083  0.0654  0.6230 -0.2285
  798SOL    HW2 2394   2.959   0.074   1.008 -0.6460  0.1569  0.0073
  799SOL     OW 2395   0.268   0.244   1.463  0.0551 -0.4094 -0.2600
  799SOL    HW1 2396   0.301   0.278   1.371  0.7200  2.4385 -0.8875
  799SOL    HW2 2397   0.333   0.174   1.498 -1.8161 -1.9127  0.1443
  800SOL     OW 2398   0.457   1.659   0.271 -0.7684 -0.0580  0.2508
  800SOL    HW1 2399   0.363   1.623   0.242 -1.7292 -0.7767 -2.2557
  800SOL    HW2 2400   0.523   1.583   0.292  0.8635 -1.0941 -1.0279
  801SOL     OW 2401   1.616   1.976   0.564  0.6106 -0.3371  0.2388
  801SOL    HW1 2402   1.611   1.909   0.642 -1.1430 -0.4728  0.5850
  801SOL    HW2 2403   1.715   2.004   0.546  2.8797 -1.6463 -1.8612
  802SOL     OW 2404   1.432   1.063   3.094  0.3958  0.8995  0.2168
  802SOL    HW1 2405   1.463   1.015   3.006  1.8658 -2.1497 -0.2641
  802SOL    HW2 2406   1.427   1.161   3.075 -0.3877 -2.7092 -0.3802
  803SOL     OW 2407   1.077   1.795   1.913 -0.1648 -0.1527 -0.1386
  803SOL    HW1 2408   1.155   1.790   1.856 -1.5622  1.9660  0.5735
  803SOL    HW2 2409   1.104   1.814   2.012  1.9643  0.4362  3.5481
  804SOL     OW 2410   1.656   2.335   1.002  0.3446 -0.0929 -0.3265
  804SOL    HW1 2411   1.724   2.263   0.989  2.0647  0.0911  3.8561
  804SOL    HW2 2412   1.579   2.338   0.934  1.3012  1.9853 -0.0876
  805SOL     OW 2413   0.249   2.438   2.057  0.1790 -0.2160 -0.2370
  805SOL    HW1 2414   0.219   2.476   1.964 -1.0248  1.7664 -2.8498
  805SOL    HW2 2415   0.338   2.389   2.055  0.6266 -1.8698 -0.6901
  806SOL     OW 2416   0.638   3.017   0.389 -0.3313  0.2018 -0.1343
  806SOL    HW1 2417   0.730   3.049   0.416 -1.5625  0.3034  0.0583
  806SOL    HW2 2418   0.602   3.059   0.304  1.2843  0.2103  0.5105
  807SOL     OW 2419   2.564   0.868   2.924  0.0357  0.4740 -0.2688
  807SOL    HW1 2420   2.481   0.854   2.983  0.6887  1.2949 -1.6635
  807SOL    HW2 2421   2.557   0.826   2.832  1.1562  0.3771  1.5661
  808SOL     OW 2422   1.378   2.077   0.817  0.4035  0.3562 -0.3623
  808SOL    HW1 2423   1.301   2.113   0.876 -1.3049 -0.4796  2.0732
  808SOL    HW2 2424   1.336   2.008   0.762  3.2375  1.4277  4.5908
  809SOL     OW 2425   0.069   0.054   0.410  0.2673  0.3625  0.1680
  809SOL    HW1 2426   0.029   3.064   0.370  0.5282  0.2809 -1.3569
  809SOL    HW2 2427   0.127   0.100   0.343  0.0034 -1.6849 -0.5652
  810SOL     OW 2428   1.122   1.511   0.620  0.6007  0.0940  0.1142
  810SOL    HW1 2429   1.091   1.571   0.700 -1.4135  1.0015  2.4570
  810SOL    HW2 2430   1.175   1.434   0.666  0.9598  0.5991  2.0248
  811SOL     OW 2431   1.358   2.817   1.328  0.1949 -0.2257  0.1012
  811SOL    HW1 2432   1.450   2.775   1.342  0.9797  0.1840 -3.3745
  811SOL    HW2 2433   1.363   2.896   1.264 -1.3434 -0.9946 -0.0933
  812SOL     OW 2434   1.266   0.189   0.236  0.3284  0.2020  0.2419
  812SOL    HW1 2435   1.235   0.102   0.288 -1.1788 -1.4787 -0.3064
  812SOL    HW2 2436   1.215   0.274   0.269  1.9001 -0.5415 -1.6535
  813SOL     OW 2437   1.038   0.054   2.108 -0.6405 -0.3535 -0.4808
  813SOL    HW1 2438   1.128   0.070   2.060 -1.4390 -1.5468  0.1863
  813SOL    HW2 2439   1.038   3.070   2.175  0.3618 -0.2628  0.8029
  814SOL     OW 2440   0.585   2.796   1.169 -0.4493 -0.2736 -0.1327
  814SOL    HW1 2441   0.607   2.876   1.111  0.3361 -2.3299 -0.8686
  814SOL    HW2 2442   0.490   2.779   1.176  0.8756 -2.0613 -1.4093
  815SOL     OW 2443   0.202   2.565   0.526 -0.1769  0.2590  0.0429
  815SOL    HW1 2444   0.172   2.656   0.489 -0.5982 -1.3725  0.7744
  815SOL    HW2 2445   0.206   2.490   0.456 -0.2624 -1.4217 -1.2940
  816SOL     OW 2446   2.533   1.608   2.775  0.1690  0.0455 -0.6146
  816SOL    HW1 2447   2.552   1.527   2.833  1.6608 -0.3333  1.6117
  816SOL    HW2 2448   2.496   1.594   2.684 -0.2145 -0.2202  2.5217
  817SOL     OW 2449   1.830   2.673   2.825 -0.6835 -0.4668  0.3464
  817SOL    HW1 2450   1.898   2.609   2.794 -0.4997  0.9440 -0.9458
  817SOL    HW2 2451   1.876   2.759   2.863 -0.4632  0.7990  3.6231
  818SOL     OW 2452   1.355   1.170   0.430 -0.1210 -0.1013 -0.7138
  818SOL    HW1 2453   1.311   1.131   0.347  0.6349  0.8011 -0.8698
  818SOL    HW2 2454   1.411   1.092   0.468 -1.1914 -1.4495  1.0171
  819SOL     OW 2455   1.557   1.874   3.043  0.2063 -0.3550 -0.6772
  819SOL    HW1 2456   1.526   1.939   0.019  1.5128  2.1753 -1.5668
  819SOL    HW2 2457   1.473   1.854   2.986 -1.7809  1.0620  1.5550
  820SOL     OW 2458   0.599   0.780   0.120  0.7461 -0.3765  0.3554
  820SOL    HW1 2459   0.608   0.807   0.024 -0.9446  1.8888  1.0461
  820SOL    HW2 2460   0.608   0.683   0.131  2.4555  2.5388  1.1096
  821SOL     OW 2461   0.464   0.068   0.980  0.1012  0.1448  0.5489
  821SOL    HW1 2462   0.505   0.094   0.891 -0.2848  2.2658  2.8951
  821SOL    HW2 2463   0.438   0.155   1.027  0.5828  3.5142 -0.8179
  822SOL     OW 2464   1.640   2.484   2.508  0.0877 -0.1675  0.1294
  822SOL    HW1 2465   1.567   2.504   2.570  0.6315 -0.3901 -0.9502
  822SOL    HW2 2466   1.697   2.418   2.556  3.0205  0.6125 -2.1867
  823SOL     OW 2467   0.990   0.737   2.270  0.0068 -0.2614  0.5213
  823SOL    HW1 2468   1.088   0.718   2.292  1.2752 -0.1861  2.0258
  823SOL    HW2 2469   0.933   0.723   2.356 -1.0692 -1.6379  0.6489
  824SOL     OW 2470   2.389   0.337   1.410  0.5330 -0.1243  0.1506
  824SOL    HW1 2471   2.403   0.424   1.364  2.7348 -2.2279  1.3550
  824SOL    HW2 2472   2.311   0.337   1.478 -0.4306 -0.0157  0.6524
  825SOL     OW 2473   0.678   1.139   0.187  0.3116  0.9927  0.3491
  825SOL    HW1 2474   0.752   1.096   0.125  4.0488 -1.0785  0.2578
  825SOL    HW2 2475   0.602   1.174   0.129  3.5951 -2.8440  1.9833
  826SOL     OW 2476   1.994   0.563   2.633  0.0186  0.2590 -0.6360
  826SOL    HW1 2477   1.936   0.484   2.667  0.4740 -0.6098 -0.4105
  826SOL    HW2 2478   2.013   0.560   2.536 -1.6980 -2.4172 -1.2248
  827SOL     OW 2479   0.893   2.219   2.574  0.1264  0.1727 -0.2310
  827SOL    HW1 2480   0.817   2.237   2.508  0.8468 -0.9001 -1.4834
  827SOL    HW2 2481   0.865   2.209   2.675 -0.6316  1.6018 -0.4857
  828SOL     OW 2482   2.633   0.006   1.247  0.2572 -0.0995 -0.5160
  828SOL    HW1 2483   2.616   0.010   1.152 -1.2402  1.0663  2.5456
  828SOL    HW2 2484   2.698   3.024   1.268  0.3372 -2.0364  0.0186
  829SOL     OW 2485   1.212   1.725   1.408  0.5467 -0.7069 -0.4792
  829SOL    HW1 2486   1.260   1.645   1.378  1.9551  0.2852 -0.3190
  829SOL    HW2 2487   1.147   1.700   1.477  1.4935 -0.1999 -2.3718
  830SOL     OW 2488   0.473   1.058   1.839 -0.2539  0.1611  0.4377
  830SOL    HW1 2489   0.497   1.088   1.742 -0.2067 -2.5551 -1.8005
  830SOL    HW2 2490   0.407   0.982   1.827  0.2592 -0.9604 -0.8509
  831SOL     OW 2491   3.055   1.837   0.109 -0.2782 -0.0509 -0.3315
  831SOL    HW1 2492   2.985   1.907   0.080 -1.6003  0.3940 -1.9961
  831SOL    HW2 2493   0.009   1.796   0.030  2.9865 -2.0513 -0.1998
  832SOL     OW 2494   1.229   2.765   0.156  0.1327 -0.2020 -0.3528
  832SOL    HW1 2495   1.140   2.754   0.204 -0.2457  0.3573  1.0758
  832SOL    HW2 2496   1.214   2.810   0.064  0.0812 -0.8640 -0.0186
  833SOL     OW 2497   3.037   0.368   1.683  0.2935 -0.2430 -0.4412
  833SOL    HW1 2498   2.940   0.358   1.718 -0.6539  1.3700  2.5510
  833SOL    HW2 2499   3.076   0.458   1.696  3.0254 -1.3858 -0.5602
  834SOL     OW 2500   3.083   1.055   0.944  0.4349  0.3117  0.1810
  834SOL    HW1 2501   0.012   1.142   0.896 -0.8123  0.0759 -1.6458
  834SOL    HW2 2502   3.071   0.972   0.881  1.2081 -1.8216  0.2780
  835SOL     OW 2503   2.529   2.836   0.981 -0.2471 -0.3236 -0.0116
  835SOL    HW1 2504   2.450   2.863   0.927 -0.7447 -0.2763 -0.6090
  835SOL    HW2 2505   2.601   2.910   0.986  0.8701  1.1382  1.0711
  836SOL     OW 2506   0.941   1.921   2.880 -0.2804 -0.1296  0.9408
  836SOL    HW1 2507   1.013   1.992   2.900  3.7743 -1.1960 -0.4147
  836SOL    HW2 2508   0.859   1.962   2.834 -1.5048 -0.8664  0.3272
  837SOL     OW 2509   1.806   1.998   2.967 -0.5385  0.6007  0.2131
  837SOL    HW1 2510   1.720   1.947   2.971 -0.0799  1.4851 -0.7692
  837SOL    HW2 2511   1.781   2.098   2.956 -0.3293  1.0253  0.8970
  838SOL     OW 2512   0.032   0.852   2.225 -0.5414 -0.0171 -0.1125
  838SOL    HW1 2513   0.016   0.755   2.233  0.6596  2.7283 -1.6077
  838SOL    HW2 2514   3.078   0.892   2.144  2.2575  0.5935 -2.2308
  839SOL     OW 2515   0.821   1.043   2.831 -0.4067  0.5053 -0.4202
  839SOL    HW1 2516   0.872   1.101   2.767  0.7840  1.2771 -0.9665
  839SOL    HW2 2517   0.818   1.097   2.920  0.7613  1.3387 -0.9862
  840SOL     OW 2518   1.659   0.619   0.278 -0.0407 -0.0577  0.3021
  840SOL    HW1 2519   1.752   0.605   0.243  1.0115 -1.1580  1.0515
  840SOL    HW2 2520   1.654   0.584   0.370  2.2043 -1.0487 -0.8299
  841SOL     OW 2521   0.669   2.588   0.774 -0.2281 -0.3130  0.0720
  841SOL    HW1 2522   0.596   2.583   0.844 -1.2288  0.1313 -0.9357
  841SOL    HW2 2523   0.640   2.641   0.693 -0.3001 -0.8333  2.7532
  842SOL     OW 2524   0.242   0.516   0.306  0.2311 -0.3794 -0.1757
  842SOL    HW1 2525   0.142   0.515   0.299  2.3653  0.1278 -0.0596
  842SOL    HW2 2526   0.275   0.592   0.361  1.1434 -1.9542 -1.9202
  843SOL     OW 2527   0.527   0.724   1.383 -0.7461  0.2859  0.0067
  843SOL    HW1 2528   0.587   0.715   1.465 -2.4337 -1.3511 -1.4457
  843SOL    HW2 2529   0.497   0.819   1.374  1.7808  0.3515  0.6326
  844SOL     OW 2530   1.998   2.500   2.680 -0.9031  0.5380 -0.1884
  844SOL    HW1 2531   2.007   2.571   2.606 -0.1759 -2.2779 -1.0623
  844SOL    HW2 2532   2.081   2.477   2.739  1.1902  0.4384  0.3681
  845SOL     OW 2533   2.277   0.103   1.701 -0.3769  0.1296 -0.0286
  845SOL    HW1 2534   2.367   0.083   1.744 -0.0772 -0.7564 -1.0195
  845SOL    HW2 2535   2.236   0.016   1.667 -2.4720  2.3275 -1.1350
  846SOL     OW 2536   2.163   1.725   2.608  0.3163  0.0483  0.3225
  846SOL    HW1 2537   2.103   1.642   2.589 -2.8731 -2.9355 -1.2172
  846SOL    HW2 2538   2.250   1.725   2.554  1.4418  1.2688  1.7261
  847SOL     OW 2539   2.080   2.781   2.036  0.0793  0.7322 -0.2368
  847SOL    HW1 2540   1.985   2.759   2.061  1.2784  2.9411  0.2246
  847SOL    HW2 2541   2.136   2.698   2.039 -1.1657 -0.5289  1.8034
  848SOL     OW 2542   0.245   2.886   0.086 -0.5140 -0.2931 -0.0800
  848SOL    HW1 2543   0.330   2.841   0.053  0.5432  0.0419  0.1400
  848SOL    HW2 2544   0.174   2.816   0.050 -0.5463  1.7107 -0.2332
  849SOL     OW 2545   0.460   2.781   1.443  0.0401 -0.1884 -0.2867
  849SOL    HW1 2546   0.386   2.753   1.382  0.4195  0.0553  1.2581
  849SOL    HW2 2547   0.525   2.841   1.390  5.4604  1.0170  0.3328
  850SOL     OW 2548   0.207   1.791   0.930 -0.2095  0.0978 -0.0976
  850SOL    HW1 2549   0.135   1.805   1.000  0.1332 -0.2237 -0.7788
  850SOL    HW2 2550   0.220   1.873   0.872  0.9131 -1.1583 -1.1133
  851SOL     OW 2551   2.995   0.612   2.942  0.2987 -0.6338  0.0885
  851SOL    HW1 2552   3.030   0.662   2.861 -1.7869 -3.3078  1.5532
  851SOL    HW2 2553   2.892   0.624   2.950  1.1801 -0.5490  0.9230
  852SOL     OW 2554   1.895   2.031   2.629 -0.4515 -0.0322 -0.3084
  852SOL    HW1 2555   1.843   1.965   2.685  1.4617  1.0616 -0.7408
  852SOL    HW2 2556   1.941   1.991   2.547 -0.3123  1.2860 -3.9343
  853SOL     OW 2557   0.821   1.697   0.446  0.5510  0.0589  0.2685
  853SOL    HW1 2558   0.729   1.726   0.482 -0.5259  2.0248 -0.9827
  853SOL    HW2 2559   0.817   1.667   0.351 -2.9906  0.5649  3.1024
  854SOL     OW 2560   1.715   1.263   2.034  0.6435 -0.5027  0.1406
  854SOL    HW1 2561   1.616   1.284   2.059 -3.2124  1.5654 -1.3597
  854SOL    HW2 2562   1.735   1.289   1.939 -1.1501 -0.3987  2.0443
  855SOL     OW 2563   0.540   2.225   2.954 -0.5685 -0.8554 -0.4729
  855SOL    HW1 2564   0.505   2.170   3.030  0.4162  2.4927 -1.1171
  855SOL    HW2 2565   0.463   2.244   2.890  1.5813  3.8473 -2.5860
  856SOL     OW 2566   0.350   0.115   1.926 -0.5080  0.4741  0.0735
  856SOL    HW1 2567   0.360   0.016   1.947 -0.0047 -0.2034  0.9883
  856SOL    HW2 2568   0.405   0.181   1.983  1.5767  0.0185  1.6212
  857SOL     OW 2569   0.714   0.310   1.681 -0.3429 -0.1267  0.0608
  857SOL    HW1 2570   0.719   0.358   1.773  0.6243 -1.7735  2.2576
  857SOL    HW2 2571   0.743   0.373   1.604  3.6046  1.8341 -0.1255
  858SOL     OW 2572   0.047   2.125   2.069 -0.1630 -0.2780  0.0948
  858SOL    HW1 2573   3.039   2.126   2.067 -0.5974 -1.0413  0.7530
  858SOL    HW2 2574   0.085   2.174   2.145 -1.0770 -1.1036 -0.0061
  859SOL     OW 2575   2.066   2.288   1.028 -0.0758 -0.2278  0.1129
  859SOL    HW1 2576   2.040   2.373   1.080 -0.3140 -0.6383  0.3999
  859SOL    HW2 2577   1.986   2.240   0.985  1.0594 -1.5109 -1.4129
  860SOL     OW 2578   2.104   0.493   0.507 -0.1599 -0.2239 -0.1855
  860SOL    HW1 2579   2.138   0.398   0.529  0.6234  0.8508  0.1552
  860SOL    HW2 2580   2.007   0.511   0.533  0.3454  0.0807  0.9476
  861SOL     OW 2581   0.173   0.453   1.098  0.1844  0.0023 -0.5347
  861SOL    HW1 2582   0.171   0.522   1.175  0.8715 -0.4751  3.7686
  861SOL    HW2 2583   0.106   0.375   1.105  0.9633 -3.1104  3.3792
  862SOL     OW 2584   2.259   0.696   1.687  0.2130  0.4666 -0.2873
  862SOL    HW1 2585   2.189   0.661   1.752 -0.1134  0.4261 -0.0240
  862SOL    HW2 2586   2.226   0.724   1.597  1.2843  0.2225 -2.2908
  863SOL     OW 2587   0.298   1.318   1.508  0.2599 -0.3637 -0.3494
  863SOL    HW1 2588   0.298   1.319   1.610 -0.2203  0.7225  1.6255
  863SOL    HW2 2589   0.314   1.410   1.463 -0.3812  1.7002  0.3411
  864SOL     OW 2590   2.529   0.088   1.813 -0.2862 -0.3223 -0.1236
  864SOL    HW1 2591   2.581   0.038   1.885  0.9940 -1.6409  0.5284
  864SOL    HW2 2592   2.572   0.175   1.787  0.1183  0.9166 -1.3055
  865SOL     OW 2593   1.497   0.293   2.183  0.2654 -0.0572 -0.5053
  865SOL    HW1 2594   1.510   0.300   2.078 -1.4776 -1.4643 -0.9842
  865SOL    HW2 2595   1.584   0.275   2.243 -0.8846  0.7984  1.2142
  866SOL     OW 2596   2.383   2.903   0.601 -0.4611 -0.4132 -0.2549
  866SOL    HW1 2597   2.383   2.809   0.648  0.2053 -1.6708  1.4907
  866SOL    HW2 2598   2.471   2.918   0.546 -0.5198  0.8783 -0.9898
  867SOL     OW 2599   2.648   2.573   0.787 -0.1657 -0.2944 -0.3751
  867SOL    HW1 2600   2.726   2.639   0.789 -1.3098 -0.7249  2.0667
  867SOL    HW2 2601   2.628   2.555   0.886 -1.0291  1.7365 -1.5201
  868SOL     OW 2602   1.702   1.313   2.872 -0.5502  0.3137  0.2444
  868SOL    HW1 2603   1.612   1.355   2.846 -0.4324 -3.6058 -1.5443
  868SOL    HW2 2604   1.783   1.331   2.807  3.4649  1.7023  0.6134
  869SOL     OW 2605   2.594   1.826   0.682 -0.0002  0.1809 -0.2591
  869SOL    HW1 2606   2.509   1.790   0.638  2.0461  0.8423  3.0029
  869SOL    HW2 2607   2.614   1.924   0.647  0.3039  2.0312 -0.9062
  870SOL     OW 2608   2.819   1.941   0.403 -0.0816 -0.2443  0.0623
  870SOL    HW1 2609   2.768   1.876   0.345 -1.5238 -0.9352  1.8591
  870SOL    HW2 2610   2.759   2.011   0.446 -0.7107  0.8851  3.1326
  871SOL     OW 2611   0.209   1.064   1.427  0.2534 -0.4869 -0.0265
  871SOL    HW1 2612   0.242   1.164   1.431  2.3992  0.9864  0.7541
  871SOL    HW2 2613   0.133   1.049   1.359  0.5934  0.3773 -0.2458
  872SOL     OW 2614   0.442   1.552   2.426 -0.5028  0.2400  0.4048
  872SOL    HW1 2615   0.369   1.611   2.383 -1.4728  0.1135  0.2399
  872SOL    HW2 2616   0.469   1.592   2.515 -0.2066  0.5005 -3.8522
  873SOL     OW 2617   0.224   2.899   1.591  0.1334 -0.3654 -0.6786
  873SOL    HW1 2618   0.221   2.885   1.693  0.5238 -0.4120 -0.8643
  873SOL    HW2 2619   0.318   2.869   1.559 -0.7296 -0.2748  1.3087
  874SOL     OW 2620   1.261   0.704   2.267  0.4734 -0.0428  0.3050
  874SOL    HW1 2621   1.281   0.738   2.174  1.1631 -0.4360  2.4171
  874SOL    HW2 2622   1.302   0.767   2.334 -0.6930  0.0866  4.2902
  875SOL     OW 2623   2.715   3.016   0.946 -0.2837 -0.3954  0.2614
  875SOL    HW1 2624   2.804   3.038   0.992 -0.2872  0.5678 -1.2080
  875SOL    HW2 2625   2.720   3.032   0.843  2.0989 -1.0708 -2.9608
  876SOL     OW 2626   0.834   1.201   0.378  0.1203 -0.2740  0.0558
  876SOL    HW1 2627   0.780   1.202   0.290 -1.9101  0.3298 -1.6959
  876SOL    HW2 2628   0.866   1.293   0.404  1.7354 -0.8893  2.7990
  877SOL     OW 2629   1.098   0.917   1.486 -0.6629 -0.4301 -0.2065
  877SOL    HW1 2630   1.137   0.912   1.584  0.8096  0.2619 -0.1185
  877SOL    HW2 2631   1.163   0.869   1.426 -0.3769 -0.5867  0.6819
  878SOL     OW 2632   2.481   2.099   0.293 -0.3591  0.0228 -0.7939
  878SOL    HW1 2633   2.390   2.129   0.324  0.3128  3.4558 -1.7210
  878SOL    HW2 2634   2.516   2.166   0.221  2.2605  0.6208 -0.1338
  879SOL     OW 2635   2.420   2.016   2.035 -0.6838 -0.3990  0.1773
  879SOL    HW1 2636   2.486   2.048   2.108  2.8690  2.5588  2.4896
  879SOL    HW2 2637   2.392   2.092   1.971  0.5091 -1.8684  3.7027
  880SOL     OW 2638   0.850   2.255   1.215  0.3879  0.0315  0.2365
  880SOL    HW1 2639   0.941   2.308   1.215  1.8126 -0.0448  2.2620
  880SOL    HW2 2640   0.772   2.318   1.190 -2.9487 -4.4955 -1.3875
  881SOL     OW 2641   0.990   1.904   0.545 -0.0039 -0.6064  0.4360
  881SOL    HW1 2642   0.933   1.828   0.502 -0.2147 -1.5087 -1.1011
  881SOL    HW2 2643   0.928   1.981   0.579 -1.5833 -3.4670  0.5535
  882SOL     OW 2644   2.087   1.283   0.226 -0.0289  0.3371 -0.0857
  882SOL    HW1 2645   2.094   1.356   0.156  0.4240  1.2675 -2.4747
  882SOL    HW2 2646   2.181   1.242   0.237 -0.2003  0.2915 -1.3311
  883SOL     OW 2647   1.535   0.793   1.108 -0.2175 -0.2925  0.4431
  883SOL    HW1 2648   1.546   0.880   1.163 -1.2416  1.6495  0.9744
  883SOL    HW2 2649   1.617   0.740   1.112 -1.1159 -1.0193  2.4167
  884SOL     OW 2650   2.845   2.705   0.453  0.4544 -0.0895  0.6740
  884SOL    HW1 2651   2.889   2.697   0.360 -2.8841  0.4595 -1.1935
  884SOL    HW2 2652   2.897   2.774   0.515 -1.4676  2.2783  1.8669
  885SOL     OW 2653   0.899   1.442   2.231  0.1003  0.4433  0.8078
  885SOL    HW1 2654   0.812   1.431   2.280  0.4586 -0.5724 -1.0973
  885SOL    HW2 2655   0.957   1.362   2.206 -0.0211 -3.9885 -1.4075
  886SOL     OW 2656   1.165   1.913   2.453 -0.3229 -0.1665  0.1060
  886SOL    HW1 2657   1.144   1.993   2.511  2.6507 -0.4874  0.0163
  886SOL    HW2 2658   1.250   1.864   2.482  0.3223  3.5130 -0.3510
  887SOL     OW 2659   1.403   0.737   0.872  0.5428 -0.0467 -0.0304
  887SOL    HW1 2660   1.443   0.759   0.964 -1.2073 -2.9310 -0.5070
  887SOL    HW2 2661   1.312   0.775   0.877  3.6000 -3.5460 -2.6463
  888SOL     OW 2662   2.264   0.663   2.003  0.1999  0.0212 -0.0706
  888SOL    HW1 2663   2.310   0.684   2.087 -1.7792 -2.3404 -0.3152
  888SOL    HW2 2664   2.249   0.558   2.001 -0.7269  1.4763  1.7609
  889SOL     OW 2665   2.918   1.909   0.913 -0.2236  0.2779 -0.1459
  889SOL    HW1 2666   2.947   1.866   0.824  1.1156 -0.3173 -1.3947
  889SOL    HW2 2667   2.883   2.002   0.902  0.4997 -1.4291  1.8463
  890SOL     OW 2668   1.192   2.296   0.273 -0.6506  0.2911  0.0380
  890SOL    HW1 2669   1.236   2.280   0.359 -2.5172  0.1607 -4.8961
  890SOL    HW2 2670   1.201   2.218   0.207  1.2270  0.8073  1.4905
  891SOL     OW 2671   2.924   0.353   2.845  0.0379 -0.4199  0.5258
  891SOL    HW1 2672   2.974   0.372   2.756  0.1781 -0.5208 -1.6317
  891SOL    HW2 2673   2.910   0.440   2.895  0.0137  1.0303  2.9825
  892SOL     OW 2674   2.914   2.216   0.985  0.4728  0.4800  0.4837
  892SOL    HW1 2675   2.945   2.310   0.966 -2.0860 -0.4227  1.2703
  892SOL    HW2 2676   2.939   2.187   1.079 -0.9419  1.0953 -0.2551
  893SOL     OW 2677   1.437   0.218   0.951  0.7312 -0.1319  0.2737
  893SOL    HW1 2678   1.368   0.193   0.881 -0.4739  2.8600  2.6296
  893SOL    HW2 2679   1.460   0.315   0.944  0.1726 -3.9201  3.0354
  894SOL     OW 2680   2.872   0.249   0.918  0.0175 -0.1851  0.0390
  894SOL    HW1 2681   2.933   0.267   0.833  0.9758  1.1733 -2.4505
  894SOL    HW2 2682   2.774   0.250   0.893 -2.0248 -2.1551  0.0632
  895SOL     OW 2683   1.968   1.587   2.871  0.0281 -0.0241 -0.4617
  895SOL    HW1 2684   1.989   1.520   2.805 -0.7084  1.2631  3.8481
  895SOL    HW2 2685   1.915   1.545   2.949  2.4465 -2.0586 -0.8123
  896SOL     OW 2686   1.939   0.675   1.522 -0.3877 -0.1989 -0.0208
  896SOL    HW1 2687   2.032   0.709   1.498  1.8823  0.0968 -0.2705
  896SOL    HW2 2688   1.867   0.744   1.508 -0.0461  0.3481 -0.8257
  897SOL     OW 2689   3.089   1.447   1.413  0.0743  0.5923  0.1809
  897SOL    HW1 2690   3.053   1.537   1.376 -0.8456 -0.9724  2.4810
  897SOL    HW2 2691   0.051   1.414   1.341  1.0712 -0.8538 -0.5450
  898SOL     OW 2692   1.937   2.418   2.058 -0.3595  0.2596  0.6766
  898SOL    HW1 2693   1.842   2.457   2.065 -1.3324 -1.5371 -1.2195
  898SOL    HW2 2694   1.933   2.316   2.029 -1.9998 -2.1684 -2.7665
  899SOL     OW 2695   0.961   1.637   1.112 -0.1729 -0.5537 -0.5672
  899SOL    HW1 2696   1.009   1.722   1.130 -1.1645  0.8030 -2.7474
  899SOL    HW2 2697   0.869   1.663   1.073 -0.7552 -0.4840  1.7239
  900SOL     OW 2698   1.266   2.443   2.467 -0.3219 -0.2674  0.4493
  900SOL    HW1 2699   1.317   2.373   2.523 -0.9016  0.5336  0.9792
  900SOL    HW2 2700   1.329   2.502   2.417 -1.3002 -0.2065 -2.0690
  901SOL     OW 2701   0.530   1.787   2.172  0.3398  0.2210  0.1173
  901SOL    HW1 2702   0.513   1.871   2.230 -3.3021  1.1316  3.3515
  901SOL    HW2 2703   0.626   1.776   2.148 -1.4532  0.5975  1.9905
  902SOL     OW 2704   2.156   1.206   2.987  0.5632  0.2817 -0.0451
  902SOL    HW1 2705   2.088   1.155   3.038  0.8040 -0.1922 -3.3851
  902SOL    HW2 2706   2.244   1.222   3.038 -2.4934 -0.1816 -1.4559
  903SOL     OW 2707   2.110   1.524   0.058 -0.4450 -0.2260 -0.5009
  903SOL    HW1 2708   2.145   1.609   0.017 -0.6460  0.6830 -2.0848
  903SOL    HW2 2709   2.023   1.500   0.019 -0.1958  3.1955  1.1876
  904SOL     OW 2710   1.326   1.196   2.216  0.5904  0.0705 -0.0552
  904SOL    HW1 2711   1.372   1.116   2.168  0.5321  0.3345 -0.4119
  904SOL    HW2 2712   1.228   1.201   2.178  0.0997  0.7586 -1.4415
  905SOL     OW 2713   2.523   0.458   1.013 -0.1558  0.5389  0.1366
  905SOL    HW1 2714   2.542   0.376   0.956 -2.3270  0.1204  0.3723
  905SOL    HW2 2715   2.476   0.535   0.966 -0.5674 -1.7726 -0.9964
  906SOL     OW 2716   0.344   1.863   0.429  0.6138 -0.1912 -0.3762
  906SOL    HW1 2717   0.251   1.887   0.406  2.6912 -0.3506 -0.4326
  906SOL    HW2 2718   0.366   1.780   0.386  0.6785  1.9523 -1.7178
  907SOL     OW 2719   1.498   2.912   0.231 -1.1611  0.1408  0.1746
  907SOL    HW1 2720   1.500   2.864   0.317  1.1138  1.2809 -0.6894
  907SOL    HW2 2721   1.504   3.013   0.243 -0.8606 -1.2190  0.6530
  908SOL     OW 2722   1.565   2.652   1.815  0.3757 -0.8455  0.0062
  908SOL    HW1 2723   1.552   2.548   1.806  3.2527 -3.5167  2.7386
  908SOL    HW2 2724   1.479   2.701   1.840  1.5940  0.1334  0.1844
  909SOL     OW 2725   2.522   0.675   1.757  1.5373  0.7260 -0.0213
  909SOL    HW1 2726   2.506   0.598   1.822 -0.9773 -3.2840  0.2856
  909SOL    HW2 2727   2.432   0.688   1.709 -0.6201  0.3497 -0.7707
  910SOL     OW 2728   1.304   3.057   2.705  0.3171  0.3259  0.2532
  910SOL    HW1 2729   1.341   0.048   2.673 -1.6141 -3.1035  0.0808
  910SOL    HW2 2730   1.301   2.991   2.626 -1.1366 -1.9107 -1.5748
  911SOL     OW 2731   2.426   1.570   2.527  0.1911 -0.1833  0.4909
  911SOL    HW1 2732   2.405   1.647   2.472 -1.1395 -0.7086  2.3544
  911SOL    HW2 2733   2.425   1.489   2.464 -1.7013 -0.8063 -2.2161
  912SOL     OW 2734   2.314   2.256   1.505 -0.0767 -0.6207 -0.1758
  912SOL    HW1 2735   2.357   2.344   1.497 -0.2268 -2.4169 -1.6669
  912SOL    HW2 2736   2.251   2.246   1.586  0.5762  1.1051  2.2034
  913SOL     OW 2737   2.411   2.462   1.799  0.6372  0.5625 -0.4530
  913SOL    HW1 2738   2.458   2.548   1.803 -0.9872 -2.9017 -0.1096
  913SOL    HW2 2739   2.335   2.470   1.731  0.2120  0.4964  0.2038
  914SOL     OW 2740   2.304   2.017   1.343  0.7903 -0.1151 -0.0653
  914SOL    HW1 2741   2.310   2.094   1.405  2.3468 -2.5799  0.4805
  914SOL    HW2 2742   2.205   1.985   1.328 -1.4189 -0.6955 -1.2598
  915SOL     OW 2743   1.176   2.462   1.534  0.0897  0.4104  0.1868
  915SOL    HW1 2744   1.127   2.438   1.622  1.7409  1.5374 -0.8984
  915SOL    HW2 2745   1.265   2.412   1.532  0.1201  1.3153 -0.5976
  916SOL     OW 2746   0.004   2.436   0.987 -0.2574  0.0674 -0.3141
  916SOL    HW1 2747   0.013   2.504   0.912  2.1753 -0.9957 -1.3172
  916SOL    HW2 2748   0.029   2.474   1.079  1.1412 -0.4038  0.3797
  917SOL     OW 2749   2.850   1.049   2.926 -0.3414 -0.4454 -0.4351
  917SOL    HW1 2750   2.754   1.011   2.921  1.5978 -0.1259 -0.0869
  917SOL    HW2 2751   2.851   1.141   2.887 -0.3776 -2.7212  1.0924
  918SOL     OW 2752   1.808   1.799   2.759 -0.3342  0.2462 -0.0894
  918SOL    HW1 2753   1.842   1.861   2.829  0.6294 -1.2917 -0.5535
  918SOL    HW2 2754   1.863   1.715   2.763  0.6289 -1.9792 -0.3744
  919SOL     OW 2755   1.470   2.185   1.280 -0.4817  0.6952 -0.4328
  919SOL    HW1 2756   1.467   2.128   1.196 -0.6560  0.0990  1.1062
  919SOL    HW2 2757   1.552   2.156   1.342  3.3588 -0.2452  1.1994
  920SOL     OW 2758   0.884   0.565   2.716  0.3298  0.0757  0.0456
  920SOL    HW1 2759   0.964   0.500   2.719 -2.1181  1.4845 -1.9166
  920SOL    HW2 2760   0.912   0.654   2.752  1.2841 -3.3683 -0.2235
  921SOL     OW 2761   2.974   2.857   2.602 -0.1399  0.7742 -0.4779
  921SOL    HW1 2762   2.957   2.927   2.532  1.3990  0.3133  1.5649
  921SOL    HW2 2763   3.059   2.876   2.652  0.3226 -0.8539  0.4550
  922SOL     OW 2764   2.431   1.872   1.730 -0.0064 -0.0719  0.1170
  922SOL    HW1 2765   2.528   1.855   1.710  1.8391  1.1195  2.0045
  922SOL    HW2 2766   2.426   1.945   1.801 -0.3754  0.1355  0.3209
  923SOL     OW 2767   0.681   1.959   2.802 -0.7204 -0.4544  0.3144
  923SOL    HW1 2768   0.611   1.933   2.871 -1.6856  0.4081  2.6016
  923SOL    HW2 2769   0.683   2.058   2.791  0.9526  1.5966  2.2815
  924SOL     OW 2770   1.663   0.736   2.585  0.7274  0.2568 -0.1889
  924SOL    HW1 2771   1.723   0.794   2.641 -0.6344 -1.3655 -0.8224
  924SOL    HW2 2772   1.695   0.709   2.493  2.2924 -0.6899  0.5530
  925SOL     OW 2773   2.933   0.858   0.324 -0.1296  0.4987  0.0589
  925SOL    HW1 2774   2.952   0.875   0.226  1.2098 -1.4668  1.1673
  925SOL    HW2 2775   2.979   0.931   0.385  0.2210  1.5012  1.8041
  926SOL     OW 2776   3.033   0.275   0.687 -0.1673  0.2912  0.0178
  926SOL    HW1 2777   0.024   0.231   0.716  0.3037  2.2506  2.0382
  926SOL    HW2 2778   3.053   0.350   0.625 -0.7028 -2.3000  0.3929
  927SOL     OW 2779   1.277   1.288   0.648  0.2255 -0.2138 -0.5221
  927SOL    HW1 2780   1.314   1.267   0.550  1.3096  2.0344 -3.1541
  927SOL    HW2 2781   1.218   1.212   0.682 -1.6765  0.8064  1.4634
  928SOL     OW 2782   0.063   3.065   2.237 -0.3085  0.3957  0.1359
  928SOL    HW1 2783   0.147   3.012   2.269 -1.5275  3.5088  1.0301
  928SOL    HW2 2784   0.077   0.071   2.241  2.6591 -0.5472 -0.1845
  929SOL     OW 2785   2.568   0.759   1.361  0.2810 -0.4585  0.2369
  929SOL    HW1 2786   2.557   0.822   1.441  1.1559  4.1393  1.5692
  929SOL    HW2 2787   2.622   0.676   1.383 -0.5950 -1.4954  2.0031
  930SOL     OW 2788   1.877   2.121   0.939 -0.0048 -0.0467  0.4810
  930SOL    HW1 2789   1.866   2.084   0.845 -0.7070  1.2931  0.7339
  930SOL    HW2 2790   1.836   2.064   1.009 -1.2016 -0.2412  0.0977
  931SOL     OW 2791   1.912   0.686   1.038 -0.1737  0.3031  0.5697
  931SOL    HW1 2792   1.888   0.773   0.987 -0.4423 -0.1652 -0.5027
  931SOL    HW2 2793   1.995   0.700   1.092 -2.6475  0.8548  2.4159
  932SOL     OW 2794   0.111   0.762   1.229  0.4814  0.8471 -0.4595
  932SOL    HW1 2795   0.043   0.779   1.306 -1.8421  2.2154 -4.7727
  932SOL    HW2 2796   0.173   0.689   1.259 -1.2285  2.3867 -2.0381
  933SOL     OW 2797   1.865   1.713   2.111 -0.1100  0.1589  0.1116
  933SOL    HW1 2798   1.839   1.641   2.039  0.2377  0.4344 -1.8173
  933SOL    HW2 2799   1.946   1.686   2.161 -1.4629 -0.2233 -0.4994
  934SOL     OW 2800   1.472   2.948   1.100 -0.3342 -0.1310  0.1571
  934SOL    HW1 2801   1.533   3.004   1.035  0.7764 -1.3478  1.0446
  934SOL    HW2 2802   1.386   2.931   1.051 -2.1320  1.1554  2.3125
  935SOL     OW 2803   0.035   1.117   1.208 -0.1432  0.0693 -0.3766
  935SOL    HW1 2804   3.049   1.145   1.259  3.2097 -0.3656 -0.3927
  935SOL    HW2 2805   0.012   1.104   1.108 -1.0103  2.7688  1.6376
  936SOL     OW 2806   3.013   0.733   1.040 -0.3192  0.4228 -0.3538
  936SOL    HW1 2807   3.096   0.746   1.100 -1.7997 -0.8860  1.0631
  936SOL    HW2 2808   2.947   0.662   1.078 -1.2866  0.1575 -1.1836
  937SOL     OW 2809   1.085   2.870   0.838 -0.1100  0.2418  0.7954
  937SOL    HW1 2810   1.023   2.787   0.843 -1.3066  0.6441 -4.6188
  937SOL    HW2 2811   1.182   2.842   0.825 -4.5591  0.2988  1.3602
  938SOL     OW 2812   2.911   2.222   0.691 -0.3299 -0.4871  0.3385
  938SOL    HW1 2813   2.874   2.234   0.783 -2.7638 -3.5542  3.3415
  938SOL    HW2 2814   2.902   2.307   0.637 -1.5304  0.1368 -0.5822
  939SOL     OW 2815   0.516   1.621   2.668 -0.0856 -0.3263 -0.2871
  939SOL    HW1 2816   0.461   1.678   2.728  2.0192 -0.5969 -0.8883
  939SOL    HW2 2817   0.614   1.632   2.700  0.9019  1.8505 -2.0179
  940SOL     OW 2818   2.799   2.556   2.524 -0.1985  0.2142  0.1271
  940SOL    HW1 2819   2.725   2.505   2.477  0.9078  0.2906 -1.5147
  940SOL    HW2 2820   2.823   2.638   2.470  3.4764 -0.4937 -1.9042
  941SOL     OW 2821   1.313   0.230   3.065  0.3797  0.4901  0.1820
  941SOL    HW1 2822   1.407   0.214   3.033 -1.1680 -1.0583  1.4231
  941SOL    HW2 2823   1.308   0.225   0.070  0.5513 -1.4552 -2.2146
  942SOL     OW 2824   1.551   1.758   1.463 -0.3573 -0.0271  0.1853
  942SOL    HW1 2825   1.511   1.676   1.423  1.0700 -0.3004 -1.0432
  942SOL    HW2 2826   1.500   1.842   1.436  0.7494  0.0200  0.3925
  943SOL     OW 2827   2.145   1.472   1.624 -0.3497  0.3463  0.3227
  943SOL    HW1 2828   2.085   1.427   1.556 -0.0014 -2.8564  1.3237
  943SOL    HW2 2829   2.240   1.481   1.596  2.5497  0.6708  2.2741
  944SOL     OW 2830   1.764   0.986   1.960  0.0693  0.2730  0.1873
  944SOL    HW1 2831   1.795   0.983   1.859 -0.2012  0.7039 -1.4885
  944SOL    HW2 2832   1.787   1.074   2.005  0.7234  2.3703 -1.4332
  945SOL     OW 2833   2.686   2.556   1.421  0.0220 -0.2527 -0.2076
  945SOL    HW1 2834   2.738   2.503   1.347  1.1641 -1.6255 -4.4964
  945SOL    HW2 2835   2.734   2.556   1.514  0.7795  1.6630 -0.8235
  946SOL     OW 2836   0.826   0.946   1.527 -0.1336 -0.0716 -0.3219
  946SOL    HW1 2837   0.808   1.035   1.575 -0.1820  1.4069 -0.6782
  946SOL    HW2 2838   0.926   0.931   1.513  0.6449  0.6719 -1.5636
  947SOL     OW 2839   0.449   2.530   0.961 -0.3761 -0.5862  0.5386
  947SOL    HW1 2840   0.398   2.611   0.998  0.3978  1.7880 -1.1966
  947SOL    HW2 2841   0.394   2.483   0.889  0.9812  0.2555  1.1616
  948SOL     OW 2842   3.034   1.311   1.777  0.2452 -0.4609  0.3332
  948SOL    HW1 2843   3.059   1.281   1.872 -0.1030  1.5655  3.4605
  948SOL    HW2 2844   3.094   1.389   1.741  2.0629  0.1325 -2.1719
  949SOL     OW 2845   0.713   0.422   1.925  0.1303  0.0810  0.2485
  949SOL    HW1 2846   0.758   0.383   2.005 -2.8193  1.4272 -2.8532
  949SOL    HW2 2847   0.624   0.463   1.937  2.1508  0.5111 -0.8272
  950SOL     OW 2848   0.547   0.514   0.941  0.3356  0.5318  0.5959
  950SOL    HW1 2849   0.558   0.613   0.956  0.0050  2.1109 -4.0360
  950SOL    HW2 2850   0.468   0.499   0.880  1.3519 -0.3632 -0.0509
  951SOL     OW 2851   1.167   1.906   2.159 -0.2038 -0.0192  0.1170
  951SOL    HW1 2852   1.145   1.933   2.256  2.2323  0.4033 -0.2145
  951SOL    HW2 2853   1.182   1.988   2.096  0.8668  2.5271 -1.0557
  952SOL     OW 2854   1.173   1.295   2.780 -0.3853 -0.1719  0.0399
  952SOL    HW1 2855   1.245   1.305   2.853  0.0064  0.2286 -2.0877
  952SOL    HW2 2856   1.208   1.262   2.691 -2.8105 -2.1271  0.5212
  953SOL     OW 2857   0.994   2.920   2.313 -0.0874 -0.0356 -0.5592
  953SOL    HW1 2858   1.016   2.861   2.232 -1.9051 -0.1047  2.1271
  953SOL    HW2 2859   0.896   2.936   2.321  0.4747 -0.7689  1.4157
  954SOL     OW 2860   2.202   1.555   0.708 -0.3918  0.5294 -0.3322
  954SOL    HW1 2861   2.249   1.633   0.662 -0.3232 -1.1378  0.2617
  954SOL    HW2 2862   2.098   1.566   0.706 -2.0623  1.0335  0.4240
  955SOL     OW 2863   0.040   2.279   2.742 -0.6575 -0.0496  0.4032
  955SOL    HW1 2864   0.017   2.365   2.683 -0.9925  1.4906 -1.0493
  955SOL    HW2 2865   0.043   2.306   2.843  2.1624  0.2012  2.6995
  956SOL     OW 2866   0.922   1.319   1.465 -0.3625 -0.0481  1.0274
  956SOL    HW1 2867   1.000   1.272   1.417  1.0042  0.1078 -0.6999
  956SOL    HW2 2868   0.867   1.375   1.396 -2.0596  1.7814  0.2674
  957SOL     OW 2869   1.981   1.532   2.525 -0.2299  0.5581 -0.1894
  957SOL    HW1 2870   2.023   1.552   2.434 -1.4045  0.9645 -1.5807
  957SOL    HW2 2871   1.972   1.433   2.547 -0.8979  0.3346  0.0652
  958SOL     OW 2872   1.344   2.618   1.114  0.1311  0.6049 -0.3732
  958SOL    HW1 2873   1.447   2.601   1.121  4.7658 -0.6351 -0.8055
  958SOL    HW2 2874   1.309   2.672   1.195  0.0143  3.4396  2.9115
  959SOL     OW 2875   1.437   1.808   2.238  0.1474 -0.1200  0.1953
  959SOL    HW1 2876   1.511   1.870   2.205 -0.2845  1.3414 -1.6216
  959SOL    HW2 2877   1.351   1.852   2.216 -0.0934 -1.4042 -1.3838
  960SOL     OW 2878   0.033   0.770   2.731  0.0189  0.2511  0.2495
  960SOL    HW1 2879   0.061   0.858   2.769 -2.2507 -3.1035 -0.2037
  960SOL    HW2 2880   3.087   0.785   2.640 -1.9914 -0.4475  1.6086
  961SOL     OW 2881   0.623   0.719   1.851  0.1332  0.2938  0.1495
  961SOL    HW1 2882   0.707   0.729   1.906  0.1434  1.0944 -1.0909
  961SOL    HW2 2883   0.542   0.678   1.903 -0.2428  3.5928  0.1447
  962SOL     OW 2884   1.469   1.569   0.290 -0.5008 -0.1649  0.1383
  962SOL    HW1 2885   1.377   1.565   0.331  0.2701 -0.7886  1.8133
  962SOL    HW2 2886   1.529   1.493   0.320 -2.0258 -1.0483 -0.3936
  963SOL     OW 2887   1.274   2.311   2.897  0.0006  0.1477  0.1613
  963SOL    HW1 2888   1.360   2.288   2.839  2.0759  0.2823 -3.0476
  963SOL    HW2 2889   1.297   2.381   2.960 -0.0923  0.6455 -2.1803
  964SOL     OW 2890   1.000   2.539   0.546 -0.0650  0.2513 -0.4573
  964SOL    HW1 2891   0.981   2.495   0.458  1.5527  1.8421  1.6886
  964SOL    HW2 2892   0.960   2.635   0.551  2.8204  2.4274  0.2144
  965SOL     OW 2893   0.930   2.644   0.875  0.0512  0.0802 -0.1133
  965SOL    HW1 2894   0.899   2.677   0.967 -2.1233  2.0923  1.0375
  965SOL    HW2 2895   0.855   2.602   0.820 -0.4782 -2.8751 -0.9682
  966SOL     OW 2896   0.058   1.231   3.010 -0.0808  0.8193 -0.0004
  966SOL    HW1 2897   0.108   1.293   2.945  2.7984 -1.0153 -1.1566
  966SOL    HW2 2898   3.051   1.245   2.998 -0.9954  0.9889  0.6918
  967SOL     OW 2899   1.330   2.761   1.888  0.4718  0.4716  0.4617
  967SOL    HW1 2900   1.244   2.803   1.853 -1.0607 -0.5184  2.2134
  967SOL    HW2 2901   1.317   2.714   1.978  3.8899  0.3895 -0.9376
  968SOL     OW 2902   1.915   0.753   0.453 -0.1996 -0.0079 -0.3760
  968SOL    HW1 2903   1.848   0.828   0.438  0.9767  0.1676 -0.5461
  968SOL    HW2 2904   1.879   0.683   0.517 -1.4186  1.4460 -0.5417
  969SOL     OW 2905   0.115   1.719   2.035 -0.3906  0.5212  0.5774
  969SOL    HW1 2906   0.036   1.739   1.970 -2.0964 -0.3342  1.8803
  969SOL    HW2 2907   0.178   1.798   2.026 -0.2916  1.0325  2.6144
  970SOL     OW 2908   2.410   1.482   1.577 -0.7938 -0.0937 -0.0656
  970SOL    HW1 2909   2.477   1.427   1.517  1.6999 -0.5592 -0.1207
  970SOL    HW2 2910   2.434   1.463   1.673 -1.9779 -0.7809 -2.9217
  971SOL     OW 2911   1.444   0.732   1.618 -0.1787  0.4659  0.0682
  971SOL    HW1 2912   1.470   0.699   1.711 -1.9874 -0.2196  0.1328
  971SOL    HW2 2913   1.398   0.824   1.619  1.1264 -0.5264 -0.6186
  972SOL     OW 2914   0.458   0.012   2.399  0.2555  0.1056 -0.3077
  972SOL    HW1 2915   0.517   3.046   2.454  0.4056 -0.7890 -0.4086
  972SOL    HW2 2916   0.386   0.062   2.455 -3.8517  1.3560  1.7092
  973SOL     OW 2917   2.731   1.253   0.336 -0.6548 -0.1147 -0.0075
  973SOL    HW1 2918   2.694   1.167   0.296 -1.6703  1.6832  0.3385
  973SOL    HW2 2919   2.695   1.263   0.430 -0.5874 -0.2152 -2.4042
  974SOL     OW 2920   1.997   1.188   2.125 -0.1722  0.0889 -0.0603
  974SOL    HW1 2921   2.021   1.229   2.036 -2.1205 -0.0537 -0.7081
  974SOL    HW2 2922   1.965   1.265   2.185 -1.3332  0.1533  0.6184
  975SOL     OW 2923   2.943   2.486   0.581  0.6035 -0.1056  0.0233
  975SOL    HW1 2924   2.885   2.561   0.537  0.1013  1.7182 -0.4922
  975SOL    HW2 2925   2.984   2.515   0.668 -2.0085  2.1359 -1.1145
  976SOL     OW 2926   3.042   1.804   1.812 -0.2886 -0.2902 -0.2959
  976SOL    HW1 2927   3.074   1.786   1.721  3.1941 -0.4180  0.3398
  976SOL    HW2 2928   2.955   1.854   1.813 -0.8317  1.0914 -0.0969
  977SOL     OW 2929   0.616   2.548   3.038 -0.6481  0.6325  0.0433
  977SOL    HW1 2930   0.663   2.598   2.960 -1.7716 -1.1857 -6.0215
  977SOL    HW2 2931   0.596   2.457   3.009  0.5186  3.1930  1.0509
  978SOL     OW 2932   0.726   1.908   2.538  0.0991  0.7138 -0.0214
  978SOL    HW1 2933   0.638   1.927   2.486 -0.7755 -1.2763 -0.0813
  978SOL    HW2 2934   0.714   1.916   2.635  1.0656  0.9894 -0.2349
  979SOL     OW 2935   1.287   2.351   1.118  0.3798 -0.7079 -0.0029
  979SOL    HW1 2936   1.311   2.450   1.094  0.0280  2.0816 -0.3900
  979SOL    HW2 2937   1.358   2.302   1.169 -0.2091  2.2515 -2.5396
  980SOL     OW 2938   0.507   1.414   2.967 -0.9695 -0.6323 -0.4524
  980SOL    HW1 2939   0.475   1.390   2.869 -4.3843  1.9229  0.9716
  980SOL    HW2 2940   0.609   1.431   2.972 -0.6266  1.6858  0.5211
  981SOL     OW 2941   2.692   0.198   2.529 -0.4768  0.1584 -0.1918
  981SOL    HW1 2942   2.681   0.149   2.442 -0.8853 -1.0176 -1.6213
  981SOL    HW2 2943   2.726   0.142   2.608 -0.7467  0.3655  0.2431
  982SOL     OW 2944   3.059   2.505   2.615 -0.3818  0.9372 -0.1164
  982SOL    HW1 2945   0.041   2.548   2.561 -0.0803 -0.1577 -0.3069
  982SOL    HW2 2946   2.969   2.536   2.579  0.6946 -2.4464 -0.5989
  983SOL     OW 2947   2.207   0.914   1.899  0.2577 -0.4347 -0.4215
  983SOL    HW1 2948   2.277   0.981   1.929  0.5643 -0.9041  0.3344
  983SOL    HW2 2949   2.238   0.818   1.908  0.9123  0.0174  0.3149
  984SOL     OW 2950   1.329   0.052   2.237  0.6054 -0.0515 -0.6057
  984SOL    HW1 2951   1.396   0.126   2.234 -0.4774 -1.0550 -0.2186
  984SOL    HW2 2952   1.247   0.076   2.289  1.2738 -4.0365 -1.0052
  985SOL     OW 2953   1.513   2.104   2.496  0.1558  0.1606 -0.0196
  985SOL    HW1 2954   1.602   2.129   2.464 -4.4373 -0.5747 -0.6829
  985SOL    HW2 2955   1.512   2.005   2.521 -3.0615 -3.0665  0.7936
  986SOL     OW 2956   2.082   0.417   2.213  0.1522  0.1924 -0.1830
  986SOL    HW1 2957   2.085   0.476   2.299  1.5320 -0.0789  0.3044
  986SOL    HW2 2958   2.018   0.463   2.152  1.3330 -1.0981 -1.0546
  987SOL     OW 2959   2.335   0.393   2.142 -0.5993  0.1455 -0.2917
  987SOL    HW1 2960   2.239   0.405   2.179  0.0948 -0.0718 -0.5952
  987SOL    HW2 2961   2.363   0.295   2.138  0.4133  1.8913  0.9250
  988SOL     OW 2962   2.495   0.698   2.729  0.1020 -1.1541  0.4871
  988SOL    HW1 2963   2.476   0.634   2.804 -2.8408 -1.1372 -0.1771
  988SOL    HW2 2964   2.563   0.660   2.662  0.9507 -0.4817 -1.6516
  989SOL     OW 2965   2.493   2.376   2.547  0.7743  0.1154  0.1700
  989SOL    HW1 2966   2.412   2.428   2.514 -2.4599  0.0257 -1.5110
  989SOL    HW2 2967   2.552   2.350   2.469  1.5478  2.1095 -1.9866
  990SOL     OW 2968   0.277   0.531   0.031 -0.0796  0.3728  0.4670
  990SOL    HW1 2969   0.260   0.515   0.131 -0.2144  0.0632 -0.5489
  990SOL    HW2 2970   0.238   0.617   0.000 -1.7707 -1.8412  2.3454
  991SOL     OW 2971   0.680   0.579   2.892  0.2055 -0.3382 -0.0004
  991SOL    HW1 2972   0.637   0.498   2.934 -0.2874 -2.6434  0.7119
  991SOL    HW2 2973   0.752   0.547   2.819  3.0490  2.4297  2.1918
  992SOL     OW 2974   2.907   2.235   2.154 -0.2178  0.5087 -0.4942
  992SOL    HW1 2975   2.949   2.252   2.240 -0.3616 -0.4464 -2.4115
  992SOL    HW2 2976   2.922   2.309   2.087 -1.5793 -1.6419 -2.0141
  993SOL     OW 2977   0.612   2.803   0.564 -0.9322 -0.2398  0.2188
  993SOL    HW1 2978   0.628   2.866   0.483 -1.1182  0.6593  0.1111
  993SOL    HW2 2979   0.626   2.852   0.655  0.8608 -0.0107  1.0189
  994SOL     OW 2980   0.242   2.013   1.656  0.0797  0.3866 -0.2325
  994SOL    HW1 2981   0.328   1.984   1.695 -0.3805 -1.7259 -1.2768
  994SOL    HW2 2982   0.254   2.043   1.557 -1.4503  3.0582 -2.2202
  995SOL     OW 2983   2.386   1.838   0.321 -0.8401 -0.1479 -0.0473
  995SOL    HW1 2984   2.434   1.930   0.321  1.9511  2.0960  1.0692
  995SOL    HW2 2985   2.319   1.827   0.245 -1.3136  0.2688  3.3256
  996SOL     OW 2986   1.488   1.420   2.721  0.5303  0.0162 -0.2867
  996SOL    HW1 2987   1.425   1.362   2.664 -3.5682 -0.8022  1.7012
  996SOL    HW2 2988   1.564   1.463   2.670 -0.9222 -2.9454  1.6905
  997SOL     OW 2989   1.828   1.549   1.877 -0.2890 -0.0015  0.8072
  997SOL    HW1 2990   1.781   1.620   1.822  0.4491  1.3440  3.8453
  997SOL    HW2 2991   1.800   1.454   1.847  0.1394  2.4740 -0.5371
  998SOL     OW 2992   2.861   1.630   0.474 -0.3094  0.2653 -0.9145
  998SOL    HW1 2993   2.811   1.585   0.550  0.7232  0.8817  0.0660
  998SOL    HW2 2994   2.804   1.698   0.420 -0.9416 -1.3596 -2.1675
  999SOL     OW 2995   2.548   2.718   0.378 -0.3904 -0.0114 -0.4519
  999SOL    HW1 2996   2.471   2.651   0.402  0.0935 -0.8823 -1.4719
  999SOL    HW2 2997   2.633   2.702   0.429 -1.4923  1.2743 -1.0310
 1000SOL     OW 2998   0.618   2.870   2.085  0.0094  0.0544  0.2277
 1000SOL    HW1 2999   0.688   2.906   2.019  1.4587 -0.9178 -0.7187
 1000SOL    HW2 3000   0.530   2.882   2.036 -0.7786  1.7683 -1.2724
   3.09658   3.09658   3.09658
