977 TIP4P/2005f water molecules t=   0.37000 step= 370
 3908
    1SOL     OW    1   0.285   0.771   0.046 -0.2881 -0.0633 -0.3553
    1SOL    HW1    2   0.281   0.806  -0.047 -1.8321 -1.4031 -1.2159
    1SOL    HW2    3   0.257   0.681   0.032  1.1893  0.9502  1.4018
    1SOL     MW    4   0.281   0.763   0.032 -0.2969 -0.1064 -0.2370
    2SOL     OW    5   0.293   3.052   1.176 -0.0516  0.0110  0.3070
    2SOL    HW1    6   0.339   3.127   1.133  0.9840 -3.6360  0.1176
    2SOL    HW2    7   0.200   3.077   1.162 -0.1834 -0.7311  0.7454
    2SOL     MW    8   0.287   3.065   1.168  0.0676 -0.5681  0.3399
    3SOL     OW    9   2.684   0.384   0.901  0.6016 -0.2429  0.2575
    3SOL    HW1   10   2.697   0.462   0.843 -1.0430  0.6794 -1.6550
    3SOL    HW2   11   2.664   0.427   0.978 -0.5194  0.9090 -4.2458
    3SOL     MW   12   2.683   0.400   0.903  0.2367  0.0307 -0.5890
    4SOL     OW   13   3.061   1.779   0.561  0.2210 -0.8274 -0.5947
    4SOL    HW1   14   2.987   1.837   0.530 -2.7009  2.9803  0.4072
    4SOL    HW2   15   3.092   1.719   0.494  0.0324 -2.1105 -0.7744
    4SOL     MW   16   3.055   1.779   0.548 -0.1894 -0.4943 -0.4862
    5SOL     OW   17   1.703   1.434   0.565  0.3065  0.3926  0.4488
    5SOL    HW1   18   1.747   1.403   0.642  0.4012  1.0683  2.9374
    5SOL    HW2   19   1.617   1.422   0.592  2.3146 -0.2717  0.1939
    5SOL     MW   20   1.698   1.428   0.579  0.5840  0.3941  0.7435
    6SOL     OW   21   0.872   1.396   0.627  0.4473  0.2988  0.2038
    6SOL    HW1   22   0.790   1.410   0.668  0.6549  1.2645  1.6127
    6SOL    HW2   23   0.898   1.311   0.667 -1.3366  1.1114  0.1042
    6SOL     MW   24   0.865   1.386   0.638  0.2393  0.5334  0.3765
    7SOL     OW   25   1.990   1.056   0.041 -0.0836  0.1250 -0.0450
    7SOL    HW1   26   2.030   1.095  -0.032  1.2220  0.2690  2.3778
    7SOL    HW2   27   2.027   1.098   0.119  0.2585  2.7876  0.5636
    7SOL     MW   28   2.000   1.067   0.041  0.1338  0.4953  0.3549
    8SOL     OW   29   0.987   1.337   1.019 -0.4780  0.3586 -0.0154
    8SOL    HW1   30   1.052   1.309   1.082 -1.4457  3.0540  1.0526
    8SOL    HW2   31   0.950   1.259   0.967  2.4360 -3.6041 -2.6192
    8SOL     MW   32   0.991   1.323   1.020 -0.2212  0.1914 -0.2180
    9SOL     OW   33   1.046   0.455   1.350  0.4109 -0.1512 -0.3583
    9SOL    HW1   34   0.983   0.393   1.313 -1.6664 -0.0349  0.8613
    9SOL    HW2   35   1.068   0.423   1.438  0.8197 -2.2165 -0.7650
    9SOL     MW   36   1.040   0.443   1.357  0.1908 -0.4084 -0.2511
   10SOL     OW   37   0.307   0.782   0.449 -0.3281 -0.3544 -0.3891
   10SOL    HW1   38   0.405   0.820   0.437 -1.2383  0.1940  1.7368
   10SOL    HW2   39   0.278   0.817   0.533 -0.2879  0.5656 -1.2407
   10SOL     MW   40   0.316   0.792   0.458 -0.4429 -0.1607 -0.2209
   11SOL     OW   41   0.831   1.083   1.604 -0.9724  0.0014 -0.0703
   11SOL    HW1   42   0.849   1.095   1.698  1.1344  0.5897  0.9092
   11SOL    HW2   43   0.774   0.999   1.603 -3.0867  1.8660 -1.4142
   11SOL     MW   44   0.826   1.073   1.617 -0.9734  0.3251 -0.1184
   12SOL     OW   45   0.019   1.134   0.839  0.0173 -0.7241  0.4444
   12SOL    HW1   46   0.031   1.214   0.898  2.2460  0.0652 -0.1459
   12SOL    HW2   47  -0.047   1.139   0.768 -0.1603 -2.0713  1.1713
   12SOL     MW   48   0.012   1.145   0.837  0.2879 -0.7977  0.4624
   13SOL     OW   49   1.882   1.411   1.362 -0.4330 -0.1764 -0.1960
   13SOL    HW1   50   1.915   1.360   1.286  0.5388 -0.6933  0.1196
   13SOL    HW2   51   1.878   1.498   1.338 -0.0255 -3.5378  1.2922
   13SOL     MW   52   1.886   1.416   1.349 -0.2510 -0.6881  0.0420
   14SOL     OW   53   0.613   0.311   1.803 -0.0938 -0.6097 -0.4141
   14SOL    HW1   54   0.595   0.240   1.742  2.3051 -0.7304 -0.9860
   14SOL    HW2   55   0.696   0.282   1.839  1.1135 -1.7475  0.0485
   14SOL     MW   56   0.621   0.298   1.799  0.3820 -0.7758 -0.4285
   15SOL     OW   57   2.015   0.541   0.957  0.1672 -0.1526  0.1899
   15SOL    HW1   58   2.016   0.531   1.055 -0.1054 -2.0991 -0.2813
   15SOL    HW2   59   2.090   0.484   0.929  1.0955  1.0997 -0.4565
   15SOL     MW   60   2.025   0.532   0.966  0.2537 -0.2442  0.0424
   16SOL     OW   61   0.203   1.752   0.337 -0.2633 -0.0476 -0.0563
   16SOL    HW1   62   0.297   1.735   0.339 -0.6051  0.0600  2.4279
   16SOL    HW2   63   0.215   1.849   0.367  0.1579 -0.7165  0.5922
   16SOL     MW   64   0.217   1.763   0.341 -0.2528 -0.1216  0.3571
   17SOL     OW   65   1.042   0.811   1.494 -0.6810  0.0685  0.3628
   17SOL    HW1   66   1.095   0.831   1.577 -2.5362  2.0475  0.2819
   17SOL    HW2   67   0.953   0.791   1.524  2.3430  1.5053  1.3180
   17SOL     MW   68   1.037   0.811   1.509 -0.5268  0.5192  0.4781
   18SOL     OW   69   0.067   1.551   0.436  0.7190  0.0701  0.6272
   18SOL    HW1   70   0.109   1.604   0.368 -2.9942 -1.1816  2.1229
   18SOL    HW2   71   0.024   1.475   0.392 -0.7258 -0.5512  1.3349
   18SOL     MW   72   0.067   1.548   0.421  0.0385 -0.1770  0.9179
   19SOL     OW   73   0.107   1.346   1.041 -0.1195  0.2456 -0.1720
   19SOL    HW1   74   0.151   1.384   0.970  1.9385 -0.1716  2.9207
   19SOL    HW2   75   0.014   1.371   1.039  1.0479  2.0063 -0.3485
   19SOL     MW   76   0.100   1.354   1.032  0.3061  0.4229  0.2128
   20SOL     OW   77   0.462   2.119   1.294 -0.0880 -0.0899 -0.1899
   20SOL    HW1   78   0.399   2.046   1.259  0.2676 -1.1763  0.1375
   20SOL    HW2   79   0.406   2.176   1.352 -0.4876  0.6561  1.0451
   20SOL     MW   80   0.446   2.117   1.297 -0.0938 -0.1348  0.0162
   21SOL     OW   81   0.545   0.890   0.347 -0.3797  0.0629  0.2159
   21SOL    HW1   82   0.605   0.855   0.411 -0.7986  2.6262 -0.5290
   21SOL    HW2   83   0.559   0.843   0.263  1.5260 -0.7859 -0.2768
   21SOL     MW   84   0.555   0.879   0.344 -0.1836  0.2891  0.0526
   22SOL     OW   85   1.527   0.579   1.126 -0.0805  0.1168 -0.0951
   22SOL    HW1   86   1.589   0.563   1.053 -0.8195  2.8472  2.5932
   22SOL    HW2   87   1.460   0.631   1.085  0.4307  1.1152 -3.4097
   22SOL     MW   88   1.527   0.584   1.111 -0.1106  0.6088 -0.1777
   23SOL     OW   89   3.052   0.744   0.725  0.3608  0.5784 -0.4051
   23SOL    HW1   90   3.100   0.660   0.740 -3.6395 -1.7213 -2.4491
   23SOL    HW2   91   3.126   0.804   0.728 -2.2421  0.6143  0.0076
   23SOL     MW   92   3.068   0.741   0.727 -0.5105  0.2797 -0.6204
   24SOL     OW   93   2.010   2.193   0.038 -0.8203  0.2779  0.3802
   24SOL    HW1   94   2.003   2.189   0.137  1.2826  0.2858  0.2647
   24SOL    HW2   95   2.089   2.144   0.018  1.0121 -1.0796  0.5271
   24SOL     MW   96   2.019   2.186   0.049 -0.3011  0.0998  0.3844
   25SOL     OW   97   0.285   1.407   0.517  0.2571  0.1144 -0.3458
   25SOL    HW1   98   0.216   1.477   0.491  0.9551  3.9884 -2.0758
   25SOL    HW2   99   0.349   1.413   0.451  2.3575 -0.2449 -0.1593
   25SOL     MW  100   0.285   1.417   0.505  0.6263  0.5782 -0.5494
   26SOL     OW  101   2.046   0.929   0.437 -0.5630 -0.2849  0.3186
   26SOL    HW1  102   1.955   0.970   0.454 -2.0174  4.4852  0.1201
   26SOL    HW2  103   2.083   0.986   0.365  1.6952  0.5049  2.3844
   26SOL     MW  104   2.039   0.942   0.430 -0.4570  0.4487  0.5649
   27SOL     OW  105   1.989   1.386   0.266  0.2440 -0.1990  0.2855
   27SOL    HW1  106   1.901   1.353   0.289 -0.5599  0.8998  2.1689
   27SOL    HW2  107   1.996   1.471   0.312 -2.0440  0.6777  2.0726
   27SOL     MW  108   1.979   1.393   0.275 -0.1639  0.0617  0.7698
   28SOL     OW  109   0.392   1.012   1.910 -0.6767  0.8880 -0.1368
   28SOL    HW1  110   0.365   0.942   1.974  2.5281  2.0371  5.6592
   28SOL    HW2  111   0.444   1.072   1.958  0.0400 -1.6702 -0.9872
   28SOL     MW  112   0.395   1.011   1.925 -0.1593  0.7021  0.5157
   29SOL     OW  113   0.243   1.420   0.820  0.1394 -0.2466 -0.1763
   29SOL    HW1  114   0.238   1.518   0.832 -1.0141 -0.6529 -0.8299
   29SOL    HW2  115   0.228   1.403   0.727 -2.0624 -2.2385 -2.5492
   29SOL     MW  116   0.240   1.431   0.809 -0.3033 -0.5630 -0.5756
   30SOL     OW  117   0.893   1.040   1.163 -0.1703 -0.0078  0.8564
   30SOL    HW1  118   0.829   1.087   1.222  1.4854  0.5647  0.5079
   30SOL    HW2  119   0.970   1.043   1.218 -0.5581 -0.0845 -0.7884
   30SOL     MW  120   0.895   1.046   1.178 -0.0031  0.0576  0.5934
   31SOL     OW  121   0.445   0.276   0.237 -0.4543  0.1275 -0.3415
   31SOL    HW1  122   0.461   0.200   0.302 -1.8307  0.1968 -1.5162
   31SOL    HW2  123   0.419   0.242   0.153 -2.0166 -0.4384 -1.2364
   31SOL     MW  124   0.444   0.261   0.234 -0.8421  0.0619 -0.6146
   32SOL     OW  125   2.721   1.054   1.091  0.6755 -0.5517  0.0338
   32SOL    HW1  126   2.687   0.964   1.115 -1.2468 -0.9780  0.6073
   32SOL    HW2  127   2.818   1.038   1.083  1.1567  0.8283  0.0241
   32SOL     MW  128   2.729   1.040   1.093  0.4854 -0.4259  0.1082
   33SOL     OW  129   1.738   1.289   0.331  0.2528  0.6791  0.2599
   33SOL    HW1  130   1.750   1.199   0.355 -0.3131  1.1449  0.7618
   33SOL    HW2  131   1.741   1.341   0.411 -1.9947 -1.1773  1.1495
   33SOL     MW  132   1.740   1.284   0.345 -0.1184  0.4956  0.4435
   34SOL     OW  133   1.224   1.842   1.098 -0.5650  0.2042 -0.7520
   34SOL    HW1  134   1.138   1.861   1.128  1.6608  1.9607 -3.2829
   34SOL    HW2  135   1.289   1.874   1.171  2.1149 -0.1280  2.3435
   34SOL     MW  136   1.221   1.849   1.112  0.0823  0.3922 -0.6775
   35SOL     OW  137   0.331   0.103   1.827 -0.2542  0.1440 -0.7357
   35SOL    HW1  138   0.394   0.078   1.894 -0.2298 -0.2350 -4.3367
   35SOL    HW2  139   0.355   0.038   1.757 -0.1159  2.8034  0.5205
   35SOL     MW  140   0.343   0.091   1.827 -0.2327  0.4448 -1.0451
   36SOL     OW  141   1.875   1.973   0.556 -0.2775  0.3414 -0.7890
   36SOL    HW1  142   1.897   1.986   0.462  0.7924 -2.3983 -2.0393
   36SOL    HW2  143   1.890   1.879   0.572  0.0996 -0.9566 -0.0068
   36SOL     MW  144   1.880   1.962   0.546 -0.0866 -0.1914 -0.8508
   37SOL     OW  145   1.725   2.057   0.967 -0.0554  0.3699 -0.0532
   37SOL    HW1  146   1.678   1.993   0.919  1.2358 -2.5889  2.6359
   37SOL    HW2  147   1.675   2.066   1.057 -4.2747 -0.1377  1.8400
   37SOL     MW  148   1.712   2.049   0.973 -0.4417 -0.0875  0.5514
   38SOL     OW  149   2.844   0.945   0.187 -0.1517 -0.3113 -0.2780
   38SOL    HW1  150   2.876   0.954   0.274 -0.1754 -0.9778  1.4731
   38SOL    HW2  151   2.913   0.893   0.145 -1.9678 -0.2268  0.5797
   38SOL     MW  152   2.857   0.939   0.193 -0.3945 -0.3881  0.0662
   39SOL     OW  153   1.469   0.674   0.808  0.1364 -0.3710 -0.4315
   39SOL    HW1  154   1.439   0.582   0.806  0.8625 -0.4616  1.8871
   39SOL    HW2  155   1.425   0.713   0.885 -1.1593  0.8034 -0.2917
   39SOL     MW  156   1.459   0.667   0.818  0.0613 -0.2280 -0.1072
   40SOL     OW  157   1.275   1.864   0.259 -0.1666 -0.1171  0.0707
   40SOL    HW1  158   1.302   1.785   0.305 -0.3985 -0.3530 -2.9439
   40SOL    HW2  159   1.247   1.920   0.330  0.9554 -0.4730 -0.1424
   40SOL     MW  160   1.275   1.861   0.275 -0.0491 -0.1952 -0.3552
   41SOL     OW  161   0.590   0.541   1.589 -0.0857 -0.5510  0.1031
   41SOL    HW1  162   0.677   0.555   1.563 -0.6233  0.8214  0.5707
   41SOL    HW2  163   0.604   0.486   1.667 -0.7270  0.0451 -0.5059
   41SOL     MW  164   0.603   0.535   1.596 -0.2412 -0.2912  0.0844
   42SOL     OW  165   1.300   3.065   1.968 -0.0603 -1.0987  0.7948
   42SOL    HW1  166   1.213   3.036   2.001 -3.4592  0.4537  0.2267
   42SOL    HW2  167   1.360   2.994   1.990 -0.1590  1.2279  0.0353
   42SOL     MW  168   1.297   3.052   1.975 -0.5218 -0.5869  0.6196
   43SOL     OW  169   1.596   0.215   1.655  0.0913 -0.0253  0.3660
   43SOL    HW1  170   1.656   0.172   1.591  3.0232 -1.8312  1.8801
   43SOL    HW2  171   1.531   0.145   1.674 -2.4271 -3.5646  1.3202
   43SOL     MW  172   1.596   0.200   1.649  0.1459 -0.7305  0.6917
   44SOL     OW  173   1.316   0.754   1.089 -0.0038 -0.2291 -0.4696
   44SOL    HW1  174   1.300   0.846   1.072 -2.2981 -0.8700 -1.4645
   44SOL    HW2  175   1.282   0.728   1.176  0.3106 -1.0085  0.0043
   44SOL     MW  176   1.309   0.763   1.098 -0.2650 -0.4165 -0.5384
   45SOL     OW  177   1.150   0.693   0.770  0.6172  0.5740  0.6910
   45SOL    HW1  178   1.093   0.678   0.842  2.5360 -1.5465  1.3178
   45SOL    HW2  179   1.139   0.609   0.710 -1.2775 -0.9701 -1.0528
   45SOL     MW  180   1.141   0.680   0.772  0.6204  0.0905  0.5436
   46SOL     OW  181   0.569   1.149   0.543 -0.3815 -0.0136 -0.2913
   46SOL    HW1  182   0.567   1.164   0.449 -1.6381 -0.5828  2.0460
   46SOL    HW2  183   0.665   1.137   0.561  1.8204  0.1584 -1.0198
   46SOL     MW  184   0.581   1.149   0.533 -0.2567 -0.0660 -0.0790
   47SOL     OW  185   0.156   1.932   1.834  0.4803 -0.0801 -0.6770
   47SOL    HW1  186   0.198   1.870   1.775 -0.7984  2.1278  0.9324
   47SOL    HW2  187   0.161   1.889   1.921 -0.2334 -0.8227 -1.4778
   47SOL     MW  188   0.162   1.918   1.838  0.2174  0.1132 -0.5703
   48SOL     OW  189   1.056   0.647   1.015 -0.0881 -0.2494 -0.1873
   48SOL    HW1  190   1.033   0.683   1.101  0.5420  1.8613  0.7763
   48SOL    HW2  191   1.156   0.663   1.023  1.8481  0.6140 -0.1749
   48SOL     MW  192   1.066   0.654   1.027  0.2505  0.1430 -0.0585
   49SOL     OW  193   1.854   0.750   1.608 -1.3504  0.2552  0.4801
   49SOL    HW1  194   1.822   0.732   1.692  2.1216  1.0885 -0.4621
   49SOL    HW2  195   1.906   0.677   1.574 -2.1250  2.6402 -1.0944
   49SOL     MW  196   1.856   0.738   1.614 -0.9945  0.6798  0.1480
   50SOL     OW  197   1.250   1.003   0.506 -0.5544  0.4176 -0.6010
   50SOL    HW1  198   1.234   1.033   0.604  0.7123 -2.0831  0.8323
   50SOL    HW2  199   1.309   0.931   0.506  1.4755 -0.5563 -2.2884
   50SOL     MW  200   1.256   0.997   0.519 -0.1194 -0.0408 -0.6345
   51SOL     OW  201   0.353   2.849   0.980 -0.6138  0.3810  0.3242
   51SOL    HW1  202   0.445   2.833   0.980 -1.3250 -0.8263  3.0408
   51SOL    HW2  203   0.337   2.918   1.048  0.4452 -0.9763 -0.8868
   51SOL     MW  204   0.363   2.856   0.989 -0.5679  0.0426  0.5229
   52SOL     OW  205   0.825   1.772   0.394 -0.3726 -0.3487  0.2888
   52SOL    HW1  206   0.805   1.853   0.436  1.8366  1.1084 -0.7733
   52SOL    HW2  207   0.813   1.797   0.303 -0.7855  0.2506 -1.5342
   52SOL     MW  208   0.821   1.786   0.387 -0.1356 -0.0774 -0.0919
   53SOL     OW  209   0.471   2.068   0.571  0.4553  0.0777 -0.1727
   53SOL    HW1  210   0.423   2.047   0.483 -0.5850 -0.2485  3.7210
   53SOL    HW2  211   0.462   2.160   0.558  0.4589  2.0642 -1.1393
   53SOL     MW  212   0.464   2.077   0.558  0.3185  0.2967  0.2135
   54SOL     OW  213   2.190   0.816   0.908 -0.4991  0.0879 -0.7410
   54SOL    HW1  214   2.217   0.734   0.867  1.2501  1.4142 -0.9306
   54SOL    HW2  215   2.120   0.846   0.850  3.1171  0.6651 -2.5043
   54SOL     MW  216   2.185   0.809   0.895  0.2089  0.3390 -0.9987
   55SOL     OW  217   0.544   1.484   1.562  0.4484  0.0003  0.4124
   55SOL    HW1  218   0.504   1.540   1.495 -0.8727 -0.6244  1.9654
   55SOL    HW2  219   0.635   1.458   1.536  0.7027 -1.9802 -0.8129
   55SOL     MW  220   0.550   1.488   1.549  0.3077 -0.3434  0.4557
   56SOL     OW  221   0.597   0.767   0.093  0.1947 -0.0303 -0.4793
   56SOL    HW1  222   0.627   0.842   0.049 -1.1158 -1.3013 -0.2985
   56SOL    HW2  223   0.516   0.744   0.055 -0.0452  2.2320  0.6225
   56SOL     MW  224   0.590   0.774   0.082 -0.0099  0.1005 -0.3101
   57SOL     OW  225   1.255   1.238   1.193 -0.0709  0.2086  0.7523
   57SOL    HW1  226   1.338   1.273   1.162 -0.2658  0.7015 -0.0885
   57SOL    HW2  227   1.280   1.201   1.279  1.7686  3.3605 -1.2942
   57SOL     MW  228   1.269   1.238   1.200  0.1461  0.6895  0.3714
   58SOL     OW  229   0.677   1.115   1.313 -0.3067  0.1501  0.1942
   58SOL    HW1  230   0.635   1.194   1.288 -1.2937 -2.7930  0.5136
   58SOL    HW2  231   0.632   1.078   1.389 -1.4719 -0.2704  0.8976
   58SOL     MW  232   0.665   1.120   1.320 -0.5907 -0.2937  0.3291
   59SOL     OW  233   1.570   1.636   0.312  0.3807 -0.2293  0.4115
   59SOL    HW1  234   1.628   1.586   0.368  3.5504 -0.3628  0.3549
   59SOL    HW2  235   1.489   1.649   0.366  1.4608  3.0458 -0.8529
   59SOL     MW  236   1.567   1.631   0.326  0.9414  0.1852  0.2372
   60SOL     OW  237   3.078   0.167   1.661 -0.0622  1.0681  0.2530
   60SOL    HW1  238   2.989   0.197   1.684  0.7380  1.6913  1.7536
   60SOL    HW2  239   3.074   0.074   1.649  2.0794  0.5459 -0.3166
   60SOL     MW  240   3.065   0.158   1.662  0.3260  1.0815  0.3758
   61SOL     OW  241   1.972   1.490   3.086 -0.0999 -0.2607 -0.4723
   61SOL    HW1  242   1.989   1.469   3.176 -0.0289 -1.4249 -1.6265
   61SOL    HW2  243   2.014   1.410   3.044 -0.9204 -0.7773  0.0529
   61SOL     MW  244   1.980   1.477   3.092 -0.1988 -0.4825 -0.5553
   62SOL     OW  245   0.606   1.620   0.575  0.4421  0.1880  0.3364
   62SOL    HW1  246   0.665   1.586   0.495  1.4039  0.3595 -2.0635
   62SOL    HW2  247   0.597   1.544   0.633  2.6399  3.3526 -0.1221
   62SOL     MW  248   0.612   1.606   0.572  0.8590  0.6281 -0.0408
   63SOL     OW  249   1.700   0.740   0.662 -0.2467  0.0967  0.2880
   63SOL    HW1  250   1.655   0.789   0.594 -0.7579  2.4165  0.3580
   63SOL    HW2  251   1.632   0.718   0.727 -1.6120 -2.9553 -0.5015
   63SOL     MW  252   1.685   0.744   0.662 -0.4943  0.0001  0.1931
   64SOL     OW  253   0.249   1.678   0.904  0.2367 -0.0252 -1.2075
   64SOL    HW1  254   0.322   1.728   0.852 -0.7710  2.4738 -0.2495
   64SOL    HW2  255   0.171   1.725   0.877  2.0475  1.6635  0.2432
   64SOL     MW  256   0.248   1.691   0.894  0.3426  0.5273 -0.8897
   65SOL     OW  257   1.545   2.290   0.326  0.2456  0.2315 -0.0922
   65SOL    HW1  258   1.616   2.228   0.299  2.2813 -0.6016  2.8350
   65SOL    HW2  259   1.578   2.363   0.391  3.5116  3.0364  0.2846
   65SOL     MW  260   1.558   2.292   0.331  0.9451  0.4917  0.3437
   66SOL     OW  261   0.319   0.527   0.525  0.5154  0.2242 -0.5247
   66SOL    HW1  262   0.397   0.486   0.480  0.0500 -1.6119  0.0017
   66SOL    HW2  263   0.322   0.624   0.511  1.4427  0.6902  2.4096
   66SOL     MW  264   0.330   0.534   0.517  0.5763  0.0434 -0.0681
   67SOL     OW  265   1.536   0.123   2.031 -0.2445 -0.2469  0.0235
   67SOL    HW1  266   1.578   0.160   1.952  1.0214 -1.2098  0.0693
   67SOL    HW2  267   1.454   0.088   2.011  2.4724  1.5136  1.6782
   67SOL     MW  268   1.531   0.123   2.018  0.2810 -0.1417  0.2479
   68SOL     OW  269   0.625   0.066   2.938  0.0471 -0.4516 -0.0514
   68SOL    HW1  270   0.590   0.052   2.851 -0.7092  0.8050  0.7114
   68SOL    HW2  271   0.630   0.159   2.944  1.3599  1.1043  0.1699
   68SOL     MW  272   0.621   0.076   2.927  0.1205 -0.0805  0.0784
   69SOL     OW  273   1.017   0.202   1.948 -0.0484  0.1975 -0.1378
   69SOL    HW1  274   1.075   0.227   2.019 -2.1047  0.5737 -0.0472
   69SOL    HW2  275   0.990   0.112   1.974  2.8564  0.2623  0.4780
   69SOL     MW  276   1.021   0.193   1.961  0.0636  0.2557 -0.0446
   70SOL     OW  277   0.571   1.844   1.134 -0.3513  0.2474 -0.1760
   70SOL    HW1  278   0.554   1.765   1.085  0.6819 -0.6437 -2.0163
   70SOL    HW2  279   0.653   1.864   1.099  0.8039 -1.3032  0.5200
   70SOL     MW  280   0.580   1.836   1.123 -0.0626 -0.0748 -0.3270
   71SOL     OW  281   1.748   0.670   1.251  0.5193 -0.3598  0.4463
   71SOL    HW1  282   1.714   0.644   1.337 -1.5337  0.0050  1.4729
   71SOL    HW2  283   1.677   0.636   1.196  0.9825 -3.9177 -1.5824
   71SOL     MW  284   1.734   0.662   1.255  0.3095 -0.7811  0.3141
   72SOL     OW  285   0.841   1.784   0.970 -0.1551 -0.4945 -0.0514
   72SOL    HW1  286   0.798   1.830   0.894  1.2470 -0.7069 -0.2775
   72SOL    HW2  287   0.815   1.692   0.964 -0.0085  1.4711 -0.2391
   72SOL     MW  288   0.832   1.778   0.959  0.0492 -0.2632 -0.1060
   73SOL     OW  289   1.240   0.666   1.362 -0.0462  0.6227  0.2271
   73SOL    HW1  290   1.184   0.587   1.355  1.1458 -0.2426 -0.8102
   73SOL    HW2  291   1.185   0.727   1.411 -0.2818 -1.7748  1.6524
   73SOL     MW  292   1.225   0.663   1.367  0.0800  0.1922  0.2783
   74SOL     OW  293   2.813   0.167   0.990  0.7488  0.5999 -0.0231
   74SOL    HW1  294   2.797   0.117   0.912  2.5474 -0.2909 -2.0384
   74SOL    HW2  295   2.774   0.255   0.969 -2.0343 -0.4823 -1.3636
   74SOL     MW  296   2.806   0.172   0.977  0.6189  0.3395 -0.4659
   75SOL     OW  297   1.588   1.329   0.097  0.0056  0.2836  0.6175
   75SOL    HW1  298   1.630   1.347   0.182 -0.5689  1.2811 -1.1764
   75SOL    HW2  299   1.615   1.239   0.078  0.3053  1.5287 -0.4790
   75SOL     MW  300   1.597   1.319   0.106 -0.0307  0.5795  0.2362
   76SOL     OW  301   2.955   0.658   0.471  0.1410  0.2061  0.4026
   76SOL    HW1  302   2.986   0.681   0.562  1.8362 -1.8092 -0.3013
   76SOL    HW2  303   3.020   0.598   0.431  0.4970 -0.4839  0.0328
   76SOL     MW  304   2.967   0.653   0.478  0.4116 -0.1508  0.2609
   77SOL     OW  305   0.870   0.448   0.481 -0.5903  0.3927 -0.6151
   77SOL    HW1  306   0.788   0.480   0.444 -1.0560  0.6177 -0.3248
   77SOL    HW2  307   0.857   0.350   0.496 -1.0947  1.5739 -1.3933
   77SOL     MW  308   0.857   0.440   0.478 -0.7183  0.5782 -0.6794
   78SOL     OW  309   0.770   0.769   1.194 -0.2454  0.5895 -0.0947
   78SOL    HW1  310   0.685   0.755   1.155  1.4566 -0.7166  2.6863
   78SOL    HW2  311   0.782   0.866   1.205  1.1441  0.5054 -0.4182
   78SOL     MW  312   0.760   0.780   1.190  0.1625  0.4060  0.2295
   79SOL     OW  313   1.940   1.703   0.613  0.4591  0.5291  0.4460
   79SOL    HW1  314   1.866   1.653   0.566  1.8944 -1.7547 -0.1289
   79SOL    HW2  315   1.911   1.699   0.707 -1.2377 -1.6957  1.2004
   79SOL     MW  316   1.926   1.696   0.619  0.4246 -0.0658  0.4697
   80SOL     OW  317   0.156   1.022   0.330  0.6533  0.3253  0.6503
   80SOL    HW1  318   0.074   0.974   0.364 -0.4811 -1.7967  1.9349
   80SOL    HW2  319   0.222   0.952   0.331  0.4065  1.6174 -0.4549
   80SOL     MW  320   0.154   1.006   0.335  0.4711  0.2158  0.6739
   81SOL     OW  321   1.886   1.892   0.230  0.0693  0.1293  0.4830
   81SOL    HW1  322   1.831   1.835   0.170  0.5244 -0.8104  1.2363
   81SOL    HW2  323   1.834   1.978   0.230  0.6331  1.0671  2.8773
   81SOL     MW  324   1.872   1.896   0.222  0.2038  0.1290  0.8983
   82SOL     OW  325   0.809   1.022   0.560  0.3021  0.8179 -0.0988
   82SOL    HW1  326   0.852   1.047   0.480 -1.4766 -2.3219 -0.7504
   82SOL    HW2  327   0.776   0.927   0.547  1.7863  0.1230  0.9465
   82SOL     MW  328   0.810   1.013   0.548  0.2633  0.3119 -0.0468
   83SOL     OW  329   0.146   0.613   1.358  0.3282  0.0745 -0.4387
   83SOL    HW1  330   0.125   0.709   1.377 -1.7241  0.3801 -1.2538
   83SOL    HW2  331   0.210   0.592   1.427  2.0747 -1.7988  1.7211
   83SOL     MW  332   0.152   0.623   1.369  0.2879 -0.1323 -0.2612
   84SOL     OW  333   0.093   0.270   0.988  0.1458 -0.0523 -0.7347
   84SOL    HW1  334   0.011   0.291   0.943 -1.1562 -0.3315  0.2867
   84SOL    HW2  335   0.072   0.184   1.030  3.5180 -0.7534 -0.9820
   84SOL     MW  336   0.080   0.262   0.988  0.4189 -0.1816 -0.6326
   85SOL     OW  337   0.418   0.442   0.757  0.5693  0.0565  0.5326
   85SOL    HW1  338   0.366   0.472   0.690 -0.4929 -3.2769  2.6156
   85SOL    HW2  339   0.389   0.355   0.760  1.0566  2.1439 -1.5082
   85SOL     MW  340   0.407   0.434   0.748  0.4934 -0.1079  0.5382
   86SOL     OW  341   1.201   0.429   1.119 -0.2069 -0.3861  0.1933
   86SOL    HW1  342   1.124   0.459   1.072  1.7126 -1.3702  0.7331
   86SOL    HW2  343   1.163   0.437   1.210 -0.1643 -0.8919  0.7498
   86SOL     MW  344   1.186   0.434   1.125  0.0520 -0.5827  0.3380
   87SOL     OW  345   1.215   1.500   1.235 -0.0739 -0.2067  0.0651
   87SOL    HW1  346   1.233   1.547   1.150 -0.4801 -0.1630  0.0604
   87SOL    HW2  347   1.218   1.410   1.212 -2.1999  0.7691 -0.3836
   87SOL     MW  348   1.218   1.494   1.221 -0.4080 -0.0722  0.0053
   88SOL     OW  349   1.308   1.004   1.008 -0.6465 -0.3120  0.0646
   88SOL    HW1  350   1.403   1.009   1.033  0.3000  0.0913 -2.5740
   88SOL    HW2  351   1.267   1.077   1.056 -0.8984 -2.2726  1.3640
   88SOL     MW  352   1.315   1.014   1.018 -0.5549 -0.5174 -0.1121
   89SOL     OW  353   1.738   0.651   0.350 -0.3965  0.0206  0.3529
   89SOL    HW1  354   1.790   0.593   0.409 -0.2651 -0.7695 -1.6417
   89SOL    HW2  355   1.805   0.690   0.291 -0.4912 -0.2508 -1.1013
   89SOL     MW  356   1.754   0.648   0.350 -0.3916 -0.1195 -0.1021
   90SOL     OW  357   0.691   1.223   2.792 -0.7307  0.0654  0.0689
   90SOL    HW1  358   0.726   1.140   2.824  0.1419  1.4868  4.9033
   90SOL    HW2  359   0.679   1.266   2.884 -2.4234 -0.3383  1.3580
   90SOL     MW  360   0.694   1.218   2.809 -0.8389  0.1997  0.8768
   91SOL     OW  361   2.106   0.666   0.554  0.1362  0.1564  0.4036
   91SOL    HW1  362   2.075   0.741   0.496  2.1657  0.3944  1.5721
   91SOL    HW2  363   2.155   0.611   0.494  3.7912 -0.8709  2.1483
   91SOL     MW  364   2.109   0.669   0.538  0.8862  0.0522  0.7880
   92SOL     OW  365   1.561   0.860   0.433  0.1661  0.2473  0.1153
   92SOL    HW1  366   1.492   0.817   0.488 -2.2059  1.0021  1.8896
   92SOL    HW2  367   1.607   0.791   0.386 -0.0747  1.3467  2.7033
   92SOL     MW  368   1.558   0.845   0.434 -0.1787  0.4919  0.6909
   93SOL     OW  369   1.059   0.299   0.333 -0.3398  0.6282  0.4254
   93SOL    HW1  370   0.982   0.355   0.341  0.0468 -0.1151 -3.1185
   93SOL    HW2  371   1.092   0.314   0.245 -0.5667  2.2365 -1.3167
   93SOL     MW  372   1.053   0.308   0.322 -0.3187  0.7424 -0.2720
   94SOL     OW  373   1.908   1.312   1.652 -0.0078  0.5804 -0.2419
   94SOL    HW1  374   1.933   1.321   1.561  0.5373 -2.0551 -3.5991
   94SOL    HW2  375   1.885   1.220   1.670 -2.5709 -2.2079 -0.0313
   94SOL     MW  376   1.909   1.301   1.642 -0.2741 -0.1352 -0.6570
   95SOL     OW  377   0.791   1.523   0.960 -0.4546 -0.0490 -0.5177
   95SOL    HW1  378   0.855   1.456   0.974 -2.1649 -3.9788  1.3479
   95SOL    HW2  379   0.756   1.520   1.054 -0.6565 -0.1154  0.6231
   95SOL     MW  380   0.795   1.514   0.975 -0.7069 -0.5763 -0.1210
   96SOL     OW  381   1.244   1.805   1.594  0.2162 -0.1861 -0.3485
   96SOL    HW1  382   1.149   1.794   1.567 -4.0745  2.1390 -2.4168
   96SOL    HW2  383   1.286   1.763   1.521 -0.2740 -0.0579 -0.7364
   96SOL     MW  384   1.237   1.798   1.581 -0.4146  0.1376 -0.6726
   97SOL     OW  385   1.222   1.409   0.807 -0.0378 -0.2815 -0.5924
   97SOL    HW1  386   1.262   1.450   0.885  1.5846  2.8092  0.6270
   97SOL    HW2  387   1.157   1.474   0.791  1.9396 -1.9230 -1.1907
   97SOL     MW  388   1.218   1.423   0.815  0.4372 -0.0903 -0.5104
   98SOL     OW  389   1.514   1.326   1.118 -0.1489  0.5078 -0.4301
   98SOL    HW1  390   1.560   1.379   1.186  0.4532  0.7638 -1.6564
   98SOL    HW2  391   1.547   1.353   1.031 -0.9817  1.1639  0.3473
   98SOL     MW  392   1.525   1.337   1.116 -0.1793  0.6281 -0.4893
   99SOL     OW  393   1.519   0.324   1.288  0.0320  0.2673 -0.2909
   99SOL    HW1  394   1.518   0.400   1.232 -0.6642  2.8489 -1.9603
   99SOL    HW2  395   1.504   0.370   1.372 -1.6671 -1.1759  0.1120
   99SOL     MW  396   1.517   0.340   1.292 -0.2840  0.4175 -0.4580
  100SOL     OW  397   1.034   1.081   1.421 -0.2236 -0.1513  0.3978
  100SOL    HW1  398   0.959   1.102   1.475  0.2303 -1.1417  0.3333
  100SOL    HW2  399   1.039   0.986   1.443  1.5744 -0.0955 -0.5228
  100SOL     MW  400   1.025   1.071   1.431  0.0735 -0.2746  0.2678
  101SOL     OW  401   0.619   1.142   0.264 -0.5033 -0.3409 -0.2484
  101SOL    HW1  402   0.604   1.048   0.293  0.7030 -0.7046 -0.6463
  101SOL    HW2  403   0.559   1.149   0.186 -0.7365 -2.1772 -2.6307
  101SOL     MW  404   0.609   1.130   0.258 -0.3749 -0.6312 -0.6152
  102SOL     OW  405   2.949   0.589   0.999 -0.1773 -0.2324  0.2371
  102SOL    HW1  406   2.997   0.663   0.977  0.7159  0.9239  0.0746
  102SOL    HW2  407   3.001   0.550   1.067 -1.5587  2.0093 -0.7737
  102SOL     MW  408   2.962   0.594   1.005 -0.2417  0.2160  0.0823
  103SOL     OW  409   1.629   0.382   1.863  0.4827  0.1579  0.0948
  103SOL    HW1  410   1.620   0.315   1.787  0.9251  0.0379  0.5827
  103SOL    HW2  411   1.719   0.367   1.885 -1.9317  1.7485 -0.5875
  103SOL     MW  412   1.640   0.372   1.856  0.2225  0.3519  0.0692
  104SOL     OW  413   0.178   1.863   1.401  0.3514  0.0624  0.2816
  104SOL    HW1  414   0.248   1.807   1.374 -0.2674 -2.9068 -1.4011
  104SOL    HW2  415   0.100   1.824   1.349  1.3864  0.3403 -1.1537
  104SOL     MW  416   0.177   1.851   1.391  0.4063 -0.2927 -0.1298
  105SOL     OW  417   0.173   1.167   0.561 -0.3552  0.1109  0.1331
  105SOL    HW1  418   0.182   1.124   0.477  0.1536  1.7178 -0.6793
  105SOL    HW2  419   0.213   1.259   0.545  0.3268 -0.1849 -3.0438
  105SOL     MW  420   0.179   1.174   0.548 -0.1981  0.2839 -0.3933
  106SOL     OW  421   0.845   0.321   0.943 -0.8337 -0.2195  0.1908
  106SOL    HW1  422   0.786   0.388   0.911  0.1496  0.0325  1.4643
  106SOL    HW2  423   0.927   0.343   0.898 -2.0241  0.7976 -0.3067
  106SOL     MW  424   0.848   0.333   0.933 -0.8610 -0.0521  0.2932
  107SOL     OW  425   0.821   2.180   3.009  0.5091 -0.2896 -0.4298
  107SOL    HW1  426   0.788   2.090   3.006 -1.6327  2.0573  0.7644
  107SOL    HW2  427   0.906   2.170   3.051  0.0365 -0.8755 -1.5513
  107SOL     MW  428   0.828   2.167   3.014  0.1641 -0.0572 -0.4202
  108SOL     OW  429   1.372   1.618   1.422 -0.4438  0.5054 -0.0898
  108SOL    HW1  430   1.345   1.599   1.333 -1.9649  2.1086 -0.4890
  108SOL    HW2  431   1.332   1.564   1.480  3.5840 -0.6554  0.7765
  108SOL     MW  432   1.363   1.608   1.418 -0.1131  0.5638 -0.0282
  109SOL     OW  433   1.949   0.775   0.188  0.4036  0.3898 -0.4076
  109SOL    HW1  434   1.970   0.691   0.140 -1.5398 -3.1483 -0.8918
  109SOL    HW2  435   2.030   0.800   0.236  0.6667  0.5351 -3.2064
  109SOL     MW  436   1.963   0.767   0.188  0.1819 -0.0578 -0.8408
  110SOL     OW  437   0.428   1.811   0.712  0.3256  0.0085  0.3313
  110SOL    HW1  438   0.488   1.745   0.676  1.6172 -0.6523 -0.5314
  110SOL    HW2  439   0.423   1.879   0.637  1.6902 -1.8252 -2.8938
  110SOL     MW  440   0.435   1.811   0.697  0.6760 -0.3206 -0.2080
  111SOL     OW  441   0.730   0.845   1.510 -0.0713 -0.2270 -0.1742
  111SOL    HW1  442   0.754   0.805   1.425  0.3214 -1.2244  1.2596
  111SOL    HW2  443   0.646   0.812   1.539  0.2980 -1.1150 -0.8840
  111SOL     MW  444   0.722   0.835   1.503  0.0292 -0.4758 -0.0787
  112SOL     OW  445   1.333   1.071   1.724  0.3560 -0.2675  0.6805
  112SOL    HW1  446   1.262   1.134   1.741  3.1171  0.0670  0.9657
  112SOL    HW2  447   1.285   0.991   1.721  0.7954  0.9527 -1.7825
  112SOL     MW  448   1.317   1.069   1.726  0.7783 -0.0624  0.3932
  113SOL     OW  449   1.369   0.036   1.711 -0.3911 -0.9011  0.0922
  113SOL    HW1  450   1.343   0.012   1.804  0.1739 -1.0987  1.2929
  113SOL    HW2  451   1.345  -0.034   1.649  3.5697 -0.1820 -0.5572
  113SOL     MW  452   1.362   0.023   1.715  0.2061 -0.8323  0.1650
  114SOL     OW  453   0.494   2.823   1.845  0.7252  0.2313  0.6379
  114SOL    HW1  454   0.466   2.886   1.914  1.1319  1.2921  0.6009
  114SOL    HW2  455   0.453   2.861   1.769 -0.9476 -1.5285  0.3798
  114SOL     MW  456   0.484   2.836   1.844  0.5581  0.1391  0.5990
  115SOL     OW  457   0.455   0.833   1.129 -0.2415  0.7032  0.2911
  115SOL    HW1  458   0.474   0.743   1.138 -0.4769  0.2176 -0.8959
  115SOL    HW2  459   0.416   0.870   1.214  0.4109 -1.2436  1.7976
  115SOL     MW  460   0.452   0.826   1.142 -0.1865  0.3822  0.3332
  116SOL     OW  461   0.753   1.035   0.908  0.1235  0.6010  0.0114
  116SOL    HW1  462   0.811   1.083   0.854 -1.3101  0.6689 -0.7328
  116SOL    HW2  463   0.781   1.035   0.998 -1.9109  1.6932  1.9067
  116SOL     MW  464   0.764   1.042   0.913 -0.3341  0.7541  0.1632
  117SOL     OW  465   1.220   1.121   0.744 -0.0854  0.2222  0.3879
  117SOL    HW1  466   1.231   1.056   0.812 -0.4553  1.8104 -1.5306
  117SOL    HW2  467   1.266   1.202   0.778 -0.1302 -0.4039  0.5565
  117SOL     MW  468   1.227   1.123   0.757 -0.1401  0.3492  0.1570
  118SOL     OW  469   3.053   2.998   1.705  0.0849 -0.5408  0.7706
  118SOL    HW1  470   3.082   3.050   1.781 -0.2194  3.8531 -0.1329
  118SOL    HW2  471   2.956   2.994   1.708  2.7836 -0.0059 -0.2030
  118SOL     MW  472   3.044   3.004   1.715  0.4008  0.1095  0.5229
  119SOL     OW  473   0.532   1.322   1.200  0.2908  0.2753 -0.1180
  119SOL    HW1  474   0.526   1.351   1.111 -1.0716 -1.5246  0.6570
  119SOL    HW2  475   0.439   1.298   1.221 -2.8814  0.3071 -0.9051
  119SOL     MW  476   0.519   1.323   1.191 -0.3075  0.0420 -0.1196
  120SOL     OW  477   0.204   0.693   0.926 -0.2483  0.1734  0.2316
  120SOL    HW1  478   0.236   0.639   0.998 -0.8218  0.3142 -0.8725
  120SOL    HW2  479   0.228   0.786   0.946  2.2429  0.5281 -1.1158
  120SOL     MW  480   0.211   0.698   0.938  0.0047  0.2388 -0.0919
  121SOL     OW  481   1.827   1.049   1.711  0.4168  0.2090 -0.0369
  121SOL    HW1  482   1.731   1.042   1.739 -0.6399  2.6037  0.8651
  121SOL    HW2  483   1.851   0.984   1.647 -0.5261  1.7920  1.4085
  121SOL     MW  484   1.818   1.039   1.706  0.1530  0.7338  0.2728
  122SOL     OW  485   0.109   0.508   0.760  0.6668 -0.2777  0.0623
  122SOL    HW1  486   0.179   0.469   0.710  0.3963  0.8453 -0.3658
  122SOL    HW2  487   0.151   0.569   0.819 -1.1469  0.5777 -0.6917
  122SOL     MW  488   0.124   0.511   0.761  0.3918 -0.0166 -0.0937
  123SOL     OW  489   1.790   1.029   0.462  0.1474  0.2521 -0.5538
  123SOL    HW1  490   1.738   0.951   0.441  2.0536 -0.1401 -0.4056
  123SOL    HW2  491   1.798   1.027   0.562 -0.3835 -0.7151  0.7699
  123SOL     MW  492   1.784   1.019   0.473  0.3289  0.0727 -0.3596
  124SOL     OW  493   0.666   0.508   0.861  0.1413 -0.0952 -0.0615
  124SOL    HW1  494   0.573   0.487   0.821 -0.7944 -0.7517 -0.1666
  124SOL    HW2  495   0.680   0.595   0.826  2.0792 -0.7106  2.0429
  124SOL     MW  496   0.655   0.517   0.851  0.2735 -0.2630  0.2023
  125SOL     OW  497   0.694   1.715   1.667  0.0177 -0.3811 -0.0331
  125SOL    HW1  498   0.616   1.655   1.640  0.5724  1.1053 -1.5054
  125SOL    HW2  499   0.650   1.798   1.687 -0.9566 -0.5533  0.8746
  125SOL     MW  500   0.678   1.718   1.666 -0.0377 -0.2077 -0.1076
  126SOL     OW  501   2.105   1.605   1.964  0.1409 -0.2705 -0.4204
  126SOL    HW1  502   2.165   1.684   1.974 -1.9189  1.1299 -0.5308
  126SOL    HW2  503   2.152   1.536   2.012  0.4266 -1.5876  2.0093
  126SOL     MW  504   2.119   1.606   1.971 -0.0932 -0.2595 -0.1144
  127SOL     OW  505   0.624   0.743   1.869 -0.1793  0.1632 -0.4178
  127SOL    HW1  506   0.710   0.721   1.889  0.8110 -0.0054 -1.4924
  127SOL    HW2  507   0.611   0.833   1.910  1.3598 -0.4159 -0.9739
  127SOL     MW  508   0.634   0.752   1.877  0.1545  0.0645 -0.6330
  128SOL     OW  509   1.817   0.747   2.899  0.0700  0.3110  0.1739
  128SOL    HW1  510   1.825   0.715   2.809 -1.9189 -2.0204  1.3731
  128SOL    HW2  511   1.772   0.833   2.891  0.3491 -0.6999  2.1611
  128SOL     MW  512   1.812   0.754   2.886 -0.1556 -0.1299  0.5943
  129SOL     OW  513   1.481   0.993   0.206 -0.0247 -0.1235 -0.4053
  129SOL    HW1  514   1.430   0.916   0.217 -0.7818  2.3490 -2.1478
  129SOL    HW2  515   1.535   0.991   0.286 -1.7093  1.6360 -0.0198
  129SOL     MW  516   1.481   0.982   0.218 -0.3469  0.4349 -0.5844
  130SOL     OW  517   0.740   1.463   0.391 -0.3681 -0.4598  0.4940
  130SOL    HW1  518   0.796   1.434   0.471  0.3103  0.2647  2.3053
  130SOL    HW2  519   0.807   1.507   0.343 -0.6954  0.5560  1.1375
  130SOL     MW  520   0.756   1.465   0.395 -0.3218 -0.2302  0.8179
  131SOL     OW  521   3.064   0.790   0.080 -0.1076  0.3873 -0.1654
  131SOL    HW1  522   3.054   0.836  -0.013  1.4702  1.1754 -3.4837
  131SOL    HW2  523   3.153   0.808   0.112  2.3904  1.4166  2.7321
  131SOL     MW  524   3.074   0.799   0.072  0.4302  0.6271 -0.2209
  132SOL     OW  525   2.769   0.157   1.267 -0.0835 -0.0980 -0.0858
  132SOL    HW1  526   2.783   0.163   1.173  0.4995 -1.9608  0.7195
  132SOL    HW2  527   2.673   0.153   1.280  1.0807 -0.0179  0.6972
  132SOL     MW  528   2.758   0.157   1.257  0.1470 -0.3332  0.1238
  133SOL     OW  529   1.119   0.173   1.696 -0.5367 -0.5049  0.0021
  133SOL    HW1  530   1.203   0.123   1.687  1.1946  2.0303 -1.0306
  133SOL    HW2  531   1.106   0.181   1.787  1.1764 -0.1520 -0.0186
  133SOL     MW  532   1.129   0.167   1.707 -0.0823 -0.1239 -0.1369
  134SOL     OW  533   1.369   2.515   1.396  0.2071  0.1997 -0.1016
  134SOL    HW1  534   1.314   2.592   1.365  1.8306  0.3248 -1.1841
  134SOL    HW2  535   1.402   2.558   1.479  2.3467  1.7412  1.4941
  134SOL     MW  536   1.366   2.531   1.403  0.7036  0.4196 -0.0339
  135SOL     OW  537   3.027   0.988   2.963 -0.2756  0.4989 -0.3452
  135SOL    HW1  538   3.084   1.051   3.005  1.8138  1.2615 -0.3605
  135SOL    HW2  539   2.947   1.048   2.945  1.0739 -0.9029  1.8496
  135SOL     MW  540   3.024   1.004   2.966  0.1781  0.4146 -0.0577
  136SOL     OW  541   0.289   2.001   0.871 -0.5122  0.0953  0.4096
  136SOL    HW1  542   0.220   1.966   0.817 -0.5265  0.5425  2.1425
  136SOL    HW2  543   0.359   2.006   0.808  2.1388 -2.0272 -0.5441
  136SOL     MW  544   0.289   1.997   0.855 -0.1643 -0.1257  0.5124
  137SOL     OW  545   0.751   2.001   0.528  0.5031 -0.2225 -0.5930
  137SOL    HW1  546   0.752   1.999   0.622 -0.4528 -0.6503  1.4740
  137SOL    HW2  547   0.661   2.030   0.506 -0.9445 -1.3553 -2.2958
  137SOL     MW  548   0.740   2.005   0.537  0.1860 -0.4284 -0.5449
  138SOL     OW  549   0.533   0.563   1.090 -0.6141  0.0116  0.6218
  138SOL    HW1  550   0.455   0.516   1.072  1.2840 -2.8266 -0.7856
  138SOL    HW2  551   0.585   0.537   1.007  1.3332 -0.4006 -0.6627
  138SOL     MW  552   0.530   0.553   1.077 -0.1067 -0.4173  0.2666
  139SOL     OW  553   2.724   0.473   1.401 -0.0432 -0.1787 -0.1879
  139SOL    HW1  554   2.795   0.419   1.357 -0.3409  0.3425 -1.0994
  139SOL    HW2  555   2.723   0.562   1.361 -3.4709 -0.7870 -0.4839
  139SOL     MW  556   2.733   0.478   1.390 -0.5347 -0.1902 -0.3472
  140SOL     OW  557   0.855   0.378   2.087 -0.2821  0.4487 -0.3536
  140SOL    HW1  558   0.902   0.311   2.039  0.0607  1.4294  0.1267
  140SOL    HW2  559   0.897   0.373   2.175 -1.9438  0.7086  2.1038
  140SOL     MW  560   0.866   0.368   2.093 -0.4561  0.6123  0.0340
  141SOL     OW  561   1.017   0.604   1.728  0.2009 -0.6042 -0.0376
  141SOL    HW1  562   1.057   0.518   1.700 -0.0449 -1.2749  1.0591
  141SOL    HW2  563   1.089   0.670   1.722  2.1241  2.2877 -0.7065
  141SOL     MW  564   1.032   0.601   1.723  0.4222 -0.3112  0.0189
  142SOL     OW  565   0.954   1.167   0.749  0.6020 -0.6872 -0.1520
  142SOL    HW1  566   0.928   1.128   0.658 -2.5327 -1.8593 -0.6127
  142SOL    HW2  567   1.053   1.168   0.749 -2.2232 -1.4727  0.2645
  142SOL     MW  568   0.964   1.162   0.737 -0.1843 -0.9455 -0.1578
  143SOL     OW  569   1.843   0.877   1.096 -0.6764 -0.6637 -0.2660
  143SOL    HW1  570   1.845   0.838   1.010 -1.7032 -0.3794  0.5563
  143SOL    HW2  571   1.800   0.814   1.151 -0.8996 -0.3086  0.7251
  143SOL     MW  572   1.838   0.863   1.092 -0.8413 -0.5794 -0.0267
  144SOL     OW  573   0.189   1.162   1.534  1.0772 -0.0501 -0.0426
  144SOL    HW1  574   0.272   1.118   1.512 -2.1004 -2.3964 -2.6419
  144SOL    HW2  575   0.205   1.191   1.626  3.7054 -0.4687 -2.1042
  144SOL     MW  576   0.202   1.160   1.543  1.0047 -0.4149 -0.6576
  145SOL     OW  577   0.255   0.456   1.080  0.1969 -0.2554 -0.4865
  145SOL    HW1  578   0.268   0.396   1.157 -2.6532  0.0512 -0.0993
  145SOL    HW2  579   0.209   0.387   1.021  3.8511 -0.3011  2.5690
  145SOL     MW  580   0.251   0.439   1.083  0.3030 -0.2210 -0.0323
  146SOL     OW  581   0.888   1.903   1.395  0.3445  0.6283  0.7380
  146SOL    HW1  582   0.931   1.964   1.329 -0.1430  1.2621 -0.7455
  146SOL    HW2  583   0.791   1.913   1.380 -3.1105  2.7202  0.9549
  146SOL     MW  584   0.881   1.913   1.384 -0.1756  0.9879  0.5709
  147SOL     OW  585   0.393   0.422   2.893  0.0176 -0.0296  0.1858
  147SOL    HW1  586   0.353   0.432   2.978  2.4854  0.9930 -2.4764
  147SOL    HW2  587   0.353   0.499   2.851  1.1965 -0.7060 -0.0521
  147SOL     MW  588   0.382   0.434   2.898  0.4988  0.0161 -0.1968
  148SOL     OW  589   0.028   0.918   1.340  0.1298 -0.4467  0.4987
  148SOL    HW1  590   0.122   0.950   1.335  2.8503  0.9045 -1.2153
  148SOL    HW2  591   0.018   0.912   1.441  2.6931 -1.4973 -0.1330
  148SOL     MW  592   0.039   0.921   1.353  0.8269 -0.4070  0.1892
  149SOL     OW  593   1.412   1.176   1.453 -0.1913  0.0614  0.3586
  149SOL    HW1  594   1.370   1.149   1.540  0.0634  4.9659  0.3623
  149SOL    HW2  595   1.495   1.220   1.480  0.1665  1.0818  2.4190
  149SOL     MW  596   1.417   1.178   1.468 -0.1105  0.8431  0.6310
  150SOL     OW  597   1.819   1.281   0.791 -0.2790 -0.4679  0.1765
  150SOL    HW1  598   1.843   1.198   0.753 -0.1139  1.6434  0.0221
  150SOL    HW2  599   1.895   1.310   0.845  2.1696  2.9763 -0.8670
  150SOL     MW  600   1.832   1.274   0.793  0.0659  0.2651  0.0184
  151SOL     OW  601   1.648   1.836   0.864 -0.0434  0.1140  0.0521
  151SOL    HW1  602   1.612   1.806   0.780  2.2009 -0.8064  1.6778
  151SOL    HW2  603   1.612   1.785   0.940 -1.0482  1.8511 -2.4767
  151SOL     MW  604   1.639   1.825   0.863  0.1201  0.2217 -0.0671
  152SOL     OW  605   0.791   1.341   1.526 -0.3061 -0.4000 -0.3528
  152SOL    HW1  606   0.777   1.243   1.540 -0.6408  2.4171  1.3410
  152SOL    HW2  607   0.879   1.353   1.493  1.1089 -1.2655  1.4293
  152SOL     MW  608   0.801   1.329   1.523 -0.1636 -0.1425  0.1058
  153SOL     OW  609   2.661   1.227   0.714 -0.3781  0.1431 -0.5598
  153SOL    HW1  610   2.690   1.213   0.620 -4.7774  1.5314 -0.7465
  153SOL    HW2  611   2.585   1.154   0.719 -2.2273 -0.5967  0.5143
  153SOL     MW  612   2.655   1.216   0.702 -1.2025  0.2287 -0.4427
  154SOL     OW  613   0.331   1.761   1.686 -0.0867 -0.2730 -0.1633
  154SOL    HW1  614   0.334   1.724   1.595 -1.5265  1.8534  0.7816
  154SOL    HW2  615   0.379   1.691   1.731  2.8130  2.6113  2.0585
  154SOL     MW  616   0.337   1.747   1.680  0.1059  0.3881  0.2545
  155SOL     OW  617   1.096   0.677   0.297  0.0173 -0.0387  0.0254
  155SOL    HW1  618   1.119   0.640   0.383  0.2720 -1.4971  0.7540
  155SOL    HW2  619   1.063   0.768   0.303  0.1434  0.6835 -2.1284
  155SOL     MW  620   1.095   0.685   0.309  0.0675 -0.1359 -0.1626
  156SOL     OW  621   1.482   3.023   1.038 -0.0497 -0.0740  0.3178
  156SOL    HW1  622   1.535   3.101   1.048  3.4953 -5.2320 -0.8102
  156SOL    HW2  623   1.491   2.968   1.115 -0.5289  1.1283 -0.8330
  156SOL     MW  624   1.490   3.026   1.049  0.3548 -0.5959  0.0171
  157SOL     OW  625   1.356   1.206   0.156 -0.5088 -0.0992  0.0852
  157SOL    HW1  626   1.400   1.114   0.163 -1.0961 -2.5917  2.5405
  157SOL    HW2  627   1.422   1.278   0.139  0.2349 -2.2134  1.0259
  157SOL     MW  628   1.371   1.204   0.155 -0.4882 -0.7070  0.5333
  158SOL     OW  629   0.426   1.667   2.261  0.2006 -0.3844 -0.2218
  158SOL    HW1  630   0.431   1.731   2.192  0.2517 -0.5762 -0.8793
  158SOL    HW2  631   0.336   1.641   2.288 -0.4356  1.7727  1.8588
  158SOL     MW  632   0.415   1.672   2.255  0.1234 -0.1251 -0.0341
  159SOL     OW  633   1.315   1.670   0.455 -0.0445  0.6018  0.0319
  159SOL    HW1  634   1.276   1.594   0.409  1.5374  2.3766  0.5688
  159SOL    HW2  635   1.234   1.716   0.495 -3.2231 -1.7389  0.7739
  159SOL     MW  636   1.299   1.666   0.454 -0.2551  0.5272  0.2006
  160SOL     OW  637   0.469   1.092   1.554  0.3398  0.6785  0.0831
  160SOL    HW1  638   0.469   1.018   1.610 -0.6696  0.5132 -1.5034
  160SOL    HW2  639   0.496   1.172   1.599  2.4491  0.0383  0.7196
  160SOL     MW  640   0.472   1.093   1.567  0.4849  0.5722 -0.0422
  161SOL     OW  641   0.556   2.116   2.684 -0.3826  0.3658 -0.9508
  161SOL    HW1  642   0.474   2.147   2.720  0.8831  0.2680 -1.1626
  161SOL    HW2  643   0.548   2.097   2.595 -1.5374  2.3377  1.8595
  161SOL     MW  644   0.544   2.118   2.677 -0.3679  0.6131 -0.6080
  162SOL     OW  645   0.992   1.670   1.778  0.0082  0.5398 -0.4234
  162SOL    HW1  646   1.043   1.746   1.794 -1.6417 -4.0367  1.0994
  162SOL    HW2  647   0.920   1.680   1.834  1.2941 -1.3655 -1.9184
  162SOL     MW  648   0.989   1.681   1.787 -0.0398 -0.3155 -0.4197
  163SOL     OW  649   2.120   0.194   0.967  0.2717 -0.0945  0.2110
  163SOL    HW1  650   2.127   0.200   0.877 -1.3566  3.4637  1.8660
  163SOL    HW2  651   2.066   0.117   0.989  0.2943 -0.2054 -1.1422
  163SOL     MW  652   2.114   0.185   0.958  0.0598  0.3603  0.2508
  164SOL     OW  653   0.244   0.236   0.763  0.1392 -0.0929 -0.8989
  164SOL    HW1  654   0.191   0.245   0.845  0.1429  0.4013  1.6972
  164SOL    HW2  655   0.237   0.147   0.737 -1.6140  0.6293 -1.0414
  164SOL     MW  656   0.236   0.225   0.770 -0.0916  0.0676 -0.5752
  165SOL     OW  657   1.371   1.244   0.427  0.1397 -0.0093  0.4351
  165SOL    HW1  658   1.349   1.166   0.475 -1.6485 -0.4237 -1.9811
  165SOL    HW2  659   1.362   1.208   0.338 -1.8673  0.6148 -1.1958
  165SOL     MW  660   1.367   1.229   0.422 -0.3611  0.0184 -0.0989
  166SOL     OW  661   0.484   1.049   0.949  0.1631 -0.5206 -0.0239
  166SOL    HW1  662   0.469   0.974   1.009 -1.2492 -2.3706  1.6268
  166SOL    HW2  663   0.578   1.054   0.951  0.6654  1.7563 -2.7126
  166SOL     MW  664   0.494   1.040   0.957  0.0430 -0.4643 -0.1609
  167SOL     OW  665   0.889   1.142   0.264  0.1439  0.0447  0.1869
  167SOL    HW1  666   0.799   1.160   0.256  1.0175  1.6957 -2.3420
  167SOL    HW2  667   0.912   1.172   0.171 -0.0827  1.4360  0.4534
  167SOL     MW  668   0.880   1.149   0.251  0.2292  0.4461 -0.1116
  168SOL     OW  669   1.691   1.738   2.873 -0.3323 -0.1763  0.0897
  168SOL    HW1  670   1.661   1.785   2.951  0.8114 -1.0201  0.1280
  168SOL    HW2  671   1.675   1.642   2.896  0.6327  1.3526 -2.2244
  168SOL     MW  672   1.685   1.732   2.886 -0.0541 -0.0859 -0.2106
  169SOL     OW  673   0.330   0.952   1.339 -0.1093 -0.1197 -0.0837
  169SOL    HW1  674   0.371   0.921   1.418 -1.1080  1.3985 -0.1494
  169SOL    HW2  675   0.358   1.046   1.322  1.1067  0.6186  1.8011
  169SOL     MW  676   0.339   0.960   1.347 -0.0806  0.1780  0.1563
  170SOL     OW  677   1.067   1.471   1.465  0.7742  0.1392 -0.4644
  170SOL    HW1  678   0.986   1.531   1.445 -2.5921  1.2337  1.3908
  170SOL    HW2  679   1.102   1.454   1.382 -1.7533  2.5594 -2.6541
  170SOL     MW  680   1.061   1.477   1.452 -0.0035  0.6029 -0.5085
  171SOL     OW  681   0.606   1.392   0.711 -0.3197 -0.5427 -0.2887
  171SOL    HW1  682   0.567   1.391   0.803 -0.0525  2.0709 -1.7636
  171SOL    HW2  683   0.568   1.324   0.659 -2.4137  0.9432 -0.2577
  171SOL     MW  684   0.596   1.383   0.716 -0.5608 -0.0018 -0.4792
  172SOL     OW  685   0.864   0.322   1.205 -0.1010 -0.0209  0.3667
  172SOL    HW1  686   0.862   0.335   1.103 -2.1873 -0.6455 -1.7665
  172SOL    HW2  687   0.772   0.344   1.234 -0.0781  0.2913 -1.5266
  172SOL     MW  688   0.851   0.326   1.195 -0.3732 -0.0621 -0.1646
  173SOL     OW  689   0.475   1.733   0.360 -0.3281  0.0333 -0.1013
  173SOL    HW1  690   0.478   1.634   0.350  2.7682  0.6077  0.3967
  173SOL    HW2  691   0.535   1.726   0.437  2.8553 -1.1902 -1.2477
  173SOL     MW  692   0.483   1.719   0.369  0.5004 -0.0523 -0.1868
  174SOL     OW  693   2.005   0.939   1.475 -0.3468  0.3070 -0.6921
  174SOL    HW1  694   1.944   0.877   1.511 -0.0896 -2.1249  1.2237
  174SOL    HW2  695   1.959   0.998   1.418  2.4190 -0.7636  1.0924
  174SOL     MW  696   1.991   0.939   1.472  0.0520 -0.1551 -0.2039
  175SOL     OW  697   0.485   1.448   0.315 -0.2120  0.5623  0.1863
  175SOL    HW1  698   0.488   1.410   0.228  0.4885 -1.6505 -1.5704
  175SOL    HW2  699   0.570   1.431   0.349 -1.8313 -2.4284  3.0554
  175SOL     MW  700   0.496   1.441   0.308 -0.3332 -0.1242  0.3330
  176SOL     OW  701   0.280   1.236   1.210 -1.1668  0.7712 -0.5249
  176SOL    HW1  702   0.224   1.256   1.131  2.3826  2.4359 -0.4293
  176SOL    HW2  703   0.267   1.314   1.253  0.0629 -1.5174  0.6115
  176SOL     MW  704   0.271   1.249   1.205 -0.5363  0.6889 -0.3623
  177SOL     OW  705   0.627   0.421   1.319  0.0212 -1.1615  0.2171
  177SOL    HW1  706   0.632   0.507   1.264  0.9683  1.1892  0.7893
  177SOL    HW2  707   0.648   0.452   1.411  1.9473 -2.0859  2.2091
  177SOL     MW  708   0.630   0.436   1.324  0.4003 -0.9733  0.5554
  178SOL     OW  709   3.081   0.414   2.927 -0.7822  0.1334 -1.1526
  178SOL    HW1  710   3.041   0.459   3.009  0.7454  3.3593 -0.0490
  178SOL    HW2  711   3.011   0.412   2.866 -0.8948 -1.7687  0.5682
  178SOL     MW  712   3.066   0.420   2.929 -0.5955  0.3081 -0.7799
  179SOL     OW  713   1.658   1.306   1.479  0.5925 -0.1741 -0.4707
  179SOL    HW1  714   1.618   1.355   1.550 -2.7708 -1.1079  1.3481
  179SOL    HW2  715   1.751   1.310   1.496 -0.8784 -0.3709  2.5019
  179SOL     MW  716   1.665   1.313   1.491 -0.0453 -0.3233  0.1614
  180SOL     OW  717   3.000   0.231   0.459 -0.7525 -1.2557 -0.4816
  180SOL    HW1  718   2.982   0.239   0.361 -0.0363 -0.5953 -2.3989
  180SOL    HW2  719   3.049   0.312   0.479  1.5987  0.4780  1.6249
  180SOL     MW  720   3.004   0.243   0.449 -0.3478 -0.9398 -0.4566
  181SOL     OW  721   1.108   1.457   3.062  0.0448  0.2416 -0.4211
  181SOL    HW1  722   1.160   1.530   3.096  2.4240 -0.0130 -1.5070
  181SOL    HW2  723   1.150   1.420   2.985 -0.8648 -1.4218  1.6693
  181SOL     MW  724   1.120   1.462   3.056  0.2387 -0.0115 -0.2886
  182SOL     OW  725   0.456   0.823   1.633 -0.2974 -0.0165  0.5702
  182SOL    HW1  726   0.369   0.811   1.676 -0.7932  0.8910  0.7473
  182SOL    HW2  727   0.514   0.784   1.697 -0.4628  0.9060  0.4144
  182SOL     MW  728   0.452   0.816   1.647 -0.3846  0.2250  0.5730
  183SOL     OW  729   1.616   1.517   1.288 -1.2151 -0.1609 -0.2545
  183SOL    HW1  730   1.548   1.547   1.353 -1.8852  0.4071  1.6929
  183SOL    HW2  731   1.673   1.461   1.339 -0.6356 -2.8443 -2.0300
  183SOL     MW  732   1.614   1.514   1.303 -1.2270 -0.4400 -0.2318
  184SOL     OW  733   0.861   0.623   1.998 -0.1293  0.4410 -0.1714
  184SOL    HW1  734   0.920   0.615   1.922 -1.2128 -1.5113  2.4832
  184SOL    HW2  735   0.863   0.534   2.030  0.2834  5.0132  1.5495
  184SOL     MW  736   0.869   0.610   1.992 -0.2178  0.7866  0.4059
  185SOL     OW  737   1.102   0.932   1.978 -0.1822  0.0033  0.2974
  185SOL    HW1  738   1.092   0.854   2.037 -0.6670 -4.2162  0.0778
  185SOL    HW2  739   1.181   0.976   2.017 -0.7198 -2.3738  0.1900
  185SOL     MW  740   1.111   0.928   1.991 -0.3171 -0.8671  0.2542
  186SOL     OW  741   0.395   1.682   1.411  0.0896  0.1667 -0.2822
  186SOL    HW1  742   0.457   1.720   1.350  0.3243  2.6686 -0.9135
  186SOL    HW2  743   0.347   1.617   1.363 -1.6280  0.8580 -0.9801
  186SOL     MW  744   0.397   1.678   1.397 -0.1060  0.5880 -0.4576
  187SOL     OW  745   1.510   0.693   1.450 -0.4020  0.3241 -0.3045
  187SOL    HW1  746   1.505   0.722   1.542  0.9484  1.7269  0.2671
  187SOL    HW2  747   1.417   0.698   1.417  0.0398  0.5747 -1.2621
  187SOL     MW  748   1.497   0.697   1.457 -0.1656  0.5423 -0.3554
  188SOL     OW  749   1.912   1.050   0.708  0.6409  0.1857 -0.2088
  188SOL    HW1  750   1.904   0.985   0.774 -0.9157  1.5600 -1.5928
  188SOL    HW2  751   2.007   1.061   0.703 -1.5782 -1.4160  1.9511
  188SOL     MW  752   1.924   1.043   0.716  0.1427  0.1557 -0.1064
  189SOL     OW  753   0.663   0.785   0.798  0.2921 -0.2388 -0.4244
  189SOL    HW1  754   0.590   0.838   0.792  0.7717 -2.3086  1.3953
  189SOL    HW2  755   0.729   0.823   0.860 -0.2376  0.4414  2.6152
  189SOL     MW  756   0.662   0.797   0.806  0.2855 -0.4221  0.2168
  190SOL     OW  757   1.870   0.288   1.970 -0.2288 -0.8134  0.2111
  190SOL    HW1  758   1.887   0.207   1.930  0.4542  0.7946  1.7245
  190SOL    HW2  759   1.946   0.348   1.942  1.3544 -2.4914 -1.5895
  190SOL     MW  760   1.882   0.285   1.961  0.0702 -0.8227  0.1732
  191SOL     OW  761   1.631   0.940   1.355 -0.7357 -0.0104 -0.9043
  191SOL    HW1  762   1.565   1.008   1.362  0.7947 -1.1574  2.0204
  191SOL    HW2  763   1.594   0.853   1.371 -0.5868  0.3706 -0.3668
  191SOL     MW  764   1.617   0.938   1.358 -0.5141 -0.1115 -0.4475
  192SOL     OW  765   0.746   1.985   2.827 -0.4787  0.1968 -0.3060
  192SOL    HW1  766   0.676   2.030   2.773 -1.1763 -1.8765  0.7111
  192SOL    HW2  767   0.703   1.906   2.853  1.0737  0.2890  0.9199
  192SOL     MW  768   0.732   1.981   2.823 -0.3659 -0.0646 -0.0101
  193SOL     OW  769   1.035   1.600   0.750 -0.6328  0.6392 -0.2118
  193SOL    HW1  770   1.038   1.609   0.850 -3.8903 -0.2609  2.3072
  193SOL    HW2  771   0.958   1.542   0.739 -1.0318 -0.9646 -0.9869
  193SOL     MW  772   1.025   1.593   0.762 -1.1153  0.3088  0.0183
  194SOL     OW  773   0.479   1.359   0.946 -0.0849 -0.3130  0.2876
  194SOL    HW1  774   0.473   1.263   0.966  1.6411 -2.8586  0.8934
  194SOL    HW2  775   0.394   1.384   0.914 -2.0662  1.5341  2.2697
  194SOL     MW  776   0.467   1.350   0.944 -0.1186 -0.4052  0.6290
  195SOL     OW  777   1.274   1.141   2.993  0.2146  0.0787  0.0150
  195SOL    HW1  778   1.298   1.149   3.085  0.8484 -1.2608  2.0346
  195SOL    HW2  779   1.201   1.078   2.989  0.6675 -1.8066 -1.8694
  195SOL     MW  780   1.268   1.134   3.005  0.3579 -0.3468  0.0329
  196SOL     OW  781   2.191   1.108   0.665  0.0854  0.1971  0.4959
  196SOL    HW1  782   2.147   1.095   0.581  0.9750  0.2606  0.3275
  196SOL    HW2  783   2.182   1.202   0.666 -0.2381 -1.7563  0.0739
  196SOL     MW  784   2.184   1.119   0.654  0.1601 -0.0523  0.4180
  197SOL     OW  785   0.587   1.248   1.998  0.4291 -0.2909 -0.3325
  197SOL    HW1  786   0.634   1.160   2.008 -0.3928 -0.7871 -0.3716
  197SOL    HW2  787   0.584   1.264   1.908  0.4712 -1.0533  2.5503
  197SOL     MW  788   0.593   1.238   1.987  0.3263 -0.4569  0.0427
  198SOL     OW  789   2.948   1.405   1.028 -0.3039  0.1761 -0.4141
  198SOL    HW1  790   2.920   1.488   0.990 -0.2240  1.3326 -1.9833
  198SOL    HW2  791   2.885   1.339   0.984 -2.5997 -0.9986 -2.7620
  198SOL     MW  792   2.936   1.408   1.017 -0.5963  0.1737 -0.9309
  199SOL     OW  793   0.511   1.284   1.734 -0.4128 -0.2723  0.1060
  199SOL    HW1  794   0.424   1.289   1.774  1.5737  3.0431 -2.2237
  199SOL    HW2  795   0.522   1.367   1.681 -1.9505  2.5143 -1.6852
  199SOL     MW  796   0.501   1.295   1.732 -0.3536  0.5328 -0.4377
  200SOL     OW  797   1.891   3.103   1.377  0.1068  0.4302  0.0042
  200SOL    HW1  798   1.889   3.074   1.281 -1.3038 -2.5160  0.6080
  200SOL    HW2  799   1.804   3.078   1.410  0.3902  1.4279  3.0230
  200SOL     MW  800   1.879   3.096   1.369 -0.0419  0.1731  0.4822
  201SOL     OW  801   1.088   0.306   0.827  0.1608 -0.0915 -0.1182
  201SOL    HW1  802   1.068   0.209   0.825 -0.2600  3.2359  1.1024
  201SOL    HW2  803   1.098   0.321   0.730  0.0881 -3.7562  1.8094
  201SOL     MW  804   1.086   0.295   0.814  0.0957 -0.1360  0.2972
  202SOL     OW  805   1.548   1.638   1.042  0.1457  0.4720 -0.2023
  202SOL    HW1  806   1.582   1.569   0.981 -2.7975  0.2067  0.8412
  202SOL    HW2  807   1.573   1.612   1.129 -0.4709  1.6265 -0.2713
  202SOL     MW  808   1.556   1.625   1.046 -0.3240  0.5893 -0.0737
  203SOL     OW  809   0.004   0.447   1.197 -0.0505  0.3693 -0.1094
  203SOL    HW1  810   0.062   0.415   1.131  1.7032  0.8126  0.3315
  203SOL    HW2  811   0.054   0.517   1.240 -0.0547 -0.8301 -3.6993
  203SOL     MW  812   0.018   0.452   1.194  0.1803  0.2695 -0.5249
  204SOL     OW  813   1.061   1.764   0.511  0.1463 -0.1701 -0.0690
  204SOL    HW1  814   1.064   1.689   0.572 -0.9328  1.1775 -1.0374
  204SOL    HW2  815   0.969   1.763   0.469 -0.8033  1.3686  2.1426
  204SOL     MW  816   1.049   1.754   0.513 -0.1214  0.2107  0.0950
  205SOL     OW  817   1.391   0.092   1.336  0.3381  0.2097  0.3438
  205SOL    HW1  818   1.324   0.097   1.266  1.7977 -1.5308  1.8946
  205SOL    HW2  819   1.428   0.176   1.314 -0.6610  1.4320  2.3266
  205SOL     MW  820   1.387   0.104   1.323  0.3988  0.1413  0.8100
  206SOL     OW  821   0.471   3.065   1.392 -0.5209 -0.1997  0.3740
  206SOL    HW1  822   0.402   3.053   1.327  0.5967 -0.4293  3.4982
  206SOL    HW2  823   0.516   2.986   1.396 -3.0542  0.7429  1.4421
  206SOL     MW  824   0.468   3.053   1.384 -0.7077 -0.1056  0.9272
  207SOL     OW  825   0.962   1.563   0.251  0.1157 -0.1028 -0.1507
  207SOL    HW1  826   0.992   1.648   0.208  1.2369  0.5405 -0.1433
  207SOL    HW2  827   1.048   1.534   0.296  1.2414 -0.0311 -0.2843
  207SOL     MW  828   0.977   1.571   0.251  0.4122 -0.0085 -0.1674
  208SOL     OW  829   0.678   1.563   1.195  0.3908  0.0698  0.2578
  208SOL    HW1  830   0.736   1.582   1.263  0.5428 -0.3878 -1.6086
  208SOL    HW2  831   0.629   1.492   1.234 -0.5012 -0.1884  1.0836
  208SOL     MW  832   0.679   1.556   1.209  0.2932 -0.0247  0.1205
  209SOL     OW  833   1.498   0.542   2.815  1.1130 -0.0589  0.1044
  209SOL    HW1  834   1.533   0.544   2.905  0.6471 -0.3764 -0.6797
  209SOL    HW2  835   1.562   0.490   2.769 -2.4423  1.4704  0.5284
  209SOL     MW  836   1.511   0.535   2.821  0.5824  0.1010  0.0569
  210SOL     OW  837   1.588   1.413   0.876  0.3503  0.6037  0.0388
  210SOL    HW1  838   1.665   1.358   0.859 -0.2786 -1.0886  1.9729
  210SOL    HW2  839   1.526   1.405   0.808  0.3601  1.7715  0.7382
  210SOL     MW  840   1.590   1.405   0.865  0.2686  0.5345  0.3863
  211SOL     OW  841   1.717   0.483   0.936  0.4282 -0.2105 -0.2516
  211SOL    HW1  842   1.678   0.451   0.857  0.6395  0.9354  0.8018
  211SOL    HW2  843   1.807   0.477   0.911 -3.4104  0.7285  1.5725
  211SOL     MW  844   1.724   0.478   0.922 -0.0504  0.0646  0.1280
  212SOL     OW  845   0.252   1.112   0.081  0.1908  0.1470  0.3817
  212SOL    HW1  846   0.212   1.089   0.164  0.5487 -2.4275  0.6847
  212SOL    HW2  847   0.342   1.076   0.080  1.6723  0.9812 -2.7447
  212SOL     MW  848   0.258   1.104   0.092  0.4335 -0.0826  0.0092
  213SOL     OW  849   0.442   1.673   3.090  0.1306 -0.0111 -0.0080
  213SOL    HW1  850   0.484   1.742   3.140 -3.4350  1.0566  0.3783
  213SOL    HW2  851   0.460   1.696   2.998 -1.5689  0.4415 -3.6571
  213SOL     MW  852   0.450   1.685   3.085 -0.5640  0.1895 -0.4385
  214SOL     OW  853   0.651   0.243   2.274 -0.4336 -0.3200 -0.4811
  214SOL    HW1  854   0.597   0.297   2.220  0.8035  2.4631 -1.0341
  214SOL    HW2  855   0.736   0.254   2.228  2.7485 -1.7683 -1.4499
  214SOL     MW  856   0.655   0.251   2.261  0.1495 -0.1439 -0.6819
  215SOL     OW  857   0.475   0.748   2.607  0.0537 -0.3282 -0.3789
  215SOL    HW1  858   0.471   0.697   2.526 -3.3775  1.1369  1.3331
  215SOL    HW2  859   0.398   0.715   2.654 -0.0046 -0.0737 -0.6678
  215SOL     MW  860   0.464   0.737   2.602 -0.4067 -0.1013 -0.1912
  216SOL     OW  861   3.074   3.055   2.737  0.1346 -0.7819 -0.2111
  216SOL    HW1  862   3.027   3.037   2.822 -1.8730  2.7649  3.6825
  216SOL    HW2  863   3.036   3.124   2.681 -0.4608 -0.6751 -1.5559
  216SOL     MW  864   3.063   3.062   2.740 -0.2089 -0.2998  0.1252
  217SOL     OW  865   0.962   1.216   0.005 -0.1534  0.2271  0.5787
  217SOL    HW1  866   1.006   1.136  -0.028  0.3253  0.8925 -1.6608
  217SOL    HW2  867   1.043   1.279   0.020 -1.3250  3.6523  0.1593
  217SOL     MW  868   0.979   1.214   0.003 -0.2448  0.7668  0.2279
  218SOL     OW  869   0.907   1.309   2.506  0.1811 -0.4926  0.6479
  218SOL    HW1  870   0.900   1.229   2.558  0.2623 -3.4872  2.5439
  218SOL    HW2  871   0.999   1.342   2.488  1.3499  0.6517  2.7376
  218SOL     MW  872   0.918   1.303   2.511  0.3460 -0.7367  1.1738
  219SOL     OW  873   1.034   0.449   2.504  0.0670  0.1783  0.5738
  219SOL    HW1  874   1.080   0.507   2.442 -1.4821  1.5185 -1.2283
  219SOL    HW2  875   0.975   0.505   2.552  0.5054 -2.1614  0.3056
  219SOL     MW  876   1.032   0.464   2.502 -0.0795  0.0465  0.3006
  220SOL     OW  877   1.754   0.489   2.212 -0.3202 -0.6958 -0.6609
  220SOL    HW1  878   1.692   0.551   2.176  1.1338  1.2227 -0.6292
  220SOL    HW2  879   1.772   0.409   2.154  0.0427 -1.7628  0.9934
  220SOL     MW  880   1.749   0.487   2.199 -0.0805 -0.5834 -0.4385
  221SOL     OW  881   0.402   1.374   2.898 -0.0426 -0.4493  0.1765
  221SOL    HW1  882   0.410   1.280   2.891 -0.5669 -2.3084 -2.3508
  221SOL    HW2  883   0.401   1.417   2.810 -2.2324  1.0734 -3.0186
  221SOL     MW  884   0.403   1.367   2.885 -0.4007 -0.4937 -0.5785
  222SOL     OW  885   0.310   0.966   2.638  0.3925 -0.1045  0.0524
  222SOL    HW1  886   0.258   0.998   2.559 -0.8828  0.3875  0.2622
  222SOL    HW2  887   0.375   0.903   2.610 -2.0878  1.4866  1.5535
  222SOL     MW  888   0.312   0.962   2.624 -0.1030  0.1703  0.2781
  223SOL     OW  889  -0.004   2.002   2.598 -0.1640 -0.1857  0.1770
  223SOL    HW1  890   0.076   1.950   2.644  0.1534 -1.5449  0.3817
  223SOL    HW2  891   0.042   2.081   2.555 -1.0096 -3.1350 -1.2208
  223SOL     MW  892   0.013   2.005   2.598 -0.2337 -0.7541  0.0196
  224SOL     OW  893   1.466   0.822   2.611 -0.2764 -0.2398 -0.3036
  224SOL    HW1  894   1.431   0.862   2.688 -0.0680  1.7418  0.9518
  224SOL    HW2  895   1.488   0.898   2.558 -1.3708  1.1703 -0.8640
  224SOL     MW  896   1.464   0.837   2.614 -0.3933  0.2077 -0.2119
  225SOL     OW  897   2.938   1.487   2.253  0.4710  0.0201  0.2923
  225SOL    HW1  898   2.962   1.540   2.174  1.7643 -0.0538 -0.7710
  225SOL    HW2  899   2.898   1.554   2.311  1.4109 -0.4668 -1.2158
  225SOL     MW  900   2.936   1.503   2.250  0.7656 -0.0539 -0.0470
  226SOL     OW  901   0.386   1.458   2.631  0.5783 -0.5070  0.3095
  226SOL    HW1  902   0.476   1.440   2.608 -3.1944 -2.4268 -1.5495
  226SOL    HW2  903   0.375   1.551   2.627 -2.1096 -1.6923 -0.6652
  226SOL     MW  904   0.397   1.468   2.628 -0.2741 -0.9167 -0.0644
  227SOL     OW  905   0.450   1.095   2.830  0.6192 -0.2882 -0.4868
  227SOL    HW1  906   0.528   1.135   2.802  0.4603  0.5664  0.4862
  227SOL    HW2  907   0.410   1.052   2.749 -0.5705 -0.9054 -3.2303
  227SOL     MW  908   0.455   1.095   2.816  0.4413 -0.2569 -0.7204
  228SOL     OW  909   0.686   0.997   1.989  0.2680  0.3309  0.5970
  228SOL    HW1  910   0.770   1.023   1.953 -1.5682 -1.1097  2.1851
  228SOL    HW2  911   0.698   0.967   2.084 -1.3847  0.4131 -0.0729
  228SOL     MW  912   0.699   0.997   1.997 -0.1923  0.1517  0.7181
  229SOL     OW  913   0.199   0.487   3.089 -0.2171  0.9019  0.1282
  229SOL    HW1  914   0.139   0.443   3.027  1.4071  1.3241 -0.1928
  229SOL    HW2  915   0.218   0.431   3.169 -1.3479  2.1266 -1.5948
  229SOL     MW  916   0.193   0.474   3.092 -0.1520  1.1192 -0.1415
  230SOL     OW  917   1.775   1.369   2.072 -0.0089  0.1987 -0.5422
  230SOL    HW1  918   1.759   1.361   2.167 -1.2679  1.2361  0.3008
  230SOL    HW2  919   1.802   1.288   2.030  0.2980  3.3887 -1.1398
  230SOL     MW  920   1.776   1.357   2.079 -0.1345  0.7565 -0.5098
  231SOL     OW  921   2.755   1.290   2.140 -0.4306  0.6081  0.5566
  231SOL    HW1  922   2.823   1.357   2.151  3.0548 -1.6050 -0.4503
  231SOL    HW2  923   2.677   1.318   2.090  2.0732 -0.3341 -0.6867
  231SOL     MW  924   2.754   1.303   2.134  0.3596  0.1918  0.2597
  232SOL     OW  925   2.285   0.887   2.117  0.2965 -0.4416  0.4816
  232SOL    HW1  926   2.215   0.909   2.055  3.3060 -0.8080 -2.2655
  232SOL    HW2  927   2.239   0.895   2.207  0.6444 -1.8673  1.5228
  232SOL     MW  928   2.270   0.891   2.121  0.7395 -0.6780  0.2565
  233SOL     OW  929   2.048   0.531   1.944 -0.1560  0.7613 -0.1049
  233SOL    HW1  930   2.087   0.559   1.859 -1.0638 -0.7201  2.7041
  233SOL    HW2  931   2.122   0.510   2.000  1.2123 -0.8544 -2.9384
  233SOL     MW  932   2.063   0.532   1.940 -0.0952  0.3527 -0.1081
  234SOL     OW  933   0.278   0.982   2.322 -0.3156 -0.1791 -0.2603
  234SOL    HW1  934   0.189   1.016   2.343 -1.6054  0.8231 -0.7831
  234SOL    HW2  935   0.336   1.053   2.357 -0.5044 -0.2257  0.3249
  234SOL     MW  936   0.274   0.996   2.330 -0.5107 -0.0531 -0.2520
  235SOL     OW  937   1.039   3.053   2.793  0.4051  0.0390 -0.3149
  235SOL    HW1  938   1.084   2.987   2.845 -1.2974 -0.0222 -1.8275
  235SOL    HW2  939   1.022   3.135   2.843  0.3257 -0.3289 -1.2610
  235SOL     MW  940   1.043   3.055   2.807  0.1700 -0.0176 -0.6393
  236SOL     OW  941   2.933   0.515   0.031  0.2274  0.1317  0.1743
  236SOL    HW1  942   2.848   0.521  -0.020 -1.6001  1.6287 -1.3198
  236SOL    HW2  943   2.961   0.606   0.060 -1.5026  0.8269 -0.3956
  236SOL     MW  944   2.925   0.527   0.028 -0.2420  0.4210 -0.0981
  237SOL     OW  945   1.750   0.881   2.178 -0.0880  0.0964  0.0834
  237SOL    HW1  946   1.785   0.966   2.139  1.3406  0.5451 -0.3821
  237SOL    HW2  947   1.776   0.874   2.270  2.0861  2.6918 -0.8511
  237SOL     MW  948   1.758   0.891   2.185  0.3874  0.4980 -0.1013
  238SOL     OW  949   1.081   1.737   2.962 -0.7719 -0.0210 -0.3063
  238SOL    HW1  950   1.070   1.660   2.909  0.2476 -0.1583 -0.1637
  238SOL    HW2  951   1.180   1.746   2.970 -0.6250 -0.6316  1.1075
  238SOL     MW  952   1.092   1.728   2.956 -0.6180 -0.1197 -0.1009
  239SOL     OW  953   1.146   1.405   2.316 -0.2157  0.2803 -0.0623
  239SOL    HW1  954   1.155   1.453   2.401  0.5225  0.1651  1.0177
  239SOL    HW2  955   1.231   1.359   2.329  0.3668  0.7025  1.1270
  239SOL     MW  956   1.158   1.405   2.329 -0.0415  0.3208  0.2371
  240SOL     OW  957   0.639   0.881   2.267 -0.3399  0.0175 -0.3490
  240SOL    HW1  958   0.658   0.933   2.341  2.9072 -4.1295 -1.2841
  240SOL    HW2  959   0.728   0.843   2.254  2.2744 -1.9925 -0.6486
  240SOL     MW  960   0.653   0.883   2.275  0.4334 -0.7948 -0.5119
  241SOL     OW  961   0.630   0.336   2.996  0.0284  0.0679 -0.2608
  241SOL    HW1  962   0.644   0.405   3.065  2.6746 -0.0201 -0.5401
  241SOL    HW2  963   0.542   0.353   2.958 -0.0487 -3.2500 -0.7647
  241SOL     MW  964   0.620   0.348   3.000  0.3674 -0.3815 -0.3641
  242SOL     OW  965   1.500   1.753   2.320 -0.2036  0.4514 -0.1684
  242SOL    HW1  966   1.461   1.824   2.371 -0.4401  1.0743  0.8899
  242SOL    HW2  967   1.427   1.718   2.271  1.8085 -2.1718  0.4893
  242SOL     MW  968   1.485   1.758   2.321  0.0307  0.1875  0.0580
  243SOL     OW  969   0.942   0.208   2.335  0.6586 -0.1800  0.0604
  243SOL    HW1  970   1.032   0.194   2.310 -0.5873  1.0619 -4.6399
  243SOL    HW2  971   0.951   0.260   2.409 -0.3764 -1.7786 -0.9701
  243SOL     MW  972   0.955   0.213   2.342  0.3577 -0.2271 -0.6957
  244SOL     OW  973   0.202   0.722   2.309  0.2408  0.7027 -0.0440
  244SOL    HW1  974   0.207   0.813   2.312 -0.7456 -2.1480 -0.5703
  244SOL    HW2  975   0.293   0.694   2.324  1.7269  1.5239  2.3985
  244SOL     MW  976   0.214   0.731   2.312  0.3068  0.4349  0.2088
  245SOL     OW  977   1.215   0.207   2.341 -0.5628  1.1015  0.4632
  245SOL    HW1  978   1.257   0.121   2.361  0.2409 -1.0539 -0.6226
  245SOL    HW2  979   1.258   0.268   2.398  0.4793  0.7154 -0.8283
  245SOL     MW  980   1.227   0.204   2.351 -0.3193  0.7662  0.1496
  246SOL     OW  981   1.249   1.161   2.096  1.1156  0.1005 -0.0193
  246SOL    HW1  982   1.181   1.130   2.161 -0.2419  0.5046  2.2464
  246SOL    HW2  983   1.336   1.145   2.140 -2.0035  0.3393 -0.1348
  246SOL     MW  984   1.252   1.154   2.110  0.5250  0.1853  0.2644
  247SOL     OW  985   0.705   0.521   0.103  0.4028 -0.1490 -0.0139
  247SOL    HW1  986   0.669   0.609   0.117 -0.5375 -0.4425  2.4057
  247SOL    HW2  987   0.803   0.535   0.102  0.0419  0.1834  3.0933
  247SOL     MW  988   0.713   0.535   0.105  0.2311 -0.1439  0.7153
  248SOL     OW  989   0.432   1.192   2.471  0.3511 -0.2278  0.8309
  248SOL    HW1  990   0.429   1.265   2.411 -3.4796 -1.8616  0.3002
  248SOL    HW2  991   0.361   1.203   2.530 -1.1338  0.7366  2.1865
  248SOL     MW  992   0.423   1.203   2.471 -0.3502 -0.3161  0.9397
  249SOL     OW  993   0.196   1.850   2.713 -0.0337 -0.0702 -0.2025
  249SOL    HW1  994   0.138   1.772   2.695 -0.8397  0.8996 -0.1289
  249SOL    HW2  995   0.202   1.857   2.808  0.0594  2.6022  0.0505
  249SOL     MW  996   0.189   1.841   2.723 -0.1278  0.4103 -0.1594
  250SOL     OW  997   2.161   0.888   2.349 -0.5022 -0.1686  0.0204
  250SOL    HW1  998   2.205   0.796   2.369  1.8695 -2.4795  3.8009
  250SOL    HW2  999   2.212   0.944   2.413  0.0305 -0.3300 -0.7021
  250SOL     MW 1000   2.174   0.883   2.360 -0.1190 -0.4948  0.4239
  251SOL     OW 1001   0.191   0.809   2.002  0.4077 -0.5158  0.3784
  251SOL    HW1 1002   0.194   0.722   2.032  2.0369 -2.0218 -0.0936
  251SOL    HW2 1003   0.213   0.801   1.906  2.7172 -1.3441 -0.6037
  251SOL     MW 1004   0.194   0.797   1.994  0.9273 -0.8238  0.1866
  252SOL     OW 1005   1.707   1.014   2.827 -0.0067 -0.3843  0.0202
  252SOL    HW1 1006   1.710   1.095   2.881 -1.2360  0.6193  1.7184
  252SOL    HW2 1007   1.764   1.024   2.753 -1.1547  1.8728 -0.1414
  252SOL     MW 1008   1.715   1.026   2.825 -0.3203  0.0459  0.2229
  253SOL     OW 1009   1.159   1.731   2.535 -0.0333 -0.2014 -0.2552
  253SOL    HW1 1010   1.157   1.767   2.442  0.5142 -0.3555 -1.3295
  253SOL    HW2 1011   1.069   1.748   2.570  3.1520 -0.7839 -0.3616
  253SOL     MW 1012   1.147   1.738   2.527  0.4592 -0.2986 -0.4110
  254SOL     OW 1013   1.052   1.056   2.265  0.3737  0.7777 -0.9143
  254SOL    HW1 1014   1.012   0.976   2.227  1.0351  0.6564 -1.6483
  254SOL    HW2 1015   0.994   1.125   2.241  2.0720 -0.1768 -2.2527
  254SOL     MW 1016   1.039   1.054   2.257  0.6851  0.6358 -1.1878
  255SOL     OW 1017   0.810   2.426   2.213  0.6093  0.2932 -0.0535
  255SOL    HW1 1018   0.735   2.382   2.249 -1.1763  2.1353  1.6074
  255SOL    HW2 1019   0.858   2.468   2.287  0.9685 -0.1592 -0.1389
  255SOL     MW 1020   0.807   2.426   2.227  0.4211  0.4766  0.1544
  256SOL     OW 1021   1.145   2.823   2.904 -0.4312 -0.5200 -0.8458
  256SOL    HW1 1022   1.161   2.732   2.918 -1.1606  0.5915 -0.3903
  256SOL    HW2 1023   1.226   2.855   2.851  1.0196  3.5584 -0.5004
  256SOL     MW 1024   1.158   2.815   2.899 -0.3360  0.1647 -0.7402
  257SOL     OW 1025   0.127   1.869   0.100  0.1408  0.2396  0.3190
  257SOL    HW1 1026   0.149   1.815   0.178  2.6839  2.0188 -3.3269
  257SOL    HW2 1027   0.121   1.805   0.028  1.4399  1.8474  0.7762
  257SOL     MW 1028   0.129   1.853   0.101  0.6477  0.6865 -0.1017
  258SOL     OW 1029   0.687   1.093   2.461  0.6547  0.2489  0.6471
  258SOL    HW1 1030   0.727   1.139   2.390 -3.4910  3.6522  1.8329
  258SOL    HW2 1031   0.601   1.147   2.466 -0.9939  0.3478  0.8877
  258SOL     MW 1032   0.681   1.106   2.453 -0.1098  0.7110  0.8353
  259SOL     OW 1033   0.703   0.493   2.403  0.0696  0.1058 -0.2934
  259SOL    HW1 1034   0.625   0.554   2.397 -0.5331 -0.5701 -4.2039
  259SOL    HW2 1035   0.674   0.415   2.354 -0.9064  2.1222 -1.3388
  259SOL     MW 1036   0.689   0.491   2.396 -0.1387  0.2826 -0.9473
  260SOL     OW 1037   0.582   0.115   1.605  0.2295  0.2753  0.0083
  260SOL    HW1 1038   0.531   0.111   1.521 -0.8946  0.8487  0.4287
  260SOL    HW2 1039   0.672   0.122   1.574 -0.1237 -0.2422  0.8390
  260SOL     MW 1040   0.587   0.115   1.590  0.0346  0.2826  0.1734
  261SOL     OW 1041   1.140   0.711   2.096  0.3837  0.9815 -0.7794
  261SOL    HW1 1042   1.143   0.689   2.189 -1.2891  0.0639 -2.1278
  261SOL    HW2 1043   1.180   0.638   2.052  0.0249 -1.1076 -0.4397
  261SOL     MW 1044   1.146   0.698   2.102  0.1157  0.5848 -0.9125
  262SOL     OW 1045   1.141   0.335   0.071 -0.0229 -0.6892  0.1420
  262SOL    HW1 1046   1.233   0.325   0.083  0.4854 -0.3507 -1.3934
  262SOL    HW2 1047   1.102   0.247   0.063  1.3993  0.4452  0.6228
  262SOL     MW 1048   1.148   0.322   0.072  0.2318 -0.4949  0.0029
  263SOL     OW 1049   0.460   3.027   2.549 -0.0352 -0.1483 -0.6342
  263SOL    HW1 1050   0.376   3.073   2.541 -0.1852  2.1595  0.4529
  263SOL    HW2 1051   0.498   3.013   2.464  0.0156 -0.7878  0.1937
  263SOL     MW 1052   0.454   3.031   2.537 -0.0483  0.0718 -0.3815
  264SOL     OW 1053   1.541   1.360   1.932  0.0275 -0.7716 -0.0346
  264SOL    HW1 1054   1.471   1.368   1.992  0.1551  0.7109 -1.3980
  264SOL    HW2 1055   1.615   1.378   1.993  0.0638  2.0365 -0.7406
  264SOL     MW 1056   1.541   1.364   1.948  0.0491 -0.2055 -0.3077
  265SOL     OW 1057   0.692   2.669   2.252 -0.0135 -0.7658  0.3706
  265SOL    HW1 1058   0.711   2.579   2.212  0.3478 -4.5578  0.8276
  265SOL    HW2 1059   0.726   2.670   2.336 -3.6833 -1.2443 -0.4776
  265SOL     MW 1060   0.699   2.657   2.258 -0.4500 -1.3293  0.3190
  266SOL     OW 1061   0.877   0.802   2.209 -0.0858 -0.5314 -0.3035
  266SOL    HW1 1062   0.894   0.731   2.146  1.0018  1.3023  0.1795
  266SOL    HW2 1063   0.901   0.761   2.292  0.1900  3.1049 -0.9430
  266SOL     MW 1064   0.883   0.787   2.212  0.0941  0.1903 -0.3241
  267SOL     OW 1065   1.387   1.776   2.692  0.0960 -0.4337  0.2269
  267SOL    HW1 1066   1.448   1.726   2.638  1.0574 -2.4248 -3.1682
  267SOL    HW2 1067   1.306   1.765   2.639 -2.3611 -0.7711 -0.2826
  267SOL     MW 1068   1.385   1.768   2.678 -0.1013 -0.7409 -0.2883
  268SOL     OW 1069   0.214   0.759   1.734  0.3718  0.3043  0.4230
  268SOL    HW1 1070   0.151   0.813   1.683  0.4688 -2.0070 -2.1764
  268SOL    HW2 1071   0.235   0.678   1.683 -2.3718  3.6948  1.9779
  268SOL     MW 1072   0.209   0.755   1.721  0.0226  0.4467  0.2852
  269SOL     OW 1073   1.399   1.971   2.467 -0.6570  0.0672  0.2235
  269SOL    HW1 1074   1.366   1.936   2.551 -3.0675 -5.3674  0.8386
  269SOL    HW2 1075   1.330   2.019   2.427 -3.8919  2.5206 -0.0454
  269SOL     MW 1076   1.385   1.972   2.473 -1.4019 -0.3261  0.2692
  270SOL     OW 1077   1.153   0.413   1.581  0.5634 -0.3900  0.0289
  270SOL    HW1 1078   1.153   0.328   1.625  1.0076 -1.6781  1.8557
  270SOL    HW2 1079   1.244   0.424   1.563 -0.1377  0.6787 -0.7967
  270SOL     MW 1080   1.165   0.403   1.584  0.5295 -0.4189  0.1610
  271SOL     OW 1081   0.826   3.050   2.397 -0.0372 -0.5950  0.1936
  271SOL    HW1 1082   0.878   2.989   2.445 -0.9021 -0.3313  0.3507
  271SOL    HW2 1083   0.888   3.116   2.370 -0.3080  0.6966 -0.4411
  271SOL     MW 1084   0.841   3.051   2.400 -0.1870 -0.3898  0.1306
  272SOL     OW 1085   1.400   2.917   2.848  0.3185 -0.5322 -0.1842
  272SOL    HW1 1086   1.370   2.970   2.770  0.2223  0.4241 -3.1098
  272SOL    HW2 1087   1.435   2.980   2.909  1.1766  1.3561 -0.3523
  272SOL     MW 1088   1.400   2.932   2.846  0.4190 -0.1569 -0.5924
  273SOL     OW 1089   1.431   0.945   2.874  0.1235 -0.4435 -0.2514
  273SOL    HW1 1090   1.521   0.960   2.856 -0.4634  2.0965  0.2740
  273SOL    HW2 1091   1.391   1.026   2.903  0.8902 -0.2299 -1.0092
  273SOL     MW 1092   1.438   0.957   2.875  0.1472 -0.0802 -0.2821
  274SOL     OW 1093   1.340   0.752   0.186  0.4943 -0.0559  0.2383
  274SOL    HW1 1094   1.408   0.691   0.218  2.5354 -1.1123 -0.0917
  274SOL    HW2 1095   1.261   0.720   0.232 -1.4836 -0.8500  0.9621
  274SOL     MW 1096   1.339   0.740   0.196  0.5026 -0.3000  0.2903
  275SOL     OW 1097   1.718   0.698   1.835  0.5725 -0.6542  0.2908
  275SOL    HW1 1098   1.801   0.715   1.886  0.1408 -1.2483 -0.7889
  275SOL    HW2 1099   1.710   0.604   1.831 -1.6431  1.2317 -0.3285
  275SOL     MW 1100   1.728   0.688   1.841  0.2232 -0.4837  0.0667
  276SOL     OW 1101   0.233   1.209   1.797  0.3529  0.2930  0.2714
  276SOL    HW1 1102   0.278   1.133   1.833 -2.6993 -0.8169  1.5812
  276SOL    HW2 1103   0.163   1.220   1.858  1.5195  0.0632 -1.8787
  276SOL     MW 1104   0.229   1.200   1.809  0.1041  0.1163  0.1605
  277SOL     OW 1105   1.934   1.353   2.623 -0.0175 -0.1732 -0.3058
  277SOL    HW1 1106   1.988   1.425   2.653  3.7903 -1.0926  1.2941
  277SOL    HW2 1107   1.986   1.284   2.599 -0.7285  1.2657  0.4505
  277SOL     MW 1108   1.948   1.354   2.624  0.3911 -0.1046  0.0051
  278SOL     OW 1109   1.438   0.723   1.730 -0.1712  0.5366  0.4202
  278SOL    HW1 1110   1.403   0.648   1.781  1.0731 -0.7063 -1.1294
  278SOL    HW2 1111   1.518   0.736   1.785  0.6460  1.6034 -1.4884
  278SOL     MW 1112   1.444   0.715   1.744  0.1008  0.5133 -0.0360
  279SOL     OW 1113   0.560   3.085   2.232 -0.3501  0.9809 -0.1524
  279SOL    HW1 1114   0.642   3.066   2.188 -1.9019 -3.9097 -1.3436
  279SOL    HW2 1115   0.570   3.180   2.253 -1.8017  0.6038 -0.2496
  279SOL     MW 1116   0.572   3.095   2.229 -0.7463  0.2859 -0.3224
  280SOL     OW 1117   1.490   1.155   2.207 -0.2174 -0.1965 -0.1302
  280SOL    HW1 1118   1.499   1.071   2.161 -1.4556  0.1288 -0.7023
  280SOL    HW2 1119   1.521   1.138   2.297 -2.2080 -0.2695  3.7946
  280SOL     MW 1120   1.495   1.142   2.213 -0.6434 -0.1632  0.3121
  281SOL     OW 1121   1.281   1.366   2.817  0.2629 -0.4433 -0.2015
  281SOL    HW1 1122   1.370   1.398   2.792 -0.4009  0.5282  0.2391
  281SOL    HW2 1123   1.291   1.281   2.864 -0.4363 -1.8137  1.8935
  281SOL     MW 1124   1.294   1.359   2.820  0.0831 -0.4959  0.1331
  282SOL     OW 1125   1.137   1.307   1.687 -0.1568 -0.5521 -0.1750
  282SOL    HW1 1126   1.134   1.357   1.601  1.2339 -0.1942 -0.5525
  282SOL    HW2 1127   1.049   1.279   1.707 -0.2112  2.1275  1.5819
  282SOL     MW 1128   1.125   1.310   1.678  0.0195 -0.1513  0.0070
  283SOL     OW 1129   0.691   1.263   3.042 -0.3911  0.5966 -0.2489
  283SOL    HW1 1130   0.783   1.258   3.027 -0.3279  1.4513  2.0499
  283SOL    HW2 1131   0.679   1.345   3.082  1.9959 -0.7965 -1.3046
  283SOL     MW 1132   0.702   1.273   3.046 -0.0678  0.5256 -0.0849
  284SOL     OW 1133   0.461   0.636   2.356  0.6679  0.3761  0.1221
  284SOL    HW1 1134   0.494   0.709   2.307 -1.8846  0.3745  2.0240
  284SOL    HW2 1135   0.484   0.567   2.291  1.1584  2.1994  2.8447
  284SOL     MW 1136   0.469   0.636   2.341  0.3959  0.6164  0.7322
  285SOL     OW 1137   0.862   0.983   2.879 -0.0204 -0.0331  0.3878
  285SOL    HW1 1138   0.903   1.007   2.797 -0.1070 -1.7300 -2.9710
  285SOL    HW2 1139   0.847   0.891   2.844  0.0021  1.4508 -1.4947
  285SOL     MW 1140   0.865   0.974   2.864 -0.0288 -0.0612 -0.3038
  286SOL     OW 1141   1.169   1.454   2.588 -0.3108  0.3419 -0.0135
  286SOL    HW1 1142   1.203   1.417   2.667 -0.6680  0.2830 -3.3372
  286SOL    HW2 1143   1.164   1.551   2.598  1.9572  1.0059  2.4359
  286SOL     MW 1144   1.173   1.462   2.599 -0.0587  0.4217 -0.1288
  287SOL     OW 1145   1.033   0.934   0.349 -0.2923 -0.1436 -0.3108
  287SOL    HW1 1146   1.109   0.964   0.403 -1.5905 -1.2820 -0.8456
  287SOL    HW2 1147   0.993   1.007   0.296  1.5891 -0.7415  0.4807
  287SOL     MW 1148   1.038   0.948   0.349 -0.2154 -0.3727 -0.2770
  288SOL     OW 1149   1.533   0.652   2.109  0.4598 -0.3936 -0.4819
  288SOL    HW1 1150   1.492   0.661   2.203  0.5749  0.2172 -2.0285
  288SOL    HW2 1151   1.517   0.739   2.067  3.0468  2.3138  1.6755
  288SOL     MW 1152   1.525   0.665   2.116  0.8164  0.0442 -0.4013
  289SOL     OW 1153   0.946   1.053   2.626  0.5064 -0.8050 -0.1346
  289SOL    HW1 1154   1.004   1.004   2.576 -0.1767  0.0596  2.6151
  289SOL    HW2 1155   0.856   1.044   2.592 -0.9190 -1.7535 -0.9797
  289SOL     MW 1156   0.942   1.046   2.615  0.2282 -0.8161  0.1167
  290SOL     OW 1157   0.857   0.564   1.503 -0.1862 -0.0005 -0.2259
  290SOL    HW1 1158   0.912   0.519   1.439  0.9960  0.1722 -1.4012
  290SOL    HW2 1159   0.899   0.576   1.588  1.0292  1.5286 -1.0266
  290SOL     MW 1160   0.870   0.560   1.506  0.1301  0.2240 -0.4866
  291SOL     OW 1161   0.164   0.328   0.226 -0.3936 -0.1924  0.3419
  291SOL    HW1 1162   0.240   0.271   0.200  0.7106  0.4456 -1.5821
  291SOL    HW2 1163   0.090   0.293   0.174  0.5338 -1.2366 -2.4965
  291SOL     MW 1164   0.164   0.316   0.216 -0.1256 -0.2460 -0.2865
  292SOL     OW 1165   0.971   0.557   0.107 -0.0940 -0.3849 -0.5987
  292SOL    HW1 1166   1.023   0.598   0.178 -2.6358 -0.7794  0.1254
  292SOL    HW2 1167   1.027   0.489   0.074  0.0915  0.6276  1.2162
  292SOL     MW 1168   0.985   0.554   0.112 -0.4049 -0.3034 -0.2637
  293SOL     OW 1169   0.241   0.080   2.498 -0.1820  0.5099 -0.3198
  293SOL    HW1 1170   0.169   0.059   2.439 -0.6930 -0.1001  0.5796
  293SOL    HW2 1171   0.204   0.119   2.578 -2.3714  1.4022 -0.0350
  293SOL     MW 1172   0.227   0.082   2.501 -0.5383  0.5472 -0.1635
  294SOL     OW 1173   1.473   0.646   2.381  0.6934  0.6190 -0.2763
  294SOL    HW1 1174   1.503   0.697   2.466 -0.3749  2.6158  2.1792
  294SOL    HW2 1175   1.480   0.549   2.407  0.2759  0.9997  2.3230
  294SOL     MW 1176   1.478   0.640   2.395  0.4973  0.9327  0.3907
  295SOL     OW 1177   0.874   0.682   2.514  0.3682  0.3719  0.2988
  295SOL    HW1 1178   0.822   0.616   2.473  0.8020 -0.7201 -0.7583
  295SOL    HW2 1179   0.817   0.694   2.597  0.8464  3.3563  0.5425
  295SOL     MW 1180   0.860   0.675   2.519  0.4886  0.6216  0.1915
  296SOL     OW 1181   1.321   0.293   2.081 -0.4493 -0.4881  0.2220
  296SOL    HW1 1182   1.415   0.252   2.069  1.3539 -3.0219 -2.5446
  296SOL    HW2 1183   1.288   0.262   2.168 -0.6328 -1.6616  1.7282
  296SOL     MW 1184   1.329   0.284   2.091 -0.2356 -0.9772  0.0557
  297SOL     OW 1185   1.429   0.429   1.529 -0.2123  0.0610  0.4902
  297SOL    HW1 1186   1.453   0.514   1.493 -2.3874 -1.2128 -0.4114
  297SOL    HW2 1187   1.494   0.401   1.594 -1.0164 -1.1343  2.6430
  297SOL     MW 1188   1.441   0.437   1.533 -0.6054 -0.2648  0.6553
  298SOL     OW 1189   1.499   0.913   2.048 -0.4978  0.4463 -0.2642
  298SOL    HW1 1190   1.517   0.969   1.971  0.7852 -0.9672  0.1078
  298SOL    HW2 1191   1.586   0.890   2.091  0.6803 -1.0600 -1.3636
  298SOL     MW 1192   1.513   0.917   2.044 -0.1731  0.0611 -0.3602
  299SOL     OW 1193   0.511   1.085   3.105 -0.6323  0.1840  0.0716
  299SOL    HW1 1194   0.589   1.147   3.094  3.5465  0.6719 -3.4678
  299SOL    HW2 1195   0.495   1.072   3.010  0.3236 -0.2009  2.0081
  299SOL     MW 1196   0.519   1.091   3.091  0.0452  0.1976 -0.1399
  300SOL     OW 1197   1.265   1.154   2.514  0.0637 -0.1372 -0.1080
  300SOL    HW1 1198   1.234   1.069   2.494  0.8319  3.9443  0.3234
  300SOL    HW2 1199   1.211   1.198   2.582  1.3973  1.4531  0.5809
  300SOL     MW 1200   1.254   1.148   2.520  0.3410  0.6111  0.0398
  301SOL     OW 1201   1.357   0.754   0.582  0.0930  0.8428 -0.1854
  301SOL    HW1 1202   1.399   0.727   0.665 -1.8707 -0.0231 -0.0320
  301SOL    HW2 1203   1.267   0.759   0.624  1.0292  3.0740 -0.0903
  301SOL     MW 1204   1.350   0.751   0.598 -0.0426  1.0230 -0.1526
  302SOL     OW 1205   0.123   1.472   1.987 -0.1605  0.1849  0.2656
  302SOL    HW1 1206   0.102   1.401   2.045 -3.8817  1.2809 -0.6836
  302SOL    HW2 1207   0.057   1.538   1.992  2.2023  2.0998  0.6663
  302SOL     MW 1208   0.112   1.471   1.995 -0.3398  0.5821  0.1932
  303SOL     OW 1209   0.396   1.761   2.558 -0.0117 -0.0201 -0.1158
  303SOL    HW1 1210   0.367   1.723   2.478  0.7045  1.2052  0.0564
  303SOL    HW2 1211   0.321   1.802   2.596  3.0710 -1.6416  0.3900
  303SOL     MW 1212   0.383   1.762   2.553  0.4896 -0.0723 -0.0263
  304SOL     OW 1213   0.606   2.090   2.422  0.4105  0.1341  0.2528
  304SOL    HW1 1214   0.617   2.183   2.409  4.1490 -0.7206 -0.3523
  304SOL    HW2 1215   0.686   2.050   2.404 -0.1099  1.3548 -1.7974
  304SOL     MW 1216   0.618   2.097   2.418  0.8351  0.1824 -0.0975
  305SOL     OW 1217   1.130   0.542   0.541  0.0433 -0.5301  0.0579
  305SOL    HW1 1218   1.032   0.531   0.543 -3.3247  1.8668  0.3470
  305SOL    HW2 1219   1.169   0.451   0.541 -2.8020 -3.4885 -2.4353
  305SOL     MW 1220   1.123   0.528   0.541 -0.7765 -0.6042 -0.2329
  306SOL     OW 1221   1.222   1.456   0.325 -0.4039  0.3121  0.3141
  306SOL    HW1 1222   1.255   1.370   0.353 -0.5795 -1.0382 -1.3495
  306SOL    HW2 1223   1.251   1.465   0.235 -1.8813  1.1367  4.6701
  306SOL     MW 1224   1.230   1.446   0.317 -0.6220  0.2427  0.6693
  307SOL     OW 1225   1.318   0.546   1.943  0.5581 -0.3756 -0.1891
  307SOL    HW1 1226   1.294   0.457   1.931 -3.2737  3.6369  0.3177
  307SOL    HW2 1227   1.392   0.551   2.006 -0.8246 -0.2335  0.1825
  307SOL     MW 1228   1.324   0.535   1.949 -0.1299  0.1726 -0.0732
  308SOL     OW 1229   2.112   0.641   2.661 -0.7268 -0.3380 -0.7353
  308SOL    HW1 1230   2.122   0.590   2.736  3.7966  1.7392  0.8430
  308SOL    HW2 1231   2.153   0.722   2.699 -0.9466  2.3652  1.1528
  308SOL     MW 1232   2.119   0.645   2.676 -0.1590  0.2927 -0.2780
  309SOL     OW 1233   0.604   0.503   0.430  0.5141 -0.7471 -0.3620
  309SOL    HW1 1234   0.622   0.421   0.470 -1.0381 -0.5521 -0.3541
  309SOL    HW2 1235   0.592   0.475   0.340 -0.0097 -1.1205  0.5533
  309SOL     MW 1236   0.604   0.488   0.424  0.2402 -0.7706 -0.2402
  310SOL     OW 1237   0.455   0.498   1.930 -0.1135  0.5529  0.4184
  310SOL    HW1 1238   0.511   0.420   1.897 -0.6704  0.8559 -2.3001
  310SOL    HW2 1239   0.509   0.575   1.914  0.1490 -1.2472 -2.6171
  310SOL     MW 1240   0.470   0.498   1.923 -0.1523  0.3554 -0.3408
  311SOL     OW 1241   1.921   0.771   1.987 -0.3142 -0.4801 -0.2654
  311SOL    HW1 1242   1.845   0.784   2.052 -0.6011  1.0799  1.2795
  311SOL    HW2 1243   1.962   0.686   1.989 -0.6027 -0.2801  0.5497
  311SOL     MW 1244   1.917   0.761   1.996 -0.3901 -0.2479  0.0460
  312SOL     OW 1245   1.777   2.525   0.023  0.0162 -0.4331  0.2810
  312SOL    HW1 1246   1.810   2.524   0.112 -0.1131  3.0140  1.4043
  312SOL    HW2 1247   1.680   2.524   0.039  2.8349  2.5435  2.6778
  312SOL     MW 1248   1.769   2.525   0.037  0.3711  0.4144  0.7455
  313SOL     OW 1249   0.094   1.216   2.936 -0.1748 -0.5408 -0.1896
  313SOL    HW1 1250   0.170   1.171   2.967 -0.1716 -0.9717  1.1088
  313SOL    HW2 1251   0.111   1.229   2.844 -1.2913 -1.9787  0.8411
  313SOL     MW 1252   0.107   1.212   2.928 -0.3217 -0.7874  0.1177
  314SOL     OW 1253   2.135   3.015   2.976  0.0629 -0.1596  0.0182
  314SOL    HW1 1254   2.088   3.086   2.927  0.9849 -0.0772  1.8810
  314SOL    HW2 1255   2.183   3.051   3.045 -1.1511  0.6314 -0.6399
  314SOL     MW 1256   2.135   3.029   2.979  0.0244 -0.0443  0.1772
  315SOL     OW 1257   1.550   1.949   3.035 -0.2370  0.3403  0.0349
  315SOL    HW1 1258   1.486   1.994   3.095  2.3721 -2.0780 -0.7525
  315SOL    HW2 1259   1.586   2.027   2.978 -1.0185  1.4718 -2.2551
  315SOL     MW 1260   1.547   1.965   3.035  0.0042  0.1705 -0.3711
  316SOL     OW 1261   1.255   0.651   2.727  0.0359  0.4284 -0.5924
  316SOL    HW1 1262   1.332   0.623   2.777  1.7022  0.4384  1.1691
  316SOL    HW2 1263   1.183   0.609   2.774 -1.7550 -3.2846 -0.3142
  316SOL     MW 1264   1.255   0.641   2.740  0.0194 -0.0602 -0.3233
  317SOL     OW 1265   0.666   1.424   2.636 -0.2262 -0.3701  0.5425
  317SOL    HW1 1266   0.686   1.354   2.696  0.2195  2.6402  1.3776
  317SOL    HW2 1267   0.730   1.424   2.570  3.3156  0.4372 -0.5968
  317SOL     MW 1268   0.677   1.415   2.635  0.2999  0.1336  0.5023
  318SOL     OW 1269   1.328   0.346   2.889  0.6824 -0.0823 -0.4327
  318SOL    HW1 1270   1.238   0.392   2.894 -0.4354  2.7814 -0.0597
  318SOL    HW2 1271   1.383   0.416   2.858 -0.7289  1.5256 -1.7530
  318SOL     MW 1272   1.323   0.361   2.886  0.3487  0.5077 -0.5577
  319SOL     OW 1273   0.809   0.430   2.808 -0.5400  0.1603  0.9306
  319SOL    HW1 1274   0.790   0.393   2.719 -0.2835  0.6272 -0.0304
  319SOL    HW2 1275   0.738   0.392   2.864 -0.2915  0.0032  1.7345
  319SOL     MW 1276   0.797   0.420   2.804 -0.4734  0.2012  0.9098
  320SOL     OW 1277   1.028   1.333   2.059  0.1540 -0.1548  0.9076
  320SOL    HW1 1278   1.106   1.286   2.103 -0.3589 -1.4230  1.4957
  320SOL    HW2 1279   1.078   1.406   2.018  0.1700 -1.8205  1.4435
  320SOL     MW 1280   1.045   1.337   2.060  0.0885 -0.5419  1.0559
  321SOL     OW 1281   1.078   0.949   3.022 -0.9052 -0.2577  0.0720
  321SOL    HW1 1282   0.997   0.953   2.966 -1.8792 -1.0002 -1.1275
  321SOL    HW2 1283   1.110   0.859   3.023  0.7860  0.6981  3.0057
  321SOL     MW 1284   1.071   0.938   3.015 -0.8105 -0.2296  0.3008
  322SOL     OW 1285   1.202   0.832   1.729  0.0846  0.6768  0.2995
  322SOL    HW1 1286   1.287   0.785   1.742  0.8192 -1.3849 -1.9911
  322SOL    HW2 1287   1.162   0.860   1.813 -0.4546 -0.7104  0.0969
  322SOL     MW 1288   1.208   0.830   1.742  0.1104  0.2217 -0.0295
  323SOL     OW 1289   1.163   1.509   1.884  0.0775  0.3486 -0.5409
  323SOL    HW1 1290   1.170   1.437   1.823 -1.2521  3.3073  3.1156
  323SOL    HW2 1291   1.095   1.572   1.844 -1.1913  0.6834  0.4801
  323SOL     MW 1292   1.155   1.508   1.871 -0.2653  0.7832  0.0762
  324SOL     OW 1293   1.519   1.081   2.493  0.2885 -0.2834  0.0144
  324SOL    HW1 1294   1.423   1.104   2.506  2.5672  0.1092 -1.7850
  324SOL    HW2 1295   1.572   1.148   2.537 -3.3503 -1.7831 -2.0382
  324SOL     MW 1296   1.513   1.093   2.501  0.1091 -0.4295 -0.4938
  325SOL     OW 1297   1.097   0.495   2.880 -0.1022 -0.0497  0.3448
  325SOL    HW1 1298   1.116   0.544   2.956  1.7747  0.2307 -2.2661
  325SOL    HW2 1299   1.002   0.496   2.880 -1.2721  0.8727  1.4698
  325SOL     MW 1300   1.087   0.502   2.890 -0.0089  0.1090  0.1487
  326SOL     OW 1301   0.433   1.330   2.220  0.2433  0.0632  0.1371
  326SOL    HW1 1302   0.480   1.293   2.144 -1.0581  1.1623 -0.5617
  326SOL    HW2 1303   0.468   1.417   2.219  0.0855  0.5194 -2.2290
  326SOL     MW 1304   0.444   1.336   2.210  0.0507  0.2684 -0.2673
  327SOL     OW 1305   1.896   0.904   2.410  0.1262  0.5428 -0.6211
  327SOL    HW1 1306   1.890   0.832   2.467 -0.9482 -1.5434 -2.1879
  327SOL    HW2 1307   1.989   0.900   2.383  2.0296 -0.7649  0.3972
  327SOL     MW 1308   1.907   0.894   2.414  0.2355  0.0950 -0.6935
  328SOL     OW 1309   0.144   1.279   2.219  0.6650 -0.9984  0.3266
  328SOL    HW1 1310   0.125   1.199   2.169  0.0364  1.3743  0.2236
  328SOL    HW2 1311   0.238   1.287   2.215  0.6947 -0.1420 -1.6214
  328SOL     MW 1312   0.154   1.270   2.212  0.5860 -0.5723  0.0560
  329SOL     OW 1313   0.138   0.167   1.385  0.2246 -0.6925  0.2017
  329SOL    HW1 1314   0.104   0.232   1.439 -1.4961  0.9682  0.7641
  329SOL    HW2 1315   0.214   0.213   1.350 -2.9934 -0.2410  1.3796
  329SOL     MW 1316   0.144   0.182   1.387 -0.4270 -0.4138  0.4313
  330SOL     OW 1317   0.386   2.970   2.043 -0.1963  0.1128 -0.2156
  330SOL    HW1 1318   0.459   2.992   2.101 -2.7157 -2.2427  0.9317
  330SOL    HW2 1319   0.315   2.972   2.098  1.9511 -1.6532  0.2387
  330SOL     MW 1320   0.386   2.973   2.058 -0.2454 -0.4310 -0.0043
  331SOL     OW 1321   0.824   1.227   2.268  0.0753  0.2302 -0.9979
  331SOL    HW1 1322   0.795   1.291   2.209 -2.4074  2.6569  1.5621
  331SOL    HW2 1323   0.869   1.281   2.334 -0.2566  0.5215 -1.8063
  331SOL     MW 1324   0.826   1.243   2.269 -0.2961  0.5888 -0.7668
  332SOL     OW 1325   1.355   1.777   2.979  0.1295 -0.3367 -0.1279
  332SOL    HW1 1326   1.379   1.769   2.886 -1.6964 -0.9898 -0.1268
  332SOL    HW2 1327   1.415   1.847   3.008  0.7473  1.8285  0.4377
  332SOL     MW 1328   1.366   1.785   2.970 -0.0299 -0.1372 -0.0531
  333SOL     OW 1329   1.717   1.475   2.997  0.0265 -0.4702 -0.1288
  333SOL    HW1 1330   1.806   1.470   3.034  3.2251 -1.6837 -1.6048
  333SOL    HW2 1331   1.661   1.438   3.063  0.5918  2.1142  1.4146
  333SOL     MW 1332   1.721   1.470   3.010  0.5231 -0.2893 -0.1199
  334SOL     OW 1333   1.268   3.076   2.639  0.4924 -0.5682  0.5429
  334SOL    HW1 1334   1.186   3.071   2.687  2.8653 -3.0460 -1.6922
  334SOL    HW2 1335   1.301   3.168   2.643  0.8838  1.7219 -1.9030
  334SOL     MW 1336   1.261   3.087   2.645  0.8571 -0.5930 -0.0747
  335SOL     OW 1337   1.268   0.741   3.018  0.2054  0.2508  1.2324
  335SOL    HW1 1338   1.292   0.775   3.106  1.0933 -0.0845  2.2883
  335SOL    HW2 1339   1.322   0.796   2.966 -1.4130  1.7940 -0.7470
  335SOL     MW 1340   1.278   0.753   3.023  0.1090  0.4102  1.1106
  336SOL     OW 1341   0.917   1.121   1.900  0.4527 -0.7439  0.0928
  336SOL    HW1 1342   0.935   1.198   1.948 -1.3947 -1.9124  2.7079
  336SOL    HW2 1343   0.973   1.051   1.940 -0.7033 -0.7108  4.0833
  336SOL     MW 1344   0.927   1.122   1.912  0.0564 -0.8937  0.9644
  337SOL     OW 1345   0.518   1.777   2.840 -0.6360  0.3443  0.2693
  337SOL    HW1 1346   0.474   1.798   2.761 -3.0816 -2.1844  0.3679
  337SOL    HW2 1347   0.601   1.728   2.817  0.0030  4.4086 -1.3570
  337SOL     MW 1348   0.523   1.773   2.827 -0.8744  0.5469  0.0677
  338SOL     OW 1349   1.117   0.835   2.552  0.2970  0.4829  0.3893
  338SOL    HW1 1350   1.045   0.774   2.566  1.9789  1.4978  1.9979
  338SOL    HW2 1351   1.191   0.785   2.583  0.4825 -3.2149 -1.2848
  338SOL     MW 1352   1.117   0.820   2.558  0.5434  0.1289  0.3807
  339SOL     OW 1353   1.585   1.061   1.837  0.1982 -0.3646  0.0288
  339SOL    HW1 1354   1.505   1.060   1.781  2.0669 -2.6749  0.2997
  339SOL    HW2 1355   1.579   1.147   1.883 -1.0745  3.0725 -1.1384
  339SOL     MW 1356   1.573   1.072   1.836  0.2768 -0.2159 -0.0894
  340SOL     OW 1357   1.348   1.587   0.108  0.1961 -0.4853 -0.1415
  340SOL    HW1 1358   1.393   1.638   0.037  0.8054  1.7676 -0.4620
  340SOL    HW2 1359   1.413   1.565   0.173  1.9997  0.1939 -0.0881
  340SOL     MW 1360   1.363   1.591   0.107  0.5145 -0.0984 -0.1768
  341SOL     OW 1361   0.143   1.307   2.694 -0.2494  0.1162  0.0642
  341SOL    HW1 1362   0.222   1.353   2.667  1.1592 -0.6299 -1.8829
  341SOL    HW2 1363   0.069   1.306   2.629 -0.4601  0.2236 -2.0099
  341SOL     MW 1364   0.144   1.313   2.682 -0.0913  0.0319 -0.4664
  342SOL     OW 1365   1.422   0.332   0.071  0.2848 -0.2546  0.3261
  342SOL    HW1 1366   1.444   0.414   0.122 -2.4694  0.9058 -1.1301
  342SOL    HW2 1367   1.398   0.357  -0.023 -0.2296 -1.1053  0.1928
  342SOL     MW 1368   1.422   0.346   0.065 -0.1464 -0.2137  0.1164
  343SOL     OW 1369   0.202   0.276   2.304  0.0507 -0.2673 -0.3367
  343SOL    HW1 1370   0.239   0.216   2.371 -2.7405 -1.2701 -1.4842
  343SOL    HW2 1371   0.145   0.227   2.238  0.9755  0.3042 -0.1553
  343SOL     MW 1372   0.199   0.262   2.304 -0.1955 -0.3242 -0.4642
  344SOL     OW 1373   1.700   2.085   0.200 -0.2641 -0.1290  0.5486
  344SOL    HW1 1374   1.697   2.146   0.128 -1.6657  1.6340  0.8588
  344SOL    HW2 1375   1.618   2.026   0.195 -0.6442 -2.1431 -0.9342
  344SOL     MW 1376   1.689   2.085   0.190 -0.4992 -0.1622  0.3939
  345SOL     OW 1377   0.670   1.607   2.350  0.1395 -0.3220  0.2145
  345SOL    HW1 1378   0.583   1.635   2.313  1.0476  0.7443  0.6089
  345SOL    HW2 1379   0.722   1.588   2.270  0.2572  2.3811 -0.3677
  345SOL     MW 1380   0.665   1.609   2.334  0.2749  0.1753  0.1897
  346SOL     OW 1381   1.678   1.079   0.012  0.0131  0.0251 -0.3761
  346SOL    HW1 1382   1.756   1.040   0.052  0.7111  0.8616  2.6116
  346SOL    HW2 1383   1.610   1.044   0.064  2.2539 -0.0535 -0.3140
  346SOL     MW 1384   1.679   1.069   0.024  0.4009  0.1251  0.0263
  347SOL     OW 1385   1.193   0.648   2.365 -0.0178  0.8033  0.0452
  347SOL    HW1 1386   1.293   0.640   2.382 -0.4434 -0.6044 -1.2540
  347SOL    HW2 1387   1.161   0.720   2.424  1.4238  2.8673  1.2982
  347SOL     MW 1388   1.202   0.657   2.375  0.1163  0.8899  0.0391
  348SOL     OW 1389   1.328   2.613   1.893 -0.2082 -0.0560 -0.0083
  348SOL    HW1 1390   1.380   2.534   1.892 -2.6385 -0.3086  0.2912
  348SOL    HW2 1391   1.380   2.673   1.937 -0.3894 -0.1565 -3.6044
  348SOL     MW 1392   1.341   2.610   1.899 -0.5528 -0.1026 -0.4433
  349SOL     OW 1393   1.379   0.222   2.658  0.2818  0.5224 -0.3863
  349SOL    HW1 1394   1.350   0.246   2.749 -0.1851 -0.6208  0.8453
  349SOL    HW2 1395   1.455   0.162   2.688 -3.1887 -2.2645  4.2356
  349SOL     MW 1396   1.385   0.217   2.674 -0.2377  0.0039  0.3860
  350SOL     OW 1397   1.840   0.678   2.630  0.6265 -0.1298  0.3851
  350SOL    HW1 1398   1.808   0.598   2.581  1.3594 -0.2984 -0.2207
  350SOL    HW2 1399   1.931   0.679   2.606  1.5261 -1.1855  0.3404
  350SOL     MW 1400   1.848   0.667   2.621  0.8419 -0.2914  0.2993
  351SOL     OW 1401   0.047   0.937   1.615  0.8725 -0.3633  0.3755
  351SOL    HW1 1402  -0.015   0.983   1.668  0.3344 -0.7744 -1.2027
  351SOL    HW2 1403   0.107   1.007   1.588  1.0670  0.4844 -0.0163
  351SOL     MW 1404   0.047   0.952   1.619  0.8271 -0.3057  0.1156
  352SOL     OW 1405   0.730   1.638   2.770  0.3039  0.3059 -0.1942
  352SOL    HW1 1406   0.757   1.616   2.859 -0.3065  0.8611  3.1891
  352SOL    HW2 1407   0.712   1.550   2.734  0.9507  0.8072 -0.6689
  352SOL     MW 1408   0.731   1.623   2.777  0.3087  0.4453  0.1895
  353SOL     OW 1409   2.998   2.415   2.726 -0.0279 -0.0506 -0.5836
  353SOL    HW1 1410   3.089   2.390   2.697  0.5366 -2.0179 -0.5319
  353SOL    HW2 1411   2.984   2.500   2.686  0.2774 -0.7518 -2.7365
  353SOL     MW 1412   3.008   2.423   2.717  0.0868 -0.4027 -0.8608
  354SOL     OW 1413   0.418   2.384   0.864  0.2691 -0.0451  0.2703
  354SOL    HW1 1414   0.444   2.363   0.951  0.6453 -0.5969 -1.7601
  354SOL    HW2 1415   0.329   2.347   0.854 -0.5211  2.2313  1.1680
  354SOL     MW 1416   0.409   2.376   0.874  0.2145  0.1824  0.1209
  355SOL     OW 1417   0.070   2.194   0.380  0.0819 -0.2257  0.5831
  355SOL    HW1 1418  -0.019   2.167   0.355 -0.2341  0.2560 -2.7444
  355SOL    HW2 1419   0.057   2.232   0.464 -0.9455 -1.1587  1.0654
  355SOL     MW 1420   0.057   2.196   0.388 -0.0954 -0.2853  0.2077
  356SOL     OW 1421   0.851   2.955   1.020  0.5068 -0.0937 -0.1370
  356SOL    HW1 1422   0.895   2.963   0.930  1.1115  0.5109 -1.7352
  356SOL    HW2 1423   0.778   2.897   0.999  1.7439  0.3182  1.6455
  356SOL     MW 1424   0.847   2.948   1.005  0.7498  0.0404 -0.1127
  357SOL     OW 1425   1.779   2.896   0.364 -0.2225 -0.6293  0.4680
  357SOL    HW1 1426   1.730   2.853   0.430  1.4921  1.1702 -2.2709
  357SOL    HW2 1427   1.867   2.859   0.349  1.2782 -0.6708 -0.2548
  357SOL     MW 1428   1.784   2.886   0.371  0.2017 -0.3973  0.0113
  358SOL     OW 1429   0.401   0.158   1.017  0.1784  0.1570  0.1840
  358SOL    HW1 1430   0.491   0.132   1.006  1.6009 -2.4615  2.6957
  358SOL    HW2 1431   0.366   0.175   0.934  2.4372 -0.7016 -1.1127
  358SOL     MW 1432   0.408   0.156   1.005  0.6641 -0.3017  0.3443
  359SOL     OW 1433   0.972   2.824   1.827  0.4375  0.3838 -0.2331
  359SOL    HW1 1434   1.005   2.744   1.865 -1.3416  4.1730  0.9231
  359SOL    HW2 1435   0.987   2.831   1.730 -1.8109 -1.4539 -1.0231
  359SOL     MW 1436   0.978   2.815   1.819 -0.0939  0.6413 -0.1848
  360SOL     OW 1437   0.617   2.783   0.987  0.2727  0.1727  0.8047
  360SOL    HW1 1438   0.642   2.734   0.910 -0.1559 -2.1998  1.5967
  360SOL    HW2 1439   0.584   2.720   1.057  1.8179 -1.1935 -1.7553
  360SOL     MW 1440   0.616   2.768   0.986  0.4201 -0.3206  0.5714
  361SOL     OW 1441   0.177   2.729   1.372  0.2073 -0.8003 -0.1358
  361SOL    HW1 1442   0.167   2.812   1.415  0.0089  0.1334 -0.1484
  361SOL    HW2 1443   0.271   2.711   1.384 -1.6852  4.1997  1.1730
  361SOL     MW 1444   0.188   2.737   1.380 -0.0686 -0.0174  0.0352
  362SOL     OW 1445   1.501   2.434   0.595 -0.0986 -0.3039  0.2920
  362SOL    HW1 1446   1.539   2.372   0.654  0.6642  1.3201  1.3439
  362SOL    HW2 1447   1.465   2.498   0.655  1.9214  0.1965 -2.7186
  362SOL     MW 1448   1.501   2.435   0.610  0.2685 -0.0236  0.0336
  363SOL     OW 1449   0.235   3.045   0.748  0.1457  0.2899  0.0718
  363SOL    HW1 1450   0.222   2.993   0.831  1.5646 -0.6409 -1.6805
  363SOL    HW2 1451   0.156   3.033   0.691  0.0428 -0.8969 -1.4947
  363SOL     MW 1452   0.223   3.037   0.752  0.3193  0.0105 -0.3661
  364SOL     OW 1453   0.681   0.177   0.176 -0.2895  0.0479  0.7605
  364SOL    HW1 1454   0.680   0.085   0.145  0.5309  0.2021 -0.3752
  364SOL    HW2 1455   0.595   0.217   0.179 -4.2764 -0.8545 -1.3855
  364SOL     MW 1456   0.670   0.170   0.172 -0.7073 -0.0508  0.3275
  365SOL     OW 1457   0.955   1.965   1.118 -0.2228 -0.0523 -0.2479
  365SOL    HW1 1458   0.925   2.049   1.081 -1.4030  1.6542 -0.3845
  365SOL    HW2 1459   0.914   1.900   1.061  0.3280  1.8402  2.2772
  365SOL     MW 1460   0.945   1.968   1.106 -0.3059  0.4225  0.0672
  366SOL     OW 1461   2.864   2.666   0.987  0.0816 -0.2916 -0.0404
  366SOL    HW1 1462   2.947   2.660   1.038 -3.8923 -0.3898 -0.2862
  366SOL    HW2 1463   2.894   2.674   0.896  1.3082  0.2560  3.2165
  366SOL     MW 1464   2.879   2.666   0.982 -0.2809 -0.2323  0.3569
  367SOL     OW 1465   1.274   2.853   0.875  0.0260 -0.3652  0.5325
  367SOL    HW1 1466   1.194   2.898   0.916  0.1388 -1.2145 -0.7067
  367SOL    HW2 1467   1.238   2.798   0.796  0.9801 -2.5112  0.6893
  367SOL     MW 1468   1.258   2.852   0.870  0.1668 -0.7604  0.3897
  368SOL     OW 1469   1.663   0.461   0.658 -0.4025  0.2788  0.1899
  368SOL    HW1 1470   1.730   0.406   0.621 -2.9446 -1.3553 -1.1998
  368SOL    HW2 1471   1.682   0.555   0.642  1.8623  1.7216 -0.8748
  368SOL     MW 1472   1.675   0.466   0.651 -0.4391  0.2535 -0.1339
  369SOL     OW 1473   0.129   2.475   1.734 -0.4996 -0.5425  0.1757
  369SOL    HW1 1474   0.214   2.432   1.759 -0.4108  2.0017  0.5926
  369SOL    HW2 1475   0.134   2.556   1.776 -0.2951 -1.2893 -1.1598
  369SOL     MW 1476   0.141   2.480   1.743 -0.4609 -0.3054  0.0545
  370SOL     OW 1477   0.671   0.109   0.970  0.3595  0.1701  0.2823
  370SOL    HW1 1478   0.736   0.179   0.954  0.3432 -0.6466 -1.0793
  370SOL    HW2 1479   0.715   0.033   1.013  1.5422 -0.5979 -1.1950
  370SOL     MW 1480   0.686   0.108   0.973  0.5134 -0.0390 -0.0922
  371SOL     OW 1481   1.314   2.979   1.498 -0.1206 -0.0340 -0.5280
  371SOL    HW1 1482   1.247   2.914   1.464 -2.5301 -2.1290  0.1859
  371SOL    HW2 1483   1.323   3.052   1.430  1.6246 -1.1493 -1.3387
  371SOL     MW 1484   1.306   2.980   1.484 -0.2082 -0.4576 -0.5408
  372SOL     OW 1485   0.822   2.266   0.502 -0.2538  0.0602  0.1178
  372SOL    HW1 1486   0.806   2.170   0.519  1.3200 -1.2849 -0.4793
  372SOL    HW2 1487   0.840   2.285   0.408 -1.0162 -1.2929 -0.1023
  372SOL     MW 1488   0.822   2.256   0.491 -0.1468 -0.2958  0.0100
  373SOL     OW 1489   2.874   3.023   1.428  0.3827 -0.3460 -0.3442
  373SOL    HW1 1490   2.929   3.001   1.352  1.0944 -0.9407  2.0504
  373SOL    HW2 1491   2.842   3.109   1.390  1.8451  1.0909 -0.5383
  373SOL     MW 1492   2.877   3.032   1.413  0.6696 -0.2349 -0.0539
  374SOL     OW 1493   1.497   0.526   0.252  0.2040  0.7549  0.3889
  374SOL    HW1 1494   1.590   0.555   0.256  4.0119  2.6533 -0.2056
  374SOL    HW2 1495   1.458   0.488   0.337 -1.8664 -1.7115 -2.9661
  374SOL     MW 1496   1.505   0.525   0.264  0.4332  0.6799 -0.1322
  375SOL     OW 1497   1.154   2.104   2.280  0.0367  0.3171  0.8341
  375SOL    HW1 1498   1.126   2.127   2.373 -0.5072 -0.5475 -0.5993
  375SOL    HW2 1499   1.142   2.007   2.267 -0.6957  0.2611 -0.2885
  375SOL     MW 1500   1.149   2.094   2.290 -0.1317  0.1956  0.4969
  376SOL     OW 1501   0.641   2.542   0.126 -0.1244 -0.5085 -0.2941
  376SOL    HW1 1502   0.709   2.488   0.168  5.1770  1.8738  1.9784
  376SOL    HW2 1503   0.636   2.493   0.044  1.2993  0.7698 -0.4684
  376SOL     MW 1504   0.649   2.529   0.120  0.7629 -0.0255 -0.0173
  377SOL     OW 1505   1.246   2.028   0.894  0.8622 -0.0721 -0.4414
  377SOL    HW1 1506   1.185   1.987   0.830  1.7801 -1.2013  0.3010
  377SOL    HW2 1507   1.240   1.974   0.978  0.1557  0.9729  0.5770
  377SOL     MW 1508   1.237   2.015   0.897  0.8901 -0.0832 -0.2091
  378SOL     OW 1509   0.996   2.800   1.551  0.6658 -0.3869  0.7593
  378SOL    HW1 1510   0.923   2.731   1.568  0.1341  0.4618  1.4756
  378SOL    HW2 1511   0.952   2.860   1.487 -0.3930 -2.0536 -1.5797
  378SOL     MW 1512   0.980   2.799   1.545  0.4560 -0.4949  0.5452
  379SOL     OW 1513   1.082   1.833   2.277  0.3004 -0.5513 -0.1793
  379SOL    HW1 1514   0.997   1.860   2.314 -1.1302  1.4888 -0.7616
  379SOL    HW2 1515   1.079   1.743   2.233  1.6092 -0.5622 -0.0935
  379SOL     MW 1516   1.070   1.824   2.276  0.2843 -0.2836 -0.2448
  380SOL     OW 1517   0.883   0.193   1.517 -0.4016 -0.6584 -0.2506
  380SOL    HW1 1518   0.925   0.168   1.431  1.6118  0.0720  1.7736
  380SOL    HW2 1519   0.956   0.190   1.586 -0.1880  0.9881 -0.7443
  380SOL     MW 1520   0.898   0.190   1.515 -0.1078 -0.3448 -0.0486
  381SOL     OW 1521   0.802   2.005   0.797 -0.6417 -0.4820 -0.1085
  381SOL    HW1 1522   0.896   1.986   0.780 -1.3461  0.9193 -0.7578
  381SOL    HW2 1523   0.804   2.076   0.867 -0.2444 -0.2582 -1.7285
  381SOL     MW 1524   0.814   2.012   0.804 -0.6822 -0.2676 -0.4079
  382SOL     OW 1525   0.746   0.008   0.709  0.1180 -0.0352 -0.2807
  382SOL    HW1 1526   0.694   0.044   0.783  1.6568  0.4370  1.8689
  382SOL    HW2 1527   0.687  -0.058   0.668 -1.5369 -1.9779 -0.1157
  382SOL     MW 1528   0.732   0.004   0.714  0.1027 -0.2292  0.0247
  383SOL     OW 1529   0.477   0.050   0.380 -0.0282  0.3027  0.1737
  383SOL    HW1 1530   0.546  -0.017   0.358 -2.6658  0.9935 -0.1546
  383SOL    HW2 1531   0.395   0.007   0.398 -1.0235 -0.9493 -0.4210
  383SOL     MW 1532   0.475   0.035   0.380 -0.5075  0.2287  0.0519
  384SOL     OW 1533   0.592   2.893   0.585  0.6025  0.2286  0.1868
  384SOL    HW1 1534   0.625   2.817   0.632 -0.8623  4.6190  1.0368
  384SOL    HW2 1535   0.498   2.883   0.577 -0.6748  0.7629  1.3059
  384SOL     MW 1536   0.584   2.882   0.590  0.2407  0.8784  0.4466
  385SOL     OW 1537   1.316   2.075   1.563 -0.3188 -0.3110 -0.1782
  385SOL    HW1 1538   1.406   2.072   1.610  1.6308  0.1948  1.5434
  385SOL    HW2 1539   1.279   1.984   1.586  0.2779 -0.2048  0.4460
  385SOL     MW 1540   1.323   2.062   1.572  0.0171 -0.2303  0.1313
  386SOL     OW 1541   1.367   0.408   0.887 -0.2527 -0.7234 -1.0478
  386SOL    HW1 1542   1.271   0.414   0.885  1.4884  2.2677 -0.4058
  386SOL    HW2 1543   1.376   0.381   0.979 -0.8778  0.4954 -1.7835
  386SOL     MW 1544   1.355   0.405   0.899 -0.1054 -0.1680 -1.0602
  387SOL     OW 1545   0.837   2.184   1.486 -0.2692 -0.2065 -0.5230
  387SOL    HW1 1546   0.894   2.237   1.437 -2.5870 -1.3587  1.5996
  387SOL    HW2 1547   0.865   2.091   1.477  0.7803  3.0589 -1.9276
  387SOL     MW 1548   0.848   2.179   1.478 -0.4366  0.0723 -0.4282
  388SOL     OW 1549   1.496   2.803   1.206 -0.5450  0.2214 -0.1547
  388SOL    HW1 1550   1.427   2.744   1.178  1.1931 -0.2412 -2.7818
  388SOL    HW2 1551   1.566   2.765   1.159  0.5241  0.7061  0.6642
  388SOL     MW 1552   1.496   2.791   1.196 -0.1746  0.2243 -0.3933
  389SOL     OW 1553   0.378   0.183   3.098  0.2571 -0.4640  0.5246
  389SOL    HW1 1554   0.421   0.148   3.022 -0.7206 -1.7520 -0.3540
  389SOL    HW2 1555   0.289   0.206   3.072 -3.3126  2.2956  0.6385
  389SOL     MW 1556   0.372   0.181   3.085 -0.3429 -0.2698  0.4237
  390SOL     OW 1557   1.352   0.046   0.615  0.0492 -0.4982  0.2632
  390SOL    HW1 1558   1.438   0.075   0.596  1.5056 -1.7153  2.1043
  390SOL    HW2 1559   1.345   0.037   0.713  0.7509  0.4960  0.7501
  390SOL     MW 1560   1.362   0.048   0.626  0.3339 -0.5276  0.5704
  391SOL     OW 1561   0.299   2.276   1.466  0.0747  0.2517  0.3563
  391SOL    HW1 1562   0.250   2.199   1.495 -0.3358 -0.5190 -0.3729
  391SOL    HW2 1563   0.239   2.349   1.453  0.2816 -1.7502 -1.2118
  391SOL     MW 1564   0.285   2.275   1.468  0.0478 -0.1141  0.0532
  392SOL     OW 1565   1.990   2.186   0.333  0.0042  0.6708 -0.0053
  392SOL    HW1 1566   1.921   2.230   0.389 -0.8351 -0.4815  2.6232
  392SOL    HW2 1567   2.070   2.202   0.383  0.2871 -1.3911  0.3946
  392SOL     MW 1568   1.991   2.194   0.347 -0.0692  0.2467  0.3943
  393SOL     OW 1569   0.250   3.002   2.842 -0.4428 -0.2515 -0.6152
  393SOL    HW1 1570   0.313   3.062   2.812  1.8262  0.9885 -1.5398
  393SOL    HW2 1571   0.170   3.031   2.797 -0.5576  1.4715 -2.4239
  393SOL     MW 1572   0.247   3.014   2.832 -0.1586  0.1394 -0.9758
  394SOL     OW 1573   0.833   1.636   1.422 -0.0516  0.2660  0.5778
  394SOL    HW1 1574   0.776   1.643   1.501  0.7207 -2.3010 -0.2627
  394SOL    HW2 1575   0.858   1.733   1.413  1.7300  0.2157  0.1978
  394SOL     MW 1576   0.829   1.650   1.431  0.2854 -0.0793  0.4167
  395SOL     OW 1577   0.929   2.876   2.603 -0.0065  0.4454  0.6137
  395SOL    HW1 1578   0.943   2.957   2.649 -0.0497  0.9432 -0.2736
  395SOL    HW2 1579   1.014   2.821   2.601 -1.0784 -0.5441 -0.7496
  395SOL     MW 1580   0.942   2.880   2.609 -0.1536  0.3805  0.3168
  396SOL     OW 1581   0.774   1.854   2.392  0.5853 -0.4430  0.5522
  396SOL    HW1 1582   0.834   1.856   2.464  0.8939  0.0579  1.2782
  396SOL    HW2 1583   0.726   1.771   2.402 -0.0971 -0.4142  2.8417
  396SOL     MW 1584   0.776   1.843   2.403  0.5359 -0.3731  0.9501
  397SOL     OW 1585   1.007   2.332   1.345  0.2201 -0.0461  0.2152
  397SOL    HW1 1586   1.057   2.388   1.282  0.8044  0.9303 -2.2176
  397SOL    HW2 1587   1.076   2.326   1.409 -0.3434  0.3717  1.6208
  397SOL     MW 1588   1.023   2.339   1.345  0.2228  0.1379  0.0797
  398SOL     OW 1589   0.678   2.672   0.724  0.5854 -0.1321  0.0630
  398SOL    HW1 1590   0.611   2.602   0.703 -3.1376  1.0174 -1.5754
  398SOL    HW2 1591   0.761   2.640   0.696  3.3280 -0.0093  0.5887
  398SOL     MW 1592   0.680   2.658   0.717  0.4561  0.0358 -0.0838
  399SOL     OW 1593   0.270   2.012   0.380  0.0433 -0.5148  0.5518
  399SOL    HW1 1594   0.208   2.086   0.381 -1.7684 -0.2684  0.2800
  399SOL    HW2 1595   0.329   2.035   0.300 -0.6859 -0.4640 -1.5213
  399SOL     MW 1596   0.270   2.025   0.370 -0.2920 -0.4755  0.2424
  400SOL     OW 1597   0.610   1.843   0.145 -0.2268 -0.0692 -0.1305
  400SOL    HW1 1598   0.583   1.934   0.147 -0.4528 -0.6872 -0.5555
  400SOL    HW2 1599   0.563   1.816   0.223 -0.6110 -1.6523 -1.7771
  400SOL     MW 1600   0.600   1.851   0.156 -0.3073 -0.3596 -0.4038
  401SOL     OW 1601   0.968   2.079   0.155 -0.7678  0.2535  0.9894
  401SOL    HW1 1602   0.983   1.983   0.125 -1.1128  1.9894 -0.3616
  401SOL    HW2 1603   1.034   2.101   0.220  1.7772 -2.2596  1.9000
  401SOL     MW 1604   0.979   2.069   0.159 -0.4775  0.1510  0.9313
  402SOL     OW 1605   0.722   2.896   1.720 -0.6319  0.7088 -0.2688
  402SOL    HW1 1606   0.662   2.865   1.787 -0.5616 -1.7665  2.0146
  402SOL    HW2 1607   0.806   2.907   1.766  0.3205 -0.2879 -3.3056
  402SOL     MW 1608   0.725   2.893   1.735 -0.4969  0.2507 -0.3682
  403SOL     OW 1609   0.058   0.491   0.437  0.1312 -0.6338  0.0591
  403SOL    HW1 1610   0.151   0.501   0.469 -0.6070 -2.7913 -1.2275
  403SOL    HW2 1611   0.074   0.447   0.348 -0.9728  0.2451  1.5047
  403SOL     MW 1612   0.072   0.486   0.430 -0.1119 -0.8025  0.0801
  404SOL     OW 1613   0.999   2.894   0.799  0.1793  0.0554  0.1790
  404SOL    HW1 1614   1.051   2.829   0.748  1.4171 -1.9195 -0.4086
  404SOL    HW2 1615   1.013   2.983   0.760  0.4824 -1.6263  1.0656
  404SOL     MW 1616   1.008   2.897   0.787  0.3826 -0.4271  0.2185
  405SOL     OW 1617   0.483   2.477   1.553  0.1622  0.0831  0.1003
  405SOL    HW1 1618   0.467   2.563   1.497 -1.9845  0.8641  1.0043
  405SOL    HW2 1619   0.429   2.409   1.524  1.2927 -0.5484  1.9343
  405SOL     MW 1620   0.474   2.480   1.542  0.0281  0.1028  0.4616
  406SOL     OW 1621   0.410   2.350   1.138  0.1315 -0.8483 -0.3473
  406SOL    HW1 1622   0.310   2.357   1.135  0.3829 -1.1179 -1.9206
  406SOL    HW2 1623   0.434   2.275   1.194 -5.5930  0.3750 -0.4087
  406SOL     MW 1624   0.400   2.341   1.145 -0.5906 -0.7225 -0.5630
  407SOL     OW 1625   0.038   2.706   1.106  0.2904  0.1972  0.0262
  407SOL    HW1 1626   0.091   2.687   1.186  0.3493 -0.6611 -2.4359
  407SOL    HW2 1627   0.107   2.710   1.029  2.1629  3.4857 -0.5106
  407SOL     MW 1628   0.054   2.704   1.106  0.5452  0.5178 -0.3694
  408SOL     OW 1629   2.136   2.116   0.603 -0.1383 -0.4510  0.8019
  408SOL    HW1 1630   2.103   2.168   0.683  0.2210 -2.2797 -0.6949
  408SOL    HW2 1631   2.056   2.057   0.587 -0.4041 -0.0028 -0.9820
  408SOL     MW 1632   2.121   2.115   0.612 -0.1260 -0.6332  0.3691
  409SOL     OW 1633   1.315   0.070   0.889 -0.1274 -0.5774  0.0798
  409SOL    HW1 1634   1.360   0.155   0.906 -0.0752 -1.5546 -2.2200
  409SOL    HW2 1635   1.376   0.010   0.935 -0.3237  1.2800  2.0724
  409SOL     MW 1636   1.329   0.074   0.897 -0.1464 -0.4612  0.0393
  410SOL     OW 1637   1.085   2.521   1.071  0.1436  0.1191  0.2913
  410SOL    HW1 1638   1.008   2.502   1.011 -0.2797  1.1150 -1.2246
  410SOL    HW2 1639   1.143   2.440   1.061 -0.6065 -0.4290  1.7708
  410SOL     MW 1640   1.082   2.508   1.062 -0.0112  0.1782  0.2865
  411SOL     OW 1641   1.966   0.112   2.829 -0.1629 -0.0014 -0.8164
  411SOL    HW1 1642   1.913   0.069   2.764  0.1021 -1.1583  1.1372
  411SOL    HW2 1643   1.908   0.125   2.908 -0.5832  2.5063  3.0289
  411SOL     MW 1644   1.952   0.108   2.831 -0.1834  0.1768 -0.0513
  412SOL     OW 1645   1.102   2.201   0.574  0.5061 -0.1235  0.2046
  412SOL    HW1 1646   1.144   2.262   0.635  0.4244  0.8551  1.0212
  412SOL    HW2 1647   1.030   2.248   0.536 -2.3388 -1.8243  0.3542
  412SOL     MW 1648   1.098   2.215   0.577  0.1200 -0.2188  0.3321
  413SOL     OW 1649   0.547   2.793   0.148 -0.2073 -0.2387 -0.6380
  413SOL    HW1 1650   0.568   2.696   0.140  0.4010 -2.2696 -0.4480
  413SOL    HW2 1651   0.575   2.835   0.069 -1.9344  2.2472 -0.1032
  413SOL     MW 1652   0.554   2.786   0.136 -0.3549 -0.1787 -0.5423
  414SOL     OW 1653   1.973   3.070   1.081 -0.0322  0.2411 -0.0787
  414SOL    HW1 1654   1.927   3.043   0.998 -0.5150 -0.4880  0.2569
  414SOL    HW2 1655   2.043   3.006   1.096 -1.1967  1.5292  0.1430
  414SOL     MW 1656   1.976   3.058   1.072 -0.2496  0.3148 -0.0052
  415SOL     OW 1657   1.720   2.665   1.049  0.2415 -0.0884 -0.2038
  415SOL    HW1 1658   1.654   2.618   1.105  0.5230  0.0436  3.6232
  415SOL    HW2 1659   1.789   2.698   1.102 -1.4477  1.4944  0.1302
  415SOL     MW 1660   1.721   2.663   1.064  0.0558  0.1378  0.3452
  416SOL     OW 1661   0.625   1.915   1.386 -0.3784 -0.2787  0.2328
  416SOL    HW1 1662   0.563   1.990   1.378  0.4434  1.8336  0.9193
  416SOL    HW2 1663   0.615   1.880   1.293 -2.0565  1.4098  0.0248
  416SOL     MW 1664   0.616   1.921   1.373 -0.4914  0.2228  0.2959
  417SOL     OW 1665   1.024   3.046   2.000 -0.1650  0.1938  0.5799
  417SOL    HW1 1666   0.947   3.032   2.058  0.0469 -0.4563 -0.2068
  417SOL    HW2 1667   1.019   2.985   1.928 -1.4669  0.9251  1.4422
  417SOL     MW 1668   1.013   3.036   1.998 -0.3088  0.2045  0.5899
  418SOL     OW 1669   0.711   3.000   0.217  0.1903 -0.2792 -0.1393
  418SOL    HW1 1670   0.782   2.993   0.155  1.5022  2.0984 -0.3412
  418SOL    HW2 1671   0.655   2.923   0.199  0.2765  2.3385 -2.1703
  418SOL     MW 1672   0.713   2.989   0.207  0.3748  0.3798 -0.4339
  419SOL     OW 1673   0.444   2.698   1.369  0.0978 -0.2500 -0.1047
  419SOL    HW1 1674   0.517   2.742   1.408 -0.8250  0.3056  1.6621
  419SOL    HW2 1675   0.485   2.650   1.297 -0.0769 -0.5302 -0.2170
  419SOL     MW 1676   0.459   2.697   1.365 -0.0470 -0.2137  0.1136
  420SOL     OW 1677   0.831   2.188   1.001 -0.7798  0.3924 -0.0322
  420SOL    HW1 1678   0.786   2.189   1.084 -0.6473  3.0496  0.0489
  420SOL    HW2 1679   0.865   2.275   0.979 -0.4992 -0.1472 -0.7061
  420SOL     MW 1680   0.829   2.199   1.009 -0.7253  0.6718 -0.1104
  421SOL     OW 1681   2.948   0.079   0.019 -0.1283 -0.5205  0.2572
  421SOL    HW1 1682   2.929   0.013  -0.042 -0.6185  0.5109 -0.9782
  421SOL    HW2 1683   2.964   0.033   0.101 -3.2007 -0.8796 -2.6716
  421SOL     MW 1684   2.948   0.065   0.022 -0.5984 -0.4318 -0.2922
  422SOL     OW 1685   0.899   2.438   0.897 -0.1015 -0.2681  0.5252
  422SOL    HW1 1686   0.837   2.506   0.913  0.2341 -0.8767 -0.1852
  422SOL    HW2 1687   0.897   2.439   0.804 -1.4681 -0.8738  0.7267
  422SOL     MW 1688   0.891   2.447   0.887 -0.2375 -0.4283  0.4580
  423SOL     OW 1689   1.575   0.172   0.494 -0.3959 -0.3066  0.0009
  423SOL    HW1 1690   1.550   0.175   0.402  0.8488  0.7955  0.4458
  423SOL    HW2 1691   1.568   0.266   0.512 -1.1161 -0.2236 -0.5995
  423SOL     MW 1692   1.571   0.185   0.484 -0.3267 -0.1502 -0.0196
  424SOL     OW 1693   0.718   2.233   1.249 -0.1545  0.5493 -0.1547
  424SOL    HW1 1694   0.628   2.208   1.271 -2.1297 -2.7741 -0.4366
  424SOL    HW2 1695   0.768   2.214   1.332 -3.3344  1.4017  0.2742
  424SOL     MW 1696   0.713   2.227   1.263 -0.8347  0.2233 -0.1353
  425SOL     OW 1697   1.757   2.856   1.988  0.1802 -0.2587 -0.5931
  425SOL    HW1 1698   1.764   2.859   1.893 -1.9654 -0.3553  1.0459
  425SOL    HW2 1699   1.753   2.766   2.020  0.6425 -0.8171 -0.9415
  425SOL     MW 1700   1.758   2.845   1.980 -0.0419 -0.3451 -0.4228
  426SOL     OW 1701   0.766   1.645   1.926  0.1734  0.8684  0.5147
  426SOL    HW1 1702   0.724   1.654   1.843 -0.6349  0.6208 -0.2376
  426SOL    HW2 1703   0.742   1.719   1.978 -1.1806  0.8147  2.3570
  426SOL     MW 1704   0.758   1.656   1.922 -0.1119  0.8287  0.6586
  427SOL     OW 1705   0.396   1.576   1.871 -0.4780  0.2291  0.6905
  427SOL    HW1 1706   0.420   1.613   1.949 -0.4199 -1.6798 -1.1473
  427SOL    HW2 1707   0.304   1.557   1.884 -0.2707 -1.0502 -2.3982
  427SOL     MW 1708   0.387   1.578   1.883 -0.4430 -0.1916  0.0405
  428SOL     OW 1709   0.569   2.583   1.147 -0.3373 -0.3084 -0.2273
  428SOL    HW1 1710   0.648   2.578   1.201  1.8718  2.6789 -0.9849
  428SOL    HW2 1711   0.523   2.497   1.142 -3.2630 -1.6564  2.4379
  428SOL     MW 1712   0.573   2.571   1.153 -0.4319 -0.0921  0.0244
  429SOL     OW 1713   1.322   2.639   1.041 -0.4335 -0.2829  0.3779
  429SOL    HW1 1714   1.231   2.625   1.061  0.1131  2.5710 -1.0163
  429SOL    HW2 1715   1.312   2.726   0.998 -0.1370  0.0591  1.7150
  429SOL     MW 1716   1.309   2.649   1.038 -0.3222  0.1388  0.3704
  430SOL     OW 1717   1.169   2.710   0.664 -0.5396 -0.3958 -0.6267
  430SOL    HW1 1718   1.201   2.622   0.671 -0.6827  1.2063 -0.3172
  430SOL    HW2 1719   1.105   2.695   0.590 -0.4284 -2.6260  0.4927
  430SOL     MW 1720   1.164   2.697   0.655 -0.5438 -0.4787 -0.4382
  431SOL     OW 1721   0.311   1.959   1.150  0.3133  0.1822 -0.2922
  431SOL    HW1 1722   0.375   1.901   1.110 -2.1881  1.0309  1.9356
  431SOL    HW2 1723   0.287   2.014   1.075  4.2310  0.9031 -1.4491
  431SOL     MW 1724   0.316   1.959   1.135  0.5002  0.3893 -0.1509
  432SOL     OW 1725   0.050   0.051   1.149 -0.2046  0.2560  0.2835
  432SOL    HW1 1726   0.080   0.086   1.237 -2.2280  0.6131 -1.9292
  432SOL    HW2 1727   0.014  -0.038   1.161 -3.9967  0.5283  1.8438
  432SOL     MW 1728   0.049   0.044   1.162 -0.9719  0.3391  0.1974
  433SOL     OW 1729   0.656   2.868   1.463 -1.0309 -0.1795 -0.2381
  433SOL    HW1 1730   0.677   2.857   1.560  0.4103  2.3627 -1.8468
  433SOL    HW2 1731   0.737   2.905   1.426 -0.0538  2.2721 -1.1329
  433SOL     MW 1732   0.669   2.871   1.471 -0.7119  0.4794 -0.5684
  434SOL     OW 1733   1.555   2.818   1.509 -0.0763  0.0455  1.3481
  434SOL    HW1 1734   1.472   2.849   1.540 -0.7393 -1.2328  0.8825
  434SOL    HW2 1735   1.546   2.814   1.410 -0.5100  2.7086 -0.2878
  434SOL     MW 1736   1.543   2.822   1.500 -0.2210  0.2282  1.0708
  435SOL     OW 1737   2.865   1.790   0.233  0.2365 -0.0574 -0.4387
  435SOL    HW1 1738   2.925   1.858   0.191  1.0160  0.5809  0.2633
  435SOL    HW2 1739   2.838   1.735   0.145 -1.3552  1.8701 -1.3420
  435SOL     MW 1740   2.869   1.792   0.216  0.1294  0.2812 -0.4653
  436SOL     OW 1741   1.401   2.757   0.310  0.2329  0.2330 -0.1616
  436SOL    HW1 1742   1.458   2.741   0.383  0.1057  1.0885  0.4449
  436SOL    HW2 1743   1.346   2.834   0.345  0.4449 -0.1705  2.3907
  436SOL     MW 1744   1.401   2.765   0.324  0.2441  0.2926  0.2552
  437SOL     OW 1745   0.887   2.940   1.323 -0.0346  0.1330  0.7231
  437SOL    HW1 1746   0.901   3.035   1.304  0.9960  0.7289  0.0690
  437SOL    HW2 1747   0.869   2.903   1.239  1.8196 -0.7792  1.3126
  437SOL     MW 1748   0.886   2.948   1.309  0.3460  0.0912  0.7146
  438SOL     OW 1749   0.858   2.593   1.998  0.4591  0.4532  0.2862
  438SOL    HW1 1750   0.858   2.531   2.066 -0.4083  0.3822 -3.4133
  438SOL    HW2 1751   0.800   2.549   1.936  0.4042  0.3474  1.1325
  438SOL     MW 1752   0.851   2.579   1.999  0.3374  0.4298 -0.0902
  439SOL     OW 1753   1.167   2.172   0.314  0.1418  0.2224  0.3535
  439SOL    HW1 1754   1.149   2.177   0.417  0.4528 -0.5231  1.0496
  439SOL    HW2 1755   1.140   2.255   0.277  0.0720 -0.8111 -0.5526
  439SOL     MW 1756   1.161   2.184   0.323  0.1736 -0.0123  0.3258
  440SOL     OW 1757   1.631   2.970   3.011 -0.6094  0.0500  0.1992
  440SOL    HW1 1758   1.597   2.959   3.099  0.3888 -1.5959 -1.3134
  440SOL    HW2 1759   1.684   2.893   3.001 -1.3749 -1.1172 -1.2548
  440SOL     MW 1760   1.633   2.959   3.021 -0.5787 -0.3211 -0.1922
  441SOL     OW 1761   0.308   2.562   0.532 -0.0267  0.0826 -0.2423
  441SOL    HW1 1762   0.322   2.565   0.431 -2.8875 -0.0436  0.0743
  441SOL    HW2 1763   0.346   2.648   0.567  3.3145 -0.6822  1.9442
  441SOL     MW 1764   0.315   2.574   0.523  0.0367 -0.0349  0.0880
  442SOL     OW 1765   0.009   2.329   0.628 -0.3205 -0.3632 -0.4361
  442SOL    HW1 1766   0.019   2.422   0.626  1.5329 -2.1037 -0.2975
  442SOL    HW2 1767  -0.069   2.311   0.681 -0.1184 -1.8411 -2.7916
  442SOL     MW 1768  -0.000   2.339   0.634 -0.0493 -0.7878 -0.7286
  443SOL     OW 1769   1.338   1.704   1.822  0.8482  0.6076  0.3742
  443SOL    HW1 1770   1.319   1.738   1.733 -0.6149 -1.4532 -4.3131
  443SOL    HW2 1771   1.280   1.627   1.822 -0.1628  2.0220 -0.4763
  443SOL     MW 1772   1.328   1.698   1.810  0.5218  0.5223 -0.3565
  444SOL     OW 1773   0.826   2.569   1.594  0.0997 -0.0188 -0.1750
  444SOL    HW1 1774   0.895   2.563   1.655  0.6998  0.7088  0.2332
  444SOL    HW2 1775   0.757   2.528   1.639  0.1233  1.8796  2.6489
  444SOL     MW 1776   0.826   2.563   1.608  0.1820  0.3276  0.2515
  445SOL     OW 1777   0.981   0.088   1.289  0.0847 -0.0611 -0.1990
  445SOL    HW1 1778   0.928   0.155   1.245  1.1466  0.3523  3.1844
  445SOL    HW2 1779   1.057   0.073   1.228 -0.6344 -2.7914 -3.2486
  445SOL     MW 1780   0.984   0.095   1.275  0.1300 -0.3668 -0.1550
  446SOL     OW 1781   2.773   2.925   1.011 -0.4331 -0.6700 -0.2750
  446SOL    HW1 1782   2.688   2.936   0.962 -1.0504 -0.6089 -0.9079
  446SOL    HW2 1783   2.807   2.832   0.999 -1.1360 -0.5866  0.7461
  446SOL     MW 1784   2.766   2.914   1.003 -0.6072 -0.6509 -0.2238
  447SOL     OW 1785   3.030   2.048   1.767  0.6831 -0.0324  0.2006
  447SOL    HW1 1786   3.113   1.997   1.790 -0.5197  0.9398  0.9177
  447SOL    HW2 1787   2.980   2.015   1.692 -0.0751  1.2919  0.9374
  447SOL     MW 1788   3.035   2.037   1.761  0.4244  0.2706  0.3924
  448SOL     OW 1789   1.694   2.329   1.652 -0.1378  0.0990 -0.2420
  448SOL    HW1 1790   1.622   2.276   1.695  0.0763  0.6350  0.6552
  448SOL    HW2 1791   1.650   2.418   1.651 -1.5129  2.6556  0.7665
  448SOL     MW 1792   1.678   2.334   1.657 -0.2910  0.5071  0.0094
  449SOL     OW 1793   0.826   2.916   0.445 -0.4344  0.2794  0.6800
  449SOL    HW1 1794   0.781   2.928   0.361 -0.7479 -0.3574  0.6438
  449SOL    HW2 1795   0.750   2.914   0.502  1.5607 -3.1391  0.4594
  449SOL     MW 1796   0.810   2.918   0.442 -0.2125 -0.2556  0.6461
  450SOL     OW 1797   1.218   2.410   0.700 -0.0874 -0.2220  0.2549
  450SOL    HW1 1798   1.211   2.367   0.785 -1.2337  1.5500 -2.0672
  450SOL    HW2 1799   1.309   2.398   0.675 -1.9371  0.6189 -2.8965
  450SOL     MW 1800   1.229   2.402   0.708 -0.4827  0.1228 -0.4673
  451SOL     OW 1801   0.604   1.983   1.672 -0.0289  0.8317 -0.4856
  451SOL    HW1 1802   0.640   2.071   1.701  0.4687 -0.9742  0.2907
  451SOL    HW2 1803   0.612   1.984   1.578 -0.2545  2.3195 -0.4294
  451SOL     MW 1804   0.610   1.995   1.664  0.0070  0.7897 -0.3758
  452SOL     OW 1805   0.294   2.734   0.153 -0.4266  0.6244  0.1995
  452SOL    HW1 1806   0.385   2.761   0.169  1.2844  2.2263  0.1454
  452SOL    HW2 1807   0.292   2.713   0.060  0.2300 -0.7632  2.9557
  452SOL     MW 1808   0.306   2.735   0.143 -0.1143  0.6527  0.5560
  453SOL     OW 1809   0.383   2.986   1.659  0.0054  0.4691  0.5613
  453SOL    HW1 1810   0.453   3.005   1.597  1.5086 -0.7122 -0.0154
  453SOL    HW2 1811   0.299   2.997   1.623  1.7448  0.8598 -0.2427
  453SOL     MW 1812   0.381   2.990   1.646  0.4332  0.3648  0.3792
  454SOL     OW 1813   1.088   2.794   1.104  0.4378  0.0011 -0.8081
  454SOL    HW1 1814   1.061   2.698   1.105 -2.7858 -0.7303  0.2524
  454SOL    HW2 1815   1.041   2.837   1.034 -1.2554 -0.2853 -1.5856
  454SOL     MW 1816   1.078   2.787   1.095 -0.2109 -0.1332 -0.7708
  455SOL     OW 1817   1.575   2.942   0.179 -0.7482  0.0113  0.2674
  455SOL    HW1 1818   1.645   2.930   0.236 -2.5125  0.0436  0.5097
  455SOL    HW2 1819   1.503   2.887   0.213 -1.2878  0.7235  0.9532
  455SOL     MW 1820   1.575   2.933   0.191 -1.0522  0.1095  0.3898
  456SOL     OW 1821   2.961   0.333   1.393  0.1151  0.7449 -0.3384
  456SOL    HW1 1822   2.943   0.240   1.375 -3.0820 -1.7329  1.0712
  456SOL    HW2 1823   3.022   0.362   1.311  2.1657  0.7952  1.2754
  456SOL     MW 1824   2.966   0.325   1.380 -0.0362  0.4246  0.0605
  457SOL     OW 1825   0.837   1.545   3.000 -0.3002 -0.4187  0.1516
  457SOL    HW1 1826   0.777   1.542   3.076 -3.8526 -1.7168 -0.1055
  457SOL    HW2 1827   0.914   1.502   3.027 -1.1079  2.8028  0.0262
  457SOL     MW 1828   0.839   1.539   3.014 -0.8755 -0.1649  0.1011
  458SOL     OW 1829   1.433   1.399   0.628 -0.1213 -0.1569  0.1452
  458SOL    HW1 1830   1.350   1.410   0.674 -1.2178 -1.5890  1.1390
  458SOL    HW2 1831   1.418   1.334   0.552  0.9869 -0.1947 -0.0281
  458SOL     MW 1832   1.420   1.392   0.624 -0.1198 -0.3509  0.2535
  459SOL     OW 1833   1.551   0.133   0.218  0.1199  0.3662  0.2420
  459SOL    HW1 1834   1.525   0.041   0.214  1.4518 -0.6932 -1.4584
  459SOL    HW2 1835   1.490   0.168   0.149 -0.8503  0.7524  0.9053
  459SOL     MW 1836   1.540   0.125   0.208  0.1676  0.2774  0.1052
  460SOL     OW 1837   1.683   2.158   0.584 -0.0784 -0.7072  0.5047
  460SOL    HW1 1838   1.617   2.143   0.642 -3.2748  3.7093  0.1760
  460SOL    HW2 1839   1.741   2.077   0.571 -0.1642  0.8557 -0.0759
  460SOL     MW 1840   1.682   2.145   0.590 -0.5114  0.0817  0.3847
  461SOL     OW 1841   0.520   2.369   0.596  0.5726  0.7021 -0.3141
  461SOL    HW1 1842   0.478   2.448   0.574 -3.5418 -0.0453 -1.5275
  461SOL    HW2 1843   0.483   2.357   0.682  1.8941  0.5578 -0.2972
  461SOL     MW 1844   0.509   2.378   0.605  0.2041  0.5844 -0.4720
  462SOL     OW 1845   0.345   0.327   1.283 -0.1349  0.0045 -0.6158
  462SOL    HW1 1846   0.372   0.267   1.215 -0.3868  2.6282  1.3392
  462SOL    HW2 1847   0.413   0.392   1.291  1.7054  0.3517  0.1069
  462SOL     MW 1848   0.357   0.328   1.275  0.0747  0.3965 -0.2625
  463SOL     OW 1849   1.003   0.052   0.703  0.1833  0.2457  0.5218
  463SOL    HW1 1850   1.033   0.045   0.608 -2.7322  2.1458 -1.0928
  463SOL    HW2 1851   0.905   0.048   0.695  0.7782 -2.9054 -0.4562
  463SOL     MW 1852   0.994   0.051   0.689 -0.1228  0.0806  0.1798
  464SOL     OW 1853   0.786   2.935   2.137  0.1059 -0.0165 -0.6777
  464SOL    HW1 1854   0.767   2.845   2.122 -0.7831  1.0754 -0.8409
  464SOL    HW2 1855   0.756   2.953   2.233 -2.5577 -0.4933  2.1854
  464SOL     MW 1856   0.780   2.926   2.148 -0.3628  0.0646 -0.3215
  465SOL     OW 1857   0.754   0.206   0.487  0.1685 -0.0405  0.1549
  465SOL    HW1 1858   0.743   0.135   0.548 -0.9023 -0.2551  2.7767
  465SOL    HW2 1859   0.710   0.170   0.409 -0.5109 -2.1372  0.5365
  465SOL     MW 1860   0.747   0.192   0.484 -0.0624 -0.3455  0.5512
  466SOL     OW 1861   1.059   1.958   0.693  0.2517 -0.1666 -0.0035
  466SOL    HW1 1862   1.048   1.880   0.637 -0.4569 -0.5617  0.6880
  466SOL    HW2 1863   1.069   2.036   0.635  0.8457  0.1040 -1.5061
  466SOL     MW 1864   1.059   1.958   0.678  0.2366 -0.1831 -0.1105
  467SOL     OW 1865   1.249   2.298   0.934 -0.4030 -1.0951  0.1514
  467SOL    HW1 1866   1.344   2.299   0.942 -1.5770 -0.1300 -0.7052
  467SOL    HW2 1867   1.239   2.202   0.912 -0.7083  2.2070 -1.1204
  467SOL     MW 1868   1.261   2.285   0.932 -0.5982 -0.5321 -0.1294
  468SOL     OW 1869   0.320   2.619   1.972  0.0833  0.0116  0.1412
  468SOL    HW1 1870   0.354   2.542   1.925  1.0000 -0.4814  1.4983
  468SOL    HW2 1871   0.369   2.685   1.926 -1.7416 -1.1723  0.1781
  468SOL     MW 1872   0.331   2.617   1.960 -0.0365 -0.2096  0.3251
  469SOL     OW 1873   0.397   2.081   1.828 -0.4109  0.1542  0.1261
  469SOL    HW1 1874   0.318   2.021   1.826 -1.4655  1.2644  0.3141
  469SOL    HW2 1875   0.465   2.041   1.764 -0.9783  0.3318  0.5929
  469SOL     MW 1876   0.396   2.068   1.819 -0.6249  0.3241  0.2125
  470SOL     OW 1877   3.053   2.514   0.146 -0.2336  0.6311 -0.7248
  470SOL    HW1 1878   2.969   2.495   0.191  0.1584  0.9438 -1.7110
  470SOL    HW2 1879   3.037   2.518   0.052 -1.9199 -0.1702  0.8103
  470SOL     MW 1880   3.040   2.512   0.140 -0.4044  0.5666 -0.6524
  471SOL     OW 1881   1.174   2.704   1.362 -0.0332  0.3117  0.0171
  471SOL    HW1 1882   1.113   2.738   1.431 -0.0072  0.9526  1.1665
  471SOL    HW2 1883   1.155   2.743   1.278  2.1669  0.7249 -1.6213
  471SOL     MW 1884   1.163   2.714   1.360  0.2605  0.4508 -0.0474
  472SOL     OW 1885   2.922   2.125   0.327  0.0822 -0.2393 -0.2896
  472SOL    HW1 1886   2.935   2.082   0.240 -0.4113  3.0071 -0.2282
  472SOL    HW2 1887   2.887   2.060   0.382 -0.6613 -0.2536 -1.8022
  472SOL     MW 1888   2.919   2.111   0.323 -0.0810  0.1871 -0.4810
  473SOL     OW 1889   0.802   2.549   1.280  0.1082 -0.1293  0.2113
  473SOL    HW1 1890   0.800   2.454   1.288  0.8238 -1.9851  0.2632
  473SOL    HW2 1891   0.814   2.584   1.368  0.6937  1.0802 -1.3228
  473SOL     MW 1892   0.803   2.541   1.293  0.2799 -0.2146  0.0158
  474SOL     OW 1893   0.839   2.210   1.790 -0.1824  0.1377  0.0329
  474SOL    HW1 1894   0.934   2.229   1.796  2.8873  0.0064  0.0680
  474SOL    HW2 1895   0.816   2.212   1.692 -0.2651 -1.7449 -0.1682
  474SOL     MW 1896   0.849   2.213   1.778  0.2117 -0.1280  0.0110
  475SOL     OW 1897   1.628   3.080   1.413 -0.1973  0.0429 -0.2310
  475SOL    HW1 1898   1.555   3.123   1.369 -0.9449 -2.0099  1.7269
  475SOL    HW2 1899   1.594   2.993   1.436  1.8048  0.5089 -2.4189
  475SOL     MW 1900   1.614   3.074   1.411 -0.0318 -0.1664 -0.2614
  476SOL     OW 1901   1.432   2.597   0.813  0.7469 -0.1912 -0.3500
  476SOL    HW1 1902   1.399   2.584   0.900  0.4366  2.1409 -0.8705
  476SOL    HW2 1903   1.460   2.692   0.809  0.0880  1.8977  2.5736
  476SOL     MW 1904   1.431   2.608   0.824  0.6190  0.3921 -0.0329
  477SOL     OW 1905   0.881   2.502   0.638  0.0000  0.3980  1.0284
  477SOL    HW1 1906   0.917   2.553   0.565  1.3778  1.2971  5.1748
  477SOL    HW2 1907   0.829   2.430   0.586 -0.9821 -2.0807  2.0996
  477SOL     MW 1908   0.879   2.499   0.621  0.0522  0.1896  1.7168
  478SOL     OW 1909   0.241   2.599   0.936 -0.3257  0.3174 -0.4569
  478SOL    HW1 1910   0.296   2.672   0.964  1.1208  1.5353 -2.4734
  478SOL    HW2 1911   0.300   2.539   0.888  3.1370  1.7681 -0.6178
  478SOL     MW 1912   0.256   2.601   0.934  0.3220  0.6695 -0.7442
  479SOL     OW 1913   1.394   1.949   1.314 -0.4686 -0.1072  0.2597
  479SOL    HW1 1914   1.373   2.013   1.380  0.6272 -0.4390  1.9401
  479SOL    HW2 1915   1.466   1.899   1.355 -1.1091 -2.3120  0.8060
  479SOL     MW 1916   1.401   1.951   1.328 -0.4085 -0.4419  0.5535
  480SOL     OW 1917   1.815   2.345   1.284  0.3503 -0.6580  0.0700
  480SOL    HW1 1918   1.825   2.253   1.317  1.4022  0.7680 -0.8365
  480SOL    HW2 1919   1.852   2.348   1.192  3.6123  0.0095 -1.9066
  480SOL     MW 1920   1.821   2.333   1.276  0.9195 -0.3818 -0.3104
  481SOL     OW 1921   1.221   0.152   1.139 -0.0253  0.2205 -0.8721
  481SOL    HW1 1922   1.251   0.116   1.056  0.6718 -2.2190 -2.2147
  481SOL    HW2 1923   1.196   0.246   1.124  1.2685  1.0796 -0.2995
  481SOL     MW 1924   1.222   0.160   1.126  0.2374  0.0120 -0.9737
  482SOL     OW 1925   1.032   0.026   0.437  0.4157  0.1766 -0.1520
  482SOL    HW1 1926   0.968  -0.044   0.437  0.5643  1.3652 -0.4579
  482SOL    HW2 1927   1.006   0.093   0.373  0.4970 -1.6567 -2.0383
  482SOL     MW 1928   1.020   0.026   0.429  0.4461  0.0915 -0.4412
  483SOL     OW 1929   0.327   2.844   0.587  0.3090 -0.2240  0.8322
  483SOL    HW1 1930   0.285   2.878   0.500  3.0534  1.1106 -2.3414
  483SOL    HW2 1931   0.318   2.911   0.653  0.5718 -0.3028 -2.3399
  483SOL     MW 1932   0.320   2.857   0.584  0.7058 -0.0583 -0.0050
  484SOL     OW 1933   1.653   1.869   1.411  0.2915  0.1713  0.1703
  484SOL    HW1 1934   1.719   1.917   1.373 -1.6185 -0.0519 -1.2576
  484SOL    HW2 1935   1.669   1.861   1.507 -0.6344 -0.8448  1.4461
  484SOL     MW 1936   1.663   1.874   1.419 -0.0826  0.0078  0.1503
  485SOL     OW 1937   0.551   2.322   0.308  0.5899 -0.4119  0.5617
  485SOL    HW1 1938   0.554   2.347   0.402 -0.0946  0.8077 -1.2527
  485SOL    HW2 1939   0.474   2.380   0.280 -1.3837  2.3114  2.8627
  485SOL     MW 1940   0.541   2.333   0.317  0.2392  0.1084  0.6259
  486SOL     OW 1941   0.094   2.481   1.462  0.5801 -0.2517 -0.2810
  486SOL    HW1 1942   0.093   2.576   1.434  1.9798  1.1093 -0.8980
  486SOL    HW2 1943   0.105   2.473   1.559 -3.8932 -0.7578 -2.9473
  486SOL     MW 1944   0.095   2.493   1.471  0.1745 -0.1389 -0.7142
  487SOL     OW 1945   1.276   1.598   0.996 -0.1034 -0.2371 -0.8094
  487SOL    HW1 1946   1.236   1.685   1.026 -0.2492  0.2794 -0.0826
  487SOL    HW2 1947   1.370   1.608   1.007  0.4126  0.2362 -0.7839
  487SOL     MW 1948   1.283   1.611   1.002 -0.0546 -0.1065 -0.7101
  488SOL     OW 1949   1.500   1.823   0.625  0.3828  0.4264  0.2840
  488SOL    HW1 1950   1.479   1.907   0.581 -1.0384 -1.6373 -1.4665
  488SOL    HW2 1951   1.443   1.760   0.577 -0.1062  0.5103 -1.9059
  488SOL     MW 1952   1.490   1.826   0.613  0.1308  0.1652 -0.2359
  489SOL     OW 1953   0.694   0.751   0.522  0.3753  0.2476  0.0895
  489SOL    HW1 1954   0.667   0.662   0.492  1.2687  0.5429  2.2145
  489SOL    HW2 1955   0.681   0.763   0.617 -1.3372  1.5458  0.3171
  489SOL     MW 1956   0.689   0.741   0.531  0.2673  0.4578  0.3999
  490SOL     OW 1957   1.408   2.088   0.426  0.1938  0.1312 -0.1230
  490SOL    HW1 1958   1.468   2.157   0.398 -2.0141  0.6717 -1.1035
  490SOL    HW2 1959   1.326   2.121   0.383 -1.2589 -1.9943  0.3240
  490SOL     MW 1960   1.405   2.101   0.416 -0.2892 -0.0779 -0.1934
  491SOL     OW 1961   1.250   2.988   0.373 -0.4175  0.0499  0.3132
  491SOL    HW1 1962   1.288   3.014   0.456  0.2742 -1.9603  1.3335
  491SOL    HW2 1963   1.165   3.034   0.380  3.7869  2.1631 -0.4079
  491SOL     MW 1964   1.244   2.997   0.385  0.2285  0.0635  0.3527
  492SOL     OW 1965   1.444   2.144   0.708 -0.0304  0.0104 -0.1623
  492SOL    HW1 1966   1.423   2.127   0.617 -0.2069 -0.6585 -0.3997
  492SOL    HW2 1967   1.385   2.085   0.755 -2.0271 -1.0954  0.4368
  492SOL     MW 1968   1.433   2.134   0.702 -0.3171 -0.2238 -0.1146
  493SOL     OW 1969   0.206   2.988   0.344 -0.6787 -0.2191 -0.0823
  493SOL    HW1 1970   0.139   2.979   0.409  0.0132  1.0013  0.2076
  493SOL    HW2 1971   0.161   3.007   0.262 -1.0037 -0.0987  0.9440
  493SOL     MW 1972   0.192   2.989   0.342 -0.6303 -0.0422  0.0913
  494SOL     OW 1973   0.377   2.397   1.786  0.1706  0.3958 -0.0257
  494SOL    HW1 1974   0.389   2.307   1.817 -0.4496 -1.0294  2.6310
  494SOL    HW2 1975   0.429   2.419   1.703  1.3618 -1.1558 -2.1960
  494SOL     MW 1976   0.386   2.388   1.779  0.2459  0.0030  0.0385
  495SOL     OW 1977   2.893   1.633   2.735 -0.3357 -0.1351  0.8999
  495SOL    HW1 1978   2.872   1.719   2.778  0.4069  2.3175  0.8644
  495SOL    HW2 1979   2.863   1.569   2.801  0.4664 -0.6059 -0.2552
  495SOL     MW 1980   2.886   1.636   2.749 -0.1319  0.1264  0.7428
  496SOL     OW 1981   2.758   2.272   2.727 -0.1946 -0.0197  0.0157
  496SOL    HW1 1982   2.775   2.180   2.748  0.6225 -0.9184  1.7851
  496SOL    HW2 1983   2.842   2.317   2.758  1.6164 -0.8936  0.9931
  496SOL     MW 1984   2.771   2.266   2.734  0.1521 -0.2536  0.3781
  497SOL     OW 1985   1.495   2.337   2.543  0.1628  0.0874 -0.0133
  497SOL    HW1 1986   1.512   2.270   2.466 -0.1104  1.6430 -1.9033
  497SOL    HW2 1987   1.465   2.278   2.616  0.3951  0.5722  0.4091
  497SOL     MW 1988   1.493   2.320   2.542  0.1574  0.3566 -0.2069
  498SOL     OW 1989   1.454   2.777   2.296  0.4145  0.2578 -0.0254
  498SOL    HW1 1990   1.449   2.684   2.276  1.6096 -0.5155  2.0791
  498SOL    HW2 1991   1.530   2.789   2.357 -1.6561 -0.3269 -0.0685
  498SOL     MW 1992   1.463   2.766   2.301  0.2990  0.0786  0.2466
  499SOL     OW 1993   0.952   0.117   0.087  0.1594  0.5197  0.4232
  499SOL    HW1 1994   0.862   0.131   0.125 -2.6062  1.6151  1.2603
  499SOL    HW2 1995   0.964   0.020   0.085  0.2353  0.4353 -0.5850
  499SOL     MW 1996   0.942   0.106   0.092 -0.1955  0.6531  0.4006
  500SOL     OW 1997   1.038   2.516   2.745  0.2024 -0.7046  0.5832
  500SOL    HW1 1998   1.089   2.483   2.818 -1.6970  0.4225  0.8665
  500SOL    HW2 1999   0.999   2.600   2.774 -0.5277  1.5040  0.6890
  500SOL     MW 2000   1.040   2.523   2.758 -0.1445 -0.2645  0.6345
  501SOL     OW 2001   1.737   2.242   3.083 -0.0039 -0.8918  0.6449
  501SOL    HW1 2002   1.749   2.337   3.077 -0.6762 -0.0895 -0.5083
  501SOL    HW2 2003   1.831   2.212   3.094  0.8153  0.4977  0.0312
  501SOL     MW 2004   1.751   2.251   3.084  0.0155 -0.6026  0.4118
  502SOL     OW 2005   0.257   2.702   2.972 -0.1452 -0.2633  0.3858
  502SOL    HW1 2006   0.169   2.672   2.960 -1.4093  0.3690  0.3800
  502SOL    HW2 2007   0.274   2.763   2.898  0.3307 -0.3903 -0.1111
  502SOL     MW 2008   0.248   2.706   2.961 -0.2492 -0.1966  0.3195
  503SOL     OW 2009   1.149   2.583   2.110 -0.2530  0.7412  0.2768
  503SOL    HW1 2010   1.223   2.599   2.046  2.0105 -1.2686  0.9424
  503SOL    HW2 2011   1.067   2.597   2.060  1.5675 -3.4775  0.2258
  503SOL     MW 2012   1.148   2.587   2.095  0.2859 -0.0806  0.3579
  504SOL     OW 2013   0.068   2.654   2.162  0.0101 -0.1697 -0.2917
  504SOL    HW1 2014   0.128   2.615   2.096 -1.6204 -0.0058  1.3253
  504SOL    HW2 2015   0.001   2.585   2.174 -0.4695 -4.2510 -0.9977
  504SOL     MW 2016   0.067   2.640   2.155 -0.2683 -0.6865 -0.1715
  505SOL     OW 2017   1.604   2.777   2.736 -0.0450 -0.5416 -0.2066
  505SOL    HW1 2018   1.634   2.802   2.651  2.3437 -0.8253 -1.3584
  505SOL    HW2 2019   1.525   2.833   2.765 -1.5143 -1.5349  0.3685
  505SOL     MW 2020   1.598   2.788   2.729  0.0763 -0.7101 -0.2827
  506SOL     OW 2021   1.589   0.057   2.769 -0.0878 -0.1417  0.4856
  506SOL    HW1 2022   1.610   0.011   2.855 -0.5095 -2.8880  2.5458
  506SOL    HW2 2023   1.659   0.032   2.710 -2.4386 -0.8632  2.2924
  506SOL     MW 2024   1.601   0.048   2.773 -0.4536 -0.5992  0.9958
  507SOL     OW 2025   0.868   2.724   2.819 -0.0395 -0.1089  0.7530
  507SOL    HW1 2026   0.870   2.794   2.753 -1.0791  0.3022  0.4978
  507SOL    HW2 2027   0.777   2.694   2.821 -0.1485 -1.4023  2.5177
  507SOL     MW 2028   0.856   2.729   2.811 -0.1910 -0.2253  0.9522
  508SOL     OW 2029   1.157   2.104   2.595  0.1912 -0.2264  0.1779
  508SOL    HW1 2030   1.239   2.115   2.640  0.5693 -1.1346  1.8830
  508SOL    HW2 2031   1.097   2.060   2.656 -0.3767 -1.4368  0.1856
  508SOL     MW 2032   1.160   2.100   2.609  0.1661 -0.5059  0.4039
  509SOL     OW 2033   0.643   2.567   2.792 -0.0729 -0.3214 -0.1277
  509SOL    HW1 2034   0.623   2.494   2.735  1.1486  0.8383  0.1151
  509SOL    HW2 2035   0.570   2.633   2.787  1.2223  4.9453  1.0144
  509SOL     MW 2036   0.631   2.566   2.784  0.2591  0.5265  0.0550
  510SOL     OW 2037   1.514   2.560   1.624  0.5739 -0.0186  0.3249
  510SOL    HW1 2038   1.564   2.639   1.600 -0.7963 -0.9283 -0.7828
  510SOL    HW2 2039   1.498   2.568   1.715 -0.5981  0.6373  0.6586
  510SOL     MW 2040   1.519   2.571   1.633  0.2385 -0.0521  0.2228
  511SOL     OW 2041   0.356   2.513   2.557  0.0746 -0.2150  0.2793
  511SOL    HW1 2042   0.441   2.470   2.567 -1.3473 -0.2052  2.1114
  511SOL    HW2 2043   0.343   2.525   2.460  1.5527  0.4936 -1.8022
  511SOL     MW 2044   0.366   2.509   2.546  0.0820 -0.1202  0.2464
  512SOL     OW 2045   1.027   1.974   2.854  0.3010  0.6868  0.4080
  512SOL    HW1 2046   0.936   1.994   2.875 -1.1765 -1.4546 -0.7612
  512SOL    HW2 2047   1.052   1.878   2.869 -0.0263 -0.2858  1.0631
  512SOL     MW 2048   1.018   1.964   2.859  0.0629  0.2760  0.3402
  513SOL     OW 2049   1.533   2.524   2.195  0.8204  0.9761 -0.4777
  513SOL    HW1 2050   1.619   2.556   2.177 -0.2662 -1.2294 -0.9878
  513SOL    HW2 2051   1.560   2.464   2.269 -1.4054 -2.4409  1.0449
  513SOL     MW 2052   1.548   2.520   2.202  0.3833  0.2343 -0.3441
  514SOL     OW 2053   0.156   2.345   2.669 -0.8623  0.1117 -0.4341
  514SOL    HW1 2054   0.208   2.420   2.634 -1.5710  0.4341 -0.2189
  514SOL    HW2 2055   0.211   2.290   2.731 -1.9780  0.3486 -0.8033
  514SOL     MW 2056   0.170   2.348   2.672 -1.1030  0.1855 -0.4544
  515SOL     OW 2057   1.089   1.957   1.818  0.1056 -0.7140  0.0870
  515SOL    HW1 2058   1.087   2.049   1.791  0.3312  1.3671 -3.5179
  515SOL    HW2 2059   1.147   1.962   1.896 -0.0707 -1.5129 -4.2255
  515SOL     MW 2060   1.096   1.970   1.825  0.1121 -0.5449 -0.9576
  516SOL     OW 2061   1.299   2.599   2.943  0.3475  0.1580 -0.2418
  516SOL    HW1 2062   1.331   2.611   2.851  1.3533 -1.4540 -0.4925
  516SOL    HW2 2063   1.257   2.516   2.940  2.3630 -0.7204  1.4793
  516SOL     MW 2064   1.297   2.590   2.930  0.7461 -0.1706 -0.0478
  517SOL     OW 2065   0.553   2.360   2.287  0.1019  0.3043  0.5873
  517SOL    HW1 2066   0.521   2.450   2.296  0.3082  1.0650 -0.4816
  517SOL    HW2 2067   0.498   2.313   2.226  0.3362  0.8319 -2.3508
  517SOL     MW 2068   0.541   2.366   2.280  0.1601  0.4743  0.0586
  518SOL     OW 2069   1.812   0.094   3.077 -0.1570 -0.6009  0.1657
  518SOL    HW1 2070   1.809   0.123   3.164  1.3508 -1.0003 -1.9296
  518SOL    HW2 2071   1.750   0.024   3.065  0.0670 -0.6123  1.5269
  518SOL     MW 2072   1.804   0.089   3.087  0.0715 -0.6551  0.0689
  519SOL     OW 2073   0.659   2.434   1.865  0.2546  0.4808 -0.9816
  519SOL    HW1 2074   0.695   2.344   1.857  0.6932  1.5806 -0.9566
  519SOL    HW2 2075   0.576   2.428   1.906  0.8992 -0.2513 -0.6990
  519SOL     MW 2076   0.653   2.421   1.869  0.3975  0.5293 -0.9410
  520SOL     OW 2077   1.232   2.123   2.934  0.2014 -0.1432 -0.0017
  520SOL    HW1 2078   1.170   2.056   2.906 -1.8438 -1.3015  0.5795
  520SOL    HW2 2079   1.262   2.085   3.018  1.2406 -1.5512 -2.4413
  520SOL     MW 2080   1.228   2.109   2.941  0.0687 -0.4818 -0.2469
  521SOL     OW 2081   1.778   2.039   2.255  0.6515  0.6011 -0.0197
  521SOL    HW1 2082   1.798   2.045   2.160 -1.2112  0.8344 -1.2414
  521SOL    HW2 2083   1.785   1.947   2.262  1.9063  1.4630  0.5300
  521SOL     MW 2084   1.782   2.028   2.243  0.5713  0.7456 -0.1084
  522SOL     OW 2085   2.880   2.540   2.230  0.1948 -0.0697 -0.0333
  522SOL    HW1 2086   2.922   2.512   2.316  2.7452 -0.2355  1.6001
  522SOL    HW2 2087   2.880   2.636   2.248  1.5309  1.1906  2.4543
  522SOL     MW 2088   2.885   2.549   2.243  0.7075  0.0747  0.5104
  523SOL     OW 2089   0.820   1.491   2.152  0.1044 -0.1590 -0.0848
  523SOL    HW1 2090   0.788   1.518   2.068 -1.4322 -0.6424  2.4257
  523SOL    HW2 2091   0.899   1.439   2.134 -0.2925 -0.7820  0.0718
  523SOL     MW 2092   0.826   1.488   2.139 -0.1507 -0.3050  0.2671
  524SOL     OW 2093   0.632   2.399   2.992 -0.0099 -0.6221  0.0633
  524SOL    HW1 2094   0.633   2.467   2.925 -1.2494  1.0863 -0.7559
  524SOL    HW2 2095   0.699   2.342   2.973 -0.1578 -0.1556 -0.2311
  524SOL     MW 2096   0.641   2.400   2.981 -0.1930 -0.3351 -0.0836
  525SOL     OW 2097   0.399   2.192   2.115  0.6446  0.3277 -0.0637
  525SOL    HW1 2098   0.394   2.134   2.185 -0.4887  1.4009 -1.9834
  525SOL    HW2 2099   0.440   2.145   2.048  0.2481 -0.9133  1.8021
  525SOL     MW 2100   0.404   2.178   2.115  0.4428  0.3056 -0.0708
  526SOL     OW 2101   0.705   2.123   2.009 -0.6377 -0.0761  0.4100
  526SOL    HW1 2102   0.751   2.125   1.914  0.2962 -0.4492  1.2377
  526SOL    HW2 2103   0.780   2.145   2.070  3.5415  0.9270 -1.0582
  526SOL     MW 2104   0.721   2.126   2.005  0.0369  0.0070  0.3255
  527SOL     OW 2105   1.281   1.903   2.007 -0.2413 -0.2518  0.1709
  527SOL    HW1 2106   1.239   1.831   2.059 -0.2995 -0.2406  0.4270
  527SOL    HW2 2107   1.306   1.861   1.925 -0.2974  0.9787 -0.8564
  527SOL     MW 2108   1.279   1.888   2.003 -0.2564 -0.0880  0.0692
  528SOL     OW 2109   0.625   2.901   2.981 -0.0101  0.1385 -0.9666
  528SOL    HW1 2110   0.621   2.997   2.966 -0.8453 -2.3266  2.8838
  528SOL    HW2 2111   0.603   2.860   2.897  3.1105  1.0828 -0.0085
  528SOL     MW 2112   0.622   2.908   2.968  0.2915 -0.0622 -0.3322
  529SOL     OW 2113   1.118   2.224   1.784 -0.2217 -0.5766  0.7516
  529SOL    HW1 2114   1.151   2.248   1.871 -2.8204 -0.1655  0.0200
  529SOL    HW2 2115   1.184   2.220   1.717 -0.0939 -0.2994  0.6974
  529SOL     MW 2116   1.131   2.227   1.786 -0.5477 -0.4858  0.6479
  530SOL     OW 2117   1.143   2.391   2.960 -0.2539  0.5021 -0.5495
  530SOL    HW1 2118   1.097   2.398   3.041 -0.1050 -1.6315  0.4198
  530SOL    HW2 2119   1.177   2.305   2.960 -0.3039  1.2391 -0.9137
  530SOL     MW 2120   1.141   2.380   2.971 -0.2408  0.3178 -0.4697
  531SOL     OW 2121   0.906   1.818   2.636 -0.0068 -0.2770 -0.2963
  531SOL    HW1 2122   0.886   1.893   2.694 -0.4966 -0.1630  0.6018
  531SOL    HW2 2123   0.860   1.751   2.683  1.3262 -1.0546 -1.5540
  531SOL     MW 2124   0.897   1.819   2.650  0.1045 -0.3646 -0.3437
  532SOL     OW 2125   1.664   0.326   2.867 -0.4480 -0.1685 -0.2994
  532SOL    HW1 2126   1.652   0.244   2.830  0.0605 -1.8206  2.4309
  532SOL    HW2 2127   1.698   0.307   2.954 -0.1764 -0.0768 -1.4372
  532SOL     MW 2128   1.667   0.312   2.874 -0.3451 -0.3744 -0.0893
  533SOL     OW 2129   1.785   2.734   2.958  0.5468 -0.1735 -0.1555
  533SOL    HW1 2130   1.793   2.653   3.013 -1.6103  1.4736 -1.7257
  533SOL    HW2 2131   1.725   2.723   2.882  0.3282  1.6756 -0.6318
  533SOL     MW 2132   1.778   2.722   2.955  0.2334  0.2878 -0.4255
  534SOL     OW 2133   1.748   2.473   2.512 -0.3817 -0.4220 -0.3234
  534SOL    HW1 2134   1.679   2.421   2.548 -0.6257  0.8501 -0.7932
  534SOL    HW2 2135   1.831   2.450   2.560  0.6588 -2.6700  1.4290
  534SOL     MW 2136   1.750   2.463   2.523 -0.2766 -0.5508 -0.1542
  535SOL     OW 2137   1.817   2.351   1.910  0.1997  0.3193  0.0670
  535SOL    HW1 2138   1.763   2.357   1.826  1.7022 -0.0647 -0.1110
  535SOL    HW2 2139   1.885   2.414   1.877  0.0406  1.4835  0.0919
  535SOL     MW 2140   1.819   2.360   1.894  0.3770  0.4223  0.0468
  536SOL     OW 2141   0.449   1.828   2.020  0.8786 -0.4051 -0.6469
  536SOL    HW1 2142   0.466   1.872   1.938 -1.1459  1.2401  1.0822
  536SOL    HW2 2143   0.537   1.839   2.056  0.6907 -2.3797  1.9226
  536SOL     MW 2144   0.463   1.836   2.014  0.5867 -0.4486 -0.0797
  537SOL     OW 2145   0.999   0.182   2.920  0.7094 -0.0834 -0.7239
  537SOL    HW1 2146   0.965   0.161   3.005  0.4759 -1.9420  0.5976
  537SOL    HW2 2147   0.934   0.248   2.884  0.2971  1.5161 -1.6543
  537SOL     MW 2148   0.986   0.188   2.926  0.6242 -0.1175 -0.6723
  538SOL     OW 2149   1.312   0.045   3.044 -0.0397  0.1561 -0.5614
  538SOL    HW1 2150   1.232   0.069   3.003  1.6974 -2.6614  1.1435
  538SOL    HW2 2151   1.359   0.123   3.036  0.0760  0.8469 -0.2777
  538SOL     MW 2152   1.308   0.058   3.037  0.2047 -0.1245 -0.2991
  539SOL     OW 2153   0.715   2.694   2.533  0.1427  0.2833 -0.2573
  539SOL    HW1 2154   0.778   2.762   2.515 -1.1512  0.9245 -0.5123
  539SOL    HW2 2155   0.769   2.620   2.561 -0.8273 -3.1558  1.7633
  539SOL     MW 2156   0.730   2.693   2.534 -0.1560 -0.0859 -0.0244
  540SOL     OW 2157   0.360   2.237   2.842  0.0065  0.4269 -0.1378
  540SOL    HW1 2158   0.421   2.297   2.879 -1.5086  0.0086 -2.3723
  540SOL    HW2 2159   0.335   2.182   2.921 -0.3850  0.4275 -0.4388
  540SOL     MW 2160   0.365   2.238   2.857 -0.2450  0.3718 -0.4723
  541SOL     OW 2161   0.189   2.871   2.274  0.0711 -0.3271 -0.2402
  541SOL    HW1 2162   0.145   2.801   2.223 -0.2103  1.0354 -0.4268
  541SOL    HW2 2163   0.226   2.829   2.354 -0.6017  0.6368  2.2378
  541SOL     MW 2164   0.188   2.856   2.278 -0.0548 -0.0201  0.0621
  542SOL     OW 2165   0.890   2.280   2.741  0.1960  0.4534 -0.8642
  542SOL    HW1 2166   0.906   2.226   2.818 -0.7901 -2.0872  2.2056
  542SOL    HW2 2167   0.946   2.363   2.744  1.2309 -1.5165 -0.2472
  542SOL     MW 2168   0.900   2.284   2.751  0.2024 -0.1417 -0.3777
  543SOL     OW 2169   1.398   2.599   2.674  0.1446 -0.7874  0.0940
  543SOL    HW1 2170   1.408   2.520   2.622 -0.8006 -0.5821 -0.2695
  543SOL    HW2 2171   1.488   2.641   2.688  0.7411 -0.6389  2.1186
  543SOL     MW 2172   1.411   2.594   2.669  0.0986 -0.7407  0.3132
  544SOL     OW 2173   0.699   0.121   2.620 -0.2431  0.9346  1.1876
  544SOL    HW1 2174   0.627   0.062   2.596 -1.8844 -3.0987 -2.0020
  544SOL    HW2 2175   0.745   0.129   2.538  0.9714  1.3071 -0.8410
  544SOL     MW 2176   0.696   0.114   2.606 -0.2994  0.4516  0.4991
  545SOL     OW 2177   1.543   2.164   2.331 -0.5610 -0.3312 -0.0574
  545SOL    HW1 2178   1.505   2.087   2.366  4.7120  1.9359  0.0222
  545SOL    HW2 2179   1.629   2.117   2.323  0.5988 -1.5715  1.2232
  545SOL     MW 2180   1.549   2.147   2.335  0.2878 -0.1958  0.1221
  546SOL     OW 2181   2.990   1.994   0.091 -0.1607 -0.5533  0.2175
  546SOL    HW1 2182   2.990   2.046   0.009  0.3349 -1.2104 -2.1304
  546SOL    HW2 2183   3.089   1.954   0.098  3.4195 -0.1029  2.0864
  546SOL     MW 2184   3.003   1.996   0.081  0.3771 -0.5806  0.1543
  547SOL     OW 2185   0.132   2.939   0.068  0.0433  0.5264  0.3333
  547SOL    HW1 2186   0.169   2.929  -0.018  0.3040  0.6760  1.5994
  547SOL    HW2 2187   0.172   2.863   0.116  1.4572 -2.4416 -1.1334
  547SOL     MW 2188   0.142   2.928   0.063  0.2642  0.1545  0.3068
  548SOL     OW 2189   0.320   2.502   0.265 -0.3847 -0.1893  0.1958
  548SOL    HW1 2190   0.289   2.583   0.222  1.2605  0.1929 -3.2573
  548SOL    HW2 2191   0.246   2.437   0.252 -0.6116  1.0404 -0.6298
  548SOL     MW 2192   0.306   2.504   0.257 -0.1976  0.0234 -0.3687
  549SOL     OW 2193   0.696   1.875   2.113  0.1448  0.4851 -0.5412
  549SOL    HW1 2194   0.708   1.975   2.093 -1.6988  4.8027 -1.6826
  549SOL    HW2 2195   0.711   1.852   2.205 -1.3197  1.5375 -0.6765
  549SOL     MW 2196   0.699   1.885   2.123 -0.2917  1.1936 -0.7097
  550SOL     OW 2197   1.830   1.744   2.561  0.0335  0.2727  0.2988
  550SOL    HW1 2198   1.812   1.752   2.470 -1.1099 -0.1515  0.3899
  550SOL    HW2 2199   1.807   1.817   2.615  0.0240 -2.4165  0.9497
  550SOL     MW 2200   1.824   1.755   2.556 -0.1186 -0.1381  0.3967
  551SOL     OW 2201   0.874   2.313   0.250  0.2728  0.3527 -0.9229
  551SOL    HW1 2202   0.958   2.353   0.231  1.0269  0.5045 -0.2350
  551SOL    HW2 2203   0.867   2.247   0.183  0.7636 -0.8068  0.6000
  551SOL     MW 2204   0.884   2.309   0.239  0.4371  0.2197 -0.6312
  552SOL     OW 2205   1.773   1.771   2.285  0.7968 -0.3172  0.1304
  552SOL    HW1 2206   1.680   1.775   2.300  3.5985  0.8226 -0.1372
  552SOL    HW2 2207   1.799   1.720   2.201  1.2466  2.5870  1.5530
  552SOL     MW 2208   1.764   1.765   2.276  1.2258  0.2164  0.2828
  553SOL     OW 2209   1.211   2.327   1.534 -0.4126 -0.3229  0.0001
  553SOL    HW1 2210   1.248   2.240   1.520  0.6281 -1.0205  0.9737
  553SOL    HW2 2211   1.269   2.395   1.497  2.0451 -0.1567  0.9748
  553SOL     MW 2212   1.224   2.325   1.527  0.0490 -0.3930  0.2572
  554SOL     OW 2213   0.560   2.827   2.707  0.4253  0.2687 -0.0869
  554SOL    HW1 2214   0.536   2.913   2.666 -1.4661  0.4729  1.5189
  554SOL    HW2 2215   0.619   2.791   2.649 -1.2236 -1.3977  1.7898
  554SOL     MW 2216   0.565   2.834   2.694 -0.0418  0.0758  0.3725
  555SOL     OW 2217   0.593   2.375   2.607  0.5405 -0.0843 -0.3880
  555SOL    HW1 2218   0.603   2.283   2.633 -0.0254 -1.7357 -0.2747
  555SOL    HW2 2219   0.676   2.396   2.569 -0.9274 -2.6017  0.7080
  555SOL     MW 2220   0.605   2.366   2.605  0.2722 -0.6344 -0.2284
  556SOL     OW 2221   1.038   1.784   0.139 -0.3168 -0.3065  0.1060
  556SOL    HW1 2222   1.066   1.751   0.050  0.4001  3.3478 -1.1331
  556SOL    HW2 2223   1.115   1.812   0.185 -0.8092 -0.8127  1.0034
  556SOL     MW 2224   1.052   1.783   0.133 -0.2872  0.1088  0.0610
  557SOL     OW 2225   0.993   2.691   0.477 -0.7487  0.3369 -0.6237
  557SOL    HW1 2226   1.034   2.686   0.389 -2.5321  1.4128 -0.8018
  557SOL    HW2 2227   0.931   2.775   0.481 -1.7550 -0.5934 -0.5617
  557SOL     MW 2228   0.990   2.702   0.466 -1.1167  0.3561 -0.6391
  558SOL     OW 2229   0.284   2.117   3.083 -0.4583  0.0973  0.4191
  558SOL    HW1 2230   0.257   2.032   3.105 -0.6943 -1.0327 -1.0425
  558SOL    HW2 2231   0.226   2.182   3.113  2.3415  2.4022 -1.3177
  558SOL     MW 2232   0.273   2.114   3.090 -0.1201  0.2523 -0.0029
  559SOL     OW 2233   1.179   2.302   2.056 -0.2172 -0.0633 -0.2766
  559SOL    HW1 2234   1.179   2.398   2.083  2.2143  1.3848  1.0494
  559SOL    HW2 2235   1.170   2.260   2.140  0.5308  1.2964 -2.4075
  559SOL     MW 2236   1.178   2.309   2.071  0.2023  0.3072 -0.3828
  560SOL     OW 2237   1.970   2.861   0.013  0.2435 -1.3095  0.0680
  560SOL    HW1 2238   2.007   2.934  -0.041 -0.2673 -2.2736 -1.2572
  560SOL    HW2 2239   1.900   2.822  -0.045  0.9391 -1.5898  0.6080
  560SOL     MW 2240   1.965   2.866  -0.002  0.2679 -1.4737 -0.0356
  561SOL     OW 2241   0.475   2.089   0.204  0.2292 -0.2578  0.7132
  561SOL    HW1 2242   0.435   2.136   0.131 -2.0464  4.3191 -3.0829
  561SOL    HW2 2243   0.518   2.162   0.249  1.7493 -2.8548 -0.6915
  561SOL     MW 2244   0.475   2.105   0.200  0.1295  0.0034  0.0270
  562SOL     OW 2245   0.896   2.167   2.190  0.1295  0.3040 -0.4835
  562SOL    HW1 2246   0.880   2.257   2.211  2.7343  0.1686 -1.0860
  562SOL    HW2 2247   0.988   2.140   2.201 -0.4964 -2.3689 -0.0725
  562SOL     MW 2248   0.906   2.175   2.194  0.3906 -0.0665 -0.5088
  563SOL     OW 2249   1.217   0.284   0.576 -0.4393  0.0290 -0.2530
  563SOL    HW1 2250   1.171   0.266   0.490 -2.5488  1.4987 -0.8846
  563SOL    HW2 2251   1.253   0.198   0.603  1.1702 -1.2044  0.4756
  563SOL     MW 2252   1.215   0.270   0.568 -0.5053  0.0602 -0.2402
  564SOL     OW 2253   1.018   2.591   2.373  0.0165 -0.2805  0.4180
  564SOL    HW1 2254   1.069   2.588   2.291  1.4511  0.3971  2.4645
  564SOL    HW2 2255   1.064   2.646   2.433  2.5936 -2.7204 -1.5044
  564SOL     MW 2256   1.031   2.598   2.370  0.5458 -0.5130  0.4344
  565SOL     OW 2257   2.925   2.635   2.593 -0.2293  0.1490 -0.4533
  565SOL    HW1 2258   2.996   2.700   2.584  3.5077  1.6578 -2.1395
  565SOL    HW2 2259   2.838   2.650   2.550  2.2127 -0.1808  0.6312
  565SOL     MW 2260   2.923   2.645   2.586  0.5859  0.3046 -0.5327
  566SOL     OW 2261   2.255   1.939   2.352  0.1352  0.0506 -0.3495
  566SOL    HW1 2262   2.272   1.952   2.257  0.9478 -0.7997 -1.4135
  566SOL    HW2 2263   2.306   2.012   2.394  0.5836 -0.6182  0.5961
  566SOL     MW 2264   2.264   1.950   2.345  0.3015 -0.1498 -0.3651
  567SOL     OW 2265   1.199   2.912   0.044  0.3951 -0.4538  0.6952
  567SOL    HW1 2266   1.241   2.998   0.014 -0.0603  0.8944  2.1980
  567SOL    HW2 2267   1.186   2.866  -0.040 -0.3029  0.0706 -0.2583
  567SOL     MW 2268   1.203   2.917   0.029  0.2430 -0.2067  0.7676
  568SOL     OW 2269   1.648   2.131   2.851  0.2252 -0.1038  0.5018
  568SOL    HW1 2270   1.696   2.191   2.914 -0.5577  0.3867  1.1997
  568SOL    HW2 2271   1.719   2.088   2.805 -3.1074 -2.1414  2.6407
  568SOL     MW 2272   1.663   2.133   2.853 -0.3178 -0.3079  0.8761
  569SOL     OW 2273   0.109   2.179   2.424  0.9593  0.6766 -0.2856
  569SOL    HW1 2274   0.045   2.222   2.368  0.4639 -0.8359  1.9783
  569SOL    HW2 2275   0.148   2.250   2.478 -0.0535  0.3983 -0.8143
  569SOL     MW 2276   0.106   2.194   2.424  0.7603  0.4403 -0.0566
  570SOL     OW 2277   1.422   0.425   0.493  0.1300  0.4298  0.3982
  570SOL    HW1 2278   1.351   0.374   0.537  1.3954 -1.1843  2.1631
  570SOL    HW2 2279   1.467   0.464   0.561 -4.4041  0.0969 -2.3642
  570SOL     MW 2280   1.419   0.423   0.508 -0.3013  0.1729  0.2666
  571SOL     OW 2281   1.477   2.397   1.943  0.2894 -0.0786 -0.5697
  571SOL    HW1 2282   1.508   2.435   2.025 -1.6871 -1.3578 -1.2856
  571SOL    HW2 2283   1.446   2.310   1.970  0.7896 -0.9807 -3.2913
  571SOL     MW 2284   1.477   2.390   1.957  0.0946 -0.3664 -1.0232
  572SOL     OW 2285   0.925   2.604   3.083 -0.0420  0.3908 -0.0222
  572SOL    HW1 2286   0.908   2.641   2.996  0.6857  0.1357  0.0792
  572SOL    HW2 2287   0.839   2.590   3.115  1.9230  2.0653 -0.9343
  572SOL     MW 2288   0.911   2.607   3.076  0.3133  0.5780 -0.1292
  573SOL     OW 2289   1.117   2.417   0.196  0.5075 -0.2710 -0.0895
  573SOL    HW1 2290   1.212   2.390   0.174 -0.3561  1.8728 -2.9238
  573SOL    HW2 2291   1.112   2.515   0.209 -2.0370  3.3299  1.3801
  573SOL     MW 2292   1.129   2.427   0.195  0.0578  0.4870 -0.2695
  574SOL     OW 2293   1.152   2.676   0.250 -0.2771 -0.2309  0.5258
  574SOL    HW1 2294   1.235   2.685   0.301 -2.4600 -0.5385  0.0069
  574SOL    HW2 2295   1.153   2.749   0.182  0.0802  0.9458 -1.9595
  574SOL     MW 2296   1.163   2.687   0.247 -0.5180 -0.1163  0.1294
  575SOL     OW 2297   3.049   2.318   1.868  0.0243 -0.5285 -0.9617
  575SOL    HW1 2298   3.079   2.235   1.826  0.4939 -3.7175  0.4629
  575SOL    HW2 2299   3.111   2.386   1.834 -1.1463  1.5196 -0.8174
  575SOL     MW 2300   3.061   2.316   1.858 -0.0682 -0.6791 -0.7547
  576SOL     OW 2301   2.805   1.833   2.052 -0.4784  0.2982  0.9924
  576SOL    HW1 2302   2.805   1.920   2.007  0.4319 -2.8060 -0.5522
  576SOL    HW2 2303   2.716   1.797   2.035 -0.4309  0.9807 -1.3500
  576SOL     MW 2304   2.794   1.840   2.044 -0.3520 -0.0213  0.4796
  577SOL     OW 2305   2.091   0.248   0.082  0.5144  0.8294  0.1863
  577SOL    HW1 2306   2.029   0.282   0.024 -0.4211 -2.8703 -2.1233
  577SOL    HW2 2307   2.039   0.195   0.151 -0.4676  0.6612 -1.2994
  577SOL     MW 2308   2.076   0.245   0.084  0.2614  0.3191 -0.3145
  578SOL     OW 2309   2.034   2.087   2.384 -0.3087 -0.4705 -0.0195
  578SOL    HW1 2310   1.949   2.041   2.370  1.8796 -1.1929 -1.7947
  578SOL    HW2 2311   2.107   2.027   2.358 -0.7602 -1.9423 -0.4976
  578SOL     MW 2312   2.032   2.073   2.379 -0.0795 -0.7600 -0.3168
  579SOL     OW 2313   0.842   2.421   2.496 -0.1662 -0.2015 -0.3376
  579SOL    HW1 2314   0.878   2.357   2.556  1.3621 -2.3804 -4.1250
  579SOL    HW2 2315   0.918   2.481   2.483 -2.3073  0.4757 -1.5849
  579SOL     MW 2316   0.856   2.421   2.502 -0.2470 -0.3996 -1.0019
  580SOL     OW 2317   0.901   2.931   0.032 -1.0184  0.5052  0.4576
  580SOL    HW1 2318   1.000   2.911   0.034  0.3747  0.1727 -2.2624
  580SOL    HW2 2319   0.872   2.866  -0.028  1.6698  3.2658  1.1398
  580SOL     MW 2320   0.910   2.920   0.024 -0.4799  0.8255  0.1887
  581SOL     OW 2321   1.092   2.522   1.723 -0.6385 -0.3514 -0.6523
  581SOL    HW1 2322   1.175   2.554   1.759 -2.9191 -1.0667  4.2909
  581SOL    HW2 2323   1.106   2.427   1.708  2.2307  1.5913 -1.1584
  581SOL     MW 2324   1.104   2.514   1.726 -0.5608 -0.1894 -0.0669
  582SOL     OW 2325   0.010   2.832   2.545 -0.2351 -0.2191 -0.5400
  582SOL    HW1 2326  -0.003   2.900   2.607 -0.2760 -0.1919 -3.1517
  582SOL    HW2 2327   0.110   2.826   2.546  1.0617  0.7048 -0.1000
  582SOL     MW 2328   0.022   2.840   2.553 -0.0694 -0.0936 -0.8265
  583SOL     OW 2329   1.985   2.458   2.640  0.1733  0.1642 -0.1137
  583SOL    HW1 2330   2.057   2.467   2.577  2.3315 -0.2595 -2.5681
  583SOL    HW2 2331   1.991   2.365   2.656 -1.4573 -1.8825  2.8291
  583SOL     MW 2332   1.995   2.447   2.634  0.2429 -0.1618 -0.0493
  584SOL     OW 2333   0.188   1.852   2.115 -0.2900  0.3522  0.4353
  584SOL    HW1 2334   0.281   1.831   2.093  1.6402 -1.1661  1.0709
  584SOL    HW2 2335   0.196   1.923   2.179 -0.2327 -0.4566 -1.8992
  584SOL     MW 2336   0.202   1.858   2.120 -0.0277  0.0452  0.2111
  585SOL     OW 2337   1.491   2.557   0.037 -0.2104 -0.0245  0.6045
  585SOL    HW1 2338   1.433   2.593  -0.030  1.6672  2.4352 -1.6396
  585SOL    HW2 2339   1.488   2.623   0.112  0.2973  0.7814 -0.5740
  585SOL     MW 2340   1.483   2.570   0.038  0.1043  0.4063  0.1529
  586SOL     OW 2341   1.236   3.002   2.378 -0.0797 -0.6181 -0.1247
  586SOL    HW1 2342   1.321   2.972   2.343 -0.7393  1.9433 -1.0295
  586SOL    HW2 2343   1.248   3.021   2.474  1.0452  1.3427  2.6961
  586SOL     MW 2344   1.249   3.000   2.386 -0.0183 -0.0214  0.1281
  587SOL     OW 2345   1.236   1.625   2.133  0.3598  0.0713 -0.3678
  587SOL    HW1 2346   1.218   1.550   2.192  0.1478  0.6064  0.5135
  587SOL    HW2 2347   1.214   1.594   2.048 -0.1310  0.2049 -2.9064
  587SOL     MW 2348   1.231   1.611   2.130  0.2671  0.1596 -0.5864
  588SOL     OW 2349   1.411   2.110   2.725 -0.5717 -0.2530 -0.3974
  588SOL    HW1 2350   1.494   2.113   2.766 -1.3194  1.6602  0.0698
  588SOL    HW2 2351   1.362   2.109   2.808  1.7593 -0.0464 -1.1568
  588SOL     MW 2352   1.416   2.111   2.741 -0.3628  0.0267 -0.4359
  589SOL     OW 2353   1.358   2.066   0.070  0.1820 -0.0468  0.1823
  589SOL    HW1 2354   1.329   2.157   0.086 -0.9885  0.2256 -0.4545
  589SOL    HW2 2355   1.335   2.020   0.152 -2.8609  2.3618 -0.0481
  589SOL     MW 2356   1.351   2.072   0.083 -0.3739  0.3070  0.0679
  590SOL     OW 2357   0.418   2.610   2.243 -0.3843 -0.2316  0.1833
  590SOL    HW1 2358   0.399   2.621   2.150  2.2016 -1.6553 -0.0665
  590SOL    HW2 2359   0.494   2.665   2.256 -1.3173  0.5836  0.1043
  590SOL     MW 2360   0.425   2.619   2.233 -0.1662 -0.3119  0.1400
  591SOL     OW 2361   2.305   0.707   3.085  0.3067 -0.0717  1.0358
  591SOL    HW1 2362   2.221   0.743   3.055  0.2952 -1.1651 -2.3516
  591SOL    HW2 2363   2.370   0.767   3.045  0.1515  1.8979 -0.0464
  591SOL     MW 2364   2.303   0.720   3.076  0.2847  0.0439  0.4461
  592SOL     OW 2365   1.848   3.007   0.845  0.0250  0.4975 -0.2988
  592SOL    HW1 2366   1.863   3.030   0.756  1.1326 -0.0472  0.3868
  592SOL    HW2 2367   1.864   2.911   0.828  0.5924 -0.9138  2.1326
  592SOL     MW 2368   1.852   2.998   0.831  0.2460  0.2394  0.1125
  593SOL     OW 2369   1.905   0.776   0.862  0.0107 -0.8169  0.2154
  593SOL    HW1 2370   1.855   0.736   0.787 -1.8292 -0.2459 -1.7762
  593SOL    HW2 2371   1.953   0.701   0.893 -1.4022 -1.0838 -0.5508
  593SOL     MW 2372   1.905   0.761   0.856 -0.4185 -0.7768 -0.1484
  594SOL     OW 2373   2.724   1.124   1.374 -0.1423  0.0824  0.3984
  594SOL    HW1 2374   2.805   1.177   1.384  2.1973 -0.9582  0.0711
  594SOL    HW2 2375   2.701   1.094   1.288  0.8946  0.6929 -0.0216
  594SOL     MW 2376   2.731   1.127   1.364  0.3032  0.0256  0.2998
  595SOL     OW 2377   0.451   0.940   0.710 -0.0957  0.3708 -0.5988
  595SOL    HW1 2378   0.490   1.009   0.661 -2.2322 -0.1686  0.7609
  595SOL    HW2 2379   0.448   0.982   0.796 -0.6309  0.1775 -2.8963
  595SOL     MW 2380   0.456   0.955   0.715 -0.4482  0.2741 -0.7225
  596SOL     OW 2381   2.433   1.369   0.590 -0.4703  0.1104  0.3879
  596SOL    HW1 2382   2.452   1.462   0.575  1.4878  0.9264 -1.4862
  596SOL    HW2 2383   2.503   1.340   0.650  1.8994  2.9818  0.8088
  596SOL     MW 2384   2.445   1.378   0.596  0.1007  0.5969  0.1962
  597SOL     OW 2385   2.184   0.657   1.731 -0.1178 -0.1901 -0.1379
  597SOL    HW1 2386   2.245   0.583   1.739 -0.7524 -0.1418 -1.8897
  597SOL    HW2 2387   2.146   0.637   1.646 -1.6687 -3.2158  3.2045
  597SOL     MW 2388   2.187   0.645   1.721 -0.4062 -0.5829  0.0720
  598SOL     OW 2389   2.602   1.015   2.850  0.1828 -0.0118 -0.7700
  598SOL    HW1 2390   2.638   0.987   2.759  0.3382 -1.3120  1.3451
  598SOL    HW2 2391   2.673   1.075   2.888  1.8132  0.5830  2.5020
  598SOL     MW 2392   2.616   1.020   2.843  0.4184 -0.1049 -0.0592
  599SOL     OW 2393   2.928   0.346   2.019 -0.0488 -0.2762  0.3721
  599SOL    HW1 2394   2.897   0.374   2.107  0.6590  0.3121 -2.1189
  599SOL    HW2 2395   2.987   0.415   1.987 -0.2954 -0.9424 -0.7850
  599SOL     MW 2396   2.932   0.359   2.026  0.0121 -0.2865 -0.1092
  600SOL     OW 2397   1.892   1.726   0.884 -0.0055  0.0113 -0.3273
  600SOL    HW1 2398   1.893   1.704   0.977  0.6624  1.2637 -0.9949
  600SOL    HW2 2399   1.808   1.777   0.879  2.5238 -0.6524 -1.4786
  600SOL     MW 2400   1.881   1.730   0.895  0.4163  0.0890 -0.5673
  601SOL     OW 2401   2.533   0.809   0.859 -0.4608 -0.2381 -0.4524
  601SOL    HW1 2402   2.525   0.810   0.959 -0.0933  1.4566 -1.3568
  601SOL    HW2 2403   2.479   0.743   0.825 -0.8177  0.1212 -0.5240
  601SOL     MW 2404   2.525   0.800   0.868 -0.4594  0.0329 -0.5812
  602SOL     OW 2405   2.319   1.919   0.704  0.5115 -0.0203  0.3227
  602SOL    HW1 2406   2.244   1.873   0.744  0.6278 -0.8374  0.5073
  602SOL    HW2 2407   2.278   1.968   0.630  1.9354  1.2247 -1.2392
  602SOL     MW 2408   2.304   1.919   0.699  0.7147  0.0362  0.1410
  603SOL     OW 2409   2.987   1.402   1.788  0.5664  0.0241 -0.0599
  603SOL    HW1 2410   3.061   1.429   1.836 -1.8729 -1.6120 -1.0976
  603SOL    HW2 2411   2.991   1.307   1.786  1.5100 -1.7077 -0.0009
  603SOL     MW 2412   2.997   1.393   1.794  0.3690 -0.4203 -0.1890
  604SOL     OW 2413   2.116   1.591   0.443 -0.0557 -0.2125 -0.0130
  604SOL    HW1 2414   2.131   1.516   0.499  1.5126  0.5932  0.4517
  604SOL    HW2 2415   2.063   1.646   0.502 -0.9795  0.6130 -1.9631
  604SOL     MW 2416   2.111   1.588   0.458  0.0294  0.0027 -0.2090
  605SOL     OW 2417   2.679   1.572   0.857  0.5290 -0.0383 -0.2496
  605SOL    HW1 2418   2.601   1.599   0.813  1.5451 -2.4755  2.1341
  605SOL    HW2 2419   2.658   1.485   0.892  1.4518  0.6213 -4.2991
  605SOL     MW 2420   2.666   1.564   0.856  0.7848 -0.2728 -0.4694
  606SOL     OW 2421   2.572   1.766   1.972  0.1324  0.1256 -1.0051
  606SOL    HW1 2422   2.474   1.762   1.981  0.9433 -4.9193 -0.7599
  606SOL    HW2 2423   2.597   1.686   1.920  0.4879 -0.9711  2.3458
  606SOL     MW 2424   2.562   1.755   1.967  0.2863 -0.6848 -0.5306
  607SOL     OW 2425   2.352   1.002   3.007 -0.1723  0.1030  0.1770
  607SOL    HW1 2426   2.437   1.019   2.966 -0.1921  3.5823  2.2850
  607SOL    HW2 2427   2.363   1.050   3.094 -2.0716  0.0122 -0.5732
  607SOL     MW 2428   2.364   1.011   3.013 -0.4255  0.5501  0.3562
  608SOL     OW 2429   1.883   0.302   0.563 -0.3566  0.8695  0.2820
  608SOL    HW1 2430   1.928   0.349   0.494  2.4279 -2.2270  0.0780
  608SOL    HW2 2431   1.872   0.203   0.547 -0.7163 -1.7862  1.4486
  608SOL     MW 2432   1.888   0.295   0.552 -0.0367  0.1106  0.4090
  609SOL     OW 2433   2.161   1.948   3.045 -0.0977  0.0679 -0.0646
  609SOL    HW1 2434   2.084   1.900   3.004  1.4160 -0.9423 -0.6665
  609SOL    HW2 2435   2.153   1.933   3.138  1.1907 -0.2868 -1.1216
  609SOL     MW 2436   2.150   1.940   3.052  0.2720 -0.1122 -0.2835
  610SOL     OW 2437   1.865   1.066   1.293  0.7743  0.3188 -0.8821
  610SOL    HW1 2438   1.874   0.999   1.220 -0.2529  0.6878 -0.3992
  610SOL    HW2 2439   1.775   1.051   1.322 -1.2751  2.0990 -2.2704
  610SOL     MW 2440   1.854   1.055   1.288  0.3684  0.6023 -1.0016
  611SOL     OW 2441   2.446   1.654   0.705 -0.0976 -0.0306  0.1665
  611SOL    HW1 2442   2.419   1.736   0.745 -0.7720  2.5294 -2.1958
  611SOL    HW2 2443   2.491   1.679   0.619  0.5632  0.9529  2.5597
  611SOL     MW 2444   2.448   1.668   0.699 -0.0994  0.4369  0.1706
  612SOL     OW 2445   2.790   2.843   0.472  0.3429 -0.3993  0.2271
  612SOL    HW1 2446   2.829   2.887   0.553 -0.6661  1.2577 -0.6322
  612SOL    HW2 2447   2.862   2.800   0.424 -1.1424  1.4927 -2.6964
  612SOL     MW 2448   2.805   2.843   0.476  0.0138  0.0690 -0.2720
  613SOL     OW 2449   1.553   1.046   1.092  0.0124 -0.4618 -0.3173
  613SOL    HW1 2450   1.558   1.143   1.100  1.1283 -2.2479 -2.7088
  613SOL    HW2 2451   1.608   1.008   1.161 -0.6509 -0.5811 -1.1222
  613SOL     MW 2452   1.561   1.054   1.102  0.0721 -0.7132 -0.7391
  614SOL     OW 2453   2.057   0.568   1.510  0.3972 -0.0037  0.6756
  614SOL    HW1 2454   2.036   0.483   1.545  0.1339 -2.3413 -0.5566
  614SOL    HW2 2455   2.051   0.548   1.415 -0.9003  2.2569 -0.3942
  614SOL     MW 2456   2.053   0.554   1.502  0.1913 -0.0138  0.3719
  615SOL     OW 2457   2.256   0.839   0.224 -0.8182 -0.2076  0.1337
  615SOL    HW1 2458   2.300   0.797   0.294 -0.0389  0.3352 -0.1567
  615SOL    HW2 2459   2.278   0.788   0.149  2.1999  1.7087  1.1679
  615SOL     MW 2460   2.265   0.827   0.223 -0.3172  0.1169  0.2318
  616SOL     OW 2461   2.533   0.421   1.616  0.6765 -0.6905  0.1312
  616SOL    HW1 2462   2.495   0.355   1.558  1.9897 -0.1905 -1.6031
  616SOL    HW2 2463   2.604   0.472   1.572 -0.4311  0.7492 -0.1547
  616SOL     MW 2464   2.537   0.419   1.603  0.7037 -0.4345 -0.1354
  617SOL     OW 2465   2.852   0.583   1.728 -0.5077  0.2384  0.3395
  617SOL    HW1 2466   2.799   0.635   1.784 -3.0479 -2.3035  2.0884
  617SOL    HW2 2467   2.818   0.496   1.736  0.4002  1.2529 -0.1251
  617SOL     MW 2468   2.841   0.579   1.737 -0.7231  0.0369  0.5090
  618SOL     OW 2469   2.679   0.348   1.896  0.7009 -0.2021  0.1003
  618SOL    HW1 2470   2.652   0.439   1.898  0.2807 -0.9963 -2.2225
  618SOL    HW2 2471   2.763   0.341   1.940 -0.8333 -0.1731  0.9884
  618SOL     MW 2472   2.686   0.359   1.902  0.4431 -0.3030 -0.0890
  619SOL     OW 2473   2.587   0.782   0.164  0.3386 -0.7010 -0.1222
  619SOL    HW1 2474   2.652   0.825   0.222 -0.9364 -0.6135 -0.7236
  619SOL    HW2 2475   2.527   0.723   0.220 -1.3155 -1.2528  0.9012
  619SOL     MW 2476   2.587   0.780   0.179 -0.0478 -0.7623 -0.0665
  620SOL     OW 2477   2.295   1.084   0.934  0.0988 -0.1396 -0.3731
  620SOL    HW1 2478   2.356   1.138   0.883  2.6237 -3.0258  0.7063
  620SOL    HW2 2479   2.308   0.999   0.894 -1.5308  1.2294  0.7369
  620SOL     MW 2480   2.305   1.080   0.922  0.2169 -0.3398 -0.0842
  621SOL     OW 2481   1.487   2.109   2.000  0.1146 -0.5521 -0.1257
  621SOL    HW1 2482   1.415   2.071   2.040 -0.1721  0.1063  0.2154
  621SOL    HW2 2483   1.558   2.127   2.063  1.0485  2.4000  0.3135
  621SOL     MW 2484   1.487   2.107   2.014  0.2000 -0.0758 -0.0227
  622SOL     OW 2485   2.635   0.136   0.226  0.5278  0.4098  0.5979
  622SOL    HW1 2486   2.717   0.146   0.269 -0.6573 -2.1816 -0.4051
  622SOL    HW2 2487   2.621   0.043   0.189  2.7296  0.7509 -0.4877
  622SOL     MW 2488   2.644   0.125   0.227  0.6619  0.1129  0.3224
  623SOL     OW 2489   2.347   2.731   0.884 -0.0973 -0.9350  0.3827
  623SOL    HW1 2490   2.397   2.810   0.880  0.5956 -0.5010  0.6446
  623SOL    HW2 2491   2.281   2.748   0.948  0.7002 -0.4848  1.8265
  623SOL     MW 2492   2.345   2.744   0.892  0.0993 -0.8183  0.6077
  624SOL     OW 2493   2.261   1.657   3.045  0.1612  0.1580 -0.0984
  624SOL    HW1 2494   2.178   1.612   3.065 -1.7657 -2.2393 -0.1930
  624SOL    HW2 2495   2.245   1.749   3.059  1.0723  0.4704  0.5609
  624SOL     MW 2496   2.248   1.663   3.050  0.0271 -0.1171 -0.0239
  625SOL     OW 2497   2.122   1.952   1.063  0.2025  0.1484  0.4028
  625SOL    HW1 2498   2.191   1.909   1.110 -1.8195 -0.4868 -0.1122
  625SOL    HW2 2499   2.126   1.907   0.978 -0.2557  2.6744 -1.8584
  625SOL     MW 2500   2.132   1.941   1.058 -0.1247  0.3979  0.0365
  626SOL     OW 2501   0.182   1.573   2.332  0.5118  0.5211 -0.5214
  626SOL    HW1 2502   0.138   1.496   2.307 -0.2817  3.7149 -5.4799
  626SOL    HW2 2503   0.133   1.609   2.407  0.7567  1.1186  0.7047
  626SOL     MW 2504   0.169   1.567   2.339  0.4394  1.0214 -1.0138
  627SOL     OW 2505   2.480   0.824   2.600  0.5886  0.0769  0.6806
  627SOL    HW1 2506   2.441   0.915   2.594  2.9443  0.6644  0.1447
  627SOL    HW2 2507   2.471   0.792   2.510  0.4489  3.9485 -1.1247
  627SOL     MW 2508   2.473   0.832   2.587  0.8810  0.6652  0.3717
  628SOL     OW 2509   2.258   1.362   1.364 -0.1652 -0.5326  0.4729
  628SOL    HW1 2510   2.237   1.285   1.321  0.0159  1.2879  0.2413
  628SOL    HW2 2511   2.353   1.354   1.366  1.1868  0.2510 -1.4604
  628SOL     MW 2512   2.268   1.351   1.359  0.0370 -0.1890  0.1872
  629SOL     OW 2513   2.002   0.543   1.228 -0.4456 -0.2229  0.1380
  629SOL    HW1 2514   2.076   0.609   1.221  1.5675  0.5223 -0.3184
  629SOL    HW2 2515   1.927   0.600   1.244 -0.5410 -0.2057  1.1245
  629SOL     MW 2516   2.001   0.559   1.229 -0.1926 -0.1223  0.2080
  630SOL     OW 2517   2.508   1.814   3.019 -0.0954  0.3740 -0.6362
  630SOL    HW1 2518   2.450   1.880   2.979 -2.5088  1.6208 -1.0916
  630SOL    HW2 2519   2.457   1.744   3.046 -0.6564 -0.3625  0.0847
  630SOL     MW 2520   2.494   1.814   3.017 -0.4878  0.4413 -0.6012
  631SOL     OW 2521   1.979   1.806   1.567  0.2099  0.2730  0.0855
  631SOL    HW1 2522   2.030   1.735   1.610  3.5081  1.7151 -1.6470
  631SOL    HW2 2523   1.955   1.778   1.477  0.5722 -1.7877 -0.5180
  631SOL     MW 2524   1.983   1.793   1.561  0.6929  0.1914 -0.2227
  632SOL     OW 2525   0.126   2.088   1.529 -0.6121 -0.1831 -0.5725
  632SOL    HW1 2526   0.080   2.072   1.618 -0.9088 -0.5787 -0.6110
  632SOL    HW2 2527   0.140   1.992   1.500 -0.7272  0.0465  1.9809
  632SOL     MW 2528   0.121   2.073   1.537 -0.6664 -0.2050 -0.2407
  633SOL     OW 2529   2.423   0.665   0.361  0.3111 -0.3359  0.3675
  633SOL    HW1 2530   2.510   0.655   0.404  2.3562 -1.2598 -0.2379
  633SOL    HW2 2531   2.360   0.589   0.366  0.1071  1.5535  0.6185
  633SOL     MW 2532   2.427   0.654   0.367  0.5540 -0.2085  0.3207
  634SOL     OW 2533   2.649   0.002   0.668 -0.1577  0.5293  0.3610
  634SOL    HW1 2534   2.707   0.076   0.657 -1.2987  2.6534  1.7078
  634SOL    HW2 2535   2.597   0.000   0.584 -0.6635 -0.0803 -0.2712
  634SOL     MW 2536   2.650   0.011   0.656 -0.3750  0.7292  0.4553
  635SOL     OW 2537   2.592   0.080   1.805  0.4508 -0.1095  0.0841
  635SOL    HW1 2538   2.655   0.045   1.742 -1.5079 -1.9904 -2.0607
  635SOL    HW2 2539   2.638   0.159   1.830 -1.0190  0.6961 -0.2938
  635SOL     MW 2540   2.606   0.086   1.800 -0.0016 -0.2514 -0.2487
  636SOL     OW 2541   2.920   1.684   0.962 -0.6248  0.5124  0.1001
  636SOL    HW1 2542   2.825   1.661   0.961 -2.3339  1.5955 -1.5317
  636SOL    HW2 2543   2.938   1.701   1.055 -0.8540 -2.1920  1.2117
  636SOL     MW 2544   2.910   1.683   0.974 -0.8806  0.2985  0.0315
  637SOL     OW 2545   2.872   1.496   0.675 -0.0264  0.1560  0.0483
  637SOL    HW1 2546   2.933   1.554   0.708 -2.2153  1.4623 -0.8131
  637SOL    HW2 2547   2.788   1.513   0.726 -0.1203 -0.3187 -0.2863
  637SOL     MW 2548   2.869   1.506   0.686 -0.3276  0.2657 -0.1095
  638SOL     OW 2549   2.668   0.632   0.513  0.4451 -0.1818  0.0991
  638SOL    HW1 2550   2.755   0.624   0.478  0.4586 -0.8988 -1.8299
  638SOL    HW2 2551   2.685   0.627   0.607  0.8965 -3.7815 -0.5910
  638SOL     MW 2552   2.682   0.631   0.521  0.5065 -0.7514 -0.2465
  639SOL     OW 2553   1.827   0.037   0.520 -0.5035  0.1589 -0.5619
  639SOL    HW1 2554   1.737   0.048   0.508  0.7555  1.5040 -0.7132
  639SOL    HW2 2555   1.862  -0.030   0.461 -1.0916  0.8730 -1.5295
  639SOL     MW 2556   1.820   0.029   0.511 -0.4150  0.4306 -0.7096
  640SOL     OW 2557   0.336   1.360   0.061 -0.1962  0.0353 -0.0908
  640SOL    HW1 2558   0.363   1.376  -0.034 -0.0405  2.9017 -1.1261
  640SOL    HW2 2559   0.291   1.276   0.064 -1.0433  3.1694 -0.4964
  640SOL     MW 2560   0.334   1.351   0.049 -0.2875  0.8270 -0.2809
  641SOL     OW 2561   2.261   0.458   0.373 -0.2972 -0.0812 -0.5541
  641SOL    HW1 2562   2.285   0.448   0.279  1.0674  2.1462  0.4094
  641SOL    HW2 2563   2.320   0.408   0.429 -1.2168  0.0868  1.1052
  641SOL     MW 2564   2.272   0.450   0.368 -0.2385  0.2348 -0.2080
  642SOL     OW 2565   0.026   3.082   0.567  0.4943  0.0117  0.1746
  642SOL    HW1 2566   0.022   3.166   0.523 -1.3369 -0.3218  1.5350
  642SOL    HW2 2567  -0.060   3.066   0.613 -0.3145 -1.4302 -0.6329
  642SOL     MW 2568   0.014   3.091   0.568  0.1459 -0.2225  0.2475
  643SOL     OW 2569   2.024   0.344   1.697  0.3705 -0.1170  0.2283
  643SOL    HW1 2570   2.101   0.341   1.751 -0.8751  2.5053  1.5979
  643SOL    HW2 2571   2.054   0.281   1.632  0.4293 -0.1274  2.3641
  643SOL     MW 2572   2.038   0.336   1.695  0.2139  0.2276  0.6908
  644SOL     OW 2573   2.708   1.891   1.041 -0.1536  0.6520  0.2635
  644SOL    HW1 2574   2.692   1.823   1.110 -0.8433  0.7708  0.4137
  644SOL    HW2 2575   2.621   1.913   1.017  0.1223  0.1269  3.3103
  644SOL     MW 2576   2.694   1.885   1.047 -0.2082  0.5984  0.6853
  645SOL     OW 2577   2.829   0.892   0.657  0.1102  0.0009  0.2819
  645SOL    HW1 2578   2.906   0.849   0.692  1.9439  1.5736  1.2579
  645SOL    HW2 2579   2.784   0.818   0.619  1.3190 -1.2130 -2.9501
  645SOL     MW 2580   2.833   0.876   0.656  0.5116  0.0483 -0.0158
  646SOL     OW 2581   0.174   2.257   0.864 -0.2645  0.1777 -0.2323
  646SOL    HW1 2582   0.228   2.174   0.850  0.8390 -0.8612  1.3582
  646SOL    HW2 2583   0.112   2.279   0.787 -1.2474 -0.6922  1.4924
  646SOL     MW 2584   0.173   2.249   0.852 -0.2486 -0.0742  0.2051
  647SOL     OW 2585   2.688   0.520   2.975 -0.6095 -0.4805  0.1838
  647SOL    HW1 2586   2.644   0.473   3.051 -1.5262 -2.3134  0.3396
  647SOL    HW2 2587   2.647   0.602   2.966  0.1173 -3.7674 -1.1291
  647SOL     MW 2588   2.677   0.525   2.984 -0.6346 -1.1560  0.0312
  648SOL     OW 2589   2.184   0.722   1.167 -0.1354 -0.0626  0.0837
  648SOL    HW1 2590   2.179   0.766   1.084  2.5320  0.3016  2.1532
  648SOL    HW2 2591   2.208   0.793   1.228  0.5017  0.2487 -1.4094
  648SOL     MW 2592   2.186   0.737   1.164  0.3006  0.0265  0.1598
  649SOL     OW 2593   2.401   2.735   1.261  0.2461  0.2516 -0.2379
  649SOL    HW1 2594   2.488   2.772   1.251 -0.6342 -2.1626  1.1791
  649SOL    HW2 2595   2.407   2.642   1.238  0.9917  0.3178  3.8392
  649SOL     MW 2596   2.413   2.728   1.256  0.2283 -0.0582  0.4870
  650SOL     OW 2597   2.813   0.232   0.667  0.1803 -0.4501  0.1658
  650SOL    HW1 2598   2.878   0.269   0.731  0.9307 -0.9201  1.2835
  650SOL    HW2 2599   2.857   0.236   0.581 -1.6390  0.8672  0.4137
  650SOL     MW 2600   2.827   0.238   0.664  0.0393 -0.3383  0.3460
  651SOL     OW 2601   2.981   0.374   0.841 -0.7602  0.4596 -0.0531
  651SOL    HW1 2602   3.063   0.411   0.793 -0.7255 -1.5559 -1.5558
  651SOL    HW2 2603   2.947   0.447   0.893  1.8034 -0.1200 -0.1483
  651SOL     MW 2604   2.987   0.389   0.841 -0.4174  0.1172 -0.2639
  652SOL     OW 2605   2.401   1.419   2.970  0.5553  1.0394  0.0431
  652SOL    HW1 2606   2.459   1.419   2.894 -2.5560  0.3652  0.7345
  652SOL    HW2 2607   2.355   1.506   2.975 -0.6971 -0.7075  0.1023
  652SOL     MW 2608   2.403   1.430   2.961 -0.0204  0.7200  0.1422
  653SOL     OW 2609   1.953   0.428   0.331 -0.2032  0.1224 -0.4151
  653SOL    HW1 2610   1.901   0.362   0.288  2.3000 -0.7552 -2.0204
  653SOL    HW2 2611   2.039   0.398   0.313 -0.4058 -0.3656 -2.3120
  653SOL     MW 2612   1.958   0.415   0.323  0.1004 -0.0578 -0.8772
  654SOL     OW 2613   2.473   1.038   0.733  0.2907  0.0082  0.1044
  654SOL    HW1 2614   2.384   1.052   0.700 -0.7130 -1.4772  0.0892
  654SOL    HW2 2615   2.478   0.955   0.778 -0.8991 -0.1806 -0.0848
  654SOL     MW 2616   2.462   1.029   0.735  0.0013 -0.2127  0.0775
  655SOL     OW 2617   2.996   0.919   0.412 -0.4644  0.1349 -0.1006
  655SOL    HW1 2618   2.937   0.943   0.483  1.4035  0.6948  0.6036
  655SOL    HW2 2619   2.999   0.818   0.413 -1.1955 -2.3537 -3.4146
  655SOL     MW 2620   2.989   0.909   0.422 -0.3144 -0.1196 -0.4449
  656SOL     OW 2621   1.955   2.716   1.219  0.0508 -1.2942 -0.0440
  656SOL    HW1 2622   1.956   2.780   1.291 -1.5177  4.1651 -1.0105
  656SOL    HW2 2623   1.976   2.631   1.252  1.0636  1.0678 -1.3945
  656SOL     MW 2624   1.958   2.713   1.233 -0.0225 -0.2623 -0.3497
  657SOL     OW 2625   0.225   1.526   1.235 -0.4465  0.1293  0.0538
  657SOL    HW1 2626   0.130   1.519   1.235  1.0084  1.3711 -0.1066
  657SOL    HW2 2627   0.242   1.544   1.144  0.6251 -0.4619  1.0465
  657SOL     MW 2628   0.215   1.528   1.223 -0.1132  0.2151  0.1636
  658SOL     OW 2629   2.712   1.388   0.250 -0.0946 -0.3024 -0.2258
  658SOL    HW1 2630   2.663   1.332   0.308  1.7216 -1.4560  0.5055
  658SOL    HW2 2631   2.763   1.435   0.316  0.5830 -3.3294  0.4699
  658SOL     MW 2632   2.712   1.387   0.266  0.2344 -0.8540 -0.0375
  659SOL     OW 2633   2.286   1.539   1.049  0.6158 -0.6314 -0.1850
  659SOL    HW1 2634   2.366   1.500   1.073 -2.6898  3.0542 -1.9744
  659SOL    HW2 2635   2.229   1.567   1.124 -1.7041 -0.6573 -0.7333
  659SOL     MW 2636   2.289   1.537   1.062 -0.1264 -0.1485 -0.4934
  660SOL     OW 2637   2.073   1.564   1.685  0.4763 -0.1051  0.4701
  660SOL    HW1 2638   2.087   1.592   1.780 -2.0348  0.8625 -1.4458
  660SOL    HW2 2639   2.008   1.498   1.687  0.5720  1.2001  1.4213
  660SOL     MW 2640   2.066   1.559   1.697  0.1576  0.1948  0.3429
  661SOL     OW 2641   2.401   1.118   0.165  0.2618  0.1673 -0.8675
  661SOL    HW1 2642   2.469   1.140   0.225 -0.6914  0.3604  1.2417
  661SOL    HW2 2643   2.386   1.026   0.189  0.0967  1.1334 -1.1737
  661SOL     MW 2644   2.408   1.109   0.176  0.1143  0.3202 -0.6297
  662SOL     OW 2645   2.527   2.966   0.874  0.2830 -0.4520  0.4647
  662SOL    HW1 2646   2.462   3.022   0.921  0.9683 -1.2336 -2.0379
  662SOL    HW2 2647   2.560   3.018   0.801  1.8793 -0.2597  0.0022
  662SOL     MW 2648   2.523   2.980   0.871  0.5840 -0.5297  0.0734
  663SOL     OW 2649   2.818   1.566   0.425  0.9739  0.3162 -0.1142
  663SOL    HW1 2650   2.875   1.630   0.388 -0.5966 -1.8374  0.4008
  663SOL    HW2 2651   2.854   1.542   0.508 -1.3970 -0.6441 -1.9522
  663SOL     MW 2652   2.830   1.571   0.431  0.4539 -0.0946 -0.2887
  664SOL     OW 2653   2.488   1.593   1.547 -0.1518 -0.3570  0.2685
  664SOL    HW1 2654   2.470   1.676   1.507 -0.1826 -2.0466  2.2358
  664SOL    HW2 2655   2.417   1.530   1.545 -2.1358  0.7526 -0.7472
  664SOL     MW 2656   2.477   1.595   1.541 -0.4177 -0.4335  0.3941
  665SOL     OW 2657   2.878   0.804   2.059 -0.1008  0.3398  0.2315
  665SOL    HW1 2658   2.846   0.831   1.975 -1.9113  0.5108  0.2931
  665SOL    HW2 2659   2.930   0.726   2.046 -0.1040 -1.2615  0.4867
  665SOL     MW 2660   2.881   0.797   2.046 -0.3401  0.1511  0.2733
  666SOL     OW 2661   2.782   3.041   1.686 -0.5653  0.8231  0.3039
  666SOL    HW1 2662   2.803   3.015   1.595  1.5344  2.7180  0.3956
  666SOL    HW2 2663   2.742   2.958   1.722  1.0233 -3.8385 -0.1784
  666SOL     MW 2664   2.780   3.027   1.679 -0.0787  0.4580  0.2524
  667SOL     OW 2665   1.970   2.709   1.616  0.3178 -0.4219 -0.0715
  667SOL    HW1 2666   1.984   2.634   1.676 -1.7369  1.1904  2.1981
  667SOL    HW2 2667   2.051   2.766   1.624 -1.2209 -1.3260  0.5964
  667SOL     MW 2668   1.982   2.707   1.625 -0.1563 -0.3285  0.3161
  668SOL     OW 2669   2.741   0.617   0.770  0.0093  0.5017  0.4527
  668SOL    HW1 2670   2.823   0.629   0.815 -0.3347 -1.5023 -3.5160
  668SOL    HW2 2671   2.681   0.684   0.808  1.6862 -2.6861  1.1295
  668SOL     MW 2672   2.744   0.627   0.781  0.1852 -0.1833  0.0184
  669SOL     OW 2673   0.180   0.922   0.713  0.1853  0.5819 -0.4294
  669SOL    HW1 2674   0.151   1.015   0.719 -0.6069  1.3818 -1.1747
  669SOL    HW2 2675   0.284   0.930   0.705 -1.1219  1.3111 -3.0592
  669SOL     MW 2676   0.190   0.936   0.713 -0.0917  0.7837 -0.8747
  670SOL     OW 2677   2.945   0.289   0.191  0.1330  0.0953  0.1064
  670SOL    HW1 2678   2.939   0.215   0.124 -0.1359 -0.7934 -1.1830
  670SOL    HW2 2679   2.924   0.370   0.137 -0.5148  0.5935 -0.7045
  670SOL     MW 2680   2.941   0.290   0.175  0.0120  0.0437 -0.1707
  671SOL     OW 2681   2.158   3.080   1.605 -0.0730 -0.2676 -0.3532
  671SOL    HW1 2682   2.122   3.122   1.528  0.4278 -3.7230  0.8369
  671SOL    HW2 2683   2.079   3.065   1.668 -0.8831  0.1153  1.1181
  671SOL     MW 2684   2.143   3.083   1.603 -0.1138 -0.6730 -0.0021
  672SOL     OW 2685   1.867   1.710   1.338  0.5223 -0.0547 -0.4358
  672SOL    HW1 2686   1.774   1.722   1.359 -3.4353  1.3644 -0.2292
  672SOL    HW2 2687   1.887   1.768   1.265 -0.1283 -0.6164  3.9587
  672SOL     MW 2688   1.857   1.719   1.331 -0.0857  0.0584  0.1713
  673SOL     OW 2689   2.771   1.112   0.495  0.0903 -0.0006  0.2336
  673SOL    HW1 2690   2.777   1.047   0.569  1.0244 -2.8573 -2.3574
  673SOL    HW2 2691   2.860   1.162   0.513  1.3094  0.7653  1.3035
  673SOL     MW 2692   2.784   1.110   0.507  0.3744 -0.2765  0.0329
  674SOL     OW 2693   2.484   0.082   1.265  0.1391 -0.1098 -0.8177
  674SOL    HW1 2694   2.470   0.101   1.173  0.7979 -1.5307  2.0675
  674SOL    HW2 2695   2.518  -0.010   1.257 -0.6194  1.7266 -1.1472
  674SOL     MW 2696   2.487   0.072   1.251  0.1259 -0.0549 -0.4805
  675SOL     OW 2697   2.997   1.030   1.110  0.3723 -0.2570 -0.3206
  675SOL    HW1 2698   3.030   0.990   1.191 -1.2901 -2.5389 -2.9309
  675SOL    HW2 2699   3.069   1.075   1.070 -0.9602  0.3310  2.0175
  675SOL     MW 2700   3.011   1.031   1.115 -0.0228 -0.4805 -0.3565
  676SOL     OW 2701   2.801   1.506   1.607  0.5236  0.4201 -0.2615
  676SOL    HW1 2702   2.770   1.424   1.573  0.1053 -2.4183 -0.7063
  676SOL    HW2 2703   2.889   1.480   1.639 -2.4303  2.1454  1.4336
  676SOL     MW 2704   2.809   1.492   1.606  0.0787  0.2732 -0.0965
  677SOL     OW 2705   2.418   0.801   1.890 -0.2147 -0.4276  0.0095
  677SOL    HW1 2706   2.372   0.728   1.841 -0.0129 -2.6388 -2.5355
  677SOL    HW2 2707   2.360   0.818   1.963 -2.8822  1.8835  0.5475
  677SOL     MW 2708   2.404   0.794   1.893 -0.5400 -0.4144 -0.2553
  678SOL     OW 2709   2.540   1.596   0.465 -0.4609  0.1547  0.0696
  678SOL    HW1 2710   2.517   1.679   0.419  0.1707  2.9377 -1.1547
  678SOL    HW2 2711   2.623   1.562   0.431  0.2942 -3.1153 -1.4340
  678SOL     MW 2712   2.548   1.602   0.454 -0.2779  0.0904 -0.2903
  679SOL     OW 2713   2.344   0.494   1.096 -0.8808  0.3549  0.0632
  679SOL    HW1 2714   2.301   0.410   1.125 -2.5317 -0.5980 -1.2071
  679SOL    HW2 2715   2.304   0.570   1.142 -0.3480  0.1902  3.5879
  679SOL     MW 2716   2.333   0.493   1.106 -1.0283  0.2075  0.3606
  680SOL     OW 2717   2.380   0.268   1.446  0.0534  0.2699 -0.6778
  680SOL    HW1 2718   2.348   0.226   1.530 -3.1438  0.8228  3.7960
  680SOL    HW2 2719   2.411   0.205   1.378  2.1386  2.6373 -1.8047
  680SOL     MW 2720   2.380   0.254   1.448 -0.0933  0.6552 -0.2362
  681SOL     OW 2721   0.296   0.542   1.587  0.4300  0.1960 -0.2252
  681SOL    HW1 2722   0.262   0.467   1.635  0.7291  2.7357  2.6181
  681SOL    HW2 2723   0.387   0.541   1.600 -2.1301 -1.9553  2.3482
  681SOL     MW 2724   0.304   0.532   1.595  0.1317  0.2472  0.4895
  682SOL     OW 2725   0.142   2.987   1.495 -0.0693 -0.3503 -0.3261
  682SOL    HW1 2726   0.143   3.082   1.458 -3.8588  1.9923  1.5918
  682SOL    HW2 2727   0.057   2.982   1.547 -0.7127 -0.0782 -1.0401
  682SOL     MW 2728   0.131   2.999   1.497 -0.6542 -0.0053 -0.1673
  683SOL     OW 2729   2.065   0.815   3.009  0.4207 -0.1212  0.4030
  683SOL    HW1 2730   1.995   0.781   2.956  1.1325  0.5652 -0.4414
  683SOL    HW2 2731   2.025   0.870   3.072  0.0827  0.7371  0.1165
  683SOL     MW 2732   2.051   0.818   3.011  0.4700  0.0826  0.2538
  684SOL     OW 2733   2.168   1.767   0.858 -0.0840 -0.3728  0.5878
  684SOL    HW1 2734   2.078   1.738   0.870  1.4050  1.0796  0.3119
  684SOL    HW2 2735   2.223   1.692   0.884  0.4034  3.3838  1.1604
  684SOL     MW 2736   2.164   1.753   0.863  0.1768  0.3145  0.6269
  685SOL     OW 2737   2.563   1.735   1.222 -0.0111  0.0983  0.1227
  685SOL    HW1 2738   2.635   1.729   1.283 -0.9383 -3.1001  0.1519
  685SOL    HW2 2739   2.540   1.645   1.206  0.2047 -1.1386  2.5882
  685SOL     MW 2740   2.569   1.723   1.228 -0.1050 -0.4869  0.4518
  686SOL     OW 2741   2.890   0.715   1.489  0.0658 -0.0070 -0.3629
  686SOL    HW1 2742   2.899   0.648   1.557 -0.2756 -2.2724 -1.3783
  686SOL    HW2 2743   2.952   0.682   1.427 -3.9148  0.7596 -1.2073
  686SOL     MW 2744   2.899   0.702   1.489 -0.5045 -0.2048 -0.6083
  687SOL     OW 2745   2.167   0.314   1.208 -0.2884 -0.0987  0.1089
  687SOL    HW1 2746   2.131   0.252   1.140 -1.4432 -1.5347 -0.4569
  687SOL    HW2 2747   2.096   0.370   1.239  2.0473 -1.2724  2.7083
  687SOL     MW 2748   2.153   0.313   1.203 -0.1326 -0.4430  0.3772
  688SOL     OW 2749   2.386   0.557   1.457  0.4798  0.3394  0.2375
  688SOL    HW1 2750   2.445   0.518   1.526 -0.1376 -1.5530  0.0792
  688SOL    HW2 2751   2.337   0.487   1.421 -2.8506  2.4189  0.7164
  688SOL     MW 2752   2.388   0.542   1.461 -0.0411  0.3641  0.2798
  689SOL     OW 2753   2.581   0.767   2.989 -0.3145 -0.3685  0.2761
  689SOL    HW1 2754   2.606   0.857   2.963 -1.0059 -1.1347 -3.8989
  689SOL    HW2 2755   2.591   0.775   3.088  0.9093 -0.7058  2.6135
  689SOL     MW 2756   2.586   0.780   2.999 -0.2442 -0.5141  0.0337
  690SOL     OW 2757   2.094   0.973   1.950  0.2101  0.0719 -0.4774
  690SOL    HW1 2758   2.032   0.895   1.954  0.9425 -0.6854 -1.3202
  690SOL    HW2 2759   2.136   0.961   1.861  1.5233  0.6047 -2.3929
  690SOL     MW 2760   2.091   0.961   1.939  0.4800  0.0422 -0.8414
  691SOL     OW 2761   2.450   0.246   0.823 -0.2502  0.2001 -0.1903
  691SOL    HW1 2762   2.531   0.294   0.844 -0.8799 -0.7078 -0.9963
  691SOL    HW2 2763   2.375   0.311   0.850 -2.8336  2.1524 -0.2257
  691SOL     MW 2764   2.451   0.261   0.830 -0.6741  0.3379 -0.3013
  692SOL     OW 2765   2.804   1.704   1.405  0.3070  0.3264  0.8500
  692SOL    HW1 2766   2.803   1.646   1.480  2.4558 -2.2072 -3.6155
  692SOL    HW2 2767   2.835   1.780   1.442 -2.0559 -3.1938 -0.7023
  692SOL     MW 2768   2.808   1.706   1.419  0.2788 -0.4724  0.0560
  693SOL     OW 2769   2.288   0.462   0.092  0.3817 -0.0703  0.1599
  693SOL    HW1 2770   2.225   0.401   0.077  4.4838  2.7045 -1.4048
  693SOL    HW2 2771   2.265   0.543   0.042  2.7699  1.5784  0.0592
  693SOL     MW 2772   2.276   0.465   0.084  1.2380  0.5134 -0.0598
  694SOL     OW 2773   1.963   1.252   1.130 -0.3294 -0.3084 -0.7007
  694SOL    HW1 2774   2.039   1.197   1.149  0.2167  0.4237  0.2101
  694SOL    HW2 2775   1.902   1.202   1.187 -0.0139 -2.9460 -0.7772
  694SOL     MW 2776   1.965   1.238   1.140 -0.2157 -0.5598 -0.5907
  695SOL     OW 2777   2.947   1.453   1.303  0.0559 -0.0831  0.4538
  695SOL    HW1 2778   2.942   1.421   1.209  0.1954 -2.2730 -0.6526
  695SOL    HW2 2779   2.923   1.546   1.311 -1.3795  1.0106 -1.9207
  695SOL     MW 2780   2.943   1.461   1.292 -0.1151 -0.2277 -0.0055
  696SOL     OW 2781   2.081   1.393   0.910  0.6340 -0.0699  0.0552
  696SOL    HW1 2782   2.153   1.448   0.933  2.1124 -0.7499 -0.8999
  696SOL    HW2 2783   2.058   1.338   0.989  1.6949  0.9034  4.9922
  696SOL     MW 2784   2.088   1.393   0.923  0.9690 -0.0312  0.5806
  697SOL     OW 2785   2.875   1.010   2.259  0.3529  1.1629 -0.6622
  697SOL    HW1 2786   2.822   1.079   2.217  1.8373 -2.3741 -0.7440
  697SOL    HW2 2787   2.877   0.941   2.189  0.8904  0.5928  0.0835
  697SOL     MW 2788   2.868   1.010   2.244  0.6196  0.6210 -0.5746
  698SOL     OW 2789   2.530   0.343   0.027 -0.0563  0.2029 -0.6088
  698SOL    HW1 2790   2.446   0.374   0.043 -0.2163 -0.3961  0.5243
  698SOL    HW2 2791   2.566   0.307   0.110 -1.0387 -0.6255  3.6097
  698SOL     MW 2792   2.524   0.342   0.040 -0.2071  0.0146  0.0973
  699SOL     OW 2793   1.862   1.627   2.067  0.1841  0.1213  0.1248
  699SOL    HW1 2794   1.843   1.531   2.073  1.0788  1.9687 -0.8451
  699SOL    HW2 2795   1.953   1.625   2.030 -0.8800  0.8327 -2.1210
  699SOL     MW 2796   1.872   1.614   2.063  0.1618  0.4589 -0.2995
  700SOL     OW 2797   2.720   0.906   1.554  0.0489 -0.3499  0.0430
  700SOL    HW1 2798   2.726   0.964   1.480 -1.9343  1.3329  1.2177
  700SOL    HW2 2799   2.785   0.839   1.533 -2.5405  1.6432  0.6495
  700SOL     MW 2800   2.729   0.904   1.541 -0.5544  0.1351  0.2780
  701SOL     OW 2801   1.673   1.284   2.630 -0.2751 -0.1900 -0.1538
  701SOL    HW1 2802   1.770   1.301   2.636  0.1394 -1.8240  0.6407
  701SOL    HW2 2803   1.637   1.357   2.680  0.8179 -2.0837 -0.2169
  701SOL     MW 2804   1.681   1.295   2.637 -0.0762 -0.6554 -0.0573
  702SOL     OW 2805   2.247   0.430   0.814 -0.6399 -0.4847  0.6603
  702SOL    HW1 2806   2.218   0.378   0.735  0.6091 -0.5105 -1.3983
  702SOL    HW2 2807   2.304   0.498   0.776  1.6493 -0.6280 -0.1400
  702SOL     MW 2808   2.251   0.432   0.799 -0.1731 -0.5070  0.2831
  703SOL     OW 2809   2.663   1.288   0.976  0.5969  0.5097  0.2685
  703SOL    HW1 2810   2.648   1.250   0.891  1.2486  0.2975  0.8279
  703SOL    HW2 2811   2.696   1.211   1.029  1.1244 -0.0885  4.1081
  703SOL     MW 2812   2.665   1.273   0.972  0.7525  0.4027  0.8489
  704SOL     OW 2813   0.016   1.319   0.259 -0.2777  0.6756  0.4055
  704SOL    HW1 2814  -0.059   1.265   0.235  2.4667 -1.7448 -0.2670
  704SOL    HW2 2815   0.087   1.253   0.243 -1.0824 -3.3114  0.2901
  704SOL     MW 2816   0.016   1.303   0.254 -0.0218 -0.1698  0.3015
  705SOL     OW 2817   2.144   1.602   1.264 -0.2192  1.0980 -0.5321
  705SOL    HW1 2818   2.057   1.613   1.307 -2.8031  0.2099  0.5175
  705SOL    HW2 2819   2.175   1.518   1.315 -1.3766  0.4650  2.0872
  705SOL     MW 2820   2.136   1.592   1.276 -0.7128  0.8973 -0.0480
  706SOL     OW 2821   3.006   1.244   0.594 -0.3203  0.0909 -0.0026
  706SOL    HW1 2822   3.095   1.235   0.567  0.4137 -1.5546  2.8011
  706SOL    HW2 2823   2.990   1.334   0.615  2.7321  1.0011 -1.4295
  706SOL     MW 2824   3.015   1.254   0.593  0.1793 -0.0061  0.1790
  707SOL     OW 2825   2.384   0.059   1.000 -0.2863  0.2101 -0.3179
  707SOL    HW1 2826   2.424   0.119   0.936 -0.8952 -0.2365 -0.4933
  707SOL    HW2 2827   2.294   0.085   1.012  1.2263 -1.1338 -0.2811
  707SOL     MW 2828   2.377   0.070   0.993 -0.1671 -0.0262 -0.3362
  708SOL     OW 2829   2.535   1.569   0.090 -0.0155  0.6574  0.3944
  708SOL    HW1 2830   2.582   1.507   0.141  0.0566 -1.2786 -2.9360
  708SOL    HW2 2831   2.491   1.514   0.020 -0.6444  3.6005  0.2524
  708SOL     MW 2832   2.535   1.553   0.087 -0.0890  0.7903 -0.0638
  709SOL     OW 2833   1.680   1.788   0.089 -0.5075 -0.1406 -0.2667
  709SOL    HW1 2834   1.633   1.848   0.035  1.1449 -2.1595  2.6615
  709SOL    HW2 2835   1.611   1.735   0.130  0.2294 -1.5550  0.8009
  709SOL     MW 2836   1.664   1.789   0.087 -0.1923 -0.5936  0.2605
  710SOL     OW 2837   2.208   1.153   1.176 -0.9712 -0.5206  0.1625
  710SOL    HW1 2838   2.258   1.140   1.089  0.7445  0.4551  1.2168
  710SOL    HW2 2839   2.226   1.065   1.223  0.2911 -1.8857  1.1319
  710SOL     MW 2840   2.217   1.140   1.171 -0.5783 -0.5720  0.4295
  711SOL     OW 2841   2.342   0.153   1.687 -0.2166 -0.5414  0.6152
  711SOL    HW1 2842   2.432   0.117   1.702 -1.6330 -2.0516  0.1419
  711SOL    HW2 2843   2.260   0.094   1.663 -3.8906  0.4136  0.2704
  711SOL     MW 2844   2.343   0.141   1.686 -0.8882 -0.6147  0.5072
  712SOL     OW 2845   1.636   0.600   3.045  0.6049  0.7927  0.4347
  712SOL    HW1 2846   1.700   0.644   2.986 -0.5764 -1.8114 -1.0613
  712SOL    HW2 2847   1.624   0.665   3.107  3.6344 -0.7874 -1.9796
  712SOL     MW 2848   1.643   0.615   3.045  0.8488  0.2406 -0.0812
  713SOL     OW 2849   2.584   0.824   1.140 -0.0345  0.5219 -0.2198
  713SOL    HW1 2850   2.611   0.730   1.140 -0.5605 -1.1859 -2.5317
  713SOL    HW2 2851   2.558   0.841   1.236 -0.0334 -1.7108 -0.4823
  713SOL     MW 2852   2.584   0.814   1.152 -0.1037  0.0020 -0.5595
  714SOL     OW 2853   2.242   0.140   1.969 -0.5310  0.0159 -0.4556
  714SOL    HW1 2854   2.297   0.131   2.050 -2.3520  1.0751  1.3259
  714SOL    HW2 2855   2.307   0.157   1.902  1.8709  0.0628 -0.0151
  714SOL     MW 2856   2.258   0.141   1.971 -0.4544  0.1618 -0.1625
  715SOL     OW 2857   1.754   1.909   1.720 -0.8857  0.2429  0.1438
  715SOL    HW1 2858   1.836   1.877   1.672  2.0669  1.5208 -1.2525
  715SOL    HW2 2859   1.719   1.830   1.770  1.7128 -2.4334  0.6145
  715SOL     MW 2860   1.760   1.894   1.720 -0.1532  0.0584  0.0217
  716SOL     OW 2861   2.376   0.634   0.683  0.8032 -0.3801  0.5242
  716SOL    HW1 2862   2.411   0.558   0.630 -0.1386 -0.9459 -1.8247
  716SOL    HW2 2863   2.304   0.675   0.636  2.7575  1.1580  0.8522
  716SOL     MW 2864   2.371   0.629   0.670  0.9368 -0.2518  0.2575
  717SOL     OW 2865   2.832   1.458   2.947  0.2541  0.1673 -0.2678
  717SOL    HW1 2866   2.930   1.453   2.951  0.6191  2.0218 -1.7695
  717SOL    HW2 2867   2.820   1.527   3.022 -1.8576  0.5271  1.1317
  717SOL     MW 2868   2.844   1.466   2.957  0.0236  0.4594 -0.2813
  718SOL     OW 2869   2.534   1.326   1.400  0.2953 -0.1420 -0.1985
  718SOL    HW1 2870   2.551   1.370   1.478 -0.3799 -0.5835 -1.5659
  718SOL    HW2 2871   2.604   1.257   1.389 -2.1286 -2.0035  1.4863
  718SOL     MW 2872   2.546   1.323   1.409 -0.1136 -0.4458 -0.1566
  719SOL     OW 2873   2.155   1.373   0.649  0.0036  0.3370  0.1238
  719SOL    HW1 2874   2.252   1.348   0.637  0.6568 -2.1968 -2.0972
  719SOL    HW2 2875   2.124   1.381   0.743 -2.8429  1.0939 -0.5884
  719SOL     MW 2876   2.164   1.370   0.660 -0.2858  0.1026 -0.2632
  720SOL     OW 2877   2.890   1.222   0.138 -0.0586 -0.0816 -0.2890
  720SOL    HW1 2878   2.876   1.134   0.173  1.0607  0.2671  1.7954
  720SOL    HW2 2879   2.827   1.288   0.168 -0.5499  1.0597  2.9215
  720SOL     MW 2880   2.880   1.219   0.147  0.0242  0.1150  0.4096
  721SOL     OW 2881   2.504   0.805   1.409  0.0731  0.3677  0.0931
  721SOL    HW1 2882   2.454   0.737   1.453  0.8184 -0.8340 -4.5710
  721SOL    HW2 2883   2.561   0.857   1.466  0.2694  1.5799 -3.0878
  721SOL     MW 2884   2.505   0.803   1.422  0.1973  0.3691 -0.9419
  722SOL     OW 2885   2.551   1.193   0.372  0.2138 -0.0162  0.1216
  722SOL    HW1 2886   2.488   1.233   0.425  0.9065 -0.2905 -1.5307
  722SOL    HW2 2887   2.615   1.134   0.414  0.1673  1.6801 -0.0591
  722SOL     MW 2888   2.551   1.190   0.385  0.2991  0.1714 -0.1202
  723SOL     OW 2889   2.288   1.396   1.634 -0.6124 -0.1092 -0.2356
  723SOL    HW1 2890   2.249   1.362   1.553 -0.1162 -1.2214 -0.3350
  723SOL    HW2 2891   2.224   1.456   1.668  0.3986 -1.7823  0.9829
  723SOL     MW 2892   2.275   1.400   1.628 -0.4135 -0.4767 -0.0879
  724SOL     OW 2893   2.448   0.369   0.563  0.0974 -0.3924  0.4054
  724SOL    HW1 2894   2.444   0.302   0.629  0.1534 -0.8858  1.5621
  724SOL    HW2 2895   2.539   0.399   0.562 -1.6387  1.8619  3.0111
  724SOL     MW 2896   2.460   0.364   0.572 -0.1243 -0.1601  0.9018
  725SOL     OW 2897   2.598   0.532   1.144 -0.2463  0.0469 -0.1015
  725SOL    HW1 2898   2.605   0.490   1.226 -0.5569 -1.1077  2.7536
  725SOL    HW2 2899   2.506   0.521   1.111  0.6420 -1.6095 -0.1682
  725SOL     MW 2900   2.587   0.525   1.150 -0.1701 -0.3240  0.2664
  726SOL     OW 2901   2.574   2.420   0.517  0.0708  0.4562 -0.5600
  726SOL    HW1 2902   2.520   2.476   0.456 -0.6362 -1.8130 -3.5247
  726SOL    HW2 2903   2.518   2.401   0.587 -0.7577 -3.7621 -0.1790
  726SOL     MW 2904   2.559   2.425   0.518 -0.1318 -0.3998 -0.9009
  727SOL     OW 2905   2.787   0.273   1.639  0.4749 -0.1921  0.1413
  727SOL    HW1 2906   2.818   0.321   1.568 -0.6498 -1.6011 -0.5141
  727SOL    HW2 2907   2.697   0.304   1.663 -0.1208  0.7656 -1.3993
  727SOL     MW 2908   2.779   0.283   1.633  0.2479 -0.2517 -0.1484
  728SOL     OW 2909   2.788   1.173   2.964 -0.0262  0.4995 -0.7978
  728SOL    HW1 2910   2.775   1.268   2.948  1.4266  3.9176  2.2104
  728SOL    HW2 2911   2.823   1.173   3.054  0.9353 -4.4471 -0.2588
  728SOL     MW 2912   2.791   1.185   2.974  0.2924  0.2979 -0.3298
  729SOL     OW 2913   2.536   1.449   1.152 -0.1865  0.2924  0.7238
  729SOL    HW1 2914   2.542   1.410   1.237  1.2353  0.4563 -1.5960
  729SOL    HW2 2915   2.595   1.389   1.111 -2.6232 -0.4092  0.6358
  729SOL     MW 2916   2.544   1.436   1.158 -0.3204  0.2214  0.4061
  730SOL     OW 2917   2.140   1.154   0.271 -0.1052 -0.9873  0.6307
  730SOL    HW1 2918   2.233   1.158   0.260  2.9879  0.6959  1.6636
  730SOL    HW2 2919   2.108   1.244   0.269 -0.2211 -1.5499 -0.0161
  730SOL     MW 2920   2.148   1.167   0.270  0.2876 -0.8395  0.6817
  731SOL     OW 2921   2.830   1.848   2.918 -0.2883  0.8560 -0.1108
  731SOL    HW1 2922   2.751   1.887   2.873  1.1905 -2.3684 -4.1018
  731SOL    HW2 2923   2.897   1.916   2.904  0.3310 -0.9512  1.3243
  731SOL     MW 2924   2.828   1.862   2.910 -0.0115  0.1921 -0.4480
  732SOL     OW 2925   2.275   0.928   1.313  0.2406  0.0692 -0.4352
  732SOL    HW1 2926   2.229   0.934   1.398 -1.2090 -0.7470  0.0309
  732SOL    HW2 2927   2.371   0.918   1.323  4.7764 -2.8449 -0.6739
  732SOL     MW 2928   2.281   0.927   1.325  0.6478 -0.4230 -0.4052
  733SOL     OW 2929   2.329   2.840   3.047  0.5597 -0.1041  0.1712
  733SOL    HW1 2930   2.277   2.900   2.994 -0.2036  1.0592  1.0549
  733SOL    HW2 2931   2.291   2.755   3.025  0.0192  1.2325  1.4559
  733SOL     MW 2932   2.317   2.836   3.037  0.3877  0.2257  0.4573
  734SOL     OW 2933   1.500   0.378   2.438 -0.0184 -0.1269  0.1194
  734SOL    HW1 2934   1.466   0.341   2.515 -0.4802 -1.1532  0.3151
  734SOL    HW2 2935   1.535   0.306   2.385 -0.9242  1.2528 -0.7143
  734SOL     MW 2936   1.500   0.364   2.441 -0.1988 -0.0802  0.0352
  735SOL     OW 2937   3.093   0.916   2.657 -0.3444  0.9992 -0.6070
  735SOL    HW1 2938   3.024   0.855   2.633  0.9584  0.3606  1.3173
  735SOL    HW2 2939   3.060   0.965   2.730 -0.0918 -1.1581  0.6353
  735SOL     MW 2940   3.080   0.914   2.663 -0.1392  0.6303 -0.1892
  736SOL     OW 2941   0.051   0.592   2.488  0.0662 -0.2215  0.0895
  736SOL    HW1 2942   0.106   0.630   2.416 -1.2583  0.7867 -1.0142
  736SOL    HW2 2943   0.014   0.512   2.445 -0.3359 -0.0759 -2.6003
  736SOL     MW 2944   0.054   0.586   2.473 -0.1616 -0.0693 -0.4110
  737SOL     OW 2945   2.915   0.715   2.573  0.6402  0.3462  0.8805
  737SOL    HW1 2946   2.847   0.700   2.507  0.8960  1.0850  1.2307
  737SOL    HW2 2947   2.992   0.661   2.555 -1.3048 -1.1919  0.5212
  737SOL     MW 2948   2.916   0.706   2.562  0.4173  0.2407  0.8793
  738SOL     OW 2949   0.176   0.467   1.984  0.1321  0.5980 -0.2962
  738SOL    HW1 2950   0.260   0.502   1.961 -1.3022  1.9803  1.5065
  738SOL    HW2 2951   0.169   0.371   1.975  0.5200 -1.7388  2.7128
  738SOL     MW 2952   0.186   0.459   1.980 -0.0059  0.4721  0.3387
  739SOL     OW 2953   2.536   0.980   2.153  0.1023 -0.4697  0.1297
  739SOL    HW1 2954   2.452   0.944   2.118 -2.0532  1.0991 -2.5807
  739SOL    HW2 2955   2.560   1.022   2.072 -1.5848 -2.4196  0.0682
  739SOL     MW 2956   2.528   0.981   2.138 -0.4047 -0.5200 -0.2360
  740SOL     OW 2957   0.177   1.697   2.978 -0.3764  0.5976  0.0353
  740SOL    HW1 2958   0.127   1.614   2.976  1.1030 -0.1854 -0.0896
  740SOL    HW2 2959   0.261   1.693   3.020 -0.9931  3.3059  0.0674
  740SOL     MW 2960   0.181   1.686   2.983 -0.2626  0.8516  0.0230
  741SOL     OW 2961   2.223   1.203   2.741  0.1376 -0.2930  0.2245
  741SOL    HW1 2962   2.212   1.293   2.703 -1.2944  0.4055 -0.5256
  741SOL    HW2 2963   2.208   1.237   2.829  1.9579  3.6259 -2.1291
  741SOL     MW 2964   2.220   1.219   2.747  0.1889  0.3162 -0.1850
  742SOL     OW 2965   1.675   1.352   2.329 -0.0407 -0.1574 -0.5684
  742SOL    HW1 2966   1.602   1.306   2.284 -2.4987  2.0519 -1.8285
  742SOL    HW2 2967   1.663   1.341   2.429 -0.3336 -0.8011  0.8579
  742SOL     MW 2968   1.664   1.344   2.336 -0.4036  0.0492 -0.5465
  743SOL     OW 2969   2.479   1.217   2.699 -0.2707  0.4969 -0.3231
  743SOL    HW1 2970   2.379   1.202   2.716 -1.8421 -3.7928  1.1478
  743SOL    HW2 2971   2.529   1.158   2.755 -1.2331 -0.9590  0.0260
  743SOL     MW 2972   2.472   1.207   2.709 -0.6050 -0.2612 -0.0829
  744SOL     OW 2973   2.761   0.904   1.825  0.2792 -0.4423  0.4381
  744SOL    HW1 2974   2.686   0.935   1.869  0.9480  0.2997  2.7488
  744SOL    HW2 2975   2.744   0.931   1.735 -1.4708 -0.0493  1.4361
  744SOL     MW 2976   2.749   0.911   1.819  0.1365 -0.2926  0.8746
  745SOL     OW 2977   1.760   0.473   2.492  0.0739 -0.4450  0.3106
  745SOL    HW1 2978   1.740   0.479   2.398  1.4772  3.1137  0.3957
  745SOL    HW2 2979   1.697   0.403   2.510  0.6799  0.2947 -0.6902
  745SOL     MW 2980   1.749   0.464   2.482  0.3390  0.1222  0.1898
  746SOL     OW 2981   1.556   1.477   1.674 -0.3477 -0.6504 -0.0950
  746SOL    HW1 2982   1.598   1.559   1.699  0.8344 -0.3870  0.4106
  746SOL    HW2 2983   1.538   1.427   1.755 -1.2868  0.5741 -2.0603
  746SOL     MW 2984   1.559   1.481   1.688 -0.3156 -0.4541 -0.2876
  747SOL     OW 2985   2.578   1.103   1.910 -0.5837 -0.4674  0.5824
  747SOL    HW1 2986   2.523   1.102   1.838  0.2646 -1.0191  0.8731
  747SOL    HW2 2987   2.554   1.191   1.950  0.0242  0.1899 -0.0421
  747SOL     MW 2988   2.568   1.115   1.906 -0.3916 -0.4534  0.5383
  748SOL     OW 2989   0.103   3.089   1.924 -0.5263 -0.4185 -0.4116
  748SOL    HW1 2990   0.179   3.137   1.889  0.4378 -0.4242 -3.3581
  748SOL    HW2 2991   0.064   3.159   1.974  0.3106 -2.2203 -0.0643
  748SOL     MW 2992   0.108   3.105   1.926 -0.2887 -0.6570 -0.7546
  749SOL     OW 2993   2.387   0.636   2.788  0.0670 -0.2281 -0.1714
  749SOL    HW1 2994   2.419   0.719   2.740  1.7568  0.0475 -2.5086
  749SOL    HW2 2995   2.430   0.631   2.879 -1.0363  0.2702  3.5148
  749SOL     MW 2996   2.397   0.647   2.794  0.1444 -0.1260  0.0066
  750SOL     OW 2997   2.120   3.010   1.946 -0.7478 -0.0151  0.2058
  750SOL    HW1 2998   2.154   3.102   1.954  1.2849  3.0264 -0.0304
  750SOL    HW2 2999   2.203   2.950   1.933 -0.0096  0.2163  1.2505
  750SOL     MW 3000   2.135   3.014   1.945 -0.3822  0.4168  0.3125
  751SOL     OW 3001   3.069   0.342   2.420  0.3199 -0.2329 -0.1631
  751SOL    HW1 3002   2.997   0.361   2.358 -0.7625  0.5152 -0.7066
  751SOL    HW2 3003   3.143   0.313   2.371 -0.9633  1.6288  0.4329
  751SOL     MW 3004   3.069   0.341   2.405  0.0078  0.1114 -0.1562
  752SOL     OW 3005   2.137   0.918   2.765  0.6193 -0.5139  0.6184
  752SOL    HW1 3006   2.203   0.984   2.770 -0.0263  0.0954 -1.7131
  752SOL    HW2 3007   2.116   0.889   2.858  1.0959 -1.9799  0.6263
  752SOL     MW 3008   2.143   0.923   2.778  0.5970 -0.6270  0.3118
  753SOL     OW 3009   2.827   0.376   2.283 -0.4559  0.3234  0.2408
  753SOL    HW1 3010   2.773   0.297   2.281 -0.4938 -1.8392  0.9558
  753SOL    HW2 3011   2.770   0.441   2.323  1.1261 -1.9422  1.3946
  753SOL     MW 3012   2.812   0.374   2.288 -0.2522 -0.2609  0.4874
  754SOL     OW 3013   2.303   2.957   2.635  0.2265 -0.0451  0.2010
  754SOL    HW1 3014   2.315   2.927   2.544 -2.0640 -1.4311  2.4281
  754SOL    HW2 3015   2.368   2.908   2.686  0.7405  0.2807  0.3932
  754SOL     MW 3016   2.313   2.947   2.630 -0.0079 -0.1850  0.5202
  755SOL     OW 3017   2.792   1.591   2.456 -0.1041 -0.1686  0.3306
  755SOL    HW1 3018   2.729   1.524   2.476  0.2618  0.2805 -0.4051
  755SOL    HW2 3019   2.817   1.630   2.541  1.9305  1.9545  0.8933
  755SOL     MW 3020   2.787   1.587   2.470  0.2126  0.1708  0.3078
  756SOL     OW 3021   2.157   1.264   3.004 -0.0249 -0.2746 -0.2549
  756SOL    HW1 3022   2.220   1.343   2.991 -0.0729 -0.5374 -2.5650
  756SOL    HW2 3023   2.214   1.198   3.049 -2.3654 -1.2938 -0.7888
  756SOL     MW 3024   2.173   1.266   3.008 -0.3400 -0.4437 -0.6301
  757SOL     OW 3025   2.169   0.953   1.694 -0.1163  0.4360 -0.6113
  757SOL    HW1 3026   2.227   0.877   1.702 -1.0687  0.6716 -0.0369
  757SOL    HW2 3027   2.110   0.933   1.621 -1.5886 -2.1469 -2.4128
  757SOL     MW 3028   2.169   0.941   1.685 -0.4362  0.1263 -0.7732
  758SOL     OW 3029   2.245   1.846   2.635 -0.2574 -0.5402  0.6810
  758SOL    HW1 3030   2.255   1.878   2.550  0.6857 -0.4003  1.2270
  758SOL    HW2 3031   2.326   1.790   2.647 -1.3926 -0.8887 -0.3009
  758SOL     MW 3032   2.257   1.843   2.625 -0.2827 -0.5677  0.6235
  759SOL     OW 3033   1.546   1.470   2.790  0.0623  0.3538  0.1822
  759SOL    HW1 3034   1.556   1.549   2.731 -2.0876  2.7864  1.0547
  759SOL    HW2 3035   1.614   1.464   2.863  2.9820 -0.3581  1.5384
  759SOL     MW 3036   1.556   1.480   2.792  0.1639  0.5808  0.4763
  760SOL     OW 3037   2.614   1.973   2.718  0.4466 -0.5048 -0.2286
  760SOL    HW1 3038   2.549   1.909   2.696 -0.1222 -0.2159  0.0427
  760SOL    HW2 3039   2.676   1.960   2.647 -0.6231  1.0424 -3.0449
  760SOL     MW 3040   2.613   1.963   2.706  0.2304 -0.2625 -0.5644
  761SOL     OW 3041   2.202   0.449   2.470  0.2031  0.3746  0.1883
  761SOL    HW1 3042   2.118   0.405   2.484  1.1699 -1.8713 -1.0153
  761SOL    HW2 3043   2.197   0.512   2.542  1.3493  1.1515  0.8438
  761SOL     MW 3044   2.191   0.452   2.481  0.4819  0.1808  0.1160
  762SOL     OW 3045   0.023   0.177   2.098  0.1371  0.0681 -0.2948
  762SOL    HW1 3046   0.001   0.103   2.156 -0.1636 -0.5297  0.3875
  762SOL    HW2 3047  -0.054   0.231   2.072 -0.5791 -1.2401  0.7672
  762SOL     MW 3048   0.010   0.174   2.102  0.0029 -0.1834 -0.0646
  763SOL     OW 3049   2.456   1.164   2.322 -0.2015  0.0426  0.6802
  763SOL    HW1 3050   2.478   1.099   2.254  1.9393 -2.5257  0.7857
  763SOL    HW2 3051   2.531   1.214   2.349  0.2264  0.8251 -0.4358
  763SOL     MW 3052   2.468   1.162   2.317  0.1374 -0.1930  0.5469
  764SOL     OW 3053   0.394   0.168   2.795  0.2368  0.5990 -0.0541
  764SOL    HW1 3054   0.304   0.187   2.814 -0.9225  2.0814  2.1173
  764SOL    HW2 3055   0.431   0.253   2.790  0.8510  0.9489  1.3662
  764SOL     MW 3056   0.387   0.181   2.797  0.1649  0.8408  0.4198
  765SOL     OW 3057   2.692   0.121   2.294  0.1983  0.5950  0.0001
  765SOL    HW1 3058   2.664   0.081   2.211  2.3178 -2.9959 -0.0339
  765SOL    HW2 3059   2.748   0.055   2.343 -0.4077 -0.0021  0.3348
  765SOL     MW 3060   2.696   0.107   2.290  0.3980  0.0425  0.0398
  766SOL     OW 3061   1.903   3.057   2.107 -0.6315 -0.0675 -0.2963
  766SOL    HW1 3062   1.987   3.042   2.062 -0.2360  0.8732 -1.4320
  766SOL    HW2 3063   1.833   3.002   2.064 -0.4331 -3.5305 -2.2475
  766SOL     MW 3064   1.905   3.048   2.095 -0.5532 -0.4003 -0.7036
  767SOL     OW 3065   2.642   0.653   1.933  0.4325  0.2135 -0.7465
  767SOL    HW1 3066   2.715   0.701   1.975  0.9496 -0.2172  1.7635
  767SOL    HW2 3067   2.575   0.714   1.898  1.2746  0.7049  1.5305
  767SOL     MW 3068   2.643   0.667   1.934  0.6118  0.2215 -0.1149
  768SOL     OW 3069   0.004   1.470   2.987  0.5208 -0.4953  0.2409
  768SOL    HW1 3070   0.027   1.464   3.080 -1.6775 -0.8270 -1.8972
  768SOL    HW2 3071   0.021   1.378   2.956 -1.1719 -2.5600 -1.3220
  768SOL     MW 3072   0.009   1.457   2.995  0.0074 -0.8115 -0.2474
  769SOL     OW 3073   2.334   0.683   2.378  0.4416  0.2287  0.1855
  769SOL    HW1 3074   2.311   0.590   2.378 -2.9393 -0.5111 -1.7510
  769SOL    HW2 3075   2.396   0.677   2.302  2.7697 -0.8946  0.2840
  769SOL     MW 3076   2.339   0.670   2.368  0.3027 -0.0171 -0.0570
  770SOL     OW 3077   0.064   1.612   2.613  0.3230  0.6002  0.3122
  770SOL    HW1 3078  -0.027   1.612   2.640  2.5146 -0.3936  1.7646
  770SOL    HW2 3079   0.092   1.537   2.660  2.1019  0.0348 -1.5100
  770SOL     MW 3080   0.055   1.602   2.623  0.8469  0.3945  0.2634
  771SOL     OW 3081   3.019   0.599   1.939 -0.2705 -0.6037 -0.0109
  771SOL    HW1 3082   2.998   0.585   1.841  0.1319 -0.1976  0.0837
  771SOL    HW2 3083   3.110   0.592   1.951 -2.0405  1.2636 -4.3339
  771SOL     MW 3084   3.028   0.596   1.928 -0.4509 -0.3037 -0.5688
  772SOL     OW 3085   0.015   3.074   2.334 -0.2846 -0.4641 -0.2542
  772SOL    HW1 3086  -0.050   3.029   2.392 -3.1268  0.8431  1.4760
  772SOL    HW2 3087   0.069   3.001   2.301  1.6917  2.2357  0.0591
  772SOL     MW 3088   0.013   3.059   2.337 -0.3988  0.0646  0.0155
  773SOL     OW 3089   2.491   2.830   2.813  0.0844 -0.0789  0.3517
  773SOL    HW1 3090   2.505   2.755   2.758 -2.3455 -1.0058  1.8101
  773SOL    HW2 3091   2.447   2.792   2.896 -2.3093 -0.8863  0.5484
  773SOL     MW 3092   2.487   2.815   2.817 -0.5520 -0.3077  0.5700
  774SOL     OW 3093   2.331   1.163   1.770 -0.1491  0.6449  0.5138
  774SOL    HW1 3094   2.318   1.253   1.732  2.1925  2.4719  0.6365
  774SOL    HW2 3095   2.252   1.108   1.735 -0.9719  0.1913  3.2634
  774SOL     MW 3096   2.319   1.168   1.760  0.0513  0.8261  0.8928
  775SOL     OW 3097   2.271   2.948   2.325 -0.6484  0.3800  0.2228
  775SOL    HW1 3098   2.283   3.033   2.278  0.4933 -1.4286 -1.0755
  775SOL    HW2 3099   2.340   2.892   2.293 -2.2160 -0.6780  1.2431
  775SOL     MW 3100   2.282   2.952   2.315 -0.7046  0.0017  0.1861
  776SOL     OW 3101   0.133   1.528   0.128  0.2371  0.2417 -0.2977
  776SOL    HW1 3102   0.215   1.495   0.089  0.9910  0.8347 -0.3615
  776SOL    HW2 3103   0.094   1.445   0.167 -0.8737  0.0441  1.8634
  776SOL     MW 3104   0.139   1.513   0.128  0.1900  0.2939 -0.0210
  777SOL     OW 3105   2.980   1.106   1.743 -0.0358  0.3259  0.0529
  777SOL    HW1 3106   2.938   1.145   1.663 -1.0376 -0.0057 -3.7092
  777SOL    HW2 3107   2.901   1.084   1.789  1.4820 -0.0587 -0.0448
  777SOL     MW 3108   2.964   1.108   1.739  0.0323  0.2314 -0.4563
  778SOL     OW 3109   2.858   0.443   2.766 -0.2652 -0.3203  0.1756
  778SOL    HW1 3110   2.784   0.443   2.830  0.2748 -0.8257 -0.3372
  778SOL    HW2 3111   2.867   0.536   2.743  1.4825 -0.0216  2.1626
  778SOL     MW 3112   2.849   0.456   2.772  0.0366 -0.3476  0.3701
  779SOL     OW 3113   2.272   0.483   2.114 -0.0923  1.1567  0.1062
  779SOL    HW1 3114   2.213   0.509   2.184 -0.4907 -1.7728 -2.2025
  779SOL    HW2 3115   2.242   0.390   2.103  1.1763  0.0840  0.2361
  779SOL     MW 3116   2.260   0.474   2.122  0.0225  0.6287 -0.1813
  780SOL     OW 3117   0.149   0.240   2.689 -0.4573 -0.0114 -0.2392
  780SOL    HW1 3118   0.059   0.248   2.691  0.5862  2.5560 -2.5349
  780SOL    HW2 3119   0.175   0.320   2.652 -1.6180  1.3797 -0.5189
  780SOL     MW 3120   0.141   0.252   2.684 -0.4728  0.5109 -0.5790
  781SOL     OW 3121   3.049   1.323   2.491 -0.1516  0.0532 -0.3065
  781SOL    HW1 3122   3.001   1.383   2.436 -0.9389 -2.5021  0.1386
  781SOL    HW2 3123   3.084   1.255   2.426 -0.5624 -3.3406  1.4316
  781SOL     MW 3124   3.047   1.322   2.475 -0.3097 -0.7318 -0.0184
  782SOL     OW 3125   0.639   1.498   0.084 -0.8475  0.3711 -0.8655
  782SOL    HW1 3126   0.568   1.539   0.037  4.1837  0.2409 -1.1926
  782SOL    HW2 3127   0.665   1.546   0.162  2.2007  0.3568 -0.5687
  782SOL     MW 3128   0.633   1.510   0.088  0.2185  0.3521 -0.8695
  783SOL     OW 3129   2.682   0.590   2.398 -0.4277  0.7467 -0.0520
  783SOL    HW1 3130   2.627   0.643   2.335 -2.4520  1.5254 -0.2329
  783SOL    HW2 3131   2.616   0.557   2.467 -2.5601 -0.4880 -1.6752
  783SOL     MW 3132   2.666   0.593   2.399 -0.9762  0.6865 -0.2900
  784SOL     OW 3133   0.194   0.855   2.879 -0.0062 -0.2621  0.4284
  784SOL    HW1 3134   0.110   0.885   2.901  3.2251 -0.5234  1.6120
  784SOL    HW2 3135   0.204   0.889   2.790  1.0142  3.9901 -0.1267
  784SOL     MW 3136   0.184   0.864   2.871  0.5547  0.2645  0.5113
  785SOL     OW 3137   0.465   0.423   2.184  0.0194  0.0393  0.3623
  785SOL    HW1 3138   0.451   0.464   2.096 -0.5082 -1.5136  0.6643
  785SOL    HW2 3139   0.385   0.367   2.201  2.3668 -3.2112 -0.7583
  785SOL     MW 3140   0.453   0.421   2.175  0.2595 -0.5944  0.2543
  786SOL     OW 3141   1.902   0.423   3.040  0.1220 -0.0685 -0.8963
  786SOL    HW1 3142   1.813   0.467   3.058 -0.3080  0.1517 -1.4834
  786SOL    HW2 3143   1.920   0.441   2.949 -0.1535 -0.0314  0.3690
  786SOL     MW 3144   1.892   0.431   3.031  0.0289 -0.0346 -0.8068
  787SOL     OW 3145   2.468   0.133   2.929  0.2710 -0.5706  0.8465
  787SOL    HW1 3146   2.547   0.112   2.885  1.8334  0.8042 -2.2224
  787SOL    HW2 3147   2.487   0.220   2.964 -0.8185  1.0328 -0.0410
  787SOL     MW 3148   2.481   0.142   2.928  0.3334 -0.1776  0.3245
  788SOL     OW 3149   2.832   3.027   2.410  0.0631  0.2540 -0.1421
  788SOL    HW1 3150   2.841   3.002   2.501 -0.5915  0.1172  0.9823
  788SOL    HW2 3151   2.847   2.947   2.359  0.8477 -0.0032 -1.8528
  788SOL     MW 3152   2.835   3.013   2.415  0.0802  0.2020 -0.2195
  789SOL     OW 3153   0.088   0.198   3.056  0.1651 -0.2400 -0.4135
  789SOL    HW1 3154   0.037   0.123   3.089  1.0941 -0.6743  1.1332
  789SOL    HW2 3155   0.032   0.260   3.015 -2.3023 -0.7972  0.8654
  789SOL     MW 3156   0.074   0.196   3.055 -0.0379 -0.3708 -0.0407
  790SOL     OW 3157   3.102   1.057   2.393 -0.0476  0.1225 -0.2035
  790SOL    HW1 3158   3.089   1.020   2.485  1.6701 -2.5149  0.6191
  790SOL    HW2 3159   3.018   1.034   2.340 -2.7919  0.9920 -1.4969
  790SOL     MW 3160   3.090   1.049   2.398 -0.1830 -0.1107 -0.2656
  791SOL     OW 3161   2.537   0.481   2.597  0.0671 -0.0953  0.0647
  791SOL    HW1 3162   2.483   0.526   2.661  0.0128  2.4877  2.0667
  791SOL    HW2 3163   2.514   0.387   2.598  0.2346 -2.8387 -3.4228
  791SOL     MW 3164   2.527   0.474   2.605  0.0820 -0.1165 -0.1313
  792SOL     OW 3165   2.348   0.236   2.434  0.3001 -0.5734  0.0360
  792SOL    HW1 3166   2.312   0.321   2.447 -0.1890 -1.6993  0.0778
  792SOL    HW2 3167   2.310   0.194   2.510 -0.6671 -1.1530 -0.6818
  792SOL     MW 3168   2.339   0.242   2.446  0.1079 -0.7984 -0.0532
  793SOL     OW 3169   1.844   1.090   2.006  0.8615  0.0721 -0.1107
  793SOL    HW1 3170   1.799   1.065   1.929  0.4981 -0.5457 -2.4476
  793SOL    HW2 3171   1.938   1.068   1.996  3.5099 -0.1156 -0.2824
  793SOL     MW 3172   1.851   1.084   1.995  1.1630 -0.0342 -0.4417
  794SOL     OW 3173   1.357   2.341   0.137 -0.6147  0.4353  0.2514
  794SOL    HW1 3174   1.398   2.420   0.114  3.5370  0.9221 -1.1313
  794SOL    HW2 3175   1.399   2.325   0.224  1.7619  1.2872  0.5739
  794SOL     MW 3176   1.368   2.349   0.145  0.2466  0.6119  0.1116
  795SOL     OW 3177   2.317   1.039   2.525 -0.1323 -0.4850 -0.4332
  795SOL    HW1 3178   2.295   1.096   2.597  4.1108 -1.3220  0.2073
  795SOL    HW2 3179   2.379   1.094   2.471  0.7314  1.2460 -1.6464
  795SOL     MW 3180   2.322   1.054   2.528  0.5415 -0.3670 -0.5087
  796SOL     OW 3181   0.251   0.624   2.695  0.3740  0.1114  0.9310
  796SOL    HW1 3182   0.196   0.673   2.755  1.4120 -1.5459  1.3471
  796SOL    HW2 3183   0.202   0.622   2.614  1.0642  2.6729  0.1075
  796SOL     MW 3184   0.237   0.630   2.692  0.6020  0.2307  0.8773
  797SOL     OW 3185   2.591   0.163   2.576 -0.1237 -0.1271  0.1427
  797SOL    HW1 3186   2.508   0.171   2.521 -4.5264  0.3541 -2.8486
  797SOL    HW2 3187   2.652   0.135   2.510 -2.9384  0.5176 -2.5692
  797SOL     MW 3188   2.588   0.161   2.560 -1.0759  0.0214 -0.6098
  798SOL     OW 3189   2.373   0.077   2.199 -0.1957  1.0158 -0.1046
  798SOL    HW1 3190   2.404   0.138   2.266 -2.5755 -1.5446 -0.5061
  798SOL    HW2 3191   2.455   0.031   2.187 -0.5893 -0.3187  0.2542
  798SOL     MW 3192   2.388   0.079   2.206 -0.5616  0.5019 -0.1102
  799SOL     OW 3193   2.561   2.986   0.144 -0.3891 -0.0833  0.3288
  799SOL    HW1 3194   2.475   2.963   0.099 -0.9565  0.1320  0.4157
  799SOL    HW2 3195   2.555   2.979   0.241  2.5696 -1.2149  2.3297
  799SOL     MW 3196   2.549   2.982   0.151 -0.0736 -0.2042  0.6042
  800SOL     OW 3197   1.943   3.094   1.752 -0.1220  0.9293 -0.3803
  800SOL    HW1 3198   1.886   3.018   1.736  1.1749  0.7493 -2.7612
  800SOL    HW2 3199   1.985   3.077   1.839 -2.4134  0.5270 -1.4425
  800SOL     MW 3200   1.941   3.081   1.761 -0.2532  0.8525 -0.8346
  801SOL     OW 3201   2.799   1.224   2.593 -0.4164 -0.5517 -0.3437
  801SOL    HW1 3202   2.789   1.130   2.584 -0.1794  0.9893  1.6497
  801SOL    HW2 3203   2.893   1.249   2.575  0.4291  2.7200 -0.7156
  801SOL     MW 3204   2.810   1.215   2.590 -0.2736  0.0833 -0.1298
  802SOL     OW 3205   2.593   1.472   2.783  0.0758 -0.2664  0.2859
  802SOL    HW1 3206   2.583   1.403   2.723  0.7320  2.4281  0.4380
  802SOL    HW2 3207   2.668   1.464   2.843 -3.6071  0.0085 -0.9163
  802SOL     MW 3208   2.602   1.462   2.783 -0.3235  0.1254  0.1473
  803SOL     OW 3209   2.278   1.376   2.042 -0.2234  0.0152 -0.1065
  803SOL    HW1 3210   2.261   1.356   2.135  1.6424 -0.3117 -0.6604
  803SOL    HW2 3211   2.267   1.294   1.998  0.1367  0.7192 -1.7628
  803SOL     MW 3212   2.274   1.362   2.048  0.0703  0.0649 -0.3981
  804SOL     OW 3213   2.297   0.053   0.051  0.1297  0.0649  0.0972
  804SOL    HW1 3214   2.231   0.120   0.051 -0.9535 -1.6510  0.3619
  804SOL    HW2 3215   2.362   0.088  -0.011 -1.9443 -0.9121  0.0600
  804SOL     MW 3216   2.297   0.066   0.043 -0.2869 -0.2904  0.1272
  805SOL     OW 3217   2.738   0.937   2.636 -0.2149  1.0139 -0.2266
  805SOL    HW1 3218   2.659   0.897   2.602  0.5545  2.4435  2.0766
  805SOL    HW2 3219   2.811   0.877   2.607 -0.8034 -1.9216 -1.4464
  805SOL     MW 3220   2.737   0.924   2.628 -0.1910  0.8152 -0.0836
  806SOL     OW 3221   2.540   0.685   2.195 -0.9339  0.4341  0.5067
  806SOL    HW1 3222   2.571   0.639   2.118 -1.9765 -2.1350  2.3890
  806SOL    HW2 3223   2.529   0.780   2.179  0.3529 -0.0422  0.2694
  806SOL     MW 3224   2.543   0.691   2.183 -0.9017  0.0323  0.7237
  807SOL     OW 3225   0.090   1.071   2.049  0.0646  0.2149  0.2349
  807SOL    HW1 3226   0.129   0.991   2.020 -3.7788  0.6093 -4.8367
  807SOL    HW2 3227   0.020   1.040   2.097 -1.0266  2.6947 -0.5415
  807SOL     MW 3228   0.086   1.056   2.052 -0.5865  0.5941 -0.5367
  808SOL     OW 3229   2.646   3.079   2.795 -0.7973  0.0106 -0.3481
  808SOL    HW1 3230   2.586   3.015   2.826  0.1848 -0.9892 -2.8554
  808SOL    HW2 3231   2.619   3.111   2.708  1.5557 -1.4059  0.2472
  808SOL     MW 3232   2.635   3.075   2.788 -0.3573 -0.3082 -0.6003
  809SOL     OW 3233   2.651   1.333   2.409 -1.1779 -0.3759 -0.2032
  809SOL    HW1 3234   2.694   1.280   2.484 -1.3637  0.0411  3.0796
  809SOL    HW2 3235   2.712   1.330   2.329 -0.4801  2.6159  1.5287
  809SOL     MW 3236   2.664   1.326   2.409 -1.1103  0.0739  0.4584
  810SOL     OW 3237   2.247   1.323   2.300  0.0740 -0.4850  0.3132
  810SOL    HW1 3238   2.317   1.259   2.321 -1.4042  1.7532  1.2322
  810SOL    HW2 3239   2.167   1.295   2.344 -2.2688  1.8819 -0.6114
  810SOL     MW 3240   2.245   1.311   2.309 -0.4301  0.1226  0.3125
  811SOL     OW 3241   1.555   0.141   2.313 -0.4562 -0.3261  0.0816
  811SOL    HW1 3242   1.650   0.138   2.316 -0.5285 -0.7204 -0.4225
  811SOL    HW2 3243   1.535   0.123   2.223  0.4606 -0.0522 -1.7327
  811SOL     MW 3244   1.565   0.138   2.302 -0.3447 -0.3420 -0.2243
  812SOL     OW 3245   1.483   2.818   2.022 -0.0137  0.0405 -0.3929
  812SOL    HW1 3246   1.578   2.824   2.004 -0.8643 -1.4717 -2.4439
  812SOL    HW2 3247   1.474   2.814   2.119  0.4235  0.3373  0.5163
  812SOL     MW 3248   1.494   2.818   2.032 -0.0683 -0.1199 -0.5435
  813SOL     OW 3249   1.995   0.611   2.238 -0.2378  0.3968 -0.0600
  813SOL    HW1 3250   1.912   0.567   2.239 -3.0293 -1.5796 -1.0355
  813SOL    HW2 3251   1.981   0.691   2.276  1.9814 -1.6472 -1.0488
  813SOL     MW 3252   1.982   0.615   2.243 -0.3133 -0.1336 -0.3192
  814SOL     OW 3253   2.727   1.220   1.643  0.3244  0.4577 -0.0419
  814SOL    HW1 3254   2.693   1.236   1.727  1.7077  0.1681 -2.4928
  814SOL    HW2 3255   2.683   1.148   1.598  0.8999 -0.1542  0.6723
  814SOL     MW 3256   2.717   1.213   1.648  0.5828  0.3388 -0.2711
  815SOL     OW 3257   2.570   1.779   2.389  0.5414  0.4446 -0.1369
  815SOL    HW1 3258   2.528   1.701   2.354 -1.4684 -2.8361 -0.8069
  815SOL    HW2 3259   2.654   1.741   2.412  2.2631 -0.6906 -2.2881
  815SOL     MW 3260   2.576   1.764   2.387  0.5034 -0.1380 -0.5091
  816SOL     OW 3261   0.744   0.704   2.737 -0.4311  0.1402 -0.7786
  816SOL    HW1 3262   0.773   0.627   2.780 -1.5149  0.5878  0.3220
  816SOL    HW2 3263   0.646   0.689   2.718  4.4481 -0.7967 -0.4730
  816SOL     MW 3264   0.735   0.692   2.740  0.0697  0.0756 -0.5930
  817SOL     OW 3265   2.987   1.232   1.471 -0.2073 -0.3204  0.2020
  817SOL    HW1 3266   3.078   1.210   1.467  1.5998  0.0202 -0.6661
  817SOL    HW2 3267   2.983   1.312   1.410 -1.0784 -1.3974 -1.1292
  817SOL     MW 3268   2.998   1.239   1.462 -0.0838 -0.4175 -0.0882
  818SOL     OW 3269   1.932   1.048   2.632 -0.1403  1.0045  0.5015
  818SOL    HW1 3270   1.911   0.990   2.553 -2.0351 -1.8691 -0.6677
  818SOL    HW2 3271   1.995   1.000   2.690 -0.9538 -1.4499 -1.7400
  818SOL     MW 3272   1.938   1.034   2.630 -0.4976  0.3015  0.0515
  819SOL     OW 3273   1.983   0.294   2.509  0.1947 -0.6945  0.4802
  819SOL    HW1 3274   1.909   0.361   2.509  0.7663  2.7679  1.7615
  819SOL    HW2 3275   2.019   0.303   2.600 -0.8921  0.8895  1.4015
  819SOL     MW 3276   1.978   0.304   2.521  0.1267 -0.0287  0.7708
  820SOL     OW 3277   2.455   1.698   2.671  0.5215  0.5589  0.6872
  820SOL    HW1 3278   2.520   1.651   2.726  0.6190  0.4569 -0.2090
  820SOL    HW2 3279   2.492   1.698   2.583  0.8937  0.3994  1.3303
  820SOL     MW 3280   2.468   1.692   2.667  0.5835  0.5244  0.6538
  821SOL     OW 3281   2.537   1.353   1.988 -0.8389  0.1246  0.1798
  821SOL    HW1 3282   2.565   1.433   1.934  0.8351 -2.6874  0.9855
  821SOL    HW2 3283   2.449   1.382   2.021 -2.1509 -0.4857  3.7775
  821SOL     MW 3284   2.529   1.367   1.985 -0.7912 -0.3269  0.7608
  822SOL     OW 3285   2.860   2.688   1.459 -0.5654 -0.8924 -0.7399
  822SOL    HW1 3286   2.875   2.672   1.555 -1.2478  0.1115  1.9488
  822SOL    HW2 3287   2.910   2.762   1.435 -1.8089 -2.5195  0.9430
  822SOL     MW 3288   2.869   2.696   1.469 -0.8195 -0.9746 -0.1631
  823SOL     OW 3289   2.397   0.504   1.833  0.2487 -0.4451  0.2766
  823SOL    HW1 3290   2.474   0.457   1.783  1.8073  0.7811 -1.1829
  823SOL    HW2 3291   2.376   0.468   1.924 -1.7675 -1.9565  0.6517
  823SOL     MW 3292   2.404   0.493   1.838  0.1884 -0.4827  0.1335
  824SOL     OW 3293   2.250   1.453   2.644 -0.5874  0.2048 -0.5734
  824SOL    HW1 3294   2.326   1.473   2.590 -1.2413  1.1189 -2.3755
  824SOL    HW2 3295   2.199   1.532   2.652  0.9257 -0.2045  0.6978
  824SOL     MW 3296   2.253   1.466   2.638 -0.4740  0.2714 -0.6434
  825SOL     OW 3297   1.900   2.562   0.255  0.2546 -0.0936 -0.0170
  825SOL    HW1 3298   1.857   2.492   0.315  0.9021  1.7560  2.4736
  825SOL    HW2 3299   1.985   2.528   0.236 -0.3232  1.2164  0.3528
  825SOL     MW 3300   1.905   2.548   0.261  0.2638  0.3233  0.3604
  826SOL     OW 3301   1.806   2.377   0.464  0.8606  0.1344  0.1341
  826SOL    HW1 3302   1.763   2.301   0.505 -1.6776  1.1486  1.2649
  826SOL    HW2 3303   1.788   2.446   0.520 -0.7906 -1.9197 -0.1849
  826SOL     MW 3304   1.798   2.376   0.477  0.3078 -0.0028  0.2412
  827SOL     OW 3305   1.887   2.185   0.797  0.1727  0.1137 -0.2345
  827SOL    HW1 3306   1.841   2.186   0.715  0.8349  1.3892  0.1838
  827SOL    HW2 3307   1.840   2.134   0.859  3.6455 -1.1306  2.4570
  827SOL     MW 3308   1.874   2.179   0.794  0.7183  0.1178  0.1758
  828SOL     OW 3309   0.031   2.612   0.572  0.5879 -0.2071 -0.4228
  828SOL    HW1 3310   0.127   2.606   0.557 -0.6601 -0.9484  0.9050
  828SOL    HW2 3311  -0.015   2.651   0.497  2.1016 -0.9121 -0.4049
  828SOL     MW 3312   0.038   2.616   0.560  0.6229 -0.3979 -0.2453
  829SOL     OW 3313   2.996   2.931   1.208  0.0068  0.0020 -0.2937
  829SOL    HW1 3314   2.924   2.930   1.146 -2.7160  0.0901  2.0814
  829SOL    HW2 3315   3.055   2.860   1.176 -1.2530  0.0774  1.2595
  829SOL     MW 3316   2.994   2.921   1.196 -0.5187  0.0236  0.2246
  830SOL     OW 3317   2.582   2.834   2.024 -0.2266  0.5367 -0.2694
  830SOL    HW1 3318   2.488   2.856   1.995  2.1985  0.0923  1.8817
  830SOL    HW2 3319   2.613   2.776   1.954 -2.0356 -0.5435  1.3501
  830SOL     MW 3320   2.574   2.829   2.011 -0.1453  0.3356  0.2281
  831SOL     OW 3321   2.340   2.464   1.162  0.1837  0.2280  0.3523
  831SOL    HW1 3322   2.305   2.423   1.242  0.0360  0.5217 -1.6533
  831SOL    HW2 3323   2.433   2.432   1.163 -0.6092 -0.8950 -1.4539
  831SOL     MW 3324   2.348   2.454   1.173  0.0596  0.1186 -0.1507
  832SOL     OW 3325   2.358   2.195   1.868 -0.1579  0.3408  0.1846
  832SOL    HW1 3326   2.386   2.272   1.920  0.2556  1.9980  0.0925
  832SOL    HW2 3327   2.441   2.147   1.851  1.2050  0.4286 -0.2822
  832SOL     MW 3328   2.372   2.199   1.873  0.0765  0.5711  0.1108
  833SOL     OW 3329   1.727   2.458   0.871 -0.3405  0.3113  0.0874
  833SOL    HW1 3330   1.656   2.410   0.914  0.6613  0.5860  1.6781
  833SOL    HW2 3331   1.740   2.529   0.933 -0.1388 -3.5051 -3.5957
  833SOL     MW 3332   1.720   2.461   0.885 -0.1817 -0.1560 -0.1887
  834SOL     OW 3333   2.046   2.440   0.575 -0.3385 -0.1181 -0.7971
  834SOL    HW1 3334   1.966   2.417   0.537  0.2602 -0.3840  0.3630
  834SOL    HW2 3335   2.120   2.405   0.523  0.9939  1.0039 -0.6604
  834SOL     MW 3336   2.045   2.433   0.563 -0.0837 -0.0052 -0.6260
  835SOL     OW 3337   1.781   2.607   0.622  0.9602  0.6409  0.3636
  835SOL    HW1 3338   1.734   2.549   0.686 -2.2116 -0.6125  0.5610
  835SOL    HW2 3339   1.858   2.654   0.660 -1.0147 -0.3847  0.6144
  835SOL     MW 3340   1.785   2.605   0.635  0.2812  0.3402  0.4227
  836SOL     OW 3341   1.922   2.190   1.591  0.5437  0.4723  0.1125
  836SOL    HW1 3342   2.012   2.211   1.622  1.8901 -0.7921  0.6057
  836SOL    HW2 3343   1.858   2.247   1.637  1.7500 -0.3080  2.9008
  836SOL     MW 3344   1.925   2.200   1.601  0.8805  0.2025  0.5455
  837SOL     OW 3345   2.148   0.230   0.678 -0.0387 -0.6452 -0.2573
  837SOL    HW1 3346   2.059   0.256   0.650  0.5591  2.5889  0.4421
  837SOL    HW2 3347   2.173   0.154   0.622  1.4887 -1.1638 -0.4186
  837SOL     MW 3348   2.139   0.223   0.667  0.2417 -0.2869 -0.1863
  838SOL     OW 3349   2.932   2.038   0.931  0.1113  0.1056 -0.3176
  838SOL    HW1 3350   2.857   1.992   0.972  1.7827 -1.1876  1.0450
  838SOL    HW2 3351   3.007   1.979   0.916  1.8338 -0.3023 -0.5341
  838SOL     MW 3352   2.932   2.024   0.935  0.5591 -0.1188 -0.1664
  839SOL     OW 3353   1.504   2.308   1.035 -0.3490 -0.1062 -0.3887
  839SOL    HW1 3354   1.504   2.378   1.103 -0.4923 -1.8601  0.3279
  839SOL    HW2 3355   1.532   2.231   1.087 -0.3730  2.7279 -2.9359
  839SOL     MW 3356   1.508   2.307   1.051 -0.3711  0.0363 -0.6302
  840SOL     OW 3357   2.356   2.164   2.473 -0.2111  0.4121  0.0888
  840SOL    HW1 3358   2.300   2.213   2.411  2.5467 -0.1338 -2.5164
  840SOL    HW2 3359   2.377   2.217   2.546  1.5128 -2.4098 -1.2222
  840SOL     MW 3360   2.351   2.178   2.474  0.3802 -0.0323 -0.4279
  841SOL     OW 3361   2.137   2.444   0.127  0.3954 -0.4222  0.0040
  841SOL    HW1 3362   2.167   2.519   0.078 -0.8538 -0.2680 -1.1170
  841SOL    HW2 3363   2.110   2.382   0.056 -0.1158 -0.5316 -2.2525
  841SOL     MW 3364   2.137   2.446   0.112  0.1632 -0.4163 -0.4416
  842SOL     OW 3365   2.638   2.087   1.531 -0.7353 -0.4935  0.1490
  842SOL    HW1 3366   2.588   2.048   1.605  0.7612 -0.4299  1.5135
  842SOL    HW2 3367   2.581   2.082   1.450  0.1830  3.2351  0.6863
  842SOL     MW 3368   2.624   2.081   1.530 -0.4167  0.0068  0.4000
  843SOL     OW 3369   2.706   2.802   1.757  0.2200 -0.2884 -0.0279
  843SOL    HW1 3370   2.793   2.748   1.746  1.1090 -0.4969  1.3310
  843SOL    HW2 3371   2.642   2.734   1.747  0.3500  3.3362  0.6796
  843SOL     MW 3372   2.709   2.786   1.755  0.3544  0.1623  0.2447
  844SOL     OW 3373   2.601   2.357   1.160 -0.2836 -0.4644 -0.4846
  844SOL    HW1 3374   2.649   2.345   1.078 -2.0944 -0.9390  0.1444
  844SOL    HW2 3375   2.666   2.406   1.215 -0.6418  0.6191  1.6287
  844SOL     MW 3376   2.616   2.362   1.157 -0.5698 -0.3841 -0.1228
  845SOL     OW 3377   2.830   2.494   0.301  0.1112 -0.2690  0.1934
  845SOL    HW1 3378   2.778   2.421   0.327 -1.1588  1.0181 -0.7493
  845SOL    HW2 3379   2.847   2.532   0.388 -0.7836 -3.4574 -1.5421
  845SOL     MW 3380   2.825   2.490   0.316 -0.1744 -0.5198 -0.1600
  846SOL     OW 3381   1.537   2.843   0.818 -0.3760 -0.1061 -0.1051
  846SOL    HW1 3382   1.588   2.885   0.885 -2.2667  1.1153  0.6121
  846SOL    HW2 3383   1.447   2.872   0.840 -3.1604  0.0454  0.4476
  846SOL     MW 3384   1.532   2.853   0.830 -0.9928  0.0750  0.0624
  847SOL     OW 3385   2.619   1.904   0.196  0.2082  0.2406 -0.1611
  847SOL    HW1 3386   2.696   1.856   0.212  0.6997 -0.1800  0.4120
  847SOL    HW2 3387   2.588   1.865   0.119 -3.5359 -1.2730 -0.3989
  847SOL     MW 3388   2.625   1.893   0.188 -0.2210 -0.0146 -0.1169
  848SOL     OW 3389   2.489   2.144   1.302 -0.2916  0.1612  0.2390
  848SOL    HW1 3390   2.531   2.225   1.254 -2.7704  4.5163 -0.5354
  848SOL    HW2 3391   2.486   2.079   1.235  0.9326 -0.8521 -0.0724
  848SOL     MW 3392   2.494   2.146   1.287 -0.4571  0.6021  0.0958
  849SOL     OW 3393   1.984   2.754   0.797 -0.5329  0.5404 -0.5007
  849SOL    HW1 3394   1.997   2.701   0.873  0.6506  0.3704 -0.5865
  849SOL    HW2 3395   2.062   2.733   0.746  3.1536 -1.0851  0.3786
  849SOL     MW 3396   1.996   2.744   0.801  0.1097  0.3035 -0.3960
  850SOL     OW 3397   2.185   1.971   1.688 -0.2058 -0.0319  0.2278
  850SOL    HW1 3398   2.119   1.930   1.625 -0.3808 -0.9384 -1.9142
  850SOL    HW2 3399   2.175   2.065   1.684  1.2731 -1.9503 -0.8532
  850SOL     MW 3400   2.175   1.978   1.679 -0.0337 -0.4046 -0.1975
  851SOL     OW 3401   2.222   2.369   0.366  0.2485  0.0863  0.3818
  851SOL    HW1 3402   2.179   2.375   0.288  3.3108 -1.0895  0.3972
  851SOL    HW2 3403   2.302   2.423   0.358  0.0164  0.1787 -0.8013
  851SOL     MW 3404   2.227   2.377   0.355  0.6219 -0.0566  0.2277
  852SOL     OW 3405   2.273   2.152   0.158 -0.0686  0.3949 -0.1490
  852SOL    HW1 3406   2.267   2.218   0.225  3.6165  0.1229  0.6894
  852SOL    HW2 3407   2.366   2.161   0.127 -0.5785 -0.0206  0.5173
  852SOL     MW 3408   2.284   2.162   0.163  0.3503  0.3042  0.0495
  853SOL     OW 3409   2.455   2.446   1.977  0.1330  0.0531  0.0964
  853SOL    HW1 3410   2.469   2.490   1.894  0.3503 -2.4807  0.1199
  853SOL    HW2 3411   2.549   2.426   2.009 -1.4784 -0.9682 -0.5454
  853SOL     MW 3412   2.469   2.450   1.971 -0.0509 -0.4159  0.0148
  854SOL     OW 3413   2.886   2.242   0.748 -0.4670  0.4006  0.3710
  854SOL    HW1 3414   2.814   2.213   0.693  1.5836 -1.8641  0.5441
  854SOL    HW2 3415   2.900   2.173   0.815  0.6538  0.7432  0.5308
  854SOL     MW 3416   2.878   2.229   0.749 -0.0485  0.1470  0.4149
  855SOL     OW 3417   2.683   2.240   0.316 -0.3932 -0.3587  0.1477
  855SOL    HW1 3418   2.662   2.261   0.405  0.5469  0.6859  3.4722
  855SOL    HW2 3419   2.770   2.195   0.317 -2.2089 -1.1746  0.0713
  855SOL     MW 3420   2.692   2.237   0.328 -0.5087 -0.3285  0.5762
  856SOL     OW 3421   2.172   1.901   0.228  0.1477  0.7543  0.5552
  856SOL    HW1 3422   2.077   1.899   0.235 -0.0025 -0.5656  1.4165
  856SOL    HW2 3423   2.199   1.994   0.223  0.1474  2.6107 -1.2791
  856SOL     MW 3424   2.163   1.913   0.228  0.1278  0.8251  0.4269
  857SOL     OW 3425   2.540   1.915   0.475  0.4211  0.6169  0.4465
  857SOL    HW1 3426   2.525   1.943   0.391  0.4894 -0.7130  2.3526
  857SOL    HW2 3427   2.453   1.869   0.489 -2.7179  0.0306 -1.7784
  857SOL     MW 3428   2.527   1.913   0.465  0.0160  0.3641  0.4045
  858SOL     OW 3429   2.909   2.632   1.713 -0.3222  0.0989 -0.2417
  858SOL    HW1 3430   2.997   2.647   1.753 -0.8603 -1.1922  0.2055
  858SOL    HW2 3431   2.878   2.557   1.759  1.5039  2.1650 -2.4998
  858SOL     MW 3432   2.916   2.624   1.724 -0.1523  0.2011 -0.4806
  859SOL     OW 3433   2.091   2.488   0.839  0.5090  0.2169  0.0558
  859SOL    HW1 3434   2.062   2.471   0.750 -1.1509  0.2740 -1.6128
  859SOL    HW2 3435   2.172   2.436   0.852  2.3951  2.2924 -1.8108
  859SOL     MW 3436   2.098   2.479   0.829  0.5389  0.4983 -0.4107
  860SOL     OW 3437   2.650   2.601   0.144 -0.2497 -0.4603  0.2614
  860SOL    HW1 3438   2.728   2.573   0.204 -1.5581 -0.8451  0.7397
  860SOL    HW2 3439   2.672   2.682   0.106 -2.3052 -1.9400  0.0355
  860SOL     MW 3440   2.663   2.608   0.147 -0.6936 -0.7063  0.2947
  861SOL     OW 3441   1.597   2.112   1.198  0.0749  0.7803  0.1025
  861SOL    HW1 3442   1.668   2.133   1.261  2.9491 -0.6817  2.3202
  861SOL    HW2 3443   1.526   2.063   1.247 -1.9471  0.9102 -0.0820
  861SOL     MW 3444   1.597   2.109   1.213  0.1874  0.6046  0.3708
  862SOL     OW 3445   2.403   1.860   1.527  0.4096  0.5263 -0.4862
  862SOL    HW1 3446   2.318   1.870   1.567 -1.1497  1.1077 -3.2145
  862SOL    HW2 3447   2.372   1.869   1.434 -0.5167  2.2222  2.4584
  862SOL     MW 3448   2.387   1.863   1.520  0.0817  0.8268 -0.4577
  863SOL     OW 3449   3.056   1.785   1.205  0.1510 -0.0832  0.2131
  863SOL    HW1 3450   3.139   1.792   1.156  0.7360 -0.5775  0.5761
  863SOL    HW2 3451   3.042   1.875   1.212  0.5673 -3.2823 -2.1704
  863SOL     MW 3452   3.065   1.798   1.199  0.2831 -0.5705 -0.0535
  864SOL     OW 3453   0.034   1.832   0.831  0.2669  0.1009 -0.6171
  864SOL    HW1 3454  -0.048   1.796   0.866 -1.1833  2.0295 -0.5657
  864SOL    HW2 3455   0.022   1.818   0.732 -1.0517 -1.7918 -1.8543
  864SOL     MW 3456   0.022   1.825   0.822 -0.0985  0.1057 -0.7736
  865SOL     OW 3457   2.535   2.177   0.063 -0.1701 -0.3591  0.3757
  865SOL    HW1 3458   2.594   2.111   0.091 -0.6164  4.3596 -2.4736
  865SOL    HW2 3459   2.501   2.138  -0.018 -0.4596  0.8179 -2.3690
  865SOL     MW 3460   2.538   2.163   0.056 -0.2672  0.4188 -0.3624
  866SOL     OW 3461   2.650   2.350   1.618 -0.3437  0.0581  0.7068
  866SOL    HW1 3462   2.640   2.255   1.592 -1.6462  0.7309 -3.6715
  866SOL    HW2 3463   2.669   2.381   1.531 -0.6378 -1.8848  0.3786
  866SOL     MW 3464   2.651   2.342   1.603 -0.5543 -0.1095  0.0858
  867SOL     OW 3465   0.026   2.752   1.824 -0.2734  0.0816 -0.1989
  867SOL    HW1 3466   0.099   2.774   1.874 -0.6517  0.7452 -1.7640
  867SOL    HW2 3467   0.011   2.825   1.765 -3.1294  2.3970  0.1235
  867SOL     MW 3468   0.034   2.764   1.823 -0.7001  0.4746 -0.3629
  868SOL     OW 3469   2.797   2.588   0.558 -0.3221  0.2375 -0.1804
  868SOL    HW1 3470   2.713   2.539   0.556 -1.1814  0.5384 -0.9592
  868SOL    HW2 3471   2.774   2.679   0.525 -1.2302  0.5707 -0.1029
  868SOL     MW 3472   2.783   2.594   0.553 -0.5553  0.3212 -0.2730
  869SOL     OW 3473   1.944   2.336   1.046  0.0471 -0.1029 -0.5022
  869SOL    HW1 3474   1.990   2.404   0.997 -0.1219 -1.4492 -0.5253
  869SOL    HW2 3475   1.886   2.301   0.974  1.6320  1.8522  1.8845
  869SOL     MW 3476   1.943   2.340   1.030  0.2339 -0.0226 -0.1903
  870SOL     OW 3477   2.214   0.018   0.517 -0.4134 -0.0860 -0.4681
  870SOL    HW1 3478   2.264   0.057   0.448 -0.5805  0.1400  3.6396
  870SOL    HW2 3479   2.263  -0.053   0.552 -0.0242  1.1717 -0.3452
  870SOL     MW 3480   2.227   0.014   0.513 -0.3841  0.1098  0.0901
  871SOL     OW 3481   2.478   1.975   0.919  0.0772  0.1457  0.1282
  871SOL    HW1 3482   2.420   1.964   0.846 -0.9567 -2.2923  1.8133
  871SOL    HW2 3483   2.437   2.056   0.952 -1.0378 -0.7014  1.1930
  871SOL     MW 3484   2.465   1.985   0.914 -0.2063 -0.2877  0.4910
  872SOL     OW 3485   2.013   2.512   1.390  0.2242  0.2241  0.6382
  872SOL    HW1 3486   1.965   2.570   1.439  2.1651  1.1523 -1.5972
  872SOL    HW2 3487   1.949   2.444   1.373  0.3743  0.4701  2.8230
  872SOL     MW 3488   1.998   2.511   1.394  0.5001  0.3790  0.6315
  873SOL     OW 3489   2.830   2.063   1.941 -0.1059  0.5412  0.1031
  873SOL    HW1 3490   2.837   2.119   2.015  0.0946 -0.6862  1.9242
  873SOL    HW2 3491   2.911   2.074   1.881  0.5914 -1.0162 -0.0035
  873SOL     MW 3492   2.842   2.072   1.943  0.0125  0.1738  0.3293
  874SOL     OW 3493   2.429   1.505   2.390  0.2294 -0.3710  0.4122
  874SOL    HW1 3494   2.348   1.453   2.361 -2.2928  0.1060 -0.5499
  874SOL    HW2 3495   2.507   1.444   2.390  2.2490 -1.1628  0.9985
  874SOL     MW 3496   2.429   1.490   2.386  0.1631 -0.4126  0.3626
  875SOL     OW 3497   2.326   2.283   0.960  0.1073  0.0534  0.1462
  875SOL    HW1 3498   2.355   2.329   0.882 -0.5623 -1.9196 -0.2758
  875SOL    HW2 3499   2.315   2.350   1.027  1.1253  1.2544  2.1915
  875SOL     MW 3500   2.329   2.298   0.959  0.1533 -0.0485  0.3604
  876SOL     OW 3501   3.044   2.324   1.284  0.2572  0.2459 -0.5678
  876SOL    HW1 3502   3.106   2.331   1.201 -1.1150 -1.4864  0.4358
  876SOL    HW2 3503   3.089   2.354   1.365 -1.0200 -1.3109 -0.7479
  876SOL     MW 3504   3.058   2.329   1.283 -0.0924 -0.1881 -0.4591
  877SOL     OW 3505   3.024   2.720   0.355  0.2278 -0.0476  0.1721
  877SOL    HW1 3506   3.017   2.805   0.313 -0.1209 -0.0646  0.5009
  877SOL    HW2 3507   3.009   2.658   0.286  1.9839 -0.0510  0.6941
  877SOL     MW 3508   3.021   2.723   0.340  0.4134 -0.0503  0.2844
  878SOL     OW 3509   2.297   1.828   1.238 -0.0095  0.0581 -0.6382
  878SOL    HW1 3510   2.233   1.754   1.253  1.5297  0.5804 -4.1773
  878SOL    HW2 3511   2.384   1.791   1.217 -1.2491  0.3313  1.0047
  878SOL     MW 3512   2.300   1.813   1.238  0.0300  0.1630 -0.8884
  879SOL     OW 3513   2.733   2.426   0.906 -0.7690  0.0215  0.6225
  879SOL    HW1 3514   2.774   2.507   0.943 -1.3957 -3.3446 -0.7604
  879SOL    HW2 3515   2.801   2.385   0.852  1.0119 -0.0322 -1.9520
  879SOL     MW 3516   2.748   2.431   0.904 -0.6167 -0.4297  0.1003
  880SOL     OW 3517   2.614   2.155   0.680  0.0411  0.9480  0.4567
  880SOL    HW1 3518   2.600   2.100   0.754 -0.8711  1.0814 -2.4299
  880SOL    HW2 3519   2.590   2.103   0.599 -0.0384  2.1145 -1.7982
  880SOL     MW 3520   2.609   2.141   0.679 -0.0898  1.1195 -0.2217
  881SOL     OW 3521   2.954   2.692   0.748  0.4650  0.3334  0.0277
  881SOL    HW1 3522   2.882   2.656   0.697 -0.3003  1.3082  1.2436
  881SOL    HW2 3523   3.022   2.657   0.686 -0.5292 -2.3947  0.1317
  881SOL     MW 3524   2.953   2.682   0.733  0.2329  0.1021  0.2018
  882SOL     OW 3525   2.314   2.834   1.950  0.4980 -0.4280  0.4919
  882SOL    HW1 3526   2.308   2.837   1.852  0.6554 -1.5552 -0.9284
  882SOL    HW2 3527   2.250   2.769   1.980 -0.3603  0.4693  0.4357
  882SOL     MW 3528   2.305   2.826   1.941  0.4056 -0.4583  0.2971
  883SOL     OW 3529   2.274   2.284   1.401  0.1841  0.5468  0.9426
  883SOL    HW1 3530   2.363   2.241   1.381  2.0005 -0.0131  0.1311
  883SOL    HW2 3531   2.207   2.238   1.344  0.3584  0.6004 -3.7758
  883SOL     MW 3532   2.277   2.272   1.391  0.4468  0.4800  0.2130
  884SOL     OW 3533   1.874   1.878   1.132  0.1103  0.0223 -0.0853
  884SOL    HW1 3534   1.825   1.939   1.075  0.5720  2.5378  0.3839
  884SOL    HW2 3535   1.960   1.912   1.114 -0.7174 -2.2403  4.0007
  884SOL     MW 3536   1.879   1.890   1.122  0.0620  0.0557  0.5157
  885SOL     OW 3537   2.806   2.409   1.851 -0.1242  0.1803 -0.1353
  885SOL    HW1 3538   2.895   2.375   1.861  2.1971  1.3582 -1.8487
  885SOL    HW2 3539   2.771   2.381   1.765  1.5068 -1.4665 -2.6415
  885SOL     MW 3540   2.813   2.401   1.841  0.3973  0.1184 -0.6920
  886SOL     OW 3541   2.781   2.455   1.338 -0.1531  0.0420  0.1695
  886SOL    HW1 3542   2.869   2.416   1.327  0.7263  2.5061 -0.5799
  886SOL    HW2 3543   2.802   2.532   1.387 -2.2055 -1.1368 -0.1467
  886SOL     MW 3544   2.795   2.460   1.343 -0.3079  0.2116  0.0289
  887SOL     OW 3545   2.297   2.618   1.491 -0.1620  0.4038 -0.1154
  887SOL    HW1 3546   2.339   2.674   1.420  1.2022 -0.1255  1.0671
  887SOL    HW2 3547   2.211   2.587   1.463  1.3854 -1.2130  0.3582
  887SOL     MW 3548   2.291   2.622   1.478  0.2221  0.1206  0.1031
  888SOL     OW 3549   1.831   2.097   1.354  0.5329 -0.2251  0.5860
  888SOL    HW1 3550   1.912   2.086   1.299  1.1917  1.6875  2.2029
  888SOL    HW2 3551   1.872   2.119   1.439  2.1758  0.9374  0.6007
  888SOL     MW 3552   1.847   2.099   1.358  0.8366  0.1806  0.8013
  889SOL     OW 3553   2.354   2.005   2.083 -0.2699 -0.0164 -0.2634
  889SOL    HW1 3554   2.445   2.021   2.106  0.4310 -2.9900  0.4214
  889SOL    HW2 3555   2.341   2.066   2.005 -0.8110 -1.3456 -2.8267
  889SOL     MW 3556   2.364   2.016   2.076 -0.2488 -0.5841 -0.5113
  890SOL     OW 3557   0.091   2.281   0.125 -0.1277 -0.1397  0.5887
  890SOL    HW1 3558   0.044   2.364   0.132 -1.2284 -0.9463 -1.6145
  890SOL    HW2 3559   0.081   2.241   0.214  0.2828 -0.2704 -1.3127
  890SOL     MW 3560   0.083   2.286   0.138 -0.2188 -0.2634  0.0472
  891SOL     OW 3561   3.040   2.043   1.277 -0.0201 -0.6101  0.1086
  891SOL    HW1 3562   3.113   2.070   1.338  1.7984  3.0364  0.6284
  891SOL    HW2 3563   3.004   2.127   1.257 -2.2174 -0.7270 -0.1423
  891SOL     MW 3564   3.045   2.058   1.283 -0.0701 -0.1444  0.1441
  892SOL     OW 3565   2.352   2.419   2.958  0.0446 -0.1745 -0.4071
  892SOL    HW1 3566   2.377   2.380   3.044 -1.2514 -1.5203  1.8915
  892SOL    HW2 3567   2.432   2.417   2.900  1.2438 -0.5166 -1.1709
  892SOL     MW 3568   2.366   2.414   2.962  0.0318 -0.3972 -0.2046
  893SOL     OW 3569   1.582   2.502   1.238 -0.0544 -0.3462 -0.1604
  893SOL    HW1 3570   1.500   2.505   1.303 -1.9057 -0.2717  2.2642
  893SOL    HW2 3571   1.656   2.441   1.256 -0.9499 -1.0935  1.3530
  893SOL     MW 3572   1.581   2.494   1.249 -0.4168 -0.4350  0.3592
  894SOL     OW 3573   2.839   1.918   0.472 -0.0171 -0.0719 -0.2557
  894SOL    HW1 3574   2.757   1.919   0.516  1.5739  0.6762 -4.3498
  894SOL    HW2 3575   2.817   1.868   0.386 -0.0699  0.4687  0.4571
  894SOL     MW 3576   2.825   1.912   0.466  0.1858  0.0981 -0.7019
  895SOL     OW 3577   2.092   2.160   1.242 -0.2975 -0.0423  0.8614
  895SOL    HW1 3578   2.050   2.234   1.193  0.0496  1.8157  0.1018
  895SOL    HW2 3579   2.132   2.098   1.180  0.4646  1.2572  0.8642
  895SOL     MW 3580   2.092   2.162   1.228 -0.1511  0.3743  0.7615
  896SOL     OW 3581   2.175   2.822   1.108 -0.1816  0.1557  0.3782
  896SOL    HW1 3582   2.248   2.800   1.165 -1.9930 -0.1804  0.0611
  896SOL    HW2 3583   2.100   2.763   1.138 -2.7332 -0.1103  0.7645
  896SOL     MW 3584   2.175   2.812   1.120 -0.7573  0.0762  0.3873
  897SOL     OW 3585   2.989   2.966   0.193  0.3976 -0.4392 -0.0696
  897SOL    HW1 3586   3.073   2.942   0.150  0.8053 -1.3467  1.7222
  897SOL    HW2 3587   2.926   2.944   0.127  0.8652  1.0726 -3.4826
  897SOL     MW 3588   2.992   2.960   0.178  0.5131 -0.3595 -0.2835
  898SOL     OW 3589   2.088   0.201   1.454 -0.5569 -0.2423 -0.3524
  898SOL    HW1 3590   2.017   0.154   1.405 -1.3629  1.2680  1.0360
  898SOL    HW2 3591   2.141   0.242   1.384  2.2347 -1.6570 -0.1309
  898SOL     MW 3592   2.085   0.200   1.438 -0.2949 -0.2297 -0.1400
  899SOL     OW 3593   2.878   2.945   0.692  0.3087  0.1482 -0.0733
  899SOL    HW1 3594   2.903   2.863   0.737 -0.6832 -0.6821 -0.2779
  899SOL    HW2 3595   2.793   2.975   0.731  1.4184  0.8929  0.2292
  899SOL     MW 3596   2.870   2.938   0.703  0.3242  0.1369 -0.0604
  900SOL     OW 3597   0.129   2.350   1.106 -0.1452  0.0177 -0.0404
  900SOL    HW1 3598   0.096   2.431   1.069  2.6570  1.4516  1.4553
  900SOL    HW2 3599   0.162   2.300   1.029  0.7316 -1.2684 -0.0779
  900SOL     MW 3600   0.129   2.354   1.091  0.3402  0.0372  0.1520
  901SOL     OW 3601   1.777   2.893   1.710  0.3843  0.5533  0.0591
  901SOL    HW1 3602   1.842   2.832   1.668 -0.0687  1.5919 -0.3135
  901SOL    HW2 3603   1.701   2.918   1.650  0.1412  0.3137 -1.6449
  901SOL     MW 3604   1.776   2.888   1.696  0.2925  0.6588 -0.2149
  902SOL     OW 3605   2.576   2.026   1.853  0.1560  0.4070  0.1556
  902SOL    HW1 3606   2.555   1.930   1.861 -1.3809  0.4885 -1.6453
  902SOL    HW2 3607   2.670   2.050   1.873 -2.9619  2.4649 -1.3726
  902SOL     MW 3608   2.586   2.017   1.856 -0.4582  0.6892 -0.2836
  903SOL     OW 3609   1.583   2.778   0.536 -0.6923 -0.1805 -0.1020
  903SOL    HW1 3610   1.650   2.727   0.579  0.9163  1.2676 -2.3147
  903SOL    HW2 3611   1.554   2.827   0.617 -3.3039  0.7572 -3.1028
  903SOL     MW 3612   1.588   2.778   0.553 -0.8247  0.1343 -0.7899
  904SOL     OW 3613   2.481   2.568   1.728  0.2093 -0.1799  0.4956
  904SOL    HW1 3614   2.418   2.577   1.656 -0.7835 -1.1952 -0.5349
  904SOL    HW2 3615   2.539   2.504   1.686 -3.7629 -0.7808  1.9183
  904SOL     MW 3616   2.480   2.561   1.713 -0.4458 -0.3931  0.5473
  905SOL     OW 3617   2.312   2.559   2.188 -0.0681 -0.4564 -0.1865
  905SOL    HW1 3618   2.361   2.521   2.113  1.2311 -3.8430  1.3469
  905SOL    HW2 3619   2.264   2.480   2.233 -1.6356 -2.1104 -0.6237
  905SOL     MW 3620   2.312   2.543   2.184 -0.1035 -1.1214 -0.0419
  906SOL     OW 3621   2.465   2.467   0.766 -0.8358  0.3364  0.7445
  906SOL    HW1 3622   2.551   2.441   0.803 -1.2522  0.5443  2.1053
  906SOL    HW2 3623   2.438   2.551   0.807 -3.4929 -2.0209  0.4409
  906SOL     MW 3624   2.473   2.475   0.776 -1.2413  0.0528  0.8840
  907SOL     OW 3625   2.633   2.934   1.251 -0.2509  0.5997  0.2792
  907SOL    HW1 3626   2.697   2.919   1.320 -0.0439  1.8872  2.0702
  907SOL    HW2 3627   2.688   2.933   1.171  0.4565 -0.9275 -2.3807
  907SOL     MW 3628   2.649   2.932   1.250 -0.1303  0.5681  0.1646
  908SOL     OW 3629   2.721   2.378   0.011  0.2411 -0.5482 -0.7062
  908SOL    HW1 3630   2.673   2.314   0.066 -2.0391 -1.2444  2.3869
  908SOL    HW2 3631   2.703   2.462   0.046 -0.4262  1.1458  1.4946
  908SOL     MW 3632   2.712   2.380   0.023 -0.1478 -0.4165 -0.0077
  909SOL     OW 3633   1.591   0.173   1.052 -0.5550 -0.5187  0.6878
  909SOL    HW1 3634   1.668   0.214   1.017 -0.2184 -0.4392 -0.4368
  909SOL    HW2 3635   1.575   0.206   1.143 -0.7343 -0.2598  1.5256
  909SOL     MW 3636   1.599   0.182   1.059 -0.5343 -0.4740  0.6500
  910SOL     OW 3637   2.312   1.779   0.419  0.3359 -0.0410 -0.0903
  910SOL    HW1 3638   2.251   1.700   0.426 -0.6388 -0.0410 -0.7754
  910SOL    HW2 3639   2.267   1.829   0.355  0.4766 -0.8220  1.7740
  910SOL     MW 3640   2.298   1.775   0.411  0.2259 -0.1440  0.0653
  911SOL     OW 3641   2.180   2.294   1.663  0.3899 -0.5791 -0.1013
  911SOL    HW1 3642   2.245   2.273   1.737  2.1714  1.6966  2.8500
  911SOL    HW2 3643   2.226   2.295   1.576  1.3629  1.2169 -0.4677
  911SOL     MW 3644   2.195   2.291   1.662  0.7533 -0.0419  0.2397
  912SOL     OW 3645   2.894   1.961   1.513 -0.3961  0.9552 -0.1215
  912SOL    HW1 3646   2.924   1.995   1.430  1.1250 -1.5202  0.3566
  912SOL    HW2 3647   2.805   1.988   1.532 -1.7989  0.1768  2.7567
  912SOL     MW 3648   2.886   1.969   1.504 -0.3805  0.5259  0.3214
  913SOL     OW 3649   2.527   2.947   0.416 -0.5442  0.4926 -0.1279
  913SOL    HW1 3650   2.611   2.900   0.428 -0.1342 -1.7586 -2.9754
  913SOL    HW2 3651   2.448   2.889   0.411 -0.4062 -0.4132 -0.0232
  913SOL     MW 3652   2.527   2.933   0.417 -0.4719  0.0760 -0.4898
  914SOL     OW 3653   2.778   1.655   0.031 -0.4217 -0.0424 -0.1712
  914SOL    HW1 3654   2.767   1.726  -0.039  3.5245  1.4362  1.3097
  914SOL    HW2 3655   2.690   1.629   0.055  2.8224 -2.5839  1.2744
  914SOL     MW 3656   2.765   1.661   0.025  0.5270 -0.1827  0.2149
  915SOL     OW 3657   1.833   0.185   0.248 -0.4555  0.0573  0.4183
  915SOL    HW1 3658   1.868   0.097   0.261  1.0655 -1.1812 -0.3181
  915SOL    HW2 3659   1.734   0.178   0.241 -1.6443  2.1579 -1.0862
  915SOL     MW 3660   1.825   0.172   0.249 -0.4117  0.1711  0.1226
  916SOL     OW 3661   1.796   2.082   1.972 -0.5192 -0.1685 -0.0313
  916SOL    HW1 3662   1.796   2.174   1.942  3.5662 -1.3977 -1.5797
  916SOL    HW2 3663   1.787   2.025   1.894 -1.8629 -1.0110 -1.5001
  916SOL     MW 3664   1.795   2.086   1.958 -0.1574 -0.4418 -0.4294
  917SOL     OW 3665   2.358   2.328   2.699  1.0443 -0.7005  0.2808
  917SOL    HW1 3666   2.316   2.302   2.781 -0.7192 -0.2371  0.3341
  917SOL    HW2 3667   2.323   2.414   2.679  1.2529 -0.4152 -3.3708
  917SOL     MW 3668   2.348   2.336   2.708  0.8392 -0.6017 -0.1940
  918SOL     OW 3669   2.055   1.660   2.672 -0.3310 -0.1990  0.1219
  918SOL    HW1 3670   1.978   1.698   2.622  0.5108  1.2017  1.1842
  918SOL    HW2 3671   2.116   1.739   2.664 -2.2743 -1.0522  0.1022
  918SOL     MW 3672   2.053   1.675   2.664 -0.4763 -0.1267  0.2595
  919SOL     OW 3673   0.004   2.365   2.270 -0.0062 -0.5595  0.1725
  919SOL    HW1 3674  -0.083   2.328   2.233  3.7613 -0.5208 -0.7028
  919SOL    HW2 3675   0.063   2.365   2.196 -0.7457 -0.6582 -0.4011
  919SOL     MW 3676  -0.000   2.360   2.255  0.3933 -0.5674 -0.0187
  920SOL     OW 3677   2.764   2.841   0.023  0.3539  0.1408 -0.3928
  920SOL    HW1 3678   2.684   2.890   0.051  0.1201 -3.1763 -0.2697
  920SOL    HW2 3679   2.752   2.788  -0.057 -0.5898  2.4873  0.2052
  920SOL     MW 3680   2.752   2.841   0.016  0.1985  0.0128 -0.2976
  921SOL     OW 3681   2.493   2.624   2.654 -0.2151  0.0252 -0.5670
  921SOL    HW1 3682   2.556   2.628   2.582 -1.1779 -0.0777  1.9933
  921SOL    HW2 3683   2.532   2.573   2.723  1.6899 -2.7531  1.5971
  921SOL     MW 3684   2.506   2.618   2.654 -0.0908 -0.3550  0.0563
  922SOL     OW 3685   2.037   2.789   0.280 -0.6394 -0.9151  0.0998
  922SOL    HW1 3686   2.022   2.826   0.186  0.9738 -1.0968 -0.9706
  922SOL    HW2 3687   1.971   2.715   0.285  1.2278  0.8199  2.1021
  922SOL     MW 3688   2.026   2.784   0.269 -0.1802 -0.7102  0.2227
  923SOL     OW 3689   2.222   2.819   1.672  0.3932 -0.1057  0.6669
  923SOL    HW1 3690   2.260   2.755   1.609 -2.5544 -1.3228  1.1857
  923SOL    HW2 3691   2.220   2.905   1.623  1.2819 -1.7386 -1.1988
  923SOL     MW 3692   2.227   2.822   1.657  0.1215 -0.4818  0.4892
  924SOL     OW 3693   1.176   2.774   2.538  0.2077 -0.4177  0.5106
  924SOL    HW1 3694   1.215   2.823   2.462  2.0169 -0.9236  0.9244
  924SOL    HW2 3695   1.254   2.721   2.564 -1.5347 -0.3525  0.7392
  924SOL     MW 3696   1.192   2.773   2.531  0.2165 -0.4759  0.5954
  925SOL     OW 3697   2.942   0.203   2.635  0.2223  0.4587 -0.6645
  925SOL    HW1 3698   2.948   0.250   2.555 -2.5405 -1.7667  1.2252
  925SOL    HW2 3699   2.898   0.269   2.695 -1.2608 -0.2866 -4.4029
  925SOL     MW 3700   2.937   0.218   2.632 -0.3379  0.0667 -0.9084
  926SOL     OW 3701   2.703   2.396   2.088  0.3845 -0.1960 -0.1681
  926SOL    HW1 3702   2.749   2.443   2.158 -0.5892  0.1392 -0.5064
  926SOL    HW2 3703   2.741   2.416   1.998 -1.5301 -0.0191 -0.7397
  926SOL     MW 3704   2.714   2.405   2.085  0.0034 -0.1285 -0.2881
  927SOL     OW 3705   2.361   0.136   0.305 -0.1241 -0.2463  0.0584
  927SOL    HW1 3706   2.457   0.136   0.289  2.0525 -2.4249 -2.3151
  927SOL    HW2 3707   2.328   0.094   0.220 -2.6399  0.2310 -0.3107
  927SOL     MW 3708   2.369   0.131   0.292 -0.1688 -0.4708 -0.3034
  928SOL     OW 3709   1.997   2.498   1.788  0.2494 -0.1098  0.1827
  928SOL    HW1 3710   2.050   2.428   1.744  2.3325  1.6215  2.2659
  928SOL    HW2 3711   2.064   2.531   1.854  0.5480  1.1964  0.7696
  928SOL     MW 3712   2.013   2.493   1.791  0.5636  0.2910  0.5350
  929SOL     OW 3713   2.754   2.378   2.464 -0.3211  0.7996 -0.4481
  929SOL    HW1 3714   2.794   2.310   2.405 -0.1083 -3.2634  1.4101
  929SOL    HW2 3715   2.760   2.338   2.549  0.5084 -0.0459  0.8976
  929SOL     MW 3716   2.760   2.364   2.467 -0.1836  0.1520 -0.0254
  930SOL     OW 3717   2.029   2.909   2.686  0.2580  0.0939  0.4257
  930SOL    HW1 3718   2.020   2.836   2.749  1.4921  1.3335  1.8060
  930SOL    HW2 3719   2.125   2.929   2.674 -1.6355 -0.5898  1.1894
  930SOL     MW 3720   2.041   2.902   2.692  0.1710  0.1672  0.7086
  931SOL     OW 3721   2.946   2.803   2.240 -0.1433  0.1101  0.2540
  931SOL    HW1 3722   3.014   2.743   2.265  1.4934 -0.1265  0.7488
  931SOL    HW2 3723   2.958   2.830   2.148  0.1309  1.4495  1.5131
  931SOL     MW 3724   2.956   2.799   2.231  0.1088  0.2556  0.4854
  932SOL     OW 3725   2.814   1.930   2.563  0.0597 -0.1243  0.2261
  932SOL    HW1 3726   2.900   1.949   2.598 -0.7914  2.0066 -0.2272
  932SOL    HW2 3727   2.817   1.940   2.471 -2.1692 -0.8154 -1.7701
  932SOL     MW 3728   2.825   1.934   2.556 -0.3467  0.0657 -0.0971
  933SOL     OW 3729   2.036   2.811   2.217  0.4458  0.0764 -0.2217
  933SOL    HW1 3730   2.127   2.843   2.225  0.4652 -2.6192  2.9952
  933SOL    HW2 3731   1.984   2.871   2.162  0.0372  1.1601  0.3621
  933SOL     MW 3732   2.041   2.823   2.211  0.3944 -0.1363  0.2798
  934SOL     OW 3733   2.040   2.738   2.483  0.0812  0.3288 -0.4331
  934SOL    HW1 3734   2.049   2.813   2.543  0.4704  2.9466 -1.9203
  934SOL    HW2 3735   2.056   2.773   2.392 -1.2955  0.3070  1.3090
  934SOL     MW 3736   2.043   2.752   2.479 -0.0491  0.6713 -0.3995
  935SOL     OW 3737   2.610   1.543   1.817  0.3819 -0.1317 -0.5375
  935SOL    HW1 3738   2.692   1.541   1.768  0.4540  0.8622  3.5530
  935SOL    HW2 3739   2.542   1.557   1.757 -2.2076 -0.9661  0.8335
  935SOL     MW 3740   2.612   1.545   1.803  0.0497 -0.1106  0.1831
  936SOL     OW 3741   2.955   2.243   3.064  0.3457 -0.2402  0.3623
  936SOL    HW1 3742   3.013   2.244   3.143 -0.0264 -1.6480  0.0478
  936SOL    HW2 3743   2.875   2.288   3.087 -0.0237  0.1436 -3.2885
  936SOL     MW 3744   2.952   2.249   3.077  0.2479 -0.3753 -0.1609
  937SOL     OW 3745   1.998   2.183   2.625  0.9488 -0.0769  0.6362
  937SOL    HW1 3746   2.078   2.167   2.674  0.2523  0.1857  1.9672
  937SOL    HW2 3747   2.020   2.147   2.538  2.1334  1.4013  0.1385
  937SOL     MW 3748   2.011   2.176   2.620  1.0132  0.1528  0.7461
  938SOL     OW 3749   2.303   1.805   1.904  0.0970 -0.4276  0.4902
  938SOL    HW1 3750   2.273   1.850   1.822 -0.2804  1.6483 -0.4247
  938SOL    HW2 3751   2.302   1.876   1.966 -0.2432 -1.4019 -3.7577
  938SOL     MW 3752   2.299   1.820   1.902  0.0023 -0.2822 -0.1910
  939SOL     OW 3753   2.818   1.959   2.292  0.5980  0.7498 -0.5197
  939SOL    HW1 3754   2.812   1.893   2.221 -1.4727 -0.9135 -0.9293
  939SOL    HW2 3755   2.727   1.992   2.309  1.4534  1.7229  1.5344
  939SOL     MW 3756   2.805   1.955   2.285  0.4376  0.6587 -0.3027
  940SOL     OW 3757   2.322   0.128   2.695  0.3442  0.2848 -0.4026
  940SOL    HW1 3758   2.312   0.037   2.665  0.3680 -1.9741  1.5696
  940SOL    HW2 3759   2.379   0.108   2.769 -0.4024 -2.5927 -4.4578
  940SOL     MW 3760   2.328   0.114   2.701  0.2488 -0.3929 -0.6774
  941SOL     OW 3761   0.171   2.327   2.043  1.0193 -0.3515 -0.0338
  941SOL    HW1 3762   0.240   2.271   2.072 -1.5317  1.7545 -0.7304
  941SOL    HW2 3763   0.112   2.275   1.992  4.6995  2.0098  1.1302
  941SOL     MW 3764   0.173   2.313   2.040  1.1683  0.2379  0.0279
  942SOL     OW 3765   2.869   2.204   2.188  0.0789 -0.5283  0.4164
  942SOL    HW1 3766   2.789   2.263   2.167 -3.6942  0.1251  2.3837
  942SOL    HW2 3767   2.843   2.129   2.237  1.3429  1.5112  0.7649
  942SOL     MW 3768   2.855   2.202   2.192 -0.2522 -0.1730  0.7220
  943SOL     OW 3769   0.332   2.034   2.334  0.9052  0.1148 -0.1376
  943SOL    HW1 3770   0.267   2.100   2.375 -0.7256  0.3127  0.1266
  943SOL    HW2 3771   0.424   2.061   2.356  1.7031 -0.8722 -0.2373
  943SOL     MW 3772   0.336   2.047   2.343  0.7953  0.0107 -0.1159
  944SOL     OW 3773   2.128   2.622   2.011  0.1802 -0.2359  0.1612
  944SOL    HW1 3774   2.201   2.593   2.074 -0.5104  1.5175  2.1389
  944SOL    HW2 3775   2.076   2.671   2.075 -0.2305  0.1002  1.4009
  944SOL     MW 3776   2.131   2.624   2.028  0.0349  0.0398  0.5857
  945SOL     OW 3777   2.781   2.678   2.874  0.3617  0.3131 -0.2361
  945SOL    HW1 3778   2.716   2.612   2.861  0.7296  3.3003  0.9729
  945SOL    HW2 3779   2.815   2.692   2.788  0.4250 -1.5860 -1.1619
  945SOL     MW 3780   2.777   2.671   2.861  0.4186  0.4567 -0.1987
  946SOL     OW 3781   2.495   2.757   2.283 -0.5608  0.1791 -0.6899
  946SOL    HW1 3782   2.535   2.798   2.205  0.1964 -2.1610 -0.6396
  946SOL    HW2 3783   2.453   2.679   2.252 -3.0420 -1.4739 -0.1671
  946SOL     MW 3784   2.495   2.752   2.268 -0.7882 -0.3477 -0.6143
  947SOL     OW 3785   2.032   3.074   0.275 -0.0195 -0.0406 -0.9283
  947SOL    HW1 3786   2.061   2.987   0.286 -1.8338  2.0305  2.2099
  947SOL    HW2 3787   2.065   3.117   0.363  0.1336  3.8790  3.2605
  947SOL     MW 3788   2.040   3.068   0.288 -0.2387  0.7498  0.0384
  948SOL     OW 3789   1.816   3.063   2.638 -0.0262  0.1776  0.2913
  948SOL    HW1 3790   1.889   2.996   2.640  1.8166  1.1836  0.0640
  948SOL    HW2 3791   1.841   3.111   2.559  1.7449 -2.2013 -2.9496
  948SOL     MW 3792   1.829   3.060   2.628  0.4507 -0.0035 -0.1663
  949SOL     OW 3793   2.564   2.036   2.299 -0.1182  0.3512  0.2748
  949SOL    HW1 3794   2.552   1.942   2.326  0.6991 -1.6096 -0.9942
  949SOL    HW2 3795   2.539   2.096   2.371  1.2534  1.0451 -2.4373
  949SOL     MW 3796   2.559   2.031   2.312  0.1706  0.1841 -0.2505
  950SOL     OW 3797   2.191   2.613   3.022 -0.6655 -0.3601 -0.3692
  950SOL    HW1 3798   2.251   2.542   2.986  0.5325 -0.6922 -2.7540
  950SOL    HW2 3799   2.126   2.620   2.950  1.7787 -2.7198  0.2416
  950SOL     MW 3800   2.190   2.604   3.008 -0.1849 -0.7152 -0.6032
  951SOL     OW 3801   2.961   2.066   2.826  0.1433 -0.0751  0.4985
  951SOL    HW1 3802   3.002   2.127   2.889  1.5369  1.6548  0.1505
  951SOL    HW2 3803   3.017   2.064   2.741  0.5242  2.2739  1.6055
  951SOL     MW 3804   2.974   2.074   2.823  0.3774  0.4631  0.5987
  952SOL     OW 3805   3.035   1.681   2.043  0.4188  0.0521 -0.2204
  952SOL    HW1 3806   2.963   1.742   2.026 -0.0526  0.3020 -0.5869
  952SOL    HW2 3807   3.097   1.737   2.082  0.5761  0.8615  0.2734
  952SOL     MW 3808   3.034   1.696   2.046  0.3773  0.1918 -0.2036
  953SOL     OW 3809   1.990   1.823   2.894  0.8564 -0.1876  0.5915
  953SOL    HW1 3810   1.902   1.795   2.901  0.0608  2.0802 -2.5785
  953SOL    HW2 3811   2.032   1.766   2.836 -3.5588 -1.6507 -0.6202
  953SOL     MW 3812   1.984   1.812   2.887  0.1689 -0.0815  0.0134
  954SOL     OW 3813   2.446   2.110   2.904  0.4547  0.2714  0.0959
  954SOL    HW1 3814   2.361   2.095   2.854 -3.4569 -1.5788  1.4050
  954SOL    HW2 3815   2.517   2.101   2.837  2.4687  1.5741  2.3000
  954SOL     MW 3816   2.444   2.107   2.888  0.2043  0.1992  0.5594
  955SOL     OW 3817   1.598   1.606   2.567 -0.3281 -0.1252 -0.8109
  955SOL    HW1 3818   1.575   1.629   2.470 -0.0047 -1.2513 -2.6671
  955SOL    HW2 3819   1.682   1.660   2.572 -1.4067  1.2747  0.9653
  955SOL     MW 3820   1.606   1.616   2.555 -0.4277 -0.0891 -0.8215
  956SOL     OW 3821   2.614   2.464   2.850 -0.3357  0.3874 -0.5003
  956SOL    HW1 3822   2.661   2.437   2.929 -0.0292  1.9273  1.8657
  956SOL    HW2 3823   2.641   2.398   2.781  1.8270 -1.0314 -0.3863
  956SOL     MW 3824   2.624   2.452   2.851 -0.0099  0.4034 -0.1731
  957SOL     OW 3825   2.289   2.791   0.394 -0.1832 -0.0166 -0.0903
  957SOL    HW1 3826   2.197   2.821   0.366  0.9659  2.7983 -0.1795
  957SOL    HW2 3827   2.272   2.749   0.484 -0.5284 -0.4694  0.4011
  957SOL     MW 3828   2.275   2.790   0.402 -0.0771  0.2951 -0.0372
  958SOL     OW 3829   2.012   2.675   2.812  0.0710 -0.3035 -0.3238
  958SOL    HW1 3830   2.016   2.588   2.765  0.8979  1.5563  0.4917
  958SOL    HW2 3831   1.921   2.679   2.835  5.2080 -1.4157  1.8462
  958SOL     MW 3832   2.001   2.664   2.809  0.8579 -0.2048  0.0701
  959SOL     OW 3833   2.425   2.563   0.312  0.0556 -0.4503 -0.1847
  959SOL    HW1 3834   2.497   2.584   0.251  0.5172  0.2029 -1.0973
  959SOL    HW2 3835   2.370   2.649   0.320  0.9848  3.6413 -0.1513
  959SOL     MW 3836   2.427   2.577   0.305  0.2391  0.1757 -0.3007
  960SOL     OW 3837   1.922   2.378   2.309 -0.3686 -0.3309  0.1591
  960SOL    HW1 3838   1.906   2.284   2.291 -0.8821 -2.6164 -1.8093
  960SOL    HW2 3839   1.856   2.411   2.373  1.6543  1.2320  2.1740
  960SOL     MW 3840   1.912   2.370   2.315 -0.1695 -0.4262  0.1652
  961SOL     OW 3841   2.204   2.357   2.353  0.0693 -0.7054 -0.0073
  961SOL    HW1 3842   2.108   2.351   2.352 -2.1207  3.4865  0.0719
  961SOL    HW2 3843   2.224   2.422   2.426 -4.5058 -1.4976  1.1659
  961SOL     MW 3844   2.194   2.365   2.362 -0.8233 -0.2568  0.1579
  962SOL     OW 3845   2.201   2.084   2.777 -0.2083  0.4594 -0.4457
  962SOL    HW1 3846   2.174   2.059   2.864  0.5011 -2.3154 -0.2339
  962SOL    HW2 3847   2.225   2.000   2.751  0.1565  0.6229 -2.3293
  962SOL     MW 3848   2.201   2.070   2.785 -0.0665  0.1149 -0.6663
  963SOL     OW 3849   1.779   2.587   2.083  0.2914  0.1561 -1.0403
  963SOL    HW1 3850   1.827   2.547   2.153 -0.0624 -0.1970  2.8812
  963SOL    HW2 3851   1.792   2.529   2.014  0.9692 -3.6755  1.6728
  963SOL     MW 3852   1.787   2.574   2.083  0.3341 -0.3960 -0.1650
  964SOL     OW 3853   1.838   1.988   2.707  0.2573 -0.1767  0.2411
  964SOL    HW1 3854   1.894   2.056   2.666  3.6216  1.9567 -2.1160
  964SOL    HW2 3855   1.907   1.948   2.766 -0.0981  1.5309  1.5350
  964SOL     MW 3856   1.854   1.991   2.710  0.6543  0.3300  0.1008
  965SOL     OW 3857   2.202   2.674   0.625  0.1264 -0.1519 -0.3736
  965SOL    HW1 3858   2.158   2.605   0.581 -1.6244  1.1772  1.7295
  965SOL    HW2 3859   2.263   2.633   0.685  1.0932  0.1768  0.9455
  965SOL     MW 3860   2.204   2.659   0.627  0.0230  0.0668  0.0779
  966SOL     OW 3861   2.675   2.651   2.470 -0.2472 -0.3862  0.1856
  966SOL    HW1 3862   2.610   2.686   2.403  0.9491  0.0120 -1.7620
  966SOL    HW2 3863   2.696   2.557   2.455  1.4426  0.5904  0.3212
  966SOL     MW 3864   2.669   2.644   2.459  0.1336 -0.2048 -0.0535
  967SOL     OW 3865   2.897   2.990   2.921  0.5586  0.0367 -0.0857
  967SOL    HW1 3866   2.872   2.928   2.990 -1.8749  0.1698  2.9432
  967SOL    HW2 3867   2.816   3.009   2.867 -0.2410 -0.1311 -1.0009
  967SOL     MW 3868   2.883   2.985   2.923  0.1320  0.0321  0.1932
  968SOL     OW 3869   2.994   2.583   2.988  0.0295  0.1936  0.2568
  968SOL    HW1 3870   2.923   2.646   2.963 -1.5721  2.3491  0.1174
  968SOL    HW2 3871   2.995   2.501   2.945  1.5898  0.4832  0.8279
  968SOL     MW 3872   2.985   2.581   2.979  0.0240  0.5162  0.3138
  969SOL     OW 3873   1.528   2.104   1.729  0.2336 -0.4813 -0.0234
  969SOL    HW1 3874   1.595   2.039   1.714  0.1498  0.2756  2.2666
  969SOL    HW2 3875   1.514   2.105   1.831 -2.4142  1.2978  2.6680
  969SOL     MW 3876   1.535   2.096   1.741 -0.1268 -0.1467  0.6339
  970SOL     OW 3877   1.634   1.721   1.875 -0.4935  0.2499 -0.0284
  970SOL    HW1 3878   1.658   1.666   1.949 -0.8273 -1.1515  0.1282
  970SOL    HW2 3879   1.538   1.723   1.859 -0.0338  0.9040  1.1945
  970SOL     MW 3880   1.625   1.714   1.882 -0.4769  0.1513  0.1536
  971SOL     OW 3881   1.828   0.123   2.356 -0.7348 -0.5493 -0.2148
  971SOL    HW1 3882   1.860   0.071   2.287  3.6175 -0.9171 -0.7205
  971SOL    HW2 3883   1.901   0.186   2.379  2.9748  1.5960 -1.4868
  971SOL     MW 3884   1.842   0.125   2.350  0.3288 -0.3148 -0.4494
  972SOL     OW 3885   0.276   2.781   2.508  0.1029  0.3950 -0.1450
  972SOL    HW1 3886   0.289   2.693   2.550 -0.3037  0.5035 -1.0575
  972SOL    HW2 3887   0.338   2.841   2.552 -1.1926 -1.6972  2.0237
  972SOL     MW 3888   0.286   2.777   2.519 -0.1217  0.1333  0.0207
  973SOL     OW 3889   2.605   3.093   2.056  0.6659 -0.5741  0.2043
  973SOL    HW1 3890   2.622   3.001   2.049  1.6530  0.8018 -1.0078
  973SOL    HW2 3891   2.595   3.120   1.964 -1.9407 -1.0548  2.2096
  973SOL     MW 3892   2.606   3.084   2.043  0.4522 -0.4560  0.3089
  974SOL     OW 3893   2.115   0.328   2.757 -0.2614 -1.0452  0.4576
  974SOL    HW1 3894   2.200   0.297   2.725 -2.1663  0.2622 -1.0983
  974SOL    HW2 3895   2.079   0.255   2.799  0.4301  0.1909  1.4446
  974SOL     MW 3896   2.122   0.314   2.758 -0.4215 -0.7096  0.3825
  975SOL     OW 3897   2.242   2.564   2.564 -0.6317 -0.0347  0.1387
  975SOL    HW1 3898   2.328   2.594   2.583  0.6178 -1.4492 -2.1401
  975SOL    HW2 3899   2.189   2.641   2.542  0.3091  0.3470  1.7883
  975SOL     MW 3900   2.247   2.578   2.564 -0.3427 -0.1710  0.0557
  976SOL     OW 3901   0.217   0.316   1.696 -0.4359  0.4566  0.0138
  976SOL    HW1 3902   0.282   0.243   1.724  3.4853 -1.2770  0.6976
  976SOL    HW2 3903   0.134   0.268   1.707  0.5532  3.0549  2.7497
  976SOL     MW 3904   0.215   0.300   1.701  0.2119  0.5707  0.4650
  977SOL     OW 3905   1.705   2.749   2.488  0.0581  0.2406 -0.0903
  977SOL    HW1 3906   1.700   2.651   2.498  0.2627 -0.1125 -2.1319
  977SOL    HW2 3907   1.796   2.775   2.504 -0.1497 -1.6233  2.1638
  977SOL     MW 3908   1.717   2.740   2.491  0.0577 -0.0519 -0.0623
   3.10000   3.10000   3.10000
