977 TIP4P/2005f water molecules t=   0.41000 step= 410
 3908
    1SOL     OW    1   0.280   0.768   0.032  0.0717  0.0258 -0.1926
    1SOL    HW1    2   0.257   0.815  -0.052  0.5200  0.7574  1.5579
    1SOL    HW2    3   0.256   0.679   0.008 -0.0684  1.2194 -0.7423
    1SOL     MW    4   0.274   0.762   0.018  0.1123  0.2798 -0.0341
    2SOL     OW    5   0.300   3.040   1.181  0.0908  0.1530  0.0269
    2SOL    HW1    6   0.336   3.116   1.135  1.8950 -2.1505  1.4784
    2SOL    HW2    7   0.204   3.064   1.192 -0.3500 -1.6726  0.0770
    2SOL     MW    8   0.292   3.053   1.176  0.2707 -0.3918  0.2250
    3SOL     OW    9   2.676   0.386   0.912 -0.5611  0.1563  0.5600
    3SOL    HW1   10   2.686   0.470   0.859 -4.1137  0.5208  1.8805
    3SOL    HW2   11   2.640   0.426   0.984 -0.8002 -0.1336 -1.6549
    3SOL     MW   12   2.673   0.403   0.914 -1.0614  0.1662  0.4420
    4SOL     OW   13   3.059   1.759   0.563 -0.1845 -0.4675  0.5973
    4SOL    HW1   14   2.982   1.803   0.513 -2.9068  2.5694 -0.9354
    4SOL    HW2   15   3.095   1.680   0.522  1.6089 -0.9382 -0.5595
    4SOL     MW   16   3.054   1.755   0.551 -0.3070 -0.1289  0.2424
    5SOL     OW   17   1.719   1.452   0.586  0.3744  0.6395  0.1571
    5SOL    HW1   18   1.740   1.373   0.638 -0.4566 -0.4746  2.6764
    5SOL    HW2   19   1.629   1.450   0.599  0.9381 -1.3646  0.9001
    5SOL     MW   20   1.710   1.442   0.594  0.3391  0.2281  0.5875
    6SOL     OW   21   0.882   1.407   0.649  0.1717 -0.3608  0.4839
    6SOL    HW1   22   0.797   1.411   0.690 -0.8994  1.3039  2.6395
    6SOL    HW2   23   0.912   1.320   0.676 -2.2270  0.5763  2.6020
    6SOL     MW   24   0.875   1.396   0.658 -0.2861 -0.0175  1.0477
    7SOL     OW   25   1.988   1.069   0.044 -0.1378  0.2966 -0.0151
    7SOL    HW1   26   1.983   1.164   0.037  0.0734  2.9170  2.3065
    7SOL    HW2   27   2.033   1.052   0.127 -0.6995 -0.9004  1.6990
    7SOL     MW   28   1.993   1.080   0.054 -0.1840  0.4844  0.5174
    8SOL     OW   29   0.970   1.336   1.012  0.0843  0.0715 -0.1632
    8SOL    HW1   30   0.960   1.355   1.104 -1.9802 -0.8668  0.3248
    8SOL    HW2   31   1.058   1.350   0.976 -3.2121  2.1622  1.7000
    8SOL     MW   32   0.980   1.340   1.020 -0.6230  0.2235  0.1470
    9SOL     OW   33   1.059   0.452   1.334  0.0060  0.1884  0.1162
    9SOL    HW1   34   0.984   0.401   1.310  0.6972 -0.1370  2.2690
    9SOL    HW2   35   1.083   0.416   1.418  0.5870 -0.7167 -1.2813
    9SOL     MW   36   1.052   0.441   1.342  0.1738  0.0260  0.2158
   10SOL     OW   37   0.288   0.793   0.440 -0.6931  0.5420 -0.1170
   10SOL    HW1   38   0.385   0.815   0.402  0.1869  0.1986 -0.8266
   10SOL    HW2   39   0.296   0.811   0.535  1.8023 -0.6538  1.2298
   10SOL     MW   40   0.302   0.799   0.447 -0.2478  0.3389 -0.0329
   11SOL     OW   41   0.798   1.086   1.615 -0.5774 -0.4035  0.1464
   11SOL    HW1   42   0.804   1.058   1.709 -1.1346  2.0641  1.9819
   11SOL    HW2   43   0.768   0.999   1.576 -1.4291  1.0313  1.0236
   11SOL     MW   44   0.795   1.071   1.622 -0.7633  0.1114  0.5043
   12SOL     OW   45   0.021   1.110   0.858  0.1465 -0.1976  0.7188
   12SOL    HW1   46   0.093   1.162   0.888 -1.1613 -4.3942 -0.2133
   12SOL    HW2   47  -0.050   1.163   0.827  1.9989 -2.3583 -1.4181
   12SOL     MW   48   0.021   1.124   0.858  0.2184 -1.0364  0.3139
   13SOL     OW   49   1.890   1.401   1.347  0.2452 -0.3344 -0.6464
   13SOL    HW1   50   1.903   1.364   1.260  1.9949  1.2985  0.2463
   13SOL    HW2   51   1.877   1.491   1.333  1.9011  1.8224 -0.2864
   13SOL     MW   52   1.890   1.408   1.334  0.6945  0.1656 -0.4811
   14SOL     OW   53   0.612   0.302   1.789 -0.1119  0.4390  0.0344
   14SOL    HW1   54   0.591   0.226   1.733  0.9539  0.7599 -0.1189
   14SOL    HW2   55   0.687   0.269   1.837 -1.8093 -0.6851 -1.4280
   14SOL     MW   56   0.619   0.288   1.788 -0.1952  0.3331 -0.1788
   15SOL     OW   57   2.015   0.525   0.955 -0.2445 -0.5216 -0.0161
   15SOL    HW1   58   2.027   0.520   1.050  0.3985  2.1374 -1.9568
   15SOL    HW2   59   2.091   0.471   0.918 -0.4817 -1.7358  1.0880
   15SOL     MW   60   2.027   0.518   0.963 -0.1909 -0.3310 -0.1265
   16SOL     OW   61   0.201   1.754   0.337 -0.0505  0.0110  0.0123
   16SOL    HW1   62   0.290   1.746   0.300  0.0224 -0.1778 -2.2972
   16SOL    HW2   63   0.209   1.851   0.374  1.1067 -0.9712  2.9005
   16SOL     MW   64   0.214   1.766   0.337  0.1118 -0.1435  0.0887
   17SOL     OW   65   1.027   0.821   1.512 -0.3221  0.2890  0.2655
   17SOL    HW1   66   1.068   0.820   1.602 -1.3012 -0.9337 -1.5621
   17SOL    HW2   67   0.934   0.806   1.520  1.3542 -2.9242  2.2690
   17SOL     MW   68   1.020   0.819   1.525 -0.2301 -0.2963  0.2887
   18SOL     OW   69   0.071   1.538   0.457  0.0986 -0.3171  0.2954
   18SOL    HW1   70   0.125   1.611   0.414 -1.6484 -1.7663  0.0113
   18SOL    HW2   71   0.041   1.479   0.384 -1.2499  0.6029  0.3437
   18SOL     MW   72   0.074   1.540   0.441 -0.3098 -0.3869  0.2643
   19SOL     OW   73   0.093   1.358   1.014 -0.6882  0.1119 -0.8094
   19SOL    HW1   74   0.127   1.394   0.936 -0.4647 -0.6105  0.8728
   19SOL    HW2   75  -0.003   1.365   1.008  0.4435  2.3384 -1.3246
   19SOL     MW   76   0.085   1.364   1.003 -0.5094  0.3103 -0.6554
   20SOL     OW   77   0.454   2.127   1.304 -0.1430  0.2615  0.4296
   20SOL    HW1   78   0.386   2.074   1.256 -1.8464 -0.3114 -0.3369
   20SOL    HW2   79   0.403   2.185   1.364 -1.6662  1.8305  0.3798
   20SOL     MW   80   0.438   2.128   1.305 -0.5687  0.3929  0.3219
   21SOL     OW   81   0.534   0.883   0.349 -0.3424 -0.6646  0.1150
   21SOL    HW1   82   0.596   0.856   0.414  0.3535  2.3706 -1.3691
   21SOL    HW2   83   0.556   0.846   0.260  0.3262 -0.2271 -0.6442
   21SOL     MW   84   0.545   0.874   0.346 -0.1624 -0.2064 -0.1810
   22SOL     OW   85   1.534   0.571   1.116  0.4469 -0.5051 -0.1969
   22SOL    HW1   86   1.584   0.550   1.039  1.1504  2.4841  3.4224
   22SOL    HW2   87   1.457   0.623   1.085 -1.7022 -2.1243 -4.0319
   22SOL     MW   88   1.530   0.575   1.102  0.2562 -0.3243 -0.2254
   23SOL     OW   89   3.070   0.752   0.712  1.0073 -0.0131  0.1699
   23SOL    HW1   90   3.124   0.678   0.737 -0.7895 -0.8109 -0.6221
   23SOL    HW2   91   3.136   0.820   0.705 -1.1210  1.9539 -4.6219
   23SOL     MW   92   3.086   0.751   0.715  0.4894  0.1411 -0.5668
   24SOL     OW   93   1.992   2.201   0.062  0.0499  0.0956  0.6986
   24SOL    HW1   94   1.994   2.187   0.159  0.9548 -0.8672  0.8325
   24SOL    HW2   95   2.058   2.141   0.018  1.6903 -0.9719  1.0783
   24SOL     MW   96   2.001   2.191   0.069  0.3857 -0.1722  0.7664
   25SOL     OW   97   0.302   1.412   0.513  0.1794 -0.1861  0.7253
   25SOL    HW1   98   0.214   1.461   0.500 -0.9429  3.3798 -1.3533
   25SOL    HW2   99   0.351   1.426   0.438  1.0991 -2.4713  0.9053
   25SOL     MW  100   0.297   1.420   0.501  0.1527 -0.0171  0.4748
   26SOL     OW  101   2.040   0.925   0.455  0.5200 -0.5279  0.4806
   26SOL    HW1  102   1.941   0.937   0.433 -2.4843  0.9479 -0.9906
   26SOL    HW2  103   2.087   0.974   0.385 -1.2926  0.8213  1.4934
   26SOL     MW  104   2.033   0.933   0.443 -0.1155 -0.1552  0.4201
   27SOL     OW  105   1.999   1.385   0.275  0.6882 -0.1772 -0.0292
   27SOL    HW1  106   1.909   1.378   0.307  0.1670 -0.6464  0.1075
   27SOL    HW2  107   2.039   1.460   0.325 -2.6579  3.1474 -0.3249
   27SOL     MW  108   1.993   1.394   0.286  0.1779  0.1996 -0.0502
   28SOL     OW  109   0.375   1.038   1.922 -0.2444  0.5874  0.3484
   28SOL    HW1  110   0.330   0.995   1.996  0.3055 -2.4730 -1.5290
   28SOL    HW2  111   0.471   1.032   1.932  2.0689 -2.6142  4.4531
   28SOL     MW  112   0.382   1.032   1.933  0.1334 -0.2388  0.6423
   29SOL     OW  113   0.245   1.411   0.801  0.3723  0.0886 -0.6759
   29SOL    HW1  114   0.248   1.502   0.833 -0.4746 -0.6374 -0.5309
   29SOL    HW2  115   0.291   1.419   0.712  1.5780  1.1551 -2.2129
   29SOL     MW  116   0.251   1.424   0.793  0.4197  0.1336 -0.8595
   30SOL     OW  117   0.881   1.039   1.192 -0.6133 -0.0506  0.6921
   30SOL    HW1  118   0.791   1.060   1.231  0.3848  0.7946  0.9685
   30SOL    HW2  119   0.936   1.072   1.263  0.2125 -1.0581  1.0607
   30SOL     MW  120   0.877   1.046   1.206 -0.3726 -0.0720  0.7772
   31SOL     OW  121   0.418   0.288   0.234 -0.5309  0.3554  0.2043
   31SOL    HW1  122   0.413   0.212   0.299 -1.9807  1.1953 -0.7094
   31SOL    HW2  123   0.391   0.249   0.150  1.0259  0.0625  4.8253
   31SOL     MW  124   0.414   0.272   0.231 -0.5168  0.4276  0.6935
   32SOL     OW  125   2.744   1.047   1.107  0.3569  0.1458  0.6502
   32SOL    HW1  126   2.703   0.959   1.111 -0.8135 -1.2299 -1.1931
   32SOL    HW2  127   2.840   1.027   1.097  0.8302  1.7601  0.0654
   32SOL     MW  128   2.751   1.033   1.106  0.2649  0.1773  0.3298
   33SOL     OW  129   1.743   1.308   0.353 -0.1185  0.4271  0.6849
   33SOL    HW1  130   1.768   1.220   0.382  1.6849  0.7338  0.7767
   33SOL    HW2  131   1.746   1.368   0.425  1.2494 -1.1393  0.2200
   33SOL     MW  132   1.747   1.305   0.366  0.2999  0.2609  0.6356
   34SOL     OW  133   1.206   1.863   1.082 -0.5582  0.5952 -0.2328
   34SOL    HW1  134   1.122   1.897   1.100 -0.2053 -0.5332  0.7036
   34SOL    HW2  135   1.262   1.885   1.166  1.4000  0.6830  0.6785
   34SOL     MW  136   1.202   1.871   1.095 -0.2533  0.4579  0.0110
   35SOL     OW  137   0.325   0.110   1.804 -0.4387  0.1251 -0.1885
   35SOL    HW1  138   0.374   0.105   1.884  1.6864  0.2991  0.8754
   35SOL    HW2  139   0.334   0.019   1.761  0.2556  1.0188  1.7244
   35SOL     MW  140   0.332   0.098   1.809 -0.0667  0.2660  0.2042
   36SOL     OW  141   1.883   1.965   0.514  0.1711 -0.1960 -0.7743
   36SOL    HW1  142   1.876   1.939   0.417  2.3777  0.4032 -2.4848
   36SOL    HW2  143   1.903   1.877   0.558  0.5194 -3.8470 -2.5531
   36SOL     MW  144   1.885   1.950   0.507  0.5082 -0.5987 -1.2347
   37SOL     OW  145   1.734   2.067   0.984  0.6398  0.0204  0.2130
   37SOL    HW1  146   1.678   2.010   0.937  0.3178  2.2410  2.7229
   37SOL    HW2  147   1.670   2.093   1.058 -2.8574  0.6201  1.0579
   37SOL     MW  148   1.719   2.063   0.987  0.1359  0.3925  0.6557
   38SOL     OW  149   2.834   0.935   0.182 -0.2821 -0.1255 -0.2611
   38SOL    HW1  150   2.864   0.934   0.270 -2.1975 -1.7564  0.6354
   38SOL    HW2  151   2.899   0.884   0.140 -0.5803 -0.7851  1.8041
   38SOL     MW  152   2.846   0.928   0.188 -0.5742 -0.4277  0.1296
   39SOL     OW  153   1.467   0.654   0.807 -0.5833 -0.4993  0.0896
   39SOL    HW1  154   1.452   0.561   0.786  1.1762  0.3442 -3.3635
   39SOL    HW2  155   1.379   0.689   0.827 -0.5706 -2.7553 -0.0298
   39SOL     MW  156   1.454   0.646   0.807 -0.3495 -0.6856 -0.3818
   40SOL     OW  157   1.263   1.866   0.251  0.0352  0.3327 -0.3370
   40SOL    HW1  158   1.289   1.783   0.287 -1.8474  0.1337  0.4327
   40SOL    HW2  159   1.303   1.928   0.311 -0.1151  1.5392 -1.5638
   40SOL     MW  160   1.271   1.863   0.264 -0.2331  0.4656 -0.3973
   41SOL     OW  161   0.592   0.511   1.597  0.2151 -1.1163  0.1421
   41SOL    HW1  162   0.676   0.536   1.570  0.7087 -1.1241 -0.3581
   41SOL    HW2  163   0.605   0.435   1.651 -0.7882  0.9397 -0.0347
   41SOL     MW  164   0.605   0.504   1.600  0.1478 -0.8460  0.0528
   42SOL     OW  165   1.302   3.026   1.994 -0.0948 -0.8631  0.4691
   42SOL    HW1  166   1.212   3.024   2.033 -1.1901 -1.3930  1.5484
   42SOL    HW2  167   1.334   2.939   2.007  3.3548 -0.4535 -1.6452
   42SOL     MW  168   1.294   3.014   2.001  0.2158 -0.8790  0.3326
   43SOL     OW  169   1.590   0.200   1.671 -0.1208 -0.1508  0.4927
   43SOL    HW1  170   1.670   0.147   1.668 -1.1929  0.0721 -1.1550
   43SOL    HW2  171   1.517   0.131   1.684 -3.2807 -3.7865  1.7105
   43SOL     MW  172   1.591   0.184   1.672 -0.6792 -0.6010  0.4360
   44SOL     OW  173   1.307   0.731   1.075  0.0226 -0.2550  0.0179
   44SOL    HW1  174   1.300   0.815   1.036 -2.2155 -1.0670 -0.1134
   44SOL    HW2  175   1.291   0.742   1.169 -0.7540 -1.1990  0.2015
   44SOL     MW  176   1.304   0.743   1.082 -0.3752 -0.4867  0.0248
   45SOL     OW  177   1.176   0.709   0.776  0.6063  0.2079 -0.3146
   45SOL    HW1  178   1.148   0.695   0.864  2.0794  0.6730  1.9142
   45SOL    HW2  179   1.131   0.629   0.733 -0.9594  0.6650  2.0029
   45SOL     MW  180   1.166   0.697   0.782  0.5941  0.3295  0.2852
   46SOL     OW  181   0.551   1.150   0.539 -0.2792  0.1393 -0.1593
   46SOL    HW1  182   0.542   1.189   0.455 -0.5047  1.6647  0.8947
   46SOL    HW2  183   0.645   1.115   0.542  0.6810  0.3079 -0.3558
   46SOL     MW  184   0.562   1.151   0.528 -0.1823  0.3628 -0.0462
   47SOL     OW  185   0.178   1.923   1.817  0.2593 -0.0245 -0.1768
   47SOL    HW1  186   0.234   1.853   1.767 -1.5957 -0.6030  0.6185
   47SOL    HW2  187   0.174   1.890   1.909  0.2248 -0.9961 -0.4416
   47SOL     MW  188   0.185   1.909   1.823  0.0100 -0.2290 -0.1068
   48SOL     OW  189   1.059   0.637   1.023 -0.3835 -0.3572  0.1674
   48SOL    HW1  190   0.968   0.665   1.026  0.2307 -1.7815  0.5321
   48SOL    HW2  191   1.105   0.714   1.068 -0.8882  0.7045 -0.6512
   48SOL     MW  192   1.053   0.651   1.029 -0.3691 -0.4050  0.1075
   49SOL     OW  193   1.816   0.770   1.601 -0.7410  0.2377 -0.2703
   49SOL    HW1  194   1.755   0.748   1.667  0.3950  1.7761 -1.8288
   49SOL    HW2  195   1.884   0.708   1.604  0.0867  2.7141 -1.3838
   49SOL     MW  196   1.817   0.759   1.610 -0.4819  0.7674 -0.6229
   50SOL     OW  197   1.231   1.018   0.483 -0.5295  0.7016 -0.3624
   50SOL    HW1  198   1.218   1.074   0.565 -2.8969 -0.9700 -0.0651
   50SOL    HW2  199   1.275   0.933   0.513 -0.0683 -2.4929  2.2109
   50SOL     MW  200   1.235   1.014   0.497 -0.7810  0.0596  0.0164
   51SOL     OW  201   0.329   2.864   0.990 -0.5547  0.4305  0.0288
   51SOL    HW1  202   0.423   2.866   0.985  0.8542  1.5608 -0.9411
   51SOL    HW2  203   0.308   2.929   1.062  1.1732 -0.2764 -1.5177
   51SOL     MW  204   0.339   2.873   0.999 -0.1408  0.4864 -0.3032
   52SOL     OW  205   0.802   1.766   0.395 -0.4039 -0.2292 -0.2560
   52SOL    HW1  206   0.794   1.848   0.438  0.5291 -1.6892 -0.8409
   52SOL    HW2  207   0.801   1.795   0.302 -1.7234  0.1630  0.5433
   52SOL     MW  208   0.801   1.781   0.388 -0.4549 -0.3701 -0.2277
   53SOL     OW  209   0.490   2.072   0.561  0.4924  0.0705 -0.1242
   53SOL    HW1  210   0.406   2.081   0.510  4.1107 -2.9137  0.5990
   53SOL    HW2  211   0.497   2.168   0.582 -1.3696  1.5622  0.8948
   53SOL     MW  212   0.480   2.086   0.557  0.7241 -0.1264  0.1057
   54SOL     OW  213   2.187   0.820   0.872 -0.3763 -0.0467 -0.6890
   54SOL    HW1  214   2.230   0.740   0.849 -0.0724  1.1041 -1.4928
   54SOL    HW2  215   2.096   0.797   0.881  1.6148 -2.9335  0.0297
   54SOL     MW  216   2.180   0.806   0.870 -0.0735 -0.2758 -0.7002
   55SOL     OW  217   0.563   1.496   1.570  0.2758  0.3146  0.0201
   55SOL    HW1  218   0.511   1.497   1.493  0.8234 -0.5848 -0.4674
   55SOL    HW2  219   0.646   1.447   1.543  2.5774  0.0183  1.6223
   55SOL     MW  220   0.567   1.490   1.556  0.6517  0.1568  0.1672
   56SOL     OW  221   0.583   0.779   0.084 -0.7149  0.3971  0.1101
   56SOL    HW1  222   0.636   0.839   0.033  0.4307  1.7225 -1.1708
   56SOL    HW2  223   0.496   0.775   0.049 -1.2031 -0.9662 -2.6956
   56SOL     MW  224   0.578   0.787   0.073 -0.6281  0.3921 -0.4291
   57SOL     OW  225   1.267   1.240   1.217  0.4308 -0.4376  0.7078
   57SOL    HW1  226   1.355   1.254   1.177  0.8867  0.8213  2.1632
   57SOL    HW2  227   1.280   1.191   1.297  0.7851  1.1071 -2.2189
   57SOL     MW  228   1.280   1.235   1.222  0.5377 -0.0677  0.5137
   58SOL     OW  229   0.653   1.112   1.324 -0.6254 -0.0501  0.1213
   58SOL    HW1  230   0.641   1.193   1.281 -1.4839 -0.7123  1.6031
   58SOL    HW2  231   0.622   1.120   1.415 -0.7884 -0.8459 -0.1466
   58SOL     MW  232   0.648   1.124   1.330 -0.7602 -0.2425  0.2814
   59SOL     OW  233   1.586   1.630   0.322  0.5764  0.2141  0.4239
   59SOL    HW1  234   1.659   1.590   0.373  0.1935 -1.2287 -1.0655
   59SOL    HW2  235   1.536   1.672   0.390 -1.7013 -2.3867 -1.1376
   59SOL     MW  236   1.589   1.630   0.338  0.2254 -0.3194  0.0214
   60SOL     OW  237   3.071   0.208   1.669 -0.3117  0.7365 -0.0293
   60SOL    HW1  238   2.980   0.235   1.657  0.9325  1.5821 -0.5244
   60SOL    HW2  239   3.069   0.127   1.724 -0.0433  1.8053  3.3594
   60SOL     MW  240   3.059   0.201   1.675 -0.1121  0.9891  0.3525
   61SOL     OW  241   1.986   1.467   3.073  0.7239 -0.6348 -0.1194
   61SOL    HW1  242   1.990   1.458   3.167  3.1523 -0.7982  0.7589
   61SOL    HW2  243   2.054   1.406   3.045 -0.6393  0.7570  0.5481
   61SOL     MW  244   1.995   1.458   3.082  0.8644 -0.4727  0.0846
   62SOL     OW  245   0.629   1.642   0.594  0.2784  0.5492  0.8703
   62SOL    HW1  246   0.711   1.632   0.529  0.7777  2.2150 -0.4170
   62SOL    HW2  247   0.598   1.555   0.612  1.9495  1.3029 -1.0418
   62SOL     MW  248   0.636   1.629   0.588  0.5648  0.8685  0.4482
   63SOL     OW  249   1.689   0.744   0.679 -0.0666  0.1498  0.5016
   63SOL    HW1  250   1.656   0.807   0.612 -1.1656 -0.3685 -0.2312
   63SOL    HW2  251   1.618   0.732   0.741 -0.7779  1.0018  1.3051
   63SOL     MW  252   1.675   0.751   0.678 -0.3054  0.1938  0.5109
   64SOL     OW  253   0.261   1.686   0.857  0.2268 -0.1247 -1.1272
   64SOL    HW1  254   0.340   1.705   0.795  0.1331  1.1282 -0.3296
   64SOL    HW2  255   0.181   1.718   0.820  0.7371  0.9291 -3.7994
   64SOL     MW  256   0.261   1.692   0.844  0.2818  0.1796 -1.3745
   65SOL     OW  257   1.563   2.309   0.326  0.1032  0.7219  0.1025
   65SOL    HW1  258   1.618   2.240   0.283  0.2484 -1.1910  0.7550
   65SOL    HW2  259   1.587   2.332   0.422  0.7327 -2.2209 -0.8950
   65SOL     MW  260   1.573   2.303   0.333  0.2054  0.0812  0.0570
   66SOL     OW  261   0.339   0.523   0.511  0.4791 -0.1642 -0.6258
   66SOL    HW1  262   0.414   0.498   0.455 -0.1499 -0.0834  2.6120
   66SOL    HW2  263   0.322   0.620   0.498  1.9928  1.8018  1.4521
   66SOL     MW  264   0.346   0.532   0.502  0.5959  0.1059  0.0755
   67SOL     OW  265   1.523   0.117   2.035 -0.1834 -0.2374 -0.0369
   67SOL    HW1  266   1.571   0.151   1.962 -1.8598  0.2221  0.1676
   67SOL    HW2  267   1.487   0.037   2.013 -1.9172  0.4867  1.0779
   67SOL     MW  268   1.525   0.111   2.022 -0.6333 -0.0812  0.1372
   68SOL     OW  269   0.625   0.061   2.942 -0.0699 -0.0612  0.3489
   68SOL    HW1  270   0.617   0.109   2.861  1.8271 -0.5064 -0.7416
   68SOL    HW2  271   0.642   0.138   3.002  0.1474  2.4974  0.0102
   68SOL     MW  272   0.626   0.078   2.939  0.2090  0.2176  0.1603
   69SOL     OW  273   1.026   0.222   1.951  0.4980  0.4963  0.2001
   69SOL    HW1  274   1.118   0.224   1.973 -0.0639  0.3167  1.0240
   69SOL    HW2  275   1.000   0.150   2.011 -0.1305  1.9233 -1.3890
   69SOL     MW  276   1.034   0.213   1.962  0.3409  0.6609  0.0991
   70SOL     OW  277   0.569   1.836   1.120  0.1136 -0.4594  0.0989
   70SOL    HW1  278   0.602   1.745   1.134  2.2702 -0.2630 -0.5073
   70SOL    HW2  279   0.612   1.856   1.033 -1.7905 -2.2223 -5.1695
   70SOL     MW  280   0.579   1.827   1.110  0.1469 -0.6661 -0.6762
   71SOL     OW  281   1.758   0.644   1.275 -0.1497 -0.4936  0.6906
   71SOL    HW1  282   1.738   0.692   1.356  0.7545 -1.8378  0.5769
   71SOL    HW2  283   1.667   0.631   1.243 -2.2571  0.9667  0.8839
   71SOL     MW  284   1.743   0.649   1.282 -0.3085 -0.4783  0.7011
   72SOL     OW  285   0.832   1.775   0.967 -0.3837 -0.0061 -0.3259
   72SOL    HW1  286   0.791   1.827   0.891 -0.8433 -0.1930  1.2389
   72SOL    HW2  287   0.788   1.689   0.962  0.2178  1.1502  1.8290
   72SOL     MW  288   0.820   1.771   0.956 -0.3650  0.1218  0.1649
   73SOL     OW  289   1.237   0.691   1.363 -0.2040  0.5898 -0.3304
   73SOL    HW1  290   1.201   0.604   1.352 -1.0379  1.2070  2.0833
   73SOL    HW2  291   1.171   0.740   1.413  0.8270  1.1134  0.0865
   73SOL     MW  292   1.223   0.686   1.369 -0.1780  0.7403  0.0430
   74SOL     OW  293   2.842   0.171   0.998  0.8988 -0.2046  0.5308
   74SOL    HW1  294   2.895   0.141   0.923 -0.7275  2.2776 -0.1024
   74SOL    HW2  295   2.786   0.241   0.959  0.3993 -0.3043  0.6755
   74SOL     MW  296   2.842   0.176   0.983  0.6183  0.1098  0.4664
   75SOL     OW  297   1.592   1.341   0.116  0.1161 -0.0986  0.4177
   75SOL    HW1  298   1.640   1.333   0.200  0.0290  3.9363 -1.4438
   75SOL    HW2  299   1.605   1.261   0.066  0.0252  0.2634  1.6241
   75SOL     MW  300   1.600   1.329   0.120  0.0926  0.4815  0.3313
   76SOL     OW  301   2.962   0.659   0.482  0.1401  0.0847  0.2339
   76SOL    HW1  302   2.985   0.693   0.570  0.7692 -3.8694  0.5070
   76SOL    HW2  303   3.018   0.583   0.460  0.9500 -0.6429 -0.5623
   76SOL     MW  304   2.973   0.654   0.490  0.3300 -0.5330  0.1649
   77SOL     OW  305   0.864   0.465   0.459  0.2201  0.1246 -0.2574
   77SOL    HW1  306   0.778   0.482   0.419 -0.3485 -0.8206 -0.6673
   77SOL    HW2  307   0.854   0.376   0.499  0.8160  1.2387 -0.9097
   77SOL     MW  308   0.851   0.456   0.459  0.2237  0.1469 -0.3975
   78SOL     OW  309   0.766   0.792   1.199 -0.0764  0.7840  0.2250
   78SOL    HW1  310   0.685   0.835   1.188 -0.4557  0.7972 -1.5684
   78SOL    HW2  311   0.834   0.864   1.204  0.5527 -1.4822  2.2320
   78SOL     MW  312   0.764   0.807   1.198 -0.0434  0.4868  0.2532
   79SOL     OW  313   1.942   1.715   0.616 -0.1049 -0.0037 -0.3183
   79SOL    HW1  314   1.887   1.640   0.626  0.0962  3.1594  0.2709
   79SOL    HW2  315   1.946   1.747   0.710  0.8212  1.1310  1.0861
   79SOL     MW  316   1.935   1.709   0.629  0.0438  0.5633 -0.0552
   80SOL     OW  317   0.173   1.015   0.354  0.0855 -0.4900  0.3244
   80SOL    HW1  318   0.079   1.000   0.326 -0.9595 -0.3906  0.4621
   80SOL    HW2  319   0.200   0.930   0.390  0.8740 -0.8207  0.1271
   80SOL     MW  320   0.164   1.002   0.355  0.0516 -0.5205  0.3165
   81SOL     OW  321   1.898   1.899   0.261  0.0912  0.2616  0.4761
   81SOL    HW1  322   1.860   1.839   0.195  1.9199 -0.0149  1.5812
   81SOL    HW2  323   1.843   1.983   0.251 -0.7320  0.1412  2.4696
   81SOL     MW  324   1.885   1.902   0.251  0.2239  0.2093  0.8849
   82SOL     OW  325   0.823   1.040   0.544  0.1680  0.1038 -0.5322
   82SOL    HW1  326   0.872   1.057   0.463  0.4521  0.2411 -2.7925
   82SOL    HW2  327   0.803   0.946   0.550 -0.9060  2.8723 -5.0811
   82SOL     MW  328   0.827   1.030   0.534  0.0638  0.4872 -1.4306
   83SOL     OW  329   0.159   0.619   1.344  0.0278  0.5335 -0.3192
   83SOL    HW1  330   0.130   0.710   1.356  0.1674 -1.9836 -1.3806
   83SOL    HW2  331   0.215   0.608   1.423  3.3101 -1.1875  1.1206
   83SOL     MW  332   0.162   0.630   1.356  0.4793 -0.0257 -0.2693
   84SOL     OW  333   0.089   0.252   0.957 -0.2854 -0.6702 -0.5990
   84SOL    HW1  334   0.007   0.283   0.915 -0.4209  1.8861 -2.7383
   84SOL    HW2  335   0.057   0.188   1.023 -1.0998  1.4515  1.0575
   84SOL     MW  336   0.074   0.247   0.960 -0.4107 -0.0530 -0.6627
   85SOL     OW  337   0.439   0.442   0.773  0.2214 -0.0082  0.2884
   85SOL    HW1  338   0.429   0.471   0.684 -3.5369 -1.8284 -1.9876
   85SOL    HW2  339   0.385   0.368   0.765  2.4804 -1.5192 -1.8272
   85SOL     MW  340   0.431   0.436   0.760  0.0236 -0.4477 -0.2910
   86SOL     OW  341   1.202   0.411   1.121  0.3489 -0.0460 -0.5787
   86SOL    HW1  342   1.166   0.486   1.078  0.2545 -0.7625 -0.6091
   86SOL    HW2  343   1.163   0.427   1.211  2.4660 -0.7136  0.2313
   86SOL     MW  344   1.192   0.423   1.127  0.6158 -0.2286 -0.4758
   87SOL     OW  345   1.205   1.503   1.224 -0.1627 -0.0159 -0.5338
   87SOL    HW1  346   1.230   1.547   1.141  0.0012  0.8594  1.2736
   87SOL    HW2  347   1.219   1.408   1.211 -1.1171  2.7386 -2.6812
   87SOL     MW  348   1.210   1.496   1.211 -0.2670  0.4630 -0.5786
   88SOL     OW  349   1.276   1.006   1.007 -0.4853  0.2769  0.2396
   88SOL    HW1  350   1.369   1.028   1.024 -0.4600  0.0763  0.3723
   88SOL    HW2  351   1.227   1.057   1.068 -1.8167  0.6811 -2.9133
   88SOL     MW  352   1.282   1.015   1.017 -0.6576  0.3038 -0.1589
   89SOL     OW  353   1.735   0.656   0.352  0.4584  0.1849 -0.1301
   89SOL    HW1  354   1.778   0.575   0.336 -1.6157  1.1460 -1.1613
   89SOL    HW2  355   1.800   0.722   0.319  0.8740  0.2485 -0.8482
   89SOL     MW  356   1.749   0.654   0.346  0.2396  0.3201 -0.3609
   90SOL     OW  357   0.683   1.204   2.792  0.4907 -0.1699 -0.3701
   90SOL    HW1  358   0.753   1.146   2.757  0.0767 -1.5074  0.1952
   90SOL    HW2  359   0.714   1.223   2.888  4.6192 -3.1640  0.8149
   90SOL     MW  360   0.696   1.199   2.800  0.9808 -0.7414 -0.1392
   91SOL     OW  361   2.133   0.675   0.570  0.6405  0.4320  0.3219
   91SOL    HW1  362   2.081   0.753   0.553  2.6963 -0.8626  2.0246
   91SOL    HW2  363   2.094   0.602   0.520 -0.0346  0.2620  1.7831
   91SOL     MW  364   2.121   0.676   0.562  0.8227  0.2387  0.7393
   92SOL     OW  365   1.580   0.862   0.449  1.0980  0.0444  0.2521
   92SOL    HW1  366   1.494   0.837   0.491 -2.3916  0.0779 -0.6774
   92SOL    HW2  367   1.624   0.784   0.415 -0.3572  1.5866  0.3988
   92SOL     MW  368   1.574   0.849   0.450  0.4456  0.2523  0.1488
   93SOL     OW  369   1.052   0.318   0.342 -0.2375  0.0985  0.4566
   93SOL    HW1  370   0.995   0.393   0.360  0.6425  1.0065 -2.4407
   93SOL    HW2  371   1.086   0.331   0.253  1.3584  1.5660 -1.4997
   93SOL     MW  372   1.049   0.330   0.333  0.0892  0.4119 -0.1838
   94SOL     OW  373   1.910   1.330   1.629  0.3733  0.8434 -0.4076
   94SOL    HW1  374   1.951   1.331   1.539 -0.7868  0.9734 -2.3556
   94SOL    HW2  375   1.894   1.235   1.653 -0.9222 -3.3368 -2.2880
   94SOL     MW  376   1.913   1.318   1.620  0.0493  0.3090 -0.9127
   95SOL     OW  377   0.769   1.509   0.940 -0.7097 -0.0177 -0.4390
   95SOL    HW1  378   0.846   1.452   0.945  0.1647 -2.9831 -1.5277
   95SOL    HW2  379   0.752   1.511   1.037  1.0994 -2.7377 -0.6424
   95SOL     MW  380   0.777   1.502   0.953 -0.3557 -0.7678 -0.6095
   96SOL     OW  381   1.242   1.807   1.573 -0.3194  0.0913 -0.1331
   96SOL    HW1  382   1.148   1.774   1.589  1.9778 -2.3146  1.1068
   96SOL    HW2  383   1.270   1.749   1.505 -0.7302  3.7347 -1.5468
   96SOL     MW  384   1.233   1.795   1.566 -0.0705  0.2546 -0.1561
   97SOL     OW  385   1.222   1.398   0.787 -0.5355 -0.3602 -0.4231
   97SOL    HW1  386   1.247   1.466   0.851  2.3160  0.4505  0.4684
   97SOL    HW2  387   1.153   1.442   0.744 -0.5648  2.6570  0.2157
   97SOL     MW  388   1.216   1.413   0.789 -0.1632  0.1449 -0.2212
   98SOL     OW  389   1.496   1.328   1.102 -0.6731 -0.3503 -0.4949
   98SOL    HW1  390   1.529   1.392   1.168  1.1823 -2.9019  0.1125
   98SOL    HW2  391   1.537   1.353   1.020 -0.4904 -0.1179  1.2086
   98SOL     MW  392   1.506   1.340   1.100 -0.4042 -0.6563 -0.1900
   99SOL     OW  393   1.514   0.354   1.279 -0.1660  0.8290  0.0128
   99SOL    HW1  394   1.522   0.430   1.217  0.6704  2.4962 -2.8505
   99SOL    HW2  395   1.507   0.402   1.358 -1.1665  0.1930 -0.1723
   99SOL     MW  396   1.514   0.370   1.281 -0.1877  0.9651 -0.3894
  100SOL     OW  397   1.028   1.074   1.428 -0.2282 -0.1632  0.1054
  100SOL    HW1  398   0.966   1.104   1.492  0.3416  2.9305  0.3032
  100SOL    HW2  399   1.039   0.982   1.460 -0.8417  1.2046  0.4051
  100SOL     MW  400   1.021   1.066   1.441 -0.2339  0.4255  0.1711
  101SOL     OW  401   0.595   1.127   0.251 -0.4469 -0.3213 -0.2015
  101SOL    HW1  402   0.563   1.044   0.296 -0.0054 -0.1262 -0.2269
  101SOL    HW2  403   0.565   1.116   0.158 -1.1067 -0.2212  0.5700
  101SOL     MW  404   0.587   1.114   0.245 -0.4757 -0.2823 -0.1030
  102SOL     OW  405   2.947   0.595   1.008 -0.0601  0.1238  0.2281
  102SOL    HW1  406   3.011   0.671   0.991  1.6235  1.7554  0.7014
  102SOL    HW2  407   2.993   0.548   1.074 -0.0376  2.7886 -1.8513
  102SOL     MW  408   2.961   0.599   1.014  0.1650  0.6907  0.0162
  103SOL     OW  409   1.652   0.397   1.868  0.6925  0.2744  0.1897
  103SOL    HW1  410   1.622   0.339   1.793 -0.3614  0.8964  2.6434
  103SOL    HW2  411   1.727   0.349   1.896 -0.2366  1.3043 -1.1019
  103SOL     MW  412   1.658   0.383   1.862  0.4309  0.4924  0.3430
  104SOL     OW  413   0.181   1.850   1.409 -0.4532 -0.2688  0.1489
  104SOL    HW1  414   0.255   1.787   1.434  1.8756 -1.7485 -0.4335
  104SOL    HW2  415   0.131   1.800   1.344  2.9067 -0.5891  2.3566
  104SOL     MW  416   0.184   1.835   1.404  0.2974 -0.5063  0.3633
  105SOL     OW  417   0.157   1.192   0.559 -0.5945  1.1179 -0.0285
  105SOL    HW1  418   0.183   1.122   0.501  2.8152  0.3358  0.6492
  105SOL    HW2  419   0.229   1.259   0.545  1.7529 -1.1038 -0.1954
  105SOL     MW  420   0.170   1.192   0.550  0.1651  0.7216  0.0389
  106SOL     OW  421   0.822   0.315   0.942 -0.0849 -0.1235 -0.1734
  106SOL    HW1  422   0.778   0.393   0.905  1.5563 -0.6124  1.0579
  106SOL    HW2  423   0.909   0.321   0.901 -0.0097  1.5817  0.5399
  106SOL     MW  424   0.827   0.326   0.932  0.1416  0.0370  0.0832
  107SOL     OW  425   0.843   2.187   2.995  0.1796  0.2168 -0.3916
  107SOL    HW1  426   0.803   2.118   2.946  2.3258  0.3408  1.4169
  107SOL    HW2  427   0.829   2.151   3.080 -1.0598  0.5784 -0.9935
  107SOL     MW  428   0.836   2.173   3.000  0.2993  0.2809 -0.2324
  108SOL     OW  429   1.368   1.632   1.419  0.3322 -0.1923 -0.2447
  108SOL    HW1  430   1.326   1.563   1.369 -1.2437  0.8298 -0.6117
  108SOL    HW2  431   1.392   1.606   1.509  0.2927  0.1507  4.3053
  108SOL     MW  432   1.365   1.619   1.425  0.1191 -0.0122  0.3072
  109SOL     OW  433   1.953   0.772   0.175  0.0953 -0.4061  0.0161
  109SOL    HW1  434   1.992   0.708   0.116 -0.9028  3.8899 -0.1237
  109SOL    HW2  435   2.026   0.798   0.227 -2.2754 -1.4382  1.9669
  109SOL     MW  436   1.967   0.767   0.174 -0.3492  0.0245  0.2550
  110SOL     OW  437   0.450   1.807   0.715  0.5339  0.2996  0.0817
  110SOL    HW1  438   0.526   1.757   0.671  3.2401  1.1288 -1.9547
  110SOL    HW2  439   0.462   1.899   0.689  1.7232 -1.8797  0.4913
  110SOL     MW  440   0.461   1.813   0.706  1.0479  0.1214 -0.1329
  111SOL     OW  441   0.724   0.831   1.500 -0.0470 -0.1259 -0.3841
  111SOL    HW1  442   0.717   0.785   1.418 -1.5115  0.3774  1.7173
  111SOL    HW2  443   0.648   0.809   1.555 -0.0590 -0.5989  0.0715
  111SOL     MW  444   0.713   0.822   1.496 -0.2418 -0.1219 -0.0467
  112SOL     OW  445   1.346   1.075   1.741 -0.2321  0.4645  0.1536
  112SOL    HW1  446   1.285   1.143   1.746  1.0991  0.0411 -0.8202
  112SOL    HW2  447   1.292   0.999   1.728  2.4415  0.1485  0.5921
  112SOL     MW  448   1.331   1.074   1.740  0.2963  0.3669  0.0830
  113SOL     OW  449   1.363   0.014   1.717 -0.3189 -0.4236  0.1285
  113SOL    HW1  450   1.355  -0.031   1.805  1.8032  0.9736  1.2902
  113SOL    HW2  451   1.319  -0.038   1.651  1.2041 -2.1338  0.2439
  113SOL     MW  452   1.356   0.001   1.720  0.1620 -0.4649  0.2970
  114SOL     OW  453   0.506   2.817   1.872  0.1329 -0.1782  0.5933
  114SOL    HW1  454   0.488   2.867   1.953  0.8557 -0.0239  0.0817
  114SOL    HW2  455   0.443   2.855   1.814 -1.7760 -1.8777  0.4120
  114SOL     MW  456   0.495   2.829   1.875 -0.0236 -0.3821  0.5019
  115SOL     OW  457   0.456   0.846   1.131 -0.0530  0.1800 -0.0747
  115SOL    HW1  458   0.482   0.754   1.139  4.3053 -1.3822  2.3885
  115SOL    HW2  459   0.392   0.860   1.203  1.5476 -2.1552  0.6373
  115SOL     MW  460   0.451   0.836   1.141  0.7332 -0.3342  0.3442
  116SOL     OW  461   0.761   1.059   0.920  0.4122  0.5439  0.5214
  116SOL    HW1  462   0.821   1.106   0.861  0.7832  0.0329 -2.1223
  116SOL    HW2  463   0.806   1.045   1.004  0.9571 -1.6796  2.1497
  116SOL     MW  464   0.775   1.064   0.924  0.5330  0.1831  0.3874
  117SOL     OW  465   1.227   1.124   0.765  0.3537  0.2001  0.4814
  117SOL    HW1  466   1.250   1.086   0.851 -1.3921 -2.1306 -0.8843
  117SOL    HW2  467   1.232   1.223   0.774  2.0714 -1.4212  1.1934
  117SOL     MW  468   1.230   1.132   0.778  0.3500 -0.3213  0.3951
  118SOL     OW  469   3.049   2.989   1.719 -0.4433  0.1050 -0.2179
  118SOL    HW1  470   3.098   3.038   1.787 -3.4052  0.8315 -1.3856
  118SOL    HW2  471   2.954   3.004   1.717  2.8376 -1.5517 -2.3867
  118SOL     MW  472   3.043   2.998   1.728 -0.4012 -0.0177 -0.6581
  119SOL     OW  473   0.535   1.331   1.214  0.2380  0.4486  0.2506
  119SOL    HW1  474   0.523   1.335   1.122 -2.1677 -1.4499  2.4069
  119SOL    HW2  475   0.444   1.330   1.252 -0.7238  0.3453  1.4600
  119SOL     MW  476   0.522   1.331   1.206 -0.2063  0.1845  0.6947
  120SOL     OW  477   0.194   0.701   0.938 -0.1060 -0.0024  0.3316
  120SOL    HW1  478   0.219   0.627   0.996 -0.7842  1.0144  1.1108
  120SOL    HW2  479   0.272   0.744   0.915 -1.9011 -0.7218  0.0413
  120SOL     MW  480   0.207   0.697   0.943 -0.4323  0.0369  0.3961
  121SOL     OW  481   1.835   1.068   1.717  0.1430  0.4133  0.3367
  121SOL    HW1  482   1.737   1.063   1.739 -0.4469  0.1583  0.3146
  121SOL    HW2  483   1.869   0.986   1.695  2.0413  0.9108  0.5634
  121SOL     MW  484   1.827   1.057   1.717  0.3156  0.4453  0.3637
  122SOL     OW  485   0.115   0.505   0.755 -0.1099  0.0966 -0.0725
  122SOL    HW1  486   0.184   0.465   0.702 -0.1077  0.0079 -1.2103
  122SOL    HW2  487   0.160   0.565   0.814  0.0613  0.7820 -1.7728
  122SOL     MW  488   0.130   0.508   0.756 -0.0870  0.1754 -0.4470
  123SOL     OW  489   1.795   1.050   0.439 -0.1054  0.6924 -0.5081
  123SOL    HW1  490   1.706   1.039   0.470  0.5408  3.8825 -0.0244
  123SOL    HW2  491   1.846   1.068   0.523  0.1835  1.8478  0.6923
  123SOL     MW  492   1.790   1.051   0.454  0.0180  1.2657 -0.2859
  124SOL     OW  493   0.672   0.516   0.866  0.1880  0.6973  0.3491
  124SOL    HW1  494   0.583   0.480   0.838 -1.5999 -0.8260 -0.6610
  124SOL    HW2  495   0.670   0.605   0.839  1.9563  1.0823  0.8011
  124SOL     MW  496   0.660   0.523   0.859  0.1854  0.5471  0.2755
  125SOL     OW  497   0.688   1.701   1.671 -0.2003 -0.1696  0.1124
  125SOL    HW1  498   0.641   1.608   1.655  0.7792 -0.3829 -0.4909
  125SOL    HW2  499   0.616   1.762   1.649 -1.1507 -1.6349  2.5267
  125SOL     MW  500   0.672   1.697   1.666 -0.1964 -0.3911  0.3513
  126SOL     OW  501   2.120   1.596   1.950  0.4749 -0.2413 -0.1571
  126SOL    HW1  502   2.192   1.665   1.943 -0.0661  1.5564  1.7796
  126SOL    HW2  503   2.174   1.520   1.985  1.4763 -2.1948  2.4761
  126SOL     MW  504   2.137   1.595   1.954  0.5357 -0.2619  0.4459
  127SOL     OW  505   0.620   0.751   1.853 -0.2097  0.5234 -0.1400
  127SOL    HW1  506   0.691   0.690   1.881  3.7792 -0.4868 -0.6213
  127SOL    HW2  507   0.632   0.830   1.905 -0.7164 -2.6969 -0.5119
  127SOL     MW  508   0.631   0.753   1.864  0.2498 -0.0348 -0.2526
  128SOL     OW  509   1.823   0.764   2.896  0.6326  1.0574 -0.4071
  128SOL    HW1  510   1.832   0.716   2.812 -1.6457 -1.4845  1.5339
  128SOL    HW2  511   1.775   0.845   2.869 -1.8137 -2.1665 -1.0396
  128SOL     MW  512   1.818   0.769   2.882  0.0093  0.2966 -0.2345
  129SOL     OW  513   1.491   0.974   0.191  0.6269 -0.7086 -0.3808
  129SOL    HW1  514   1.438   0.904   0.170 -1.0343  2.3896  2.7981
  129SOL    HW2  515   1.525   0.944   0.273  0.7478  1.4899 -0.9932
  129SOL     MW  516   1.489   0.961   0.199  0.4237 -0.0097 -0.0422
  130SOL     OW  517   0.747   1.449   0.408  0.1984 -0.3621  0.0432
  130SOL    HW1  518   0.787   1.416   0.492  1.1706  1.6948 -0.0036
  130SOL    HW2  519   0.823   1.477   0.362  1.5655 -0.5166 -1.3795
  130SOL     MW  520   0.762   1.449   0.413  0.5071 -0.1111 -0.1507
  131SOL     OW  521   3.057   0.810   0.065 -0.3549  0.5700 -0.3751
  131SOL    HW1  522   3.056   0.893   0.002  0.0648  0.6389 -2.6893
  131SOL    HW2  523   3.156   0.787   0.082  0.6972 -1.0622 -2.4831
  131SOL     MW  524   3.070   0.818   0.059 -0.1607  0.3637 -0.9586
  132SOL     OW  525   2.774   0.143   1.268  0.0798 -0.2579 -0.1668
  132SOL    HW1  526   2.803   0.160   1.178  1.4167 -2.2478 -0.0416
  132SOL    HW2  527   2.678   0.138   1.262  1.4765 -0.9132  0.9502
  132SOL     MW  528   2.765   0.145   1.255  0.4405 -0.6069 -0.0029
  133SOL     OW  529   1.106   0.153   1.692 -0.5494 -0.6362  0.0763
  133SOL    HW1  530   1.177   0.100   1.728 -0.1838  0.0712 -0.6875
  133SOL    HW2  531   1.063   0.184   1.769 -0.1598 -0.7771  1.0598
  133SOL     MW  532   1.110   0.150   1.707 -0.4497 -0.5614  0.1053
  134SOL     OW  533   1.374   2.516   1.409 -0.0964 -0.0788  0.5896
  134SOL    HW1  534   1.325   2.599   1.403  1.0934 -0.7335 -1.5152
  134SOL    HW2  535   1.419   2.538   1.494  0.6845  1.3313  1.4324
  134SOL     MW  536   1.374   2.530   1.419  0.1636  0.0208  0.4231
  135SOL     OW  537   3.024   0.995   2.947 -0.6392 -0.2946 -0.7249
  135SOL    HW1  538   3.075   1.073   2.969  0.3732 -1.7836  3.0551
  135SOL    HW2  539   2.942   1.037   2.942  4.6837 -0.2458  0.9108
  135SOL     MW  540   3.020   1.011   2.949  0.1967 -0.4846 -0.0104
  136SOL     OW  541   0.270   2.007   0.876 -0.6705 -0.2121  0.0717
  136SOL    HW1  542   0.192   1.955   0.875 -2.1473  0.2724 -2.7937
  136SOL    HW2  543   0.321   1.935   0.832  0.2663 -1.8171 -1.9012
  136SOL     MW  544   0.266   1.990   0.870 -0.7417 -0.3599 -0.5667
  137SOL     OW  545   0.754   2.001   0.511 -0.4509  0.1742 -0.3465
  137SOL    HW1  546   0.774   1.986   0.600  0.1644  0.9554  1.3264
  137SOL    HW2  547   0.657   2.012   0.515 -0.3326  0.7826  0.0423
  137SOL     MW  548   0.743   2.000   0.523 -0.3541  0.3575 -0.0745
  138SOL     OW  549   0.513   0.566   1.109 -0.2649  0.2623  0.5305
  138SOL    HW1  550   0.431   0.540   1.065 -1.5823  0.9639 -1.9928
  138SOL    HW2  551   0.577   0.548   1.035  0.0653  0.1279  0.6858
  138SOL     MW  552   0.510   0.560   1.094 -0.3952  0.3371  0.2181
  139SOL     OW  553   2.709   0.473   1.390 -0.2881  0.3966  0.1141
  139SOL    HW1  554   2.792   0.440   1.433 -0.0740 -1.4467 -1.5629
  139SOL    HW2  555   2.705   0.565   1.408 -1.4887 -0.7517 -0.0263
  139SOL     MW  556   2.720   0.481   1.398 -0.4183  0.0019 -0.1257
  140SOL     OW  557   0.841   0.382   2.090 -0.1247 -0.1311  0.1529
  140SOL    HW1  558   0.908   0.342   2.035 -0.0764  1.0388 -0.2314
  140SOL    HW2  559   0.890   0.383   2.172 -0.6968  1.9866 -1.5554
  140SOL     MW  560   0.856   0.377   2.094 -0.1938  0.3027 -0.1232
  141SOL     OW  561   1.028   0.587   1.732  0.2498 -0.2508  0.0513
  141SOL    HW1  562   1.093   0.522   1.695 -0.3915 -1.6117  2.2188
  141SOL    HW2  563   1.077   0.673   1.745  1.1712 -0.7437  0.8796
  141SOL     MW  564   1.043   0.590   1.729  0.2868 -0.4954  0.4465
  142SOL     OW  565   0.954   1.143   0.745  0.0910 -0.1470  0.1329
  142SOL    HW1  566   0.932   1.111   0.647 -1.1041 -3.7048 -2.4534
  142SOL    HW2  567   1.040   1.098   0.766 -1.7436  0.1948  1.1611
  142SOL     MW  568   0.962   1.133   0.735 -0.3088 -0.5713 -0.0727
  143SOL     OW  569   1.814   0.858   1.102 -0.3922 -0.5386  0.1225
  143SOL    HW1  570   1.835   0.829   1.016 -3.5142 -1.0793 -0.6573
  143SOL    HW2  571   1.794   0.779   1.152 -1.2183 -1.3393  1.0041
  143SOL     MW  572   1.814   0.844   1.098 -0.9131 -0.7156  0.1360
  144SOL     OW  573   0.212   1.156   1.523  0.4128  0.1117  0.0246
  144SOL    HW1  574   0.304   1.131   1.518 -0.5553 -0.4646  2.9651
  144SOL    HW2  575   0.206   1.185   1.614 -2.4687  1.1381 -2.4109
  144SOL     MW  576   0.224   1.156   1.534 -0.0951  0.1711  0.0912
  145SOL     OW  577   0.274   0.472   1.051  0.3279  0.1767 -0.7690
  145SOL    HW1  578   0.276   0.431   1.142 -2.6752 -0.8784 -1.6528
  145SOL    HW2  579   0.238   0.395   1.001  2.3427  4.6758  0.2573
  145SOL     MW  580   0.270   0.456   1.056  0.1975  0.6311 -0.7502
  146SOL     OW  581   0.900   1.934   1.414  0.3388  0.2570  0.2064
  146SOL    HW1  582   0.916   1.962   1.319  0.6340  3.8515  1.3352
  146SOL    HW2  583   0.802   1.928   1.404 -3.5550  0.1148 -3.2361
  146SOL     MW  584   0.889   1.937   1.400 -0.1360  0.7125 -0.0989
  147SOL     OW  585   0.396   0.444   2.896 -0.1049  0.7666  0.1239
  147SOL    HW1  586   0.333   0.462   2.963  2.2263 -0.0273 -0.4784
  147SOL    HW2  587   0.361   0.500   2.828 -0.1742  2.1295  3.8309
  147SOL     MW  588   0.383   0.454   2.896  0.1936  0.8416  0.5335
  148SOL     OW  589   0.050   0.892   1.346  0.7840 -0.7549 -0.0257
  148SOL    HW1  590   0.150   0.920   1.359  1.6560 -0.2615  0.9623
  148SOL    HW2  591   0.023   0.905   1.440 -0.6605 -2.4549 -1.7487
  148SOL     MW  592   0.060   0.897   1.361  0.7084 -0.9141 -0.1227
  149SOL     OW  593   1.405   1.182   1.461 -0.3628  0.0335  0.0376
  149SOL    HW1  594   1.385   1.153   1.546  2.3441 -3.2839 -3.1871
  149SOL    HW2  595   1.500   1.215   1.466  0.3349  1.8298  2.7168
  149SOL     MW  596   1.415   1.183   1.473  0.0864 -0.1672 -0.0343
  150SOL     OW  597   1.814   1.292   0.799  0.1897  0.3769  0.0677
  150SOL    HW1  598   1.836   1.203   0.777 -1.6611  1.9526  0.3001
  150SOL    HW2  599   1.894   1.331   0.841 -0.5604 -0.2355  0.2620
  150SOL     MW  600   1.828   1.286   0.802 -0.1534  0.5040  0.1240
  151SOL     OW  601   1.642   1.832   0.856 -0.4044 -0.0087 -0.1667
  151SOL    HW1  602   1.582   1.830   0.780  3.0144 -3.7629 -1.2535
  151SOL    HW2  603   1.607   1.768   0.927  0.2165  3.3843 -0.0745
  151SOL     MW  604   1.630   1.823   0.856  0.1286 -0.0563 -0.2979
  152SOL     OW  605   0.781   1.340   1.513 -0.2627  0.0968 -0.3388
  152SOL    HW1  606   0.790   1.247   1.546 -0.1462  2.1630 -1.1363
  152SOL    HW2  607   0.848   1.360   1.444 -0.7164  0.1829 -1.6818
  152SOL     MW  608   0.791   1.331   1.508 -0.3072  0.3808 -0.6212
  153SOL     OW  609   2.633   1.252   0.703 -0.4046  0.7837  0.1430
  153SOL    HW1  610   2.706   1.199   0.679 -0.1916  3.4274 -0.7370
  153SOL    HW2  611   2.581   1.171   0.714 -0.3517 -2.0891  1.4897
  153SOL     MW  612   2.636   1.234   0.701 -0.3696  0.7535  0.2045
  154SOL     OW  613   0.329   1.763   1.684  0.3554 -0.5203 -0.3132
  154SOL    HW1  614   0.359   1.725   1.607 -0.6640  2.1207 -0.4580
  154SOL    HW2  615   0.325   1.685   1.736 -0.5464  0.4258  2.3386
  154SOL     MW  616   0.332   1.748   1.681  0.1019 -0.0470  0.0176
  155SOL     OW  617   1.112   0.673   0.301  0.5242 -0.1267  0.0678
  155SOL    HW1  618   1.112   0.621   0.381 -0.8282 -1.5036  0.3212
  155SOL    HW2  619   1.066   0.759   0.312  0.1724 -0.0849 -2.9575
  155SOL     MW  620   1.106   0.678   0.313  0.2993 -0.3029 -0.2979
  156SOL     OW  621   1.487   3.008   1.043  0.0522 -0.3711 -0.0862
  156SOL    HW1  622   1.495   3.087   1.088  0.3234 -1.1882 -0.0281
  156SOL    HW2  623   1.481   2.938   1.109  0.5821  2.8053  0.3081
  156SOL     MW  624   1.487   3.009   1.057  0.1579 -0.0598 -0.0265
  157SOL     OW  625   1.330   1.215   0.154 -0.4244  0.6619 -0.6313
  157SOL    HW1  626   1.370   1.127   0.151  2.0329 -0.2008 -0.4293
  157SOL    HW2  627   1.395   1.287   0.153 -2.3683 -0.4407  1.2984
  157SOL     MW  628   1.344   1.213   0.153 -0.3567  0.4026 -0.3501
  158SOL     OW  629   0.438   1.655   2.246  0.5587 -0.4246 -0.5837
  158SOL    HW1  630   0.452   1.713   2.171  1.0811  0.2601  0.2669
  158SOL    HW2  631   0.353   1.664   2.290  2.9686  1.3686  0.7303
  158SOL     MW  632   0.429   1.664   2.242  0.9456 -0.0977 -0.2981
  159SOL     OW  633   1.324   1.694   0.463  0.7017  0.3254  0.3584
  159SOL    HW1  634   1.307   1.603   0.448 -1.5440  2.6812  0.3518
  159SOL    HW2  635   1.231   1.732   0.482 -1.8209  0.9766  1.8244
  159SOL     MW  636   1.309   1.687   0.463  0.0726  0.7222  0.5510
  160SOL     OW  637   0.493   1.096   1.544  0.6150 -0.1426 -0.0825
  160SOL    HW1  638   0.499   1.014   1.590  1.3495 -0.1302 -0.9065
  160SOL    HW2  639   0.515   1.174   1.595  2.2432 -0.9889 -3.1530
  160SOL     MW  640   0.496   1.096   1.557  0.9267 -0.2526 -0.5963
  161SOL     OW  641   0.546   2.128   2.676  0.1691 -0.0302 -0.3287
  161SOL    HW1  642   0.454   2.135   2.689  1.7338  0.8348 -0.4752
  161SOL    HW2  643   0.563   2.116   2.584 -2.9571 -0.2519  3.2118
  161SOL     MW  644   0.536   2.127   2.665 -0.0369  0.0547  0.1191
  162SOL     OW  645   0.989   1.693   1.757 -0.3425  0.6502 -0.5027
  162SOL    HW1  646   1.013   1.785   1.769  2.5854 -4.5084  0.5027
  162SOL    HW2  647   0.911   1.689   1.806  0.8522  2.5046 -1.4470
  162SOL     MW  648   0.982   1.704   1.765  0.2014  0.2142 -0.4947
  163SOL     OW  649   2.125   0.180   0.979 -0.1654 -0.4847  0.5118
  163SOL    HW1  650   2.102   0.184   0.886 -0.7531 -4.2429 -3.3007
  163SOL    HW2  651   2.059   0.121   1.017  2.6798 -1.4840  1.1904
  163SOL     MW  652   2.113   0.173   0.972  0.1324 -1.1124  0.0984
  164SOL     OW  653   0.253   0.225   0.735  0.4697 -0.1313 -0.5413
  164SOL    HW1  654   0.184   0.224   0.802 -0.2105 -1.3817  0.6714
  164SOL    HW2  655   0.285   0.137   0.725  1.7205 -0.5580 -3.6228
  164SOL     MW  656   0.248   0.214   0.742  0.5450 -0.3526 -0.7879
  165SOL     OW  657   1.365   1.235   0.422 -0.0600  0.0424  0.0701
  165SOL    HW1  658   1.336   1.147   0.441  0.5245 -0.2047  1.0127
  165SOL    HW2  659   1.397   1.226   0.331 -1.5794 -0.2426 -2.2308
  165SOL     MW  660   1.365   1.222   0.413 -0.1834 -0.0278 -0.1091
  166SOL     OW  661   0.489   1.042   0.944  0.2383  0.2955 -0.3147
  166SOL    HW1  662   0.462   0.968   1.003 -0.7246 -3.5052 -1.5583
  166SOL    HW2  663   0.577   1.057   0.967 -0.7264  1.2356 -0.6103
  166SOL     MW  664   0.497   1.034   0.955 -0.0160 -0.0819 -0.5177
  167SOL     OW  665   0.891   1.153   0.272 -0.0500  0.1044  0.5570
  167SOL    HW1  666   0.797   1.148   0.262 -2.3090 -0.2328 -1.0621
  167SOL    HW2  667   0.907   1.187   0.177 -1.0995  2.1676  0.5642
  167SOL     MW  668   0.881   1.157   0.258 -0.4865  0.3321  0.3443
  168SOL     OW  669   1.696   1.734   2.878  0.4807 -0.4789  0.6020
  168SOL    HW1  670   1.637   1.779   2.934 -0.3744  2.0690 -3.0031
  168SOL    HW2  671   1.705   1.653   2.919 -1.7918  2.3485 -1.4507
  168SOL     MW  672   1.690   1.729   2.891  0.0681  0.2303 -0.1445
  169SOL     OW  673   0.318   0.954   1.347 -0.3593  0.0407 -0.0923
  169SOL    HW1  674   0.381   0.931   1.415  1.2460  0.2338  0.3889
  169SOL    HW2  675   0.347   1.027   1.292 -1.7537 -0.1360  1.4465
  169SOL     MW  676   0.330   0.960   1.349 -0.3315  0.0428  0.1742
  170SOL     OW  677   1.073   1.478   1.464 -0.3065  0.1654  0.5676
  170SOL    HW1  678   1.000   1.549   1.452 -0.3298  0.2587 -1.1065
  170SOL    HW2  679   1.103   1.467   1.375  2.2471 -2.8936 -1.6376
  170SOL     MW  680   1.067   1.486   1.450  0.0273 -0.2259  0.0557
  171SOL     OW  681   0.596   1.377   0.697 -0.0739 -0.3920 -0.2716
  171SOL    HW1  682   0.576   1.360   0.790  0.4863  0.8567 -2.7462
  171SOL    HW2  683   0.590   1.298   0.643  0.3761 -0.8292 -1.1166
  171SOL     MW  684   0.593   1.365   0.702  0.0593 -0.2849 -0.7096
  172SOL     OW  685   0.856   0.315   1.222  0.1902 -0.3635  0.6597
  172SOL    HW1  686   0.848   0.345   1.126 -1.1565  1.2499 -1.6213
  172SOL    HW2  687   0.771   0.342   1.265 -1.4560  0.5123 -0.4720
  172SOL     MW  688   0.844   0.322   1.215 -0.2047 -0.0351  0.2095
  173SOL     OW  689   0.480   1.718   0.350  0.0792 -0.3949 -0.1951
  173SOL    HW1  690   0.460   1.618   0.341  2.3621 -1.5109  0.9257
  173SOL    HW2  691   0.493   1.723   0.447 -1.1740 -0.9173 -0.1166
  173SOL     MW  692   0.479   1.705   0.361  0.2150 -0.6111 -0.0369
  174SOL     OW  693   2.004   0.932   1.458 -0.0557 -0.1263 -0.9124
  174SOL    HW1  694   1.935   0.877   1.501 -1.2183 -1.0494  2.7782
  174SOL    HW2  695   1.964   0.986   1.388  3.3496 -1.2583  0.3926
  174SOL     MW  696   1.990   0.932   1.454  0.2402 -0.3975 -0.2533
  175SOL     OW  697   0.468   1.463   0.321 -0.3496  0.4504 -0.4187
  175SOL    HW1  698   0.447   1.440   0.226  1.0450 -1.1764 -1.3979
  175SOL    HW2  699   0.560   1.454   0.327 -0.0525 -1.5262  0.5859
  175SOL     MW  700   0.478   1.459   0.309 -0.1264 -0.0250 -0.4153
  176SOL     OW  701   0.261   1.252   1.219 -0.2290  0.1629  0.4668
  176SOL    HW1  702   0.192   1.280   1.156  2.1874 -0.3394  1.7637
  176SOL    HW2  703   0.212   1.253   1.303 -3.6026 -2.6286  3.4639
  176SOL     MW  704   0.245   1.256   1.222 -0.3553 -0.2717  1.0333
  177SOL     OW  705   0.626   0.376   1.333 -0.4487 -0.9621  0.5407
  177SOL    HW1  706   0.580   0.437   1.268 -0.4089 -3.6877  0.2426
  177SOL    HW2  707   0.627   0.431   1.417 -1.5365  1.1032 -1.4688
  177SOL     MW  708   0.620   0.391   1.336 -0.5870 -1.0492  0.2363
  178SOL     OW  709   3.066   0.422   2.904  0.0306  0.0961 -0.0989
  178SOL    HW1  710   3.022   0.426   2.993  0.9423 -0.5865  0.8446
  178SOL    HW2  711   2.996   0.424   2.844  1.4394  1.6880  0.6459
  178SOL     MW  712   3.051   0.423   2.907  0.3367  0.2161  0.1239
  179SOL     OW  713   1.646   1.298   1.484 -0.4682 -0.2091 -0.3055
  179SOL    HW1  714   1.645   1.333   1.570  0.9146 -1.6837  2.1393
  179SOL    HW2  715   1.729   1.320   1.446 -1.0167  1.5692 -0.2847
  179SOL     MW  716   1.657   1.305   1.490 -0.3581 -0.1691  0.0198
  180SOL     OW  717   2.984   0.193   0.444 -0.1675 -0.9167 -0.0666
  180SOL    HW1  718   2.954   0.216   0.352 -0.8284 -0.9103 -2.1887
  180SOL    HW2  719   3.054   0.266   0.460  0.4828  0.4600  0.8341
  180SOL     MW  720   2.989   0.206   0.434 -0.1689 -0.7342 -0.2278
  181SOL     OW  721   1.120   1.461   3.040  0.4084 -0.1048 -0.6755
  181SOL    HW1  722   1.174   1.443   3.116 -0.3791 -1.5447 -0.4637
  181SOL    HW2  723   1.170   1.450   2.961  2.5057  3.0320 -0.3508
  181SOL     MW  724   1.134   1.457   3.040  0.5812  0.1191 -0.6047
  182SOL     OW  725   0.462   0.840   1.651  0.6362  0.7627  0.2707
  182SOL    HW1  726   0.374   0.820   1.691  0.1027  0.9723  0.7259
  182SOL    HW2  727   0.521   0.807   1.719  0.9736 -0.7005 -0.6302
  182SOL     MW  728   0.458   0.833   1.665  0.6104  0.5973  0.2119
  183SOL     OW  729   1.572   1.513   1.288 -1.1354  0.1321  0.2065
  183SOL    HW1  730   1.498   1.572   1.316 -0.2205  1.9998 -0.6487
  183SOL    HW2  731   1.580   1.455   1.362 -1.2374 -0.8420  1.0586
  183SOL     MW  732   1.563   1.513   1.301 -1.0281  0.2500  0.2061
  184SOL     OW  733   0.852   0.649   1.974 -0.2747  0.1737 -0.8082
  184SOL    HW1  734   0.926   0.650   1.921 -1.9070  1.1140  0.3053
  184SOL    HW2  735   0.857   0.561   2.011  1.2351  4.6383 -1.4726
  184SOL     MW  736   0.862   0.637   1.972 -0.2909  0.8869 -0.7490
  185SOL     OW  737   1.111   0.945   1.973  1.0406  0.4068 -0.0859
  185SOL    HW1  738   1.121   0.867   2.024  2.6695 -1.3432 -2.6762
  185SOL    HW2  739   1.169   1.013   2.006  0.7042 -2.0977 -0.9124
  185SOL     MW  740   1.120   0.944   1.984  1.2111 -0.1546 -0.5367
  186SOL     OW  741   0.395   1.679   1.400  0.3410 -0.2686  0.1695
  186SOL    HW1  742   0.454   1.748   1.365 -0.8876  0.5343 -0.8316
  186SOL    HW2  743   0.350   1.639   1.326 -3.1470  1.0995  0.2547
  186SOL     MW  744   0.397   1.683   1.386 -0.2813  0.0179  0.0487
  187SOL     OW  745   1.496   0.707   1.444 -0.3289  0.2629  0.1288
  187SOL    HW1  746   1.483   0.726   1.539  0.6274  1.8151  0.9079
  187SOL    HW2  747   1.405   0.687   1.413 -0.4526  1.6725 -0.1514
  187SOL     MW  748   1.483   0.707   1.452 -0.2190  0.6537  0.1946
  188SOL     OW  749   1.926   1.046   0.709  0.0464 -0.0827  0.1023
  188SOL    HW1  750   1.939   0.962   0.751  3.1214 -1.6641 -1.1549
  188SOL    HW2  751   2.016   1.063   0.678 -2.7849 -0.2011  0.1883
  188SOL     MW  752   1.939   1.037   0.710  0.0786 -0.3069 -0.0523
  189SOL     OW  753   0.674   0.778   0.794  0.0739  0.1776  0.1445
  189SOL    HW1  754   0.596   0.801   0.752  0.4490  1.3100 -1.4422
  189SOL    HW2  755   0.717   0.857   0.829  0.5663 -1.5751  0.1760
  189SOL     MW  756   0.669   0.791   0.793  0.1883  0.0958 -0.0607
  190SOL     OW  757   1.860   0.264   1.980 -0.4208 -0.2486  0.2599
  190SOL    HW1  758   1.896   0.175   1.970  1.5697 -1.7044 -0.5566
  190SOL    HW2  759   1.911   0.319   1.918 -0.7709 -3.2505  1.5493
  190SOL     MW  760   1.872   0.260   1.971 -0.2044 -0.8368  0.3223
  191SOL     OW  761   1.592   0.948   1.330 -1.0893  0.1456 -0.1892
  191SOL    HW1  762   1.548   1.017   1.374 -1.7475  1.8872 -2.3347
  191SOL    HW2  763   1.555   0.863   1.356 -2.3065  1.4523 -0.2908
  191SOL     MW  764   1.581   0.946   1.340 -1.3368  0.5478 -0.4857
  192SOL     OW  765   0.730   1.975   2.817 -0.5021 -0.0663 -0.3365
  192SOL    HW1  766   0.688   2.035   2.751 -0.1558 -0.5991  1.3330
  192SOL    HW2  767   0.657   1.915   2.835 -0.6757 -0.8928 -1.2491
  192SOL     MW  768   0.714   1.975   2.810 -0.4793 -0.2457 -0.2366
  193SOL     OW  769   1.000   1.616   0.740 -0.8977  0.6743 -0.2491
  193SOL    HW1  770   0.937   1.649   0.804  1.5869  0.5253 -2.2746
  193SOL    HW2  771   0.948   1.543   0.697 -3.7100 -0.9987  1.8247
  193SOL     MW  772   0.985   1.611   0.743 -0.9410  0.4339 -0.2427
  194SOL     OW  773   0.473   1.333   0.941  0.0078 -1.0749 -0.5473
  194SOL    HW1  774   0.455   1.236   0.954 -0.8039 -1.4138  2.4807
  194SOL    HW2  775   0.393   1.359   0.894 -2.9552  0.7248 -1.4221
  194SOL     MW  776   0.460   1.323   0.936 -0.4902 -0.8822 -0.2632
  195SOL     OW  777   1.280   1.136   2.995  0.0447 -0.2843  0.0148
  195SOL    HW1  778   1.293   1.177   3.080 -0.0483  0.1758  2.5078
  195SOL    HW2  779   1.205   1.076   3.003  0.4538 -1.6306 -0.9555
  195SOL     MW  780   1.272   1.134   3.007  0.0864 -0.4012  0.2157
  196SOL     OW  781   2.186   1.096   0.665  0.0102 -0.5196 -0.4395
  196SOL    HW1  782   2.180   1.059   0.577 -0.0702  0.5848  0.3800
  196SOL    HW2  783   2.209   1.184   0.643 -1.1143 -2.3259 -1.3478
  196SOL     MW  784   2.189   1.103   0.650 -0.1488 -0.6123 -0.4512
  197SOL     OW  785   0.592   1.245   1.996 -0.0888  0.4833  0.0180
  197SOL    HW1  786   0.643   1.158   2.001 -0.4857  0.1903  0.5418
  197SOL    HW2  787   0.567   1.263   1.910  0.0665 -2.1674  2.6103
  197SOL     MW  788   0.595   1.236   1.985 -0.1207  0.0949  0.4291
  198SOL     OW  789   2.926   1.420   1.002 -0.2421  0.4528 -0.2612
  198SOL    HW1  790   2.913   1.516   0.995 -1.5073  3.2446 -0.0662
  198SOL    HW2  791   2.833   1.376   1.016 -1.7332  0.0562 -3.2546
  198SOL     MW  792   2.912   1.427   1.003 -0.6057  0.7689 -0.6304
  199SOL     OW  793   0.495   1.288   1.746 -0.4733 -0.1100  0.5487
  199SOL    HW1  794   0.406   1.287   1.777  2.8685  1.9589  0.5310
  199SOL    HW2  795   0.508   1.379   1.720 -1.9314  2.5532  0.6865
  199SOL     MW  796   0.485   1.300   1.747 -0.2248  0.5143  0.5645
  200SOL     OW  797   1.902   0.016   1.373  0.3006  0.3172 -0.6473
  200SOL    HW1  798   1.931   0.024   1.281 -1.3402 -0.4225  1.4167
  200SOL    HW2  799   1.810  -0.009   1.356  1.0666 -4.0987 -0.7676
  200SOL     MW  800   1.894   0.014   1.358  0.1852 -0.3630 -0.3908
  201SOL     OW  801   1.096   0.306   0.823  0.3691 -0.2395 -0.3629
  201SOL    HW1  802   1.084   0.216   0.844  1.0891  3.0601 -2.5918
  201SOL    HW2  803   1.082   0.300   0.728 -3.9274 -0.5630  4.3041
  201SOL     MW  804   1.093   0.293   0.813 -0.1028  0.1531 -0.0412
  202SOL     OW  805   1.545   1.656   1.031  0.0934  0.2345 -0.3899
  202SOL    HW1  806   1.581   1.584   0.972 -3.5187 -0.1383  0.7334
  202SOL    HW2  807   1.577   1.637   1.119 -0.1562  0.5102  0.6912
  202SOL     MW  808   1.554   1.644   1.035 -0.4161  0.2217 -0.0991
  203SOL     OW  809   0.001   0.468   1.185 -0.0832  0.7070 -0.0019
  203SOL    HW1  810   0.058   0.432   1.114  0.6537 -0.0652 -0.9071
  203SOL    HW2  811   0.055   0.535   1.231  0.0257  0.0984 -2.9065
  203SOL     MW  812   0.015   0.472   1.182  0.0284  0.5248 -0.5045
  204SOL     OW  813   1.064   1.750   0.519 -0.0414 -0.1922  0.3486
  204SOL    HW1  814   1.053   1.703   0.603  1.4593 -2.2303 -1.9506
  204SOL    HW2  815   0.984   1.740   0.463 -1.2319 -0.4577  2.1873
  204SOL     MW  816   1.052   1.743   0.523 -0.0005 -0.4962  0.2878
  205SOL     OW  817   1.391   0.097   1.347 -0.2718  0.0621 -0.2632
  205SOL    HW1  818   1.345   0.097   1.266 -2.0780  0.2615  3.3756
  205SOL    HW2  819   1.441   0.177   1.339 -1.5262  2.5403  0.6206
  205SOL     MW  820   1.391   0.107   1.336 -0.6756  0.4154  0.3335
  206SOL     OW  821   0.447   3.068   1.413 -0.6052  0.4065  0.2022
  206SOL    HW1  822   0.415   3.064   1.325  2.0353 -0.2005  3.1307
  206SOL    HW2  823   0.514   3.002   1.412 -1.1662  0.7083 -0.0289
  206SOL     MW  824   0.452   3.059   1.401 -0.3308  0.3663  0.5581
  207SOL     OW  825   0.958   1.535   0.248 -0.3477 -0.8611 -0.1415
  207SOL    HW1  826   0.985   1.625   0.220 -0.7400  0.4816  0.3605
  207SOL    HW2  827   1.049   1.503   0.287 -0.4609 -0.7693 -0.5292
  207SOL     MW  828   0.974   1.543   0.249 -0.4144 -0.6718 -0.1264
  208SOL     OW  829   0.685   1.568   1.213  0.0078  0.1568  0.4672
  208SOL    HW1  830   0.725   1.579   1.294  1.4247  0.3803  0.0003
  208SOL    HW2  831   0.627   1.493   1.228 -1.7522  1.2943  1.2509
  208SOL     MW  832   0.683   1.560   1.226 -0.0375  0.3363  0.5090
  209SOL     OW  833   1.525   0.549   2.817  0.6907 -0.0434  0.3574
  209SOL    HW1  834   1.547   0.615   2.880  1.4931  0.5273 -3.0815
  209SOL    HW2  835   1.578   0.476   2.840 -0.5257  3.4202 -0.4365
  209SOL     MW  836   1.535   0.548   2.828  0.6361  0.4889 -0.2011
  210SOL     OW  837   1.598   1.440   0.872  0.4208  0.6943 -0.3043
  210SOL    HW1  838   1.683   1.396   0.853  0.5648  0.9159  0.5902
  210SOL    HW2  839   1.539   1.420   0.801 -2.7762 -0.1742  0.1488
  210SOL     MW  840   1.602   1.431   0.860  0.0180  0.6089 -0.1265
  211SOL     OW  841   1.725   0.476   0.933  0.2636 -0.1699 -0.1597
  211SOL    HW1  842   1.713   0.471   0.841 -1.6712 -0.6345  1.8712
  211SOL    HW2  843   1.813   0.489   0.942 -0.4283 -1.3100 -0.8492
  211SOL     MW  844   1.735   0.477   0.922 -0.0830 -0.3816  0.0173
  212SOL     OW  845   0.250   1.113   0.084 -0.0863  0.2447 -0.1660
  212SOL    HW1  846   0.216   1.077   0.168 -0.8910  2.4402  2.0444
  212SOL    HW2  847   0.334   1.067   0.066 -1.4606 -2.6934  0.0049
  212SOL     MW  848   0.257   1.102   0.092 -0.3738  0.1467  0.1482
  213SOL     OW  849   0.435   1.685   3.076 -0.1598  0.5634 -0.0498
  213SOL    HW1  850   0.480   1.745   3.136 -1.0676  0.5765 -0.4664
  213SOL    HW2  851   0.445   1.728   2.990 -3.8876  2.1270 -1.6647
  213SOL     MW  852   0.443   1.699   3.073 -0.7714  0.7714 -0.3178
  214SOL     OW  853   0.653   0.237   2.259  0.6343 -0.3405 -0.0355
  214SOL    HW1  854   0.591   0.300   2.228 -1.5647  0.7433  1.3590
  214SOL    HW2  855   0.724   0.253   2.192 -2.9327  3.7659 -1.1845
  214SOL     MW  856   0.654   0.247   2.246 -0.1265  0.3443 -0.0031
  215SOL     OW  857   0.478   0.740   2.610  0.3848  0.0729  0.3877
  215SOL    HW1  858   0.492   0.720   2.514 -2.4876 -0.6434  1.3516
  215SOL    HW2  859   0.403   0.682   2.634  0.3677 -0.4407 -0.5671
  215SOL     MW  860   0.470   0.730   2.601  0.0036 -0.0894  0.3889
  216SOL     OW  861   3.084   3.036   2.713  0.2439 -0.4051 -0.6726
  216SOL    HW1  862   3.036   2.971   2.764  0.2190 -1.6483  1.1402
  216SOL    HW2  863   3.051   3.125   2.710  0.5388 -0.6752 -1.7093
  216SOL     MW  864   3.073   3.039   2.719  0.2795 -0.6047 -0.5702
  217SOL     OW  865   0.955   1.235   0.026 -0.1652  0.6564  0.1365
  217SOL    HW1  866   1.001   1.159  -0.012 -2.1643 -1.1903  1.2806
  217SOL    HW2  867   1.004   1.311  -0.022  1.2700  0.2146  2.0452
  217SOL     MW  868   0.968   1.235   0.014 -0.2396  0.3545  0.5393
  218SOL     OW  869   0.924   1.296   2.539  0.3874  0.1091  0.7444
  218SOL    HW1  870   0.939   1.205   2.572  0.3151 -2.1159  1.1196
  218SOL    HW2  871   0.967   1.368   2.583  1.5394 -2.1151 -0.8533
  218SOL     MW  872   0.932   1.293   2.549  0.5299 -0.4779  0.5831
  219SOL     OW  873   1.039   0.447   2.517  0.2179 -0.1787  0.3066
  219SOL    HW1  874   1.113   0.487   2.469  0.6749 -1.3142 -0.8789
  219SOL    HW2  875   0.992   0.523   2.543  0.2828  1.6650 -1.7942
  219SOL     MW  876   1.043   0.462   2.514  0.2867 -0.0853 -0.1270
  220SOL     OW  877   1.746   0.469   2.186  0.1248 -0.8289 -0.7454
  220SOL    HW1  878   1.668   0.505   2.140 -0.5617  1.7264 -0.0281
  220SOL    HW2  879   1.781   0.392   2.145  0.9282  2.4593  0.4772
  220SOL     MW  880   1.740   0.464   2.175  0.1402 -0.0579 -0.4895
  221SOL     OW  881   0.399   1.346   2.892 -0.0562 -0.8166  0.1695
  221SOL    HW1  882   0.418   1.254   2.872 -0.1973 -2.8960  0.4408
  221SOL    HW2  883   0.387   1.407   2.815 -1.4451 -1.2400 -2.0943
  221SOL     MW  884   0.400   1.342   2.879 -0.2581 -1.1468 -0.0934
  222SOL     OW  885   0.314   0.955   2.640 -0.1868 -1.0166 -0.2330
  222SOL    HW1  886   0.249   0.970   2.574  2.1050  0.8866  2.8517
  222SOL    HW2  887   0.373   0.885   2.613 -0.9911  1.9814 -0.6350
  222SOL     MW  888   0.314   0.948   2.628  0.0095 -0.3699  0.1210
  223SOL     OW  889   3.088   1.998   2.602 -0.1776  0.2570 -0.3433
  223SOL    HW1  890   3.167   1.944   2.646  2.5702 -2.3908  2.7683
  223SOL    HW2  891   3.125   2.036   2.525 -1.4292  0.2717  2.7589
  223SOL     MW  892   3.103   1.996   2.598  0.0198 -0.0904  0.4766
  224SOL     OW  893   1.459   0.830   2.590  0.0720  0.0380 -0.5254
  224SOL    HW1  894   1.452   0.854   2.685 -1.6016  3.3500  0.8480
  224SOL    HW2  895   1.488   0.917   2.556 -0.2222  1.7478 -2.1350
  224SOL     MW  896   1.462   0.845   2.598 -0.1876  0.7006 -0.5566
  225SOL     OW  897   2.966   1.488   2.252  0.5909  0.1752  0.1112
  225SOL    HW1  898   2.979   1.576   2.215  0.5593 -1.0648  0.2446
  225SOL    HW2  899   2.915   1.506   2.330  2.9628  0.1246 -0.3820
  225SOL     MW  900   2.961   1.502   2.257  0.8997  0.0049  0.0637
  226SOL     OW  901   0.389   1.442   2.633  0.5092  0.0139 -0.2649
  226SOL    HW1  902   0.482   1.429   2.640 -1.8731 -1.1618 -0.8462
  226SOL    HW2  903   0.377   1.525   2.587 -4.4220  0.2950 -0.5768
  226SOL     MW  904   0.400   1.451   2.628 -0.4558 -0.1041 -0.3828
  227SOL     OW  905   0.452   1.084   2.824 -0.2680 -0.3723  0.4556
  227SOL    HW1  906   0.536   1.122   2.808 -4.4969  0.1600  0.2544
  227SOL    HW2  907   0.412   1.059   2.735 -1.6646 -0.4210 -1.5707
  227SOL     MW  908   0.458   1.086   2.810 -1.0102 -0.3085  0.1617
  228SOL     OW  909   0.687   0.991   2.013 -0.0730 -0.6204  0.5650
  228SOL    HW1  910   0.778   1.014   2.003 -1.6805 -0.5014 -0.3083
  228SOL    HW2  911   0.672   0.959   2.107  0.1868 -1.5418 -1.9417
  228SOL     MW  912   0.697   0.990   2.024 -0.2508 -0.7263  0.1191
  229SOL     OW  913   0.196   0.521   3.092 -0.4476  0.4445 -0.0571
  229SOL    HW1  914   0.122   0.539   3.034 -0.3607  3.0886  3.0057
  229SOL    HW2  915   0.167   0.477   3.171  2.4104  0.8447 -3.0791
  229SOL     MW  916   0.182   0.518   3.095 -0.0591  0.8462 -0.0517
  230SOL     OW  917   1.774   1.375   2.056  0.0324 -0.3308 -0.1539
  230SOL    HW1  918   1.732   1.379   2.147 -1.8072  1.2726  0.6881
  230SOL    HW2  919   1.829   1.301   2.046  0.2452  1.4282 -1.8736
  230SOL     MW  920   1.776   1.366   2.067 -0.1822  0.1129 -0.2697
  231SOL     OW  921   2.752   1.303   2.171 -0.2760  0.3412  0.7959
  231SOL    HW1  922   2.820   1.371   2.194  0.2503 -0.2119  2.8742
  231SOL    HW2  923   2.679   1.333   2.117  0.6221 -2.1536  1.1173
  231SOL     MW  924   2.751   1.316   2.167 -0.0881 -0.0609  1.1125
  232SOL     OW  925   2.286   0.873   2.119 -0.4917 -0.2223 -0.1301
  232SOL    HW1  926   2.231   0.908   2.048  0.7407 -2.4923 -2.8269
  232SOL    HW2  927   2.237   0.874   2.205  0.5832  1.0538  0.8265
  232SOL     MW  928   2.273   0.878   2.121 -0.1873 -0.3534 -0.3597
  233SOL     OW  929   2.053   0.542   1.937  0.3916 -0.0995 -0.3669
  233SOL    HW1  930   2.092   0.563   1.849 -1.2302 -0.6562  1.6659
  233SOL    HW2  931   2.127   0.503   1.986 -1.1151 -1.4399  0.2504
  233SOL     MW  932   2.068   0.540   1.932 -0.0212 -0.3498 -0.0173
  234SOL     OW  933   0.264   0.996   2.321  0.0601  0.8041  0.0431
  234SOL    HW1  934   0.189   1.060   2.331 -1.1230 -0.9407  2.6972
  234SOL    HW2  935   0.324   1.046   2.373 -1.8404 -0.7515  0.8689
  234SOL     MW  936   0.262   1.011   2.329 -0.3468  0.3687  0.5023
  235SOL     OW  937   1.053   3.051   2.766  0.2658  0.1934 -0.3621
  235SOL    HW1  938   1.083   2.988   2.832  3.5824  0.7342 -3.1992
  235SOL    HW2  939   1.025   3.134   2.813  0.8913 -0.2619 -0.4679
  235SOL     MW  940   1.053   3.053   2.781  0.7859  0.2047 -0.7504
  236SOL     OW  941   2.932   0.534   0.032  0.2344  0.4014  0.0336
  236SOL    HW1  942   2.834   0.527   0.015 -2.0484  1.6804 -0.7611
  236SOL    HW2  943   2.961   0.625   0.039 -0.9653  0.3313 -0.9310
  236SOL     MW  944   2.923   0.545   0.030 -0.2250  0.5609 -0.1985
  237SOL     OW  945   1.754   0.905   2.163 -0.0613  0.8152 -0.5988
  237SOL    HW1  946   1.795   0.975   2.107  3.4430  1.4173  0.9102
  237SOL    HW2  947   1.788   0.903   2.250 -0.3125  0.1984 -1.9967
  237SOL     MW  948   1.764   0.914   2.167  0.3679  0.8132 -0.5842
  238SOL     OW  949   1.066   1.738   2.957 -0.3157 -0.0824  0.0718
  238SOL    HW1  950   1.062   1.643   2.979  1.9000 -1.1293  0.4795
  238SOL    HW2  951   1.163   1.747   2.942 -0.2299  1.6991  1.1676
  238SOL     MW  952   1.079   1.727   2.958 -0.0121  0.0145  0.2702
  239SOL     OW  953   1.164   1.427   2.321  0.5623  0.5256  0.0643
  239SOL    HW1  954   1.168   1.419   2.420  3.4549 -1.8367 -0.4345
  239SOL    HW2  955   1.128   1.344   2.306 -1.1989  3.3569 -0.1203
  239SOL     MW  956   1.160   1.415   2.332  0.7116  0.5875 -0.0259
  240SOL     OW  957   0.625   0.874   2.254 -0.3302 -0.2029 -0.4624
  240SOL    HW1  958   0.624   0.944   2.316 -0.7394  0.0176  1.7188
  240SOL    HW2  959   0.720   0.855   2.263  1.5969  2.6465  2.8053
  240SOL     MW  960   0.637   0.881   2.263 -0.1299  0.2021  0.2565
  241SOL     OW  961   0.638   0.336   3.003 -0.2248  0.1032  1.1181
  241SOL    HW1  962   0.646   0.367   3.095  0.7076  0.0851  1.5256
  241SOL    HW2  963   0.561   0.384   2.964  0.1214 -1.5246 -2.6653
  241SOL     MW  964   0.629   0.347   3.010 -0.0561 -0.1140  0.6727
  242SOL     OW  965   1.496   1.766   2.308 -0.0468  0.2622 -0.6983
  242SOL    HW1  966   1.452   1.828   2.365 -0.1919  0.3277  2.0110
  242SOL    HW2  967   1.422   1.722   2.269 -0.5147 -1.1868 -1.3037
  242SOL     MW  968   1.481   1.769   2.310 -0.1277  0.0797 -0.4207
  243SOL     OW  969   0.947   0.205   2.331 -0.1675  0.1075  0.0562
  243SOL    HW1  970   1.041   0.203   2.332  1.3094 -0.9337 -0.4869
  243SOL    HW2  971   0.929   0.288   2.373 -3.9562  2.9474  0.3730
  243SOL     MW  972   0.957   0.216   2.336 -0.4725  0.3449  0.0263
  244SOL     OW  973   0.212   0.727   2.308  0.2032 -0.0773  0.1157
  244SOL    HW1  974   0.205   0.817   2.318 -1.8031 -4.1192  0.0299
  244SOL    HW2  975   0.304   0.706   2.337  1.4569  1.5429 -2.2097
  244SOL     MW  976   0.223   0.736   2.313  0.1039 -0.3968 -0.2025
  245SOL     OW  977   1.221   0.238   2.343  0.4774  0.3200  0.0182
  245SOL    HW1  978   1.245   0.143   2.354  2.1525  0.9850 -0.4988
  245SOL    HW2  979   1.255   0.278   2.424  0.4257  0.7620  1.3036
  245SOL     MW  980   1.228   0.231   2.355  0.6916  0.4661  0.1196
  246SOL     OW  981   1.263   1.166   2.094  0.2161  0.3325 -0.5040
  246SOL    HW1  982   1.188   1.143   2.153 -1.3787  0.6501  1.9949
  246SOL    HW2  983   1.343   1.167   2.152 -2.8463 -0.1780  0.5919
  246SOL     MW  984   1.263   1.163   2.109 -0.3984  0.3070 -0.0297
  247SOL     OW  985   0.703   0.503   0.111 -0.4421 -0.8755  0.2254
  247SOL    HW1  986   0.660   0.583   0.080  0.3319  1.2763  1.6687
  247SOL    HW2  987   0.801   0.521   0.098 -0.6923  2.5280  1.4481
  247SOL     MW  988   0.710   0.516   0.105 -0.3730 -0.1425  0.5772
  248SOL     OW  989   0.434   1.183   2.491  0.1185 -0.3473  0.0984
  248SOL    HW1  990   0.461   1.243   2.422  2.6119  2.8909  0.7820
  248SOL    HW2  991   0.390   1.242   2.558  1.1909  1.6112 -1.3728
  248SOL     MW  992   0.432   1.199   2.491  0.5889  0.3384 -0.0055
  249SOL     OW  993   0.188   1.849   2.709 -0.0269 -0.0661  0.1443
  249SOL    HW1  994   0.143   1.774   2.660 -0.3599  0.3687 -2.1863
  249SOL    HW2  995   0.178   1.819   2.801 -0.0294 -0.1556  0.4091
  249SOL     MW  996   0.181   1.835   2.714 -0.0712 -0.0205 -0.1282
  250SOL     OW  997   2.154   0.869   2.367 -0.1748 -0.2505  0.4028
  250SOL    HW1  998   2.195   0.787   2.390 -0.3020 -3.8771  1.3527
  250SOL    HW2  999   2.204   0.926   2.428  1.3172 -2.7909  0.3546
  250SOL     MW 1000   2.166   0.866   2.378  0.0053 -1.0642  0.5217
  251SOL     OW 1001   0.211   0.791   2.021  0.3542  0.0810  1.0207
  251SOL    HW1 1002   0.194   0.713   2.080 -0.9535 -2.0314 -0.0100
  251SOL    HW2 1003   0.214   0.755   1.929  0.4349 -0.4192 -0.4324
  251SOL     MW 1004   0.209   0.776   2.017  0.1923 -0.2637  0.6930
  252SOL     OW 1005   1.702   0.999   2.837 -0.2016 -0.5378  0.7571
  252SOL    HW1 1006   1.690   1.031   2.930 -1.3362  1.1480 -0.2956
  252SOL    HW2 1007   1.752   1.061   2.784  0.5835  0.4023 -0.7471
  252SOL     MW 1008   1.707   1.011   2.842 -0.2477 -0.1913  0.4197
  253SOL     OW 1009   1.160   1.730   2.527 -0.3197  0.1245 -0.0626
  253SOL    HW1 1010   1.141   1.773   2.438  0.7912  0.7569 -0.3686
  253SOL    HW2 1011   1.088   1.759   2.586  1.7713 -1.6277 -1.0954
  253SOL     MW 1012   1.148   1.739   2.523  0.1027 -0.0232 -0.2392
  254SOL     OW 1013   1.059   1.080   2.230 -0.4311  0.2124 -0.4911
  254SOL    HW1 1014   1.037   0.994   2.200  0.2092  0.7202  1.9487
  254SOL    HW2 1015   0.979   1.130   2.226 -0.4620  1.7742 -2.1417
  254SOL     MW 1016   1.045   1.076   2.226 -0.3507  0.4855 -0.3869
  255SOL     OW 1017   0.834   2.432   2.208  0.5906 -0.2144 -0.3204
  255SOL    HW1 1018   0.742   2.422   2.203  0.8076  1.2845 -0.8362
  255SOL    HW2 1019   0.855   2.408   2.300 -2.7825  0.3736 -0.5164
  255SOL     MW 1020   0.825   2.428   2.219  0.1742  0.0609 -0.4143
  256SOL     OW 1021   1.149   2.817   2.879  0.3772  0.0240 -0.3988
  256SOL    HW1 1022   1.156   2.723   2.885 -0.9751 -1.7923  1.9549
  256SOL    HW2 1023   1.232   2.853   2.831  1.9579  1.6557 -0.5656
  256SOL     MW 1024   1.161   2.809   2.874  0.4073 -0.0003 -0.1103
  257SOL     OW 1025   0.148   1.888   0.095  0.6638  0.4859 -0.2130
  257SOL    HW1 1026   0.144   1.832   0.173  0.8672 -0.0318 -3.9454
  257SOL    HW2 1027   0.164   1.828   0.021  1.4719  2.2716  1.2835
  257SOL     MW 1028   0.150   1.872   0.095  0.7973  0.6532 -0.5080
  258SOL     OW 1029   0.707   1.093   2.485  0.2871 -0.6144  0.5507
  258SOL    HW1 1030   0.728   1.146   2.407  0.6304  1.2798 -1.2977
  258SOL    HW2 1031   0.611   1.124   2.504  1.4595  2.9002 -2.1099
  258SOL     MW 1032   0.697   1.104   2.477  0.4871  0.0992 -0.0442
  259SOL     OW 1033   0.711   0.501   2.388  0.6877  0.2987 -0.1849
  259SOL    HW1 1034   0.620   0.539   2.380  0.1041 -2.0795  1.8356
  259SOL    HW2 1035   0.696   0.407   2.389 -2.8103  0.6102 -1.4819
  259SOL     MW 1036   0.697   0.494   2.387  0.1492  0.0260 -0.0894
  260SOL     OW 1037   0.596   0.123   1.592  0.3913 -0.3617 -0.9784
  260SOL    HW1 1038   0.560   0.087   1.511  0.6851  0.7072  0.0210
  260SOL    HW2 1039   0.688   0.142   1.571  0.3479  1.8905  0.0854
  260SOL     MW 1040   0.603   0.121   1.579  0.4243  0.0765 -0.7061
  261SOL     OW 1041   1.166   0.696   2.083  0.8343 -0.5683 -0.0946
  261SOL    HW1 1042   1.185   0.674   2.172  0.2382 -1.6618 -0.7346
  261SOL    HW2 1043   1.223   0.631   2.036 -0.3722 -4.5846  0.8968
  261SOL     MW 1044   1.176   0.684   2.088  0.5965 -1.2425 -0.0482
  262SOL     OW 1045   1.143   0.319   0.085 -0.1449 -0.3600  0.3239
  262SOL    HW1 1046   1.239   0.313   0.085  1.4578  0.9565  2.0145
  262SOL    HW2 1047   1.103   0.233   0.089  1.5744  1.4021  1.1977
  262SOL     MW 1048   1.151   0.307   0.085  0.2934  0.0462  0.6622
  263SOL     OW 1049   0.464   3.029   2.524  0.1387  0.3285 -0.6369
  263SOL    HW1 1050   0.378   3.071   2.519 -2.0893 -1.7169 -0.9554
  263SOL    HW2 1051   0.505   3.036   2.438  1.8557  0.1810 -1.1966
  263SOL     MW 1052   0.458   3.035   2.512  0.0713  0.0392 -0.7528
  264SOL     OW 1053   1.537   1.326   1.917  0.1575 -1.0568 -0.4952
  264SOL    HW1 1054   1.480   1.334   1.994 -0.8136 -2.4973  0.6730
  264SOL    HW2 1055   1.622   1.348   1.961 -1.4466  2.7394 -0.9986
  264SOL     MW 1056   1.541   1.330   1.933 -0.1823 -0.7460 -0.4075
  265SOL     OW 1057   0.675   2.652   2.266 -0.6829  0.3099  0.1957
  265SOL    HW1 1058   0.747   2.582   2.253 -0.3771 -1.0974  2.1928
  265SOL    HW2 1059   0.693   2.694   2.345  1.8156 -1.2005 -1.2083
  265SOL     MW 1060   0.687   2.648   2.275 -0.3129 -0.0751  0.2740
  266SOL     OW 1061   0.891   0.797   2.209  0.4284 -0.0631 -0.1065
  266SOL    HW1 1062   0.869   0.756   2.122 -0.5294  1.7205  1.1643
  266SOL    HW2 1063   0.934   0.725   2.247  1.6135 -0.3899 -0.1826
  266SOL     MW 1064   0.894   0.782   2.202  0.4584  0.1291  0.0512
  267SOL     OW 1065   1.383   1.748   2.689 -0.1254 -0.6137  0.0404
  267SOL    HW1 1066   1.457   1.701   2.643  1.6638 -3.6226 -1.3197
  267SOL    HW2 1067   1.326   1.759   2.610 -0.2412  1.2155 -1.7447
  267SOL     MW 1068   1.386   1.743   2.672  0.0954 -0.7693 -0.3745
  268SOL     OW 1069   0.225   0.756   1.752  0.3769 -0.6835  0.5073
  268SOL    HW1 1070   0.179   0.827   1.704 -0.4376 -2.2787 -2.6100
  268SOL    HW2 1071   0.239   0.679   1.691 -0.7560  2.7298  0.4771
  268SOL     MW 1072   0.221   0.755   1.738  0.1200 -0.4436  0.0920
  269SOL     OW 1073   1.361   1.957   2.463 -0.3968 -0.6820 -0.3886
  269SOL    HW1 1074   1.428   1.958   2.535  0.7409  2.8807  1.3807
  269SOL    HW2 1075   1.276   1.971   2.509 -4.5838 -1.7799  2.0234
  269SOL     MW 1076   1.359   1.959   2.478 -0.7991 -0.3568  0.1631
  270SOL     OW 1077   1.171   0.394   1.596  0.0815 -0.3397  0.3842
  270SOL    HW1 1078   1.166   0.307   1.630  1.1435 -0.2244  0.4808
  270SOL    HW2 1079   1.262   0.404   1.576 -2.5107  0.8843 -1.5068
  270SOL     MW 1080   1.182   0.384   1.598 -0.1204 -0.1630  0.1475
  271SOL     OW 1081   0.827   3.030   2.399 -0.0352 -0.2200 -0.2200
  271SOL    HW1 1082   0.852   2.993   2.483  0.4896 -3.0659  0.4976
  271SOL    HW2 1083   0.873   3.114   2.392  1.3594  0.1707  0.2345
  271SOL     MW 1084   0.837   3.036   2.409  0.2180 -0.5440 -0.0653
  272SOL     OW 1085   1.400   2.903   2.824  0.0550 -0.9377 -0.3163
  272SOL    HW1 1086   1.385   2.981   2.767  0.8949  1.4501 -3.8244
  272SOL    HW2 1087   1.432   2.931   2.911  0.6092  1.1628  0.8150
  272SOL     MW 1088   1.402   2.917   2.828  0.2389 -0.3455 -0.6299
  273SOL     OW 1089   1.439   0.927   2.864  0.1991 -0.7183 -0.1497
  273SOL    HW1 1090   1.524   0.956   2.844 -0.1008  1.7539  0.8196
  273SOL    HW2 1091   1.394   1.001   2.898  0.7313 -0.4360 -0.2659
  273SOL     MW 1092   1.444   0.941   2.866  0.2298 -0.3549 -0.0371
  274SOL     OW 1093   1.355   0.747   0.203 -0.0249 -0.0497  0.4146
  274SOL    HW1 1094   1.409   0.674   0.234  2.3905 -0.7576 -0.7536
  274SOL    HW2 1095   1.271   0.734   0.247 -0.3657 -0.4627  2.5087
  274SOL     MW 1096   1.351   0.736   0.213  0.2488 -0.1976  0.5368
  275SOL     OW 1097   1.706   0.664   1.836 -0.8037 -0.8523  0.0281
  275SOL    HW1 1098   1.784   0.701   1.886 -0.3783 -0.5947 -0.7625
  275SOL    HW2 1099   1.702   0.573   1.864 -0.6409 -1.6280 -3.1242
  275SOL     MW 1100   1.716   0.657   1.846 -0.7261 -0.9206 -0.4921
  276SOL     OW 1101   0.244   1.229   1.802  0.0558  0.8329 -0.2642
  276SOL    HW1 1102   0.295   1.156   1.843 -1.7703  0.3202 -1.1371
  276SOL    HW2 1103   0.167   1.221   1.857 -0.1145 -1.1031  2.1259
  276SOL     MW 1104   0.240   1.218   1.815 -0.2076  0.5099 -0.0640
  277SOL     OW 1105   1.941   1.345   2.616  0.0971 -0.0987 -0.1901
  277SOL    HW1 1106   2.035   1.365   2.602 -0.4686 -1.5780 -1.2020
  277SOL    HW2 1107   1.939   1.257   2.646  1.4075 -2.8781 -1.4566
  277SOL     MW 1108   1.954   1.336   2.618  0.1954 -0.6606 -0.4907
  278SOL     OW 1109   1.452   0.732   1.743  0.5247 -0.0058  0.3833
  278SOL    HW1 1110   1.400   0.667   1.790 -1.4648 -0.0098 -2.3832
  278SOL    HW2 1111   1.534   0.717   1.789 -0.5270 -1.6822 -0.1687
  278SOL     MW 1112   1.456   0.722   1.755  0.1234 -0.2276 -0.0546
  279SOL     OW 1113   0.537   3.097   2.223 -0.4943  0.0810  0.1133
  279SOL    HW1 1114   0.618   3.046   2.223 -0.0575 -2.3881  0.3079
  279SOL    HW2 1115   0.567   3.190   2.232 -2.8620  1.4426 -1.8680
  279SOL     MW 1116   0.552   3.103   2.224 -0.7490 -0.0651 -0.1224
  280SOL     OW 1117   1.498   1.142   2.223  0.5021 -0.3413  0.2949
  280SOL    HW1 1118   1.487   1.066   2.163  0.7786 -2.3731  1.8031
  280SOL    HW2 1119   1.515   1.104   2.315  1.6957  0.3781  3.8975
  280SOL     MW 1120   1.499   1.127   2.227  0.6961 -0.5145  0.9692
  281SOL     OW 1121   1.290   1.344   2.818  0.2727 -0.3069  0.1537
  281SOL    HW1 1122   1.378   1.389   2.813 -0.2021 -0.6036 -2.3410
  281SOL    HW2 1123   1.300   1.256   2.861 -0.6493 -2.2048  0.5809
  281SOL     MW 1124   1.303   1.339   2.823  0.0884 -0.5964 -0.1191
  282SOL     OW 1125   1.136   1.297   1.689 -0.0687 -0.1575  0.1858
  282SOL    HW1 1126   1.116   1.338   1.601  0.9381  0.6457  1.3314
  282SOL    HW2 1127   1.066   1.236   1.714  1.6199 -2.0749 -0.4967
  282SOL     MW 1128   1.124   1.294   1.681  0.2869 -0.3045  0.2469
  283SOL     OW 1129   0.685   1.283   3.070 -0.3999 -0.0628  0.9489
  283SOL    HW1 1130   0.777   1.278   3.089  1.2281  1.6967 -2.1197
  283SOL    HW2 1131   0.669   1.371   3.095  1.9034 -2.7152 -0.5970
  283SOL     MW 1132   0.695   1.294   3.076  0.1188 -0.1806  0.3401
  284SOL     OW 1133   0.485   0.661   2.349  0.7122  0.3966 -0.9668
  284SOL    HW1 1134   0.533   0.732   2.305 -3.2237  2.7365  1.5467
  284SOL    HW2 1135   0.491   0.583   2.288  2.1022  0.8022  1.3825
  284SOL     MW 1136   0.492   0.660   2.335  0.3763  0.7588 -0.3252
  285SOL     OW 1137   0.838   0.977   2.859 -1.0319 -0.2809 -0.4734
  285SOL    HW1 1138   0.880   0.974   2.773 -2.7538 -1.2123 -2.2907
  285SOL    HW2 1139   0.770   0.918   2.837  3.8557  0.0006 -2.0137
  285SOL     MW 1140   0.835   0.969   2.845 -0.6142 -0.3666 -0.9164
  286SOL     OW 1141   1.150   1.463   2.591 -0.5938  0.3846  0.1921
  286SOL    HW1 1142   1.203   1.470   2.665 -1.0532 -1.5570 -0.0426
  286SOL    HW2 1143   1.134   1.558   2.562 -2.3610  0.7866  1.6884
  286SOL     MW 1144   1.155   1.476   2.597 -0.8875  0.1814  0.3586
  287SOL     OW 1145   1.020   0.925   0.344 -0.5256 -0.0280  0.0377
  287SOL    HW1 1146   1.102   0.964   0.378 -1.2175 -1.2949 -1.3677
  287SOL    HW2 1147   0.980   0.990   0.282  1.2710 -1.2333  0.2749
  287SOL     MW 1148   1.025   0.939   0.341 -0.3799 -0.3542 -0.1164
  288SOL     OW 1149   1.547   0.632   2.095  0.0726 -0.5012 -0.1923
  288SOL    HW1 1150   1.542   0.645   2.195 -1.1680  0.9121 -1.7670
  288SOL    HW2 1151   1.533   0.719   2.052  1.4414  0.6137 -0.0251
  288SOL     MW 1152   1.544   0.645   2.103  0.0895 -0.1676 -0.3780
  289SOL     OW 1153   0.952   1.027   2.620  0.3790 -0.7129 -0.3277
  289SOL    HW1 1154   1.026   0.969   2.599 -2.9740  2.2017  0.3944
  289SOL    HW2 1155   0.874   1.015   2.563 -1.6029  0.9616  1.1649
  289SOL     MW 1156   0.951   1.018   2.610 -0.3249 -0.1074 -0.0355
  290SOL     OW 1157   0.850   0.571   1.501 -0.1054  0.1047  0.1619
  290SOL    HW1 1158   0.906   0.543   1.429 -0.8019 -0.3854 -0.1371
  290SOL    HW2 1159   0.890   0.569   1.586 -0.5777 -0.5656  0.1704
  290SOL     MW 1160   0.863   0.567   1.503 -0.2596 -0.0484  0.1236
  291SOL     OW 1161   0.146   0.323   0.220 -0.2114  0.0567 -0.3198
  291SOL    HW1 1162   0.246   0.339   0.235  1.3880 -1.9694 -2.3671
  291SOL    HW2 1163   0.143   0.254   0.151 -0.5850  1.1258 -0.1691
  291SOL     MW 1164   0.158   0.316   0.213 -0.0497 -0.0696 -0.5700
  292SOL     OW 1165   0.973   0.535   0.079  0.4528 -0.5318 -0.7819
  292SOL    HW1 1166   1.022   0.593   0.135 -0.5717 -1.8677 -0.4406
  292SOL    HW2 1167   1.038   0.472   0.050 -0.1714  0.1060 -1.5753
  292SOL     MW 1168   0.988   0.535   0.082  0.2353 -0.6239 -0.8415
  293SOL     OW 1169   0.224   0.091   2.481 -0.1557 -0.0598 -0.1318
  293SOL    HW1 1170   0.154   0.031   2.447 -1.7676  2.2184 -3.6491
  293SOL    HW2 1171   0.181   0.149   2.541 -3.1444 -0.7249 -1.3567
  293SOL     MW 1172   0.209   0.090   2.484 -0.7627  0.1530 -0.7575
  294SOL     OW 1173   1.491   0.669   2.379  0.0970  0.1674 -0.5143
  294SOL    HW1 1174   1.509   0.728   2.461  3.0159  1.8730  3.4989
  294SOL    HW2 1175   1.496   0.576   2.412 -0.3437  0.7301  0.5853
  294SOL     MW 1176   1.494   0.664   2.394  0.4240  0.4667  0.1602
  295SOL     OW 1177   0.896   0.699   2.507  0.6230  0.2504 -0.2117
  295SOL    HW1 1178   0.844   0.641   2.456 -0.7709 -0.3891 -2.5433
  295SOL    HW2 1179   0.837   0.703   2.588 -0.1602  3.9654  0.2544
  295SOL     MW 1180   0.882   0.692   2.511  0.3357  0.6561 -0.4578
  296SOL     OW 1181   1.295   0.273   2.084 -0.8603 -0.2270 -0.2763
  296SOL    HW1 1182   1.367   0.198   2.082 -0.9623 -2.2560  0.2741
  296SOL    HW2 1183   1.262   0.271   2.178 -2.4999  0.5604  0.5130
  296SOL     MW 1184   1.300   0.263   2.096 -1.0901 -0.3908 -0.0996
  297SOL     OW 1185   1.429   0.430   1.541  0.8403 -0.0745  0.2973
  297SOL    HW1 1186   1.474   0.511   1.555 -0.3238  0.3377  0.6280
  297SOL    HW2 1187   1.484   0.357   1.578 -0.5278 -2.2776 -1.8080
  297SOL     MW 1188   1.442   0.431   1.548  0.5062 -0.3108  0.0631
  298SOL     OW 1189   1.502   0.930   2.056  0.3239  0.3763  0.5696
  298SOL    HW1 1190   1.539   0.966   1.974 -0.3113 -1.4653  0.3817
  298SOL    HW2 1191   1.578   0.888   2.104  1.7512 -1.3777 -1.3633
  298SOL     MW 1192   1.517   0.929   2.051  0.4284 -0.0981  0.2898
  299SOL     OW 1193   0.501   1.083   3.096 -0.2742 -0.4329 -0.5637
  299SOL    HW1 1194   0.555   1.162   3.081  2.7305  1.2875 -0.1524
  299SOL    HW2 1195   0.489   1.058   3.007  1.0723  3.6019  1.0482
  299SOL     MW 1196   0.507   1.090   3.083  0.2999  0.3265 -0.2968
  300SOL     OW 1197   1.265   1.157   2.508 -0.0328  0.3080  0.1040
  300SOL    HW1 1198   1.181   1.118   2.498 -1.7734 -1.5150 -0.8068
  300SOL    HW2 1199   1.265   1.220   2.577  1.5950  0.7365 -2.9358
  300SOL     MW 1200   1.254   1.160   2.516 -0.0477  0.1240 -0.4172
  301SOL     OW 1201   1.354   0.791   0.575 -0.2612  0.6071 -0.1963
  301SOL    HW1 1202   1.406   0.744   0.640 -0.6151  1.3798  0.4125
  301SOL    HW2 1203   1.273   0.759   0.609  2.5633  0.8811  1.6408
  301SOL     MW 1204   1.350   0.781   0.588  0.0648  0.7452  0.1264
  302SOL     OW 1205   0.112   1.478   1.991 -0.2553 -0.1924 -0.0019
  302SOL    HW1 1206   0.111   1.413   2.060  0.8648 -1.2919 -0.1855
  302SOL    HW2 1207   0.035   1.530   1.997  0.1851 -0.8467  1.8397
  302SOL     MW 1208   0.102   1.476   2.001 -0.0494 -0.4238  0.2169
  303SOL     OW 1209   0.402   1.745   2.558 -0.0497 -0.3491  0.1237
  303SOL    HW1 1210   0.456   1.788   2.492  3.1201 -1.1840  0.9021
  303SOL    HW2 1211   0.340   1.807   2.587  1.4147 -2.7296 -1.5388
  303SOL     MW 1212   0.401   1.759   2.553  0.5617 -0.7733  0.0070
  304SOL     OW 1213   0.620   2.093   2.411  0.1372 -0.2840 -0.3138
  304SOL    HW1 1214   0.666   2.152   2.353  2.2526 -0.5197 -0.0037
  304SOL    HW2 1215   0.682   2.024   2.433  3.0679 -0.5615 -0.6715
  304SOL     MW 1216   0.634   2.092   2.406  0.8030 -0.3517 -0.3201
  305SOL     OW 1217   1.102   0.542   0.544 -0.4712  0.4960  0.3934
  305SOL    HW1 1218   1.008   0.512   0.528 -4.3760  1.0627 -1.0759
  305SOL    HW2 1219   1.158   0.472   0.577 -1.1570  0.1999  1.5444
  305SOL     MW 1220   1.097   0.529   0.546 -1.0769  0.5317  0.3514
  306SOL     OW 1221   1.200   1.468   0.338 -0.0665  0.1304  0.2075
  306SOL    HW1 1222   1.228   1.381   0.373  0.0090  0.2934 -0.8712
  306SOL    HW2 1223   1.268   1.496   0.284 -2.4392  0.1612  2.4231
  306SOL     MW 1224   1.213   1.460   0.335 -0.3696  0.1559  0.3575
  307SOL     OW 1225   1.336   0.543   1.938  1.0312  0.0580  0.2689
  307SOL    HW1 1226   1.317   0.460   1.976 -1.9627 -2.1449 -2.9143
  307SOL    HW2 1227   1.424   0.569   1.970 -0.2203  0.1502 -0.2454
  307SOL     MW 1228   1.345   0.536   1.947  0.4711 -0.2205 -0.2189
  308SOL     OW 1229   2.121   0.635   2.652  0.8357  0.0484 -0.1720
  308SOL    HW1 1230   2.202   0.635   2.707  2.5582  0.6374  2.5812
  308SOL    HW2 1231   2.121   0.735   2.661  4.1334  0.2518  1.8517
  308SOL     MW 1232   2.132   0.649   2.661  1.4981  0.1530  0.4583
  309SOL     OW 1233   0.597   0.469   0.410 -0.6274 -0.6729 -0.7691
  309SOL    HW1 1234   0.626   0.382   0.437  0.3650 -2.2201 -2.5334
  309SOL    HW2 1235   0.621   0.470   0.318 -1.1214  0.3275 -0.0637
  309SOL     MW 1236   0.604   0.458   0.402 -0.5616 -0.7451 -0.9088
  310SOL     OW 1237   0.455   0.519   1.930  0.0068  0.2362 -0.1508
  310SOL    HW1 1238   0.505   0.462   1.867  1.4903  2.5204  1.4265
  310SOL    HW2 1239   0.475   0.610   1.913 -0.4339  1.1207 -0.6378
  310SOL     MW 1240   0.464   0.523   1.919  0.1444  0.6543 -0.0070
  311SOL     OW 1241   1.918   0.769   1.994  0.1735  0.3003  0.3801
  311SOL    HW1 1242   1.850   0.776   2.068 -2.6321 -0.0950 -1.9197
  311SOL    HW2 1243   1.953   0.681   1.980  0.7067  1.4455 -1.8914
  311SOL     MW 1244   1.914   0.758   2.002 -0.1263  0.3993 -0.2230
  312SOL     OW 1245   1.759   2.512   0.027 -0.9073 -0.3619 -0.1282
  312SOL    HW1 1246   1.795   2.517   0.117 -3.1594 -0.6601  1.8345
  312SOL    HW2 1247   1.661   2.519   0.037  1.5091  1.8163 -1.0813
  312SOL     MW 1248   1.751   2.514   0.040 -0.8856 -0.1139  0.0050
  313SOL     OW 1249   0.094   1.191   2.936  0.3743  0.2057 -0.2272
  313SOL    HW1 1250   0.160   1.186   3.008  1.9076 -2.2513  0.4364
  313SOL    HW2 1251   0.138   1.227   2.863  1.3550 -3.0627  1.8212
  313SOL     MW 1252   0.108   1.195   2.936  0.7060 -0.5497  0.1306
  314SOL     OW 1253   2.138   3.019   2.974 -0.1812 -0.1800 -0.0752
  314SOL    HW1 1254   2.078   3.054   2.912  1.8425  0.7898  1.1999
  314SOL    HW2 1255   2.170   3.086   3.029  0.1341 -0.4856 -1.6688
  314SOL     MW 1256   2.134   3.032   2.973  0.1274 -0.0924 -0.1172
  315SOL     OW 1257   1.542   1.958   3.031 -0.5750 -0.5159  0.3542
  315SOL    HW1 1258   1.473   2.014   3.078  0.2267 -1.6478  0.5832
  315SOL    HW2 1259   1.589   2.026   2.973  2.3273  2.7119 -1.3497
  315SOL     MW 1260   1.539   1.975   3.030 -0.0863 -0.2394  0.1596
  316SOL     OW 1261   1.250   0.661   2.709 -0.0787  0.1634 -0.4828
  316SOL    HW1 1262   1.338   0.639   2.671 -0.0979 -0.7515 -1.3116
  316SOL    HW2 1263   1.217   0.574   2.741 -0.9437 -0.9963  1.1848
  316SOL     MW 1264   1.257   0.647   2.708 -0.1954 -0.1103 -0.3721
  317SOL     OW 1265   0.667   1.422   2.632 -0.0854 -0.2492  0.0867
  317SOL    HW1 1266   0.688   1.354   2.695  1.3245  2.8137 -0.8981
  317SOL    HW2 1267   0.725   1.409   2.551  0.8559  0.6378 -4.5340
  317SOL     MW 1268   0.677   1.411   2.630  0.2248  0.2720 -0.6529
  318SOL     OW 1269   1.343   0.354   2.889  0.3492  0.1785  0.2373
  318SOL    HW1 1270   1.255   0.385   2.927 -0.1550  2.2877  2.9743
  318SOL    HW2 1271   1.392   0.433   2.876 -1.5924  1.3568 -2.3220
  318SOL     MW 1272   1.338   0.369   2.892  0.0265  0.6123  0.2608
  319SOL     OW 1273   0.801   0.445   2.829  0.1419  0.4692 -0.1009
  319SOL    HW1 1274   0.788   0.371   2.771  2.8983  1.0396  0.2796
  319SOL    HW2 1275   0.747   0.414   2.902  0.6571  0.4479  0.9098
  319SOL     MW 1276   0.792   0.431   2.831  0.5736  0.5416  0.0826
  320SOL     OW 1277   1.034   1.327   2.066  0.5661 -0.1111 -0.7395
  320SOL    HW1 1278   1.120   1.284   2.082 -1.6785  1.6012 -2.0889
  320SOL    HW2 1279   1.065   1.387   2.000 -2.2913  0.1343  0.9687
  320SOL     MW 1280   1.049   1.329   2.060 -0.1070  0.1472 -0.6922
  321SOL     OW 1281   1.070   0.954   3.042  0.0555  0.5439  0.6355
  321SOL    HW1 1282   0.991   0.952   2.986 -0.7874  0.3659 -0.0712
  321SOL    HW2 1283   1.115   0.870   3.032  2.6880  1.0373  0.3823
  321SOL     MW 1284   1.066   0.942   3.033  0.2916  0.5855  0.5088
  322SOL     OW 1285   1.184   0.853   1.736 -0.6821  0.3348  0.3609
  322SOL    HW1 1286   1.264   0.802   1.750  0.5476 -0.0198 -0.6371
  322SOL    HW2 1287   1.149   0.881   1.824 -2.0475  1.2153 -1.2038
  322SOL     MW 1288   1.190   0.850   1.749 -0.7000  0.4042  0.0227
  323SOL     OW 1289   1.170   1.513   1.876  0.4631 -0.0949 -0.4355
  323SOL    HW1 1290   1.178   1.448   1.811 -2.3637  1.5470  3.4809
  323SOL    HW2 1291   1.101   1.577   1.841 -1.8518 -1.0930 -0.5840
  323SOL     MW 1292   1.162   1.513   1.863 -0.2153 -0.0100  0.0616
  324SOL     OW 1293   1.529   1.067   2.484  0.3622 -0.3317 -0.0892
  324SOL    HW1 1294   1.431   1.097   2.493  1.0040  0.6459 -2.3982
  324SOL    HW2 1295   1.579   1.137   2.524 -4.0770 -0.6126 -1.6970
  324SOL     MW 1296   1.523   1.080   2.491 -0.1388 -0.2398 -0.6060
  325SOL     OW 1297   1.095   0.497   2.897 -0.0827 -0.1119  0.3852
  325SOL    HW1 1298   1.112   0.583   2.931  0.4289  2.1168  1.5763
  325SOL    HW2 1299   0.998   0.499   2.898  0.2403  1.5176 -1.6993
  325SOL     MW 1300   1.084   0.509   2.901  0.0274  0.3972  0.2673
  326SOL     OW 1301   0.438   1.335   2.219  0.1504  0.0705  0.1513
  326SOL    HW1 1302   0.502   1.312   2.151 -0.9578  1.1490 -0.6902
  326SOL    HW2 1303   0.445   1.430   2.233  0.9199  0.5121 -0.5048
  326SOL     MW 1304   0.448   1.344   2.212  0.1057  0.2710 -0.0463
  327SOL     OW 1305   1.890   0.910   2.398 -0.5325  0.1849 -0.0300
  327SOL    HW1 1306   1.873   0.853   2.474  1.9938 -0.8173  2.8958
  327SOL    HW2 1307   1.981   0.885   2.390 -1.6234 -0.1020  1.1311
  327SOL     MW 1308   1.900   0.899   2.407 -0.3431  0.0148  0.5092
  328SOL     OW 1309   0.179   1.261   2.226  0.8572 -0.1169 -0.0910
  328SOL    HW1 1310   0.149   1.202   2.156 -0.2088  2.0851  2.2505
  328SOL    HW2 1311   0.275   1.267   2.223  2.1510 -1.2990 -0.4517
  328SOL     MW 1312   0.187   1.254   2.216  0.8872  0.0177  0.1704
  329SOL     OW 1313   0.131   0.145   1.403 -0.1335 -0.7325  0.4363
  329SOL    HW1 1314   0.079   0.183   1.480 -1.5596  2.8913  3.5757
  329SOL    HW2 1315   0.201   0.204   1.396 -2.6050 -0.4691  0.6430
  329SOL     MW 1316   0.134   0.158   1.413 -0.6478 -0.2196  0.8778
  330SOL     OW 1317   0.373   2.977   2.049 -0.6543  0.3892 -0.0039
  330SOL    HW1 1318   0.417   3.038   2.104  2.4798 -3.3609 -0.0552
  330SOL    HW2 1319   0.312   2.928   2.108 -1.3894  0.5611  5.5188
  330SOL     MW 1320   0.371   2.978   2.064 -0.3378 -0.0829  0.7180
  331SOL     OW 1321   0.816   1.233   2.247 -0.2288 -0.2624  0.4543
  331SOL    HW1 1322   0.805   1.288   2.169  0.5693 -1.5740 -3.9845
  331SOL    HW2 1323   0.867   1.285   2.307 -1.8318  1.1466 -1.1146
  331SOL     MW 1324   0.822   1.247   2.245 -0.3350 -0.2496 -0.3383
  332SOL     OW 1325   1.354   1.757   2.967 -0.0413 -0.8349 -0.5059
  332SOL    HW1 1326   1.375   1.747   2.874  0.0049 -0.1619 -0.5163
  332SOL    HW2 1327   1.397   1.843   2.990 -1.4792  2.7877  0.9073
  332SOL     MW 1328   1.362   1.767   2.958 -0.2249 -0.2681 -0.3208
  333SOL     OW 1329   1.726   1.463   2.996  0.2046  0.1645  0.1393
  333SOL    HW1 1330   1.818   1.447   3.024  1.5924 -4.2837 -0.5787
  333SOL    HW2 1331   1.672   1.445   3.071 -0.2320 -1.5058  0.7443
  333SOL     MW 1332   1.731   1.459   3.009  0.3301 -0.6428  0.1244
  334SOL     OW 1333   1.296   3.059   2.646  0.3238  0.0267  0.0071
  334SOL    HW1 1334   1.203   3.063   2.676  1.6073 -0.5810 -2.7882
  334SOL    HW2 1335   1.342   3.145   2.662  4.4248  1.1181 -0.3610
  334SOL     MW 1336   1.290   3.071   2.652  1.0342  0.0905 -0.4103
  335SOL     OW 1337   1.265   0.753   3.052 -0.3219  0.0260  0.3703
  335SOL    HW1 1338   1.301   0.751   3.142 -1.4434  3.2085  0.2129
  335SOL    HW2 1339   1.346   0.777   3.009  1.8049 -0.5654 -0.1091
  335SOL     MW 1340   1.280   0.756   3.058 -0.1893  0.3679  0.2863
  336SOL     OW 1341   0.916   1.106   1.908 -0.7723  0.1939 -0.1899
  336SOL    HW1 1342   0.953   1.174   1.966  2.2135  1.8342  0.6224
  336SOL    HW2 1343   0.966   1.026   1.928  0.1468  0.7997  2.7586
  336SOL     MW 1344   0.928   1.105   1.919 -0.2571  0.4902  0.3063
  337SOL     OW 1345   0.493   1.790   2.843 -0.1576  0.0054 -0.0587
  337SOL    HW1 1346   0.431   1.792   2.767  0.3395  2.2745 -2.5917
  337SOL    HW2 1347   0.570   1.742   2.813 -0.8140  2.5422 -0.0223
  337SOL     MW 1348   0.495   1.784   2.829 -0.1786  0.6395 -0.3881
  338SOL     OW 1349   1.129   0.850   2.570 -0.0709  0.1735  0.2395
  338SOL    HW1 1350   1.057   0.802   2.529 -1.5797  3.7175  3.0214
  338SOL    HW2 1351   1.178   0.789   2.621  1.2008 -0.0473 -2.4771
  338SOL     MW 1352   1.126   0.835   2.571 -0.1022  0.6120  0.2481
  339SOL     OW 1353   1.592   1.065   1.833  0.2163  0.3247 -0.2050
  339SOL    HW1 1354   1.503   1.072   1.788  0.6762  0.3381  1.1772
  339SOL    HW2 1355   1.592   1.151   1.885  0.1399  1.2480  1.5770
  339SOL     MW 1356   1.580   1.077   1.834  0.2669  0.4483  0.2125
  340SOL     OW 1357   1.358   1.572   0.101 -0.0148 -0.3526 -0.1818
  340SOL    HW1 1358   1.340   1.631   0.024  1.0595 -1.3630 -0.9085
  340SOL    HW2 1359   1.455   1.557   0.106  0.4820 -1.0208 -1.1665
  340SOL     MW 1360   1.369   1.578   0.092  0.1925 -0.5740 -0.4076
  341SOL     OW 1361   0.138   1.321   2.675 -0.0802  0.5110 -0.3261
  341SOL    HW1 1362   0.220   1.368   2.651  0.2459  0.7333 -1.2772
  341SOL    HW2 1363   0.072   1.306   2.608 -0.2413  0.3205 -0.7692
  341SOL     MW 1364   0.140   1.325   2.663 -0.0584  0.5152 -0.5101
  342SOL     OW 1365   1.421   0.323   0.069  0.3069 -0.2608 -0.1092
  342SOL    HW1 1366   1.463   0.395   0.120 -1.4496  1.5349 -1.5353
  342SOL    HW2 1367   1.441   0.340  -0.025 -0.4330  0.5616  1.8003
  342SOL     MW 1368   1.429   0.335   0.063 -0.0225  0.0846 -0.0454
  343SOL     OW 1369   0.208   0.269   2.275  0.3024  0.0572 -1.0988
  343SOL    HW1 1370   0.232   0.203   2.345 -0.6976  0.6116 -1.2555
  343SOL    HW2 1371   0.149   0.221   2.208  0.7884 -2.1171  0.9946
  343SOL     MW 1372   0.203   0.254   2.276  0.2346 -0.1566 -0.8433
  344SOL     OW 1373   1.684   2.084   0.229 -0.1033 -0.3170  0.5139
  344SOL    HW1 1374   1.696   2.132   0.149 -1.6627 -0.2800  0.2610
  344SOL    HW2 1375   1.638   2.008   0.201  0.0713  3.2082  2.2973
  344SOL     MW 1376   1.680   2.080   0.215 -0.2860  0.1530  0.7158
  345SOL     OW 1377   0.684   1.599   2.368  0.4300 -0.3583  0.4092
  345SOL    HW1 1378   0.598   1.618   2.326  1.5986  0.7060  1.5395
  345SOL    HW2 1379   0.720   1.545   2.294 -0.0082  1.5974 -0.5175
  345SOL     MW 1380   0.677   1.594   2.353  0.5264  0.0401  0.4361
  346SOL     OW 1381   1.688   1.084   0.005  0.4990  0.2877 -0.2803
  346SOL    HW1 1382   1.781   1.072   0.037 -0.2385 -1.3370  1.8379
  346SOL    HW2 1383   1.638   1.056   0.079  0.4613  0.1224 -0.0876
  346SOL     MW 1384   1.694   1.079   0.019  0.3967  0.0516  0.0246
  347SOL     OW 1385   1.194   0.679   2.359  0.5657  0.5601 -0.1703
  347SOL    HW1 1386   1.289   0.662   2.350 -1.2295  0.6930 -1.3924
  347SOL    HW2 1387   1.191   0.735   2.440  0.5547  2.3165  0.0647
  347SOL     MW 1388   1.206   0.684   2.368  0.3274  0.8093 -0.3005
  348SOL     OW 1389   1.315   2.612   1.888  0.0470  0.0623 -0.2054
  348SOL    HW1 1390   1.367   2.534   1.898 -3.7594  0.4097  0.2077
  348SOL    HW2 1391   1.371   2.677   1.921  0.1926 -0.7171 -0.4119
  348SOL     MW 1392   1.330   2.611   1.893 -0.4360  0.0053 -0.1781
  349SOL     OW 1393   1.393   0.224   2.645  0.2919 -0.2116 -0.3513
  349SOL    HW1 1394   1.376   0.272   2.731  3.5377 -2.6972  2.6889
  349SOL    HW2 1395   1.482   0.187   2.666  0.7454  1.8286 -0.7328
  349SOL     MW 1396   1.402   0.226   2.659  0.7800 -0.2704 -0.0005
  350SOL     OW 1397   1.854   0.683   2.645 -0.1217  0.0918  0.1858
  350SOL    HW1 1398   1.802   0.612   2.604 -1.3730  1.3482  1.7390
  350SOL    HW2 1399   1.939   0.654   2.616 -0.1062  0.3260 -2.0732
  350SOL     MW 1400   1.859   0.670   2.636 -0.2848  0.2885  0.0927
  351SOL     OW 1401   0.076   0.938   1.619  0.4677  0.2979  0.0582
  351SOL    HW1 1402   0.012   0.986   1.670  0.9971  3.8278  1.0098
  351SOL    HW2 1403   0.138   1.006   1.585  0.8925 -0.7297 -3.2943
  351SOL     MW 1404   0.076   0.953   1.621  0.5936  0.6281 -0.2586
  352SOL     OW 1405   0.746   1.659   2.768  0.0538  0.0620 -0.2417
  352SOL    HW1 1406   0.785   1.629   2.847 -1.0362  2.3468  2.4853
  352SOL    HW2 1407   0.733   1.579   2.718  1.7768  1.0815  1.5087
  352SOL     MW 1408   0.749   1.644   2.772  0.1373  0.4980  0.3491
  353SOL     OW 1409   2.987   2.407   2.714 -0.4758  0.0893 -0.0760
  353SOL    HW1 1410   3.076   2.387   2.676 -0.2706 -1.5926 -1.6544
  353SOL    HW2 1411   2.962   2.488   2.672 -0.3210  0.8323  0.5098
  353SOL     MW 1412   2.996   2.415   2.704 -0.4283 -0.0346 -0.2070
  354SOL     OW 1413   0.426   2.390   0.860  0.1533  0.1745 -0.1855
  354SOL    HW1 1414   0.428   2.367   0.951 -0.5614 -0.1213 -0.3565
  354SOL    HW2 1415   0.357   2.335   0.822  0.1636  1.4716 -1.2644
  354SOL     MW 1416   0.417   2.379   0.867  0.0604  0.3066 -0.3504
  355SOL     OW 1417   0.073   2.186   0.401  0.0044 -0.1678  0.0832
  355SOL    HW1 1418  -0.013   2.158   0.368  0.8717 -1.9990 -0.6110
  355SOL    HW2 1419   0.057   2.224   0.486  0.2309 -2.4821 -0.0626
  355SOL     MW 1420   0.059   2.187   0.408  0.1487 -0.7148 -0.0276
  356SOL     OW 1421   0.860   2.952   1.020 -0.2503 -0.2622  0.3180
  356SOL    HW1 1422   0.908   2.940   0.931  2.2793  2.5024 -1.3253
  356SOL    HW2 1423   0.781   2.903   1.007  1.4370 -0.5848 -0.5177
  356SOL     MW 1424   0.856   2.944   1.006  0.3061  0.0600 -0.0091
  357SOL     OW 1425   1.771   2.886   0.371 -0.5911 -0.2658  0.1473
  357SOL    HW1 1426   1.707   2.841   0.418  0.4326  1.8129 -1.5640
  357SOL    HW2 1427   1.852   2.831   0.352  0.8440  1.3533  1.2570
  357SOL     MW 1428   1.773   2.873   0.375 -0.2667  0.2221  0.0679
  358SOL     OW 1429   0.418   0.156   1.033  0.4322 -0.0637  0.6111
  358SOL    HW1 1430   0.511   0.141   1.014  2.0303 -2.4383 -0.2449
  358SOL    HW2 1431   0.366   0.148   0.950 -2.7417  0.6257  0.3689
  358SOL     MW 1432   0.424   0.153   1.019  0.2243 -0.2860  0.4662
  359SOL     OW 1433   0.982   2.855   1.827 -0.0681  0.4353  0.1185
  359SOL    HW1 1434   0.940   2.782   1.863  1.9522  1.2916  1.2444
  359SOL    HW2 1435   1.025   2.842   1.738 -0.6562  3.7793  0.5258
  359SOL     MW 1436   0.982   2.843   1.820  0.1209  0.9895  0.3208
  360SOL     OW 1437   0.635   2.792   1.002  0.2810  0.5106  0.2756
  360SOL    HW1 1438   0.661   2.765   0.912  1.1037 -4.0129 -0.5702
  360SOL    HW2 1439   0.606   2.715   1.051  1.5744  0.7568 -1.9743
  360SOL     MW 1440   0.635   2.778   0.996  0.5602 -0.0538 -0.1328
  361SOL     OW 1441   0.176   2.720   1.362  0.1316  0.0403 -0.6279
  361SOL    HW1 1442   0.164   2.793   1.427  0.8242  0.0201  3.4080
  361SOL    HW2 1443   0.267   2.701   1.383 -3.3015 -0.2715  0.3948
  361SOL     MW 1444   0.186   2.727   1.373 -0.2300 -0.0035  0.0395
  362SOL     OW 1445   1.502   2.421   0.602 -0.1680 -0.4628  0.2344
  362SOL    HW1 1446   1.493   2.328   0.631 -0.6968 -2.2048 -3.3407
  362SOL    HW2 1447   1.493   2.484   0.674  3.1707 -3.0367  0.1745
  362SOL     MW 1448   1.499   2.417   0.616  0.2027 -1.0323 -0.2452
  363SOL     OW 1449   0.246   3.051   0.747  0.4821 -0.1045  0.3570
  363SOL    HW1 1450   0.233   3.015   0.832 -0.8686  3.3409 -1.5744
  363SOL    HW2 1451   0.160   3.068   0.699  0.7345  0.1496 -1.9754
  363SOL     MW 1452   0.233   3.049   0.752  0.3372  0.3836 -0.2056
  364SOL     OW 1453   0.688   0.176   0.201  0.6802  0.0230  0.8461
  364SOL    HW1 1454   0.676   0.082   0.195  0.3102  1.0160 -1.6673
  364SOL    HW2 1455   0.602   0.219   0.200 -4.0704 -1.3668 -1.8865
  364SOL     MW 1456   0.675   0.169   0.200  0.0046 -0.0293  0.1540
  365SOL     OW 1457   0.955   1.973   1.123 -0.0665 -0.1058  0.1178
  365SOL    HW1 1458   0.918   2.058   1.089  0.6481  1.4283 -0.7015
  365SOL    HW2 1459   0.912   1.906   1.065 -0.1002  1.4931  2.2021
  365SOL     MW 1460   0.944   1.976   1.111  0.0234  0.3076  0.2847
  366SOL     OW 1461   2.860   2.645   1.004  0.1072 -0.7561  0.3143
  366SOL    HW1 1462   2.931   2.644   1.063 -1.1081  0.6271 -1.0297
  366SOL    HW2 1463   2.900   2.661   0.913 -1.5549 -0.9003  1.7664
  366SOL     MW 1464   2.875   2.647   1.000 -0.2725 -0.5926  0.3286
  367SOL     OW 1465   1.274   2.831   0.879 -0.3755 -0.5105 -0.3750
  367SOL    HW1 1466   1.194   2.866   0.914  2.4903 -2.3846  0.8501
  367SOL    HW2 1467   1.242   2.785   0.794 -1.0001 -0.8523  0.2899
  367SOL     MW 1468   1.259   2.830   0.873 -0.0798 -0.8028 -0.1256
  368SOL     OW 1469   1.658   0.469   0.662  0.2535  0.0012  0.1577
  368SOL    HW1 1470   1.739   0.424   0.643  1.0192  0.8104 -1.2958
  368SOL    HW2 1471   1.663   0.565   0.639 -2.7922  0.7692  0.5441
  368SOL     MW 1472   1.669   0.476   0.656 -0.0473  0.2093  0.0169
  369SOL     OW 1473   0.111   2.472   1.732 -0.1057  0.2995 -0.6241
  369SOL    HW1 1474   0.202   2.464   1.760 -2.5242 -0.0509  1.7731
  369SOL    HW2 1475   0.082   2.554   1.769 -0.2974  1.9874  1.2747
  369SOL     MW 1476   0.119   2.482   1.740 -0.4501  0.4760 -0.0573
  370SOL     OW 1477   0.688   0.090   0.973  0.2661 -0.8632  0.0565
  370SOL    HW1 1478   0.737   0.172   0.950  1.4784 -2.2507  0.1640
  370SOL    HW2 1479   0.749   0.030   1.019 -0.0534 -0.6895 -0.7518
  370SOL     MW 1480   0.703   0.093   0.976  0.3839 -1.0234 -0.0359
  371SOL     OW 1481   1.312   2.962   1.484 -0.1091 -0.3603 -0.2143
  371SOL    HW1 1482   1.249   2.901   1.437  3.6810 -1.3033 -0.9031
  371SOL    HW2 1483   1.317   3.044   1.427 -0.6245 -0.3103  0.9523
  371SOL     MW 1484   1.304   2.965   1.470  0.3229 -0.4781 -0.1513
  372SOL     OW 1485   0.826   2.267   0.510  0.3732  0.3816  0.1765
  372SOL    HW1 1486   0.800   2.173   0.499  2.8886 -0.5108  0.1310
  372SOL    HW2 1487   0.846   2.299   0.424  0.1819 -1.0344 -0.2811
  372SOL     MW 1488   0.825   2.259   0.497  0.6798  0.0770  0.1101
  373SOL     OW 1489   2.875   3.026   1.418 -0.3390  0.4137 -0.5317
  373SOL    HW1 1490   2.927   2.986   1.348 -1.2734  0.8983  0.3996
  373SOL    HW2 1491   2.859   3.111   1.370 -0.6055  0.4903  1.1379
  373SOL     MW 1492   2.879   3.032   1.402 -0.4974  0.4877 -0.1886
  374SOL     OW 1493   1.509   0.550   0.258  0.0750  0.0048  0.4474
  374SOL    HW1 1494   1.603   0.585   0.262  4.3532 -0.1587 -1.9762
  374SOL    HW2 1495   1.476   0.511   0.346  1.4376 -1.4729 -1.3124
  374SOL     MW 1496   1.517   0.550   0.270  0.8193 -0.2118 -0.1046
  375SOL     OW 1497   1.147   2.113   2.311 -0.2329  0.2663  0.9674
  375SOL    HW1 1498   1.156   2.137   2.404  0.1092  0.1332 -2.4764
  375SOL    HW2 1499   1.151   2.016   2.307 -1.9380  0.6244  1.3531
  375SOL     MW 1500   1.149   2.104   2.323 -0.4127  0.2960  0.5639
  376SOL     OW 1501   0.662   2.531   0.119  0.5655 -0.3190  0.0063
  376SOL    HW1 1502   0.689   2.444   0.161  1.3336 -1.4704 -1.9443
  376SOL    HW2 1503   0.623   2.492   0.045  1.2563  2.6416  0.2589
  376SOL     MW 1504   0.660   2.514   0.115  0.7580 -0.0803 -0.2178
  377SOL     OW 1505   1.279   2.014   0.867  0.7479 -0.6642 -0.8091
  377SOL    HW1 1506   1.200   1.990   0.814  0.9123 -0.6265 -0.8308
  377SOL    HW2 1507   1.284   1.946   0.939 -1.3028  1.4552  0.4270
  377SOL     MW 1508   1.269   2.002   0.869  0.4990 -0.3796 -0.6489
  378SOL     OW 1509   1.007   2.780   1.557  0.2508 -0.5957 -0.0567
  378SOL    HW1 1510   0.949   2.699   1.577  0.2997 -0.8832  0.7781
  378SOL    HW2 1511   0.943   2.849   1.528 -0.4439 -0.2415 -1.2007
  378SOL     MW 1512   0.991   2.779   1.556  0.1656 -0.5869 -0.0975
  379SOL     OW 1513   1.091   1.815   2.272  0.3895 -0.7265 -0.4256
  379SOL    HW1 1514   0.995   1.791   2.281  0.5338  0.8788  2.7294
  379SOL    HW2 1515   1.133   1.753   2.210  0.4269 -0.1191  1.4822
  379SOL     MW 1516   1.084   1.803   2.265  0.4134 -0.4346  0.2424
  380SOL     OW 1517   0.868   0.168   1.525 -0.3676 -0.9501  0.5678
  380SOL    HW1 1518   0.902   0.138   1.441 -0.1869  3.7700  1.0242
  380SOL    HW2 1519   0.943   0.167   1.584 -1.0478 -1.1771 -3.9218
  380SOL     MW 1520   0.882   0.164   1.522 -0.4335 -0.3573  0.0356
  381SOL     OW 1521   0.789   1.982   0.785  0.0753 -0.6036 -0.1846
  381SOL    HW1 1522   0.886   1.979   0.779 -1.0386 -1.1691  0.2570
  381SOL    HW2 1523   0.767   2.050   0.850  0.6960 -0.9440 -2.6678
  381SOL     MW 1524   0.799   1.990   0.793  0.0102 -0.7231 -0.4540
  382SOL     OW 1525   0.733   0.016   0.706 -0.3293  0.7279  0.0791
  382SOL    HW1 1526   0.693   0.035   0.794  0.0163  1.3696  1.7091
  382SOL    HW2 1527   0.681  -0.061   0.672 -0.2855 -1.8725  0.2089
  382SOL     MW 1528   0.721   0.009   0.713 -0.2779  0.4695  0.3113
  383SOL     OW 1529   0.461   0.052   0.382 -0.5521 -0.0570 -0.3375
  383SOL    HW1 1530   0.523  -0.010   0.364 -1.8460 -0.9996  2.3277
  383SOL    HW2 1531   0.374   0.007   0.392 -0.8655 -0.4418  2.3269
  383SOL     MW 1532   0.457   0.038   0.381 -0.7642 -0.2322  0.3657
  384SOL     OW 1533   0.606   2.903   0.614  0.3781 -0.1270  1.0727
  384SOL    HW1 1534   0.648   2.822   0.638 -1.3165  2.9826  0.2334
  384SOL    HW2 1535   0.510   2.887   0.611 -0.7796 -0.4143 -0.9757
  384SOL     MW 1536   0.599   2.890   0.617  0.0018  0.2454  0.6917
  385SOL     OW 1537   1.314   2.061   1.560 -0.0164 -0.2516 -0.1610
  385SOL    HW1 1538   1.391   2.067   1.623  0.9453 -0.1942  2.2805
  385SOL    HW2 1539   1.272   1.975   1.585 -0.7533  0.2167  0.0075
  385SOL     MW 1540   1.319   2.050   1.572  0.0133 -0.1822  0.1834
  386SOL     OW 1541   1.363   0.389   0.847 -0.3295 -0.3933 -0.7685
  386SOL    HW1 1542   1.286   0.338   0.824  1.5013 -1.0613  0.1115
  386SOL    HW2 1543   1.349   0.404   0.938 -0.2451 -0.8093 -2.3909
  386SOL     MW 1544   1.351   0.385   0.856 -0.0768 -0.5363 -0.8665
  387SOL     OW 1545   0.825   2.176   1.483 -0.0894  0.1698 -0.1137
  387SOL    HW1 1546   0.892   2.229   1.441 -1.3398 -3.4833  0.9333
  387SOL    HW2 1547   0.855   2.082   1.466  0.9572  2.1030  2.9004
  387SOL     MW 1548   0.838   2.170   1.475 -0.1163 -0.0571  0.4221
  388SOL     OW 1549   1.487   2.804   1.208  0.0381 -0.2385  0.4761
  388SOL    HW1 1550   1.418   2.745   1.177  0.0466  0.1399 -0.2375
  388SOL    HW2 1551   1.563   2.765   1.163  0.3375 -1.5378 -1.6972
  388SOL     MW 1552   1.488   2.791   1.198  0.0787 -0.3600  0.0952
  389SOL     OW 1553   0.364   0.157   3.099 -0.3031 -0.9485 -0.2589
  389SOL    HW1 1554   0.431   0.142   3.031  1.6746 -0.3771 -0.8091
  389SOL    HW2 1555   0.274   0.160   3.061 -3.7707  0.0339 -1.0406
  389SOL     MW 1556   0.361   0.156   3.085 -0.4997 -0.7435 -0.4346
  390SOL     OW 1557   1.350   0.024   0.622 -0.4077 -0.6863 -0.3274
  390SOL    HW1 1558   1.435   0.065   0.603  1.9779  0.7267 -0.1203
  390SOL    HW2 1559   1.347   0.011   0.719  0.4705  1.5449  0.6046
  390SOL     MW 1560   1.361   0.027   0.632  0.0230 -0.2055 -0.1771
  391SOL     OW 1561   0.305   2.281   1.473  0.0337  0.1578  0.2249
  391SOL    HW1 1562   0.251   2.206   1.493  0.3426 -1.0108 -1.4006
  391SOL    HW2 1563   0.247   2.354   1.452  0.6974 -2.8256 -0.8420
  391SOL     MW 1564   0.290   2.281   1.473  0.1621 -0.3901 -0.1303
  392SOL     OW 1565   1.992   2.205   0.331  0.0034  0.4206 -0.1317
  392SOL    HW1 1566   1.924   2.266   0.364  1.3365 -0.4550 -1.3154
  392SOL    HW2 1567   2.053   2.194   0.406 -0.9276  0.7297  0.1684
  392SOL     MW 1568   1.991   2.211   0.345  0.0564  0.3459 -0.2483
  393SOL     OW 1569   0.236   2.994   2.814 -0.2489 -0.4207 -0.4199
  393SOL    HW1 1570   0.279   3.085   2.806 -0.4622  3.0643  0.0734
  393SOL    HW2 1571   0.147   3.011   2.778 -1.0377 -0.0219 -1.6633
  393SOL     MW 1572   0.230   3.009   2.808 -0.3811  0.0917 -0.5188
  394SOL     OW 1573   0.844   1.648   1.444  0.3181  0.6858  0.6839
  394SOL    HW1 1574   0.790   1.664   1.523 -0.0183 -0.8701  0.1083
  394SOL    HW2 1575   0.885   1.736   1.434  2.1473 -1.1611  0.1532
  394SOL     MW 1576   0.842   1.661   1.453  0.5151  0.2369  0.5379
  395SOL     OW 1577   0.924   2.888   2.614 -0.0640 -0.2135 -0.0888
  395SOL    HW1 1578   0.956   2.964   2.663 -1.0620 -0.6591  0.6036
  395SOL    HW2 1579   1.005   2.838   2.579 -1.0227 -0.8837  1.0954
  395SOL     MW 1580   0.939   2.891   2.616 -0.3222 -0.3607  0.1588
  396SOL     OW 1581   0.794   1.848   2.400  0.2848  0.1084 -0.6855
  396SOL    HW1 1582   0.848   1.838   2.476 -0.5305  0.4077 -1.2715
  396SOL    HW2 1583   0.752   1.763   2.384 -1.5919  0.0205  3.8846
  396SOL     MW 1584   0.796   1.835   2.408 -0.0703  0.1363 -0.1599
  397SOL     OW 1585   1.015   2.340   1.347 -0.0116  0.4471 -0.3178
  397SOL    HW1 1586   1.050   2.415   1.297  0.1815 -0.1129  2.0415
  397SOL    HW2 1587   1.087   2.325   1.405 -1.5761 -2.0160  2.6771
  397SOL     MW 1588   1.029   2.348   1.348 -0.1925  0.0482  0.3887
  398SOL     OW 1589   0.683   2.671   0.734 -0.6856  0.0492  0.0706
  398SOL    HW1 1590   0.603   2.634   0.694  0.4311  1.5869  3.3016
  398SOL    HW2 1591   0.760   2.621   0.713  2.8478  0.8646  2.4898
  398SOL     MW 1592   0.682   2.660   0.726 -0.0721  0.3596  0.8161
  399SOL     OW 1593   0.272   2.004   0.407  0.1880  0.1425  0.8562
  399SOL    HW1 1594   0.213   2.081   0.397 -0.4183  1.8036  0.3465
  399SOL    HW2 1595   0.347   2.019   0.340 -0.6031 -1.3676 -1.9902
  399SOL     MW 1596   0.274   2.016   0.397  0.0036  0.1624  0.4134
  400SOL     OW 1597   0.593   1.839   0.143 -0.3716 -0.0408  0.1235
  400SOL    HW1 1598   0.573   1.929   0.157  0.0472 -1.0316 -0.9091
  400SOL    HW2 1599   0.565   1.807   0.228 -1.4071 -0.1864 -1.1732
  400SOL     MW 1600   0.587   1.846   0.156 -0.4530 -0.1907 -0.1838
  401SOL     OW 1601   0.947   2.067   0.182 -0.6285 -0.5627  0.7433
  401SOL    HW1 1602   0.946   1.980   0.209  1.0831  3.4253 -1.1659
  401SOL    HW2 1603   1.032   2.104   0.210  2.0372 -0.2766  0.4845
  401SOL     MW 1604   0.958   2.061   0.189 -0.0510  0.0012  0.4573
  402SOL     OW 1605   0.708   2.921   1.707  0.0063  0.3818 -0.4590
  402SOL    HW1 1606   0.648   2.906   1.779 -1.1149  0.6108  2.1365
  402SOL    HW2 1607   0.795   2.911   1.743 -0.3571  4.9655 -1.3870
  402SOL     MW 1608   0.712   2.918   1.721 -0.1896  1.0168 -0.2390
  403SOL     OW 1609   0.061   0.452   0.435  0.0188 -1.0928  0.1702
  403SOL    HW1 1610   0.145   0.476   0.475 -0.8500 -2.9708 -1.5617
  403SOL    HW2 1611   0.086   0.404   0.350 -0.6245  1.2816  0.1403
  403SOL     MW 1612   0.075   0.449   0.429 -0.1807 -1.0273 -0.0623
  404SOL     OW 1613   1.012   2.890   0.800  0.2105 -0.0340 -0.1281
  404SOL    HW1 1614   1.058   2.823   0.739  1.5715 -0.2267 -0.8336
  404SOL    HW2 1615   1.023   2.981   0.765 -0.9998 -0.6178  1.0235
  404SOL     MW 1616   1.020   2.893   0.787  0.2304 -0.1365 -0.0692
  405SOL     OW 1617   0.486   2.476   1.554  0.2050  0.2100 -0.1707
  405SOL    HW1 1618   0.503   2.548   1.487 -0.3775 -1.7625  2.1201
  405SOL    HW2 1619   0.438   2.402   1.520 -1.8850 -1.9692  1.5016
  405SOL     MW 1620   0.482   2.476   1.541 -0.1476 -0.3378  0.3522
  406SOL     OW 1621   0.406   2.322   1.126  0.0222 -0.3339 -0.5294
  406SOL    HW1 1622   0.310   2.301   1.129  1.4171 -0.9078  2.9151
  406SOL    HW2 1623   0.444   2.269   1.192 -2.0858 -1.8900 -0.0800
  406SOL     MW 1624   0.398   2.312   1.135 -0.0719 -0.6149 -0.0156
  407SOL     OW 1625   0.046   2.719   1.113  0.3664  0.1390  0.2905
  407SOL    HW1 1626   0.093   2.725   1.198 -0.1852 -0.5156 -0.8915
  407SOL    HW2 1627   0.102   2.657   1.057 -0.9299  1.2126  2.7385
  407SOL     MW 1628   0.059   2.712   1.117  0.1226  0.1943  0.4576
  408SOL     OW 1629   2.118   2.091   0.627 -0.8827 -0.5713  0.6226
  408SOL    HW1 1630   2.072   2.145   0.685 -0.1095 -2.7142 -2.3940
  408SOL    HW2 1631   2.045   2.040   0.586  2.0481 -0.8654  0.8580
  408SOL     MW 1632   2.103   2.092   0.629 -0.3940 -0.8928  0.2556
  409SOL     OW 1633   1.315   0.060   0.885  0.3699  0.0224 -0.3579
  409SOL    HW1 1634   1.370   0.134   0.898  1.3391 -3.8277  0.9494
  409SOL    HW2 1635   1.368  -0.010   0.931 -0.8522 -0.4147 -1.1113
  409SOL     MW 1636   1.329   0.061   0.893  0.3365 -0.5433 -0.2848
  410SOL     OW 1637   1.086   2.500   1.089  0.2511 -1.2673  0.7172
  410SOL    HW1 1638   0.997   2.492   1.045 -1.5465  1.7148  1.0299
  410SOL    HW2 1639   1.131   2.417   1.066 -0.9791  1.0354 -1.5330
  410SOL     MW 1640   1.080   2.488   1.080 -0.1484 -0.5700  0.4615
  411SOL     OW 1641   1.951   0.101   2.832 -0.5870 -0.5406  0.5888
  411SOL    HW1 1642   1.901   0.080   2.755 -0.1448 -1.5249 -0.6322
  411SOL    HW2 1643   1.890   0.083   2.911 -1.4045 -0.6859  2.9071
  411SOL     MW 1644   1.936   0.096   2.832 -0.6365 -0.6896  0.7336
  412SOL     OW 1645   1.099   2.197   0.584 -0.5032 -0.1763  0.5782
  412SOL    HW1 1646   1.137   2.274   0.625 -0.3338  0.5912 -0.5423
  412SOL    HW2 1647   1.012   2.222   0.555 -0.8300  2.5830 -2.8481
  412SOL     MW 1648   1.093   2.210   0.585 -0.5240  0.2890 -0.0217
  413SOL     OW 1649   0.548   2.793   0.112 -0.0335 -0.1544 -1.0265
  413SOL    HW1 1650   0.585   2.706   0.132  0.5984 -1.4761 -1.2399
  413SOL    HW2 1651   0.588   2.828   0.032  3.0762  4.2148  1.3436
  413SOL     MW 1652   0.558   2.786   0.104  0.4602  0.2477 -0.7420
  414SOL     OW 1653   1.973   3.076   1.078  0.0873  0.0686 -0.0121
  414SOL    HW1 1654   1.907   3.050   1.009  0.0131 -0.6726  0.2203
  414SOL    HW2 1655   2.031   3.002   1.082 -1.4301 -0.2482  1.5124
  414SOL     MW 1656   1.972   3.063   1.070 -0.1227 -0.0710  0.2197
  415SOL     OW 1657   1.723   2.663   1.064 -0.2100 -0.2745  0.2756
  415SOL    HW1 1658   1.667   2.623   1.135 -0.3779  0.3764  1.8706
  415SOL    HW2 1659   1.808   2.662   1.108  0.3991 -0.0677  3.5637
  415SOL     MW 1660   1.727   2.658   1.079 -0.1518 -0.1613  0.9199
  416SOL     OW 1661   0.602   1.918   1.394 -0.3868 -0.1793  0.2063
  416SOL    HW1 1662   0.535   1.982   1.363 -1.7095  0.0907 -0.2530
  416SOL    HW2 1663   0.627   1.879   1.311 -0.1987  2.8731 -0.1776
  416SOL     MW 1664   0.596   1.921   1.379 -0.5365  0.2591  0.0950
  417SOL     OW 1665   1.013   3.037   2.020 -0.1845 -0.2705  0.4590
  417SOL    HW1 1666   0.926   3.022   2.057 -0.6919 -0.4584 -2.8678
  417SOL    HW2 1667   1.018   2.982   1.944  1.1840  0.9852  1.6205
  417SOL     MW 1668   1.002   3.028   2.015 -0.0709 -0.1296  0.1733
  418SOL     OW 1669   0.701   2.992   0.221 -0.8012 -0.3897  0.5106
  418SOL    HW1 1670   0.767   2.997   0.152 -1.0566  3.1675  0.8341
  418SOL    HW2 1671   0.640   2.924   0.188  0.3551  1.8945 -0.2365
  418SOL     MW 1672   0.702   2.984   0.208 -0.6823  0.3810  0.4547
  419SOL     OW 1673   0.452   2.684   1.373  0.2058 -0.6237  0.0985
  419SOL    HW1 1674   0.511   2.756   1.393 -1.3330  1.7225 -0.6333
  419SOL    HW2 1675   0.488   2.645   1.293 -1.6916 -0.9858 -0.8141
  419SOL     MW 1676   0.465   2.688   1.365 -0.2476 -0.3619 -0.1185
  420SOL     OW 1677   0.801   2.194   0.999 -0.6345 -0.5272 -0.1565
  420SOL    HW1 1678   0.764   2.202   1.085 -2.2556  0.6764 -1.0719
  420SOL    HW2 1679   0.849   2.274   0.974 -0.2518 -1.3879  2.3243
  420SOL     MW 1680   0.802   2.206   1.007 -0.7979 -0.4820  0.0501
  421SOL     OW 1681   2.940   0.062   0.030 -0.0445 -0.2478  0.5866
  421SOL    HW1 1682   2.920   0.001  -0.040  0.4515 -2.7032  0.9924
  421SOL    HW2 1683   2.952   0.001   0.101 -0.7105  2.9263 -1.1946
  421SOL     MW 1684   2.939   0.046   0.030 -0.0670 -0.1530  0.4051
  422SOL     OW 1685   0.887   2.432   0.925 -0.4832  0.1481  0.8739
  422SOL    HW1 1686   0.797   2.450   0.944 -0.9541  0.5855  0.3067
  422SOL    HW2 1687   0.889   2.457   0.835 -1.0983 -2.2053  0.6903
  422SOL     MW 1688   0.876   2.438   0.916 -0.6265 -0.1047  0.7749
  423SOL     OW 1689   1.561   0.165   0.499 -0.4989 -0.1695  0.2937
  423SOL    HW1 1690   1.549   0.136   0.408 -0.5163  2.0614  0.9385
  423SOL    HW2 1691   1.523   0.250   0.487  1.2416 -0.8798 -1.2666
  423SOL     MW 1692   1.555   0.172   0.486 -0.2716  0.0311  0.1729
  424SOL     OW 1693   0.698   2.256   1.241 -0.2667  0.6495 -0.0945
  424SOL    HW1 1694   0.603   2.229   1.264 -1.2259 -0.1223  3.6840
  424SOL    HW2 1695   0.742   2.221   1.321 -0.7324  1.2780 -1.9676
  424SOL     MW 1696   0.691   2.248   1.254 -0.4547  0.6306  0.1569
  425SOL     OW 1697   1.757   2.840   1.964 -0.1285 -0.2148 -0.7134
  425SOL    HW1 1698   1.774   2.856   1.873 -0.9687 -2.8480  0.0633
  425SOL    HW2 1699   1.759   2.746   1.977 -1.2732 -0.2828 -0.0944
  425SOL     MW 1700   1.759   2.830   1.954 -0.3904 -0.5712 -0.5293
  426SOL     OW 1701   0.768   1.681   1.944  0.2774  0.7449  0.3519
  426SOL    HW1 1702   0.706   1.695   1.875 -0.6176 -0.1814 -1.4335
  426SOL    HW2 1703   0.758   1.757   2.001 -0.6590  1.0345  1.6555
  426SOL     MW 1704   0.759   1.693   1.942  0.0358  0.6609  0.2883
  427SOL     OW 1705   0.372   1.569   1.885 -0.6811 -0.5166  0.1191
  427SOL    HW1 1706   0.419   1.644   1.925  1.5019  3.6919 -1.8050
  427SOL    HW2 1707   0.330   1.528   1.958 -1.2349  1.7923  2.8081
  427SOL     MW 1708   0.373   1.573   1.900 -0.4662  0.3433  0.2200
  428SOL     OW 1709   0.556   2.560   1.157 -0.2433 -0.6698  0.4218
  428SOL    HW1 1710   0.627   2.537   1.214  1.4359 -0.3140  0.0131
  428SOL    HW2 1711   0.514   2.477   1.122 -0.5941 -1.7811 -1.4261
  428SOL     MW 1712   0.560   2.546   1.160 -0.0680 -0.7695  0.1241
  429SOL     OW 1713   1.330   2.639   1.063  0.6294 -0.3175  0.5999
  429SOL    HW1 1714   1.254   2.599   1.103 -0.2118  1.5738  0.8946
  429SOL    HW2 1715   1.292   2.720   1.018  0.3570 -0.6290 -1.1586
  429SOL     MW 1716   1.315   2.644   1.062  0.4825 -0.1091  0.4068
  430SOL     OW 1717   1.158   2.691   0.660 -0.2939 -0.3493  0.0730
  430SOL    HW1 1718   1.152   2.596   0.658 -0.7486 -0.2641  0.0279
  430SOL    HW2 1719   1.121   2.710   0.572  0.1715 -2.2316 -0.3073
  430SOL     MW 1720   1.152   2.681   0.648 -0.2925 -0.5864  0.0169
  431SOL     OW 1721   0.322   1.965   1.131  0.6565 -0.1956 -0.3834
  431SOL    HW1 1722   0.401   1.918   1.122 -2.7553  0.2344 -2.7853
  431SOL    HW2 1723   0.289   1.975   1.040 -0.8290  3.4551  0.7781
  431SOL     MW 1724   0.328   1.960   1.118  0.0103  0.3428 -0.5471
  432SOL     OW 1725   0.036   0.069   1.157 -0.2574  0.5948  0.3786
  432SOL    HW1 1726   0.064   0.103   1.249 -0.2848  1.1196 -2.4896
  432SOL    HW2 1727  -0.006  -0.020   1.158  1.7733 -1.5401 -0.3761
  432SOL     MW 1728   0.034   0.062   1.169  0.0069  0.3824 -0.0994
  433SOL     OW 1729   0.622   2.870   1.446 -0.4381  0.1225 -0.3451
  433SOL    HW1 1730   0.636   2.865   1.544 -1.9665  0.0760 -1.5119
  433SOL    HW2 1731   0.710   2.856   1.403  1.6728 -0.4334  0.6815
  433SOL     MW 1732   0.636   2.867   1.453 -0.3613  0.0430 -0.3636
  434SOL     OW 1733   1.545   2.823   1.542 -0.3311  0.1785  0.4400
  434SOL    HW1 1734   1.471   2.885   1.531 -2.0187  0.9687  0.9254
  434SOL    HW2 1735   1.548   2.772   1.459  1.8738  0.1793  1.3359
  434SOL     MW 1736   1.536   2.825   1.530 -0.2628  0.2828  0.6222
  435SOL     OW 1737   2.876   1.787   0.230  0.1629 -0.3776  0.1639
  435SOL    HW1 1738   2.929   1.850   0.180  2.9488  0.0384  2.1858
  435SOL    HW2 1739   2.848   1.725   0.152 -2.8046 -0.3887 -3.2376
  435SOL     MW 1740   2.879   1.787   0.213  0.1389 -0.3242 -0.0181
  436SOL     OW 1741   1.403   2.770   0.312 -0.4575 -0.0141 -0.2727
  436SOL    HW1 1742   1.456   2.763   0.393 -0.2095 -1.0947  0.9429
  436SOL    HW2 1743   1.350   2.853   0.340  0.5511  2.3565  3.0350
  436SOL     MW 1744   1.403   2.780   0.327 -0.2917  0.1561  0.3241
  437SOL     OW 1745   0.888   2.936   1.355  0.0896 -0.0984  0.7916
  437SOL    HW1 1746   0.901   3.030   1.338 -0.6940  0.5669 -0.1199
  437SOL    HW2 1747   0.907   2.897   1.268 -0.7569 -2.9136 -0.0454
  437SOL     MW 1748   0.892   2.943   1.341 -0.1254 -0.3821  0.5609
  438SOL     OW 1749   0.882   2.608   1.996  0.4637  0.5032 -0.2192
  438SOL    HW1 1750   0.871   2.547   2.064  1.7876 -0.4400 -2.5017
  438SOL    HW2 1751   0.818   2.569   1.935  2.3898 -2.3799  1.7021
  438SOL     MW 1752   0.872   2.595   1.997  0.8925 -0.0017 -0.2668
  439SOL     OW 1753   1.174   2.169   0.327  0.1115 -0.0239 -0.2256
  439SOL    HW1 1754   1.141   2.169   0.422  1.0377 -2.9427  2.8806
  439SOL    HW2 1755   1.168   2.257   0.291 -2.3514  1.1007  0.1193
  439SOL     MW 1756   1.169   2.181   0.335 -0.0913 -0.2607  0.2298
  440SOL     OW 1757   1.611   2.974   3.017 -0.3802  0.1299  0.2928
  440SOL    HW1 1758   1.576   2.964   3.104 -0.5240 -0.4470 -1.9319
  440SOL    HW2 1759   1.666   2.893   3.007 -0.9605 -2.5340  2.1264
  440SOL     MW 1760   1.614   2.962   3.027 -0.4757 -0.2977  0.2412
  441SOL     OW 1761   0.312   2.563   0.533  0.3302 -0.0700 -0.1219
  441SOL    HW1 1762   0.313   2.541   0.435 -0.3727 -0.7170 -0.6831
  441SOL    HW2 1763   0.318   2.664   0.537  1.9925  0.4232  3.3775
  441SOL     MW 1764   0.313   2.573   0.521  0.4568 -0.0903  0.2658
  442SOL     OW 1765   0.010   2.311   0.614 -0.2850 -0.0205  0.1625
  442SOL    HW1 1766   0.005   2.404   0.597  2.8602  0.1736  0.3498
  442SOL    HW2 1767  -0.068   2.294   0.668  2.4360 -1.3947  1.9600
  442SOL     MW 1768  -0.001   2.321   0.619  0.4890 -0.1762  0.4244
  443SOL     OW 1769   1.367   1.728   1.824  0.3302  0.2306  0.3439
  443SOL    HW1 1770   1.324   1.776   1.753 -1.5372  1.0737 -2.7526
  443SOL    HW2 1771   1.314   1.647   1.820  0.0138  1.8036 -3.2570
  443SOL     MW 1772   1.354   1.723   1.814  0.0421  0.5494 -0.5398
  444SOL     OW 1773   0.836   2.576   1.590 -0.1719  0.2975 -0.6722
  444SOL    HW1 1774   0.908   2.529   1.635  2.8595  3.0583  2.9545
  444SOL    HW2 1775   0.757   2.562   1.647 -1.1767 -2.8668  2.0136
  444SOL     MW 1776   0.835   2.568   1.604  0.0955  0.2443  0.1607
  445SOL     OW 1777   0.990   0.086   1.270  0.2530  0.1605 -0.4188
  445SOL    HW1 1778   0.934   0.156   1.237  0.4578 -1.8679 -2.6950
  445SOL    HW2 1779   1.079   0.118   1.242  0.4610 -0.8087  1.1206
  445SOL     MW 1780   0.995   0.099   1.262  0.3074 -0.2350 -0.5160
  446SOL     OW 1781   2.755   2.897   1.016 -0.0384 -0.6105  0.6117
  446SOL    HW1 1782   2.678   2.912   0.955 -0.6622 -1.4187 -0.7098
  446SOL    HW2 1783   2.783   2.801   1.014 -1.2189 -0.9154  1.8327
  446SOL     MW 1784   2.748   2.886   1.008 -0.2764 -0.7574  0.5984
  447SOL     OW 1785   3.041   2.048   1.752  0.0213 -0.5961 -1.1817
  447SOL    HW1 1786   3.128   1.998   1.779 -0.6020 -1.9623  1.7332
  447SOL    HW2 1787   2.981   1.994   1.698 -1.5105 -0.8012 -0.0513
  447SOL     MW 1788   3.045   2.035   1.749 -0.2630 -0.8034 -0.6480
  448SOL     OW 1789   1.683   2.336   1.659 -0.1852 -0.2927  0.1252
  448SOL    HW1 1790   1.615   2.269   1.674  0.4290  1.9011  2.8133
  448SOL    HW2 1791   1.623   2.416   1.668 -0.1717  2.2149  0.3873
  448SOL     MW 1792   1.666   2.337   1.662 -0.1024  0.3276  0.5145
  449SOL     OW 1793   0.828   2.931   0.456  0.2345  1.1449 -0.2565
  449SOL    HW1 1794   0.786   2.938   0.369 -1.4352 -2.4313  0.0840
  449SOL    HW2 1795   0.753   2.941   0.514  2.2302 -0.1688 -0.2069
  449SOL     MW 1796   0.813   2.934   0.452  0.2775  0.4998 -0.2051
  450SOL     OW 1797   1.215   2.416   0.688  0.3304  0.1378 -0.2058
  450SOL    HW1 1798   1.218   2.365   0.771 -3.2479  2.0968 -1.1042
  450SOL    HW2 1799   1.305   2.443   0.675 -0.8983  2.0294 -0.1641
  450SOL     MW 1800   1.227   2.413   0.697 -0.3038  0.6459 -0.3189
  451SOL     OW 1801   0.603   2.014   1.659  0.0448  0.5920 -0.2162
  451SOL    HW1 1802   0.690   2.038   1.666 -1.9240 -0.0287 -1.8156
  451SOL    HW2 1803   0.592   1.997   1.563 -0.2790  1.8078 -0.6045
  451SOL     MW 1804   0.613   2.015   1.647 -0.2577  0.6705 -0.4785
  452SOL     OW 1805   0.279   2.750   0.149 -0.0090 -0.2214 -0.4394
  452SOL    HW1 1806   0.369   2.773   0.139 -0.9623  2.0775 -0.9270
  452SOL    HW2 1807   0.258   2.712   0.061  0.8173  0.0550  2.4198
  452SOL     MW 1808   0.288   2.748   0.136 -0.0258  0.1184 -0.1265
  453SOL     OW 1809   0.381   2.994   1.669  0.1637 -0.2430  0.2248
  453SOL    HW1 1810   0.451   3.063   1.660  0.4808  0.5216  2.4488
  453SOL    HW2 1811   0.346   2.972   1.585 -1.1765  0.1560 -0.8891
  453SOL     MW 1812   0.386   3.000   1.656  0.0287 -0.0895  0.3713
  454SOL     OW 1813   1.073   2.802   1.090 -0.7108  0.1204  0.4127
  454SOL    HW1 1814   1.072   2.715   1.045  0.0180  1.4723 -2.2828
  454SOL    HW2 1815   0.990   2.849   1.067 -1.3532  1.8996 -3.1712
  454SOL     MW 1816   1.062   2.797   1.081 -0.6994  0.5335 -0.4158
  455SOL     OW 1817   1.549   2.950   0.188 -0.1585  0.3913 -0.0501
  455SOL    HW1 1818   1.630   2.947   0.232 -0.2565  1.1482  0.9426
  455SOL    HW2 1819   1.502   2.875   0.227  0.5887  0.6664  0.0989
  455SOL     MW 1820   1.554   2.940   0.199 -0.0728  0.5274  0.1006
  456SOL     OW 1821   2.952   0.347   1.386 -0.6303  0.3535 -0.1613
  456SOL    HW1 1822   2.897   0.303   1.315 -1.1499 -3.5887 -0.8201
  456SOL    HW2 1823   3.012   0.398   1.319  1.6913 -0.9110 -0.6424
  456SOL     MW 1824   2.953   0.348   1.368 -0.3925 -0.3334 -0.3117
  457SOL     OW 1825   0.836   1.535   3.001  0.3495  0.0329 -0.3413
  457SOL    HW1 1826   0.742   1.538   3.026 -1.3682  1.0999 -1.9269
  457SOL    HW2 1827   0.880   1.552   3.082  2.1738 -1.1096  3.1830
  457SOL     MW 1828   0.829   1.538   3.015  0.3636  0.0230 -0.0855
  458SOL     OW 1829   1.447   1.401   0.644  0.8344  0.1359  0.3774
  458SOL    HW1 1830   1.372   1.414   0.699 -0.3578 -0.0272 -1.6903
  458SOL    HW2 1831   1.428   1.326   0.582  2.4099  0.9401  0.4586
  458SOL     MW 1832   1.435   1.393   0.643  0.8850  0.2205  0.1153
  459SOL     OW 1833   1.562   0.139   0.229  0.0776  0.1393  0.1251
  459SOL    HW1 1834   1.526   0.056   0.198 -0.8828 -1.0573  2.8554
  459SOL    HW2 1835   1.513   0.196   0.164 -0.1111 -2.7715 -0.9054
  459SOL     MW 1836   1.550   0.136   0.217 -0.0741 -0.4027  0.3494
  460SOL     OW 1837   1.685   2.162   0.604  0.3317 -0.0013  0.3353
  460SOL    HW1 1838   1.610   2.129   0.643  3.3634  4.6525  0.9121
  460SOL    HW2 1839   1.749   2.093   0.567  1.6035  3.8079  0.1165
  460SOL     MW 1840   1.684   2.149   0.604  0.8995  1.1153  0.3825
  461SOL     OW 1841   0.529   2.398   0.591  0.1895  0.3887  0.3041
  461SOL    HW1 1842   0.450   2.453   0.571  0.8104  7.0455 -1.1425
  461SOL    HW2 1843   0.535   2.414   0.683  0.3007 -1.1890  1.5854
  461SOL     MW 1844   0.520   2.407   0.600  0.2861  1.0588  0.2823
  462SOL     OW 1845   0.354   0.314   1.280  0.1864 -0.8378  0.0018
  462SOL    HW1 1846   0.366   0.260   1.208 -0.1151  0.9494  1.2515
  462SOL    HW2 1847   0.439   0.317   1.332  3.1647  0.4503 -0.9925
  462SOL     MW 1848   0.367   0.307   1.277  0.5396 -0.4320  0.0355
  463SOL     OW 1849   1.013   0.054   0.722  0.3405 -0.1301  0.5117
  463SOL    HW1 1850   1.045   0.050   0.629 -1.0166 -1.3324  0.6325
  463SOL    HW2 1851   0.914   0.056   0.711  0.1376  0.1447 -1.9031
  463SOL     MW 1852   1.004   0.054   0.708  0.1347 -0.2525  0.2090
  464SOL     OW 1853   0.782   2.939   2.127  0.0808  0.2178  0.0937
  464SOL    HW1 1854   0.754   2.847   2.130 -2.0548 -1.5362  1.3633
  464SOL    HW2 1855   0.797   2.958   2.228 -3.0761  0.8405  1.9755
  464SOL     MW 1856   0.780   2.930   2.141 -0.6175  0.0685  0.5095
  465SOL     OW 1857   0.752   0.201   0.500 -0.0695  0.1833  0.3190
  465SOL    HW1 1858   0.743   0.126   0.562 -1.7250 -2.3547  0.3753
  465SOL    HW2 1859   0.727   0.159   0.418  0.6792  1.3418  0.5430
  465SOL     MW 1860   0.747   0.186   0.497 -0.1892  0.0013  0.3560
  466SOL     OW 1861   1.066   1.961   0.705  0.2522  0.4015  0.4887
  466SOL    HW1 1862   1.061   1.896   0.633 -1.7260 -1.2685  1.7359
  466SOL    HW2 1863   1.074   2.048   0.659 -2.9574  0.4640 -1.2679
  466SOL     MW 1864   1.066   1.964   0.690 -0.4323  0.1894  0.4215
  467SOL     OW 1865   1.227   2.276   0.952 -0.3789 -0.3697  0.7420
  467SOL    HW1 1866   1.321   2.294   0.970 -0.6942  1.4680 -2.2103
  467SOL    HW2 1867   1.233   2.179   0.937 -1.2849  2.1898  0.5400
  467SOL     MW 1868   1.240   2.266   0.953 -0.5401  0.2104  0.3258
  468SOL     OW 1869   0.323   2.623   1.981  0.0150  0.0549  0.2168
  468SOL    HW1 1870   0.325   2.536   1.942  1.9650 -0.1658  3.0091
  468SOL    HW2 1871   0.402   2.656   1.945 -1.5552  1.0003  0.9962
  468SOL     MW 1872   0.333   2.616   1.971  0.0651  0.1505  0.6881
  469SOL     OW 1873   0.383   2.092   1.838  0.0031  0.4193  0.0624
  469SOL    HW1 1874   0.314   2.021   1.819  1.0581 -0.9289  0.5377
  469SOL    HW2 1875   0.461   2.068   1.780 -0.1478  1.1519  2.4118
  469SOL     MW 1876   0.384   2.080   1.828  0.1224  0.3381  0.4351
  470SOL     OW 1877   3.050   2.531   0.145  0.1818  0.2910  0.7288
  470SOL    HW1 1878   2.965   2.506   0.186  0.6719 -1.5955 -1.5707
  470SOL    HW2 1879   3.036   2.527   0.049 -0.4335 -0.6348  1.8532
  470SOL     MW 1880   3.037   2.527   0.138  0.1653 -0.0801  0.5738
  471SOL     OW 1881   1.183   2.725   1.360  0.3975  0.5140 -0.0188
  471SOL    HW1 1882   1.117   2.750   1.429 -0.0286  1.9237  0.8081
  471SOL    HW2 1883   1.149   2.747   1.270 -0.3972 -0.7794 -2.5746
  471SOL     MW 1884   1.170   2.731   1.357  0.2364  0.5293 -0.2469
  472SOL     OW 1885   2.921   2.124   0.311  0.0518 -0.0334 -0.0247
  472SOL    HW1 1886   2.957   2.068   0.238 -1.3978  1.0235  1.0669
  472SOL    HW2 1887   2.883   2.060   0.369  0.7083  1.3714 -2.0227
  472SOL     MW 1888   2.921   2.108   0.309 -0.0528  0.2914 -0.1443
  473SOL     OW 1889   0.803   2.542   1.288 -0.2498 -0.4050  0.4308
  473SOL    HW1 1890   0.820   2.446   1.274  0.1196  0.0227 -2.0454
  473SOL    HW2 1891   0.784   2.558   1.379  1.1294  1.4135  0.8774
  473SOL     MW 1892   0.803   2.532   1.299 -0.0191 -0.1086  0.1630
  474SOL     OW 1893   0.830   2.213   1.773 -0.5186  0.2474 -0.8116
  474SOL    HW1 1894   0.926   2.209   1.802  3.0149 -0.7625 -0.2380
  474SOL    HW2 1895   0.823   2.219   1.674 -2.0332 -1.4075  1.7175
  474SOL     MW 1896   0.842   2.213   1.764 -0.2522 -0.1042 -0.4022
  475SOL     OW 1897   1.624   3.075   1.416  0.0777 -0.1697  0.1492
  475SOL    HW1 1898   1.546   3.100   1.369  1.0978 -2.2462  1.4827
  475SOL    HW2 1899   1.605   2.992   1.452  0.0991  0.0620  0.1404
  475SOL     MW 1900   1.611   3.067   1.414  0.2151 -0.4131  0.3240
  476SOL     OW 1901   1.461   2.591   0.798  0.6187 -0.4629 -0.2155
  476SOL    HW1 1902   1.409   2.596   0.878 -0.0409  3.5048  1.0493
  476SOL    HW2 1903   1.493   2.683   0.791 -2.0813  2.7433  0.1139
  476SOL     MW 1904   1.459   2.604   0.808  0.1755  0.4836 -0.0051
  477SOL     OW 1905   0.884   2.507   0.664  0.3370  0.1800 -0.3623
  477SOL    HW1 1906   0.903   2.562   0.593  0.6861  0.8134  1.5065
  477SOL    HW2 1907   0.851   2.425   0.615 -0.9344 -3.2170  3.2350
  477SOL     MW 1908   0.882   2.504   0.648  0.2153 -0.1846  0.3589
  478SOL     OW 1909   0.243   2.614   0.916 -0.3268  0.1200 -0.4079
  478SOL    HW1 1910   0.299   2.693   0.936  4.0461 -0.2008  2.8211
  478SOL    HW2 1911   0.303   2.541   0.890  0.7174  1.0163 -1.8356
  478SOL     MW 1912   0.259   2.615   0.915  0.3879  0.1959 -0.1702
  479SOL     OW 1913   1.382   1.944   1.320 -0.0641 -0.1812 -0.3079
  479SOL    HW1 1914   1.352   1.995   1.396 -0.9825  2.4248  0.9281
  479SOL    HW2 1915   1.456   1.892   1.355  0.1889 -0.3501  1.2306
  479SOL     MW 1916   1.388   1.944   1.335 -0.1519  0.1404  0.0582
  480SOL     OW 1917   1.830   2.348   1.283  0.1431  0.3605  0.3470
  480SOL    HW1 1918   1.852   2.260   1.314  2.3793  2.5515 -0.1716
  480SOL    HW2 1919   1.859   2.354   1.189  1.8971 -0.2877 -2.0661
  480SOL     MW 1920   1.837   2.337   1.275  0.6696  0.5641 -0.0398
  481SOL     OW 1921   1.214   0.145   1.109 -0.2632 -0.3516  0.0105
  481SOL    HW1 1922   1.246   0.108   1.027 -1.4190 -2.6075 -1.7742
  481SOL    HW2 1923   1.195   0.242   1.095 -1.2909 -0.1587 -0.7658
  481SOL     MW 1924   1.216   0.153   1.096 -0.5513 -0.6238 -0.3274
  482SOL     OW 1925   1.032   0.040   0.424 -0.2656  0.3506 -0.2072
  482SOL    HW1 1926   0.954  -0.011   0.443 -1.1465  1.3394  0.0341
  482SOL    HW2 1927   1.007   0.122   0.380 -0.3289  0.3763  0.3619
  482SOL     MW 1928   1.018   0.044   0.420 -0.3902  0.4845 -0.1003
  483SOL     OW 1929   0.345   2.844   0.593  0.0982  0.1461 -0.4573
  483SOL    HW1 1930   0.295   2.875   0.510 -0.7452  2.6298  3.1291
  483SOL    HW2 1931   0.323   2.908   0.658  2.2558 -1.0690  0.1024
  483SOL     MW 1932   0.335   2.856   0.591  0.2716  0.3135  0.0898
  484SOL     OW 1933   1.662   1.871   1.427  0.1649  0.1196  0.7197
  484SOL    HW1 1934   1.741   1.920   1.414  4.1100 -0.7357 -0.4979
  484SOL    HW2 1935   1.637   1.880   1.518 -0.7479 -0.9938 -0.5402
  484SOL     MW 1936   1.669   1.878   1.437  0.5650 -0.1402  0.3928
  485SOL     OW 1937   0.568   2.317   0.337  0.4086 -0.0333  0.5155
  485SOL    HW1 1938   0.555   2.343   0.430 -2.4270  1.9687 -1.8823
  485SOL    HW2 1939   0.503   2.381   0.292 -0.5371 -2.0930  2.3444
  485SOL     MW 1940   0.557   2.329   0.344 -0.0903 -0.0409  0.4404
  486SOL     OW 1941   0.114   2.463   1.444  0.4989 -0.4744 -0.0994
  486SOL    HW1 1942   0.105   2.558   1.412 -2.4860  0.4382  0.1044
  486SOL    HW2 1943   0.114   2.463   1.539  1.3567 -0.2439 -3.7157
  486SOL     MW 1944   0.113   2.476   1.452  0.2182 -0.3235 -0.5497
  487SOL     OW 1945   1.282   1.598   0.972  0.0738  0.0838 -0.4363
  487SOL    HW1 1946   1.230   1.679   0.989  0.2539 -0.4906  0.2835
  487SOL    HW2 1947   1.374   1.615   0.992  1.1091  0.3342 -1.3197
  487SOL     MW 1948   1.287   1.611   0.977  0.2342  0.0410 -0.4579
  488SOL     OW 1949   1.508   1.834   0.619  0.1291  0.3451 -0.2532
  488SOL    HW1 1950   1.500   1.914   0.570 -1.5111 -0.2060 -0.1784
  488SOL    HW2 1951   1.423   1.786   0.601  0.0080  1.4614 -2.2605
  488SOL     MW 1952   1.496   1.838   0.610 -0.1033  0.4197 -0.5082
  489SOL     OW 1953   0.707   0.767   0.533  0.3190  0.2333 -0.0275
  489SOL    HW1 1954   0.685   0.688   0.490  1.1495  1.2242  0.2669
  489SOL    HW2 1955   0.730   0.752   0.626 -0.1026 -0.0035 -0.2399
  489SOL     MW 1956   0.707   0.755   0.540  0.3730  0.3328 -0.0167
  490SOL     OW 1957   1.401   2.085   0.432 -0.1567 -0.2194  0.2645
  490SOL    HW1 1958   1.477   2.136   0.407  0.1253 -1.2536 -0.9122
  490SOL    HW2 1959   1.327   2.136   0.392 -0.4957 -0.2932  0.5798
  490SOL     MW 1960   1.401   2.099   0.423 -0.1642 -0.3656  0.1509
  491SOL     OW 1961   1.266   2.978   0.396  0.3903 -0.3525  0.7236
  491SOL    HW1 1962   1.299   3.038   0.467  1.0645  2.3123  0.2329
  491SOL    HW2 1963   1.177   3.005   0.388  4.1017 -0.2262 -0.2554
  491SOL     MW 1964   1.259   2.990   0.404  0.9690  0.0157  0.5297
  492SOL     OW 1965   1.435   2.140   0.697 -0.2272  0.1809 -0.2779
  492SOL    HW1 1966   1.383   2.123   0.620  0.6746 -0.8815 -0.7700
  492SOL    HW2 1967   1.381   2.096   0.767 -1.9212 -2.1351 -0.5264
  492SOL     MW 1968   1.421   2.132   0.696 -0.3317 -0.2648 -0.3756
  493SOL     OW 1969   0.192   2.986   0.361  0.1537 -0.0130  0.4845
  493SOL    HW1 1970   0.126   3.048   0.394 -0.8030 -0.4111  1.9376
  493SOL    HW2 1971   0.167   2.967   0.272 -0.6151  1.4407  0.7805
  493SOL     MW 1972   0.180   2.992   0.353 -0.0740  0.1263  0.7153
  494SOL     OW 1973   0.388   2.400   1.803  0.2008  0.2043  0.3401
  494SOL    HW1 1974   0.383   2.301   1.787  0.0220 -2.1764  1.8156
  494SOL    HW2 1975   0.412   2.452   1.723  0.5626  0.2143 -2.0364
  494SOL     MW 1976   0.390   2.394   1.790  0.2249 -0.1085  0.2212
  495SOL     OW 1977   2.892   1.641   2.752  0.3231  0.4537  0.0390
  495SOL    HW1 1978   2.863   1.728   2.796 -2.2568  1.8944 -2.8363
  495SOL    HW2 1979   2.883   1.578   2.823  1.7416  0.5025  0.5119
  495SOL     MW 1980   2.887   1.644   2.767  0.1699  0.6502 -0.2780
  496SOL     OW 1981   2.760   2.271   2.727 -0.2900  0.0840 -0.1747
  496SOL    HW1 1982   2.776   2.177   2.742  2.4662  0.0247 -0.8886
  496SOL    HW2 1983   2.851   2.312   2.728  1.5135  0.4763  1.3652
  496SOL     MW 1984   2.774   2.264   2.729  0.3116  0.1279 -0.0657
  497SOL     OW 1985   1.501   2.340   2.545 -0.1456 -0.2962  0.1210
  497SOL    HW1 1986   1.506   2.278   2.462  1.1403 -0.3054  0.0155
  497SOL    HW2 1987   1.459   2.280   2.610  0.9012  1.6907  1.5432
  497SOL     MW 1988   1.496   2.324   2.542  0.1622 -0.0353  0.2948
  498SOL     OW 1989   1.475   2.787   2.297  0.7485  0.4261 -0.1234
  498SOL    HW1 1990   1.489   2.694   2.272 -0.0854 -1.1405  2.2889
  498SOL    HW2 1991   1.547   2.808   2.351 -0.1459 -2.0371 -1.4930
  498SOL     MW 1992   1.487   2.778   2.301  0.5205 -0.1056  0.0141
  499SOL     OW 1993   0.948   0.135   0.095 -0.3250  0.4272 -0.0192
  499SOL    HW1 1994   0.868   0.165   0.147 -2.3339 -0.7952  0.7188
  499SOL    HW2 1995   0.929   0.042   0.078  3.9694 -0.2515 -1.4664
  499SOL     MW 1996   0.935   0.127   0.100 -0.0235  0.1764 -0.1128
  500SOL     OW 1997   1.033   2.511   2.750 -0.2935  0.1230 -0.1575
  500SOL    HW1 1998   1.084   2.458   2.812 -0.6339  0.2950 -1.7409
  500SOL    HW2 1999   0.987   2.576   2.810 -0.7510 -0.1681  1.6352
  500SOL     MW 2000   1.034   2.512   2.766 -0.3988  0.1073 -0.1299
  501SOL     OW 2001   1.742   2.222   0.004 -0.2900 -0.2238  0.4835
  501SOL    HW1 2002   1.731   2.319   0.006  0.3448  0.9345 -1.9688
  501SOL    HW2 2003   1.840   2.219   0.005  0.4749 -0.7834  2.2096
  501SOL     MW 2004   1.753   2.235   0.005 -0.1053 -0.1448  0.3877
  502SOL     OW 2005   0.244   2.696   2.991 -0.4882  0.1201  0.5135
  502SOL    HW1 2006   0.154   2.680   2.957 -0.1455 -0.6618 -0.4143
  502SOL    HW2 2007   0.273   2.771   2.941 -0.4503 -1.0455  0.4772
  502SOL     MW 2008   0.236   2.704   2.980 -0.4380 -0.1369  0.3863
  503SOL     OW 2009   1.140   2.594   2.120 -0.6761  0.2153  0.2552
  503SOL    HW1 2010   1.198   2.628   2.049 -0.3478 -3.3885  0.1146
  503SOL    HW2 2011   1.052   2.609   2.091  1.4556  2.2563  0.0210
  503SOL     MW 2012   1.136   2.600   2.107 -0.3516  0.0091  0.2057
  504SOL     OW 2013   0.072   2.631   2.145  0.5148 -0.4179 -0.4604
  504SOL    HW1 2014   0.136   2.606   2.082 -1.7146 -3.1581 -0.5844
  504SOL    HW2 2015   0.030   2.547   2.179  1.8632 -1.4038 -0.4841
  504SOL     MW 2016   0.075   2.617   2.141  0.3986 -0.9096 -0.4799
  505SOL     OW 2017   1.610   2.741   2.742 -0.0574 -1.1705  0.0496
  505SOL    HW1 2018   1.641   2.760   2.655  3.8119  0.7951 -1.2108
  505SOL    HW2 2019   1.542   2.809   2.768  0.2678 -0.0313  1.9991
  505SOL     MW 2020   1.605   2.753   2.734  0.4960 -0.7608  0.1405
  506SOL     OW 2021   1.585   0.049   2.801  0.0579 -0.1348  0.6803
  506SOL    HW1 2022   1.588   0.002   2.891 -0.6061  0.8543  0.4723
  506SOL    HW2 2023   1.656   0.024   2.749 -0.4776 -0.9092  1.9974
  506SOL     MW 2024   1.595   0.040   2.806 -0.1003 -0.1065  0.8266
  507SOL     OW 2025   0.864   2.710   2.851 -0.0192 -0.4475  0.2076
  507SOL    HW1 2026   0.893   2.765   2.777  0.3749  1.4456  0.7972
  507SOL    HW2 2027   0.775   2.686   2.826 -1.4539  1.9612  0.4632
  507SOL     MW 2028   0.856   2.714   2.838 -0.1565  0.1201  0.3191
  508SOL     OW 2029   1.162   2.085   2.594 -0.0758 -0.6084 -0.2891
  508SOL    HW1 2030   1.240   2.119   2.634 -0.5691  1.2028  0.9752
  508SOL    HW2 2031   1.092   2.088   2.659  0.1058  1.3322 -0.9522
  508SOL     MW 2032   1.163   2.090   2.608 -0.1169 -0.1134 -0.2098
  509SOL     OW 2033   0.641   2.571   2.789 -0.2052 -0.0235 -0.1965
  509SOL    HW1 2034   0.623   2.500   2.727  3.1513 -1.4898  1.8322
  509SOL    HW2 2035   0.575   2.644   2.771 -0.1725  1.4094  0.5134
  509SOL     MW 2036   0.630   2.572   2.779  0.2419 -0.0279  0.1649
  510SOL     OW 2037   1.534   2.566   1.636  0.0679  0.3879  0.2794
  510SOL    HW1 2038   1.550   2.658   1.645  0.9070 -0.3479 -0.0341
  510SOL    HW2 2039   1.464   2.551   1.703 -0.7954 -2.4780  1.8681
  510SOL     MW 2040   1.527   2.576   1.646  0.0647 -0.0873  0.4476
  511SOL     OW 2041   0.355   2.509   2.553 -0.0207 -0.1674 -0.3864
  511SOL    HW1 2042   0.425   2.458   2.591  1.9653  1.0887 -0.8883
  511SOL    HW2 2043   0.369   2.503   2.456 -2.1467  0.9599  0.1989
  511SOL     MW 2044   0.366   2.502   2.545 -0.0392  0.1470 -0.3754
  512SOL     OW 2045   1.020   1.997   2.859 -0.2199  0.6186 -0.4819
  512SOL    HW1 2046   0.944   2.043   2.892  0.1096  0.5842  4.7301
  512SOL    HW2 2047   1.018   1.901   2.872 -1.3706  0.8682  1.3910
  512SOL     MW 2048   1.009   1.990   2.865 -0.3283  0.6470  0.4529
  513SOL     OW 2049   1.553   2.545   2.180  0.6935  0.0966 -0.5965
  513SOL    HW1 2050   1.634   2.561   2.136 -2.4044  1.2250  1.4790
  513SOL    HW2 2051   1.589   2.472   2.228 -0.0286  3.8153 -0.0534
  513SOL     MW 2052   1.569   2.537   2.180  0.1895  0.7361 -0.2510
  514SOL     OW 2053   0.142   2.344   2.648  0.3680 -0.0463 -0.1864
  514SOL    HW1 2054   0.194   2.403   2.589 -1.0553 -1.0326 -1.2629
  514SOL    HW2 2055   0.198   2.313   2.721 -0.7850  0.6607 -2.2155
  514SOL     MW 2056   0.156   2.348   2.650  0.0281 -0.0832 -0.5961
  515SOL     OW 2057   1.087   1.924   1.809 -0.0227 -0.8023  0.1245
  515SOL    HW1 2058   1.095   2.024   1.813  0.5555  1.8334 -1.5846
  515SOL    HW2 2059   1.128   1.898   1.890 -1.3811  0.6183 -3.3630
  515SOL     MW 2060   1.093   1.934   1.820 -0.1256 -0.2671 -0.5611
  516SOL     OW 2061   1.329   2.603   2.934  0.6089 -0.0954  0.0519
  516SOL    HW1 2062   1.360   2.589   2.843  1.2742 -0.8470  0.7220
  516SOL    HW2 2063   1.264   2.538   2.940  3.5654 -2.8598 -1.6095
  516SOL     MW 2064   1.325   2.592   2.923  1.0868 -0.5593 -0.0789
  517SOL     OW 2065   0.561   2.373   2.290  0.3528  0.1146 -0.3103
  517SOL    HW1 2066   0.510   2.453   2.280  0.7644  0.0566  2.2724
  517SOL    HW2 2067   0.508   2.302   2.254 -2.0075  0.3972 -1.6390
  517SOL     MW 2068   0.547   2.374   2.284  0.0957  0.1443 -0.1448
  518SOL     OW 2069   1.811   0.077   3.071  0.1254 -0.4108 -0.3365
  518SOL    HW1 2070   1.816   0.105   3.159 -0.2080  0.5825  0.8314
  518SOL    HW2 2071   1.760  -0.002   3.060 -2.1094  0.9204 -0.8523
  518SOL     MW 2072   1.805   0.070   3.081 -0.2134 -0.1041 -0.2505
  519SOL     OW 2073   0.685   2.460   1.826  1.1079  0.6257 -1.0370
  519SOL    HW1 2074   0.746   2.392   1.803 -1.2957  1.3736 -1.2463
  519SOL    HW2 2075   0.595   2.431   1.801 -0.6284  1.7857 -1.7577
  519SOL     MW 2076   0.681   2.447   1.820  0.5617  0.8774 -1.1597
  520SOL     OW 2077   1.244   2.130   2.933  0.1071  0.4918  0.1809
  520SOL    HW1 2078   1.174   2.066   2.921  2.1618 -0.0069  2.4503
  520SOL    HW2 2079   1.252   2.124   3.027 -0.5540  2.4275 -1.8987
  520SOL     MW 2080   1.236   2.120   2.944  0.2910  0.6814  0.2059
  521SOL     OW 2081   1.800   2.064   2.241  0.1764  0.3632 -0.5378
  521SOL    HW1 2082   1.806   2.055   2.144  0.0267  1.0831 -1.0557
  521SOL    HW2 2083   1.806   1.973   2.262  1.6458  1.0266 -0.3628
  521SOL     MW 2084   1.802   2.051   2.231  0.3505  0.5458 -0.5831
  522SOL     OW 2085   2.886   2.543   2.237  0.1310 -0.2128 -0.0758
  522SOL    HW1 2086   2.967   2.487   2.258 -0.2652  1.1230 -1.3798
  522SOL    HW2 2087   2.929   2.632   2.243  0.0662  0.8748  1.3450
  522SOL     MW 2088   2.902   2.547   2.240  0.0702  0.1070 -0.0604
  523SOL     OW 2089   0.819   1.490   2.149  0.1415  0.1481 -0.3219
  523SOL    HW1 2090   0.805   1.555   2.083 -3.2329  0.8601  2.0694
  523SOL    HW2 2091   0.906   1.449   2.133  0.9830  2.4040 -0.1431
  523SOL     MW 2092   0.828   1.493   2.138 -0.1927  0.5397  0.0172
  524SOL     OW 2093   0.625   2.366   2.995 -0.3401 -0.8978  0.1440
  524SOL    HW1 2094   0.645   2.439   2.939 -1.1034 -0.0105 -0.7860
  524SOL    HW2 2095   0.703   2.327   3.024  1.2606 -2.2558  0.1295
  524SOL     MW 2096   0.638   2.370   2.991 -0.2296 -0.9599  0.0194
  525SOL     OW 2097   0.431   2.204   2.116  0.9870  0.2040  0.4909
  525SOL    HW1 2098   0.413   2.132   2.173 -0.0456 -0.0364 -5.0656
  525SOL    HW2 2099   0.493   2.172   2.048  3.5283  0.5040 -0.4890
  525SOL     MW 2100   0.437   2.190   2.115  1.1861  0.2119 -0.3715
  526SOL     OW 2101   0.687   2.134   2.015 -0.5151  0.6939 -0.2862
  526SOL    HW1 2102   0.719   2.180   1.933 -1.5820 -1.2671  1.8953
  526SOL    HW2 2103   0.756   2.142   2.079  3.2003  2.6601 -1.8353
  526SOL     MW 2104   0.700   2.141   2.013 -0.1657  0.6946 -0.2028
  527SOL     OW 2105   1.275   1.896   2.015  0.0850 -0.0998  0.4145
  527SOL    HW1 2106   1.271   1.864   2.101  0.7629  1.3454 -0.7093
  527SOL    HW2 2107   1.299   1.819   1.961 -1.1401 -0.1607 -0.3972
  527SOL     MW 2108   1.278   1.881   2.019  0.0128  0.0829  0.1592
  528SOL     OW 2109   0.630   2.891   2.965  0.0527 -0.2116 -0.3966
  528SOL    HW1 2110   0.621   2.986   2.939  1.0208 -2.0470  1.4958
  528SOL    HW2 2111   0.602   2.844   2.886  1.3065 -2.2226  3.3658
  528SOL     MW 2112   0.625   2.897   2.951  0.3459 -0.7191  0.3495
  529SOL     OW 2113   1.105   2.204   1.817 -0.3230 -0.4642  1.0121
  529SOL    HW1 2114   1.141   2.240   1.901 -0.5703 -0.9073 -0.6883
  529SOL    HW2 2115   1.123   2.263   1.742 -3.1882  0.8175 -1.4034
  529SOL     MW 2116   1.112   2.217   1.819 -0.7336 -0.3536  0.4690
  530SOL     OW 2117   1.138   2.386   2.970  0.0564 -0.2940  0.6669
  530SOL    HW1 2118   1.065   2.389   3.033 -1.1910 -0.9956  0.3724
  530SOL    HW2 2119   1.164   2.298   2.966  0.4202  0.3529  2.4971
  530SOL     MW 2120   1.132   2.375   2.977 -0.0602 -0.3013  0.8695
  531SOL     OW 2121   0.913   1.804   2.632  0.4525 -0.2951  0.4657
  531SOL    HW1 2122   0.889   1.883   2.681  1.8764 -0.3163 -1.7742
  531SOL    HW2 2123   0.865   1.745   2.689  0.1580  2.3872  0.0671
  531SOL     MW 2124   0.904   1.807   2.646  0.6015  0.0560  0.1176
  532SOL     OW 2125   1.655   0.301   2.857 -0.0722 -0.4069 -0.0651
  532SOL    HW1 2126   1.636   0.211   2.839  0.7978 -2.8546  0.5376
  532SOL    HW2 2127   1.737   0.302   2.902  0.4960 -1.2567 -2.7922
  532SOL     MW 2128   1.663   0.289   2.861  0.1176 -0.8420 -0.3454
  533SOL     OW 2129   1.789   2.730   2.936 -0.0090 -0.2447 -0.4623
  533SOL    HW1 2130   1.781   2.651   2.995  1.2911  1.7279 -0.7949
  533SOL    HW2 2131   1.724   2.724   2.860 -2.0898  0.0824  0.7149
  533SOL     MW 2132   1.779   2.719   2.934 -0.1120  0.0587 -0.3509
  534SOL     OW 2133   1.733   2.460   2.496 -0.4157  0.1113 -0.5382
  534SOL    HW1 2134   1.656   2.411   2.521 -0.5514  0.1763  0.7191
  534SOL    HW2 2135   1.803   2.453   2.564  2.3710 -2.7300 -1.2382
  534SOL     MW 2136   1.732   2.453   2.508 -0.0659 -0.2550 -0.4647
  535SOL     OW 2137   1.820   2.361   1.912 -0.1153  0.1411  0.0035
  535SOL    HW1 2138   1.735   2.375   1.869  2.2019 -1.0721  1.4347
  535SOL    HW2 2139   1.883   2.408   1.853  1.0598 -1.8018 -1.3075
  535SOL     MW 2140   1.817   2.369   1.899  0.3455 -0.2753  0.0194
  536SOL     OW 2141   0.462   1.813   2.007 -0.1395 -0.0603 -0.1535
  536SOL    HW1 2142   0.452   1.880   1.942  0.0923 -1.0834 -2.5321
  536SOL    HW2 2143   0.542   1.835   2.050 -2.4140 -2.9647  1.6937
  536SOL     MW 2144   0.471   1.825   2.004 -0.4090 -0.5785 -0.2236
  537SOL     OW 2145   1.019   0.180   2.903  0.5253  0.2770 -0.5040
  537SOL    HW1 2146   0.989   0.192   2.997 -0.3381 -0.5739  3.0500
  537SOL    HW2 2147   1.029   0.269   2.872  2.5990 -1.8562  0.8634
  537SOL     MW 2148   1.016   0.194   2.911  0.6850 -0.1167  0.1454
  538SOL     OW 2149   1.312   0.052   3.021  0.0631  0.0911 -0.5345
  538SOL    HW1 2150   1.237   0.072   2.967 -2.8985  1.4083 -1.6267
  538SOL    HW2 2151   1.358   0.137   3.021  0.5359  0.7326 -0.3400
  538SOL     MW 2152   1.308   0.066   3.014 -0.2653  0.3495 -0.6529
  539SOL     OW 2153   0.721   2.705   2.522  0.3609  0.2530 -0.0803
  539SOL    HW1 2154   0.806   2.739   2.545  0.3182  2.1748 -0.1325
  539SOL    HW2 2155   0.744   2.608   2.520 -1.2040 -0.5686 -3.1201
  539SOL     MW 2156   0.736   2.696   2.525  0.1488  0.3981 -0.4883
  540SOL     OW 2157   0.349   2.254   2.835 -0.6883  0.4823  0.1826
  540SOL    HW1 2158   0.426   2.294   2.874  2.3240 -0.5223 -0.3690
  540SOL    HW2 2159   0.322   2.197   2.909 -1.2903  0.3726 -2.0827
  540SOL     MW 2160   0.355   2.252   2.850 -0.3703  0.3353 -0.1891
  541SOL     OW 2161   0.189   2.866   2.253  0.0392 -0.3374 -0.7424
  541SOL    HW1 2162   0.153   2.779   2.241 -1.3621  1.2050 -1.2346
  541SOL    HW2 2163   0.254   2.856   2.326 -0.4221  0.3835  0.4933
  541SOL     MW 2164   0.193   2.853   2.261 -0.2066 -0.0388 -0.6443
  542SOL     OW 2165   0.898   2.280   2.712  0.0890  0.0361 -0.7179
  542SOL    HW1 2166   0.861   2.274   2.807  1.4436 -0.1602  0.2260
  542SOL    HW2 2167   0.959   2.357   2.716  0.7248 -1.5031  0.1053
  542SOL     MW 2168   0.901   2.289   2.725  0.3516 -0.1929 -0.4847
  543SOL     OW 2169   1.400   2.570   2.677  0.1511 -0.4956  0.0191
  543SOL    HW1 2170   1.437   2.492   2.629 -1.4623 -1.8988 -1.5303
  543SOL    HW2 2171   1.479   2.627   2.700  0.1143 -0.5623  0.5822
  543SOL     MW 2172   1.415   2.567   2.674 -0.0666 -0.6896 -0.1111
  544SOL     OW 2173   0.681   0.151   2.654 -0.3605  0.8257  0.8203
  544SOL    HW1 2174   0.605   0.088   2.629 -1.7636  1.0217  0.2866
  544SOL    HW2 2175   0.755   0.132   2.593 -1.4638 -1.3270  1.2018
  544SOL     MW 2176   0.681   0.140   2.642 -0.6912  0.5675  0.8002
  545SOL     OW 2177   1.539   2.157   2.333 -0.1835  0.0002  0.1673
  545SOL    HW1 2178   1.474   2.091   2.337  2.6986  0.3730 -4.1862
  545SOL    HW2 2179   1.615   2.095   2.309 -2.3907 -1.7589  0.8773
  545SOL     MW 2180   1.540   2.140   2.330 -0.0944 -0.1827 -0.3135
  546SOL     OW 2181   2.992   1.975   0.098 -0.1118 -0.0412 -0.3058
  546SOL    HW1 2182   2.982   2.049   0.035  0.5343  1.2292  1.6173
  546SOL    HW2 2183   3.084   1.951   0.085  4.2479 -1.5220 -0.2299
  546SOL     MW 2184   3.003   1.982   0.088  0.5487 -0.0689 -0.0421
  547SOL     OW 2185   0.137   2.963   0.078 -0.0318  1.1143  0.1138
  547SOL    HW1 2186   0.176   3.003   0.001  2.2377  0.2632 -0.4272
  547SOL    HW2 2187   0.192   2.886   0.096  0.8618  0.6277 -0.8527
  547SOL     MW 2188   0.149   2.958   0.070  0.3855  0.9378 -0.0851
  548SOL     OW 2189   0.307   2.486   0.270 -0.2155 -0.3604  0.0626
  548SOL    HW1 2190   0.296   2.580   0.248 -4.0238  0.7670 -1.8904
  548SOL    HW2 2191   0.249   2.445   0.211  2.2079 -1.7040  1.3733
  548SOL     MW 2192   0.297   2.493   0.259 -0.3983 -0.3889 -0.0222
  549SOL     OW 2193   0.709   1.884   2.101  0.8188 -0.1002 -0.1583
  549SOL    HW1 2194   0.700   1.968   2.064 -1.4382  0.3117  2.8306
  549SOL    HW2 2195   0.745   1.886   2.188  0.0902 -0.6074  0.0967
  549SOL     MW 2196   0.713   1.896   2.107  0.4249 -0.1128  0.2697
  550SOL     OW 2197   1.821   1.753   2.569 -0.0317  0.3863  0.0896
  550SOL    HW1 2198   1.827   1.761   2.475 -1.1168 -0.0179 -0.2836
  550SOL    HW2 2199   1.819   1.836   2.613 -3.0439 -1.8254  0.7080
  550SOL     MW 2200   1.822   1.765   2.562 -0.5723  0.0412  0.1219
  551SOL     OW 2201   0.864   2.340   0.218 -0.7518  0.5584 -0.5193
  551SOL    HW1 2202   0.949   2.376   0.205 -0.3366  0.1537  0.9092
  551SOL    HW2 2203   0.872   2.250   0.194 -3.7842  1.4709 -2.6478
  551SOL     MW 2204   0.876   2.333   0.213 -1.0971  0.6254 -0.6117
  552SOL     OW 2205   1.804   1.776   2.300  0.4932  0.1746  0.2860
  552SOL    HW1 2206   1.714   1.764   2.310  2.9154  2.7807  1.4286
  552SOL    HW2 2207   1.836   1.728   2.211 -1.7558  2.3719  0.1007
  552SOL     MW 2208   1.796   1.768   2.289  0.5161  0.8083  0.4123
  553SOL     OW 2209   1.212   2.322   1.536  0.0891  0.1183  0.0100
  553SOL    HW1 2210   1.228   2.228   1.547  3.0078  0.0291  1.6491
  553SOL    HW2 2211   1.283   2.360   1.485  2.3909 -1.0726  0.7290
  553SOL     MW 2212   1.224   2.314   1.531  0.7779 -0.0506  0.3211
  554SOL     OW 2213   0.570   2.831   2.707  0.1514  0.3016 -0.5644
  554SOL    HW1 2214   0.533   2.914   2.671 -0.5538 -0.7966  1.6722
  554SOL    HW2 2215   0.627   2.804   2.641  0.2360 -2.5211  4.0512
  554SOL     MW 2216   0.573   2.839   2.693  0.0695 -0.2157  0.3397
  555SOL     OW 2217   0.604   2.379   2.606  0.0187  0.5595  0.1902
  555SOL    HW1 2218   0.593   2.285   2.630  0.8772  0.7922  0.9224
  555SOL    HW2 2219   0.658   2.381   2.530 -4.3270 -0.1888 -0.0090
  555SOL     MW 2220   0.610   2.366   2.599 -0.4414  0.4914  0.2605
  556SOL     OW 2221   1.026   1.798   0.132 -0.6266  0.3325 -0.4579
  556SOL    HW1 2222   1.039   1.782   0.037  0.9885  1.5559  0.9368
  556SOL    HW2 2223   1.104   1.841   0.159 -0.5101  0.5040  1.5848
  556SOL     MW 2224   1.038   1.801   0.123 -0.3981  0.5165 -0.0043
  557SOL     OW 2225   0.949   2.697   0.448 -0.9019 -0.5139 -0.2331
  557SOL    HW1 2226   1.005   2.689   0.368 -2.1848  1.5226 -2.0363
  557SOL    HW2 2227   0.899   2.788   0.450 -1.2388  1.1159 -1.5059
  557SOL     MW 2228   0.950   2.708   0.438 -1.1156 -0.0302 -0.6389
  558SOL     OW 2229   0.268   2.124  -0.000 -0.4803  0.1850  0.6460
  558SOL    HW1 2230   0.245   2.030   0.014  1.7212 -3.3862 -1.0814
  558SOL    HW2 2231   0.208   2.182   0.042 -0.6888  1.9671  0.4425
  558SOL     MW 2232   0.257   2.119   0.007 -0.2173 -0.0510  0.3912
  559SOL     OW 2233   1.175   2.307   2.046 -0.0275  0.1730 -0.0154
  559SOL    HW1 2234   1.165   2.390   2.097 -0.3348 -1.0386 -1.6612
  559SOL    HW2 2235   1.207   2.246   2.109  0.2694  1.8056  1.5128
  559SOL     MW 2236   1.178   2.310   2.061 -0.0289  0.2286 -0.0309
  560SOL     OW 2237   1.982   2.808   0.026  0.3680 -0.9639  0.2021
  560SOL    HW1 2238   2.035   2.882  -0.010 -1.8898 -0.2802  0.6502
  560SOL    HW2 2239   1.908   2.797  -0.034  1.3908 -0.9456  1.1585
  560SOL     MW 2240   1.980   2.817   0.014  0.2050 -0.8713  0.3874
  561SOL     OW 2241   0.474   2.075   0.210 -0.1565 -0.3325  0.3074
  561SOL    HW1 2242   0.409   2.080   0.134 -4.1401  0.7251 -3.8978
  561SOL    HW2 2243   0.489   2.165   0.229  1.8761 -1.6556 -0.9903
  561SOL     MW 2244   0.468   2.088   0.202 -0.4139 -0.3675 -0.4187
  562SOL     OW 2245   0.908   2.169   2.177  0.2058  0.0775 -0.1677
  562SOL    HW1 2246   0.881   2.258   2.170  0.1057 -0.3010  0.5400
  562SOL    HW2 2247   0.988   2.157   2.229 -0.0560 -1.0487 -0.5933
  562SOL     MW 2248   0.915   2.179   2.183  0.1580 -0.1210 -0.1305
  563SOL     OW 2249   1.196   0.259   0.562 -0.3880 -0.7329 -0.2028
  563SOL    HW1 2250   1.154   0.257   0.474  1.1462  1.4307 -2.5274
  563SOL    HW2 2251   1.237   0.172   0.579  0.9345 -2.6953  1.4144
  563SOL     MW 2252   1.196   0.247   0.553 -0.0111 -0.7063 -0.2961
  564SOL     OW 2253   1.034   2.582   2.388  0.3441 -0.1031  0.4187
  564SOL    HW1 2254   1.073   2.591   2.302  3.1899 -0.7362  2.1676
  564SOL    HW2 2255   1.089   2.627   2.450  2.5558  1.2758 -1.3215
  564SOL     MW 2256   1.046   2.589   2.385  1.0114 -0.0047  0.4198
  565SOL     OW 2257   2.922   2.649   2.582 -0.5290  0.2948 -0.1081
  565SOL    HW1 2258   2.983   2.718   2.558  1.3701 -1.3131 -1.0403
  565SOL    HW2 2259   2.849   2.632   2.522  3.1594 -0.2436  3.5015
  565SOL     MW 2260   2.921   2.656   2.571  0.2082  0.0116  0.2452
  566SOL     OW 2261   2.267   1.938   2.342  0.1680 -0.0440 -0.1348
  566SOL    HW1 2262   2.277   1.959   2.248  0.2526  0.2610 -0.6655
  566SOL    HW2 2263   2.308   2.013   2.387  1.1599 -0.7741  0.1537
  566SOL     MW 2264   2.274   1.951   2.336  0.3101 -0.1001 -0.1668
  567SOL     OW 2265   1.200   2.887   0.073 -0.0447 -0.7156  0.7500
  567SOL    HW1 2266   1.248   2.968   0.077 -3.1260 -1.7295  0.2055
  567SOL    HW2 2267   1.199   2.866  -0.023 -0.6901 -1.6769 -1.3708
  567SOL     MW 2268   1.206   2.895   0.061 -0.5364 -0.9762  0.3984
  568SOL     OW 2269   1.650   2.123   2.859  0.4043  0.0135 -0.3845
  568SOL    HW1 2270   1.682   2.186   2.929 -1.8837  2.4327  0.3602
  568SOL    HW2 2271   1.723   2.094   2.811 -2.2366 -2.9738  0.1673
  568SOL     MW 2272   1.664   2.128   2.862 -0.2460 -0.0615 -0.2134
  569SOL     OW 2273   0.159   2.191   2.431  1.2456  0.0587  0.3608
  569SOL    HW1 2274   0.116   2.256   2.373  0.6432 -3.2183 -0.6336
  569SOL    HW2 2275   0.139   2.214   2.524  2.9881  1.5030 -0.7946
  569SOL     MW 2276   0.151   2.203   2.436  1.3960 -0.1831  0.0771
  570SOL     OW 2277   1.430   0.432   0.498  0.2499  0.1418 -0.0344
  570SOL    HW1 2278   1.352   0.388   0.531  2.9086 -1.7315  1.2920
  570SOL    HW2 2279   1.488   0.412   0.566  0.5674 -4.1595 -1.2308
  570SOL     MW 2280   1.428   0.424   0.511  0.6426 -0.6728 -0.0173
  571SOL     OW 2281   1.486   2.391   1.921  0.3875 -0.1014 -0.4008
  571SOL    HW1 2282   1.495   2.419   2.010  0.0530  0.7656 -1.7005
  571SOL    HW2 2283   1.490   2.296   1.930 -2.0953  0.6619  1.2105
  571SOL     MW 2284   1.488   2.382   1.934  0.0158  0.1137 -0.3597
  572SOL     OW 2285   0.929   2.622   3.083  0.2854  0.5266  0.4063
  572SOL    HW1 2286   0.893   2.666   3.003 -1.8974 -1.9981  1.3619
  572SOL    HW2 2287   0.850   2.591   3.125 -0.2384 -2.4445  1.2267
  572SOL     MW 2288   0.914   2.624   3.078 -0.0717 -0.1985  0.6406
  573SOL     OW 2289   1.116   2.423   0.190  0.4017 -0.0322 -0.2626
  573SOL    HW1 2290   1.203   2.401   0.153 -2.4485  1.8455 -2.3271
  573SOL    HW2 2291   1.109   2.517   0.200 -0.5001  2.6886 -0.6051
  573SOL     MW 2292   1.127   2.432   0.186 -0.0933  0.5745 -0.5802
  574SOL     OW 2293   1.139   2.681   0.258  0.1516  0.3431 -0.0422
  574SOL    HW1 2294   1.227   2.706   0.283 -3.0954  1.2072  1.1878
  574SOL    HW2 2295   1.112   2.745   0.187 -0.0442  0.7046  0.9868
  574SOL     MW 2296   1.147   2.693   0.252 -0.3027  0.5048  0.2559
  575SOL     OW 2297   3.050   2.288   1.842 -0.2422 -0.4216 -0.3714
  575SOL    HW1 2298   3.079   2.201   1.805  2.6698 -2.2673  2.0788
  575SOL    HW2 2299   3.099   2.358   1.796 -0.1302  1.2978  1.1183
  575SOL     MW 2300   3.061   2.286   1.831  0.1567 -0.4383  0.1484
  576SOL     OW 2301   2.806   1.827   2.080  0.3696 -0.3765  0.2256
  576SOL    HW1 2302   2.801   1.909   2.031 -2.3049 -2.3819  1.2763
  576SOL    HW2 2303   2.724   1.780   2.064  0.6229 -0.0776 -1.3186
  576SOL     MW 2304   2.794   1.832   2.071  0.0502 -0.6017  0.1605
  577SOL     OW 2305   2.102   0.270   0.077  0.2082  0.2823 -0.0490
  577SOL    HW1 2306   2.028   0.313   0.035 -3.2340  0.1647 -0.4066
  577SOL    HW2 2307   2.070   0.194   0.121  1.5020  2.4634 -3.4262
  577SOL     MW 2308   2.088   0.265   0.078 -0.0753  0.5545 -0.5418
  578SOL     OW 2309   2.026   2.066   2.382 -0.1093 -0.1501  0.2451
  578SOL    HW1 2310   1.944   2.056   2.332  1.8638 -2.9474  2.3199
  578SOL    HW2 2311   2.090   2.001   2.347 -1.1872 -2.0967 -1.4651
  578SOL     MW 2312   2.023   2.056   2.371  0.0088 -0.7760  0.2932
  579SOL     OW 2313   0.845   2.412   2.480  0.3886 -0.1230 -0.1740
  579SOL    HW1 2314   0.850   2.371   2.568 -0.8914 -0.1008  0.4945
  579SOL    HW2 2315   0.924   2.472   2.467  0.3550 -2.5511 -1.1696
  579SOL     MW 2316   0.856   2.415   2.490  0.2153 -0.4404 -0.2172
  580SOL     OW 2317   0.894   2.960   0.035  0.1320  0.6830 -0.3186
  580SOL    HW1 2318   0.947   2.879   0.044 -3.4676  1.9471 -0.7486
  580SOL    HW2 2319   0.828   2.938  -0.026  0.3778 -0.8770 -0.7850
  580SOL     MW 2320   0.892   2.947   0.028 -0.3105  0.6440 -0.4369
  581SOL     OW 2321   1.066   2.511   1.706 -0.4565 -0.5372 -0.3315
  581SOL    HW1 2322   1.118   2.521   1.785  1.7701  0.0808 -2.6395
  581SOL    HW2 2323   1.129   2.491   1.641 -0.8547  0.8534  1.5556
  581SOL     MW 2324   1.081   2.509   1.708 -0.2152 -0.2722 -0.3870
  582SOL     OW 2325   0.003   2.835   2.524 -0.0392  0.1098 -0.4477
  582SOL    HW1 2326   0.008   2.903   2.586  0.7581  3.0426 -3.2908
  582SOL    HW2 2327   0.098   2.805   2.524  0.0425  1.7011 -0.3264
  582SOL     MW 2328   0.016   2.840   2.532  0.0768  0.7067 -0.8068
  583SOL     OW 2329   1.986   2.454   2.642 -0.1561 -0.0308  0.3721
  583SOL    HW1 2330   2.081   2.482   2.631  1.2403  0.6625 -3.6076
  583SOL    HW2 2331   1.995   2.362   2.640 -3.4308 -0.2892 -0.1242
  583SOL     MW 2332   1.999   2.446   2.640 -0.4039  0.0266 -0.2185
  584SOL     OW 2333   0.179   1.865   2.116 -0.0121  0.4045 -0.2809
  584SOL    HW1 2334   0.272   1.844   2.090 -0.7540 -0.3021  0.9952
  584SOL    HW2 2335   0.188   1.890   2.205 -1.2701 -0.9070  0.6985
  584SOL     MW 2336   0.193   1.865   2.124 -0.2760  0.1383  0.0167
  585SOL     OW 2337   1.494   2.578   0.054 -0.0188  0.6545  0.4212
  585SOL    HW1 2338   1.447   2.599  -0.028 -0.8563  4.2777  0.7074
  585SOL    HW2 2339   1.447   2.619   0.123  1.9538  0.6715 -2.9592
  585SOL     MW 2340   1.482   2.586   0.052  0.1309  1.1348  0.0130
  586SOL     OW 2341   1.240   2.989   2.385  0.2574 -0.2797  0.1148
  586SOL    HW1 2342   1.307   2.942   2.340 -0.5059 -2.1257  0.9131
  586SOL    HW2 2343   1.271   3.015   2.475  0.7111  1.6694  3.1186
  586SOL     MW 2344   1.253   2.986   2.391  0.2166 -0.2661  0.6164
  587SOL     OW 2345   1.242   1.621   2.128 -0.0909 -0.1117  0.4929
  587SOL    HW1 2346   1.232   1.552   2.196  2.5766 -0.6360  0.3592
  587SOL    HW2 2347   1.204   1.583   2.046 -1.0403 -1.5509 -2.9347
  587SOL     MW 2348   1.235   1.607   2.126  0.1358 -0.3708  0.0231
  588SOL     OW 2349   1.397   2.122   2.717 -0.0800  0.6922  0.0152
  588SOL    HW1 2350   1.479   2.102   2.760  0.6558  0.2658 -0.0217
  588SOL    HW2 2351   1.343   2.123   2.804  1.8670 -0.1450 -0.7278
  588SOL     MW 2352   1.400   2.119   2.734  0.2740  0.5254 -0.0877
  589SOL     OW 2353   1.352   2.076   0.084 -0.2920  0.1922  0.2268
  589SOL    HW1 2354   1.363   2.162   0.130 -1.3888  0.2127  0.8802
  589SOL    HW2 2355   1.330   2.008   0.150  1.8926  1.0721  1.5373
  589SOL     MW 2356   1.351   2.078   0.099 -0.1485  0.3110  0.4859
  590SOL     OW 2357   0.406   2.594   2.254 -0.3700 -0.6770  0.2768
  590SOL    HW1 2358   0.369   2.595   2.166  1.7984  0.3963 -0.3707
  590SOL    HW2 2359   0.498   2.611   2.238  0.0336  2.0179  0.8822
  590SOL     MW 2360   0.413   2.596   2.240 -0.0307 -0.1798  0.2712
  591SOL     OW 2361   2.315   0.716   0.010  0.0827  0.1066  0.4634
  591SOL    HW1 2362   2.252   0.764  -0.043  1.7270  1.0011 -0.5505
  591SOL    HW2 2363   2.404   0.741  -0.022  0.6917 -0.5466 -0.2149
  591SOL     MW 2364   2.318   0.726  -0.001  0.3800  0.1384  0.2401
  592SOL     OW 2365   1.857   3.017   0.836  0.3138  0.2213 -0.3229
  592SOL    HW1 2366   1.822   3.061   0.758 -2.2191  1.0332 -0.5019
  592SOL    HW2 2367   1.881   2.936   0.793 -0.6680  0.2475  0.5779
  592SOL     MW 2368   1.855   3.012   0.820 -0.1500  0.3318 -0.2276
  593SOL     OW 2369   1.899   0.753   0.847  0.0546 -0.1874 -0.4596
  593SOL    HW1 2370   1.819   0.738   0.789 -0.2431  0.3914 -0.8390
  593SOL    HW2 2371   1.930   0.665   0.862 -0.7766 -0.4807  0.8815
  593SOL     MW 2372   1.892   0.739   0.841 -0.0943 -0.1497 -0.3327
  594SOL     OW 2373   2.734   1.114   1.379  0.4659 -0.3330 -0.0314
  594SOL    HW1 2374   2.813   1.166   1.400  1.3230 -1.4685 -1.1974
  594SOL    HW2 2375   2.729   1.078   1.293 -0.3729  0.4047  0.1601
  594SOL     MW 2376   2.744   1.116   1.370  0.4683 -0.3855 -0.1600
  595SOL     OW 2377   0.449   0.955   0.684  0.1169  0.1844 -0.2287
  595SOL    HW1 2378   0.477   1.029   0.628 -0.4468  0.0080  1.1250
  595SOL    HW2 2379   0.474   0.992   0.772  0.5231  0.7539 -3.0603
  595SOL     MW 2380   0.456   0.970   0.688  0.0961  0.2363 -0.4237
  596SOL     OW 2381   2.423   1.378   0.594 -0.2741  0.2378 -0.2652
  596SOL    HW1 2382   2.478   1.435   0.540  1.9611  1.3468 -0.4377
  596SOL    HW2 2383   2.488   1.323   0.643  1.7778  0.1980 -0.2746
  596SOL     MW 2384   2.439   1.378   0.594  0.2916  0.3788 -0.2892
  597SOL     OW 2385   2.184   0.654   1.736  0.0416  0.2603  0.1812
  597SOL    HW1 2386   2.253   0.588   1.760 -0.7218 -0.4841 -1.8316
  597SOL    HW2 2387   2.159   0.617   1.648  1.5397 -0.3633  1.7271
  597SOL     MW 2388   2.190   0.640   1.728  0.1385  0.0798  0.1196
  598SOL     OW 2389   2.604   1.023   2.849 -0.3500  0.3449  0.1412
  598SOL    HW1 2390   2.634   0.977   2.762 -0.3590 -2.5755  1.1835
  598SOL    HW2 2391   2.676   1.081   2.883  4.3043 -1.4657  1.9988
  598SOL     MW 2392   2.618   1.025   2.842  0.2629 -0.2793  0.5238
  599SOL     OW 2393   2.924   0.340   2.036 -0.1081 -0.1372  0.8435
  599SOL    HW1 2394   2.877   0.343   2.122  0.8707 -0.0619 -1.6145
  599SOL    HW2 2395   2.960   0.429   2.018  0.1063 -0.4787  0.0623
  599SOL     MW 2396   2.923   0.352   2.045  0.0493 -0.1723  0.4161
  600SOL     OW 2397   1.898   1.719   0.884 -0.1865  0.0463  0.5531
  600SOL    HW1 2398   1.891   1.785   0.951  1.2528  0.0510 -0.9723
  600SOL    HW2 2399   1.807   1.724   0.852  1.9705 -1.1919  0.1162
  600SOL     MW 2400   1.885   1.729   0.888  0.2880 -0.1165  0.2942
  601SOL     OW 2401   2.525   0.797   0.845  0.1018 -0.4189 -0.0916
  601SOL    HW1 2402   2.497   0.793   0.935  3.3349 -0.9917 -2.1740
  601SOL    HW2 2403   2.485   0.723   0.800 -1.7299  0.1395 -2.8742
  601SOL     MW 2404   2.516   0.787   0.851  0.2867 -0.4208 -0.7335
  602SOL     OW 2405   2.337   1.918   0.710  0.0897  0.2216  0.2329
  602SOL    HW1 2406   2.297   1.858   0.775  1.6281 -1.7196  0.1241
  602SOL    HW2 2407   2.262   1.978   0.689 -0.7535 -2.3020 -2.0712
  602SOL     MW 2408   2.322   1.918   0.716  0.1815 -0.3675 -0.0854
  603SOL     OW 2409   3.010   1.398   1.787  0.7073 -0.0033 -0.1166
  603SOL    HW1 2410   3.078   1.420   1.846  0.8538  0.4599  1.8343
  603SOL    HW2 2411   3.001   1.301   1.797 -0.5113 -0.6787  3.5678
  603SOL     MW 2412   3.018   1.388   1.796  0.5658 -0.0313  0.6269
  604SOL     OW 2413   2.117   1.572   0.447  0.0979 -0.4664  0.3314
  604SOL    HW1 2414   2.118   1.506   0.516  1.1066 -2.6644  0.5774
  604SOL    HW2 2415   2.061   1.640   0.487 -1.3693 -0.3394 -0.9471
  604SOL     MW 2416   2.110   1.572   0.462  0.0374 -0.7397  0.1951
  605SOL     OW 2417   2.680   1.560   0.843 -0.3366 -0.1391 -0.3134
  605SOL    HW1 2418   2.605   1.607   0.809 -0.9098 -2.3571  0.6559
  605SOL    HW2 2419   2.652   1.522   0.921 -3.0080  2.7706 -0.2937
  605SOL     MW 2420   2.667   1.561   0.849 -0.7647 -0.0479 -0.1829
  606SOL     OW 2421   2.564   1.761   1.931 -0.2083  0.3527 -1.0124
  606SOL    HW1 2422   2.467   1.775   1.921 -0.6079 -3.2644 -0.5875
  606SOL    HW2 2423   2.581   1.679   1.882 -2.6389  0.4470 -1.0642
  606SOL     MW 2424   2.554   1.752   1.923 -0.5817 -0.1121 -0.9632
  607SOL     OW 2425   2.342   1.020   3.010 -0.4966  0.5369 -0.4716
  607SOL    HW1 2426   2.402   0.995   2.938  1.1500 -1.4950  0.4031
  607SOL    HW2 2427   2.398   1.061   3.084 -0.6825 -0.0417 -2.2718
  607SOL     MW 2428   2.357   1.022   3.010 -0.3039  0.1924 -0.5937
  608SOL     OW 2429   1.879   0.322   0.579 -0.1519  0.2923  0.3528
  608SOL    HW1 2430   1.880   0.375   0.503  2.4373  1.4970 -0.2503
  608SOL    HW2 2431   1.883   0.226   0.555 -0.1639  0.0836  0.0070
  608SOL     MW 2432   1.880   0.317   0.566  0.1881  0.4237  0.2276
  609SOL     OW 2433   2.175   1.952   3.049  0.2584 -0.0592  0.1249
  609SOL    HW1 2434   2.090   1.911   3.020  0.2518  0.4595  1.4805
  609SOL    HW2 2435   2.177   1.949   3.144  2.1348  0.4332 -0.1313
  609SOL     MW 2436   2.164   1.946   3.058  0.5051  0.0742  0.2699
  610SOL     OW 2437   1.870   1.061   1.262 -0.3114 -0.3744 -0.4179
  610SOL    HW1 2438   1.848   0.996   1.188 -1.2319 -0.9102 -0.3457
  610SOL    HW2 2439   1.787   1.066   1.314 -1.4415 -1.1178 -0.6807
  610SOL     MW 2440   1.856   1.053   1.259 -0.5820 -0.5432 -0.4430
  611SOL     OW 2441   2.451   1.666   0.730  0.3890 -0.0883  0.7450
  611SOL    HW1 2442   2.437   1.751   0.682  1.4223  0.3847  0.2393
  611SOL    HW2 2443   2.447   1.599   0.665 -1.9791  3.4025  1.5922
  611SOL     MW 2444   2.448   1.668   0.716  0.2129  0.4347  0.7901
  612SOL     OW 2445   2.784   2.836   0.457 -0.0478 -0.0831 -0.4202
  612SOL    HW1 2446   2.820   2.887   0.533 -0.4080  1.1473 -0.9328
  612SOL    HW2 2447   2.859   2.804   0.406 -1.6266  0.8535 -2.2262
  612SOL     MW 2448   2.799   2.839   0.460 -0.3037  0.2028 -0.7261
  613SOL     OW 2449   1.554   1.029   1.067 -0.2818 -0.1743 -0.5474
  613SOL    HW1 2450   1.559   1.119   1.086 -1.3024 -1.2272 -2.6699
  613SOL    HW2 2451   1.569   0.983   1.149  0.0494  0.3307 -2.1716
  613SOL     MW 2452   1.556   1.035   1.080 -0.3728 -0.2466 -1.0417
  614SOL     OW 2453   2.051   0.559   1.519 -0.4350 -0.3433 -0.2373
  614SOL    HW1 2454   2.032   0.483   1.577 -1.8012 -0.4925  2.1483
  614SOL    HW2 2455   2.030   0.515   1.437  0.3478 -3.0960  1.8451
  614SOL     MW 2456   2.045   0.543   1.515 -0.5120 -0.7262  0.3522
  615SOL     OW 2457   2.233   0.838   0.231 -0.6147 -0.0785  0.1027
  615SOL    HW1 2458   2.282   0.800   0.303 -0.1419  0.3190  1.9785
  615SOL    HW2 2459   2.266   0.796   0.154  2.9918  1.8444  2.5387
  615SOL     MW 2460   2.244   0.827   0.230 -0.0765  0.2277  0.6716
  616SOL     OW 2461   2.576   0.384   1.610  0.7925 -1.0359 -0.4289
  616SOL    HW1 2462   2.507   0.327   1.583  0.6504 -1.1891 -0.7873
  616SOL    HW2 2463   2.620   0.422   1.530 -0.7628 -0.2620 -0.8262
  616SOL     MW 2464   2.572   0.382   1.596  0.5686 -0.9540 -0.5286
  617SOL     OW 2465   2.824   0.579   1.729 -0.3864 -0.3076 -0.6358
  617SOL    HW1 2466   2.766   0.602   1.800  0.4845 -0.8081  1.5699
  617SOL    HW2 2467   2.829   0.486   1.735 -1.6672 -0.8892 -0.1722
  617SOL     MW 2468   2.817   0.570   1.739 -0.4405 -0.4504 -0.2836
  618SOL     OW 2469   2.691   0.345   1.903  0.1332  0.0048  0.2584
  618SOL    HW1 2470   2.672   0.433   1.935 -1.5516 -0.0432  0.8166
  618SOL    HW2 2471   2.781   0.324   1.932 -1.0244 -0.5495  0.6237
  618SOL     MW 2472   2.700   0.354   1.911 -0.2418 -0.0747  0.3803
  619SOL     OW 2473   2.598   0.759   0.161  0.6441 -0.1657 -0.0928
  619SOL    HW1 2474   2.676   0.808   0.182 -0.1554 -1.6700 -0.1882
  619SOL    HW2 2475   2.562   0.716   0.247 -0.6645 -1.4234 -0.7706
  619SOL     MW 2476   2.604   0.760   0.175  0.3659 -0.5301 -0.1949
  620SOL     OW 2477   2.302   1.079   0.951 -0.0279 -0.3748  0.9943
  620SOL    HW1 2478   2.370   1.051   0.892  0.6058  2.7560  2.2006
  620SOL    HW2 2479   2.229   1.032   0.916  1.9596  0.5806 -2.9239
  620SOL     MW 2480   2.301   1.069   0.939  0.3179  0.1644  0.6365
  621SOL     OW 2481   1.480   2.103   1.998 -0.1412 -0.0859  0.0644
  621SOL    HW1 2482   1.411   2.036   1.995 -4.7964 -0.6695 -1.4797
  621SOL    HW2 2483   1.554   2.074   2.052 -0.5092 -1.9281 -1.5873
  621SOL     MW 2484   1.481   2.090   2.005 -0.8040 -0.4059 -0.3573
  622SOL     OW 2485   2.648   0.151   0.240 -0.1205  0.2698  0.0296
  622SOL    HW1 2486   2.737   0.176   0.266  2.1267  1.6054 -0.5938
  622SOL    HW2 2487   2.636   0.057   0.223  2.2650  0.8216  3.5650
  622SOL     MW 2488   2.658   0.142   0.241  0.4907  0.5188  0.4138
  623SOL     OW 2489   2.347   2.698   0.899  0.0205 -0.3612  0.3413
  623SOL    HW1 2490   2.407   2.774   0.895 -0.0154  1.9762  1.0564
  623SOL    HW2 2491   2.272   2.726   0.952 -2.7370 -0.4450 -0.2586
  623SOL     MW 2492   2.345   2.712   0.905 -0.3481 -0.0638  0.3565
  624SOL     OW 2493   2.253   1.664   3.040 -0.6329  0.6422 -0.2054
  624SOL    HW1 2494   2.168   1.615   3.061 -0.2026 -1.2024  0.1397
  624SOL    HW2 2495   2.230   1.758   3.031 -1.1312  1.9474 -0.4271
  624SOL     MW 2496   2.239   1.670   3.042 -0.6419  0.5710 -0.1891
  625SOL     OW 2497   2.131   1.967   1.079  0.4131  0.4026  0.3744
  625SOL    HW1 2498   2.197   1.927   1.137 -0.8900  1.5820 -0.3883
  625SOL    HW2 2499   2.153   1.914   1.000 -1.9014 -0.6228  0.6458
  625SOL     MW 2500   2.143   1.955   1.076 -0.0642  0.4229  0.3096
  626SOL     OW 2501   0.186   1.599   2.316 -0.3071  0.5306 -0.2152
  626SOL    HW1 2502   0.138   1.555   2.243 -1.8077 -0.6076 -2.7594
  626SOL    HW2 2503   0.139   1.576   2.396  0.3539  2.1185  0.3495
  626SOL     MW 2504   0.173   1.590   2.317 -0.4179  0.5900 -0.4764
  627SOL     OW 2505   2.501   0.834   2.616  0.0314 -0.1431  0.2909
  627SOL    HW1 2506   2.430   0.887   2.574  1.7979 -1.5411 -2.2975
  627SOL    HW2 2507   2.513   0.768   2.546  1.1125  1.2631 -1.8027
  627SOL     MW 2508   2.493   0.832   2.601  0.4071 -0.1420 -0.3269
  628SOL     OW 2509   2.255   1.344   1.365  0.0403 -0.3246 -0.1911
  628SOL    HW1 2510   2.220   1.277   1.314 -1.1959 -1.7184 -0.0931
  628SOL    HW2 2511   2.348   1.325   1.365  0.7483 -1.0694 -1.2764
  628SOL     MW 2512   2.262   1.333   1.358 -0.0294 -0.6068 -0.3214
  629SOL     OW 2513   1.993   0.533   1.246 -0.0197 -0.4980  0.6153
  629SOL    HW1 2514   2.049   0.612   1.248  3.4139 -0.6705 -0.0520
  629SOL    HW2 2515   1.904   0.565   1.266 -0.2319 -0.1510 -0.2890
  629SOL     MW 2516   1.988   0.548   1.249  0.4053 -0.4750  0.4079
  630SOL     OW 2517   2.500   1.834   3.001  0.0698  0.8024 -0.2788
  630SOL    HW1 2518   2.475   1.925   2.981  0.4455  0.1038  0.1747
  630SOL    HW2 2519   2.417   1.779   2.991 -3.4001 -0.9789 -1.3891
  630SOL     MW 2520   2.486   1.839   2.997 -0.3385  0.4752 -0.3654
  631SOL     OW 2521   1.990   1.815   1.573 -0.0714  0.1534  0.3745
  631SOL    HW1 2522   2.004   1.727   1.610 -0.0533 -0.6790 -0.1462
  631SOL    HW2 2523   1.980   1.802   1.477  3.1176 -0.2382 -0.5503
  631SOL     MW 2524   1.991   1.802   1.565  0.3517 -0.0081  0.1838
  632SOL     OW 2525   0.097   2.090   1.515 -0.7302  0.4025 -0.2788
  632SOL    HW1 2526   0.047   2.067   1.592  1.4807  0.4085 -3.0571
  632SOL    HW2 2527   0.131   1.997   1.485 -0.7700 -2.9538  0.8459
  632SOL     MW 2528   0.095   2.075   1.521 -0.4437 -0.0395 -0.4970
  633SOL     OW 2529   2.447   0.664   0.380  0.4598  0.0535  0.4319
  633SOL    HW1 2530   2.530   0.660   0.430  1.8753 -0.3942  0.5680
  633SOL    HW2 2531   2.398   0.581   0.373  1.1622  2.3810  1.3750
  633SOL     MW 2532   2.451   0.653   0.385  0.7393  0.3016  0.5743
  634SOL     OW 2533   2.633   0.015   0.685 -0.4426 -0.1664  0.2066
  634SOL    HW1 2534   2.701   0.082   0.690  0.7811  0.1810  0.9935
  634SOL    HW2 2535   2.614   0.009   0.594 -1.0872  1.4771  2.8064
  634SOL     MW 2536   2.640   0.023   0.673 -0.3662  0.0963  0.6534
  635SOL     OW 2537   2.582   0.093   1.815 -0.1443  0.6147  0.3306
  635SOL    HW1 2538   2.641   0.063   1.748 -4.0553  2.8350 -1.9131
  635SOL    HW2 2539   2.621   0.177   1.841 -1.3336  0.2038  3.3698
  635SOL     MW 2540   2.595   0.101   1.809 -0.8173  0.8534  0.4355
  636SOL     OW 2541   2.911   1.700   0.966  0.1919  0.5251 -0.0366
  636SOL    HW1 2542   2.816   1.708   0.947  0.1457 -1.6482  2.7151
  636SOL    HW2 2543   2.915   1.757   1.043  0.3611  1.8627 -0.7150
  636SOL     MW 2544   2.899   1.709   0.974  0.2081  0.4149  0.2369
  637SOL     OW 2545   2.887   1.512   0.672  0.7128  0.4590 -0.4268
  637SOL    HW1 2546   2.957   1.578   0.689  3.3099  1.2581  1.8359
  637SOL    HW2 2547   2.817   1.520   0.744  1.1849  0.1337 -0.9463
  637SOL     MW 2548   2.887   1.522   0.684  1.1178  0.5215 -0.1968
  638SOL     OW 2549   2.685   0.615   0.505  0.2890 -0.3950 -0.0811
  638SOL    HW1 2550   2.780   0.620   0.488  2.8412  0.5058  0.5346
  638SOL    HW2 2551   2.681   0.611   0.599 -1.0588 -3.2525 -0.9511
  638SOL     MW 2552   2.697   0.615   0.515  0.4479 -0.6532 -0.1146
  639SOL     OW 2553   1.804   0.045   0.501 -0.7719  0.3965 -0.1690
  639SOL    HW1 2554   1.716   0.076   0.503 -1.1241 -2.9175 -0.3285
  639SOL    HW2 2555   1.812  -0.048   0.486  0.8430  1.2454 -1.8883
  639SOL     MW 2556   1.793   0.037   0.499 -0.6053  0.0712 -0.4169
  640SOL     OW 2557   0.340   1.382   0.062  0.1676  0.2086  0.3801
  640SOL    HW1 2558   0.363   1.367  -0.033  0.9011  1.8779 -0.9760
  640SOL    HW2 2559   0.313   1.300   0.097  1.5377  1.6326  0.2204
  640SOL     MW 2560   0.340   1.369   0.054  0.4452  0.6167  0.1801
  641SOL     OW 2561   2.245   0.456   0.359 -0.7745 -0.1764 -0.4438
  641SOL    HW1 2562   2.279   0.449   0.266  2.8496  1.6114  1.9143
  641SOL    HW2 2563   2.280   0.382   0.409  0.5215 -0.1580  1.5951
  641SOL     MW 2564   2.254   0.446   0.353 -0.1253  0.0619  0.1364
  642SOL     OW 2565   0.028   3.079   0.572 -0.2651 -0.2103  0.0805
  642SOL    HW1 2566  -0.025   3.145   0.530  0.6991  0.6783 -0.8642
  642SOL    HW2 2567  -0.030   3.010   0.609 -1.5958  3.0285  0.5578
  642SOL     MW 2568   0.014   3.078   0.571 -0.3135  0.3343  0.0188
  643SOL     OW 2569   2.038   0.348   1.704  0.3492  0.2507  0.1475
  643SOL    HW1 2570   2.109   0.346   1.766  0.7629 -2.3840  0.0311
  643SOL    HW2 2571   2.065   0.271   1.658 -0.8755  0.9225 -0.4729
  643SOL     MW 2572   2.051   0.337   1.706  0.2422 -0.0083  0.0503
  644SOL     OW 2573   2.709   1.912   1.058  0.2117  0.3952  0.3599
  644SOL    HW1 2574   2.655   1.863   1.120  2.6115  0.8433 -0.8585
  644SOL    HW2 2575   2.642   1.955   1.005 -3.6825  1.1211  3.6702
  644SOL     MW 2576   2.693   1.912   1.060  0.0145  0.5501  0.6359
  645SOL     OW 2577   2.831   0.894   0.652 -0.2837  0.1419 -0.1366
  645SOL    HW1 2578   2.901   0.862   0.712  2.5602 -1.0661 -0.4235
  645SOL    HW2 2579   2.767   0.822   0.653 -1.4888  1.0358  0.9415
  645SOL     MW 2580   2.832   0.880   0.660 -0.0675  0.1004 -0.0322
  646SOL     OW 2581   0.167   2.257   0.840 -0.2037  0.1003 -1.1481
  646SOL    HW1 2582   0.204   2.164   0.842  0.1241 -1.1278 -0.4614
  646SOL    HW2 2583   0.122   2.282   0.754  0.0617  0.7460  1.5380
  646SOL     MW 2584   0.166   2.248   0.829 -0.1255  0.0234 -0.7031
  647SOL     OW 2585   2.682   0.495   2.980  0.2636 -0.0151  0.0535
  647SOL    HW1 2586   2.631   0.435   3.042 -0.9573 -0.0462  0.2799
  647SOL    HW2 2587   2.642   0.576   2.974  1.1490 -3.0076 -2.9390
  647SOL     MW 2588   2.670   0.498   2.988  0.2193 -0.4141 -0.3115
  648SOL     OW 2589   2.183   0.725   1.166 -0.3276  0.1991 -0.2691
  648SOL    HW1 2590   2.171   0.768   1.085  1.2456  3.5644  0.6440
  648SOL    HW2 2591   2.240   0.788   1.212 -0.0021 -1.4348 -1.2810
  648SOL     MW 2592   2.189   0.739   1.162 -0.0771  0.4275 -0.2821
  649SOL     OW 2593   2.404   2.740   1.262 -0.1065  0.4077  0.1078
  649SOL    HW1 2594   2.479   2.795   1.260  0.1134 -0.2685 -1.3233
  649SOL    HW2 2595   2.408   2.677   1.191  0.1125  0.5504  1.1726
  649SOL     MW 2596   2.414   2.739   1.253 -0.0486  0.3373  0.0595
  650SOL     OW 2597   2.817   0.216   0.673  0.2522 -0.3442 -0.0505
  650SOL    HW1 2598   2.862   0.296   0.712  0.2768 -0.2554  0.4584
  650SOL    HW2 2599   2.868   0.195   0.596 -1.7800 -0.3297 -0.8887
  650SOL     MW 2600   2.829   0.224   0.668 -0.0127 -0.3306 -0.0939
  651SOL     OW 2601   2.974   0.388   0.826  0.3747  0.5491 -0.3953
  651SOL    HW1 2602   3.051   0.439   0.784 -1.2168  0.6893 -1.5783
  651SOL    HW2 2603   2.935   0.452   0.885 -0.7700 -0.5495 -1.5787
  651SOL     MW 2604   2.979   0.403   0.828  0.0137  0.4226 -0.7075
  652SOL     OW 2605   2.399   1.455   2.981 -0.0816  0.6079  0.4506
  652SOL    HW1 2606   2.481   1.469   2.932 -2.7046 -0.2969  0.1732
  652SOL    HW2 2607   2.344   1.540   2.988  0.4155  0.6708  1.2099
  652SOL     MW 2608   2.402   1.468   2.976 -0.3621  0.4969  0.5142
  653SOL     OW 2609   1.946   0.432   0.310 -0.3789  0.5860 -0.3052
  653SOL    HW1 2610   1.929   0.342   0.283 -0.4515 -0.7582 -0.4248
  653SOL    HW2 2611   2.041   0.428   0.331  0.1534 -4.0449  1.6255
  653SOL     MW 2612   1.956   0.419   0.309 -0.3182 -0.2023 -0.0663
  654SOL     OW 2613   2.475   1.035   0.725 -0.2574 -0.1138 -0.4449
  654SOL    HW1 2614   2.383   1.053   0.697 -0.3449 -0.8427 -2.1182
  654SOL    HW2 2615   2.474   0.946   0.756 -2.5941  0.7906  2.0381
  654SOL     MW 2616   2.462   1.026   0.725 -0.5772 -0.0907 -0.3380
  655SOL     OW 2617   2.996   0.922   0.402  0.5485  0.2503 -0.3926
  655SOL    HW1 2618   2.960   0.969   0.476 -2.3055  1.2646 -0.7239
  655SOL    HW2 2619   2.988   0.825   0.429  0.4549 -2.5597 -0.7179
  655SOL     MW 2620   2.990   0.915   0.416  0.1596  0.0134 -0.4792
  656SOL     OW 2621   1.950   2.685   1.209 -0.1589 -0.6749  0.1030
  656SOL    HW1 2622   1.896   2.758   1.250 -0.9028 -0.6041 -2.5972
  656SOL    HW2 2623   1.987   2.631   1.278  2.3609  0.7909 -3.0887
  656SOL     MW 2624   1.948   2.688   1.224  0.0754 -0.4721 -0.6743
  657SOL     OW 2625   0.216   1.550   1.244 -0.2491  0.6416  0.0589
  657SOL    HW1 2626   0.131   1.547   1.279  0.2191  2.7853  1.3882
  657SOL    HW2 2627   0.219   1.473   1.189 -2.0663 -1.9892  2.5141
  657SOL     MW 2628   0.205   1.539   1.241 -0.4271  0.5773  0.5582
  658SOL     OW 2629   2.703   1.375   0.240 -0.3448  0.0182 -0.4714
  658SOL    HW1 2630   2.641   1.336   0.303  1.4375  1.6845  1.4372
  658SOL    HW2 2631   2.741   1.440   0.300 -1.8177 -1.5295  0.1086
  658SOL     MW 2632   2.700   1.378   0.256 -0.3040  0.0338 -0.1430
  659SOL     OW 2633   2.298   1.525   1.033  0.4445 -0.1226  0.2671
  659SOL    HW1 2634   2.377   1.494   1.071 -3.8132  0.6497 -3.2900
  659SOL    HW2 2635   2.244   1.577   1.096  1.1970  1.8233 -1.7253
  659SOL     MW 2636   2.302   1.528   1.046 -0.0180  0.2360 -0.4651
  660SOL     OW 2637   2.078   1.560   1.696 -0.2265 -0.1196 -0.3130
  660SOL    HW1 2638   2.085   1.576   1.798 -2.0248  1.8503 -0.8267
  660SOL    HW2 2639   2.010   1.496   1.685 -0.9956 -1.7796  2.2164
  660SOL     MW 2640   2.070   1.554   1.708 -0.5652 -0.0787 -0.0470
  661SOL     OW 2641   2.397   1.112   0.147 -0.2987 -0.1980  0.1982
  661SOL    HW1 2642   2.466   1.156   0.192  1.3383 -0.1120  1.1764
  661SOL    HW2 2643   2.385   1.036   0.199  0.2165  0.0491 -0.2502
  661SOL     MW 2644   2.405   1.108   0.160 -0.0147 -0.1541  0.2681
  662SOL     OW 2645   2.535   2.945   0.884 -0.4314 -0.3412  0.1523
  662SOL    HW1 2646   2.479   2.999   0.939  0.1381 -2.7117 -1.3259
  662SOL    HW2 2647   2.558   3.002   0.808  0.7372  0.7040 -0.3798
  662SOL     MW 2648   2.531   2.960   0.881 -0.2020 -0.5161 -0.1129
  663SOL     OW 2649   2.840   1.562   0.405  0.1902 -0.4644 -0.4329
  663SOL    HW1 2650   2.903   1.627   0.384  0.9722  1.2015 -0.9665
  663SOL    HW2 2651   2.855   1.532   0.492 -0.5918 -0.4376 -3.7700
  663SOL     MW 2652   2.850   1.567   0.414  0.1902 -0.2411 -0.9436
  664SOL     OW 2653   2.474   1.571   1.567 -0.2759 -0.4138  0.8485
  664SOL    HW1 2654   2.451   1.658   1.547 -2.9427 -2.2426 -1.8811
  664SOL    HW2 2655   2.397   1.523   1.601 -0.5094 -1.7583 -1.1510
  664SOL     MW 2656   2.460   1.576   1.569 -0.6585 -0.8325  0.2245
  665SOL     OW 2657   2.869   0.809   2.070 -0.3466 -0.0222  0.3235
  665SOL    HW1 2658   2.838   0.852   1.992  0.1830  2.6282  1.2832
  665SOL    HW2 2659   2.950   0.760   2.049  1.2834 -1.4955  1.4102
  665SOL     MW 2660   2.876   0.808   2.057 -0.0616  0.1331  0.5935
  666SOL     OW 2661   2.789   3.054   1.687  0.3729  0.2894 -0.0236
  666SOL    HW1 2662   2.810   3.045   1.592  2.4171 -3.5847  1.3385
  666SOL    HW2 2663   2.759   2.966   1.711 -0.0151 -1.7963  1.5416
  666SOL     MW 2664   2.788   3.041   1.677  0.5914 -0.4969  0.3626
  667SOL     OW 2665   1.974   2.701   1.620  0.2347 -0.0810  0.5044
  667SOL    HW1 2666   1.976   2.627   1.685  1.1908  1.5678  2.4423
  667SOL    HW2 2667   2.066   2.736   1.620 -1.8921 -1.6596 -2.7390
  667SOL     MW 2668   1.986   2.696   1.628  0.0802 -0.0718  0.3322
  668SOL     OW 2669   2.745   0.630   0.781  0.0551  0.8624  0.3886
  668SOL    HW1 2670   2.808   0.647   0.849 -0.2602 -0.1780  2.3182
  668SOL    HW2 2671   2.671   0.683   0.812 -0.1239 -4.4940 -1.6912
  668SOL     MW 2672   2.744   0.639   0.794 -0.0101  0.0184  0.3687
  669SOL     OW 2673   0.178   0.931   0.685 -0.2259 -0.4069 -0.5425
  669SOL    HW1 2674   0.137   1.008   0.732 -0.0110  1.1368 -0.5471
  669SOL    HW2 2675   0.283   0.948   0.690 -0.2744  1.9473 -2.5291
  669SOL     MW 2676   0.187   0.943   0.692 -0.2040  0.1074 -0.8052
  670SOL     OW 2677   2.945   0.291   0.191 -0.2918 -0.0363  0.0641
  670SOL    HW1 2678   2.947   0.214   0.127  0.6738 -0.1883 -0.9651
  670SOL    HW2 2679   2.955   0.374   0.139  0.5691  0.3051 -0.6577
  670SOL     MW 2680   2.947   0.292   0.176 -0.0508 -0.0113 -0.1669
  671SOL     OW 2681   2.157   3.057   1.589 -0.0089 -0.6787 -0.5378
  671SOL    HW1 2682   2.163   3.118   1.520  2.0765  0.3469 -0.1135
  671SOL    HW2 2683   2.061   3.066   1.615 -2.6371 -0.3752 -0.0524
  671SOL     MW 2684   2.145   3.066   1.584 -0.0805 -0.5033 -0.4178
  672SOL     OW 2685   1.876   1.696   1.330  0.1285 -0.2143 -0.3735
  672SOL    HW1 2686   1.791   1.718   1.378 -2.2531  1.1335  1.1679
  672SOL    HW2 2687   1.881   1.757   1.251 -0.1964 -2.1676  1.9979
  672SOL     MW 2688   1.866   1.707   1.326 -0.2286 -0.2942  0.1428
  673SOL     OW 2689   2.787   1.112   0.503  0.1864 -0.0808  0.1133
  673SOL    HW1 2690   2.807   1.035   0.560  0.9069 -0.0787  0.1429
  673SOL    HW2 2691   2.876   1.161   0.515  1.8042  3.1586 -0.0317
  673SOL     MW 2692   2.801   1.109   0.512  0.4949  0.3469  0.0981
  674SOL     OW 2693   2.497   0.083   1.239  0.1861  0.1193 -0.6014
  674SOL    HW1 2694   2.455   0.084   1.153  3.8552  0.8207  0.8006
  674SOL    HW2 2695   2.536  -0.010   1.243 -0.4520  1.7137 -1.3467
  674SOL     MW 2696   2.497   0.071   1.228  0.5860  0.4222 -0.5148
  675SOL     OW 2697   3.008   1.010   1.105  0.5597 -0.6482 -0.0496
  675SOL    HW1 2698   3.072   1.011   1.172  0.7272  1.9371 -1.1795
  675SOL    HW2 2699   3.050   1.017   1.021 -0.7720 -3.7759 -0.8215
  675SOL     MW 2700   3.022   1.011   1.103  0.4061 -0.7197 -0.3005
  676SOL     OW 2701   2.824   1.508   1.609  0.9072 -0.2391  0.4965
  676SOL    HW1 2702   2.790   1.413   1.606 -1.7029 -1.6325  1.4725
  676SOL    HW2 2703   2.912   1.497   1.639 -1.8457  0.1464 -1.4876
  676SOL     MW 2704   2.831   1.494   1.613  0.1996 -0.3721  0.3635
  677SOL     OW 2705   2.412   0.778   1.884  0.4046 -0.8200 -0.0192
  677SOL    HW1 2706   2.379   0.684   1.882 -0.4764 -0.7802  0.0478
  677SOL    HW2 2707   2.361   0.815   1.960 -3.6185  1.4305  0.4539
  677SOL     MW 2708   2.401   0.770   1.894 -0.2425 -0.5178  0.0521
  678SOL     OW 2709   2.536   1.591   0.451 -0.0414 -0.3544 -0.5693
  678SOL    HW1 2710   2.451   1.643   0.438 -2.0323 -1.4807  1.6813
  678SOL    HW2 2711   2.609   1.659   0.446 -0.4980  2.2507  2.0855
  678SOL     MW 2712   2.535   1.607   0.448 -0.3643 -0.1593  0.0779
  679SOL     OW 2713   2.312   0.507   1.105 -0.2460  0.1255  0.2923
  679SOL    HW1 2714   2.292   0.447   1.179 -0.3702  0.9817  1.3843
  679SOL    HW2 2715   2.258   0.588   1.118 -0.6315  0.9597  1.4596
  679SOL     MW 2716   2.302   0.510   1.116 -0.3133  0.3486  0.5904
  680SOL     OW 2717   2.389   0.275   1.438  0.5521 -0.2316  0.0179
  680SOL    HW1 2718   2.329   0.220   1.500 -4.3510 -0.1913  1.9341
  680SOL    HW2 2719   2.405   0.230   1.353  0.7935  3.2020 -0.8708
  680SOL     MW 2720   2.383   0.262   1.435 -0.0630  0.2268  0.1535
  681SOL     OW 2721   0.306   0.562   1.578  0.0719  0.7046 -0.6048
  681SOL    HW1 2722   0.295   0.484   1.634  1.0730  2.9927  1.4934
  681SOL    HW2 2723   0.398   0.573   1.587  0.4693 -2.2851  2.9537
  681SOL     MW 2724   0.317   0.553   1.586  0.2564  0.6120  0.1416
  682SOL     OW 2725   0.131   2.979   1.485 -0.1278 -0.5387 -0.1848
  682SOL    HW1 2726   0.152   3.066   1.441 -0.0487  0.6344  1.8263
  682SOL    HW2 2727   0.075   2.999   1.564 -1.5064  2.3386 -2.6475
  682SOL     MW 2728   0.127   2.993   1.489 -0.2993 -0.0043 -0.2444
  683SOL     OW 2729   2.075   0.811   3.021  0.0739  0.0422  0.1197
  683SOL    HW1 2730   1.995   0.773   2.989  0.9111 -0.6423 -0.7319
  683SOL    HW2 2731   2.050   0.892   3.061 -0.8964  1.3020  0.3213
  683SOL     MW 2732   2.061   0.817   3.022  0.0564  0.1181  0.0339
  684SOL     OW 2733   2.172   1.758   0.883  0.1525 -0.3596  0.9342
  684SOL    HW1 2734   2.082   1.730   0.888  2.0725  0.4571  0.2247
  684SOL    HW2 2735   2.219   1.685   0.915  1.5295  1.0346 -4.4234
  684SOL     MW 2736   2.166   1.745   0.888  0.5875 -0.0679  0.1337
  685SOL     OW 2737   2.569   1.727   1.239  0.1700  0.2677  0.3209
  685SOL    HW1 2738   2.628   1.728   1.314  3.1221 -1.8105 -0.0988
  685SOL    HW2 2739   2.565   1.633   1.211 -0.7954 -2.2279  3.0719
  685SOL     MW 2740   2.576   1.715   1.245  0.4321 -0.3357  0.6285
  686SOL     OW 2741   2.885   0.711   1.468 -0.4587 -0.2827 -0.3481
  686SOL    HW1 2742   2.907   0.678   1.555  0.6278  2.1244  0.0513
  686SOL    HW2 2743   2.962   0.675   1.425  3.7762  1.4489  0.5127
  686SOL     MW 2744   2.898   0.702   1.474  0.2434  0.2634 -0.1818
  687SOL     OW 2745   2.158   0.307   1.213 -0.4781  0.0304  0.1812
  687SOL    HW1 2746   2.155   0.251   1.131  1.8658 -1.8107 -0.5782
  687SOL    HW2 2747   2.091   0.373   1.206  1.1318  0.3692 -0.9362
  687SOL     MW 2748   2.149   0.308   1.201  0.0435 -0.1678 -0.0664
  688SOL     OW 2749   2.394   0.587   1.461  0.0913  0.8120  0.3035
  688SOL    HW1 2750   2.439   0.508   1.485  0.8165  1.2404 -3.5697
  688SOL    HW2 2751   2.301   0.564   1.442 -1.1444  1.3369 -0.5066
  688SOL     MW 2752   2.388   0.574   1.462  0.0240  0.9378 -0.3144
  689SOL     OW 2753   2.563   0.756   2.988 -0.5947 -0.0197 -0.1743
  689SOL    HW1 2754   2.598   0.841   2.972  1.9439 -0.4026  0.4135
  689SOL    HW2 2755   2.576   0.760   3.085 -0.1067 -2.6511  1.9366
  689SOL     MW 2756   2.569   0.768   2.999 -0.1954 -0.4174  0.1817
  690SOL     OW 2757   2.103   0.972   1.937  0.2462 -0.2303  0.0724
  690SOL    HW1 2758   2.050   0.890   1.940 -0.3230 -0.0727 -1.3793
  690SOL    HW2 2759   2.142   0.972   1.847  3.2951  0.1627 -0.4631
  690SOL     MW 2760   2.101   0.961   1.926  0.5733 -0.1577 -0.1898
  691SOL     OW 2761   2.444   0.262   0.818  0.3710  0.3148  0.3690
  691SOL    HW1 2762   2.525   0.306   0.842 -0.9864  0.0420 -1.9502
  691SOL    HW2 2763   2.373   0.322   0.846 -2.2858  1.8935  1.1841
  691SOL     MW 2764   2.445   0.275   0.825 -0.1586  0.4871  0.1706
  692SOL     OW 2765   2.808   1.706   1.420 -0.1784  0.0799  0.6127
  692SOL    HW1 2766   2.798   1.665   1.504  1.2717  0.8610 -2.2328
  692SOL    HW2 2767   2.835   1.789   1.439  0.6515  1.4284 -3.1418
  692SOL     MW 2768   2.810   1.711   1.434  0.1224  0.3609 -0.2581
  693SOL     OW 2769   2.315   0.460   0.105  0.4267  0.1658  0.2905
  693SOL    HW1 2770   2.252   0.410   0.067  2.1186 -2.6151  1.5736
  693SOL    HW2 2771   2.311   0.550   0.067 -1.0561 -0.8895  0.0165
  693SOL     MW 2772   2.306   0.465   0.095  0.4543 -0.3403  0.4236
  694SOL     OW 2773   1.957   1.266   1.096 -0.2055  0.9677 -0.7483
  694SOL    HW1 2774   2.035   1.222   1.129 -0.5282 -1.0032 -0.9453
  694SOL    HW2 2775   1.899   1.202   1.141 -0.9748 -1.7289 -3.9446
  694SOL     MW 2776   1.960   1.252   1.106 -0.3496  0.3519 -1.1960
  695SOL     OW 2777   2.949   1.448   1.308 -0.0824 -0.1007  0.1354
  695SOL    HW1 2778   2.940   1.455   1.210  1.7541  2.7375 -0.1165
  695SOL    HW2 2779   2.929   1.534   1.349  2.2623 -0.4656  0.8430
  695SOL     MW 2780   2.945   1.460   1.301  0.4692  0.2256  0.1955
  696SOL     OW 2781   2.103   1.390   0.915 -0.0078 -0.1819 -0.4183
  696SOL    HW1 2782   2.176   1.427   0.962  1.6867  2.1538 -1.3796
  696SOL    HW2 2783   2.047   1.334   0.978  2.2123 -2.3065  3.3273
  696SOL     MW 2784   2.105   1.388   0.929  0.5087 -0.1541 -0.0509
  697SOL     OW 2785   2.890   1.049   2.221  0.3451  0.7638 -1.0626
  697SOL    HW1 2786   2.833   1.117   2.203  1.5915  0.8858 -1.0363
  697SOL    HW2 2787   2.856   0.972   2.173 -0.8244  4.1767 -2.6543
  697SOL     MW 2788   2.878   1.047   2.212  0.3553  1.2302 -1.2692
  698SOL     OW 2789   2.526   0.333   0.018  0.1208 -0.9373  0.0050
  698SOL    HW1 2790   2.449   0.372   0.045  3.1801 -1.9966 -1.0251
  698SOL    HW2 2791   2.578   0.306   0.102 -0.5875  1.9966  3.0263
  698SOL     MW 2792   2.523   0.334   0.032  0.4310 -0.6900  0.2677
  699SOL     OW 2793   1.859   1.639   2.067 -0.1851  0.2344  0.0553
  699SOL    HW1 2794   1.829   1.547   2.053  0.8819  1.8121 -1.6171
  699SOL    HW2 2795   1.953   1.633   2.044 -0.3321  0.1273 -0.8273
  699SOL     MW 2796   1.867   1.626   2.062 -0.0637  0.4284 -0.2818
  700SOL     OW 2797   2.709   0.909   1.556 -0.1510 -0.1678 -0.2878
  700SOL    HW1 2798   2.703   0.971   1.482  0.5571  3.1906  1.4780
  700SOL    HW2 2799   2.785   0.855   1.527 -2.0300  1.8702  1.5043
  700SOL     MW 2800   2.718   0.910   1.543 -0.3055  0.5442  0.1816
  701SOL     OW 2801   1.661   1.269   2.616 -0.2208 -0.1994 -0.5042
  701SOL    HW1 2802   1.735   1.331   2.622 -1.2511 -0.7190  1.8486
  701SOL    HW2 2803   1.594   1.315   2.661  0.1090 -1.4241  0.0784
  701SOL     MW 2804   1.662   1.283   2.623 -0.3132 -0.4295 -0.1169
  702SOL     OW 2805   2.226   0.423   0.830 -0.6984 -0.1297  0.0957
  702SOL    HW1 2806   2.194   0.362   0.762 -0.1518  0.1087 -2.8579
  702SOL    HW2 2807   2.274   0.490   0.777  0.7192  1.0464 -0.2581
  702SOL     MW 2808   2.228   0.424   0.814 -0.4393  0.0569 -0.3406
  703SOL     OW 2809   2.694   1.305   0.984  0.3878  0.4030  0.0556
  703SOL    HW1 2810   2.664   1.297   0.895 -1.2554  1.5187  0.2459
  703SOL    HW2 2811   2.715   1.215   1.018  2.7037 -2.4001  0.0782
  703SOL     MW 2812   2.693   1.292   0.977  0.4766  0.1804  0.0837
  704SOL     OW 2813   0.014   1.335   0.274  0.0666  0.4884  0.2669
  704SOL    HW1 2814  -0.072   1.307   0.235 -1.7673 -2.9302  3.8047
  704SOL    HW2 2815   0.033   1.254   0.327 -2.2235  2.6894  0.8923
  704SOL     MW 2816   0.005   1.321   0.276 -0.4775  0.3278  0.8162
  705SOL     OW 2817   2.126   1.627   1.256 -0.0793  0.3530 -0.1065
  705SOL    HW1 2818   2.035   1.663   1.290 -2.3927 -0.8721  1.1391
  705SOL    HW2 2819   2.140   1.552   1.322 -1.1144 -0.1818 -2.0618
  705SOL     MW 2820   2.116   1.622   1.269 -0.5211  0.1208 -0.2001
  706SOL     OW 2821   2.997   1.240   0.599 -0.3135 -0.2757  0.2186
  706SOL    HW1 2822   3.087   1.250   0.577 -0.2091  2.5399  1.8850
  706SOL    HW2 2823   2.961   1.327   0.618 -0.8497  1.3415  0.7431
  706SOL     MW 2824   3.004   1.253   0.598 -0.3705  0.3091  0.5076
  707SOL     OW 2825   2.371   0.064   0.990 -0.3557  0.0487 -0.2891
  707SOL    HW1 2826   2.419   0.123   0.930  0.3632 -1.5541  0.4204
  707SOL    HW2 2827   2.280   0.086   0.983  1.1583  0.2266 -0.0275
  707SOL     MW 2828   2.366   0.075   0.981 -0.0611 -0.1393 -0.1610
  708SOL     OW 2829   2.530   1.580   0.105 -0.3462 -0.0127  0.2619
  708SOL    HW1 2830   2.579   1.529   0.170  1.1320  0.9291  2.3353
  708SOL    HW2 2831   2.483   1.518   0.053  2.5041  0.5418  2.7521
  708SOL     MW 2832   2.530   1.565   0.106  0.2249  0.1847  0.8640
  709SOL     OW 2833   1.676   1.764   0.096 -0.1114 -0.4933  0.5376
  709SOL    HW1 2834   1.614   1.819   0.058  3.1910 -1.1734  0.7176
  709SOL    HW2 2835   1.626   1.718   0.169 -0.3862 -2.3132 -1.1115
  709SOL     MW 2836   1.661   1.765   0.101  0.2880 -0.8231  0.3438
  710SOL     OW 2837   2.184   1.143   1.187 -0.1568  0.3136  0.0753
  710SOL    HW1 2838   2.241   1.154   1.106  0.3513  0.9016  0.8085
  710SOL    HW2 2839   2.228   1.068   1.236 -2.0516 -3.1808  0.7302
  710SOL     MW 2840   2.197   1.135   1.183 -0.3397 -0.0698  0.2584
  711SOL     OW 2841   2.330   0.135   1.709  0.2281 -0.2820  0.5368
  711SOL    HW1 2842   2.420   0.139   1.739 -3.0513  0.7721  0.1705
  711SOL    HW2 2843   2.287   0.051   1.680 -0.2752 -1.2469  0.4494
  711SOL     MW 2844   2.336   0.125   1.709 -0.2710 -0.2703  0.4770
  712SOL     OW 2845   1.669   0.618   3.058  0.8065  0.1317  0.3497
  712SOL    HW1 2846   1.719   0.696   3.029 -0.9104  0.5544  1.4904
  712SOL    HW2 2847   1.643   0.635   3.149 -0.3693 -0.4110  3.5690
  712SOL     MW 2848   1.672   0.630   3.066  0.4248  0.1159  0.9250
  713SOL     OW 2849   2.580   0.817   1.126 -0.0870 -0.3724 -0.2895
  713SOL    HW1 2850   2.598   0.720   1.141 -0.1779 -1.6634  1.1301
  713SOL    HW2 2851   2.543   0.850   1.214 -1.6391 -0.7156 -2.5161
  713SOL     MW 2852   2.578   0.809   1.140 -0.3038 -0.5880 -0.3960
  714SOL     OW 2853   2.225   0.157   1.956 -0.5646  0.5306 -0.2557
  714SOL    HW1 2854   2.303   0.141   2.008 -0.3162  1.8311 -1.9864
  714SOL    HW2 2855   2.260   0.153   1.865 -0.1625  0.0213 -0.9999
  714SOL     MW 2856   2.240   0.154   1.951 -0.4788  0.6350 -0.5822
  715SOL     OW 2857   1.731   1.922   1.716 -0.3418  0.1879 -0.1841
  715SOL    HW1 2858   1.819   1.877   1.701 -0.7601 -0.9264 -0.9253
  715SOL    HW2 2859   1.680   1.854   1.763 -1.8928 -0.3305  1.0840
  715SOL     MW 2860   1.736   1.907   1.720 -0.6017 -0.0276 -0.1146
  716SOL     OW 2861   2.396   0.614   0.703  0.0968 -0.7177  0.3474
  716SOL    HW1 2862   2.434   0.529   0.672  0.0599 -0.0275  2.5340
  716SOL    HW2 2863   2.336   0.645   0.635 -0.3594 -4.2418 -1.2888
  716SOL     MW 2864   2.393   0.607   0.690  0.0317 -1.0916  0.4200
  717SOL     OW 2865   2.841   1.461   2.942  0.4552 -0.4382 -0.1212
  717SOL    HW1 2866   2.936   1.450   2.957  1.3231  0.0436 -1.3538
  717SOL    HW2 2867   2.824   1.532   3.012 -1.2629  1.6150  1.9898
  717SOL     MW 2868   2.852   1.469   2.953  0.3430 -0.1037 -0.0053
  718SOL     OW 2869   2.534   1.321   1.396 -0.0644 -0.1277 -0.0300
  718SOL    HW1 2870   2.554   1.401   1.446 -0.1401  1.5549  1.6382
  718SOL    HW2 2871   2.615   1.272   1.377 -1.7615  1.8405 -1.2008
  718SOL     MW 2872   2.548   1.325   1.400 -0.2983  0.3540  0.0357
  719SOL     OW 2873   2.157   1.390   0.643  0.0673  0.4636 -0.0321
  719SOL    HW1 2874   2.257   1.377   0.626  2.1118  0.7570 -3.2251
  719SOL    HW2 2875   2.135   1.403   0.739 -0.7400  0.6392  0.3667
  719SOL     MW 2876   2.167   1.390   0.653  0.2305  0.5254 -0.4008
  720SOL     OW 2877   2.891   1.209   0.129 -0.0455 -0.3827 -0.3587
  720SOL    HW1 2878   2.871   1.119   0.151  0.0725 -0.3281 -0.3055
  720SOL    HW2 2879   2.834   1.268   0.174  1.5867 -1.4281  1.2427
  720SOL     MW 2880   2.881   1.205   0.138  0.1854 -0.5134 -0.1404
  721SOL     OW 2881   2.511   0.814   1.392  0.6435 -0.0859 -0.0020
  721SOL    HW1 2882   2.459   0.737   1.429 -3.4139  0.9375 -2.4918
  721SOL    HW2 2883   2.577   0.847   1.459  0.8325  2.9589 -1.4410
  721SOL     MW 2884   2.513   0.808   1.406  0.1331  0.4508 -0.5204
  722SOL     OW 2885   2.554   1.203   0.378  0.2473  0.1405  0.3962
  722SOL    HW1 2886   2.516   1.235   0.455 -2.7822  0.9986  0.3236
  722SOL    HW2 2887   2.627   1.142   0.395 -1.6638  1.2398 -1.7616
  722SOL     MW 2888   2.559   1.199   0.390 -0.4045  0.3987  0.1019
  723SOL     OW 2889   2.272   1.397   1.630 -0.1990  0.4155 -0.2685
  723SOL    HW1 2890   2.256   1.372   1.537 -2.5365 -1.4754  1.3875
  723SOL    HW2 2891   2.205   1.460   1.657  0.2352 -1.9908  1.7854
  723SOL     MW 2892   2.261   1.402   1.621 -0.4501 -0.1514  0.2210
  724SOL     OW 2893   2.455   0.368   0.582  0.3941  0.3930  0.2107
  724SOL    HW1 2894   2.448   0.325   0.665  0.5325  0.0816 -0.2908
  724SOL    HW2 2895   2.536   0.344   0.541 -1.2407 -2.5596 -2.1971
  724SOL     MW 2896   2.465   0.359   0.587  0.1967 -0.0376 -0.1731
  725SOL     OW 2897   2.592   0.526   1.137 -0.2588 -0.2148 -0.6146
  725SOL    HW1 2898   2.632   0.486   1.221  0.6171  1.0360  4.2518
  725SOL    HW2 2899   2.496   0.522   1.138  1.0070  0.7089  0.1152
  725SOL     MW 2900   2.584   0.520   1.148  0.0238  0.0721  0.1238
  726SOL     OW 2901   2.578   2.429   0.489 -0.0120  0.3302 -0.5949
  726SOL    HW1 2902   2.529   2.491   0.431  2.3193  1.6052 -1.0472
  726SOL    HW2 2903   2.527   2.411   0.573 -2.7236 -1.5741  2.8028
  726SOL     MW 2904   2.564   2.435   0.492 -0.0622  0.2471 -0.2063
  727SOL     OW 2905   2.819   0.272   1.633  1.0932  0.0938 -0.1086
  727SOL    HW1 2906   2.839   0.253   1.539  0.0050 -1.3246 -3.3154
  727SOL    HW2 2907   2.728   0.306   1.638  2.2103 -0.3270 -1.6660
  727SOL     MW 2908   2.809   0.274   1.621  1.0970 -0.1489 -0.7372
  728SOL     OW 2909   2.799   1.188   2.957  0.2907  0.1992  0.0919
  728SOL    HW1 2910   2.814   1.265   2.896 -2.5517 -0.2574 -4.1952
  728SOL    HW2 2911   2.804   1.225   3.047  2.8057  1.7095  0.8637
  728SOL     MW 2912   2.801   1.203   2.961  0.2475  0.3383 -0.3719
  729SOL     OW 2913   2.524   1.471   1.169 -0.1250  0.3418 -0.0694
  729SOL    HW1 2914   2.512   1.420   1.251 -1.7478  2.0118 -3.0183
  729SOL    HW2 2915   2.578   1.407   1.127  0.1154  0.2255  4.3100
  729SOL     MW 2916   2.529   1.455   1.174 -0.3074  0.5468  0.1194
  730SOL     OW 2917   2.139   1.123   0.291 -0.2636 -0.6372  0.2460
  730SOL    HW1 2918   2.217   1.147   0.234  2.4596 -0.3205 -0.4944
  730SOL    HW2 2919   2.095   1.204   0.305  0.2053  0.5266 -1.0933
  730SOL     MW 2920   2.143   1.137   0.285  0.1576 -0.4419 -0.0284
  731SOL     OW 2921   2.811   1.860   2.906 -0.8302  0.0026 -0.2827
  731SOL    HW1 2922   2.721   1.889   2.904  1.4534  1.5634  2.3587
  731SOL    HW2 2923   2.864   1.936   2.876  1.6146 -1.4547 -0.5079
  731SOL     MW 2924   2.806   1.874   2.901 -0.2064  0.0162  0.0361
  732SOL     OW 2925   2.281   0.927   1.313 -0.5687  0.2818  0.3645
  732SOL    HW1 2926   2.202   0.911   1.367  0.0374 -1.3718  0.1516
  732SOL    HW2 2927   2.368   0.916   1.356  4.0411 -1.2512 -0.4330
  732SOL     MW 2928   2.282   0.923   1.326  0.1195 -0.1386  0.2312
  733SOL     OW 2929   2.352   2.838   3.055  0.2531 -0.0238  0.6373
  733SOL    HW1 2930   2.279   2.895   3.026  1.6362  0.9202 -2.6489
  733SOL    HW2 2931   2.315   2.751   3.050  1.6810 -0.6606 -2.6915
  733SOL     MW 2932   2.337   2.834   3.051  0.6240  0.0167 -0.2354
  734SOL     OW 2933   1.493   0.369   2.452  0.1524 -0.2044  0.1408
  734SOL    HW1 2934   1.460   0.331   2.532 -2.4519  0.6366  1.1750
  734SOL    HW2 2935   1.509   0.298   2.391 -1.3176  1.0869  1.0708
  734SOL     MW 2936   1.491   0.354   2.455 -0.3852  0.0769  0.4000
  735SOL     OW 2937   3.077   0.956   2.638 -0.4680  0.7355 -0.3276
  735SOL    HW1 2938   3.018   0.884   2.622 -0.8711  1.1975  0.8412
  735SOL    HW2 2939   3.069   0.977   2.732 -0.4597  2.6888  0.0632
  735SOL     MW 2940   3.068   0.949   2.648 -0.5201  1.0542 -0.1219
  736SOL     OW 2941   0.051   0.593   2.498 -0.0302  0.2119  0.6450
  736SOL    HW1 2942   0.107   0.628   2.426  1.1699 -0.2666  0.9368
  736SOL    HW2 2943   0.018   0.508   2.459  0.2040  0.0218 -2.6968
  736SOL     MW 2944   0.054   0.586   2.483  0.1591  0.1237  0.2426
  737SOL     OW 2945   2.931   0.716   2.602  0.2445 -0.2207  0.4784
  737SOL    HW1 2946   2.854   0.692   2.552  0.8137  0.6003 -0.6044
  737SOL    HW2 2947   3.011   0.681   2.561 -0.8052 -0.7751  1.5492
  737SOL     MW 2948   2.931   0.708   2.590  0.1811 -0.1856  0.4768
  738SOL     OW 2949   0.182   0.494   1.977  0.1200  0.5159 -0.0221
  738SOL    HW1 2950   0.267   0.489   1.936 -0.8236  1.8751 -0.8529
  738SOL    HW2 2951   0.157   0.421   2.030 -0.2845  3.0768 -0.7581
  738SOL     MW 2952   0.190   0.484   1.979 -0.0579  1.0331 -0.2288
  739SOL     OW 2953   2.541   0.956   2.157  0.4699 -0.5307  0.3860
  739SOL    HW1 2954   2.447   0.934   2.137 -1.0722  4.0388 -1.6706
  739SOL    HW2 2955   2.563   0.983   2.069  0.3015 -1.4059  1.5822
  739SOL     MW 2956   2.531   0.957   2.143  0.2442 -0.0433  0.2725
  740SOL     OW 2957   0.170   1.731   2.979 -0.0953  0.6905 -0.1729
  740SOL    HW1 2958   0.101   1.670   2.957 -0.0019  2.5699 -1.2250
  740SOL    HW2 2959   0.248   1.688   3.008  0.1325  1.6650 -0.5289
  740SOL     MW 2960   0.171   1.717   2.980 -0.0529  1.0671 -0.3587
  741SOL     OW 2961   2.212   1.193   2.741 -0.5845 -0.2081 -0.2530
  741SOL    HW1 2962   2.213   1.286   2.706 -2.3556  0.1644 -0.5260
  741SOL    HW2 2963   2.175   1.226   2.826  2.5563  2.0215 -0.1927
  741SOL     MW 2964   2.207   1.210   2.747 -0.4038  0.1352 -0.2810
  742SOL     OW 2965   1.663   1.349   2.307 -0.2068 -0.0739 -0.4673
  742SOL    HW1 2966   1.626   1.258   2.288  0.6530 -1.2869 -0.9105
  742SOL    HW2 2967   1.710   1.345   2.390 -1.2929  0.8560 -3.0396
  742SOL     MW 2968   1.664   1.336   2.315 -0.2366 -0.1112 -0.8652
  743SOL     OW 2969   2.493   1.230   2.692  0.8309  0.6860 -0.1701
  743SOL    HW1 2970   2.402   1.233   2.734 -2.0243 -2.4445 -0.4224
  743SOL    HW2 2971   2.531   1.143   2.706  0.8247 -2.5034  0.5019
  743SOL     MW 2972   2.486   1.219   2.700  0.4533 -0.1479 -0.1147
  744SOL     OW 2973   2.776   0.915   1.843  0.6100  0.7036  0.1722
  744SOL    HW1 2974   2.694   0.964   1.840 -2.0506 -0.0978  0.9111
  744SOL    HW2 2975   2.754   0.839   1.793  1.0834  1.8483  0.3029
  744SOL     MW 2976   2.762   0.911   1.836  0.3214  0.7489  0.2870
  745SOL     OW 2977   1.767   0.450   2.494  0.0325 -0.5368 -0.2909
  745SOL    HW1 2978   1.797   0.447   2.404  0.7322 -2.1518 -0.2977
  745SOL    HW2 2979   1.678   0.427   2.478  0.3353 -0.2928  2.4387
  745SOL     MW 2980   1.759   0.447   2.480  0.1648 -0.7177  0.0683
  746SOL     OW 2981   1.539   1.456   1.670 -0.3779 -0.2634  0.2553
  746SOL    HW1 2982   1.582   1.537   1.692 -1.3970 -1.1208  0.1945
  746SOL    HW2 2983   1.540   1.399   1.745 -0.9909  1.0784 -2.2428
  746SOL     MW 2984   1.545   1.459   1.682 -0.5933 -0.1995 -0.0823
  747SOL     OW 2985   2.560   1.085   1.922 -0.2738 -0.3464  0.2012
  747SOL    HW1 2986   2.478   1.086   1.876 -1.2461  1.9335 -3.2793
  747SOL    HW2 2987   2.556   1.178   1.953  0.0308 -1.1995  0.6795
  747SOL     MW 2988   2.549   1.097   1.920 -0.3619 -0.1581 -0.1949
  748SOL     OW 2989   0.094   3.074   1.910  0.3012 -0.0268  0.3534
  748SOL    HW1 2990   0.182   3.113   1.894  0.7898  0.5318 -0.5142
  748SOL    HW2 2991   0.061   3.136   1.969 -1.5558 -2.2242 -0.0313
  748SOL     MW 2992   0.101   3.087   1.916  0.1206 -0.2430  0.1881
  749SOL     OW 2993   2.390   0.627   2.778 -0.1711  0.0126 -0.2107
  749SOL    HW1 2994   2.430   0.705   2.729  0.0784  2.0709  0.5767
  749SOL    HW2 2995   2.403   0.651   2.871  0.8067 -4.7634 -1.8104
  749SOL     MW 2996   2.397   0.640   2.784 -0.0092 -0.3460 -0.3179
  750SOL     OW 2997   2.095   3.018   1.950 -0.3193  0.1037 -0.1246
  750SOL    HW1 2998   2.129   3.102   1.967 -1.6534 -1.2213  0.4102
  750SOL    HW2 2999   2.164   2.951   1.969 -0.8012  2.7564 -0.3113
  750SOL     MW 3000   2.109   3.020   1.955 -0.5589  0.2789 -0.0787
  751SOL     OW 3001   3.070   0.340   2.409  0.0577 -0.0544 -0.3292
  751SOL    HW1 3002   2.989   0.353   2.357 -0.3137 -0.3153 -0.6127
  751SOL    HW2 3003   3.133   0.296   2.355 -1.4932  1.2585  0.5338
  751SOL     MW 3004   3.068   0.336   2.395 -0.1960  0.0844 -0.2527
  752SOL     OW 3005   2.158   0.897   2.772  0.2113 -0.3120 -0.1849
  752SOL    HW1 3006   2.197   0.985   2.782  2.9063 -0.3161  0.2570
  752SOL    HW2 3007   2.123   0.864   2.859  0.2835 -0.6547 -1.0694
  752SOL     MW 3008   2.158   0.904   2.785  0.5764 -0.3578 -0.2433
  753SOL     OW 3009   2.817   0.382   2.290 -0.0022  0.4714  0.0883
  753SOL    HW1 3010   2.763   0.302   2.302  0.1318 -1.0360  0.4016
  753SOL    HW2 3011   2.764   0.454   2.312  0.1200 -0.9380 -0.5481
  753SOL     MW 3012   2.803   0.381   2.295  0.0316  0.0865  0.0457
  754SOL     OW 3013   2.306   2.956   2.650  0.0690  0.1388  0.2796
  754SOL    HW1 3014   2.317   2.941   2.559  1.3266 -0.2516  1.1151
  754SOL    HW2 3015   2.367   2.895   2.697 -0.9114 -0.9137  0.9717
  754SOL     MW 3016   2.316   2.946   2.644  0.1056 -0.0515  0.4811
  755SOL     OW 3017   2.790   1.595   2.473 -0.0401 -0.0776  0.3993
  755SOL    HW1 3018   2.750   1.508   2.486 -0.6038 -1.5998 -0.6239
  755SOL    HW2 3019   2.818   1.620   2.563 -0.2003  2.2850  1.4024
  755SOL     MW 3020   2.788   1.587   2.486 -0.1356  0.0333  0.3967
  756SOL     OW 3021   2.168   1.257   2.997  0.7140 -0.2644  0.2817
  756SOL    HW1 3022   2.245   1.324   3.010 -0.6212  0.7799 -2.2235
  756SOL    HW2 3023   2.218   1.174   2.996 -1.0552 -0.0955 -0.0157
  756SOL     MW 3024   2.184   1.255   2.998  0.3044 -0.1044 -0.0881
  757SOL     OW 3025   2.169   0.965   1.668  0.2847  0.2304 -0.2998
  757SOL    HW1 3026   2.171   0.871   1.678  1.2963  0.0481 -1.0361
  757SOL    HW2 3027   2.114   0.980   1.590 -1.8431 -0.6819 -2.5058
  757SOL     MW 3028   2.162   0.954   1.659  0.1374  0.0860 -0.6880
  758SOL     OW 3029   2.230   1.842   2.646 -0.1075  0.0239  0.0976
  758SOL    HW1 3030   2.245   1.843   2.551  0.1304  1.4830 -2.7580
  758SOL    HW2 3031   2.318   1.813   2.681 -1.0399 -1.7634 -1.3885
  758SOL     MW 3032   2.244   1.838   2.638 -0.1992 -0.0194 -0.4752
  759SOL     OW 3033   1.534   1.468   2.799 -0.6851 -0.2997 -0.2300
  759SOL    HW1 3034   1.569   1.522   2.723 -1.9773 -0.3784  0.2328
  759SOL    HW2 3035   1.595   1.474   2.874  2.4349 -1.3576  1.0944
  759SOL     MW 3036   1.546   1.476   2.799 -0.4440 -0.4496  0.0058
  760SOL     OW 3037   2.609   1.957   2.728 -0.1428 -0.4475  0.5338
  760SOL    HW1 3038   2.585   1.864   2.723 -0.0148 -0.0825  0.3070
  760SOL    HW2 3039   2.678   1.952   2.665 -1.9830 -0.2779  0.4193
  760SOL     MW 3040   2.615   1.944   2.719 -0.3687 -0.3769  0.4888
  761SOL     OW 3041   2.208   0.462   2.470 -0.1623 -0.1706 -0.3203
  761SOL    HW1 3042   2.137   0.403   2.464  0.5128 -0.4709 -0.7603
  761SOL    HW2 3043   2.169   0.526   2.528  2.5983  1.0415  1.9416
  761SOL     MW 3044   2.194   0.463   2.477  0.2910 -0.0503 -0.0800
  762SOL     OW 3045   0.035   0.168   2.103  0.3931 -0.2072  0.1582
  762SOL    HW1 3046   0.002   0.108   2.175  0.3087 -2.2109 -0.5503
  762SOL    HW2 3047  -0.035   0.226   2.067 -0.9358 -1.4150  2.0313
  762SOL     MW 3048   0.021   0.168   2.108  0.2066 -0.6309  0.3118
  763SOL     OW 3049   2.455   1.145   2.339 -0.0226 -0.5352  0.0275
  763SOL    HW1 3050   2.502   1.102   2.270  0.0188 -0.4804 -1.3699
  763SOL    HW2 3051   2.513   1.203   2.388  0.9035 -2.2419 -2.3363
  763SOL     MW 3052   2.469   1.147   2.336  0.1051 -0.7532 -0.4687
  764SOL     OW 3053   0.395   0.174   2.795 -0.2736 -0.2223 -0.0549
  764SOL    HW1 3054   0.329   0.184   2.724  0.4920  0.9877 -3.0997
  764SOL    HW2 3055   0.379   0.244   2.859 -2.8719  0.9475  0.6231
  764SOL     MW 3056   0.384   0.184   2.794 -0.5155  0.0917 -0.3672
  765SOL     OW 3057   2.703   0.142   2.294  0.0661  0.6554  0.1656
  765SOL    HW1 3058   2.672   0.096   2.214  1.1438 -2.9581  0.4203
  765SOL    HW2 3059   2.750   0.076   2.346  1.3170  0.6968 -0.1314
  765SOL     MW 3060   2.705   0.127   2.290  0.3734  0.1841  0.1600
  766SOL     OW 3061   1.879   3.047   2.103 -0.5199 -0.1067  0.3642
  766SOL    HW1 3062   1.959   3.027   2.055 -1.7652 -0.7912 -1.4537
  766SOL    HW2 3063   1.810   2.988   2.065 -1.3810 -1.9483 -0.4566
  766SOL     MW 3064   1.880   3.036   2.092 -0.7978 -0.4400  0.0161
  767SOL     OW 3065   2.666   0.646   1.923  0.2979 -0.2308  0.1399
  767SOL    HW1 3066   2.730   0.699   1.974 -0.0649 -1.4043  0.6676
  767SOL    HW2 3067   2.596   0.698   1.885  0.7239 -1.2424  0.1375
  767SOL     MW 3068   2.665   0.660   1.925  0.3062 -0.5191  0.2092
  768SOL     OW 3069   0.017   1.451   2.989  0.4324 -0.0968  0.3632
  768SOL    HW1 3070   0.063   1.472   3.070 -1.0273 -2.4144 -0.8108
  768SOL    HW2 3071   0.033   1.354   2.975 -1.5159 -1.5126 -1.2314
  768SOL     MW 3072   0.025   1.441   2.998 -0.0172 -0.5894 -0.0021
  769SOL     OW 3073   2.336   0.690   2.401  0.0488  0.2095  1.0938
  769SOL    HW1 3074   2.337   0.598   2.420 -0.2725 -1.0276  2.3439
  769SOL    HW2 3075   2.402   0.691   2.331 -0.2111  1.4840  0.6194
  769SOL     MW 3076   2.345   0.678   2.395 -0.0279  0.2144  1.1962
  770SOL     OW 3077   0.078   1.628   2.631  0.0926 -0.0473  0.4463
  770SOL    HW1 3078  -0.011   1.641   2.655 -0.0171  1.0840 -1.9079
  770SOL    HW2 3079   0.091   1.537   2.663 -1.8806 -0.6037  3.1227
  770SOL     MW 3080   0.068   1.618   2.638 -0.1822  0.0286  0.4888
  771SOL     OW 3081   3.007   0.579   1.941 -0.5584 -0.2195  0.1736
  771SOL    HW1 3082   2.959   0.581   1.853  2.6927 -3.6103 -0.6082
  771SOL    HW2 3083   3.093   0.543   1.931  0.9459 -0.9520  1.1834
  771SOL     MW 3084   3.012   0.574   1.928  0.0690 -0.7635  0.2037
  772SOL     OW 3085   0.010   3.078   2.324 -0.3168  0.4280 -0.3729
  772SOL    HW1 3086  -0.074   3.051   2.373  0.9940  0.6025  2.3367
  772SOL    HW2 3087   0.052   2.996   2.297  2.2934  1.4719 -0.7979
  772SOL     MW 3088   0.004   3.064   2.327  0.2005  0.5888 -0.0714
  773SOL     OW 3089   2.484   2.839   2.824 -0.1755  0.4832 -0.1703
  773SOL    HW1 3090   2.510   2.756   2.795  1.8010  0.4298 -0.6637
  773SOL    HW2 3091   2.452   2.833   2.921 -0.8610 -1.5181  1.8224
  773SOL     MW 3092   2.483   2.828   2.833 -0.0052  0.2121  0.0275
  774SOL     OW 3093   2.326   1.189   1.804 -0.1250  0.0906  0.8227
  774SOL    HW1 3094   2.302   1.263   1.742 -2.8837  3.4185  2.7970
  774SOL    HW2 3095   2.333   1.113   1.746 -0.1065  2.7792  1.8507
  774SOL     MW 3096   2.324   1.189   1.788 -0.4866  0.8844  1.2188
  775SOL     OW 3097   2.257   2.948   2.333  0.2151 -0.0544  0.2143
  775SOL    HW1 3098   2.266   3.029   2.282 -1.0561 -1.3886  0.8885
  775SOL    HW2 3099   2.327   2.894   2.296 -2.1028 -0.0050 -2.4262
  775SOL     MW 3100   2.267   2.952   2.321 -0.2584 -0.2239 -0.0451
  776SOL     OW 3101   0.131   1.537   0.121 -0.4686  0.0176 -0.2357
  776SOL    HW1 3102   0.212   1.489   0.094  2.8955  3.3598 -1.1798
  776SOL    HW2 3103   0.080   1.465   0.167 -0.1211  0.1531 -0.4628
  776SOL     MW 3104   0.135   1.521   0.123  0.0211  0.4764 -0.3902
  777SOL     OW 3105   2.979   1.120   1.738  0.0427  0.0188 -0.1399
  777SOL    HW1 3106   2.934   1.157   1.659  0.0151  0.2885 -2.5916
  777SOL    HW2 3107   2.913   1.058   1.761 -0.8255  0.3360  2.2827
  777SOL     MW 3108   2.965   1.116   1.731 -0.0755  0.0962 -0.1437
  778SOL     OW 3109   2.838   0.432   2.763 -0.8380 -0.0915 -0.5926
  778SOL    HW1 3110   2.785   0.460   2.843  0.7755 -1.8139 -0.6851
  778SOL    HW2 3111   2.845   0.508   2.708 -2.6420 -0.5413  0.1237
  778SOL     MW 3112   2.832   0.446   2.766 -0.8632 -0.3781 -0.5103
  779SOL     OW 3113   2.256   0.513   2.116 -0.5160  0.6951  0.3914
  779SOL    HW1 3114   2.189   0.551   2.171  2.0722  0.6065  1.0615
  779SOL    HW2 3115   2.292   0.452   2.174 -2.7901  3.8310  0.5208
  779SOL     MW 3116   2.252   0.510   2.131 -0.4746  1.0972  0.4969
  780SOL     OW 3117   0.120   0.258   2.675 -0.3921  0.4681 -0.3559
  780SOL    HW1 3118   0.030   0.237   2.685 -2.4796 -0.3865  1.5794
  780SOL    HW2 3119   0.120   0.352   2.706 -4.4809  1.6857  2.7023
  780SOL     MW 3120   0.108   0.268   2.681 -1.2070  0.5160  0.3030
  781SOL     OW 3121   3.040   1.305   2.477 -0.0067 -0.7167 -0.3019
  781SOL    HW1 3122   3.064   1.358   2.403 -0.6618  1.1366 -0.3932
  781SOL    HW2 3123   3.062   1.213   2.445 -1.0043 -1.5765 -3.2763
  781SOL     MW 3124   3.046   1.300   2.463 -0.2248 -0.5856 -0.7064
  782SOL     OW 3125   0.615   1.515   0.058 -0.9330  0.8042 -0.0215
  782SOL    HW1 3126   0.534   1.569   0.022  1.4279 -2.1363 -1.5829
  782SOL    HW2 3127   0.653   1.558   0.136 -2.1298  1.9322 -0.8831
  782SOL     MW 3128   0.609   1.528   0.064 -0.7794  0.5650 -0.3412
  783SOL     OW 3129   2.683   0.614   2.408  0.6251  0.4412  0.5920
  783SOL    HW1 3130   2.623   0.655   2.341 -0.7463  1.3597 -0.2456
  783SOL    HW2 3131   2.627   0.567   2.476 -0.7108 -2.7380 -0.6411
  783SOL     MW 3132   2.668   0.613   2.408  0.2679  0.1430  0.3188
  784SOL     OW 3133   0.197   0.848   2.893  0.2044 -0.0455  0.0647
  784SOL    HW1 3134   0.118   0.897   2.901 -1.8740  0.0103  0.8579
  784SOL    HW2 3135   0.249   0.901   2.827 -0.0618  1.2078 -0.7816
  784SOL     MW 3136   0.194   0.862   2.886 -0.1049  0.1272  0.0577
  785SOL     OW 3137   0.461   0.422   2.200 -0.4491  0.0981  0.2694
  785SOL    HW1 3138   0.451   0.464   2.111 -1.4736  1.6905  1.6021
  785SOL    HW2 3139   0.375   0.385   2.226 -0.3885  3.1136 -0.4152
  785SOL     MW 3140   0.448   0.423   2.191 -0.5763  0.7060  0.3549
  786SOL     OW 3141   1.900   0.418   3.007 -0.1382 -0.0016 -0.7115
  786SOL    HW1 3142   1.839   0.490   3.019  1.4199 -3.0604 -2.7992
  786SOL    HW2 3143   1.942   0.428   2.922  1.0672 -0.1682 -0.4598
  786SOL     MW 3144   1.898   0.429   2.997  0.2264 -0.4271 -0.9537
  787SOL     OW 3145   2.469   0.120   2.961 -0.5060 -0.4750  0.7237
  787SOL    HW1 3146   2.523   0.052   2.925  3.3881 -0.2831 -1.1498
  787SOL    HW2 3147   2.527   0.181   3.008 -0.0009 -0.2090  0.1153
  787SOL     MW 3148   2.484   0.119   2.962  0.0744 -0.4146  0.3963
  788SOL     OW 3149   2.847   3.020   2.406  0.2896 -0.2237 -0.1442
  788SOL    HW1 3150   2.803   3.009   2.490  0.6072  1.2256 -0.0914
  788SOL    HW2 3151   2.859   2.931   2.366  1.9717 -2.2042  0.9719
  788SOL     MW 3152   2.843   3.007   2.412  0.5534 -0.2938  0.0101
  789SOL     OW 3153   0.098   0.188   3.049  0.0447 -0.4240 -0.1521
  789SOL    HW1 3154   0.007   0.178   3.071  1.2148  1.6390  0.0212
  789SOL    HW2 3155   0.112   0.258   2.987  2.0437  2.3501 -0.6996
  789SOL     MW 3156   0.088   0.196   3.044  0.4628  0.2142 -0.2015
  790SOL     OW 3157   3.101   1.063   2.396  0.1962  0.3076  0.3339
  790SOL    HW1 3158   3.079   1.031   2.488 -1.2462  2.5870  0.5896
  790SOL    HW2 3159   3.025   1.042   2.336 -3.4341 -0.0147 -1.8920
  790SOL     MW 3160   3.088   1.056   2.400 -0.4731  0.5658  0.0739
  791SOL     OW 3161   2.534   0.474   2.598  0.0516 -0.5446 -0.1838
  791SOL    HW1 3162   2.491   0.497   2.685 -2.4062  3.2031  3.6666
  791SOL    HW2 3163   2.572   0.385   2.609  3.2036  1.0608 -0.2950
  791SOL     MW 3164   2.533   0.465   2.611  0.1432  0.1617  0.3095
  792SOL     OW 3165   2.355   0.210   2.431 -0.4601 -0.2572 -0.3030
  792SOL    HW1 3166   2.346   0.301   2.449  2.2451  0.1190  0.4718
  792SOL    HW2 3167   2.326   0.177   2.516 -1.0558  0.9661 -0.2750
  792SOL     MW 3168   2.350   0.218   2.444 -0.1817 -0.0461 -0.1971
  793SOL     OW 3169   1.880   1.095   1.997  0.6055  0.4443 -0.1048
  793SOL    HW1 3170   1.853   1.097   1.902 -1.5514  1.1046 -2.8895
  793SOL    HW2 3171   1.966   1.050   2.003  2.3631 -1.5849  0.3793
  793SOL     MW 3172   1.888   1.089   1.985  0.5528  0.2637 -0.4083
  794SOL     OW 3173   1.378   2.344   0.137  0.7340 -0.3709  0.0841
  794SOL    HW1 3174   1.397   2.425   0.097  2.5981  2.2305  0.2132
  794SOL    HW2 3175   1.436   2.344   0.216  1.1962 -0.1087  1.1900
  794SOL     MW 3176   1.388   2.355   0.142  1.0409  0.0069  0.2471
  795SOL     OW 3177   2.315   1.021   2.515 -0.2615 -0.7420  0.4027
  795SOL    HW1 3178   2.299   1.095   2.573 -1.9691  0.0020  0.5686
  795SOL    HW2 3179   2.371   1.061   2.445 -1.2726  2.0301 -0.4191
  795SOL     MW 3180   2.321   1.036   2.513 -0.6202 -0.2781  0.3162
  796SOL     OW 3181   0.262   0.623   2.736  0.0976 -0.0262  0.9584
  796SOL    HW1 3182   0.247   0.705   2.780 -0.2675 -1.5210  1.8545
  796SOL    HW2 3183   0.181   0.608   2.686 -0.6253 -1.2455  0.0920
  796SOL     MW 3184   0.249   0.632   2.735 -0.0460 -0.3843  0.9623
  797SOL     OW 3185   2.589   0.157   2.565  0.6144 -0.1725  0.1084
  797SOL    HW1 3186   2.489   0.129   2.582 -1.8282 -1.0589  0.1885
  797SOL    HW2 3187   2.591   0.151   2.469 -0.4109 -1.8629 -0.8555
  797SOL     MW 3188   2.576   0.152   2.554  0.1569 -0.5125 -0.0082
  798SOL     OW 3189   2.359   0.102   2.192 -0.2981  0.5633 -0.1425
  798SOL    HW1 3190   2.356   0.160   2.272 -0.4831 -1.1889 -2.7885
  798SOL    HW2 3191   2.453   0.108   2.172  0.2557 -1.6707  0.0977
  798SOL     MW 3192   2.371   0.110   2.200 -0.2494  0.0373 -0.4599
  799SOL     OW 3193   2.553   2.978   0.150 -0.1826  0.2021 -0.4153
  799SOL    HW1 3194   2.472   2.978   0.099  1.9901 -3.1809  0.5525
  799SOL    HW2 3195   2.537   2.963   0.244  1.1069 -2.5135  1.1964
  799SOL     MW 3196   2.540   2.976   0.156  0.2742 -0.6026 -0.0749
  800SOL     OW 3197   1.936   0.039   1.745  0.0234  0.9735  0.0879
  800SOL    HW1 3198   1.875  -0.029   1.719 -0.0238 -0.2915  0.6027
  800SOL    HW2 3199   1.986   0.004   1.818 -2.6156  3.8672 -0.2670
  800SOL     MW 3200   1.934   0.025   1.751 -0.3310  1.1884  0.1090
  801SOL     OW 3201   2.792   1.217   2.587  0.0422 -0.0201 -0.2059
  801SOL    HW1 3202   2.777   1.125   2.578 -2.4922  1.2682 -1.0942
  801SOL    HW2 3203   2.884   1.238   2.557 -0.0864  1.8838 -0.5943
  801SOL     MW 3204   2.802   1.208   2.582 -0.3091  0.4011 -0.3744
  802SOL     OW 3205   2.592   1.467   2.786  0.2371 -0.3942  0.0671
  802SOL    HW1 3206   2.559   1.385   2.751 -1.1272  1.4568 -1.0670
  802SOL    HW2 3207   2.682   1.461   2.801 -3.1874  2.0433 -1.9155
  802SOL     MW 3208   2.600   1.455   2.783 -0.3947  0.1716 -0.3441
  803SOL     OW 3209   2.253   1.381   2.028 -0.9370  0.0011 -0.5403
  803SOL    HW1 3210   2.220   1.360   2.113 -0.6470  2.1146 -1.2819
  803SOL    HW2 3211   2.237   1.301   1.977 -1.1856 -1.9929 -0.1149
  803SOL     MW 3212   2.247   1.367   2.032 -0.9315  0.0169 -0.5820
  804SOL     OW 3213   2.288   0.059   0.046  0.0204  0.5792 -0.2473
  804SOL    HW1 3214   2.239   0.140   0.058 -0.8662 -0.0547  0.1288
  804SOL    HW2 3215   2.356   0.086  -0.020 -2.6464  0.3395  0.4764
  804SOL     MW 3216   2.290   0.073   0.039 -0.4485  0.4639 -0.1022
  805SOL     OW 3217   2.741   0.959   2.615  0.3769  0.1721 -0.6559
  805SOL    HW1 3218   2.668   0.905   2.587  1.3286 -0.2069  0.8741
  805SOL    HW2 3219   2.821   0.903   2.628 -0.3496  1.3001  0.1958
  805SOL     MW 3220   2.742   0.944   2.613  0.4066  0.2709 -0.3417
  806SOL     OW 3221   2.514   0.699   2.194 -0.2735  0.0785 -0.4431
  806SOL    HW1 3222   2.446   0.689   2.128 -2.0768  2.1972  0.4132
  806SOL    HW2 3223   2.559   0.785   2.189 -0.1050 -1.9837  0.0384
  806SOL     MW 3224   2.511   0.709   2.185 -0.4892  0.0859 -0.2666
  807SOL     OW 3225   0.076   1.078   2.045 -0.3671 -0.0520 -0.3131
  807SOL    HW1 3226   0.127   1.002   2.069  1.7404  0.4091  3.6768
  807SOL    HW2 3227  -0.014   1.064   2.082 -2.9667  0.1962  0.1652
  807SOL     MW 3228   0.071   1.066   2.053 -0.4320  0.0416  0.2764
  808SOL     OW 3229   2.635   3.071   2.777  0.2140 -0.0834 -0.5417
  808SOL    HW1 3230   2.591   2.988   2.764 -2.1353  0.2994  1.6442
  808SOL    HW2 3231   2.620   3.133   2.708  0.8921 -2.1461  0.6139
  808SOL     MW 3232   2.628   3.068   2.766 -0.0065 -0.3050 -0.1008
  809SOL     OW 3233   2.627   1.334   2.409  0.0592  0.0173 -0.0344
  809SOL    HW1 3234   2.689   1.298   2.473  2.2542  2.1208  1.5212
  809SOL    HW2 3235   2.658   1.314   2.315  2.8520  1.3010  1.9756
  809SOL     MW 3236   2.639   1.327   2.405  0.7173  0.4642  0.4361
  810SOL     OW 3237   2.231   1.320   2.308 -0.3675 -0.3078  0.1465
  810SOL    HW1 3238   2.304   1.259   2.320 -0.6383  2.3677 -1.7648
  810SOL    HW2 3239   2.168   1.296   2.377  0.3642  1.3792  0.8097
  810SOL     MW 3240   2.232   1.309   2.319 -0.3067  0.2678 -0.0182
  811SOL     OW 3241   1.540   0.130   2.308 -0.3089 -0.1462  0.1424
  811SOL    HW1 3242   1.630   0.108   2.322  0.6270 -0.6444 -3.2585
  811SOL    HW2 3243   1.525   0.114   2.214 -2.5563 -0.4252 -0.4341
  811SOL     MW 3244   1.550   0.125   2.297 -0.4819 -0.2487 -0.3824
  812SOL     OW 3245   1.473   2.819   2.005 -0.2320 -0.1652 -0.1862
  812SOL    HW1 3246   1.568   2.824   1.992 -1.5892 -1.7450 -1.8966
  812SOL    HW2 3247   1.464   2.806   2.102 -0.2800  0.9423  0.0254
  812SOL     MW 3248   1.484   2.818   2.016 -0.4174 -0.2275 -0.3840
  813SOL     OW 3249   1.994   0.614   2.235  0.2621 -0.0738 -0.0913
  813SOL    HW1 3250   1.922   0.562   2.208 -1.1918 -3.0305 -0.3980
  813SOL    HW2 3251   1.957   0.696   2.265 -1.5158  2.5494  1.8807
  813SOL     MW 3252   1.980   0.618   2.235 -0.1643 -0.1178  0.1284
  814SOL     OW 3253   2.731   1.246   1.648 -0.1343  0.7089  0.0817
  814SOL    HW1 3254   2.707   1.231   1.740 -0.3232 -0.5022  3.2655
  814SOL    HW2 3255   2.704   1.174   1.596  0.7324  1.9650 -0.4909
  814SOL     MW 3256   2.724   1.234   1.653 -0.0449  0.7149  0.4262
  815SOL     OW 3257   2.586   1.773   2.384  0.2357 -0.1728  0.0275
  815SOL    HW1 3258   2.516   1.701   2.372 -0.9153 -3.2063 -1.0058
  815SOL    HW2 3259   2.653   1.718   2.425  0.7133 -1.4320  2.5765
  815SOL     MW 3260   2.585   1.756   2.388  0.1468 -0.7392  0.2275
  816SOL     OW 3261   0.723   0.715   2.730 -0.8203  0.6286 -0.2154
  816SOL    HW1 3262   0.721   0.622   2.756 -0.8814 -1.3451  1.7590
  816SOL    HW2 3263   0.629   0.739   2.693  0.9641 -2.8490  2.3709
  816SOL     MW 3264   0.710   0.706   2.729 -0.5929 -0.0907  0.3863
  817SOL     OW 3265   2.981   1.216   1.469 -0.2233 -0.1900 -0.0883
  817SOL    HW1 3266   3.078   1.196   1.476  0.3758 -2.1078  0.2921
  817SOL    HW2 3267   2.982   1.304   1.425  1.3349 -1.3544 -1.9886
  817SOL     MW 3268   2.994   1.225   1.464  0.0613 -0.5967 -0.2888
  818SOL     OW 3269   1.922   1.081   2.649 -0.2613  0.7831  0.5525
  818SOL    HW1 3270   1.905   1.056   2.554  0.4677 -0.1172 -0.5600
  818SOL    HW2 3271   1.983   1.018   2.686 -0.1761  0.2899 -0.0105
  818SOL     MW 3272   1.928   1.069   2.642 -0.1539  0.5993  0.3315
  819SOL     OW 3273   1.986   0.284   2.526  0.0622 -0.3406 -0.0090
  819SOL    HW1 3274   1.900   0.330   2.548 -0.4700  1.4212  3.2219
  819SOL    HW2 3275   2.038   0.312   2.605 -0.0983  0.5904  0.3892
  819SOL     MW 3276   1.982   0.294   2.539 -0.0292  0.0147  0.4699
  820SOL     OW 3277   2.495   1.721   2.691  1.1000  0.4420  0.3507
  820SOL    HW1 3278   2.516   1.630   2.719  2.0224  1.9835 -0.0653
  820SOL    HW2 3279   2.539   1.729   2.606  0.8557  1.0374 -0.4169
  820SOL     MW 3280   2.504   1.710   2.684  1.1895  0.7239  0.1946
  821SOL     OW 3281   2.528   1.354   2.002  0.3575  0.2268 -0.0074
  821SOL    HW1 3282   2.551   1.421   1.935  3.3961 -1.6540  2.7553
  821SOL    HW2 3283   2.437   1.381   2.012 -2.1630  0.2816  2.4433
  821SOL     MW 3284   2.519   1.367   1.994  0.4259 -0.0141  0.6805
  822SOL     OW 3285   2.836   2.672   1.439 -0.4518 -0.0132 -0.3431
  822SOL    HW1 3286   2.872   2.651   1.527  0.2929  1.8982  1.3977
  822SOL    HW2 3287   2.866   2.761   1.418 -0.7622  2.7394 -0.8404
  822SOL     MW 3288   2.845   2.681   1.448 -0.3945  0.6022 -0.1790
  823SOL     OW 3289   2.395   0.493   1.837 -0.0652 -0.4491 -0.1610
  823SOL    HW1 3290   2.456   0.456   1.764  1.8177  2.4619  0.4039
  823SOL    HW2 3291   2.395   0.436   1.913 -2.1417  2.6544 -1.0629
  823SOL     MW 3292   2.403   0.481   1.838 -0.0908  0.3444 -0.2055
  824SOL     OW 3293   2.225   1.458   2.616 -0.7631 -0.3433 -0.7287
  824SOL    HW1 3294   2.292   1.482   2.551  0.5760  1.0138 -0.1458
  824SOL    HW2 3295   2.169   1.533   2.633  0.1541  0.7978 -0.7538
  824SOL     MW 3296   2.226   1.471   2.610 -0.4654 -0.0137 -0.6551
  825SOL     OW 3297   1.916   2.537   0.267  0.3537 -1.4223  0.2804
  825SOL    HW1 3298   1.880   2.477   0.333  0.3046  0.4735 -3.4277
  825SOL    HW2 3299   1.991   2.495   0.222  3.6228  0.6048  1.8234
  825SOL     MW 3300   1.921   2.523   0.270  0.7786 -0.9047 -0.0053
  826SOL     OW 3301   1.808   2.378   0.480 -0.3540  0.1250  0.5891
  826SOL    HW1 3302   1.770   2.305   0.530 -0.6075  0.6074  1.5562
  826SOL    HW2 3303   1.791   2.452   0.533 -1.3540 -2.3805  0.3092
  826SOL     MW 3304   1.800   2.378   0.493 -0.5194 -0.1420  0.6798
  827SOL     OW 3305   1.903   2.190   0.790  0.1138  0.2980 -0.1257
  827SOL    HW1 3306   1.835   2.219   0.730  2.5105  0.1309 -2.0098
  827SOL    HW2 3307   1.865   2.129   0.854  1.4554 -2.5148  1.6562
  827SOL     MW 3308   1.889   2.186   0.790  0.6070 -0.0952 -0.1392
  828SOL     OW 3309   0.060   2.587   0.567  0.1521 -0.6504 -0.0096
  828SOL    HW1 3310   0.154   2.558   0.551 -0.5324 -0.4715  0.0502
  828SOL    HW2 3311   0.026   2.642   0.499  1.8610 -2.6986 -0.1457
  828SOL     MW 3312   0.068   2.590   0.556  0.2872 -0.8970 -0.0196
  829SOL     OW 3313   2.986   2.921   1.188 -0.2049 -0.2037 -0.9562
  829SOL    HW1 3314   2.921   2.915   1.115 -2.0902 -1.2117 -0.5655
  829SOL    HW2 3315   3.058   2.864   1.159 -1.8724 -1.0958  0.8382
  829SOL     MW 3316   2.987   2.913   1.174 -0.6736 -0.4544 -0.6679
  830SOL     OW 3317   2.578   2.822   2.021  0.1190 -0.4764 -0.2006
  830SOL    HW1 3318   2.482   2.812   1.975 -0.9536 -0.8108 -0.7372
  830SOL    HW2 3319   2.636   2.841   1.949 -0.0410 -0.9647  0.3460
  830SOL     MW 3320   2.573   2.823   2.005 -0.0437 -0.5850 -0.1993
  831SOL     OW 3321   2.355   2.471   1.180  0.3835  0.0049  0.5184
  831SOL    HW1 3322   2.317   2.431   1.254  0.3282  2.3599  1.2140
  831SOL    HW2 3323   2.444   2.426   1.174 -1.3004 -1.5028 -0.9707
  831SOL     MW 3324   2.362   2.460   1.189  0.1541  0.1167  0.4137
  832SOL     OW 3325   2.359   2.216   1.878 -0.0812  0.3674  0.2547
  832SOL    HW1 3326   2.403   2.299   1.901  1.5089  1.9369 -0.0537
  832SOL    HW2 3327   2.432   2.153   1.859  0.6766 -1.5028  0.0293
  832SOL     MW 3328   2.374   2.218   1.878  0.2286  0.3278  0.1843
  833SOL     OW 3329   1.709   2.462   0.864 -0.4700  0.2788  0.0488
  833SOL    HW1 3330   1.628   2.412   0.877  0.2459  1.3740 -2.1879
  833SOL    HW2 3331   1.702   2.532   0.929  0.9553 -4.0119 -2.9632
  833SOL     MW 3332   1.698   2.464   0.874 -0.1875 -0.1428 -0.6437
  834SOL     OW 3333   2.062   2.443   0.554  0.7621 -0.1159 -0.1846
  834SOL    HW1 3334   1.978   2.416   0.529  2.0228  2.6821 -0.3196
  834SOL    HW2 3335   2.135   2.414   0.494  1.3681  1.5254  0.8590
  834SOL     MW 3336   2.060   2.436   0.543  1.0084  0.4698 -0.0647
  835SOL     OW 3337   1.798   2.621   0.643  0.1420  0.2431  0.4739
  835SOL    HW1 3338   1.789   2.560   0.723 -0.7173 -0.1978  0.8855
  835SOL    HW2 3339   1.850   2.699   0.663 -2.6789 -2.7424 -0.4284
  835SOL     MW 3340   1.803   2.623   0.656 -0.3436 -0.2089  0.4092
  836SOL     OW 3341   1.947   2.204   1.604  0.1262  0.3440  0.3543
  836SOL    HW1 3342   2.034   2.240   1.633  0.9115 -0.6591  0.9749
  836SOL    HW2 3343   1.880   2.272   1.607  1.4547  1.4258  1.6000
  836SOL     MW 3344   1.949   2.218   1.609  0.4051  0.3544  0.6005
  837SOL     OW 3345   2.130   0.216   0.670 -0.7878 -0.0725 -0.0919
  837SOL    HW1 3346   2.050   0.242   0.625 -1.4684  2.0218  1.1590
  837SOL    HW2 3347   2.173   0.150   0.610  1.6439  0.8671 -0.2863
  837SOL     MW 3348   2.125   0.211   0.656 -0.5568  0.3278  0.0475
  838SOL     OW 3349   2.943   2.040   0.922  0.4263  0.0095 -0.2916
  838SOL    HW1 3350   2.871   2.004   0.972 -0.1795  1.5739  0.4349
  838SOL    HW2 3351   2.990   1.974   0.869 -2.3443 -1.1991 -0.2116
  838SOL     MW 3352   2.940   2.027   0.921 -0.0192  0.0564 -0.1852
  839SOL     OW 3353   1.495   2.325   1.017 -0.1413  0.5351 -0.2740
  839SOL    HW1 3354   1.520   2.407   1.061  0.2673 -1.2662  0.0495
  839SOL    HW2 3355   1.516   2.266   1.085 -1.4205  4.4690 -1.8847
  839SOL     MW 3356   1.501   2.328   1.032 -0.2562  0.8165 -0.4438
  840SOL     OW 3357   2.363   2.162   2.463  0.0888 -0.2372 -0.2109
  840SOL    HW1 3358   2.289   2.220   2.434  0.7151 -1.1835 -1.7330
  840SOL    HW2 3359   2.403   2.199   2.539  1.9575  0.5666 -4.2108
  840SOL     MW 3360   2.358   2.174   2.469  0.4180 -0.2560 -0.9395
  841SOL     OW 3361   2.130   2.428   0.123 -0.5266 -0.5813  0.2867
  841SOL    HW1 3362   2.133   2.484   0.045 -1.6369  1.4854  0.9573
  841SOL    HW2 3363   2.119   2.335   0.091 -0.4541  0.5771 -3.2076
  841SOL     MW 3364   2.129   2.423   0.108 -0.6635 -0.1558 -0.0859
  842SOL     OW 3365   2.613   2.079   1.543 -0.4790 -0.1499 -0.2199
  842SOL    HW1 3366   2.568   1.993   1.551 -1.6072  1.5283  1.1860
  842SOL    HW2 3367   2.580   2.119   1.462 -1.5002  1.8382  2.3484
  842SOL     MW 3368   2.603   2.073   1.533 -0.7626  0.3338  0.3045
  843SOL     OW 3369   2.699   2.789   1.766 -0.5682  0.1133  0.0940
  843SOL    HW1 3370   2.781   2.733   1.740  1.8691 -1.2458  1.5239
  843SOL    HW2 3371   2.633   2.756   1.711 -2.2781 -2.2819  0.8411
  843SOL     MW 3372   2.701   2.777   1.755 -0.4722 -0.3820  0.3813
  844SOL     OW 3373   2.587   2.345   1.150  0.0514  0.0177 -0.1552
  844SOL    HW1 3374   2.624   2.370   1.064 -1.4302 -3.0542 -0.7234
  844SOL    HW2 3375   2.644   2.392   1.215  0.3053  1.3178  2.0422
  844SOL     MW 3376   2.600   2.354   1.147 -0.1106 -0.2161  0.0597
  845SOL     OW 3377   2.829   2.467   0.305 -0.0711 -0.6566  0.0926
  845SOL    HW1 3378   2.808   2.374   0.311 -1.4889 -1.1920  1.1506
  845SOL    HW2 3379   2.819   2.493   0.398  2.1418 -1.8513 -2.0931
  845SOL     MW 3380   2.825   2.458   0.318  0.0338 -0.8849 -0.0562
  846SOL     OW 3381   1.528   2.861   0.804  0.2913  0.7176 -0.7493
  846SOL    HW1 3382   1.569   2.916   0.871  0.7988  0.0501 -0.0360
  846SOL    HW2 3383   1.444   2.849   0.841 -0.1702  1.6441  0.6619
  846SOL     MW 3384   1.522   2.867   0.818  0.2974  0.7517 -0.4690
  847SOL     OW 3385   2.616   1.916   0.189 -0.3606  0.4748 -0.1169
  847SOL    HW1 3386   2.707   1.893   0.178  2.8361  0.4131  1.1844
  847SOL    HW2 3387   2.569   1.861   0.122 -1.4244 -1.3461 -1.9199
  847SOL     MW 3388   2.621   1.906   0.178 -0.0792  0.2264 -0.1831
  848SOL     OW 3389   2.485   2.152   1.309  0.1333 -0.1772  0.3598
  848SOL    HW1 3390   2.522   2.206   1.235  0.2652  1.4665 -3.2006
  848SOL    HW2 3391   2.483   2.063   1.267 -2.6262 -1.1915 -0.5497
  848SOL     MW 3392   2.489   2.147   1.293 -0.2134 -0.0941 -0.2300
  849SOL     OW 3393   1.973   2.768   0.776 -0.1874  0.4936 -0.5021
  849SOL    HW1 3394   2.002   2.682   0.813  1.7243 -1.0275 -1.6214
  849SOL    HW2 3395   2.033   2.785   0.698 -0.2062 -0.7085 -3.3847
  849SOL     MW 3396   1.985   2.759   0.771  0.0623  0.1343 -1.0301
  850SOL     OW 3397   2.190   1.962   1.688  0.5968 -0.2638  0.1181
  850SOL    HW1 3398   2.122   1.905   1.639  1.7159 -1.4019 -1.1516
  850SOL    HW2 3399   2.154   2.047   1.703 -3.1597 -0.0446  0.6603
  850SOL     MW 3400   2.176   1.965   1.684  0.2488 -0.3850  0.0221
  851SOL     OW 3401   2.244   2.370   0.374  0.4018 -0.0271 -0.3559
  851SOL    HW1 3402   2.207   2.385   0.293  0.9661  1.0607  5.0569
  851SOL    HW2 3403   2.318   2.431   0.374  1.3469 -1.9346 -1.9229
  851SOL     MW 3404   2.249   2.380   0.363  0.6009 -0.1353  0.1515
  852SOL     OW 3405   2.279   2.169   0.168  0.3146  0.5841  0.4227
  852SOL    HW1 3406   2.276   2.233   0.241 -0.8692  1.3317  0.9879
  852SOL    HW2 3407   2.361   2.191   0.119 -0.3912  1.7249  2.5625
  852SOL     MW 3408   2.289   2.181   0.171  0.0653  0.8333  0.7796
  853SOL     OW 3409   2.456   2.436   1.985 -0.1119  0.0245  0.4207
  853SOL    HW1 3410   2.467   2.491   1.906  2.5363 -3.3548 -1.4876
  853SOL    HW2 3411   2.551   2.430   2.026  0.2843 -1.7497 -0.9737
  853SOL     MW 3412   2.470   2.442   1.980  0.2898 -0.6554 -0.0150
  854SOL     OW 3413   2.861   2.256   0.767 -0.8206  0.3302  0.5467
  854SOL    HW1 3414   2.783   2.233   0.718  1.0886  0.4609 -1.1778
  854SOL    HW2 3415   2.890   2.175   0.814 -1.3620 -0.4148 -0.3957
  854SOL     MW 3416   2.855   2.242   0.767 -0.6401  0.2492  0.1948
  855SOL     OW 3417   2.668   2.239   0.330 -0.1393 -0.1355  0.0216
  855SOL    HW1 3418   2.641   2.304   0.399 -1.3362  1.5348  3.0277
  855SOL    HW2 3419   2.750   2.199   0.353 -2.5774 -0.0889  0.4340
  855SOL     MW 3420   2.675   2.242   0.342 -0.6189  0.0910  0.4726
  856SOL     OW 3421   2.171   1.937   0.231 -0.0817  0.6918 -0.2031
  856SOL    HW1 3422   2.081   1.945   0.261 -0.0663  0.0724  1.4636
  856SOL    HW2 3423   2.212   2.025   0.232  0.7506  1.5282 -0.5546
  856SOL     MW 3424   2.165   1.949   0.235  0.0301  0.7204 -0.0295
  857SOL     OW 3425   2.562   1.945   0.482  0.9675  0.9038 -0.0644
  857SOL    HW1 3426   2.550   1.947   0.391 -4.0851  1.1297 -0.2973
  857SOL    HW2 3427   2.470   1.916   0.510  0.9403  0.9316  0.6427
  857SOL     MW 3428   2.548   1.942   0.474  0.2972  0.9372 -0.0018
  858SOL     OW 3429   2.905   2.626   1.705  0.1029 -0.1861 -0.4079
  858SOL    HW1 3430   2.980   2.663   1.759  0.1945 -2.4996  0.4561
  858SOL    HW2 3431   2.869   2.555   1.765  1.3091  2.6946 -1.0426
  858SOL     MW 3432   2.910   2.621   1.720  0.2742 -0.1113 -0.3777
  859SOL     OW 3433   2.109   2.492   0.844  0.5531 -0.0228  0.3537
  859SOL    HW1 3434   2.073   2.431   0.776  0.5991 -1.0576 -2.2538
  859SOL    HW2 3435   2.196   2.461   0.862 -1.3474  0.3194  1.3027
  859SOL     MW 3436   2.116   2.480   0.838  0.3084 -0.1142  0.1349
  860SOL     OW 3437   2.636   2.589   0.146  0.1270 -0.2881 -0.1396
  860SOL    HW1 3438   2.706   2.544   0.206 -0.4156 -2.0113 -0.0498
  860SOL    HW2 3439   2.672   2.672   0.119 -2.2016  2.8777 -0.4435
  860SOL     MW 3440   2.650   2.594   0.150 -0.2518 -0.0977 -0.1678
  861SOL     OW 3441   1.590   2.132   1.213 -0.4615  0.1990  0.3052
  861SOL    HW1 3442   1.674   2.124   1.271  1.5457  2.0372  2.9300
  861SOL    HW2 3443   1.526   2.076   1.260 -0.6292  0.3698  0.7689
  861SOL     MW 3444   1.593   2.124   1.227 -0.2188  0.4641  0.7127
  862SOL     OW 3445   2.409   1.886   1.507  0.1255  0.5625 -0.5116
  862SOL    HW1 3446   2.336   1.904   1.570 -0.4316 -0.7244 -0.7708
  862SOL    HW2 3447   2.363   1.849   1.438  0.2828 -0.4499  2.8339
  862SOL     MW 3448   2.394   1.884   1.506  0.0728  0.2591 -0.1044
  863SOL     OW 3449   3.077   1.768   1.203  0.7321 -0.2173 -0.0073
  863SOL    HW1 3450   3.137   1.790   1.135 -1.2574  0.3648  1.0901
  863SOL    HW2 3451   3.054   1.854   1.230  1.9898 -2.8803 -2.5783
  863SOL     MW 3452   3.082   1.782   1.198  0.6355 -0.4919 -0.2017
  864SOL     OW 3453   0.028   1.835   0.810 -0.2247  0.1471 -0.0159
  864SOL    HW1 3454  -0.030   1.766   0.844 -1.8549 -0.4631 -0.4373
  864SOL    HW2 3455   0.008   1.833   0.713 -0.8051 -0.9482 -1.6994
  864SOL     MW 3456   0.018   1.826   0.802 -0.5164 -0.0779 -0.2936
  865SOL     OW 3457   2.525   2.169   0.058 -0.0408 -0.3109  0.1926
  865SOL    HW1 3458   2.545   2.116   0.127 -0.1552  2.8877 -1.8576
  865SOL    HW2 3459   2.498   2.117  -0.018 -0.0312 -0.5100 -0.5820
  865SOL     MW 3460   2.524   2.155   0.057 -0.0547  0.0848 -0.1801
  866SOL     OW 3461   2.635   2.349   1.630 -0.1844  0.2568  0.3819
  866SOL    HW1 3462   2.621   2.251   1.612 -1.0532 -0.8355 -1.7194
  866SOL    HW2 3463   2.685   2.371   1.548 -1.5807 -5.0519 -2.8991
  866SOL     MW 3464   2.640   2.339   1.617 -0.4833 -0.5877 -0.3283
  867SOL     OW 3465   0.022   2.751   1.815  0.0386 -0.5842 -0.1522
  867SOL    HW1 3466   0.067   2.776   1.898 -1.2420  1.1071  2.9997
  867SOL    HW2 3467   0.024   2.827   1.760  2.2083 -1.1263 -2.0246
  867SOL     MW 3468   0.028   2.764   1.819  0.1559 -0.4326  0.0166
  868SOL     OW 3469   2.777   2.585   0.558 -0.1097 -0.2173  0.1466
  868SOL    HW1 3470   2.694   2.536   0.539 -0.1914 -1.6756 -0.3285
  868SOL    HW2 3471   2.761   2.676   0.518 -3.6871  1.1564  1.4653
  868SOL     MW 3472   2.764   2.591   0.551 -0.5925 -0.2284  0.2579
  869SOL     OW 3473   1.958   2.335   1.031  0.4807 -0.1419 -0.4544
  869SOL    HW1 3474   2.026   2.396   1.004 -1.3268  1.4749  0.5982
  869SOL    HW2 3475   1.915   2.318   0.953  3.4914  1.6636  2.6392
  869SOL     MW 3476   1.962   2.341   1.018  0.6395  0.3097  0.0926
  870SOL     OW 3477   2.201   0.017   0.493 -0.2119 -0.1203 -0.9305
  870SOL    HW1 3478   2.258   0.052   0.425 -2.2244 -0.1834  2.2106
  870SOL    HW2 3479   2.235  -0.067   0.523  0.0516 -1.4812 -2.0366
  870SOL     MW 3480   2.213   0.011   0.488 -0.4426 -0.3082 -0.6620
  871SOL     OW 3481   2.475   1.996   0.930 -0.0930  0.9225  0.0735
  871SOL    HW1 3482   2.440   1.969   0.847 -1.5603  1.1055  1.6765
  871SOL    HW2 3483   2.415   2.066   0.949  1.5212  0.6156  0.4925
  871SOL     MW 3484   2.462   2.002   0.922 -0.0736  0.9061  0.3403
  872SOL     OW 3485   2.030   2.524   1.418  0.4121 -0.0284  0.5493
  872SOL    HW1 3486   2.007   2.579   1.490 -1.6037  4.1993 -1.6540
  872SOL    HW2 3487   1.956   2.469   1.405  1.6266 -0.8932  1.2143
  872SOL     MW 3488   2.017   2.524   1.426  0.3064  0.4153  0.3463
  873SOL     OW 3489   2.830   2.091   1.951  0.0753  0.4984  0.0553
  873SOL    HW1 3490   2.866   2.144   2.021 -0.4602  0.6323  3.0785
  873SOL    HW2 3491   2.901   2.075   1.882  0.4213  0.5987  1.1949
  873SOL     MW 3492   2.844   2.096   1.951  0.0503  0.5293  0.6045
  874SOL     OW 3493   2.425   1.510   2.414 -0.7458  0.7650  0.7236
  874SOL    HW1 3494   2.363   1.454   2.357 -2.1288  0.9651  0.3692
  874SOL    HW2 3495   2.510   1.460   2.423  2.1700 -0.5363  0.6890
  874SOL     MW 3496   2.428   1.496   2.408 -0.5436  0.6197  0.6722
  875SOL     OW 3497   2.329   2.280   0.963  0.1181 -0.1541 -0.0361
  875SOL    HW1 3498   2.375   2.345   0.909 -2.7016  1.5216 -0.6078
  875SOL    HW2 3499   2.320   2.322   1.051  0.0869 -2.7149  3.8328
  875SOL     MW 3500   2.334   2.294   0.967 -0.2580 -0.2709  0.3989
  876SOL     OW 3501   3.024   2.335   1.278 -0.7034  0.6176 -0.0446
  876SOL    HW1 3502   3.094   2.333   1.203 -0.9466 -0.3422  1.1826
  876SOL    HW2 3503   3.070   2.371   1.355  0.7275 -3.4607 -0.5277
  876SOL     MW 3504   3.039   2.339   1.279 -0.5467 -0.0471  0.0536
  877SOL     OW 3505   3.034   2.733   0.344  0.5507  0.2558 -0.2514
  877SOL    HW1 3506   3.072   2.813   0.310  0.7490  1.1915  1.1606
  877SOL    HW2 3507   3.043   2.670   0.272 -2.3657  1.3868 -1.7772
  877SOL     MW 3508   3.040   2.735   0.330  0.1921  0.5285 -0.2664
  878SOL     OW 3509   2.313   1.834   1.219  0.8197  0.1587  0.0888
  878SOL    HW1 3510   2.245   1.770   1.252  1.7489 -0.3141 -3.6583
  878SOL    HW2 3511   2.389   1.782   1.192 -2.4892 -1.4868  0.0943
  878SOL     MW 3512   2.314   1.818   1.220  0.5057 -0.1207 -0.4049
  879SOL     OW 3513   2.697   2.422   0.921 -0.9368  0.3275  0.2342
  879SOL    HW1 3514   2.750   2.497   0.947 -4.1180 -2.9478  1.4428
  879SOL    HW2 3515   2.763   2.355   0.888  2.3470 -0.8242  0.3280
  879SOL     MW 3516   2.713   2.423   0.920 -0.9233 -0.2566  0.4061
  880SOL     OW 3517   2.612   2.183   0.687 -0.2360  0.4305 -0.0558
  880SOL    HW1 3518   2.567   2.147   0.761 -0.9131  1.2499  1.6144
  880SOL    HW2 3519   2.599   2.123   0.613  1.9827  0.4967  2.9202
  880SOL     MW 3520   2.604   2.170   0.687 -0.0326  0.5474  0.5572
  881SOL     OW 3521   2.965   2.699   0.745  0.2924  0.1369 -0.0594
  881SOL    HW1 3522   2.921   2.641   0.686  0.0117  0.3903  0.1428
  881SOL    HW2 3523   3.057   2.680   0.719 -0.5894 -2.6160  1.1309
  881SOL     MW 3524   2.972   2.689   0.734  0.1390 -0.1929  0.1243
  882SOL     OW 3525   2.320   2.811   1.956 -0.2260 -0.5755  0.0283
  882SOL    HW1 3526   2.290   2.823   1.862 -0.6930 -0.2237 -2.3251
  882SOL    HW2 3527   2.274   2.732   1.989 -1.6906 -0.8476  0.4730
  882SOL     MW 3528   2.310   2.802   1.948 -0.4808 -0.5649 -0.2235
  883SOL     OW 3529   2.283   2.307   1.420  0.0828  0.7987  0.3569
  883SOL    HW1 3530   2.355   2.263   1.370  1.7857  0.1252  0.0337
  883SOL    HW2 3531   2.201   2.273   1.380 -1.3167  0.5373 -3.1044
  883SOL     MW 3532   2.282   2.297   1.408  0.1228  0.6753 -0.1425
  884SOL     OW 3533   1.880   1.883   1.126  0.3641  0.1144 -0.5341
  884SOL    HW1 3534   1.817   1.937   1.073 -0.0512 -0.8796 -2.0014
  884SOL    HW2 3535   1.964   1.928   1.108 -1.7251 -0.3867  3.1381
  884SOL     MW 3536   1.883   1.896   1.117  0.0337 -0.0828 -0.2432
  885SOL     OW 3537   2.810   2.417   1.825  0.1999 -0.1225 -0.2915
  885SOL    HW1 3538   2.883   2.363   1.809 -2.2388  0.4378  0.1715
  885SOL    HW2 3539   2.747   2.393   1.753 -0.4556  0.2242 -2.6775
  885SOL     MW 3540   2.812   2.407   1.813 -0.2083 -0.0028 -0.5453
  886SOL     OW 3541   2.769   2.432   1.337 -0.3545 -1.2486 -0.2194
  886SOL    HW1 3542   2.852   2.383   1.325 -0.3222 -1.3006  0.1330
  886SOL    HW2 3543   2.797   2.519   1.369 -2.7210 -2.3227 -2.0721
  886SOL     MW 3544   2.784   2.437   1.340 -0.6625 -1.3972 -0.4173
  887SOL     OW 3545   2.293   2.633   1.496  0.2807  0.2180 -0.1033
  887SOL    HW1 3546   2.334   2.670   1.412 -0.1168 -0.0760  0.5175
  887SOL    HW2 3547   2.262   2.545   1.480 -1.1064  0.1687  2.8420
  887SOL     MW 3548   2.295   2.626   1.483  0.0452  0.1727  0.3672
  888SOL     OW 3549   1.854   2.076   1.383  0.1730 -0.7415  0.6961
  888SOL    HW1 3550   1.936   2.089   1.329 -1.0994  0.6861  0.3432
  888SOL    HW2 3551   1.891   2.103   1.468  3.1868  0.1116  0.0170
  888SOL     MW 3552   1.870   2.081   1.387  0.4028 -0.4405  0.5600
  889SOL     OW 3553   2.345   2.001   2.075 -0.1506  0.0451  0.4225
  889SOL    HW1 3554   2.422   2.024   2.129  0.9750  1.0087  0.4488
  889SOL    HW2 3555   2.319   2.087   2.033 -1.3476 -1.2207 -2.8022
  889SOL     MW 3556   2.351   2.015   2.077 -0.1601  0.0052  0.0005
  890SOL     OW 3557   0.089   2.286   0.140 -0.2044  0.6002  0.4976
  890SOL    HW1 3558   0.041   2.370   0.147 -0.1434  0.9525  0.9255
  890SOL    HW2 3559   0.068   2.244   0.225  1.4852 -1.4921 -2.4160
  890SOL     MW 3560   0.080   2.292   0.152  0.0266  0.3706  0.1697
  891SOL     OW 3561   3.034   2.031   1.292 -0.3029 -0.4059  0.5496
  891SOL    HW1 3562   3.097   2.070   1.362 -0.2539 -0.4338  1.5595
  891SOL    HW2 3563   3.014   2.107   1.234  1.1113  1.4117 -0.0934
  891SOL     MW 3564   3.040   2.046   1.294 -0.1099 -0.1698  0.5980
  892SOL     OW 3565   2.360   2.401   2.954  0.2464 -0.8053 -0.1734
  892SOL    HW1 3566   2.378   2.320   3.005  1.5172 -0.0010 -0.8377
  892SOL    HW2 3567   2.449   2.431   2.920  1.4139  2.9481  2.4540
  892SOL     MW 3568   2.374   2.394   2.956  0.5681 -0.2039  0.0856
  893SOL     OW 3569   1.587   2.482   1.223  0.3515 -0.4721 -0.7424
  893SOL    HW1 3570   1.510   2.508   1.275 -0.7590 -0.7285  2.3527
  893SOL    HW2 3571   1.660   2.433   1.259  0.5678  0.4438 -1.7726
  893SOL     MW 3572   1.586   2.479   1.234  0.2335 -0.3851 -0.4700
  894SOL     OW 3573   2.837   1.907   0.460  0.0130 -0.2564 -0.0472
  894SOL    HW1 3574   2.754   1.913   0.497  1.0614 -0.9543 -1.8569
  894SOL    HW2 3575   2.819   1.873   0.365 -2.6311 -2.0006  0.3363
  894SOL     MW 3576   2.823   1.903   0.452 -0.1975 -0.5786 -0.2354
  895SOL     OW 3577   2.077   2.170   1.261 -0.4282  0.1352  0.0815
  895SOL    HW1 3578   2.052   2.242   1.197 -0.1175  0.9455  1.6900
  895SOL    HW2 3579   2.117   2.099   1.212  2.0980  2.2224 -0.0633
  895SOL     MW 3580   2.079   2.170   1.246 -0.0539  0.5175  0.2746
  896SOL     OW 3581   2.170   2.829   1.116  0.2768  0.2462 -0.0146
  896SOL    HW1 3582   2.235   2.825   1.182 -1.0728  0.7032  0.5715
  896SOL    HW2 3583   2.098   2.766   1.147 -1.7572 -0.0693  0.9074
  896SOL     MW 3584   2.169   2.820   1.129 -0.1696  0.2648  0.1844
  897SOL     OW 3585   2.994   2.938   0.181  0.1274 -0.7557 -0.3341
  897SOL    HW1 3586   3.077   2.932   0.132 -0.3965  0.0512  0.3161
  897SOL    HW2 3587   2.941   2.855   0.173 -3.4215 -1.0316 -0.8167
  897SOL     MW 3588   2.998   2.926   0.174 -0.4099 -0.6856 -0.3120
  898SOL     OW 3589   2.071   0.192   1.449 -0.0740 -0.2819  0.0920
  898SOL    HW1 3590   2.007   0.121   1.423 -0.6553  0.7639  1.3910
  898SOL    HW2 3591   2.071   0.244   1.369 -2.0550  1.5605  0.8410
  898SOL     MW 3592   2.063   0.189   1.435 -0.4121  0.0992  0.3622
  899SOL     OW 3593   2.909   2.965   0.685  0.6792  0.5976 -0.3868
  899SOL    HW1 3594   2.915   2.885   0.739  0.3438  0.5574  0.6313
  899SOL    HW2 3595   2.836   3.011   0.722  2.7237  0.1827 -0.4312
  899SOL     MW 3596   2.900   2.961   0.697  0.9047  0.5376 -0.2583
  900SOL     OW 3597   0.143   2.368   1.096  0.1820  0.7059 -0.2971
  900SOL    HW1 3598   0.154   2.461   1.081  0.4222  1.5871 -0.7310
  900SOL    HW2 3599   0.162   2.323   1.010  3.5567 -0.5190 -1.1432
  900SOL     MW 3600   0.147   2.374   1.083  0.6590  0.6605 -0.4660
  901SOL     OW 3601   1.785   2.897   1.697  0.1078 -0.2616 -0.4208
  901SOL    HW1 3602   1.859   2.846   1.660 -1.1774 -0.1067 -2.1187
  901SOL    HW2 3603   1.700   2.871   1.659  2.2431  0.7380  0.1688
  901SOL     MW 3604   1.783   2.887   1.687  0.2200 -0.1093 -0.5670
  902SOL     OW 3605   2.568   2.045   1.846  0.1230  0.2318  0.2163
  902SOL    HW1 3606   2.561   1.954   1.881 -1.5110  1.7466 -2.2424
  902SOL    HW2 3607   2.655   2.080   1.871 -2.0847  0.9283 -2.8000
  902SOL     MW 3608   2.579   2.038   1.854 -0.3839  0.5236 -0.5061
  903SOL     OW 3609   1.565   2.771   0.528  0.0096 -0.1698  0.4553
  903SOL    HW1 3610   1.618   2.698   0.555 -0.5379 -2.7039 -2.3055
  903SOL    HW2 3611   1.553   2.810   0.612  0.0498  0.6101 -3.0924
  903SOL     MW 3612   1.570   2.767   0.542 -0.0573 -0.4012 -0.3770
  904SOL     OW 3613   2.486   2.555   1.737  0.0859 -0.1229 -0.0110
  904SOL    HW1 3614   2.426   2.588   1.667  1.2398 -1.2965 -0.9165
  904SOL    HW2 3615   2.542   2.496   1.690 -2.5122  0.2116  0.7871
  904SOL     MW 3616   2.485   2.552   1.721 -0.1047 -0.2336 -0.0251
  905SOL     OW 3617   2.320   2.529   2.193  0.4517 -0.5148  0.1712
  905SOL    HW1 3618   2.363   2.497   2.115  1.6698 -1.6860  0.1029
  905SOL    HW2 3619   2.296   2.446   2.247 -2.2471 -2.4318 -1.0952
  905SOL     MW 3620   2.322   2.514   2.190  0.2564 -0.9223 -0.0049
  906SOL     OW 3621   2.430   2.475   0.811 -0.4331  0.0618  0.9663
  906SOL    HW1 3622   2.525   2.466   0.827 -1.6277 -0.5311  2.4815
  906SOL    HW2 3623   2.398   2.559   0.850  0.0565 -1.9828  1.1074
  906SOL     MW 3624   2.438   2.485   0.818 -0.5261 -0.2862  1.1848
  907SOL     OW 3625   2.625   2.951   1.263 -0.1280  0.2677  0.3423
  907SOL    HW1 3626   2.707   2.965   1.314  0.1123 -1.1410  2.2169
  907SOL    HW2 3627   2.666   2.934   1.176  0.7169 -0.8618 -2.6191
  907SOL     MW 3628   2.641   2.951   1.258  0.0152 -0.0672  0.1989
  908SOL     OW 3629   2.713   2.365   3.090 -0.3599 -0.2492 -0.6901
  908SOL    HW1 3630   2.675   2.284   3.120  0.7780 -1.5530  1.4636
  908SOL    HW2 3631   2.690   2.430   3.150 -2.0097  1.2839  1.0962
  908SOL     MW 3632   2.705   2.363   3.102 -0.4274 -0.2190 -0.1702
  909SOL     OW 3633   1.581   0.168   1.083 -0.2054  0.3708  0.8270
  909SOL    HW1 3634   1.623   0.223   1.016 -0.7490 -0.7810 -0.0148
  909SOL    HW2 3635   1.553   0.227   1.155  1.1586  1.0410  0.5414
  909SOL     MW 3636   1.583   0.183   1.083 -0.0972  0.3073  0.6782
  910SOL     OW 3637   2.323   1.775   0.415  0.2189 -0.2421 -0.2170
  910SOL    HW1 3638   2.254   1.706   0.426 -0.0804  1.4719 -0.8283
  910SOL    HW2 3639   2.280   1.837   0.363 -0.1626 -0.8702  0.6331
  910SOL     MW 3640   2.308   1.774   0.410  0.1290 -0.0988 -0.1855
  911SOL     OW 3641   2.197   2.275   1.673  0.3194 -0.3678  0.3474
  911SOL    HW1 3642   2.253   2.254   1.754  1.0687  0.8273  3.1908
  911SOL    HW2 3643   2.251   2.285   1.594  2.2401 -0.3652  0.4161
  911SOL     MW 3644   2.211   2.273   1.673  0.6717 -0.2098  0.7316
  912SOL     OW 3645   2.882   1.989   1.523 -0.0275  0.5677  0.1675
  912SOL    HW1 3646   2.929   2.015   1.445 -0.0059  0.4048 -0.3773
  912SOL    HW2 3647   2.789   2.025   1.527 -2.7506 -0.8557  4.9587
  912SOL     MW 3648   2.876   1.997   1.513 -0.3839  0.3584  0.7277
  913SOL     OW 3649   2.514   2.959   0.416 -0.3131  0.4100  0.4262
  913SOL    HW1 3650   2.591   2.904   0.437  0.7070 -0.8728 -2.1298
  913SOL    HW2 3651   2.435   2.904   0.398  0.5324 -0.8753 -0.0539
  913SOL     MW 3652   2.513   2.945   0.416 -0.0670  0.0712  0.0256
  914SOL     OW 3653   2.778   1.655   0.004 -0.1658  0.3410 -0.9685
  914SOL    HW1 3654   2.771   1.731  -0.058  2.1971  1.3523 -1.5557
  914SOL    HW2 3655   2.688   1.639   0.030  0.7198 -3.8917  1.4320
  914SOL     MW 3656   2.765   1.663  -0.001  0.2628 -0.0840 -0.7293
  915SOL     OW 3657   1.821   0.185   0.240  0.0540  0.0479 -0.4624
  915SOL    HW1 3658   1.865   0.135   0.311  0.7634 -0.8315  1.3506
  915SOL    HW2 3659   1.724   0.161   0.244 -0.9512  0.7798 -1.6769
  915SOL     MW 3660   1.814   0.175   0.250  0.0150  0.0284 -0.3834
  916SOL     OW 3661   1.781   2.068   1.972 -0.0922 -0.4683  0.0657
  916SOL    HW1 3662   1.805   2.158   1.947 -5.0098  1.5477 -0.2542
  916SOL    HW2 3663   1.766   2.024   1.886  0.4998  0.3497 -0.7748
  916SOL     MW 3664   1.782   2.074   1.958 -0.6629 -0.0944 -0.0874
  917SOL     OW 3665   2.395   2.309   2.686  0.7116 -0.1729 -0.4373
  917SOL    HW1 3666   2.372   2.330   2.777  1.5145  0.2150 -0.1068
  917SOL    HW2 3667   2.360   2.385   2.638  1.2198 -0.3587 -2.3465
  917SOL     MW 3668   2.388   2.322   2.691  0.8846 -0.1462 -0.6456
  918SOL     OW 3669   2.048   1.644   2.690 -0.2485 -0.4537  0.6196
  918SOL    HW1 3670   1.968   1.680   2.641  0.8729  0.7936  0.2334
  918SOL    HW2 3671   2.114   1.724   2.680  1.1117 -0.6564 -0.8953
  918SOL     MW 3672   2.046   1.659   2.682  0.0789 -0.3159  0.3688
  919SOL     OW 3673   0.002   2.349   2.251  0.0350 -0.1679 -0.6517
  919SOL    HW1 3674  -0.077   2.284   2.250  1.8546  0.1094 -1.0433
  919SOL    HW2 3675   0.055   2.328   2.172 -1.0239 -1.9305 -2.0254
  919SOL     MW 3676  -0.001   2.338   2.240  0.1354 -0.3638 -0.8846
  920SOL     OW 3677   2.770   2.842   0.006 -0.0977 -0.2544 -0.2753
  920SOL    HW1 3678   2.701   2.894   0.047 -0.2045 -2.9608 -1.2578
  920SOL    HW2 3679   2.740   2.790  -0.066 -0.1903  1.8556  1.3047
  920SOL     MW 3680   2.757   2.842   0.002 -0.1240 -0.3331 -0.1965
  921SOL     OW 3681   2.471   2.611   2.647 -0.7622 -0.2749 -0.3315
  921SOL    HW1 3682   2.532   2.623   2.570 -2.4009 -1.4330  1.7883
  921SOL    HW2 3683   2.518   2.555   2.708  2.6871 -0.8439  1.9462
  921SOL     MW 3684   2.485   2.605   2.645 -0.5233 -0.5028  0.2487
  922SOL     OW 3685   2.020   2.788   0.283 -0.2725  0.2693  0.2621
  922SOL    HW1 3686   2.008   2.811   0.184  1.7581  1.0532 -3.2203
  922SOL    HW2 3687   1.986   2.692   0.286  0.1440  0.5413  2.0547
  922SOL     MW 3688   2.014   2.778   0.271  0.0503  0.4086  0.0392
  923SOL     OW 3689   2.234   2.803   1.698  0.0295 -0.1145  0.7303
  923SOL    HW1 3690   2.268   2.764   1.614 -0.2347 -1.8763  1.1873
  923SOL    HW2 3691   2.198   2.891   1.670  1.0966 -0.6079 -0.2011
  923SOL     MW 3692   2.234   2.810   1.683  0.1354 -0.4120  0.6677
  924SOL     OW 3693   1.178   2.746   2.556 -0.0704 -0.7198  0.4835
  924SOL    HW1 3694   1.226   2.799   2.490 -0.8503 -2.4738  1.0382
  924SOL    HW2 3695   1.250   2.698   2.593 -0.8334 -0.2897 -3.3282
  924SOL     MW 3696   1.194   2.747   2.552 -0.2740 -0.8945  0.0538
  925SOL     OW 3697   2.956   0.209   2.612  0.6671 -0.0582 -0.3870
  925SOL    HW1 3698   2.985   0.249   2.532 -4.0034  2.8592  1.4022
  925SOL    HW2 3699   2.896   0.268   2.653  3.2770 -2.1527 -1.5967
  925SOL     MW 3700   2.952   0.222   2.607  0.3952  0.0503 -0.3105
  926SOL     OW 3701   2.701   2.387   2.089  0.2221 -0.2309  0.0927
  926SOL    HW1 3702   2.743   2.449   2.150 -2.4336  1.6463  0.1990
  926SOL    HW2 3703   2.730   2.413   1.999 -1.1569  2.4458  0.5488
  926SOL     MW 3704   2.710   2.399   2.085 -0.3103  0.3699  0.1669
  927SOL     OW 3705   2.361   0.124   0.311 -0.0082 -0.3010  0.1904
  927SOL    HW1 3706   2.453   0.154   0.335  0.7697  2.1292  0.6255
  927SOL    HW2 3707   2.369   0.085   0.221  1.4053 -0.1469  0.7307
  927SOL     MW 3708   2.374   0.123   0.302  0.2809  0.0400  0.3191
  928SOL     OW 3709   2.033   2.502   1.799  0.9937 -0.0156  0.0632
  928SOL    HW1 3710   2.105   2.448   1.772 -0.3991 -0.9311  1.9090
  928SOL    HW2 3711   2.071   2.550   1.879  3.6711  1.4628 -0.1809
  928SOL     MW 3712   2.048   2.501   1.806  1.1632  0.0587  0.2745
  929SOL     OW 3713   2.744   2.388   2.459 -0.3356 -0.0632 -0.1093
  929SOL    HW1 3714   2.770   2.329   2.392 -0.5782  1.7664  1.0392
  929SOL    HW2 3715   2.720   2.334   2.539 -0.0676 -5.2002  1.1805
  929SOL     MW 3716   2.744   2.373   2.461 -0.3323 -0.4996  0.2124
  930SOL     OW 3717   2.041   2.920   2.702  0.2243  0.3096  0.1707
  930SOL    HW1 3718   2.033   2.832   2.742  1.2692  0.0710  0.3358
  930SOL    HW2 3719   2.135   2.940   2.690 -1.6989 -2.4180  0.3365
  930SOL     MW 3720   2.052   2.911   2.706  0.1084 -0.0818  0.2143
  931SOL     OW 3721   2.938   2.822   2.259 -0.3071  0.7670  0.2205
  931SOL    HW1 3722   3.036   2.822   2.268  0.8847  0.0681  1.5678
  931SOL    HW2 3723   2.909   2.834   2.172 -1.7840 -2.1686  0.8663
  931SOL     MW 3724   2.947   2.824   2.248 -0.3447  0.2874  0.4834
  932SOL     OW 3725   2.837   1.923   2.552  0.7285 -0.3497 -0.0196
  932SOL    HW1 3726   2.927   1.927   2.580 -0.0887 -1.2308  0.8771
  932SOL    HW2 3727   2.833   1.946   2.459  0.6208  2.8908 -2.1234
  932SOL     MW 3728   2.848   1.926   2.543  0.6065 -0.0384 -0.1789
  933SOL     OW 3729   2.050   2.821   2.205  0.1749  0.7135 -0.2400
  933SOL    HW1 3730   2.131   2.870   2.237  1.9039 -0.0807 -2.1126
  933SOL    HW2 3731   1.984   2.888   2.176 -1.9482 -2.1031 -2.3304
  933SOL     MW 3732   2.052   2.836   2.206  0.1229  0.2371 -0.7629
  934SOL     OW 3733   2.040   2.749   2.473 -0.3273  0.1800 -0.2303
  934SOL    HW1 3734   2.064   2.830   2.522  2.8613  0.4278  0.1089
  934SOL    HW2 3735   2.048   2.775   2.380  4.1791 -0.5012  1.9001
  934SOL     MW 3736   2.044   2.763   2.467  0.6880  0.1228  0.0956
  935SOL     OW 3737   2.622   1.534   1.790  0.3473 -0.6804 -1.1313
  935SOL    HW1 3738   2.708   1.519   1.751  2.5548  0.9377  2.8486
  935SOL    HW2 3739   2.565   1.549   1.711 -2.6748  1.8054 -2.4228
  935SOL     MW 3740   2.626   1.534   1.774  0.2398 -0.1389 -0.7766
  936SOL     OW 3741   2.969   2.233   3.061  0.5420  0.0537  0.1364
  936SOL    HW1 3742   3.048   2.252   3.110  0.0654 -1.3893 -2.1857
  936SOL    HW2 3743   2.900   2.286   3.091 -1.0912 -1.0050 -0.3818
  936SOL     MW 3744   2.971   2.242   3.071  0.2637 -0.2764 -0.2384
  937SOL     OW 3745   2.020   2.197   2.641  0.2160  0.1897 -0.0377
  937SOL    HW1 3746   2.100   2.172   2.692 -2.9683  0.5331 -1.6259
  937SOL    HW2 3747   2.027   2.142   2.564 -0.2108  1.5025  0.4242
  937SOL     MW 3748   2.032   2.186   2.637 -0.2605  0.4082 -0.1863
  938SOL     OW 3749   2.293   1.793   1.909 -0.3637 -0.3136 -0.0833
  938SOL    HW1 3750   2.245   1.842   1.835 -0.3296  2.0834  0.3594
  938SOL    HW2 3751   2.290   1.858   1.979 -1.0289  0.1586 -2.8612
  938SOL     MW 3752   2.287   1.808   1.909 -0.4470  0.0650 -0.3914
  939SOL     OW 3753   2.828   1.975   2.295 -0.2194 -0.0010  0.7043
  939SOL    HW1 3754   2.828   1.905   2.227  1.1167 -0.1130  0.1042
  939SOL    HW2 3755   2.736   2.004   2.309  0.5616  0.6102  0.9116
  939SOL     MW 3756   2.816   1.970   2.288  0.0599  0.0648  0.6525
  940SOL     OW 3757   2.321   0.128   2.684 -0.0084  0.3075  0.1748
  940SOL    HW1 3758   2.326   0.028   2.685 -1.3015 -1.7601  3.0168
  940SOL    HW2 3759   2.367   0.141   2.765  0.0841 -4.3582 -0.9890
  940SOL     MW 3760   2.328   0.117   2.695 -0.1668 -0.5809  0.3962
  941SOL     OW 3761   0.198   2.332   2.056  0.3769  0.4417  0.4390
  941SOL    HW1 3762   0.281   2.280   2.061 -4.3271  0.9701  1.6876
  941SOL    HW2 3763   0.169   2.325   1.971  1.4155 -1.2539 -0.8354
  941SOL     MW 3764   0.205   2.324   2.046 -0.1067  0.2877  0.4356
  942SOL     OW 3765   2.886   2.212   2.195  0.8888  0.9306  0.0268
  942SOL    HW1 3766   2.799   2.263   2.172 -1.5117  0.8110 -2.0997
  942SOL    HW2 3767   2.860   2.127   2.237  0.9213  1.1505 -2.6212
  942SOL     MW 3768   2.871   2.208   2.197  0.5763  0.9438 -0.6032
  943SOL     OW 3769   0.362   2.037   2.319  0.7009  0.0092 -0.2902
  943SOL    HW1 3770   0.297   2.103   2.362 -1.1742  1.0218 -1.4008
  943SOL    HW2 3771   0.450   2.065   2.351  1.3027 -0.0401 -3.1361
  943SOL     MW 3772   0.365   2.049   2.329  0.5329  0.1363 -0.8122
  944SOL     OW 3773   2.123   2.627   2.017 -0.1974  0.2422  0.0684
  944SOL    HW1 3774   2.172   2.566   2.077 -1.2114 -0.5899  2.4869
  944SOL    HW2 3775   2.111   2.702   2.079  0.5350  1.1416  1.6683
  944SOL     MW 3776   2.128   2.629   2.033 -0.2346  0.2511  0.5986
  945SOL     OW 3777   2.788   2.701   2.854  0.0670  0.2955 -0.6347
  945SOL    HW1 3778   2.732   2.631   2.833  1.7038  0.4001 -1.3101
  945SOL    HW2 3779   2.834   2.718   2.770 -1.5211  2.9075 -2.3951
  945SOL     MW 3780   2.787   2.694   2.840  0.0734  0.6539 -0.9561
  946SOL     OW 3781   2.462   2.753   2.259 -0.9204  0.0351 -0.2491
  946SOL    HW1 3782   2.505   2.789   2.181 -0.8593 -0.4416  0.2937
  946SOL    HW2 3783   2.432   2.668   2.232  0.4559 -2.7310 -1.7087
  946SOL     MW 3784   2.464   2.746   2.245 -0.7308 -0.3928 -0.3700
  947SOL     OW 3785   2.030   3.097   0.263  0.1091  0.8119 -0.1888
  947SOL    HW1 3786   1.977   3.021   0.242 -2.9321 -0.7278 -1.9534
  947SOL    HW2 3787   2.098   3.060   0.335  0.3858 -1.1182  0.8365
  947SOL     MW 3788   2.032   3.082   0.270 -0.2557  0.3541 -0.2864
  948SOL     OW 3789   1.816   3.074   2.637 -0.4353  0.4110 -0.0588
  948SOL    HW1 3790   1.897   3.015   2.643  0.7623  0.2770 -1.6005
  948SOL    HW2 3791   1.819   3.093   2.540  1.6709 -0.6349 -1.2986
  948SOL     MW 3792   1.827   3.069   2.625  0.0006  0.2553 -0.4258
  949SOL     OW 3793   2.560   2.046   2.303 -0.4195  0.2269  0.3039
  949SOL    HW1 3794   2.558   1.954   2.337  0.6161 -2.9539 -1.7907
  949SOL    HW2 3795   2.507   2.103   2.359  2.7861  1.5457 -1.4026
  949SOL     MW 3796   2.553   2.041   2.315  0.1401 -0.0188 -0.1976
  950SOL     OW 3797   2.173   2.599   3.012  0.0024 -0.3025  0.0838
  950SOL    HW1 3798   2.242   2.541   2.976  0.7497 -0.6082 -2.9235
  950SOL    HW2 3799   2.120   2.620   2.927 -0.6984 -2.4940  1.9251
  950SOL     MW 3800   2.175   2.594   2.996  0.0086 -0.6320 -0.0700
  951SOL     OW 3801   2.973   2.077   2.851 -0.0036  0.0117  0.3713
  951SOL    HW1 3802   2.984   2.153   2.916  2.8373 -0.4542  1.8437
  951SOL    HW2 3803   3.033   2.077   2.773 -0.4405  2.5675  1.1712
  951SOL     MW 3804   2.982   2.087   2.849  0.3136  0.2875  0.6711
  952SOL     OW 3805   3.057   1.689   2.050  0.0914  0.3330  0.5711
  952SOL    HW1 3806   2.971   1.731   2.037  1.3937  2.6790 -1.8556
  952SOL    HW2 3807   3.111   1.767   2.068  3.8028  1.1554  0.0397
  952SOL     MW 3808   3.053   1.705   2.050  0.7529  0.7511  0.1808
  953SOL     OW 3809   1.986   1.805   2.895 -0.2785 -0.2661 -0.0915
  953SOL    HW1 3810   1.912   1.755   2.932 -2.4908 -2.6005 -0.8320
  953SOL    HW2 3811   2.015   1.745   2.831  0.1293 -2.1780  2.4809
  953SOL     MW 3812   1.980   1.790   2.891 -0.5166 -0.8264  0.1502
  954SOL     OW 3813   2.463   2.109   2.911  0.3354 -0.6044 -0.3599
  954SOL    HW1 3814   2.374   2.123   2.864 -2.8109  0.2473  0.4719
  954SOL    HW2 3815   2.515   2.075   2.837  4.1208  0.8781  0.3616
  954SOL     MW 3816   2.458   2.107   2.895  0.4197 -0.2964 -0.1549
  955SOL     OW 3817   1.578   1.613   2.540 -0.3014  0.2745 -0.5879
  955SOL    HW1 3818   1.547   1.625   2.451 -3.4071  0.3465  3.6081
  955SOL    HW2 3819   1.652   1.675   2.533 -0.6610  0.0515  1.7523
  955SOL     MW 3820   1.584   1.623   2.527 -0.7586  0.2546  0.2745
  956SOL     OW 3821   2.610   2.471   2.849  0.0763  0.0864  0.4785
  956SOL    HW1 3822   2.648   2.459   2.937  3.1803 -1.0692  0.0176
  956SOL    HW2 3823   2.656   2.405   2.796 -1.9182  0.3410 -2.5752
  956SOL     MW 3824   2.621   2.461   2.854  0.2227 -0.0325  0.0148
  957SOL     OW 3825   2.296   2.794   0.392  0.1954 -0.2135 -0.3749
  957SOL    HW1 3826   2.218   2.783   0.335 -0.0365  2.4723  1.4715
  957SOL    HW2 3827   2.261   2.757   0.478  0.4505  0.5863  2.5156
  957SOL     MW 3828   2.281   2.788   0.396  0.1985  0.2464  0.2501
  958SOL     OW 3829   2.025   2.663   2.805 -0.2384 -0.0482 -0.2122
  958SOL    HW1 3830   1.996   2.571   2.777  1.3474  1.4944  1.3052
  958SOL    HW2 3831   1.946   2.692   2.855  1.6444 -0.3913 -3.7179
  958SOL     MW 3832   2.011   2.655   2.808  0.2192  0.1101 -0.4745
  959SOL     OW 3833   2.424   2.554   0.310 -0.2562 -0.1776  0.3452
  959SOL    HW1 3834   2.489   2.570   0.239  1.7380  0.7419 -0.8305
  959SOL    HW2 3835   2.380   2.644   0.332 -1.3705  2.9619 -1.2306
  959SOL     MW 3836   2.427   2.568   0.303 -0.1401  0.3580 -0.0178
  960SOL     OW 3837   1.912   2.363   2.310 -0.3243 -0.6032  0.0305
  960SOL    HW1 3838   1.886   2.269   2.311  0.1139  0.1137 -0.8430
  960SOL    HW2 3839   1.849   2.409   2.367 -0.3216  2.3412 -1.2571
  960SOL     MW 3840   1.900   2.357   2.318 -0.2661 -0.1201 -0.2546
  961SOL     OW 3841   2.191   2.355   2.354  0.0573  0.0684  0.2178
  961SOL    HW1 3842   2.095   2.332   2.342 -4.9056  1.8007  1.7612
  961SOL    HW2 3843   2.187   2.433   2.411 -1.9194 -1.2721 -0.3376
  961SOL     MW 3844   2.178   2.362   2.360 -0.8583  0.1201  0.3482
  962SOL     OW 3845   2.212   2.076   2.786  0.9968 -0.4674  0.6684
  962SOL    HW1 3846   2.201   2.035   2.872  1.0157 -0.1032  1.6740
  962SOL    HW2 3847   2.242   2.002   2.740 -1.9183 -2.3849  3.9875
  962SOL     MW 3848   2.215   2.061   2.791  0.6147 -0.6724  1.2390
  963SOL     OW 3849   1.797   2.577   2.058  0.5365 -0.1620 -0.4895
  963SOL    HW1 3850   1.867   2.565   2.126  2.5791 -2.0247 -1.2869
  963SOL    HW2 3851   1.810   2.512   1.996 -2.2645  0.8766  0.4237
  963SOL     MW 3852   1.808   2.567   2.058  0.4364 -0.2708 -0.4742
  964SOL     OW 3853   1.855   1.987   2.721  0.5532 -0.0699  0.4863
  964SOL    HW1 3854   1.919   2.054   2.706  3.5092  0.3396  0.6195
  964SOL    HW2 3855   1.902   1.926   2.777 -3.8723  1.4409  0.2492
  964SOL     MW 3856   1.869   1.988   2.727  0.3593  0.1835  0.4726
  965SOL     OW 3857   2.202   2.675   0.618  0.0765  0.3657  0.2591
  965SOL    HW1 3858   2.172   2.587   0.616 -0.3226 -0.1339 -3.0458
  965SOL    HW2 3859   2.238   2.685   0.707 -0.3173 -0.6897  1.1359
  965SOL     MW 3860   2.203   2.665   0.630 -0.0281  0.1605 -0.0613
  966SOL     OW 3861   2.678   2.645   2.459 -0.1027  0.2499 -0.5952
  966SOL    HW1 3862   2.625   2.678   2.383 -0.0639 -1.2553 -0.0654
  966SOL    HW2 3863   2.706   2.550   2.445  0.4914  0.1663 -0.1772
  966SOL     MW 3864   2.674   2.637   2.447 -0.0192  0.0403 -0.4701
  967SOL     OW 3865   2.891   2.999   2.924 -0.4880  0.4540 -0.4918
  967SOL    HW1 3866   2.876   2.929   2.990  0.5777 -1.4618  1.0989
  967SOL    HW2 3867   2.805   3.020   2.883 -0.9015  0.4643  1.1076
  967SOL     MW 3868   2.878   2.993   2.928 -0.4019  0.2026 -0.0709
  968SOL     OW 3869   3.006   2.591   2.981  0.4138  0.2279 -0.8868
  968SOL    HW1 3870   2.919   2.633   2.964  0.9661  1.2946  1.4654
  968SOL    HW2 3871   3.034   2.521   2.922 -0.3522 -1.8703 -0.5699
  968SOL     MW 3872   2.999   2.587   2.971  0.3856  0.0918 -0.5346
  969SOL     OW 3873   1.537   2.091   1.731  0.0652 -0.2187 -0.4540
  969SOL    HW1 3874   1.608   2.033   1.712  1.4789  1.4492 -0.2543
  969SOL    HW2 3875   1.536   2.097   1.830 -0.6658  1.4475  2.5834
  969SOL     MW 3876   1.546   2.084   1.742  0.1553  0.2212 -0.0269
  970SOL     OW 3877   1.625   1.718   1.870  0.4685 -0.2170 -0.2752
  970SOL    HW1 3878   1.657   1.711   1.961 -1.1745  0.6383  0.3378
  970SOL    HW2 3879   1.530   1.700   1.862  1.2188  1.8005 -0.3006
  970SOL     MW 3880   1.616   1.715   1.881  0.3507  0.1620 -0.1977
  971SOL     OW 3881   1.816   0.093   2.349 -0.4829 -0.8284  0.5585
  971SOL    HW1 3882   1.837   0.083   2.255  0.9084 -2.1967 -4.9673
  971SOL    HW2 3883   1.894   0.142   2.391  3.1415  0.2984 -1.9254
  971SOL     MW 3884   1.829   0.098   2.342  0.1789 -0.8603 -0.4983
  972SOL     OW 3885   0.281   2.790   2.520  0.1148  0.1244  0.4173
  972SOL    HW1 3886   0.325   2.706   2.537  0.2901  1.7002  1.2147
  972SOL    HW2 3887   0.338   2.860   2.542  1.2599 -0.4765 -1.5096
  972SOL     MW 3888   0.294   2.788   2.525  0.2890  0.2530  0.2683
  973SOL     OW 3889   2.633   3.100   2.078  0.5486  0.6946  0.3787
  973SOL    HW1 3890   2.592   3.016   2.082  1.9247  0.7427  1.4466
  973SOL    HW2 3891   2.632   3.121   1.987 -1.0075 -0.4903  2.6575
  973SOL     MW 3892   2.628   3.091   2.067  0.5248  0.5446  0.8202
  974SOL     OW 3893   2.109   0.300   2.771 -0.0243 -0.7076  0.4362
  974SOL    HW1 3894   2.185   0.250   2.750 -0.3694  1.2508 -1.3141
  974SOL    HW2 3895   2.053   0.242   2.818  0.8113  1.8315 -0.0007
  974SOL     MW 3896   2.112   0.286   2.774  0.0404 -0.1142  0.1476
  975SOL     OW 3897   2.222   2.548   2.559 -0.4147 -0.4605 -0.3344
  975SOL    HW1 3898   2.297   2.588   2.597 -0.0548 -0.1094 -0.7083
  975SOL    HW2 3899   2.183   2.617   2.506 -0.7273 -0.9295  0.1200
  975SOL     MW 3900   2.227   2.562   2.557 -0.4085 -0.4761 -0.3238
  976SOL     OW 3901   0.209   0.333   1.705 -0.3350  0.5138 -0.0142
  976SOL    HW1 3902   0.251   0.245   1.738  3.2887 -1.9002  0.1581
  976SOL    HW2 3903   0.125   0.301   1.679 -0.0633  2.2245  1.6920
  976SOL     MW 3904   0.203   0.317   1.706  0.1789  0.4210  0.2337
  977SOL     OW 3905   1.711   2.750   2.478  0.0672 -0.2293 -0.3024
  977SOL    HW1 3906   1.711   2.653   2.474  0.4183  0.9307  0.3994
  977SOL    HW2 3907   1.801   2.779   2.487  0.4858 -0.2111 -1.4713
  977SOL     MW 3908   1.723   2.741   2.479  0.1688 -0.0739 -0.3640
   3.10000   3.10000   3.10000
