977 TIP4P/2005f water molecules t=   0.17000 step= 170
 3908
    1SOL     OW    1   0.221   0.760   0.043 -0.2738  1.0533  0.0627
    1SOL    HW1    2   0.214   0.803  -0.041  0.0768 -2.5780 -0.5793
    1SOL    HW2    3   0.237   0.669   0.022  1.2542 -0.1967  0.1405
    1SOL     MW    4   0.222   0.754   0.029 -0.0259  0.4092 -0.0117
    2SOL     OW    5   0.371   3.022   1.134  0.1936  0.1553 -0.0018
    2SOL    HW1    6   0.414   3.094   1.087 -2.2381 -2.2610 -0.6171
    2SOL    HW2    7   0.284   3.058   1.155 -1.4540 -0.5877  0.3729
    2SOL     MW    8   0.365   3.037   1.131 -0.3446 -0.2616 -0.0335
    3SOL     OW    9   2.713   0.390   0.885 -0.9246  0.0331  0.5584
    3SOL    HW1   10   2.702   0.471   0.823 -1.4747  2.1768  1.2584
    3SOL    HW2   11   2.728   0.430   0.974 -2.0222  1.1420 -1.4859
    3SOL     MW   12   2.713   0.406   0.889 -1.1420  0.4622  0.3810
    4SOL     OW   13   0.004   1.763   0.664 -0.2084  1.0156 -0.3108
    4SOL    HW1   14  -0.065   1.809   0.614  0.5529 -0.1090  3.4879
    4SOL    HW2   15   0.067   1.735   0.598 -0.1690  1.2550 -1.5083
    4SOL     MW   16   0.003   1.765   0.649 -0.1027  0.8988  0.0324
    5SOL     OW   17   1.686   1.462   0.510  0.1078 -0.2003  0.1579
    5SOL    HW1   18   1.752   1.433   0.579  3.5542  1.4137 -1.1320
    5SOL    HW2   19   1.599   1.452   0.554  1.6279  0.1501 -1.6785
    5SOL     MW   20   1.683   1.457   0.525  0.7631  0.0589 -0.2546
    6SOL     OW   21   0.833   1.366   0.582 -0.3091  0.0408  0.0944
    6SOL    HW1   22   0.740   1.359   0.614 -1.3845  0.1957  2.1790
    6SOL    HW2   23   0.873   1.280   0.619 -0.9325  0.3010  1.8819
    6SOL     MW   24   0.826   1.353   0.591 -0.5332  0.0955  0.6053
    7SOL     OW   25   1.963   1.064   3.086  0.1835  0.1417  0.2118
    7SOL    HW1   26   1.970   1.152   3.049  1.3353  0.3541  1.8688
    7SOL    HW2   27   1.998   1.090   3.171  0.3967  2.9819 -0.4515
    7SOL     MW   28   1.968   1.079   3.092  0.3636  0.5445  0.3429
    8SOL     OW   29   0.989   1.286   1.071 -0.2177 -0.6074  0.0582
    8SOL    HW1   30   1.088   1.263   1.077  2.9484 -3.1086  0.2047
    8SOL    HW2   31   0.953   1.204   1.096 -1.6214  0.5028 -0.6632
    8SOL     MW   32   0.997   1.272   1.075  0.0149 -0.7909 -0.0177
    9SOL     OW   33   0.997   0.492   1.411 -0.0806 -0.4896 -0.2589
    9SOL    HW1   34   0.943   0.419   1.428  0.8724 -1.2885 -0.5887
    9SOL    HW2   35   1.063   0.495   1.478 -0.8180  0.1871 -1.2895
    9SOL     MW   36   0.998   0.483   1.422 -0.0521 -0.5057 -0.4384
   10SOL     OW   37   0.298   0.877   0.478  0.2350 -0.0537  0.5515
   10SOL    HW1   38   0.388   0.909   0.461 -1.2209  1.0182 -1.1739
   10SOL    HW2   39   0.269   0.937   0.549 -3.1113  0.6559  1.1476
   10SOL     MW   40   0.306   0.889   0.485 -0.3986  0.1813  0.4025
   11SOL     OW   41   0.923   1.090   1.530  0.1499  0.0922  0.0023
   11SOL    HW1   42   0.954   1.102   1.618  0.7299  0.9484 -0.1513
   11SOL    HW2   43   0.848   1.022   1.534  0.4197  0.0759  1.5093
   11SOL     MW   44   0.917   1.083   1.542  0.2620  0.2030  0.1809
   12SOL     OW   45   3.062   1.095   0.849  0.0876 -0.1371  0.2433
   12SOL    HW1   46   3.111   1.154   0.900  1.2705 -4.2843  1.3344
   12SOL    HW2   47   3.039   1.142   0.768  0.3771  1.6578 -0.9057
   12SOL     MW   48   3.066   1.109   0.845  0.2819 -0.4475  0.2356
   13SOL     OW   49   1.911   1.440   1.439  0.1980  0.3812  0.0016
   13SOL    HW1   50   1.926   1.385   1.363 -0.5111  0.0537 -0.9027
   13SOL    HW2   51   1.900   1.526   1.400 -2.5507  1.3028 -0.7632
   13SOL     MW   52   1.912   1.444   1.423 -0.2582  0.4596 -0.2186
   14SOL     OW   53   0.591   0.356   1.771  0.0309 -0.0442  0.4319
   14SOL    HW1   54   0.586   0.275   1.716  0.7351  1.1469 -1.5957
   14SOL    HW2   55   0.662   0.335   1.831  1.1474 -0.8090  1.3755
   14SOL     MW   56   0.599   0.343   1.772  0.2711  0.0120  0.2888
   15SOL     OW   57   1.984   0.543   0.913 -0.3641 -0.9733  0.1496
   15SOL    HW1   58   2.005   0.540   1.007 -0.2703  1.3096 -0.0462
   15SOL    HW2   59   2.059   0.507   0.864 -0.9131 -1.3355 -0.0122
   15SOL     MW   60   1.997   0.538   0.919 -0.4241 -0.7198  0.1024
   16SOL     OW   61   0.190   1.799   0.270  0.1415  0.2932  0.0965
   16SOL    HW1   62   0.275   1.758   0.301  0.7271  2.3496  0.3497
   16SOL    HW2   63   0.207   1.887   0.289  0.8814 -0.2768 -3.3146
   16SOL     MW   64   0.204   1.806   0.276  0.3164  0.4893 -0.3201
   17SOL     OW   65   1.113   0.801   1.467 -0.8182  0.6650 -0.7419
   17SOL    HW1   66   1.148   0.817   1.557 -0.7673 -0.9424  0.4394
   17SOL    HW2   67   1.021   0.783   1.476 -1.0802 -0.6844  0.5797
   17SOL     MW   68   1.106   0.801   1.480 -0.8460  0.2749 -0.4117
   18SOL     OW   69   0.002   1.558   0.384  0.3673 -0.0679  0.5480
   18SOL    HW1   70   0.054   1.619   0.336 -2.4589  0.6126 -0.3102
   18SOL    HW2   71   0.004   1.479   0.332 -0.6436 -1.7807 -2.3051
   18SOL     MW   72   0.009   1.556   0.371 -0.1390 -0.2041  0.0583
   19SOL     OW   73   0.090   1.250   1.030  0.6866  0.3903 -0.0020
   19SOL    HW1   74   0.118   1.326   0.972  1.1899  0.5015 -0.6491
   19SOL    HW2   75   0.007   1.286   1.072 -0.0289 -2.1901  0.7788
   19SOL     MW   76   0.083   1.265   1.028  0.6586  0.0645  0.0156
   20SOL     OW   77   0.488   2.193   1.301 -0.8541 -0.5162 -0.2390
   20SOL    HW1   78   0.446   2.146   1.222 -2.9720  0.0546 -2.1985
   20SOL    HW2   79   0.417   2.230   1.361 -1.1467 -0.1769 -0.1647
   20SOL     MW   80   0.473   2.192   1.298 -1.1721 -0.3961 -0.4877
   21SOL     OW   81   0.560   0.898   0.344 -0.0727 -0.2367  0.0826
   21SOL    HW1   82   0.640   0.846   0.375  0.0315 -1.1858 -0.7180
   21SOL    HW2   83   0.516   0.853   0.276 -1.6225 -0.1452  1.7476
   21SOL     MW   84   0.565   0.885   0.339 -0.2634 -0.3499  0.1966
   22SOL     OW   85   1.567   0.601   1.126 -0.1450 -0.4555 -0.6018
   22SOL    HW1   86   1.615   0.548   1.057 -0.0425  0.2169  0.0659
   22SOL    HW2   87   1.530   0.669   1.078  1.1670  0.5109 -0.2312
   22SOL     MW   88   1.569   0.603   1.111  0.0416 -0.2392 -0.4648
   23SOL     OW   89   3.056   0.740   0.718  0.0649  0.4553 -0.0465
   23SOL    HW1   90   3.117   0.663   0.705  1.6217  0.2146  0.2671
   23SOL    HW2   91   3.121   0.810   0.703 -1.3661 -3.3661 -0.3120
   23SOL     MW   92   3.073   0.739   0.714  0.0815 -0.0806 -0.0402
   24SOL     OW   93   2.086   2.171   0.029 -0.1202 -1.2921  0.3891
   24SOL    HW1   94   2.063   2.165   0.121  1.4130 -1.6815  0.8020
   24SOL    HW2   95   2.115   2.089   0.000 -1.7900 -0.2672  1.3559
   24SOL     MW   96   2.087   2.159   0.037 -0.1382 -1.2082  0.5711
   25SOL     OW   97   0.186   1.431   0.589  0.0826 -0.3939  0.1758
   25SOL    HW1   98   0.117   1.486   0.557  0.1041  3.9355  0.8670
   25SOL    HW2   99   0.263   1.445   0.529  2.1665 -2.8330 -1.4150
   25SOL     MW  100   0.187   1.440   0.576  0.3604 -0.1445  0.0571
   26SOL     OW  101   2.041   0.994   0.397  0.1288 -0.4496 -0.9315
   26SOL    HW1  102   1.960   1.025   0.433  0.0870 -1.3120 -0.4120
   26SOL    HW2  103   2.082   1.068   0.338  0.0268  0.5492  1.5674
   26SOL     MW  104   2.036   1.008   0.394  0.1099 -0.4316 -0.5333
   27SOL     OW  105   1.972   1.450   0.234 -0.1464 -0.6056 -0.2032
   27SOL    HW1  106   1.917   1.374   0.263  0.1112 -0.0153  1.0626
   27SOL    HW2  107   1.982   1.506   0.312 -1.3927 -0.6422 -1.1902
   27SOL     MW  108   1.966   1.448   0.248 -0.2768 -0.5326 -0.1664
   28SOL     OW  109   0.362   0.956   1.906  0.2701  0.3525 -0.7811
   28SOL    HW1  110   0.282   0.906   1.945  2.1515 -1.9256  2.6151
   28SOL    HW2  111   0.416   0.894   1.853  1.7143 -1.8964 -0.0354
   28SOL     MW  112   0.358   0.941   1.904  0.7088 -0.2448 -0.2346
   29SOL     OW  113   0.214   1.446   0.877  0.4742  0.8073 -0.4788
   29SOL    HW1  114   0.223   1.533   0.913 -2.8309 -1.2037 -1.8468
   29SOL    HW2  115   0.204   1.459   0.781 -2.7115  3.6134 -2.0515
   29SOL     MW  116   0.214   1.459   0.869 -0.3822  0.9122 -0.8668
   30SOL     OW  117   0.936   1.026   1.155  0.2555  0.3197 -0.0156
   30SOL    HW1  118   0.865   1.082   1.193  1.2897  1.3438 -0.3379
   30SOL    HW2  119   1.010   1.022   1.220  0.3118  1.3171 -0.1700
   30SOL     MW  120   0.936   1.033   1.169  0.3994  0.5864 -0.0785
   31SOL     OW  121   0.475   0.257   0.218 -0.1923 -0.3498  0.3770
   31SOL    HW1  122   0.480   0.188   0.287 -1.1966  0.1719 -2.0565
   31SOL    HW2  123   0.462   0.220   0.125  1.8829  1.7853 -0.6092
   31SOL     MW  124   0.474   0.243   0.215 -0.0510  0.0008 -0.0742
   32SOL     OW  125   2.693   1.034   1.112  0.3941 -0.0813  0.2868
   32SOL    HW1  126   2.657   0.949   1.096  0.2801 -0.0808 -0.1600
   32SOL    HW2  127   2.787   1.026   1.094  0.4877 -1.1871 -0.4015
   32SOL     MW  128   2.701   1.021   1.108  0.3914 -0.2271  0.1371
   33SOL     OW  129   1.782   1.261   0.340 -0.4182 -0.1752 -0.1820
   33SOL    HW1  130   1.765   1.178   0.395  0.9133  0.1401  1.0010
   33SOL    HW2  131   1.761   1.338   0.397 -0.0538 -0.5312 -0.6895
   33SOL     MW  132   1.777   1.260   0.355 -0.1945 -0.1805 -0.0929
   34SOL     OW  133   1.267   1.849   1.123 -0.2317  0.3410 -0.0363
   34SOL    HW1  134   1.185   1.903   1.125 -1.0860  0.8703 -2.3167
   34SOL    HW2  135   1.324   1.865   1.200  2.0754  0.7273 -1.8406
   34SOL     MW  136   1.264   1.858   1.133 -0.0400  0.4618 -0.5752
   35SOL     OW  137   0.368   0.028   1.858 -0.2443  0.0643 -0.2199
   35SOL    HW1  138   0.380  -0.028   1.935  3.8692 -0.4579 -3.3708
   35SOL    HW2  139   0.396  -0.020   1.779 -1.1087 -2.9299  0.5839
   35SOL     MW  140   0.373   0.014   1.858  0.1844 -0.3997 -0.5296
   36SOL     OW  141   1.872   1.919   0.508  0.3414 -0.7048  0.0125
   36SOL    HW1  142   1.884   1.918   0.408  0.5392  0.8878  1.3150
   36SOL    HW2  143   1.839   1.832   0.536 -1.7881  0.4846 -1.6075
   36SOL     MW  144   1.869   1.907   0.498  0.0865 -0.3377 -0.0294
   37SOL     OW  145   1.777   1.996   0.955 -0.3995 -0.0515 -0.2754
   37SOL    HW1  146   1.725   1.936   0.890 -0.9096  1.5548 -3.6909
   37SOL    HW2  147   1.713   2.023   1.034 -2.7417  0.0561 -0.1254
   37SOL     MW  148   1.762   1.992   0.957 -0.7758  0.1746 -0.7062
   38SOL     OW  149   2.858   0.906   0.226  0.2357  0.0618  0.1965
   38SOL    HW1  150   2.901   0.951   0.303  0.4107  1.4040 -0.0916
   38SOL    HW2  151   2.931   0.864   0.170  2.5712  0.0988 -0.0139
   38SOL     MW  152   2.873   0.906   0.229  0.5669  0.2438  0.1307
   39SOL     OW  153   1.456   0.678   0.843  0.0190 -0.2076  0.1645
   39SOL    HW1  154   1.429   0.582   0.848  0.3216  0.7832 -4.3784
   39SOL    HW2  155   1.399   0.725   0.908 -0.0538  1.3314  0.8466
   39SOL     MW  156   1.445   0.672   0.852  0.0493  0.1262 -0.3449
   40SOL     OW  157   1.301   1.886   0.254 -0.0442 -0.1853  0.3718
   40SOL    HW1  158   1.289   1.809   0.305 -1.8213  1.3988  0.1418
   40SOL    HW2  159   1.297   1.960   0.316  0.0727 -0.0098 -0.4439
   40SOL     MW  160   1.299   1.886   0.269 -0.2633  0.0468  0.2338
   41SOL     OW  161   0.610   0.556   1.564 -0.5179 -0.1866 -0.0655
   41SOL    HW1  162   0.699   0.599   1.548 -0.7375 -1.0753  0.9762
   41SOL    HW2  163   0.622   0.503   1.638  1.4243  1.4530  1.3005
   41SOL     MW  164   0.623   0.555   1.571 -0.2906 -0.0875  0.2522
   42SOL     OW  165   1.384   3.076   1.952 -0.5143  0.0362 -0.2069
   42SOL    HW1  166   1.286   3.079   1.972 -1.1582  0.7014 -1.6173
   42SOL    HW2  167   1.414   2.989   1.980 -1.0949  2.9375 -0.4042
   42SOL     MW  168   1.375   3.065   1.959 -0.6759  0.5068 -0.4190
   43SOL     OW  169   1.582   0.194   1.576 -0.1450  0.2684  0.5999
   43SOL    HW1  170   1.636   0.131   1.528  0.3963 -0.3846 -1.9084
   43SOL    HW2  171   1.515   0.147   1.628  0.0808  1.9776 -0.4326
   43SOL     MW  172   1.581   0.180   1.577 -0.0438  0.4077  0.1327
   44SOL     OW  173   1.310   0.753   1.059 -0.6026 -0.1357  0.3988
   44SOL    HW1  174   1.318   0.853   1.053  3.2566 -0.3685 -0.6082
   44SOL    HW2  175   1.321   0.727   1.152 -0.8609 -0.7648  1.4490
   44SOL     MW  176   1.312   0.763   1.070 -0.1275 -0.2494  0.4045
   45SOL     OW  177   1.045   0.781   0.807  0.4454 -0.6152  0.1911
   45SOL    HW1  178   1.046   0.746   0.893 -0.7031  1.8243 -0.1596
   45SOL    HW2  179   1.084   0.708   0.751  0.7880  0.3416  1.9613
   45SOL     MW  180   1.050   0.767   0.811  0.3390 -0.1671  0.3784
   46SOL     OW  181   0.598   1.118   0.604  0.0202 -0.4535 -0.0378
   46SOL    HW1  182   0.592   1.142   0.513 -1.3224  1.0758 -0.5187
   46SOL    HW2  183   0.691   1.084   0.609  0.8370 -0.0326  0.3662
   46SOL     MW  184   0.609   1.117   0.593 -0.0492 -0.1962 -0.0480
   47SOL     OW  185   0.106   1.909   1.840  0.5818  0.2531  0.1785
   47SOL    HW1  186   0.183   1.863   1.813  0.2061  2.9760  1.1530
   47SOL    HW2  187   0.098   1.902   1.934 -0.5335  0.1450  0.8787
   47SOL     MW  188   0.115   1.902   1.849  0.3851  0.5981  0.3995
   48SOL     OW  189   1.065   0.651   1.047  0.2631  0.1362  0.2257
   48SOL    HW1  190   1.019   0.664   1.133 -1.3059 -0.0692 -0.9396
   48SOL    HW2  191   1.162   0.685   1.050 -0.5802 -1.8198  2.5478
   48SOL     MW  192   1.072   0.657   1.059 -0.0552 -0.1490  0.3783
   49SOL     OW  193   1.847   0.777   1.584  0.2524 -0.2145 -0.0575
   49SOL    HW1  194   1.780   0.748   1.650 -2.3075  0.1422  2.4615
   49SOL    HW2  195   1.900   0.694   1.571 -1.2000  0.7820  1.3086
   49SOL     MW  196   1.845   0.763   1.591 -0.2770 -0.0360  0.4551
   50SOL     OW  197   1.312   1.007   0.588  0.3592 -0.3041 -0.1971
   50SOL    HW1  198   1.275   1.048   0.663 -2.1346 -0.3256 -1.3755
   50SOL    HW2  199   1.329   0.909   0.604 -0.0193  1.8651  0.3907
   50SOL     MW  200   1.310   1.000   0.600 -0.0198 -0.0207 -0.2750
   51SOL     OW  201   0.304   2.885   0.924  0.2528 -0.3904 -0.2777
   51SOL    HW1  202   0.389   2.842   0.893 -3.1931 -2.1569 -1.8222
   51SOL    HW2  203   0.334   2.938   0.999 -0.4980 -1.5602  1.0175
   51SOL     MW  204   0.319   2.886   0.930 -0.3009 -0.7778 -0.3106
   52SOL     OW  205   0.826   1.886   0.413  0.1863 -0.3777 -0.4670
   52SOL    HW1  206   0.762   1.942   0.456 -0.0080 -1.2573 -1.2020
   52SOL    HW2  207   0.769   1.846   0.353  0.6613 -2.1007  1.4708
   52SOL     MW  208   0.810   1.888   0.411  0.2233 -0.7211 -0.3083
   53SOL     OW  209   0.346   2.042   0.606  0.2999  0.2233 -0.2626
   53SOL    HW1  210   0.297   2.040   0.526 -0.2801 -0.0753  1.6641
   53SOL    HW2  211   0.366   2.150   0.618 -0.4087  2.6024  0.0486
   53SOL     MW  212   0.342   2.056   0.597  0.1299  0.4978  0.0327
   54SOL     OW  213   2.205   0.840   0.857  0.1442 -0.3829  0.5842
   54SOL    HW1  214   2.223   0.837   0.763  1.1431  0.5889 -0.2240
   54SOL    HW2  215   2.110   0.842   0.865 -0.4532 -0.1378 -0.4245
   54SOL     MW  216   2.195   0.840   0.846  0.1972 -0.2223  0.3445
   55SOL     OW  217   0.507   1.442   1.523 -0.0841  0.2219  0.1636
   55SOL    HW1  218   0.498   1.503   1.451 -0.4982  0.7206 -1.2091
   55SOL    HW2  219   0.588   1.390   1.509  0.7666 -1.9610 -1.5823
   55SOL     MW  220   0.517   1.443   1.511 -0.0265 -0.0003 -0.2479
   56SOL     OW  221   0.473   0.797   0.113  0.7723 -0.5775  0.1147
   56SOL    HW1  222   0.500   0.864   0.055  0.5560 -0.5950 -0.2184
   56SOL    HW2  223   0.386   0.778   0.079  1.5055  1.8380 -0.1639
   56SOL     MW  224   0.465   0.804   0.101  0.8405 -0.2611  0.0340
   57SOL     OW  225   1.260   1.225   1.134 -0.2583 -0.2026 -0.1787
   57SOL    HW1  226   1.350   1.258   1.153  0.0713 -2.0698 -0.9921
   57SOL    HW2  227   1.238   1.167   1.213 -0.8616 -0.2166  0.1964
   57SOL     MW  228   1.269   1.222   1.147 -0.2944 -0.4508 -0.2365
   58SOL     OW  229   0.692   1.093   1.261 -0.0530  0.4316  0.1674
   58SOL    HW1  230   0.629   1.163   1.240  0.6056 -0.6629  2.7566
   58SOL    HW2  231   0.667   1.053   1.344  0.5178 -1.9348 -1.6930
   58SOL     MW  232   0.680   1.097   1.269  0.1092 -0.0250  0.2635
   59SOL     OW  233   1.543   1.589   0.272 -0.5360  0.0816  0.0152
   59SOL    HW1  234   1.614   1.529   0.307  3.0565  0.7302 -0.9050
   59SOL    HW2  235   1.491   1.630   0.340  1.2376  1.6870  0.2187
   59SOL     MW  236   1.545   1.586   0.286  0.1720  0.3790 -0.0794
   60SOL     OW  237   0.013   0.154   1.699 -0.1360 -0.3237 -0.4190
   60SOL    HW1  238  -0.074   0.196   1.682 -1.3279  2.1868  0.6671
   60SOL    HW2  239  -0.004   0.060   1.710 -2.1142  2.2606  0.6819
   60SOL     MW  240  -0.001   0.147   1.698 -0.5543  0.3485 -0.1304
   61SOL     OW  241   2.013   1.463   3.054 -0.3541 -0.0695  0.2048
   61SOL    HW1  242   2.010   1.469   3.148 -3.3355  2.4722 -0.2396
   61SOL    HW2  243   2.069   1.379   3.038  1.9157  0.4242 -0.0870
   61SOL     MW  244   2.020   1.453   3.064 -0.4480  0.3310  0.1077
   62SOL     OW  245   0.603   1.656   0.551  0.3257  0.0428 -0.7562
   62SOL    HW1  246   0.664   1.613   0.498  0.9732  1.3536  0.5271
   62SOL    HW2  247   0.587   1.584   0.616 -1.7105 -0.3559  0.7976
   62SOL     MW  248   0.609   1.641   0.552  0.1425  0.1631 -0.3819
   63SOL     OW  249   1.717   0.749   0.737 -0.1527 -0.4891  0.0048
   63SOL    HW1  250   1.672   0.759   0.655  0.1941  2.0816 -0.2570
   63SOL    HW2  251   1.642   0.745   0.795 -1.4129 -2.2033 -0.3383
   63SOL     MW  252   1.701   0.750   0.734 -0.2732 -0.3761 -0.0750
   64SOL     OW  253   0.296   1.688   0.995 -0.1947 -0.5604  0.5487
   64SOL    HW1  254   0.371   1.717   0.934  1.7744  1.2111 -0.0369
   64SOL    HW2  255   0.244   1.766   0.994 -1.5328 -0.7926 -1.5425
   64SOL     MW  256   0.299   1.702   0.987 -0.1114 -0.3573  0.1955
   65SOL     OW  257   1.514   2.211   0.318 -0.4270 -0.3013 -0.0813
   65SOL    HW1  258   1.600   2.213   0.275  0.5696  1.3570  1.8985
   65SOL    HW2  259   1.532   2.282   0.385 -0.1452  2.2811  2.6195
   65SOL     MW  260   1.528   2.221   0.321 -0.2583  0.2582  0.5362
   66SOL     OW  261   0.296   0.585   0.526  0.1887  0.1633  0.0588
   66SOL    HW1  262   0.369   0.543   0.477 -1.7354 -0.1342  3.8233
   66SOL    HW2  263   0.310   0.676   0.509  0.5764 -0.2451  2.0107
   66SOL     MW  264   0.308   0.592   0.518 -0.0140  0.0701  0.8130
   67SOL     OW  265   1.536   0.193   2.011 -0.5683 -0.5340  0.6970
   67SOL    HW1  266   1.574   0.239   1.935 -0.9581  2.0472 -1.5587
   67SOL    HW2  267   1.491   0.111   1.985 -0.2966 -2.5633 -0.5596
   67SOL     MW  268   1.535   0.188   1.997 -0.5839 -0.4612  0.2336
   68SOL     OW  269   0.681   0.091   2.988 -0.7163 -0.0252  0.2568
   68SOL    HW1  270   0.730   0.078   2.904 -0.4871 -1.4196 -2.2413
   68SOL    HW2  271   0.697   0.186   3.000  2.6381  1.7956  2.7888
   68SOL     MW  272   0.690   0.102   2.978 -0.2435  0.0311  0.2613
   69SOL     OW  273   1.016   0.175   1.963  0.3686  0.7874  0.0433
   69SOL    HW1  274   1.090   0.208   2.015  3.6125 -1.7599 -0.6546
   69SOL    HW2  275   1.015   0.075   1.969 -1.3634  0.1212  1.8864
   69SOL     MW  276   1.026   0.166   1.970  0.5681  0.3634  0.1944
   70SOL     OW  277   0.570   1.794   1.139  0.0502 -0.1672 -0.2836
   70SOL    HW1  278   0.589   1.706   1.171 -0.7038 -1.5234 -0.4548
   70SOL    HW2  279   0.652   1.814   1.081 -0.1886  2.2642  1.9729
   70SOL     MW  280   0.583   1.785   1.135 -0.0808 -0.0253 -0.0084
   71SOL     OW  281   1.792   0.705   1.290 -0.0742  0.1645 -0.6496
   71SOL    HW1  282   1.776   0.672   1.379 -0.4848  0.7210 -1.0362
   71SOL    HW2  283   1.713   0.683   1.242 -0.8325 -2.0370 -2.0615
   71SOL     MW  284   1.780   0.697   1.296 -0.2285 -0.0525 -0.8869
   72SOL     OW  285   0.816   1.834   1.015 -0.4737 -0.4124 -0.4689
   72SOL    HW1  286   0.807   1.893   0.940  0.6568 -0.3984 -1.9742
   72SOL    HW2  287   0.868   1.764   0.982  2.1521  0.8621  0.1720
   72SOL     MW  288   0.822   1.833   1.001  0.0219 -0.2424 -0.5830
   73SOL     OW  289   1.308   0.669   1.314 -0.5693  0.5184 -0.0448
   73SOL    HW1  290   1.289   0.577   1.296 -1.0935  0.0407 -0.0507
   73SOL    HW2  291   1.231   0.706   1.361 -0.0201 -0.2414  0.3004
   73SOL     MW  292   1.295   0.662   1.318 -0.5660  0.3551 -0.0001
   74SOL     OW  293   2.766   0.100   1.006 -0.3372  0.0724 -0.1884
   74SOL    HW1  294   2.774   0.023   0.953  1.0717 -0.4010 -1.0562
   74SOL    HW2  295   2.783   0.175   0.949 -0.3566 -1.5937  1.0025
   74SOL     MW  296   2.770   0.100   0.992 -0.1539 -0.2099 -0.1458
   75SOL     OW  297   1.674   1.297   0.093 -0.1257  0.1253  0.0996
   75SOL    HW1  298   1.720   1.284   0.181  0.6395  0.6573  0.3820
   75SOL    HW2  299   1.683   1.215   0.044  2.4649 -2.5697 -1.8057
   75SOL     MW  300   1.681   1.285   0.098  0.3171 -0.1601 -0.1145
   76SOL     OW  301   2.937   0.635   0.483 -0.0720  0.4377  0.5804
   76SOL    HW1  302   2.971   0.677   0.563 -3.0493 -0.9666  0.9199
   76SOL    HW2  303   3.018   0.607   0.435  0.2608 -0.7517 -1.4266
   76SOL     MW  304   2.952   0.637   0.487 -0.4209  0.0955  0.3604
   77SOL     OW  305   0.897   0.426   0.525  0.0621 -0.2896 -0.0268
   77SOL    HW1  306   0.851   0.504   0.556  0.4919  1.0106  1.6631
   77SOL    HW2  307   0.829   0.357   0.503 -0.0804 -0.5675 -0.7556
   77SOL     MW  308   0.882   0.427   0.526  0.1000 -0.1547  0.1000
   78SOL     OW  309   0.834   0.756   1.226 -0.4402 -0.0078 -0.1909
   78SOL    HW1  310   0.756   0.745   1.178  1.0698  1.0205  1.9040
   78SOL    HW2  311   0.862   0.847   1.209  0.3687 -0.4864  0.2376
   78SOL     MW  312   0.827   0.766   1.217 -0.1343  0.0648  0.1420
   79SOL     OW  313   1.828   1.667   0.600  0.2789  0.2592  0.1551
   79SOL    HW1  314   1.772   1.604   0.556  1.1058  0.7006  0.0573
   79SOL    HW2  315   1.796   1.654   0.687 -0.1221  1.8108 -1.6057
   79SOL     MW  316   1.816   1.657   0.606  0.3351  0.5222 -0.0901
   80SOL     OW  317   0.157   1.005   0.252  0.1863 -0.2851 -0.0009
   80SOL    HW1  318   0.078   0.966   0.301 -2.9549  0.4218  0.9894
   80SOL    HW2  319   0.220   0.975   0.322  0.2628 -3.0857  0.0204
   80SOL     MW  320   0.155   0.996   0.268 -0.2180 -0.5614  0.1325
   81SOL     OW  321   1.943   1.895   0.253  0.0918 -0.4120  0.6644
   81SOL    HW1  322   1.885   1.836   0.199  1.4977 -0.5864 -3.2407
   81SOL    HW2  323   1.925   1.985   0.216  3.2607 -1.5578  2.1454
   81SOL     MW  324   1.933   1.899   0.241  0.6954 -0.5862  0.3445
   82SOL     OW  325   0.842   0.912   0.550 -0.8987 -0.1780  0.1372
   82SOL    HW1  326   0.924   0.910   0.498 -1.4012 -0.9141 -1.1711
   82SOL    HW2  327   0.791   0.837   0.533  0.2222  1.6592 -0.8482
   82SOL     MW  328   0.846   0.902   0.541 -0.8171 -0.0327 -0.1654
   83SOL     OW  329   0.096   0.636   1.384  0.1660 -0.1528 -0.3970
   83SOL    HW1  330   0.093   0.720   1.349 -3.4798  1.5438  0.9778
   83SOL    HW2  331   0.182   0.600   1.415 -0.3158 -1.1355  2.5872
   83SOL     MW  332   0.107   0.642   1.383 -0.3786 -0.0586  0.1782
   84SOL     OW  333   0.037   0.294   1.069 -0.2716  0.5009 -0.3079
   84SOL    HW1  334  -0.018   0.289   0.988  0.7856 -1.6486 -1.1355
   84SOL    HW2  335   0.055   0.204   1.094  0.4233 -0.3503 -0.8957
   84SOL     MW  336   0.032   0.282   1.062 -0.0405  0.1049 -0.4947
   85SOL     OW  337   0.427   0.425   0.724 -0.1661  0.2006  0.2682
   85SOL    HW1  338   0.373   0.451   0.647 -3.2519 -0.5491 -3.4289
   85SOL    HW2  339   0.397   0.340   0.760 -1.7101  1.6088  1.2444
   85SOL     MW  340   0.416   0.417   0.718 -0.7770  0.2875 -0.0908
   86SOL     OW  341   1.150   0.415   1.174  0.1727  0.4655 -0.7050
   86SOL    HW1  342   1.102   0.494   1.127  0.6329  0.2402 -2.7983
   86SOL    HW2  343   1.107   0.416   1.259  2.5021  1.6548  0.0278
   86SOL     MW  344   1.138   0.425   1.179  0.5408  0.5927 -0.8845
   87SOL     OW  345   1.262   1.434   1.351 -0.0107  0.7884 -0.7311
   87SOL    HW1  346   1.283   1.482   1.272  0.5042  1.1973 -0.8606
   87SOL    HW2  347   1.217   1.355   1.316 -1.0322  0.0914 -0.5349
   87SOL     MW  348   1.259   1.430   1.336 -0.0776  0.7504 -0.7223
   88SOL     OW  349   1.362   1.002   1.000  0.3134  0.3465  0.1091
   88SOL    HW1  350   1.452   0.980   1.006 -1.2662  2.5030  1.4071
   88SOL    HW2  351   1.350   1.067   1.069 -0.2037 -1.0408  0.4836
   88SOL     MW  352   1.372   1.008   1.010  0.0367  0.4480  0.3298
   89SOL     OW  353   1.772   0.575   0.282 -0.1180 -0.1125 -0.3738
   89SOL    HW1  354   1.824   0.500   0.318 -1.8162 -0.0976  1.6514
   89SOL    HW2  355   1.831   0.643   0.237  0.2085  0.6733 -0.5859
   89SOL     MW  356   1.787   0.574   0.281 -0.2990 -0.0068 -0.1346
   90SOL     OW  357   0.722   1.248   2.824 -0.2590 -0.4163 -0.5462
   90SOL    HW1  358   0.798   1.205   2.780  0.2322 -0.8983  2.8014
   90SOL    HW2  359   0.732   1.230   2.915 -3.6292  4.5570 -1.8316
   90SOL     MW  360   0.734   1.240   2.830 -0.6389  0.1763 -0.2741
   91SOL     OW  361   2.010   0.726   0.473  1.0729  0.0121  0.3230
   91SOL    HW1  362   2.004   0.815   0.441  3.4975 -2.0561  2.8505
   91SOL    HW2  363   1.920   0.694   0.473 -0.9043 -0.7888  1.1974
   91SOL     MW  364   1.997   0.733   0.469  1.1319 -0.3665  0.7719
   92SOL     OW  365   1.660   0.749   0.450 -0.1619  0.8292 -0.1042
   92SOL    HW1  366   1.568   0.739   0.474 -0.8647 -1.9606  1.4475
   92SOL    HW2  367   1.673   0.676   0.382 -0.7403 -1.8376  2.0698
   92SOL     MW  368   1.650   0.738   0.444 -0.3309  0.1092  0.3874
   93SOL     OW  369   1.036   0.226   0.370  0.0479  0.4468 -0.5544
   93SOL    HW1  370   0.984   0.299   0.407 -0.1238 -1.0432 -1.6487
   93SOL    HW2  371   1.012   0.225   0.275  1.1662  1.7778 -0.8486
   93SOL     MW  372   1.026   0.236   0.362  0.1728  0.4258 -0.7376
   94SOL     OW  373   1.960   1.261   1.689 -0.5939 -0.2981 -0.3706
   94SOL    HW1  374   1.951   1.286   1.597  2.4479 -0.6176 -1.0675
   94SOL    HW2  375   1.900   1.186   1.716  0.9946 -2.2148 -0.9898
   94SOL     MW  376   1.951   1.255   1.681  0.0170 -0.5931 -0.5443
   95SOL     OW  377   0.928   1.552   1.007 -0.0514 -0.0067 -0.1628
   95SOL    HW1  378   0.965   1.472   1.034 -1.5480  1.0738  0.0304
   95SOL    HW2  379   0.844   1.543   1.040 -3.0125 -0.8579 -2.0890
   95SOL     MW  380   0.922   1.540   1.015 -0.6396  0.0236 -0.3914
   96SOL     OW  381   1.259   1.789   1.655  0.1052  0.2932 -0.6841
   96SOL    HW1  382   1.175   1.759   1.679  3.8885 -0.8390 -0.9529
   96SOL    HW2  383   1.292   1.733   1.585  4.8778  2.7073  1.8473
   96SOL     MW  384   1.253   1.778   1.649  1.2341  0.4623 -0.3856
   97SOL     OW  385   1.288   1.448   0.818 -0.0680  0.2334 -0.0985
   97SOL    HW1  386   1.298   1.499   0.903  0.0135 -0.5719  1.0644
   97SOL    HW2  387   1.201   1.471   0.790  2.0489 -1.3555  0.5789
   97SOL     MW  388   1.278   1.458   0.825  0.2220 -0.0825  0.1443
   98SOL     OW  389   1.520   1.286   1.166  0.1252  0.3189  0.1664
   98SOL    HW1  390   1.530   1.372   1.208 -0.3364  1.4692 -2.3700
   98SOL    HW2  391   1.580   1.285   1.091  1.4719 -0.4812  0.7876
   98SOL     MW  392   1.530   1.297   1.162  0.2420  0.3651 -0.0863
   99SOL     OW  393   1.513   0.329   1.254  0.6511 -0.9822 -0.0931
   99SOL    HW1  394   1.539   0.423   1.227  1.2875 -1.3791 -0.2470
   99SOL    HW2  395   1.486   0.337   1.341  1.2063  0.7341 -4.0200
   99SOL     MW  396   1.513   0.343   1.262  0.8084 -0.8081 -0.6315
  100SOL     OW  397   1.129   1.054   1.338 -0.4832 -0.5362  0.2118
  100SOL    HW1  398   1.072   1.090   1.409 -0.4179 -2.9862 -0.6739
  100SOL    HW2  399   1.151   0.964   1.374 -0.4848  1.3905  0.2454
  100SOL     MW  400   1.124   1.047   1.352 -0.4748 -0.6053  0.0994
  101SOL     OW  401   0.624   1.170   0.331 -0.1785  0.2841 -0.0432
  101SOL    HW1  402   0.622   1.068   0.332 -0.8351 -0.6365  0.7023
  101SOL    HW2  403   0.614   1.191   0.237  0.0429  1.2609 -0.4398
  101SOL     MW  404   0.623   1.159   0.319 -0.2360  0.2915  0.0028
  102SOL     OW  405   2.955   0.587   0.934  0.4547 -0.1583  0.6651
  102SOL    HW1  406   3.017   0.657   0.910 -1.7545 -2.7183  1.5415
  102SOL    HW2  407   2.966   0.565   1.030 -0.8061 -0.0948  0.9999
  102SOL     MW  408   2.965   0.593   0.944 -0.0031 -0.4877  0.8249
  103SOL     OW  409   1.630   0.372   1.801  0.1729  0.6277  0.7137
  103SOL    HW1  410   1.634   0.335   1.712  2.4050 -2.3985 -2.3326
  103SOL    HW2  411   1.716   0.376   1.852 -1.4355  0.6105 -0.1490
  103SOL     MW  412   1.642   0.368   1.796  0.2552  0.2261  0.1979
  104SOL     OW  413   0.093   1.838   1.507  0.0816  0.0899 -0.5657
  104SOL    HW1  414   0.169   1.792   1.468  0.9389 -0.2440 -0.0657
  104SOL    HW2  415   0.078   1.789   1.580  2.4460 -0.3526 -1.7925
  104SOL     MW  416   0.101   1.825   1.511  0.5067 -0.0125 -0.6616
  105SOL     OW  417   0.161   1.170   0.519 -0.1465  0.2739 -0.6024
  105SOL    HW1  418   0.148   1.176   0.428  1.0339 -2.7186 -0.7442
  105SOL    HW2  419   0.200   1.260   0.534 -0.8392  1.7871 -2.4519
  105SOL     MW  420   0.164   1.183   0.509 -0.0821  0.0787 -0.8651
  106SOL     OW  421   0.868   0.339   0.931  0.0882 -0.5763  0.1503
  106SOL    HW1  422   0.809   0.411   0.900  1.0582 -1.0173 -0.2961
  106SOL    HW2  423   0.958   0.361   0.907  3.5067  1.3722 -0.6748
  106SOL     MW  424   0.872   0.351   0.924  0.6672 -0.3774 -0.0174
  107SOL     OW  425   0.796   2.215   3.056 -0.1493  0.2029 -0.0704
  107SOL    HW1  426   0.759   2.137   3.016  2.5901  0.0346  1.0207
  107SOL    HW2  427   0.880   2.182   3.096  0.7519  1.6574 -0.5538
  107SOL     MW  428   0.802   2.200   3.056  0.3310  0.3726  0.0098
  108SOL     OW  429   1.409   1.580   1.524 -0.0330 -0.0283 -0.3533
  108SOL    HW1  430   1.354   1.522   1.461 -0.4131 -1.6410 -2.6538
  108SOL    HW2  431   1.454   1.524   1.589  0.0962 -1.5361  2.8660
  108SOL     MW  432   1.408   1.565   1.524 -0.0661 -0.4400 -0.2321
  109SOL     OW  433   1.953   0.738   0.145 -0.0971 -0.2358 -0.4695
  109SOL    HW1  434   1.943   0.745   0.051  1.8960 -1.2768 -3.1815
  109SOL    HW2  435   2.039   0.777   0.166  0.0005 -1.8042  1.9069
  109SOL     MW  436   1.963   0.744   0.136  0.1787 -0.5801 -0.5138
  110SOL     OW  437   0.404   1.776   0.726 -0.4047  0.3452 -0.2737
  110SOL    HW1  438   0.484   1.760   0.677 -1.6611 -0.9951  1.1063
  110SOL    HW2  439   0.375   1.860   0.686  0.8553 -0.8813 -0.2179
  110SOL     MW  440   0.411   1.785   0.714 -0.4042  0.0066 -0.0843
  111SOL     OW  441   0.700   0.938   1.519  0.2635 -0.2860 -0.1387
  111SOL    HW1  442   0.754   0.855   1.500 -0.6356 -0.9594  0.4120
  111SOL    HW2  443   0.640   0.912   1.591  2.0491 -0.1071  0.3878
  111SOL     MW  444   0.699   0.923   1.526  0.3805 -0.3512  0.0034
  112SOL     OW  445   1.290   1.123   1.605 -0.0225 -0.3519  0.0472
  112SOL    HW1  446   1.209   1.181   1.629 -0.0623  0.0911  2.0454
  112SOL    HW2  447   1.270   1.041   1.647 -1.9584 -0.3043  1.4725
  112SOL     MW  448   1.277   1.120   1.614 -0.2832 -0.2871  0.4989
  113SOL     OW  449   1.366   0.073   1.686  0.9715  0.3312 -0.0406
  113SOL    HW1  450   1.373   0.027   1.766 -1.1264  1.0142 -3.0575
  113SOL    HW2  451   1.352   0.005   1.626  0.6233  3.5855 -0.0510
  113SOL     MW  452   1.365   0.058   1.689  0.6488  0.8507 -0.4401
  114SOL     OW  453   0.452   2.812   1.862 -0.2008  0.1136 -0.2048
  114SOL    HW1  454   0.440   2.856   1.948 -0.6739 -0.2829  1.3442
  114SOL    HW2  455   0.452   2.877   1.790  0.4243  0.4968  1.2549
  114SOL     MW  456   0.450   2.827   1.864 -0.1807  0.1119  0.1921
  115SOL     OW  457   0.402   0.849   1.056  0.4428  0.0157  0.5507
  115SOL    HW1  458   0.470   0.788   1.087 -0.3625  0.7919  0.2487
  115SOL    HW2  459   0.364   0.882   1.135  0.1261 -1.5524  0.0150
  115SOL     MW  460   0.406   0.845   1.070  0.2948 -0.0888  0.4402
  116SOL     OW  461   0.798   0.988   0.898  0.6713  0.2456 -0.1646
  116SOL    HW1  462   0.836   1.033   0.821  0.8355  3.8297  0.3763
  116SOL    HW2  463   0.859   0.987   0.971 -1.4448  0.2042 -0.9421
  116SOL     MW  464   0.811   0.994   0.897  0.4138  0.7130 -0.1958
  117SOL     OW  465   1.215   1.125   0.828  0.2140 -0.7062 -0.2596
  117SOL    HW1  466   1.275   1.069   0.887 -2.6876  0.5322 -0.3039
  117SOL    HW2  467   1.227   1.221   0.850 -1.5405  0.2794 -1.5546
  117SOL     MW  468   1.224   1.130   0.839 -0.4003 -0.4128 -0.4363
  118SOL     OW  469   3.092   2.985   1.736 -0.0440  0.2434  0.3143
  118SOL    HW1  470   3.120   3.014   1.822  0.2011  1.7398 -1.4873
  118SOL    HW2  471   2.996   2.984   1.744  1.5467  0.7724  3.4422
  118SOL     MW  472   3.083   2.989   1.749  0.1982  0.5106  0.4893
  119SOL     OW  473   0.523   1.319   1.234  0.1789 -0.5494 -0.1929
  119SOL    HW1  474   0.518   1.362   1.144  0.6282 -1.1904  0.1945
  119SOL    HW2  475   0.434   1.290   1.251  2.5424  0.8164 -2.9655
  119SOL     MW  476   0.510   1.321   1.224  0.5500 -0.4538 -0.5076
  120SOL     OW  477   0.189   0.607   0.950  0.2010  0.4339 -0.2769
  120SOL    HW1  478   0.202   0.569   1.037  3.3742  0.6479  2.2610
  120SOL    HW2  479   0.237   0.692   0.951 -0.0148  0.4511  0.2260
  120SOL     MW  480   0.197   0.613   0.961  0.5912  0.4644  0.1243
  121SOL     OW  481   1.782   1.056   1.734 -0.4111  0.4191  0.0138
  121SOL    HW1  482   1.713   1.055   1.664  0.5625 -1.7228  2.0098
  121SOL    HW2  483   1.831   0.973   1.739  0.0778 -2.9284 -0.3123
  121SOL     MW  484   1.780   1.045   1.726 -0.2182 -0.3052  0.2341
  122SOL     OW  485   0.097   0.504   0.705 -0.0380  0.5657 -0.1877
  122SOL    HW1  486   0.170   0.535   0.653 -0.3389  1.7094  0.7222
  122SOL    HW2  487   0.120   0.534   0.797  1.5477 -1.6779  0.4678
  122SOL     MW  488   0.110   0.512   0.710  0.1315  0.4206  0.0188
  123SOL     OW  489   1.759   1.029   0.482  0.5753 -0.1630 -0.1236
  123SOL    HW1  490   1.731   0.939   0.457 -1.7237  0.0397  0.3395
  123SOL    HW2  491   1.777   1.021   0.572 -0.1452  0.4314  0.1105
  123SOL     MW  492   1.758   1.016   0.490  0.1769 -0.0578 -0.0316
  124SOL     OW  493   0.659   0.512   0.832 -0.2332 -0.2477 -0.7389
  124SOL    HW1  494   0.577   0.475   0.802 -0.0339  0.1826 -0.0306
  124SOL    HW2  495   0.643   0.605   0.813 -0.4525 -0.1624  2.3595
  124SOL     MW  496   0.646   0.519   0.825 -0.2358 -0.1796 -0.2367
  125SOL     OW  497   0.654   1.684   1.665  0.7636  0.2442  0.0036
  125SOL    HW1  498   0.565   1.643   1.636 -2.8541 -1.2281 -0.0374
  125SOL    HW2  499   0.642   1.777   1.670  1.4732 -0.5349 -0.6484
  125SOL     MW  500   0.641   1.691   1.662  0.3799 -0.0529 -0.0879
  126SOL     OW  501   2.115   1.602   2.018 -0.2041  0.0304 -0.2662
  126SOL    HW1  502   2.165   1.681   2.000 -1.1210  1.2396  1.2738
  126SOL    HW2  503   2.177   1.524   2.014 -0.6580  0.7199  0.8838
  126SOL     MW  504   2.130   1.602   2.015 -0.3849  0.2810  0.0887
  127SOL     OW  505   0.608   0.710   1.893 -0.0129  0.6396  0.1336
  127SOL    HW1  506   0.682   0.658   1.925  0.5264 -0.4802 -0.3556
  127SOL    HW2  507   0.608   0.789   1.946 -1.6332  2.8682  0.9996
  127SOL     MW  508   0.618   0.713   1.904 -0.1555  0.7859  0.1833
  128SOL     OW  509   1.733   0.765   2.871  0.6016 -0.0750 -0.1656
  128SOL    HW1  510   1.754   0.705   2.801  0.3696 -0.1798  1.6530
  128SOL    HW2  511   1.708   0.853   2.834  0.0021  0.0439 -0.4021
  128SOL     MW  512   1.732   0.768   2.857  0.4919 -0.0732  0.0432
  129SOL     OW  513   1.512   0.923   0.218 -0.7303  0.6881  0.0074
  129SOL    HW1  514   1.468   0.866   0.149 -1.5473  0.5599 -1.8001
  129SOL    HW2  515   1.525   0.853   0.282  0.8766 -0.9176  0.5396
  129SOL     MW  516   1.508   0.906   0.217 -0.6261  0.4593 -0.1609
  130SOL     OW  517   0.758   1.507   0.367 -0.4125 -0.2616  0.3921
  130SOL    HW1  518   0.787   1.452   0.437  0.9419 -0.7066  1.1852
  130SOL    HW2  519   0.845   1.541   0.327  0.2028  1.1064  0.2203
  130SOL     MW  520   0.773   1.504   0.371 -0.1526 -0.1398  0.4741
  131SOL     OW  521   3.064   0.815   0.053  0.1813 -0.2564 -0.1212
  131SOL    HW1  522   3.051   0.869  -0.036  1.1653 -0.0708 -1.5153
  131SOL    HW2  523   3.159   0.800   0.065  2.1378 -0.5599  0.6222
  131SOL     MW  524   3.074   0.820   0.043  0.5693 -0.2719 -0.2071
  132SOL     OW  525   2.682   0.147   1.266  0.1313  0.8053  0.1522
  132SOL    HW1  526   2.709   0.128   1.172  0.6937  0.4560  0.0942
  132SOL    HW2  527   2.587   0.142   1.263 -0.4419 -0.4765 -1.4406
  132SOL     MW  528   2.673   0.144   1.253  0.1299  0.5901 -0.0656
  133SOL     OW  529   1.130   0.207   1.711 -0.5265  0.1479  0.4981
  133SOL    HW1  530   1.198   0.141   1.694 -1.7112  1.2385 -3.5157
  133SOL    HW2  531   1.087   0.199   1.798 -3.3849  0.3410  0.6059
  133SOL     MW  532   1.133   0.197   1.720 -1.0600  0.3173 -0.0173
  134SOL     OW  533   1.378   2.509   1.411 -0.3120  0.1995  0.4569
  134SOL    HW1  534   1.336   2.589   1.402  2.1045 -2.8641 -0.3542
  134SOL    HW2  535   1.430   2.523   1.490  0.7767 -1.9463 -2.3060
  134SOL     MW  536   1.379   2.521   1.420  0.1504 -0.4878 -0.0146
  135SOL     OW  537   3.049   0.999   2.958  0.1897 -0.2491 -0.5952
  135SOL    HW1  538   3.128   1.059   2.962 -0.2635  0.7453  0.3673
  135SOL    HW2  539   2.968   1.057   2.975  0.1154 -3.9519  0.2819
  135SOL     MW  540   3.049   1.015   2.961  0.1201 -0.6064 -0.3525
  136SOL     OW  541   0.263   2.043   0.862  0.1235 -0.8154  0.5395
  136SOL    HW1  542   0.181   1.991   0.869  1.3252  0.5643  1.8483
  136SOL    HW2  543   0.299   2.033   0.777  2.8797  2.5776  0.5081
  136SOL     MW  544   0.257   2.035   0.852  0.6457 -0.1857  0.7080
  137SOL     OW  545   0.664   2.050   0.583 -0.2918 -0.9797  0.0528
  137SOL    HW1  546   0.717   2.048   0.665  1.5086 -0.3111 -0.8219
  137SOL    HW2  547   0.573   2.036   0.598 -1.8081  0.8926 -2.2622
  137SOL     MW  548   0.659   2.048   0.595 -0.2543 -0.6445 -0.3680
  138SOL     OW  549   0.557   0.596   1.080  0.5253 -0.3181  0.0215
  138SOL    HW1  550   0.466   0.581   1.049 -0.3831 -0.4835 -2.2088
  138SOL    HW2  551   0.610   0.552   1.014 -2.4523  2.0817  0.5968
  138SOL     MW  552   0.552   0.588   1.067  0.0125 -0.0233 -0.1969
  139SOL     OW  553   2.743   0.560   1.423  0.5465 -0.0292 -0.2113
  139SOL    HW1  554   2.783   0.475   1.426  1.7876  1.1854  1.7951
  139SOL    HW2  555   2.823   0.623   1.430 -0.2320 -1.6615  2.0974
  139SOL     MW  556   2.759   0.557   1.425  0.6075 -0.0843  0.3581
  140SOL     OW  557   0.854   0.300   2.139  0.0913  0.0909 -1.1270
  140SOL    HW1  558   0.885   0.254   2.054  0.4816 -0.1202  0.2980
  140SOL    HW2  559   0.930   0.278   2.194  5.6199 -2.6456 -1.4296
  140SOL     MW  560   0.868   0.291   2.135  0.8722 -0.2980 -0.9789
  141SOL     OW  561   1.007   0.651   1.763  0.1272 -0.6140 -0.1980
  141SOL    HW1  562   1.052   0.572   1.729 -0.8896 -0.2490 -0.3683
  141SOL    HW2  563   1.060   0.728   1.779 -1.1545  1.0783  2.3932
  141SOL     MW  564   1.020   0.651   1.760 -0.1760 -0.3426  0.1214
  142SOL     OW  565   0.951   1.128   0.699 -0.4637  0.3759  0.3425
  142SOL    HW1  566   0.955   1.049   0.651 -0.8775  3.5436  1.5496
  142SOL    HW2  567   1.031   1.138   0.755 -2.0205  0.9496  0.6579
  142SOL     MW  568   0.962   1.119   0.700 -0.7237  0.8695  0.5434
  143SOL     OW  569   1.899   0.914   1.150 -0.3778  0.1484 -0.8099
  143SOL    HW1  570   1.907   0.889   1.056  0.7334  0.0629 -0.1254
  143SOL    HW2  571   1.867   0.831   1.191  1.1802 -1.4141  1.1217
  143SOL     MW  572   1.896   0.899   1.143 -0.0256 -0.0691 -0.4647
  144SOL     OW  573   0.185   1.185   1.556 -0.4949 -0.7456  0.3426
  144SOL    HW1  574   0.273   1.139   1.559 -0.8320 -2.3759  0.3484
  144SOL    HW2  575   0.167   1.199   1.652 -2.5108  0.1394 -0.1273
  144SOL     MW  576   0.194   1.181   1.569 -0.8054 -0.8439  0.2814
  145SOL     OW  577   0.265   0.446   1.159 -0.0525  0.3650 -0.1727
  145SOL    HW1  578   0.306   0.387   1.225 -1.0770  1.8363  0.4792
  145SOL    HW2  579   0.210   0.391   1.112  2.0809 -0.7670  0.6744
  145SOL     MW  580   0.263   0.431   1.161  0.0938  0.4097  0.0251
  146SOL     OW  581   0.870   1.930   1.385  0.0395 -0.6998 -0.1910
  146SOL    HW1  582   0.896   1.935   1.289 -0.1414  0.1599  1.0610
  146SOL    HW2  583   0.775   1.951   1.380  1.1649  1.0970 -0.3851
  146SOL     MW  584   0.861   1.933   1.371  0.1641 -0.3493 -0.0514
  147SOL     OW  585   0.392   0.410   2.833 -0.3187  0.0462 -0.1115
  147SOL    HW1  586   0.340   0.422   2.910 -2.1750 -3.0566  2.3260
  147SOL    HW2  587   0.367   0.481   2.773  0.8433 -0.8785 -0.0947
  147SOL     MW  588   0.382   0.421   2.836 -0.4103 -0.4852  0.2123
  148SOL     OW  589   0.022   0.892   1.280 -0.3202  0.5085 -0.0103
  148SOL    HW1  590   0.112   0.874   1.258  0.7982 -1.1873  1.2299
  148SOL    HW2  591   0.021   0.913   1.371 -0.6695  2.5097 -2.5083
  148SOL     MW  592   0.034   0.892   1.289 -0.2187  0.5488 -0.1763
  149SOL     OW  593   1.447   1.092   1.379  0.4403 -0.2711  0.5490
  149SOL    HW1  594   1.376   1.118   1.446  1.6106  0.4894  0.6922
  149SOL    HW2  595   1.520   1.154   1.390  0.8197 -2.4031  0.4440
  149SOL     MW  596   1.448   1.103   1.389  0.6448 -0.4521  0.5540
  150SOL     OW  597   1.816   1.360   0.733 -0.0808 -0.0256  0.0025
  150SOL    HW1  598   1.851   1.269   0.724  0.0260 -1.7632 -1.2788
  150SOL    HW2  599   1.873   1.390   0.801 -0.0367 -0.1286  0.1180
  150SOL     MW  600   1.828   1.352   0.740 -0.0609 -0.2685 -0.1513
  151SOL     OW  601   1.619   1.782   0.813 -0.2905  0.1623  0.2519
  151SOL    HW1  602   1.580   1.813   0.736 -0.6453 -1.7632 -1.6334
  151SOL    HW2  603   1.559   1.728   0.864 -0.1167 -0.9912 -0.6531
  151SOL     MW  604   1.605   1.779   0.810 -0.3144 -0.2440 -0.1163
  152SOL     OW  605   0.759   1.322   1.520 -0.1327 -0.0190  0.6769
  152SOL    HW1  606   0.779   1.226   1.511  0.2246  0.1681 -0.6703
  152SOL    HW2  607   0.839   1.367   1.517 -2.1633 -1.3318 -0.3254
  152SOL     MW  608   0.772   1.315   1.518 -0.3535 -0.1676  0.3669
  153SOL     OW  609   2.659   1.199   0.728 -0.0356  0.1249  0.1048
  153SOL    HW1  610   2.716   1.179   0.650 -0.3652  0.7195 -0.3233
  153SOL    HW2  611   2.602   1.126   0.736  4.6255  1.9943  0.5251
  153SOL     MW  612   2.659   1.186   0.718  0.5359  0.4500  0.1038
  154SOL     OW  613   0.309   1.766   1.712  0.0839  0.2856  0.5289
  154SOL    HW1  614   0.313   1.744   1.616  2.4101 -0.4638 -2.6362
  154SOL    HW2  615   0.338   1.684   1.752 -0.9810 -0.1514  0.9350
  154SOL     MW  616   0.313   1.753   1.705  0.2503  0.1291  0.1649
  155SOL     OW  617   1.107   0.742   0.237 -0.2086  0.4384  0.1752
  155SOL    HW1  618   1.130   0.683   0.308 -1.0409 -1.5687 -0.6823
  155SOL    HW2  619   1.077   0.822   0.287  0.0928  0.5944 -0.3757
  155SOL     MW  620   1.106   0.745   0.253 -0.2787  0.1942 -0.0106
  156SOL     OW  621   1.572   3.052   0.995 -0.2893  0.8071  0.7044
  156SOL    HW1  622   1.655   3.088   0.973 -1.0429  0.3710 -3.4929
  156SOL    HW2  623   1.585   3.003   1.078  1.0706 -1.2047  0.9040
  156SOL     MW  624   1.585   3.051   1.003 -0.2093  0.4841  0.1770
  157SOL     OW  625   1.407   1.186   0.108  0.0058  0.1463  0.7794
  157SOL    HW1  626   1.410   1.115   0.172  0.2083 -3.7069 -0.5920
  157SOL    HW2  627   1.486   1.242   0.120  0.0014  2.1953 -0.5538
  157SOL     MW  628   1.418   1.184   0.118  0.0320 -0.0917  0.4226
  158SOL     OW  629   0.393   1.659   2.294  0.6979 -0.0068  0.3026
  158SOL    HW1  630   0.349   1.742   2.276 -0.5844 -0.0994  0.5139
  158SOL    HW2  631   0.316   1.607   2.336 -1.5569  1.4820 -1.2091
  158SOL     MW  632   0.377   1.663   2.297  0.2313  0.1774  0.1311
  159SOL     OW  633   1.262   1.656   0.424  0.5087 -0.1399  0.3837
  159SOL    HW1  634   1.240   1.580   0.374  0.5876  3.6844  0.0468
  159SOL    HW2  635   1.185   1.697   0.473 -1.6936  0.6350  0.1105
  159SOL     MW  636   1.249   1.652   0.424  0.2285  0.4669  0.3032
  160SOL     OW  637   0.407   1.054   1.577  0.0917 -0.1488 -0.1739
  160SOL    HW1  638   0.437   0.962   1.600  1.1557 -0.0275 -1.4861
  160SOL    HW2  639   0.473   1.104   1.625  1.3465 -1.4670  0.6284
  160SOL     MW  640   0.419   1.048   1.586  0.3976 -0.3067 -0.2412
  161SOL     OW  641   0.591   2.116   2.691  0.0699 -0.1384  1.0631
  161SOL    HW1  642   0.526   2.147   2.754 -1.2383 -2.0900 -1.6447
  161SOL    HW2  643   0.536   2.064   2.626 -1.4229 -1.1127 -2.1917
  161SOL     MW  644   0.575   2.114   2.690 -0.2997 -0.5244  0.2764
  162SOL     OW  645   1.018   1.704   1.840 -0.0071 -0.0393 -0.1678
  162SOL    HW1  646   1.021   1.798   1.874  1.4829  0.6845 -0.8428
  162SOL    HW2  647   0.929   1.685   1.858  2.3985  4.3997  1.1572
  162SOL     MW  648   1.007   1.714   1.847  0.5069  0.6418 -0.0821
  163SOL     OW  649   2.181   0.142   1.004 -0.2526  0.0328 -0.4897
  163SOL    HW1  650   2.188   0.164   0.909 -0.2169 -1.1482  0.1821
  163SOL    HW2  651   2.119   0.071   1.002  0.2974 -4.1371  0.0969
  163SOL     MW  652   2.173   0.135   0.991 -0.1753 -0.6732 -0.3237
  164SOL     OW  653   0.302   0.183   0.852 -0.1174 -0.0057 -0.0061
  164SOL    HW1  654   0.212   0.198   0.867 -2.7129 -1.6138 -2.0419
  164SOL    HW2  655   0.305   0.103   0.799  2.5154  0.9473 -1.2973
  164SOL     MW  656   0.290   0.174   0.847 -0.1125 -0.0922 -0.4451
  165SOL     OW  657   1.373   1.187   0.409 -0.2771  0.1799  0.2913
  165SOL    HW1  658   1.357   1.119   0.474  0.6394  0.9061  0.2920
  165SOL    HW2  659   1.466   1.176   0.388  1.9272  0.2316 -0.9113
  165SOL     MW  660   1.383   1.176   0.415  0.1347  0.2826  0.1327
  166SOL     OW  661   0.534   1.093   0.981 -0.2145 -0.0814  0.0154
  166SOL    HW1  662   0.514   1.009   1.026 -0.1197 -0.4521 -0.2173
  166SOL    HW2  663   0.634   1.088   0.964  0.2053  1.8998 -2.7129
  166SOL     MW  664   0.544   1.081   0.984 -0.1466  0.1311 -0.3753
  167SOL     OW  665   0.943   1.165   0.325 -0.3632 -0.3330 -0.6920
  167SOL    HW1  666   0.862   1.200   0.346  2.4009 -0.2704 -2.3486
  167SOL    HW2  667   0.946   1.159   0.226 -0.9058  1.3935  0.5825
  167SOL     MW  668   0.932   1.169   0.315 -0.0701 -0.0969 -0.7424
  168SOL     OW  669   1.678   1.773   2.906 -0.3010 -0.4297 -0.2505
  168SOL    HW1  670   1.641   1.851   2.958  0.8969  0.1434  0.5630
  168SOL    HW2  671   1.615   1.704   2.901  1.5567  1.0888  0.2677
  168SOL     MW  672   1.665   1.774   2.912  0.1022 -0.1537 -0.0748
  169SOL     OW  673   0.328   0.971   1.327 -0.0270 -0.4458  0.1582
  169SOL    HW1  674   0.366   0.985   1.418  0.4496  0.9188 -0.7736
  169SOL    HW2  675   0.312   1.060   1.288 -0.2258  2.6101  0.8445
  169SOL     MW  676   0.331   0.984   1.334  0.0096  0.1374  0.1258
  170SOL     OW  677   1.022   1.455   1.494 -0.3236  0.3126  0.1311
  170SOL    HW1  678   0.957   1.525   1.477  0.6005  2.5948 -3.3812
  170SOL    HW2  679   1.096   1.487   1.436  1.0077 -1.6595 -0.3905
  170SOL     MW  680   1.023   1.468   1.484 -0.0260  0.3535 -0.4011
  171SOL     OW  681   0.590   1.389   0.703  0.4995  0.0331  0.3234
  171SOL    HW1  682   0.561   1.394   0.793 -0.2677  2.2013  1.2232
  171SOL    HW2  683   0.559   1.300   0.671  1.2231  0.9560 -1.2095
  171SOL     MW  684   0.582   1.378   0.710  0.4938  0.4409  0.2399
  172SOL     OW  685   0.839   0.332   1.222 -0.4203  0.5090  0.1603
  172SOL    HW1  686   0.856   0.338   1.132 -0.9296 -0.5152  0.5855
  172SOL    HW2  687   0.754   0.370   1.235  1.0761  1.6352  1.2622
  172SOL     MW  688   0.830   0.338   1.212 -0.2900  0.5225  0.3618
  173SOL     OW  689   0.424   1.682   0.350  0.5834  0.0917 -0.0085
  173SOL    HW1  690   0.425   1.590   0.317  1.1183  1.6032 -0.7005
  173SOL    HW2  691   0.485   1.673   0.426 -0.3482 -0.5792  2.0119
  173SOL     MW  692   0.432   1.669   0.356  0.5310  0.2026  0.1668
  174SOL     OW  693   2.024   0.977   1.513  0.4675  0.1286 -0.0983
  174SOL    HW1  694   1.966   0.898   1.518 -1.4433  1.1658 -1.7011
  174SOL    HW2  695   1.968   1.048   1.475 -0.6244  4.4326 -0.0923
  174SOL     MW  696   2.009   0.976   1.508  0.0713  0.8333 -0.3090
  175SOL     OW  697   0.388   1.350   0.369  0.5902  0.3301 -0.4539
  175SOL    HW1  698   0.378   1.353   0.273 -2.7652 -1.3878 -0.8797
  175SOL    HW2  699   0.469   1.304   0.378  1.3814 -1.5512  1.8252
  175SOL     MW  700   0.397   1.345   0.357  0.2519 -0.1448 -0.2094
  176SOL     OW  701   0.242   1.208   1.257  0.9273 -0.4189  0.4820
  176SOL    HW1  702   0.188   1.232   1.184  2.5364  1.7969 -0.6078
  176SOL    HW2  703   0.207   1.249   1.343  0.9083  0.7142 -1.8692
  176SOL     MW  704   0.231   1.217   1.259  1.1371  0.0229  0.0280
  177SOL     OW  705   0.596   0.439   1.287  0.1601  0.4583 -0.4019
  177SOL    HW1  706   0.573   0.493   1.215 -0.7332 -0.0323  0.6712
  177SOL    HW2  707   0.599   0.506   1.353  1.8380  0.0573  0.1668
  177SOL     MW  708   0.593   0.455   1.286  0.2636  0.3407 -0.1853
  178SOL     OW  709   3.095   0.434   2.986 -0.4720  0.4110 -0.1567
  178SOL    HW1  710   3.040   0.447   3.063  2.0104  0.2170 -2.0748
  178SOL    HW2  711   3.042   0.466   2.909 -1.1188  4.6019 -1.8328
  178SOL     MW  712   3.081   0.440   2.986 -0.2298  0.9384 -0.6309
  179SOL     OW  713   1.653   1.322   1.447 -0.3701  0.2931  0.0776
  179SOL    HW1  714   1.635   1.372   1.524  2.3240 -0.5779 -1.2451
  179SOL    HW2  715   1.746   1.327   1.435  1.0134 -2.7732  2.5756
  179SOL     MW  716   1.662   1.329   1.455  0.1679 -0.2264  0.2326
  180SOL     OW  717   3.008   0.290   0.484  0.4493 -0.1986 -0.3475
  180SOL    HW1  718   2.971   0.313   0.394  0.2106 -1.2775  1.0632
  180SOL    HW2  719   3.042   0.368   0.517 -0.3776 -2.3063 -0.1732
  180SOL     MW  720   3.007   0.303   0.477  0.3087 -0.6191 -0.1384
  181SOL     OW  721   1.153   1.385   3.059 -0.6065  0.2556  1.0770
  181SOL    HW1  722   1.205   1.441   3.120  0.5892  2.2348 -2.9709
  181SOL    HW2  723   1.198   1.401   2.974 -1.1668 -0.6418 -1.3569
  181SOL     MW  724   1.166   1.395   3.056 -0.5227  0.3983  0.2218
  182SOL     OW  725   0.477   0.813   1.657 -0.1407  0.2908 -0.2368
  182SOL    HW1  726   0.384   0.796   1.666  2.7525 -1.3760 -1.3676
  182SOL    HW2  727   0.527   0.753   1.710  1.8395 -0.6432 -0.1493
  182SOL     MW  728   0.471   0.803   1.665  0.5023 -0.0523 -0.3744
  183SOL     OW  729   1.588   1.538   1.302  0.2347  0.4386  0.0797
  183SOL    HW1  730   1.528   1.590   1.353 -1.8229 -2.3765 -1.7075
  183SOL    HW2  731   1.615   1.469   1.370  2.5958 -0.7555  1.0268
  183SOL     MW  732   1.584   1.536   1.318  0.2748 -0.0904 -0.0311
  184SOL     OW  733   0.783   0.525   1.990  0.3965  0.2618  0.1907
  184SOL    HW1  734   0.863   0.551   1.947 -1.8147  2.3100  0.4125
  184SOL    HW2  735   0.816   0.444   2.047  1.8707 -2.5821  2.0020
  184SOL     MW  736   0.798   0.518   1.992  0.2993  0.1568  0.4589
  185SOL     OW  737   1.135   0.927   1.960 -0.2719 -0.5759  0.2210
  185SOL    HW1  738   1.124   0.852   2.016 -1.0988 -0.4236 -1.8904
  185SOL    HW2  739   1.173   0.999   2.023  1.5980  0.5948  2.2502
  185SOL     MW  740   1.139   0.927   1.976 -0.1343 -0.4013  0.2101
  186SOL     OW  741   0.345   1.720   1.419 -0.1424 -0.1558 -0.2128
  186SOL    HW1  742   0.404   1.769   1.358  0.9527  0.0642 -0.2494
  186SOL    HW2  743   0.299   1.653   1.370 -0.8570 -1.7989  2.4294
  186SOL     MW  744   0.347   1.718   1.405 -0.0922 -0.3436  0.1310
  187SOL     OW  745   1.553   0.678   1.498  0.0988 -0.3195 -0.0637
  187SOL    HW1  746   1.529   0.672   1.589  0.9396  0.8553 -0.6084
  187SOL    HW2  747   1.476   0.685   1.446  0.5522 -2.8374  0.1579
  187SOL     MW  748   1.540   0.678   1.503  0.2696 -0.4967 -0.1063
  188SOL     OW  749   1.924   1.098   0.699 -0.0277  0.0969  0.2829
  188SOL    HW1  750   1.917   1.022   0.759  1.0379  0.9359  0.3155
  188SOL    HW2  751   2.020   1.094   0.677  0.3955  0.0785 -2.4322
  188SOL     MW  752   1.935   1.087   0.704  0.1687  0.2052 -0.0711
  189SOL     OW  753   0.613   0.774   0.764  0.5309 -0.0061  0.2355
  189SOL    HW1  754   0.562   0.857   0.773 -2.0784  0.2850  2.2986
  189SOL    HW2  755   0.695   0.809   0.799 -1.8556  0.9310 -0.3412
  189SOL     MW  756   0.617   0.790   0.769 -0.1283  0.1559  0.4316
  190SOL     OW  757   1.832   0.386   1.964 -0.2960  0.2979 -0.3180
  190SOL    HW1  758   1.870   0.302   1.961 -1.6135 -0.5066  0.5943
  190SOL    HW2  759   1.899   0.447   1.924  0.8329 -1.9578 -2.4828
  190SOL     MW  760   1.846   0.383   1.959 -0.3209 -0.1059 -0.4832
  191SOL     OW  761   1.629   0.965   1.523 -0.9247  0.2546 -0.1241
  191SOL    HW1  762   1.548   0.992   1.477  1.0716  1.8294 -1.0440
  191SOL    HW2  763   1.632   0.870   1.524 -0.5685  0.5475 -0.4612
  191SOL     MW  764   1.619   0.956   1.517 -0.6143  0.5010 -0.2900
  192SOL     OW  765   0.721   2.014   2.897  0.7724 -0.8156  0.6860
  192SOL    HW1  766   0.691   2.053   2.812  2.2374  1.4385  0.1305
  192SOL    HW2  767   0.656   1.944   2.913 -2.1720  1.2895 -0.9716
  192SOL     MW  768   0.708   2.010   2.888  0.5772 -0.2404  0.3940
  193SOL     OW  769   0.995   1.542   0.716  0.4352  0.0405  0.3932
  193SOL    HW1  770   0.968   1.530   0.812  2.4550  0.7982  2.7025
  193SOL    HW2  771   0.942   1.481   0.663  2.1574 -0.5880  1.3217
  193SOL     MW  772   0.985   1.532   0.722  0.9289  0.0576  0.8204
  194SOL     OW  773   0.498   1.379   0.965 -0.5489 -0.5176 -0.3036
  194SOL    HW1  774   0.510   1.286   0.971  1.1529  3.7239  1.0842
  194SOL    HW2  775   0.410   1.398   0.929  0.7535  0.6263 -1.2055
  194SOL     MW  776   0.488   1.369   0.961 -0.1525  0.1930 -0.2395
  195SOL     OW  777   1.317   1.156   2.926 -0.3878  0.0271 -0.2222
  195SOL    HW1  778   1.344   1.159   3.018 -0.7258  1.7911  0.4065
  195SOL    HW2  779   1.238   1.095   2.931 -0.1926 -1.4300 -1.8193
  195SOL     MW  780   1.310   1.148   2.939 -0.4066  0.0676 -0.3500
  196SOL     OW  781   2.216   1.034   0.606 -0.0104  0.4292  0.1893
  196SOL    HW1  782   2.157   1.019   0.530 -0.7920 -0.1120  4.2330
  196SOL    HW2  783   2.214   1.128   0.621  0.8652  0.3280  0.4253
  196SOL     MW  784   2.208   1.044   0.598  0.0020  0.3444  0.7539
  197SOL     OW  785   0.570   1.222   2.020  0.0976 -0.2038  0.1525
  197SOL    HW1  786   0.564   1.137   1.991  1.7177 -0.3111 -0.9422
  197SOL    HW2  787   0.533   1.260   1.938 -0.5969  0.1098 -2.2553
  197SOL     MW  788   0.565   1.216   2.006  0.2197 -0.1766 -0.3096
  198SOL     OW  789   2.955   1.379   1.085 -0.2521  0.5134  0.4264
  198SOL    HW1  790   2.954   1.467   1.041 -0.0702  1.0568 -1.6896
  198SOL    HW2  791   2.876   1.330   1.043 -2.4966 -3.4602  0.5339
  198SOL     MW  792   2.944   1.384   1.074 -0.5242  0.0608  0.1614
  199SOL     OW  793   0.461   1.267   1.756  0.5646 -0.3532  0.1226
  199SOL    HW1  794   0.365   1.266   1.759 -0.5218  0.0882 -1.6785
  199SOL    HW2  795   0.479   1.314   1.675  1.9732  2.0153 -1.6916
  199SOL     MW  796   0.451   1.273   1.746  0.6071  0.0175 -0.3544
  200SOL     OW  797   1.940   3.037   1.296 -0.3960 -0.2937 -0.1930
  200SOL    HW1  798   1.939   3.055   1.199  0.6491 -0.9659 -1.4908
  200SOL    HW2  799   1.853   3.053   1.338 -0.7780  2.6681  1.9354
  200SOL     MW  800   1.929   3.042   1.289 -0.3085  0.0084 -0.0834
  201SOL     OW  801   1.097   0.319   0.779  0.4161  0.0999  0.6583
  201SOL    HW1  802   1.098   0.233   0.818  2.3401  3.4124 -2.1283
  201SOL    HW2  803   1.033   0.303   0.712 -0.1955 -1.3713 -0.3360
  201SOL     MW  804   1.088   0.305   0.775  0.5892  0.3428  0.1594
  202SOL     OW  805   1.594   1.573   1.015 -0.1447  0.1182  0.2974
  202SOL    HW1  806   1.615   1.488   0.978 -1.5677  0.8160 -0.7254
  202SOL    HW2  807   1.608   1.573   1.111 -0.1259  0.6717  0.9507
  202SOL     MW  808   1.598   1.562   1.023 -0.3300  0.2833  0.2487
  203SOL     OW  809   3.009   0.504   1.226 -0.1017 -0.1573 -0.1089
  203SOL    HW1  810   3.055   0.425   1.192  1.1154  1.9278  0.8622
  203SOL    HW2  811   3.081   0.560   1.263  3.9003  2.5859  2.6277
  203SOL     MW  812   3.025   0.501   1.226  0.5869  0.4798  0.3803
  204SOL     OW  813   1.052   1.764   0.560 -0.0438  0.1266 -1.1515
  204SOL    HW1  814   1.028   1.693   0.626 -0.5136  0.0894  0.8045
  204SOL    HW2  815   0.970   1.785   0.513 -1.1392  0.4323  0.9776
  204SOL     MW  816   1.038   1.758   0.563 -0.2503  0.1620 -0.6125
  205SOL     OW  817   1.394   0.030   1.272 -0.2636 -0.1031  0.9095
  205SOL    HW1  818   1.367   0.038   1.182 -0.6996 -0.7320  2.0155
  205SOL    HW2  819   1.401   0.122   1.290  0.1056 -0.9960  1.4789
  205SOL     MW  820   1.392   0.043   1.263 -0.2724 -0.3039  1.1306
  206SOL     OW  821   0.517   3.094   1.350  0.5154 -0.1023  0.5604
  206SOL    HW1  822   0.471   3.055   1.275  0.9915  0.2068  0.8484
  206SOL    HW2  823   0.562   3.020   1.388 -0.0271  2.0995 -1.9565
  206SOL     MW  824   0.517   3.079   1.345  0.5067  0.2290  0.2663
  207SOL     OW  825   0.988   1.578   0.216 -0.3979 -0.7422 -0.0558
  207SOL    HW1  826   1.009   1.669   0.189  1.2232 -1.8291  0.2462
  207SOL    HW2  827   1.068   1.538   0.256  0.7584  2.4077 -3.2124
  207SOL     MW  828   1.002   1.585   0.217 -0.0315 -0.4700 -0.4324
  208SOL     OW  829   0.635   1.560   1.271  0.3555  0.6991 -0.6344
  208SOL    HW1  830   0.704   1.585   1.333 -1.1994 -0.4969  0.6134
  208SOL    HW2  831   0.623   1.467   1.276 -0.4945 -1.6902  2.1513
  208SOL     MW  832   0.642   1.551   1.280  0.0382  0.2261 -0.1022
  209SOL     OW  833   1.479   0.510   2.813 -0.5599 -0.4966  0.2093
  209SOL    HW1  834   1.490   0.573   2.741  0.1831 -1.8553 -2.0671
  209SOL    HW2  835   1.567   0.468   2.821  2.1622  0.2458  1.7649
  209SOL     MW  836   1.492   0.513   2.804 -0.1027 -0.5779  0.1142
  210SOL     OW  837   1.630   1.313   0.913 -0.6694 -0.2830  0.1486
  210SOL    HW1  838   1.693   1.327   0.844 -2.3092  2.8948  0.4410
  210SOL    HW2  839   1.549   1.296   0.867  0.8861 -0.2278  0.6004
  210SOL     MW  840   1.627   1.312   0.898 -0.6805  0.1436  0.2468
  211SOL     OW  841   1.721   0.478   0.927  0.3048 -0.3284  0.4039
  211SOL    HW1  842   1.692   0.466   0.829  2.3867  2.2114  0.4265
  211SOL    HW2  843   1.814   0.505   0.916 -0.4997 -1.8576  0.4065
  211SOL     MW  844   1.729   0.480   0.913  0.4734 -0.1951  0.4072
  212SOL     OW  845   0.262   1.114   0.033 -0.0132 -0.0726  0.4856
  212SOL    HW1  846   0.217   1.068   0.109 -1.7991 -0.0203 -2.0563
  212SOL    HW2  847   0.347   1.063   0.016  0.1785  2.6798  0.6770
  212SOL     MW  848   0.267   1.101   0.041 -0.2235  0.2974  0.1755
  213SOL     OW  849   0.527   1.684   3.077  0.2227 -0.0497  0.2940
  213SOL    HW1  850   0.568   1.756   3.133  2.1306  1.8977  0.1709
  213SOL    HW2  851   0.558   1.707   2.987 -1.4670  0.0578 -1.6510
  213SOL     MW  852   0.537   1.696   3.073  0.2515  0.2215  0.0211
  214SOL     OW  853   0.616   0.255   2.250  0.1451 -0.3289  0.0168
  214SOL    HW1  854   0.554   0.309   2.202 -0.9908 -1.0571 -1.6248
  214SOL    HW2  855   0.700   0.273   2.212  0.6303  1.0728 -1.0581
  214SOL     MW  856   0.619   0.265   2.239  0.0593 -0.2400 -0.3416
  215SOL     OW  857   0.500   0.683   2.631 -0.3471  0.7799  0.4382
  215SOL    HW1  858   0.511   0.669   2.535  1.3006 -2.5322  0.2954
  215SOL    HW2  859   0.412   0.644   2.651  1.4158  3.1234  0.6745
  215SOL     MW  860   0.490   0.676   2.621  0.1029  0.6521  0.4505
  216SOL     OW  861   3.080  -0.002   2.783  0.4565 -0.3389 -0.5887
  216SOL    HW1  862   3.006  -0.034   2.843  1.9793  1.7288 -1.9580
  216SOL    HW2  863   3.050   0.085   2.763 -1.6012 -0.9914 -1.5321
  216SOL     MW  864   3.066   0.005   2.788  0.3859 -0.1522 -0.8939
  217SOL     OW  865   0.973   1.169   0.040  0.0080  0.3920 -0.5117
  217SOL    HW1  866   1.015   1.112  -0.034 -0.4048 -1.2796 -1.5888
  217SOL    HW2  867   1.045   1.240   0.056  0.1131  0.2603  0.4077
  217SOL     MW  868   0.988   1.171   0.032 -0.0326  0.1541 -0.5325
  218SOL     OW  869   0.917   1.334   2.475 -0.3528  0.4922  0.3471
  218SOL    HW1  870   0.908   1.259   2.536  3.1813 -0.0852  1.2104
  218SOL    HW2  871   1.004   1.375   2.506 -1.8803 -1.7843 -0.9114
  218SOL     MW  872   0.927   1.330   2.488 -0.0880  0.1157  0.2950
  219SOL     OW  873   1.021   0.415   2.556 -0.4078 -0.0572 -0.5688
  219SOL    HW1  874   1.024   0.509   2.537  0.6212  2.3281  1.2430
  219SOL    HW2  875   0.939   0.393   2.603 -1.4735  0.8893  0.8727
  219SOL     MW  876   1.011   0.424   2.560 -0.4127  0.3824 -0.1396
  220SOL     OW  877   1.735   0.543   2.186  0.5708 -0.1602  0.1873
  220SOL    HW1  878   1.666   0.602   2.175 -0.2043 -0.3665 -1.4542
  220SOL    HW2  879   1.764   0.503   2.105 -2.0398  0.9381  0.7894
  220SOL     MW  880   1.730   0.546   2.174  0.1241 -0.0425  0.0501
  221SOL     OW  881   0.402   1.434   2.923  0.1968 -0.4513 -0.1097
  221SOL    HW1  882   0.344   1.354   2.908  0.0815  1.6921 -2.0743
  221SOL    HW2  883   0.413   1.466   2.829 -1.5937 -1.3944 -2.6869
  221SOL     MW  884   0.396   1.428   2.908 -0.0546 -0.2930 -0.7090
  222SOL     OW  885   0.387   0.942   2.668 -0.2681 -0.4889  0.2340
  222SOL    HW1  886   0.325   0.954   2.590 -3.3901  0.7933 -1.5906
  222SOL    HW2  887   0.430   0.859   2.648  1.2278 -2.3352  0.4224
  222SOL     MW  888   0.384   0.933   2.655 -0.4827 -0.5633  0.0181
  223SOL     OW  889   3.066   2.022   2.674 -0.3229  0.1962  0.2414
  223SOL    HW1  890   3.133   1.951   2.692  0.4082 -2.2134 -0.4250
  223SOL    HW2  891   3.104   2.056   2.599 -0.5494 -3.0149  0.9250
  223SOL     MW  892   3.080   2.017   2.666 -0.2563 -0.5454  0.2437
  224SOL     OW  893   1.547   0.812   2.614  0.0983  0.6906  0.3113
  224SOL    HW1  894   1.501   0.851   2.690  0.4512 -1.5002 -1.1339
  224SOL    HW2  895   1.578   0.891   2.565 -1.5880  0.3261  0.4990
  224SOL     MW  896   1.545   0.828   2.617 -0.0776  0.3534  0.1454
  225SOL     OW  897   2.978   1.450   2.261 -0.4383 -0.0547 -0.3795
  225SOL    HW1  898   3.006   1.493   2.180 -1.8990  1.3102  0.0897
  225SOL    HW2  899   2.911   1.511   2.299 -1.6248  1.5199  1.3810
  225SOL     MW  900   2.973   1.464   2.255 -0.7876  0.3331 -0.0853
  226SOL     OW  901   0.441   1.508   2.662 -0.4358  0.1194 -0.2914
  226SOL    HW1  902   0.523   1.475   2.637  0.2576  0.9324 -0.9386
  226SOL    HW2  903   0.439   1.598   2.627  0.3106 -0.0064  1.3110
  226SOL     MW  904   0.452   1.516   2.654 -0.2458  0.2100 -0.1653
  227SOL     OW  905   0.405   1.180   2.833 -0.0153  0.3926  0.1999
  227SOL    HW1  906   0.475   1.249   2.826  1.1870  0.7229  0.4051
  227SOL    HW2  907   0.412   1.134   2.748 -1.8267 -0.7716  3.2123
  227SOL     MW  908   0.415   1.183   2.821 -0.0956  0.2826  0.6244
  228SOL     OW  909   0.681   0.963   2.005 -0.0491  0.5673  0.3301
  228SOL    HW1  910   0.771   0.954   1.988  0.4418  0.2147 -0.0970
  228SOL    HW2  911   0.655   0.923   2.092 -0.7426 -1.0142 -1.8084
  228SOL     MW  912   0.689   0.957   2.014 -0.0759  0.3121 -0.0084
  229SOL     OW  913   0.252   0.494   3.063  0.1093 -0.6751 -0.1588
  229SOL    HW1  914   0.166   0.497   3.019 -1.8155 -1.3087 -4.0353
  229SOL    HW2  915   0.239   0.445   3.147 -1.3520  0.2082  2.1383
  229SOL     MW  916   0.239   0.488   3.069 -0.3375 -0.6421 -0.3672
  230SOL     OW  917   1.761   1.362   2.111  0.3746 -0.6212 -0.1365
  230SOL    HW1  918   1.722   1.365   2.199  0.8476  1.2722  0.4398
  230SOL    HW2  919   1.773   1.268   2.084 -0.9962  0.9165  2.6063
  230SOL     MW  920   1.757   1.350   2.119  0.2561 -0.1685  0.3014
  231SOL     OW  921   2.812   1.230   2.221  0.0267 -0.4167 -0.3566
  231SOL    HW1  922   2.881   1.305   2.237 -2.4596  1.1978 -2.5958
  231SOL    HW2  923   2.765   1.256   2.141  3.4399  3.7630 -0.6385
  231SOL     MW  924   2.815   1.243   2.212  0.1490  0.3478 -0.6893
  232SOL     OW  925   2.300   0.989   2.106  0.1726 -0.5521  0.1960
  232SOL    HW1  926   2.210   1.002   2.065 -3.0334 -1.3736 -0.9659
  232SOL    HW2  927   2.273   0.965   2.189  1.6106  1.1418 -0.7109
  232SOL     MW  928   2.284   0.988   2.112 -0.0606 -0.4370 -0.0769
  233SOL     OW  929   2.060   0.557   1.924 -0.0492 -0.2169  0.4923
  233SOL    HW1  930   2.121   0.585   1.856  1.1791  0.2860  1.6250
  233SOL    HW2  931   2.117   0.533   2.004  0.6996 -2.1218 -0.3981
  233SOL     MW  932   2.075   0.558   1.926  0.2117 -0.4019  0.5243
  234SOL     OW  933   0.212   0.959   2.466 -0.0141 -0.3149 -0.6050
  234SOL    HW1  934   0.113   0.955   2.487 -1.4687  1.9013  0.9327
  234SOL    HW2  935   0.229   1.041   2.413 -0.7927 -0.1218 -1.0378
  234SOL     MW  936   0.201   0.969   2.461 -0.3088  0.0030 -0.4592
  235SOL     OW  937   1.010   3.017   2.812 -0.3299  0.3050 -0.4823
  235SOL    HW1  938   1.061   2.949   2.860 -1.7228 -0.4355 -0.0515
  235SOL    HW2  939   0.998   3.091   2.869 -1.7042 -1.5754  0.4575
  235SOL     MW  940   1.015   3.018   2.826 -0.6950 -0.0408 -0.3014
  236SOL     OW  941   2.929   0.510   0.091  0.2153 -0.9034 -0.3251
  236SOL    HW1  942   2.857   0.530   0.028  1.0555  0.4045  0.5827
  236SOL    HW2  943   2.971   0.601   0.113  1.0169  3.6565 -0.1202
  236SOL     MW  944   2.925   0.525   0.086  0.4319 -0.1292 -0.1783
  237SOL     OW  945   1.751   0.889   2.182 -0.3155 -0.0649 -0.3346
  237SOL    HW1  946   1.754   0.977   2.148  0.0081  0.3861  1.7965
  237SOL    HW2  947   1.787   0.893   2.275  0.0934  1.0210  2.1282
  237SOL     MW  948   1.756   0.901   2.190 -0.2189  0.1379  0.2716
  238SOL     OW  949   1.108   1.770   2.976 -0.0312 -0.3901  0.0401
  238SOL    HW1  950   1.076   1.681   2.976 -1.3810  0.4548  1.7545
  238SOL    HW2  951   1.199   1.763   2.958  0.6126  1.3553 -0.4602
  238SOL     MW  952   1.115   1.757   2.974 -0.1243 -0.0483  0.2003
  239SOL     OW  953   1.244   1.402   2.323 -0.3098 -0.2038  0.1611
  239SOL    HW1  954   1.223   1.385   2.418  1.6542 -1.5672  0.9719
  239SOL    HW2  955   1.308   1.329   2.306 -1.8014 -1.4810 -3.6585
  239SOL     MW  956   1.249   1.390   2.333 -0.2475 -0.5522 -0.2359
  240SOL     OW  957   0.636   0.823   2.247  0.3226  0.6733 -0.1988
  240SOL    HW1  958   0.641   0.900   2.306  1.9176  1.5841 -0.0971
  240SOL    HW2  959   0.728   0.795   2.243  1.3078 -0.3381 -3.6811
  240SOL     MW  960   0.649   0.830   2.254  0.6630  0.6600 -0.6449
  241SOL     OW  961   0.675   0.373   3.002 -0.4871  0.5196 -0.6506
  241SOL    HW1  962   0.679   0.399   3.093 -0.4645 -0.1287 -0.7648
  241SOL    HW2  963   0.598   0.416   2.964  1.0089 -2.3320 -3.1282
  241SOL     MW  964   0.665   0.382   3.009 -0.2868  0.0578 -0.9925
  242SOL     OW  965   1.432   1.689   2.365 -0.4091 -0.1782  0.4115
  242SOL    HW1  966   1.418   1.778   2.384  1.2135 -1.3899 -2.6960
  242SOL    HW2  967   1.353   1.662   2.319  1.5138 -3.1229 -0.3693
  242SOL     MW  968   1.420   1.697   2.361  0.0587 -0.7266 -0.1015
  243SOL     OW  969   1.050   0.219   2.348 -0.4819  0.2795  0.3256
  243SOL    HW1  970   1.144   0.210   2.343  0.5340  0.7098  1.4270
  243SOL    HW2  971   1.033   0.265   2.428 -2.5709  1.0830  0.4157
  243SOL     MW  972   1.060   0.224   2.358 -0.6235  0.4423  0.4828
  244SOL     OW  973   0.222   0.751   2.278  0.3110 -0.4102 -0.5983
  244SOL    HW1  974   0.225   0.830   2.334 -1.3881  0.4217 -0.2230
  244SOL    HW2  975   0.296   0.697   2.288 -3.0192 -0.1213 -0.4348
  244SOL     MW  976   0.232   0.754   2.287 -0.3525 -0.2623 -0.5272
  245SOL     OW  977   1.344   0.138   2.296  0.0554 -0.2362 -0.4313
  245SOL    HW1  978   1.327   0.042   2.302 -0.8292 -1.1908  1.1563
  245SOL    HW2  979   1.441   0.151   2.299  0.6222 -0.6450  0.4206
  245SOL     MW  980   1.354   0.127   2.297  0.0135 -0.4161 -0.1095
  246SOL     OW  981   1.181   1.128   2.132  0.4936  0.4171  0.4860
  246SOL    HW1  982   1.114   1.104   2.204  2.0551 -1.2601  0.3644
  246SOL    HW2  983   1.274   1.134   2.175  1.5235 -0.9297  0.7467
  246SOL     MW  984   1.184   1.125   2.147  0.8355  0.0181  0.5043
  247SOL     OW  985   0.658   0.525   0.128  0.1331 -0.1407  0.5822
  247SOL    HW1  986   0.619   0.611   0.115 -0.7705 -2.1570  2.6128
  247SOL    HW2  987   0.754   0.533   0.110 -1.4008  0.6755 -2.7477
  247SOL     MW  988   0.666   0.537   0.124 -0.1885 -0.2990  0.4108
  248SOL     OW  989   0.380   1.213   2.396  0.1181  0.1713  0.2944
  248SOL    HW1  990   0.391   1.254   2.311  0.2265  1.2456 -1.1365
  248SOL    HW2  991   0.443   1.258   2.459  4.0257 -1.6003 -1.4978
  248SOL     MW  992   0.389   1.224   2.393  0.6480  0.0793 -0.1309
  249SOL     OW  993   0.149   1.797   2.720  0.0774  0.0251  0.1558
  249SOL    HW1  994   0.083   1.732   2.694  2.4275 -2.4124 -2.5219
  249SOL    HW2  995   0.171   1.761   2.804  0.2834 -0.5150 -1.4515
  249SOL     MW  996   0.143   1.783   2.728  0.4146 -0.3677 -0.4095
  250SOL     OW  997   2.164   0.934   2.331  0.6401  0.0777  0.3859
  250SOL    HW1  998   2.238   0.869   2.338 -0.9610  0.0843  1.8277
  250SOL    HW2  999   2.178   1.004   2.396 -0.2254  0.9028 -0.5604
  250SOL     MW 1000   2.176   0.934   2.340  0.3147  0.1874  0.4513
  251SOL     OW 1001   0.139   0.838   2.040  0.3743  0.3933 -0.0262
  251SOL    HW1 1002   0.175   0.802   2.118  3.1466 -2.3116 -3.1863
  251SOL    HW2 1003   0.110   0.757   1.994  0.5396 -1.8238 -2.8820
  251SOL     MW 1004   0.140   0.823   2.044  0.7619 -0.2561 -0.8199
  252SOL     OW 1005   1.690   1.031   2.804 -0.1951 -0.0058  0.6408
  252SOL    HW1 1006   1.668   1.065   2.891 -0.5359  1.0499 -0.1311
  252SOL    HW2 1007   1.780   1.061   2.779  0.8369  2.9487  0.4896
  252SOL     MW 1008   1.699   1.040   2.812 -0.1039  0.5233  0.5190
  253SOL     OW 1009   1.153   1.739   2.551 -0.1701 -0.2739 -0.6294
  253SOL    HW1 1010   1.142   1.761   2.459  1.2171 -1.2831  0.0285
  253SOL    HW2 1011   1.060   1.754   2.583 -0.6496  0.0377 -1.2361
  253SOL     MW 1012   1.140   1.744   2.543 -0.0504 -0.3659 -0.6226
  254SOL     OW 1013   0.975   1.048   2.310 -0.1695  0.1520  0.1724
  254SOL    HW1 1014   0.953   0.953   2.303  1.8865  0.5850  1.9302
  254SOL    HW2 1015   0.902   1.102   2.288  1.9538 -1.9980  0.6625
  254SOL     MW 1016   0.962   1.043   2.306  0.3819 -0.0745  0.4690
  255SOL     OW 1017   0.750   2.381   2.279  0.6058  0.2837 -0.0826
  255SOL    HW1 1018   0.659   2.347   2.279 -0.8089 -1.0195 -0.3244
  255SOL    HW2 1019   0.763   2.411   2.369 -1.5892 -1.4135 -0.9603
  255SOL     MW 1020   0.739   2.381   2.291  0.1295 -0.1122 -0.2303
  256SOL     OW 1021   1.191   2.865   2.925  0.3956  0.0010 -0.0969
  256SOL    HW1 1022   1.227   2.769   2.929 -1.6752 -1.4618  1.4149
  256SOL    HW2 1023   1.258   2.923   2.884 -0.7760  2.3806 -0.1894
  256SOL     MW 1024   1.204   2.860   2.920 -0.0322  0.1219  0.0903
  257SOL     OW 1025   0.091   1.860   0.014 -0.1084 -0.7169  0.5321
  257SOL    HW1 1026   0.111   1.846   0.105 -1.2950  2.7290 -1.3700
  257SOL    HW2 1027   0.149   1.801  -0.036  2.1644  0.8257  0.5579
  257SOL     MW 1028   0.101   1.850   0.020  0.0349 -0.0587  0.2845
  258SOL     OW 1029   0.612   1.036   2.402  0.4296  0.0747  0.3084
  258SOL    HW1 1030   0.656   1.088   2.333  1.5868  0.0256  1.1162
  258SOL    HW2 1031   0.532   1.085   2.409  4.6703 -1.2091 -2.1838
  258SOL     MW 1032   0.607   1.049   2.394  1.1418 -0.1012  0.0861
  259SOL     OW 1033   0.596   0.393   2.488  0.2784  0.5876  0.0974
  259SOL    HW1 1034   0.513   0.448   2.462 -0.0839  2.8896 -1.7343
  259SOL    HW2 1035   0.612   0.339   2.413 -0.7865 -1.0859  0.4440
  259SOL     MW 1036   0.587   0.393   2.475  0.0901  0.6705 -0.0985
  260SOL     OW 1037   0.602   0.157   1.590  0.0267 -0.3602 -0.1981
  260SOL    HW1 1038   0.554   0.180   1.509  1.5274 -1.9072 -1.5863
  260SOL    HW2 1039   0.689   0.192   1.563  2.4961  3.2611  0.4793
  260SOL     MW 1040   0.607   0.165   1.576  0.5505 -0.0865 -0.2918
  261SOL     OW 1041   1.094   0.699   2.101  0.1893  0.5474 -0.3824
  261SOL    HW1 1042   1.126   0.682   2.191 -1.0348  3.0141  0.2238
  261SOL    HW2 1043   1.164   0.661   2.050  0.7444 -3.0700  2.0692
  261SOL     MW 1044   1.108   0.691   2.106  0.1011  0.3956  0.0211
  262SOL     OW 1045   1.123   0.368   0.106 -0.4484 -0.3625 -0.5039
  262SOL    HW1 1046   1.207   0.338   0.141  1.0869  1.5850 -0.1145
  262SOL    HW2 1047   1.150   0.378   0.014 -0.4966  0.3308 -2.7957
  262SOL     MW 1048   1.137   0.366   0.099 -0.2522 -0.0141 -0.7549
  263SOL     OW 1049   0.427   2.997   2.519  0.1959  0.5182  0.3173
  263SOL    HW1 1050   0.359   3.068   2.524 -4.5446  0.1811 -0.0511
  263SOL    HW2 1051   0.472   3.013   2.437  0.9269 -1.6100 -3.1650
  263SOL     MW 1052   0.424   3.008   2.509 -0.3331  0.1929 -0.1908
  264SOL     OW 1053   1.517   1.349   1.976  0.8066  0.5371 -0.0810
  264SOL    HW1 1054   1.457   1.374   2.043 -1.7468 -0.3290 -2.2459
  264SOL    HW2 1055   1.608   1.348   2.015 -0.5096 -1.6754 -0.8863
  264SOL     MW 1056   1.521   1.352   1.990  0.2960  0.1309 -0.4729
  265SOL     OW 1057   0.712   2.746   2.215 -0.7140  0.7191  0.2426
  265SOL    HW1 1058   0.771   2.675   2.199 -1.4251 -2.9240 -1.9948
  265SOL    HW2 1059   0.710   2.745   2.314 -1.4544 -0.8419 -0.3134
  265SOL     MW 1060   0.720   2.737   2.226 -0.9055  0.0325 -0.1260
  266SOL     OW 1061   0.903   0.779   2.281  0.1627 -0.6767 -0.0314
  266SOL    HW1 1062   0.972   0.733   2.230  4.1920 -1.6984 -0.9734
  266SOL    HW2 1063   0.879   0.728   2.360 -1.1439 -0.3033  2.3269
  266SOL     MW 1064   0.909   0.767   2.284  0.5219 -0.7623  0.1555
  267SOL     OW 1065   1.396   1.822   2.681 -0.6795  0.6665  0.1350
  267SOL    HW1 1066   1.462   1.758   2.650  2.9554 -0.2514 -3.5967
  267SOL    HW2 1067   1.318   1.790   2.638 -0.5904  2.6427  2.5104
  267SOL     MW 1068   1.394   1.809   2.672 -0.1881  0.8062 -0.0440
  268SOL     OW 1069   0.206   0.743   1.661 -0.2257  0.2191  0.6444
  268SOL    HW1 1070   0.122   0.791   1.628  2.1012 -1.1359 -0.2895
  268SOL    HW2 1071   0.207   0.661   1.607  0.2766  0.0795 -4.7563
  268SOL     MW 1072   0.195   0.739   1.650  0.1476  0.0219 -0.1914
  269SOL     OW 1073   1.408   1.950   2.436  0.2536  0.0535  0.4435
  269SOL    HW1 1074   1.423   1.927   2.534 -0.5689  2.8885 -0.8523
  269SOL    HW2 1075   1.337   2.013   2.451 -1.3859 -0.1579  0.4385
  269SOL     MW 1076   1.401   1.955   2.451 -0.0713  0.3996  0.2718
  270SOL     OW 1077   1.175   0.464   1.613  0.3352 -0.3615 -0.1347
  270SOL    HW1 1078   1.151   0.381   1.654  0.1131 -0.5222  0.2740
  270SOL    HW2 1079   1.265   0.450   1.586 -3.1609  1.3343  0.8740
  270SOL     MW 1080   1.184   0.451   1.615 -0.1554 -0.1590  0.0523
  271SOL     OW 1081   0.865   3.093   2.432 -0.5085  0.0066 -0.5955
  271SOL    HW1 1082   0.892   3.026   2.494  2.3964 -0.3320 -0.3394
  271SOL    HW2 1083   0.944   3.137   2.408 -0.8570 -3.2620 -0.2047
  271SOL     MW 1084   0.879   3.090   2.437 -0.1712 -0.4694 -0.5101
  272SOL     OW 1085   1.367   3.006   2.773  0.0307  0.0216  0.6265
  272SOL    HW1 1086   1.321   3.033   2.697  1.7781 -0.9994  1.0422
  272SOL    HW2 1087   1.370   3.090   2.833  0.7399  2.6945 -0.1761
  272SOL     MW 1088   1.361   3.020   2.771  0.3548  0.2395  0.5755
  273SOL     OW 1089   1.433   0.925   2.829  0.2356  0.0419  0.5176
  273SOL    HW1 1090   1.528   0.942   2.840  0.8516 -3.1076 -1.4429
  273SOL    HW2 1091   1.390   1.009   2.848  0.5831 -0.2260  1.7433
  273SOL     MW 1092   1.440   0.939   2.833  0.3627 -0.4090  0.4206
  274SOL     OW 1093   1.337   0.710   0.100  0.2802  0.3000 -0.1965
  274SOL    HW1 1094   1.369   0.632   0.145 -0.3870 -1.5109 -0.5364
  274SOL    HW2 1095   1.246   0.742   0.144  1.3033  1.4227  0.6429
  274SOL     MW 1096   1.329   0.704   0.112  0.3272  0.2092 -0.1306
  275SOL     OW 1097   1.688   0.636   1.788  0.1249 -0.2295  0.6317
  275SOL    HW1 1098   1.745   0.662   1.865 -0.4500 -1.1663  2.3950
  275SOL    HW2 1099   1.665   0.542   1.804 -1.0997  1.3799 -0.7151
  275SOL     MW 1100   1.693   0.627   1.800 -0.1125 -0.1408  0.6866
  276SOL     OW 1101   0.192   1.161   1.823  0.3723 -0.2663  0.2114
  276SOL    HW1 1102   0.254   1.085   1.825  1.8628 -1.8798  1.3238
  276SOL    HW2 1103   0.141   1.146   1.909 -1.0546 -2.5060  0.0091
  276SOL     MW 1104   0.193   1.149   1.835  0.3807 -0.7747  0.3315
  277SOL     OW 1105   1.944   1.378   2.712  0.8583  0.0077 -0.6105
  277SOL    HW1 1106   1.986   1.465   2.720 -0.0389 -2.3953  1.0265
  277SOL    HW2 1107   2.009   1.316   2.747 -2.4960  1.9410  0.6129
  277SOL     MW 1108   1.958   1.381   2.718  0.2973 -0.0543 -0.2331
  278SOL     OW 1109   1.424   0.698   1.765 -0.2540 -0.6251 -0.4674
  278SOL    HW1 1110   1.393   0.667   1.853  0.4687  0.2945  2.1515
  278SOL    HW2 1111   1.520   0.705   1.784  2.5413 -0.4924  1.1192
  278SOL     MW 1112   1.433   0.694   1.779  0.2102 -0.4862  0.0875
  279SOL     OW 1113   0.589   3.069   2.259 -0.0591  0.0368 -0.4482
  279SOL    HW1 1114   0.662   3.042   2.207  0.5915 -3.2103  3.3669
  279SOL    HW2 1115   0.604   3.163   2.267  1.9399 -1.5964  2.4103
  279SOL     MW 1116   0.600   3.078   2.253  0.2905 -0.6071  0.4323
  280SOL     OW 1117   1.430   1.160   2.219  0.0411  0.5219 -0.5826
  280SOL    HW1 1118   1.454   1.077   2.166 -0.0612 -0.8094 -1.1913
  280SOL    HW2 1119   1.451   1.126   2.310 -1.1931  0.5083  1.7983
  280SOL     MW 1120   1.436   1.145   2.224 -0.1352  0.3445 -0.3488
  281SOL     OW 1121   1.305   1.407   2.838 -0.3600 -0.0227  0.3689
  281SOL    HW1 1122   1.401   1.422   2.842 -0.7567  3.9381  1.2904
  281SOL    HW2 1123   1.283   1.314   2.859  1.5550  0.7238 -0.2166
  281SOL     MW 1124   1.315   1.397   2.841 -0.1597  0.5984  0.4132
  282SOL     OW 1125   1.099   1.278   1.725 -0.4586 -0.1893 -1.0961
  282SOL    HW1 1126   1.066   1.347   1.666  2.9966  2.3138  0.7611
  282SOL    HW2 1127   1.021   1.236   1.766 -0.6714 -0.0817  1.7792
  282SOL     MW 1128   1.085   1.281   1.723 -0.0308  0.1552 -0.4717
  283SOL     OW 1129   0.698   1.221   3.093  0.3871  0.5192 -0.4982
  283SOL    HW1 1130   0.786   1.186   3.116  0.1495  0.2394 -1.0271
  283SOL    HW2 1131   0.688   1.318   3.104 -0.7927  1.3130  0.7050
  283SOL     MW 1132   0.709   1.229   3.097  0.2001  0.5870 -0.4092
  284SOL     OW 1133   0.460   0.613   2.331 -0.9030 -0.1585 -0.2910
  284SOL    HW1 1134   0.528   0.671   2.289  2.5855  0.0120  0.1696
  284SOL    HW2 1135   0.444   0.550   2.261 -0.0261 -0.5357  0.4712
  284SOL     MW 1136   0.466   0.613   2.316 -0.3271 -0.1857 -0.1297
  285SOL     OW 1137   0.931   0.911   2.781  0.0889 -0.1927 -0.3116
  285SOL    HW1 1138   0.881   0.966   2.716 -1.4880  1.5264 -1.7692
  285SOL    HW2 1139   0.864   0.846   2.804  3.7171  1.5926  3.0550
  285SOL     MW 1140   0.916   0.909   2.775  0.3596  0.2697 -0.0597
  286SOL     OW 1141   1.161   1.465   2.590 -0.0589  0.0413 -0.4009
  286SOL    HW1 1142   1.212   1.443   2.666  0.6823 -1.2216  0.5372
  286SOL    HW2 1143   1.155   1.556   2.570 -0.6644  0.5395 -0.4505
  286SOL     MW 1144   1.167   1.474   2.598 -0.0410 -0.0596 -0.2837
  287SOL     OW 1145   1.074   0.948   0.412 -0.0958  0.3387  0.0116
  287SOL    HW1 1146   1.156   0.957   0.457 -0.8445 -1.5191 -0.7479
  287SOL    HW2 1147   1.038   1.033   0.385  0.6201  3.0666  0.5999
  287SOL     MW 1148   1.080   0.960   0.414 -0.1001  0.4535 -0.0110
  288SOL     OW 1149   1.503   0.670   2.158  0.0718 -0.4901 -0.1891
  288SOL    HW1 1150   1.469   0.668   2.249  0.9284  0.0211  0.8570
  288SOL    HW2 1151   1.502   0.756   2.123 -1.9372 -0.9429  0.0526
  288SOL     MW 1152   1.498   0.681   2.165 -0.0803 -0.4824 -0.0192
  289SOL     OW 1153   0.838   1.108   2.593  0.6238  1.0183  0.5659
  289SOL    HW1 1154   0.893   1.073   2.522 -0.6198  1.7794 -0.0782
  289SOL    HW2 1155   0.764   1.104   2.537  4.2049 -0.6491 -1.8042
  289SOL     MW 1156   0.836   1.103   2.576  0.9322  0.8987  0.1682
  290SOL     OW 1157   0.862   0.691   1.545  0.3797  0.2602 -0.1959
  290SOL    HW1 1158   0.898   0.623   1.485  0.9400 -0.4234 -2.1327
  290SOL    HW2 1159   0.896   0.677   1.637  0.2857 -0.3349  2.8629
  290SOL     MW 1160   0.871   0.680   1.549  0.4412  0.0915 -0.0478
  291SOL     OW 1161   0.223   0.375   0.203 -0.4877 -0.2129 -0.2508
  291SOL    HW1 1162   0.308   0.336   0.224 -1.5206  1.0141 -0.4446
  291SOL    HW2 1163   0.170   0.295   0.184  0.8187 -0.5070  1.5631
  291SOL     MW 1164   0.227   0.359   0.204 -0.4516 -0.0898 -0.0370
  292SOL     OW 1165   0.930   0.571   0.076  0.0703 -0.1670 -0.2209
  292SOL    HW1 1166   0.962   0.651   0.117 -0.8901  0.9961 -0.5159
  292SOL    HW2 1167   0.999   0.503   0.090  0.8550  1.3063  0.0034
  292SOL     MW 1168   0.943   0.573   0.083  0.0471  0.1809 -0.2302
  293SOL     OW 1169   0.235   0.097   2.489 -0.1325 -0.3900 -0.5716
  293SOL    HW1 1170   0.149   0.071   2.453 -0.4384  0.1106  1.0210
  293SOL    HW2 1171   0.213   0.166   2.554  0.5001  1.5444  0.1147
  293SOL     MW 1172   0.220   0.102   2.493 -0.0894 -0.0687 -0.2709
  294SOL     OW 1173   1.427   0.630   2.429  0.1922  0.0745 -0.0333
  294SOL    HW1 1174   1.458   0.706   2.480 -0.9578  0.8208  1.7056
  294SOL    HW2 1175   1.482   0.552   2.435 -1.7993 -2.7140 -2.7741
  294SOL     MW 1176   1.438   0.630   2.436 -0.2223 -0.1950 -0.1655
  295SOL     OW 1177   0.780   0.630   2.505  0.4125  0.8644 -0.1160
  295SOL    HW1 1178   0.743   0.538   2.498  0.0472  0.2761  2.0227
  295SOL    HW2 1179   0.747   0.662   2.593  0.4857 -2.1225 -2.8908
  295SOL     MW 1180   0.771   0.622   2.516  0.3739  0.3927 -0.2000
  296SOL     OW 1181   1.271   0.300   2.064  0.3518  0.1194 -0.2819
  296SOL    HW1 1182   1.342   0.264   2.009  1.4356  2.3206  0.3626
  296SOL    HW2 1183   1.304   0.258   2.142 -2.6352  1.2704 -0.0193
  296SOL     MW 1184   1.285   0.290   2.067  0.1007  0.5617 -0.1622
  297SOL     OW 1185   1.446   0.403   1.496 -0.6397 -0.0489  0.1349
  297SOL    HW1 1186   1.496   0.478   1.522 -1.0186  0.1816 -1.3797
  297SOL    HW2 1187   1.500   0.332   1.529  0.6576  1.3233 -1.1181
  297SOL     MW 1188   1.459   0.403   1.504 -0.5185  0.1626 -0.2302
  298SOL     OW 1189   1.480   0.954   2.061  0.3182 -0.4453 -0.1160
  298SOL    HW1 1190   1.470   0.995   1.974  0.0949  1.2396  0.5479
  298SOL    HW2 1191   1.574   0.954   2.076 -0.9095 -0.1890 -1.5255
  298SOL     MW 1192   1.491   0.959   2.051  0.1268 -0.1892 -0.2144
  299SOL     OW 1193   0.522   1.005   3.035  0.0930  0.3168  0.2542
  299SOL    HW1 1194   0.599   1.059   3.020 -3.7298 -0.3022 -0.8801
  299SOL    HW2 1195   0.464   1.050   2.973  0.3821  1.5031 -0.2230
  299SOL     MW 1196   0.525   1.018   3.025 -0.3733  0.3917  0.0416
  300SOL     OW 1197   1.197   1.111   2.534  0.4662  0.5895 -0.5425
  300SOL    HW1 1198   1.139   1.081   2.460  2.8649 -2.0224  0.9945
  300SOL    HW2 1199   1.183   1.040   2.602 -0.7408  0.3302 -0.2757
  300SOL     MW 1200   1.188   1.097   2.533  0.6235  0.2107 -0.3045
  301SOL     OW 1201   1.395   0.748   0.560 -0.2364  0.0794  0.7845
  301SOL    HW1 1202   1.419   0.715   0.650  1.2460 -1.7427  1.0118
  301SOL    HW2 1203   1.331   0.687   0.532 -1.3836  1.0971 -1.2677
  301SOL     MW 1204   1.389   0.735   0.568 -0.1922 -0.0267  0.5437
  302SOL     OW 1205   0.132   1.470   1.937  0.3380 -0.7271 -0.0299
  302SOL    HW1 1206   0.134   1.423   2.020 -2.1867 -2.1785 -0.7362
  302SOL    HW2 1207   0.076   1.547   1.959  1.0508 -1.3652 -0.2468
  302SOL     MW 1208   0.125   1.474   1.951  0.0989 -1.0028 -0.1517
  303SOL     OW 1209   0.424   1.804   2.615 -0.1312 -0.3912 -0.6080
  303SOL    HW1 1210   0.454   1.856   2.542  1.6116 -1.2302 -1.5314
  303SOL    HW2 1211   0.334   1.818   2.636  0.3479 -0.2834 -2.1300
  303SOL     MW 1212   0.416   1.813   2.608  0.1620 -0.4877 -0.9306
  304SOL     OW 1213   0.498   2.038   2.446 -0.6724  0.8406 -0.0509
  304SOL    HW1 1214   0.513   2.099   2.373 -0.6825  1.5676 -0.7821
  304SOL    HW2 1215   0.568   1.984   2.416 -0.6814  0.3595 -1.1178
  304SOL     MW 1216   0.509   2.039   2.432 -0.6750  0.8730 -0.2881
  305SOL     OW 1217   1.183   0.567   0.472 -0.0511 -0.0983  0.5607
  305SOL    HW1 1218   1.086   0.548   0.474  1.2918  1.1812 -0.6312
  305SOL    HW2 1219   1.228   0.486   0.483 -2.0860 -2.3100 -0.2732
  305SOL     MW 1220   1.176   0.554   0.473 -0.1424 -0.2213  0.2934
  306SOL     OW 1221   1.226   1.413   0.289  0.4609 -0.0632  0.0001
  306SOL    HW1 1222   1.245   1.334   0.338 -0.8578 -1.2078  0.1484
  306SOL    HW2 1223   1.296   1.416   0.220 -1.6014  0.9871  1.3823
  306SOL     MW 1224   1.237   1.403   0.287  0.0148 -0.0757  0.2020
  307SOL     OW 1225   1.309   0.600   1.996 -0.2318  0.0035  0.3690
  307SOL    HW1 1226   1.284   0.509   2.009  0.0604 -1.4534 -0.8723
  307SOL    HW2 1227   1.376   0.618   2.062  0.7974  2.7373  2.2731
  307SOL     MW 1228   1.315   0.591   2.006 -0.0575  0.1720  0.4564
  308SOL     OW 1229   2.149   0.587   2.743 -0.0300  0.6884 -0.1110
  308SOL    HW1 1230   2.136   0.488   2.744  1.8010 -2.8215  0.1159
  308SOL    HW2 1231   2.246   0.594   2.744  2.2926  3.4660  0.8680
  308SOL     MW 1232   2.160   0.574   2.744  0.5180  0.5918  0.0481
  309SOL     OW 1233   0.530   0.497   0.385  1.2757 -0.1883  0.2231
  309SOL    HW1 1234   0.571   0.418   0.416 -0.8889  0.0075  1.4061
  309SOL    HW2 1235   0.569   0.508   0.299  1.4204  0.2887 -1.1612
  309SOL     MW 1236   0.541   0.488   0.378  1.0092 -0.0995  0.1966
  310SOL     OW 1237   0.421   0.507   1.915  0.0392 -0.1624  0.1321
  310SOL    HW1 1238   0.467   0.442   1.857 -0.9610 -2.4807 -1.5345
  310SOL    HW2 1239   0.480   0.585   1.921  2.7055  0.9495  1.0380
  310SOL     MW 1240   0.435   0.508   1.908  0.2591 -0.3216  0.0318
  311SOL     OW 1241   1.878   0.779   1.939  1.3277  0.0178  0.1311
  311SOL    HW1 1242   1.839   0.767   2.025  0.7818  2.2947 -2.2655
  311SOL    HW2 1243   1.953   0.723   1.938 -2.5334  1.5980  1.1668
  311SOL     MW 1244   1.883   0.770   1.950  0.7462  0.5267 -0.0484
  312SOL     OW 1245   1.709   2.591   3.074  0.2520 -0.6598  0.3579
  312SOL    HW1 1246   1.763   2.616   3.148 -0.4579 -1.5824  1.3957
  312SOL    HW2 1247   1.618   2.585   3.113 -3.4876 -1.0445 -1.3304
  312SOL     MW 1248   1.705   2.594   3.089 -0.3351 -0.8323  0.2721
  313SOL     OW 1249   0.112   1.212   2.922 -0.5951 -0.0170 -0.4906
  313SOL    HW1 1250   0.173   1.160   2.975 -2.6093  0.0237  0.6169
  313SOL    HW2 1251   0.145   1.208   2.830 -1.6098  3.8286  1.3859
  313SOL     MW 1252   0.124   1.205   2.917 -0.9947  0.4957 -0.0969
  314SOL     OW 1253   2.160   3.035   2.976 -0.2722  0.7071 -0.2124
  314SOL    HW1 1254   2.097   3.094   2.935  0.8850 -2.2956  1.4620
  314SOL    HW2 1255   2.203   3.084   3.044 -1.9210  0.4096  1.3176
  314SOL     MW 1256   2.157   3.050   2.980 -0.3371  0.2717  0.2104
  315SOL     OW 1257   1.579   1.991   3.034 -0.0415 -0.0959  0.3167
  315SOL    HW1 1258   1.491   2.022   3.071 -1.4901  1.8213 -0.2076
  315SOL    HW2 1259   1.582   2.033   2.944  0.7515  0.0329  0.0579
  315SOL     MW 1260   1.568   2.000   3.027 -0.1280  0.1741  0.2134
  316SOL     OW 1261   1.240   0.664   2.692  0.0719  0.6329  0.1726
  316SOL    HW1 1262   1.290   0.583   2.684 -0.3275  0.5517 -1.4260
  316SOL    HW2 1263   1.226   0.685   2.787  1.1324  0.5535 -1.5279
  316SOL     MW 1264   1.245   0.656   2.703  0.1592  0.6117 -0.2627
  317SOL     OW 1265   0.663   1.373   2.598  0.4190  0.0413 -0.2850
  317SOL    HW1 1266   0.670   1.330   2.682 -1.7509 -0.1159 -1.1075
  317SOL    HW2 1267   0.742   1.365   2.545 -1.7883 -1.0530  2.3291
  317SOL     MW 1268   0.674   1.366   2.602 -0.1586 -0.1238 -0.0486
  318SOL     OW 1269   1.270   0.378   2.931  0.2475 -0.3358 -0.1296
  318SOL    HW1 1270   1.181   0.414   2.899 -0.7087 -1.9563 -0.0006
  318SOL    HW2 1271   1.341   0.423   2.883 -1.6299 -2.9363 -0.7141
  318SOL     MW 1272   1.268   0.388   2.920 -0.1264 -0.8927 -0.1897
  319SOL     OW 1273   0.779   0.403   2.739  0.7467  0.3970  0.3114
  319SOL    HW1 1274   0.721   0.370   2.671 -0.8194 -0.0755 -1.1073
  319SOL    HW2 1275   0.750   0.368   2.822  0.9756  0.3081  0.0681
  319SOL     MW 1276   0.768   0.394   2.741  0.5703  0.3229  0.0921
  320SOL     OW 1277   1.016   1.314   2.019 -0.5040  0.4077  0.3422
  320SOL    HW1 1278   1.084   1.257   2.057  1.4526 -0.7123 -3.5784
  320SOL    HW2 1279   1.068   1.372   1.967  0.1876 -0.6535  0.8258
  320SOL     MW 1280   1.032   1.314   2.017 -0.1546  0.1199 -0.1113
  321SOL     OW 1281   1.105   0.972   2.967  0.2733 -0.0458 -0.0338
  321SOL    HW1 1282   1.048   0.946   2.889  1.3896  0.3965  2.8866
  321SOL    HW2 1283   1.145   0.883   2.988  0.5035 -1.3654  4.8044
  321SOL     MW 1284   1.103   0.957   2.960  0.4509 -0.1616  0.9899
  322SOL     OW 1285   1.211   0.886   1.718 -0.1828 -0.3712 -0.1028
  322SOL    HW1 1286   1.278   0.820   1.729  1.4674  0.3589 -1.2455
  322SOL    HW2 1287   1.186   0.909   1.806 -0.3618  0.3132 -0.3194
  322SOL     MW 1288   1.217   0.881   1.731  0.0113 -0.1846 -0.2822
  323SOL     OW 1289   1.194   1.505   1.899  0.0430 -0.2348 -0.4146
  323SOL    HW1 1290   1.219   1.439   1.835 -0.5718  3.1675  1.2756
  323SOL    HW2 1291   1.126   1.560   1.859 -1.0679 -3.0654  1.1356
  323SOL     MW 1292   1.188   1.504   1.885 -0.1847 -0.1594  0.0129
  324SOL     OW 1293   1.501   1.097   2.487  0.2761 -0.0989  0.5872
  324SOL    HW1 1294   1.412   1.101   2.531 -3.8116  1.5720  0.6019
  324SOL    HW2 1295   1.572   1.129   2.542  0.9691  1.0136 -3.3224
  324SOL     MW 1296   1.499   1.102   2.500 -0.1718  0.2684  0.0733
  325SOL     OW 1297   0.998   0.477   2.930  0.0771  0.5923  0.0753
  325SOL    HW1 1298   0.964   0.534   2.998  4.0138 -3.0208 -0.5523
  325SOL    HW2 1299   0.935   0.483   2.858  1.3970  0.2208  0.7531
  325SOL     MW 1300   0.985   0.486   2.930  0.7706  0.0666  0.0819
  326SOL     OW 1301   0.393   1.364   2.168  0.3876  0.8559 -0.1442
  326SOL    HW1 1302   0.469   1.328   2.122 -0.9661  0.0815  0.5872
  326SOL    HW2 1303   0.409   1.456   2.171 -2.1449 -0.3814  1.8748
  326SOL     MW 1304   0.405   1.372   2.162 -0.1252  0.5904  0.2187
  327SOL     OW 1305   1.905   0.827   2.418  0.0285 -0.5768  0.3622
  327SOL    HW1 1306   1.913   0.776   2.501  0.3546 -2.0660  0.5417
  327SOL    HW2 1307   1.982   0.883   2.401 -2.4830 -0.8603 -0.1062
  327SOL     MW 1308   1.916   0.828   2.427 -0.2598 -0.8107  0.3241
  328SOL     OW 1309   0.118   1.316   2.188 -0.4059  1.0648 -0.1363
  328SOL    HW1 1310   0.091   1.232   2.151  2.1664 -0.0441  2.3998
  328SOL    HW2 1311   0.212   1.311   2.193 -1.7712  3.4435 -0.3948
  328SOL     MW 1312   0.127   1.304   2.184 -0.2466  1.2324  0.1642
  329SOL     OW 1313   0.142   0.169   1.382 -0.0650  0.1658 -0.5887
  329SOL    HW1 1314   0.104   0.243   1.434 -0.6634  1.1868  3.1923
  329SOL    HW2 1315   0.238   0.186   1.382  1.4972 -1.4909 -1.7924
  329SOL     MW 1316   0.150   0.181   1.389  0.0622  0.0819 -0.2487
  330SOL     OW 1317   0.402   2.950   2.099  0.2388  0.1545  0.2630
  330SOL    HW1 1318   0.480   2.983   2.146 -1.7116  1.1632 -0.4949
  330SOL    HW2 1319   0.332   2.935   2.163 -1.6091 -0.6380  0.7053
  330SOL     MW 1320   0.403   2.952   2.114 -0.2624  0.1830  0.2214
  331SOL     OW 1321   0.730   1.209   2.225  0.7729  0.1939  0.6314
  331SOL    HW1 1322   0.667   1.205   2.156  4.3109  2.0286  0.1889
  331SOL    HW2 1323   0.774   1.292   2.204 -2.1735  0.7772  0.4267
  331SOL     MW 1324   0.728   1.219   2.213  0.8509  0.5129  0.5460
  332SOL     OW 1325   1.372   1.734   2.934  0.9312 -0.1581  0.4230
  332SOL    HW1 1326   1.381   1.751   2.835 -1.6959 -0.5282 -2.5864
  332SOL    HW2 1327   1.393   1.817   2.977  3.1677 -0.4947  1.3098
  332SOL     MW 1328   1.376   1.747   2.927  0.8796 -0.2514  0.1429
  333SOL     OW 1329   1.741   1.491   3.024 -0.0409 -0.0582 -0.4138
  333SOL    HW1 1330   1.837   1.473   3.028  0.8579 -1.3527 -3.4030
  333SOL    HW2 1331   1.707   1.420   3.082  1.4535 -1.7350  1.5405
  333SOL     MW 1332   1.749   1.479   3.033  0.2748 -0.4503 -0.5503
  334SOL     OW 1333   1.182   3.068   2.599  0.4725  0.2526  0.1517
  334SOL    HW1 1334   1.121   3.049   2.680  1.2514 -1.2621  0.1167
  334SOL    HW2 1335   1.203   3.162   2.601 -1.6469 -0.2572  1.2652
  334SOL     MW 1336   1.177   3.078   2.610  0.2956 -0.0145  0.2940
  335SOL     OW 1337   1.266   0.736   2.956  0.0074 -0.3366 -0.3047
  335SOL    HW1 1338   1.276   0.723   3.048 -0.8709  0.5409 -1.0525
  335SOL    HW2 1339   1.328   0.802   2.930  1.2622  0.5444 -0.7262
  335SOL     MW 1340   1.275   0.743   2.965  0.0571 -0.1046 -0.4590
  336SOL     OW 1341   0.932   1.070   1.848 -0.5100  0.1622 -0.1269
  336SOL    HW1 1342   0.895   1.136   1.910 -1.7449  0.5459 -0.1070
  336SOL    HW2 1343   0.994   1.018   1.895  1.9945 -1.8583 -1.1204
  336SOL     MW 1344   0.935   1.072   1.862 -0.3425 -0.0538 -0.2554
  337SOL     OW 1345   0.593   1.759   2.823 -0.8086 -0.3647  0.0835
  337SOL    HW1 1346   0.522   1.782   2.765  0.0938 -1.4296 -1.1544
  337SOL    HW2 1347   0.659   1.706   2.766  4.7041 -0.3514 -0.8203
  337SOL     MW 1348   0.592   1.755   2.808  0.0378 -0.5035 -0.1991
  338SOL     OW 1349   1.050   0.791   2.536  0.0295  0.3495  0.0902
  338SOL    HW1 1350   0.973   0.739   2.549  3.6165 -2.7472 -3.0936
  338SOL    HW2 1351   1.110   0.750   2.605  0.4709 -3.8313  1.5881
  338SOL     MW 1352   1.048   0.778   2.547  0.5610 -0.6107 -0.1322
  339SOL     OW 1353   1.448   1.090   1.841  0.6983  0.2182 -0.1314
  339SOL    HW1 1354   1.383   1.103   1.771  1.6316 -0.9300 -1.5739
  339SOL    HW2 1355   1.477   1.177   1.880  2.1714  2.2895 -1.0297
  339SOL     MW 1356   1.443   1.104   1.837  1.0158  0.3400 -0.4402
  340SOL     OW 1357   1.340   1.568   0.075 -0.6594  0.3849 -0.3875
  340SOL    HW1 1358   1.355   1.613  -0.011 -0.2399  0.1952  1.8462
  340SOL    HW2 1359   1.420   1.574   0.126  1.5179  0.7247  0.4166
  340SOL     MW 1360   1.352   1.575   0.070 -0.3168  0.4047  0.0133
  341SOL     OW 1361   0.152   1.276   2.672  0.0650  0.4701  0.9469
  341SOL    HW1 1362   0.227   1.324   2.648 -1.2105 -0.5980  0.1941
  341SOL    HW2 1363   0.097   1.285   2.596 -2.1564  1.0003  2.9250
  341SOL     MW 1364   0.155   1.283   2.659 -0.3964  0.3991  1.1086
  342SOL     OW 1365   1.415   0.273   0.084  0.2672  0.2350  0.1815
  342SOL    HW1 1366   1.419   0.354   0.139 -0.4165  2.5719  1.8181
  342SOL    HW2 1367   1.429   0.294  -0.010  0.4460 -2.5741 -0.6037
  342SOL     MW 1368   1.418   0.287   0.079  0.2006  0.1727  0.2939
  343SOL     OW 1369   0.195   0.291   2.292 -0.1516 -0.3829  0.4038
  343SOL    HW1 1370   0.211   0.217   2.350 -0.9444 -2.2558  0.7452
  343SOL    HW2 1371   0.135   0.251   2.226  0.0285  0.1026  0.3039
  343SOL     MW 1372   0.189   0.276   2.291 -0.2325 -0.5660  0.4357
  344SOL     OW 1373   1.685   2.159   0.101  0.2086 -0.0648  0.5869
  344SOL    HW1 1374   1.748   2.216   0.049  3.4243 -1.1168 -2.1196
  344SOL    HW2 1375   1.655   2.090   0.035  0.5013 -1.2859 -2.3253
  344SOL     MW 1376   1.689   2.157   0.085  0.6715 -0.3647 -0.1544
  345SOL     OW 1377   0.670   1.595   2.361 -0.2105  0.4706  0.0719
  345SOL    HW1 1378   0.577   1.609   2.344  0.8280 -1.1472 -0.8139
  345SOL    HW2 1379   0.707   1.542   2.282 -1.3918 -0.4985 -1.2288
  345SOL     MW 1380   0.662   1.590   2.348 -0.2294  0.1293 -0.2166
  346SOL     OW 1381   1.679   1.027  -0.000 -0.1542  0.1152 -0.4415
  346SOL    HW1 1382   1.771   1.011   0.006 -1.7970  0.6899  3.0174
  346SOL    HW2 1383   1.652   0.986   0.080  0.0285  2.4039  2.1531
  346SOL     MW 1384   1.688   1.019   0.011 -0.3468  0.4930  0.3572
  347SOL     OW 1385   1.163   0.661   2.347  0.0148 -0.2465  0.5901
  347SOL    HW1 1386   1.250   0.633   2.390  0.9614 -2.0492  0.5251
  347SOL    HW2 1387   1.121   0.718   2.414  2.4207 -1.2392 -1.2848
  347SOL     MW 1388   1.169   0.665   2.362  0.4572 -0.6153  0.3341
  348SOL     OW 1389   1.342   2.657   1.881  0.4858 -0.3975 -0.3637
  348SOL    HW1 1390   1.378   2.579   1.931  0.5416  1.6170 -3.3384
  348SOL    HW2 1391   1.367   2.737   1.931  1.8696  0.2888  1.7551
  348SOL     MW 1392   1.350   2.658   1.894  0.6757 -0.0412 -0.4766
  349SOL     OW 1393   1.351   0.192   2.684  0.3060 -0.3025 -0.1182
  349SOL    HW1 1394   1.311   0.225   2.765 -1.4385  0.3094 -0.2208
  349SOL    HW2 1395   1.437   0.147   2.700  0.9302 -1.5028  1.8288
  349SOL     MW 1396   1.357   0.190   2.697  0.1582 -0.3801  0.1252
  350SOL     OW 1397   1.878   0.645   2.644 -0.6162  0.5018  0.1499
  350SOL    HW1 1398   1.827   0.584   2.588 -0.3378 -0.0726 -0.9337
  350SOL    HW2 1399   1.970   0.616   2.657  0.5160 -1.5849 -1.5390
  350SOL     MW 1400   1.883   0.633   2.638 -0.4301  0.1507 -0.2159
  351SOL     OW 1401   0.022   0.956   1.570 -0.5067 -0.1300  0.1658
  351SOL    HW1 1402  -0.044   1.006   1.616 -1.2570 -0.4774 -2.0273
  351SOL    HW2 1403   0.097   1.017   1.567  1.2583 -0.6969 -1.3425
  351SOL     MW 1404   0.023   0.970   1.576 -0.3728 -0.2507 -0.3225
  352SOL     OW 1405   0.798   1.566   2.721 -0.5774  0.4996  0.3105
  352SOL    HW1 1406   0.816   1.539   2.807  1.8295 -1.2005  1.2994
  352SOL    HW2 1407   0.746   1.495   2.672 -0.3652  0.5879  0.9405
  352SOL     MW 1408   0.793   1.553   2.726 -0.2319  0.2869  0.5241
  353SOL     OW 1409   3.063   2.431   2.761 -0.4806 -0.0590 -0.1168
  353SOL    HW1 1410   3.156   2.424   2.747 -2.7905  1.8168  1.7790
  353SOL    HW2 1411   3.039   2.520   2.734  1.2831  0.5825 -0.7728
  353SOL     MW 1412   3.072   2.442   2.756 -0.5526  0.2731  0.0468
  354SOL     OW 1413   0.372   2.446   0.896  0.6917 -0.2819 -0.3224
  354SOL    HW1 1414   0.397   2.435   0.996 -0.8566 -2.3304 -0.9579
  354SOL    HW2 1415   0.288   2.396   0.888  1.2709 -3.8702  1.0970
  354SOL     MW 1416   0.364   2.438   0.908  0.5639 -1.0256 -0.2189
  355SOL     OW 1417   0.083   2.253   0.364 -0.2407 -0.1275 -0.4479
  355SOL    HW1 1418   0.001   2.197   0.371 -0.6923 -0.3370  3.0385
  355SOL    HW2 1419   0.082   2.299   0.449  0.9983 -1.1896  1.6714
  355SOL     MW 1420   0.072   2.252   0.376 -0.1368 -0.2953  0.2917
  356SOL     OW 1421   0.721   2.942   0.981  0.7660  0.1007  0.1113
  356SOL    HW1 1422   0.796   2.909   0.933  1.2561  0.9280 -0.1487
  356SOL    HW2 1423   0.647   2.874   0.972  0.5165  1.5663  0.7676
  356SOL     MW 1424   0.721   2.929   0.974  0.7977  0.4032  0.1636
  357SOL     OW 1425   1.782   2.970   0.376  0.3152  0.0799 -0.0757
  357SOL    HW1 1426   1.725   2.909   0.426 -0.3530 -1.2601  1.9928
  357SOL    HW2 1427   1.866   2.927   0.343 -0.2922 -0.2179 -1.3482
  357SOL     MW 1428   1.786   2.956   0.378  0.1469 -0.1362  0.0293
  358SOL     OW 1429   0.470   0.156   1.052 -0.7142  0.2288  0.3651
  358SOL    HW1 1430   0.554   0.131   1.000  1.2017  0.9149 -1.1862
  358SOL    HW2 1431   0.408   0.168   0.979  0.2225  1.3057  0.8263
  358SOL     MW 1432   0.473   0.154   1.036 -0.3378  0.4614  0.2212
  359SOL     OW 1433   0.890   2.749   1.907  0.4138  0.3034 -0.1196
  359SOL    HW1 1434   0.857   2.679   1.970  0.2829  4.5856  0.7279
  359SOL    HW2 1435   0.959   2.706   1.853 -2.4035  0.9300 -1.3763
  359SOL     MW 1436   0.895   2.734   1.908  0.0248  0.9511 -0.1736
  360SOL     OW 1437   0.543   2.746   0.916  0.4708  0.7277 -0.3709
  360SOL    HW1 1438   0.560   2.681   0.850  0.4019  1.3509  0.4164
  360SOL    HW2 1439   0.541   2.706   1.009  0.3274  0.9125 -0.3684
  360SOL     MW 1440   0.545   2.732   0.919  0.4428  0.8343 -0.2667
  361SOL     OW 1441   0.183   2.753   1.377  0.2780  0.6226  0.2930
  361SOL    HW1 1442   0.179   2.842   1.388 -0.6024 -2.7860 -2.5566
  361SOL    HW2 1443   0.270   2.722   1.399  0.0733 -0.7056 -0.4086
  361SOL     MW 1444   0.194   2.760   1.381  0.1348 -0.0023 -0.1755
  362SOL     OW 1445   1.499   2.409   0.602  0.1592  0.0437 -0.4386
  362SOL    HW1 1446   1.508   2.327   0.648 -0.2837 -0.0086 -0.2333
  362SOL    HW2 1447   1.492   2.470   0.678  1.6761 -0.8422  1.4793
  362SOL     MW 1448   1.499   2.406   0.618  0.3009 -0.0801 -0.1585
  363SOL     OW 1449   0.255   3.048   0.702 -0.8887 -0.6732  0.4899
  363SOL    HW1 1450   0.239   2.999   0.777  0.8401 -1.0798  1.2775
  363SOL    HW2 1451   0.178   3.055   0.642 -2.9053  1.7019  0.7635
  363SOL     MW 1452   0.242   3.042   0.704 -0.9267 -0.4135  0.6299
  364SOL     OW 1453   0.751   0.166   0.220  0.1083  0.0598 -0.3496
  364SOL    HW1 1454   0.728   0.074   0.217 -0.3409  1.4376 -1.6605
  364SOL    HW2 1455   0.666   0.214   0.195 -0.6011  3.0501 -0.3353
  364SOL     MW 1456   0.737   0.160   0.216 -0.0445  0.6362 -0.5207
  365SOL     OW 1457   1.024   1.978   1.153 -0.4811 -0.0273  0.3303
  365SOL    HW1 1458   1.034   2.076   1.145 -1.5962 -0.9654  2.8640
  365SOL    HW2 1459   0.956   1.946   1.100  1.0945  0.6909  2.1452
  365SOL     MW 1460   1.016   1.987   1.145 -0.4204 -0.0564  0.9040
  366SOL     OW 1461   2.867   2.642   1.006 -0.2557  0.1783  0.1378
  366SOL    HW1 1462   2.933   2.627   1.074  0.4866 -1.9449  2.3830
  366SOL    HW2 1463   2.906   2.652   0.916  0.7165  2.2396 -0.5175
  366SOL     MW 1464   2.881   2.641   1.003 -0.0295  0.1701  0.3476
  367SOL     OW 1465   1.281   2.947   0.871 -0.1409  0.0186  0.3168
  367SOL    HW1 1466   1.194   2.939   0.895  0.1476 -2.6587  1.7134
  367SOL    HW2 1467   1.283   2.893   0.792  0.2435 -2.8793 -1.3276
  367SOL     MW 1468   1.270   2.939   0.864 -0.0521 -0.7170  0.2841
  368SOL     OW 1469   1.702   0.442   0.667 -0.0313  0.1305 -0.1866
  368SOL    HW1 1470   1.749   0.356   0.656 -0.1968 -2.0102  1.0452
  368SOL    HW2 1471   1.767   0.506   0.664 -4.1401 -1.6428 -1.6271
  368SOL     MW 1472   1.717   0.439   0.665 -0.5953 -0.3859 -0.2141
  369SOL     OW 1473   0.142   2.467   1.744  0.0164  0.6055 -0.0022
  369SOL    HW1 1474   0.227   2.421   1.763 -0.3416 -1.4494  0.4371
  369SOL    HW2 1475   0.140   2.543   1.794 -1.4151 -2.5248 -0.3713
  369SOL     MW 1476   0.153   2.471   1.753 -0.2197 -0.0786  0.0070
  370SOL     OW 1477   0.687   0.098   0.870 -0.7372  0.1642  0.1101
  370SOL    HW1 1478   0.761   0.159   0.890  0.8496 -0.0821 -0.1728
  370SOL    HW2 1479   0.711   0.010   0.914 -0.6333  2.5402  2.2897
  370SOL     MW 1480   0.700   0.094   0.879 -0.5141  0.4452  0.3603
  371SOL     OW 1481   1.351   2.986   1.506 -0.6475 -0.5259 -0.1505
  371SOL    HW1 1482   1.302   2.903   1.475  0.2564 -3.4897  1.0859
  371SOL    HW2 1483   1.380   3.027   1.427  1.8614  0.4557  0.0627
  371SOL     MW 1484   1.349   2.980   1.492 -0.1972 -0.7874  0.0408
  372SOL     OW 1485   0.782   2.274   0.481  0.1120  0.0368  0.2306
  372SOL    HW1 1486   0.715   2.210   0.496  0.0927 -1.6828  2.4110
  372SOL    HW2 1487   0.796   2.295   0.391  1.0986  0.8610  0.3116
  372SOL     MW 1488   0.775   2.268   0.471  0.2396 -0.0814  0.5290
  373SOL     OW 1489   2.789   2.979   1.401  0.0940  0.0680  0.3937
  373SOL    HW1 1490   2.873   2.968   1.352  0.2489  0.7503  0.1401
  373SOL    HW2 1491   2.744   3.050   1.357  1.0099  0.0133 -0.6389
  373SOL     MW 1492   2.794   2.987   1.389  0.2353  0.1508  0.2240
  374SOL     OW 1493   1.477   0.516   0.236  0.1364  0.0585 -0.5311
  374SOL    HW1 1494   1.554   0.542   0.182 -0.0666  0.6967  2.8268
  374SOL    HW2 1495   1.506   0.471   0.315 -0.5365 -2.6552  1.1717
  374SOL     MW 1496   1.491   0.514   0.239  0.0208 -0.2153  0.1366
  375SOL     OW 1497   1.116   2.106   2.253 -0.1188 -0.4499 -0.4668
  375SOL    HW1 1498   1.145   2.129   2.341  0.3210  1.7420  0.0391
  375SOL    HW2 1499   1.087   2.012   2.279 -0.6985  1.1291  2.8509
  375SOL     MW 1500   1.116   2.096   2.268 -0.1372  0.0476  0.0377
  376SOL     OW 1501   0.689   2.536   0.148 -0.4087  0.0966 -0.4993
  376SOL    HW1 1502   0.746   2.462   0.168  3.2819  0.1123  0.8804
  376SOL    HW2 1503   0.615   2.491   0.100  0.8782 -1.5163 -0.5976
  376SOL     MW 1504   0.687   2.520   0.144  0.2481 -0.1141 -0.3302
  377SOL     OW 1505   1.297   2.092   0.918 -1.1666 -0.4674  0.7773
  377SOL    HW1 1506   1.243   2.061   0.845  1.1332  0.8243 -0.0002
  377SOL    HW2 1507   1.287   2.018   0.984  1.8291 -1.5112 -1.4662
  377SOL     MW 1508   1.289   2.078   0.917 -0.4679 -0.4347  0.3787
  378SOL     OW 1509   0.973   2.828   1.497  0.1305  0.1788 -0.1258
  378SOL    HW1 1510   0.929   2.745   1.527 -0.0604 -1.5250 -2.3635
  378SOL    HW2 1511   0.918   2.853   1.426 -0.7815 -1.8689  0.2303
  378SOL     MW 1512   0.960   2.820   1.491 -0.0150 -0.3162 -0.3740
  379SOL     OW 1513   1.034   1.841   2.309  0.2972  0.4104  0.5818
  379SOL    HW1 1514   0.940   1.850   2.302 -0.6889 -1.1846  0.8379
  379SOL    HW2 1515   1.061   1.766   2.260 -1.7970  0.2989  3.2901
  379SOL     MW 1516   1.025   1.832   2.302 -0.1092  0.1852  0.9729
  380SOL     OW 1517   0.909   0.236   1.541 -0.2035  0.0667  0.7296
  380SOL    HW1 1518   0.951   0.186   1.468  1.1478 -3.0142 -1.6426
  380SOL    HW2 1519   0.969   0.217   1.612  0.2668 -0.2379  0.7127
  380SOL     MW 1520   0.922   0.227   1.541  0.0369 -0.3800  0.4144
  381SOL     OW 1521   0.842   2.029   0.830  0.3532  0.2763 -0.0320
  381SOL    HW1 1522   0.927   2.024   0.788 -1.6150  1.5506  1.0256
  381SOL    HW2 1523   0.857   2.100   0.900  0.8539  3.2869 -0.5599
  381SOL     MW 1524   0.855   2.038   0.834  0.1596  0.8417  0.0379
  382SOL     OW 1525   0.682   0.025   0.610 -0.0104  0.3830  0.7718
  382SOL    HW1 1526   0.668   0.058   0.697  1.6523 -0.8175  1.4968
  382SOL    HW2 1527   0.661  -0.071   0.619  0.9318 -0.0897 -0.8904
  382SOL     MW 1528   0.678   0.017   0.622  0.3333  0.1623  0.6481
  383SOL     OW 1529   0.476   3.100   0.361 -1.0336 -0.3452 -0.1289
  383SOL    HW1 1530   0.463   3.067   0.445  0.5063  1.3123 -2.5583
  383SOL    HW2 1531   0.392   3.096   0.326 -0.3480 -1.1412  2.8410
  383SOL     MW 1532   0.463   3.095   0.368 -0.7400 -0.2315 -0.0576
  384SOL     OW 1533   0.628   2.855   0.589 -0.3608 -0.1565  0.1119
  384SOL    HW1 1534   0.631   2.775   0.645 -1.2370 -1.1079 -0.0213
  384SOL    HW2 1535   0.546   2.844   0.533  1.4408  1.1279  0.1206
  384SOL     MW 1536   0.618   2.843   0.589 -0.2387 -0.1126  0.0955
  385SOL     OW 1537   1.313   2.035   1.539 -0.3650  0.1564  0.3877
  385SOL    HW1 1538   1.379   2.073   1.597 -2.3782 -1.2372  1.5188
  385SOL    HW2 1539   1.283   1.957   1.588  1.8850  0.9929  0.4415
  385SOL     MW 1540   1.318   2.029   1.553 -0.3337  0.0829  0.5441
  386SOL     OW 1541   1.331   0.432   0.918  1.0305 -0.2657 -0.3838
  386SOL    HW1 1542   1.260   0.403   0.861 -0.3054  2.0524 -2.0734
  386SOL    HW2 1543   1.291   0.444   1.004 -0.4451  1.1875 -1.1678
  386SOL     MW 1544   1.316   0.430   0.922  0.6596  0.2319 -0.7102
  387SOL     OW 1545   0.884   2.191   1.459  0.6296 -0.1791  1.1029
  387SOL    HW1 1546   0.938   2.255   1.402 -0.7984  0.2245  0.7403
  387SOL    HW2 1547   0.901   2.103   1.429  0.2679 -2.1993  0.6640
  387SOL     MW 1548   0.893   2.188   1.447  0.3935 -0.3924  0.9972
  388SOL     OW 1549   1.583   2.861   1.214 -0.4901  0.0364 -0.2755
  388SOL    HW1 1550   1.497   2.832   1.181  1.3653  0.9579 -0.8021
  388SOL    HW2 1551   1.643   2.816   1.153  1.6738  1.1211 -1.3904
  388SOL     MW 1552   1.580   2.852   1.202  0.0402  0.3011 -0.4921
  389SOL     OW 1553   0.429   0.117   3.088 -0.3030  0.6128  0.6807
  389SOL    HW1 1554   0.522   0.107   3.056  0.5105  2.5494  0.4476
  389SOL    HW2 1555   0.396   0.026   3.107  0.1702  2.4826  0.2054
  389SOL     MW 1556   0.437   0.104   3.086 -0.1332  1.1150  0.5872
  390SOL     OW 1557   1.382   0.055   0.634 -0.1189 -0.3908 -0.0562
  390SOL    HW1 1558   1.472   0.075   0.606  0.1646 -1.9022 -1.8759
  390SOL    HW2 1559   1.385   0.065   0.728  1.4208  0.2177  0.3924
  390SOL     MW 1560   1.394   0.059   0.642  0.1217 -0.5100 -0.2371
  391SOL     OW 1561   0.267   2.317   1.421  0.2002  0.4535 -0.2205
  391SOL    HW1 1562   0.233   2.240   1.472 -1.5620  1.4041  0.3523
  391SOL    HW2 1563   0.199   2.390   1.426  0.1916 -2.8036  1.2107
  391SOL     MW 1564   0.254   2.316   1.428 -0.0334  0.1492  0.0439
  392SOL     OW 1565   1.987   2.181   0.291 -0.4002  0.4671  0.2682
  392SOL    HW1 1566   1.930   2.232   0.345 -1.9835  1.0160 -0.7380
  392SOL    HW2 1567   2.060   2.150   0.352  2.4802 -0.0362  0.0118
  392SOL     MW 1568   1.989   2.184   0.306 -0.2291  0.4731  0.1016
  393SOL     OW 1569   0.217   3.004   2.954 -0.1005  0.5197 -0.1097
  393SOL    HW1 1570   0.284   3.067   2.939 -1.9310 -1.5861 -1.0989
  393SOL    HW2 1571   0.146   3.043   2.910  1.0301  1.2963  1.7555
  393SOL     MW 1572   0.217   3.017   2.947 -0.1928  0.3443  0.0059
  394SOL     OW 1573   0.821   1.658   1.439  0.8090 -0.6384 -0.4342
  394SOL    HW1 1574   0.762   1.657   1.519 -0.7221  1.6276  0.6335
  394SOL    HW2 1575   0.851   1.744   1.432 -0.9291  2.6449  0.6569
  394SOL     MW 1576   0.817   1.669   1.449  0.3776  0.0938 -0.1493
  395SOL     OW 1577   0.923   2.849   2.608  0.3996  0.1355 -0.0921
  395SOL    HW1 1578   0.935   2.913   2.685  0.6186  1.5653  0.0381
  395SOL    HW2 1579   1.010   2.809   2.574 -0.0985  2.3794  0.3638
  395SOL     MW 1580   0.936   2.852   2.613  0.3628  0.6202 -0.0147
  396SOL     OW 1581   0.754   1.859   2.360  0.1583  0.3159  0.0211
  396SOL    HW1 1582   0.821   1.870   2.429  1.6683  0.1479 -0.0653
  396SOL    HW2 1583   0.726   1.764   2.360 -0.0512  0.9771 -0.9795
  396SOL     MW 1584   0.759   1.848   2.369  0.3299  0.3810 -0.1223
  397SOL     OW 1585   1.038   2.348   1.292 -0.1894  0.1908  0.2525
  397SOL    HW1 1586   1.069   2.417   1.228  0.9895  0.9162 -1.9373
  397SOL    HW2 1587   1.105   2.345   1.357 -0.3654 -2.0847 -1.1900
  397SOL     MW 1588   1.051   2.357   1.292 -0.0570 -0.0137 -0.2267
  398SOL     OW 1589   0.567   2.604   0.670  0.1934 -0.2003  0.0636
  398SOL    HW1 1590   0.485   2.574   0.630 -3.7766  1.1413 -0.5977
  398SOL    HW2 1591   0.645   2.548   0.650 -0.0266  0.8233  0.4455
  398SOL     MW 1592   0.567   2.592   0.662 -0.3594  0.1117  0.0268
  399SOL     OW 1593   0.262   2.047   0.340  0.1621  0.1632 -0.1549
  399SOL    HW1 1594   0.210   2.121   0.345  1.1936 -0.8070  0.7146
  399SOL    HW2 1595   0.333   2.062   0.282  0.5885  1.3881  0.2767
  399SOL     MW 1596   0.265   2.058   0.333  0.3545  0.1968  0.0168
  400SOL     OW 1597   0.614   1.841   0.204  0.4970  0.2142 -0.2367
  400SOL    HW1 1598   0.564   1.918   0.171 -0.5001 -0.9748  0.0762
  400SOL    HW2 1599   0.546   1.783   0.242 -0.6606 -0.1659  0.5184
  400SOL     MW 1600   0.598   1.843   0.205  0.2127  0.0072 -0.0958
  401SOL     OW 1601   1.019   2.102   0.061  0.4389 -0.1606 -0.3321
  401SOL    HW1 1602   1.009   2.010   0.062 -1.3007  1.2497  1.6267
  401SOL    HW2 1603   1.055   2.126   0.151  0.0792  1.9174  1.9235
  401SOL     MW 1604   1.022   2.093   0.073  0.1619  0.2997  0.2239
  402SOL     OW 1605   0.693   2.747   1.733 -0.0064  0.9991 -0.0470
  402SOL    HW1 1606   0.612   2.775   1.776  0.2329  3.5960  1.8535
  402SOL    HW2 1607   0.761   2.754   1.803  1.2466 -0.6822 -2.8737
  402SOL     MW 1608   0.691   2.752   1.748  0.1905  1.1199 -0.1692
  403SOL     OW 1609   0.081   0.567   0.346 -0.0732  0.0572 -0.0911
  403SOL    HW1 1610   0.167   0.591   0.375 -1.0330  0.6279 -0.8175
  403SOL    HW2 1611   0.101   0.503   0.279 -0.2755 -5.5697  0.9418
  403SOL     MW 1612   0.095   0.561   0.341 -0.2265 -0.6099 -0.0507
  404SOL     OW 1613   0.978   2.904   0.868 -0.2244 -0.0350 -0.4508
  404SOL    HW1 1614   1.012   2.833   0.810  2.4868 -0.5855 -2.0955
  404SOL    HW2 1615   0.965   2.978   0.806  1.3626  0.3882  1.8694
  404SOL     MW 1616   0.981   2.904   0.852  0.3427 -0.0518 -0.3617
  405SOL     OW 1617   0.456   2.456   1.566  0.0230  0.3236 -0.6559
  405SOL    HW1 1618   0.471   2.537   1.526  1.6739 -3.3205  1.1916
  405SOL    HW2 1619   0.383   2.410   1.516  0.3603 -1.0593 -0.5088
  405SOL     MW 1620   0.448   2.461   1.554  0.2853 -0.3397 -0.3927
  406SOL     OW 1621   0.409   2.414   1.163  0.3824  0.3750 -0.2019
  406SOL    HW1 1622   0.313   2.388   1.159  1.3616 -1.4195  2.4088
  406SOL    HW2 1623   0.443   2.347   1.220  1.1631  0.4527 -0.3520
  406SOL     MW 1624   0.400   2.402   1.170  0.6146  0.1485  0.1228
  407SOL     OW 1625  -0.002   2.691   1.180  0.3491 -0.3306 -0.0046
  407SOL    HW1 1626   0.059   2.688   1.256 -1.2071 -1.7689 -3.0284
  407SOL    HW2 1627   0.056   2.671   1.110 -0.7236 -0.8123  2.7613
  407SOL     MW 1628   0.014   2.688   1.181  0.0022 -0.5839 -0.0386
  408SOL     OW 1629   2.090   2.084   0.535  0.8860  0.6742 -0.1235
  408SOL    HW1 1630   2.054   2.117   0.621 -1.0551 -0.1872  2.7411
  408SOL    HW2 1631   2.036   2.009   0.514 -0.8767 -1.4599 -1.8454
  408SOL     MW 1632   2.078   2.078   0.544  0.3973  0.2790  0.0273
  409SOL     OW 1633   1.391   0.180   0.899 -0.8438  0.3847  0.0535
  409SOL    HW1 1634   1.400   0.277   0.914  0.0736 -1.7481  0.6022
  409SOL    HW2 1635   1.469   0.147   0.942 -1.0619 -0.6300 -1.0770
  409SOL     MW 1636   1.403   0.188   0.907 -0.7515 -0.0306 -0.0233
  410SOL     OW 1637   1.067   2.500   1.067 -0.2484  0.0358  0.3059
  410SOL    HW1 1638   1.002   2.502   0.997  2.9013 -0.8251  2.4745
  410SOL    HW2 1639   1.135   2.467   1.008 -2.3816 -4.1011  0.5345
  410SOL     MW 1640   1.067   2.496   1.050 -0.1143 -0.6236  0.6222
  411SOL     OW 1641   1.958   0.099   2.884 -0.2244  0.0020  0.0176
  411SOL    HW1 1642   1.902   0.067   2.813  1.2798 -1.9573  1.2249
  411SOL    HW2 1643   1.901   0.140   2.950  2.0177 -0.3044  2.0027
  411SOL     MW 1644   1.943   0.100   2.884  0.2699 -0.2970  0.4388
  412SOL     OW 1645   1.037   2.206   0.564  0.1795 -0.2481  0.0243
  412SOL    HW1 1646   1.073   2.295   0.595 -0.4189  0.3974 -1.6714
  412SOL    HW2 1647   0.941   2.213   0.541  1.8220  2.1096 -1.5916
  412SOL     MW 1648   1.029   2.218   0.565  0.3172  0.1481 -0.4126
  413SOL     OW 1649   0.529   2.778   0.126  0.6712  0.5478  0.5908
  413SOL    HW1 1650   0.588   2.702   0.148  0.3084 -2.8123  0.3672
  413SOL    HW2 1651   0.563   2.819   0.042 -3.3333 -0.7618  0.0460
  413SOL     MW 1652   0.541   2.773   0.118  0.0950 -0.0683  0.4894
  414SOL     OW 1653   1.996   3.024   1.022  0.0864  0.1736  0.2970
  414SOL    HW1 1654   1.932   2.986   0.965  1.3880  1.8794  2.6262
  414SOL    HW2 1655   2.065   2.963   1.032 -0.8152  0.2602 -0.0737
  414SOL     MW 1656   1.996   3.011   1.016  0.1392  0.4101  0.5554
  415SOL     OW 1657   1.751   2.694   1.081  0.1926 -0.1654 -0.6100
  415SOL    HW1 1658   1.712   2.626   1.132 -0.6056 -0.9048  0.0558
  415SOL    HW2 1659   1.834   2.722   1.125  0.6910  0.7771  0.2159
  415SOL     MW 1660   1.757   2.689   1.094  0.1531 -0.1386 -0.4132
  416SOL     OW 1661   0.582   1.951   1.384  0.6937 -0.0316  0.2848
  416SOL    HW1 1662   0.540   2.032   1.353  0.8677 -0.7706 -1.4174
  416SOL    HW2 1663   0.584   1.896   1.302 -0.7763 -0.6855 -0.5859
  416SOL     MW 1664   0.577   1.955   1.369  0.5227 -0.2154 -0.0547
  417SOL     OW 1665   1.094   2.990   1.974  0.3447  0.1094 -0.2750
  417SOL    HW1 1666   1.034   2.970   2.045 -1.1870  0.4793 -2.3404
  417SOL    HW2 1667   1.056   2.943   1.901 -1.1856  1.2749  0.2343
  417SOL     MW 1668   1.081   2.981   1.973 -0.0593  0.3120 -0.4803
  418SOL     OW 1669   0.737   2.994   0.183  0.3310  0.5562  0.3147
  418SOL    HW1 1670   0.774   2.948   0.104  1.1142  0.0398  0.0979
  418SOL    HW2 1671   0.648   2.956   0.180 -2.0745  2.6204  1.0370
  418SOL     MW 1672   0.730   2.983   0.172  0.1170  0.7604  0.3814
  419SOL     OW 1673   0.464   2.684   1.407 -0.2851  0.1451 -0.0240
  419SOL    HW1 1674   0.528   2.761   1.419 -0.6107  2.4792 -0.3494
  419SOL    HW2 1675   0.494   2.655   1.321  1.6461 -0.0654  0.0789
  419SOL     MW 1676   0.477   2.691   1.397 -0.0733  0.4253 -0.0533
  420SOL     OW 1677   0.903   2.219   1.002  0.0939  0.1314 -0.1514
  420SOL    HW1 1678   0.849   2.203   1.078  0.3811 -2.4629  2.0679
  420SOL    HW2 1679   0.874   2.295   0.950  0.7927 -1.3395 -1.5474
  420SOL     MW 1680   0.892   2.227   1.005  0.2240 -0.4049 -0.0428
  421SOL     OW 1681   2.950   0.099   0.050 -0.2178 -0.2234  0.0760
  421SOL    HW1 1682   2.932   0.077  -0.046  1.1134  1.9841 -3.6485
  421SOL    HW2 1683   2.966   0.013   0.087  2.8067  1.5762 -1.8968
  421SOL     MW 1684   2.949   0.085   0.042  0.3569  0.3053 -0.6757
  422SOL     OW 1685   0.869   2.484   0.885  0.3982 -0.5041  0.2403
  422SOL    HW1 1686   0.779   2.513   0.896  1.3990 -0.7607  0.1242
  422SOL    HW2 1687   0.891   2.508   0.787  1.7482  1.9076 -0.2867
  422SOL     MW 1688   0.860   2.491   0.874  0.7084 -0.2198  0.1554
  423SOL     OW 1689   1.616   0.103   0.516  0.1258  0.4519 -0.3495
  423SOL    HW1 1690   1.619   0.072   0.426 -0.4378  1.4666 -0.0936
  423SOL    HW2 1691   1.604   0.196   0.503 -3.0617 -0.2315 -1.6597
  423SOL     MW 1692   1.614   0.111   0.502 -0.3691  0.4956 -0.4886
  424SOL     OW 1693   0.743   2.183   1.213 -0.2392  0.0313  0.1870
  424SOL    HW1 1694   0.654   2.192   1.241  2.7385  0.4636  1.4261
  424SOL    HW2 1695   0.781   2.227   1.291 -2.6132  0.6553 -1.0284
  424SOL     MW 1696   0.736   2.190   1.227 -0.1595  0.1707  0.1901
  425SOL     OW 1697   1.750   2.783   2.063 -0.2646  0.5062 -0.4697
  425SOL    HW1 1698   1.748   2.781   1.966 -0.5425  0.7333 -1.3604
  425SOL    HW2 1699   1.732   2.689   2.092  0.7370  0.6569 -0.5898
  425SOL     MW 1700   1.748   2.770   2.054 -0.1691  0.5561 -0.6030
  426SOL     OW 1701   0.762   1.592   1.918 -0.2914 -0.8229  0.1722
  426SOL    HW1 1702   0.719   1.573   1.837  1.3893  1.8133  1.7757
  426SOL    HW2 1703   0.732   1.680   1.954 -2.7219  0.1273  0.5302
  426SOL     MW 1704   0.752   1.601   1.912 -0.3903 -0.3497  0.4310
  427SOL     OW 1705   0.406   1.529   1.842 -0.4770  0.4510  0.0071
  427SOL    HW1 1706   0.452   1.448   1.828  4.1492 -1.6128  0.5418
  427SOL    HW2 1707   0.320   1.516   1.881 -0.9938 -1.9835 -1.2544
  427SOL     MW 1708   0.401   1.517   1.845  0.0652 -0.1425 -0.0888
  428SOL     OW 1709   0.581   2.625   1.158 -0.2734 -0.1915  0.1707
  428SOL    HW1 1710   0.667   2.592   1.199  0.4024 -1.6611  0.2064
  428SOL    HW2 1711   0.513   2.551   1.163 -0.2554  1.8882  3.3805
  428SOL     MW 1712   0.583   2.610   1.164 -0.1818 -0.1110  0.5989
  429SOL     OW 1713   1.347   2.728   1.041 -0.5002 -0.8411  0.1952
  429SOL    HW1 1714   1.267   2.740   1.093  1.2088  0.0647 -1.1802
  429SOL    HW2 1715   1.329   2.804   0.986  0.2544 -1.7389 -1.2685
  429SOL     MW 1716   1.334   2.740   1.040 -0.1751 -0.8401 -0.1794
  430SOL     OW 1717   1.150   2.737   0.686  0.4008  0.2106  0.0218
  430SOL    HW1 1718   1.170   2.647   0.714  0.1098  1.0189  3.3354
  430SOL    HW2 1719   1.112   2.715   0.597 -2.7591 -0.9777  0.3120
  430SOL     MW 1720   1.147   2.722   0.678 -0.0545  0.1605  0.4973
  431SOL     OW 1721   0.384   2.001   1.141 -0.4185 -0.1590 -0.0085
  431SOL    HW1 1722   0.429   1.915   1.141 -0.8507  2.8405 -3.3966
  431SOL    HW2 1723   0.354   2.009   1.051 -0.2068 -0.1339 -1.5835
  431SOL     MW 1724   0.386   1.991   1.129 -0.4476  0.2400 -0.6634
  432SOL     OW 1725   0.111   0.048   1.150  0.3843 -0.3219 -0.0354
  432SOL    HW1 1726   0.102   0.095   1.233 -1.0722  1.1749  1.4004
  432SOL    HW2 1727   0.040  -0.013   1.163  1.5530  0.2004 -0.2593
  432SOL     MW 1728   0.100   0.046   1.162  0.3463 -0.0555  0.1245
  433SOL     OW 1729   0.649   2.870   1.449 -0.5217 -0.4115  0.3442
  433SOL    HW1 1730   0.692   2.848   1.532 -0.0033  2.4858 -3.0399
  433SOL    HW2 1731   0.721   2.899   1.388 -0.5572 -0.5642 -0.0712
  433SOL     MW 1732   0.664   2.871   1.452 -0.4580 -0.0494 -0.1571
  434SOL     OW 1733   1.586   2.847   1.503 -0.6989 -0.3709 -0.1680
  434SOL    HW1 1734   1.497   2.880   1.518  0.6831 -0.8912  1.1410
  434SOL    HW2 1735   1.597   2.835   1.412 -1.3528  0.1474  1.0410
  434SOL     MW 1736   1.576   2.850   1.493 -0.6028 -0.3712  0.1642
  435SOL     OW 1737   2.839   1.795   0.239 -0.1019  0.0370  0.0337
  435SOL    HW1 1738   2.898   1.859   0.198 -0.0075 -0.0532 -1.9810
  435SOL    HW2 1739   2.815   1.737   0.169  0.2094  1.6420  1.1924
  435SOL     MW 1740   2.844   1.796   0.224 -0.0484  0.2368 -0.0792
  436SOL     OW 1741   1.476   2.798   0.318 -0.9219 -0.2383 -0.2774
  436SOL    HW1 1742   1.537   2.769   0.395 -0.8587 -0.1241  0.3783
  436SOL    HW2 1743   1.436   2.881   0.349  0.6501  0.7687  0.0172
  436SOL     MW 1744   1.478   2.805   0.332 -0.7061 -0.0903 -0.1520
  437SOL     OW 1745   0.830   2.946   1.244  0.3706  0.2226  0.1948
  437SOL    HW1 1746   0.852   3.033   1.265 -1.3673  0.6596  1.0817
  437SOL    HW2 1747   0.772   2.942   1.163 -1.3450  1.1499  0.3755
  437SOL     MW 1748   0.825   2.957   1.236 -0.0850  0.4026  0.3357
  438SOL     OW 1749   0.829   2.526   2.053  0.4063 -0.2940 -0.4848
  438SOL    HW1 1750   0.811   2.477   2.133 -0.4890  2.2660 -2.9987
  438SOL    HW2 1751   0.763   2.489   1.993  1.4563  1.1928 -0.2820
  438SOL     MW 1752   0.818   2.515   2.056  0.4267  0.2399 -0.7898
  439SOL     OW 1753   1.147   2.164   0.309 -0.0164 -0.3678 -0.4892
  439SOL    HW1 1754   1.084   2.180   0.387 -1.6198  0.8649 -0.5121
  439SOL    HW2 1755   1.159   2.255   0.270  1.7315  0.2971 -0.9719
  439SOL     MW 1756   1.140   2.178   0.314  0.0027 -0.1174 -0.5559
  440SOL     OW 1757   1.607   3.048   2.994  0.0271  0.0658  0.1501
  440SOL    HW1 1758   1.612   3.028   3.084 -1.1400 -0.5127 -1.8977
  440SOL    HW2 1759   1.655   2.975   2.956  0.4126  0.4526 -1.4182
  440SOL     MW 1760   1.614   3.036   3.001 -0.0760  0.0405 -0.3270
  441SOL     OW 1761   0.311   2.621   0.553 -0.2992 -0.5950 -0.3285
  441SOL    HW1 1762   0.291   2.593   0.466  2.0442  0.0900  1.3491
  441SOL    HW2 1763   0.335   2.717   0.540  3.8768 -0.4483  0.6943
  441SOL     MW 1764   0.311   2.630   0.539  0.5610 -0.4853  0.0278
  442SOL     OW 1765   3.097   2.338   0.660  0.0100 -0.4611  0.1243
  442SOL    HW1 1766   3.082   2.434   0.645 -0.5618  1.3202 -1.4876
  442SOL    HW2 1767   3.005   2.308   0.666  0.4713 -0.5199  0.5614
  442SOL     MW 1768   3.083   2.347   0.659 -0.0046 -0.2338 -0.0307
  443SOL     OW 1769   1.404   1.742   1.877  0.0666 -0.0295 -1.0830
  443SOL    HW1 1770   1.364   1.762   1.796 -2.7686 -3.6096  0.6205
  443SOL    HW2 1771   1.384   1.652   1.892  1.0008  3.7024 -3.3642
  443SOL     MW 1772   1.396   1.733   1.869 -0.1842 -0.0095 -1.1592
  444SOL     OW 1773   0.863   2.593   1.590 -0.1119 -0.5553  0.5019
  444SOL    HW1 1774   0.955   2.593   1.636  3.5934  0.0160  0.4056
  444SOL    HW2 1775   0.802   2.648   1.652  0.1345  1.4155 -3.0136
  444SOL     MW 1776   0.867   2.600   1.604  0.4095 -0.2199  0.0254
  445SOL     OW 1777   0.972   0.101   1.296 -0.1223  0.3272  0.8633
  445SOL    HW1 1778   0.918   0.177   1.282  0.3010 -0.8081 -0.4803
  445SOL    HW2 1779   1.039   0.096   1.224 -0.2136 -1.4217 -2.3725
  445SOL     MW 1780   0.974   0.110   1.285 -0.0785 -0.0533  0.2591
  446SOL     OW 1781   2.721   2.884   1.041  0.2383  0.2192  0.0579
  446SOL    HW1 1782   2.672   2.916   0.967  0.5681  1.1811  1.8417
  446SOL    HW2 1783   2.755   2.794   1.020 -1.2488  2.2164  0.8153
  446SOL     MW 1784   2.719   2.876   1.028  0.0856  0.6096  0.3931
  447SOL     OW 1785   3.015   2.029   1.685 -0.0883  0.1766  0.1654
  447SOL    HW1 1786   3.068   1.966   1.740  1.8241 -0.5450 -2.1217
  447SOL    HW2 1787   2.959   1.982   1.619 -3.1660  0.9898 -1.7139
  447SOL     MW 1788   3.014   2.014   1.684 -0.2420  0.1887 -0.3843
  448SOL     OW 1789   1.682   2.384   1.688 -0.2947 -0.5868 -0.4142
  448SOL    HW1 1790   1.646   2.294   1.703 -0.1499 -0.6675  1.6985
  448SOL    HW2 1791   1.601   2.439   1.676  1.3176 -2.3423  0.0201
  448SOL     MW 1792   1.667   2.379   1.688 -0.0628 -0.8290 -0.0782
  449SOL     OW 1793   0.842   2.873   0.411 -0.3451 -0.2269  0.0973
  449SOL    HW1 1794   0.787   2.922   0.349  0.0476 -3.4283 -1.1323
  449SOL    HW2 1795   0.786   2.862   0.487 -0.5952 -0.6295  1.2676
  449SOL     MW 1796   0.827   2.878   0.413 -0.3263 -0.7024  0.0895
  450SOL     OW 1797   1.209   2.431   0.662  0.2686 -0.0403  0.3110
  450SOL    HW1 1798   1.225   2.405   0.759  2.2450  1.5337  3.2872
  450SOL    HW2 1799   1.303   2.436   0.641  0.3144 -0.6482  1.4820
  450SOL     MW 1800   1.224   2.428   0.672  0.5354  0.0872  0.8581
  451SOL     OW 1801   0.631   1.955   1.653 -0.4737 -0.3793 -0.1050
  451SOL    HW1 1802   0.713   2.007   1.665 -0.0735  5.2619  2.5530
  451SOL    HW2 1803   0.610   1.950   1.556  1.6120 -2.8098 -0.5582
  451SOL     MW 1804   0.639   1.961   1.642 -0.1457  0.0443  0.1859
  452SOL     OW 1805   0.291   2.684   0.038 -0.8175  0.1024  0.5233
  452SOL    HW1 1806   0.379   2.713   0.060 -2.2059  1.2135  1.5565
  452SOL    HW2 1807   0.276   2.696  -0.056 -2.2312 -2.3108 -1.1254
  452SOL     MW 1808   0.301   2.690   0.028 -1.1872 -0.0694  0.4421
  453SOL     OW 1809   0.417   3.008   1.626 -0.2377 -0.3021  0.0726
  453SOL    HW1 1810   0.498   3.037   1.593 -0.8550  2.5043 -0.8168
  453SOL    HW2 1811   0.358   3.027   1.554  2.3351  1.2088  0.3516
  453SOL     MW 1812   0.420   3.014   1.612  0.0203  0.2675 -0.0080
  454SOL     OW 1813   1.088   2.739   1.193 -0.7240  0.1887  0.0642
  454SOL    HW1 1814   1.077   2.649   1.152  0.0595 -0.6356 -0.3192
  454SOL    HW2 1815   1.019   2.792   1.155 -0.5010 -2.6627 -0.8777
  454SOL     MW 1816   1.077   2.734   1.183 -0.5912 -0.2963 -0.1106
  455SOL     OW 1817   1.633   2.935   0.141 -0.2920  0.4041 -0.4004
  455SOL    HW1 1818   1.686   2.955   0.218 -1.0792 -3.1010 -1.3883
  455SOL    HW2 1819   1.579   2.863   0.174  0.3096 -1.2253 -0.3161
  455SOL     MW 1820   1.633   2.928   0.156 -0.3165 -0.2733 -0.5196
  456SOL     OW 1821   2.891   0.297   1.381  0.4059  0.3001  0.1743
  456SOL    HW1 1822   2.825   0.241   1.328  0.1783 -0.2417 -4.5099
  456SOL    HW2 1823   2.921   0.359   1.314  1.0808 -2.1250 -1.5626
  456SOL     MW 1824   2.887   0.298   1.365  0.4649 -0.0913 -0.6729
  457SOL     OW 1825   0.943   1.545   2.985  0.0444  0.1177  0.2379
  457SOL    HW1 1826   0.865   1.520   3.039 -0.4682  0.7762 -0.9119
  457SOL    HW2 1827   1.015   1.492   3.015 -1.0042  2.7584 -0.8931
  457SOL     MW 1828   0.943   1.535   2.996 -0.1616  0.5530 -0.0630
  458SOL     OW 1829   1.449   1.386   0.627 -0.2786  0.3116 -0.2974
  458SOL    HW1 1830   1.378   1.407   0.691  2.4473 -0.4344  0.2643
  458SOL    HW2 1831   1.408   1.348   0.554  2.6781 -0.7798 -0.1916
  458SOL     MW 1832   1.434   1.384   0.626  0.4712  0.0691 -0.2094
  459SOL     OW 1833   1.583   0.117   0.236 -0.5671  0.0910  0.2629
  459SOL    HW1 1834   1.590   0.038   0.186 -0.2429 -0.2476 -1.4954
  459SOL    HW2 1835   1.524   0.171   0.183  0.1445 -1.1740  2.3438
  459SOL     MW 1836   1.576   0.113   0.223 -0.4304 -0.1206  0.3055
  460SOL     OW 1837   1.733   2.126   0.597  0.1172 -0.4569  0.1186
  460SOL    HW1 1838   1.650   2.083   0.634  2.2473 -0.4162 -1.2997
  460SOL    HW2 1839   1.781   2.037   0.575 -0.9211  1.6313 -3.5426
  460SOL     MW 1840   1.728   2.108   0.599  0.2613 -0.1760 -0.5516
  461SOL     OW 1841   0.377   2.302   0.639  0.2746 -0.0687 -0.2893
  461SOL    HW1 1842   0.323   2.370   0.613  0.4460 -1.4905  0.0719
  461SOL    HW2 1843   0.393   2.333   0.732  1.0169  0.0035 -0.2687
  461SOL     MW 1844   0.372   2.315   0.648  0.3952 -0.2468 -0.2389
  462SOL     OW 1845   0.387   0.267   1.347 -0.1125 -0.4204 -0.3683
  462SOL    HW1 1846   0.437   0.195   1.311  0.0681 -0.6691 -0.2290
  462SOL    HW2 1847   0.452   0.342   1.348  1.6773  3.4329  1.6197
  462SOL     MW 1848   0.402   0.267   1.342  0.1474  0.0552 -0.0877
  463SOL     OW 1849   0.936   0.004   0.684  0.6349 -0.0344  0.0341
  463SOL    HW1 1850   0.995  -0.014   0.610 -1.4217  1.4489  1.2602
  463SOL    HW2 1851   0.849   0.015   0.646  3.4224  2.2963  0.4233
  463SOL     MW 1852   0.933   0.003   0.669  0.7313  0.4688  0.2472
  464SOL     OW 1853   0.852   2.988   2.165 -0.5474  0.1916 -0.3074
  464SOL    HW1 1854   0.808   2.902   2.170  1.6521 -3.1474  0.4897
  464SOL    HW2 1855   0.864   3.025   2.254  4.4969 -0.0387 -0.8819
  464SOL     MW 1856   0.847   2.982   2.178  0.4083 -0.2793 -0.2780
  465SOL     OW 1857   0.681   0.266   0.475 -0.4923 -0.2260 -0.6579
  465SOL    HW1 1858   0.664   0.198   0.540  0.8272  1.3777 -1.6200
  465SOL    HW2 1859   0.707   0.208   0.400 -0.2154 -0.8426  0.3189
  465SOL     MW 1860   0.682   0.249   0.473 -0.2817 -0.0958 -0.6560
  466SOL     OW 1861   1.103   1.995   0.718 -0.0799 -0.1225  0.3923
  466SOL    HW1 1862   1.098   1.910   0.669 -0.4966  0.3974  1.7276
  466SOL    HW2 1863   1.082   2.069   0.655 -1.4319  0.7286  1.0746
  466SOL     MW 1864   1.100   1.994   0.703 -0.3133  0.0584  0.6585
  467SOL     OW 1865   1.270   2.379   0.909 -0.1082  0.3572 -0.3495
  467SOL    HW1 1866   1.351   2.399   0.950 -0.7466  1.1109  0.6604
  467SOL    HW2 1867   1.267   2.276   0.921 -2.3321 -3.0738 -2.6733
  467SOL     MW 1868   1.280   2.368   0.916 -0.4859  0.0040 -0.5229
  468SOL     OW 1869   0.321   2.613   1.996 -0.0886 -0.4895  0.2144
  468SOL    HW1 1870   0.332   2.532   1.946 -0.2402 -1.4804  0.6748
  468SOL    HW2 1871   0.386   2.672   1.957  2.4461  0.2539  1.1697
  468SOL     MW 1872   0.331   2.610   1.984  0.2258 -0.5222  0.4012
  469SOL     OW 1873   0.400   2.064   1.777 -0.2765 -0.4001  0.3061
  469SOL    HW1 1874   0.328   2.048   1.710 -1.3187 -0.3557  1.4506
  469SOL    HW2 1875   0.484   2.024   1.745  1.2236  0.4205 -0.3717
  469SOL     MW 1876   0.401   2.057   1.764 -0.2161 -0.2860  0.3677
  470SOL     OW 1877   3.070   2.565   0.183  0.5040 -0.5064  0.0440
  470SOL    HW1 1878   3.001   2.520   0.236  0.4776 -0.9180  0.7581
  470SOL    HW2 1879   3.062   2.538   0.091  1.4883 -1.8868  0.0674
  470SOL     MW 1880   3.060   2.556   0.178  0.6304 -0.7429  0.1413
  471SOL     OW 1881   1.240   2.760   1.408 -0.3811  0.5110 -0.3112
  471SOL    HW1 1882   1.173   2.742   1.473  0.8199 -0.3762  1.1356
  471SOL    HW2 1883   1.191   2.755   1.330  1.1221  0.7904  1.1918
  471SOL     MW 1884   1.225   2.757   1.406 -0.0243  0.4308  0.0780
  472SOL     OW 1885   2.957   2.101   0.380  0.1067 -0.1676 -0.7345
  472SOL    HW1 1886   2.970   2.053   0.296 -1.4890  0.2121  4.1494
  472SOL    HW2 1887   2.962   2.026   0.441  2.3316  3.0328  0.5589
  472SOL     MW 1888   2.959   2.085   0.377  0.1897  0.3047  0.0805
  473SOL     OW 1889   0.795   2.517   1.326 -0.2292 -0.0948 -0.4294
  473SOL    HW1 1890   0.868   2.463   1.306  1.3887  1.6475  0.1920
  473SOL    HW2 1891   0.802   2.528   1.424 -1.0165 -0.5271  1.0302
  473SOL     MW 1892   0.805   2.511   1.336 -0.1196  0.0781 -0.1548
  474SOL     OW 1893   0.826   2.155   1.719  0.5276  0.4061 -0.3535
  474SOL    HW1 1894   0.912   2.145   1.765 -0.6932  2.4177  0.7532
  474SOL    HW2 1895   0.845   2.205   1.641  1.9985  1.7835 -1.6737
  474SOL     MW 1896   0.840   2.160   1.715  0.5606  0.8532 -0.3817
  475SOL     OW 1897   1.686   3.086   1.415  0.3611  0.0126  0.7296
  475SOL    HW1 1898   1.618   3.070   1.351  1.9672 -0.3294  0.9878
  475SOL    HW2 1899   1.682   3.001   1.460 -1.0067 -0.5841 -3.3126
  475SOL     MW 1900   1.676   3.073   1.413  0.3926 -0.1113  0.2304
  476SOL     OW 1901   1.467   2.614   0.798 -0.1609  0.3112 -0.1645
  476SOL    HW1 1902   1.440   2.647   0.880  1.6197 -1.3918 -1.5757
  476SOL    HW2 1903   1.509   2.695   0.766 -0.1510 -0.9334  1.9153
  476SOL     MW 1904   1.469   2.629   0.805  0.0753 -0.0777 -0.0763
  477SOL     OW 1905   0.839   2.518   0.605  0.2654 -0.0099 -0.5447
  477SOL    HW1 1906   0.916   2.565   0.555  3.9848  3.2674 -0.4062
  477SOL    HW2 1907   0.817   2.435   0.560 -0.2219 -1.3579 -1.5361
  477SOL     MW 1908   0.846   2.513   0.593  0.6919  0.2446 -0.6572
  478SOL     OW 1909   0.203   2.633   1.005  0.6054 -0.0695 -0.1656
  478SOL    HW1 1910   0.215   2.727   0.986  0.5007  1.6645  2.1137
  478SOL    HW2 1911   0.256   2.582   0.947 -0.0734 -0.7630 -0.0273
  478SOL     MW 1912   0.212   2.639   0.995  0.5020  0.0678  0.1534
  479SOL     OW 1913   1.439   1.911   1.329  0.2699 -0.2307  0.1276
  479SOL    HW1 1914   1.399   1.957   1.409  0.3179  0.2718 -0.5116
  479SOL    HW2 1915   1.519   1.874   1.365 -1.0885  0.7828  0.0237
  479SOL     MW 1916   1.444   1.912   1.344  0.0970 -0.0307  0.0295
  480SOL     OW 1917   1.836   2.397   1.349 -0.8259 -0.7479 -0.5384
  480SOL    HW1 1918   1.835   2.326   1.416  0.5244 -0.6393 -4.0492
  480SOL    HW2 1919   1.870   2.353   1.271 -1.7221 -2.4400 -0.4189
  480SOL     MW 1920   1.841   2.382   1.348 -0.7660 -0.9568 -0.9858
  481SOL     OW 1921   1.172   0.151   1.066  0.8401  0.0707 -0.5324
  481SOL    HW1 1922   1.238   0.153   0.995  0.0499 -1.5385  0.6113
  481SOL    HW2 1923   1.164   0.241   1.101 -3.5570 -0.2954 -0.3556
  481SOL     MW 1924   1.180   0.163   1.061  0.1557 -0.1899 -0.3582
  482SOL     OW 1925   1.051   3.042   0.436  0.1766  0.1798  0.6402
  482SOL    HW1 1926   0.970   2.989   0.435 -0.8347  0.5904 -1.4981
  482SOL    HW2 1927   1.026   3.129   0.402 -1.9535 -1.9794 -2.0361
  482SOL     MW 1928   1.037   3.046   0.432 -0.2378 -0.0509  0.0050
  483SOL     OW 1929   0.357   2.881   0.494 -0.6250 -0.5524  0.3200
  483SOL    HW1 1930   0.303   2.918   0.419  1.7915 -2.8521  0.6146
  483SOL    HW2 1931   0.337   2.937   0.571  2.5515  0.7796  0.9576
  483SOL     MW 1932   0.347   2.893   0.494  0.1129 -0.6801  0.4430
  484SOL     OW 1933   1.683   1.848   1.449 -0.0738  0.0531 -0.0538
  484SOL    HW1 1934   1.721   1.932   1.412  0.8507  1.4003  1.2421
  484SOL    HW2 1935   1.690   1.862   1.543  1.5870 -1.8392  1.3377
  484SOL     MW 1936   1.689   1.861   1.456  0.2673 -0.0188  0.3007
  485SOL     OW 1937   0.508   2.308   0.314  0.8265  0.1405 -0.1081
  485SOL    HW1 1938   0.581   2.347   0.361  1.1589  1.1144 -2.0442
  485SOL    HW2 1939   0.439   2.361   0.359 -0.5669  0.5574  2.3483
  485SOL     MW 1940   0.509   2.321   0.326  0.6865  0.3240 -0.0394
  486SOL     OW 1941   0.097   2.513   1.486 -0.3763  0.3546 -0.1320
  486SOL    HW1 1942   0.095   2.605   1.464  0.8353  0.4281  0.0719
  486SOL    HW2 1943   0.107   2.501   1.584  2.8922  2.2101  3.0524
  486SOL     MW 1944   0.098   2.523   1.496  0.2148  0.6091  0.3150
  487SOL     OW 1945   1.337   1.580   1.113  0.2734 -0.1025 -0.3529
  487SOL    HW1 1946   1.293   1.663   1.096 -2.3050 -0.1427 -0.1578
  487SOL    HW2 1947   1.420   1.587   1.064 -1.0704 -3.3018  0.5047
  487SOL     MW 1948   1.342   1.592   1.105 -0.2441 -0.5299 -0.2140
  488SOL     OW 1949   1.432   1.821   0.581  0.4680  0.0905  0.4156
  488SOL    HW1 1950   1.388   1.900   0.551 -0.7071 -0.5754  0.0523
  488SOL    HW2 1951   1.386   1.746   0.534  0.1913  0.4625 -2.0216
  488SOL     MW 1952   1.420   1.822   0.571  0.2765  0.0517  0.0461
  489SOL     OW 1953   0.691   0.693   0.525 -0.1857  0.2531 -0.0278
  489SOL    HW1 1954   0.628   0.637   0.478  0.5719 -0.1705  0.4894
  489SOL    HW2 1955   0.642   0.726   0.601 -1.9806 -4.3067  0.6900
  489SOL     MW 1956   0.676   0.690   0.529 -0.3226 -0.4044  0.1351
  490SOL     OW 1957   1.324   2.058   0.496  0.2646 -0.0446 -0.6249
  490SOL    HW1 1958   1.403   2.078   0.443  0.2973 -0.2528 -1.2109
  490SOL    HW2 1959   1.261   2.119   0.458 -1.2335 -1.3696  0.9503
  490SOL     MW 1960   1.326   2.069   0.484  0.0713 -0.2469 -0.4944
  491SOL     OW 1961   1.341   3.015   0.419  0.0663 -0.2239 -0.1108
  491SOL    HW1 1962   1.378   3.075   0.482 -1.2686  1.8461 -1.0119
  491SOL    HW2 1963   1.248   3.010   0.436  2.4333  2.7889  0.9345
  491SOL     MW 1964   1.333   3.023   0.430  0.2025  0.4468 -0.0918
  492SOL     OW 1965   1.479   2.132   0.721 -0.3859  0.2142  0.4185
  492SOL    HW1 1966   1.420   2.099   0.655  0.8142  0.5084  1.4235
  492SOL    HW2 1967   1.425   2.132   0.796  2.6021 -1.7683 -1.0937
  492SOL     MW 1968   1.464   2.128   0.722  0.1666 -0.0086  0.3516
  493SOL     OW 1969   0.222   3.063   0.323  0.6351  0.2214 -0.2557
  493SOL    HW1 1970   0.142   3.067   0.377 -0.2239 -1.4903  3.0123
  493SOL    HW2 1971   0.193   3.012   0.245 -0.9439 -0.3357  0.2176
  493SOL     MW 1972   0.208   3.057   0.320  0.3134 -0.0780  0.2379
  494SOL     OW 1973   0.398   2.344   1.817  0.2221  0.6875 -0.1130
  494SOL    HW1 1974   0.400   2.243   1.816 -1.2097 -1.3796  0.4319
  494SOL    HW2 1975   0.415   2.376   1.726 -3.4212 -1.5162  1.5112
  494SOL     MW 1976   0.400   2.335   1.805 -0.4475  0.1240  0.1732
  495SOL     OW 1977   2.810   1.592   2.681  0.8047  0.1150  0.3927
  495SOL    HW1 1978   2.795   1.649   2.755  1.6015  0.3091 -0.1504
  495SOL    HW2 1979   2.741   1.526   2.692 -0.3933 -1.0874  0.3300
  495SOL     MW 1980   2.799   1.591   2.692  0.7517 -0.0181  0.3128
  496SOL     OW 1981   2.839   2.279   2.709  0.0300 -0.0408 -0.3772
  496SOL    HW1 1982   2.840   2.188   2.739 -0.2492  2.5525  0.7073
  496SOL    HW2 1983   2.920   2.325   2.731 -2.4100  0.5682 -3.1093
  496SOL     MW 1984   2.850   2.273   2.716 -0.3288  0.3817 -0.5946
  497SOL     OW 1985   1.511   2.428   2.580  0.2091  0.2384  0.0903
  497SOL    HW1 1986   1.518   2.369   2.506 -1.0857  2.0508  0.1470
  497SOL    HW2 1987   1.474   2.369   2.651  0.6961  2.2654  3.7967
  497SOL     MW 1988   1.507   2.412   2.580  0.1025  0.7449  0.5868
  498SOL     OW 1989   1.450   2.745   2.333 -0.5560  0.1773 -0.0473
  498SOL    HW1 1990   1.427   2.652   2.317  2.0416 -0.9688 -0.9561
  498SOL    HW2 1991   1.528   2.744   2.393  1.4663  0.9961 -1.1167
  498SOL     MW 1992   1.457   2.733   2.339  0.0536  0.1341 -0.3083
  499SOL     OW 1993   0.986   0.067   0.091  0.2045  0.1732 -0.2989
  499SOL    HW1 1994   0.908   0.061   0.140 -0.5689 -1.4681 -1.3075
  499SOL    HW2 1995   1.022  -0.017   0.102  0.7655  0.8864  1.7123
  499SOL     MW 1996   0.981   0.055   0.099  0.1765  0.0507 -0.1666
  500SOL     OW 1997   1.045   2.528   2.713  0.3651 -0.1860  0.3631
  500SOL    HW1 1998   1.086   2.478   2.780 -0.0842 -1.1740 -2.1655
  500SOL    HW2 1999   0.978   2.581   2.757  2.1729 -0.0965  0.2158
  500SOL     MW 2000   1.042   2.528   2.728  0.5444 -0.3046  0.0100
  501SOL     OW 2001   1.836   2.293   2.956  0.1157 -0.0907  0.6678
  501SOL    HW1 2002   1.812   2.386   2.958 -2.2330 -0.3190 -2.1657
  501SOL    HW2 2003   1.930   2.284   2.957  1.0201 -0.2966  2.3920
  501SOL     MW 2004   1.845   2.304   2.957 -0.0748 -0.1480  0.5214
  502SOL     OW 2005   0.319   2.763   2.845 -0.2956 -0.2206  0.0973
  502SOL    HW1 2006   0.394   2.780   2.789  0.4185  1.3037  1.1379
  502SOL    HW2 2007   0.302   2.852   2.881 -1.2865 -3.3039  0.2564
  502SOL     MW 2008   0.327   2.777   2.842 -0.3321 -0.4263  0.2556
  503SOL     OW 2009   1.130   2.509   2.058  0.1560  0.3195 -0.6034
  503SOL    HW1 2010   1.185   2.578   2.026  1.8359 -1.2730  2.1420
  503SOL    HW2 2011   1.055   2.478   2.001  1.3148  0.0490  2.6655
  503SOL     MW 2012   1.127   2.514   2.046  0.5305  0.0737  0.1901
  504SOL     OW 2013   0.053   2.662   2.204  0.0612  0.2905 -0.1544
  504SOL    HW1 2014   0.134   2.630   2.166  0.3447  1.7958  0.7078
  504SOL    HW2 2015   0.021   2.587   2.242 -0.0336  1.9931 -1.3941
  504SOL     MW 2016   0.059   2.648   2.204  0.0861  0.7137 -0.2042
  505SOL     OW 2017   1.576   2.822   2.742 -0.1126  0.1150  0.4384
  505SOL    HW1 2018   1.621   2.827   2.651  2.4377  1.1343 -1.6330
  505SOL    HW2 2019   1.508   2.893   2.748 -1.0920  0.1583 -0.2056
  505SOL     MW 2020   1.573   2.832   2.730  0.0947  0.2552  0.0801
  506SOL     OW 2021   1.613   0.117   2.748  0.0495 -0.5934  0.1038
  506SOL    HW1 2022   1.595   0.050   2.817  3.0903  1.0577 -0.4865
  506SOL    HW2 2023   1.686   0.084   2.700 -4.1118  1.5569  0.1815
  506SOL     MW 2024   1.620   0.104   2.750 -0.0984 -0.0919  0.0362
  507SOL     OW 2025   0.847   2.684   2.828  0.1871  0.3997  0.0610
  507SOL    HW1 2026   0.833   2.750   2.761  0.6912 -1.3115 -2.4722
  507SOL    HW2 2027   0.765   2.638   2.834  1.0223  0.7022  0.4605
  507SOL     MW 2028   0.835   2.687   2.820  0.3638  0.2139 -0.2206
  508SOL     OW 2029   1.225   2.118   2.508  0.0904 -0.6973  0.0896
  508SOL    HW1 2030   1.266   2.181   2.574  1.5562  0.8648  0.1491
  508SOL    HW2 2031   1.149   2.082   2.558 -0.9528  1.9739  0.8477
  508SOL     MW 2032   1.221   2.122   2.523  0.1462 -0.1388  0.1975
  509SOL     OW 2033   0.593   2.542   2.848  0.1268 -0.6132  0.0024
  509SOL    HW1 2034   0.576   2.497   2.758  1.3395  1.1231 -2.5810
  509SOL    HW2 2035   0.528   2.615   2.853  0.2116  3.2075  0.7843
  509SOL     MW 2036   0.582   2.545   2.837  0.2980  0.1200 -0.2352
  510SOL     OW 2037   1.513   2.594   1.634 -0.6350 -0.3730 -0.0971
  510SOL    HW1 2038   1.550   2.675   1.604  0.7097 -2.0644 -1.3608
  510SOL    HW2 2039   1.468   2.617   1.716 -1.1021  0.8229 -0.2846
  510SOL     MW 2040   1.512   2.608   1.641 -0.5192 -0.4384 -0.2886
  511SOL     OW 2041   0.355   2.528   2.498 -0.5208 -0.5757 -0.5114
  511SOL    HW1 2042   0.432   2.515   2.555  0.9724 -1.0119  1.0412
  511SOL    HW2 2043   0.391   2.525   2.408 -0.6470 -0.3432 -0.7401
  511SOL     MW 2044   0.370   2.526   2.494 -0.3405 -0.6026 -0.3367
  512SOL     OW 2045   0.974   1.967   2.836  0.6162 -0.1061  0.1567
  512SOL    HW1 2046   0.880   1.981   2.845 -0.8705 -0.4320 -0.9154
  512SOL    HW2 2047   1.009   1.899   2.896 -0.0607  1.4304 -0.6108
  512SOL     MW 2048   0.966   1.960   2.845  0.3308  0.0536 -0.0860
  513SOL     OW 2049   1.497   2.470   2.276 -0.0494  0.9534  0.1510
  513SOL    HW1 2050   1.579   2.511   2.242 -0.5372 -0.3029 -0.8727
  513SOL    HW2 2051   1.525   2.377   2.273  0.1146 -0.3251 -1.4098
  513SOL     MW 2052   1.512   2.463   2.271 -0.0921  0.6189 -0.1900
  514SOL     OW 2053   0.249   2.368   2.693  0.0523 -0.4237 -0.1697
  514SOL    HW1 2054   0.288   2.419   2.623 -0.5328 -0.1999 -0.0305
  514SOL    HW2 2055   0.313   2.318   2.740 -0.6678  2.3250 -1.0541
  514SOL     MW 2056   0.262   2.368   2.690 -0.1199 -0.0315 -0.2680
  515SOL     OW 2057   1.076   2.003   1.865  0.1079 -0.0165 -0.4226
  515SOL    HW1 2058   1.080   2.093   1.847 -1.5263 -3.6815 -1.3922
  515SOL    HW2 2059   1.142   1.987   1.935  0.0155  0.7111  3.7672
  515SOL     MW 2060   1.086   2.013   1.872 -0.1199 -0.4041  0.0023
  516SOL     OW 2061   1.303   2.636   2.914 -0.0152 -0.0774  0.3498
  516SOL    HW1 2062   1.314   2.615   2.819 -0.0835 -2.5056  0.1596
  516SOL    HW2 2063   1.251   2.560   2.953  1.2988  1.2543  0.8826
  516SOL     MW 2064   1.298   2.623   2.907  0.1492 -0.2221  0.3950
  517SOL     OW 2065   0.500   2.264   2.281  0.5420 -0.0377 -0.8298
  517SOL    HW1 2066   0.460   2.346   2.284  1.2500 -1.2848 -1.1572
  517SOL    HW2 2067   0.472   2.233   2.193  0.7154  1.0492  0.5950
  517SOL     MW 2068   0.491   2.270   2.270  0.6583 -0.0589 -0.6850
  518SOL     OW 2069   1.738   0.187   3.043  0.8438 -0.1090 -0.1218
  518SOL    HW1 2070   1.755   0.179   3.134 -3.1356 -2.2077 -0.1048
  518SOL    HW2 2071   1.695   0.101   3.031  3.1730 -1.3543  0.3798
  518SOL     MW 2072   1.734   0.175   3.053  0.6261 -0.5502 -0.0534
  519SOL     OW 2073   0.604   2.346   1.975  0.0814 -0.3330 -0.1989
  519SOL    HW1 2074   0.638   2.253   1.976 -0.4385 -1.9807  1.3378
  519SOL    HW2 2075   0.521   2.350   1.924  1.2069  2.0109  1.2415
  519SOL     MW 2076   0.598   2.334   1.968  0.1613 -0.2411  0.1939
  520SOL     OW 2077   1.178   2.142   2.884  0.3162  0.5468  0.1158
  520SOL    HW1 2078   1.094   2.100   2.869  2.0138  1.9609 -1.3886
  520SOL    HW2 2079   1.204   2.116   2.972 -1.9806 -1.2160  1.1053
  520SOL     MW 2080   1.171   2.133   2.894  0.2372  0.5008  0.0478
  521SOL     OW 2081   1.748   2.049   2.193  0.3689 -0.5061  0.2737
  521SOL    HW1 2082   1.794   2.061   2.106 -0.2884  0.0338 -0.2551
  521SOL    HW2 2083   1.723   1.952   2.189 -1.6379  1.8648 -0.3062
  521SOL     MW 2084   1.751   2.038   2.181  0.0174 -0.1221  0.1274
  522SOL     OW 2085   2.826   2.571   2.180 -0.4375 -0.0789  0.3742
  522SOL    HW1 2086   2.909   2.542   2.214  0.7724  1.0031  0.4197
  522SOL    HW2 2087   2.844   2.669   2.180  2.2640  2.7970  1.3655
  522SOL     MW 2088   2.839   2.580   2.185  0.0786  0.4433  0.5110
  523SOL     OW 2089   0.799   1.452   2.156 -0.2393  0.0192 -0.3147
  523SOL    HW1 2090   0.783   1.494   2.067  0.0432 -2.5178 -1.7369
  523SOL    HW2 2091   0.895   1.448   2.155  1.9321  0.8345  0.6366
  523SOL     MW 2092   0.810   1.457   2.144  0.0845 -0.2080 -0.3768
  524SOL     OW 2093   0.556   2.369   3.074  0.2094  0.4081  0.2578
  524SOL    HW1 2094   0.567   2.426   2.990 -0.9981 -0.3416 -0.5197
  524SOL    HW2 2095   0.639   2.316   3.086 -2.0758  1.7307 -1.9118
  524SOL     MW 2096   0.568   2.369   3.064 -0.2515  0.4837 -0.1310
  525SOL     OW 2097   0.300   2.166   2.110  0.1243  0.0628 -0.1128
  525SOL    HW1 2098   0.270   2.109   2.190  0.3989  1.0006 -0.6962
  525SOL    HW2 2099   0.356   2.110   2.058 -0.7014 -0.3254 -0.0052
  525SOL     MW 2100   0.304   2.151   2.114  0.0516  0.1353 -0.1755
  526SOL     OW 2101   0.717   2.103   1.971  0.5061  0.6402  0.6347
  526SOL    HW1 2102   0.743   2.142   1.893  1.9467  2.0957 -0.7237
  526SOL    HW2 2103   0.783   2.128   2.045 -1.5163  1.9121  0.8942
  526SOL     MW 2104   0.729   2.112   1.971  0.4294  1.0000  0.4897
  527SOL     OW 2105   1.280   1.913   2.050 -0.2126  0.0440 -0.3727
  527SOL    HW1 2106   1.253   1.859   2.126  0.7048  0.1856 -1.2624
  527SOL    HW2 2107   1.346   1.866   1.999  0.9796  1.7776 -0.7542
  527SOL     MW 2108   1.285   1.899   2.054  0.0657  0.2914 -0.5405
  528SOL     OW 2109   0.580   2.891   2.987 -0.1012 -0.1582  0.6841
  528SOL    HW1 2110   0.632   2.969   2.968  2.3410  0.7871  3.4271
  528SOL    HW2 2111   0.541   2.856   2.910 -0.0731 -0.2734  0.7396
  528SOL     MW 2112   0.582   2.897   2.974  0.2247 -0.0486  1.0533
  529SOL     OW 2113   1.110   2.280   1.804 -0.2668  0.0286  0.0808
  529SOL    HW1 2114   1.192   2.275   1.859  1.5361  0.1050 -0.0588
  529SOL    HW2 2115   1.135   2.259   1.710  1.6290 -0.7424 -0.4673
  529SOL     MW 2116   1.124   2.276   1.799  0.2212 -0.0630 -0.0099
  530SOL     OW 2117   1.148   2.400   2.955 -0.9861 -0.6894  0.0614
  530SOL    HW1 2118   1.072   2.404   3.020 -0.1399 -3.3353  2.5556
  530SOL    HW2 2119   1.151   2.307   2.931 -1.1131  1.8286  1.2228
  530SOL     MW 2120   1.138   2.388   2.960 -0.8912 -0.7063  0.5437
  531SOL     OW 2121   0.883   1.798   2.615  0.1385 -0.1643  0.0493
  531SOL    HW1 2122   0.909   1.843   2.689 -1.6249  0.8678  0.0135
  531SOL    HW2 2123   0.844   1.713   2.636  0.9419 -0.1127 -0.6480
  531SOL     MW 2124   0.881   1.793   2.627  0.0118 -0.0213 -0.0474
  532SOL     OW 2125   1.750   0.350   2.813 -0.1174 -0.2192  0.0825
  532SOL    HW1 2126   1.698   0.284   2.763 -0.6282 -1.3010  0.1021
  532SOL    HW2 2127   1.741   0.320   2.906 -1.8451 -0.3535 -0.7655
  532SOL     MW 2128   1.742   0.337   2.819 -0.4127 -0.3796 -0.0268
  533SOL     OW 2129   1.773   2.816   2.924  0.1473 -0.1497  0.3206
  533SOL    HW1 2130   1.740   2.749   2.988 -1.2359 -0.8704  1.3602
  533SOL    HW2 2131   1.721   2.797   2.845 -3.0169 -0.1728  2.1835
  533SOL     MW 2132   1.762   2.804   2.922 -0.4527 -0.2478  0.7035
  534SOL     OW 2133   1.739   2.507   2.498 -0.1412 -0.3927 -0.1370
  534SOL    HW1 2134   1.644   2.490   2.528  3.6395  2.1250  0.9772
  534SOL    HW2 2135   1.786   2.506   2.578 -0.9345  1.9379 -0.9834
  534SOL     MW 2136   1.733   2.505   2.513  0.2529  0.2470 -0.1016
  535SOL     OW 2137   1.783   2.384   1.921 -0.2794 -0.0228 -0.3575
  535SOL    HW1 2138   1.737   2.394   1.837 -0.6540  0.9869  3.4940
  535SOL    HW2 2139   1.864   2.433   1.915 -0.1501  1.2091  0.6056
  535SOL     MW 2140   1.788   2.392   1.909 -0.3117  0.2729  0.2778
  536SOL     OW 2141   0.422   1.879   2.004  0.3956 -0.1287  0.4225
  536SOL    HW1 2142   0.426   1.931   1.919  0.5474  0.2114  0.3302
  536SOL    HW2 2143   0.514   1.851   2.020  1.1868 -3.3762  1.7896
  536SOL     MW 2144   0.435   1.882   1.995  0.5200 -0.5123  0.5907
  537SOL     OW 2145   1.014   0.194   2.938 -0.6585  0.1820 -0.1471
  537SOL    HW1 2146   1.012   0.166   3.029  0.5525 -0.5402 -0.8758
  537SOL    HW2 2147   1.011   0.289   2.934 -1.5275 -2.6535 -2.0858
  537SOL     MW 2148   1.013   0.203   2.949 -0.6134 -0.2874 -0.4990
  538SOL     OW 2149   1.258   0.066   2.998  0.5516 -0.4530  0.5506
  538SOL    HW1 2150   1.183   0.114   2.964 -0.4772 -1.1413 -1.2192
  538SOL    HW2 2151   1.302   0.135   3.056  0.6002  0.4348 -3.0277
  538SOL     MW 2152   1.254   0.081   3.001  0.4223 -0.4267 -0.1550
  539SOL     OW 2153   0.719   2.716   2.493  0.6021 -0.0774  0.7656
  539SOL    HW1 2154   0.799   2.764   2.517  1.1816  0.1695 -0.8780
  539SOL    HW2 2155   0.757   2.629   2.515 -0.7832 -0.0546 -0.4260
  539SOL     MW 2156   0.735   2.711   2.499  0.4957 -0.0418  0.3915
  540SOL     OW 2157   0.404   2.221   2.868  0.3319 -0.7148 -0.2536
  540SOL    HW1 2158   0.469   2.266   2.934  1.0613  0.5813  1.3825
  540SOL    HW2 2159   0.351   2.169   2.926 -0.3807  0.7791  1.5366
  540SOL     MW 2160   0.405   2.220   2.885  0.3341 -0.3467  0.1984
  541SOL     OW 2161   0.198   2.909   2.278 -0.0464 -0.1827  0.7097
  541SOL    HW1 2162   0.138   2.842   2.242  1.4736  0.0061 -0.8541
  541SOL    HW2 2163   0.229   2.874   2.367 -2.7875  0.9814  0.5258
  541SOL     MW 2164   0.194   2.895   2.285 -0.2075 -0.0042  0.4791
  542SOL     OW 2165   0.845   2.345   2.742  0.1008 -0.1942  0.3265
  542SOL    HW1 2166   0.818   2.337   2.830  0.5793  1.2651 -3.6623
  542SOL    HW2 2167   0.927   2.391   2.738  0.8016 -3.2652 -1.0158
  542SOL     MW 2168   0.852   2.350   2.753  0.2564 -0.4069 -0.3769
  543SOL     OW 2169   1.366   2.649   2.618  0.1132 -0.7805 -0.6456
  543SOL    HW1 2170   1.409   2.563   2.600  1.1726 -2.1894  0.7830
  543SOL    HW2 2171   1.432   2.712   2.644 -1.9718 -0.3620  1.5629
  543SOL     MW 2172   1.380   2.646   2.619 -0.0221 -0.9112 -0.1658
  544SOL     OW 2173   0.704   0.115   2.658  0.2691 -0.2200 -0.7149
  544SOL    HW1 2174   0.617   0.124   2.628 -0.3258  0.4167  0.1149
  544SOL    HW2 2175   0.748   0.046   2.599 -1.5903 -2.6026 -1.6938
  544SOL     MW 2176   0.699   0.107   2.647 -0.0547 -0.4504 -0.7346
  545SOL     OW 2177   1.547   2.194   2.385  0.6096  0.5406 -0.4761
  545SOL    HW1 2178   1.492   2.113   2.392 -2.4598  0.2526 -1.1586
  545SOL    HW2 2179   1.629   2.160   2.332  2.5939 -0.3587 -1.8592
  545SOL     MW 2180   1.551   2.179   2.379  0.4664  0.3839 -0.7486
  546SOL     OW 2181   3.013   2.005   0.147 -0.2547  0.9073  0.3045
  546SOL    HW1 2182   2.985   2.089   0.100 -0.4817  0.5054 -0.9868
  546SOL    HW2 2183   3.075   1.960   0.091 -0.2118 -1.0331 -0.5219
  546SOL     MW 2184   3.018   2.010   0.134 -0.2790  0.5982  0.0251
  547SOL     OW 2185   0.148   2.914   0.108 -0.3783  0.3899  0.1110
  547SOL    HW1 2186   0.165   2.964   0.027  1.4779 -1.0462 -0.3342
  547SOL    HW2 2187   0.190   2.826   0.093 -0.5247  0.8745 -1.4893
  547SOL     MW 2188   0.156   2.909   0.096 -0.1527  0.2644 -0.1589
  548SOL     OW 2189   0.260   2.526   0.285 -0.1081 -0.3761  0.2891
  548SOL    HW1 2190   0.295   2.564   0.201  0.5536  0.7805  0.5762
  548SOL    HW2 2191   0.166   2.509   0.264 -2.2242 -1.0416 -0.5032
  548SOL     MW 2192   0.252   2.529   0.271 -0.3000 -0.3113  0.2224
  549SOL     OW 2193   0.692   1.832   2.061 -0.5264 -0.5230 -0.5495
  549SOL    HW1 2194   0.700   1.934   2.037  0.3341  3.2201  1.4621
  549SOL    HW2 2195   0.689   1.836   2.161  0.7652  2.4754  0.4809
  549SOL     MW 2196   0.693   1.846   2.071 -0.2425  0.3665 -0.1481
  550SOL     OW 2197   1.798   1.739   2.496  0.9921 -0.8965  0.2075
  550SOL    HW1 2198   1.792   1.743   2.399  0.5486  1.2505 -2.5398
  550SOL    HW2 2199   1.800   1.835   2.527 -1.3486  2.6252  1.1869
  550SOL     MW 2200   1.798   1.752   2.488  0.6247 -0.1485 -0.0258
  551SOL     OW 2201   0.858   2.324   0.215  0.2469 -1.0636  0.3111
  551SOL    HW1 2202   0.938   2.379   0.210  2.4817 -0.9770 -0.3654
  551SOL    HW2 2203   0.851   2.290   0.124 -0.0947  0.1820 -1.4619
  551SOL     MW 2204   0.868   2.327   0.202  0.4967 -0.8878 -0.0121
  552SOL     OW 2205   1.688   1.735   2.246  0.3758 -0.1531  0.2039
  552SOL    HW1 2206   1.608   1.689   2.278 -0.3515 -0.9827  1.4209
  552SOL    HW2 2207   1.747   1.672   2.196  2.3922 -2.6846 -0.9438
  552SOL     MW 2208   1.685   1.720   2.244  0.5459 -0.5966  0.2130
  553SOL     OW 2209   1.186   2.295   1.530  0.1726 -0.0796 -0.1582
  553SOL    HW1 2210   1.218   2.201   1.531 -1.0540 -0.2971  2.9986
  553SOL    HW2 2211   1.260   2.347   1.503 -1.3908  0.0440 -1.1497
  553SOL     MW 2212   1.200   2.289   1.527 -0.1955 -0.0920  0.1275
  554SOL     OW 2213   0.538   2.818   2.716  0.1976 -0.5515 -0.5555
  554SOL    HW1 2214   0.512   2.903   2.674 -1.3033 -1.5375  1.9839
  554SOL    HW2 2215   0.591   2.778   2.643  1.4078  0.6815  1.3933
  554SOL     MW 2216   0.542   2.824   2.701  0.1592 -0.5189  0.0366
  555SOL     OW 2217   0.574   2.397   2.600 -0.2463  0.1307 -0.2439
  555SOL    HW1 2218   0.575   2.303   2.613  1.8617  1.1285 -0.7291
  555SOL    HW2 2219   0.665   2.416   2.579  2.5795 -2.2236 -0.2481
  555SOL     MW 2220   0.586   2.387   2.599  0.4046 -0.0483 -0.3085
  556SOL     OW 2221   1.060   1.844   0.130  0.2057 -0.1674  0.1733
  556SOL    HW1 2222   1.092   1.798   0.051  1.5870  0.6457  0.4240
  556SOL    HW2 2223   1.139   1.877   0.178 -1.2138 -1.6222  0.5852
  556SOL     MW 2224   1.074   1.842   0.126  0.2007 -0.2520  0.2608
  557SOL     OW 2225   1.038   2.696   0.438  0.0152  0.6981  0.2842
  557SOL    HW1 2226   1.101   2.689   0.364  3.5171 -0.0452 -0.3292
  557SOL    HW2 2227   0.962   2.750   0.412  0.0888  0.0854 -0.2092
  557SOL     MW 2228   1.037   2.702   0.425  0.4870  0.5192  0.1382
  558SOL     OW 2229   0.256   2.097   3.079  0.1044  0.1819  0.1103
  558SOL    HW1 2230   0.203   2.019   3.077  3.1952  2.7232  1.0205
  558SOL    HW2 2231   0.202   2.172   3.093 -1.1011  1.5331  0.0220
  558SOL     MW 2232   0.242   2.097   3.080  0.3531  0.6955  0.2188
  559SOL     OW 2233   1.243   2.251   2.046 -0.3139  0.4920  0.2933
  559SOL    HW1 2234   1.222   2.340   2.081 -2.7690 -1.0570  0.5830
  559SOL    HW2 2235   1.220   2.190   2.117 -2.3996 -1.0409  1.5981
  559SOL     MW 2236   1.237   2.255   2.060 -0.9130  0.0854  0.5037
  560SOL     OW 2237   1.954   2.978   0.050  0.2900  0.1927  0.1188
  560SOL    HW1 2238   2.010   2.978  -0.023 -0.6286 -0.0328  0.6126
  560SOL    HW2 2239   1.877   2.936   0.019 -0.8094 -0.2206 -0.0793
  560SOL     MW 2240   1.951   2.973   0.036  0.0238  0.1084  0.1578
  561SOL     OW 2241   0.466   2.072   0.154  0.1068  0.0596  0.1707
  561SOL    HW1 2242   0.408   2.102   0.081 -0.4742  0.3830 -5.3496
  561SOL    HW2 2243   0.497   2.155   0.194 -1.8138 -2.3126 -3.6846
  561SOL     MW 2244   0.463   2.087   0.150 -0.2232 -0.2107 -1.0663
  562SOL     OW 2245   0.853   2.140   2.207  0.3913  0.2184  0.4125
  562SOL    HW1 2246   0.828   2.232   2.239 -2.1443  0.7141  1.3889
  562SOL    HW2 2247   0.950   2.128   2.203 -1.5972  0.3838  1.6764
  562SOL     MW 2248   0.863   2.150   2.211 -0.2056  0.3057  0.7081
  563SOL     OW 2249   1.272   0.286   0.486  0.1193  0.1577  0.4181
  563SOL    HW1 2250   1.200   0.254   0.431  3.1021 -0.9786  1.2014
  563SOL    HW2 2251   1.303   0.203   0.530 -3.5061 -1.7974 -1.8800
  563SOL     MW 2252   1.266   0.271   0.485  0.0345 -0.2502  0.2182
  564SOL     OW 2253   0.996   2.577   2.324 -0.0081  0.4068 -0.1342
  564SOL    HW1 2254   1.039   2.568   2.236 -0.3873 -1.7384  1.1716
  564SOL    HW2 2255   1.055   2.627   2.385 -3.3752  2.7978  2.2685
  564SOL     MW 2256   1.009   2.583   2.321 -0.5024  0.4392  0.3551
  565SOL     OW 2257   2.923   2.669   2.716  0.6373 -0.4542 -0.0667
  565SOL    HW1 2258   2.966   2.747   2.683 -1.8455  1.5561  2.0031
  565SOL    HW2 2259   2.867   2.642   2.635 -0.0680 -0.2914 -1.4874
  565SOL     MW 2260   2.922   2.676   2.701  0.2167 -0.1675  0.0190
  566SOL     OW 2261   2.185   2.032   2.368  0.3571 -0.1356  0.0535
  566SOL    HW1 2262   2.203   2.023   2.275  0.7779  0.4221 -1.1663
  566SOL    HW2 2263   2.239   2.111   2.387 -0.7509  2.0397 -0.5369
  566SOL     MW 2264   2.194   2.041   2.358  0.2664  0.2250 -0.1853
  567SOL     OW 2265   1.170   2.892   0.097  0.4977  0.3020 -0.6008
  567SOL    HW1 2266   1.218   2.957   0.147 -1.2991  2.7274  0.2504
  567SOL    HW2 2267   1.191   2.902   0.004 -0.8222  2.4891 -1.9787
  567SOL     MW 2268   1.179   2.902   0.092  0.0865  0.9106 -0.6703
  568SOL     OW 2269   1.630   2.120   2.798 -0.2786  0.3490  0.0943
  568SOL    HW1 2270   1.688   2.186   2.834 -0.8842  1.1063 -3.4296
  568SOL    HW2 2271   1.681   2.078   2.720 -0.0019 -1.1773  1.2663
  568SOL     MW 2272   1.644   2.123   2.792 -0.3220  0.2475 -0.2160
  569SOL     OW 2273   0.066   2.212   2.475  1.0767 -0.5476 -0.3691
  569SOL    HW1 2274   0.020   2.279   2.416 -1.0613  0.7332 -2.4626
  569SOL    HW2 2275   0.079   2.264   2.559 -0.1608  0.9873  0.3704
  569SOL     MW 2276   0.062   2.228   2.478  0.6313 -0.1761 -0.5478
  570SOL     OW 2277   1.531   0.354   0.455 -0.2614 -0.1034  0.1092
  570SOL    HW1 2278   1.437   0.343   0.475  0.5094 -0.3389 -0.3573
  570SOL    HW2 2279   1.571   0.408   0.520  0.6110  1.7345 -0.6741
  570SOL     MW 2280   1.524   0.360   0.466 -0.0446  0.1080 -0.0557
  571SOL     OW 2281   1.445   2.456   2.016  0.2404 -0.2281  0.4088
  571SOL    HW1 2282   1.474   2.460   2.105  0.6033 -3.3366 -2.2507
  571SOL    HW2 2283   1.467   2.367   1.998 -0.0638  0.5279  0.7349
  571SOL     MW 2284   1.452   2.445   2.025  0.2481 -0.5385  0.1009
  572SOL     OW 2285   0.914   2.526   3.069  0.2324  0.1495 -0.1195
  572SOL    HW1 2286   0.916   2.581   2.996  2.7482  2.4419  0.8081
  572SOL    HW2 2287   0.834   2.555   3.111  0.2981  0.7371 -0.6325
  572SOL     MW 2288   0.904   2.537   3.065  0.5730  0.5295 -0.0648
  573SOL     OW 2289   1.110   2.421   0.179  0.1296 -0.2697 -0.4217
  573SOL    HW1 2290   1.177   2.372   0.136 -1.3241  3.3317 -3.0095
  573SOL    HW2 2291   1.152   2.508   0.203 -1.5715 -0.9993  3.5700
  573SOL     MW 2292   1.125   2.426   0.176 -0.2867  0.1092 -0.2364
  574SOL     OW 2293   1.252   2.662   0.230 -0.0821  0.1061 -0.8487
  574SOL    HW1 2294   1.332   2.692   0.274 -0.4011 -3.1893  2.8131
  574SOL    HW2 2295   1.223   2.739   0.179  0.9428 -2.1430  1.9875
  574SOL     MW 2296   1.259   2.676   0.229  0.0110 -0.6254  0.0086
  575SOL     OW 2297   3.065   2.289   1.818 -0.6659  0.3517 -0.1610
  575SOL    HW1 2298   3.069   2.200   1.771  0.2082 -2.7567 -1.3028
  575SOL    HW2 2299   3.122   2.355   1.766  1.9879  0.8398  1.4682
  575SOL     MW 2300   3.073   2.286   1.805 -0.2004  0.0060 -0.0967
  576SOL     OW 2301   2.826   1.821   2.064 -0.0950 -0.1504 -0.7154
  576SOL    HW1 2302   2.841   1.901   2.017 -0.3872 -0.9041 -0.2178
  576SOL    HW2 2303   2.731   1.806   2.060 -0.9031  3.1238 -0.7258
  576SOL     MW 2304   2.815   1.829   2.057 -0.2402  0.1821 -0.6511
  577SOL     OW 2305   2.062   0.304   0.058 -0.1818 -0.6896 -0.0339
  577SOL    HW1 2306   2.008   0.377   0.030 -2.5808 -0.7617 -1.7265
  577SOL    HW2 2307   2.000   0.250   0.106  1.5378  1.2559 -1.4647
  577SOL     MW 2308   2.047   0.306   0.061 -0.2714 -0.4424 -0.4460
  578SOL     OW 2309   1.926   2.189   2.345  0.9400  0.0832  0.1729
  578SOL    HW1 2310   1.866   2.123   2.292 -0.6605 -2.0472  2.7214
  578SOL    HW2 2311   2.016   2.148   2.354  0.6283  0.0110 -0.2784
  578SOL     MW 2312   1.930   2.175   2.339  0.6877 -0.2074  0.4496
  579SOL     OW 2313   0.827   2.483   2.505  0.2556 -0.3354  0.0156
  579SOL    HW1 2314   0.860   2.434   2.587 -1.0595 -1.7471  0.0814
  579SOL    HW2 2315   0.902   2.511   2.454  0.0536 -0.1990  1.8837
  579SOL     MW 2316   0.841   2.480   2.509  0.0554 -0.5036  0.2707
  580SOL     OW 2317   0.881   2.856   3.090  0.3730  0.1182  0.5631
  580SOL    HW1 2318   0.961   2.815   3.123 -1.2282  1.2782  1.2693
  580SOL    HW2 2319   0.870   2.810   3.005  1.5556 -2.9469 -2.2285
  580SOL     MW 2320   0.890   2.844   3.083  0.3178 -0.1332  0.2879
  581SOL     OW 2321   1.104   2.574   1.726  0.1486 -0.7487 -0.1691
  581SOL    HW1 2322   1.179   2.616   1.769  0.7248 -0.3794 -0.8831
  581SOL    HW2 2323   1.098   2.482   1.764 -0.1829  0.0666 -2.0832
  581SOL     MW 2324   1.113   2.568   1.737  0.1809 -0.5924 -0.5159
  582SOL     OW 2325   3.084   2.885   2.621  0.2658 -0.2422  0.3210
  582SOL    HW1 2326   3.100   2.971   2.671  2.1866 -0.7206  1.2086
  582SOL    HW2 2327   3.166   2.841   2.630  0.2174  2.6700 -1.9870
  582SOL     MW 2328   3.097   2.890   2.629  0.5128  0.0789  0.1336
  583SOL     OW 2329   1.951   2.503   2.692 -0.1918 -0.3965 -0.3275
  583SOL    HW1 2330   1.998   2.552   2.614  0.5646  0.5727 -0.5675
  583SOL    HW2 2331   1.966   2.409   2.682  0.0866  0.2275 -0.0066
  583SOL     MW 2332   1.959   2.497   2.680 -0.0553 -0.1863 -0.3168
  584SOL     OW 2333   0.158   1.847   2.097 -0.1501 -0.1035 -0.0576
  584SOL    HW1 2334   0.252   1.824   2.079 -0.0001 -1.3710  0.7675
  584SOL    HW2 2335   0.153   1.904   2.174 -1.4816  0.1607 -1.0612
  584SOL     MW 2336   0.170   1.851   2.105 -0.3060 -0.2359 -0.0811
  585SOL     OW 2337   1.457   2.588   0.038 -0.0067  0.5657 -0.2637
  585SOL    HW1 2338   1.412   2.624  -0.041  1.8514 -2.2648  0.6939
  585SOL    HW2 2339   1.402   2.608   0.112  0.0562  1.5258  2.4854
  585SOL     MW 2340   1.444   2.595   0.037  0.2468  0.3189  0.2254
  586SOL     OW 2341   1.305   2.977   2.373  0.2057  0.4340  0.1444
  586SOL    HW1 2342   1.385   2.926   2.398 -0.2102 -1.2411 -0.2934
  586SOL    HW2 2343   1.270   3.015   2.452  2.2964 -0.5451  1.7674
  586SOL     MW 2344   1.311   2.975   2.387  0.4267  0.0838  0.3007
  587SOL     OW 2345   1.189   1.632   2.183 -0.2798 -0.0398  0.1405
  587SOL    HW1 2346   1.196   1.550   2.237  2.4380  1.1122  1.9249
  587SOL    HW2 2347   1.166   1.602   2.093  1.6860  0.7658  2.6580
  587SOL     MW 2348   1.187   1.617   2.178  0.3381  0.2185  0.7081
  588SOL     OW 2349   1.377   2.245   2.725 -0.0438 -0.3166 -0.4488
  588SOL    HW1 2350   1.452   2.189   2.735  1.0791 -2.1463  2.7307
  588SOL    HW2 2351   1.302   2.222   2.788 -0.4934 -0.1314  1.3042
  588SOL     MW 2352   1.377   2.235   2.734  0.0450 -0.5336  0.2020
  589SOL     OW 2353   1.341   2.051   0.028 -0.0295 -0.1012  0.3282
  589SOL    HW1 2354   1.355   2.135   0.070 -0.3535 -1.7827  2.2492
  589SOL    HW2 2355   1.327   1.996   0.107  1.3062 -0.7590  2.6648
  589SOL     MW 2356   1.341   2.055   0.044  0.1040 -0.4099  0.8899
  590SOL     OW 2357   0.487   2.555   2.241 -0.4630  0.5657 -0.0752
  590SOL    HW1 2358   0.441   2.572   2.160  3.4591 -0.6980 -1.6313
  590SOL    HW2 2359   0.558   2.620   2.233 -0.7268 -1.0010 -1.7948
  590SOL     MW 2360   0.490   2.566   2.229  0.0197  0.1923 -0.5074
  591SOL     OW 2361   2.203   0.666   3.041  0.4918 -0.6658 -0.0574
  591SOL    HW1 2362   2.123   0.665   2.986  1.2891 -0.7177  1.9074
  591SOL    HW2 2363   2.268   0.667   2.971  0.1790  0.6199  1.6690
  591SOL     MW 2364   2.201   0.666   3.025  0.5558 -0.5030  0.4296
  592SOL     OW 2365   1.829   2.892   0.850  0.5040 -0.1264 -0.3319
  592SOL    HW1 2366   1.836   2.959   0.778  0.3181  2.8082  2.4778
  592SOL    HW2 2367   1.899   2.821   0.833 -0.9412 -1.2241 -0.3659
  592SOL     MW 2368   1.839   2.891   0.838  0.2888  0.1160  0.0343
  593SOL     OW 2369   1.929   0.811   0.902  0.3103  0.4465 -0.6059
  593SOL    HW1 2370   1.853   0.794   0.850 -0.0734 -1.8712  1.0329
  593SOL    HW2 2371   1.974   0.726   0.897 -1.2494 -0.8114 -3.6988
  593SOL     MW 2372   1.925   0.798   0.894  0.0539 -0.0252 -0.7978
  594SOL     OW 2373   2.734   1.122   1.401 -0.8033  0.0053 -0.2003
  594SOL    HW1 2374   2.821   1.147   1.364  2.8143 -1.2864  0.0327
  594SOL    HW2 2375   2.675   1.109   1.326  0.3675  0.6172 -1.3968
  594SOL     MW 2376   2.738   1.124   1.386 -0.1715 -0.0844 -0.3274
  595SOL     OW 2377   0.423   0.969   0.761 -0.2083 -0.1157 -0.0200
  595SOL    HW1 2378   0.472   1.020   0.687 -0.7555  4.2192 -3.5252
  595SOL    HW2 2379   0.443   1.001   0.847 -1.4295 -1.2691  0.0590
  595SOL     MW 2380   0.432   0.980   0.762 -0.4417  0.3041 -0.4721
  596SOL     OW 2381   2.441   1.323   0.576  0.4766  0.2293  0.0883
  596SOL    HW1 2382   2.484   1.409   0.549  0.5561  2.0794 -3.6582
  596SOL    HW2 2383   2.500   1.287   0.641  0.0954  0.0430 -0.3659
  596SOL     MW 2384   2.454   1.330   0.581  0.4368  0.4488 -0.4659
  597SOL     OW 2385   2.231   0.666   1.730 -0.4035 -0.4269 -0.3226
  597SOL    HW1 2386   2.284   0.597   1.764 -1.8396  2.9130 -2.4237
  597SOL    HW2 2387   2.248   0.657   1.638 -1.3517 -2.5282 -1.0544
  597SOL     MW 2388   2.240   0.656   1.722 -0.7181 -0.2635 -0.6964
  598SOL     OW 2389   2.610   1.015   2.863 -0.3839 -0.5025  0.7069
  598SOL    HW1 2390   2.628   0.960   2.792  0.3164  2.6414  0.3476
  598SOL    HW2 2391   2.688   1.052   2.898  1.6662  0.3068 -3.9427
  598SOL     MW 2392   2.622   1.013   2.858 -0.0210  0.0191  0.0460
  599SOL     OW 2393   2.928   0.344   2.043 -0.0126  0.1665 -0.0711
  599SOL    HW1 2394   2.914   0.348   2.138  1.0916  1.5836 -1.1394
  599SOL    HW2 2395   2.975   0.425   2.025 -0.8880  0.4142 -3.2313
  599SOL     MW 2396   2.932   0.355   2.053  0.0176  0.3862 -0.6290
  600SOL     OW 2397   1.863   1.667   0.874  0.4661  0.1589 -0.7653
  600SOL    HW1 2398   1.891   1.690   0.960  0.1325  1.7626 -0.3399
  600SOL    HW2 2399   1.773   1.711   0.870  0.2832 -0.8642 -1.2609
  600SOL     MW 2400   1.855   1.676   0.885  0.3980  0.2355 -0.7746
  601SOL     OW 2401   2.490   0.775   0.891  0.0789  0.8864 -0.0326
  601SOL    HW1 2402   2.513   0.805   0.978 -0.5501 -0.5512 -0.4283
  601SOL    HW2 2403   2.391   0.776   0.892  1.0714  2.1854 -0.4490
  601SOL     MW 2404   2.480   0.779   0.903  0.1269  0.8681 -0.1398
  602SOL     OW 2405   2.277   1.940   0.697  0.1387  0.2215 -0.0343
  602SOL    HW1 2406   2.216   1.869   0.725 -0.0767  0.4585  0.8867
  602SOL    HW2 2407   2.218   1.991   0.636  0.8856  1.8763  1.5632
  602SOL     MW 2408   2.261   1.937   0.693  0.2088  0.4711  0.2980
  603SOL     OW 2409   2.989   1.398   1.842 -0.0625  0.7312 -0.1242
  603SOL    HW1 2410   3.072   1.438   1.847 -1.0078 -1.2361 -1.5442
  603SOL    HW2 2411   3.009   1.311   1.804  0.4406 -2.9844 -0.0747
  603SOL     MW 2412   3.002   1.391   1.838 -0.1209 -0.0186 -0.3051
  604SOL     OW 2413   2.054   1.539   0.504  0.4461  0.7152  0.0894
  604SOL    HW1 2414   2.063   1.463   0.555 -0.2844 -0.0388 -0.0377
  604SOL    HW2 2415   2.002   1.596   0.559 -2.4479  0.5208  2.4406
  604SOL     MW 2416   2.048   1.536   0.518 -0.0321  0.5901  0.3829
  605SOL     OW 2417   2.656   1.542   0.817 -0.1102  0.2282  0.5513
  605SOL    HW1 2418   2.597   1.615   0.805  2.6066 -1.2634  2.6830
  605SOL    HW2 2419   2.617   1.503   0.891  0.0345  0.0551 -0.7316
  605SOL     MW 2420   2.643   1.547   0.825  0.2673  0.0085  0.6633
  606SOL     OW 2421   2.539   1.820   1.942 -0.1482 -0.3135  1.3439
  606SOL    HW1 2422   2.439   1.820   1.953 -0.2067 -3.6906 -0.4034
  606SOL    HW2 2423   2.555   1.739   1.885 -0.3380 -0.7900 -0.1992
  606SOL     MW 2424   2.528   1.809   1.936 -0.1810 -0.8219  0.9097
  607SOL     OW 2425   2.353   1.021   2.960 -0.1453 -0.0225  0.3023
  607SOL    HW1 2426   2.448   1.033   2.959  0.8481  2.2183 -0.2176
  607SOL    HW2 2427   2.340   1.022   3.052  0.3746  1.6459  1.4700
  607SOL     MW 2428   2.364   1.023   2.972  0.0544  0.4933  0.3878
  608SOL     OW 2429   1.898   0.256   0.631  0.0775  0.1503 -0.1161
  608SOL    HW1 2430   1.923   0.280   0.541  3.3383 -1.3697 -1.6640
  608SOL    HW2 2431   1.880   0.164   0.620  1.4684 -0.5574 -2.6491
  608SOL     MW 2432   1.899   0.247   0.618  0.6912 -0.1436 -0.6545
  609SOL     OW 2433   2.127   1.917   3.012  0.5208 -0.0003 -0.4496
  609SOL    HW1 2434   2.043   1.874   2.993 -2.1721  0.4520  0.3575
  609SOL    HW2 2435   2.153   1.907   3.104  0.7671  0.2685  0.4054
  609SOL     MW 2436   2.119   1.910   3.021  0.1980  0.0948 -0.2303
  610SOL     OW 2437   1.815   1.087   1.362  0.2376  0.1740  0.0235
  610SOL    HW1 2438   1.851   1.008   1.321  2.4896  1.6661  0.7780
  610SOL    HW2 2439   1.744   1.050   1.425  0.4233  0.5335 -0.8318
  610SOL     MW 2440   1.811   1.072   1.365  0.5592  0.4183  0.0102
  611SOL     OW 2441   2.488   1.738   0.724 -0.4764 -0.6517 -0.2389
  611SOL    HW1 2442   2.439   1.807   0.689  0.1561 -2.4293  3.9352
  611SOL    HW2 2443   2.489   1.684   0.647 -1.0458  0.7841  2.8280
  611SOL     MW 2444   2.481   1.740   0.709 -0.4681 -0.6968  0.7165
  612SOL     OW 2445   2.779   2.787   0.424 -0.1368  0.6774  0.1138
  612SOL    HW1 2446   2.822   2.831   0.504 -0.1268 -0.0697  0.9548
  612SOL    HW2 2447   2.850   2.784   0.361  0.5821 -0.0494  0.6232
  612SOL     MW 2448   2.794   2.792   0.426 -0.0406  0.4829  0.2920
  613SOL     OW 2449   1.628   1.006   1.102  0.0958 -0.0165 -0.0150
  613SOL    HW1 2450   1.577   1.051   1.173 -0.0839 -1.9109  0.9300
  613SOL    HW2 2451   1.718   1.003   1.133  1.0106 -1.0567 -0.7983
  613SOL     MW 2452   1.633   1.012   1.115  0.1928 -0.4037  0.0063
  614SOL     OW 2453   1.981   0.547   1.536  0.2843  0.0808 -0.4096
  614SOL    HW1 2454   2.005   0.459   1.577  0.9377  1.5662  1.8417
  614SOL    HW2 2455   1.993   0.531   1.444 -0.5871  1.9183 -1.7752
  614SOL     MW 2456   1.986   0.533   1.530  0.2556  0.5192 -0.2927
  615SOL     OW 2457   2.233   0.830   0.184 -0.3901 -0.1302  0.5523
  615SOL    HW1 2458   2.263   0.778   0.261 -1.3313  0.2050 -0.0124
  615SOL    HW2 2459   2.231   0.770   0.108  2.8126  1.2375  0.1305
  615SOL     MW 2460   2.237   0.815   0.184 -0.0917  0.0945  0.4221
  616SOL     OW 2461   2.619   0.397   1.628 -0.3310  0.4617 -0.2319
  616SOL    HW1 2462   2.579   0.332   1.569 -0.5666  0.5591  0.9399
  616SOL    HW2 2463   2.656   0.466   1.571  3.2058 -0.4003 -0.7518
  616SOL     MW 2464   2.619   0.397   1.613  0.1045  0.3608 -0.1459
  617SOL     OW 2465   2.908   0.559   1.759  0.1200  0.5457 -0.3135
  617SOL    HW1 2466   2.815   0.581   1.796 -1.5668 -0.8418 -2.5363
  617SOL    HW2 2467   2.896   0.467   1.724 -0.2762 -1.0652  0.1505
  617SOL     MW 2468   2.894   0.550   1.759 -0.1548  0.1501 -0.5455
  618SOL     OW 2469   2.643   0.366   1.946 -0.3411  0.0966  0.1920
  618SOL    HW1 2470   2.626   0.459   1.930  1.4440 -0.9716 -1.0754
  618SOL    HW2 2471   2.731   0.360   1.978 -1.3899  0.6417  1.4603
  618SOL     MW 2472   2.652   0.378   1.948 -0.2440  0.0276  0.1922
  619SOL     OW 2473   2.592   0.888   0.130  0.1547  0.4582  0.2106
  619SOL    HW1 2474   2.681   0.891   0.163 -0.5171  0.3791  0.2598
  619SOL    HW2 2475   2.540   0.876   0.205  0.8938  0.5887  0.1138
  619SOL     MW 2476   2.597   0.887   0.144  0.1636  0.4650  0.2043
  620SOL     OW 2477   2.294   1.104   0.920 -0.2396 -0.6881 -0.1646
  620SOL    HW1 2478   2.359   1.114   0.852  0.8160 -0.9506 -0.0778
  620SOL    HW2 2479   2.244   1.035   0.890  0.0128  1.5298  0.2755
  620SOL     MW 2480   2.296   1.097   0.907 -0.0670 -0.4301 -0.0951
  621SOL     OW 2481   1.503   2.130   1.990 -0.4413 -0.0819 -0.1135
  621SOL    HW1 2482   1.419   2.090   2.017 -0.3851  0.6720  1.4534
  621SOL    HW2 2483   1.561   2.124   2.069  1.9506 -3.3407 -0.6141
  621SOL     MW 2484   1.499   2.124   2.004 -0.1183 -0.4124  0.0272
  622SOL     OW 2485   2.627   0.200   0.148  0.2352 -0.0706  0.2351
  622SOL    HW1 2486   2.716   0.227   0.193  1.5621 -2.3175 -1.4954
  622SOL    HW2 2487   2.654   0.113   0.118  1.0358 -2.0565 -0.3364
  622SOL     MW 2488   2.642   0.192   0.150  0.5159 -0.6291 -0.0686
  623SOL     OW 2489   2.389   2.770   0.843 -0.1083  0.5357  0.3242
  623SOL    HW1 2490   2.450   2.842   0.827 -0.8844 -0.0360  0.5275
  623SOL    HW2 2491   2.312   2.806   0.885  1.4030  0.0184 -1.5097
  623SOL     MW 2492   2.387   2.784   0.846 -0.0113  0.3920  0.1091
  624SOL     OW 2493   2.215   1.631   2.966  0.3701  0.5168  0.5179
  624SOL    HW1 2494   2.130   1.592   2.986  2.4347  0.1717  1.6066
  624SOL    HW2 2495   2.200   1.720   2.998  1.2182 -0.4928  1.5331
  624SOL     MW 2496   2.202   1.638   2.973  0.7544  0.3380  0.7955
  625SOL     OW 2497   2.205   1.916   1.062  0.1061 -0.0957 -0.0288
  625SOL    HW1 2498   2.261   1.891   1.134 -0.5278 -1.5773  0.8219
  625SOL    HW2 2499   2.232   1.862   0.990 -0.8091 -2.1980 -1.0619
  625SOL     MW 2500   2.216   1.905   1.062 -0.0983 -0.5685 -0.0529
  626SOL     OW 2501   0.145   1.570   2.389 -0.0941 -0.6812 -0.0855
  626SOL    HW1 2502   0.088   1.542   2.316  0.8928  2.8663 -1.8525
  626SOL    HW2 2503   0.095   1.586   2.470 -0.9079 -1.1784  3.0371
  626SOL     MW 2504   0.131   1.568   2.390 -0.0712 -0.2787  0.0934
  627SOL     OW 2505   2.429   0.840   2.551 -0.2039  0.5455 -0.5499
  627SOL    HW1 2506   2.359   0.910   2.551 -0.2151 -1.7658  0.4184
  627SOL    HW2 2507   2.407   0.779   2.474 -1.0917 -1.7009  0.1630
  627SOL     MW 2508   2.417   0.841   2.541 -0.3225 -0.0558 -0.3281
  628SOL     OW 2509   2.335   1.369   1.381 -0.1800 -0.1059 -0.3286
  628SOL    HW1 2510   2.316   1.318   1.299 -0.6923  2.0101 -0.2649
  628SOL    HW2 2511   2.429   1.376   1.385 -1.6464 -0.2587  1.3355
  628SOL     MW 2512   2.345   1.363   1.371 -0.4411  0.1531 -0.1007
  629SOL     OW 2513   2.010   0.567   1.199 -0.5220  0.0060 -0.3539
  629SOL    HW1 2514   2.079   0.631   1.197  0.3730 -3.7657 -0.1354
  629SOL    HW2 2515   1.927   0.607   1.235  0.2804  0.6011 -0.2868
  629SOL     MW 2516   2.008   0.581   1.203 -0.2980 -0.4131 -0.3162
  630SOL     OW 2517   2.502   1.819   3.098  0.4055  0.4503 -0.0780
  630SOL    HW1 2518   2.463   1.863   3.020 -1.1876 -1.8282  0.5936
  630SOL    HW2 2519   2.455   1.739   3.115  1.6919 -3.9476  0.5482
  630SOL     MW 2520   2.491   1.814   3.090  0.3650 -0.4306  0.0933
  631SOL     OW 2521   1.975   1.792   1.610 -0.1674  0.0219  0.1714
  631SOL    HW1 2522   1.993   1.701   1.653 -0.8956 -0.2815  0.4727
  631SOL    HW2 2523   1.954   1.781   1.515 -2.9862  0.7097 -3.6814
  631SOL     MW 2524   1.975   1.778   1.603 -0.6354  0.0726 -0.2972
  632SOL     OW 2525   0.223   2.072   1.574  0.0711 -0.2716 -0.0051
  632SOL    HW1 2526   0.146   2.084   1.627 -2.6316 -1.1220 -0.3393
  632SOL    HW2 2527   0.204   1.984   1.535  3.2341  1.5842  0.8350
  632SOL     MW 2528   0.211   2.062   1.576  0.1319 -0.1389  0.0617
  633SOL     OW 2529   2.422   0.707   0.371 -0.2053 -0.3507  0.0132
  633SOL    HW1 2530   2.498   0.690   0.427 -0.6180  0.5920  2.0851
  633SOL    HW2 2531   2.396   0.612   0.359 -0.2712 -2.9149 -0.3791
  633SOL     MW 2532   2.429   0.693   0.377 -0.2684 -0.5646  0.2348
  634SOL     OW 2533   2.630   3.079   0.609 -0.0049  0.1906  0.2480
  634SOL    HW1 2534   2.674   3.165   0.599  1.4125 -1.0288  1.5899
  634SOL    HW2 2535   2.598   3.052   0.521 -2.3592  2.2478  2.7769
  634SOL     MW 2536   2.631   3.087   0.596 -0.1285  0.3011  0.7587
  635SOL     OW 2537   2.589   0.116   1.821  0.3406  0.0574 -0.3277
  635SOL    HW1 2538   2.663   0.077   1.775  0.1574 -0.7622  0.2508
  635SOL    HW2 2539   2.608   0.201   1.857  0.7719 -0.1993 -1.0940
  635SOL     MW 2540   2.601   0.122   1.819  0.3733 -0.0846 -0.3524
  636SOL     OW 2541   2.913   1.633   1.008  0.1712 -0.0978 -0.4123
  636SOL    HW1 2542   2.846   1.686   0.962 -3.9396 -3.2278  0.4568
  636SOL    HW2 2543   2.955   1.692   1.070  0.0153 -0.1867 -3.1590
  636SOL     MW 2544   2.910   1.648   1.010 -0.3917 -0.5225 -0.6600
  637SOL     OW 2545   2.900   1.497   0.704 -0.2074  0.0380  0.3633
  637SOL    HW1 2546   2.968   1.561   0.730  3.1142 -0.4523  2.5916
  637SOL    HW2 2547   2.823   1.508   0.758  1.7415 -0.2758  0.0969
  637SOL     MW 2548   2.899   1.507   0.715  0.4880 -0.0681  0.6221
  638SOL     OW 2549   2.651   0.686   0.528 -0.0438  0.1122  0.2013
  638SOL    HW1 2550   2.730   0.662   0.474  0.0685 -1.1005 -1.5084
  638SOL    HW2 2551   2.676   0.647   0.613 -1.3318  0.2339  0.3411
  638SOL     MW 2552   2.664   0.678   0.532 -0.1989 -0.0317 -0.0058
  639SOL     OW 2553   1.827   3.078   0.626 -0.7939  0.0499  0.8075
  639SOL    HW1 2554   1.741   3.127   0.611 -1.2307  3.7102 -2.2000
  639SOL    HW2 2555   1.832   3.021   0.543 -1.2271 -0.7648 -1.4686
  639SOL     MW 2556   1.816   3.077   0.613 -0.9087  0.4253  0.1104
  640SOL     OW 2557   0.385   1.363   0.094 -0.0628 -0.5061  0.1015
  640SOL    HW1 2558   0.421   1.380   0.006  0.1884  1.0284  0.2153
  640SOL    HW2 2559   0.337   1.277   0.081 -1.0361 -0.1677 -0.1874
  640SOL     MW 2560   0.383   1.354   0.081 -0.1580 -0.2590  0.0784
  641SOL     OW 2561   2.306   0.432   0.383 -0.3519  0.1748 -0.0220
  641SOL    HW1 2562   2.335   0.420   0.291 -2.3797  1.8998  0.2911
  641SOL    HW2 2563   2.383   0.404   0.436  1.4789 -2.8261 -0.0198
  641SOL     MW 2564   2.320   0.427   0.378 -0.3779  0.0065  0.0196
  642SOL     OW 2565   3.102   0.016   0.503  0.6195  0.3131  0.1912
  642SOL    HW1 2566   3.074   0.107   0.501  1.9521  0.6107  0.0228
  642SOL    HW2 2567   3.029  -0.037   0.530  1.5182  0.8152  0.9747
  642SOL     MW 2568   3.089   0.021   0.507  0.9139  0.4186  0.2724
  643SOL     OW 2569   2.031   0.295   1.641 -0.3039 -0.1182  0.3961
  643SOL    HW1 2570   2.109   0.260   1.679 -0.2720  1.2780  0.6468
  643SOL    HW2 2571   2.015   0.257   1.557 -1.9733  1.9281  0.8120
  643SOL     MW 2572   2.040   0.285   1.635 -0.5200  0.3360  0.4841
  644SOL     OW 2573   2.715   1.864   0.949  0.2505  0.0091  0.6012
  644SOL    HW1 2574   2.660   1.834   1.019  1.1654  2.5997 -0.5044
  644SOL    HW2 2575   2.655   1.875   0.873  0.3624 -2.0061  0.6012
  644SOL     MW 2576   2.700   1.862   0.948  0.3860  0.0850  0.4553
  645SOL     OW 2577   2.754   0.902   0.634  0.3958 -0.2404  0.0190
  645SOL    HW1 2578   2.820   0.856   0.680 -0.8618 -0.4747 -1.0326
  645SOL    HW2 2579   2.705   0.832   0.591  0.3949 -0.7111  2.1060
  645SOL     MW 2580   2.757   0.887   0.634  0.2297 -0.3334  0.1556
  646SOL     OW 2581   0.152   2.293   0.868  0.3319 -0.5107 -0.4760
  646SOL    HW1 2582   0.178   2.204   0.853  0.7080 -1.4190  3.6351
  646SOL    HW2 2583   0.095   2.310   0.790  2.2250  0.7699  2.7308
  646SOL     MW 2584   0.148   2.284   0.856  0.6313 -0.4616  0.4895
  647SOL     OW 2585   2.751   0.556   2.989  0.2595 -0.2902 -0.4239
  647SOL    HW1 2586   2.683   0.515   3.030  2.3316 -1.0265 -1.2378
  647SOL    HW2 2587   2.713   0.645   2.973 -0.6231 -2.0184  0.1223
  647SOL     MW 2588   2.737   0.562   2.992  0.4165 -0.6154 -0.4592
  648SOL     OW 2589   2.220   0.744   1.100 -0.1735 -0.0384  0.3310
  648SOL    HW1 2590   2.214   0.768   1.005 -1.0479  1.6061 -2.0235
  648SOL    HW2 2591   2.189   0.823   1.145  2.1203 -0.6765  3.5509
  648SOL     MW 2592   2.215   0.757   1.094  0.0138  0.0944  0.4452
  649SOL     OW 2593   2.375   2.686   1.201 -0.1764  0.0861  0.0847
  649SOL    HW1 2594   2.452   2.738   1.226 -0.1661 -0.2360 -0.6080
  649SOL    HW2 2595   2.397   2.592   1.190 -0.1714  1.5063 -1.0235
  649SOL     MW 2596   2.388   2.680   1.203 -0.1744  0.2310 -0.1529
  650SOL     OW 2597   2.758   0.246   0.610 -0.2810 -0.2193 -0.1496
  650SOL    HW1 2598   2.766   0.272   0.699 -1.5468  0.7946 -0.6662
  650SOL    HW2 2599   2.841   0.271   0.568 -1.5514  1.1640 -0.5329
  650SOL     MW 2600   2.770   0.253   0.616 -0.6156  0.0970 -0.2683
  651SOL     OW 2601   2.988   0.302   0.844 -0.1422  0.2356  0.2815
  651SOL    HW1 2602   3.048   0.365   0.799 -1.5461  0.4088  0.4410
  651SOL    HW2 2603   2.918   0.360   0.872 -2.0320 -0.8743  0.9490
  651SOL     MW 2604   2.987   0.318   0.842 -0.5768  0.1120  0.3906
  652SOL     OW 2605   2.383   1.419   2.962 -0.4454 -0.3124 -0.9733
  652SOL    HW1 2606   2.471   1.434   2.924  2.0943  0.4828 -1.1984
  652SOL    HW2 2607   2.336   1.503   2.969 -0.6446 -0.9137  2.1380
  652SOL     MW 2608   2.388   1.432   2.958 -0.1366 -0.2868 -0.5925
  653SOL     OW 2609   1.973   0.366   0.379 -0.0936  0.1718 -0.6802
  653SOL    HW1 2610   1.947   0.311   0.306  0.9585  2.2641 -0.1271
  653SOL    HW2 2611   2.071   0.361   0.382 -1.4522 -0.3273  2.0975
  653SOL     MW 2612   1.982   0.358   0.370 -0.1340  0.3820 -0.2407
  654SOL     OW 2613   2.461   1.024   0.711 -0.5094 -0.0595  0.2799
  654SOL    HW1 2614   2.386   1.012   0.650  0.9540 -0.5779  0.0279
  654SOL    HW2 2615   2.503   0.940   0.710  1.4207 -0.0676 -3.6989
  654SOL     MW 2616   2.456   1.012   0.703 -0.0616 -0.1290 -0.2783
  655SOL     OW 2617   3.064   0.919   0.441 -0.3300  0.0658 -0.1871
  655SOL    HW1 2618   3.117   0.937   0.519 -0.7586 -0.2060  0.4351
  655SOL    HW2 2619   3.029   0.826   0.444 -2.1434 -0.4536  0.0393
  655SOL     MW 2620   3.066   0.909   0.452 -0.6258 -0.0386 -0.0751
  656SOL     OW 2621   1.991   2.767   1.203  0.0618  1.1752 -0.1962
  656SOL    HW1 2622   1.990   2.857   1.240  1.8633  4.2338  0.6076
  656SOL    HW2 2623   2.009   2.709   1.277  2.6670 -3.6977 -0.6828
  656SOL     MW 2624   1.993   2.771   1.218  0.6432  0.9358 -0.1543
  657SOL     OW 2625   0.216   1.572   1.248  0.5386 -0.6519 -0.8809
  657SOL    HW1 2626   0.123   1.561   1.241  0.4784  2.5741  0.7233
  657SOL    HW2 2627   0.254   1.574   1.164  0.3600  0.3892  1.0041
  657SOL     MW 2628   0.209   1.571   1.236  0.5071 -0.0889 -0.4205
  658SOL     OW 2629   2.687   1.373   0.251  0.2756  0.5256  0.3556
  658SOL    HW1 2630   2.626   1.321   0.305 -0.1173  0.3949  0.5378
  658SOL    HW2 2631   2.722   1.433   0.313 -2.2443 -0.8405 -0.0737
  658SOL     MW 2632   2.683   1.374   0.267 -0.1087  0.3281  0.3230
  659SOL     OW 2633   2.208   1.559   1.035  0.0070 -0.0132  0.8927
  659SOL    HW1 2634   2.295   1.516   1.019  4.2241  0.3578 -1.3253
  659SOL    HW2 2635   2.200   1.577   1.130  0.1197  0.4527 -2.8955
  659SOL     MW 2636   2.218   1.555   1.046  0.5783  0.0973  0.1002
  660SOL     OW 2637   2.013   1.523   1.740 -0.0491 -0.1862 -0.5372
  660SOL    HW1 2638   2.022   1.536   1.836 -2.4631  1.0168 -3.1575
  660SOL    HW2 2639   1.979   1.437   1.717  0.1175  6.3173 -2.7706
  660SOL     MW 2640   2.009   1.514   1.750 -0.3456  0.8306 -1.1776
  661SOL     OW 2641   2.342   1.088   0.148 -0.0480  1.2355  0.1733
  661SOL    HW1 2642   2.418   1.124   0.202  0.5262 -0.9640  0.3852
  661SOL    HW2 2643   2.322   1.003   0.180 -0.1111  0.9871  0.4496
  661SOL     MW 2644   2.349   1.082   0.160  0.0194  0.9125  0.2377
  662SOL     OW 2645   2.532   3.014   0.862 -0.1051  0.4889 -0.2701
  662SOL    HW1 2646   2.506   3.099   0.903 -1.3142  2.6416  0.2883
  662SOL    HW2 2647   2.560   3.032   0.772  1.3070 -1.1419  0.6863
  662SOL     MW 2648   2.532   3.028   0.856 -0.0783  0.5578 -0.0702
  663SOL     OW 2649   2.810   1.549   0.457 -0.5110 -0.0388 -0.2756
  663SOL    HW1 2650   2.895   1.589   0.421  1.4666  1.9004 -2.3739
  663SOL    HW2 2651   2.841   1.522   0.544  0.1864  0.5507  0.0705
  663SOL     MW 2652   2.825   1.551   0.464 -0.1580  0.2949 -0.5068
  664SOL     OW 2653   2.466   1.576   1.596  0.2134 -0.3497 -0.6350
  664SOL    HW1 2654   2.441   1.667   1.601  0.9680  1.5481 -3.6387
  664SOL    HW2 2655   2.399   1.524   1.637  0.7601 -2.1578  1.9669
  664SOL     MW 2656   2.454   1.581   1.602  0.3851 -0.3378 -0.6880
  665SOL     OW 2657   2.887   0.800   2.023  0.1527 -0.5372  0.3069
  665SOL    HW1 2658   2.858   0.840   1.941  3.5879 -2.4371 -1.1665
  665SOL    HW2 2659   2.967   0.744   2.013  3.0446  1.1431  2.7377
  665SOL     MW 2660   2.894   0.798   2.011  0.9875 -0.5662  0.4332
  666SOL     OW 2661   2.824   2.982   1.693  0.0303 -0.2857 -0.3128
  666SOL    HW1 2662   2.798   3.010   1.606  2.1982 -2.6615  0.7115
  666SOL    HW2 2663   2.766   2.904   1.709  2.2285 -0.0509  1.2054
  666SOL     MW 2664   2.813   2.976   1.684  0.6064 -0.5682  0.0227
  667SOL     OW 2665   1.941   2.681   1.656  0.1465  0.5479 -0.0394
  667SOL    HW1 2666   1.965   2.609   1.711 -0.3116  1.2197  0.2329
  667SOL    HW2 2667   2.012   2.746   1.666 -0.5736 -0.4634 -1.8262
  667SOL     MW 2668   1.954   2.680   1.664 -0.0089  0.5031 -0.2392
  668SOL     OW 2669   2.710   0.651   0.793  0.4980 -0.1588 -0.0066
  668SOL    HW1 2670   2.788   0.649   0.847 -0.8924 -1.6723  2.0549
  668SOL    HW2 2671   2.649   0.702   0.852  2.5030 -1.9310  0.2040
  668SOL     MW 2672   2.713   0.657   0.808  0.5791 -0.5923  0.2932
  669SOL     OW 2673   0.154   0.922   0.714 -0.0615 -0.6134 -0.1340
  669SOL    HW1 2674   0.114   1.000   0.760 -1.7847 -0.1152 -1.2271
  669SOL    HW2 2675   0.245   0.921   0.745  2.3689  0.6998  3.8986
  669SOL     MW 2676   0.160   0.932   0.724  0.0318 -0.3744  0.2538
  670SOL     OW 2677   2.851   0.286   0.257  0.6003 -0.3041  0.1266
  670SOL    HW1 2678   2.904   0.220   0.214  0.5259  1.8247 -1.5673
  670SOL    HW2 2679   2.862   0.365   0.204 -3.6364  1.0999  0.8173
  670SOL     MW 2680   2.859   0.288   0.245  0.0315  0.1620 -0.0058
  671SOL     OW 2681   2.179   0.006   1.612 -0.0437  0.9098  0.1563
  671SOL    HW1 2682   2.148   0.060   1.537  3.0876 -1.5901 -2.9890
  671SOL    HW2 2683   2.094  -0.022   1.648  1.4975 -2.2085  1.0742
  671SOL     MW 2684   2.164   0.009   1.607  0.5728  0.1686 -0.1376
  672SOL     OW 2685   1.895   1.709   1.359 -0.1468  0.1143  0.4369
  672SOL    HW1 2686   1.809   1.736   1.380  0.3170 -0.3361  1.5843
  672SOL    HW2 2687   1.907   1.734   1.264 -0.7674  0.4705 -1.9973
  672SOL     MW 2688   1.886   1.716   1.349 -0.1675  0.1019  0.2671
  673SOL     OW 2689   2.775   1.125   0.479  0.5500 -0.5558 -0.1044
  673SOL    HW1 2690   2.749   1.041   0.521 -1.1086  0.6693 -1.3727
  673SOL    HW2 2691   2.860   1.168   0.506 -0.5167  2.1728  0.8545
  673SOL     MW 2692   2.783   1.120   0.488  0.1904 -0.0342 -0.1453
  674SOL     OW 2693   2.420   0.018   1.284  0.6547 -0.4473 -0.1004
  674SOL    HW1 2694   2.432   0.035   1.189  1.8001 -0.9952  0.5635
  674SOL    HW2 2695   2.454  -0.070   1.293  0.7524  2.5675  1.0382
  674SOL     MW 2696   2.426   0.009   1.273  0.8187 -0.1218  0.1374
  675SOL     OW 2697   2.960   1.023   1.098 -0.2217  0.7380 -0.0700
  675SOL    HW1 2698   3.010   0.993   1.172 -0.5355  0.7232  2.1979
  675SOL    HW2 2699   3.011   1.013   1.014  1.9230  0.6945 -1.6721
  675SOL     MW 2700   2.973   1.018   1.097  0.0199  0.7303  0.0178
  676SOL     OW 2701   2.848   1.499   1.643 -0.3722 -0.1918 -0.0447
  676SOL    HW1 2702   2.789   1.424   1.635  3.8767  0.2450  2.0511
  676SOL    HW2 2703   2.907   1.460   1.703 -0.6078 -1.1010  2.0710
  676SOL     MW 2704   2.848   1.484   1.650  0.1573 -0.2541  0.5109
  677SOL     OW 2705   2.474   0.846   1.839  0.2226 -0.1796  0.5505
  677SOL    HW1 2706   2.403   0.859   1.776  0.4271  0.5867 -2.6668
  677SOL    HW2 2707   2.468   0.906   1.907 -0.7513  2.4586 -0.3652
  677SOL     MW 2708   2.464   0.856   1.840  0.1211  0.2696  0.0052
  678SOL     OW 2709   2.510   1.586   0.475  0.1743 -0.3480 -0.4022
  678SOL    HW1 2710   2.435   1.630   0.435 -0.2120 -0.8249 -1.9531
  678SOL    HW2 2711   2.590   1.623   0.445 -1.7996  3.4017 -2.2469
  678SOL     MW 2712   2.511   1.597   0.466 -0.1371  0.0838 -0.8502
  679SOL     OW 2713   2.395   0.497   1.182  0.1769 -0.4089 -0.1824
  679SOL    HW1 2714   2.322   0.435   1.207 -0.9934  2.1616  0.0508
  679SOL    HW2 2715   2.346   0.563   1.131 -0.8055  1.8961  0.9919
  679SOL     MW 2716   2.379   0.498   1.178 -0.1071  0.2344  0.0033
  680SOL     OW 2717   2.412   0.253   1.479 -0.4537 -0.1990  0.0234
  680SOL    HW1 2718   2.396   0.230   1.570 -0.4292 -0.1000 -2.2839
  680SOL    HW2 2719   2.409   0.176   1.430  0.5039  2.9485 -1.8950
  680SOL     MW 2720   2.409   0.240   1.484 -0.3241  0.2293 -0.5341
  681SOL     OW 2721   0.270   0.489   1.562  0.2029 -0.1456  0.2429
  681SOL    HW1 2722   0.266   0.402   1.614  0.2735  0.7012  1.3547
  681SOL    HW2 2723   0.361   0.515   1.566 -1.3720 -0.4343  0.2987
  681SOL     MW 2724   0.281   0.481   1.570  0.0044 -0.0720  0.3970
  682SOL     OW 2725   0.105   3.005   1.479 -0.3868 -0.0926 -0.2150
  682SOL    HW1 2726   0.110   3.105   1.465  1.1825 -3.2817  2.5880
  682SOL    HW2 2727   0.049   2.984   1.553 -1.8509  3.3430 -0.8164
  682SOL     MW 2728   0.098   3.016   1.487 -0.3729 -0.0601  0.0755
  683SOL     OW 2729   1.971   0.808   2.976  0.0588 -0.0476  0.6485
  683SOL    HW1 2730   1.882   0.787   2.929 -1.4141 -0.6055  0.4130
  683SOL    HW2 2731   1.959   0.900   3.009 -1.2514  1.8921  1.9251
  683SOL     MW 2732   1.957   0.817   2.974 -0.3084  0.1347  0.7858
  684SOL     OW 2733   2.113   1.740   0.789  0.3314  0.1234  0.0079
  684SOL    HW1 2734   2.027   1.720   0.825 -0.4680 -2.1181 -1.5129
  684SOL    HW2 2735   2.160   1.662   0.814 -1.7214 -0.3394 -0.5130
  684SOL     MW 2736   2.108   1.727   0.797 -0.0449 -0.2334 -0.2615
  685SOL     OW 2737   2.631   1.729   1.189 -0.3317  0.1851  0.0093
  685SOL    HW1 2738   2.683   1.732   1.268 -3.0479 -0.4578 -0.3820
  685SOL    HW2 2739   2.618   1.637   1.178 -1.5321  3.0103  0.2118
  685SOL     MW 2740   2.636   1.717   1.198 -0.8485  0.4730 -0.0156
  686SOL     OW 2741   2.949   0.714   1.522 -0.4586 -0.1796  0.2884
  686SOL    HW1 2742   2.958   0.661   1.600 -1.2215  0.3620  0.9344
  686SOL    HW2 2743   3.021   0.698   1.463 -1.7225  0.4556  2.1314
  686SOL     MW 2744   2.960   0.705   1.525 -0.7260 -0.0243  0.6168
  687SOL     OW 2745   2.181   0.339   1.195 -0.0901  0.2406 -0.5127
  687SOL    HW1 2746   2.180   0.287   1.114 -3.4556 -0.9984 -1.1300
  687SOL    HW2 2747   2.118   0.405   1.183 -0.1539 -0.9569  0.0782
  687SOL     MW 2748   2.173   0.340   1.183 -0.5425 -0.0808 -0.5162
  688SOL     OW 2749   2.354   0.531   1.469 -0.2593  0.3205 -0.7367
  688SOL    HW1 2750   2.381   0.443   1.485  2.3793  2.7140 -0.4008
  688SOL    HW2 2751   2.368   0.540   1.377  0.0061 -1.3174 -0.1680
  688SOL     MW 2752   2.360   0.521   1.459  0.1238  0.4202 -0.6173
  689SOL     OW 2753   2.554   0.758   2.989 -0.3257 -0.0727 -0.1532
  689SOL    HW1 2754   2.578   0.845   2.961 -1.9586 -2.0542  0.1896
  689SOL    HW2 2755   2.561   0.762   3.085  1.7480  0.7720  1.7569
  689SOL     MW 2756   2.558   0.770   2.998 -0.2675 -0.2227  0.1441
  690SOL     OW 2757   2.046   1.019   1.988 -0.7094 -0.1766  0.2113
  690SOL    HW1 2758   2.025   0.925   1.999 -0.2492 -0.7862  0.9431
  690SOL    HW2 2759   2.074   1.028   1.900  0.4699  0.5255  2.2161
  690SOL     MW 2760   2.047   1.007   1.978 -0.4931 -0.1644  0.5724
  691SOL     OW 2761   2.435   0.340   0.847 -0.0340 -0.5655 -0.1711
  691SOL    HW1 2762   2.511   0.379   0.888 -0.2716 -0.5890 -4.1637
  691SOL    HW2 2763   2.372   0.408   0.830  1.1517  0.5359  0.4569
  691SOL     MW 2764   2.437   0.354   0.850  0.0911 -0.4233 -0.6150
  692SOL     OW 2765   2.781   1.653   1.435 -0.7692  0.1772 -0.0617
  692SOL    HW1 2766   2.809   1.598   1.508  3.5921 -0.3203  0.2834
  692SOL    HW2 2767   2.802   1.742   1.477 -0.5363 -2.3828 -0.5553
  692SOL     MW 2768   2.787   1.658   1.451 -0.1631 -0.2262 -0.0813
  693SOL     OW 2769   2.296   0.460   0.066 -0.3053  0.4023 -0.5840
  693SOL    HW1 2770   2.217   0.411   0.082 -2.0197 -1.7075 -1.4496
  693SOL    HW2 2771   2.251   0.531   0.015 -2.0985 -0.9868  1.8285
  693SOL     MW 2772   2.280   0.463   0.062 -0.7681 -0.0594 -0.3799
  694SOL     OW 2773   1.979   1.301   1.211  0.2079  0.1233  0.0618
  694SOL    HW1 2774   2.059   1.256   1.193 -1.0385  0.5032  2.3949
  694SOL    HW2 2775   1.921   1.228   1.240  1.3547 -0.2017  0.0263
  694SOL     MW 2776   1.982   1.285   1.213  0.1947  0.1305  0.3649
  695SOL     OW 2777   3.031   1.516   1.320 -0.6388 -0.9119 -0.4691
  695SOL    HW1 2778   3.013   1.472   1.235 -2.3427  0.5897 -1.6446
  695SOL    HW2 2779   2.952   1.563   1.344 -2.0138 -0.8012  0.4388
  695SOL     MW 2780   3.019   1.516   1.312 -1.0450 -0.6991 -0.5044
  696SOL     OW 2781   2.016   1.382   0.940 -0.1718  0.1213 -0.4007
  696SOL    HW1 2782   2.083   1.453   0.941  1.1876 -0.2476  2.0141
  696SOL    HW2 2783   1.989   1.377   1.033 -0.6302  4.4123  0.4961
  696SOL     MW 2784   2.021   1.390   0.953 -0.0529  0.6387  0.0362
  697SOL     OW 2785   2.874   0.932   2.263  0.1113 -0.9138  0.2305
  697SOL    HW1 2786   2.857   1.020   2.226  0.1992  1.2573 -2.0769
  697SOL    HW2 2787   2.889   0.879   2.186  0.9893 -0.0237  2.9594
  697SOL     MW 2788   2.874   0.937   2.248  0.2387 -0.5099  0.2861
  698SOL     OW 2789   2.544   0.368   3.073 -0.3143 -0.2861  0.2933
  698SOL    HW1 2790   2.460   0.398   3.114  2.5738 -2.3262  1.4110
  698SOL    HW2 2791   2.578   0.304   3.136  0.3627  1.9286  2.0418
  698SOL     MW 2792   2.537   0.364   3.086  0.1561 -0.2631  0.6714
  699SOL     OW 2793   1.847   1.623   2.067  0.2374  0.0180  0.0967
  699SOL    HW1 2794   1.832   1.527   2.079  0.6357  1.0408 -2.7832
  699SOL    HW2 2795   1.943   1.622   2.057 -0.2688 -0.9742 -0.7249
  699SOL     MW 2796   1.858   1.610   2.067  0.2232  0.0221 -0.3917
  700SOL     OW 2797   2.737   0.881   1.526  0.1627 -0.0272 -0.7242
  700SOL    HW1 2798   2.755   0.960   1.467  3.8120 -1.4166 -1.5150
  700SOL    HW2 2799   2.818   0.826   1.517 -0.5283 -2.1914  1.3044
  700SOL     MW 2800   2.750   0.884   1.517  0.5530 -0.4961 -0.5609
  701SOL     OW 2801   1.667   1.268   2.626  0.0031 -0.3377 -0.1249
  701SOL    HW1 2802   1.761   1.289   2.638  0.9213 -1.2129  0.3464
  701SOL    HW2 2803   1.622   1.321   2.697 -0.5615  1.2464  0.1619
  701SOL     MW 2804   1.673   1.278   2.637  0.0497 -0.2442 -0.0249
  702SOL     OW 2805   2.213   0.477   0.773 -0.4141 -0.4978  0.7884
  702SOL    HW1 2806   2.206   0.393   0.735  1.3052  4.4837  0.8948
  702SOL    HW2 2807   2.233   0.536   0.700  1.9100 -0.9856  0.9483
  702SOL     MW 2808   2.215   0.474   0.758  0.1194  0.0951  0.8236
  703SOL     OW 2809   2.658   1.278   0.975 -0.1741  0.1096 -0.3668
  703SOL    HW1 2810   2.661   1.245   0.880 -1.2622  1.1844 -2.1235
  703SOL    HW2 2811   2.657   1.199   1.028 -1.3045  1.3397  3.0109
  703SOL     MW 2812   2.659   1.263   0.969 -0.4668  0.4137 -0.1529
  704SOL     OW 2813   0.017   1.290   0.262  0.2224 -0.4539  0.5863
  704SOL    HW1 2814  -0.074   1.278   0.240  0.7583 -0.7593 -0.5580
  704SOL    HW2 2815   0.064   1.207   0.235  0.2648  0.3660 -1.1086
  704SOL     MW 2816   0.011   1.278   0.256  0.2987 -0.3860  0.2117
  705SOL     OW 2817   2.203   1.596   1.316 -0.6033 -0.3412 -0.4505
  705SOL    HW1 2818   2.118   1.585   1.357  1.9611 -1.5796 -1.0882
  705SOL    HW2 2819   2.242   1.516   1.342 -2.2930  0.7818 -2.4070
  705SOL     MW 2820   2.197   1.584   1.325 -0.4879 -0.3564 -0.7928
  706SOL     OW 2821   3.000   1.236   0.610 -0.2295  0.1196 -0.8962
  706SOL    HW1 2822   3.087   1.247   0.579  0.4902  0.9289  0.6993
  706SOL    HW2 2823   2.983   1.331   0.620  2.2106  0.7141 -4.3206
  706SOL     MW 2824   3.009   1.250   0.607  0.1874  0.3048 -1.1375
  707SOL     OW 2825   2.436   0.122   1.023 -0.3735 -0.0639 -0.0329
  707SOL    HW1 2826   2.464   0.195   0.966 -1.0594 -0.3562  1.1355
  707SOL    HW2 2827   2.342   0.132   1.033 -0.6359  0.2238 -1.5168
  707SOL     MW 2828   2.428   0.133   1.017 -0.4986 -0.0645 -0.0745
  708SOL     OW 2829   2.534   1.523   0.072  0.1353  0.1135  0.0138
  708SOL    HW1 2830   2.585   1.460   0.122 -0.1459 -0.8234 -0.7619
  708SOL    HW2 2831   2.468   1.467   0.024 -4.0676 -0.1108  0.3459
  708SOL     MW 2832   2.532   1.507   0.073 -0.4563 -0.0397 -0.0447
  709SOL     OW 2833   1.761   1.719   0.137 -0.4155  0.7125 -0.2900
  709SOL    HW1 2834   1.768   1.701   0.039  1.0934 -0.4764  1.3798
  709SOL    HW2 2835   1.680   1.677   0.165 -0.9581 -0.1117  2.3426
  709SOL     MW 2836   1.751   1.711   0.128 -0.2880  0.4469  0.2777
  710SOL     OW 2837   2.239   1.191   1.175  0.2258 -0.2078 -0.6459
  710SOL    HW1 2838   2.266   1.174   1.087 -0.8093  2.1388  2.4891
  710SOL    HW2 2839   2.245   1.114   1.235 -1.2098 -0.9347  1.8926
  710SOL     MW 2840   2.243   1.179   1.171 -0.1002  0.0059  0.1027
  711SOL     OW 2841   2.352   0.168   1.727 -0.1692  0.3815 -0.6195
  711SOL    HW1 2842   2.441   0.134   1.757 -1.5704  4.6993  1.0114
  711SOL    HW2 2843   2.296   0.098   1.699  0.5581  1.6091  0.3248
  711SOL     MW 2844   2.356   0.154   1.727 -0.2581  1.1132 -0.2797
  712SOL     OW 2845   1.596   0.617   3.096 -0.0319 -0.5917  0.2526
  712SOL    HW1 2846   1.631   0.675   3.026  1.1181  1.6085  0.0270
  712SOL    HW2 2847   1.505   0.615   3.072  1.8638 -2.2454  2.4127
  712SOL     MW 2848   1.589   0.624   3.084  0.3699 -0.5196  0.5078
  713SOL     OW 2849   2.592   0.784   1.140 -0.1286 -0.1385 -0.2276
  713SOL    HW1 2850   2.634   0.691   1.140  0.9336  0.4745 -2.0076
  713SOL    HW2 2851   2.548   0.778   1.225  0.6205  2.3197 -0.8593
  713SOL     MW 2852   2.592   0.771   1.151  0.1104  0.2667 -0.5458
  714SOL     OW 2853   2.268   0.176   2.009  0.3185 -0.0832 -0.3145
  714SOL    HW1 2854   2.325   0.125   2.068 -0.5230  0.4335  0.6957
  714SOL    HW2 2855   2.308   0.177   1.918 -1.6136  1.7489  0.8600
  714SOL     MW 2856   2.281   0.169   2.005 -0.0475  0.2267 -0.0262
  715SOL     OW 2857   1.775   1.948   1.737  0.0591 -0.0059 -0.2731
  715SOL    HW1 2858   1.856   1.915   1.701 -0.6382  1.0983 -0.8994
  715SOL    HW2 2859   1.736   1.860   1.760 -1.1539 -1.3938  3.0312
  715SOL     MW 2860   1.781   1.932   1.735 -0.1930 -0.0434  0.0802
  716SOL     OW 2861   2.265   0.718   0.592  0.1761  0.2254 -0.2025
  716SOL    HW1 2862   2.333   0.715   0.521  3.1622  2.2417 -1.2693
  716SOL    HW2 2863   2.174   0.717   0.553  1.1793 -1.7042 -0.0748
  716SOL     MW 2864   2.262   0.718   0.577  0.7025  0.2368 -0.3264
  717SOL     OW 2865   2.860   1.424   2.938 -0.5143  0.0425 -0.3703
  717SOL    HW1 2866   2.955   1.440   2.917  2.7414  2.2386  1.9899
  717SOL    HW2 2867   2.840   1.488   3.006 -2.3219  1.3380 -0.5366
  717SOL     MW 2868   2.870   1.434   2.944 -0.3232  0.5032 -0.0809
  718SOL     OW 2869   2.583   1.468   1.312  0.5588 -0.4541  0.5076
  718SOL    HW1 2870   2.629   1.511   1.381 -0.4744  0.5131  0.2315
  718SOL    HW2 2871   2.645   1.415   1.270 -0.3325 -1.0619 -0.8766
  718SOL     MW 2872   2.597   1.467   1.316  0.3049 -0.4067  0.2885
  719SOL     OW 2873   2.144   1.309   0.687  0.3231 -0.4156 -0.1096
  719SOL    HW1 2874   2.217   1.372   0.692  2.4517 -0.7481 -2.0391
  719SOL    HW2 2875   2.108   1.300   0.779 -3.2697  1.3073 -0.6698
  719SOL     MW 2876   2.149   1.316   0.700  0.1299 -0.2322 -0.4381
  720SOL     OW 2877   2.894   1.191   0.168  0.4645 -0.3100  0.3059
  720SOL    HW1 2878   2.892   1.104   0.204  2.5493  2.6786 -1.3667
  720SOL    HW2 2879   2.807   1.237   0.188  0.7300  2.8752  1.0020
  720SOL     MW 2880   2.882   1.185   0.176  0.7746  0.5045  0.1771
  721SOL     OW 2881   2.485   0.781   1.400  0.4513 -0.0245  0.3606
  721SOL    HW1 2882   2.463   0.719   1.465 -0.4622  2.2025  0.2890
  721SOL    HW2 2883   2.566   0.821   1.418 -0.3482  0.5447  0.1021
  721SOL     MW 2884   2.493   0.778   1.411  0.2253  0.3444  0.3170
  722SOL     OW 2885   2.533   1.193   0.371  0.2419  0.1342 -0.1167
  722SOL    HW1 2886   2.502   1.225   0.458 -0.0052 -0.9111  0.2840
  722SOL    HW2 2887   2.627   1.177   0.398  1.2323 -0.6020  0.6583
  722SOL     MW 2888   2.542   1.195   0.386  0.3400 -0.1008  0.0385
  723SOL     OW 2889   2.262   1.401   1.657  0.1751  0.1997  0.9947
  723SOL    HW1 2890   2.263   1.377   1.563  1.0276 -1.2482 -0.4876
  723SOL    HW2 2891   2.176   1.436   1.682  1.2483  2.4288  0.2550
  723SOL     MW 2892   2.251   1.402   1.648  0.4291  0.3028  0.7015
  724SOL     OW 2893   2.514   0.368   0.561  0.4143  0.0702  0.2440
  724SOL    HW1 2894   2.494   0.369   0.658  2.1507  0.6246  2.9025
  724SOL    HW2 2895   2.602   0.328   0.555  0.3930 -2.7966 -0.1370
  724SOL     MW 2896   2.523   0.362   0.573  0.6406 -0.2349  0.5445
  725SOL     OW 2897   2.690   0.519   1.126  0.5535  0.2209  0.2529
  725SOL    HW1 2898   2.724   0.490   1.211  1.3977  1.4541 -1.4569
  725SOL    HW2 2899   2.593   0.514   1.130 -2.6682 -1.5166 -0.3363
  725SOL     MW 2900   2.682   0.515   1.138  0.2398  0.1543 -0.0504
  726SOL     OW 2901   2.564   2.386   0.548  0.0587 -0.1053 -0.1031
  726SOL    HW1 2902   2.510   2.439   0.491  1.2319 -1.2661 -5.4394
  726SOL    HW2 2903   2.511   2.368   0.624 -1.7866 -0.8239  0.7486
  726SOL     MW 2904   2.550   2.391   0.551 -0.0300 -0.3533 -0.6948
  727SOL     OW 2905   2.869   0.312   1.671 -0.8101  0.4061 -0.0396
  727SOL    HW1 2906   2.879   0.291   1.574 -1.1195 -2.3960 -0.0713
  727SOL    HW2 2907   2.782   0.349   1.675  1.9274  1.2124 -0.2880
  727SOL     MW 2908   2.859   0.314   1.659 -0.4898  0.1428 -0.0766
  728SOL     OW 2909   2.841   1.162   2.981  0.8392  0.0614 -0.0604
  728SOL    HW1 2910   2.850   1.256   2.959 -1.3904  1.6214  1.0831
  728SOL    HW2 2911   2.854   1.168   3.082 -0.8089 -1.2445 -1.7757
  728SOL     MW 2912   2.844   1.176   2.992  0.3276  0.0949 -0.1359
  729SOL     OW 2913   2.479   1.464   1.048 -0.0833 -0.0465  0.9740
  729SOL    HW1 2914   2.475   1.462   1.143  3.0260 -0.0814 -1.8639
  729SOL    HW2 2915   2.528   1.390   1.022  1.8142  1.5811  0.6385
  729SOL     MW 2916   2.485   1.454   1.057  0.5773  0.1637  0.5553
  730SOL     OW 2917   2.083   1.183   0.202  0.4103 -0.5068  0.5024
  730SOL    HW1 2918   2.168   1.181   0.155  2.2291  0.7239  0.5297
  730SOL    HW2 2919   2.070   1.272   0.241 -0.2820  2.0080  0.4555
  730SOL     MW 2920   2.093   1.195   0.201  0.5590 -0.0126  0.4998
  731SOL     OW 2921   2.771   1.776   2.887 -0.4149 -0.5140  0.3153
  731SOL    HW1 2922   2.682   1.802   2.875  0.4668  0.3908 -0.8625
  731SOL    HW2 2923   2.827   1.854   2.880 -0.1939 -0.7494 -1.5302
  731SOL     MW 2924   2.767   1.790   2.885 -0.2694 -0.4256 -0.0836
  732SOL     OW 2925   2.219   0.931   1.323  0.2938 -0.1244  0.7140
  732SOL    HW1 2926   2.162   0.940   1.401 -3.1300 -0.3615  1.6563
  732SOL    HW2 2927   2.304   0.909   1.354 -1.4744  5.0888 -1.9013
  732SOL     MW 2928   2.223   0.929   1.338 -0.3913  0.5322  0.4933
  733SOL     OW 2929   2.365   2.871   2.988  0.0143  0.2343  0.1939
  733SOL    HW1 2930   2.286   2.923   2.960 -1.9454 -0.5547  0.2811
  733SOL    HW2 2931   2.326   2.793   3.033  0.1038 -2.3618  1.9039
  733SOL     MW 2932   2.350   2.867   2.991 -0.2325 -0.2123  0.4310
  734SOL     OW 2933   1.505   0.363   2.520 -0.0572 -0.4173 -0.2865
  734SOL    HW1 2934   1.440   0.316   2.579  1.9870 -2.0088 -1.2446
  734SOL    HW2 2935   1.494   0.315   2.436 -2.1155 -1.0299 -3.6911
  734SOL     MW 2936   1.495   0.351   2.517 -0.0591 -0.7081 -0.8621
  735SOL     OW 2937   2.986   0.869   2.714  0.4287  0.2437 -0.1980
  735SOL    HW1 2938   2.894   0.851   2.689  2.0249 -0.5631  1.5777
  735SOL    HW2 2939   2.989   0.922   2.792  3.7128  1.0320 -1.5245
  735SOL     MW 2940   2.974   0.873   2.721  1.0726  0.2413 -0.1387
  736SOL     OW 2941   0.058   0.618   2.473  0.2359 -0.1883  0.1141
  736SOL    HW1 2942   0.108   0.644   2.395  1.4551 -0.2498  0.4782
  736SOL    HW2 2943   0.046   0.520   2.474 -0.2083 -2.0748  2.1349
  736SOL     MW 2944   0.063   0.608   2.463  0.3382 -0.4453  0.4287
  737SOL     OW 2945   2.880   0.617   2.552 -0.4181  0.2089 -0.5915
  737SOL    HW1 2946   2.833   0.566   2.489 -0.2583 -0.5229  1.1515
  737SOL    HW2 2947   2.969   0.634   2.513  0.0518 -0.7690 -0.4083
  737SOL     MW 2948   2.886   0.613   2.538 -0.3350 -0.0166 -0.3373
  738SOL     OW 2949   0.165   0.437   1.924  0.0684  0.0877  0.1463
  738SOL    HW1 2950   0.252   0.461   1.917 -1.6651  2.7036 -1.2791
  738SOL    HW2 2951   0.143   0.363   1.869 -2.1987 -1.1307  1.2980
  738SOL     MW 2952   0.173   0.430   1.916 -0.4595  0.2721  0.1102
  739SOL     OW 2953   2.552   1.019   2.197  0.1170 -0.2142 -0.4424
  739SOL    HW1 2954   2.463   1.006   2.164  0.4685 -2.4463  0.5261
  739SOL    HW2 2955   2.574   1.071   2.122 -3.1541 -2.6347 -1.4237
  739SOL     MW 2956   2.543   1.024   2.183 -0.2682 -0.8280 -0.4441
  740SOL     OW 2957   0.253   1.700   2.969 -0.2070 -0.1900  0.3329
  740SOL    HW1 2958   0.202   1.616   2.968 -0.6961 -0.6190 -1.4774
  740SOL    HW2 2959   0.346   1.682   2.982 -1.0910 -0.0172  1.1522
  740SOL     MW 2960   0.258   1.687   2.971 -0.3882 -0.2238  0.2022
  741SOL     OW 2961   2.213   1.265   2.715 -0.2253 -0.7777 -0.0990
  741SOL    HW1 2962   2.237   1.350   2.672 -1.0934 -1.0420 -0.0203
  741SOL    HW2 2963   2.194   1.276   2.815 -0.6936 -0.4502  1.3840
  741SOL     MW 2964   2.214   1.278   2.723 -0.4016 -0.7694  0.1070
  742SOL     OW 2965   1.602   1.371   2.345  0.2120 -0.6305  0.3818
  742SOL    HW1 2966   1.536   1.321   2.304 -0.9453  2.1577  0.2197
  742SOL    HW2 2967   1.614   1.335   2.432  1.8951  2.8171 -1.4160
  742SOL     MW 2968   1.595   1.360   2.351  0.2814  0.1923  0.1232
  743SOL     OW 2969   2.508   1.218   2.709  0.3460  0.5530 -0.0496
  743SOL    HW1 2970   2.419   1.242   2.708  0.6211  0.1581  2.1417
  743SOL    HW2 2971   2.512   1.135   2.762  2.7302 -1.1668 -0.3125
  743SOL     MW 2972   2.496   1.210   2.716  0.6969  0.2740  0.2048
  744SOL     OW 2973   2.777   0.922   1.795  0.1408 -0.3928 -0.4239
  744SOL    HW1 2974   2.689   0.959   1.814 -0.2358  1.6916 -0.5125
  744SOL    HW2 2975   2.779   0.897   1.701 -2.3960 -0.8357 -0.2821
  744SOL     MW 2976   2.765   0.923   1.785 -0.2436 -0.1762 -0.4169
  745SOL     OW 2977   1.743   0.498   2.442 -0.4045 -0.1682 -0.1664
  745SOL    HW1 2978   1.720   0.510   2.342  4.5950  3.2803  0.8926
  745SOL    HW2 2979   1.678   0.430   2.477  1.0272  0.0074  0.9001
  745SOL     MW 2980   1.731   0.490   2.433  0.4441  0.3100  0.1140
  746SOL     OW 2981   1.566   1.462   1.711 -0.1495  0.4226 -0.2435
  746SOL    HW1 2982   1.635   1.529   1.725  0.5645  2.8040 -0.1168
  746SOL    HW2 2983   1.546   1.418   1.798 -2.6254 -0.8209  1.6015
  746SOL     MW 2984   1.573   1.465   1.724 -0.3820  0.5728  0.0166
  747SOL     OW 2985   2.590   1.134   1.897 -0.3150 -0.1823 -0.4079
  747SOL    HW1 2986   2.512   1.139   1.837 -2.7037 -1.8781 -1.3277
  747SOL    HW2 2987   2.612   1.227   1.917  0.8466  1.4233  1.8010
  747SOL     MW 2988   2.582   1.147   1.892 -0.4769 -0.1942 -0.2378
  748SOL     OW 2989   0.101  -0.006   1.937 -0.3721 -0.1163 -1.1554
  748SOL    HW1 2990   0.187   0.037   1.906  0.8224 -0.3074 -0.9984
  748SOL    HW2 2991   0.079   0.062   2.001  2.8687  1.1149 -1.0249
  748SOL     MW 2992   0.109   0.009   1.942  0.2131  0.0210 -1.1174
  749SOL     OW 2993   2.419   0.653   2.762 -0.0667  0.0531 -0.0325
  749SOL    HW1 2994   2.394   0.722   2.696  0.4949 -0.6785  0.8054
  749SOL    HW2 2995   2.481   0.705   2.826 -1.5395 -1.0715 -0.7268
  749SOL     MW 2996   2.424   0.669   2.762 -0.1869 -0.1918 -0.0136
  750SOL     OW 2997   2.122   3.005   1.952  0.0742  0.5037 -0.0445
  750SOL    HW1 2998   2.169   3.090   1.945 -0.1132 -1.6104  0.8426
  750SOL    HW2 2999   2.186   2.943   1.908 -0.6328  1.1240  3.4533
  750SOL     MW 3000   2.137   3.008   1.946 -0.0438  0.3066  0.5340
  751SOL     OW 3001   3.083   0.363   2.456 -0.3487 -0.3577  0.6135
  751SOL    HW1 3002   2.998   0.350   2.401 -3.9934 -1.9019  1.2999
  751SOL    HW2 3003   3.149   0.320   2.403 -0.7796  0.3005  2.8363
  751SOL     MW 3004   3.080   0.356   2.442 -0.8865 -0.4746  0.9973
  752SOL     OW 3005   2.123   0.926   2.805 -0.1457 -0.2796 -0.5120
  752SOL    HW1 3006   2.204   0.956   2.848 -0.6137  1.1256  0.0621
  752SOL    HW2 3007   2.062   0.885   2.869 -0.7497  0.8997 -0.4071
  752SOL     MW 3008   2.126   0.925   2.819 -0.2871  0.0614 -0.4224
  753SOL     OW 3009   2.870   0.286   2.305 -0.4062 -0.4251 -0.6285
  753SOL    HW1 3010   2.818   0.199   2.313 -0.5265  0.5615 -3.6473
  753SOL    HW2 3011   2.804   0.355   2.325  1.1408 -0.8028 -2.4589
  753SOL     MW 3012   2.854   0.284   2.309 -0.2179 -0.3448 -1.2683
  754SOL     OW 3013   2.248   2.999   2.614 -0.4751 -0.1182 -0.1444
  754SOL    HW1 3014   2.276   2.985   2.524 -2.4492  0.1795 -0.9024
  754SOL    HW2 3015   2.327   2.961   2.659  0.9789  0.1426 -1.5172
  754SOL     MW 3016   2.262   2.992   2.608 -0.5437 -0.0446 -0.4255
  755SOL     OW 3017   2.772   1.619   2.401  0.2552  0.0443  0.3286
  755SOL    HW1 3018   2.726   1.530   2.391  0.0406 -0.4194  0.8162
  755SOL    HW2 3019   2.806   1.619   2.488  3.1260 -0.4460 -3.2104
  755SOL     MW 3020   2.771   1.607   2.411  0.6057 -0.0816 -0.0740
  756SOL     OW 3021   2.164   1.260   2.974 -0.1997 -0.0654  0.8289
  756SOL    HW1 3022   2.237   1.321   2.979 -0.7292  0.2903 -1.1898
  756SOL    HW2 3023   2.208   1.178   2.964  0.7306  1.9360  1.3890
  756SOL     MW 3024   2.180   1.257   2.974 -0.1468  0.2456  0.6365
  757SOL     OW 3025   2.190   0.939   1.758 -0.4765 -0.3273  0.1922
  757SOL    HW1 3026   2.207   0.841   1.763  2.9667 -0.1524  0.1740
  757SOL    HW2 3027   2.138   0.955   1.673  0.4576  1.5691  0.7124
  757SOL     MW 3028   2.185   0.928   1.747  0.1011 -0.0540  0.2585
  758SOL     OW 3029   2.221   1.837   2.592  0.8822  0.4887  0.8273
  758SOL    HW1 3030   2.185   1.894   2.517 -0.3843 -0.1347  2.2626
  758SOL    HW2 3031   2.310   1.819   2.568  0.0785 -1.3484  2.1488
  758SOL     MW 3032   2.228   1.842   2.579  0.6091  0.1641  1.1910
  759SOL     OW 3033   1.583   1.466   2.806 -0.2548 -0.1488  0.1337
  759SOL    HW1 3034   1.593   1.524   2.724  0.3194  1.3023 -0.5610
  759SOL    HW2 3035   1.650   1.476   2.874  1.1145  1.8245  2.1279
  759SOL     MW 3036   1.593   1.475   2.804  0.0016  0.3030  0.3052
  760SOL     OW 3037   2.595   1.925   2.722 -0.3212  0.0754  0.3933
  760SOL    HW1 3038   2.552   1.843   2.701  1.0082 -0.6879 -0.6013
  760SOL    HW2 3039   2.663   1.936   2.660  0.4805 -1.4177  3.3073
  760SOL     MW 3040   2.598   1.915   2.711 -0.0400 -0.2224  0.6465
  761SOL     OW 3041   2.272   0.454   2.421 -0.6893 -0.0645  0.3737
  761SOL    HW1 3042   2.194   0.408   2.453 -1.0558  1.6726 -1.4309
  761SOL    HW2 3043   2.331   0.460   2.495  0.8224  4.2852 -0.2091
  761SOL     MW 3044   2.269   0.449   2.435 -0.5382  0.7386  0.0587
  762SOL     OW 3045   0.026   0.183   2.115  0.0515  0.3003  0.6090
  762SOL    HW1 3046   0.009   0.133   2.197 -0.6827  2.9344  0.6683
  762SOL    HW2 3047  -0.054   0.221   2.075 -1.2377 -2.2850 -0.2494
  762SOL     MW 3048   0.013   0.181   2.121 -0.2154  0.3067  0.5035
  763SOL     OW 3049   2.461   1.205   2.362  0.2789 -0.3690 -0.1290
  763SOL    HW1 3050   2.503   1.122   2.327 -2.8254 -0.1015  0.3691
  763SOL    HW2 3051   2.523   1.253   2.410 -1.1285 -2.0233  0.4223
  763SOL     MW 3052   2.475   1.200   2.364 -0.3164 -0.5520  0.0095
  764SOL     OW 3053   0.386   0.081   2.817 -0.0005  0.2696  0.3473
  764SOL    HW1 3054   0.355   0.152   2.759 -0.7083  2.9967 -1.4835
  764SOL    HW2 3055   0.406   0.122   2.901 -1.6120  0.9491 -1.2687
  764SOL     MW 3056   0.384   0.096   2.820 -0.3065  0.7190 -0.1075
  765SOL     OW 3057   2.752   0.049   2.306 -0.1572  1.0026 -0.2262
  765SOL    HW1 3058   2.731   0.027   2.214 -1.2292 -0.7803 -1.8459
  765SOL    HW2 3059   2.800  -0.021   2.348  1.6264  2.3279  0.3407
  765SOL     MW 3060   2.755   0.037   2.300 -0.0633  0.9422 -0.3651
  766SOL     OW 3061   1.906   2.988   2.158  0.1371  0.6612 -0.2891
  766SOL    HW1 3062   1.976   3.013   2.102  2.3719  1.4800 -0.4443
  766SOL    HW2 3063   1.838   2.933   2.112  1.9983 -1.7213  1.6265
  766SOL     MW 3064   1.907   2.985   2.145  0.6775  0.4549 -0.0568
  767SOL     OW 3065   2.684   0.650   1.869  0.4498  0.1545 -0.1507
  767SOL    HW1 3066   2.735   0.690   1.942 -0.1106  0.0345 -1.3550
  767SOL    HW2 3067   2.608   0.706   1.850 -2.3608 -1.3263  2.1988
  767SOL     MW 3068   2.681   0.663   1.876  0.0050 -0.0567  0.0004
  768SOL     OW 3069   0.050   1.471   2.954 -0.6118  0.1554  0.2403
  768SOL    HW1 3070   0.077   1.454   3.048 -2.0923 -0.9143  3.7180
  768SOL    HW2 3071   0.066   1.387   2.912 -0.0257  2.4314  0.7686
  768SOL     MW 3072   0.056   1.458   2.961 -0.7298  0.3146  0.7688
  769SOL     OW 3073   2.385   0.710   2.320 -0.3232  0.0671 -0.4807
  769SOL    HW1 3074   2.367   0.616   2.325  1.3569  2.7243  0.8437
  769SOL    HW2 3075   2.454   0.721   2.261 -2.1372 -1.0768  2.4244
  769SOL     MW 3076   2.391   0.699   2.313 -0.3409  0.2667  0.0773
  770SOL     OW 3077   0.008   1.574   2.653  0.0625 -0.2514 -0.4143
  770SOL    HW1 3078  -0.089   1.565   2.650 -1.5403  0.3520  0.2653
  770SOL    HW2 3079   0.023   1.538   2.737 -0.2755  1.4412 -1.0087
  770SOL     MW 3080  -0.003   1.568   2.664 -0.1935  0.0516 -0.4030
  771SOL     OW 3081   3.064   0.608   1.978 -0.5496  0.5649 -0.3708
  771SOL    HW1 3082   3.024   0.594   1.888 -1.1386 -3.5032 -0.0446
  771SOL    HW2 3083   3.156   0.561   1.976  1.5915 -0.4918 -0.2024
  771SOL     MW 3084   3.071   0.600   1.966 -0.3448 -0.1113 -0.3055
  772SOL     OW 3085   0.027   0.009   2.335  0.6276 -0.4513 -0.1104
  772SOL    HW1 3086  -0.061  -0.031   2.362 -0.1414 -1.4263  1.2602
  772SOL    HW2 3087   0.083  -0.070   2.327  1.8475  2.2398 -1.0166
  772SOL     MW 3088   0.023  -0.007   2.337  0.6871 -0.2248 -0.0492
  773SOL     OW 3089   2.470   2.930   2.755  0.2805 -0.0743 -0.3913
  773SOL    HW1 3090   2.526   2.857   2.725  0.0177 -2.1618  0.4143
  773SOL    HW2 3091   2.430   2.901   2.840 -0.7144  1.8437  1.1625
  773SOL     MW 3092   2.472   2.917   2.762  0.1146 -0.0967 -0.0800
  774SOL     OW 3093   2.381   1.157   1.733 -0.0692  0.3408 -0.1070
  774SOL    HW1 3094   2.339   1.247   1.719  0.3378  1.0579 -0.3574
  774SOL    HW2 3095   2.321   1.089   1.709  1.2947 -2.5063 -2.7094
  774SOL     MW 3096   2.367   1.160   1.728  0.1645  0.0597 -0.4834
  775SOL     OW 3097   2.338   2.865   2.372 -0.2473  0.3541 -0.4253
  775SOL    HW1 3098   2.353   2.948   2.326 -0.6048  1.0277  1.4539
  775SOL    HW2 3099   2.413   2.803   2.361  2.3087  0.3258 -0.4571
  775SOL     MW 3100   2.350   2.867   2.364  0.0428  0.4392 -0.1815
  776SOL     OW 3101   0.138   1.483   0.102 -0.2289 -0.2518  0.5663
  776SOL    HW1 3102   0.234   1.468   0.107  0.7660  0.4481 -2.0585
  776SOL    HW2 3103   0.097   1.417   0.155  2.3343 -1.3909  0.6302
  776SOL     MW 3104   0.145   1.472   0.110  0.2405 -0.3097  0.2284
  777SOL     OW 3105   2.942   1.128   1.722 -0.0974  0.0504  0.6374
  777SOL    HW1 3106   2.887   1.195   1.665 -1.6724  2.3292 -0.1170
  777SOL    HW2 3107   2.878   1.065   1.740 -0.0104  3.5851 -1.0205
  777SOL     MW 3108   2.926   1.128   1.717 -0.2937  0.8174  0.3191
  778SOL     OW 3109   2.936   0.504   2.782 -0.0009  0.2402 -0.0487
  778SOL    HW1 3110   2.851   0.490   2.822 -0.0805 -2.5271 -0.7024
  778SOL    HW2 3111   2.921   0.548   2.696 -0.9454  1.3532 -0.6906
  778SOL     MW 3112   2.923   0.508   2.776 -0.1361  0.0219 -0.2197
  779SOL     OW 3113   2.231   0.480   2.119  0.3777 -1.0164  0.3456
  779SOL    HW1 3114   2.176   0.511   2.196  0.4391  1.2201  2.0401
  779SOL    HW2 3115   2.251   0.387   2.145 -0.7442 -0.5837 -2.6970
  779SOL     MW 3116   2.227   0.472   2.132  0.2378 -0.6642  0.1677
  780SOL     OW 3117   0.221   0.268   2.712 -0.0938  0.2761  0.7024
  780SOL    HW1 3118   0.136   0.270   2.764 -0.0438 -3.0404 -2.2316
  780SOL    HW2 3119   0.281   0.323   2.768 -1.2734  2.6945 -0.4878
  780SOL     MW 3120   0.217   0.276   2.726 -0.2428  0.1576  0.1582
  781SOL     OW 3121   0.016   1.249   2.446 -0.3473  0.5562 -0.1707
  781SOL    HW1 3122   0.043   1.294   2.363 -2.5124 -0.0021 -0.9477
  781SOL    HW2 3123   0.008   1.155   2.438  0.1650 -0.6395  0.4779
  781SOL     MW 3124   0.019   1.242   2.434 -0.5653  0.3248 -0.1876
  782SOL     OW 3125   0.692   1.488   0.049 -0.2442 -0.4774  0.1668
  782SOL    HW1 3126   0.623   1.550   0.009 -1.5831  0.9765 -1.4223
  782SOL    HW2 3127   0.726   1.521   0.132 -0.9917 -0.2387  0.7255
  782SOL     MW 3128   0.688   1.500   0.055 -0.5194 -0.2541  0.0309
  783SOL     OW 3129   2.711   0.498   2.368  0.5659 -0.2039  0.0911
  783SOL    HW1 3130   2.668   0.560   2.310  0.5199 -1.9291  2.5581
  783SOL    HW2 3131   2.659   0.497   2.452  1.0810  0.6235 -1.6043
  783SOL     MW 3132   2.698   0.506   2.372  0.6278 -0.3224  0.1929
  784SOL     OW 3133   0.184   0.832   2.825  0.6325  0.5130  0.0790
  784SOL    HW1 3134   0.096   0.865   2.795 -1.1040 -0.5754  0.9272
  784SOL    HW2 3135   0.254   0.880   2.781  1.3866  1.2237  1.8660
  784SOL     MW 3136   0.181   0.843   2.815  0.5029  0.4632  0.4267
  785SOL     OW 3137   0.411   0.397   2.161 -0.8136  0.1857  0.0534
  785SOL    HW1 3138   0.403   0.428   2.071  0.7901 -0.8039 -0.9210
  785SOL    HW2 3139   0.327   0.353   2.185 -0.3944 -1.7369  1.0670
  785SOL     MW 3140   0.399   0.395   2.152 -0.5467 -0.1985  0.0586
  786SOL     OW 3141   1.875   0.488   3.091 -0.1940 -0.0895  1.0228
  786SOL    HW1 3142   1.851   0.513   3.179 -2.4119  0.8261  2.7263
  786SOL    HW2 3143   1.804   0.505   3.038  1.7740 -0.2966 -0.5880
  786SOL     MW 3144   1.863   0.493   3.095 -0.2269  0.0040  1.0350
  787SOL     OW 3145   2.420   0.205   2.922  0.1364  0.1007 -0.2607
  787SOL    HW1 3146   2.493   0.157   2.886  1.2737  0.2194 -2.9269
  787SOL    HW2 3147   2.471   0.277   2.966  1.9233  0.8273  1.1799
  787SOL     MW 3148   2.436   0.208   2.923  0.5222  0.2122 -0.4224
  788SOL     OW 3149   2.900   2.931   2.435 -0.7619  0.9859  0.3116
  788SOL    HW1 3150   2.980   2.903   2.488  0.1690  2.0873  1.5521
  788SOL    HW2 3151   2.901   2.864   2.371 -0.4450  1.7224  0.1041
  788SOL     MW 3152   2.910   2.919   2.434 -0.5973  1.2284  0.4479
  789SOL     OW 3153   0.107   0.182   0.041  0.1405 -0.1773 -0.1965
  789SOL    HW1 3154   0.011   0.151   0.040  0.9875  3.9591 -0.7894
  789SOL    HW2 3155   0.108   0.248  -0.030  0.0170 -3.0814 -1.2893
  789SOL     MW 3156   0.095   0.186   0.031  0.2360 -0.0147 -0.4189
  790SOL     OW 3157   3.042   0.990   2.471  0.4556  0.2366  0.0488
  790SOL    HW1 3158   3.033   0.933   2.542  2.6497  0.9554 -0.3419
  790SOL    HW2 3159   2.979   0.955   2.400 -1.4447  2.8630  1.2821
  790SOL     MW 3160   3.032   0.978   2.471  0.4944  0.6780  0.1600
  791SOL     OW 3161   2.540   0.467   2.597 -0.1076 -0.7226  0.3990
  791SOL    HW1 3162   2.503   0.537   2.662 -0.8831  2.2189 -0.2600
  791SOL    HW2 3163   2.559   0.389   2.652  2.3705 -2.6371  0.0250
  791SOL     MW 3164   2.538   0.466   2.613  0.1171 -0.5871  0.2627
  792SOL     OW 3165   2.457   0.201   2.461 -0.1574 -0.0340  0.0700
  792SOL    HW1 3166   2.441   0.290   2.442 -0.4047 -0.5686  1.2717
  792SOL    HW2 3167   2.386   0.187   2.529 -0.9857 -0.5826  2.0936
  792SOL     MW 3168   2.446   0.211   2.467 -0.2993 -0.1770  0.4955
  793SOL     OW 3169   1.780   1.112   2.009 -0.0268 -0.3137 -0.8770
  793SOL    HW1 3170   1.752   1.103   1.915 -2.0118 -0.6940 -1.9153
  793SOL    HW2 3171   1.875   1.096   2.006 -1.6096 -0.4527  0.0875
  793SOL     MW 3172   1.789   1.109   1.996 -0.4975 -0.3822 -0.8868
  794SOL     OW 3173   1.373   2.317   0.108 -0.3754  0.0123 -0.2905
  794SOL    HW1 3174   1.413   2.407   0.085 -1.4551 -1.6768  3.1654
  794SOL    HW2 3175   1.429   2.294   0.180  1.6714  1.9398  2.1021
  794SOL     MW 3176   1.386   2.326   0.114 -0.2478  0.0438  0.4812
  795SOL     OW 3177   2.285   1.078   2.526  0.1776  0.5592  0.1908
  795SOL    HW1 3178   2.253   1.141   2.590  0.8904 -0.0196  2.0798
  795SOL    HW2 3179   2.343   1.131   2.480 -1.2842  1.9192  1.9324
  795SOL     MW 3180   2.288   1.093   2.529  0.0788  0.6623  0.6698
  796SOL     OW 3181   0.252   0.591   2.667 -0.1397 -0.0029 -0.0437
  796SOL    HW1 3182   0.215   0.666   2.711 -1.6293 -0.5374  0.5928
  796SOL    HW2 3183   0.191   0.584   2.589  2.3741  0.5134 -2.2899
  796SOL     MW 3184   0.239   0.600   2.663 -0.0046 -0.0053 -0.2561
  797SOL     OW 3185   2.715   0.216   2.619 -0.6636  0.1368 -0.0559
  797SOL    HW1 3186   2.697   0.161   2.544 -0.6666 -1.9781 -1.5651
  797SOL    HW2 3187   2.804   0.192   2.638 -2.4504 -3.4145 -1.9498
  797SOL     MW 3188   2.724   0.206   2.612 -0.8997 -0.6108 -0.5049
  798SOL     OW 3189   2.425   0.017   2.265 -0.7638 -0.1157  0.0808
  798SOL    HW1 3190   2.452   0.089   2.330 -1.3517  1.0263 -0.0104
  798SOL    HW2 3191   2.500   0.010   2.202 -0.0531 -2.6454 -1.1534
  798SOL     MW 3192   2.438   0.026   2.265 -0.7476 -0.2988 -0.0941
  799SOL     OW 3193   2.563   3.033   0.096 -0.1105 -0.5862  0.2435
  799SOL    HW1 3194   2.476   3.018   0.055  1.4581 -1.1337  0.4839
  799SOL    HW2 3195   2.542   3.037   0.192  2.4685 -1.6500 -0.2703
  799SOL     MW 3196   2.549   3.032   0.103  0.4368 -0.7988  0.2074
  800SOL     OW 3197   1.940   3.001   1.768 -0.0666  0.5613  0.1748
  800SOL    HW1 3198   1.864   2.946   1.789 -1.5537 -1.2954 -1.9713
  800SOL    HW2 3199   1.994   3.000   1.849  2.5947  1.8126  2.3640
  800SOL     MW 3200   1.937   2.994   1.781  0.0883  0.4814  0.1805
  801SOL     OW 3201   2.885   1.222   2.612 -0.4075 -0.1513  0.1701
  801SOL    HW1 3202   2.896   1.132   2.626 -1.4733  0.7248 -1.1001
  801SOL    HW2 3203   2.956   1.251   2.553 -0.6615 -0.0205  0.7031
  801SOL     MW 3204   2.896   1.214   2.606 -0.5817 -0.0184  0.0729
  802SOL     OW 3205   2.608   1.447   2.799 -1.2203  0.4587 -0.1857
  802SOL    HW1 3206   2.564   1.360   2.767 -0.7083  1.8595 -1.2483
  802SOL    HW2 3207   2.687   1.414   2.858  4.0272 -0.2619 -0.1271
  802SOL     MW 3208   2.613   1.431   2.803 -0.4604  0.5485 -0.3182
  803SOL     OW 3209   2.315   1.414   2.005 -0.1402 -0.5431  0.3005
  803SOL    HW1 3210   2.289   1.393   2.092 -0.7429 -0.6793 -0.1815
  803SOL    HW2 3211   2.317   1.330   1.961  0.9177 -0.7575  0.1825
  803SOL     MW 3212   2.312   1.400   2.011 -0.0801 -0.5894  0.2214
  804SOL     OW 3213   2.274   0.126   0.040  0.3947 -0.4402 -0.2872
  804SOL    HW1 3214   2.200   0.187   0.048 -0.9214  0.7234  1.2675
  804SOL    HW2 3215   2.336   0.159  -0.034 -0.1199 -2.6659  0.9868
  804SOL     MW 3216   2.273   0.139   0.031  0.1531 -0.5803  0.0860
  805SOL     OW 3217   2.712   0.847   2.649 -0.5169  0.3918  0.0716
  805SOL    HW1 3218   2.634   0.870   2.596  0.2511  0.0392 -1.1361
  805SOL    HW2 3219   2.744   0.756   2.628  1.9189 -0.0208 -0.9421
  805SOL     MW 3220   2.706   0.838   2.639 -0.0942  0.2909 -0.2215
  806SOL     OW 3221   2.663   0.725   2.222 -0.4632  0.0001  0.4733
  806SOL    HW1 3222   2.746   0.723   2.174 -0.0568 -1.5898  0.8009
  806SOL    HW2 3223   2.658   0.810   2.268  1.2508  1.9950 -0.9350
  806SOL     MW 3224   2.673   0.736   2.221 -0.1835  0.0536  0.3307
  807SOL     OW 3225   0.034   1.085   2.029  0.7422 -0.1320 -0.3265
  807SOL    HW1 3226   0.084   0.998   2.038  3.2523  1.3593 -0.4477
  807SOL    HW2 3227  -0.055   1.064   2.027 -1.6521 -0.8265  0.9624
  807SOL     MW 3228   0.029   1.071   2.030  0.7575 -0.0268 -0.1724
  808SOL     OW 3229   2.613   0.049   2.825  0.6833  0.2163 -0.0567
  808SOL    HW1 3230   2.579  -0.035   2.786  3.4163  0.9040 -1.4121
  808SOL    HW2 3231   2.643   0.096   2.748  0.3937 -4.6260  3.1654
  808SOL     MW 3232   2.613   0.044   2.810  1.0056 -0.3319  0.1896
  809SOL     OW 3233   2.683   1.352   2.429  0.2797 -0.1140  0.4695
  809SOL    HW1 3234   2.724   1.323   2.506 -0.4365  1.6955 -0.5432
  809SOL    HW2 3235   2.723   1.290   2.361 -0.2390  0.4628 -0.4160
  809SOL     MW 3236   2.693   1.340   2.430  0.1168  0.2008  0.2191
  810SOL     OW 3237   2.229   1.315   2.248 -0.2231  0.6077 -0.0142
  810SOL    HW1 3238   2.300   1.260   2.282 -1.6254 -1.0454 -0.6848
  810SOL    HW2 3239   2.146   1.282   2.279 -0.2596  1.1095  0.9337
  810SOL     MW 3240   2.227   1.303   2.257 -0.4129  0.4558  0.0224
  811SOL     OW 3241   1.608   0.171   2.299 -0.5703 -0.3149  0.4864
  811SOL    HW1 3242   1.695   0.133   2.310 -1.6958  0.9155  2.0717
  811SOL    HW2 3243   1.589   0.159   2.200  0.0181  1.5153  0.1287
  811SOL     MW 3244   1.617   0.165   2.288 -0.6412  0.0889  0.6484
  812SOL     OW 3245   1.472   2.847   2.051 -0.1500  0.6464  0.5016
  812SOL    HW1 3246   1.566   2.842   2.055 -1.0912  1.4836  0.7963
  812SOL    HW2 3247   1.444   2.817   2.138  0.3134 -1.2034 -1.2061
  812SOL     MW 3248   1.480   2.843   2.063 -0.2131  0.5128  0.3152
  813SOL     OW 3249   2.021   0.631   2.245 -0.5052 -0.2462 -0.2960
  813SOL    HW1 3250   1.947   0.582   2.212  3.2678  0.1648  1.6475
  813SOL    HW2 3251   1.981   0.692   2.312 -1.2450  3.6683 -0.4228
  813SOL     MW 3252   2.006   0.633   2.250 -0.1050  0.3245 -0.0563
  814SOL     OW 3253   2.701   1.274   1.641 -0.2882 -0.8528 -0.1678
  814SOL    HW1 3254   2.654   1.217   1.702  1.1794 -1.1027 -0.2662
  814SOL    HW2 3255   2.716   1.224   1.560 -3.4901 -2.0588 -1.5319
  814SOL     MW 3256   2.697   1.260   1.638 -0.5170 -1.0449 -0.3608
  815SOL     OW 3257   2.511   1.763   2.414 -0.2712 -0.0360  0.2797
  815SOL    HW1 3258   2.486   1.684   2.358 -1.6494 -1.9041  0.4813
  815SOL    HW2 3259   2.608   1.765   2.422 -0.1518  0.8221  0.7138
  815SOL     MW 3260   2.521   1.753   2.408 -0.4373 -0.1693  0.3636
  816SOL     OW 3261   0.734   0.668   2.802  0.3838 -0.0420 -0.4036
  816SOL    HW1 3262   0.732   0.573   2.822 -2.6358 -1.5403  1.1509
  816SOL    HW2 3263   0.640   0.667   2.791  0.2134 -3.7729  0.4615
  816SOL     MW 3264   0.721   0.655   2.803 -0.0371 -0.7319 -0.0844
  817SOL     OW 3265   2.993   1.262   1.447 -0.1196 -0.0100  0.2517
  817SOL    HW1 3266   3.081   1.233   1.460  0.6668 -0.7386 -0.6216
  817SOL    HW2 3267   3.003   1.353   1.405  3.0045  1.7542 -1.1774
  817SOL     MW 3268   3.006   1.270   1.443  0.3963  0.1267 -0.0521
  818SOL     OW 3269   1.939   1.046   2.637 -0.0257  0.2894  0.1533
  818SOL    HW1 3270   1.902   0.966   2.618 -4.8226  0.8228  0.4494
  818SOL    HW2 3271   2.014   1.018   2.685 -1.7009 -3.4791 -3.2489
  818SOL     MW 3272   1.944   1.031   2.641 -0.8797 -0.1375 -0.2565
  819SOL     OW 3273   1.985   0.359   2.449 -0.7505 -0.0354  0.3722
  819SOL    HW1 3274   1.918   0.429   2.441 -0.7326 -0.8279  2.1295
  819SOL    HW2 3275   1.991   0.357   2.541 -0.3891  3.4629 -1.3952
  819SOL     MW 3276   1.977   0.368   2.460 -0.7004  0.3216  0.3709
  820SOL     OW 3277   2.472   1.676   2.669 -0.1843 -0.4043  0.0176
  820SOL    HW1 3278   2.520   1.600   2.701  0.7560  0.8912 -0.4702
  820SOL    HW2 3279   2.499   1.689   2.580 -2.3694 -0.9170  0.7633
  820SOL     MW 3280   2.482   1.667   2.661 -0.3485 -0.3010  0.0516
  821SOL     OW 3281   2.595   1.385   1.989 -0.7016 -0.0242  0.1402
  821SOL    HW1 3282   2.612   1.454   1.926  1.0319 -0.7413 -2.3651
  821SOL    HW2 3283   2.503   1.408   2.017  0.6494  0.1051 -0.4523
  821SOL     MW 3284   2.585   1.397   1.984 -0.2946 -0.1017 -0.2685
  822SOL     OW 3285   2.939   2.739   1.503 -0.1934  0.3429 -0.0491
  822SOL    HW1 3286   2.941   2.711   1.598 -0.1845  1.3094 -2.5317
  822SOL    HW2 3287   2.910   2.828   1.502 -1.3770 -1.5297 -1.4724
  822SOL     MW 3288   2.935   2.747   1.515 -0.3484  0.2233 -0.5644
  823SOL     OW 3289   2.360   0.473   1.859 -0.2385  0.1194 -0.0434
  823SOL    HW1 3290   2.427   0.414   1.838  0.1137 -1.2674  0.6473
  823SOL    HW2 3291   2.320   0.445   1.945  1.5202  0.0345 -0.1816
  823SOL     MW 3292   2.364   0.461   1.868  0.0400 -0.0747  0.0295
  824SOL     OW 3293   2.286   1.494   2.596  0.3449  0.1507  1.1446
  824SOL    HW1 3294   2.349   1.559   2.628 -1.5393  2.6186 -0.4802
  824SOL    HW2 3295   2.207   1.548   2.589 -1.6082  0.3436  1.1476
  824SOL     MW 3296   2.284   1.509   2.599 -0.1614  0.5018  0.9306
  825SOL     OW 3297   1.868   2.613   0.235 -0.2544 -0.2013 -0.1430
  825SOL    HW1 3298   1.832   2.573   0.318 -0.3327 -0.5163 -1.6397
  825SOL    HW2 3299   1.936   2.550   0.207 -0.7806  0.4372  5.4633
  825SOL     MW 3300   1.872   2.599   0.242 -0.3342 -0.1586  0.3992
  826SOL     OW 3301   1.838   2.346   0.451 -0.4858  0.9796  0.1752
  826SOL    HW1 3302   1.803   2.261   0.484  1.1396  1.5729  0.2043
  826SOL    HW2 3303   1.811   2.417   0.516  1.1233 -2.0715  3.0290
  826SOL     MW 3304   1.830   2.344   0.464 -0.0590  0.6553  0.5556
  827SOL     OW 3305   1.954   2.222   0.779 -0.6865  0.7145  0.4813
  827SOL    HW1 3306   1.860   2.213   0.747 -0.5395 -2.0059 -0.8958
  827SOL    HW2 3307   1.940   2.194   0.866  1.4242 -0.1027  2.8416
  827SOL     MW 3308   1.940   2.217   0.786 -0.3886  0.2478  0.6110
  828SOL     OW 3309   0.054   2.634   0.592 -0.4680  0.3124 -0.3164
  828SOL    HW1 3310   0.147   2.657   0.600  0.5130  0.2181  1.0276
  828SOL    HW2 3311   0.033   2.680   0.510  1.5425  0.3967 -0.5613
  828SOL     MW 3312   0.064   2.643   0.582 -0.0733  0.3111 -0.1714
  829SOL     OW 3313   2.990   2.951   1.170 -0.0901 -0.5870  0.0919
  829SOL    HW1 3314   2.911   2.937   1.111 -2.5993 -0.3706 -1.9849
  829SOL    HW2 3315   3.017   2.865   1.185  0.6947 -0.9359 -0.8224
  829SOL     MW 3316   2.983   2.938   1.164 -0.3176 -0.6045 -0.3027
  830SOL     OW 3317   2.539   2.833   2.011  0.2425  0.1035 -0.0829
  830SOL    HW1 3318   2.449   2.817   1.978 -0.3242  2.0456 -0.3723
  830SOL    HW2 3319   2.587   2.806   1.930 -1.6181 -0.0295  1.4187
  830SOL     MW 3320   2.533   2.828   1.996 -0.0777  0.3422  0.0770
  831SOL     OW 3321   2.416   2.426   1.200 -0.2567  0.4651 -1.0155
  831SOL    HW1 3322   2.372   2.359   1.252  0.5683 -1.7872 -1.2173
  831SOL    HW2 3323   2.505   2.398   1.189 -0.9011  2.0232  0.7962
  831SOL     MW 3324   2.422   2.413   1.206 -0.2328  0.3735 -0.8031
  832SOL     OW 3325   2.342   2.192   1.828 -0.0533 -0.4180  0.0688
  832SOL    HW1 3326   2.373   2.280   1.856  0.5698  2.1073 -2.2947
  832SOL    HW2 3327   2.420   2.145   1.801  2.2970  2.1680 -0.2895
  832SOL     MW 3328   2.356   2.198   1.828  0.3390  0.2564 -0.2903
  833SOL     OW 3329   1.737   2.510   0.875  0.4238  0.0355  0.0347
  833SOL    HW1 3330   1.648   2.489   0.912  0.2347  1.5248  0.1295
  833SOL    HW2 3331   1.762   2.585   0.925 -0.8571 -2.0942 -5.5884
  833SOL     MW 3332   1.728   2.517   0.886  0.2299 -0.0490 -0.6947
  834SOL     OW 3333   2.113   2.433   0.555 -0.0244 -0.2722  0.2515
  834SOL    HW1 3334   2.063   2.354   0.585 -2.9060  0.9324 -1.2772
  834SOL    HW2 3335   2.147   2.407   0.469 -1.3588 -0.8270 -2.0370
  834SOL     MW 3336   2.110   2.419   0.548 -0.5806 -0.1865 -0.2521
  835SOL     OW 3337   1.801   2.580   0.609 -0.0398 -0.3744  0.0652
  835SOL    HW1 3338   1.758   2.560   0.696 -2.1378  0.0496  2.9720
  835SOL    HW2 3339   1.892   2.587   0.626 -2.5314 -0.0968 -1.8736
  835SOL     MW 3340   1.807   2.578   0.623 -0.6454 -0.2818  0.1929
  836SOL     OW 3341   1.867   2.231   1.559 -0.3622 -0.4861  0.2374
  836SOL    HW1 3342   1.946   2.231   1.613  1.3189 -1.2247  0.4609
  836SOL    HW2 3343   1.804   2.289   1.600  0.3273 -2.1522  0.9509
  836SOL     MW 3344   1.869   2.238   1.572 -0.0494 -0.8034  0.3610
  837SOL     OW 3345   2.151   0.208   0.736 -0.4105 -0.4957  0.0334
  837SOL    HW1 3346   2.072   0.211   0.685 -1.4414  1.9405  0.4626
  837SOL    HW2 3347   2.209   0.179   0.664 -1.6102 -0.0203  2.1285
  837SOL     MW 3348   2.148   0.205   0.720 -0.7048 -0.1115  0.3664
  838SOL     OW 3349   2.912   2.049   0.935 -0.2095 -0.6511 -0.3646
  838SOL    HW1 3350   2.842   1.984   0.926 -3.3427  1.2679 -0.1468
  838SOL    HW2 3351   2.997   2.009   0.930  1.0306 -0.8689  0.1726
  838SOL     MW 3352   2.914   2.035   0.933 -0.4593 -0.4266 -0.2650
  839SOL     OW 3353   1.505   2.351   1.040  0.4556 -0.2769  0.0376
  839SOL    HW1 3354   1.544   2.390   1.116  1.5896 -0.3079 -1.3491
  839SOL    HW2 3355   1.542   2.266   1.040  0.9127 -1.4134  1.0116
  839SOL     MW 3356   1.515   2.345   1.050  0.6655 -0.4309 -0.0169
  840SOL     OW 3357   2.362   2.226   2.443 -0.7050 -0.7931  0.1556
  840SOL    HW1 3358   2.328   2.300   2.399  3.4168 -0.4643  1.2003
  840SOL    HW2 3359   2.345   2.240   2.545  1.1423 -2.3872  2.5079
  840SOL     MW 3360   2.355   2.238   2.451  0.0826 -0.9601  0.6038
  841SOL     OW 3361   2.062   2.465   0.101 -0.2776 -0.1992  0.7857
  841SOL    HW1 3362   2.136   2.517   0.063 -0.4561 -2.5733 -4.1406
  841SOL    HW2 3363   2.058   2.381   0.055  0.1731  1.5398 -0.8918
  841SOL     MW 3364   2.071   2.461   0.090 -0.2417 -0.2830 -0.0856
  842SOL     OW 3365   2.667   2.067   1.542  0.2249 -0.0924  0.6659
  842SOL    HW1 3366   2.608   2.033   1.610  0.1001  0.7780 -0.5581
  842SOL    HW2 3367   2.620   2.105   1.469  3.2699  1.8788 -0.3012
  842SOL     MW 3368   2.653   2.067   1.541  0.6102  0.2825  0.3768
  843SOL     OW 3369   2.674   2.773   1.776 -0.0796  0.3022  0.0358
  843SOL    HW1 3370   2.748   2.715   1.763 -0.1237 -0.1184  2.5142
  843SOL    HW2 3371   2.621   2.759   1.705 -0.3986 -2.4947  0.5364
  843SOL     MW 3372   2.677   2.764   1.765 -0.1275 -0.1223  0.4288
  844SOL     OW 3373   2.662   2.349   1.211 -0.3826  0.3844 -0.6472
  844SOL    HW1 3374   2.708   2.331   1.129  0.5216 -0.7313 -1.9373
  844SOL    HW2 3375   2.721   2.423   1.245 -1.4233  4.0714 -0.5238
  844SOL     MW 3376   2.676   2.357   1.205 -0.4006  0.7237 -0.8011
  845SOL     OW 3377   2.867   2.481   0.316  0.1578 -0.2988 -0.4340
  845SOL    HW1 3378   2.821   2.391   0.306 -2.2953  0.0677 -1.7110
  845SOL    HW2 3379   2.846   2.497   0.410 -1.6310 -1.7383 -2.6658
  845SOL     MW 3380   2.858   2.471   0.327 -0.4019 -0.4404 -0.8969
  846SOL     OW 3381   1.550   2.885   0.754  0.8486  0.0274  1.0184
  846SOL    HW1 3382   1.642   2.892   0.792  1.3839  1.1775  0.0072
  846SOL    HW2 3383   1.487   2.941   0.798 -2.8817  0.5355 -3.2940
  846SOL     MW 3384   1.554   2.894   0.765  0.4270  0.2462  0.3160
  847SOL     OW 3385   2.614   1.970   0.166  0.1681 -0.5346 -0.0989
  847SOL    HW1 3386   2.681   1.919   0.209  0.6566 -3.2647 -2.4399
  847SOL    HW2 3387   2.574   1.906   0.107 -2.1887 -2.2494 -1.2935
  847SOL     MW 3388   2.618   1.955   0.164 -0.0784 -1.1211 -0.5654
  848SOL     OW 3389   2.544   2.140   1.309 -0.3459  0.0493 -0.0543
  848SOL    HW1 3390   2.583   2.230   1.289 -0.1264  0.2001 -0.0619
  848SOL    HW2 3391   2.547   2.081   1.234  1.8443 -1.2389 -1.7685
  848SOL     MW 3392   2.550   2.144   1.296 -0.0280 -0.1008 -0.2815
  849SOL     OW 3393   1.993   2.683   0.798 -0.6304  0.0747  0.1264
  849SOL    HW1 3394   2.017   2.601   0.836  0.6298  0.8524 -1.7566
  849SOL    HW2 3395   2.067   2.712   0.742  0.2397 -3.0928  1.2764
  849SOL     MW 3396   2.006   2.676   0.796 -0.3493 -0.2406  0.0297
  850SOL     OW 3397   2.183   1.931   1.686 -0.1393  0.6341 -0.3091
  850SOL    HW1 3398   2.106   1.880   1.653  0.6425  0.3574 -1.4748
  850SOL    HW2 3399   2.163   2.027   1.669  0.9612  1.4151  0.1465
  850SOL     MW 3400   2.170   1.937   1.679  0.1090  0.7007 -0.4028
  851SOL     OW 3401   2.232   2.369   0.329 -0.5320 -0.1987  0.0831
  851SOL    HW1 3402   2.165   2.378   0.257 -0.4174  1.3756 -0.2902
  851SOL    HW2 3403   2.281   2.449   0.340 -0.5520 -0.9801 -0.3428
  851SOL     MW 3404   2.230   2.381   0.321 -0.5196 -0.0941 -0.0223
  852SOL     OW 3405   2.337   2.103   0.295 -0.3318  0.2319 -0.0376
  852SOL    HW1 3406   2.312   2.185   0.333  0.1403  0.3579 -1.5600
  852SOL    HW2 3407   2.393   2.125   0.218 -0.9948  0.0419 -0.2772
  852SOL     MW 3408   2.341   2.117   0.290 -0.3570  0.2235 -0.2701
  853SOL     OW 3409   2.440   2.423   1.910 -0.0574  0.5964  0.3161
  853SOL    HW1 3410   2.465   2.477   1.831  1.3329  1.8004 -0.9747
  853SOL    HW2 3411   2.527   2.421   1.956  0.9118  1.5259 -1.5918
  853SOL     MW 3412   2.455   2.430   1.906  0.2539  0.8779 -0.1060
  854SOL     OW 3413   2.871   2.226   0.735  0.2446 -0.3912  0.1249
  854SOL    HW1 3414   2.809   2.188   0.675  0.9028 -0.1907  0.7701
  854SOL    HW2 3415   2.876   2.161   0.812 -1.7203  1.2686  1.6615
  854SOL     MW 3416   2.864   2.213   0.738  0.0722 -0.1457  0.4128
  855SOL     OW 3417   2.725   2.251   0.328  0.4498  0.3190 -0.5263
  855SOL    HW1 3418   2.654   2.263   0.391 -2.3315 -1.5093  1.4708
  855SOL    HW2 3419   2.788   2.187   0.366 -0.6769  1.0286 -1.9165
  855SOL     MW 3420   2.724   2.244   0.342 -0.0658  0.1714 -0.4462
  856SOL     OW 3421   2.205   1.891   0.174 -0.1139 -0.1302  0.3531
  856SOL    HW1 3422   2.116   1.911   0.207 -0.5304 -2.1010 -1.1456
  856SOL    HW2 3423   2.270   1.949   0.222  0.3768 -0.4983  0.8504
  856SOL     MW 3424   2.201   1.901   0.185 -0.1041 -0.4388  0.2209
  857SOL     OW 3425   2.489   1.906   0.458  0.0213  0.0540 -0.1405
  857SOL    HW1 3426   2.483   1.980   0.391  1.2017  0.2914  0.2023
  857SOL    HW2 3427   2.397   1.869   0.451 -2.7682  0.8355 -0.7234
  857SOL     MW 3428   2.476   1.911   0.449 -0.1910  0.1885 -0.1722
  858SOL     OW 3429   2.931   2.657   1.776  0.4227  0.0339 -0.0529
  858SOL    HW1 3430   3.015   2.673   1.821 -2.2461  2.2963 -1.7677
  858SOL    HW2 3431   2.888   2.573   1.806  0.5011 -2.4859 -0.9040
  858SOL     MW 3432   2.936   2.648   1.786  0.0810 -0.0000 -0.3915
  859SOL     OW 3433   2.070   2.431   0.905  0.0300  0.6165  0.0450
  859SOL    HW1 3434   2.033   2.358   0.848 -0.5681 -0.8083  1.6939
  859SOL    HW2 3435   2.165   2.419   0.907 -2.2854  1.0877  2.8001
  859SOL     MW 3436   2.077   2.420   0.898 -0.3544  0.4907  0.6260
  860SOL     OW 3437   2.663   2.612   0.186 -0.3774  0.4143  0.1026
  860SOL    HW1 3438   2.732   2.572   0.236 -2.0794  3.6209 -1.0798
  860SOL    HW2 3439   2.702   2.686   0.148 -0.5013 -0.4588 -0.0397
  860SOL     MW 3440   2.677   2.617   0.187 -0.6183  0.7221 -0.0721
  861SOL     OW 3441   1.614   2.072   1.149 -0.7720 -0.0100 -0.0247
  861SOL    HW1 3442   1.674   2.090   1.230  1.0512  1.2163 -1.0563
  861SOL    HW2 3443   1.547   2.007   1.179 -0.1672  1.5913  0.1515
  861SOL     MW 3444   1.613   2.066   1.164 -0.4517  0.3630 -0.1376
  862SOL     OW 3445   2.415   1.868   1.574 -0.5349  0.1873 -0.2933
  862SOL    HW1 3446   2.328   1.884   1.618 -0.8611 -0.1746 -2.0158
  862SOL    HW2 3447   2.391   1.857   1.482 -0.6555  0.1879  1.7325
  862SOL     MW 3448   2.400   1.869   1.568 -0.5938  0.1396 -0.2533
  863SOL     OW 3449   3.044   1.802   1.212  0.7466  0.4763 -0.5966
  863SOL    HW1 3450   3.073   1.761   1.292  1.0607 -1.0834 -1.7249
  863SOL    HW2 3451   3.056   1.898   1.217 -0.5157  2.8328 -1.4949
  863SOL     MW 3452   3.049   1.809   1.223  0.6215  0.5815 -0.8640
  864SOL     OW 3453   0.047   1.871   0.918 -0.7089 -0.3272  0.0723
  864SOL    HW1 3454  -0.019   1.832   0.970  0.2405  2.3296 -0.9378
  864SOL    HW2 3455   0.049   1.827   0.833 -1.3506  0.5521 -1.8877
  864SOL     MW 3456   0.038   1.860   0.914 -0.6683  0.1394 -0.3195
  865SOL     OW 3457   2.486   2.174   0.045  0.3512  0.1741  0.5465
  865SOL    HW1 3458   2.554   2.106   0.079 -0.6316  1.8494 -2.4286
  865SOL    HW2 3459   2.460   2.121  -0.037  0.3008 -0.1489  2.8064
  865SOL     MW 3460   2.492   2.158   0.039  0.2149  0.3526  0.4522
  866SOL     OW 3461   2.729   2.343   1.582 -0.2289 -0.4340  0.0206
  866SOL    HW1 3462   2.708   2.249   1.589  0.7741  0.5325 -0.6430
  866SOL    HW2 3463   2.775   2.356   1.498  0.1520 -0.7769 -1.1949
  866SOL     MW 3464   2.732   2.332   1.572 -0.0463 -0.3517 -0.2274
  867SOL     OW 3465   0.090   2.713   1.858 -0.3385 -0.0383 -0.1391
  867SOL    HW1 3466   0.172   2.696   1.909 -1.3912 -0.4929  3.6094
  867SOL    HW2 3467   0.077   2.810   1.847 -0.4153  0.3423  0.1314
  867SOL     MW 3468   0.099   2.724   1.863 -0.4876 -0.0481  0.3912
  868SOL     OW 3469   2.794   2.535   0.579 -0.2899 -0.3818 -0.2396
  868SOL    HW1 3470   2.721   2.481   0.607  2.1222  0.2691  2.5719
  868SOL    HW2 3471   2.760   2.611   0.532  3.2679 -0.3507  1.2535
  868SOL     MW 3472   2.780   2.538   0.576  0.4978 -0.2918  0.3284
  869SOL     OW 3473   1.897   2.345   1.085 -0.0867  0.2822 -0.2294
  869SOL    HW1 3474   1.959   2.397   1.032 -0.5081 -0.2155 -1.9818
  869SOL    HW2 3475   1.822   2.372   1.043  3.9262 -0.6332 -2.4199
  869SOL     MW 3476   1.895   2.355   1.073  0.3872  0.0958 -0.7497
  870SOL     OW 3477   2.305   0.077   0.531 -0.3920 -0.7958  0.0515
  870SOL    HW1 3478   2.345   0.104   0.443  0.9338  0.2462 -0.3170
  870SOL    HW2 3479   2.374   0.020   0.560  0.0981  0.3287 -2.8201
  870SOL     MW 3480   2.319   0.073   0.523 -0.1524 -0.5099 -0.3760
  871SOL     OW 3481   2.461   2.110   0.814 -0.2441 -0.5266  0.5471
  871SOL    HW1 3482   2.388   2.055   0.773  1.5203  1.6724 -1.5347
  871SOL    HW2 3483   2.416   2.177   0.872 -2.7238 -1.5409  1.4733
  871SOL     MW 3484   2.446   2.112   0.816 -0.3385 -0.3703  0.3946
  872SOL     OW 3485   2.013   2.581   1.402  0.5743  0.1536 -0.6663
  872SOL    HW1 3486   1.982   2.610   1.490 -1.9052  0.5581 -1.6441
  872SOL    HW2 3487   1.947   2.515   1.374  0.0679 -0.7790 -1.4436
  872SOL     MW 3488   2.000   2.576   1.410  0.1804  0.0839 -0.8978
  873SOL     OW 3489   2.836   2.045   1.890 -0.1815 -0.0940  0.3383
  873SOL    HW1 3490   2.857   2.117   1.958 -0.8558  0.6725  0.2123
  873SOL    HW2 3491   2.906   2.044   1.824 -1.5945  0.3337 -1.2702
  873SOL     MW 3492   2.848   2.055   1.890 -0.4569  0.0636  0.1095
  874SOL     OW 3493   2.450   1.509   2.286  0.1244 -0.2113  0.4021
  874SOL    HW1 3494   2.355   1.495   2.313 -1.7968  0.8611  1.1095
  874SOL    HW2 3495   2.513   1.446   2.323  0.4794  2.0871  0.8917
  874SOL     MW 3496   2.446   1.499   2.294 -0.0823  0.2334  0.5600
  875SOL     OW 3497   2.339   2.348   0.935  0.1269 -1.1637  0.2782
  875SOL    HW1 3498   2.388   2.418   0.888 -0.5170  1.8149 -1.8029
  875SOL    HW2 3499   2.369   2.364   1.025  0.4463  0.2119 -0.7659
  875SOL     MW 3500   2.350   2.359   0.940  0.0841 -0.5892 -0.1342
  876SOL     OW 3501   3.045   2.357   1.344  0.1564  0.2151  0.1532
  876SOL    HW1 3502   3.107   2.349   1.268  1.4065  0.8520 -3.8205
  876SOL    HW2 3503   3.089   2.416   1.405  0.5628  0.2795 -1.3484
  876SOL     MW 3504   3.059   2.364   1.342  0.3750  0.3076 -0.5692
  877SOL     OW 3505   3.070   2.789   0.383 -0.0256 -0.2647 -0.1455
  877SOL    HW1 3506   3.035   2.866   0.336 -0.0425 -1.3428 -0.3080
  877SOL    HW2 3507   3.065   2.722   0.314 -2.6323 -1.3568  1.0839
  877SOL     MW 3508   3.065   2.790   0.367 -0.3718 -0.5511 -0.0047
  878SOL     OW 3509   2.368   1.842   1.293 -0.3591  0.2242  0.3949
  878SOL    HW1 3510   2.333   1.754   1.301 -1.8259 -0.6407  1.4641
  878SOL    HW2 3511   2.454   1.822   1.262  1.8841  0.3418 -0.4728
  878SOL     MW 3512   2.375   1.828   1.290 -0.2566  0.1256  0.4215
  879SOL     OW 3513   2.741   2.399   0.938  1.0103  0.3516 -0.3384
  879SOL    HW1 3514   2.799   2.471   0.949 -1.9976 -0.8149 -2.5011
  879SOL    HW2 3515   2.779   2.341   0.870  2.3457  0.6967  0.4433
  879SOL     MW 3516   2.754   2.401   0.931  0.7897  0.2432 -0.5206
  880SOL     OW 3517   2.645   2.004   0.655  0.2362  0.3459  0.3602
  880SOL    HW1 3518   2.593   2.051   0.719 -0.4314 -0.0736  2.5366
  880SOL    HW2 3519   2.580   1.958   0.600  1.1643 -0.8221 -0.2861
  880SOL     MW 3520   2.629   2.004   0.656  0.2706  0.1365  0.5621
  881SOL     OW 3521   2.936   2.703   0.749  0.5007 -0.1061  0.6887
  881SOL    HW1 3522   2.885   2.641   0.695 -0.8302 -2.7008 -0.9789
  881SOL    HW2 3523   3.021   2.702   0.705 -1.4114  0.0431 -1.0050
  881SOL     MW 3524   2.940   2.695   0.736  0.0728 -0.4288  0.2452
  882SOL     OW 3525   2.284   2.809   1.859  0.6646 -1.0031 -0.1240
  882SOL    HW1 3526   2.243   2.819   1.772  0.4945 -0.8298  0.7542
  882SOL    HW2 3527   2.234   2.755   1.918  0.6888 -1.4423 -1.4009
  882SOL     MW 3528   2.272   2.803   1.855  0.6454 -1.0382 -0.1766
  883SOL     OW 3529   2.289   2.222   1.359 -0.0889  0.1447 -0.1090
  883SOL    HW1 3530   2.374   2.176   1.347 -2.3000  0.5261  2.1715
  883SOL    HW2 3531   2.223   2.175   1.303 -2.3455 -1.4005 -0.5321
  883SOL     MW 3532   2.292   2.210   1.350 -0.6784 -0.0089  0.1360
  884SOL     OW 3533   1.924   1.816   1.110 -0.0480  0.8465  0.5659
  884SOL    HW1 3534   1.871   1.888   1.066 -0.4723 -2.3011 -0.5751
  884SOL    HW2 3535   2.012   1.851   1.106  0.1859 -0.5089  3.6295
  884SOL     MW 3536   1.928   1.830   1.103 -0.0731  0.2524  0.8196
  885SOL     OW 3537   2.817   2.427   1.831 -0.0411 -0.0016  0.6644
  885SOL    HW1 3538   2.909   2.388   1.833 -1.7898 -1.1962 -2.3169
  885SOL    HW2 3539   2.776   2.393   1.748  0.8557 -0.2541  0.8035
  885SOL     MW 3540   2.823   2.417   1.820 -0.1535 -0.1925  0.2894
  886SOL     OW 3541   2.839   2.528   1.329 -0.5045 -0.0085 -0.0094
  886SOL    HW1 3542   2.904   2.459   1.351 -1.3307  1.1368  5.8168
  886SOL    HW2 3543   2.870   2.604   1.375  0.3751  0.8846 -1.5164
  886SOL     MW 3544   2.852   2.529   1.338 -0.4974  0.2604  0.5605
  887SOL     OW 3545   2.293   2.614   1.456 -0.1238 -0.0285  0.1941
  887SOL    HW1 3546   2.318   2.641   1.371  0.9352 -0.0264  2.3704
  887SOL    HW2 3547   2.200   2.587   1.447  0.6544 -0.1074 -2.1181
  887SOL     MW 3548   2.284   2.614   1.444  0.1186 -0.0386  0.1762
  888SOL     OW 3549   1.816   2.061   1.363 -0.4544  0.4187  0.0587
  888SOL    HW1 3550   1.901   2.062   1.314  0.2008 -1.7445  1.0313
  888SOL    HW2 3551   1.830   2.125   1.438 -1.3115  1.0450 -0.0353
  888SOL     MW 3552   1.829   2.069   1.366 -0.4810  0.2159  0.1746
  889SOL     OW 3553   2.300   2.083   2.106  0.5147 -0.1572  0.1215
  889SOL    HW1 3554   2.385   2.064   2.142 -0.5402  0.0342  0.1413
  889SOL    HW2 3555   2.325   2.111   2.016  0.3530  0.8981 -0.1959
  889SOL     MW 3556   2.315   2.084   2.099  0.3542  0.0073  0.0823
  890SOL     OW 3557   0.095   2.302   0.078  0.0143 -0.0992  0.1225
  890SOL    HW1 3558   0.151   2.372   0.055  1.7306 -1.1022 -0.1667
  890SOL    HW2 3559   0.080   2.305   0.174  0.3085 -1.8726  1.0709
  890SOL     MW 3560   0.101   2.311   0.087  0.2795 -0.4655  0.2094
  891SOL     OW 3561   3.044   2.060   1.332  0.2616 -0.1617 -0.4098
  891SOL    HW1 3562   3.097   2.034   1.404  0.1645 -0.8050  0.7799
  891SOL    HW2 3563   3.046   2.158   1.319 -1.8063 -0.9312  1.8442
  891SOL     MW 3564   3.051   2.069   1.340 -0.0240 -0.3481  0.0445
  892SOL     OW 3565   2.336   2.367   2.960 -0.1340  0.0699  0.5294
  892SOL    HW1 3566   2.341   2.313   3.041 -0.4549 -0.2292 -0.9269
  892SOL    HW2 3567   2.420   2.363   2.919  0.2341  2.5367  1.4749
  892SOL     MW 3568   2.348   2.359   2.965 -0.1278  0.3559  0.4620
  893SOL     OW 3569   1.600   2.516   1.241  0.0984  0.3386 -0.4565
  893SOL    HW1 3570   1.521   2.532   1.289 -1.0398 -1.4891  0.7807
  893SOL    HW2 3571   1.660   2.481   1.303  2.0058  1.9003 -0.2024
  893SOL     MW 3572   1.598   2.513   1.255  0.1999  0.3035 -0.2597
  894SOL     OW 3573   2.895   1.884   0.525 -0.2601  0.5299 -0.8062
  894SOL    HW1 3574   2.807   1.913   0.573 -3.1609  1.5296  1.4519
  894SOL    HW2 3575   2.873   1.835   0.452  0.6296 -0.7890  3.7390
  894SOL     MW 3576   2.880   1.881   0.521 -0.5254  0.4878  0.0914
  895SOL     OW 3577   2.058   2.115   1.198  0.3762 -0.0170 -0.5185
  895SOL    HW1 3578   2.008   2.169   1.138  2.2105 -0.0662 -0.7924
  895SOL    HW2 3579   2.116   2.061   1.144 -0.2430  0.3705  0.0959
  895SOL     MW 3580   2.059   2.115   1.183  0.5365  0.0277 -0.4736
  896SOL     OW 3581   2.186   2.804   1.036 -0.2857  0.0826  1.0190
  896SOL    HW1 3582   2.260   2.766   1.084 -0.5275  1.3803  0.4016
  896SOL    HW2 3583   2.112   2.746   1.072  0.5151 -2.2119  0.8994
  896SOL     MW 3584   2.186   2.792   1.047 -0.2119 -0.0489  0.9217
  897SOL     OW 3585   2.988   2.960   0.155 -0.5962  0.0916 -0.5225
  897SOL    HW1 3586   3.071   2.915   0.139  0.9919  0.2256 -2.6143
  897SOL    HW2 3587   2.922   2.925   0.093  2.6554 -1.7741  0.6004
  897SOL     MW 3588   2.990   2.950   0.144  0.0423 -0.1369 -0.6504
  898SOL     OW 3589   2.074   0.159   1.400  0.0164  0.3389  0.4995
  898SOL    HW1 3590   2.058   0.070   1.366 -2.6977  0.3327 -1.8842
  898SOL    HW2 3591   2.099   0.206   1.320  1.6848  0.8302  0.3891
  898SOL     MW 3592   2.075   0.154   1.385 -0.1216  0.4029  0.1704
  899SOL     OW 3593   2.901   2.957   0.616 -0.1342 -0.1109  0.4750
  899SOL    HW1 3594   2.940   2.915   0.692 -0.3953 -0.2826  0.6896
  899SOL    HW2 3595   2.814   2.991   0.642 -0.5268 -0.7045  0.9152
  899SOL     MW 3596   2.895   2.956   0.629 -0.2205 -0.2119  0.5614
  900SOL     OW 3597   0.135   2.377   1.126 -0.2499 -0.4455  0.0191
  900SOL    HW1 3598   0.126   2.473   1.109 -0.3391 -0.1600 -1.8719
  900SOL    HW2 3599   0.131   2.339   1.036  1.8995  0.3385  0.3553
  900SOL     MW 3600   0.133   2.385   1.112  0.0219 -0.3044 -0.1860
  901SOL     OW 3601   1.732   2.822   1.791 -0.0861 -0.3857 -0.3567
  901SOL    HW1 3602   1.803   2.776   1.739 -0.2937 -2.4009 -0.4064
  901SOL    HW2 3603   1.661   2.843   1.736  2.0938 -1.6883  1.4432
  901SOL     MW 3604   1.732   2.819   1.777  0.1741 -0.8235 -0.1258
  902SOL     OW 3605   2.565   2.050   1.800  0.2746 -0.2468 -0.8033
  902SOL    HW1 3606   2.532   1.972   1.845 -0.1098 -1.4947  0.6845
  902SOL    HW2 3607   2.649   2.070   1.841 -0.6099 -0.3246  1.8397
  902SOL     MW 3608   2.572   2.043   1.811  0.1072 -0.4217 -0.2583
  903SOL     OW 3609   1.651   2.788   0.516  0.1656 -0.2522 -0.3738
  903SOL    HW1 3610   1.694   2.704   0.559  0.5825  0.7763 -1.7569
  903SOL    HW2 3611   1.630   2.837   0.599  0.1087 -1.0562  2.0663
  903SOL     MW 3612   1.654   2.784   0.533  0.2131 -0.2225 -0.2344
  904SOL     OW 3613   2.501   2.523   1.649 -0.4174 -0.1138  0.3651
  904SOL    HW1 3614   2.428   2.553   1.585 -1.4206 -1.0454 -1.0683
  904SOL    HW2 3615   2.554   2.457   1.601  3.0450  0.4044  4.2767
  904SOL     MW 3616   2.498   2.518   1.634 -0.0929 -0.1684  0.6921
  905SOL     OW 3617   2.369   2.574   2.118 -0.2774  0.3092 -0.0791
  905SOL    HW1 3618   2.386   2.508   2.050  0.3636 -1.3925  2.1098
  905SOL    HW2 3619   2.313   2.525   2.184  0.1378 -0.6037  0.7023
  905SOL     MW 3620   2.364   2.559   2.118 -0.1381 -0.0357  0.3128
  906SOL     OW 3621   2.515   2.534   0.815  0.2986 -0.4772  0.2171
  906SOL    HW1 3622   2.592   2.519   0.867 -0.8431  1.0247  2.1693
  906SOL    HW2 3623   2.475   2.624   0.834 -2.0144  0.9864 -1.0093
  906SOL     MW 3624   2.520   2.544   0.824 -0.1572 -0.0860  0.3129
  907SOL     OW 3625   2.570   2.847   1.276  0.4487 -0.0040 -0.1948
  907SOL    HW1 3626   2.631   2.877   1.342 -0.4470 -1.2896 -0.7948
  907SOL    HW2 3627   2.615   2.874   1.196  0.5579 -0.3640 -0.2988
  907SOL     MW 3628   2.584   2.854   1.274  0.3449 -0.2211 -0.2877
  908SOL     OW 3629   2.681   2.378   0.013  0.2934  0.1497  0.0840
  908SOL    HW1 3630   2.638   2.299   0.026 -0.5988  1.2960 -0.5760
  908SOL    HW2 3631   2.657   2.441   0.087  1.0573  2.4374 -0.3153
  908SOL     MW 3632   2.672   2.376   0.025  0.2764  0.6028 -0.0558
  909SOL     OW 3633   1.681   0.231   1.031 -1.1922  0.6448  0.0097
  909SOL    HW1 3634   1.700   0.307   0.976 -0.9798 -0.6383  2.1418
  909SOL    HW2 3635   1.608   0.260   1.086  0.0709 -0.7286  1.2459
  909SOL     MW 3636   1.674   0.245   1.031 -0.9975  0.2943  0.4541
  910SOL     OW 3637   2.252   1.706   0.398 -0.2919  0.3242 -0.3485
  910SOL    HW1 3638   2.193   1.638   0.435  0.5342  2.0492 -1.0781
  910SOL    HW2 3639   2.198   1.751   0.333 -1.4273  1.6725  2.1452
  910SOL     MW 3640   2.237   1.703   0.394 -0.3327  0.7297 -0.1158
  911SOL     OW 3641   2.162   2.200   1.614  0.3496  0.4625  0.3022
  911SOL    HW1 3642   2.222   2.199   1.687 -1.7243 -0.6566  2.4719
  911SOL    HW2 3643   2.211   2.214   1.537 -0.8851 -0.1919  1.3659
  911SOL     MW 3644   2.176   2.202   1.614 -0.0869  0.2285  0.7288
  912SOL     OW 3645   2.870   1.912   1.491  0.1250 -0.1145  0.1476
  912SOL    HW1 3646   2.906   1.951   1.410  0.9223 -0.9763 -3.0968
  912SOL    HW2 3647   2.796   1.974   1.522 -3.4400 -0.6979  0.4182
  912SOL     MW 3648   2.865   1.925   1.485 -0.2402 -0.3052 -0.2448
  913SOL     OW 3649   2.562   2.951   0.376 -0.1403  0.1850  0.0940
  913SOL    HW1 3650   2.628   2.882   0.385  0.0967 -0.7665  0.2324
  913SOL    HW2 3651   2.479   2.904   0.372  1.6930 -1.7001  0.5902
  913SOL     MW 3652   2.560   2.936   0.377  0.1329 -0.1892  0.1777
  914SOL     OW 3653   2.800   1.636   0.015 -0.0368  0.0137 -0.5401
  914SOL    HW1 3654   2.803   1.669  -0.071  0.6536 -1.9840  0.1536
  914SOL    HW2 3655   2.711   1.620   0.027  3.6179  2.2047 -1.5002
  914SOL     MW 3656   2.789   1.638   0.005  0.5365  0.0392 -0.5753
  915SOL     OW 3657   1.869   0.178   0.218 -0.0697 -0.2059 -0.0479
  915SOL    HW1 3658   1.932   0.137   0.280  1.1055  2.5252  1.0545
  915SOL    HW2 3659   1.785   0.149   0.259 -1.2659  1.5735 -1.2141
  915SOL     MW 3660   1.866   0.169   0.232 -0.0725  0.3892 -0.0563
  916SOL     OW 3661   1.811   2.117   1.950 -0.0274 -0.4749 -0.1186
  916SOL    HW1 3662   1.794   2.206   1.920  1.8210  1.6415 -2.2594
  916SOL    HW2 3663   1.795   2.060   1.874  3.5317 -1.0013 -0.9838
  916SOL     MW 3664   1.807   2.121   1.936  0.6861 -0.2651 -0.5152
  917SOL     OW 3665   2.276   2.332   2.668  0.1979 -0.2891 -0.0421
  917SOL    HW1 3666   2.309   2.333   2.757  1.4820 -0.8203 -1.1770
  917SOL    HW2 3667   2.287   2.421   2.629  1.5512  1.8639  1.7688
  917SOL     MW 3668   2.282   2.344   2.674  0.5459 -0.0751  0.0471
  918SOL     OW 3669   2.025   1.651   2.634  0.6585 -0.1551  0.7311
  918SOL    HW1 3670   1.946   1.676   2.581 -0.7097 -0.1558  1.2007
  918SOL    HW2 3671   2.094   1.715   2.626 -1.6968 -0.0172 -2.7169
  918SOL     MW 3672   2.023   1.662   2.626  0.1672 -0.1370  0.3381
  919SOL     OW 3673   3.044   2.390   2.270  0.2763  0.1670 -0.2980
  919SOL    HW1 3674   2.982   2.331   2.243  4.7084 -0.0037  0.6142
  919SOL    HW2 3675   3.116   2.386   2.189  2.9626  0.0402 -0.6990
  919SOL     MW 3676   3.045   2.382   2.256  1.2155  0.1277 -0.2305
  920SOL     OW 3677   2.766   2.838   0.013  0.0304  0.2188  0.0017
  920SOL    HW1 3678   2.683   2.892   0.013 -0.8585  1.7256 -1.4420
  920SOL    HW2 3679   2.755   2.772  -0.060  0.1706  0.7165 -1.4521
  920SOL     MW 3680   2.753   2.836   0.003 -0.0684  0.4833 -0.3806
  921SOL     OW 3681   2.524   2.669   2.703 -0.3002 -0.1194  0.2794
  921SOL    HW1 3682   2.590   2.637   2.647 -0.2614 -0.6754  1.4127
  921SOL    HW2 3683   2.526   2.610   2.787  2.0428 -2.0727  0.0391
  921SOL     MW 3684   2.533   2.657   2.706  0.0140 -0.4505  0.3972
  922SOL     OW 3685   2.021   2.867   0.270  0.4008 -0.2827 -0.6815
  922SOL    HW1 3686   2.008   2.907   0.182  1.6221 -0.6447  2.7444
  922SOL    HW2 3687   2.002   2.774   0.266 -1.1996 -1.8321 -1.1673
  922SOL     MW 3688   2.016   2.860   0.258  0.3508 -0.5349 -0.2936
  923SOL     OW 3689   2.168   2.818   1.621 -0.0542 -0.4949  0.3560
  923SOL    HW1 3690   2.200   2.747   1.569 -0.5428  0.7903  0.0759
  923SOL    HW2 3691   2.216   2.898   1.586  1.4027  0.3894  1.4641
  923SOL     MW 3692   2.179   2.820   1.609  0.0736 -0.2086  0.4653
  924SOL     OW 3693   1.153   2.741   2.463 -0.3284  0.3758  0.4449
  924SOL    HW1 3694   1.195   2.817   2.426  2.6172 -1.3754 -0.5610
  924SOL    HW2 3695   1.217   2.709   2.529 -0.6737 -1.8025 -0.6021
  924SOL     MW 3696   1.167   2.747   2.467  0.0147 -0.1426  0.1740
  925SOL     OW 3697   3.001   0.248   2.701 -0.4902 -0.6615 -0.5430
  925SOL    HW1 3698   3.035   0.284   2.624  0.8795 -0.5575  2.6235
  925SOL    HW2 3699   2.967   0.334   2.736  0.1344 -1.5954 -1.0755
  925SOL     MW 3700   3.001   0.264   2.696 -0.2270 -0.7710 -0.1955
  926SOL     OW 3701   2.663   2.383   2.049 -0.5616 -0.1680  0.9186
  926SOL    HW1 3702   2.664   2.459   2.105 -1.4383 -0.1029  1.9119
  926SOL    HW2 3703   2.728   2.408   1.975  2.2974 -1.0525  0.5105
  926SOL     MW 3704   2.671   2.397   2.047 -0.3001 -0.2761  0.9958
  927SOL     OW 3705   2.404   0.163   0.295 -0.7890  0.0343  0.1348
  927SOL    HW1 3706   2.488   0.176   0.247  0.7321 -0.6414  0.2640
  927SOL    HW2 3707   2.347   0.143   0.216 -0.7335 -0.4625  4.4731
  927SOL     MW 3708   2.407   0.162   0.279 -0.5809 -0.1204  0.7242
  928SOL     OW 3709   2.035   2.491   1.833 -0.2699  0.5665 -0.5273
  928SOL    HW1 3710   2.109   2.433   1.805  0.4560  1.7899  1.9448
  928SOL    HW2 3711   2.082   2.553   1.895 -2.4737  3.4554  1.8956
  928SOL     MW 3712   2.051   2.491   1.837 -0.4649  1.1091  0.1186
  929SOL     OW 3713   2.733   2.336   2.457  0.4798  0.3312 -0.0352
  929SOL    HW1 3714   2.714   2.255   2.410  0.3604 -0.1261 -1.7243
  929SOL    HW2 3715   2.773   2.304   2.537 -1.9729 -0.7837 -3.7530
  929SOL     MW 3716   2.735   2.321   2.461  0.1404  0.1238 -0.7486
  930SOL     OW 3717   2.002   2.874   2.655  0.0068  0.2099 -0.4783
  930SOL    HW1 3718   2.032   2.866   2.742 -0.5149 -0.0104 -1.0270
  930SOL    HW2 3719   2.076   2.918   2.603 -0.9505  2.0900 -0.3903
  930SOL     MW 3720   2.016   2.879   2.660 -0.1883  0.4289 -0.5391
  931SOL     OW 3721   2.931   2.827   2.157  0.1509 -0.1080  0.3196
  931SOL    HW1 3722   3.001   2.762   2.134  0.6432  0.7309 -3.2922
  931SOL    HW2 3723   2.976   2.912   2.151 -0.7161 -0.7028  1.1024
  931SOL     MW 3724   2.946   2.830   2.153  0.1015 -0.0758 -0.0537
  932SOL     OW 3725   2.810   1.915   2.534  0.4664  0.2005 -0.6392
  932SOL    HW1 3726   2.890   1.928   2.583 -0.9874  0.3520 -1.2972
  932SOL    HW2 3727   2.819   1.947   2.446 -1.5768 -1.4939  0.6481
  932SOL     MW 3728   2.821   1.921   2.529  0.0050 -0.0031 -0.5561
  933SOL     OW 3729   2.077   2.792   2.265 -0.0712  0.2726 -0.3216
  933SOL    HW1 3730   2.167   2.821   2.274 -1.9644 -1.6157  0.5005
  933SOL    HW2 3731   2.036   2.864   2.221 -0.4937 -2.7699 -0.4881
  933SOL     MW 3732   2.084   2.805   2.261 -0.3767 -0.3779 -0.2351
  934SOL     OW 3733   2.009   2.668   2.487 -0.7644 -0.3105 -0.0470
  934SOL    HW1 3734   1.987   2.738   2.547 -2.4696  1.4628 -1.3472
  934SOL    HW2 3735   2.021   2.717   2.403 -2.4454  3.6386 -2.0384
  934SOL     MW 3736   2.008   2.684   2.484 -1.2112  0.4445 -0.4813
  935SOL     OW 3737   2.631   1.589   1.808 -0.1514  0.1980 -0.5078
  935SOL    HW1 3738   2.717   1.587   1.763  2.3015 -0.9741  0.3189
  935SOL    HW2 3739   2.574   1.578   1.739  1.4793  1.8851 -0.4678
  935SOL     MW 3740   2.635   1.588   1.793  0.3874  0.2659 -0.3935
  936SOL     OW 3741   2.941   2.222   3.097  0.4678  0.5215 -0.1938
  936SOL    HW1 3742   3.036   2.244   3.121  1.7585 -1.9125  1.0039
  936SOL    HW2 3743   2.885   2.298   3.100  1.9837  0.1422 -2.3581
  936SOL     MW 3744   2.946   2.235   3.101  0.8381  0.1503 -0.3213
  937SOL     OW 3745   1.979   2.252   2.612 -0.0453 -0.8175 -0.5277
  937SOL    HW1 3746   2.067   2.225   2.649  1.4999 -0.3402  2.2475
  937SOL    HW2 3747   1.967   2.225   2.522  2.0774  1.8069 -1.8479
  937SOL     MW 3748   1.989   2.245   2.605  0.4386 -0.4082 -0.3357
  938SOL     OW 3749   2.253   1.845   1.942  0.1202  0.0523 -0.6682
  938SOL    HW1 3750   2.248   1.891   1.859 -2.7238  1.9141  1.6141
  938SOL    HW2 3751   2.262   1.912   2.012 -0.0848 -2.1585 -1.7415
  938SOL     MW 3752   2.254   1.860   1.940 -0.2821  0.0063 -0.5087
  939SOL     OW 3753   2.797   1.998   2.263  0.5780 -0.3914  0.6064
  939SOL    HW1 3754   2.812   1.923   2.206 -0.2289  1.9732  0.5117
  939SOL    HW2 3755   2.700   2.012   2.262 -1.8977 -0.7669  1.5216
  939SOL     MW 3756   2.786   1.990   2.255  0.1449 -0.1290  0.7146
  940SOL     OW 3757   2.279   0.182   2.676 -0.2827 -0.2358  0.3665
  940SOL    HW1 3758   2.262   0.084   2.667  0.1914  1.9313  1.5998
  940SOL    HW2 3759   2.333   0.189   2.759 -0.1384  0.0834  1.5322
  940SOL     MW 3760   2.284   0.170   2.685 -0.2011  0.0922  0.6830
  941SOL     OW 3761   0.104   2.359   2.053  0.6548  0.2696  0.8143
  941SOL    HW1 3762   0.159   2.284   2.052  1.7884 -0.6241 -1.2004
  941SOL    HW2 3763   0.053   2.353   1.972  1.2708  2.6294  2.9784
  941SOL     MW 3764   0.105   2.348   2.042  0.8856  0.4630  0.8340
  942SOL     OW 3765   2.869   2.239   2.112  0.0410 -0.0162  0.7215
  942SOL    HW1 3766   2.791   2.290   2.106  0.0314 -1.7484  0.3801
  942SOL    HW2 3767   2.842   2.162   2.163 -1.9941  0.6387 -1.0882
  942SOL     MW 3768   2.855   2.236   2.118 -0.2288 -0.1583  0.4377
  943SOL     OW 3769   0.225   2.016   2.319  0.1152 -0.1051  0.1759
  943SOL    HW1 3770   0.161   2.079   2.367  0.9710  2.3451  1.7506
  943SOL    HW2 3771   0.301   2.013   2.376 -0.1330 -1.3089  0.5273
  943SOL     MW 3772   0.226   2.024   2.333  0.1954  0.0594  0.4300
  944SOL     OW 3773   2.121   2.657   2.025 -0.3946  0.0872 -0.6994
  944SOL    HW1 3774   2.206   2.626   2.065  0.8518  0.8897  1.3045
  944SOL    HW2 3775   2.083   2.703   2.100  1.3929 -2.2078  0.1265
  944SOL     MW 3776   2.127   2.659   2.040  0.0057 -0.1098 -0.3260
  945SOL     OW 3777   2.766   2.625   2.938 -0.3024 -0.2528  0.2797
  945SOL    HW1 3778   2.720   2.547   2.912  0.3488 -1.5262 -0.1728
  945SOL    HW2 3779   2.812   2.648   2.853 -0.5193  0.8334  2.8427
  945SOL     MW 3780   2.766   2.618   2.923 -0.2451 -0.2775  0.5582
  946SOL     OW 3781   2.537   2.711   2.294  0.2763  0.0763 -0.1333
  946SOL    HW1 3782   2.579   2.773   2.241 -1.0487 -0.1857 -0.1391
  946SOL    HW2 3783   2.488   2.659   2.228  1.3593 -1.5151  3.9281
  946SOL     MW 3784   2.536   2.712   2.278  0.2444 -0.1682  0.4018
  947SOL     OW 3785   2.060   0.053   0.399  0.0397  0.1768 -0.5569
  947SOL    HW1 3786   2.063  -0.036   0.426 -2.2475 -2.5419  0.4371
  947SOL    HW2 3787   2.139   0.089   0.425 -0.2224  1.8804 -0.0030
  947SOL     MW 3788   2.071   0.046   0.406 -0.2967  0.0429 -0.3526
  948SOL     OW 3789   1.832   3.095   2.636  0.7931 -0.4001 -0.1168
  948SOL    HW1 3790   1.888   3.018   2.657  1.0148 -3.0069 -0.7085
  948SOL    HW2 3791   1.836   3.120   2.545 -1.6914  0.9023  2.0628
  948SOL     MW 3792   1.840   3.088   2.627  0.4945 -0.5722  0.0927
  949SOL     OW 3793   2.529   2.064   2.281  0.1872  0.1397  0.1273
  949SOL    HW1 3794   2.508   1.970   2.304 -0.0240 -2.5021  1.6820
  949SOL    HW2 3795   2.478   2.123   2.335  0.7432  0.1668 -0.7239
  949SOL     MW 3796   2.519   2.060   2.291  0.2327 -0.2053  0.2201
  950SOL     OW 3797   2.253   2.618   3.056  0.0869  0.2843  0.1821
  950SOL    HW1 3798   2.287   2.544   3.005 -0.4340  1.0400 -0.2394
  950SOL    HW2 3799   2.171   2.657   3.016 -0.9625  1.1702 -0.1014
  950SOL     MW 3800   2.246   2.613   3.044 -0.1203  0.5009  0.0891
  951SOL     OW 3801   2.873   2.058   2.870  0.5992 -0.0330 -0.3663
  951SOL    HW1 3802   2.891   2.124   2.938  0.3760 -2.6278 -2.2699
  951SOL    HW2 3803   2.954   2.041   2.815 -0.3072  0.9157  0.4088
  951SOL     MW 3804   2.886   2.064   2.872  0.4502 -0.2502 -0.5152
  952SOL     OW 3805   3.065   1.639   2.063  0.9600 -0.2154  0.2816
  952SOL    HW1 3806   2.982   1.692   2.056  0.3988  0.1563  1.3316
  952SOL    HW2 3807   3.126   1.707   2.096 -1.3373 -0.5143  2.2137
  952SOL     MW 3808   3.062   1.655   2.066  0.5828 -0.2058  0.6751
  953SOL     OW 3809   1.937   1.850   2.820 -0.2595 -0.1292 -0.4592
  953SOL    HW1 3810   1.850   1.832   2.861  0.3726  0.6951  0.5918
  953SOL    HW2 3811   1.965   1.775   2.763  2.4567 -1.7373 -0.8129
  953SOL     MW 3812   1.929   1.838   2.818  0.1823 -0.2326 -0.3672
  954SOL     OW 3813   2.436   2.023   2.927  0.0882 -0.0283 -0.5725
  954SOL    HW1 3814   2.355   2.021   2.872  0.7413 -2.3102  0.4686
  954SOL    HW2 3815   2.513   2.017   2.859  1.1940  0.4372  0.4055
  954SOL     MW 3816   2.435   2.022   2.911  0.3203 -0.2680 -0.3061
  955SOL     OW 3817   1.576   1.636   2.587  0.3836 -0.4671 -0.0091
  955SOL    HW1 3818   1.518   1.616   2.512  0.0382  0.9062 -0.5769
  955SOL    HW2 3819   1.646   1.686   2.550 -2.6052  0.9649  1.4334
  955SOL     MW 3820   1.577   1.640   2.572 -0.0563 -0.0970  0.1063
  956SOL     OW 3821   2.604   2.411   2.858  0.4652  0.4993  0.3586
  956SOL    HW1 3822   2.621   2.392   2.947  1.6866 -0.4305 -0.7876
  956SOL    HW2 3823   2.670   2.364   2.807  0.1362  3.3077 -0.5039
  956SOL     MW 3824   2.615   2.403   2.863  0.5829  0.7472  0.0935
  957SOL     OW 3825   2.274   2.834   0.390 -0.0795 -0.1889  0.1336
  957SOL    HW1 3826   2.185   2.846   0.362  3.8549  1.2804 -1.3235
  957SOL    HW2 3827   2.276   2.813   0.487 -1.6661  0.0956  0.5581
  957SOL     MW 3828   2.262   2.833   0.399  0.2303  0.0425 -0.0026
  958SOL     OW 3829   2.040   2.700   2.875 -0.1733  0.3352 -0.5927
  958SOL    HW1 3830   2.036   2.615   2.833 -0.6393 -0.9766 -0.3922
  958SOL    HW2 3831   1.950   2.731   2.879  1.4262  0.7257  0.8468
  958SOL     MW 3832   2.028   2.693   2.870 -0.0237  0.2136 -0.3763
  959SOL     OW 3833   2.432   2.592   0.363 -0.6478  0.0262  0.1272
  959SOL    HW1 3834   2.500   2.616   0.296 -0.9771  1.0462 -0.8403
  959SOL    HW2 3835   2.371   2.666   0.370  1.6589 -0.5706 -0.9318
  959SOL     MW 3836   2.433   2.605   0.355 -0.3869  0.0820 -0.1402
  960SOL     OW 3837   1.969   2.461   2.285 -0.2257 -0.2916  0.3053
  960SOL    HW1 3838   1.948   2.383   2.327  0.1619  2.1791  0.8081
  960SOL    HW2 3839   1.949   2.526   2.346  0.1270 -1.7068 -0.2210
  960SOL     MW 3840   1.964   2.460   2.299 -0.1280 -0.1523  0.3022
  961SOL     OW 3841   2.234   2.458   2.330  0.0151 -0.1966  0.1112
  961SOL    HW1 3842   2.137   2.467   2.323 -0.9204 -1.9858 -1.1175
  961SOL    HW2 3843   2.250   2.502   2.414 -1.1069  0.5402 -1.8380
  961SOL     MW 3844   2.223   2.465   2.340 -0.2563 -0.3354 -0.3081
  962SOL     OW 3845   2.188   2.053   2.773 -0.2323 -0.0594  0.3312
  962SOL    HW1 3846   2.146   2.026   2.857 -0.5731 -0.4478  1.4733
  962SOL    HW2 3847   2.182   1.968   2.718 -0.8871 -2.1346  0.2375
  962SOL     MW 3848   2.182   2.038   2.777 -0.3637 -0.3844  0.4696
  963SOL     OW 3849   1.747   2.541   2.143 -0.1024 -0.0606  0.4922
  963SOL    HW1 3850   1.829   2.520   2.181  0.3687 -0.7503  1.3376
  963SOL    HW2 3851   1.750   2.479   2.072  1.5980  1.1648 -1.3217
  963SOL     MW 3852   1.758   2.530   2.138  0.1841  0.0101  0.3644
  964SOL     OW 3853   1.807   2.005   2.621 -0.0585 -0.3973  0.5398
  964SOL    HW1 3854   1.853   2.088   2.607 -0.9666  0.2384  0.5069
  964SOL    HW2 3855   1.856   1.964   2.692  0.8718  1.8611 -2.9466
  964SOL     MW 3856   1.819   2.010   2.628 -0.0556 -0.0155  0.0754
  965SOL     OW 3857   2.207   2.681   0.615 -0.8970  0.1006  0.3743
  965SOL    HW1 3858   2.189   2.590   0.582  0.8171 -2.4454 -0.2670
  965SOL    HW2 3859   2.267   2.660   0.682  0.6830  2.1379 -0.6329
  965SOL     MW 3860   2.213   2.666   0.619 -0.4623  0.0335  0.1568
  966SOL     OW 3861   2.742   2.601   2.530 -0.2654  0.1362 -0.1331
  966SOL    HW1 3862   2.721   2.640   2.447  1.9521 -1.3884 -0.8688
  966SOL    HW2 3863   2.735   2.507   2.514  1.5537  0.8371  2.5091
  966SOL     MW 3864   2.738   2.594   2.517  0.2672  0.0275  0.1185
  967SOL     OW 3865   2.868   3.037   2.937  0.1716 -0.5433 -0.5854
  967SOL    HW1 3866   2.860   2.974   3.010  0.9999  0.5583  0.6503
  967SOL    HW2 3867   2.781   3.057   2.902  2.0973  2.8905  0.6157
  967SOL     MW 3868   2.855   3.031   2.942  0.5350  0.0551 -0.2639
  968SOL     OW 3869   3.014   2.531   3.020 -0.3625  0.0832 -0.8545
  968SOL    HW1 3870   2.925   2.573   2.998 -0.7844  5.2631 -1.3885
  968SOL    HW2 3871   3.039   2.475   2.946 -2.6573  2.5211  0.6205
  968SOL     MW 3872   3.006   2.529   3.007 -0.7210  1.0883 -0.7304
  969SOL     OW 3873   1.560   2.133   1.726  0.4039  0.0073 -0.0503
  969SOL    HW1 3874   1.629   2.061   1.703  0.9775  0.4904 -1.7388
  969SOL    HW2 3875   1.538   2.131   1.819 -2.6782  0.0520  0.7149
  969SOL     MW 3876   1.566   2.123   1.735  0.0729  0.0770 -0.1721
  970SOL     OW 3877   1.698   1.698   1.830 -0.3419 -0.0394  0.3249
  970SOL    HW1 3878   1.749   1.669   1.904  1.9641  1.7511 -0.4906
  970SOL    HW2 3879   1.612   1.716   1.862  0.5305  1.9504  1.9480
  970SOL     MW 3880   1.693   1.696   1.844  0.0774  0.4594  0.4314
  971SOL     OW 3881   1.861   0.092   2.393 -0.5154  0.3119  0.0352
  971SOL    HW1 3882   1.883   0.039   2.309  1.7103 -0.7243 -0.1212
  971SOL    HW2 3883   1.918   0.173   2.392  4.0063  0.5654 -0.2840
  971SOL     MW 3884   1.871   0.096   2.382  0.3749  0.2087 -0.0275
  972SOL     OW 3885   0.238   2.795   2.517  0.0001  0.3223 -0.3387
  972SOL    HW1 3886   0.254   2.704   2.533  0.2784  3.8225 -0.7098
  972SOL    HW2 3887   0.319   2.838   2.548  0.2375  1.7750 -1.7431
  972SOL     MW 3888   0.251   2.788   2.523  0.0681  0.9758 -0.5729
  973SOL     OW 3889   2.598   3.099   2.073 -0.0219  0.0491 -0.3405
  973SOL    HW1 3890   2.597   3.009   2.055  2.7939  1.7632  1.5613
  973SOL    HW2 3891   2.612   3.144   1.990  1.2556 -3.0230 -0.7397
  973SOL     MW 3892   2.600   3.093   2.059  0.5182 -0.1301 -0.1422
  974SOL     OW 3893   2.050   0.317   2.719  0.3100  0.2579 -0.0586
  974SOL    HW1 3894   2.136   0.289   2.695  0.1993  2.0961 -0.5948
  974SOL    HW2 3895   2.025   0.250   2.784  2.2966 -1.3611  2.4998
  974SOL     MW 3896   2.058   0.305   2.724  0.5575  0.2868  0.2082
  975SOL     OW 3897   2.312   2.574   2.554 -0.2837  0.1565 -0.4874
  975SOL    HW1 3898   2.395   2.598   2.598 -1.8785 -2.8876 -0.0182
  975SOL    HW2 3899   2.272   2.659   2.556 -0.4617  0.0703 -0.2027
  975SOL     MW 3900   2.317   2.588   2.560 -0.5176 -0.2565 -0.3879
  976SOL     OW 3901   0.258   0.251   1.691 -0.0057 -0.2475  0.4711
  976SOL    HW1 3902   0.311   0.179   1.730 -0.2595  0.7457 -0.9220
  976SOL    HW2 3903   0.168   0.221   1.705 -1.8118 -0.7627 -0.0460
  976SOL     MW 3904   0.253   0.238   1.698 -0.2775 -0.1844  0.2191
  977SOL     OW 3905   1.675   2.778   2.481 -0.0645 -0.3973 -0.3975
  977SOL    HW1 3906   1.699   2.680   2.472 -0.0661  1.1574 -0.3749
  977SOL    HW2 3907   1.750   2.833   2.471 -0.0840 -1.2986 -0.3418
  977SOL     MW 3908   1.688   2.772   2.479 -0.0673 -0.3111 -0.3871
   3.10000   3.10000   3.10000
