977 TIP4P/2005f water molecules t=   0.82000 step= 820
 3908
    1SOL     OW    1   0.294   0.838   3.053  0.9492 -0.3072 -0.0387
    1SOL    HW1    2   0.247   0.843   2.971 -0.3436  0.6446 -1.7181
    1SOL    HW2    3   0.266   0.759   3.101  0.6406  1.5912 -2.6527
    1SOL     MW    4   0.284   0.828   3.049  0.7379  0.0689 -0.6052
    2SOL     OW    5   0.295   2.994   1.168  0.2846 -0.3179  0.4352
    2SOL    HW1    6   0.370   3.054   1.162 -1.1950 -0.3997 -0.3028
    2SOL    HW2    7   0.213   3.037   1.132  0.0286  1.5582  1.6493
    2SOL     MW    8   0.294   3.007   1.163  0.0556 -0.0812  0.4981
    3SOL     OW    9   2.631   0.409   0.951 -0.2158  0.2613  0.7246
    3SOL    HW1   10   2.698   0.475   0.909 -0.2230 -0.2075 -2.6926
    3SOL    HW2   11   2.625   0.434   1.050 -1.6518  2.2100  1.0745
    3SOL     MW   12   2.639   0.421   0.959 -0.4062  0.4566  0.3199
    4SOL     OW   13   3.005   1.713   0.648 -0.6515  0.1114 -0.4801
    4SOL    HW1   14   2.951   1.773   0.586  2.0585 -0.0480 -3.3394
    4SOL    HW2   15   3.060   1.667   0.585 -3.7777  0.8099 -0.6153
    4SOL     MW   16   3.005   1.715   0.631 -0.7064  0.1825 -0.8752
    5SOL     OW   17   1.735   1.505   0.521  0.6207  0.2597 -0.2385
    5SOL    HW1   18   1.753   1.475   0.613  1.8152  1.1330  1.9339
    5SOL    HW2   19   1.635   1.509   0.521  0.1891 -0.7919 -0.0098
    5SOL     MW   20   1.724   1.502   0.533  0.7214  0.2362  0.0783
    6SOL     OW   21   0.848   1.445   0.618 -0.2785  0.8176 -0.9681
    6SOL    HW1   22   0.764   1.462   0.664 -0.3715  1.8747  2.4164
    6SOL    HW2   23   0.868   1.361   0.658 -0.8077 -1.6753  0.0458
    6SOL     MW   24   0.840   1.436   0.629 -0.3606  0.6281 -0.3878
    7SOL     OW   25   2.028   1.157   3.061  0.1371  0.1516  0.1958
    7SOL    HW1   26   2.083   1.195   2.997  0.6787 -0.9905  1.6701
    7SOL    HW2   27   2.072   1.179   3.144 -0.4314 -0.3870 -0.1868
    7SOL     MW   28   2.041   1.165   3.063  0.1335 -0.0702  0.3398
    8SOL     OW   29   0.928   1.361   1.029 -0.0958  0.4828  0.0006
    8SOL    HW1   30   1.013   1.335   1.061 -3.0484  1.8443 -0.9497
    8SOL    HW2   31   0.874   1.311   1.087  1.9621  0.0772 -1.4253
    8SOL     MW   32   0.932   1.351   1.041 -0.2139  0.6089 -0.3129
    9SOL     OW   33   1.038   0.505   1.385 -0.3518  1.0398  0.1319
    9SOL    HW1   34   0.977   0.445   1.341 -0.6000  0.9243 -0.3758
    9SOL    HW2   35   1.065   0.456   1.465 -1.6421 -0.1607  3.3946
    9SOL     MW   36   1.034   0.490   1.390 -0.5548  0.8662  0.4954
   10SOL     OW   37   0.296   0.817   0.466  0.2017 -0.2561  0.3619
   10SOL    HW1   38   0.385   0.823   0.424 -0.9427 -0.9037 -0.3545
   10SOL    HW2   39   0.294   0.868   0.548 -3.7927 -0.0157 -1.7432
   10SOL     MW   40   0.307   0.824   0.472 -0.4763 -0.3098 -0.0104
   11SOL     OW   41   0.794   1.138   1.729  0.2889 -0.5940  0.0749
   11SOL    HW1   42   0.820   1.134   1.818 -2.8104  3.3606  0.9136
   11SOL    HW2   43   0.825   1.045   1.695  3.4995 -2.3234 -0.5749
   11SOL     MW   44   0.801   1.125   1.736  0.3036 -0.3004  0.0998
   12SOL     OW   45   0.021   1.049   0.879 -0.2274  0.4539  0.0738
   12SOL    HW1   46   0.059   1.127   0.937  0.2772  1.1084  3.6923
   12SOL    HW2   47  -0.041   1.096   0.817  0.5484 -1.6539  0.1862
   12SOL     MW   48   0.018   1.065   0.878 -0.0585  0.2622  0.5661
   13SOL     OW   49   1.847   1.384   1.355 -0.5561  0.7416  0.6627
   13SOL    HW1   50   1.857   1.346   1.272  1.1994  1.8216  1.6862
   13SOL    HW2   51   1.861   1.475   1.330  0.4449 -0.3265 -0.9264
   13SOL     MW   52   1.850   1.391   1.341 -0.1924  0.7432  0.5881
   14SOL     OW   53   0.657   0.410   1.856 -0.0241 -0.0762  0.1036
   14SOL    HW1   54   0.615   0.327   1.846  2.6441  0.8298  0.4739
   14SOL    HW2   55   0.705   0.402   1.940 -0.2933 -1.5525  1.2098
   14SOL     MW   56   0.658   0.398   1.866  0.2924 -0.1514  0.2984
   15SOL     OW   57   1.919   0.424   0.980  0.2243 -0.5606  0.2523
   15SOL    HW1   58   1.913   0.471   1.068 -0.8366 -0.4063 -0.7504
   15SOL    HW2   59   2.014   0.422   0.961 -0.0735  0.0906  1.3139
   15SOL     MW   60   1.931   0.430   0.989  0.0451 -0.4543  0.2600
   16SOL     OW   61   0.190   1.834   0.330 -0.7283 -0.1288  0.0560
   16SOL    HW1   62   0.279   1.801   0.308 -1.1068 -1.7797 -0.1208
   16SOL    HW2   63   0.207   1.929   0.355  1.3220 -0.3309  2.2513
   16SOL     MW   64   0.204   1.842   0.331 -0.5078 -0.3733  0.3223
   17SOL     OW   65   1.105   0.918   1.518  0.2472 -0.1343  0.0614
   17SOL    HW1   66   1.147   0.871   1.592  0.4273 -0.8562 -0.7060
   17SOL    HW2   67   1.016   0.906   1.537  2.5785 -0.9502 -0.8522
   17SOL     MW   68   1.099   0.910   1.530  0.5785 -0.3372 -0.1604
   18SOL     OW   69   0.073   1.586   0.363 -0.0744 -0.3607  0.2988
   18SOL    HW1   70   0.103   1.680   0.363 -0.2616  1.8113 -1.5365
   18SOL    HW2   71   0.077   1.551   0.276  0.5467 -0.1259  2.0219
   18SOL     MW   72   0.077   1.594   0.351 -0.0171 -0.0432  0.2840
   19SOL     OW   73   0.125   1.295   0.990 -0.4091  0.6266  0.1049
   19SOL    HW1   74   0.140   1.343   0.912  3.3864 -1.4891  1.8832
   19SOL    HW2   75   0.037   1.322   1.020  0.3602 -2.4184  2.2698
   19SOL     MW   76   0.116   1.305   0.983  0.1932 -0.0543  0.6251
   20SOL     OW   77   0.431   2.123   1.154  0.3460  0.4850 -0.0019
   20SOL    HW1   78   0.377   2.054   1.101 -0.0901 -0.7687 -1.9515
   20SOL    HW2   79   0.376   2.144   1.230 -3.0704 -1.5120  1.0849
   20SOL     MW   80   0.416   2.116   1.157 -0.1623  0.0561 -0.1158
   21SOL     OW   81   0.539   0.817   0.349 -0.0635  0.0885 -0.1535
   21SOL    HW1   82   0.601   0.798   0.419 -1.9493 -2.5085 -1.6139
   21SOL    HW2   83   0.587   0.808   0.264  0.9317 -0.1370  0.7348
   21SOL     MW   84   0.554   0.813   0.347 -0.1810 -0.2839 -0.2290
   22SOL     OW   85   1.501   0.655   1.057  0.4573  0.6994 -0.1659
   22SOL    HW1   86   1.473   0.638   0.959 -1.3144  0.1092 -2.6666
   22SOL    HW2   87   1.423   0.695   1.098  1.5032  3.3262 -1.0450
   22SOL     MW   88   1.487   0.658   1.050  0.3615  0.9681 -0.6118
   23SOL     OW   89   0.033   0.769   0.667  0.1353 -0.4511  0.1650
   23SOL    HW1   90   0.057   0.686   0.709  1.5074  1.4857 -1.0866
   23SOL    HW2   91   0.105   0.833   0.696  0.4939 -1.3127  2.0103
   23SOL     MW   92   0.046   0.767   0.677  0.3637 -0.3092  0.2433
   24SOL     OW   93   1.981   2.228   0.120 -0.5797  0.3445 -0.3179
   24SOL    HW1   94   1.976   2.195   0.215 -0.6065 -1.9464  1.7307
   24SOL    HW2   95   1.996   2.147   0.069  0.1698 -0.2838  0.2733
   24SOL     MW   96   1.982   2.213   0.126 -0.4843 -0.0407  0.0304
   25SOL     OW   97   0.230   1.375   0.496  0.0738  0.8480  0.1491
   25SOL    HW1   98   0.182   1.449   0.459 -0.2955 -0.9248  0.1858
   25SOL    HW2   99   0.306   1.358   0.437  4.8436 -0.4148  0.0700
   25SOL     MW  100   0.234   1.382   0.483  0.6544  0.4475  0.1435
   26SOL     OW  101   2.028   0.982   0.364 -0.0563 -0.3672 -0.1849
   26SOL    HW1  102   1.952   1.015   0.413  0.7528  0.1766 -1.0263
   26SOL    HW2  103   2.053   1.047   0.296  1.9409  1.9235 -2.2696
   26SOL     MW  104   2.021   0.995   0.362  0.3140  0.0068 -0.5710
   27SOL     OW  105   2.033   1.439   0.261 -0.2883 -0.0590  0.1834
   27SOL    HW1  106   1.947   1.406   0.299 -1.9985  0.8444 -0.9508
   27SOL    HW2  107   2.069   1.492   0.336 -1.1829  1.6395  1.1145
   27SOL     MW  108   2.026   1.442   0.276 -0.6320  0.2843  0.1566
   28SOL     OW  109   0.385   1.028   2.006 -0.6884 -1.1844 -0.3262
   28SOL    HW1  110   0.474   0.988   2.001 -1.1358  0.4020 -2.7375
   28SOL    HW2  111   0.311   0.977   2.041  2.3091  1.6115  1.4138
   28SOL     MW  112   0.387   1.016   2.010 -0.3520 -0.6062 -0.4148
   29SOL     OW  113   0.233   1.450   0.760  0.1631  0.1168  0.3835
   29SOL    HW1  114   0.221   1.545   0.747 -0.6017  0.3775 -0.5339
   29SOL    HW2  115   0.252   1.415   0.670 -1.1278  0.8594  1.1088
   29SOL     MW  116   0.234   1.458   0.746 -0.1081  0.2492  0.3581
   30SOL     OW  117   0.807   1.179   1.212  0.3614 -0.7230  0.2481
   30SOL    HW1  118   0.716   1.200   1.244 -2.3958  1.7418 -0.3730
   30SOL    HW2  119   0.876   1.178   1.285  2.4583 -3.1025 -1.2835
   30SOL     MW  120   0.804   1.182   1.226  0.2743 -0.7117 -0.0360
   31SOL     OW  121   0.425   0.139   0.193  0.0910  0.0610  0.4813
   31SOL    HW1  122   0.451   0.065   0.247 -0.7959  2.0370  0.5252
   31SOL    HW2  123   0.455   0.132   0.099 -2.7269  1.3060  1.1299
   31SOL     MW  124   0.432   0.128   0.187 -0.3978  0.4860  0.5727
   32SOL     OW  125   2.789   0.997   1.126  0.1547 -0.5877 -0.2513
   32SOL    HW1  126   2.727   0.922   1.122 -0.8896  2.6539 -0.4851
   32SOL    HW2  127   2.867   0.950   1.099  0.0773  0.9828  2.2152
   32SOL     MW  128   2.791   0.981   1.122  0.0067  0.0472  0.0433
   33SOL     OW  129   1.816   1.304   0.347 -0.5367  0.2641  0.0266
   33SOL    HW1  130   1.853   1.237   0.404 -0.1440 -0.9879 -3.5977
   33SOL    HW2  131   1.805   1.370   0.414  1.5825 -2.8141  3.5745
   33SOL     MW  132   1.820   1.304   0.363 -0.2052 -0.3072  0.0165
   34SOL     OW  133   1.245   1.857   1.070 -0.4236 -0.1154  0.4368
   34SOL    HW1  134   1.166   1.906   1.077  2.3256  2.3535 -3.1333
   34SOL    HW2  135   1.300   1.892   1.144 -0.1023 -0.4235  0.2690
   34SOL     MW  136   1.242   1.868   1.081 -0.0185  0.1697 -0.0564
   35SOL     OW  137   0.445   0.188   1.877  0.5216  0.5579 -0.2831
   35SOL    HW1  138   0.377   0.146   1.928 -0.4713  0.3324 -1.6819
   35SOL    HW2  139   0.447   0.144   1.786 -2.8120  0.7612 -2.8954
   35SOL     MW  140   0.436   0.177   1.872 -0.0492  0.5550 -0.8123
   36SOL     OW  141   1.914   1.939   0.547  0.3475 -0.1010  0.3357
   36SOL    HW1  142   1.969   1.981   0.474 -0.3090  0.3998 -1.9430
   36SOL    HW2  143   1.940   1.843   0.543 -1.2495  1.1578 -1.0167
   36SOL     MW  144   1.925   1.932   0.537  0.0502  0.1312 -0.1434
   37SOL     OW  145   1.744   1.984   1.024 -0.1996 -0.0266 -0.5302
   37SOL    HW1  146   1.729   1.921   0.957  1.1825  1.7316  0.6168
   37SOL    HW2  147   1.664   2.022   1.052  0.7723 -0.8083  1.0973
   37SOL     MW  148   1.732   1.981   1.019  0.1110  0.1022 -0.1641
   38SOL     OW  149   2.773   0.919   0.117  0.0843  0.6066  0.1272
   38SOL    HW1  150   2.797   0.874   0.197 -0.4900 -2.3855 -3.3532
   38SOL    HW2  151   2.813   0.866   0.050  1.2538 -0.7976 -2.0309
   38SOL     MW  152   2.781   0.906   0.118  0.1628  0.0265 -0.6168
   39SOL     OW  153   1.422   0.597   0.822  0.1947 -0.0132  0.2491
   39SOL    HW1  154   1.389   0.503   0.835 -1.2886 -0.4381 -1.1982
   39SOL    HW2  155   1.336   0.640   0.799 -1.8317  0.4407 -0.5724
   39SOL     MW  156   1.406   0.590   0.821 -0.2684 -0.0094 -0.0502
   40SOL     OW  157   1.157   1.889   0.264 -0.2712 -0.1059  0.2348
   40SOL    HW1  158   1.194   1.829   0.328 -1.4391 -3.2891 -0.0808
   40SOL    HW2  159   1.122   1.965   0.311  0.1966 -0.8547 -2.8454
   40SOL     MW  160   1.157   1.891   0.279 -0.3636 -0.6247 -0.2133
   41SOL     OW  161   0.599   0.545   1.608 -0.6264 -0.1444 -0.0937
   41SOL    HW1  162   0.680   0.595   1.597 -1.0194 -1.5732  0.5310
   41SOL    HW2  163   0.616   0.506   1.694  0.6001  1.0647  3.1135
   41SOL     MW  164   0.612   0.546   1.618 -0.5164 -0.1734  0.4119
   42SOL     OW  165   1.285   3.030   1.967  0.6019 -0.1001 -0.4092
   42SOL    HW1  166   1.194   2.996   1.986  0.3548 -1.0056 -0.4915
   42SOL    HW2  167   1.341   2.957   1.993 -1.9269  2.1752  2.1513
   42SOL     MW  168   1.280   3.016   1.973  0.2356  0.0806 -0.0822
   43SOL     OW  169   1.573   0.110   1.732  0.3950 -0.3704 -0.2474
   43SOL    HW1  170   1.604   0.083   1.644 -1.7372  0.8818 -0.2712
   43SOL    HW2  171   1.478   0.083   1.734 -1.2603  0.5564  0.8592
   43SOL     MW  172   1.564   0.103   1.721 -0.1047 -0.0829 -0.1045
   44SOL     OW  173   1.094   0.749   1.043 -1.0808 -0.1860 -0.4780
   44SOL    HW1  174   1.134   0.827   1.003 -0.4313 -2.0965 -1.6639
   44SOL    HW2  175   1.126   0.745   1.133 -1.7024 -2.4922 -2.7097
   44SOL     MW  176   1.104   0.759   1.050 -1.0771 -0.7424 -0.9289
   45SOL     OW  177   1.218   0.738   0.715  0.5780 -0.1531 -0.5072
   45SOL    HW1  178   1.157   0.745   0.786  3.4901 -0.4536  1.9543
   45SOL    HW2  179   1.171   0.700   0.641  2.2776  0.1094 -1.7149
   45SOL     MW  180   1.204   0.734   0.715  1.1865 -0.1581 -0.3418
   46SOL     OW  181   0.583   1.177   0.565 -0.7476 -0.3800  0.2307
   46SOL    HW1  182   0.537   1.180   0.480  1.4605  0.4302 -0.7671
   46SOL    HW2  183   0.645   1.112   0.535  1.2217 -0.7531 -1.9206
   46SOL     MW  184   0.585   1.169   0.550 -0.1964 -0.3223 -0.1848
   47SOL     OW  185   0.180   1.983   1.898 -0.1362  0.9897  0.4590
   47SOL    HW1  186   0.230   1.903   1.864  1.7578  0.2333  2.1572
   47SOL    HW2  187   0.157   1.961   1.987 -1.9797  0.4879 -1.1008
   47SOL     MW  188   0.183   1.970   1.905 -0.1295  0.8237  0.4772
   48SOL     OW  189   1.090   0.496   0.957  0.0583  0.4469  0.1652
   48SOL    HW1  190   1.000   0.472   0.981 -1.9203  0.0472  1.5286
   48SOL    HW2  191   1.093   0.580   0.999  0.4107 -1.4899 -0.3778
   48SOL     MW  192   1.078   0.504   0.966 -0.1563  0.1386  0.2735
   49SOL     OW  193   1.836   0.732   1.596  0.3249 -0.0547 -0.4118
   49SOL    HW1  194   1.795   0.682   1.667 -2.1259 -1.4610  0.4006
   49SOL    HW2  195   1.900   0.676   1.557  0.1460  2.6414  0.8049
   49SOL     MW  196   1.839   0.718   1.600 -0.0220  0.1155 -0.1441
   50SOL     OW  197   1.206   1.081   0.520  0.4436  0.3210 -0.1693
   50SOL    HW1  198   1.149   1.116   0.590 -1.6496  1.0156  2.1151
   50SOL    HW2  199   1.286   1.060   0.570  1.4926  0.4735 -1.8676
   50SOL     MW  200   1.209   1.083   0.536  0.3058  0.4327 -0.0920
   51SOL     OW  201   0.298   2.880   0.929 -0.7949  0.6402 -0.0633
   51SOL    HW1  202   0.377   2.820   0.952  1.6852 -2.3598  0.1859
   51SOL    HW2  203   0.305   2.937   1.009 -0.8199 -1.6192 -1.5057
   51SOL     MW  204   0.310   2.880   0.943 -0.4709 -0.0538 -0.2208
   52SOL     OW  205   0.816   1.829   0.435  0.0873 -0.6333  0.1034
   52SOL    HW1  206   0.764   1.912   0.436  0.9329  0.7786  0.4620
   52SOL    HW2  207   0.786   1.774   0.363 -1.4020  1.4050  0.1407
   52SOL     MW  208   0.805   1.833   0.426  0.0024 -0.1781  0.1556
   53SOL     OW  209   0.414   2.124   0.597  0.2900 -0.0952 -0.2433
   53SOL    HW1  210   0.356   2.123   0.520 -0.8809  0.7404 -2.2284
   53SOL    HW2  211   0.417   2.215   0.608 -1.4738 -1.6583 -3.7153
   53SOL     MW  212   0.407   2.136   0.588 -0.0972 -0.1912 -0.9633
   54SOL     OW  213   2.087   0.929   0.840 -0.1544  0.3267 -0.5691
   54SOL    HW1  214   2.125   0.960   0.755  1.4593 -0.5860 -0.7482
   54SOL    HW2  215   2.038   0.846   0.835 -1.3388  1.1974 -0.5237
   54SOL     MW  216   2.086   0.922   0.828 -0.0978  0.3212 -0.5867
   55SOL     OW  217   0.580   1.551   1.672  0.2692 -0.1729 -0.5825
   55SOL    HW1  218   0.504   1.556   1.616  0.0413 -1.7907  1.4611
   55SOL    HW2  219   0.639   1.491   1.629 -0.9684 -0.3465  1.9298
   55SOL     MW  220   0.578   1.544   1.659  0.0758 -0.4092  0.0186
   56SOL     OW  221   0.610   0.787   0.058 -0.0396  0.2753  0.1461
   56SOL    HW1  222   0.630   0.878   0.034 -0.3620 -0.5456 -0.3633
   56SOL    HW2  223   0.525   0.781   0.024  1.5519 -0.7300  2.2871
   56SOL     MW  224   0.601   0.798   0.050  0.1278  0.0343  0.3614
   57SOL     OW  225   1.212   1.206   1.143 -0.2963  0.4848  0.2948
   57SOL    HW1  226   1.290   1.238   1.092  0.6506  0.1241 -0.7997
   57SOL    HW2  227   1.265   1.181   1.228 -1.1297  0.8497  0.9322
   57SOL     MW  228   1.229   1.207   1.148 -0.2813  0.4854  0.2345
   58SOL     OW  229   0.528   1.185   1.310 -0.1062  0.4186  0.3696
   58SOL    HW1  230   0.500   1.281   1.283 -3.2177  1.1278 -0.4495
   58SOL    HW2  231   0.537   1.195   1.403 -1.1725 -1.8077  1.7830
   58SOL     MW  232   0.525   1.199   1.318 -0.6574  0.2185  0.4480
   59SOL     OW  233   1.554   1.688   0.328  0.3101  0.2716 -0.0082
   59SOL    HW1  234   1.580   1.766   0.378 -2.1314 -1.9998  1.8749
   59SOL    HW2  235   1.458   1.683   0.342 -2.1233 -1.4053  0.3204
   59SOL     MW  236   1.545   1.698   0.336 -0.3331 -0.2493  0.2836
   60SOL     OW  237   0.014   0.175   1.599 -0.3787  0.1836 -0.6582
   60SOL    HW1  238  -0.065   0.215   1.625  2.9526 -0.8782  2.0271
   60SOL    HW2  239   0.042   0.115   1.666 -0.5183  1.5269 -1.7988
   60SOL     MW  240   0.008   0.173   1.611  0.0424  0.2208 -0.4544
   61SOL     OW  241   2.023   1.506   3.096 -0.2462 -0.0596  0.2593
   61SOL    HW1  242   2.045   1.506   3.190  2.6201  0.5702  0.4255
   61SOL    HW2  243   2.066   1.436   3.051 -1.5774  1.3761 -1.6419
   61SOL     MW  244   2.032   1.497   3.102 -0.0437  0.2129  0.0304
   62SOL     OW  245   0.581   1.712   0.635  0.2970  0.6024  0.2870
   62SOL    HW1  246   0.671   1.707   0.638 -0.0175 -0.1156  0.0884
   62SOL    HW2  247   0.551   1.619   0.654  0.0689 -0.1532 -0.0747
   62SOL     MW  248   0.589   1.699   0.638  0.2254  0.4079  0.2131
   63SOL     OW  249   1.679   0.670   0.734 -0.1112 -0.2869 -0.0828
   63SOL    HW1  250   1.686   0.747   0.674  2.0132  1.4659  2.6818
   63SOL    HW2  251   1.597   0.681   0.778  0.5435  1.1477 -0.2294
   63SOL     MW  252   1.669   0.681   0.732  0.2555  0.1337  0.2626
   64SOL     OW  253   0.201   1.732   0.774 -0.3772 -0.9075  0.3397
   64SOL    HW1  254   0.273   1.788   0.750 -1.1050 -0.3242  1.3037
   64SOL    HW2  255   0.123   1.778   0.767 -1.1373  1.7558 -0.4794
   64SOL     MW  256   0.200   1.745   0.770 -0.5735 -0.4792  0.3588
   65SOL     OW  257   1.555   2.335   0.384  0.4530 -0.4985  0.5358
   65SOL    HW1  258   1.628   2.279   0.393  0.5836 -0.8334 -1.4911
   65SOL    HW2  259   1.541   2.372   0.468  1.3701  2.5174  0.0261
   65SOL     MW  260   1.562   2.333   0.396  0.5912 -0.1448  0.2011
   66SOL     OW  261   0.286   0.534   0.548  0.2985 -0.0370 -0.1709
   66SOL    HW1  262   0.342   0.481   0.488  0.0061  1.2318  1.1928
   66SOL    HW2  263   0.307   0.632   0.521 -1.2429  3.1742  1.6238
   66SOL     MW  264   0.296   0.540   0.537  0.0566  0.5541  0.2458
   67SOL     OW  265   1.541   0.066   2.059  0.2873 -0.1914  0.0665
   67SOL    HW1  266   1.601   0.057   1.985  0.7727 -0.4210  2.5356
   67SOL    HW2  267   1.488  -0.012   2.053  1.1768  0.7892 -1.6837
   67SOL     MW  268   1.542   0.055   2.048  0.4687 -0.0923  0.1614
   68SOL     OW  269   0.686   0.133   2.933  0.5898  0.4018  0.1790
   68SOL    HW1  270   0.690   0.191   2.854 -1.4791  0.7097  1.7192
   68SOL    HW2  271   0.730   0.180   3.008 -1.7391 -0.8879  1.0032
   68SOL     MW  272   0.692   0.147   2.933  0.0096  0.2723  0.4910
   69SOL     OW  273   1.016   0.206   2.002  0.3047  0.2773  0.0977
   69SOL    HW1  274   1.113   0.228   2.013 -0.3872 -1.5148  0.1731
   69SOL    HW2  275   1.008   0.111   2.020 -0.0393 -1.4516  1.1613
   69SOL     MW  276   1.028   0.197   2.006  0.1680 -0.1872  0.2479
   70SOL     OW  277   0.542   1.731   1.123  0.1283 -0.1750  0.4881
   70SOL    HW1  278   0.599   1.695   1.190 -0.2938 -3.8523 -1.3610
   70SOL    HW2  279   0.615   1.772   1.072  2.3144 -0.5062  0.3034
   70SOL     MW  280   0.559   1.731   1.125  0.3611 -0.7039  0.2197
   71SOL     OW  281   1.590   0.524   1.276 -0.3090  0.1559 -0.5011
   71SOL    HW1  282   1.575   0.599   1.333 -1.5708 -1.0149 -0.5782
   71SOL    HW2  283   1.567   0.557   1.185 -0.2616  0.7001  0.0769
   71SOL     MW  284   1.585   0.538   1.271 -0.4693  0.0732 -0.4350
   72SOL     OW  285   0.740   1.823   0.973  0.0771  0.8056 -0.3431
   72SOL    HW1  286   0.757   1.877   0.893  1.3587 -1.6015 -2.3277
   72SOL    HW2  287   0.774   1.740   0.949 -0.3774  1.6789 -1.4446
   72SOL     MW  288   0.746   1.819   0.959  0.1862  0.6032 -0.7503
   73SOL     OW  289   1.163   0.746   1.314 -0.3110 -0.5265 -0.1521
   73SOL    HW1  290   1.118   0.661   1.340  0.2609 -0.7906 -3.6529
   73SOL    HW2  291   1.134   0.815   1.373 -0.0392  0.0940 -0.0674
   73SOL     MW  292   1.154   0.744   1.325 -0.1997 -0.4795 -0.6028
   74SOL     OW  293   2.751   0.174   0.949 -0.4671 -0.6216  0.3084
   74SOL    HW1  294   2.813   0.172   0.881  0.1716  0.1291  1.4344
   74SOL    HW2  295   2.709   0.264   0.948 -1.0215 -0.6380  0.1930
   74SOL     MW  296   2.754   0.185   0.940 -0.4560 -0.5247  0.4417
   75SOL     OW  297   1.647   1.387   0.114  0.0368  0.3456  0.1268
   75SOL    HW1  298   1.683   1.467   0.156  0.7420  0.3689  1.6051
   75SOL    HW2  299   1.693   1.317   0.164 -1.4002  0.4771  2.0375
   75SOL     MW  300   1.658   1.388   0.126 -0.0598  0.3660  0.5740
   76SOL     OW  301   3.014   0.601   0.465  0.1220  0.3436  0.0933
   76SOL    HW1  302   3.071   0.638   0.532  1.6163 -0.7608 -1.7471
   76SOL    HW2  303   3.070   0.540   0.418 -1.4683 -4.9434  1.3917
   76SOL     MW  304   3.029   0.598   0.468  0.1093 -0.4996  0.0218
   77SOL     OW  305   0.821   0.544   0.435  0.7112 -0.4542  0.4324
   77SOL    HW1  306   0.791   0.555   0.345  0.0107 -0.1494 -0.9896
   77SOL    HW2  307   0.761   0.479   0.479  0.9559  0.7115  1.7385
   77SOL     MW  308   0.809   0.537   0.429  0.6511 -0.2601  0.4171
   78SOL     OW  309   0.730   0.935   1.305  0.0187  0.0504  0.1445
   78SOL    HW1  310   0.751   1.028   1.287 -0.0310 -1.2663  0.0619
   78SOL    HW2  311   0.661   0.909   1.238 -0.1200  1.0605  0.3613
   78SOL     MW  312   0.724   0.944   1.294 -0.0062  0.0099  0.1622
   79SOL     OW  313   1.944   1.673   0.582 -0.8083  0.8074 -0.2458
   79SOL    HW1  314   1.856   1.642   0.553  2.0187 -0.9971  1.1285
   79SOL    HW2  315   1.942   1.672   0.682  2.7388 -3.8760  1.2517
   79SOL     MW  316   1.932   1.668   0.592  0.0327 -0.0486  0.1331
   80SOL     OW  317   0.072   0.935   0.338  0.0328  0.1304  0.1762
   80SOL    HW1  318  -0.014   0.899   0.355 -1.4224  0.4077  0.2011
   80SOL    HW2  319   0.140   0.904   0.401 -1.3846 -0.0692  0.0675
   80SOL     MW  320   0.070   0.926   0.348 -0.3462  0.1406  0.1652
   81SOL     OW  321   1.918   1.917   0.224  0.2257  0.3343  0.3153
   81SOL    HW1  322   1.894   1.828   0.195 -2.6523  0.6427  0.5048
   81SOL    HW2  323   1.844   1.980   0.211 -0.9190 -1.2676 -1.0910
   81SOL     MW  324   1.905   1.913   0.219 -0.3051  0.1636  0.1548
   82SOL     OW  325   0.815   1.019   0.517 -0.0777 -0.3175  0.0515
   82SOL    HW1  326   0.792   1.025   0.420 -2.8694  0.5159  2.7446
   82SOL    HW2  327   0.782   0.931   0.545  1.3551  1.6088 -2.6576
   82SOL     MW  328   0.807   1.008   0.508 -0.2570  0.0466  0.0494
   83SOL     OW  329   0.045   0.652   1.440 -0.7425  0.7085  0.9877
   83SOL    HW1  330   0.084   0.722   1.379 -0.6886 -0.6387 -1.5734
   83SOL    HW2  331   0.111   0.616   1.494 -2.5921  0.7274  0.4767
   83SOL     MW  332   0.059   0.657   1.439 -0.9794  0.5333  0.5824
   84SOL     OW  333   0.099   0.279   0.952  0.2455  0.3994  0.3782
   84SOL    HW1  334   0.025   0.341   0.924 -0.3161 -0.4505 -0.6343
   84SOL    HW2  335   0.054   0.193   0.959  0.5136 -0.7640  0.3510
   84SOL     MW  336   0.083   0.276   0.950  0.2068  0.1338  0.2410
   85SOL     OW  337   0.484   0.403   0.752 -0.3288  0.1522 -0.2615
   85SOL    HW1  338   0.416   0.439   0.700 -0.1216 -0.4410  2.0147
   85SOL    HW2  339   0.443   0.331   0.801  0.3911 -2.7947  1.2972
   85SOL     MW  340   0.470   0.398   0.752 -0.2065 -0.3149  0.2445
   86SOL     OW  341   1.184   0.306   1.134 -0.4919 -0.3619 -0.1087
   86SOL    HW1  342   1.146   0.376   1.079  0.4264 -1.7225 -0.7626
   86SOL    HW2  343   1.251   0.350   1.184 -2.1496 -1.1619  1.1570
   86SOL     MW  344   1.188   0.321   1.133 -0.5894 -0.6470 -0.0280
   87SOL     OW  345   1.216   1.461   1.341  0.2203  0.1404  1.1793
   87SOL    HW1  346   1.211   1.516   1.262 -1.7768 -0.7956  0.9576
   87SOL    HW2  347   1.223   1.377   1.298 -1.3549  2.2028  0.3005
   87SOL     MW  348   1.216   1.457   1.325 -0.2510  0.2890  1.0341
   88SOL     OW  349   1.215   0.999   0.933 -0.0595  0.4129  0.3288
   88SOL    HW1  350   1.312   1.007   0.930  1.2275 -1.6224 -1.5025
   88SOL    HW2  351   1.199   1.056   1.007  0.3226 -0.5292 -2.1206
   88SOL     MW  352   1.226   1.007   0.942  0.1607  0.0201 -0.2360
   89SOL     OW  353   1.789   0.681   0.374 -0.0733  0.1250  0.0110
   89SOL    HW1  354   1.810   0.592   0.373 -0.1453 -0.2730 -1.9712
   89SOL    HW2  355   1.817   0.709   0.286  1.8217 -0.5230  0.3799
   89SOL     MW  356   1.795   0.673   0.362  0.1672 -0.0130 -0.2019
   90SOL     OW  357   0.694   1.123   2.722 -0.1282  0.2970 -0.7476
   90SOL    HW1  358   0.763   1.050   2.729  1.7832 -0.8043 -2.8940
   90SOL    HW2  359   0.734   1.175   2.788  1.5466  0.5132  2.6748
   90SOL     MW  360   0.709   1.120   2.732  0.3449  0.1802 -0.5792
   91SOL     OW  361   2.174   0.671   0.457 -0.0581 -0.1308 -0.4323
   91SOL    HW1  362   2.252   0.706   0.412  1.2824 -1.2831  2.2174
   91SOL    HW2  363   2.162   0.586   0.414  0.7980 -0.1230  1.9657
   91SOL     MW  364   2.183   0.664   0.445  0.2317 -0.2818  0.2337
   92SOL     OW  365   1.669   0.875   0.536  0.7415  0.3786 -0.0431
   92SOL    HW1  366   1.574   0.903   0.544 -1.3677  2.1804 -0.9539
   92SOL    HW2  367   1.688   0.808   0.471  1.5642 -1.1517  1.1893
   92SOL     MW  368   1.659   0.870   0.528  0.5718  0.4144 -0.0007
   93SOL     OW  369   0.932   0.256   0.410 -0.3455 -0.1904  0.2773
   93SOL    HW1  370   0.901   0.337   0.452  0.9708  0.2345 -0.2789
   93SOL    HW2  371   0.968   0.288   0.328 -2.8930  1.9103  0.8266
   93SOL     MW  372   0.932   0.271   0.405 -0.5080  0.1428  0.2764
   94SOL     OW  373   1.780   1.486   1.623  0.1356  0.2461 -0.2274
   94SOL    HW1  374   1.802   1.454   1.538 -0.1377  2.8495  1.6704
   94SOL    HW2  375   1.769   1.407   1.679 -1.6539 -2.6858  1.4636
   94SOL     MW  376   1.782   1.471   1.619 -0.1366  0.2027  0.2461
   95SOL     OW  377   0.749   1.565   0.918 -0.4161  0.2897 -0.3093
   95SOL    HW1  378   0.788   1.510   0.983 -0.2601 -0.0438 -0.5909
   95SOL    HW2  379   0.658   1.547   0.938 -0.4036 -1.3342 -1.4159
   95SOL     MW  380   0.743   1.555   0.929 -0.3939  0.0315 -0.4925
   96SOL     OW  381   1.258   1.841   1.657  0.7206  0.1609  0.7729
   96SOL    HW1  382   1.166   1.851   1.689 -4.8933 -0.8559  0.6055
   96SOL    HW2  383   1.273   1.741   1.645 -0.9902  3.5293 -0.1137
   96SOL     MW  384   1.248   1.829   1.659 -0.2458  0.4712  0.6338
   97SOL     OW  385   1.262   1.443   0.750 -0.6737  0.0764 -0.6562
   97SOL    HW1  386   1.312   1.487   0.821  0.7665  1.3927  0.6130
   97SOL    HW2  387   1.176   1.488   0.767 -1.2580  2.6598 -0.3165
   97SOL     MW  388   1.257   1.455   0.761 -0.5608  0.5909 -0.4439
   98SOL     OW  389   1.446   1.293   1.030 -0.2781  0.3253  0.6756
   98SOL    HW1  390   1.490   1.356   1.079 -1.0639  0.4012  0.0616
   98SOL    HW2  391   1.472   1.314   0.941  0.6799 -0.7040 -0.4047
   98SOL     MW  392   1.455   1.304   1.024 -0.2554  0.1995  0.4521
   99SOL     OW  393   1.376   0.370   1.333  0.0114 -0.5860  0.0637
   99SOL    HW1  394   1.447   0.431   1.303  0.5516 -3.3877 -1.9012
   99SOL    HW2  395   1.368   0.379   1.430 -0.4865  1.2805 -0.1260
   99SOL     MW  396   1.384   0.379   1.342  0.0170 -0.7094 -0.2206
  100SOL     OW  397   1.021   1.165   1.384 -0.0881  0.6990  0.5986
  100SOL    HW1  398   1.062   1.200   1.465  0.0309 -0.5249  2.8609
  100SOL    HW2  399   1.060   1.081   1.376 -2.6295 -0.0602  0.3250
  100SOL     MW  400   1.032   1.159   1.394 -0.4077  0.4373  0.8610
  101SOL     OW  401   0.501   1.086   0.319  0.0729  0.5380  1.0296
  101SOL    HW1  402   0.492   0.991   0.328 -0.4037 -2.6033 -1.4548
  101SOL    HW2  403   0.482   1.100   0.222  1.2234  0.0184  0.6970
  101SOL     MW  404   0.497   1.075   0.307  0.1618  0.0550  0.6579
  102SOL     OW  405   2.908   0.628   1.039  0.1225  0.3112  0.2642
  102SOL    HW1  406   2.953   0.714   1.038  0.0526 -2.6307 -0.6308
  102SOL    HW2  407   2.929   0.595   1.126 -0.4359 -1.4415 -0.4082
  102SOL     MW  408   2.917   0.635   1.051  0.0396 -0.3082  0.0574
  103SOL     OW  409   1.755   0.322   1.811  0.7631 -0.5957  0.7573
  103SOL    HW1  410   1.715   0.243   1.780  2.5231 -3.7578  0.6867
  103SOL    HW2  411   1.782   0.293   1.904 -1.0697 -0.5429 -1.1046
  103SOL     MW  412   1.753   0.308   1.819  0.7535 -1.0060  0.5023
  104SOL     OW  413   0.053   1.708   1.502  0.2519 -1.0853 -0.2114
  104SOL    HW1  414   0.041   1.653   1.580 -1.1221  2.7683 -3.5839
  104SOL    HW2  415   0.007   1.662   1.430  0.4045 -0.2641  2.7688
  104SOL     MW  416   0.045   1.695   1.503  0.0908 -0.4685 -0.2631
  105SOL     OW  417   0.029   1.188   0.457 -0.7327  0.0519 -0.5108
  105SOL    HW1  418   0.070   1.096   0.430 -0.1112 -0.4448 -0.2272
  105SOL    HW2  419   0.103   1.255   0.459  2.7774  0.5886 -2.4382
  105SOL     MW  420   0.044   1.185   0.454 -0.1876  0.0572 -0.7277
  106SOL     OW  421   0.856   0.393   1.018 -0.3375  0.1628 -0.4328
  106SOL    HW1  422   0.789   0.446   0.968 -1.9283 -1.6813 -0.4165
  106SOL    HW2  423   0.885   0.316   0.959  2.0761 -0.0134  1.0967
  106SOL     MW  424   0.851   0.390   1.004 -0.2289 -0.1038 -0.2288
  107SOL     OW  425   0.769   2.163   2.962  0.5246 -0.6446  0.2892
  107SOL    HW1  426   0.684   2.128   2.934  0.8799 -0.6891  1.8514
  107SOL    HW2  427   0.782   2.130   3.051 -1.6737  0.8656  1.8167
  107SOL     MW  428   0.759   2.154   2.970  0.2814 -0.4512  0.6969
  108SOL     OW  429   1.275   1.575   1.599 -0.0685 -0.2065  0.5686
  108SOL    HW1  430   1.241   1.536   1.523  1.2752  0.7364 -2.3099
  108SOL    HW2  431   1.350   1.515   1.632  0.3034 -1.5179 -0.0410
  108SOL     MW  432   1.280   1.562   1.593  0.1578 -0.2551  0.1084
  109SOL     OW  433   1.963   0.785   0.182 -0.4113 -0.2107 -0.2131
  109SOL    HW1  434   2.012   0.834   0.114  0.7853 -2.1865 -1.8981
  109SOL    HW2  435   2.015   0.819   0.258  0.2141 -2.0318  1.8252
  109SOL     MW  436   1.977   0.796   0.183 -0.1709 -0.7116 -0.1665
  110SOL     OW  437   0.430   1.904   0.807 -0.2475 -0.1589 -0.2480
  110SOL    HW1  438   0.494   1.834   0.791 -1.3845 -0.0957 -2.7138
  110SOL    HW2  439   0.438   1.965   0.734  0.3051 -0.1615 -1.9722
  110SOL     MW  440   0.439   1.903   0.795 -0.3246 -0.1509 -0.8008
  111SOL     OW  441   0.829   0.902   1.565  0.7110  0.3482 -0.2645
  111SOL    HW1  442   0.802   0.928   1.475 -1.1838  2.3196 -0.4574
  111SOL    HW2  443   0.843   0.804   1.558  1.1118  0.7413  0.5233
  111SOL     MW  444   0.827   0.893   1.552  0.5139  0.6602 -0.1860
  112SOL     OW  445   1.351   1.090   1.596 -0.5441  0.3251  0.1551
  112SOL    HW1  446   1.299   1.163   1.632 -1.4454  0.1346  1.3328
  112SOL    HW2  447   1.305   1.011   1.625  1.7512 -2.2316  1.0564
  112SOL     MW  448   1.338   1.089   1.604 -0.3601 -0.0374  0.4294
  113SOL     OW  449   1.309   0.056   1.722 -0.5707 -0.0213  0.4095
  113SOL    HW1  450   1.308   0.002   1.803  1.6822 -0.0761  2.8391
  113SOL    HW2  451   1.309  -0.015   1.655  2.9434 -0.5978  2.6379
  113SOL     MW  452   1.309   0.039   1.724  0.1902 -0.1046  1.0241
  114SOL     OW  453   0.276   2.848   1.932 -0.3096  0.4645 -0.1748
  114SOL    HW1  454   0.303   2.926   1.980  0.0361 -0.3988  1.0810
  114SOL    HW2  455   0.306   2.876   1.842 -1.6246 -1.8499  0.5075
  114SOL     MW  456   0.284   2.862   1.927 -0.4375  0.0452  0.0809
  115SOL     OW  457   0.471   0.826   1.148 -0.3921  0.0984 -0.1683
  115SOL    HW1  458   0.525   0.746   1.132  1.5004 -1.0997  0.8215
  115SOL    HW2  459   0.424   0.793   1.222  2.8615 -1.5320 -1.9465
  115SOL     MW  460   0.472   0.811   1.155  0.2869 -0.2748 -0.2724
  116SOL     OW  461   0.811   1.044   0.965 -0.0850  0.4583 -0.2457
  116SOL    HW1  462   0.822   1.113   0.901  1.2402  1.2145  0.1731
  116SOL    HW2  463   0.825   1.082   1.048 -2.6070  2.0707 -2.8493
  116SOL     MW  464   0.814   1.058   0.967 -0.2429  0.7708 -0.5340
  117SOL     OW  465   1.116   1.186   0.745  0.1352 -0.0851 -0.1337
  117SOL    HW1  466   1.143   1.110   0.801  1.8154 -2.6959 -0.6373
  117SOL    HW2  467   1.158   1.267   0.775 -0.5231 -1.0555  0.8108
  117SOL     MW  468   1.125   1.186   0.757  0.2700 -0.5576 -0.0755
  118SOL     OW  469   3.022   2.951   1.767  0.0417  0.2530 -0.2298
  118SOL    HW1  470   3.064   3.033   1.785 -1.6357  1.9744 -1.4536
  118SOL    HW2  471   2.929   2.972   1.750 -2.5522  1.6285  1.2115
  118SOL     MW  472   3.015   2.964   1.767 -0.5218  0.6616 -0.2011
  119SOL     OW  473   0.481   1.422   1.227  0.0830  0.0708  0.1608
  119SOL    HW1  474   0.487   1.437   1.130  2.3059 -1.4922  0.8973
  119SOL    HW2  475   0.381   1.424   1.239 -0.9748 -1.2413  3.7882
  119SOL     MW  476   0.469   1.425   1.216  0.2367 -0.3085  0.7366
  120SOL     OW  477   0.267   0.711   0.975  0.0548  0.3625  0.4280
  120SOL    HW1  478   0.267   0.648   1.045  1.3935 -0.1092 -1.9864
  120SOL    HW2  479   0.327   0.778   1.003 -1.8418  0.0973  0.5788
  120SOL     MW  480   0.275   0.712   0.988 -0.0188  0.2653  0.1293
  121SOL     OW  481   1.740   1.195   1.721 -0.1212 -0.0877 -0.2279
  121SOL    HW1  482   1.665   1.141   1.734 -2.2822 -1.4934  1.3542
  121SOL    HW2  483   1.797   1.146   1.660  0.2353 -0.2985  1.9691
  121SOL     MW  484   1.738   1.181   1.714 -0.3593 -0.3010  0.2707
  122SOL     OW  485   0.117   0.543   0.789 -0.3863 -0.1997  0.1357
  122SOL    HW1  486   0.173   0.520   0.715 -1.5762 -0.0795 -0.2805
  122SOL    HW2  487   0.164   0.599   0.854  0.1437 -0.9563 -2.4520
  122SOL     MW  488   0.130   0.547   0.788 -0.4734 -0.2837 -0.2607
  123SOL     OW  489   1.840   1.104   0.544  0.4358  0.7893 -0.4275
  123SOL    HW1  490   1.782   1.026   0.545 -3.3120  0.3207 -0.3041
  123SOL    HW2  491   1.881   1.100   0.629  1.0306  1.9598  1.0135
  123SOL     MW  492   1.837   1.093   0.555  0.0198  0.8819 -0.2211
  124SOL     OW  493   0.691   0.525   0.867 -0.3108  0.3647 -0.3531
  124SOL    HW1  494   0.621   0.500   0.806  2.7407  0.4971  0.0368
  124SOL    HW2  495   0.689   0.622   0.864 -0.3787 -1.6033 -1.8464
  124SOL     MW  496   0.682   0.535   0.859  0.0829  0.1225 -0.4987
  125SOL     OW  497   0.693   1.782   1.719 -0.3065  0.1755  0.3003
  125SOL    HW1  498   0.638   1.697   1.711 -0.5942  2.3606  3.3182
  125SOL    HW2  499   0.628   1.846   1.707  0.9729 -2.0923 -0.7885
  125SOL     MW  500   0.677   1.779   1.717 -0.1756  0.1646  0.5548
  126SOL     OW  501   2.121   1.605   1.981  0.0169 -0.2515 -0.4076
  126SOL    HW1  502   2.187   1.675   1.966  0.3239 -0.2815  1.2140
  126SOL    HW2  503   2.177   1.533   2.004 -2.5187 -0.7978 -0.6552
  126SOL     MW  504   2.137   1.605   1.982 -0.2772 -0.3275 -0.2263
  127SOL     OW  505   0.720   0.781   1.858  0.2877 -0.3724 -0.1798
  127SOL    HW1  506   0.803   0.734   1.877  3.9728  0.3566 -0.3553
  127SOL    HW2  507   0.721   0.856   1.921 -2.4329  2.2670 -0.2798
  127SOL     MW  508   0.731   0.784   1.869  0.4149  0.0720 -0.2161
  128SOL     OW  509   1.774   0.715   2.920 -0.4045  0.3552  0.4434
  128SOL    HW1  510   1.778   0.679   2.830  2.3698  0.4972 -0.5902
  128SOL    HW2  511   1.733   0.803   2.916 -1.6820  0.4978  4.0355
  128SOL     MW  512   1.769   0.722   2.908 -0.2070  0.3927  0.7810
  129SOL     OW  513   1.639   0.963   0.221  0.0643 -0.1829  0.0227
  129SOL    HW1  514   1.603   0.885   0.186 -0.5565  0.6622  1.7669
  129SOL    HW2  515   1.648   0.946   0.312 -2.4966  0.7270 -1.5479
  129SOL     MW  516   1.635   0.950   0.228 -0.3555  0.0486  0.0456
  130SOL     OW  517   0.740   1.328   0.361  0.0238 -0.0534  0.4203
  130SOL    HW1  518   0.736   1.348   0.450 -1.0913 -2.5779  0.2605
  130SOL    HW2  519   0.804   1.401   0.328  1.3381  4.0378 -2.4000
  130SOL     MW  520   0.748   1.340   0.368  0.0501  0.1533  0.0271
  131SOL     OW  521   3.025   0.809   3.078  0.6235 -0.2867  0.2813
  131SOL    HW1  522   3.037   0.867   3.002  0.9981 -1.1768 -2.0673
  131SOL    HW2  523   3.099   0.839   3.131 -1.5715 -0.1968  0.3915
  131SOL     MW  524   3.036   0.821   3.075  0.3833 -0.3923 -0.0140
  132SOL     OW  525   2.683   0.138   1.241 -0.0054 -0.2396  0.1810
  132SOL    HW1  526   2.700   0.142   1.145 -2.1163  0.0780  1.3330
  132SOL    HW2  527   2.587   0.119   1.241  1.1604  1.0399 -1.2980
  132SOL     MW  528   2.673   0.136   1.228 -0.1301 -0.0289  0.1378
  133SOL     OW  529   1.021   0.145   1.731 -0.9198 -0.4597 -0.1614
  133SOL    HW1  530   1.108   0.121   1.699 -1.2883 -1.8406 -2.3063
  133SOL    HW2  531   1.033   0.168   1.825  1.9111  1.2640  1.1861
  133SOL     MW  532   1.034   0.145   1.739 -0.5949 -0.4145 -0.2666
  134SOL     OW  533   1.390   2.513   1.426 -0.2196 -0.4726 -0.1525
  134SOL    HW1  534   1.315   2.569   1.449 -1.7119 -1.3393  2.4860
  134SOL    HW2  535   1.451   2.544   1.495  3.0989  1.5896 -0.0328
  134SOL     MW  536   1.388   2.524   1.438  0.0214 -0.3149  0.2114
  135SOL     OW  537   3.032   0.994   2.838 -0.3956 -0.1065  0.1365
  135SOL    HW1  538   3.102   1.055   2.832 -3.1722 -4.7409  1.4382
  135SOL    HW2  539   2.962   1.050   2.870 -1.6729 -2.4161 -1.7782
  135SOL     MW  540   3.032   1.010   2.841 -0.9305 -1.0227  0.0556
  136SOL     OW  541   0.199   2.045   0.877 -0.2472 -0.0913 -0.2622
  136SOL    HW1  542   0.120   1.999   0.845 -1.3486  0.7974  0.9185
  136SOL    HW2  543   0.273   2.009   0.823 -1.3848  1.1455  0.3840
  136SOL     MW  544   0.198   2.034   0.866 -0.5426  0.1891 -0.0212
  137SOL     OW  545   0.687   2.073   0.531  0.1101 -0.0639  0.2968
  137SOL    HW1  546   0.708   2.061   0.619 -3.2978 -0.2579  0.4087
  137SOL    HW2  547   0.601   2.101   0.549  2.4038 -1.6145 -2.9541
  137SOL     MW  548   0.678   2.075   0.545 -0.0369 -0.2941 -0.1173
  138SOL     OW  549   0.547   0.570   1.093  0.4287  0.4976  0.2922
  138SOL    HW1  550   0.465   0.528   1.081  0.6641  0.4752  0.0045
  138SOL    HW2  551   0.599   0.529   1.019  0.5884 -0.9278 -0.2408
  138SOL     MW  552   0.543   0.559   1.081  0.4809  0.3066  0.1839
  139SOL     OW  553   2.775   0.581   1.345  0.5157  0.1745  0.1351
  139SOL    HW1  554   2.817   0.501   1.372 -0.0837 -0.2202 -0.0646
  139SOL    HW2  555   2.828   0.655   1.384  4.3623 -0.9079 -0.1631
  139SOL     MW  556   2.787   0.581   1.354  0.9441 -0.0204  0.0694
  140SOL     OW  557   0.814   0.390   2.091  0.1584  0.1596  0.2684
  140SOL    HW1  558   0.880   0.324   2.066 -0.8248  2.9390  3.4773
  140SOL    HW2  559   0.799   0.386   2.189  2.2903 -0.8152  1.2881
  140SOL     MW  560   0.821   0.381   2.101  0.3100  0.3977  0.8263
  141SOL     OW  561   1.085   0.630   1.755 -0.1825  1.0353 -0.0567
  141SOL    HW1  562   1.117   0.541   1.748 -1.7175  1.5928 -0.0701
  141SOL    HW2  563   1.162   0.693   1.742  1.1358  2.0621 -3.0215
  141SOL     MW  564   1.100   0.627   1.752 -0.2111  1.2443 -0.4497
  142SOL     OW  565   0.847   1.191   0.731  0.4855 -0.2603 -0.0521
  142SOL    HW1  566   0.823   1.137   0.652  2.0740 -0.2776 -0.1392
  142SOL    HW2  567   0.940   1.166   0.746  0.5547  1.0466 -0.3133
  142SOL     MW  568   0.856   1.181   0.723  0.7042 -0.0901 -0.0981
  143SOL     OW  569   1.754   0.777   1.127  0.1523 -1.0474 -0.1704
  143SOL    HW1  570   1.803   0.763   1.045  0.0656 -1.1703  0.3546
  143SOL    HW2  571   1.662   0.763   1.103  1.8045  3.3811 -0.1721
  143SOL     MW  572   1.748   0.773   1.113  0.3589 -0.4793 -0.1013
  144SOL     OW  573   0.220   1.160   1.584  0.0775 -0.0081  0.5299
  144SOL    HW1  574   0.299   1.184   1.539 -1.0976  0.9736 -2.3454
  144SOL    HW2  575   0.242   1.188   1.674 -0.2577  0.5882  1.4051
  144SOL     MW  576   0.234   1.167   1.590 -0.1218  0.2001  0.2660
  145SOL     OW  577   0.271   0.458   1.134 -0.3676  0.2177  0.2603
  145SOL    HW1  578   0.293   0.398   1.197 -3.8907  2.0002 -1.9223
  145SOL    HW2  579   0.226   0.392   1.072  1.3677  0.6652 -0.4309
  145SOL     MW  580   0.268   0.441   1.134 -0.6035  0.5119 -0.1189
  146SOL     OW  581   0.813   1.929   1.323  0.2629 -0.0179  0.1214
  146SOL    HW1  582   0.849   1.952   1.239  2.4332  0.7635  0.9237
  146SOL    HW2  583   0.720   1.928   1.336  1.5171  0.2821  0.6987
  146SOL     MW  584   0.806   1.932   1.314  0.7147  0.1248  0.3034
  147SOL     OW  585   0.343   0.394   2.992  0.0574  0.1273 -0.1586
  147SOL    HW1  586   0.286   0.448   3.052  0.9172  0.9781  1.2200
  147SOL    HW2  587   0.362   0.459   2.923  1.3677  0.6953 -1.0837
  147SOL     MW  588   0.338   0.410   2.991  0.3437  0.3145 -0.0988
  148SOL     OW  589   0.149   0.852   1.265  0.2263 -0.1636  0.0411
  148SOL    HW1  590   0.237   0.835   1.307 -2.7185 -0.3188 -0.0263
  148SOL    HW2  591   0.107   0.901   1.333  1.7829 -1.8272 -0.8906
  148SOL     MW  592   0.155   0.856   1.280  0.0431 -0.4036 -0.0907
  149SOL     OW  593   1.369   1.151   1.340  0.6535  0.6118  0.0325
  149SOL    HW1  594   1.331   1.130   1.426 -3.4290  2.6373 -0.7818
  149SOL    HW2  595   1.434   1.221   1.349  2.8111 -2.5278 -0.6996
  149SOL     MW  596   1.373   1.158   1.353  0.3996  0.4648 -0.1716
  150SOL     OW  597   1.857   1.402   0.744  0.0797  0.1021  0.1068
  150SOL    HW1  598   1.889   1.324   0.783 -1.7669  1.5349  0.4129
  150SOL    HW2  599   1.882   1.469   0.809 -0.4119 -0.3618 -0.4204
  150SOL     MW  600   1.864   1.401   0.758 -0.2288  0.2299  0.0776
  151SOL     OW  601   1.676   1.768   0.827  0.5194 -0.2925  0.0493
  151SOL    HW1  602   1.656   1.776   0.733 -1.0286  0.1206  0.6345
  151SOL    HW2  603   1.599   1.716   0.858 -2.8910 -3.9996 -1.0131
  151SOL     MW  604   1.663   1.762   0.819 -0.1348 -0.7271 -0.0136
  152SOL     OW  605   0.742   1.418   1.497 -0.0226  0.5096  0.2935
  152SOL    HW1  606   0.733   1.341   1.443  2.5055  0.9775  0.2541
  152SOL    HW2  607   0.837   1.426   1.510 -0.8738  2.3250  2.0935
  152SOL     MW  608   0.753   1.409   1.492  0.1986  0.8108  0.5258
  153SOL     OW  609   2.593   1.211   0.754  0.0912 -0.4637  0.2725
  153SOL    HW1  610   2.664   1.169   0.695 -0.4996 -0.3941  2.9980
  153SOL    HW2  611   2.521   1.144   0.753 -2.0202  0.4041  0.1887
  153SOL     MW  612   2.593   1.197   0.746 -0.2653 -0.3400  0.6210
  154SOL     OW  613   0.322   1.816   1.740 -0.2696 -0.1263 -0.4723
  154SOL    HW1  614   0.339   1.805   1.643  0.2745 -1.0682 -0.7649
  154SOL    HW2  615   0.326   1.724   1.782 -0.3512 -1.5308  0.2448
  154SOL     MW  616   0.325   1.802   1.733 -0.2085 -0.4359 -0.4163
  155SOL     OW  617   1.214   0.714   0.266  0.2590  0.5873  0.0358
  155SOL    HW1  618   1.193   0.679   0.351  0.8923  0.8645 -3.0409
  155SOL    HW2  619   1.182   0.807   0.269  2.3455  0.2375 -0.5062
  155SOL     MW  620   1.207   0.722   0.278  0.6178  0.5778 -0.4417
  156SOL     OW  621   1.528   3.056   1.089 -0.2095 -0.1394  1.0548
  156SOL    HW1  622   1.577   3.133   1.127 -0.4350  3.3134 -1.4478
  156SOL    HW2  623   1.551   2.974   1.127 -0.4526 -0.5907  2.0914
  156SOL     MW  624   1.538   3.055   1.099 -0.2713  0.2566  0.8614
  157SOL     OW  625   1.448   1.123   0.109 -0.4827  0.5359 -0.3065
  157SOL    HW1  626   1.518   1.058   0.147  1.7405 -2.8896  0.1240
  157SOL    HW2  627   1.504   1.196   0.084  0.3155 -0.1692 -2.0375
  157SOL     MW  628   1.464   1.124   0.110 -0.0841 -0.0091 -0.4781
  158SOL     OW  629   0.498   1.648   2.189  0.8575  0.5728  0.1589
  158SOL    HW1  630   0.499   1.719   2.122 -0.9913  2.7847 -1.1999
  158SOL    HW2  631   0.429   1.665   2.254  0.1643 -1.7380 -1.5518
  158SOL     MW  632   0.489   1.659   2.189  0.5221  0.5597 -0.2461
  159SOL     OW  633   1.285   1.708   0.430  0.3509 -0.1333  0.1443
  159SOL    HW1  634   1.252   1.634   0.377 -1.4803 -0.7666 -0.5158
  159SOL    HW2  635   1.222   1.708   0.499  1.4574  2.8949 -0.5428
  159SOL     MW  636   1.272   1.698   0.432  0.2553  0.1827 -0.0335
  160SOL     OW  637   0.552   1.165   1.608  0.3662  0.4534  0.0995
  160SOL    HW1  638   0.535   1.072   1.617  1.0255 -1.2722 -1.0675
  160SOL    HW2  639   0.639   1.173   1.641 -0.6471  1.8686 -0.9369
  160SOL     MW  640   0.561   1.154   1.614  0.3195  0.4125 -0.1912
  161SOL     OW  641   0.464   2.182   2.568  0.1550 -0.2411  0.1569
  161SOL    HW1  642   0.373   2.163   2.547 -1.9433 -0.2814  2.0317
  161SOL    HW2  643   0.513   2.146   2.495  2.9942  0.6147  0.0629
  161SOL     MW  644   0.458   2.175   2.555  0.2528 -0.1335  0.3919
  162SOL     OW  645   1.069   1.785   1.868 -0.5329 -0.3580 -0.1804
  162SOL    HW1  646   1.069   1.873   1.902  1.2040 -2.9210  1.2265
  162SOL    HW2  647   0.982   1.744   1.892  1.8206 -0.0664  1.3125
  162SOL     MW  648   1.057   1.791   1.876  0.0068 -0.6577  0.2022
  163SOL     OW  649   2.152   0.036   0.938  0.6946 -0.3593 -0.1634
  163SOL    HW1  650   2.119   0.089   0.860 -3.2182 -2.4518 -0.6317
  163SOL    HW2  651   2.112  -0.052   0.936  0.2442 -2.7339  0.4041
  163SOL     MW  652   2.142   0.031   0.928  0.1189 -0.9487 -0.1503
  164SOL     OW  653   0.370   0.209   0.879  0.1815  0.4191 -0.1078
  164SOL    HW1  654   0.285   0.230   0.906  1.4998  2.6482 -0.4842
  164SOL    HW2  655   0.356   0.145   0.809  1.7895 -0.0148  1.0541
  164SOL     MW  656   0.357   0.204   0.873  0.5676  0.6559 -0.0042
  165SOL     OW  657   1.348   1.241   0.346  0.1856  0.5223  0.5638
  165SOL    HW1  658   1.295   1.186   0.405  0.4251 -2.8326 -2.3917
  165SOL    HW2  659   1.378   1.174   0.280 -1.4010 -0.6062  0.7119
  165SOL     MW  660   1.345   1.225   0.345  0.0078 -0.0692  0.1934
  166SOL     OW  661   0.533   1.133   1.008 -0.1804  0.1452 -0.3153
  166SOL    HW1  662   0.509   1.116   1.099  3.2289  1.7170  3.3439
  166SOL    HW2  663   0.627   1.118   1.012  1.1949  0.0458  0.3529
  166SOL     MW  664   0.542   1.129   1.021  0.4509  0.3395  0.2557
  167SOL     OW  665   0.761   1.025   0.252 -0.0288 -0.3246  0.1717
  167SOL    HW1  666   0.673   1.065   0.286 -1.8458 -1.6047 -0.0190
  167SOL    HW2  667   0.800   1.086   0.181 -1.3038  0.3366  2.3003
  167SOL     MW  668   0.755   1.038   0.247 -0.4368 -0.4062  0.4274
  168SOL     OW  669   1.670   1.671   2.990  0.4840 -0.0048  0.3730
  168SOL    HW1  670   1.634   1.727   2.920  2.0871  1.8488  0.1691
  168SOL    HW2  671   1.693   1.584   2.952  2.5855 -2.8025 -2.7053
  168SOL     MW  672   1.668   1.667   2.976  0.9728 -0.1294 -0.0601
  169SOL     OW  673   0.393   0.895   1.396  0.1233 -0.1996 -0.2541
  169SOL    HW1  674   0.447   0.897   1.479  1.2153  1.2630  0.3930
  169SOL    HW2  675   0.381   0.986   1.375  0.9976  0.7748 -0.5652
  169SOL     MW  676   0.399   0.907   1.404  0.3828  0.1220 -0.2098
  170SOL     OW  677   1.001   1.469   1.512  0.3013 -0.2229 -0.5164
  170SOL    HW1  678   0.987   1.565   1.518  0.7889  0.9546 -2.9860
  170SOL    HW2  679   1.054   1.454   1.430 -1.2014 -0.7075  1.8794
  170SOL     MW  680   1.006   1.480   1.502  0.1674 -0.1315 -0.5262
  171SOL     OW  681   0.573   1.435   0.691 -0.8151  0.3896  0.6396
  171SOL    HW1  682   0.552   1.413   0.779  2.4797 -0.4132 -2.6295
  171SOL    HW2  683   0.567   1.354   0.639  2.3520  0.3818 -1.7134
  171SOL     MW  684   0.570   1.421   0.696  0.0375  0.2826 -0.1022
  172SOL     OW  685   0.841   0.325   1.284 -0.2206  0.5997  0.3282
  172SOL    HW1  686   0.849   0.350   1.193 -0.8402 -0.1086 -0.2140
  172SOL    HW2  687   0.756   0.373   1.303  1.9475  0.8771 -0.5812
  172SOL     MW  688   0.831   0.335   1.275 -0.0163  0.5429  0.1367
  173SOL     OW  689   0.445   1.733   0.380  0.4484 -0.0812 -0.0990
  173SOL    HW1  690   0.427   1.643   0.361 -3.4174  2.2135 -1.4436
  173SOL    HW2  691   0.484   1.733   0.469 -0.0200 -0.0936 -1.5928
  173SOL     MW  692   0.448   1.721   0.389 -0.1235  0.2199 -0.4735
  174SOL     OW  693   1.858   1.000   1.557  0.2362  0.2594  0.5993
  174SOL    HW1  694   1.820   0.914   1.592 -1.7160 -0.8924 -1.6319
  174SOL    HW2  695   1.834   0.998   1.464  1.8650 -1.9025  2.7590
  174SOL     MW  696   1.850   0.988   1.549  0.1935 -0.1778  0.5899
  175SOL     OW  697   0.491   1.442   0.319  0.5822  0.5729 -0.8242
  175SOL    HW1  698   0.466   1.422   0.222  0.5800  1.0768 -3.5275
  175SOL    HW2  699   0.581   1.409   0.332 -1.4346 -1.7321 -0.1439
  175SOL     MW  700   0.499   1.435   0.308  0.3158  0.3353 -1.0911
  176SOL     OW  701   0.213   1.437   1.222 -0.5950  0.9869  0.0707
  176SOL    HW1  702   0.200   1.417   1.127 -0.5080 -0.2488 -2.1579
  176SOL    HW2  703   0.135   1.432   1.272 -0.7979  2.5973 -3.5913
  176SOL     MW  704   0.201   1.434   1.216 -0.6103  1.0364 -0.7065
  177SOL     OW  705   0.594   0.422   1.339  0.3804  0.2348  0.1681
  177SOL    HW1  706   0.576   0.493   1.271 -0.3043 -2.1525  1.8333
  177SOL    HW2  707   0.597   0.467   1.425  1.6818  1.7204  0.2029
  177SOL     MW  708   0.592   0.437   1.341  0.4618  0.1159  0.3924
  178SOL     OW  709   0.017   0.440   2.956 -0.3614  0.2007 -0.3562
  178SOL    HW1  710  -0.067   0.471   2.994 -0.6356 -0.4437  1.4046
  178SOL    HW2  711   0.032   0.480   2.870  0.2716 -1.9519  0.1596
  178SOL     MW  712   0.008   0.450   2.949 -0.3140 -0.1684 -0.0558
  179SOL     OW  713   1.571   1.332   1.407 -0.5159 -0.5506 -0.2483
  179SOL    HW1  714   1.537   1.371   1.492  0.7425  1.5947 -0.1101
  179SOL    HW2  715   1.660   1.299   1.427 -0.6377 -1.1966 -0.6048
  179SOL     MW  716   1.579   1.332   1.421 -0.3659 -0.3528 -0.2771
  180SOL     OW  717   3.056   0.187   0.452  0.3244 -0.1854 -0.3525
  180SOL    HW1  718   3.007   0.190   0.371  2.1982  0.7833 -3.0452
  180SOL    HW2  719   3.114   0.261   0.436  0.0766 -1.5181 -1.8751
  180SOL     MW  720   3.057   0.197   0.439  0.5389 -0.2334 -0.9087
  181SOL     OW  721   1.117   1.361   3.083 -0.8215  0.5888  0.0294
  181SOL    HW1  722   1.206   1.390   3.097  2.5118 -2.0803  0.5609
  181SOL    HW2  723   1.140   1.287   3.025  1.6331  2.0185 -2.4830
  181SOL     MW  724   1.131   1.355   3.077 -0.0579  0.4253 -0.2319
  182SOL     OW  725   0.483   0.879   1.649 -0.7266 -0.4409  0.0955
  182SOL    HW1  726   0.389   0.868   1.670 -0.6354 -0.4290 -2.3933
  182SOL    HW2  727   0.544   0.830   1.706  1.7709 -1.2865  1.2122
  182SOL     MW  728   0.479   0.871   1.660 -0.3850 -0.5509 -0.0855
  183SOL     OW  729   1.567   1.538   1.199 -0.0516 -0.4120 -0.6220
  183SOL    HW1  730   1.525   1.614   1.232  2.7131  0.0922  0.4987
  183SOL    HW2  731   1.580   1.480   1.279  1.1476  0.7789 -2.5138
  183SOL     MW  732   1.563   1.540   1.214  0.4714 -0.1884 -0.7237
  184SOL     OW  733   0.916   0.633   1.966  0.1457  0.1832 -0.0697
  184SOL    HW1  734   0.981   0.621   1.897 -1.2942  0.0559  0.2388
  184SOL    HW2  735   0.872   0.550   1.988  0.7673  1.3024 -3.5343
  184SOL     MW  736   0.919   0.620   1.960  0.0378  0.3141 -0.4861
  185SOL     OW  737   1.259   1.029   1.910  0.1563 -0.0783 -0.7669
  185SOL    HW1  738   1.298   0.949   1.957  0.5579 -0.3956  1.0750
  185SOL    HW2  739   1.257   1.095   1.976 -1.4903  3.3909 -1.6854
  185SOL     MW  740   1.264   1.027   1.925 -0.0080  0.3376 -0.6451
  186SOL     OW  741   0.364   1.652   1.437 -0.0831  0.3520 -0.1921
  186SOL    HW1  742   0.413   1.615   1.360  0.9894  2.3172 -0.9374
  186SOL    HW2  743   0.287   1.693   1.401 -0.8568 -1.7634 -1.4978
  186SOL     MW  744   0.361   1.653   1.422 -0.0437  0.3322 -0.4627
  187SOL     OW  745   1.422   0.720   1.418  0.5286 -0.0576 -0.5209
  187SOL    HW1  746   1.413   0.691   1.507  0.5106  0.1088 -0.9650
  187SOL    HW2  747   1.334   0.712   1.383  1.1249  2.8223  1.5831
  187SOL     MW  748   1.409   0.715   1.425  0.6049  0.3443 -0.3019
  188SOL     OW  749   1.921   1.167   0.829 -0.4161 -0.0652  0.5347
  188SOL    HW1  750   1.890   1.154   0.923  0.4027  0.9225  0.8567
  188SOL    HW2  751   1.995   1.104   0.829 -0.0655 -0.2875  2.5925
  188SOL     MW  752   1.927   1.157   0.841 -0.2618  0.0358  0.8487
  189SOL     OW  753   0.691   0.795   0.860 -0.0144 -0.4535 -0.0043
  189SOL    HW1  754   0.605   0.845   0.849 -0.6192  1.1307  1.8680
  189SOL    HW2  755   0.747   0.856   0.909 -4.0059 -0.3144  0.4745
  189SOL     MW  756   0.687   0.810   0.865 -0.6208 -0.2261  0.3059
  190SOL     OW  757   1.857   0.283   2.067 -0.5016 -0.0618  0.2364
  190SOL    HW1  758   1.873   0.203   2.115 -0.9721 -2.9100 -6.2599
  190SOL    HW2  759   1.944   0.325   2.052 -0.1003 -1.1107  1.8336
  190SOL     MW  760   1.870   0.278   2.071 -0.5107 -0.5760 -0.4100
  191SOL     OW  761   1.486   0.917   1.229  0.1822 -0.4469 -0.2045
  191SOL    HW1  762   1.454   0.995   1.275 -1.1429 -2.6315 -0.2612
  191SOL    HW2  763   1.470   0.848   1.293  1.5414  0.9030  1.9682
  191SOL     MW  764   1.480   0.918   1.243  0.1867 -0.5570  0.0746
  192SOL     OW  765   0.583   2.078   2.782  0.2104 -0.0282 -0.0904
  192SOL    HW1  766   0.528   2.125   2.710 -2.8365  0.6180 -1.4601
  192SOL    HW2  767   0.571   1.983   2.779  2.1655 -2.2025 -0.8370
  192SOL     MW  768   0.575   2.072   2.772  0.0663 -0.2298 -0.3696
  193SOL     OW  769   1.033   1.560   0.790  0.3324 -0.1337 -0.3168
  193SOL    HW1  770   0.983   1.559   0.878 -0.1246  0.9441 -1.4327
  193SOL    HW2  771   0.973   1.506   0.736 -0.2504  0.4971 -1.4860
  193SOL     MW  772   1.019   1.553   0.795  0.1952  0.0917 -0.6183
  194SOL     OW  773   0.453   1.396   0.962  0.8067  0.1174  0.1519
  194SOL    HW1  774   0.474   1.300   0.974  1.8888 -0.9575 -0.2125
  194SOL    HW2  775   0.385   1.401   0.895 -1.2555  1.1896 -2.0523
  194SOL     MW  776   0.447   1.384   0.955  0.6774  0.1170 -0.1870
  195SOL     OW  777   1.263   1.145   3.006 -0.0366 -0.7681 -0.0474
  195SOL    HW1  778   1.324   1.126   3.080 -1.9726 -0.2080 -2.9961
  195SOL    HW2  779   1.194   1.070   3.001  0.7634 -0.2004  0.2345
  195SOL     MW  780   1.262   1.133   3.015 -0.1864 -0.6193 -0.3992
  196SOL     OW  781   2.178   1.017   0.582  0.4566 -0.1230  0.3190
  196SOL    HW1  782   2.126   0.987   0.505  0.5967  0.5843 -2.9083
  196SOL    HW2  783   2.191   1.111   0.566 -1.3181  0.3194 -1.6535
  196SOL     MW  784   2.173   1.025   0.570  0.2409  0.0287 -0.3670
  197SOL     OW  785   0.707   1.262   2.049  0.1703  0.0251  0.2943
  197SOL    HW1  786   0.691   1.165   2.039  2.2381 -1.9525  0.3199
  197SOL    HW2  787   0.666   1.298   1.975 -2.2334  0.8122 -0.2530
  197SOL     MW  788   0.700   1.254   2.038  0.1260 -0.1320  0.2255
  198SOL     OW  789   2.984   1.362   1.091  0.3318 -0.5788  0.2803
  198SOL    HW1  790   2.958   1.456   1.074 -0.7504  1.9573 -1.5406
  198SOL    HW2  791   2.914   1.301   1.056  2.2613 -2.5241  1.1299
  198SOL     MW  792   2.971   1.366   1.084  0.4436 -0.5009  0.1521
  199SOL     OW  793   0.513   1.358   1.870 -0.2893  0.0367  0.0312
  199SOL    HW1  794   0.425   1.320   1.868  0.4209  0.9072 -0.5889
  199SOL    HW2  795   0.518   1.419   1.796  1.0837 -1.5094  1.0583
  199SOL     MW  796   0.502   1.361   1.860 -0.0144 -0.0524  0.0849
  200SOL     OW  797   1.852   3.076   1.305  0.2573 -0.8840 -0.9595
  200SOL    HW1  798   1.859   3.045   1.215  2.8376  0.4384  0.9286
  200SOL    HW2  799   1.758   3.105   1.314 -2.6601 -0.4245 -1.1416
  200SOL     MW  800   1.841   3.076   1.294  0.2128 -0.6489 -0.7344
  201SOL     OW  801   0.975   0.206   0.850  0.4770 -0.0792  0.2721
  201SOL    HW1  802   0.946   0.132   0.787 -0.2333  1.6295 -3.2549
  201SOL    HW2  803   1.037   0.254   0.804  0.9872  0.9624  2.1859
  201SOL     MW  804   0.980   0.202   0.836  0.4506  0.2837  0.0593
  202SOL     OW  805   1.514   1.568   0.921 -0.0549 -0.0861 -0.1606
  202SOL    HW1  806   1.553   1.501   0.863  3.7207  0.0935 -2.2212
  202SOL    HW2  807   1.569   1.553   0.997  1.2522  0.6825 -0.3232
  202SOL     MW  808   1.526   1.557   0.924  0.6158  0.0390 -0.4540
  203SOL     OW  809   3.073   0.497   1.238 -0.4569  0.0801  1.2083
  203SOL    HW1  810   3.155   0.455   1.196 -0.4264  0.2450 -1.0575
  203SOL    HW2  811   3.103   0.538   1.322 -1.8246  2.6396 -0.8960
  203SOL     MW  812   3.087   0.497   1.244 -0.6333  0.4396  0.6317
  204SOL     OW  813   1.064   1.749   0.594  0.0957 -0.4590  0.0864
  204SOL    HW1  814   1.064   1.692   0.671 -0.2304  2.3859 -2.0276
  204SOL    HW2  815   0.979   1.758   0.553 -1.4100  0.6558  1.7353
  204SOL     MW  816   1.052   1.742   0.599 -0.1460  0.0634  0.0251
  205SOL     OW  817   1.369   0.096   1.362 -0.2999  0.3961 -0.5716
  205SOL    HW1  818   1.313   0.061   1.295 -0.6774 -0.5652  0.7874
  205SOL    HW2  819   1.385   0.184   1.333  1.2251  1.0578 -2.2958
  205SOL     MW  820   1.364   0.103   1.349 -0.1485  0.3565 -0.6198
  206SOL     OW  821   0.389   3.016   1.433 -0.1128 -0.3403 -0.1496
  206SOL    HW1  822   0.334   3.005   1.348  0.3017 -0.3482 -2.0732
  206SOL    HW2  823   0.471   2.961   1.421 -2.0041  2.0013 -0.1370
  206SOL     MW  824   0.393   3.007   1.420 -0.3077 -0.0324 -0.4018
  207SOL     OW  825   0.911   1.485   0.191  0.1934  0.3825 -0.1902
  207SOL    HW1  826   0.930   1.580   0.175  0.6530  2.1228  0.7499
  207SOL    HW2  827   0.995   1.440   0.204 -0.5338  0.9704 -3.2197
  207SOL     MW  828   0.925   1.492   0.191  0.1581  0.6896 -0.4659
  208SOL     OW  829   0.695   1.638   1.321 -0.1636  0.5348  0.3823
  208SOL    HW1  830   0.742   1.699   1.378  1.3687 -1.1524  0.2918
  208SOL    HW2  831   0.699   1.558   1.379  1.2621 -2.1221 -1.0925
  208SOL     MW  832   0.702   1.636   1.336  0.2266 -0.0384  0.1758
  209SOL     OW  833   1.580   0.546   2.970 -0.2820 -0.5996  0.5108
  209SOL    HW1  834   1.653   0.608   2.977 -1.9454 -1.0455 -0.9484
  209SOL    HW2  835   1.624   0.465   2.958  3.7499  1.0656  0.4192
  209SOL     MW  836   1.595   0.543   2.969  0.0305 -0.4387  0.3062
  210SOL     OW  837   1.589   1.334   0.792  0.2887 -0.3526 -0.4614
  210SOL    HW1  838   1.685   1.325   0.770  1.4031  0.8148 -0.4484
  210SOL    HW2  839   1.542   1.331   0.704 -0.0148 -2.2988  0.8728
  210SOL     MW  840   1.596   1.333   0.778  0.3957 -0.4553 -0.2836
  211SOL     OW  841   1.666   0.371   0.971  0.0302 -0.0328  0.4041
  211SOL    HW1  842   1.650   0.366   0.880  2.3658 -0.2506  1.1109
  211SOL    HW2  843   1.763   0.392   0.977 -1.3619  2.8558 -0.5281
  211SOL     MW  844   1.677   0.373   0.960  0.1547  0.3196  0.3744
  212SOL     OW  845   0.220   1.067   0.107  0.2365 -0.4732  0.0522
  212SOL    HW1  846   0.190   1.032   0.189  0.0372  0.0057  0.6019
  212SOL    HW2  847   0.275   1.002   0.061 -0.1021  2.0872  0.3853
  212SOL     MW  848   0.223   1.054   0.112  0.1656 -0.0722  0.1687
  213SOL     OW  849   0.496   1.745   3.037  0.0521  0.0812  0.2109
  213SOL    HW1  850   0.501   1.821   3.094  0.3790  2.9233 -2.6079
  213SOL    HW2  851   0.536   1.770   2.948  0.9062  1.8392  0.7292
  213SOL     MW  852   0.502   1.758   3.032  0.2079  0.6881 -0.0927
  214SOL     OW  853   0.554   0.270   2.264  0.2246  0.0150 -0.0423
  214SOL    HW1  854   0.488   0.344   2.249 -2.4768  2.1394  2.0532
  214SOL    HW2  855   0.617   0.290   2.199 -2.1798 -0.6999 -0.5984
  214SOL     MW  856   0.553   0.283   2.254 -0.4491  0.2010  0.1608
  215SOL     OW  857   0.538   0.687   2.665  0.0105 -0.2379 -0.0420
  215SOL    HW1  858   0.512   0.677   2.575 -0.2528  2.3999 -1.0379
  215SOL    HW2  859   0.459   0.646   2.706 -0.0154 -1.9304  0.4441
  215SOL     MW  860   0.524   0.681   2.658 -0.0277 -0.1132 -0.1092
  216SOL     OW  861   2.909   3.065   2.641 -0.4247  0.0743 -0.4668
  216SOL    HW1  862   2.891   3.044   2.738  1.6475  0.7494  2.9146
  216SOL    HW2  863   2.895   3.162   2.623  0.6546 -1.9253  0.4477
  216SOL     MW  864   2.905   3.075   2.651 -0.0089 -0.1005  0.1000
  217SOL     OW  865   0.945   1.142   0.054  0.1292 -0.7685  0.1475
  217SOL    HW1  866   1.005   1.064   0.039  0.6173 -2.0505 -3.0216
  217SOL    HW2  867   1.005   1.217   0.064 -1.0191 -0.5034 -4.0407
  217SOL     MW  868   0.961   1.142   0.053  0.0421 -0.9027 -0.8232
  218SOL     OW  869   0.964   1.355   2.510 -0.0552 -0.0097 -0.0677
  218SOL    HW1  870   0.979   1.284   2.572 -0.4137  0.0461 -0.4553
  218SOL    HW2  871   1.022   1.428   2.531 -0.0567 -0.6226 -1.5397
  218SOL     MW  872   0.973   1.355   2.521 -0.1027 -0.0832 -0.3131
  219SOL     OW  873   1.106   0.468   2.639  0.1037  0.2739  0.2099
  219SOL    HW1  874   1.156   0.539   2.680  0.6487 -2.6398  3.7562
  219SOL    HW2  875   1.031   0.521   2.616 -0.9401  0.6660 -0.2333
  219SOL     MW  876   1.103   0.485   2.642  0.0379 -0.0588  0.6193
  220SOL     OW  877   1.760   0.470   2.240  0.2234  0.9457  0.2119
  220SOL    HW1  878   1.689   0.496   2.179 -1.1048 -1.3584 -1.7234
  220SOL    HW2  879   1.802   0.393   2.190  0.7889 -1.8937  0.1225
  220SOL     MW  880   1.756   0.463   2.225  0.1227  0.2670 -0.0552
  221SOL     OW  881   0.378   1.346   2.950  0.6805  0.2720  0.6228
  221SOL    HW1  882   0.397   1.254   2.925 -3.9522  2.7437  2.1332
  221SOL    HW2  883   0.409   1.408   2.883  0.0314  0.8345  1.2989
  221SOL     MW  884   0.384   1.342   2.938 -0.0164  0.6724  0.9113
  222SOL     OW  885   0.394   0.948   2.676  0.0928  0.1877 -0.5060
  222SOL    HW1  886   0.364   0.981   2.585  1.0195 -0.4526 -0.1064
  222SOL    HW2  887   0.453   0.876   2.671 -2.3972  1.1483  1.2565
  222SOL     MW  888   0.398   0.943   2.663 -0.1135  0.2300 -0.2207
  223SOL     OW  889   0.013   2.047   2.570 -0.2033 -0.7745 -0.0306
  223SOL    HW1  890   0.071   1.978   2.613  1.0934  1.2889 -0.6430
  223SOL    HW2  891   0.074   2.102   2.521  1.1178  0.2020  1.5920
  223SOL     MW  892   0.028   2.045   2.569  0.1421 -0.3734  0.1027
  224SOL     OW  893   1.541   0.809   2.601 -0.3394 -0.2033  0.4386
  224SOL    HW1  894   1.522   0.865   2.679 -0.7945  2.1142  0.4250
  224SOL    HW2  895   1.513   0.866   2.535  1.4061 -0.9398 -0.0407
  224SOL     MW  896   1.535   0.824   2.602 -0.1692  0.0053  0.3736
  225SOL     OW  897   2.958   1.472   2.313 -0.3291 -0.8001  0.4388
  225SOL    HW1  898   3.004   1.540   2.253  1.4455 -1.7008 -3.2713
  225SOL    HW2  899   2.912   1.522   2.379  0.9791 -0.6852  0.5577
  225SOL     MW  900   2.958   1.487   2.314  0.0776 -0.9038 -0.0350
  226SOL     OW  901   0.467   1.452   2.690  0.2365  0.1673 -0.1032
  226SOL    HW1  902   0.566   1.460   2.670  0.8653  0.2900  2.8466
  226SOL    HW2  903   0.433   1.542   2.691  0.0928 -0.1078 -2.7707
  226SOL     MW  904   0.476   1.465   2.688  0.3005  0.1472 -0.0659
  227SOL     OW  905   0.459   1.100   2.891  0.3071  0.0478 -0.3136
  227SOL    HW1  906   0.548   1.120   2.871  0.1340 -0.8012 -1.0205
  227SOL    HW2  907   0.437   1.046   2.816  1.4458  1.9879 -3.0802
  227SOL     MW  908   0.468   1.095   2.879  0.4345  0.1917 -0.7719
  228SOL     OW  909   0.709   0.960   2.064  0.0447 -0.1563 -0.0797
  228SOL    HW1  910   0.798   0.977   2.026 -2.3339 -0.6018  0.1481
  228SOL    HW2  911   0.712   0.904   2.148 -0.1743 -0.7579  1.7388
  228SOL     MW  912   0.721   0.955   2.070 -0.2980 -0.2944  0.1902
  229SOL     OW  913   0.176   0.576   0.024  0.1672  0.1404  0.3074
  229SOL    HW1  914   0.106   0.525  -0.026  1.4565 -2.4463  0.5344
  229SOL    HW2  915   0.180   0.533   0.110 -2.3951 -1.4771 -0.4004
  229SOL     MW  916   0.167   0.564   0.028 -0.0008 -0.4143  0.2440
  230SOL     OW  917   1.742   1.364   2.041  0.2741  0.2651 -0.1186
  230SOL    HW1  918   1.675   1.327   2.101 -0.5656  0.6347 -2.5881
  230SOL    HW2  919   1.807   1.292   2.024  1.8338  0.3827 -0.6034
  230SOL     MW  920   1.742   1.350   2.046  0.3691  0.3294 -0.5084
  231SOL     OW  921   2.750   1.311   2.183 -0.0775 -0.6504  0.3203
  231SOL    HW1  922   2.829   1.357   2.181 -0.5444 -3.3442 -0.5129
  231SOL    HW2  923   2.700   1.345   2.104 -0.4449  1.0460  4.0011
  231SOL     MW  924   2.754   1.322   2.172 -0.1875 -0.7820  0.6960
  232SOL     OW  925   2.268   0.835   2.063  0.8962 -0.0025 -0.6478
  232SOL    HW1  926   2.211   0.896   2.005  0.0513 -2.2282 -0.2278
  232SOL    HW2  927   2.225   0.853   2.150  1.8179  0.5996  0.7352
  232SOL     MW  928   2.255   0.846   2.067  0.9063 -0.2167 -0.4099
  233SOL     OW  929   2.064   0.451   1.948  0.3819  0.6647  0.1951
  233SOL    HW1  930   2.127   0.378   1.937 -0.6912 -2.3620 -1.2817
  233SOL    HW2  931   2.076   0.493   2.037  0.0348  0.2993  2.8757
  233SOL     MW  932   2.074   0.447   1.959  0.1945  0.2171  0.3539
  234SOL     OW  933   0.283   1.036   2.442 -0.1321  0.8585 -0.0326
  234SOL    HW1  934   0.186   1.050   2.438 -1.6609  2.1398  0.2068
  234SOL    HW2  935   0.330   1.120   2.428 -0.7758 -0.7223 -0.0154
  234SOL     MW  936   0.276   1.049   2.440 -0.4187  0.8190  0.0012
  235SOL     OW  937   1.143   3.028   2.712 -0.2265  0.8620  0.2597
  235SOL    HW1  938   1.140   3.009   2.806  0.4484 -0.4487 -1.6768
  235SOL    HW2  939   1.103   3.114   2.712 -0.6792 -0.5540 -0.6332
  235SOL     MW  940   1.137   3.037   2.725 -0.1972  0.5023 -0.1136
  236SOL     OW  941   2.921   0.549   0.007 -0.1763  0.3955 -0.0188
  236SOL    HW1  942   2.832   0.534   0.027 -0.7401 -0.2766  2.9043
  236SOL    HW2  943   2.935   0.641  -0.009  0.4012 -1.3358 -0.2161
  236SOL     MW  944   2.911   0.559   0.007 -0.1745  0.0784  0.3409
  237SOL     OW  945   1.994   1.116   2.206  0.5809 -0.1128 -0.4410
  237SOL    HW1  946   1.935   1.083   2.131 -1.0754 -1.3960 -1.5177
  237SOL    HW2  947   2.052   1.044   2.235  1.3211 -1.5021 -4.2857
  237SOL     MW  948   1.994   1.103   2.200  0.4600 -0.4654 -1.0903
  238SOL     OW  949   1.063   1.802   3.011 -0.1235  0.2862  0.2178
  238SOL    HW1  950   1.054   1.712   2.989  1.4866  0.6819  0.5012
  238SOL    HW2  951   1.155   1.823   3.030 -0.6979 -0.8903 -1.2843
  238SOL     MW  952   1.074   1.793   3.011  0.0132  0.1832  0.0570
  239SOL     OW  953   1.240   1.350   2.353 -0.2629  0.1807 -0.2230
  239SOL    HW1  954   1.217   1.418   2.416 -0.5638 -1.3615 -0.0540
  239SOL    HW2  955   1.262   1.272   2.408  3.3901 -2.7978  1.0798
  239SOL     MW  956   1.239   1.349   2.369  0.1794 -0.4157 -0.0288
  240SOL     OW  957   0.721   0.799   2.295 -0.3674 -0.6292  0.0673
  240SOL    HW1  958   0.708   0.872   2.356  1.4913 -0.8575 -3.1732
  240SOL    HW2  959   0.813   0.774   2.294 -1.0735  1.4345 -0.6122
  240SOL     MW  960   0.732   0.805   2.303 -0.2154 -0.3871 -0.4499
  241SOL     OW  961   0.638   0.373   3.093  0.0781  0.0787 -0.1907
  241SOL    HW1  962   0.650   0.435   3.166  0.4150 -3.0398  2.0635
  241SOL    HW2  963   0.547   0.365   3.073  1.6920 -1.1959 -0.3878
  241SOL     MW  964   0.628   0.380   3.100  0.3355 -0.5009  0.0807
  242SOL     OW  965   1.495   1.683   2.349  0.2692 -0.3267 -0.3272
  242SOL    HW1  966   1.480   1.782   2.343 -1.9297  4.2905 -0.0343
  242SOL    HW2  967   1.429   1.642   2.294 -0.8931  0.5043  1.9252
  242SOL     MW  968   1.484   1.691   2.341 -0.1743  0.3921  0.0086
  243SOL     OW  969   1.041   0.246   2.487 -0.1882 -0.2068  0.0403
  243SOL    HW1  970   1.126   0.229   2.436  1.1484  0.0895 -1.2499
  243SOL    HW2  971   1.071   0.321   2.545 -0.0062  0.8737  0.7160
  243SOL     MW  972   1.056   0.254   2.488  0.0122 -0.0252 -0.0408
  244SOL     OW  973   0.252   0.766   2.372  0.3228 -0.2796  0.4918
  244SOL    HW1  974   0.249   0.860   2.387 -0.2217  1.8917  0.4325
  244SOL    HW2  975   0.341   0.754   2.345 -1.4106 -1.1099  0.9324
  244SOL     MW  976   0.264   0.777   2.371  0.0223 -0.1027  0.5421
  245SOL     OW  977   1.269   0.220   2.325  0.3508  0.1210 -0.0619
  245SOL    HW1  978   1.342   0.162   2.317 -1.4174  0.3435 -0.0137
  245SOL    HW2  979   1.295   0.316   2.344  1.8339 -0.8377 -0.8106
  245SOL     MW  980   1.282   0.225   2.327  0.3132  0.0239 -0.1543
  246SOL     OW  981   1.198   1.189   2.138  0.3173 -0.2402  0.2624
  246SOL    HW1  982   1.155   1.112   2.186 -1.5097  0.9591  0.6703
  246SOL    HW2  983   1.245   1.235   2.199  1.6933  2.6863  1.3207
  246SOL     MW  984   1.198   1.185   2.152  0.2578  0.3041  0.4558
  247SOL     OW  985   0.750   0.575   0.159 -0.3206 -0.3224  0.2011
  247SOL    HW1  986   0.714   0.652   0.114  1.2119  0.1912  5.3781
  247SOL    HW2  987   0.843   0.578   0.129  0.9009 -0.3649  0.0668
  247SOL     MW  988   0.758   0.586   0.149  0.0428 -0.2602  0.8664
  248SOL     OW  989   0.449   1.263   2.471 -0.7075  0.7754  0.1934
  248SOL    HW1  990   0.495   1.292   2.393 -0.8379  1.7774 -0.0565
  248SOL    HW2  991   0.457   1.328   2.539  2.5692  0.6394  0.0141
  248SOL     MW  992   0.456   1.275   2.470 -0.2924  0.8897  0.1368
  249SOL     OW  993   0.161   1.869   2.707 -0.3122  0.2121 -0.1601
  249SOL    HW1  994   0.085   1.807   2.698  0.4626  0.4789  0.3801
  249SOL    HW2  995   0.194   1.867   2.803  0.4857  2.8033  2.8620
  249SOL     MW  996   0.155   1.860   2.718 -0.1047  0.5892  0.3099
  250SOL     OW  997   2.191   0.890   2.335 -0.0514  0.8439 -0.4749
  250SOL    HW1  998   2.248   0.805   2.344  2.4228  0.6714 -0.0254
  250SOL    HW2  999   2.253   0.954   2.375 -0.7618  1.6058 -0.2001
  250SOL     MW 1000   2.207   0.887   2.341  0.1813  0.9217 -0.3793
  251SOL     OW 1001   0.142   0.867   2.009  0.2373 -0.5553 -0.7150
  251SOL    HW1 1002   0.064   0.821   1.992 -1.3608  2.6976 -0.4165
  251SOL    HW2 1003   0.177   0.863   1.919  1.4713 -0.1254 -1.8041
  251SOL     MW 1004   0.136   0.860   1.995  0.1893 -0.0693 -0.8193
  252SOL     OW 1005   1.712   0.977   2.852  0.2994 -0.4246  0.0166
  252SOL    HW1 1006   1.732   1.028   2.936  0.1328 -0.0479 -2.2690
  252SOL    HW2 1007   1.784   1.001   2.790 -1.2827  2.1218 -1.2816
  252SOL     MW 1008   1.724   0.987   2.855  0.0687 -0.0390 -0.4562
  253SOL     OW 1009   1.240   1.787   2.548  0.0767  0.0543 -0.3377
  253SOL    HW1 1010   1.252   1.759   2.456  3.1072  0.4191  1.6853
  253SOL    HW2 1011   1.160   1.839   2.564  0.3835 -2.3965  3.4827
  253SOL     MW 1012   1.231   1.790   2.538  0.5170 -0.2209  0.4333
  254SOL     OW 1013   1.058   0.989   2.276 -0.0512  0.2470  0.1015
  254SOL    HW1 1014   1.030   0.899   2.253 -0.5712  0.9703 -3.3418
  254SOL    HW2 1015   0.981   1.040   2.277  1.5817 -0.5329 -1.0174
  254SOL     MW 1016   1.044   0.984   2.273  0.0957  0.2395 -0.5005
  255SOL     OW 1017   0.768   2.576   2.166 -0.1892 -0.5546 -0.2729
  255SOL    HW1 1018   0.703   2.515   2.205 -3.6966  0.0575  0.9440
  255SOL    HW2 1019   0.843   2.572   2.225 -2.3977  2.0184 -1.1721
  255SOL     MW 1020   0.769   2.568   2.179 -0.9434 -0.1343 -0.2310
  256SOL     OW 1021   1.275   2.736   2.884  0.5200 -0.6048  0.5147
  256SOL    HW1 1022   1.281   2.645   2.867  1.3310  3.1699  0.5016
  256SOL    HW2 1023   1.329   2.793   2.827  1.0679  3.2789  2.5618
  256SOL     MW 1024   1.283   2.731   2.874  0.6993  0.4057  0.7831
  257SOL     OW 1025   0.110   1.922   0.081  0.7779  0.1342 -0.3254
  257SOL    HW1 1026   0.122   1.875   0.161 -2.3448  1.3364  0.7125
  257SOL    HW2 1027   0.143   1.867   0.006 -0.5386  1.1579 -1.5725
  257SOL     MW 1028   0.116   1.909   0.081  0.1922  0.4279 -0.3530
  258SOL     OW 1029   0.694   1.035   2.464  0.5721  0.5996  0.5955
  258SOL    HW1 1030   0.709   1.113   2.406  0.1794  2.4597 -3.0412
  258SOL    HW2 1031   0.675   1.058   2.555  2.1009 -1.3709 -1.3269
  258SOL     MW 1032   0.693   1.048   2.468  0.7220  0.5851 -0.1380
  259SOL     OW 1033   0.777   0.433   2.383  0.8519 -0.9646 -0.3463
  259SOL    HW1 1034   0.688   0.394   2.395 -1.3458  0.2091  1.0684
  259SOL    HW2 1035   0.843   0.365   2.404 -0.8603 -1.5068 -0.3875
  259SOL     MW 1036   0.774   0.419   2.388  0.3360 -0.8813 -0.1651
  260SOL     OW 1037   0.489   0.143   1.601 -0.4824 -0.2593 -0.1470
  260SOL    HW1 1038   0.454   0.105   1.522  0.1941  1.6155 -0.9834
  260SOL    HW2 1039   0.582   0.172   1.578  2.8821 -0.6390  1.8146
  260SOL     MW 1040   0.497   0.142   1.587  0.0507 -0.0620  0.0014
  261SOL     OW 1041   1.319   0.775   2.006  0.0768  0.0416  0.1204
  261SOL    HW1 1042   1.306   0.794   2.100 -0.0293 -0.8063 -1.2036
  261SOL    HW2 1043   1.285   0.683   1.991 -0.2698 -2.2456  1.3432
  261SOL     MW 1044   1.313   0.765   2.017  0.0171 -0.3720  0.1070
  262SOL     OW 1045   1.050   0.334   0.182 -0.4824  0.4755 -0.3809
  262SOL    HW1 1046   1.139   0.299   0.171 -1.6638  0.1633  1.5611
  262SOL    HW2 1047   0.991   0.284   0.121 -2.3828  0.2101 -0.0164
  262SOL     MW 1048   1.054   0.323   0.172 -0.8890  0.3993 -0.0766
  263SOL     OW 1049   0.430   0.005   2.530 -0.1342  0.0266  0.1360
  263SOL    HW1 1050   0.358   0.070   2.515  1.6847  2.3407 -0.7965
  263SOL    HW2 1051   0.487   0.024   2.452 -2.2360  2.1684 -0.9339
  263SOL     MW 1052   0.428   0.016   2.518 -0.1715  0.6145 -0.1282
  264SOL     OW 1053   1.497   1.315   1.908 -0.4943  0.5431 -0.4835
  264SOL    HW1 1054   1.458   1.269   1.983 -1.0413  0.0209 -2.6641
  264SOL    HW2 1055   1.579   1.342   1.943 -1.6230 -2.2319 -1.7499
  264SOL     MW 1056   1.502   1.313   1.922 -0.7154  0.1081 -0.9383
  265SOL     OW 1057   0.681   2.813   2.294  0.0323  0.3737  0.2235
  265SOL    HW1 1058   0.723   2.735   2.250 -0.8956 -1.0398 -0.3100
  265SOL    HW2 1059   0.698   2.796   2.388 -0.3701  1.3228 -1.7271
  265SOL     MW 1060   0.689   2.801   2.301 -0.1432  0.3124 -0.1043
  266SOL     OW 1061   0.986   0.728   2.218 -0.5058 -0.4780 -0.2223
  266SOL    HW1 1062   0.966   0.685   2.134 -0.9058  1.2305  0.8305
  266SOL    HW2 1063   1.034   0.670   2.270 -0.5992  1.4061 -0.4798
  266SOL     MW 1064   0.989   0.715   2.213 -0.5709 -0.0040 -0.1173
  267SOL     OW 1065   1.417   1.731   2.789  0.3874  0.7769  0.1480
  267SOL    HW1 1066   1.465   1.658   2.743 -0.2035 -0.9959 -0.3227
  267SOL    HW2 1067   1.380   1.782   2.722  1.7764 -1.7162 -1.1743
  267SOL     MW 1068   1.418   1.728   2.774  0.4927  0.2141 -0.0886
  268SOL     OW 1069   0.212   0.824   1.695 -0.8066  0.3523 -0.0226
  268SOL    HW1 1070   0.158   0.854   1.624 -0.8607  0.7564  2.1380
  268SOL    HW2 1071   0.211   0.727   1.683 -3.7840  2.4829 -0.6622
  268SOL     MW 1072   0.205   0.815   1.684 -1.2065  0.6867  0.1781
  269SOL     OW 1073   1.426   1.947   2.349  0.2645  0.0463 -0.1391
  269SOL    HW1 1074   1.480   2.022   2.325  3.7484  0.9562  0.7727
  269SOL    HW2 1075   1.365   1.971   2.426  0.3690 -1.3832 -0.0012
  269SOL     MW 1076   1.425   1.960   2.356  0.7380 -0.0222 -0.0006
  270SOL     OW 1077   1.131   0.372   1.623 -0.5388 -0.1077  0.2312
  270SOL    HW1 1078   1.100   0.288   1.658 -1.5879  1.8879  0.1158
  270SOL    HW2 1079   1.224   0.367   1.621 -0.1215  1.8346 -2.2969
  270SOL     MW 1080   1.139   0.360   1.627 -0.6222  0.4118 -0.1176
  271SOL     OW 1081   0.889   0.018   2.533 -0.1632 -0.5263  0.0905
  271SOL    HW1 1082   0.930  -0.055   2.573 -1.5360  1.8738  1.9549
  271SOL    HW2 1083   0.963   0.091   2.514  0.4083  0.4986  0.4380
  271SOL     MW 1084   0.904   0.018   2.536 -0.2689 -0.0744  0.3823
  272SOL     OW 1085   1.479   2.891   2.786 -0.3555 -0.4444  0.6941
  272SOL    HW1 1086   1.473   2.956   2.719  2.1506 -1.4545 -0.2352
  272SOL    HW2 1087   1.519   2.940   2.861 -2.5198  0.4937 -0.6826
  272SOL     MW 1088   1.483   2.906   2.787 -0.3104 -0.4539  0.3899
  273SOL     OW 1089   1.442   0.972   2.846 -0.1795  0.2993  0.0313
  273SOL    HW1 1090   1.534   0.982   2.861  0.0335  1.0980 -0.1135
  273SOL    HW2 1091   1.399   1.047   2.885  1.2751 -0.3742 -0.2569
  273SOL     MW 1092   1.448   0.983   2.853  0.0405  0.3158 -0.0258
  274SOL     OW 1093   1.484   0.726   0.140 -0.1707  0.0889 -0.3842
  274SOL    HW1 1094   1.517   0.642   0.170  0.9933 -0.3969 -0.2757
  274SOL    HW2 1095   1.396   0.713   0.160  2.9771  0.4448 -1.6099
  274SOL     MW 1096   1.476   0.713   0.147  0.3982  0.0718 -0.5316
  275SOL     OW 1097   1.727   0.577   1.804 -0.2859 -0.7288 -0.4538
  275SOL    HW1 1098   1.809   0.619   1.839  0.7269  1.0887 -1.9044
  275SOL    HW2 1099   1.737   0.483   1.821  0.9881  1.7327  0.7495
  275SOL     MW 1100   1.739   0.570   1.811  0.0159 -0.1643 -0.4864
  276SOL     OW 1101   0.267   1.197   1.834  0.6263  0.0375  0.5849
  276SOL    HW1 1102   0.316   1.133   1.884  1.6733  1.0027 -0.5253
  276SOL    HW2 1103   0.173   1.199   1.867 -0.2329  1.1765 -0.5295
  276SOL     MW 1104   0.261   1.189   1.845  0.6510  0.3151  0.2914
  277SOL     OW 1105   1.872   1.287   2.437  0.1311  0.4055  0.1246
  277SOL    HW1 1106   1.923   1.353   2.473 -2.8734  0.8796 -2.6640
  277SOL    HW2 1107   1.928   1.231   2.388  1.6817  0.0349  1.2697
  277SOL     MW 1108   1.886   1.288   2.436 -0.0607  0.4192 -0.0922
  278SOL     OW 1109   1.467   0.613   1.713 -0.1884  0.2605  0.2443
  278SOL    HW1 1110   1.417   0.574   1.784 -0.7232 -0.7413 -1.7584
  278SOL    HW2 1111   1.555   0.596   1.745  2.1323 -1.1212  0.3472
  278SOL     MW 1112   1.472   0.606   1.727  0.0472 -0.0540 -0.0064
  279SOL     OW 1113   0.561   3.095   2.260  0.6100 -0.2763  0.3215
  279SOL    HW1 1114   0.647   3.063   2.229 -0.5191  1.3462  0.0014
  279SOL    HW2 1115   0.577   3.186   2.266  2.1116 -0.5722 -0.1605
  279SOL     MW 1116   0.574   3.103   2.256  0.6591 -0.1013  0.2157
  280SOL     OW 1117   1.461   1.030   2.135 -0.5850 -0.6053  0.3357
  280SOL    HW1 1118   1.495   0.951   2.088  0.1098 -2.3453  0.2416
  280SOL    HW2 1119   1.463   1.014   2.231  1.7681 -1.1658 -1.6225
  280SOL     MW 1120   1.466   1.017   2.141 -0.1829 -0.9088  0.0649
  281SOL     OW 1121   1.288   1.310   2.766  0.0251 -0.0181  0.2735
  281SOL    HW1 1122   1.379   1.329   2.770  0.8214 -3.4827  0.3166
  281SOL    HW2 1123   1.265   1.278   2.851 -2.6600  1.3265 -1.4743
  281SOL     MW 1124   1.297   1.308   2.778 -0.2241 -0.2978  0.0486
  282SOL     OW 1125   1.143   1.276   1.634 -0.1217 -0.0998 -0.1257
  282SOL    HW1 1126   1.099   1.365   1.606 -2.5026  2.5889  0.6317
  282SOL    HW2 1127   1.113   1.259   1.725 -1.3567 -0.3893  1.6556
  282SOL     MW 1128   1.133   1.285   1.642 -0.5988  0.2167  0.2092
  283SOL     OW 1129   0.752   1.242   2.985  0.3792 -0.6043 -0.2080
  283SOL    HW1 1130   0.830   1.217   3.035  1.7360 -0.5367  0.6246
  283SOL    HW2 1131   0.732   1.336   3.016  2.0718  0.3857  1.5449
  283SOL     MW 1132   0.760   1.251   2.996  0.7815 -0.4648  0.1332
  284SOL     OW 1133   0.535   0.639   2.379  0.0800  0.1577 -0.3295
  284SOL    HW1 1134   0.617   0.683   2.349 -0.1748  2.1473  2.5461
  284SOL    HW2 1135   0.499   0.601   2.301  1.1077  1.2592  0.6378
  284SOL     MW 1136   0.541   0.639   2.365  0.1820  0.5655  0.1776
  285SOL     OW 1137   0.867   0.921   2.802  0.4728 -0.2194 -0.0885
  285SOL    HW1 1138   0.927   0.949   2.729  1.4101 -1.1089 -2.0199
  285SOL    HW2 1139   0.834   0.835   2.773 -1.1736 -2.9915 -0.7656
  285SOL     MW 1140   0.871   0.913   2.789  0.3792 -0.7025 -0.4327
  286SOL     OW 1141   1.169   1.509   2.593  0.4339  0.2764  0.4886
  286SOL    HW1 1142   1.225   1.469   2.655  0.8898  0.7588 -1.0328
  286SOL    HW2 1143   1.197   1.601   2.600 -0.4882  0.9573 -2.1839
  286SOL     MW 1144   1.180   1.516   2.602  0.3724  0.4299 -0.0648
  287SOL     OW 1145   1.100   0.966   0.294  0.1358 -0.7126 -0.0364
  287SOL    HW1 1146   1.142   0.985   0.376  2.2359 -0.0593 -0.3633
  287SOL    HW2 1147   1.007   0.979   0.304  0.0999 -1.1680 -2.4459
  287SOL     MW 1148   1.093   0.970   0.306  0.4081 -0.6865 -0.3975
  288SOL     OW 1149   1.539   0.608   2.108 -0.4037  0.4868 -0.2761
  288SOL    HW1 1150   1.542   0.639   2.197  1.1524  0.4465 -0.9774
  288SOL    HW2 1151   1.576   0.685   2.057  0.9454 -3.0623 -2.3931
  288SOL     MW 1152   1.544   0.622   2.113 -0.0203  0.0132 -0.6479
  289SOL     OW 1153   0.985   1.032   2.569  0.2857 -0.2543  0.0311
  289SOL    HW1 1154   1.053   0.968   2.550 -0.1568 -0.0785 -0.6597
  289SOL    HW2 1155   0.928   1.020   2.492  1.2138 -0.8040 -0.5732
  289SOL     MW 1156   0.986   1.022   2.556  0.3498 -0.3036 -0.1398
  290SOL     OW 1157   0.874   0.654   1.557  0.0995  0.2176  0.2489
  290SOL    HW1 1158   0.907   0.617   1.471 -0.1287 -2.5062 -0.0885
  290SOL    HW2 1159   0.953   0.657   1.614  0.2436  0.6320 -1.3979
  290SOL     MW 1160   0.888   0.650   1.553  0.0884 -0.0871 -0.0129
  291SOL     OW 1161   0.201   0.336   0.148  0.4066  0.4493 -0.0504
  291SOL    HW1 1162   0.287   0.299   0.171  0.0559 -3.1512  2.3645
  291SOL    HW2 1163   0.162   0.267   0.082 -0.4528 -1.4762 -0.7095
  291SOL     MW 1164   0.207   0.322   0.142  0.2469 -0.2798  0.1812
  292SOL     OW 1165   1.010   0.586   0.091 -0.1357 -0.0517  0.4208
  292SOL    HW1 1166   1.072   0.658   0.113 -0.6006 -0.9854 -0.7298
  292SOL    HW2 1167   1.039   0.495   0.119  0.3559  1.2804  0.7087
  292SOL     MW 1168   1.022   0.584   0.098 -0.1322  0.0009  0.3070
  293SOL     OW 1169   0.173   0.136   2.458 -0.3718 -0.0932 -0.6229
  293SOL    HW1 1170   0.098   0.087   2.425  0.2996 -2.0733 -0.7327
  293SOL    HW2 1171   0.130   0.195   2.520  1.2810 -2.0329  0.2655
  293SOL     MW 1172   0.157   0.137   2.462 -0.0652 -0.6104 -0.5202
  294SOL     OW 1173   1.533   0.644   2.388  0.2804 -0.0219  0.0980
  294SOL    HW1 1174   1.565   0.697   2.465 -1.0271  1.2054 -2.1783
  294SOL    HW2 1175   1.519   0.558   2.417 -2.7833  1.4488 -3.2710
  294SOL     MW 1176   1.535   0.640   2.402 -0.2963  0.3341 -0.6469
  295SOL     OW 1177   0.894   0.625   2.524  0.5760 -0.5850 -0.4621
  295SOL    HW1 1178   0.826   0.574   2.469  1.5352  0.4892  2.9511
  295SOL    HW2 1179   0.861   0.634   2.620 -1.1794 -2.2128  1.3368
  295SOL     MW 1180   0.881   0.619   2.529  0.4710 -0.6580  0.2256
  296SOL     OW 1181   1.295   0.226   2.038  0.0514  0.1364  0.2444
  296SOL    HW1 1182   1.382   0.194   2.033 -0.6556 -2.0214  1.2591
  296SOL    HW2 1183   1.284   0.211   2.131  2.0472 -1.9757 -0.2309
  296SOL     MW 1184   1.305   0.220   2.049  0.2215 -0.4270  0.3155
  297SOL     OW 1185   1.418   0.365   1.599  0.2357  0.0994  0.6967
  297SOL    HW1 1186   1.483   0.423   1.630 -0.8982  0.2087  0.4077
  297SOL    HW2 1187   1.436   0.279   1.637 -1.5359  0.9611  0.5652
  297SOL     MW 1188   1.429   0.361   1.608 -0.1477  0.2275  0.6412
  298SOL     OW 1189   1.617   0.847   1.993 -0.2426 -0.4584 -0.1244
  298SOL    HW1 1190   1.594   0.884   1.903  1.8565  0.5259 -0.1043
  298SOL    HW2 1191   1.693   0.898   2.021 -0.0574 -1.3435  0.6806
  298SOL     MW 1192   1.624   0.859   1.985  0.0588 -0.4453 -0.0155
  299SOL     OW 1193   0.547   1.050   0.041  0.5355  0.3902  0.3796
  299SOL    HW1 1194   0.591   1.134   0.008  0.6596 -0.2876 -2.0433
  299SOL    HW2 1195   0.497   1.033  -0.041  0.4122  0.9823  0.8904
  299SOL     MW 1196   0.546   1.059   0.026  0.5356  0.3789  0.1273
  300SOL     OW 1197   1.235   1.133   2.538  0.0789  0.0798  1.1963
  300SOL    HW1 1198   1.137   1.127   2.529 -2.9908  3.3185 -2.4850
  300SOL    HW2 1199   1.256   1.169   2.622  3.6245  0.6234 -1.4599
  300SOL     MW 1200   1.225   1.137   2.548  0.1417  0.5788  0.3602
  301SOL     OW 1201   1.437   0.957   0.661  0.1688 -0.4286  0.0147
  301SOL    HW1 1202   1.464   0.974   0.747  1.0423 -0.2850 -0.3398
  301SOL    HW2 1203   1.370   0.889   0.678  1.9822  0.6575 -0.2573
  301SOL     MW 1204   1.432   0.950   0.675  0.5233 -0.2664 -0.0680
  302SOL     OW 1205   0.140   1.490   2.007  0.3589 -0.0952  0.2775
  302SOL    HW1 1206   0.168   1.418   2.065  3.4282  0.8856 -2.1680
  302SOL    HW2 1207   0.094   1.555   2.071 -3.1925  2.0537  0.9769
  302SOL     MW 1208   0.138   1.489   2.023  0.2953  0.3177  0.0471
  303SOL     OW 1209   0.365   1.691   2.631 -0.2798  0.0596  0.3817
  303SOL    HW1 1210   0.374   1.678   2.536  3.1242  1.0363  3.0439
  303SOL    HW2 1211   0.277   1.716   2.650  1.8285 -1.5357 -2.6867
  303SOL     MW 1212   0.354   1.693   2.621  0.4475 -0.0220  0.3281
  304SOL     OW 1213   0.585   2.080   2.361 -0.1762  0.6456  0.0625
  304SOL    HW1 1214   0.646   2.129   2.298  2.4799 -1.3413  0.2642
  304SOL    HW2 1215   0.639   2.007   2.395 -1.5975 -0.5165  1.3525
  304SOL     MW 1216   0.600   2.077   2.357 -0.0133  0.2301  0.2593
  305SOL     OW 1217   1.087   0.589   0.506 -0.3133  0.4207 -0.2268
  305SOL    HW1 1218   0.995   0.567   0.482  0.3933 -1.5544 -0.4326
  305SOL    HW2 1219   1.127   0.504   0.517  0.6170 -1.7131  2.2246
  305SOL     MW 1220   1.080   0.575   0.504 -0.0973 -0.1214  0.0695
  306SOL     OW 1221   1.204   1.473   0.262 -0.4612 -0.0082 -0.1170
  306SOL    HW1 1222   1.240   1.392   0.301 -0.5085 -1.7103  1.7421
  306SOL    HW2 1223   1.246   1.467   0.182 -2.6818 -0.9297  3.8158
  306SOL     MW 1224   1.214   1.461   0.257 -0.7604 -0.3543  0.6472
  307SOL     OW 1225   1.350   0.485   1.930 -0.6523 -0.1674  0.1492
  307SOL    HW1 1226   1.350   0.394   1.957 -0.6500  2.2723 -2.4750
  307SOL    HW2 1227   1.403   0.543   1.982 -1.4768 -0.4131  0.1906
  307SOL     MW 1228   1.357   0.481   1.940 -0.7608  0.1221 -0.1916
  308SOL     OW 1229   2.142   0.583   2.698  0.3278 -0.0028  0.5412
  308SOL    HW1 1230   2.218   0.537   2.737 -1.1550 -0.0356 -0.9099
  308SOL    HW2 1231   2.144   0.671   2.726  0.1551  0.1684  0.2492
  308SOL     MW 1232   2.152   0.588   2.706  0.1093  0.0154  0.3112
  309SOL     OW 1233   0.429   0.369   0.383  0.6037 -0.3842 -0.4973
  309SOL    HW1 1234   0.519   0.346   0.408  0.3097 -1.5556 -1.8252
  309SOL    HW2 1235   0.400   0.282   0.358  0.5795  0.9120 -2.1815
  309SOL     MW 1236   0.437   0.354   0.383  0.5617 -0.3678 -0.8947
  310SOL     OW 1237   0.507   0.615   1.941 -0.1531  0.3130 -0.3068
  310SOL    HW1 1238   0.566   0.543   1.901  1.4237  2.4360 -0.9587
  310SOL    HW2 1239   0.558   0.695   1.914 -2.6495 -0.3448  3.0772
  310SOL     MW 1240   0.522   0.616   1.932 -0.2744  0.5063  0.0537
  311SOL     OW 1241   1.943   0.699   1.913  0.1361 -0.3157 -0.4381
  311SOL    HW1 1242   1.922   0.696   2.007 -2.0056  0.4195 -1.3932
  311SOL    HW2 1243   2.002   0.617   1.905  0.4368 -3.0898  0.5768
  311SOL     MW 1244   1.948   0.688   1.924 -0.1068 -0.5847 -0.4302
  312SOL     OW 1245   1.683   2.522   0.111  0.5137  0.7721  0.0926
  312SOL    HW1 1246   1.732   2.550   0.187 -0.0311  1.7398  3.1208
  312SOL    HW2 1247   1.598   2.556   0.136 -1.2810 -0.6984  2.6994
  312SOL     MW 1248   1.679   2.530   0.124  0.2050  0.7058  0.8361
  313SOL     OW 1249   0.092   1.207   2.960 -0.2634 -0.3193  0.2714
  313SOL    HW1 1250   0.082   1.198   3.054 -0.1309 -1.8755  0.2605
  313SOL    HW2 1251   0.181   1.246   2.961  1.6463 -1.6045  2.1931
  313SOL     MW 1252   0.102   1.211   2.973  0.0060 -0.6942  0.5235
  314SOL     OW 1253   2.111   2.958   3.017 -0.1029 -0.4801 -0.2108
  314SOL    HW1 1254   2.070   3.007   2.944 -0.5859 -0.9436 -1.8949
  314SOL    HW2 1255   2.188   3.001   3.056  0.8639  1.0533  1.9208
  314SOL     MW 1256   2.116   2.970   3.013 -0.0391 -0.3389 -0.1517
  315SOL     OW 1257   1.519   1.961   3.101 -0.5498  0.8269 -0.2091
  315SOL    HW1 1258   1.429   1.984   3.130 -0.7422  1.6386 -1.7103
  315SOL    HW2 1259   1.543   2.012   3.026  0.1356 -1.4582  1.4658
  315SOL     MW 1260   1.510   1.971   3.095 -0.4848  0.6325 -0.1862
  316SOL     OW 1261   1.270   0.675   2.719  0.1478  0.2424 -0.2238
  316SOL    HW1 1262   1.361   0.686   2.688  0.2130 -4.9084 -2.7423
  316SOL    HW2 1263   1.275   0.710   2.809 -1.0960  1.4603 -1.3264
  316SOL     MW 1264   1.282   0.681   2.727 -0.0077 -0.2765 -0.7016
  317SOL     OW 1265   0.726   1.496   2.590  0.2540 -0.2542  0.7360
  317SOL    HW1 1266   0.803   1.443   2.573 -0.4457 -0.7534 -0.8081
  317SOL    HW2 1267   0.726   1.535   2.504 -0.0537 -2.5310 -0.2592
  317SOL     MW 1268   0.736   1.494   2.576  0.1211 -0.6204  0.4010
  318SOL     OW 1269   1.360   0.373   2.907  0.4667 -0.3497 -0.2925
  318SOL    HW1 1270   1.273   0.417   2.886 -1.6608  1.4586 -0.8715
  318SOL    HW2 1271   1.411   0.450   2.926 -1.5287 -0.3364 -0.4450
  318SOL     MW 1272   1.355   0.389   2.907 -0.0773 -0.1094 -0.3890
  319SOL     OW 1273   0.788   0.408   2.851 -0.0771 -0.1469  0.4069
  319SOL    HW1 1274   0.723   0.380   2.783  1.1731  0.6281  1.3684
  319SOL    HW2 1275   0.740   0.398   2.938  0.6443 -2.2765 -0.4236
  319SOL     MW 1276   0.773   0.403   2.854  0.1830 -0.3256  0.4242
  320SOL     OW 1277   1.071   1.327   1.946  0.2134  0.4273 -0.0486
  320SOL    HW1 1278   1.110   1.286   2.022  0.6352  1.0900  0.7604
  320SOL    HW2 1279   1.121   1.407   1.933  0.4464 -0.6458  1.1157
  320SOL     MW 1280   1.083   1.332   1.954  0.2998  0.3732  0.2118
  321SOL     OW 1281   1.062   0.930   3.013  1.0454 -0.1144  0.2760
  321SOL    HW1 1282   0.990   0.920   2.948  3.3984  1.0416 -1.3573
  321SOL    HW2 1283   1.134   0.866   3.003  1.5104  0.2465  1.7552
  321SOL     MW 1284   1.062   0.920   3.003  1.4172  0.0858  0.2557
  322SOL     OW 1285   1.274   0.826   1.718  0.1212  0.0918  0.1824
  322SOL    HW1 1286   1.357   0.776   1.732 -0.2893  0.2860 -0.2958
  322SOL    HW2 1287   1.244   0.877   1.794 -0.2794 -1.1298  1.1685
  322SOL     MW 1288   1.281   0.826   1.730  0.0142 -0.0437  0.2494
  323SOL     OW 1289   1.241   1.596   1.869  0.2140 -0.0662  0.7038
  323SOL    HW1 1290   1.237   1.572   1.773  2.9059 -0.5080 -2.0898
  323SOL    HW2 1291   1.173   1.668   1.866  0.3327 -0.1928 -0.9283
  323SOL     MW 1292   1.232   1.602   1.856  0.5848 -0.1412  0.1199
  324SOL     OW 1293   1.490   0.995   2.402  0.6771 -0.1574 -0.6288
  324SOL    HW1 1294   1.387   1.014   2.405 -1.0171 -2.2036 -0.5076
  324SOL    HW2 1295   1.547   1.071   2.421 -1.3825  0.4891 -0.5998
  324SOL     MW 1296   1.484   1.008   2.405  0.1818 -0.3421 -0.6090
  325SOL     OW 1297   1.055   0.457   2.940 -0.2719 -0.6333 -0.3581
  325SOL    HW1 1298   1.028   0.502   3.020 -1.1141  1.5645  0.0729
  325SOL    HW2 1299   0.997   0.475   2.872  2.3812  1.8113  1.4738
  325SOL     MW 1300   1.044   0.466   2.941 -0.0329 -0.0208 -0.0596
  326SOL     OW 1301   0.441   1.362   2.184  0.0235  0.0072  0.4555
  326SOL    HW1 1302   0.508   1.305   2.144 -1.3018 -0.7067  1.3650
  326SOL    HW2 1303   0.477   1.446   2.189 -0.5650 -0.6513  0.5876
  326SOL     MW 1304   0.455   1.365   2.179 -0.2290 -0.1739  0.5929
  327SOL     OW 1305   1.925   0.808   2.437  0.0222 -0.2522 -0.1291
  327SOL    HW1 1306   1.915   0.754   2.519  1.3419 -1.2214  1.9724
  327SOL    HW2 1307   2.013   0.841   2.433 -1.6531  0.8970 -1.9707
  327SOL     MW 1308   1.935   0.805   2.447 -0.0247 -0.2285 -0.0948
  328SOL     OW 1309   0.174   1.259   2.215 -0.5255 -0.0742  0.2465
  328SOL    HW1 1310   0.154   1.196   2.142 -0.6459 -0.0753  0.3858
  328SOL    HW2 1311   0.271   1.275   2.210  1.9670 -0.5067 -0.5973
  328SOL     MW 1312   0.184   1.252   2.205 -0.2125 -0.1314  0.1536
  329SOL     OW 1313   0.112   0.110   1.354  0.2544  0.8995 -0.0643
  329SOL    HW1 1314   0.086   0.128   1.444  0.9681 -1.6786  3.1611
  329SOL    HW2 1315   0.205   0.140   1.361 -2.0964 -0.3552 -0.3682
  329SOL     MW 1316   0.121   0.117   1.367  0.0384  0.3938  0.3212
  330SOL     OW 1317   0.335   3.100   2.061  0.1925 -0.2509 -0.6100
  330SOL    HW1 1318   0.400   3.141   2.111  0.9375 -1.9191 -0.6049
  330SOL    HW2 1319   0.280   3.054   2.127 -4.0860 -3.1369  1.1044
  330SOL     MW 1320   0.336   3.099   2.076 -0.2737 -0.8518 -0.3832
  331SOL     OW 1321   0.847   1.181   2.299  0.1435 -0.6316  0.3321
  331SOL    HW1 1322   0.833   1.231   2.222  2.5673  0.6836  0.3751
  331SOL    HW2 1323   0.873   1.245   2.360  0.6991  0.3136 -1.3048
  331SOL     MW 1324   0.849   1.196   2.297  0.5366 -0.3333  0.1218
  332SOL     OW 1325   1.336   1.740   3.050 -0.6154  0.8455  0.1578
  332SOL    HW1 1326   1.362   1.747   2.958 -0.2596  1.0698 -1.3795
  332SOL    HW2 1327   1.400   1.782   3.098  0.9398 -0.5803  0.4400
  332SOL     MW 1328   1.348   1.746   3.044 -0.3632  0.6869 -0.0078
  333SOL     OW 1329   1.743   1.412   2.920 -0.3160 -0.4486 -0.1549
  333SOL    HW1 1330   1.810   1.394   2.864 -2.2348  1.9292 -2.1976
  333SOL    HW2 1331   1.764   1.370   3.008 -1.2812 -2.7830  0.3649
  333SOL     MW 1332   1.754   1.404   2.924 -0.6966 -0.4429 -0.3559
  334SOL     OW 1333   1.389  -0.003   2.628 -0.1806  0.1251  0.5283
  334SOL    HW1 1334   1.304  -0.018   2.675  1.5548 -1.6108 -0.0740
  334SOL    HW2 1335   1.420   0.083   2.660 -2.0410  1.1201  0.1753
  334SOL     MW 1336   1.382   0.006   2.638 -0.1971  0.0274  0.4022
  335SOL     OW 1337   1.305   0.782   2.971  0.5833  0.1368  0.2169
  335SOL    HW1 1338   1.361   0.730   3.028  1.2817  1.4444 -0.2283
  335SOL    HW2 1339   1.365   0.849   2.937 -1.1831  4.5620 -0.4627
  335SOL     MW 1340   1.321   0.784   2.974  0.4424  0.8931  0.0685
  336SOL     OW 1341   0.947   1.053   1.954  0.0955 -0.2335  0.3803
  336SOL    HW1 1342   0.966   1.149   1.973 -1.6177  0.7647  1.8600
  336SOL    HW2 1343   1.022   1.015   1.908 -1.2488  0.3629 -0.4615
  336SOL     MW 1344   0.959   1.061   1.951 -0.3079 -0.0231  0.4645
  337SOL     OW 1345   0.585   1.811   2.786  0.2677  0.3175 -0.1836
  337SOL    HW1 1346   0.512   1.776   2.727 -2.8201  3.3787 -1.7132
  337SOL    HW2 1347   0.667   1.784   2.752 -0.5570  2.5892  0.1939
  337SOL     MW 1348   0.586   1.803   2.774 -0.2485  1.0211 -0.3356
  338SOL     OW 1349   1.127   0.804   2.526 -0.3862  0.2959 -0.0792
  338SOL    HW1 1350   1.036   0.764   2.535 -1.5403  2.4227  0.0001
  338SOL    HW2 1351   1.183   0.769   2.602  0.9079 -0.1426  0.6299
  338SOL     MW 1352   1.122   0.794   2.537 -0.3677  0.5186  0.0249
  339SOL     OW 1353   1.535   1.023   1.789  0.4988 -0.4173  0.7668
  339SOL    HW1 1354   1.495   1.012   1.700  0.8036  0.6082 -0.9950
  339SOL    HW2 1355   1.464   1.064   1.838 -1.3480 -0.9167 -0.5196
  339SOL     MW 1356   1.520   1.027   1.784  0.2953 -0.3478  0.3646
  340SOL     OW 1357   1.380   1.471   0.037  0.1094  0.0080  0.0763
  340SOL    HW1 1358   1.377   1.566   0.016 -0.8251 -0.9817  3.3736
  340SOL    HW2 1359   1.474   1.456   0.036 -1.1416  3.1102 -0.1252
  340SOL     MW 1360   1.392   1.481   0.034 -0.1789  0.2867  0.4847
  341SOL     OW 1361   0.156   1.448   2.692 -0.2220  0.5492 -0.0010
  341SOL    HW1 1362   0.242   1.425   2.664 -2.4849  0.7092 -0.1601
  341SOL    HW2 1363   0.101   1.380   2.657  1.6429  0.3560 -0.6112
  341SOL     MW 1364   0.160   1.436   2.684 -0.2745  0.5448 -0.1025
  342SOL     OW 1365   1.317   0.308   0.080 -0.4011  0.5601 -0.1489
  342SOL    HW1 1366   1.378   0.365   0.128 -2.0730 -0.6020  0.1438
  342SOL    HW2 1367   1.326   0.341  -0.010 -2.5919  0.7899 -0.2042
  342SOL     MW 1368   1.326   0.320   0.074 -0.9107  0.4371 -0.1176
  343SOL     OW 1369   0.220   0.325   2.150 -0.0011  0.0717 -0.5883
  343SOL    HW1 1370   0.241   0.265   2.224  1.7700 -1.7542  0.4028
  343SOL    HW2 1371   0.143   0.286   2.102 -3.3737  1.0531  2.3974
  343SOL     MW 1372   0.212   0.312   2.153 -0.2124 -0.0397 -0.0636
  344SOL     OW 1373   1.695   2.066   0.180  0.1957  0.0341  0.4304
  344SOL    HW1 1374   1.706   2.150   0.138  0.7016 -0.3226  0.0552
  344SOL    HW2 1375   1.639   2.012   0.119  0.3610 -3.5739 -0.7993
  344SOL     MW 1376   1.689   2.070   0.166  0.2842 -0.4890  0.2186
  345SOL     OW 1377   0.760   1.595   2.323  0.2328 -0.4333  0.2102
  345SOL    HW1 1378   0.679   1.597   2.275 -1.5061 -0.9527 -1.6046
  345SOL    HW2 1379   0.811   1.556   2.248  0.9213  0.1582 -0.9846
  345SOL     MW 1380   0.756   1.590   2.307  0.0942 -0.4238 -0.1869
  346SOL     OW 1381   1.768   1.101   3.088  0.5528 -0.5060 -0.2566
  346SOL    HW1 1382   1.865   1.105   3.078  0.6362 -1.0180  2.7213
  346SOL    HW2 1383   1.756   1.075   3.181  1.0283 -1.1932 -1.2428
  346SOL     MW 1384   1.779   1.098   3.099  0.6266 -0.6642  0.0062
  347SOL     OW 1385   1.276   0.768   2.284  0.1691 -0.3898  0.0728
  347SOL    HW1 1386   1.348   0.735   2.331 -1.0769  1.5768 -0.8984
  347SOL    HW2 1387   1.217   0.797   2.357 -2.5018 -0.2643  1.3442
  347SOL     MW 1388   1.278   0.768   2.300 -0.3477 -0.1138  0.1124
  348SOL     OW 1389   1.426   2.642   1.866  0.3076  0.6170  0.2693
  348SOL    HW1 1390   1.445   2.563   1.915  0.1127 -0.3899  3.1787
  348SOL    HW2 1391   1.428   2.717   1.924 -1.1131 -1.3676 -0.8313
  348SOL     MW 1392   1.429   2.642   1.880  0.0944  0.2223  0.5079
  349SOL     OW 1393   1.513   0.261   2.696  0.2803  0.3049  0.0569
  349SOL    HW1 1394   1.461   0.302   2.761  1.9810  0.1520 -0.8994
  349SOL    HW2 1395   1.599   0.261   2.739 -2.7390  1.9755  0.3341
  349SOL     MW 1396   1.518   0.266   2.710  0.1063  0.5051 -0.0327
  350SOL     OW 1397   1.864   0.616   2.664  0.2527 -0.4227 -0.0181
  350SOL    HW1 1398   1.822   0.560   2.603 -0.2794 -1.8088  1.2536
  350SOL    HW2 1399   1.961   0.599   2.666  1.1400  0.3865 -2.7138
  350SOL     MW 1400   1.872   0.606   2.656  0.2995 -0.4988 -0.2060
  351SOL     OW 1401   0.073   0.950   1.513 -0.2040 -0.8324 -0.4728
  351SOL    HW1 1402  -0.003   0.959   1.573 -0.1867  0.6112 -0.5334
  351SOL    HW2 1403   0.128   1.025   1.538 -1.0100 -4.2423 -0.0926
  351SOL     MW 1404   0.070   0.961   1.525 -0.3081 -1.0918 -0.4306
  352SOL     OW 1405   0.869   1.692   2.726 -0.8022 -0.0126 -0.3018
  352SOL    HW1 1406   0.895   1.642   2.800 -0.7491 -2.1107  0.2974
  352SOL    HW2 1407   0.808   1.627   2.692  0.8147  0.0514 -0.4000
  352SOL     MW 1408   0.864   1.677   2.731 -0.5818 -0.2810 -0.2357
  353SOL     OW 1409   3.082   2.468   2.686 -0.1828  0.3653 -1.0541
  353SOL    HW1 1410   3.178   2.462   2.683 -0.2400  0.1665  2.1850
  353SOL    HW2 1411   3.052   2.538   2.636  0.2364  1.9449  0.8103
  353SOL     MW 1412   3.091   2.476   2.679 -0.1350  0.5475 -0.3807
  354SOL     OW 1413   0.342   2.516   0.848 -0.0374  0.4247  0.1518
  354SOL    HW1 1414   0.375   2.479   0.930 -0.4684  1.0428 -1.2871
  354SOL    HW2 1415   0.269   2.457   0.828  0.6628  1.1519 -1.3644
  354SOL     MW 1416   0.337   2.504   0.856 -0.0019  0.6022 -0.2381
  355SOL     OW 1417   0.025   2.269   0.357  0.3054  0.5523 -0.4768
  355SOL    HW1 1418  -0.049   2.205   0.360  1.9230  0.1375 -0.4085
  355SOL    HW2 1419   0.017   2.313   0.440  0.1828  0.5559 -0.6881
  355SOL     MW 1420   0.015   2.266   0.368  0.5027  0.4980 -0.4956
  356SOL     OW 1421   0.797   2.877   0.996  0.1093  0.0946 -0.7774
  356SOL    HW1 1422   0.832   2.825   0.924  1.3901 -1.1681  0.3538
  356SOL    HW2 1423   0.704   2.838   1.011  2.6573  0.0654  0.6265
  356SOL     MW 1424   0.789   2.865   0.989  0.6145 -0.0758 -0.4429
  357SOL     OW 1425   1.800   2.945   0.424 -0.0469 -0.2655  0.1786
  357SOL    HW1 1426   1.747   2.875   0.466 -2.0760  2.9618 -0.9810
  357SOL    HW2 1427   1.878   2.911   0.391 -0.2109  2.7392  0.4120
  357SOL     MW 1428   1.803   2.931   0.425 -0.3362  0.5568  0.0564
  358SOL     OW 1429   0.519   0.090   1.085  0.0482  0.6368  0.0792
  358SOL    HW1 1430   0.596   0.044   1.051 -0.8924 -0.2241  1.7179
  358SOL    HW2 1431   0.485   0.123   1.000  0.5228 -0.6095  0.8156
  358SOL     MW 1432   0.525   0.089   1.069 -0.0133  0.3587  0.3925
  359SOL     OW 1433   0.888   2.898   1.848  0.1314  0.4107  0.2216
  359SOL    HW1 1434   0.869   2.807   1.886  0.8547  0.2396  0.0056
  359SOL    HW2 1435   0.972   2.894   1.792  0.4229  0.9383  0.8367
  359SOL     MW 1436   0.896   2.885   1.846  0.2653  0.4578  0.2742
  360SOL     OW 1437   0.559   2.759   1.011 -0.3468 -0.5956  0.0040
  360SOL    HW1 1438   0.564   2.736   0.917 -1.0351  0.3292 -1.6570
  360SOL    HW2 1439   0.572   2.678   1.064 -1.9514  0.1978  2.1155
  360SOL     MW 1440   0.561   2.745   1.006 -0.6493 -0.3689  0.0634
  361SOL     OW 1441   0.194   2.688   1.327 -0.1574 -0.0678  0.1353
  361SOL    HW1 1442   0.188   2.760   1.392  0.0277 -1.1231  0.1207
  361SOL    HW2 1443   0.284   2.654   1.350  0.4240  0.0208 -0.2224
  361SOL     MW 1444   0.205   2.693   1.339 -0.0563 -0.1954  0.0862
  362SOL     OW 1445   1.473   2.421   0.636  0.1025  0.6529 -0.5312
  362SOL    HW1 1446   1.488   2.331   0.672  0.5867 -2.4334 -1.9761
  362SOL    HW2 1447   1.488   2.486   0.702 -1.7582  0.9522 -2.0206
  362SOL     MW 1448   1.477   2.418   0.650 -0.0791  0.2852 -0.9183
  363SOL     OW 1449   0.297   3.086   0.722  0.1456 -0.4189 -0.2455
  363SOL    HW1 1450   0.302   3.015   0.790  1.8407  0.5738  0.2064
  363SOL    HW2 1451   0.212   3.077   0.685  0.3189  0.4742  0.3296
  363SOL     MW 1452   0.286   3.075   0.726  0.3921 -0.1701 -0.1100
  364SOL     OW 1453   0.724   0.181   0.231 -0.0676  0.0853 -0.2186
  364SOL    HW1 1454   0.663   0.114   0.264 -1.9935 -1.2348  2.4161
  364SOL    HW2 1455   0.666   0.247   0.190 -1.5676  1.3744 -1.3012
  364SOL     MW 1456   0.708   0.181   0.230 -0.5196  0.0812 -0.0138
  365SOL     OW 1457   0.979   1.954   1.069  0.2143  0.5745 -0.3065
  365SOL    HW1 1458   0.940   2.041   1.055  1.2088 -2.5775 -0.5209
  365SOL    HW2 1459   0.906   1.897   1.045  0.4852 -1.4824 -1.4368
  365SOL     MW 1460   0.964   1.958   1.064  0.3813 -0.1128 -0.4839
  366SOL     OW 1461   2.819   2.630   1.012 -0.6982 -0.0418  0.0009
  366SOL    HW1 1462   2.886   2.628   1.084  0.3675 -2.1851  3.3301
  366SOL    HW2 1463   2.855   2.662   0.928  1.8479  0.5148  1.4186
  366SOL     MW 1464   2.833   2.634   1.010 -0.2216 -0.2511  0.6272
  367SOL     OW 1465   1.254   2.914   0.929  0.0311  0.7233  0.1559
  367SOL    HW1 1466   1.205   2.992   0.923  2.2185 -0.3434 -2.4188
  367SOL    HW2 1467   1.245   2.869   0.842 -2.4366 -1.4469 -0.5407
  367SOL     MW 1468   1.246   2.918   0.917 -0.0058  0.2962 -0.2757
  368SOL     OW 1469   1.637   0.402   0.692 -0.3974  0.1300 -0.4996
  368SOL    HW1 1470   1.722   0.358   0.686  0.8379  2.1218  0.8727
  368SOL    HW2 1471   1.652   0.503   0.704 -3.1001 -1.2811 -0.2597
  368SOL     MW 1472   1.650   0.410   0.693 -0.5910  0.2066 -0.2868
  369SOL     OW 1473   0.155   2.503   1.654 -0.3553  0.8817  0.1728
  369SOL    HW1 1474   0.240   2.483   1.691  2.8972  0.6314 -1.3015
  369SOL    HW2 1475   0.137   2.587   1.684 -1.8970 -0.9544  0.5499
  369SOL     MW 1476   0.164   2.511   1.663 -0.1296  0.6064  0.0280
  370SOL     OW 1477   0.742   0.018   0.930  0.3772  0.2029 -0.8043
  370SOL    HW1 1478   0.821   0.069   0.945  3.1888 -0.5445 -0.4864
  370SOL    HW2 1479   0.776  -0.072   0.946 -1.5345 -2.1017 -1.2220
  370SOL     MW 1480   0.757   0.013   0.934  0.4959 -0.1998 -0.8174
  371SOL     OW 1481   1.358   2.950   1.529 -0.0418 -0.8167 -0.3320
  371SOL    HW1 1482   1.304   2.875   1.499 -1.0468  0.4527 -0.4482
  371SOL    HW2 1483   1.374   3.004   1.449 -0.0746  1.2069 -2.5901
  371SOL     MW 1484   1.353   2.947   1.514 -0.1787 -0.3822 -0.6453
  372SOL     OW 1485   0.756   2.336   0.475  0.7391 -0.0432 -0.3501
  372SOL    HW1 1486   0.750   2.239   0.488 -3.7027  0.9282 -1.6320
  372SOL    HW2 1487   0.819   2.340   0.398  2.3843  1.1402 -0.4582
  372SOL     MW 1488   0.763   2.324   0.466  0.3701  0.2411 -0.5335
  373SOL     OW 1489   2.766   3.053   1.419 -0.2246  0.1347  0.0484
  373SOL    HW1 1490   2.827   3.023   1.353 -0.8502  0.0557  1.3468
  373SOL    HW2 1491   2.753   3.143   1.385 -1.0926 -0.2335 -1.4049
  373SOL     MW 1492   2.772   3.061   1.406 -0.4216  0.0757  0.0280
  374SOL     OW 1493   1.547   0.442   0.204 -0.0560 -0.1133  0.5842
  374SOL    HW1 1494   1.613   0.376   0.174 -0.5879 -3.5622 -2.7346
  374SOL    HW2 1495   1.537   0.414   0.296 -2.9502  1.5492  1.8213
  374SOL     MW 1496   1.555   0.429   0.212 -0.5080 -0.3490  0.3096
  375SOL     OW 1497   1.076   2.068   2.257 -0.6740  0.2163 -0.0396
  375SOL    HW1 1498   1.127   2.086   2.342 -0.1860  1.1295 -0.9247
  375SOL    HW2 1499   1.093   1.974   2.242 -1.9296  0.4567  0.5689
  375SOL     MW 1500   1.085   2.058   2.266 -0.7753  0.3685 -0.0761
  376SOL     OW 1501   0.621   2.558   0.087 -0.2649  0.3973  0.0096
  376SOL    HW1 1502   0.578   2.496   0.163 -3.0828 -1.3677  0.1593
  376SOL    HW2 1503   0.613   2.497   0.018 -0.1883 -1.5813  1.0886
  376SOL     MW 1504   0.614   2.542   0.088 -0.6266 -0.0966  0.1717
  377SOL     OW 1505   1.325   2.006   0.826 -0.4283 -0.0816 -0.5096
  377SOL    HW1 1506   1.230   1.993   0.804 -1.1813  0.2612  0.8058
  377SOL    HW2 1507   1.337   1.953   0.904  2.7884  2.2643  1.2372
  377SOL     MW 1508   1.314   1.997   0.834 -0.1033  0.2731 -0.1056
  378SOL     OW 1509   1.044   2.811   1.640 -0.2517 -0.0476  0.3020
  378SOL    HW1 1510   1.016   2.718   1.640 -1.0603 -1.2714 -0.2757
  378SOL    HW2 1511   0.990   2.849   1.569  0.9927  2.0586  0.0573
  378SOL     MW 1512   1.033   2.804   1.631 -0.1942  0.0688  0.1935
  379SOL     OW 1513   1.138   1.781   2.271  0.0227  0.1005 -0.1239
  379SOL    HW1 1514   1.076   1.722   2.230  2.3053 -1.6920 -0.6723
  379SOL    HW2 1515   1.218   1.746   2.233  1.7501  0.0721  0.9732
  379SOL     MW 1516   1.140   1.769   2.261  0.5518 -0.1397 -0.0515
  380SOL     OW 1517   0.805   0.065   1.565 -0.0768 -0.0706  0.0161
  380SOL    HW1 1518   0.831   0.083   1.473 -1.8609  0.5094  1.4178
  380SOL    HW2 1519   0.879   0.081   1.623  2.1330 -1.0295 -1.1895
  380SOL     MW 1520   0.818   0.070   1.560 -0.0206 -0.1206  0.0420
  381SOL     OW 1521   0.820   2.001   0.789  0.4696  0.6086 -0.1407
  381SOL    HW1 1522   0.918   2.001   0.769  0.8075 -0.7909  2.3306
  381SOL    HW2 1523   0.815   2.061   0.863 -1.1165  1.8830 -1.3568
  381SOL     MW 1524   0.832   2.009   0.796  0.3049  0.5921  0.0249
  382SOL     OW 1525   0.619   0.120   0.692 -0.1816 -0.2002 -0.3188
  382SOL    HW1 1526   0.615   0.131   0.787 -1.0241  0.6908  3.0726
  382SOL    HW2 1527   0.578   0.032   0.678 -0.0559  1.6237  0.2867
  382SOL     MW 1528   0.613   0.110   0.703 -0.2762  0.1580  0.2086
  383SOL     OW 1529   0.569   3.071   0.339 -0.1990 -0.4303  0.1817
  383SOL    HW1 1530   0.595   3.010   0.270 -0.1270  0.7092  0.4428
  383SOL    HW2 1531   0.514   3.037   0.405  1.7589 -0.2085  0.3089
  383SOL     MW 1532   0.565   3.059   0.339  0.0688 -0.2507  0.2329
  384SOL     OW 1533   0.618   2.931   0.641 -0.6821 -0.0665  0.1077
  384SOL    HW1 1534   0.700   2.921   0.684 -3.7247  0.4220  0.5569
  384SOL    HW2 1535   0.575   2.857   0.678  0.6437  0.3785  0.9772
  384SOL     MW 1536   0.624   2.920   0.652 -0.9086  0.0566  0.2817
  385SOL     OW 1537   1.317   2.057   1.506  0.2577  0.1400  0.1268
  385SOL    HW1 1538   1.388   2.072   1.567  2.2370 -0.0492 -1.1394
  385SOL    HW2 1539   1.277   1.977   1.544 -1.1659  2.0181 -1.8873
  385SOL     MW 1540   1.321   2.049   1.519  0.3310  0.3628 -0.3060
  386SOL     OW 1541   1.315   0.364   0.815 -0.0165  0.5196 -0.0090
  386SOL    HW1 1542   1.228   0.395   0.799 -2.0525  1.6204  0.7009
  386SOL    HW2 1543   1.313   0.326   0.902  2.1909 -0.2518 -1.5014
  386SOL     MW 1544   1.303   0.363   0.824  0.0061  0.5630 -0.1123
  387SOL     OW 1545   0.890   2.146   1.472  0.0800  0.0834  0.0039
  387SOL    HW1 1546   0.937   2.188   1.401 -2.7810 -0.5530 -1.0897
  387SOL    HW2 1547   0.861   2.062   1.429  1.6488 -0.4235  2.8846
  387SOL     MW 1548   0.892   2.141   1.457 -0.0905 -0.0674  0.2397
  388SOL     OW 1549   1.572   2.813   1.193  0.2728 -0.0253 -0.1391
  388SOL    HW1 1550   1.483   2.779   1.176 -0.0145  3.1730 -0.9174
  388SOL    HW2 1551   1.623   2.745   1.154  0.8688  1.1398 -1.8899
  388SOL     MW 1552   1.567   2.799   1.185  0.3135  0.5504 -0.4728
  389SOL     OW 1553   0.422   0.038   3.038  0.6382  0.3620 -0.5432
  389SOL    HW1 1554   0.512   0.051   3.002  3.1882 -1.3181 -0.2569
  389SOL    HW2 1555   0.375   0.075   2.963  1.2518  0.7864  1.1536
  389SOL     MW 1556   0.427   0.045   3.024  1.0556  0.1963 -0.2815
  390SOL     OW 1557   1.310   0.101   0.649  0.1007 -0.1979 -0.1111
  390SOL    HW1 1558   1.399   0.126   0.620 -2.8133  1.6694  0.9805
  390SOL    HW2 1559   1.304   0.108   0.746 -1.9933  1.9918  0.0429
  390SOL     MW 1560   1.321   0.105   0.658 -0.5601  0.3374  0.0532
  391SOL     OW 1561   0.303   2.224   1.368  0.1609  0.0563 -0.0857
  391SOL    HW1 1562   0.251   2.144   1.404 -0.2091 -3.4753  2.8565
  391SOL    HW2 1563   0.245   2.307   1.372 -1.0793  0.1349  1.7680
  391SOL     MW 1564   0.289   2.225   1.373 -0.0516 -0.3993  0.5470
  392SOL     OW 1565   2.035   2.181   0.379 -0.0589  0.3629 -0.1585
  392SOL    HW1 1566   2.115   2.234   0.391 -0.2979 -1.7728  3.2811
  392SOL    HW2 1567   1.970   2.232   0.430  1.7142  1.6559 -2.4110
  392SOL     MW 1568   2.037   2.195   0.387  0.1435  0.2517 -0.0018
  393SOL     OW 1569   0.154   3.036   2.752 -0.1177  0.9862 -0.0964
  393SOL    HW1 1570   0.230   3.029   2.690 -1.5464 -0.5156  0.2908
  393SOL    HW2 1571   0.137   3.131   2.749  1.7829  0.9364 -1.8223
  393SOL     MW 1572   0.162   3.047   2.743 -0.0554  0.7814 -0.2730
  394SOL     OW 1573   0.914   1.767   1.516  0.2427 -0.0828 -0.0816
  394SOL    HW1 1574   0.860   1.776   1.597 -0.9096 -0.8647  1.6217
  394SOL    HW2 1575   0.886   1.829   1.450  0.8035 -1.3003  0.5028
  394SOL     MW 1576   0.903   1.776   1.518  0.1647 -0.3466  0.2202
  395SOL     OW 1577   1.046   2.798   2.590  0.2026  0.0325 -0.5445
  395SOL    HW1 1578   1.103   2.871   2.621 -0.6255 -3.1485  1.7177
  395SOL    HW2 1579   1.099   2.737   2.541  0.7778  1.6464  1.7440
  395SOL     MW 1580   1.060   2.799   2.588  0.1692 -0.1742  0.0559
  396SOL     OW 1581   0.813   1.876   2.409 -0.6518 -0.1415 -0.0782
  396SOL    HW1 1582   0.888   1.887   2.473  0.2666  2.5615  0.2901
  396SOL    HW2 1583   0.812   1.784   2.385 -2.3412 -0.9259 -2.3990
  396SOL     MW 1584   0.823   1.865   2.414 -0.7535  0.1116 -0.3358
  397SOL     OW 1585   1.025   2.334   1.259 -0.5782 -0.1794 -0.3630
  397SOL    HW1 1586   1.074   2.377   1.180  1.2984  0.8988  1.1836
  397SOL    HW2 1587   1.089   2.340   1.334 -0.6638 -2.8857  0.2239
  397SOL     MW 1588   1.040   2.341   1.259 -0.3419 -0.3942 -0.0815
  398SOL     OW 1589   0.545   2.702   0.738 -0.1586  0.3711 -0.8438
  398SOL    HW1 1590   0.468   2.648   0.725 -1.7737 -2.8679 -0.9895
  398SOL    HW2 1591   0.618   2.646   0.700  0.3521 -0.9344  0.6242
  398SOL     MW 1592   0.545   2.687   0.731 -0.3043 -0.2285 -0.6693
  399SOL     OW 1593   0.235   2.092   0.400 -0.1014 -0.0178 -0.0405
  399SOL    HW1 1594   0.168   2.159   0.397 -0.8797 -2.7533  0.6201
  399SOL    HW2 1595   0.299   2.108   0.325  4.0826  0.6080 -0.6863
  399SOL     MW 1596   0.234   2.103   0.390  0.3480 -0.2961 -0.0385
  400SOL     OW 1597   0.526   1.885   0.159 -0.0590  0.4703  0.0681
  400SOL    HW1 1598   0.539   1.975   0.184  2.0641  1.1377  0.9870
  400SOL    HW2 1599   0.505   1.821   0.229 -1.6398 -3.2199 -1.2743
  400SOL     MW 1600   0.525   1.889   0.171  0.0125  0.0715  0.0122
  401SOL     OW 1601   0.832   2.042   0.125 -0.8109 -0.4350 -0.4257
  401SOL    HW1 1602   0.862   1.965   0.085  0.8359  0.7763  0.1040
  401SOL    HW2 1603   0.771   2.007   0.194 -5.1403 -0.8248  0.3777
  401SOL     MW 1604   0.828   2.027   0.129 -1.1648 -0.3266 -0.2498
  402SOL     OW 1605   0.633   2.992   1.727 -0.4881  0.6525  0.2715
  402SOL    HW1 1606   0.685   3.006   1.809 -1.1511  2.1586  2.1346
  402SOL    HW2 1607   0.683   3.054   1.665 -0.0662 -0.2348 -0.9449
  402SOL     MW 1608   0.647   3.002   1.730 -0.5199  0.7342  0.3568
  403SOL     OW 1609   0.087   0.423   0.380  0.0732  0.4015 -0.4052
  403SOL    HW1 1610   0.153   0.444   0.443 -0.4484 -3.7817 -1.5659
  403SOL    HW2 1611   0.127   0.381   0.299 -0.2312 -1.6361  0.2283
  403SOL     MW 1612   0.101   0.420   0.378 -0.0358 -0.4192 -0.4748
  404SOL     OW 1613   0.859   2.845   0.737 -0.0336  0.2262 -0.4222
  404SOL    HW1 1614   0.911   2.788   0.681  1.4625  0.0630 -1.9620
  404SOL    HW2 1615   0.900   2.934   0.730  2.7634 -1.1048  3.7726
  404SOL     MW 1616   0.872   2.849   0.729  0.5329  0.0291 -0.0719
  405SOL     OW 1617   0.491   2.385   1.496 -0.0021  0.1463 -0.1405
  405SOL    HW1 1618   0.488   2.475   1.458 -2.0418  0.7752  0.9180
  405SOL    HW2 1619   0.419   2.328   1.461  2.9919  0.9101  0.3349
  405SOL     MW 1620   0.481   2.390   1.486  0.1238  0.3301  0.0619
  406SOL     OW 1621   0.365   2.416   1.086  0.5471 -0.2906 -0.4405
  406SOL    HW1 1622   0.267   2.428   1.085  0.8425  0.2509  1.2266
  406SOL    HW2 1623   0.377   2.324   1.096 -1.0449  0.3993 -3.1553
  406SOL     MW 1624   0.354   2.405   1.087  0.3760 -0.1281 -0.5787
  407SOL     OW 1625   3.069   2.707   1.159 -0.9405  0.1846 -0.5192
  407SOL    HW1 1626   3.138   2.710   1.231  0.6195 -1.2905 -0.2559
  407SOL    HW2 1627   3.133   2.717   1.084  0.6016 -0.5693  0.8677
  407SOL     MW 1628   3.086   2.709   1.159 -0.5312 -0.1095 -0.3014
  408SOL     OW 1629   2.115   2.057   0.794  0.0734  0.2197 -0.1929
  408SOL    HW1 1630   2.073   2.130   0.839  1.1980  0.8694  0.3332
  408SOL    HW2 1631   2.090   2.071   0.705 -0.2806  0.6677  2.8465
  408SOL     MW 1632   2.106   2.068   0.788  0.1751  0.3645  0.2775
  409SOL     OW 1633   1.404   0.101   0.918  0.2912  0.1434 -0.2078
  409SOL    HW1 1634   1.472   0.158   0.880  0.5747 -0.1527  0.7500
  409SOL    HW2 1635   1.453   0.045   0.978 -0.7855 -0.5270 -2.5767
  409SOL     MW 1636   1.419   0.101   0.921  0.1865  0.0159 -0.3940
  410SOL     OW 1637   1.143   2.467   1.036 -0.7456 -0.2003 -0.4345
  410SOL    HW1 1638   1.073   2.501   0.985  1.8741  4.3453  0.3706
  410SOL    HW2 1639   1.188   2.396   0.986 -1.1762 -2.1158 -0.8109
  410SOL     MW 1640   1.139   2.462   1.023 -0.4568  0.1467 -0.3779
  411SOL     OW 1641   1.956   0.017   2.845  0.4120  0.1959  0.2334
  411SOL    HW1 1642   1.885  -0.023   2.788  0.4249  0.9126 -0.8537
  411SOL    HW2 1643   1.914   0.072   2.913  1.3520 -0.9367  0.9983
  411SOL     MW 1644   1.941   0.019   2.846  0.5377  0.1410  0.1909
  412SOL     OW 1645   0.971   2.262   0.633  0.3688  0.6041  0.4307
  412SOL    HW1 1646   1.043   2.322   0.651  1.0982 -1.8562  0.0708
  412SOL    HW2 1647   0.899   2.317   0.582 -2.8758 -0.6280  0.9782
  412SOL     MW 1648   0.971   2.277   0.629  0.0369  0.1169  0.4554
  413SOL     OW 1649   0.513   2.784   3.057 -0.2341  0.3448 -0.1013
  413SOL    HW1 1650   0.556   2.704   3.105 -0.8296 -0.9669  0.1400
  413SOL    HW2 1651   0.582   2.826   3.011 -1.4515  0.0787  2.4263
  413SOL     MW 1652   0.528   2.779   3.057 -0.4733  0.1367  0.2641
  414SOL     OW 1653   1.924   2.944   1.082 -0.5548 -0.5221  0.1689
  414SOL    HW1 1654   1.869   2.939   1.004  1.5290  0.8855  2.0597
  414SOL    HW2 1655   1.988   2.869   1.085  1.1938 -2.6171 -1.2819
  414SOL     MW 1656   1.925   2.933   1.072 -0.0492 -0.6128  0.2270
  415SOL     OW 1657   1.710   2.586   1.143 -0.0203  1.5057 -0.6400
  415SOL    HW1 1658   1.688   2.500   1.181 -0.1088 -1.1343  0.0818
  415SOL    HW2 1659   1.769   2.625   1.206  1.4267 -1.6240  0.7764
  415SOL     MW 1660   1.715   2.580   1.156  0.1590  0.7444 -0.3579
  416SOL     OW 1661   0.541   1.945   1.365 -0.6753 -0.3652  0.2839
  416SOL    HW1 1662   0.523   2.013   1.300 -2.1211  0.6204 -0.3834
  416SOL    HW2 1663   0.476   1.881   1.335  0.2677  3.3734 -0.3714
  416SOL     MW 1664   0.530   1.945   1.353 -0.7416  0.2581  0.1094
  417SOL     OW 1665   1.000   3.041   2.043  0.3488  0.6774 -0.0052
  417SOL    HW1 1666   0.943   3.051   2.125  4.3415  1.9045 -3.2446
  417SOL    HW2 1667   0.953   2.975   1.982 -1.6318  0.6807  0.5722
  417SOL     MW 1668   0.987   3.034   2.046  0.6143  0.8397 -0.3564
  418SOL     OW 1669   0.668   2.909   0.148  0.4336 -0.7282  0.3747
  418SOL    HW1 1670   0.743   2.941   0.096 -0.7909 -1.5326 -1.1127
  418SOL    HW2 1671   0.611   2.861   0.081  2.2260 -0.5083 -0.5450
  418SOL     MW 1672   0.670   2.907   0.132  0.5086 -0.8053  0.0571
  419SOL     OW 1673   0.451   2.636   1.400  0.0966 -0.2661 -0.3111
  419SOL    HW1 1674   0.507   2.702   1.440  1.5376  0.8299 -0.6559
  419SOL    HW2 1675   0.505   2.627   1.327  0.0570  1.7740  1.9617
  419SOL     MW 1676   0.466   2.644   1.396  0.2815  0.1477 -0.0567
  420SOL     OW 1677   0.878   2.201   0.996 -0.1282  0.2273 -0.0393
  420SOL    HW1 1678   0.811   2.230   1.061 -2.5525 -2.3794  0.9534
  420SOL    HW2 1679   0.878   2.275   0.928 -0.5878  0.1818 -1.7772
  420SOL     MW 1680   0.869   2.214   0.996 -0.5087 -0.1226 -0.1376
  421SOL     OW 1681   2.945   0.049   0.009 -0.0991 -0.3555  0.2078
  421SOL    HW1 1682   2.899   0.019  -0.070 -0.1765 -0.6606  0.0863
  421SOL    HW2 1683   2.965  -0.023   0.062  0.2388 -1.1743 -1.7121
  421SOL     MW 1684   2.941   0.035   0.005 -0.0647 -0.5038 -0.0616
  422SOL     OW 1685   0.904   2.496   0.894  0.4354  0.5379  0.2047
  422SOL    HW1 1686   0.877   2.571   0.942 -0.8502  1.5207 -1.7244
  422SOL    HW2 1687   0.860   2.513   0.812 -3.9383 -1.6818 -0.9100
  422SOL     MW 1688   0.895   2.508   0.890 -0.3113  0.3747 -0.1969
  423SOL     OW 1689   1.530   0.136   0.503  0.2328  0.1612  0.5704
  423SOL    HW1 1690   1.513   0.097   0.416  1.1236 -2.4321 -0.3900
  423SOL    HW2 1691   1.509   0.232   0.481 -3.3459  2.0356 -2.5698
  423SOL     MW 1692   1.525   0.143   0.488 -0.1218  0.0664  0.0294
  424SOL     OW 1693   0.680   2.263   1.169  0.4811  0.0182 -0.5306
  424SOL    HW1 1694   0.593   2.223   1.163  3.0756  0.8883  0.4710
  424SOL    HW2 1695   0.699   2.283   1.262 -0.3954  2.2582  1.3415
  424SOL     MW 1696   0.671   2.260   1.181  0.7078  0.4286 -0.1514
  425SOL     OW 1697   1.725   2.846   1.970 -0.0853 -0.3474  0.0201
  425SOL    HW1 1698   1.741   2.864   1.877  0.5356  0.4772  0.2817
  425SOL    HW2 1699   1.770   2.764   1.974 -1.1904 -0.5020 -0.8932
  425SOL     MW 1700   1.733   2.837   1.958 -0.1492 -0.2590 -0.0659
  426SOL     OW 1701   0.840   1.699   1.944  0.2763  0.1545  0.0268
  426SOL    HW1 1702   0.784   1.723   1.865 -1.4806 -2.7195  0.0788
  426SOL    HW2 1703   0.821   1.774   2.001  0.5897  3.3030  1.3737
  426SOL     MW 1704   0.830   1.712   1.941  0.0858  0.1907  0.2114
  427SOL     OW 1705   0.360   1.599   1.885  0.4346  0.7584 -0.0360
  427SOL    HW1 1706   0.435   1.565   1.935 -2.2481  0.6398  0.6206
  427SOL    HW2 1707   0.282   1.557   1.928  0.2520 -0.7989 -2.3080
  427SOL     MW 1708   0.360   1.589   1.897  0.0566  0.5373 -0.2491
  428SOL     OW 1709   0.579   2.561   1.186 -0.1308 -0.9385  0.6758
  428SOL    HW1 1710   0.645   2.507   1.227  2.1499  2.1107  0.6939
  428SOL    HW2 1711   0.499   2.512   1.156  0.6370  1.1868 -1.6988
  428SOL     MW 1712   0.577   2.548   1.187  0.2714 -0.2558  0.3649
  429SOL     OW 1713   1.328   2.695   1.086  0.2328  0.8255  0.5755
  429SOL    HW1 1714   1.255   2.639   1.084  1.4349 -0.3029 -0.9601
  429SOL    HW2 1715   1.285   2.776   1.057 -1.2354  0.3390  2.4526
  429SOL     MW 1716   1.313   2.698   1.082  0.1977  0.6124  0.6205
  430SOL     OW 1717   1.177   2.713   0.708 -0.3237 -0.3017  0.0968
  430SOL    HW1 1718   1.188   2.618   0.702  0.9352 -0.4200  1.0432
  430SOL    HW2 1719   1.127   2.730   0.625  0.0881 -1.3784  0.9296
  430SOL     MW 1720   1.172   2.703   0.696 -0.1033 -0.4593  0.3315
  431SOL     OW 1721   0.288   1.896   1.096  0.1850  0.7200 -0.5058
  431SOL    HW1 1722   0.364   1.837   1.076 -1.0876  0.6360 -0.3444
  431SOL    HW2 1723   0.255   1.927   1.006 -0.0781  2.1217 -0.3712
  431SOL     MW 1724   0.294   1.892   1.081 -0.0176  0.8939 -0.4667
  432SOL     OW 1725   0.061   0.005   1.092  0.0750 -0.5951  0.1534
  432SOL    HW1 1726   0.046   0.055   1.173  1.1032 -1.3118  0.8110
  432SOL    HW2 1727   0.001  -0.073   1.095 -0.7353 -1.4947  3.0917
  432SOL     MW 1728   0.051   0.001   1.103  0.1037 -0.8084  0.6278
  433SOL     OW 1729   0.633   2.829   1.483  0.0929  0.1235  0.4636
  433SOL    HW1 1730   0.650   2.862   1.575  2.6563 -0.2697  3.1082
  433SOL    HW2 1731   0.718   2.842   1.436 -0.6945  1.8004  0.9115
  433SOL     MW 1732   0.647   2.835   1.489  0.3272  0.2929  0.8716
  434SOL     OW 1733   1.578   2.817   1.488  0.0334 -0.2465  0.5104
  434SOL    HW1 1734   1.495   2.871   1.501  1.1949  0.8356  1.0313
  434SOL    HW2 1735   1.594   2.817   1.394  1.5366  2.4262 -2.0946
  434SOL     MW 1736   1.569   2.824   1.477  0.3850  0.2489  0.2354
  435SOL     OW 1737   2.797   1.819   0.216 -0.4832 -0.2742  0.2059
  435SOL    HW1 1738   2.845   1.899   0.193  0.1134  3.3020  0.6728
  435SOL    HW2 1739   2.781   1.771   0.137  1.5835  1.6740 -0.3092
  435SOL     MW 1740   2.801   1.823   0.202 -0.1318  0.4547  0.1996
  436SOL     OW 1741   1.305   2.814   0.334  0.0839 -0.0055  0.3417
  436SOL    HW1 1742   1.388   2.798   0.375  0.3228 -1.1272  0.9745
  436SOL    HW2 1743   1.264   2.891   0.377  1.6135 -1.5813 -2.2980
  436SOL     MW 1744   1.310   2.822   0.345  0.3173 -0.3614  0.0769
  437SOL     OW 1745   0.886   2.874   1.411 -0.1364 -0.1886  0.1746
  437SOL    HW1 1746   0.871   2.958   1.367  1.4720 -0.2527 -0.7659
  437SOL    HW2 1747   0.913   2.812   1.342  2.2961 -1.8081  2.7393
  437SOL     MW 1748   0.887   2.877   1.396  0.3968 -0.4107  0.3889
  438SOL     OW 1749   0.863   2.646   1.914  0.0534  0.4035 -0.6184
  438SOL    HW1 1750   0.828   2.636   2.002 -1.4384  3.7189 -5.1318
  438SOL    HW2 1751   0.800   2.605   1.855 -0.5813  3.0821 -0.2351
  438SOL     MW 1752   0.850   2.639   1.918 -0.2272  1.1943 -1.1633
  439SOL     OW 1753   1.103   2.146   0.402  1.1112  0.0018  0.3425
  439SOL    HW1 1754   1.033   2.190   0.454 -1.8491  1.6575  0.4109
  439SOL    HW2 1755   1.129   2.222   0.351  0.9633 -1.4871  2.1003
  439SOL     MW 1756   1.097   2.162   0.402  0.7011  0.0238  0.5834
  440SOL     OW 1757   1.693   2.998   3.083  0.1938  0.0416  0.5773
  440SOL    HW1 1758   1.643   2.971   3.153 -0.8790  0.2299 -1.4665
  440SOL    HW2 1759   1.770   2.934   3.096  1.5990 -1.3089  2.0885
  440SOL     MW 1760   1.697   2.986   3.094  0.2376 -0.1117  0.5070
  441SOL     OW 1761   0.356   2.651   0.490 -0.4053  0.1933 -0.0511
  441SOL    HW1 1762   0.295   2.642   0.422 -1.2231  1.2634  0.3707
  441SOL    HW2 1763   0.374   2.750   0.499  0.4563  1.4939 -0.3218
  441SOL     MW 1764   0.350   2.663   0.482 -0.3995  0.5061 -0.0312
  442SOL     OW 1765   3.066   2.359   0.637 -0.4574  0.0988 -0.2333
  442SOL    HW1 1766   3.082   2.460   0.606 -0.0366  1.0680  0.3599
  442SOL    HW2 1767   2.976   2.363   0.671  1.1934  0.7189 -1.5361
  442SOL     MW 1768   3.057   2.373   0.637 -0.1841  0.3085 -0.3269
  443SOL     OW 1769   1.417   1.796   1.934 -0.2029 -0.0547 -0.4849
  443SOL    HW1 1770   1.393   1.839   1.852  1.6526  1.5884 -2.2038
  443SOL    HW2 1771   1.370   1.711   1.934  1.3351  2.1843 -0.4603
  443SOL     MW 1772   1.408   1.790   1.923  0.2448  0.4575 -0.7085
  444SOL     OW 1773   0.894   2.566   1.589 -0.2166 -0.1341  0.3700
  444SOL    HW1 1774   0.964   2.527   1.641 -0.9778 -0.7928  0.2734
  444SOL    HW2 1775   0.819   2.563   1.643  0.0784  0.1914 -0.7637
  444SOL     MW 1776   0.893   2.560   1.603 -0.2781 -0.1781  0.2077
  445SOL     OW 1777   0.905   0.013   1.281 -0.3466  0.1762  0.5933
  445SOL    HW1 1778   0.881   0.091   1.234 -0.8201 -0.1782  0.4532
  445SOL    HW2 1779   0.996  -0.016   1.270  2.6991  0.0418 -0.0780
  445SOL     MW 1780   0.914   0.019   1.274 -0.0072  0.1117  0.4863
  446SOL     OW 1781   2.688   2.849   1.080  0.5265 -0.0637 -0.3312
  446SOL    HW1 1782   2.680   2.899   0.998  0.3977 -0.5735  1.1257
  446SOL    HW2 1783   2.731   2.764   1.055  2.1045  0.7656  0.2054
  446SOL     MW 1784   2.692   2.844   1.066  0.7177 -0.0216 -0.0682
  447SOL     OW 1785   0.005   2.050   1.690  0.1691 -0.0610  0.0560
  447SOL    HW1 1786   0.048   2.007   1.762 -0.1708  1.9763  2.8218
  447SOL    HW2 1787  -0.041   1.979   1.640 -0.7213 -0.7251  0.3812
  447SOL     MW 1788   0.004   2.035   1.693  0.0068  0.1202  0.4638
  448SOL     OW 1789   1.735   2.387   1.691 -0.3374  0.0349 -0.4697
  448SOL    HW1 1790   1.664   2.330   1.684  0.0570  0.3511  0.5789
  448SOL    HW2 1791   1.689   2.468   1.663 -1.7008  1.6160 -1.0145
  448SOL     MW 1792   1.719   2.390   1.686 -0.4653  0.2853 -0.4033
  449SOL     OW 1793   0.758   2.843   0.400 -0.0962 -0.2576 -0.3536
  449SOL    HW1 1794   0.735   2.860   0.309  3.3518  0.3259 -0.4806
  449SOL    HW2 1795   0.691   2.868   0.463  0.5671  0.5325  0.3039
  449SOL     MW 1796   0.746   2.848   0.396  0.4463 -0.0764 -0.2836
  450SOL     OW 1797   1.197   2.426   0.665 -0.1834 -0.0672 -0.0321
  450SOL    HW1 1798   1.236   2.379   0.740 -0.9905 -2.1873 -1.4671
  450SOL    HW2 1799   1.281   2.440   0.627 -0.4159  0.8968 -1.9371
  450SOL     MW 1800   1.213   2.422   0.670 -0.3206 -0.2197 -0.4728
  451SOL     OW 1801   0.540   1.998   1.640 -0.6430 -0.0156 -0.3988
  451SOL    HW1 1802   0.594   2.076   1.666 -1.7034 -1.5303 -0.8329
  451SOL    HW2 1803   0.535   2.003   1.543  1.2189  1.3674 -1.3587
  451SOL     MW 1804   0.547   2.009   1.631 -0.5372 -0.0330 -0.5828
  452SOL     OW 1805   0.266   2.725   0.018  0.1426 -0.0368 -0.1371
  452SOL    HW1 1806   0.348   2.758  -0.019 -0.4407  0.2851 -1.4731
  452SOL    HW2 1807   0.198   2.780  -0.036 -1.2423  0.8016  0.1302
  452SOL     MW 1808   0.267   2.736   0.006 -0.1171  0.1163 -0.2781
  453SOL     OW 1809   0.356   2.943   1.686  0.0866 -0.8841 -0.1013
  453SOL    HW1 1810   0.448   2.965   1.699 -0.9000 -0.5410  3.3934
  453SOL    HW2 1811   0.351   2.989   1.597 -1.5030  2.5444  0.6988
  453SOL     MW 1812   0.368   2.952   1.676 -0.2533 -0.3865  0.4654
  454SOL     OW 1813   0.968   2.740   1.171  0.5543  0.5035 -0.1692
  454SOL    HW1 1814   0.908   2.665   1.186 -0.3028  1.9324  0.5393
  454SOL    HW2 1815   0.917   2.803   1.118 -0.1184  2.1663 -0.1740
  454SOL     MW 1816   0.953   2.738   1.166  0.3525  0.9114 -0.0764
  455SOL     OW 1817   1.559   2.914   0.211  0.7586  0.1150  0.1353
  455SOL    HW1 1818   1.602   2.898   0.297  1.6397 -0.5337  2.0509
  455SOL    HW2 1819   1.502   2.840   0.190 -0.8618  0.4234 -0.8262
  455SOL     MW 1820   1.557   2.902   0.220  0.6610  0.0701  0.2612
  456SOL     OW 1821   2.872   0.315   1.364 -0.6715 -0.1405  0.0002
  456SOL    HW1 1822   2.825   0.276   1.284  0.7962  0.6369 -0.5624
  456SOL    HW2 1823   2.951   0.345   1.323  0.1811  0.6075  1.5111
  456SOL     MW 1824   2.877   0.314   1.348 -0.3653  0.0607  0.1253
  457SOL     OW 1825   0.975   1.525   2.932  0.0899 -0.6039 -0.0924
  457SOL    HW1 1826   0.889   1.508   2.964 -1.0318  3.2030 -1.0499
  457SOL    HW2 1827   1.041   1.482   2.994  3.2191  0.6832 -0.1178
  457SOL     MW 1828   0.972   1.517   2.944  0.3548  0.0682 -0.2220
  458SOL     OW 1829   1.460   1.384   0.553 -0.2322 -0.2780 -0.3897
  458SOL    HW1 1830   1.378   1.415   0.593 -0.6277 -0.1149  1.1799
  458SOL    HW2 1831   1.436   1.341   0.474 -2.8339  1.1486 -0.2793
  458SOL     MW 1832   1.446   1.382   0.548 -0.6277 -0.0683 -0.1681
  459SOL     OW 1833   1.484   0.091   0.217  0.1596 -0.5232  0.0503
  459SOL    HW1 1834   1.472  -0.006   0.208 -1.7652  0.4371  0.2352
  459SOL    HW2 1835   1.414   0.138   0.174 -1.6230 -1.0466  0.6640
  459SOL     MW 1836   1.473   0.085   0.210 -0.3295 -0.4656  0.1556
  460SOL     OW 1837   1.797   2.158   0.638  0.4261  0.2818 -0.8073
  460SOL    HW1 1838   1.708   2.142   0.677  0.0164  0.7786  0.1164
  460SOL    HW2 1839   1.827   2.071   0.605  2.6323  0.8586  0.0230
  460SOL     MW 1840   1.790   2.144   0.639  0.6631  0.4234 -0.5759
  461SOL     OW 1841   0.450   2.432   0.613 -0.7075 -0.3393 -0.2657
  461SOL    HW1 1842   0.442   2.509   0.556  0.0477 -0.3933  0.0839
  461SOL    HW2 1843   0.423   2.466   0.702 -0.1202 -1.1458  0.7796
  461SOL     MW 1844   0.445   2.447   0.617 -0.5304 -0.4528 -0.0816
  462SOL     OW 1845   0.381   0.261   1.276  0.4262  0.5260  0.3630
  462SOL    HW1 1846   0.432   0.215   1.212 -0.3412  0.6431  3.2646
  462SOL    HW2 1847   0.458   0.315   1.304  3.6732 -0.6918  5.1950
  462SOL     MW 1848   0.398   0.262   1.272  0.7533  0.3808  1.3834
  463SOL     OW 1849   0.881   0.011   0.690  0.0543  0.2050 -0.0298
  463SOL    HW1 1850   0.902   0.004   0.593 -0.8038  2.3714 -1.8058
  463SOL    HW2 1851   0.796   0.060   0.690  1.2268  0.5462 -1.0723
  463SOL     MW 1852   0.872   0.016   0.677  0.0958  0.5358 -0.4017
  464SOL     OW 1853   0.831   3.047   2.264 -0.0208  0.1586  0.0079
  464SOL    HW1 1854   0.810   2.953   2.269  3.4597 -0.0751  2.6882
  464SOL    HW2 1855   0.842   3.067   2.354  2.0662  1.6717  0.9489
  464SOL     MW 1856   0.830   3.037   2.277  0.7138  0.3274  0.4857
  465SOL     OW 1857   0.661   0.300   0.493  0.3648 -0.5525  0.0150
  465SOL    HW1 1858   0.629   0.221   0.538 -0.4854  0.2727  0.7577
  465SOL    HW2 1859   0.715   0.259   0.424 -0.0387  1.9230  0.2836
  465SOL     MW 1860   0.664   0.284   0.490  0.1994 -0.1170  0.1484
  466SOL     OW 1861   1.082   2.007   0.705 -0.2249 -0.5101 -0.4526
  466SOL    HW1 1862   1.099   1.937   0.647 -0.8232  0.0022 -1.8256
  466SOL    HW2 1863   1.068   2.085   0.651  1.6113 -1.9136  0.3942
  466SOL     MW 1864   1.083   2.008   0.690 -0.0616 -0.6276 -0.5220
  467SOL     OW 1865   1.281   2.275   0.871  0.2386  0.5754  0.3705
  467SOL    HW1 1866   1.373   2.291   0.865 -1.6489  2.8669  1.0836
  467SOL    HW2 1867   1.280   2.180   0.867 -0.1678  0.9148  0.6630
  467SOL     MW 1868   1.293   2.264   0.870 -0.0641  0.9225  0.5032
  468SOL     OW 1869   0.366   2.598   1.962  0.2772  0.0287 -0.2366
  468SOL    HW1 1870   0.359   2.538   1.886 -2.4968  0.0349 -2.3293
  468SOL    HW2 1871   0.330   2.688   1.949 -2.3640 -0.5999  0.5159
  468SOL     MW 1872   0.360   2.602   1.950 -0.4373 -0.0535 -0.4134
  469SOL     OW 1873   0.363   2.146   1.797  0.0039 -0.1092  0.3914
  469SOL    HW1 1874   0.303   2.090   1.853 -2.4038 -0.8022  1.7299
  469SOL    HW2 1875   0.401   2.078   1.739 -0.9113 -0.0074 -0.6880
  469SOL     MW 1876   0.360   2.130   1.797 -0.4345 -0.1872  0.4256
  470SOL     OW 1877   3.028   2.531   0.098  0.1070 -0.2244  0.0998
  470SOL    HW1 1878   2.966   2.497   0.167 -2.1615 -1.9883 -0.7629
  470SOL    HW2 1879   2.970   2.576   0.034  0.2322  0.6867 -0.0748
  470SOL     MW 1880   3.012   2.532   0.098 -0.1758 -0.3369 -0.0371
  471SOL     OW 1881   1.197   2.738   1.412 -0.6145 -0.0604  0.1125
  471SOL    HW1 1882   1.139   2.764   1.486 -1.1212  0.8690  0.1577
  471SOL    HW2 1883   1.141   2.715   1.340 -1.2248  4.5472 -2.2064
  471SOL     MW 1884   1.182   2.739   1.412 -0.7619  0.6701 -0.1875
  472SOL     OW 1885   2.942   2.078   0.396  0.1297  0.4569  0.2831
  472SOL    HW1 1886   2.945   2.068   0.297  0.4725 -1.9600  1.5039
  472SOL    HW2 1887   2.914   1.990   0.425  0.8836 -1.5395 -0.7940
  472SOL     MW 1888   2.939   2.065   0.387  0.2744 -0.1254  0.3020
  473SOL     OW 1889   0.834   2.517   1.310 -0.1504 -0.2251 -0.6468
  473SOL    HW1 1890   0.899   2.459   1.272 -0.1982  2.4467  2.8496
  473SOL    HW2 1891   0.845   2.515   1.405 -1.8626 -1.6630  1.4584
  473SOL     MW 1892   0.844   2.509   1.318 -0.3826 -0.0623  0.0923
  474SOL     OW 1893   0.762   2.207   1.733  0.0739 -0.8408  0.1584
  474SOL    HW1 1894   0.851   2.230   1.765  1.9131 -0.4628  2.3306
  474SOL    HW2 1895   0.789   2.185   1.641 -1.3226 -0.4935  2.6243
  474SOL     MW 1896   0.777   2.207   1.725  0.1323 -0.7451  0.7704
  475SOL     OW 1897   1.616   0.024   1.440 -0.0040 -0.4897 -0.0223
  475SOL    HW1 1898   1.535   0.064   1.410  0.6600 -2.9045  0.4394
  475SOL    HW2 1899   1.610  -0.071   1.422 -0.6030  1.2469  0.0164
  475SOL     MW 1900   1.605   0.017   1.434  0.0046 -0.5792  0.0437
  476SOL     OW 1901   1.487   2.599   0.883 -0.1372 -0.0751  0.1964
  476SOL    HW1 1902   1.422   2.624   0.946  0.8128 -2.2162 -0.8226
  476SOL    HW2 1903   1.510   2.687   0.851  0.6983  1.3402 -3.5700
  476SOL     MW 1904   1.481   2.614   0.887  0.0984 -0.1708 -0.4350
  477SOL     OW 1905   0.773   2.567   0.640 -0.2774 -0.0828 -0.0594
  477SOL    HW1 1906   0.853   2.599   0.589 -1.2327 -2.5928 -1.3976
  477SOL    HW2 1907   0.751   2.495   0.584  0.7758  0.6304 -0.2688
  477SOL     MW 1908   0.781   2.562   0.625 -0.2645 -0.3199 -0.2636
  478SOL     OW 1909   0.115   2.697   0.899 -0.7330  0.5561  0.1565
  478SOL    HW1 1910   0.154   2.773   0.934 -2.7918 -0.0546 -1.0173
  478SOL    HW2 1911   0.195   2.637   0.888  1.8916 -3.6530 -0.5253
  478SOL     MW 1912   0.131   2.699   0.902 -0.6583 -0.0799 -0.0883
  479SOL     OW 1913   1.418   1.920   1.274 -0.2782 -0.0071  0.3548
  479SOL    HW1 1914   1.381   1.956   1.353  0.3728 -0.9598 -1.7519
  479SOL    HW2 1915   1.497   1.886   1.306 -1.3007  1.0918  0.5527
  479SOL     MW 1916   1.424   1.921   1.288 -0.3272  0.0122  0.1030
  480SOL     OW 1917   1.880   2.370   1.381  0.3287 -0.6279 -0.2922
  480SOL    HW1 1918   1.897   2.281   1.417  0.8574 -0.9724  2.0328
  480SOL    HW2 1919   1.940   2.383   1.309  3.6168 -1.9306 -0.6066
  480SOL     MW 1920   1.890   2.360   1.376  0.8323 -0.8452 -0.0269
  481SOL     OW 1921   1.211   0.024   1.148  0.6199 -0.1565 -0.1073
  481SOL    HW1 1922   1.278  -0.009   1.087 -1.8026 -3.9772 -0.2551
  481SOL    HW2 1923   1.181   0.116   1.124 -1.2985  0.3460 -0.6969
  481SOL     MW 1924   1.216   0.032   1.137  0.0471 -0.5943 -0.2046
  482SOL     OW 1925   0.936   3.063   0.416  0.2062 -0.2409 -0.2983
  482SOL    HW1 1926   0.875   2.995   0.384 -1.7900 -1.5174  0.8463
  482SOL    HW2 1927   0.917   3.147   0.373 -0.2144  0.3434 -0.0930
  482SOL     MW 1928   0.925   3.065   0.406 -0.1127 -0.3322 -0.1202
  483SOL     OW 1929   0.348   2.934   0.499  0.2840 -0.0398 -0.4844
  483SOL    HW1 1930   0.264   2.934   0.455  2.3132 -0.8552  1.3461
  483SOL    HW2 1931   0.348   2.988   0.579  1.8090  1.2678  0.2729
  483SOL     MW 1932   0.337   2.941   0.504  0.7529  0.0252 -0.1430
  484SOL     OW 1933   1.659   1.841   1.369 -0.1151 -0.6941  0.3164
  484SOL    HW1 1934   1.702   1.905   1.311  0.8681  0.8467  0.4369
  484SOL    HW2 1935   1.685   1.875   1.452 -0.1332  1.9372 -1.3741
  484SOL     MW 1936   1.668   1.854   1.372  0.0123 -0.1436  0.1092
  485SOL     OW 1937   0.534   2.393   0.279  0.2384  0.4134  0.1613
  485SOL    HW1 1938   0.586   2.368   0.360 -3.6924  2.3215 -1.0340
  485SOL    HW2 1939   0.475   2.463   0.304  2.3478 -0.4983  0.8619
  485SOL     MW 1940   0.533   2.399   0.293 -0.0019  0.5449  0.0960
  486SOL     OW 1941   0.136   2.430   1.390  0.3260 -0.3694 -0.3879
  486SOL    HW1 1942   0.152   2.516   1.352 -0.7201 -2.1629 -1.4164
  486SOL    HW2 1943   0.131   2.467   1.481  1.9148  1.6326  0.6635
  486SOL     MW 1944   0.138   2.446   1.397  0.3976 -0.3419 -0.3849
  487SOL     OW 1945   1.276   1.585   1.084  0.4111 -0.2395 -0.3493
  487SOL    HW1 1946   1.238   1.674   1.076 -2.1736  1.1420 -2.8214
  487SOL    HW2 1947   1.365   1.592   1.042 -1.7446  0.8335  0.9288
  487SOL     MW 1948   1.283   1.598   1.078 -0.2144  0.0844 -0.5069
  488SOL     OW 1949   1.644   1.855   0.547  0.5325  0.2366 -0.2518
  488SOL    HW1 1950   1.726   1.888   0.511  0.6201  0.0709 -2.3682
  488SOL    HW2 1951   1.579   1.927   0.542  0.0915 -0.0994  0.6066
  488SOL     MW 1952   1.646   1.869   0.542  0.4859  0.1704 -0.4178
  489SOL     OW 1953   0.714   0.783   0.576 -0.4798 -0.0450  0.9324
  489SOL    HW1 1954   0.773   0.714   0.540 -0.8961  2.6702 -1.4896
  489SOL    HW2 1955   0.711   0.758   0.670 -0.7924  0.1805  0.3254
  489SOL     MW 1956   0.721   0.771   0.584 -0.5760  0.3430  0.5327
  490SOL     OW 1957   1.390   2.100   0.464 -0.3216  0.0410 -0.4999
  490SOL    HW1 1958   1.429   2.161   0.404 -2.3738 -1.3969 -0.4198
  490SOL    HW2 1959   1.293   2.096   0.447 -1.9658 -1.8690 -1.2264
  490SOL     MW 1960   1.382   2.107   0.454 -0.8093 -0.4007 -0.5852
  491SOL     OW 1961   1.192   3.008   0.467  0.0298 -0.3943 -0.0665
  491SOL    HW1 1962   1.240   3.068   0.529 -0.3272  2.7256 -3.0339
  491SOL    HW2 1963   1.103   3.052   0.455 -0.8891 -2.9685  1.9214
  491SOL     MW 1964   1.187   3.022   0.474 -0.1386 -0.3223 -0.1957
  492SOL     OW 1965   1.530   2.153   0.706 -0.0895 -0.7480  0.3587
  492SOL    HW1 1966   1.479   2.149   0.626 -0.1341 -2.6914 -0.6007
  492SOL    HW2 1967   1.489   2.090   0.766 -2.4132 -0.7092 -2.2816
  492SOL     MW 1968   1.518   2.144   0.704 -0.4020 -0.9993 -0.1163
  493SOL     OW 1969   0.113   2.905   0.374  0.1425  0.4541 -0.3357
  493SOL    HW1 1970   0.069   2.979   0.411 -1.5295 -1.5578 -0.8539
  493SOL    HW2 1971   0.153   2.934   0.292 -1.9915  0.6379  1.1408
  493SOL     MW 1972   0.113   2.918   0.368 -0.3597  0.2129 -0.2093
  494SOL     OW 1973   0.411   2.410   1.739 -0.1257  0.5656 -0.4658
  494SOL    HW1 1974   0.380   2.317   1.769  1.2877 -1.9794 -0.3978
  494SOL    HW2 1975   0.459   2.396   1.655  1.6973  0.4083 -1.3804
  494SOL     MW 1976   0.413   2.396   1.732  0.3013  0.2091 -0.5775
  495SOL     OW 1977   2.882   1.685   2.715  0.5015  0.1214 -0.0208
  495SOL    HW1 1978   2.871   1.775   2.760 -0.0118  1.1915 -0.4906
  495SOL    HW2 1979   2.893   1.615   2.784  1.3707 -1.9063 -0.2674
  495SOL     MW 1980   2.882   1.688   2.730  0.5485 -0.0049 -0.1153
  496SOL     OW 1981   2.879   2.294   2.632  0.2705 -0.2006 -0.1061
  496SOL    HW1 1982   2.894   2.212   2.676  1.8027  0.8005  2.1472
  496SOL    HW2 1983   2.952   2.340   2.671 -1.1984 -1.7073  2.2620
  496SOL     MW 1984   2.890   2.289   2.643  0.2789 -0.2673  0.5037
  497SOL     OW 1985   1.539   2.273   2.583  0.2137 -0.1942 -0.0338
  497SOL    HW1 1986   1.503   2.254   2.495  2.9634  0.0173 -1.3108
  497SOL    HW2 1987   1.511   2.207   2.641  1.1769  1.4582 -1.9397
  497SOL     MW 1988   1.531   2.262   2.579  0.7036  0.0517 -0.4537
  498SOL     OW 1989   1.549   2.696   2.293 -0.1223  0.6327  0.4834
  498SOL    HW1 1990   1.552   2.611   2.249  2.3503 -3.2061  1.5758
  498SOL    HW2 1991   1.622   2.678   2.351  2.6692 -2.6703 -0.5436
  498SOL     MW 1992   1.559   2.682   2.295  0.5722 -0.3096  0.4920
  499SOL     OW 1993   0.889   0.165   0.027  0.0902 -0.1403  0.0541
  499SOL    HW1 1994   0.834   0.158   0.107 -1.3163 -2.7914  0.1612
  499SOL    HW2 1995   0.916   0.069   0.009  0.2835  2.0973  0.4039
  499SOL     MW 1996   0.886   0.152   0.035 -0.0698 -0.1948  0.1144
  500SOL     OW 1997   1.019   2.433   2.803 -0.0525  0.3556 -0.2657
  500SOL    HW1 1998   1.063   2.403   2.884  0.1673 -0.3486 -0.2323
  500SOL    HW2 1999   0.973   2.518   2.825  2.0671  2.5286 -1.1476
  500SOL     MW 2000   1.019   2.440   2.817  0.2562  0.5494 -0.3777
  501SOL     OW 2001   1.752   2.271   3.073  0.3554  0.2492  0.2539
  501SOL    HW1 2002   1.722   2.352   3.118  0.3814 -0.7727 -0.1052
  501SOL    HW2 2003   1.827   2.235   3.118 -1.4634 -0.1388 -0.7883
  501SOL     MW 2004   1.758   2.277   3.085  0.1189  0.0632  0.0690
  502SOL     OW 2005   0.091   2.884   2.966 -0.7221  0.1566  0.8370
  502SOL    HW1 2006   0.064   2.794   2.936 -0.3813  0.7328  0.7364
  502SOL    HW2 2007   0.110   2.930   2.885 -2.8043 -0.9530  2.0957
  502SOL     MW 2008   0.090   2.878   2.951 -0.9519  0.0862  0.9898
  503SOL     OW 2009   1.169   2.603   2.028  0.2228  0.1399 -0.8375
  503SOL    HW1 2010   1.253   2.601   1.972  2.7186  0.0613  0.4335
  503SOL    HW2 2011   1.105   2.571   1.965  0.0044 -2.1469  0.0791
  503SOL     MW 2012   1.172   2.598   2.012  0.5233 -0.1722 -0.5489
  504SOL     OW 2013   0.096   2.633   2.063  0.3036 -0.4678 -0.0466
  504SOL    HW1 2014   0.185   2.605   2.048  0.4725 -3.7884  3.0043
  504SOL    HW2 2015   0.053   2.557   2.094 -0.1528  0.7016  0.2854
  504SOL     MW 2016   0.102   2.619   2.065  0.2656 -0.7516  0.3997
  505SOL     OW 2017   1.653   2.682   2.742  0.1475 -0.0915 -0.2595
  505SOL    HW1 2018   1.677   2.682   2.650 -0.3389  0.9763  0.4889
  505SOL    HW2 2019   1.599   2.763   2.754  0.0095  0.3688  0.9154
  505SOL     MW 2020   1.649   2.692   2.732  0.0652  0.1101 -0.0058
  506SOL     OW 2021   1.627   0.029   2.864 -0.1821 -0.3793  0.2271
  506SOL    HW1 2022   1.665  -0.012   2.946  1.2021  1.6435 -1.6976
  506SOL    HW2 2023   1.664  -0.022   2.785  1.9127 -0.8858 -1.2314
  506SOL     MW 2024   1.637   0.017   2.864  0.2769 -0.1792 -0.2193
  507SOL     OW 2025   0.939   2.679   2.847  0.4152  0.0689 -0.1246
  507SOL    HW1 2026   0.976   2.715   2.765 -0.9731 -1.9732  0.3553
  507SOL    HW2 2027   0.848   2.655   2.829  1.1400 -0.6060 -0.3994
  507SOL     MW 2028   0.932   2.681   2.833  0.3277 -0.2896 -0.0976
  508SOL     OW 2029   1.237   2.107   2.523 -0.1768  0.3357 -0.0946
  508SOL    HW1 2030   1.299   2.094   2.598  0.1153  0.3815  1.3584
  508SOL    HW2 2031   1.197   2.195   2.538  2.0706 -2.6823  0.8241
  508SOL     MW 2032   1.240   2.117   2.535  0.1583 -0.0564  0.2183
  509SOL     OW 2033   0.683   2.592   2.804 -0.0883 -0.0817  0.0203
  509SOL    HW1 2034   0.643   2.564   2.726 -0.3536  6.6933 -0.0717
  509SOL    HW2 2035   0.674   2.685   2.794  0.5361  0.6332 -2.2847
  509SOL     MW 2036   0.677   2.601   2.792 -0.0409  0.9065 -0.2960
  510SOL     OW 2037   1.588   2.595   1.645 -0.2352 -0.2465  0.4755
  510SOL    HW1 2038   1.583   2.671   1.579  1.9064  0.5572 -2.9705
  510SOL    HW2 2039   1.536   2.626   1.727  1.7318  2.0424 -3.3450
  510SOL     MW 2040   1.581   2.609   1.647  0.3068  0.1615 -0.4833
  511SOL     OW 2041   0.427   2.608   2.467 -0.0764  0.1819 -0.5000
  511SOL    HW1 2042   0.507   2.564   2.496  2.4264 -2.7636  0.7812
  511SOL    HW2 2043   0.431   2.642   2.374 -0.0481  2.0639  1.7035
  511SOL     MW 2044   0.438   2.607   2.458  0.2576  0.0416 -0.0402
  512SOL     OW 2045   0.981   2.030   2.845 -0.2328  0.0359 -0.6139
  512SOL    HW1 2046   0.897   2.076   2.856  1.6514 -0.0555 -0.5668
  512SOL    HW2 2047   0.990   1.955   2.904 -1.7377  1.3287 -1.1527
  512SOL     MW 2048   0.971   2.026   2.854 -0.1828  0.1944 -0.6788
  513SOL     OW 2049   1.629   2.446   2.207 -0.1186 -0.3710 -0.3770
  513SOL    HW1 2050   1.702   2.503   2.179  0.1843  0.1141  1.2782
  513SOL    HW2 2051   1.646   2.388   2.281  0.2172  0.0204  2.5587
  513SOL     MW 2052   1.641   2.446   2.213 -0.0344 -0.2554  0.2287
  514SOL     OW 2053   0.262   2.455   2.634 -0.1485  0.4727 -0.1721
  514SOL    HW1 2054   0.326   2.502   2.589 -1.1074  0.5536  0.0744
  514SOL    HW2 2055   0.310   2.419   2.706 -1.9051  1.9949 -1.7390
  514SOL     MW 2056   0.277   2.457   2.638 -0.5068  0.6842 -0.3463
  515SOL     OW 2057   1.087   2.045   1.965  0.3129 -0.7182  0.6134
  515SOL    HW1 2058   1.064   2.128   1.925  1.3733 -0.2013 -0.0464
  515SOL    HW2 2059   1.158   2.063   2.020  1.9363 -2.3365 -0.6059
  515SOL     MW 2060   1.094   2.058   1.967  0.6670 -0.8635  0.3655
  516SOL     OW 2061   1.451   2.447   3.020  0.4535 -0.3228  0.9339
  516SOL    HW1 2062   1.499   2.461   2.940  1.7496 -0.0925  0.8588
  516SOL    HW2 2063   1.357   2.451   3.002 -0.7436  0.5551  1.8498
  516SOL     MW 2064   1.445   2.449   3.007  0.4665 -0.1766  1.0448
  517SOL     OW 2065   0.559   2.416   2.271 -0.1933  0.0221 -0.3575
  517SOL    HW1 2066   0.490   2.475   2.305  0.4927  0.5919  0.2168
  517SOL    HW2 2067   0.545   2.363   2.191  1.7006 -2.2545 -0.8708
  517SOL     MW 2068   0.548   2.417   2.265  0.1471 -0.2031 -0.3495
  518SOL     OW 2069   1.864   0.097   0.029  0.1188  0.7562  0.0377
  518SOL    HW1 2070   1.824   0.170   0.077 -0.7351 -0.5664  2.5182
  518SOL    HW2 2071   1.800   0.023   0.025 -0.4767  0.9566 -2.2312
  518SOL     MW 2072   1.850   0.097   0.035 -0.0725  0.6081  0.0656
  519SOL     OW 2073   0.676   2.504   1.767  0.0101 -0.1178  0.5736
  519SOL    HW1 2074   0.682   2.415   1.727 -0.7856 -1.5954 -1.7836
  519SOL    HW2 2075   0.583   2.508   1.787 -0.9573 -1.9087  2.3400
  519SOL     MW 2076   0.665   2.493   1.764 -0.2225 -0.5491  0.4957
  520SOL     OW 2077   1.188   2.193   2.947  0.3181 -0.6432  0.5502
  520SOL    HW1 2078   1.120   2.130   2.920 -1.4156  1.2649 -0.8324
  520SOL    HW2 2079   1.242   2.143   3.009 -1.2602 -1.9764  0.2501
  520SOL     MW 2080   1.186   2.178   2.952 -0.1189 -0.5673  0.3282
  521SOL     OW 2081   1.750   2.017   2.199 -0.0861 -0.7137 -0.6783
  521SOL    HW1 2082   1.767   2.034   2.110  1.7755  0.9863  2.4214
  521SOL    HW2 2083   1.750   1.922   2.212 -1.1607 -1.6529  1.9183
  521SOL     MW 2084   1.752   2.007   2.189  0.0177 -0.6133  0.0733
  522SOL     OW 2085   2.924   2.515   2.270  0.2673  0.0826 -0.3055
  522SOL    HW1 2086   3.008   2.484   2.292  1.2645  1.0437  0.7920
  522SOL    HW2 2087   2.946   2.605   2.271  1.0362 -2.2032 -0.9645
  522SOL     MW 2088   2.938   2.523   2.273  0.5003 -0.0922 -0.2477
  523SOL     OW 2089   0.902   1.487   2.120 -0.1821  0.3860 -0.1228
  523SOL    HW1 2090   0.866   1.551   2.060  3.4338 -0.4187 -0.2554
  523SOL    HW2 2091   0.924   1.418   2.057 -0.6419 -1.0035  2.4076
  523SOL     MW 2092   0.900   1.486   2.104  0.2343  0.0965  0.1936
  524SOL     OW 2093   0.594   2.388   2.957 -0.3537 -0.1003  0.5255
  524SOL    HW1 2094   0.632   2.449   2.894  0.3924  0.2826  1.6720
  524SOL    HW2 2095   0.648   2.311   2.965  1.9759 -1.0259  1.4638
  524SOL     MW 2096   0.606   2.386   2.950  0.0521 -0.1719  0.8006
  525SOL     OW 2097   0.445   2.228   2.079  0.0446  0.0692 -0.0265
  525SOL    HW1 2098   0.396   2.167   2.139  0.5163  0.1635 -0.3957
  525SOL    HW2 2099   0.523   2.192   2.048 -3.5781  0.9925  1.0330
  525SOL     MW 2100   0.449   2.215   2.083 -0.3711  0.2034  0.0645
  526SOL     OW 2101   0.678   2.121   1.992  0.1147 -0.1134  0.0686
  526SOL    HW1 2102   0.685   2.141   1.890  0.4385 -3.3942 -0.8330
  526SOL    HW2 2103   0.750   2.162   2.036  1.2152 -0.7448  2.3891
  526SOL     MW 2104   0.688   2.129   1.985  0.3027 -0.6296  0.2558
  527SOL     OW 2105   1.330   2.005   2.095  0.3341  0.5620  0.3902
  527SOL    HW1 2106   1.333   1.985   2.186 -1.0369  2.8247  0.4297
  527SOL    HW2 2107   1.347   1.926   2.038  0.6555  0.8452 -0.8303
  527SOL     MW 2108   1.332   1.992   2.100  0.1956  0.8979  0.2344
  528SOL     OW 2109   0.682   2.941   2.912  0.6274 -0.5014 -0.3040
  528SOL    HW1 2110   0.675   3.032   2.932  1.5967  0.8143  1.9029
  528SOL    HW2 2111   0.645   2.930   2.818  1.5715 -1.1423 -2.4086
  528SOL     MW 2112   0.676   2.951   2.902  0.8799 -0.4124 -0.2905
  529SOL     OW 2113   1.023   2.288   1.854  0.3916  0.2804 -0.3022
  529SOL    HW1 2114   1.066   2.325   1.936  1.6870  0.2400  0.2920
  529SOL    HW2 2115   1.065   2.333   1.782  2.1374 -2.3144  4.0038
  529SOL     MW 2116   1.034   2.299   1.855  0.7929 -0.0673  0.3443
  530SOL     OW 2117   1.152   2.440   3.039  0.6135 -0.3634  0.0642
  530SOL    HW1 2118   1.069   2.468   3.084  2.8372  2.3969  3.4238
  530SOL    HW2 2119   1.147   2.345   3.040 -1.9004 -1.8730  1.2833
  530SOL     MW 2120   1.141   2.431   3.045  0.5752 -0.1984  0.6683
  531SOL     OW 2121   0.994   1.897   2.613  0.0203 -0.0246  0.0526
  531SOL    HW1 2122   0.989   1.959   2.683  0.4499 -2.4778 -1.2622
  531SOL    HW2 2123   0.963   1.816   2.654  0.2069  1.1402  0.3997
  531SOL     MW 2124   0.989   1.895   2.628  0.1016 -0.1946 -0.0751
  532SOL     OW 2125   1.717   0.319   2.862  0.1250  0.5972  0.4974
  532SOL    HW1 2126   1.679   0.249   2.910 -2.9882  0.5813  2.4204
  532SOL    HW2 2127   1.822   0.325   2.893  1.9719  0.7982  0.9302
  532SOL     MW 2128   1.726   0.311   2.872 -0.0420  0.6216  0.8082
  533SOL     OW 2129   1.806   2.680   2.984  1.0307  0.7123  0.5282
  533SOL    HW1 2130   1.774   2.614   3.049  0.9905 -2.7252 -1.4653
  533SOL    HW2 2131   1.757   2.674   2.896 -0.3390  0.2826 -2.3502
  533SOL     MW 2132   1.796   2.671   2.981  0.8447  0.2021 -0.1146
  534SOL     OW 2133   1.788   2.336   2.448  0.7595 -0.0977 -0.0729
  534SOL    HW1 2134   1.708   2.323   2.502 -2.0788  0.4206  0.6929
  534SOL    HW2 2135   1.862   2.341   2.511 -2.1376 -0.9377 -0.2598
  534SOL     MW 2136   1.787   2.335   2.463  0.0028 -0.1401  0.0035
  535SOL     OW 2137   1.828   2.349   1.965 -0.1021  0.6338  0.0599
  535SOL    HW1 2138   1.805   2.368   1.873  1.5282 -0.4072  0.3033
  535SOL    HW2 2139   1.922   2.364   1.962 -1.9392  0.1777  0.5645
  535SOL     MW 2140   1.837   2.353   1.952 -0.1294  0.4363  0.1586
  536SOL     OW 2141   0.448   1.846   2.018 -0.1498  0.4185 -0.1459
  536SOL    HW1 2142   0.455   1.808   1.931 -0.2497 -0.5902  0.2776
  536SOL    HW2 2143   0.507   1.923   2.014 -1.1777 -0.8642  3.0960
  536SOL     MW 2144   0.457   1.851   2.006 -0.2986  0.1162  0.3377
  537SOL     OW 2145   1.082   0.171   2.882 -0.5082 -0.9737 -0.1329
  537SOL    HW1 2146   1.018   0.153   2.948  2.0922 -1.2272 -2.6091
  537SOL    HW2 2147   1.084   0.266   2.870 -1.4074 -0.0353  1.8464
  537SOL     MW 2148   1.074   0.181   2.889 -0.2837 -0.8833 -0.1984
  538SOL     OW 2149   1.363   0.051   2.965 -0.5136 -0.1530 -0.0998
  538SOL    HW1 2150   1.340   0.143   2.967 -1.0650 -0.6041  0.0288
  538SOL    HW2 2151   1.450   0.044   2.921  1.3113 -0.9575  0.9557
  538SOL     MW 2152   1.372   0.062   2.960 -0.3456 -0.3187  0.0564
  539SOL     OW 2153   0.768   2.754   2.548 -0.2173  0.2466  0.6089
  539SOL    HW1 2154   0.867   2.777   2.559  1.2088  0.8865 -0.8061
  539SOL    HW2 2155   0.774   2.656   2.540 -1.9665  0.9141  1.5572
  539SOL     MW 2156   0.782   2.744   2.548 -0.2599  0.4191  0.5473
  540SOL     OW 2157   0.329   2.331   2.882 -0.0516  0.7331 -0.5085
  540SOL    HW1 2158   0.413   2.364   2.920  1.2234  3.9765  0.1608
  540SOL    HW2 2159   0.301   2.262   2.940  2.2746 -1.2255 -2.3171
  540SOL     MW 2160   0.337   2.326   2.895  0.4235  0.9026 -0.6588
  541SOL     OW 2161   0.163   2.917   2.189  0.3937  0.5276  0.3155
  541SOL    HW1 2162   0.184   2.857   2.115 -2.2426 -1.2197  0.7209
  541SOL    HW2 2163   0.198   2.879   2.270  2.2849  2.6388 -0.2197
  541SOL     MW 2164   0.171   2.904   2.190  0.2954  0.5756  0.2984
  542SOL     OW 2165   1.047   2.290   2.575 -0.5864 -0.3659 -0.0692
  542SOL    HW1 2166   0.981   2.225   2.583  3.1238  1.1422 -0.5918
  542SOL    HW2 2167   1.040   2.338   2.660  1.4282 -1.0966 -0.3611
  542SOL     MW 2168   1.038   2.288   2.587  0.1690 -0.2633 -0.1767
  543SOL     OW 2169   1.435   2.491   2.746  0.0350 -0.4238  0.0785
  543SOL    HW1 2170   1.448   2.411   2.692 -0.5973  1.0144 -0.6227
  543SOL    HW2 2171   1.509   2.554   2.735  2.4168  1.1152  2.4089
  543SOL     MW 2172   1.447   2.489   2.738  0.2658 -0.0310  0.2934
  544SOL     OW 2173   0.596   0.240   2.683  0.2602 -0.0866 -0.2409
  544SOL    HW1 2174   0.525   0.201   2.733  2.9487  2.3072 -2.3755
  544SOL    HW2 2175   0.638   0.172   2.631  0.6755 -1.0668 -0.1043
  544SOL     MW 2176   0.592   0.226   2.683  0.6697  0.0999 -0.5045
  545SOL     OW 2177   1.530   2.201   2.310  0.2195 -0.0672  0.8885
  545SOL    HW1 2178   1.496   2.255   2.240 -0.5534  0.2751  0.0520
  545SOL    HW2 2179   1.604   2.153   2.265  1.0867  0.3542  0.4264
  545SOL     MW 2180   1.536   2.202   2.295  0.2320  0.0336  0.7172
  546SOL     OW 2181   2.952   2.052   0.142 -0.1541  0.0700  0.1112
  546SOL    HW1 2182   2.945   2.140   0.088 -0.3057 -3.0347  0.1087
  546SOL    HW2 2183   3.029   2.000   0.116 -0.3906 -2.2293  0.2059
  546SOL     MW 2184   2.961   2.057   0.131 -0.2053 -0.6430  0.1234
  547SOL     OW 2185   0.261   2.970   0.115 -0.2288 -0.4683  0.5428
  547SOL    HW1 2186   0.326   3.024   0.062  3.5960  2.4416 -1.2019
  547SOL    HW2 2187   0.265   2.882   0.076  0.9069 -2.2173  1.0807
  547SOL     MW 2188   0.270   2.965   0.103  0.4257 -0.3151  0.3836
  548SOL     OW 2189   0.277   2.550   0.253 -0.0236  0.3838  0.3641
  548SOL    HW1 2190   0.248   2.608   0.183  0.3795 -0.4226  0.2262
  548SOL    HW2 2191   0.232   2.467   0.221 -0.1562  0.6314 -4.7338
  548SOL     MW 2192   0.267   2.547   0.239  0.0121  0.3101 -0.3267
  549SOL     OW 2193   0.800   1.887   2.115  0.2359  0.5667 -0.0857
  549SOL    HW1 2194   0.783   1.959   2.062  0.2490 -1.9940 -0.8131
  549SOL    HW2 2195   0.748   1.900   2.195  0.8652 -2.8245  0.9879
  549SOL     MW 2196   0.791   1.898   2.118  0.3206 -0.2186 -0.0400
  550SOL     OW 2197   1.799   1.735   2.530 -0.0912 -0.5941  0.0984
  550SOL    HW1 2198   1.767   1.731   2.437 -0.4274  0.5271 -3.6259
  550SOL    HW2 2199   1.749   1.812   2.560 -0.7031  2.0732 -1.1223
  550SOL     MW 2200   1.788   1.745   2.521 -0.2163 -0.0943 -0.5541
  551SOL     OW 2201   0.889   2.307   0.212 -0.2586 -0.4044  0.3351
  551SOL    HW1 2202   0.977   2.324   0.182 -1.5156 -0.8224 -0.5723
  551SOL    HW2 2203   0.876   2.217   0.182 -1.6100  0.9820  0.9110
  551SOL     MW 2204   0.899   2.297   0.204 -0.6028 -0.2766  0.2914
  552SOL     OW 2205   1.748   1.730   2.252  0.4384  0.3423  0.2486
  552SOL    HW1 2206   1.658   1.703   2.257 -2.1804 -0.6923  2.6108
  552SOL    HW2 2207   1.781   1.686   2.167 -0.2350 -0.7936 -1.3246
  552SOL     MW 2208   1.740   1.721   2.241  0.0040  0.0559  0.3527
  553SOL     OW 2209   1.189   2.324   1.472 -0.3177  0.1281  0.1073
  553SOL    HW1 2210   1.221   2.234   1.474 -0.6324  0.7670 -0.5036
  553SOL    HW2 2211   1.268   2.360   1.441  0.2892 -0.3163 -0.9583
  553SOL     MW 2212   1.204   2.316   1.468 -0.2792  0.1538 -0.1139
  554SOL     OW 2213   0.557   2.899   2.682 -0.2600  0.2424 -0.2823
  554SOL    HW1 2214   0.500   2.967   2.649 -1.5177  1.4370  0.1603
  554SOL    HW2 2215   0.621   2.861   2.616  1.2420  1.4482  0.8844
  554SOL     MW 2216   0.558   2.903   2.669 -0.2278  0.5591 -0.0699
  555SOL     OW 2217   0.620   2.438   2.572  0.3257  0.1000 -0.2774
  555SOL    HW1 2218   0.585   2.347   2.567 -0.2866  0.1275  1.1277
  555SOL    HW2 2219   0.714   2.444   2.534  2.1173 -1.9442  0.0663
  555SOL     MW 2220   0.628   2.427   2.566  0.4813 -0.1661 -0.0466
  556SOL     OW 2221   0.931   1.769   0.132  0.4912  0.1446  0.1230
  556SOL    HW1 2222   0.979   1.777   0.049  0.9094  1.6928  0.5906
  556SOL    HW2 2223   0.991   1.804   0.196  0.6727 -0.2618  0.4324
  556SOL     MW 2224   0.945   1.775   0.129  0.5703  0.2953  0.2255
  557SOL     OW 2225   0.966   2.696   0.492 -0.0944 -0.1364  0.0092
  557SOL    HW1 2226   1.001   2.667   0.412 -2.1218 -0.5333  1.6988
  557SOL    HW2 2227   0.894   2.748   0.460  2.6350  0.7905 -1.0641
  557SOL     MW 2228   0.961   2.699   0.477 -0.0018 -0.0665  0.0905
  558SOL     OW 2229   0.286   2.142   0.021 -0.1706 -0.2176  0.0795
  558SOL    HW1 2230   0.228   2.062   0.021 -2.0725 -1.6686 -1.0606
  558SOL    HW2 2231   0.229   2.213   0.055 -0.5457  1.6923  0.1776
  558SOL     MW 2232   0.271   2.141   0.025 -0.4710 -0.1570 -0.0580
  559SOL     OW 2233   1.088   2.319   2.113 -0.5644 -0.0148  0.1949
  559SOL    HW1 2234   1.117   2.390   2.171 -0.3823 -0.8084 -0.2796
  559SOL    HW2 2235   1.097   2.237   2.154 -1.2840 -2.3378 -2.8384
  559SOL     MW 2236   1.093   2.318   2.126 -0.6353 -0.4260 -0.2679
  560SOL     OW 2237   1.929   2.840   0.056 -0.4278 -0.3425 -0.3808
  560SOL    HW1 2238   1.989   2.896   0.000  1.8420  0.2105 -0.8286
  560SOL    HW2 2239   1.890   2.770   0.001  0.6554 -2.2225 -1.0304
  560SOL     MW 2240   1.932   2.838   0.042  0.0146 -0.5176 -0.5256
  561SOL     OW 2241   0.456   2.138   0.212 -0.1239 -0.2023 -0.4281
  561SOL    HW1 2242   0.397   2.151   0.132 -2.1908  4.7354 -0.3117
  561SOL    HW2 2243   0.476   2.230   0.240 -3.0293  1.5528 -2.0207
  561SOL     MW 2244   0.450   2.152   0.205 -0.7799  0.6807 -0.6229
  562SOL     OW 2245   0.827   2.186   2.230 -0.2572  0.0344  0.0154
  562SOL    HW1 2246   0.877   2.252   2.275 -2.0630  0.2725 -1.8209
  562SOL    HW2 2247   0.891   2.117   2.230 -1.8708  1.0328 -0.0526
  562SOL     MW 2248   0.842   2.186   2.236 -0.7084  0.1975 -0.2358
  563SOL     OW 2249   1.121   0.312   0.592  0.0367 -0.0233 -0.6193
  563SOL    HW1 2250   1.049   0.264   0.544 -2.7720  0.4392  2.1896
  563SOL    HW2 2251   1.187   0.244   0.613  0.6831  0.0466  1.4818
  563SOL     MW 2252   1.120   0.297   0.588 -0.2486  0.0469  0.0285
  564SOL     OW 2253   1.043   2.586   2.283 -0.6834  0.6351 -0.5720
  564SOL    HW1 2254   1.085   2.603   2.194 -0.5788 -1.6138  0.8776
  564SOL    HW2 2255   1.119   2.595   2.342 -0.5878 -0.1593 -0.5271
  564SOL     MW 2256   1.058   2.590   2.279 -0.6570  0.2335 -0.3748
  565SOL     OW 2257   2.894   2.694   2.638  0.2531 -0.3879  0.3621
  565SOL    HW1 2258   2.955   2.765   2.611  2.7808 -0.1907 -2.0298
  565SOL    HW2 2259   2.804   2.700   2.597 -0.3142 -1.2155 -0.2417
  565SOL     MW 2260   2.890   2.705   2.629  0.5118 -0.4711 -0.0331
  566SOL     OW 2261   2.135   1.870   2.426  0.4840  0.2264 -0.3344
  566SOL    HW1 2262   2.116   1.805   2.360  0.1905 -1.7401  2.2355
  566SOL    HW2 2263   2.208   1.925   2.387  0.3188 -3.7549 -0.7450
  566SOL     MW 2264   2.142   1.869   2.412  0.4235 -0.5583 -0.0495
  567SOL     OW 2265   1.177   2.972   2.967  0.8637  0.0327 -0.5603
  567SOL    HW1 2266   1.255   3.040   2.982  0.9265  0.1757 -2.2809
  567SOL    HW2 2267   1.218   2.882   2.960 -1.9774 -3.5709  1.3687
  567SOL     MW 2268   1.193   2.969   2.968  0.4971 -0.4239 -0.5328
  568SOL     OW 2269   1.628   2.107   2.892  0.4749  0.0843 -0.3546
  568SOL    HW1 2270   1.686   2.157   2.946  0.0426 -1.2146 -2.0676
  568SOL    HW2 2271   1.684   2.043   2.840  1.7632  1.5374  0.0963
  568SOL     MW 2272   1.643   2.105   2.892  0.5879  0.1046 -0.5212
  569SOL     OW 2273   0.210   2.246   2.474 -0.4172 -0.0571 -0.3492
  569SOL    HW1 2274   0.164   2.294   2.396  1.2941  1.3268  0.8545
  569SOL    HW2 2275   0.222   2.314   2.544  0.6651 -0.4295  1.5237
  569SOL     MW 2276   0.206   2.262   2.473 -0.0486  0.0763  0.0568
  570SOL     OW 2277   1.466   0.407   0.477 -0.0175 -0.4145 -0.1274
  570SOL    HW1 2278   1.393   0.448   0.527 -0.9735 -1.4754 -1.1311
  570SOL    HW2 2279   1.539   0.390   0.539  1.2935 -3.5256 -0.6925
  570SOL     MW 2280   1.466   0.410   0.492  0.0294 -0.9649 -0.3344
  571SOL     OW 2281   1.478   2.402   1.985 -0.2671  0.3685 -0.1714
  571SOL    HW1 2282   1.535   2.429   2.056  1.8147  1.3790  0.5440
  571SOL    HW2 2283   1.499   2.313   1.957 -0.5071 -3.0471 -0.5154
  571SOL     MW 2284   1.488   2.394   1.991 -0.0241  0.0512 -0.1224
  572SOL     OW 2285   0.919   2.585   0.032 -0.1450  0.3446  0.1927
  572SOL    HW1 2286   0.899   2.615  -0.057  1.8279 -0.9263 -2.5626
  572SOL    HW2 2287   0.838   2.547   0.064 -2.1367  2.1772 -1.5220
  572SOL     MW 2288   0.905   2.584   0.024 -0.1475  0.4187 -0.3971
  573SOL     OW 2289   1.194   2.366   0.267 -0.0176 -0.2344  0.1095
  573SOL    HW1 2290   1.280   2.361   0.221 -3.9948  0.3628  0.7904
  573SOL    HW2 2291   1.168   2.460   0.267  0.3369  2.4683 -0.6356
  573SOL     MW 2292   1.202   2.378   0.261 -0.4956  0.2010  0.1010
  574SOL     OW 2293   1.104   2.639   0.244  0.8954  0.1950 -0.2252
  574SOL    HW1 2294   1.161   2.711   0.263 -1.6025 -1.4350  2.4801
  574SOL    HW2 2295   1.043   2.657   0.174  1.8973 -1.1023  3.2517
  574SOL     MW 2296   1.103   2.651   0.238  0.6981 -0.1912  0.5905
  575SOL     OW 2297   0.027   2.321   1.790  0.2652 -0.8756  0.2771
  575SOL    HW1 2298   0.044   2.240   1.741  0.8931 -0.9525  1.9080
  575SOL    HW2 2299   0.060   2.390   1.733 -0.2849  0.5075  1.7122
  575SOL     MW 2300   0.034   2.319   1.776  0.2754 -0.7032  0.6816
  576SOL     OW 2301   2.874   1.798   2.048 -0.3879  0.0068  0.3452
  576SOL    HW1 2302   2.912   1.866   1.988 -0.0181  1.1627 -1.2240
  576SOL    HW2 2303   2.791   1.780   2.001 -0.8289 -1.0664  1.8723
  576SOL     MW 2304   2.868   1.804   2.033 -0.3973  0.0177  0.3397
  577SOL     OW 2305   2.112   0.224   0.068 -0.5450 -0.1870  0.4349
  577SOL    HW1 2306   2.057   0.218  -0.012 -0.8866 -1.9331 -1.6472
  577SOL    HW2 2307   2.056   0.196   0.148 -1.4426 -1.4010 -2.9341
  577SOL     MW 2308   2.098   0.219   0.068 -0.7085 -0.5776 -0.2843
  578SOL     OW 2309   1.918   2.026   2.431 -0.3273  0.3037  0.1892
  578SOL    HW1 2310   1.858   2.011   2.359 -0.9001  0.2803 -1.3445
  578SOL    HW2 2311   1.991   1.968   2.414 -0.7178  0.7396 -1.7643
  578SOL     MW 2312   1.920   2.017   2.420 -0.4544  0.3581 -0.2709
  579SOL     OW 2313   0.877   2.494   2.480  0.2877 -0.4002 -0.6381
  579SOL    HW1 2314   0.921   2.415   2.523  0.8635 -1.7180  0.2693
  579SOL    HW2 2315   0.943   2.534   2.418  0.3534  2.1279  0.4727
  579SOL     MW 2316   0.892   2.489   2.478  0.3724 -0.2405 -0.3719
  580SOL     OW 2317   0.914   3.002   3.099  0.2660 -0.1103 -0.9625
  580SOL    HW1 2318   1.010   2.980   3.086  0.4635  0.4761  2.3053
  580SOL    HW2 2319   0.868   2.961   3.021 -0.4102 -0.6922 -1.6815
  580SOL     MW 2320   0.921   2.994   3.087  0.2029 -0.1097 -0.6262
  581SOL     OW 2321   1.176   2.458   1.706  0.8577  0.1216 -0.3796
  581SOL    HW1 2322   1.258   2.492   1.745 -2.5783  1.2139  0.2997
  581SOL    HW2 2323   1.187   2.426   1.617 -1.1947  1.1066  0.3966
  581SOL     MW 2324   1.189   2.458   1.700  0.1336  0.3957 -0.1875
  582SOL     OW 2325   3.075   2.880   2.542  0.3536  0.0685 -0.1826
  582SOL    HW1 2326   3.049   2.964   2.577  1.7374 -1.2547 -0.9659
  582SOL    HW2 2327   3.168   2.871   2.553  0.5917  1.5181  1.0957
  582SOL     MW 2328   3.084   2.890   2.548  0.5676  0.0852 -0.1173
  583SOL     OW 2329   2.017   2.364   2.701  0.2070  0.0337  0.6001
  583SOL    HW1 2330   2.096   2.368   2.643  0.5073 -0.0851 -2.2510
  583SOL    HW2 2331   1.999   2.272   2.726  1.7412 -0.6445 -0.0968
  583SOL     MW 2332   2.025   2.352   2.697  0.4490 -0.0715  0.1320
  584SOL     OW 2333   0.189   1.860   2.152  0.7195 -0.5363  1.0147
  584SOL    HW1 2334   0.250   1.858   2.081 -0.1786 -0.8517  4.1208
  584SOL    HW2 2335   0.224   1.937   2.202  2.0981 -0.0365  0.5305
  584SOL     MW 2336   0.202   1.870   2.149  0.7829 -0.5119  1.3607
  585SOL     OW 2337   1.442   2.647   0.140  0.2912  0.2522  0.4962
  585SOL    HW1 2338   1.428   2.598   0.053  0.6140 -1.5859 -1.2786
  585SOL    HW2 2339   1.354   2.657   0.167 -1.1730 -0.8181  1.6728
  585SOL     MW 2340   1.429   2.642   0.132  0.1406 -0.1315  0.4173
  586SOL     OW 2341   1.401   2.814   2.508 -0.2798  0.0063  0.2516
  586SOL    HW1 2342   1.455   2.782   2.438 -0.3283  3.1818  0.2167
  586SOL    HW2 2343   1.392   2.905   2.488 -1.7142  2.8357  2.0359
  586SOL     MW 2344   1.407   2.822   2.496 -0.4755  0.7986  0.4824
  587SOL     OW 2345   1.312   1.571   2.187 -0.3274  0.1040 -0.6253
  587SOL    HW1 2346   1.296   1.495   2.246  0.5337 -0.1589  0.5448
  587SOL    HW2 2347   1.308   1.529   2.104  2.9317 -4.0680  1.3045
  587SOL     MW 2348   1.310   1.556   2.184  0.2162 -0.4811 -0.2163
  588SOL     OW 2349   1.388   2.140   2.769 -0.6026 -0.2827  0.6551
  588SOL    HW1 2350   1.463   2.137   2.841 -1.8992 -2.3485 -2.1468
  588SOL    HW2 2351   1.316   2.180   2.816 -0.0946  3.2014 -0.4483
  588SOL     MW 2352   1.389   2.145   2.785 -0.7066 -0.0956  0.1398
  589SOL     OW 2353   1.278   2.055   0.063  0.0348  0.1725 -0.0996
  589SOL    HW1 2354   1.319   2.121   0.121  0.7086 -1.5282  2.1146
  589SOL    HW2 2355   1.225   2.003   0.124  0.1891 -0.4795 -1.5869
  589SOL     MW 2356   1.277   2.057   0.079  0.1441 -0.1379 -0.0037
  590SOL     OW 2357   0.419   2.703   2.224 -0.1106  0.7093 -0.0462
  590SOL    HW1 2358   0.430   2.660   2.138 -2.1098 -0.0214  2.4301
  590SOL    HW2 2359   0.506   2.749   2.226 -0.5112  1.0984  1.2888
  590SOL     MW 2360   0.432   2.703   2.213 -0.4272  0.6642  0.4566
  591SOL     OW 2361   2.285   0.707   0.005  0.0811 -0.1841  0.6609
  591SOL    HW1 2362   2.217   0.769  -0.010  0.2113 -1.3342 -1.0173
  591SOL    HW2 2363   2.364   0.736  -0.061  1.0312  0.3632 -2.3371
  591SOL     MW 2364   2.287   0.719  -0.006  0.2236 -0.2636  0.0439
  592SOL     OW 2365   1.796   2.976   0.839  0.0322  0.1846  0.1791
  592SOL    HW1 2366   1.789   3.047   0.770 -2.6544  1.3641 -0.5545
  592SOL    HW2 2367   1.838   2.903   0.790  1.8097 -1.7605  1.6742
  592SOL     MW 2368   1.801   2.976   0.823 -0.0877  0.0836  0.2796
  593SOL     OW 2369   1.948   0.704   0.885  0.0619  0.1921  0.0544
  593SOL    HW1 2370   1.892   0.714   0.809  1.3563 -0.9890 -1.2431
  593SOL    HW2 2371   1.972   0.612   0.882  2.3399  0.8404 -1.5603
  593SOL     MW 2372   1.943   0.693   0.874  0.5333  0.1218 -0.3299
  594SOL     OW 2373   2.829   1.159   1.346  0.1844 -0.1560 -0.1391
  594SOL    HW1 2374   2.919   1.188   1.356  1.2802 -1.4159 -1.6082
  594SOL    HW2 2375   2.836   1.103   1.265 -2.8290 -0.4545 -2.0118
  594SOL     MW 2376   2.842   1.155   1.336 -0.0686 -0.3616 -0.5800
  595SOL     OW 2377   0.483   0.966   0.803 -0.6136  0.6926  0.1682
  595SOL    HW1 2378   0.524   1.026   0.744  2.3857 -0.1687 -0.9975
  595SOL    HW2 2379   0.478   1.017   0.886 -0.2386 -0.2394  4.8352
  595SOL     MW 2380   0.488   0.981   0.806 -0.1684  0.4560  0.6302
  596SOL     OW 2381   2.477   1.338   0.553 -0.6495 -0.3164  0.1686
  596SOL    HW1 2382   2.541   1.407   0.520  2.6224  1.8520  0.2537
  596SOL    HW2 2383   2.502   1.305   0.642  0.0440 -1.5625  0.5760
  596SOL     MW 2384   2.489   1.343   0.561 -0.1263 -0.1947  0.2335
  597SOL     OW 2385   2.177   0.716   1.580 -0.1388  0.0709  0.8020
  597SOL    HW1 2386   2.208   0.648   1.644  0.0618 -1.3449 -0.9428
  597SOL    HW2 2387   2.116   0.670   1.513 -0.8744  1.5223 -0.0797
  597SOL     MW 2388   2.173   0.701   1.580 -0.2094  0.0756  0.4554
  598SOL     OW 2389   2.597   0.989   2.843 -0.0496  0.3099  0.2450
  598SOL    HW1 2390   2.615   0.972   2.748 -1.2224  2.0678  2.0258
  598SOL    HW2 2391   2.674   1.036   2.874 -2.0205  1.1753  1.6041
  598SOL     MW 2392   2.610   0.993   2.835 -0.4644  0.6560  0.6593
  599SOL     OW 2393   2.964   0.443   2.048  0.1743  0.4855 -0.0712
  599SOL    HW1 2394   2.937   0.467   2.136  0.2613  0.1386 -1.2670
  599SOL    HW2 2395   3.010   0.529   2.016  1.9114  0.1606  1.2449
  599SOL     MW 2396   2.967   0.457   2.055  0.4150  0.3968 -0.0553
  600SOL     OW 2397   1.929   1.653   0.863 -0.4917 -0.9558  0.3863
  600SOL    HW1 2398   1.978   1.717   0.918  1.6788  1.8709 -2.3555
  600SOL    HW2 2399   1.853   1.714   0.854  0.4127 -0.2296  0.1849
  600SOL     MW 2400   1.925   1.669   0.869 -0.0860 -0.4870 -0.0020
  601SOL     OW 2401   2.532   0.817   0.827  0.2280 -0.1328 -0.3297
  601SOL    HW1 2402   2.537   0.824   0.923 -3.2507 -1.2542  4.1856
  601SOL    HW2 2403   2.462   0.753   0.809 -0.5988  0.5281 -0.6400
  601SOL     MW 2404   2.524   0.809   0.837 -0.3401 -0.1935  0.2251
  602SOL     OW 2405   2.343   1.924   0.850  1.0406 -0.4113  0.4647
  602SOL    HW1 2406   2.299   1.837   0.855  1.6809 -0.3051  0.3617
  602SOL    HW2 2407   2.273   1.977   0.816  1.2304 -0.1209  0.8927
  602SOL     MW 2408   2.328   1.919   0.846  1.1502 -0.3590  0.5076
  603SOL     OW 2409   3.067   1.400   1.806  0.0099 -0.2946 -0.4607
  603SOL    HW1 2410   3.115   1.446   1.876 -0.9132  0.6450  1.4812
  603SOL    HW2 2411   3.045   1.312   1.825  0.1797  0.2972 -1.0477
  603SOL     MW 2412   3.070   1.395   1.817 -0.0895 -0.0926 -0.2819
  604SOL     OW 2413   2.169   1.574   0.479  0.3496  0.0081 -0.3438
  604SOL    HW1 2414   2.176   1.480   0.507  0.9073 -0.8874 -1.6210
  604SOL    HW2 2415   2.077   1.606   0.515  0.2714  0.3632  0.6473
  604SOL     MW 2416   2.157   1.566   0.488  0.4128 -0.0632 -0.3815
  605SOL     OW 2417   2.611   1.549   0.827  0.1269 -0.3412  0.1797
  605SOL    HW1 2418   2.577   1.618   0.767  0.8024  2.1796 -2.3494
  605SOL    HW2 2419   2.596   1.463   0.783 -0.8065 -2.5709  0.6558
  605SOL     MW 2420   2.605   1.547   0.814  0.0929 -0.3028 -0.0912
  606SOL     OW 2421   2.550   1.833   1.927 -1.0119 -0.3343  0.7703
  606SOL    HW1 2422   2.458   1.845   1.921 -0.5800  0.7268  0.8286
  606SOL    HW2 2423   2.581   1.762   1.871 -0.4619 -0.5044  0.6313
  606SOL     MW 2424   2.542   1.825   1.919 -0.8823 -0.2167  0.7596
  607SOL     OW 2425   2.386   1.055   3.043  0.4925  0.4783 -0.0551
  607SOL    HW1 2426   2.466   1.026   3.004 -0.1389 -0.3651  0.0667
  607SOL    HW2 2427   2.385   1.029   3.141  1.7144 -1.1472  1.0552
  607SOL     MW 2428   2.396   1.048   3.051  0.5704  0.1526  0.1074
  608SOL     OW 2429   1.888   0.283   0.636 -0.1539  0.0051 -0.3237
  608SOL    HW1 2430   1.881   0.314   0.545  0.2929 -1.7550  1.8533
  608SOL    HW2 2431   1.851   0.192   0.632 -2.3259 -0.4235 -0.0430
  608SOL     MW 2432   1.882   0.275   0.624 -0.3816 -0.2836  0.0006
  609SOL     OW 2433   2.039   2.027   3.050 -0.4192 -0.2577 -0.3148
  609SOL    HW1 2434   1.973   1.960   3.029 -2.1666 -0.5623  1.1558
  609SOL    HW2 2435   2.099   1.977   3.107 -0.8013  1.4868 -2.5563
  609SOL     MW 2436   2.038   2.012   3.055 -0.7002 -0.0677 -0.4165
  610SOL     OW 2437   1.782   0.998   1.280 -0.4736  0.1458  0.5913
  610SOL    HW1 2438   1.789   0.927   1.212  1.4671  2.1323  0.7521
  610SOL    HW2 2439   1.689   1.002   1.308  0.0745 -1.8666  0.6113
  610SOL     MW 2440   1.771   0.989   1.274 -0.1452  0.1424  0.6151
  611SOL     OW 2441   2.520   1.786   0.677 -0.4485  0.0940  0.2355
  611SOL    HW1 2442   2.470   1.825   0.748 -2.4248  0.0719  0.1567
  611SOL    HW2 2443   2.504   1.818   0.588  1.7420 -0.1501 -2.7999
  611SOL     MW 2444   2.511   1.795   0.674 -0.4203  0.0589 -0.1754
  612SOL     OW 2445   2.791   2.831   0.421  0.0785 -0.3014  0.0807
  612SOL    HW1 2446   2.827   2.899   0.480  2.1588 -1.6528 -1.2829
  612SOL    HW2 2447   2.869   2.795   0.377 -1.5811 -0.8682 -2.8253
  612SOL     MW 2448   2.806   2.835   0.423  0.1340 -0.5545 -0.4827
  613SOL     OW 2449   1.490   0.999   0.961 -0.0480 -0.6635  0.2149
  613SOL    HW1 2450   1.482   1.088   0.987 -3.0343 -1.8633  0.2609
  613SOL    HW2 2451   1.524   0.954   1.038 -0.1063 -2.4273 -0.3664
  613SOL     MW 2452   1.494   1.005   0.975 -0.4497 -1.0545  0.1443
  614SOL     OW 2453   2.003   0.561   1.445 -0.4936  0.1925 -0.5981
  614SOL    HW1 2454   1.983   0.484   1.499  2.1063  0.3454  0.7520
  614SOL    HW2 2455   1.954   0.559   1.360 -0.0604 -3.2470 -0.6069
  614SOL     MW 2456   1.994   0.550   1.441 -0.0934 -0.2411 -0.4211
  615SOL     OW 2457   2.384   0.718   0.280  0.4242  0.0337 -0.8366
  615SOL    HW1 2458   2.451   0.652   0.302  0.0285  0.9304  0.3369
  615SOL    HW2 2459   2.357   0.711   0.189 -0.1145  0.9732  0.1550
  615SOL     MW 2460   2.390   0.708   0.271  0.3009  0.2759 -0.5510
  616SOL     OW 2461   2.487   0.412   1.593 -0.2499 -1.0602  0.5044
  616SOL    HW1 2462   2.436   0.344   1.549 -1.0106 -0.6566 -1.9631
  616SOL    HW2 2463   2.474   0.487   1.531 -0.8503 -1.7008 -1.0286
  616SOL     MW 2464   2.479   0.413   1.579 -0.4295 -1.0915 -0.0234
  617SOL     OW 2465   2.913   0.581   1.739 -0.5019  0.6391  0.1951
  617SOL    HW1 2466   2.843   0.575   1.806 -0.9212 -1.6180 -1.6161
  617SOL    HW2 2467   2.910   0.504   1.685 -3.0923  1.6710 -0.3128
  617SOL     MW 2468   2.904   0.570   1.741 -0.8990  0.4774 -0.1109
  618SOL     OW 2469   2.774   0.370   1.869 -0.1760  0.2753 -0.3424
  618SOL    HW1 2470   2.708   0.432   1.896  1.2990  2.3388 -0.5400
  618SOL    HW2 2471   2.849   0.375   1.925  0.2578 -1.3150 -1.4019
  618SOL     MW 2472   2.775   0.379   1.880  0.0758  0.3378 -0.5083
  619SOL     OW 2473   2.669   0.665   0.123 -0.7640 -0.4946 -0.0484
  619SOL    HW1 2474   2.697   0.740   0.173 -0.5921  0.0784 -0.2460
  619SOL    HW2 2475   2.653   0.603   0.194  1.2482 -0.9697  1.4758
  619SOL     MW 2476   2.671   0.667   0.139 -0.4758 -0.4817  0.1266
  620SOL     OW 2477   2.283   1.045   1.017 -0.4803  0.5105  0.5021
  620SOL    HW1 2478   2.344   1.024   0.946 -0.4585 -2.7382 -0.3129
  620SOL    HW2 2479   2.208   0.986   0.999 -3.1630 -0.9929  1.4127
  620SOL     MW 2480   2.281   1.034   1.005 -0.8314 -0.1165  0.5147
  621SOL     OW 2481   1.523   2.123   1.957  0.2456  0.0518 -0.4600
  621SOL    HW1 2482   1.455   2.065   2.002  2.3524 -0.3558 -0.5560
  621SOL    HW2 2483   1.608   2.079   1.979 -3.1966 -1.5078  1.8272
  621SOL     MW 2484   1.525   2.110   1.966  0.0694 -0.2077 -0.1709
  622SOL     OW 2485   2.632   0.159   0.262  0.1173 -0.1112 -0.2762
  622SOL    HW1 2486   2.725   0.172   0.255 -0.8932  0.4555  0.7148
  622SOL    HW2 2487   2.629   0.071   0.296  2.0970 -0.0047 -1.1841
  622SOL     MW 2488   2.644   0.149   0.265  0.2452 -0.0224 -0.2652
  623SOL     OW 2489   2.319   2.824   0.850  0.0474  0.1984  0.1760
  623SOL    HW1 2490   2.400   2.875   0.848 -2.6646 -1.7339  0.0133
  623SOL    HW2 2491   2.295   2.824   0.948  3.8858 -0.0981  0.3572
  623SOL     MW 2492   2.327   2.831   0.863  0.1960 -0.0957  0.1785
  624SOL     OW 2493   2.192   1.728   3.007  0.2225 -0.0320 -0.1985
  624SOL    HW1 2494   2.156   1.638   3.021 -0.8618 -2.5025  2.5727
  624SOL    HW2 2495   2.119   1.758   2.965  1.0849 -0.3039 -0.1859
  624SOL     MW 2496   2.177   1.720   3.003  0.1932 -0.3938  0.1688
  625SOL     OW 2497   2.203   1.949   1.116 -0.3811  0.1105 -0.9850
  625SOL    HW1 2498   2.292   1.923   1.160 -2.0866 -2.4676 -1.0105
  625SOL    HW2 2499   2.216   1.972   1.023  0.5069 -0.2532 -1.3404
  625SOL     MW 2500   2.216   1.949   1.110 -0.4890 -0.2776 -1.0353
  626SOL     OW 2501   0.303   1.621   2.385 -0.0393  0.1005 -0.4944
  626SOL    HW1 2502   0.283   1.531   2.384  2.6861 -2.2490  0.0355
  626SOL    HW2 2503   0.220   1.664   2.366 -0.9126  1.1387 -0.5246
  626SOL     MW 2504   0.290   1.615   2.383  0.2051 -0.0725 -0.4285
  627SOL     OW 2505   2.479   0.749   2.624  0.1469 -0.7325 -0.2517
  627SOL    HW1 2506   2.434   0.834   2.618 -0.7442 -0.6217 -0.8761
  627SOL    HW2 2507   2.463   0.704   2.541 -0.4480 -1.0267 -0.7074
  627SOL     MW 2508   2.471   0.754   2.612 -0.0492 -0.7567 -0.3942
  628SOL     OW 2509   2.351   1.397   1.366  0.1522  0.7022  0.0167
  628SOL    HW1 2510   2.306   1.346   1.297 -1.1830  3.1979  0.9547
  628SOL    HW2 2511   2.445   1.393   1.343 -2.5589  0.0674  1.1962
  628SOL     MW 2512   2.358   1.390   1.354 -0.3817  0.9478  0.2961
  629SOL     OW 2513   1.852   0.544   1.236  0.5533  0.2298  0.5330
  629SOL    HW1 2514   1.830   0.639   1.224 -1.7298 -0.1154 -1.8216
  629SOL    HW2 2515   1.768   0.500   1.242 -0.7712 -2.0702 -2.2828
  629SOL     MW 2516   1.838   0.551   1.235  0.0773 -0.1192 -0.1492
  630SOL     OW 2517   2.452   1.791   2.983  0.1101  0.4762 -0.2722
  630SOL    HW1 2518   2.459   1.884   2.971  0.4856  3.2494 -0.3815
  630SOL    HW2 2519   2.355   1.768   2.984 -0.8308  2.0719  1.2543
  630SOL     MW 2520   2.440   1.800   2.982  0.0355  1.0527 -0.0852
  631SOL     OW 2521   1.979   1.831   1.571  0.0965 -0.3831 -0.5724
  631SOL    HW1 2522   1.998   1.746   1.612 -0.5625 -1.5380  1.6346
  631SOL    HW2 2523   1.986   1.810   1.475 -0.1912  2.2977 -1.0941
  631SOL     MW 2524   1.983   1.817   1.563 -0.0284 -0.1818 -0.3500
  632SOL     OW 2525   0.141   1.971   1.448  0.1832 -0.3246 -0.5111
  632SOL    HW1 2526   0.153   2.016   1.533  2.0013  0.7586  1.0997
  632SOL    HW2 2527   0.100   1.891   1.469  1.2187 -0.1500  1.8141
  632SOL     MW 2528   0.137   1.966   1.462  0.5597 -0.1586  0.0082
  633SOL     OW 2529   2.593   0.508   0.354 -0.3354 -0.1011 -0.5731
  633SOL    HW1 2530   2.659   0.512   0.427 -0.7888 -1.4890 -0.6070
  633SOL    HW2 2531   2.547   0.423   0.357  0.3746  0.0326 -0.0193
  633SOL     MW 2532   2.595   0.497   0.364 -0.3015 -0.2666 -0.5045
  634SOL     OW 2533   2.687   3.075   0.613 -0.2481  0.0331 -0.1383
  634SOL    HW1 2534   2.710   3.166   0.608 -2.2482  1.1024 -0.9113
  634SOL    HW2 2535   2.647   3.049   0.529  0.4086 -0.3471  0.5675
  634SOL     MW 2536   2.685   3.084   0.601 -0.4253  0.1240 -0.1471
  635SOL     OW 2537   2.633   0.132   1.820 -0.0021  0.2086 -0.2156
  635SOL    HW1 2538   2.666   0.065   1.755 -0.0813 -1.5780 -0.9091
  635SOL    HW2 2539   2.695   0.199   1.835 -0.2429  2.7030  0.4635
  635SOL     MW 2540   2.646   0.132   1.813 -0.0443  0.3020 -0.2175
  636SOL     OW 2541   2.883   1.606   1.113 -0.5191  0.3040 -0.4142
  636SOL    HW1 2542   2.798   1.648   1.125 -1.9679 -0.8256  0.9819
  636SOL    HW2 2543   2.940   1.675   1.067 -0.5461  0.2981 -0.5366
  636SOL     MW 2544   2.879   1.620   1.108 -0.7138  0.1542 -0.2461
  637SOL     OW 2545   2.891   1.484   0.729 -0.3432 -0.5187  0.5412
  637SOL    HW1 2546   2.925   1.567   0.690 -0.8493  1.4045 -0.0954
  637SOL    HW2 2547   2.818   1.511   0.783  1.0343 -1.8229  1.0332
  637SOL     MW 2548   2.886   1.498   0.731 -0.2282 -0.4370  0.5221
  638SOL     OW 2549   2.778   0.492   0.558 -0.7717 -0.2539 -0.0825
  638SOL    HW1 2550   2.857   0.532   0.518 -0.5140  0.8023 -1.5311
  638SOL    HW2 2551   2.776   0.534   0.643  0.9359  2.0321  1.8300
  638SOL     MW 2552   2.788   0.503   0.564 -0.5124  0.1871 -0.0213
  639SOL     OW 2553   1.767   0.031   0.629 -0.3496 -0.2676  0.2121
  639SOL    HW1 2554   1.676   0.060   0.618  0.8855 -0.9779 -1.3299
  639SOL    HW2 2555   1.784  -0.031   0.550 -0.1607 -1.3901 -1.3108
  639SOL     MW 2556   1.757   0.026   0.617 -0.1617 -0.5094 -0.1923
  640SOL     OW 2557   0.364   1.309   0.116 -0.3545  0.2102 -0.5091
  640SOL    HW1 2558   0.379   1.336   0.025 -0.1660 -0.0498  0.0294
  640SOL    HW2 2559   0.322   1.223   0.107  1.5267 -0.8134  1.8060
  640SOL     MW 2560   0.360   1.301   0.103 -0.0814  0.0408 -0.1326
  641SOL     OW 2561   2.157   0.412   0.337  0.0398 -0.2866  0.5903
  641SOL    HW1 2562   2.195   0.431   0.249  0.6709  2.1474 -1.5132
  641SOL    HW2 2563   2.182   0.321   0.347  2.7335  2.4790 -0.9637
  641SOL     MW 2564   2.165   0.402   0.327  0.4784  0.3994  0.1078
  642SOL     OW 2565   0.052   3.075   0.582 -0.5027 -0.4380 -0.1997
  642SOL    HW1 2566   0.009   3.159   0.555  1.8883  0.7635 -0.0291
  642SOL    HW2 2567  -0.018   3.018   0.623 -0.1178 -1.7367 -0.5483
  642SOL     MW 2568   0.037   3.079   0.584 -0.1364 -0.4508 -0.2232
  643SOL     OW 2569   2.041   0.333   1.640 -0.5433  0.1761  0.0189
  643SOL    HW1 2570   1.959   0.301   1.681 -0.4500 -0.1007 -1.5629
  643SOL    HW2 2571   2.038   0.278   1.562 -2.7050 -1.2811 -2.0948
  643SOL     MW 2572   2.029   0.322   1.635 -0.8162 -0.0527 -0.4687
  644SOL     OW 2573   2.744   2.036   1.040  0.1883 -0.0179  0.1278
  644SOL    HW1 2574   2.731   1.968   1.102 -2.9974 -0.7150 -0.4598
  644SOL    HW2 2575   2.660   2.054   1.005  1.8735  1.7664  1.2553
  644SOL     MW 2576   2.731   2.030   1.044 -0.0097  0.1256  0.1990
  645SOL     OW 2577   2.870   0.832   0.666 -0.4201  0.3249 -0.3173
  645SOL    HW1 2578   2.961   0.826   0.674 -1.0200  1.2680 -0.2017
  645SOL    HW2 2579   2.840   0.765   0.722 -1.6480  2.7225  0.8181
  645SOL     MW 2580   2.878   0.822   0.674 -0.6612  0.7657 -0.1522
  646SOL     OW 2581   0.172   2.312   0.811 -0.3490 -0.3168  0.6860
  646SOL    HW1 2582   0.165   2.216   0.829 -0.0787 -0.3755  0.1363
  646SOL    HW2 2583   0.083   2.316   0.763  3.2298 -2.5278 -1.7209
  646SOL     MW 2584   0.159   2.300   0.807  0.1589 -0.6163  0.2959
  647SOL     OW 2585   2.669   0.475   2.966  0.0410 -0.1941  0.0185
  647SOL    HW1 2586   2.621   0.412   3.020  1.2537 -1.6383 -0.7986
  647SOL    HW2 2587   2.629   0.556   2.998 -1.3775 -0.8083  0.6634
  647SOL     MW 2588   2.657   0.478   2.978  0.0138 -0.4656 -0.0042
  648SOL     OW 2589   2.117   0.742   1.221 -0.7933  0.2195  0.2112
  648SOL    HW1 2590   2.113   0.772   1.127  2.4342 -0.7067 -0.0209
  648SOL    HW2 2591   2.120   0.818   1.278  1.0144 -2.8735 -2.0138
  648SOL     MW 2592   2.117   0.756   1.216 -0.1290 -0.3108 -0.1130
  649SOL     OW 2593   2.355   2.696   1.263  0.2524 -0.4115 -0.1293
  649SOL    HW1 2594   2.413   2.750   1.311 -1.1357  1.1247  1.9170
  649SOL    HW2 2595   2.387   2.605   1.270  1.0130 -3.8197 -0.0451
  649SOL     MW 2596   2.367   2.691   1.270  0.1696 -0.6585  0.1518
  650SOL     OW 2597   2.822   0.215   0.627  0.1615  0.1616 -0.0343
  650SOL    HW1 2598   2.856   0.295   0.664  2.3166 -1.7180 -0.9160
  650SOL    HW2 2599   2.894   0.206   0.563  0.8749 -0.0420  4.8241
  650SOL     MW 2600   2.836   0.224   0.623  0.5400 -0.1133  0.4904
  651SOL     OW 2601   2.974   0.402   0.872  0.1583  0.5151  0.7024
  651SOL    HW1 2602   3.013   0.448   0.798  0.1113 -2.1237  2.0684
  651SOL    HW2 2603   2.976   0.470   0.939 -0.4156 -0.3614 -0.9351
  651SOL     MW 2604   2.979   0.417   0.871  0.0764  0.0513  0.6666
  652SOL     OW 2605   2.441   1.532   2.974  0.0076 -0.1177  0.3084
  652SOL    HW1 2606   2.508   1.501   2.914  1.6464  0.8563  0.7279
  652SOL    HW2 2607   2.456   1.625   2.981  2.6434 -4.1022 -1.2790
  652SOL     MW 2608   2.452   1.540   2.967  0.5716 -0.5149  0.1543
  653SOL     OW 2609   1.886   0.423   0.386 -1.3208 -0.3204  0.4015
  653SOL    HW1 2610   1.855   0.373   0.311 -0.9350  1.3126 -1.0582
  653SOL    HW2 2611   1.976   0.435   0.363 -3.6088  1.1044  0.3030
  653SOL     MW 2612   1.894   0.418   0.373 -1.5718  0.0831  0.1959
  654SOL     OW 2613   2.397   1.021   0.747  0.0218 -0.1607  0.2452
  654SOL    HW1 2614   2.332   0.995   0.681 -2.2504 -0.2932  1.1291
  654SOL    HW2 2615   2.441   0.938   0.771 -1.5535  1.1599 -1.2786
  654SOL     MW 2616   2.394   1.006   0.742 -0.4858 -0.0039  0.1608
  655SOL     OW 2617   2.892   0.822   0.351  0.3266 -0.5076 -0.0296
  655SOL    HW1 2618   2.883   0.847   0.443  0.3109 -0.3157 -0.7867
  655SOL    HW2 2619   2.929   0.731   0.355 -0.6885  1.2661  2.5296
  655SOL     MW 2620   2.895   0.814   0.363  0.1906 -0.2482  0.2082
  656SOL     OW 2621   1.849   2.722   1.323  0.6609 -0.0204  0.2068
  656SOL    HW1 2622   1.865   2.813   1.318 -1.2846 -0.8899  2.1618
  656SOL    HW2 2623   1.916   2.686   1.380 -4.4004  0.7211  0.6813
  656SOL     MW 2624   1.860   2.729   1.330 -0.2636 -0.0373  0.5273
  657SOL     OW 2625   0.143   1.714   1.228 -0.4558 -0.1949 -0.4006
  657SOL    HW1 2626   0.198   1.784   1.187 -1.1634 -1.6345 -2.3498
  657SOL    HW2 2627   0.182   1.625   1.226  1.6096  0.7870 -1.4898
  657SOL     MW 2628   0.155   1.711   1.222 -0.2767 -0.2553 -0.8015
  658SOL     OW 2629   2.732   1.336   0.221 -0.3503  0.1460  0.1335
  658SOL    HW1 2630   2.672   1.280   0.264  1.5705  2.7072 -2.4418
  658SOL    HW2 2631   2.765   1.401   0.282 -0.4308  0.2275  1.6714
  658SOL     MW 2632   2.729   1.337   0.235 -0.1075  0.4947 -0.0034
  659SOL     OW 2633   2.282   1.517   1.088 -0.0401  0.2784 -1.0837
  659SOL    HW1 2634   2.381   1.524   1.096  1.1271 -0.6650 -0.0844
  659SOL    HW2 2635   2.237   1.540   1.171 -4.4635 -1.8551  0.3536
  659SOL     MW 2636   2.289   1.521   1.100 -0.4697 -0.1276 -0.7623
  660SOL     OW 2637   2.045   1.584   1.680 -0.5464 -0.2893  0.3222
  660SOL    HW1 2638   2.074   1.591   1.771 -1.3603 -0.0304 -0.1110
  660SOL    HW2 2639   1.961   1.535   1.672  2.0299 -1.7301 -2.8571
  660SOL     MW 2640   2.038   1.579   1.691 -0.3139 -0.4452 -0.1544
  661SOL     OW 2641   2.410   0.995   0.218  0.2229  0.1307 -0.3403
  661SOL    HW1 2642   2.490   1.044   0.246  1.9946  0.3833 -2.4699
  661SOL    HW2 2643   2.421   0.903   0.255  1.4971 -2.6544  0.2996
  661SOL     MW 2644   2.422   0.989   0.227  0.6248 -0.2034 -0.5368
  662SOL     OW 2645   2.598   2.967   0.843 -0.1935  0.0259  0.0093
  662SOL    HW1 2646   2.563   3.032   0.900 -1.8013 -0.0549 -0.8733
  662SOL    HW2 2647   2.629   3.004   0.759  2.0230 -0.8410  0.8782
  662SOL     MW 2648   2.598   2.980   0.839 -0.1132 -0.0991  0.0075
  663SOL     OW 2649   2.700   1.484   0.487 -0.4390  0.2860  0.5440
  663SOL    HW1 2650   2.662   1.555   0.436  1.8519 -0.8043 -0.5819
  663SOL    HW2 2651   2.756   1.517   0.558  1.0908  1.8959 -1.7275
  663SOL     MW 2652   2.702   1.497   0.489  0.0651  0.3546  0.0958
  664SOL     OW 2653   2.504   1.515   1.593  0.0017  0.0504 -0.5013
  664SOL    HW1 2654   2.478   1.602   1.568 -0.0388 -2.4792 -0.4253
  664SOL    HW2 2655   2.420   1.468   1.598  0.0963 -0.6569 -3.3437
  664SOL     MW 2656   2.489   1.520   1.590  0.0089 -0.3767 -0.8663
  665SOL     OW 2657   2.845   0.860   2.013  0.2579 -0.5535  0.3244
  665SOL    HW1 2658   2.808   0.892   1.923 -0.4729 -1.5239  1.2257
  665SOL    HW2 2659   2.931   0.814   1.992  0.5054  2.2911 -1.6013
  665SOL     MW 2660   2.852   0.858   1.999  0.1942 -0.3062  0.1893
  666SOL     OW 2661   2.759   3.003   1.715  0.0969 -0.2879  0.0139
  666SOL    HW1 2662   2.744   2.989   1.626 -0.5124  0.7711  2.1034
  666SOL    HW2 2663   2.721   2.922   1.756 -1.1059 -0.1896 -0.6675
  666SOL     MW 2664   2.752   2.991   1.708 -0.1422 -0.1352  0.1997
  667SOL     OW 2665   1.970   2.680   1.754 -0.7659  0.5676 -0.2295
  667SOL    HW1 2666   1.999   2.619   1.821  1.7694 -1.1619 -0.7446
  667SOL    HW2 2667   2.051   2.731   1.727 -0.4759  1.0787 -2.3307
  667SOL     MW 2668   1.985   2.679   1.759 -0.3932  0.4069 -0.5747
  668SOL     OW 2669   2.751   0.634   0.825  0.2064  0.3621  0.7377
  668SOL    HW1 2670   2.798   0.635   0.911 -1.1998  0.2135  2.5708
  668SOL    HW2 2671   2.674   0.694   0.831 -1.4222  3.5733  0.8137
  668SOL     MW 2672   2.747   0.642   0.837 -0.1940  0.7662  0.9896
  669SOL     OW 2673   0.233   0.966   0.684  0.3431 -0.0890 -0.2606
  669SOL    HW1 2674   0.160   0.994   0.738  2.0048 -1.5202 -3.5352
  669SOL    HW2 2675   0.321   0.982   0.729 -1.0607  0.6372 -1.0034
  669SOL     MW 2676   0.235   0.972   0.697  0.3771 -0.1820 -0.7907
  670SOL     OW 2677   2.901   0.233   0.238  0.0108  0.0723  0.0648
  670SOL    HW1 2678   2.910   0.182   0.154  1.4440  0.9266  1.1310
  670SOL    HW2 2679   2.942   0.319   0.223  2.6123 -1.9852 -1.0282
  670SOL     MW 2680   2.908   0.237   0.225  0.5431 -0.0865  0.0612
  671SOL     OW 2681   2.022   2.961   1.466 -0.4288  0.2466  0.2213
  671SOL    HW1 2682   1.947   2.988   1.416 -0.9795  1.9712  1.3697
  671SOL    HW2 2683   2.003   3.005   1.550 -1.9558  1.6141 -1.1688
  671SOL     MW 2684   2.009   2.971   1.470 -0.7029  0.6545  0.1894
  672SOL     OW 2685   1.916   1.666   1.315  0.0762  0.1666 -0.3008
  672SOL    HW1 2686   1.830   1.699   1.337 -0.1430 -1.9851  0.0336
  672SOL    HW2 2687   1.938   1.704   1.224 -0.7867  0.5393 -0.8531
  672SOL     MW 2688   1.907   1.675   1.306 -0.0666 -0.0681 -0.3296
  673SOL     OW 2689   2.752   1.073   0.594  0.4407 -0.2485 -0.0782
  673SOL    HW1 2690   2.772   0.984   0.629 -0.7993  0.3275 -1.9282
  673SOL    HW2 2691   2.836   1.120   0.603  1.5055  1.4715 -0.2632
  673SOL     MW 2692   2.766   1.067   0.600  0.4176  0.0545 -0.3467
  674SOL     OW 2693   2.436   0.046   1.295 -0.2182  0.4655  0.7669
  674SOL    HW1 2694   2.396   0.034   1.206 -0.0128  0.4989  1.6455
  674SOL    HW2 2695   2.472  -0.043   1.305 -1.7444  0.7896  0.0980
  674SOL     MW 2696   2.436   0.033   1.285 -0.3925  0.5127  0.7945
  675SOL     OW 2697   3.038   0.868   1.056  0.7022  0.4875  0.0051
  675SOL    HW1 2698   3.115   0.875   1.115 -0.7265  1.7045 -1.7199
  675SOL    HW2 2699   3.055   0.923   0.980 -2.4317 -1.3269  0.3022
  675SOL     MW 2700   3.051   0.877   1.054  0.1002  0.4087 -0.1833
  676SOL     OW 2701   2.861   1.494   1.662  0.4051  0.2964 -0.5686
  676SOL    HW1 2702   2.824   1.399   1.634 -0.8094 -3.6364 -0.4805
  676SOL    HW2 2703   2.941   1.487   1.718 -0.0141  1.5184  1.5200
  676SOL     MW 2704   2.866   1.480   1.666  0.1895 -0.0613 -0.2814
  677SOL     OW 2705   2.399   0.610   1.968 -0.0544 -0.4966  0.2003
  677SOL    HW1 2706   2.343   0.565   1.908 -0.3413 -2.2002  0.8232
  677SOL    HW2 2707   2.347   0.689   1.981  2.3352 -1.5992  0.8639
  677SOL     MW 2708   2.385   0.614   1.962  0.2231 -0.8668  0.3700
  678SOL     OW 2709   2.519   1.649   0.347  0.9124 -0.1005 -0.4551
  678SOL    HW1 2710   2.435   1.707   0.351 -0.7507  0.4284 -0.8219
  678SOL    HW2 2711   2.515   1.591   0.262 -0.7462 -0.8309 -1.9747
  678SOL     MW 2712   2.508   1.649   0.336  0.4741 -0.1271 -0.7040
  679SOL     OW 2713   2.252   0.488   1.217 -0.1521 -0.0513  0.4596
  679SOL    HW1 2714   2.185   0.423   1.201  1.7525 -1.7102  0.7551
  679SOL    HW2 2715   2.213   0.574   1.209 -0.7417 -0.2272  0.0865
  679SOL     MW 2716   2.238   0.491   1.214  0.0214 -0.2934  0.4494
  680SOL     OW 2717   2.340   0.182   1.521  0.8946  0.4701 -0.1285
  680SOL    HW1 2718   2.248   0.175   1.491  4.4836  3.4922  2.1464
  680SOL    HW2 2719   2.390   0.144   1.452 -2.4419  0.2835  0.4482
  680SOL     MW 2720   2.335   0.176   1.508  0.9279  0.8442  0.2477
  681SOL     OW 2721   0.293   0.590   1.575  0.0930 -0.8317 -0.2749
  681SOL    HW1 2722   0.298   0.508   1.613 -1.2525  2.8327 -0.5048
  681SOL    HW2 2723   0.384   0.614   1.574 -0.3287  0.2890  1.8472
  681SOL     MW 2724   0.305   0.583   1.580 -0.1402 -0.2004 -0.0252
  682SOL     OW 2725   0.080   2.892   1.485  0.0273  0.1365  0.1634
  682SOL    HW1 2726   0.050   2.972   1.447 -1.1918 -2.1865  0.2906
  682SOL    HW2 2727   0.045   2.903   1.571  0.7020 -1.9757 -0.0031
  682SOL     MW 2728   0.071   2.904   1.491 -0.0445 -0.4487  0.1582
  683SOL     OW 2729   2.057   0.865   2.985 -0.1427 -0.4647 -0.3742
  683SOL    HW1 2730   1.969   0.835   2.965 -1.2402 -2.2847  2.3064
  683SOL    HW2 2731   2.046   0.949   3.030  0.2688 -1.4930  0.2254
  683SOL     MW 2732   2.044   0.872   2.988 -0.2332 -0.8405  0.0586
  684SOL     OW 2733   2.219   1.684   0.879 -0.3339 -0.6935 -0.1869
  684SOL    HW1 2734   2.149   1.632   0.842  2.3487  0.0510 -0.1607
  684SOL    HW2 2735   2.254   1.636   0.960  2.3112 -0.6890 -0.8919
  684SOL     MW 2736   2.215   1.671   0.885  0.3690 -0.5947 -0.2764
  685SOL     OW 2737   2.664   1.758   1.224  0.0460  0.1722  0.2473
  685SOL    HW1 2738   2.708   1.732   1.308 -1.8960 -2.2220  0.4662
  685SOL    HW2 2739   2.626   1.676   1.186 -0.4291  1.3219 -2.9346
  685SOL     MW 2740   2.665   1.744   1.230 -0.2729  0.0080 -0.1437
  686SOL     OW 2741   2.913   0.763   1.528 -0.0515  0.3704 -0.8993
  686SOL    HW1 2742   2.913   0.713   1.609 -1.7142  1.2472 -1.7410
  686SOL    HW2 2743   3.001   0.752   1.497 -2.3465  0.9991 -0.7448
  686SOL     MW 2744   2.925   0.755   1.535 -0.5737  0.5690 -0.9900
  687SOL     OW 2745   2.100   0.222   1.129  0.2808  0.0775  0.0489
  687SOL    HW1 2746   2.126   0.150   1.072  2.8835 -1.8188  2.3003
  687SOL    HW2 2747   2.027   0.269   1.092 -0.5089 -1.4807  2.8055
  687SOL     MW 2748   2.094   0.218   1.117  0.5200 -0.3783  0.7096
  688SOL     OW 2749   2.384   0.617   1.428  0.5608 -0.4459  0.1324
  688SOL    HW1 2750   2.315   0.583   1.367 -0.9237  1.1469 -0.3984
  688SOL    HW2 2751   2.332   0.646   1.503 -2.1430 -0.0703 -3.9965
  688SOL     MW 2752   2.368   0.617   1.430  0.0082 -0.1862 -0.4824
  689SOL     OW 2753   2.546   0.735   2.975  0.0292  0.2743  0.3009
  689SOL    HW1 2754   2.557   0.807   2.915 -1.1827 -2.5243 -1.6750
  689SOL    HW2 2755   2.618   0.760   3.042 -2.2239  1.0601 -0.3728
  689SOL     MW 2756   2.557   0.748   2.976 -0.4280  0.0087 -0.0487
  690SOL     OW 2757   2.066   0.943   1.928 -0.7387  0.7530 -0.3386
  690SOL    HW1 2758   2.018   0.853   1.934 -1.8542  0.6950  1.0112
  690SOL    HW2 2759   2.094   0.952   1.838  2.2364  2.1514  0.2379
  690SOL     MW 2760   2.064   0.932   1.917 -0.4934  0.9298 -0.0845
  691SOL     OW 2761   2.424   0.274   0.879 -0.1692  0.4393  0.4529
  691SOL    HW1 2762   2.503   0.328   0.898  1.0448 -0.6142 -1.4737
  691SOL    HW2 2763   2.356   0.335   0.902 -2.1395 -0.8376 -1.0313
  691SOL     MW 2764   2.426   0.289   0.884 -0.2690  0.1318  0.0028
  692SOL     OW 2765   2.773   1.686   1.456  0.2277  0.7875 -0.3552
  692SOL    HW1 2766   2.766   1.610   1.517  2.1034 -0.1688  0.5888
  692SOL    HW2 2767   2.850   1.733   1.487  0.1809 -1.8053  1.2235
  692SOL     MW 2768   2.782   1.683   1.469  0.4690  0.3193 -0.0224
  693SOL     OW 2769   2.267   0.440   0.087 -0.3457 -0.4839  0.1887
  693SOL    HW1 2770   2.203   0.373   0.050 -0.0978 -1.9114 -1.9554
  693SOL    HW2 2771   2.263   0.536   0.050 -0.2295 -1.9543  0.1885
  693SOL     MW 2772   2.258   0.444   0.077 -0.2976 -0.8663 -0.0942
  694SOL     OW 2773   1.907   1.220   1.121  0.4735 -0.4349 -0.1191
  694SOL    HW1 2774   2.004   1.227   1.132 -0.9205 -0.0625 -0.1756
  694SOL    HW2 2775   1.885   1.148   1.180  0.4190  2.5210 -0.2724
  694SOL     MW 2776   1.917   1.212   1.131  0.2824  0.0042 -0.1468
  695SOL     OW 2777   3.021   1.481   1.364 -0.0632 -0.0426 -0.1128
  695SOL    HW1 2778   2.999   1.435   1.286 -0.5442 -0.5349  0.2540
  695SOL    HW2 2779   2.951   1.545   1.376 -1.5116  0.5603  0.8548
  695SOL     MW 2780   3.009   1.484   1.355 -0.3178 -0.0280  0.0632
  696SOL     OW 2781   2.149   1.382   0.881  0.4092  0.2315  0.5344
  696SOL    HW1 2782   2.205   1.406   0.950 -1.4675  1.7342 -4.2419
  696SOL    HW2 2783   2.111   1.299   0.910  0.7889 -0.0120 -0.5154
  696SOL     MW 2784   2.151   1.374   0.894  0.2117  0.3976 -0.2343
  697SOL     OW 2785   2.932   1.069   2.188 -0.1230 -0.4924 -0.1535
  697SOL    HW1 2786   2.861   1.128   2.205 -3.9621 -0.1239 -0.8462
  697SOL    HW2 2787   2.893   1.001   2.133  0.4938  1.9057  2.2875
  697SOL     MW 2788   2.918   1.068   2.183 -0.5482 -0.1274  0.0772
  698SOL     OW 2789   2.541   0.296   0.038  0.2909  0.0015 -0.2644
  698SOL    HW1 2790   2.461   0.334   0.080 -2.1614 -2.6970 -2.1143
  698SOL    HW2 2791   2.570   0.240   0.118 -1.1360 -0.4852 -0.2638
  698SOL     MW 2792   2.534   0.294   0.054 -0.2209 -0.4188 -0.5084
  699SOL     OW 2793   1.830   1.620   1.995 -0.2092 -0.6521  0.2447
  699SOL    HW1 2794   1.804   1.527   1.995 -3.6303  1.5269 -0.2451
  699SOL    HW2 2795   1.927   1.633   2.002 -0.5360  4.3825  0.3217
  699SOL     MW 2796   1.840   1.609   1.996 -0.7037  0.2997  0.1903
  700SOL     OW 2797   2.708   0.940   1.485  0.0048 -0.1638 -0.0582
  700SOL    HW1 2798   2.770   0.992   1.432  1.6417 -0.6845  0.9758
  700SOL    HW2 2799   2.754   0.854   1.499 -1.1053 -1.2435  1.7014
  700SOL     MW 2800   2.722   0.936   1.480  0.0743 -0.3750  0.3104
  701SOL     OW 2801   1.620   1.212   2.474  0.0189 -0.5306  0.1378
  701SOL    HW1 2802   1.711   1.244   2.478 -0.0781 -1.6224  0.7178
  701SOL    HW2 2803   1.593   1.234   2.560 -0.9090 -1.8951  1.2299
  701SOL     MW 2804   1.629   1.220   2.486 -0.1163 -0.8547  0.3585
  702SOL     OW 2805   2.180   0.418   0.868 -0.6209 -0.2083 -0.2311
  702SOL    HW1 2806   2.164   0.344   0.803 -1.6852  0.8788 -0.9161
  702SOL    HW2 2807   2.210   0.484   0.805 -1.6001  0.6385 -0.3655
  702SOL     MW 2808   2.182   0.417   0.851 -0.8905  0.0468 -0.3392
  703SOL     OW 2809   2.743   1.244   0.998 -0.0665  0.3821 -0.1605
  703SOL    HW1 2810   2.717   1.243   0.906 -0.3379  0.7158  1.9432
  703SOL    HW2 2811   2.742   1.152   1.025  1.1929 -2.7177  1.0657
  703SOL     MW 2812   2.739   1.232   0.989  0.0638  0.0171  0.2788
  704SOL     OW 2813   3.060   1.254   0.191 -0.3884 -0.4838 -0.3390
  704SOL    HW1 2814   2.991   1.207   0.136 -0.6108  0.8130 -1.0666
  704SOL    HW2 2815   3.067   1.218   0.278  0.5383  0.8793  3.2355
  704SOL     MW 2816   3.052   1.243   0.195 -0.2955 -0.1328  0.0366
  705SOL     OW 2817   2.215   1.646   1.325 -0.3681  0.0709  0.0322
  705SOL    HW1 2818   2.118   1.635   1.352  2.4908 -1.8611 -0.0250
  705SOL    HW2 2819   2.264   1.566   1.366  3.4427 -1.1185  2.4715
  705SOL     MW 2820   2.208   1.634   1.334  0.5119 -0.3409  0.3465
  706SOL     OW 2821   2.998   1.206   0.689  0.3110 -0.0409 -0.0358
  706SOL    HW1 2822   3.047   1.185   0.604  1.2464 -1.0117 -0.0261
  706SOL    HW2 2823   2.978   1.301   0.686 -0.1931 -2.0551  0.5878
  706SOL     MW 2824   3.002   1.216   0.678  0.3679 -0.4348  0.0477
  707SOL     OW 2825   2.431   0.015   1.014  0.2682  0.1709 -0.2448
  707SOL    HW1 2826   2.447   0.099   0.979 -3.0021 -0.6326  2.1183
  707SOL    HW2 2827   2.342   0.001   0.983 -0.4092 -2.9661 -3.1833
  707SOL     MW 2828   2.421   0.024   1.005 -0.2526 -0.3490 -0.3207
  708SOL     OW 2829   2.497   1.468   0.142 -0.6354 -0.2124  0.6492
  708SOL    HW1 2830   2.580   1.424   0.153  0.1276 -1.0276  0.9553
  708SOL    HW2 2831   2.478   1.493   0.049  0.7315  1.7534 -1.8154
  708SOL     MW 2832   2.505   1.466   0.131 -0.3544 -0.0606  0.3644
  709SOL     OW 2833   1.759   1.623   0.165 -0.1057 -0.9758  0.9048
  709SOL    HW1 2834   1.739   1.639   0.069  1.2375 -1.5567 -3.7868
  709SOL    HW2 2835   1.687   1.655   0.223 -0.5944  1.7314 -0.4389
  709SOL     MW 2836   1.747   1.629   0.160  0.0070 -0.6953  0.1085
  710SOL     OW 2837   2.205   1.180   1.232  0.3884  0.9669 -0.8078
  710SOL    HW1 2838   2.251   1.139   1.158  2.0580 -0.1611  0.2374
  710SOL    HW2 2839   2.174   1.103   1.282 -1.5226 -0.8944 -2.3870
  710SOL     MW 2840   2.207   1.164   1.229  0.3566  0.5725 -0.8783
  711SOL     OW 2841   2.343   0.116   1.792 -0.0651  0.1739  0.3904
  711SOL    HW1 2842   2.435   0.106   1.793 -0.8221 -1.0575 -3.3549
  711SOL    HW2 2843   2.339   0.147   1.704 -0.4726 -3.1324  1.8628
  711SOL     MW 2844   2.355   0.119   1.780 -0.2187 -0.4248  0.0905
  712SOL     OW 2845   1.929   0.519   0.049  0.3092  0.1229  0.2185
  712SOL    HW1 2846   1.877   0.588   0.015  1.4012 -0.3835  1.5854
  712SOL    HW2 2847   1.992   0.555   0.100  0.0184 -1.3821 -0.8206
  712SOL     MW 2848   1.930   0.533   0.051  0.4149 -0.1425  0.2617
  713SOL     OW 2849   2.568   0.802   1.112 -0.1222  0.7891  0.0705
  713SOL    HW1 2850   2.582   0.713   1.160 -3.2546 -1.5354  0.2080
  713SOL    HW2 2851   2.524   0.862   1.172 -2.5105 -0.4428  1.3200
  713SOL     MW 2852   2.564   0.798   1.126 -0.8506  0.3199  0.2535
  714SOL     OW 2853   2.199   0.227   1.993  0.4196  0.0379  0.5861
  714SOL    HW1 2854   2.226   0.203   2.081 -1.3307 -0.5817 -2.3069
  714SOL    HW2 2855   2.263   0.191   1.927  0.5404  0.9889 -2.6992
  714SOL     MW 2856   2.211   0.219   1.996  0.2046  0.0816 -0.2291
  715SOL     OW 2857   1.724   1.960   1.675  0.0193  0.2271 -0.0826
  715SOL    HW1 2858   1.815   1.944   1.668 -1.9382 -2.1216  1.3217
  715SOL    HW2 2859   1.697   1.866   1.698  1.0377 -1.0807  0.0896
  715SOL     MW 2860   1.732   1.945   1.677 -0.1046 -0.2554  0.1254
  716SOL     OW 2861   2.322   0.644   0.684 -0.0555 -0.0304 -0.4761
  716SOL    HW1 2862   2.372   0.567   0.659 -0.2915  0.3623 -3.2543
  716SOL    HW2 2863   2.259   0.651   0.610 -3.3992 -0.5952  0.8873
  716SOL     MW 2864   2.320   0.635   0.671 -0.5278 -0.0531 -0.6628
  717SOL     OW 2865   2.889   1.519   2.935 -0.2490  0.4068  0.0267
  717SOL    HW1 2866   2.978   1.519   2.967 -0.5009  1.9790  0.4080
  717SOL    HW2 2867   2.850   1.588   2.992 -0.8700  0.2999  0.0048
  717SOL     MW 2868   2.895   1.528   2.947 -0.3642  0.6001  0.0741
  718SOL     OW 2869   2.637   1.392   1.335  0.4016  0.4340 -0.4310
  718SOL    HW1 2870   2.653   1.421   1.426  2.3038  0.6069  1.9799
  718SOL    HW2 2871   2.697   1.321   1.312  1.1800 -1.3166 -2.9085
  718SOL     MW 2872   2.647   1.387   1.344  0.7553  0.2259 -0.4398
  719SOL     OW 2873   2.197   1.317   0.618 -0.4963 -0.8899 -0.2643
  719SOL    HW1 2874   2.288   1.325   0.589  0.1223  1.3250 -2.4038
  719SOL    HW2 2875   2.184   1.357   0.706 -1.6247 -3.4590  2.3853
  719SOL     MW 2876   2.207   1.323   0.626 -0.5636 -0.9366 -0.1970
  720SOL     OW 2877   2.847   1.167   0.048 -0.7687  0.3950 -0.6654
  720SOL    HW1 2878   2.809   1.083   0.073 -0.2148 -0.1278  0.5513
  720SOL    HW2 2879   2.823   1.234   0.113 -1.5750  2.1262  1.2906
  720SOL     MW 2880   2.839   1.165   0.060 -0.8020  0.5544 -0.2468
  721SOL     OW 2881   2.434   0.858   1.355  0.1774 -0.3916 -0.1805
  721SOL    HW1 2882   2.418   0.759   1.363 -2.1293  1.2501  0.0736
  721SOL    HW2 2883   2.482   0.878   1.436  1.1617  1.8243  1.8693
  721SOL     MW 2884   2.438   0.848   1.367  0.0029  0.1174  0.1235
  722SOL     OW 2885   2.569   1.166   0.376  0.2308  0.2673  0.2769
  722SOL    HW1 2886   2.533   1.235   0.427 -1.2621 -0.0532  0.2154
  722SOL    HW2 2887   2.659   1.139   0.412  0.2696  0.5557 -1.0101
  722SOL     MW 2888   2.576   1.171   0.387  0.0389  0.2630  0.0990
  723SOL     OW 2889   2.263   1.420   1.646 -0.1770 -0.0579 -0.1975
  723SOL    HW1 2890   2.256   1.423   1.550 -0.5906 -1.9299 -2.2701
  723SOL    HW2 2891   2.198   1.478   1.682  1.9598  1.6040  1.0480
  723SOL     MW 2892   2.254   1.428   1.638  0.0504 -0.0856 -0.3066
  724SOL     OW 2893   2.460   0.396   0.637 -0.3545 -0.0693  0.3154
  724SOL    HW1 2894   2.440   0.329   0.701 -0.5500  0.5786 -1.6167
  724SOL    HW2 2895   2.546   0.376   0.603 -1.7189 -0.0761 -0.4180
  724SOL     MW 2896   2.469   0.385   0.641 -0.5603  0.0153 -0.0362
  725SOL     OW 2897   2.578   0.546   1.181  0.5127  0.0348  0.0291
  725SOL    HW1 2898   2.647   0.540   1.260 -0.7273 -1.3372  1.1035
  725SOL    HW2 2899   2.493   0.523   1.225 -1.2591 -1.4598 -2.0447
  725SOL     MW 2900   2.576   0.542   1.197  0.1154 -0.3434 -0.1028
  726SOL     OW 2901   2.602   2.446   0.526  0.4405  0.4599 -0.0527
  726SOL    HW1 2902   2.540   2.512   0.497  0.7893 -1.0770 -0.6839
  726SOL    HW2 2903   2.569   2.399   0.608  1.1716 -5.8742  0.1386
  726SOL     MW 2904   2.589   2.448   0.533  0.5830 -0.5786 -0.1107
  727SOL     OW 2905   2.867   0.298   1.627 -0.1179 -0.1036  0.2941
  727SOL    HW1 2906   2.843   0.296   1.536  0.4783 -0.2721 -0.8692
  727SOL    HW2 2907   2.795   0.308   1.688 -0.3854 -0.1306  0.1942
  727SOL     MW 2908   2.854   0.299   1.623 -0.0745 -0.1294  0.1274
  728SOL     OW 2909   2.822   1.151   2.887  0.3458  0.1524 -0.5736
  728SOL    HW1 2910   2.806   1.234   2.847  1.0933 -0.5561 -1.4750
  728SOL    HW2 2911   2.832   1.180   2.981 -2.8214  0.4149 -2.1012
  728SOL     MW 2912   2.821   1.166   2.895  0.0265  0.0935 -0.8941
  729SOL     OW 2913   2.547   1.522   1.110 -0.1251 -0.6470 -0.0241
  729SOL    HW1 2914   2.601   1.458   1.159  1.9450  0.9951  1.5004
  729SOL    HW2 2915   2.576   1.509   1.013  1.2379 -1.2990  0.2610
  729SOL     MW 2916   2.558   1.512   1.103  0.3278 -0.5164  0.2146
  730SOL     OW 2917   2.144   1.179   0.218 -0.0422 -0.0332 -0.6061
  730SOL    HW1 2918   2.238   1.162   0.245  0.1814 -0.2374 -1.8130
  730SOL    HW2 2919   2.123   1.270   0.229  0.1337  0.0135 -0.1371
  730SOL     MW 2920   2.154   1.189   0.223  0.0105 -0.0540 -0.7034
  731SOL     OW 2921   2.851   1.915   2.864 -0.5053  0.4284 -0.2592
  731SOL    HW1 2922   2.758   1.926   2.819 -1.4461 -0.7967 -2.9510
  731SOL    HW2 2923   2.899   2.001   2.865  0.5866  1.3019 -0.3780
  731SOL     MW 2924   2.845   1.927   2.859 -0.4854  0.3820 -0.6300
  732SOL     OW 2925   2.165   0.967   1.376  0.2813 -0.1237 -0.3696
  732SOL    HW1 2926   2.139   0.956   1.471  0.6332  1.1701  1.3428
  732SOL    HW2 2927   2.248   0.925   1.379 -0.4997 -1.4796  2.9684
  732SOL     MW 2928   2.172   0.960   1.389  0.2247 -0.1319  0.2967
  733SOL     OW 2929   2.315   2.774   3.049  0.1433 -0.4219  0.3635
  733SOL    HW1 2930   2.230   2.808   3.069 -0.0050 -1.8910  0.1958
  733SOL    HW2 2931   2.304   2.675   3.036  0.2478 -0.2578  0.9094
  733SOL     MW 2932   2.302   2.765   3.050  0.1375 -0.5941  0.4134
  734SOL     OW 2933   1.500   0.385   2.453 -0.6774 -0.2003 -0.0847
  734SOL    HW1 2934   1.490   0.356   2.542  0.9200  0.4081  0.5211
  734SOL    HW2 2935   1.529   0.304   2.404  1.2365  0.0041 -1.7426
  734SOL     MW 2936   1.503   0.371   2.458 -0.2141 -0.0930 -0.2235
  735SOL     OW 2937   2.938   0.945   2.587 -0.1324 -0.2539  0.1186
  735SOL    HW1 2938   2.946   0.849   2.560 -1.7830  0.5059  0.0926
  735SOL    HW2 2939   2.955   0.949   2.684 -0.0877  0.7218  2.0525
  735SOL     MW 2940   2.941   0.933   2.596 -0.3443 -0.0249  0.3703
  736SOL     OW 2941   0.138   0.582   2.538  0.0005 -0.1305 -0.3173
  736SOL    HW1 2942   0.171   0.652   2.475  1.1809  3.0667 -1.5980
  736SOL    HW2 2943   0.117   0.509   2.480 -1.2731  0.5696 -0.6739
  736SOL     MW 2944   0.140   0.581   2.522 -0.0118  0.3837 -0.5333
  737SOL     OW 2945   2.957   0.661   2.572  0.2907 -0.5868 -0.7224
  737SOL    HW1 2946   2.889   0.626   2.515  0.6618 -0.4722 -1.3969
  737SOL    HW2 2947   3.032   0.613   2.537  2.1290 -0.6799 -0.3379
  737SOL     MW 2948   2.958   0.650   2.560  0.5822 -0.5840 -0.7607
  738SOL     OW 2949   0.243   0.570   1.893 -0.0610 -0.0541 -0.5016
  738SOL    HW1 2950   0.335   0.597   1.904  0.7741 -0.8965  2.5960
  738SOL    HW2 2951   0.253   0.487   1.841  2.6014  0.7609  1.8599
  738SOL     MW 2952   0.256   0.563   1.887  0.4004 -0.0577  0.2187
  739SOL     OW 2953   2.410   1.044   2.121  0.0189  0.2121 -0.3229
  739SOL    HW1 2954   2.384   0.956   2.088 -0.2647 -0.3398 -1.5605
  739SOL    HW2 2955   2.442   1.093   2.045 -0.1116  1.6067  0.6486
  739SOL     MW 2956   2.411   1.039   2.106 -0.0358  0.3233 -0.3580
  740SOL     OW 2957   0.229   1.775   2.981  0.7559  0.1125 -0.5474
  740SOL    HW1 2958   0.197   1.684   2.978  3.0514 -0.2365  0.6685
  740SOL    HW2 2959   0.322   1.757   3.006  1.1965 -0.4161  0.1131
  740SOL     MW 2960   0.237   1.761   2.984  1.1169 -0.0033 -0.2998
  741SOL     OW 2961   2.267   1.276   2.716 -0.0159 -0.3068  0.6209
  741SOL    HW1 2962   2.188   1.321   2.689 -2.0079  0.2222  1.4678
  741SOL    HW2 2963   2.275   1.303   2.811  1.3205  3.0127 -0.1067
  741SOL     MW 2964   2.258   1.285   2.725 -0.1024  0.2010  0.6367
  742SOL     OW 2965   1.562   1.257   2.199 -0.6052 -0.1753 -0.0296
  742SOL    HW1 2966   1.550   1.164   2.178  1.0234 -0.4003 -1.2064
  742SOL    HW2 2967   1.586   1.260   2.291 -0.0097 -0.5247  1.3249
  742SOL     MW 2968   1.564   1.245   2.208 -0.3117 -0.2511 -0.0062
  743SOL     OW 2969   2.526   1.263   2.800 -0.0763  0.2086 -0.1451
  743SOL    HW1 2970   2.446   1.274   2.750  0.1129  0.1107  1.9590
  743SOL    HW2 2971   2.539   1.159   2.797 -0.6457 -4.3102  0.0386
  743SOL     MW 2972   2.517   1.251   2.793 -0.1265 -0.4005  0.1567
  744SOL     OW 2973   2.732   0.949   1.778 -0.4754 -0.3248 -0.3587
  744SOL    HW1 2974   2.666   1.021   1.804 -1.1232 -0.3460  1.5322
  744SOL    HW2 2975   2.717   0.942   1.684  0.4576  0.2637 -0.7567
  744SOL     MW 2976   2.721   0.958   1.769 -0.4378 -0.2499 -0.1617
  745SOL     OW 2977   1.755   0.416   2.519 -0.3258  0.0838  0.0967
  745SOL    HW1 2978   1.751   0.418   2.419 -0.9343  1.0192  1.4523
  745SOL    HW2 2979   1.671   0.391   2.548  1.6101  1.6494 -0.1950
  745SOL     MW 2980   1.743   0.413   2.509 -0.1507  0.4138  0.2371
  746SOL     OW 2981   1.489   1.421   1.646  0.8441 -0.3488 -0.6054
  746SOL    HW1 2982   1.554   1.491   1.655  1.4350  0.1429 -0.3060
  746SOL    HW2 2983   1.503   1.373   1.732 -0.6372 -0.6231  1.2369
  746SOL     MW 2984   1.499   1.424   1.659  0.7267 -0.3201 -0.3228
  747SOL     OW 2985   2.527   1.154   1.866 -0.6121 -0.5831 -0.5555
  747SOL    HW1 2986   2.451   1.150   1.811  2.5699 -2.1837 -5.1054
  747SOL    HW2 2987   2.547   1.248   1.874 -0.8038 -1.5923 -0.9908
  747SOL     MW 2988   2.519   1.166   1.859 -0.2175 -0.9274 -1.2133
  748SOL     OW 2989   0.106   0.074   1.816  0.2933  0.2885 -0.2060
  748SOL    HW1 2990   0.184   0.019   1.833 -0.2956 -1.1169 -1.8262
  748SOL    HW2 2991   0.077   0.117   1.892  2.5314  0.3817 -0.4052
  748SOL     MW 2992   0.113   0.073   1.828  0.5109  0.1153 -0.4461
  749SOL     OW 2993   2.407   0.536   2.795 -0.4055  0.6804  0.6485
  749SOL    HW1 2994   2.431   0.597   2.726  0.4116  0.3468 -2.3008
  749SOL    HW2 2995   2.484   0.552   2.851 -2.6584  0.1131 -2.7955
  749SOL     MW 2996   2.420   0.546   2.793 -0.5949  0.5615 -0.1951
  750SOL     OW 2997   2.070   0.001   1.952  0.3538 -0.2520  0.5548
  750SOL    HW1 2998   2.122   0.082   1.957 -0.1594 -1.2746 -3.2240
  750SOL    HW2 2999   2.130  -0.078   1.932 -1.3113 -4.0253 -0.9656
  750SOL     MW 3000   2.085   0.001   1.950  0.0664 -0.8848 -0.1444
  751SOL     OW 3001   0.023   0.427   2.312 -0.1090  0.1587 -0.0479
  751SOL    HW1 3002  -0.043   0.361   2.292 -0.3411 -2.3071  0.1085
  751SOL    HW2 3003   0.093   0.413   2.244 -0.4601 -1.0726  1.0969
  751SOL     MW 3004   0.024   0.417   2.300 -0.1859 -0.3291  0.1238
  752SOL     OW 3005   2.135   0.853   2.707 -0.1493 -0.4924  0.2380
  752SOL    HW1 3006   2.202   0.916   2.680 -1.7203  1.3953 -0.4695
  752SOL    HW2 3007   2.118   0.875   2.799 -5.7997 -1.3843 -0.6743
  752SOL     MW 3008   2.141   0.865   2.715 -1.1021 -0.3610  0.0243
  753SOL     OW 3009   2.874   0.304   2.320  0.0717 -0.3530  0.2246
  753SOL    HW1 3010   2.812   0.234   2.295  0.1915 -1.3967  0.1901
  753SOL    HW2 3011   2.821   0.382   2.347  2.8401  2.4381 -0.9503
  753SOL     MW 3012   2.859   0.305   2.320  0.4528 -0.1225  0.0650
  754SOL     OW 3013   2.231   3.013   2.683  0.4169 -0.6807  0.4085
  754SOL    HW1 3014   2.219   3.017   2.583 -0.2086 -0.4650 -0.0301
  754SOL    HW2 3015   2.303   2.953   2.702  0.0186  1.9671 -0.5323
  754SOL     MW 3016   2.239   3.006   2.673  0.2818 -0.3029  0.2265
  755SOL     OW 3017   2.738   1.569   2.488 -0.9618  0.3480 -0.3303
  755SOL    HW1 3018   2.697   1.545   2.572  3.3459 -1.3693  1.9282
  755SOL    HW2 3019   2.794   1.639   2.513  0.8741  0.6745  1.1416
  755SOL     MW 3020   2.740   1.575   2.502 -0.1512  0.1645  0.1619
  756SOL     OW 3021   2.252   1.298   2.980  0.1433  0.5110 -0.6475
  756SOL    HW1 3022   2.306   1.376   2.989 -0.2290  0.0751  0.4944
  756SOL    HW2 3023   2.305   1.215   2.998 -2.2999 -1.3144 -1.4206
  756SOL     MW 3024   2.266   1.298   2.983 -0.2282  0.2126 -0.5988
  757SOL     OW 3025   2.111   0.965   1.623 -0.6174  0.6327 -0.5160
  757SOL    HW1 3026   2.131   0.867   1.622 -1.4012 -0.7398  1.0442
  757SOL    HW2 3027   2.016   0.976   1.595 -0.1517 -0.2773 -0.7077
  757SOL     MW 3028   2.101   0.954   1.619 -0.6594  0.3315 -0.3355
  758SOL     OW 3029   2.204   1.768   2.662 -0.1946  0.8040 -0.3242
  758SOL    HW1 3030   2.179   1.818   2.581 -1.1763  0.1226 -2.2587
  758SOL    HW2 3031   2.302   1.752   2.663 -0.9821 -3.0503 -0.5209
  758SOL     MW 3032   2.213   1.773   2.651 -0.4280  0.2055 -0.6054
  759SOL     OW 3033   1.572   1.328   2.732 -0.0198  0.3270  0.1212
  759SOL    HW1 3034   1.582   1.424   2.724  1.2651  1.0232  0.4699
  759SOL    HW2 3035   1.611   1.318   2.814  1.1518 -1.7885 -0.3656
  759SOL     MW 3036   1.578   1.340   2.741  0.3043  0.1397  0.1030
  760SOL     OW 3037   2.615   1.942   2.723 -0.2955  0.3290  0.5960
  760SOL    HW1 3038   2.566   1.873   2.697  2.2404  1.7064  0.3685
  760SOL    HW2 3039   2.691   1.943   2.664  0.7861  1.9582 -0.9960
  760SOL     MW 3040   2.618   1.933   2.712  0.1818  0.7257  0.3559
  761SOL     OW 3041   2.093   0.454   2.467 -0.1846 -0.5731 -0.3416
  761SOL    HW1 3042   2.046   0.376   2.502 -0.2701  4.4945  0.3437
  761SOL    HW2 3043   2.132   0.509   2.544 -0.5226 -1.5233  3.3786
  761SOL     MW 3044   2.092   0.451   2.482 -0.2405 -0.0299  0.2396
  762SOL     OW 3045   0.008   0.195   2.052  0.4581  0.1029  0.1682
  762SOL    HW1 3046  -0.009   0.144   2.135 -2.0746 -0.9840  0.7762
  762SOL    HW2 3047  -0.056   0.267   2.067 -1.5687  0.6335  0.0212
  762SOL     MW 3048  -0.002   0.197   2.065 -0.1435  0.0295  0.2290
  763SOL     OW 3049   2.372   1.129   2.379 -0.0175 -0.6069 -0.0985
  763SOL    HW1 3050   2.395   1.104   2.291 -1.0180 -1.2986  2.0851
  763SOL    HW2 3051   2.444   1.186   2.406 -1.0224 -2.6280  4.1624
  763SOL     MW 3052   2.384   1.133   2.371 -0.2821 -0.9649  0.7518
  764SOL     OW 3053   0.373   0.190   2.823  0.5174 -0.0533 -0.4993
  764SOL    HW1 3054   0.326   0.209   2.743  0.5716 -0.6611 -1.6795
  764SOL    HW2 3055   0.350   0.265   2.883  0.9400  2.0291 -1.4401
  764SOL     MW 3056   0.364   0.202   2.820  0.5803  0.1412 -0.7791
  765SOL     OW 3057   2.672   0.091   2.288 -0.2373 -0.6407 -0.2362
  765SOL    HW1 3058   2.631   0.082   2.200 -0.3157 -0.7872 -0.6441
  765SOL    HW2 3059   2.734   0.021   2.302  0.0061  0.9744  0.2011
  765SOL     MW 3060   2.675   0.081   2.278 -0.2155 -0.4470 -0.2323
  766SOL     OW 3061   1.859   3.030   2.130  0.4177  0.2235 -0.6098
  766SOL    HW1 3062   1.907   3.073   2.060 -1.5032  2.0854  0.7680
  766SOL    HW2 3063   1.800   2.965   2.088  1.2715 -1.2974  2.4306
  766SOL     MW 3064   1.858   3.027   2.115  0.2769  0.2685 -0.0269
  767SOL     OW 3065   2.688   0.662   1.904  0.0010  0.1734  0.7261
  767SOL    HW1 3066   2.741   0.728   1.956 -0.0243  2.8926  0.9184
  767SOL    HW2 3067   2.599   0.668   1.928  0.7804  3.6922 -0.8764
  767SOL     MW 3068   2.683   0.671   1.914  0.1005  0.9965  0.5400
  768SOL     OW 3069   0.064   1.539   2.971  0.3902 -0.5642  0.3959
  768SOL    HW1 3070   0.087   1.494   3.052  0.4311  1.5293  1.5117
  768SOL    HW2 3071   0.086   1.478   2.905  1.6170  0.9753  1.4567
  768SOL     MW 3072   0.070   1.525   2.973  0.5575 -0.0849  0.6831
  769SOL     OW 3073   2.348   0.668   2.342 -0.2999 -0.2303 -0.2876
  769SOL    HW1 3074   2.275   0.627   2.301 -0.3241 -0.4868 -2.4017
  769SOL    HW2 3075   2.425   0.631   2.300 -0.2761  0.6287 -1.1711
  769SOL     MW 3076   2.348   0.658   2.331 -0.2999 -0.1508 -0.6831
  770SOL     OW 3077   0.029   1.662   2.606  0.7218  0.2682  0.5988
  770SOL    HW1 3078  -0.058   1.654   2.651 -0.6868 -0.0555 -0.8731
  770SOL    HW2 3079   0.081   1.584   2.639  0.3401  2.4902 -0.8623
  770SOL     MW 3080   0.024   1.651   2.616  0.4856  0.5187  0.2118
  771SOL     OW 3081   3.060   0.671   1.945  0.0654  0.9000  0.2684
  771SOL    HW1 3082   3.029   0.615   1.863  2.6024 -1.1556 -1.4461
  771SOL    HW2 3083   3.146   0.642   1.961 -1.1554  0.1508  1.1507
  771SOL     MW 3084   3.067   0.660   1.937  0.2390  0.5299  0.1586
  772SOL     OW 3085   3.087   0.023   2.286  0.4297 -0.2992 -0.2898
  772SOL    HW1 3086   2.997  -0.015   2.309 -2.9804  0.6771  3.3909
  772SOL    HW2 3087   3.132  -0.058   2.260 -1.0732 -1.2785 -2.3367
  772SOL     MW 3088   3.081   0.008   2.286 -0.2185 -0.2996 -0.0743
  773SOL     OW 3089   2.430   2.831   2.754 -0.4914 -0.1812 -0.1953
  773SOL    HW1 3090   2.415   2.746   2.706 -0.5884 -0.5702  0.0177
  773SOL    HW2 3091   2.424   2.819   2.848  0.1590 -0.8060 -0.2939
  773SOL     MW 3092   2.427   2.818   2.760 -0.4184 -0.3149 -0.1802
  774SOL     OW 3093   2.289   1.166   1.737  0.1699 -0.2740  0.4438
  774SOL    HW1 3094   2.275   1.239   1.675 -1.5965  0.2763 -0.9582
  774SOL    HW2 3095   2.241   1.095   1.702 -1.7494  1.2189 -1.6885
  774SOL     MW 3096   2.281   1.166   1.724 -0.3164 -0.0045 -0.0225
  775SOL     OW 3097   2.231   3.020   2.400 -0.5045  0.0270  0.0322
  775SOL    HW1 3098   2.246   3.095   2.341  2.3634 -0.0579  0.2175
  775SOL    HW2 3099   2.310   2.966   2.391  0.4300  1.2456 -2.4575
  775SOL     MW 3100   2.243   3.023   2.391 -0.0028  0.1766 -0.2718
  776SOL     OW 3101   0.143   1.454   0.142 -0.1157 -0.5159 -0.1402
  776SOL    HW1 3102   0.232   1.411   0.136 -1.0421 -0.8912 -2.0047
  776SOL    HW2 3103   0.083   1.388   0.172  0.7795  1.7984  2.5851
  776SOL     MW 3104   0.147   1.440   0.145 -0.1198 -0.2600 -0.0266
  777SOL     OW 3105   3.008   1.071   1.708  0.3286 -0.0049 -0.3895
  777SOL    HW1 3106   2.987   1.150   1.654 -0.8034  1.2396  0.9886
  777SOL    HW2 3107   2.918   1.051   1.743 -0.1141 -2.3686 -0.4441
  777SOL     MW 3108   2.994   1.079   1.705  0.1208 -0.1526 -0.2149
  778SOL     OW 3109   2.844   0.438   2.759  0.3198 -0.2757  0.0729
  778SOL    HW1 3110   2.798   0.461   2.839  1.7738  0.2862 -3.3194
  778SOL    HW2 3111   2.868   0.527   2.729  1.9612  1.7851 -0.7054
  778SOL     MW 3112   2.841   0.453   2.765  0.7282  0.0703 -0.4774
  779SOL     OW 3113   2.091   0.551   2.223 -0.1053  0.1956  0.5046
  779SOL    HW1 3114   2.019   0.606   2.240 -0.9147  2.5085 -0.5105
  779SOL    HW2 3115   2.101   0.513   2.310 -1.3302 -1.9770  3.0710
  779SOL     MW 3116   2.083   0.554   2.237 -0.3737  0.2141  0.7093
  780SOL     OW 3117   0.103   0.219   2.735 -0.5001 -0.2634  1.0398
  780SOL    HW1 3118   0.097   0.260   2.818 -2.4296 -2.1909  3.2086
  780SOL    HW2 3119   0.013   0.228   2.703  0.1171  0.9476 -1.1683
  780SOL     MW 3120   0.090   0.226   2.742 -0.6733 -0.3579  1.0346
  781SOL     OW 3121   3.035   1.320   2.515  0.1872  0.2075  0.2687
  781SOL    HW1 3122   3.020   1.357   2.425  1.1301 -2.0527 -0.7777
  781SOL    HW2 3123   3.050   1.227   2.498  0.0072  0.5936  0.9214
  781SOL     MW 3124   3.035   1.312   2.501  0.2879 -0.0398  0.2167
  782SOL     OW 3125   0.714   1.497  -0.005  0.6464 -0.8907 -0.1834
  782SOL    HW1 3126   0.650   1.571   0.014  0.9174  3.1662  0.4613
  782SOL    HW2 3127   0.775   1.490   0.076 -0.0064 -0.5947 -0.0795
  782SOL     MW 3128   0.713   1.506   0.008  0.5960 -0.3164 -0.0846
  783SOL     OW 3129   2.730   0.515   2.410  0.1836 -0.3374 -0.6142
  783SOL    HW1 3130   2.669   0.509   2.337  0.5251 -1.6719  0.3769
  783SOL    HW2 3131   2.677   0.503   2.492 -0.3294 -1.5139 -1.5705
  783SOL     MW 3132   2.715   0.512   2.411  0.1610 -0.6687 -0.6096
  784SOL     OW 3133   0.176   0.832   2.782 -0.1285 -0.1717  0.9081
  784SOL    HW1 3134   0.102   0.890   2.781 -2.6609 -0.4098 -1.8457
  784SOL    HW2 3135   0.252   0.887   2.738 -0.8579  2.9609 -2.9310
  784SOL     MW 3136   0.176   0.847   2.776 -0.5588  0.2102  0.0382
  785SOL     OW 3137   0.413   0.515   2.177 -0.4755 -0.3417  0.1478
  785SOL    HW1 3138   0.449   0.547   2.094  3.3455  0.5210  1.1978
  785SOL    HW2 3139   0.331   0.478   2.155  0.6626  0.0054 -0.5191
  785SOL     MW 3140   0.407   0.515   2.163  0.1788 -0.1821  0.1983
  786SOL     OW 3141   1.976   0.325   2.935  0.1661  0.6849  0.1277
  786SOL    HW1 3142   1.963   0.410   2.971 -0.5691 -0.8113  3.5439
  786SOL    HW2 3143   2.015   0.332   2.846 -0.9368  1.7005 -0.1455
  786SOL     MW 3144   1.980   0.337   2.928 -0.0764  0.6215  0.5424
  787SOL     OW 3145   2.411   0.202   2.903 -0.2395  0.0300 -0.3311
  787SOL    HW1 3146   2.457   0.123   2.863  1.5836 -1.3353 -0.2447
  787SOL    HW2 3147   2.469   0.243   2.964 -0.0679  1.3827  3.1250
  787SOL     MW 3148   2.425   0.197   2.906  0.0236  0.0284  0.1363
  788SOL     OW 3149   2.860   3.005   2.349 -0.3179  0.5672  0.2723
  788SOL    HW1 3150   2.858   3.024   2.444 -1.2664 -1.6346  0.0413
  788SOL    HW2 3151   2.895   2.918   2.320  1.8998 -1.2713  3.7251
  788SOL     MW 3152   2.865   2.996   2.358 -0.1504  0.0341  0.6974
  789SOL     OW 3153   0.084   0.182   3.047 -0.0040  0.7640 -0.3310
  789SOL    HW1 3154   0.012   0.115   3.065 -1.1226 -1.5400 -0.7579
  789SOL    HW2 3155   0.047   0.264   3.011  0.8608  2.7972 -0.2726
  789SOL     MW 3156   0.070   0.184   3.044 -0.0375  0.7283 -0.3796
  790SOL     OW 3157   3.101   1.068   2.424  0.4306  0.2827  0.5689
  790SOL    HW1 3158   3.030   1.012   2.461 -3.0370 -1.4688 -0.4023
  790SOL    HW2 3159   3.075   1.071   2.331 -1.3417  0.2362  0.7153
  790SOL     MW 3160   3.088   1.061   2.417 -0.2607  0.0454  0.4600
  791SOL     OW 3161   2.594   0.407   2.644  0.3114  0.0258  0.2814
  791SOL    HW1 3162   2.524   0.438   2.695  0.3535  0.5626 -3.8260
  791SOL    HW2 3163   2.672   0.404   2.705 -0.1241  0.6234  1.0425
  791SOL     MW 3164   2.595   0.411   2.659  0.2595  0.1755 -0.1601
  792SOL     OW 3165   2.349   0.352   2.395  0.0178  0.5522  0.1947
  792SOL    HW1 3166   2.261   0.367   2.426 -1.5715 -0.3273 -4.0201
  792SOL    HW2 3167   2.394   0.292   2.448  0.3741 -0.9613 -3.9946
  792SOL     MW 3168   2.343   0.346   2.406 -0.1449  0.2365 -0.9141
  793SOL     OW 3169   1.869   1.139   1.954 -0.6579 -0.5345  0.2530
  793SOL    HW1 3170   1.820   1.164   1.868 -0.8703  0.0686 -0.4621
  793SOL    HW2 3171   1.924   1.064   1.923 -0.1250 -3.2234  1.5850
  793SOL     MW 3172   1.869   1.133   1.939 -0.6156 -0.8097  0.3344
  794SOL     OW 3173   1.423   2.284   0.140 -0.0954 -0.5957 -0.1798
  794SOL    HW1 3174   1.461   2.324   0.059  1.0699  0.2249 -2.8052
  794SOL    HW2 3175   1.478   2.316   0.214 -0.7416 -0.7566 -2.7977
  794SOL     MW 3176   1.435   2.294   0.139 -0.0269 -0.5086 -0.8716
  795SOL     OW 3177   2.330   1.035   2.634  0.4126 -0.0037 -0.2849
  795SOL    HW1 3178   2.296   1.120   2.679 -1.6358 -0.3745 -0.5592
  795SOL    HW2 3179   2.356   1.062   2.541 -0.1429  1.9384 -1.7669
  795SOL     MW 3180   2.329   1.050   2.628  0.0690  0.2036 -0.5166
  796SOL     OW 3181   0.306   0.586   2.786 -0.3199  0.2783 -0.5313
  796SOL    HW1 3182   0.262   0.672   2.810  4.8013  1.1377 -1.6529
  796SOL    HW2 3183   0.279   0.570   2.698 -0.1562 -4.6947  0.0988
  796SOL     MW 3184   0.297   0.595   2.778  0.3774 -0.2645 -0.5961
  797SOL     OW 3185   2.619   0.121   2.575 -0.2654 -0.0929 -0.5822
  797SOL    HW1 3186   2.604   0.207   2.593 -0.1966 -4.9549  1.0672
  797SOL    HW2 3187   2.645   0.100   2.482  0.9222 -1.4177 -3.3716
  797SOL     MW 3188   2.621   0.130   2.565 -0.0996 -0.9092 -0.7326
  798SOL     OW 3189   2.297   0.132   2.241 -0.5701 -0.4045  0.2096
  798SOL    HW1 3190   2.329   0.214   2.286  2.1063 -0.2059  1.1750
  798SOL    HW2 3191   2.368   0.109   2.179  2.1294 -1.1977  0.9765
  798SOL     MW 3192   2.311   0.140   2.239  0.1392 -0.4829  0.4382
  799SOL     OW 3193   2.548   2.955   3.079  0.1577  0.1827 -0.2414
  799SOL    HW1 3194   2.471   2.896   3.073 -1.1898  2.1110 -0.3377
  799SOL    HW2 3195   2.498   3.038   3.074 -3.1308  0.3031  1.7016
  799SOL     MW 3196   2.532   2.958   3.077 -0.4540  0.4530  0.0023
  800SOL     OW 3197   1.956   3.095   1.703 -0.5251  0.0783 -0.0937
  800SOL    HW1 3198   1.882   3.030   1.702 -1.0543 -1.1971  1.2775
  800SOL    HW2 3199   1.997   3.087   1.785 -2.1201 -0.0211 -0.1544
  800SOL     MW 3200   1.952   3.085   1.714 -0.8053 -0.1031  0.0792
  801SOL     OW 3201   2.783   1.297   2.633 -0.3070  0.2045 -0.4259
  801SOL    HW1 3202   2.773   1.201   2.641  0.4021  2.6406  0.3382
  801SOL    HW2 3203   2.867   1.303   2.581 -0.2266 -1.7802 -2.0782
  801SOL     MW 3204   2.792   1.285   2.627 -0.2029  0.2640 -0.5431
  802SOL     OW 3205   2.634   1.524   2.748  0.0341 -0.1034 -0.6558
  802SOL    HW1 3206   2.642   1.423   2.758 -0.4628 -0.5507 -0.5549
  802SOL    HW2 3207   2.707   1.552   2.800 -2.3448  1.5997  3.2178
  802SOL     MW 3208   2.645   1.514   2.756 -0.3454  0.0623 -0.1314
  803SOL     OW 3209   2.293   1.336   1.986 -1.0169  0.0829  0.4739
  803SOL    HW1 3210   2.255   1.316   2.079 -1.0080 -1.6689  2.6406
  803SOL    HW2 3211   2.251   1.279   1.922  0.8663  0.8321 -0.6455
  803SOL     MW 3212   2.283   1.326   1.990 -0.7672 -0.0494  0.6121
  804SOL     OW 3213   2.306   0.049   3.088  0.0531  0.2626 -0.7284
  804SOL    HW1 3214   2.222   0.098   3.117 -1.4380  0.9347  1.2476
  804SOL    HW2 3215   2.338   0.108   3.018  0.2611  0.0977 -1.0306
  804SOL     MW 3216   2.299   0.063   3.082 -0.1162  0.3295 -0.5075
  805SOL     OW 3217   2.676   1.031   2.589 -0.4750 -0.1308 -0.0170
  805SOL    HW1 3218   2.683   1.097   2.520  2.9314 -1.0510 -0.2407
  805SOL    HW2 3219   2.756   0.972   2.581  1.0010  0.9683  0.6021
  805SOL     MW 3220   2.688   1.032   2.578  0.1692 -0.1072  0.0352
  806SOL     OW 3221   2.530   0.471   2.208 -0.3506 -0.2033  0.1808
  806SOL    HW1 3222   2.465   0.426   2.264  1.3391  0.2146  5.3608
  806SOL    HW2 3223   2.497   0.489   2.118 -0.2697 -2.6894  0.8624
  806SOL     MW 3224   2.517   0.467   2.204 -0.1170 -0.4762  0.9541
  807SOL     OW 3225   0.040   1.143   1.989  0.4327 -1.0056  0.5909
  807SOL    HW1 3226   0.067   1.056   1.959 -0.2401  0.6249 -2.9984
  807SOL    HW2 3227  -0.033   1.137   2.055 -1.9081 -0.7011  3.9101
  807SOL     MW 3228   0.034   1.131   1.994  0.0351 -0.7503  0.5553
  808SOL     OW 3229   2.555   3.075   2.796 -0.5720  0.6263 -0.3146
  808SOL    HW1 3230   2.529   2.981   2.778 -0.1526 -0.0191  1.4765
  808SOL    HW2 3231   2.563   3.119   2.708  0.1757  1.6267 -1.5588
  808SOL     MW 3232   2.553   3.069   2.782 -0.4180  0.6731 -0.2424
  809SOL     OW 3233   2.574   1.294   2.418  0.0212 -0.2801 -0.2264
  809SOL    HW1 3234   2.632   1.362   2.447 -2.9169 -0.0176 -1.5907
  809SOL    HW2 3235   2.611   1.278   2.330 -0.7508 -0.7787 -1.5459
  809SOL     MW 3236   2.587   1.301   2.410 -0.4683 -0.3113 -0.5805
  810SOL     OW 3237   2.198   1.281   2.236  0.2530  0.3154 -0.3102
  810SOL    HW1 3238   2.265   1.221   2.278  1.6401 -0.6182  0.4258
  810SOL    HW2 3239   2.115   1.232   2.220  1.3053 -0.7371 -0.6921
  810SOL     MW 3240   2.196   1.267   2.239  0.5748  0.0534 -0.2635
  811SOL     OW 3241   1.554   0.145   2.320 -0.3528  0.3628 -0.1708
  811SOL    HW1 3242   1.601   0.082   2.370 -1.1621  0.1676 -2.0826
  811SOL    HW2 3243   1.563   0.113   2.224  0.6758 -2.8335  0.4923
  811SOL     MW 3244   1.561   0.132   2.314 -0.3239 -0.0847 -0.3355
  812SOL     OW 3245   1.483   2.878   2.097  0.4902  0.1069  0.6255
  812SOL    HW1 3246   1.569   2.870   2.060 -3.1381  0.8563  0.4433
  812SOL    HW2 3247   1.494   2.827   2.174  0.8230  0.6074 -1.1739
  812SOL     MW 3248   1.496   2.870   2.102  0.0554  0.2718  0.3640
  813SOL     OW 3249   1.882   0.732   2.180 -0.1360 -0.7318 -0.4873
  813SOL    HW1 3250   1.824   0.666   2.209  0.6344  3.6328 -1.4430
  813SOL    HW2 3251   1.886   0.787   2.259  0.5805 -0.8379  1.6980
  813SOL     MW 3252   1.875   0.730   2.194  0.0602 -0.1699 -0.3251
  814SOL     OW 3253   2.731   1.269   1.598  0.1063  0.6083  0.4022
  814SOL    HW1 3254   2.654   1.232   1.633 -0.0887 -2.2308 -0.0556
  814SOL    HW2 3255   2.744   1.223   1.517 -0.1525 -2.2089 -0.9182
  814SOL     MW 3256   2.723   1.258   1.592  0.0464 -0.1380  0.1676
  815SOL     OW 3257   2.510   1.684   2.333 -0.1890 -0.3609 -0.2303
  815SOL    HW1 3258   2.444   1.618   2.344 -1.3934 -3.8853 -0.0843
  815SOL    HW2 3259   2.599   1.640   2.340 -2.5994 -1.6225 -3.2243
  815SOL     MW 3260   2.513   1.670   2.335 -0.6659 -0.9923 -0.6061
  816SOL     OW 3261   0.780   0.665   2.766 -0.0169  0.7243  0.7257
  816SOL    HW1 3262   0.774   0.580   2.805  0.5369 -0.0893  0.3048
  816SOL    HW2 3263   0.687   0.674   2.729  1.4080  0.0655 -3.2078
  816SOL     MW 3264   0.767   0.655   2.766  0.2442  0.5300  0.1512
  817SOL     OW 3265   3.054   1.238   1.499  0.6395  0.6943 -0.0837
  817SOL    HW1 3266   3.141   1.217   1.528  0.3313  0.9596  1.8814
  817SOL    HW2 3267   3.063   1.334   1.486  1.1786 -2.0102  1.9908
  817SOL     MW 3268   3.066   1.248   1.501  0.6700  0.3725  0.4493
  818SOL     OW 3269   1.916   1.034   2.660  0.3852  0.6010  0.2975
  818SOL    HW1 3270   1.860   1.027   2.581 -1.5741 -0.4636  0.2465
  818SOL    HW2 3271   1.983   0.968   2.651 -0.8216 -1.7883  0.6618
  818SOL     MW 3272   1.917   1.025   2.649 -0.0325  0.1453  0.3388
  819SOL     OW 3273   1.905   0.205   2.465 -0.0669  0.4930  0.1456
  819SOL    HW1 3274   1.843   0.272   2.498  3.1579 -1.2410 -0.1515
  819SOL    HW2 3275   1.955   0.193   2.544 -1.4806  2.5670 -0.7619
  819SOL     MW 3276   1.903   0.213   2.479  0.1721  0.5379 -0.0133
  820SOL     OW 3277   2.473   1.711   2.620 -0.1021 -0.4633 -0.2918
  820SOL    HW1 3278   2.510   1.638   2.675 -1.0051  0.3967  0.5841
  820SOL    HW2 3279   2.510   1.694   2.534  0.3755 -3.5582  0.4815
  820SOL     MW 3280   2.483   1.699   2.616 -0.1582 -0.7581 -0.0742
  821SOL     OW 3281   2.558   1.398   1.976  0.0417 -0.0128 -0.3894
  821SOL    HW1 3282   2.567   1.490   1.933  2.4860  0.1924 -2.6557
  821SOL    HW2 3283   2.463   1.387   1.973  1.9114 -3.2634 -1.8039
  821SOL     MW 3284   2.547   1.409   1.970  0.6109 -0.4146 -0.8750
  822SOL     OW 3285   2.733   2.635   1.456 -0.0780  0.0040  0.8108
  822SOL    HW1 3286   2.778   2.646   1.543  2.6818 -0.5095 -1.3227
  822SOL    HW2 3287   2.667   2.704   1.454  3.9894 -0.0936  2.8332
  822SOL     MW 3288   2.731   2.646   1.467  0.8228 -0.0766  0.7961
  823SOL     OW 3289   2.256   0.511   1.747 -0.0153  0.3572 -0.0034
  823SOL    HW1 3290   2.338   0.473   1.708 -0.6229  1.4442 -0.7499
  823SOL    HW2 3291   2.188   0.454   1.716  2.4083 -0.9782  0.4187
  823SOL     MW 3292   2.258   0.498   1.737  0.2243  0.3245 -0.0462
  824SOL     OW 3293   2.093   1.410   2.570  0.5296 -0.3973  0.2206
  824SOL    HW1 3294   2.140   1.438   2.490  1.4885  0.3555  1.0607
  824SOL    HW2 3295   2.061   1.491   2.609  2.3567 -0.9781  1.9239
  824SOL     MW 3296   2.095   1.425   2.565  0.8972 -0.3746  0.5562
  825SOL     OW 3297   1.978   2.567   0.279  0.3195  0.0737 -0.3774
  825SOL    HW1 3298   1.972   2.506   0.355  0.5369  1.8687  1.7661
  825SOL    HW2 3299   2.056   2.549   0.223  2.0878 -2.3257 -0.5288
  825SOL     MW 3300   1.987   2.557   0.282  0.5815 -0.0061 -0.1145
  826SOL     OW 3301   1.897   2.389   0.503  0.0090  0.4557 -0.0339
  826SOL    HW1 3302   1.849   2.318   0.553 -1.2831 -0.4181  1.5565
  826SOL    HW2 3303   1.861   2.473   0.537 -2.6040  0.5339 -0.4670
  826SOL     MW 3304   1.886   2.391   0.514 -0.5063  0.3507  0.1188
  827SOL     OW 3305   1.917   2.231   0.931 -0.2630 -0.0954  0.2354
  827SOL    HW1 3306   1.873   2.315   0.915  2.3303  3.3199 -1.0899
  827SOL    HW2 3307   1.864   2.164   0.964  0.3967  1.6600  0.7333
  827SOL     MW 3308   1.905   2.233   0.934  0.1662  0.5868  0.1262
  828SOL     OW 3309   0.044   2.607   0.569 -0.2850  0.4965 -0.7413
  828SOL    HW1 3310   0.136   2.624   0.579 -1.0963 -0.2917 -1.9383
  828SOL    HW2 3311   0.014   2.639   0.485  1.9953  0.6260  1.2813
  828SOL     MW 3312   0.052   2.613   0.559 -0.0912  0.4096 -0.6323
  829SOL     OW 3313   2.910   2.951   1.216 -0.0421 -0.0819  0.5032
  829SOL    HW1 3314   2.830   2.923   1.168 -0.2476 -1.1166  0.7065
  829SOL    HW2 3315   2.953   2.870   1.244 -1.0007 -0.4208  1.2586
  829SOL     MW 3316   2.905   2.936   1.213 -0.1957 -0.2631  0.6297
  830SOL     OW 3317   2.504   2.859   2.030 -0.4248  0.1979 -0.7202
  830SOL    HW1 3318   2.423   2.842   1.984  0.9000 -0.5407 -0.7299
  830SOL    HW2 3319   2.573   2.817   1.973 -0.1414  1.8631 -0.9695
  830SOL     MW 3320   2.502   2.851   2.016 -0.2126  0.3202 -0.7543
  831SOL     OW 3321   2.405   2.431   1.317  0.0190 -0.3249  0.1676
  831SOL    HW1 3322   2.347   2.385   1.379  2.9910 -1.7278 -1.2233
  831SOL    HW2 3323   2.483   2.369   1.309 -0.7968  0.8767  1.2035
  831SOL     MW 3324   2.407   2.416   1.324  0.3035 -0.3515  0.1207
  832SOL     OW 3325   2.421   2.186   1.911 -0.2648  0.0734  0.2820
  832SOL    HW1 3326   2.445   2.279   1.935  1.2349 -2.1245  1.8053
  832SOL    HW2 3327   2.495   2.148   1.863  1.1037  0.4363 -0.2703
  832SOL     MW 3328   2.434   2.194   1.907  0.1136 -0.1687  0.4101
  833SOL     OW 3329   1.786   2.453   0.892 -0.5885  0.0504  0.1699
  833SOL    HW1 3330   1.705   2.411   0.892  2.4703  2.1308 -0.5021
  833SOL    HW2 3331   1.770   2.525   0.959  3.5114 -3.0855 -0.7399
  833SOL     MW 3332   1.773   2.457   0.901  0.3560 -0.0889 -0.0388
  834SOL     OW 3333   2.213   2.490   0.585  0.2381 -0.0104 -0.0410
  834SOL    HW1 3334   2.158   2.418   0.602  2.1475  0.6605  4.3358
  834SOL    HW2 3335   2.238   2.485   0.497  3.3718 -0.0171  0.4365
  834SOL     MW 3336   2.209   2.480   0.576  0.9035  0.0772  0.5995
  835SOL     OW 3337   1.787   2.575   0.630 -0.3096 -0.7298  0.0990
  835SOL    HW1 3338   1.783   2.533   0.717 -2.1025  2.6769 -1.1650
  835SOL    HW2 3339   1.864   2.637   0.648  0.8132  1.7103  1.2381
  835SOL     MW 3340   1.796   2.578   0.644 -0.3980  0.0416  0.0826
  836SOL     OW 3341   1.930   2.206   1.608 -0.0813  0.1036 -0.0683
  836SOL    HW1 3342   1.998   2.194   1.676 -1.1791 -0.3290  1.4655
  836SOL    HW2 3343   1.883   2.290   1.625 -3.1310 -1.3639  1.9477
  836SOL     MW 3344   1.933   2.216   1.619 -0.6285 -0.1471  0.4001
  837SOL     OW 3345   2.138   0.199   0.694  0.3368  0.0511 -0.3669
  837SOL    HW1 3346   2.068   0.253   0.668  3.0290 -0.9084 -0.5425
  837SOL    HW2 3347   2.150   0.140   0.619  1.6437 -1.4055 -2.8255
  837SOL     MW 3348   2.130   0.198   0.680  0.8644 -0.2677 -0.7145
  838SOL     OW 3349   2.933   2.156   0.875  0.1887 -0.2821 -0.5808
  838SOL    HW1 3350   2.860   2.109   0.925  0.1269 -1.0482  0.8896
  838SOL    HW2 3351   2.987   2.090   0.836 -1.1672  1.2965 -2.0269
  838SOL     MW 3352   2.931   2.141   0.876  0.0017 -0.1749 -0.5776
  839SOL     OW 3353   1.553   2.332   0.947  0.2193  0.0592 -0.2725
  839SOL    HW1 3354   1.536   2.420   0.984  1.5110  2.6695 -2.7836
  839SOL    HW2 3355   1.548   2.266   1.020  0.2094  0.3275 -0.1457
  839SOL     MW 3356   1.550   2.335   0.962  0.3884  0.4390 -0.5871
  840SOL     OW 3357   2.292   2.115   2.404 -0.1775  0.2538 -0.2876
  840SOL    HW1 3358   2.298   2.192   2.341 -1.2544  1.9378 -3.3765
  840SOL    HW2 3359   2.346   2.151   2.476  0.0771  0.5536  0.7617
  840SOL     MW 3360   2.300   2.130   2.405 -0.2860  0.5155 -0.5567
  841SOL     OW 3361   2.136   2.440   0.108  0.6251  0.2048 -0.2419
  841SOL    HW1 3362   2.166   2.448   0.020 -0.8063  1.5046  0.2670
  841SOL    HW2 3363   2.072   2.364   0.107  0.5375 -0.7390  1.1368
  841SOL     MW 3364   2.131   2.431   0.096  0.4247  0.2518  0.0071
  842SOL     OW 3365   2.687   1.919   1.594  0.0440  0.4532 -0.1662
  842SOL    HW1 3366   2.630   1.844   1.576  2.2902 -0.1371  0.7996
  842SOL    HW2 3367   2.650   1.985   1.536 -2.3100  0.7246 -1.5941
  842SOL     MW 3368   2.674   1.918   1.584  0.0298  0.4111 -0.2272
  843SOL     OW 3369   2.616   2.749   1.781  0.5154  0.4703  0.3223
  843SOL    HW1 3370   2.707   2.719   1.782 -1.0968 -2.0124 -1.8083
  843SOL    HW2 3371   2.556   2.676   1.754 -1.3123  0.1710 -0.3741
  843SOL     MW 3372   2.620   2.736   1.777  0.0615  0.1033 -0.0507
  844SOL     OW 3373   2.616   2.286   1.209  0.0864 -0.3212  0.4599
  844SOL    HW1 3374   2.653   2.317   1.122  1.2943 -1.3006 -3.0976
  844SOL    HW2 3375   2.687   2.307   1.279 -0.2629 -2.2280 -1.2378
  844SOL     MW 3376   2.630   2.292   1.207  0.1997 -0.7020 -0.2335
  845SOL     OW 3377   2.848   2.447   0.316 -0.0819 -0.2052  0.1434
  845SOL    HW1 3378   2.799   2.367   0.328  0.4857 -1.4028 -0.2412
  845SOL    HW2 3379   2.880   2.472   0.399 -1.9636 -1.1604  2.0949
  845SOL     MW 3380   2.846   2.440   0.328 -0.2553 -0.4893  0.3502
  846SOL     OW 3381   1.520   2.870   0.764  0.1661 -0.1266 -0.1598
  846SOL    HW1 3382   1.610   2.887   0.790 -1.5259  0.7568 -1.5331
  846SOL    HW2 3383   1.458   2.920   0.821 -2.4332 -0.0094  0.9114
  846SOL     MW 3384   1.523   2.879   0.775 -0.4001  0.0054 -0.1997
  847SOL     OW 3385   2.527   1.891   0.152 -0.3293 -0.4217  0.0471
  847SOL    HW1 3386   2.568   1.819   0.210 -0.5913  0.3593  1.8330
  847SOL    HW2 3387   2.453   1.847   0.111 -2.7121 -1.4470 -0.7246
  847SOL     MW 3388   2.523   1.876   0.154 -0.6783 -0.4539  0.1809
  848SOL     OW 3389   2.545   2.065   1.406 -0.1283 -0.4908 -0.0781
  848SOL    HW1 3390   2.595   2.086   1.326  0.9519  2.8069 -0.2975
  848SOL    HW2 3391   2.493   1.986   1.390  0.2575 -2.2626  0.4376
  848SOL     MW 3392   2.545   2.057   1.393  0.0652 -0.2895 -0.0390
  849SOL     OW 3393   1.986   2.737   0.741  0.4854  0.6552 -0.8727
  849SOL    HW1 3394   2.037   2.681   0.804  2.5552  1.9209  1.5365
  849SOL    HW2 3395   2.052   2.755   0.676 -0.4369 -2.1014  0.8634
  849SOL     MW 3396   2.001   2.732   0.740  0.6368  0.4585 -0.3258
  850SOL     OW 3397   2.223   1.940   1.626  0.4055 -0.4654  0.2142
  850SOL    HW1 3398   2.149   1.903   1.579  0.0252 -0.7691 -0.5136
  850SOL    HW2 3399   2.197   2.027   1.659  1.2526  0.5664  1.7297
  850SOL     MW 3400   2.210   1.947   1.624  0.4671 -0.3694  0.3181
  851SOL     OW 3401   2.280   2.405   0.337 -0.0076  0.1965  0.1967
  851SOL    HW1 3402   2.236   2.404   0.249  2.7524  0.7106  0.3251
  851SOL    HW2 3403   2.346   2.483   0.330 -2.8456 -1.3791  0.2180
  851SOL     MW 3404   2.283   2.415   0.324 -0.0179  0.0565  0.2164
  852SOL     OW 3405   2.374   2.135   0.304 -0.0111 -0.8355  0.1019
  852SOL    HW1 3406   2.363   2.228   0.314 -1.8890 -1.2084  0.5174
  852SOL    HW2 3407   2.448   2.135   0.246 -3.6044  0.7772  2.2631
  852SOL     MW 3408   2.382   2.147   0.298 -0.7330 -0.6719  0.4419
  853SOL     OW 3409   2.497   2.438   1.996  0.1532 -0.0273  0.0196
  853SOL    HW1 3410   2.506   2.468   1.903  0.8149 -1.2212  0.9857
  853SOL    HW2 3411   2.587   2.427   2.030 -3.0316 -1.1835 -2.8506
  853SOL     MW 3412   2.510   2.441   1.989 -0.1797 -0.3374 -0.2316
  854SOL     OW 3413   2.818   2.357   0.751 -0.0719  0.3603  0.3766
  854SOL    HW1 3414   2.750   2.302   0.716 -1.3746  1.2087 -1.7327
  854SOL    HW2 3415   2.879   2.292   0.793  1.0072 -0.2965  0.1340
  854SOL     MW 3416   2.817   2.341   0.752 -0.1014  0.3856  0.0663
  855SOL     OW 3417   2.700   2.223   0.395 -0.0390  0.1993  0.0265
  855SOL    HW1 3418   2.682   2.293   0.464 -1.7155 -2.3910  1.9862
  855SOL    HW2 3419   2.772   2.170   0.436  1.4356 -2.6062  0.6421
  855SOL     MW 3420   2.707   2.225   0.410 -0.0657 -0.5126  0.3663
  856SOL     OW 3421   2.200   1.944   0.172  0.0676 -0.0324 -0.4667
  856SOL    HW1 3422   2.110   1.925   0.203 -1.2792  0.2842 -0.1422
  856SOL    HW2 3423   2.249   2.001   0.233  1.2343 -1.6340  1.4778
  856SOL     MW 3424   2.194   1.949   0.185  0.0438 -0.2020 -0.1673
  857SOL     OW 3425   2.610   2.007   0.487 -0.2664  0.2412 -0.3252
  857SOL    HW1 3426   2.624   2.098   0.444 -1.1731  0.8705  2.0734
  857SOL    HW2 3427   2.561   1.968   0.414  1.3807  2.0778  4.9484
  857SOL     MW 3428   2.605   2.014   0.471 -0.1687  0.5666  0.6871
  858SOL     OW 3429   2.864   2.658   1.696  0.5397 -0.0847  0.2630
  858SOL    HW1 3430   2.954   2.688   1.714 -0.8296 -1.0445 -1.0549
  858SOL    HW2 3431   2.870   2.586   1.750  2.5226  1.3730  1.0487
  858SOL     MW 3432   2.877   2.653   1.705  0.6206 -0.0190  0.1927
  859SOL     OW 3433   2.144   2.571   0.910 -0.7317 -0.2383  0.4218
  859SOL    HW1 3434   2.123   2.504   0.980  1.1747  0.4586  1.2263
  859SOL    HW2 3435   2.230   2.550   0.875 -1.4409  1.2901 -0.7305
  859SOL     MW 3436   2.153   2.560   0.914 -0.5737  0.0553  0.3759
  860SOL     OW 3437   2.669   2.598   0.177  0.5058 -0.4550 -0.2528
  860SOL    HW1 3438   2.740   2.548   0.216 -0.9880  2.8266  0.0974
  860SOL    HW2 3439   2.700   2.653   0.108 -2.2374  1.4222  1.7533
  860SOL     MW 3440   2.682   2.599   0.173 -0.0532  0.2257  0.0581
  861SOL     OW 3441   1.555   2.152   1.150  0.3406  0.0241  0.2013
  861SOL    HW1 3442   1.574   2.216   1.216 -0.1406 -1.5642  1.6892
  861SOL    HW2 3443   1.495   2.089   1.185  0.7239  0.9824  0.4260
  861SOL     MW 3444   1.549   2.152   1.163  0.3277 -0.0590  0.4272
  862SOL     OW 3445   2.427   1.783   1.548  0.2213 -0.0651  0.1323
  862SOL    HW1 3446   2.364   1.841   1.594 -0.0070 -0.8157  5.3948
  862SOL    HW2 3447   2.416   1.802   1.456  0.7524  1.2513 -1.9376
  862SOL     MW 3448   2.417   1.793   1.542  0.2612  0.0096  0.5535
  863SOL     OW 3449   3.024   1.838   1.047 -0.2533 -0.9739  0.1414
  863SOL    HW1 3450   3.107   1.810   1.079 -0.6321  0.6471 -2.1039
  863SOL    HW2 3451   2.991   1.902   1.111  2.0289  1.2039  0.8045
  863SOL     MW 3452   3.031   1.843   1.060 -0.0022 -0.4727 -0.0674
  864SOL     OW 3453   3.070   1.922   0.793 -0.5163 -0.0105  0.4901
  864SOL    HW1 3454   3.046   1.900   0.884  0.0704  2.3656  1.1263
  864SOL    HW2 3455   3.038   1.838   0.748  0.8624  0.8055 -2.4832
  864SOL     MW 3456   3.062   1.908   0.799 -0.2570  0.4107  0.1818
  865SOL     OW 3457   2.615   2.134   3.103 -0.1072  0.2509 -0.0486
  865SOL    HW1 3458   2.654   2.050   3.122  0.9231  1.8400 -1.2428
  865SOL    HW2 3459   2.561   2.121   3.024  0.4537  0.1256  0.5035
  865SOL     MW 3460   2.613   2.121   3.095  0.1028  0.4440 -0.1333
  866SOL     OW 3461   2.689   2.317   1.632  0.2313  0.1006 -0.0686
  866SOL    HW1 3462   2.687   2.226   1.662  1.1510  0.4604  1.9613
  866SOL    HW2 3463   2.755   2.324   1.556 -1.3459  2.1715 -2.5030
  866SOL     MW 3464   2.697   2.306   1.626  0.1446  0.4213 -0.1219
  867SOL     OW 3465   0.020   2.706   1.800  0.1612  0.5888 -0.0297
  867SOL    HW1 3466   0.035   2.681   1.890  0.6883 -0.2660  2.4391
  867SOL    HW2 3467  -0.007   2.798   1.804 -0.7220 -0.7165  0.7239
  867SOL     MW 3468   0.018   2.715   1.812  0.1142  0.3038  0.3955
  868SOL     OW 3469   2.828   2.592   0.558 -0.1312 -0.5037 -0.3219
  868SOL    HW1 3470   2.746   2.540   0.562 -0.4295 -1.2058  0.8622
  868SOL    HW2 3471   2.806   2.671   0.503  0.2835 -2.2796 -1.7099
  868SOL     MW 3472   2.814   2.595   0.552 -0.1159 -0.8306 -0.3488
  869SOL     OW 3473   2.075   2.371   1.175  0.8472 -0.0884 -0.0571
  869SOL    HW1 3474   2.167   2.376   1.144  0.0909 -1.1110 -0.3850
  869SOL    HW2 3475   2.027   2.319   1.110  0.8020  2.8633 -0.7980
  869SOL     MW 3476   2.081   2.365   1.162  0.7414  0.1661 -0.1981
  870SOL     OW 3477   2.156   0.004   0.473 -0.1701  0.3681  0.1003
  870SOL    HW1 3478   2.227   0.051   0.426  3.5372  0.4160 -0.7288
  870SOL    HW2 3479   2.171  -0.090   0.477  0.1991  1.3156  1.3621
  870SOL     MW 3480   2.167  -0.002   0.467  0.3678  0.4995  0.1574
  871SOL     OW 3481   2.485   2.129   0.948 -0.3204  0.3290 -0.1256
  871SOL    HW1 3482   2.433   2.050   0.918  0.3125  1.4965  1.8853
  871SOL    HW2 3483   2.419   2.193   0.981 -0.3099  0.4116 -1.2897
  871SOL     MW 3484   2.469   2.127   0.948 -0.2355  0.4940 -0.0139
  872SOL     OW 3485   2.010   2.561   1.523 -0.6948  0.0121  0.3848
  872SOL    HW1 3486   1.974   2.578   1.613  0.2698 -0.3483  1.0210
  872SOL    HW2 3487   1.951   2.501   1.477 -0.6405 -0.0939 -0.4859
  872SOL     MW 3488   1.998   2.556   1.529 -0.5603 -0.0494  0.3539
  873SOL     OW 3489   2.933   2.062   1.912 -0.5505  0.2749  0.0316
  873SOL    HW1 3490   2.947   2.116   1.992  1.1179 -2.2547  1.5619
  873SOL    HW2 3491   2.997   2.090   1.848  3.9873  1.0980  1.6191
  873SOL     MW 3492   2.944   2.073   1.914  0.2683  0.0497  0.4430
  874SOL     OW 3493   2.276   1.485   2.374 -0.6179 -0.4635  0.1825
  874SOL    HW1 3494   2.236   1.421   2.307  0.6291  1.7621  0.3599
  874SOL    HW2 3495   2.332   1.436   2.433  1.1592  2.2709  0.1895
  874SOL     MW 3496   2.278   1.470   2.373 -0.2189  0.1909  0.2068
  875SOL     OW 3497   2.331   2.328   1.062  0.2074 -0.1282 -0.1762
  875SOL    HW1 3498   2.368   2.402   1.005 -0.8384 -0.5902 -0.6800
  875SOL    HW2 3499   2.375   2.322   1.147  0.8575  1.6856 -1.3175
  875SOL     MW 3500   2.342   2.337   1.066  0.1551  0.0502 -0.3932
  876SOL     OW 3501   3.016   2.319   1.237 -0.1946 -0.6076  0.2762
  876SOL    HW1 3502   3.051   2.356   1.155 -0.9710  3.1928 -0.8830
  876SOL    HW2 3503   3.077   2.365   1.297 -1.8863  0.2628 -0.1795
  876SOL     MW 3504   3.028   2.330   1.234 -0.5203  0.0087  0.0631
  877SOL     OW 3505   3.038   2.693   0.347 -0.1274  0.3139  0.4254
  877SOL    HW1 3506   3.105   2.760   0.358  0.7335 -1.3354  0.2272
  877SOL    HW2 3507   3.033   2.681   0.254  1.1045 -1.1183  1.5400
  877SOL     MW 3508   3.046   2.700   0.336  0.1487 -0.0927  0.5463
  878SOL     OW 3509   2.398   1.841   1.253  0.1080 -0.0556  0.2216
  878SOL    HW1 3510   2.320   1.785   1.253 -0.2744 -1.8095  0.0806
  878SOL    HW2 3511   2.470   1.780   1.261  1.0829 -2.9964  0.1344
  878SOL     MW 3512   2.397   1.825   1.254  0.1862 -0.6750  0.1915
  879SOL     OW 3513   2.661   2.412   0.955  0.4404  0.0275  0.0811
  879SOL    HW1 3514   2.713   2.490   0.978 -0.7124  1.4702 -0.6547
  879SOL    HW2 3515   2.703   2.380   0.879 -1.7050  1.1314  1.5880
  879SOL     MW 3516   2.673   2.418   0.948  0.0052  0.3635  0.1829
  880SOL     OW 3517   2.596   2.204   0.689  0.9262  0.0143  0.0287
  880SOL    HW1 3518   2.528   2.171   0.759 -1.4591 -0.7697  2.3695
  880SOL    HW2 3519   2.609   2.129   0.626 -0.9971  1.1298 -0.7825
  880SOL     MW 3520   2.588   2.190   0.690  0.3577  0.0581  0.2305
  881SOL     OW 3521   2.955   2.730   0.788  0.6532  0.5892  0.2178
  881SOL    HW1 3522   2.922   2.699   0.702  0.7453 -0.1862 -2.8988
  881SOL    HW2 3523   3.050   2.719   0.788 -0.6153 -1.8181  1.3917
  881SOL     MW 3524   2.963   2.724   0.776  0.4980  0.1693 -0.0385
  882SOL     OW 3525   2.242   2.893   1.931 -0.0334  0.5566  0.0329
  882SOL    HW1 3526   2.239   2.873   1.835 -3.0803 -0.3102 -0.5035
  882SOL    HW2 3527   2.204   2.818   1.975  3.7150  1.8076 -2.3570
  882SOL     MW 3528   2.237   2.880   1.924  0.0592  0.6073 -0.3532
  883SOL     OW 3529   2.294   2.236   1.482 -0.0721 -0.5136 -0.2639
  883SOL    HW1 3530   2.368   2.173   1.472 -0.2361 -0.5034  0.1078
  883SOL    HW2 3531   2.233   2.189   1.427  1.8976 -0.2511 -1.4193
  883SOL     MW 3532   2.295   2.222   1.474  0.1661 -0.4776 -0.3673
  884SOL     OW 3533   1.955   1.819   1.090  0.2033 -0.7301 -0.8623
  884SOL    HW1 3534   1.885   1.886   1.069 -0.6141 -2.0698 -1.7491
  884SOL    HW2 3535   2.051   1.852   1.087  1.7216 -1.3166 -1.5834
  884SOL     MW 3536   1.959   1.832   1.087  0.2957 -0.9842 -1.0745
  885SOL     OW 3537   2.865   2.398   1.848  0.2335 -0.2188  0.3614
  885SOL    HW1 3538   2.954   2.363   1.831  0.3427 -1.0961  0.2621
  885SOL    HW2 3539   2.798   2.352   1.796  0.0867  0.8511  0.9718
  885SOL     MW 3540   2.868   2.388   1.839  0.2285 -0.1933  0.4288
  886SOL     OW 3541   2.798   2.346   1.394  0.1417 -0.3155  0.0805
  886SOL    HW1 3542   2.869   2.320   1.334  0.7354 -0.2681 -0.2414
  886SOL    HW2 3543   2.787   2.441   1.388  0.7138  0.3935  4.6096
  886SOL     MW 3544   2.806   2.355   1.385  0.2955 -0.2157  0.6356
  887SOL     OW 3545   2.283   2.611   1.521 -0.6913  0.7442 -0.7982
  887SOL    HW1 3546   2.304   2.620   1.428  0.2166 -0.3718 -1.8449
  887SOL    HW2 3547   2.193   2.568   1.512 -2.0441 -0.6805  0.1720
  887SOL     MW 3548   2.274   2.607   1.507 -0.7500  0.4090 -0.8083
  888SOL     OW 3549   1.874   2.049   1.385  1.0009  0.0881  0.3055
  888SOL    HW1 3550   1.955   2.058   1.339  0.7533 -0.3513 -0.9217
  888SOL    HW2 3551   1.896   2.075   1.478 -0.1868 -1.4862  2.0166
  888SOL     MW 3552   1.888   2.054   1.391  0.8115 -0.1776  0.3694
  889SOL     OW 3553   2.308   2.014   2.105  0.2076  0.7142 -0.1737
  889SOL    HW1 3554   2.385   1.995   2.161  0.1967 -0.0792 -1.1040
  889SOL    HW2 3555   2.314   2.097   2.062 -3.8066 -1.4097  1.3072
  889SOL     MW 3556   2.319   2.022   2.106 -0.3235  0.3293 -0.1011
  890SOL     OW 3557   0.127   2.351   0.132 -0.4079 -0.6152 -0.0169
  890SOL    HW1 3558   0.073   2.435   0.124  2.0716  0.1775  2.0691
  890SOL    HW2 3559   0.095   2.306   0.216 -1.5999  1.1198  0.4646
  890SOL     MW 3560   0.115   2.356   0.142 -0.2380 -0.2817  0.3219
  891SOL     OW 3561   3.035   2.029   1.292 -0.0865 -0.7623 -0.1079
  891SOL    HW1 3562   3.117   2.026   1.339 -0.0207  0.4771 -2.1727
  891SOL    HW2 3563   3.034   2.121   1.262 -1.0987  1.0021  0.2262
  891SOL     MW 3564   3.046   2.040   1.294 -0.2114 -0.3660 -0.3362
  892SOL     OW 3565   2.425   2.378   2.796  0.1583  0.1278 -0.2420
  892SOL    HW1 3566   2.422   2.283   2.807 -2.3721 -0.2139 -2.2378
  892SOL    HW2 3567   2.522   2.399   2.825  1.4416  3.4384  0.3766
  892SOL     MW 3568   2.438   2.368   2.801 -0.0063  0.5195 -0.4237
  893SOL     OW 3569   1.591   2.384   1.304 -0.4079  0.0620  0.8603
  893SOL    HW1 3570   1.524   2.436   1.345  2.4566  1.0713 -0.0344
  893SOL    HW2 3571   1.672   2.406   1.348  1.4658 -1.1737 -2.1478
  893SOL     MW 3572   1.593   2.394   1.316  0.2173  0.0322  0.3454
  894SOL     OW 3573   2.837   1.834   0.474  0.0011  0.6531  0.8130
  894SOL    HW1 3574   2.762   1.893   0.494  3.9153  0.0613  0.1187
  894SOL    HW2 3575   2.821   1.823   0.378  1.1790 -1.6702 -1.6427
  894SOL     MW 3576   2.825   1.840   0.464  0.6730  0.2685  0.3974
  895SOL     OW 3577   2.130   2.137   1.292 -0.1934 -0.8450 -0.2904
  895SOL    HW1 3578   2.129   2.222   1.254  1.2257  0.3357  0.8731
  895SOL    HW2 3579   2.136   2.071   1.225 -1.2461  0.0168  3.6568
  895SOL     MW 3580   2.130   2.140   1.278 -0.1450 -0.5755  0.3839
  896SOL     OW 3581   2.168   2.789   1.092  0.3359 -0.0127  0.1631
  896SOL    HW1 3582   2.233   2.756   1.156  2.3662 -1.8509  0.7250
  896SOL    HW2 3583   2.156   2.702   1.039 -0.5977 -0.5279  1.1636
  896SOL     MW 3584   2.175   2.773   1.093  0.4806 -0.3232  0.3693
  897SOL     OW 3585   3.001   2.884   0.109 -0.0020 -0.1806 -0.4898
  897SOL    HW1 3586   3.059   2.902   0.028  0.5626 -0.1702 -1.5031
  897SOL    HW2 3587   2.910   2.848   0.087  3.6126 -2.1268  1.4984
  897SOL     MW 3588   2.997   2.882   0.095  0.5494 -0.4360 -0.3612
  898SOL     OW 3589   2.089   0.150   1.399 -0.0524 -0.0073  0.0144
  898SOL    HW1 3590   2.050   0.061   1.402 -0.1110 -2.4655 -1.7897
  898SOL    HW2 3591   2.091   0.170   1.305 -0.4638  0.7794  1.5988
  898SOL     MW 3592   2.084   0.141   1.387 -0.1144 -0.2278 -0.0146
  899SOL     OW 3593   2.925   2.944   0.631 -0.0437  1.0376  0.0532
  899SOL    HW1 3594   2.947   2.866   0.681  1.1279  1.4086 -0.7699
  899SOL    HW2 3595   2.855   2.989   0.669  0.1149 -0.0808 -1.0384
  899SOL     MW 3596   2.919   2.940   0.643  0.1318  0.9390 -0.1994
  900SOL     OW 3597   0.098   2.431   1.036  0.5855 -0.4372  0.5003
  900SOL    HW1 3598   0.083   2.510   0.986 -1.8870 -3.0170 -0.8084
  900SOL    HW2 3599   0.092   2.361   0.968 -0.9442  0.4008  3.1631
  900SOL     MW 3600   0.095   2.432   1.020  0.0574 -0.6670  0.6789
  901SOL     OW 3601   1.764   2.904   1.681  0.5389  0.3241  0.4589
  901SOL    HW1 3602   1.829   2.830   1.676  1.0392  0.4232  0.5590
  901SOL    HW2 3603   1.704   2.897   1.604 -1.5706  0.3416  1.1664
  901SOL     MW 3604   1.764   2.893   1.670  0.3266  0.3395  0.5654
  902SOL     OW 3605   2.673   2.102   1.806  0.7688  0.1886 -0.1146
  902SOL    HW1 3606   2.670   2.016   1.765  0.0491 -2.1764 -1.1473
  902SOL    HW2 3607   2.759   2.089   1.853  1.6840  0.9738  0.9920
  902SOL     MW 3608   2.684   2.089   1.807  0.7946 -0.0198 -0.1049
  903SOL     OW 3609   1.593   2.768   0.507 -0.2978  0.4518 -0.0155
  903SOL    HW1 3610   1.633   2.686   0.548  1.0381 -1.6462 -0.0070
  903SOL    HW2 3611   1.546   2.802   0.587  0.6962 -1.6861 -0.8849
  903SOL     MW 3612   1.592   2.762   0.523  0.0096 -0.1071 -0.1291
  904SOL     OW 3613   2.494   2.506   1.724  0.0886  0.7068  0.1156
  904SOL    HW1 3614   2.442   2.539   1.654 -0.2121 -2.3026  1.4529
  904SOL    HW2 3615   2.550   2.442   1.685 -2.0316 -1.0706  1.5280
  904SOL     MW 3616   2.494   2.502   1.709 -0.2308  0.0752  0.4784
  905SOL     OW 3617   2.319   2.577   2.164 -0.0946  0.3101  0.3966
  905SOL    HW1 3618   2.387   2.540   2.110 -1.2297  1.7018 -1.4958
  905SOL    HW2 3619   2.278   2.497   2.205 -0.7671 -3.8833 -0.8331
  905SOL     MW 3620   2.323   2.561   2.163 -0.3331 -0.0595 -0.0153
  906SOL     OW 3621   2.427   2.521   0.910  0.3757 -0.5873 -0.1050
  906SOL    HW1 3622   2.515   2.469   0.927  0.0614  0.7270 -1.2957
  906SOL    HW2 3623   2.450   2.599   0.871 -0.8558 -1.3122 -0.0106
  906SOL     MW 3624   2.442   2.524   0.907  0.1717 -0.5095 -0.2497
  907SOL     OW 3625   2.586   2.870   1.319  0.4319 -0.7096  0.1701
  907SOL    HW1 3626   2.652   2.934   1.344  1.5421 -2.1508  1.6201
  907SOL    HW2 3627   2.615   2.841   1.234  2.4702  0.2307 -0.3359
  907SOL     MW 3628   2.598   2.875   1.311  0.8473 -0.7757  0.2946
  908SOL     OW 3629   2.738   2.388   0.003 -0.3903  0.1169  0.2299
  908SOL    HW1 3630   2.683   2.303   0.011 -1.1113  2.4135 -2.1724
  908SOL    HW2 3631   2.692   2.440   0.073 -1.0107  0.9882 -2.5797
  908SOL     MW 3632   2.725   2.384   0.014 -0.5673  0.5348 -0.4578
  909SOL     OW 3633   1.711   0.173   1.147  0.5865 -0.5538  0.0704
  909SOL    HW1 3634   1.688   0.248   1.084 -1.0262 -1.8072 -0.0567
  909SOL    HW2 3635   1.802   0.166   1.140 -1.6305 -0.8838 -0.2585
  909SOL     MW 3636   1.720   0.182   1.137  0.0812 -0.7627  0.0102
  910SOL     OW 3637   2.315   1.799   0.377  0.6482  0.7547 -0.0421
  910SOL    HW1 3638   2.261   1.722   0.409  1.7377 -0.1804  1.0445
  910SOL    HW2 3639   2.274   1.835   0.296  0.9287 -1.0728 -0.1348
  910SOL     MW 3640   2.302   1.794   0.370  0.8290  0.3902  0.0891
  911SOL     OW 3641   2.182   2.217   1.746  0.4772  0.4897  0.2697
  911SOL    HW1 3642   2.234   2.195   1.823  1.4757  2.4788 -1.0074
  911SOL    HW2 3643   2.247   2.230   1.680 -1.7615 -0.6753  0.1418
  911SOL     MW 3644   2.198   2.216   1.748  0.3136  0.5984  0.0843
  912SOL     OW 3645   2.940   1.897   1.532  0.2545  0.5521 -0.3154
  912SOL    HW1 3646   2.942   1.929   1.435  1.6612 -1.5164  0.4760
  912SOL    HW2 3647   2.848   1.921   1.566  0.4802  1.3586  0.3914
  912SOL     MW 3648   2.928   1.905   1.524  0.4698  0.3856 -0.1177
  913SOL     OW 3649   2.573   2.999   0.378 -0.2851  0.3963  0.4314
  913SOL    HW1 3650   2.629   2.932   0.344 -0.4220  1.2793  1.4984
  913SOL    HW2 3651   2.484   2.959   0.359 -0.3039  0.1108 -0.8773
  913SOL     MW 3652   2.568   2.985   0.371 -0.3056  0.4752  0.3995
  914SOL     OW 3653   2.745   1.729   3.065 -1.0400  0.1498 -0.0982
  914SOL    HW1 3654   2.812   1.788   3.025  2.1694 -1.0198  0.0827
  914SOL    HW2 3655   2.658   1.736   3.027  1.4226 -2.0041  3.5944
  914SOL     MW 3656   2.742   1.737   3.055 -0.2917 -0.2887  0.4128
  915SOL     OW 3657   1.727   0.235   0.236 -0.3321 -0.1455  0.0731
  915SOL    HW1 3658   1.783   0.197   0.298 -1.3456  1.5832 -1.7856
  915SOL    HW2 3659   1.656   0.173   0.238  1.8215  0.1451 -0.0108
  915SOL     MW 3660   1.725   0.222   0.244 -0.1816  0.1209 -0.1832
  916SOL     OW 3661   1.807   2.064   1.921  0.3985 -0.1143 -0.1020
  916SOL    HW1 3662   1.803   2.157   1.897  1.6774  1.6205  1.1187
  916SOL    HW2 3663   1.777   2.017   1.841  0.6698 -0.1148 -0.6015
  916SOL     MW 3664   1.802   2.070   1.907  0.6030  0.1145 -0.0069
  917SOL     OW 3665   2.468   2.243   2.563  0.9613 -0.6645  0.1946
  917SOL    HW1 3666   2.447   2.302   2.636  0.5077  0.4391 -1.7027
  917SOL    HW2 3667   2.533   2.288   2.511 -1.3432 -0.7574 -0.4501
  917SOL     MW 3668   2.474   2.257   2.566  0.5974 -0.5312 -0.1408
  918SOL     OW 3669   1.979   1.627   2.698 -0.7958 -0.1835  0.7097
  918SOL    HW1 3670   1.937   1.676   2.625 -2.5806 -0.5182  0.9134
  918SOL    HW2 3671   2.066   1.666   2.692  0.7539 -0.4804  1.6885
  918SOL     MW 3672   1.985   1.639   2.688 -0.8268 -0.2669  0.8657
  919SOL     OW 3673   0.062   2.319   2.269 -0.8693 -0.3123  0.1752
  919SOL    HW1 3674  -0.017   2.274   2.235  0.7274 -0.7283 -1.6764
  919SOL    HW2 3675   0.110   2.325   2.181 -0.4328 -2.0639  0.8710
  919SOL     MW 3676   0.058   2.314   2.253 -0.6010 -0.5983  0.0227
  920SOL     OW 3677   2.771   2.798   3.101  0.3014  0.3669 -0.6158
  920SOL    HW1 3678   2.702   2.858   3.130  0.1110 -1.6827  1.8326
  920SOL    HW2 3679   2.739   2.757   3.018 -2.2188  1.2989  1.0461
  920SOL     MW 3680   2.757   2.800   3.094 -0.0562  0.2195 -0.0735
  921SOL     OW 3681   2.408   2.585   2.623  0.6123 -0.9710 -0.1046
  921SOL    HW1 3682   2.486   2.573   2.569  0.1185 -0.8590  0.8457
  921SOL    HW2 3683   2.385   2.504   2.656  1.3199  0.8952 -0.4979
  921SOL     MW 3684   2.415   2.573   2.620  0.6405 -0.7100 -0.0311
  922SOL     OW 3685   2.050   2.825   0.316 -0.6480 -0.3751 -0.2641
  922SOL    HW1 3686   2.025   2.828   0.220  1.5445  2.5299 -1.3263
  922SOL    HW2 3687   2.014   2.729   0.328  1.9566 -0.8281 -1.0141
  922SOL     MW 3688   2.042   2.813   0.305 -0.0151 -0.0516 -0.5032
  923SOL     OW 3689   2.177   2.826   1.661  0.3049  0.1493  0.3414
  923SOL    HW1 3690   2.230   2.766   1.606 -0.9427 -0.6663  0.2545
  923SOL    HW2 3691   2.147   2.888   1.599  0.4544 -0.8896  0.6060
  923SOL     MW 3692   2.180   2.826   1.645  0.1600 -0.0954  0.3648
  924SOL     OW 3693   1.227   2.611   2.498  0.0228 -0.1531 -0.0025
  924SOL    HW1 3694   1.291   2.680   2.502 -2.9055 -0.3569 -0.6802
  924SOL    HW2 3695   1.234   2.561   2.581  0.1880 -3.7917  0.0997
  924SOL     MW 3696   1.236   2.613   2.509 -0.3418 -0.6601 -0.0784
  925SOL     OW 3697   2.958   0.250   2.606  0.2884 -0.2641  0.3302
  925SOL    HW1 3698   2.948   0.275   2.507 -0.0214  3.1894 -1.0061
  925SOL    HW2 3699   2.909   0.304   2.656  0.4463 -2.2382 -1.9053
  925SOL     MW 3700   2.950   0.260   2.599  0.2684 -0.0689 -0.1410
  926SOL     OW 3701   2.760   2.415   2.086  0.3536  0.1434  0.1449
  926SOL    HW1 3702   2.816   2.471   2.140  0.1606 -2.8140  0.1333
  926SOL    HW2 3703   2.808   2.415   2.000 -1.4111 -0.2851 -1.3059
  926SOL     MW 3704   2.774   2.422   2.082  0.0953 -0.3033 -0.0481
  927SOL     OW 3705   2.315   0.145   0.311  0.6104 -0.3087  0.1163
  927SOL    HW1 3706   2.407   0.118   0.314 -2.7239  1.3634  2.9993
  927SOL    HW2 3707   2.282   0.137   0.222  0.6914  0.1665  0.2264
  927SOL     MW 3708   2.323   0.140   0.299  0.1811 -0.0254  0.5112
  928SOL     OW 3709   2.095   2.426   1.906  0.3448  0.2050  0.6899
  928SOL    HW1 3710   2.158   2.378   1.850  1.3383  0.0152 -0.9486
  928SOL    HW2 3711   2.138   2.510   1.928  1.2053  2.9129 -1.1481
  928SOL     MW 3712   2.109   2.431   1.902  0.5894  0.5372  0.2312
  929SOL     OW 3713   2.689   2.379   2.443 -0.1066 -0.0923 -0.0856
  929SOL    HW1 3714   2.733   2.349   2.361  1.8513 -0.5754  1.7087
  929SOL    HW2 3715   2.734   2.341   2.515 -0.7055 -1.9040  0.9161
  929SOL     MW 3716   2.701   2.370   2.441  0.0727 -0.3951  0.2833
  930SOL     OW 3717   2.021   2.829   2.713  0.4193 -0.2102  0.3827
  930SOL    HW1 3718   2.042   2.753   2.770  0.4739  1.1816 -0.3896
  930SOL    HW2 3719   2.105   2.887   2.709  1.0349 -0.4130  0.6492
  930SOL     MW 3720   2.035   2.826   2.720  0.5077 -0.0533  0.3159
  931SOL     OW 3721   3.020   2.773   2.272 -0.0312 -0.5772  0.3212
  931SOL    HW1 3722   3.073   2.753   2.346 -0.4820  1.4764 -1.2756
  931SOL    HW2 3723   3.083   2.801   2.213 -0.4328 -0.3436 -0.6396
  931SOL     MW 3724   3.035   2.774   2.274 -0.1437 -0.2754 -0.0162
  932SOL     OW 3725   2.826   2.010   2.548 -0.0809  0.1877  0.7276
  932SOL    HW1 3726   2.920   2.028   2.557 -0.5286  0.8038  1.6058
  932SOL    HW2 3727   2.809   1.996   2.454 -2.0075  0.9003 -0.5341
  932SOL     MW 3728   2.836   2.011   2.537 -0.3942  0.3630  0.6770
  933SOL     OW 3729   2.030   2.868   2.267 -0.1939 -0.1408  0.5565
  933SOL    HW1 3730   2.097   2.926   2.298  0.5020 -0.1643 -2.8921
  933SOL    HW2 3731   1.971   2.921   2.208  1.2668  2.4626  1.0253
  933SOL     MW 3732   2.031   2.883   2.263  0.0906  0.1996  0.1633
  934SOL     OW 3733   2.011   2.681   2.469 -0.4343 -0.1749 -0.1862
  934SOL    HW1 3734   2.018   2.733   2.552 -2.6818  0.6278 -0.2636
  934SOL    HW2 3735   1.994   2.747   2.401 -0.5221  1.3392 -0.7062
  934SOL     MW 3736   2.010   2.697   2.471 -0.7424  0.1308 -0.2650
  935SOL     OW 3737   2.646   1.607   1.816  0.1526 -0.5009  0.1030
  935SOL    HW1 3738   2.729   1.586   1.786  0.4656  4.0970 -0.0464
  935SOL    HW2 3739   2.593   1.595   1.733 -0.2115  1.2320 -0.1014
  935SOL     MW 3740   2.650   1.603   1.801  0.1459  0.3344  0.0563
  936SOL     OW 3741   2.992   2.265   3.080 -0.3294 -0.4134  0.0405
  936SOL    HW1 3742   3.058   2.313   3.132 -0.6276  1.1413 -0.1712
  936SOL    HW2 3743   2.911   2.320   3.082  0.7284  3.6519 -1.7366
  936SOL     MW 3744   2.990   2.279   3.087 -0.2292  0.3281 -0.2219
  937SOL     OW 3745   1.947   2.101   2.689  0.1777  0.0691 -0.5178
  937SOL    HW1 3746   2.025   2.054   2.716 -2.0483  4.5074 -0.6959
  937SOL    HW2 3747   1.948   2.091   2.591 -0.5182 -0.1934 -0.1268
  937SOL     MW 3748   1.957   2.093   2.679 -0.2078  0.6200 -0.4897
  938SOL     OW 3749   2.263   1.824   1.907  0.2546 -0.5355 -0.0474
  938SOL    HW1 3750   2.253   1.888   1.839 -0.0361  1.6040 -0.8904
  938SOL    HW2 3751   2.277   1.880   1.986 -1.6328  3.3893  0.3682
  938SOL     MW 3752   2.264   1.840   1.909 -0.0328  0.2647 -0.1038
  939SOL     OW 3753   2.811   1.975   2.252 -0.2552 -0.0807  0.0951
  939SOL    HW1 3754   2.823   1.899   2.188  0.5700  1.6287 -0.0161
  939SOL    HW2 3755   2.720   2.000   2.236 -1.4486  0.3315  1.1566
  939SOL     MW 3756   2.801   1.968   2.241 -0.3038  0.1992  0.2205
  940SOL     OW 3757   2.313   0.180   2.629 -0.0601  0.1132 -0.2080
  940SOL    HW1 3758   2.297   0.084   2.636 -0.1979  2.0000 -1.2011
  940SOL    HW2 3759   2.328   0.208   2.719  0.6684  3.2122  1.9137
  940SOL     MW 3760   2.313   0.171   2.642  0.0179  0.7710 -0.0591
  941SOL     OW 3761   0.186   2.301   2.013 -0.2953  0.7089  0.0594
  941SOL    HW1 3762   0.274   2.282   1.987  0.8331  1.3332 -0.5211
  941SOL    HW2 3763   0.118   2.292   1.935 -3.0321  2.0720 -2.6090
  941SOL     MW 3764   0.189   2.297   1.999 -0.5075  0.9711 -0.3693
  942SOL     OW 3765   2.938   2.190   2.142  0.5144 -0.1386  0.4313
  942SOL    HW1 3766   2.872   2.263   2.132 -2.8282 -1.8681  0.5018
  942SOL    HW2 3767   2.895   2.116   2.185 -1.3624  0.5079  0.4504
  942SOL     MW 3768   2.924   2.190   2.146 -0.1742 -0.2815  0.4431
  943SOL     OW 3769   0.297   2.066   2.275 -0.6946  0.6833 -0.8903
  943SOL    HW1 3770   0.267   2.139   2.325  1.1936 -0.7069 -1.7885
  943SOL    HW2 3771   0.388   2.053   2.317 -1.5137 -1.1243 -0.9855
  943SOL     MW 3772   0.305   2.074   2.287 -0.5535  0.2614 -1.0214
  944SOL     OW 3773   2.109   2.700   2.070 -0.2948 -0.3003  0.6473
  944SOL    HW1 3774   2.187   2.653   2.101 -0.1960  0.4339  1.4584
  944SOL    HW2 3775   2.095   2.757   2.145  1.3518 -1.5906 -1.6692
  944SOL     MW 3776   2.117   2.701   2.084 -0.0645 -0.3737  0.4486
  945SOL     OW 3777   2.704   2.678   2.869 -0.5873  0.1970  0.5937
  945SOL    HW1 3778   2.694   2.580   2.858 -0.4383  1.5467 -0.0387
  945SOL    HW2 3779   2.757   2.701   2.794 -0.9703  0.3892  1.5909
  945SOL     MW 3780   2.710   2.668   2.858 -0.6182  0.4005  0.6419
  946SOL     OW 3781   2.475   2.760   2.317 -0.6395  0.1241 -0.1122
  946SOL    HW1 3782   2.490   2.803   2.234  0.9143 -2.2238  2.7118
  946SOL    HW2 3783   2.437   2.678   2.283 -0.4924  1.7228  2.4947
  946SOL     MW 3784   2.472   2.755   2.301 -0.4150  0.0253  0.6043
  947SOL     OW 3785   1.978   0.119   0.291 -0.2452  0.1254  0.0512
  947SOL    HW1 3786   1.960   0.055   0.230  0.3052 -1.2430  1.0980
  947SOL    HW2 3787   2.040   0.075   0.347  1.7917  2.5914 -1.2663
  947SOL     MW 3788   1.984   0.105   0.290  0.0962  0.2702  0.0155
  948SOL     OW 3789   1.758   2.963   2.679  0.0746  0.0099 -0.0533
  948SOL    HW1 3790   1.825   2.894   2.691  1.1911  1.6068  2.1800
  948SOL    HW2 3791   1.754   2.982   2.583  0.6804 -1.3201  1.7106
  948SOL     MW 3792   1.767   2.956   2.668  0.3019  0.0451  0.4741
  949SOL     OW 3793   2.514   1.982   2.269 -0.3560 -0.3536  0.2289
  949SOL    HW1 3794   2.507   1.883   2.285 -0.4906 -0.8882 -0.0088
  949SOL    HW2 3795   2.454   2.025   2.329  1.9700 -2.4800 -0.9185
  949SOL     MW 3796   2.505   1.975   2.279 -0.0669 -0.7047  0.0461
  950SOL     OW 3797   2.270   2.527   2.979 -0.1369 -0.0219 -0.1766
  950SOL    HW1 3798   2.326   2.462   2.933 -0.3735 -1.1900 -3.0653
  950SOL    HW2 3799   2.187   2.552   2.929  0.0062 -1.7631  0.1411
  950SOL     MW 3800   2.267   2.522   2.966 -0.1492 -0.4057 -0.5158
  951SOL     OW 3801   3.002   2.130   2.830  0.0989 -0.4466 -0.4761
  951SOL    HW1 3802   3.025   2.207   2.880  1.6169  0.0532 -0.6750
  951SOL    HW2 3803   3.072   2.119   2.767  3.1841  2.6621  1.2432
  951SOL     MW 3804   3.015   2.139   2.828  0.7063  0.0295 -0.2755
  952SOL     OW 3805   0.002   1.660   2.166 -0.1968  0.3534 -0.0049
  952SOL    HW1 3806  -0.069   1.715   2.125  1.1691  2.2714  0.0345
  952SOL    HW2 3807   0.087   1.710   2.167  0.6954 -1.4202 -0.8150
  952SOL     MW 3808   0.004   1.673   2.161  0.1012  0.3724 -0.1066
  953SOL     OW 3809   1.918   1.794   2.894  0.2915  0.1162 -0.5132
  953SOL    HW1 3810   1.887   1.729   2.955  0.2744 -2.0691 -1.7761
  953SOL    HW2 3811   1.950   1.737   2.820 -0.0531 -1.8294  0.2183
  953SOL     MW 3812   1.918   1.778   2.892  0.2438 -0.4288 -0.5833
  954SOL     OW 3813   2.466   2.106   2.884  0.1224  0.1578  0.2362
  954SOL    HW1 3814   2.374   2.090   2.852 -1.7735 -1.2744 -1.6574
  954SOL    HW2 3815   2.515   2.061   2.811 -1.8311  0.0098  0.6545
  954SOL     MW 3816   2.460   2.098   2.870 -0.3855 -0.0507  0.0416
  955SOL     OW 3817   1.586   1.577   2.637 -0.1412 -0.1954  0.1182
  955SOL    HW1 3818   1.546   1.583   2.545 -1.5136 -2.4802  0.7979
  955SOL    HW2 3819   1.676   1.604   2.624  0.8933 -0.6437 -1.8396
  955SOL     MW 3820   1.592   1.581   2.623 -0.1858 -0.5560 -0.0504
  956SOL     OW 3821   2.686   2.403   2.838 -0.4559 -0.4001 -0.1460
  956SOL    HW1 3822   2.716   2.394   2.931 -1.8380  0.1787  1.5047
  956SOL    HW2 3823   2.738   2.342   2.790  2.2987 -1.1184  1.3553
  956SOL     MW 3824   2.697   2.394   2.844 -0.2748 -0.4185  0.2699
  957SOL     OW 3825   2.322   2.856   0.398  0.9014 -0.1266  0.2414
  957SOL    HW1 3826   2.233   2.855   0.353 -1.4277  2.1038  1.1979
  957SOL    HW2 3827   2.292   2.826   0.489  0.3970 -0.6762  1.6969
  957SOL     MW 3828   2.306   2.852   0.404  0.5276  0.0952  0.5597
  958SOL     OW 3829   2.043   2.576   2.861 -0.8070 -0.2215 -0.0504
  958SOL    HW1 3830   2.013   2.492   2.814  0.4350  0.0423 -1.6343
  958SOL    HW2 3831   1.962   2.596   2.908 -1.5676 -0.3972 -3.4284
  958SOL     MW 3832   2.029   2.568   2.861 -0.7435 -0.2098 -0.7050
  959SOL     OW 3833   2.458   2.605   0.361  0.5656 -0.1449 -0.4119
  959SOL    HW1 3834   2.539   2.608   0.312 -1.2027  0.6073 -1.1462
  959SOL    HW2 3835   2.420   2.693   0.368  3.0795 -1.0907 -2.8380
  959SOL     MW 3836   2.464   2.617   0.355  0.6639 -0.1704 -0.8289
  960SOL     OW 3837   1.964   2.298   2.216 -0.0988 -0.4038 -0.3200
  960SOL    HW1 3838   1.944   2.207   2.216 -3.2635  1.5555  0.7790
  960SOL    HW2 3839   1.903   2.336   2.282 -2.2581  0.2023 -2.2486
  960SOL     MW 3840   1.953   2.291   2.225 -0.8012 -0.0653 -0.4295
  961SOL     OW 3841   2.237   2.325   2.246 -0.3050  0.2367  0.3313
  961SOL    HW1 3842   2.152   2.309   2.203 -0.6518  0.2329 -1.1664
  961SOL    HW2 3843   2.212   2.350   2.329  0.4691 -0.4377 -1.0794
  961SOL     MW 3844   2.223   2.326   2.251 -0.2486  0.1472 -0.0524
  962SOL     OW 3845   2.209   2.024   2.820 -0.9568  0.1008  0.0162
  962SOL    HW1 3846   2.163   2.038   2.900  0.2022  1.6008  0.9773
  962SOL    HW2 3847   2.205   1.927   2.801 -0.3884 -2.4402 -1.9305
  962SOL     MW 3848   2.203   2.013   2.828 -0.7289 -0.0366 -0.1139
  963SOL     OW 3849   1.830   2.601   2.057  0.0873 -0.4866  0.0545
  963SOL    HW1 3850   1.926   2.625   2.063  1.2072  0.2052  0.9145
  963SOL    HW2 3851   1.827   2.513   2.022  0.5894 -1.4475 -0.8791
  963SOL     MW 3852   1.842   2.592   2.053  0.3013 -0.5221  0.0448
  964SOL     OW 3853   1.741   1.921   2.725 -0.1034  0.2599  0.2477
  964SOL    HW1 3854   1.811   1.981   2.694 -1.8442  0.7105 -1.7391
  964SOL    HW2 3855   1.786   1.860   2.792 -3.2606  1.1341  3.1314
  964SOL     MW 3856   1.756   1.921   2.729 -0.7497  0.4347  0.3660
  965SOL     OW 3857   2.214   2.755   0.619 -0.7306 -0.2457 -0.1144
  965SOL    HW1 3858   2.220   2.662   0.617 -1.1163  1.2824  0.3448
  965SOL    HW2 3859   2.252   2.782   0.703 -0.8322  3.9189  0.2423
  965SOL     MW 3860   2.220   2.746   0.630 -0.7949  0.5054 -0.0067
  966SOL     OW 3861   2.652   2.644   2.503 -0.0301  0.7165 -0.0077
  966SOL    HW1 3862   2.604   2.682   2.432  2.2379 -0.2913  0.7293
  966SOL    HW2 3863   2.674   2.555   2.474  0.0673  1.8015 -1.7517
  966SOL     MW 3864   2.649   2.637   2.490  0.2820  0.7267 -0.1406
  967SOL     OW 3865   2.816   3.011   2.908 -0.5991 -0.1072  0.2494
  967SOL    HW1 3866   2.803   2.929   2.959  0.4587 -0.2479  0.0641
  967SOL    HW2 3867   2.728   3.036   2.879 -0.7492  0.6398 -0.7682
  967SOL     MW 3868   2.803   3.004   2.911 -0.4794 -0.0272  0.0907
  968SOL     OW 3869   3.039   2.648   2.903  0.2510 -0.3259  0.4753
  968SOL    HW1 3870   2.996   2.688   2.823 -0.8446  5.6453 -2.5202
  968SOL    HW2 3871   3.071   2.566   2.868  2.0161  1.6306 -0.4759
  968SOL     MW 3872   3.037   2.642   2.888  0.3393  0.7201 -0.0454
  969SOL     OW 3873   1.516   2.165   1.669  0.4576  0.4094 -0.0304
  969SOL    HW1 3874   1.589   2.108   1.640 -1.4869 -1.9016 -1.3281
  969SOL    HW2 3875   1.506   2.166   1.763 -0.3658 -0.2632  1.4893
  969SOL     MW 3876   1.524   2.158   1.677  0.0924  0.0157 -0.0011
  970SOL     OW 3877   1.653   1.710   1.775  0.2587  0.1265  0.5134
  970SOL    HW1 3878   1.701   1.638   1.819  0.2530  2.3784  0.1220
  970SOL    HW2 3879   1.578   1.723   1.828  2.4661  1.3801  0.6653
  970SOL     MW 3880   1.649   1.702   1.788  0.5492  0.5890  0.4818
  971SOL     OW 3881   1.749   3.060   2.400 -0.2821 -0.2014  0.0943
  971SOL    HW1 3882   1.774   3.053   2.307 -0.6814  0.0337 -3.4976
  971SOL    HW2 3883   1.812   3.120   2.433 -1.2247 -0.2786 -1.9861
  971SOL     MW 3884   1.761   3.067   2.392 -0.4591 -0.1806 -0.6541
  972SOL     OW 3885   0.255   2.876   2.462 -0.2165 -0.3604 -0.1111
  972SOL    HW1 3886   0.313   2.798   2.465  0.4379  0.1315 -1.6267
  972SOL    HW2 3887   0.316   2.954   2.468 -0.8475  4.6430  1.1011
  972SOL     MW 3888   0.270   2.876   2.463 -0.2134  0.3647 -0.1511
  973SOL     OW 3889   2.501   0.031   2.057  0.4434  0.0477  0.2622
  973SOL    HW1 3890   2.481  -0.060   2.032  0.5137 -3.2116  0.7183
  973SOL    HW2 3891   2.533   0.066   1.972  2.0094 -4.1050 -2.7287
  973SOL     MW 3892   2.503   0.024   2.042  0.6593 -0.9302 -0.0723
  974SOL     OW 3893   2.059   0.224   2.687  0.2227 -0.2823  0.0747
  974SOL    HW1 3894   2.150   0.200   2.670 -0.1078 -2.1835 -1.2397
  974SOL    HW2 3895   2.029   0.162   2.755  1.0847  3.3279  2.1518
  974SOL     MW 3896   2.067   0.213   2.694  0.2928 -0.0568  0.1754
  975SOL     OW 3897   2.191   2.468   2.491  0.6450 -0.4359 -0.1355
  975SOL    HW1 3898   2.269   2.518   2.503 -0.2652  0.9194 -2.2245
  975SOL    HW2 3899   2.116   2.530   2.481 -2.6906 -1.7353  0.4960
  975SOL     MW 3900   2.191   2.483   2.491  0.0848 -0.4285 -0.3278
  976SOL     OW 3901   0.256   0.334   1.717 -0.2265  0.8742  0.2644
  976SOL    HW1 3902   0.315   0.272   1.755 -1.3303  0.7356 -0.9610
  976SOL    HW2 3903   0.188   0.279   1.667 -0.8953 -0.7498 -0.8333
  976SOL     MW 3904   0.255   0.319   1.715 -0.4604  0.6416 -0.0421
  977SOL     OW 3905   1.736   2.616   2.485 -0.2861 -0.0128  0.5201
  977SOL    HW1 3906   1.759   2.523   2.484  1.0165  0.1788 -2.1997
  977SOL    HW2 3907   1.823   2.654   2.475 -0.0336 -1.2274 -2.7255
  977SOL     MW 3908   1.751   2.609   2.484 -0.0809 -0.1478 -0.2670
   3.10000   3.10000   3.10000
