977 TIP4P/2005f water molecules t=   0.79000 step= 790
 3908
    1SOL     OW    1   0.264   0.840   3.062  1.0661 -0.0875 -0.1572
    1SOL    HW1    2   0.266   0.845   2.971 -1.0380 -0.1168  0.4922
    1SOL    HW2    3   0.243   0.745   3.078  1.5078  1.9145  0.4994
    1SOL     MW    4   0.262   0.828   3.052  0.8468  0.1728  0.0151
    2SOL     OW    5   0.294   3.007   1.162 -0.1231 -0.5282 -0.2687
    2SOL    HW1    6   0.363   3.057   1.115 -0.3246 -0.4648  1.7087
    2SOL    HW2    7   0.215   3.060   1.141 -0.3571  0.2979  2.9464
    2SOL     MW    8   0.293   3.021   1.153 -0.1806 -0.4109  0.4164
    3SOL     OW    9   2.644   0.415   0.940 -0.1142 -0.8165  0.2908
    3SOL    HW1   10   2.675   0.484   0.869 -0.2184  1.9878  0.6461
    3SOL    HW2   11   2.609   0.467   1.019 -2.1904 -1.1618 -0.6364
    3SOL     MW   12   2.644   0.431   0.941 -0.4019 -0.4921  0.2153
    4SOL     OW   13   3.025   1.706   0.649 -0.7452  0.1885  0.2212
    4SOL    HW1   14   2.944   1.712   0.594 -1.1376 -1.4035  3.1402
    4SOL    HW2   15   3.103   1.701   0.589 -0.2768  0.9869  2.2039
    4SOL     MW   16   3.025   1.706   0.634 -0.7352  0.0838  0.8679
    5SOL     OW   17   1.716   1.504   0.519  0.6216  0.0049  0.0593
    5SOL    HW1   18   1.768   1.455   0.583 -0.0154 -1.5882  1.2105
    5SOL    HW2   19   1.617   1.482   0.532 -2.0041  0.9172  0.9920
    5SOL     MW   20   1.710   1.494   0.529  0.1911 -0.0849  0.3343
    6SOL     OW   21   0.853   1.424   0.639  0.1893  0.5096 -0.4764
    6SOL    HW1   22   0.766   1.461   0.660 -2.3151  0.5191 -0.3339
    6SOL    HW2   23   0.846   1.338   0.686  1.7295 -1.9328  0.9440
    6SOL     MW   24   0.841   1.417   0.648  0.0621  0.1886 -0.2702
    7SOL     OW   25   2.027   1.151   3.056 -0.0566  0.2761  0.0325
    7SOL    HW1   26   2.100   1.207   3.033 -1.8414 -2.1189 -2.5765
    7SOL    HW2   27   2.048   1.122   3.145  1.3034  1.6810 -0.2169
    7SOL     MW   28   2.040   1.154   3.065 -0.1126  0.1454 -0.3446
    8SOL     OW   29   0.934   1.347   1.035 -0.3605  0.2594 -0.0028
    8SOL    HW1   30   1.029   1.323   1.053  0.0374  0.5980 -0.2767
    8SOL    HW2   31   0.879   1.298   1.096  0.2859  1.3498 -1.8867
    8SOL     MW   32   0.939   1.337   1.045 -0.2227  0.4480 -0.2875
    9SOL     OW   33   1.048   0.481   1.379 -0.3401  0.6728  0.0937
    9SOL    HW1   34   0.985   0.417   1.343 -0.5597 -0.1810  0.4831
    9SOL    HW2   35   1.096   0.430   1.444  1.9131 -0.6771  0.8901
    9SOL     MW   36   1.046   0.466   1.383 -0.0718  0.3820  0.2502
   10SOL     OW   37   0.292   0.817   0.458  0.1929  0.4197  0.1386
   10SOL    HW1   38   0.384   0.822   0.427 -1.5917 -0.2592  1.6275
   10SOL    HW2   39   0.286   0.891   0.521  3.5351 -2.6353  1.0893
   10SOL     MW   40   0.304   0.827   0.462  0.3984 -0.0729  0.4605
   11SOL     OW   41   0.789   1.147   1.727  0.1723  0.1054  0.4913
   11SOL    HW1   42   0.845   1.105   1.792  0.0270 -1.7111 -2.6925
   11SOL    HW2   43   0.774   1.078   1.652 -0.8598 -2.8256 -1.9286
   11SOL     MW   44   0.794   1.133   1.726  0.0169 -0.5210 -0.2480
   12SOL     OW   45   0.032   1.046   0.869 -0.5877 -0.3568  0.1231
   12SOL    HW1   46   0.067   1.127   0.919  0.7422  2.5854  0.5415
   12SOL    HW2   47  -0.027   1.088   0.803  1.3259  0.3028  2.1075
   12SOL     MW   48   0.029   1.062   0.867 -0.1598  0.1184  0.4402
   13SOL     OW   49   1.858   1.369   1.340 -0.0919  0.0721 -0.0067
   13SOL    HW1   50   1.874   1.309   1.273  0.2542  0.9110  1.7149
   13SOL    HW2   51   1.890   1.454   1.314 -1.8801  0.2836  1.0932
   13SOL     MW   52   1.864   1.373   1.328 -0.2822  0.2107  0.3655
   14SOL     OW   53   0.650   0.400   1.848  0.2802  0.6443  0.3642
   14SOL    HW1   54   0.582   0.335   1.873  0.8548  2.3820 -0.8381
   14SOL    HW2   55   0.713   0.394   1.920  1.7280  0.9435 -0.1954
   14SOL     MW   56   0.650   0.391   1.861  0.5470  0.9130  0.1317
   15SOL     OW   57   1.933   0.442   0.976 -0.6895 -0.5716  0.1997
   15SOL    HW1   58   1.924   0.459   1.073 -0.2396  0.7446 -0.9186
   15SOL    HW2   59   2.024   0.452   0.944 -2.5388  0.2625 -1.7461
   15SOL     MW   60   1.943   0.446   0.984 -0.8741 -0.2879 -0.2046
   16SOL     OW   61   0.207   1.838   0.323 -0.3158  0.0799  0.0088
   16SOL    HW1   62   0.278   1.780   0.360 -0.0776  0.2668  1.8364
   16SOL    HW2   63   0.197   1.924   0.373 -3.2439  0.2862  0.9000
   16SOL     MW   64   0.215   1.842   0.335 -0.6707  0.1318  0.3676
   17SOL     OW   65   1.093   0.923   1.519  0.2113 -0.1732 -0.1721
   17SOL    HW1   66   1.134   0.870   1.591  0.5304 -1.6969 -0.2032
   17SOL    HW2   67   1.002   0.930   1.533  2.5216  1.7084  0.7950
   17SOL     MW   68   1.087   0.917   1.530  0.5582 -0.1259 -0.0486
   18SOL     OW   69   0.076   1.596   0.369 -0.4221 -0.3515 -0.5396
   18SOL    HW1   70   0.115   1.677   0.335  2.4388  0.9755  0.2284
   18SOL    HW2   71   0.094   1.545   0.291  0.5624 -0.7507  1.5248
   18SOL     MW   72   0.083   1.600   0.354  0.0852 -0.2291 -0.1659
   19SOL     OW   73   0.128   1.287   0.977  0.1054  0.3803  0.4850
   19SOL    HW1   74   0.151   1.338   0.901 -3.8926 -1.4667  2.5907
   19SOL    HW2   75   0.035   1.306   1.000  1.4478 -1.0817 -2.8081
   19SOL     MW   76   0.119   1.296   0.970 -0.2450 -0.0563  0.3284
   20SOL     OW   77   0.429   2.117   1.160  0.0833  0.1957 -0.4333
   20SOL    HW1   78   0.374   2.035   1.132 -0.4982 -1.6933 -0.1105
   20SOL    HW2   79   0.382   2.155   1.241  0.8822  2.4875  1.6762
   20SOL     MW   80   0.415   2.111   1.167  0.1120  0.2488 -0.1124
   21SOL     OW   81   0.545   0.818   0.353 -0.2290 -0.1124  0.0725
   21SOL    HW1   82   0.618   0.794   0.413 -0.6271  2.4116 -0.9439
   21SOL    HW2   83   0.565   0.773   0.270  0.8620  1.5215 -1.4824
   21SOL     MW   84   0.557   0.809   0.350 -0.1376  0.4362 -0.2668
   22SOL     OW   85   1.490   0.640   1.079  0.3927  0.5496 -0.7254
   22SOL    HW1   86   1.481   0.614   0.980  0.9961 -0.5071 -2.0795
   22SOL    HW2   87   1.400   0.644   1.112 -0.5266 -0.2716  0.2067
   22SOL     MW   88   1.477   0.637   1.070  0.3510  0.3018 -0.7811
   23SOL     OW   89   0.032   0.774   0.659 -0.1763 -0.1994  0.5382
   23SOL    HW1   90   0.081   0.713   0.714 -2.1816  1.7362  1.0022
   23SOL    HW2   91   0.090   0.853   0.653  0.7596  0.7930 -1.9519
   23SOL     MW   92   0.046   0.776   0.666 -0.3174  0.1870  0.2709
   24SOL     OW   93   1.985   2.218   0.122  0.0804  0.3696  0.0517
   24SOL    HW1   94   1.985   2.176   0.213  0.7606  0.4392  2.4560
   24SOL    HW2   95   2.007   2.148   0.057  0.5011  1.9541 -1.2175
   24SOL     MW   96   1.988   2.203   0.125  0.2256  0.5878  0.2015
   25SOL     OW   97   0.224   1.363   0.486 -0.0518 -0.1135  0.5320
   25SOL    HW1   98   0.169   1.430   0.444  0.9605 -0.0724  1.3657
   25SOL    HW2   99   0.309   1.382   0.456 -0.5701 -2.1221 -4.8908
   25SOL     MW  100   0.227   1.374   0.476  0.0134 -0.3731 -0.0735
   26SOL     OW  101   2.017   0.987   0.372  0.3943 -0.3501 -0.1080
   26SOL    HW1  102   1.958   1.031   0.439  0.7123 -0.2739 -0.5308
   26SOL    HW2  103   2.063   1.064   0.327  3.1197  1.6450 -0.3784
   26SOL     MW  104   2.015   1.003   0.375  0.7959 -0.0768 -0.1995
   27SOL     OW  105   2.051   1.436   0.259 -0.7544  0.1930 -0.2775
   27SOL    HW1  106   1.968   1.395   0.298 -0.6347 -1.2700  0.9329
   27SOL    HW2  107   2.095   1.491   0.329  0.7804  0.2940  0.5946
   27SOL     MW  108   2.046   1.438   0.274 -0.5361  0.0133 -0.0027
   28SOL     OW  109   0.401   1.051   2.016 -0.5327 -0.5937 -0.4727
   28SOL    HW1  110   0.465   1.036   2.086  0.5423 -2.8950  0.3623
   28SOL    HW2  111   0.339   0.983   2.049  0.3474  0.2422 -0.9262
   28SOL     MW  112   0.401   1.040   2.029 -0.2748 -0.7870 -0.4224
   29SOL     OW  113   0.231   1.444   0.757  0.2248  0.0297 -0.2965
   29SOL    HW1  114   0.226   1.540   0.763 -0.0344  0.7653  1.4671
   29SOL    HW2  115   0.228   1.421   0.662 -0.4366  0.7816  0.0742
   29SOL     MW  116   0.230   1.454   0.745  0.1033  0.2260 -0.0149
   30SOL     OW  117   0.793   1.203   1.209  0.4891 -0.6895 -0.2309
   30SOL    HW1  118   0.707   1.206   1.254  0.2385 -0.0356  2.4506
   30SOL    HW2  119   0.858   1.174   1.277 -0.6314  1.7529  1.6062
   30SOL     MW  120   0.790   1.200   1.224  0.3082 -0.2810  0.3653
   31SOL     OW  121   0.424   0.149   0.180  0.3786 -0.7925 -0.0747
   31SOL    HW1  122   0.468   0.085   0.234 -3.3352 -1.5106 -0.8244
   31SOL    HW2  123   0.378   0.081   0.127  0.9220 -0.7944  0.8253
   31SOL     MW  124   0.424   0.132   0.180 -0.0397 -0.8875 -0.0549
   32SOL     OW  125   2.788   1.000   1.127  0.0198  0.0552  0.0998
   32SOL    HW1  126   2.714   0.930   1.127  1.6194 -1.3274 -0.4521
   32SOL    HW2  127   2.874   0.960   1.102 -1.9492  0.5735 -2.0417
   32SOL     MW  128   2.790   0.985   1.124 -0.0289 -0.0588 -0.2556
   33SOL     OW  129   1.830   1.301   0.352 -0.3441  0.1117  0.0377
   33SOL    HW1  130   1.807   1.233   0.415  0.7864  2.4244  1.6373
   33SOL    HW2  131   1.765   1.367   0.343  0.9293 -0.0246 -2.8208
   33SOL     MW  132   1.818   1.301   0.359 -0.0269  0.3988 -0.1284
   34SOL     OW  133   1.252   1.860   1.061 -0.0731  0.1353  0.1597
   34SOL    HW1  134   1.162   1.882   1.076  1.2995 -3.0375  0.8192
   34SOL    HW2  135   1.305   1.894   1.137 -0.4405 -0.1872  1.6291
   34SOL     MW  136   1.247   1.867   1.073  0.0595 -0.3259  0.4406
   35SOL     OW  137   0.435   0.176   1.885 -0.0219  0.0454 -0.0354
   35SOL    HW1  138   0.418   0.106   1.949 -2.1304  1.4859  0.8376
   35SOL    HW2  139   0.483   0.138   1.808  2.9699  1.0463 -2.2793
   35SOL     MW  140   0.439   0.162   1.883  0.0947  0.3675 -0.2162
   36SOL     OW  141   1.908   1.936   0.538  0.1187  0.0469  0.3140
   36SOL    HW1  142   1.935   1.965   0.449  3.5469  0.9651 -0.8687
   36SOL    HW2  143   1.929   1.839   0.541  1.2307  1.5808  1.5542
   36SOL     MW  144   1.915   1.927   0.526  0.7177  0.3704  0.3216
   37SOL     OW  145   1.747   1.986   1.030 -0.0996 -0.3081 -0.0902
   37SOL    HW1  146   1.691   1.938   0.972  1.5446  0.8982  1.5643
   37SOL    HW2  147   1.689   2.036   1.081  0.0222  0.0223 -2.2230
   37SOL     MW  148   1.732   1.986   1.029  0.1334 -0.1053 -0.1533
   38SOL     OW  149   2.775   0.914   0.121 -0.2263 -0.3621  0.3008
   38SOL    HW1  150   2.790   0.922   0.216  0.1181  5.7615 -1.4495
   38SOL    HW2  151   2.853   0.876   0.085 -1.3890 -2.4069 -2.9010
   38SOL     MW  152   2.788   0.910   0.129 -0.3342  0.1761 -0.3526
   39SOL     OW  153   1.425   0.602   0.806 -0.2087 -0.3019  0.8802
   39SOL    HW1  154   1.389   0.509   0.810  1.1688 -0.5449 -1.1800
   39SOL    HW2  155   1.347   0.663   0.795 -0.4844  2.2240 -0.8787
   39SOL     MW  156   1.410   0.598   0.805 -0.0633 -0.0007  0.3763
   40SOL     OW  157   1.158   1.904   0.262  0.0158 -0.4637  0.0178
   40SOL    HW1  158   1.208   1.843   0.313  1.6430  0.8204  1.1594
   40SOL    HW2  159   1.137   1.978   0.321  0.4495 -2.9932  0.6676
   40SOL     MW  160   1.162   1.905   0.277  0.2877 -0.6280  0.2542
   41SOL     OW  161   0.617   0.550   1.600 -0.4079  0.0024  0.6288
   41SOL    HW1  162   0.706   0.582   1.576 -1.6074  1.4739 -0.2293
   41SOL    HW2  163   0.625   0.491   1.671 -0.6436 -2.8073 -0.3908
   41SOL     MW  164   0.629   0.547   1.606 -0.5972 -0.1742  0.3811
   42SOL     OW  165   1.267   3.027   1.970  0.6597 -0.0992  0.0391
   42SOL    HW1  166   1.188   3.046   2.023  0.3094  1.1466  1.4047
   42SOL    HW2  167   1.324   2.957   2.013  0.1179 -0.7027 -2.4017
   42SOL     MW  168   1.264   3.021   1.983  0.5420 -0.0145 -0.1028
   43SOL     OW  169   1.570   0.123   1.736  0.1273 -0.4217 -0.1828
   43SOL    HW1  170   1.618   0.073   1.666  0.9214 -1.4429  0.3346
   43SOL    HW2  171   1.475   0.103   1.718 -0.6400 -2.3695  0.5642
   43SOL     MW  172   1.564   0.114   1.724  0.1308 -0.8135 -0.0159
   44SOL     OW  173   1.132   0.762   1.058 -1.0562 -0.4168 -0.0921
   44SOL    HW1  174   1.157   0.850   1.028 -2.3374 -0.5632  1.1287
   44SOL    HW2  175   1.132   0.771   1.152 -3.1268  0.2296 -2.5828
   44SOL     MW  176   1.135   0.775   1.066 -1.4984 -0.3508 -0.2596
   45SOL     OW  177   1.195   0.744   0.725  0.7260 -0.2341 -0.2107
   45SOL    HW1  178   1.126   0.776   0.784 -0.3648 -2.0524 -2.4452
   45SOL    HW2  179   1.148   0.686   0.665 -0.6134  0.4939  1.6215
   45SOL     MW  180   1.179   0.740   0.725  0.4054 -0.3780 -0.2638
   46SOL     OW  181   0.590   1.180   0.563  0.1916  0.2413  0.0574
   46SOL    HW1  182   0.539   1.177   0.482 -0.8919 -0.5800 -0.0456
   46SOL    HW2  183   0.679   1.165   0.547  0.4159 -1.2466 -0.3395
   46SOL     MW  184   0.595   1.178   0.550  0.0783 -0.0634 -0.0085
   47SOL     OW  185   0.171   1.964   1.881  0.7920  0.0164  1.2107
   47SOL    HW1  186   0.242   1.914   1.829 -0.0776  1.5163  0.0287
   47SOL    HW2  187   0.167   1.929   1.970 -2.2805 -0.3700  0.2883
   47SOL     MW  188   0.180   1.953   1.886  0.2719  0.1633  0.9330
   48SOL     OW  189   1.097   0.493   0.950 -0.0947 -0.0673  0.2024
   48SOL    HW1  190   1.015   0.455   0.986 -2.1006 -2.3899  0.1627
   48SOL    HW2  191   1.102   0.583   0.978 -2.7593 -1.5290 -0.6393
   48SOL     MW  192   1.087   0.500   0.959 -0.7109 -0.5666  0.0861
   49SOL     OW  193   1.831   0.731   1.603  0.0862  0.0049 -0.2619
   49SOL    HW1  194   1.798   0.687   1.681  0.9265 -1.6646  1.4251
   49SOL    HW2  195   1.879   0.662   1.555 -0.8047  1.2385  0.9970
   49SOL     MW  196   1.833   0.716   1.607  0.0795 -0.0526  0.1268
   50SOL     OW  197   1.205   1.070   0.523 -0.2277  0.1211 -0.4349
   50SOL    HW1  198   1.164   1.107   0.603 -0.4316  2.4317  2.0803
   50SOL    HW2  199   1.282   1.018   0.552 -0.0783  0.8044  2.0924
   50SOL     MW  200   1.210   1.068   0.538 -0.2349  0.5161  0.2304
   51SOL     OW  201   0.326   2.876   0.930 -1.1727  0.0538  0.4171
   51SOL    HW1  202   0.423   2.847   0.945  2.6220 -1.8020 -0.2820
   51SOL    HW2  203   0.297   2.901   1.017  0.2383 -1.0228 -1.8514
   51SOL     MW  204   0.335   2.876   0.943 -0.4859 -0.3331  0.0255
   52SOL     OW  205   0.818   1.840   0.434  0.0710 -0.1331 -0.0458
   52SOL    HW1  206   0.750   1.908   0.452 -3.3837 -1.2725  1.2329
   52SOL    HW2  207   0.798   1.812   0.343 -0.0909 -3.5066 -0.1507
   52SOL     MW  208   0.806   1.845   0.425 -0.4062 -0.7285  0.1091
   53SOL     OW  209   0.418   2.130   0.618 -0.2495  0.1259 -0.7961
   53SOL    HW1  210   0.356   2.101   0.551 -2.0870 -1.5700 -2.4379
   53SOL    HW2  211   0.423   2.224   0.618  0.1929 -2.8358  2.0171
   53SOL     MW  212   0.410   2.138   0.609 -0.4336 -0.4886 -0.6416
   54SOL     OW  213   2.095   0.930   0.852 -0.4032  0.0297 -0.2940
   54SOL    HW1  214   2.134   0.909   0.766  0.8625  0.3934 -0.9209
   54SOL    HW2  215   2.055   0.844   0.875  1.6856 -1.1319  0.9308
   54SOL     MW  216   2.095   0.916   0.844  0.0394 -0.0756 -0.2151
   55SOL     OW  217   0.568   1.547   1.672  0.4799  0.3021  0.3791
   55SOL    HW1  218   0.504   1.582   1.610  1.6704 -0.3182  0.1752
   55SOL    HW2  219   0.624   1.502   1.614 -1.1438  0.3398  1.8621
   55SOL     MW  220   0.567   1.546   1.656  0.4228  0.2252  0.5479
   56SOL     OW  221   0.604   0.779   0.050  0.4301  0.0789 -0.0559
   56SOL    HW1  222   0.614   0.874   0.067  0.1388 -0.7521  1.9844
   56SOL    HW2  223   0.528   0.772  -0.009  0.3435  2.5769  2.0292
   56SOL     MW  224   0.595   0.791   0.045  0.3803  0.2988  0.4884
   57SOL     OW  225   1.212   1.195   1.119  0.1896  0.2580  1.2443
   57SOL    HW1  226   1.289   1.228   1.070  0.1556  1.0918  0.0002
   57SOL    HW2  227   1.240   1.163   1.212  1.8901 -1.7877 -0.3556
   57SOL     MW  228   1.226   1.195   1.125  0.4095  0.0981  0.8690
   58SOL     OW  229   0.541   1.169   1.308 -0.3587  0.4865 -0.4095
   58SOL    HW1  230   0.507   1.262   1.281 -0.3559  0.3894  1.2335
   58SOL    HW2  231   0.541   1.159   1.402 -0.7869  2.4403 -0.5176
   58SOL     MW  232   0.536   1.180   1.317 -0.4148  0.7315 -0.2070
   59SOL     OW  233   1.549   1.689   0.328  0.0849 -0.1826 -0.2844
   59SOL    HW1  234   1.611   1.710   0.402  1.4162  2.9403 -2.5065
   59SOL    HW2  235   1.466   1.687   0.371 -0.2040  1.2683  2.2954
   59SOL     MW  236   1.546   1.691   0.343  0.2224  0.4209 -0.2372
   60SOL     OW  237   0.019   0.180   1.602 -0.2705 -0.3400  0.1746
   60SOL    HW1  238  -0.065   0.217   1.613  0.0221 -2.6890 -1.9341
   60SOL    HW2  239   0.034   0.137   1.685  0.8176  3.4263  1.1363
   60SOL     MW  240   0.010   0.179   1.614 -0.0884 -0.1530  0.0232
   61SOL     OW  241   2.034   1.502   3.081 -0.3107  0.3048  0.4793
   61SOL    HW1  242   1.992   1.522   3.163 -0.9610 -2.0795  1.3219
   61SOL    HW2  243   2.098   1.442   3.120 -1.2475 -1.2881 -0.4914
   61SOL     MW  244   2.037   1.497   3.097 -0.5201 -0.2200  0.4624
   62SOL     OW  245   0.572   1.697   0.630  0.3861  0.4600  0.0545
   62SOL    HW1  246   0.656   1.727   0.598 -2.4397 -0.8187  3.2982
   62SOL    HW2  247   0.576   1.599   0.632  0.2612 -0.5881  0.1195
   62SOL     MW  248   0.584   1.688   0.626 -0.0032  0.1530  0.4911
   63SOL     OW  249   1.683   0.677   0.737 -0.2592  0.0053 -0.1715
   63SOL    HW1  250   1.685   0.743   0.665 -1.1244 -2.0651 -2.9401
   63SOL    HW2  251   1.591   0.659   0.750  1.1308 -2.8112  0.9907
   63SOL     MW  252   1.671   0.683   0.729 -0.1900 -0.6395 -0.3835
   64SOL     OW  253   0.214   1.747   0.761 -0.5790 -0.1725  0.5334
   64SOL    HW1  254   0.291   1.800   0.785  0.7185  0.6044 -1.8191
   64SOL    HW2  255   0.146   1.804   0.773  0.3033 -3.2318 -1.4916
   64SOL     MW  256   0.215   1.762   0.766 -0.2914 -0.4736 -0.0441
   65SOL     OW  257   1.542   2.341   0.378  0.2192 -0.1282 -0.4580
   65SOL    HW1  258   1.636   2.339   0.390 -1.8990 -1.2681  2.4547
   65SOL    HW2  259   1.507   2.396   0.443  2.4084 -1.5406  0.5089
   65SOL     MW  260   1.550   2.348   0.388  0.2285 -0.4650  0.0539
   66SOL     OW  261   0.280   0.531   0.551  0.2915 -0.4665 -0.1797
   66SOL    HW1  262   0.333   0.482   0.488 -1.6477  0.3021 -0.2699
   66SOL    HW2  263   0.281   0.627   0.519  2.4040  1.8114 -3.3069
   66SOL     MW  264   0.287   0.538   0.538  0.3144 -0.0645 -0.6042
   67SOL     OW  265   1.530   0.074   2.051  0.5900 -0.3893  0.3748
   67SOL    HW1  266   1.541   0.084   1.955 -0.2927 -0.5226 -0.0851
   67SOL    HW2  267   1.505  -0.015   2.076 -1.8073  2.0840  0.6819
   67SOL     MW  268   1.528   0.063   2.042  0.1573 -0.0806  0.3546
   68SOL     OW  269   0.670   0.114   2.931  0.3989  0.7477  0.0867
   68SOL    HW1  270   0.665   0.156   2.841  3.3767 -0.2447 -1.3223
   68SOL    HW2  271   0.753   0.152   2.969  0.7784  0.9526  0.5171
   68SOL     MW  272   0.680   0.124   2.924  0.8418  0.6438 -0.0424
   69SOL     OW  273   1.007   0.202   1.999  0.3516  0.2522 -0.0192
   69SOL    HW1  274   1.107   0.209   1.996  0.4683  1.0824 -1.3184
   69SOL    HW2  275   0.991   0.114   2.033  0.4887 -1.2103  0.7904
   69SOL     MW  276   1.018   0.191   2.003  0.3851  0.1687 -0.0838
   70SOL     OW  277   0.525   1.740   1.115  0.6668 -0.2835  0.3128
   70SOL    HW1  278   0.549   1.668   1.171  2.9820  0.7427  0.1223
   70SOL    HW2  279   0.601   1.788   1.072  0.9855  1.5017 -2.7397
   70SOL     MW  280   0.538   1.736   1.116  1.0143  0.0874 -0.1151
   71SOL     OW  281   1.597   0.525   1.296 -0.2172 -0.1762 -0.7725
   71SOL    HW1  282   1.541   0.584   1.348  2.0217  2.3661 -1.6383
   71SOL    HW2  283   1.563   0.535   1.204  0.1084 -1.0449 -0.0276
   71SOL     MW  284   1.585   0.534   1.291  0.1211  0.0446 -0.7884
   72SOL     OW  285   0.747   1.814   0.983 -0.4719  0.0126 -0.2448
   72SOL    HW1  286   0.756   1.869   0.903  1.3276  1.1328  0.2353
   72SOL    HW2  287   0.767   1.723   0.961 -2.6744 -1.7438  0.9943
   72SOL     MW  288   0.751   1.809   0.970 -0.5251 -0.0714 -0.0180
   73SOL     OW  289   1.169   0.752   1.323  0.0860  0.1012 -0.6090
   73SOL    HW1  290   1.120   0.666   1.321 -0.6310  1.0261  2.2296
   73SOL    HW2  291   1.128   0.800   1.394  2.0127 -0.0358  1.1121
   73SOL     MW  292   1.157   0.747   1.332  0.2456  0.2052 -0.0074
   74SOL     OW  293   2.769   0.177   0.942 -0.6640  0.4579  0.0294
   74SOL    HW1  294   2.815   0.180   0.859 -1.9402 -0.6651  2.0468
   74SOL    HW2  295   2.740   0.271   0.951 -0.1827  0.0830 -0.6615
   74SOL     MW  296   2.771   0.189   0.932 -0.7689  0.2602  0.2044
   75SOL     OW  297   1.646   1.376   0.107 -0.0894  0.1372  0.2458
   75SOL    HW1  298   1.680   1.467   0.114 -0.3275  1.1486 -1.6010
   75SOL    HW2  299   1.717   1.317   0.136  0.9851 -0.7553  1.8424
   75SOL     MW  300   1.660   1.380   0.112  0.0210  0.1529  0.2128
   76SOL     OW  301   3.008   0.609   0.464  0.0746 -0.4867  0.1134
   76SOL    HW1  302   3.061   0.671   0.517 -2.0001  0.5300  0.2093
   76SOL    HW2  303   3.060   0.531   0.457  2.5219  0.1359 -1.1547
   76SOL     MW  304   3.022   0.607   0.470  0.1237 -0.2704 -0.0413
   77SOL     OW  305   0.798   0.552   0.426  0.9630 -0.0917  0.4312
   77SOL    HW1  306   0.784   0.569   0.334 -0.8886  0.6479  0.0362
   77SOL    HW2  307   0.734   0.479   0.444 -1.0352  1.0124 -0.1691
   77SOL     MW  308   0.788   0.545   0.416  0.4550  0.1516  0.2999
   78SOL     OW  309   0.731   0.931   1.302  0.1272  0.3640  0.3133
   78SOL    HW1  310   0.772   0.988   1.232 -0.3252  0.9810 -0.5678
   78SOL    HW2  311   0.664   0.887   1.246 -3.2310  0.7621 -0.4770
   78SOL     MW  312   0.727   0.933   1.286 -0.3756  0.4980  0.0928
   79SOL     OW  313   1.947   1.666   0.588  0.2565 -0.0964 -0.4390
   79SOL    HW1  314   1.886   1.597   0.554  2.1301  1.2860  2.1044
   79SOL    HW2  315   1.960   1.659   0.684 -2.3540 -1.4135  0.0470
   79SOL     MW  316   1.941   1.656   0.596  0.1593 -0.0878 -0.0393
   80SOL     OW  317   0.079   0.936   0.332 -0.2190 -0.2174  0.3849
   80SOL    HW1  318  -0.001   0.891   0.352  0.1957  0.8375 -0.0481
   80SOL    HW2  319   0.144   0.870   0.363  0.0820  0.4458 -0.5191
   80SOL     MW  320   0.077   0.921   0.338 -0.1246  0.0093  0.2085
   81SOL     OW  321   1.921   1.904   0.216 -0.1586  0.5310  0.1986
   81SOL    HW1  322   1.878   1.816   0.213  2.3582 -1.8009 -0.4397
   81SOL    HW2  323   1.840   1.963   0.207  1.0120  1.9670  0.9907
   81SOL     MW  324   1.904   1.900   0.214  0.3279  0.4128  0.2189
   82SOL     OW  325   0.816   1.030   0.517 -0.3615 -0.8614 -0.1098
   82SOL    HW1  326   0.790   1.048   0.423  2.9426  0.0875  1.1330
   82SOL    HW2  327   0.801   0.937   0.524  1.0120  2.8929  1.8933
   82SOL     MW  328   0.811   1.020   0.505  0.2557 -0.2409  0.3184
   83SOL     OW  329   0.074   0.636   1.419 -0.9136  0.1961  0.8484
   83SOL    HW1  330   0.110   0.710   1.366 -0.4052  0.6369 -0.4557
   83SOL    HW2  331   0.150   0.621   1.471 -1.4490  1.3963 -1.7152
   83SOL     MW  332   0.089   0.644   1.419 -0.9172  0.4126  0.3381
   84SOL     OW  333   0.101   0.267   0.949 -0.2416  0.5718 -0.0170
   84SOL    HW1  334   0.016   0.281   0.900  0.7149  2.3970 -1.7544
   84SOL    HW2  335   0.084   0.189   1.005 -2.0394 -1.1357 -1.3093
   84SOL     MW  336   0.087   0.258   0.950 -0.3526  0.5874 -0.4167
   85SOL     OW  337   0.487   0.413   0.751  0.1686 -0.1705  0.1367
   85SOL    HW1  338   0.434   0.444   0.675  0.9968 -1.0570 -0.3192
   85SOL    HW2  339   0.449   0.331   0.781 -3.0858 -2.0736  0.8228
   85SOL     MW  340   0.475   0.406   0.745 -0.1515 -0.5386  0.1670
   86SOL     OW  341   1.201   0.315   1.134 -0.5055 -0.0347  0.0882
   86SOL    HW1  342   1.178   0.390   1.076 -1.7960  0.0064  1.0324
   86SOL    HW2  343   1.243   0.348   1.214 -0.4925 -0.9530 -1.4926
   86SOL     MW  344   1.204   0.329   1.137 -0.6741 -0.1504  0.0042
   87SOL     OW  345   1.210   1.452   1.307  0.1913  0.5615  0.7918
   87SOL    HW1  346   1.221   1.501   1.225  2.9539  0.4333  1.4326
   87SOL    HW2  347   1.175   1.366   1.278  3.2638 -1.0253  1.3587
   87SOL     MW  348   1.207   1.447   1.292  0.9612  0.3352  0.9512
   88SOL     OW  349   1.210   0.996   0.937  0.1941  0.1041 -0.3832
   88SOL    HW1  350   1.304   0.975   0.930  1.3069 -0.7760  2.4205
   88SOL    HW2  351   1.201   1.071   1.000 -0.3886 -3.3558  0.3923
   88SOL     MW  352   1.222   1.003   0.944  0.2640 -0.4685  0.0890
   89SOL     OW  353   1.782   0.678   0.371  0.3146  0.0159  0.2139
   89SOL    HW1  354   1.827   0.611   0.412 -0.6348  1.5072  0.3667
   89SOL    HW2  355   1.847   0.728   0.319 -1.2360  0.0675 -2.1177
   89SOL     MW  356   1.797   0.675   0.369 -0.0153  0.2195 -0.0736
   90SOL     OW  357   0.690   1.121   2.747  0.4321 -0.2575 -0.9481
   90SOL    HW1  358   0.743   1.036   2.780  1.3509 -1.1041  2.0911
   90SOL    HW2  359   0.710   1.191   2.800 -0.0949  0.4880 -2.7891
   90SOL     MW  360   0.700   1.119   2.759  0.4838 -0.2709 -0.7900
   91SOL     OW  361   2.174   0.674   0.465  0.2136  0.0514 -0.4122
   91SOL    HW1  362   2.232   0.701   0.393 -2.1011  0.0565 -0.9652
   91SOL    HW2  363   2.156   0.580   0.444  0.5065  0.1249 -1.7231
   91SOL     MW  364   2.179   0.665   0.453 -0.0532  0.0618 -0.6581
   92SOL     OW  365   1.656   0.865   0.533  0.5759  0.3100 -0.0971
   92SOL    HW1  366   1.562   0.875   0.562 -1.6373  0.2738  2.7874
   92SOL    HW2  367   1.662   0.785   0.482 -0.3534 -0.6193  1.2269
   92SOL     MW  368   1.644   0.856   0.530  0.1613  0.1826  0.4582
   93SOL     OW  369   0.950   0.261   0.410 -0.6247 -0.2503 -0.2980
   93SOL    HW1  370   0.872   0.317   0.404  0.4031  2.7129  2.0482
   93SOL    HW2  371   0.988   0.269   0.324 -1.2465 -0.7454 -0.0111
   93SOL     MW  372   0.945   0.270   0.398 -0.5711  0.0754  0.0494
   94SOL     OW  373   1.784   1.470   1.625 -0.2835  0.9645 -0.1397
   94SOL    HW1  374   1.828   1.451   1.540 -2.0850 -0.4791  1.0365
   94SOL    HW2  375   1.774   1.384   1.661  0.2007 -1.1698  1.5009
   94SOL     MW  376   1.789   1.456   1.619 -0.4573  0.4924  0.2319
   95SOL     OW  377   0.759   1.550   0.933 -0.1062  0.7456 -0.7838
   95SOL    HW1  378   0.814   1.474   0.936 -1.5583  0.5349  2.6320
   95SOL    HW2  379   0.686   1.539   0.991 -0.9937  2.2822 -0.4598
   95SOL     MW  380   0.757   1.538   0.941 -0.4149  0.9205 -0.2904
   96SOL     OW  381   1.248   1.836   1.641  0.4606 -0.2434 -0.1181
   96SOL    HW1  382   1.181   1.815   1.701 -1.1192 -0.7229  3.3489
   96SOL    HW2  383   1.252   1.751   1.589  0.2323  3.3401  1.1480
   96SOL     MW  384   1.240   1.822   1.642  0.2220  0.1661  0.5064
   97SOL     OW  385   1.278   1.433   0.770 -0.2953  0.3067 -0.6058
   97SOL    HW1  386   1.342   1.477   0.821 -0.1743  0.5223  1.8121
   97SOL    HW2  387   1.197   1.488   0.762 -2.1814 -0.0258 -0.9848
   97SOL     MW  388   1.276   1.446   0.776 -0.5282  0.2913 -0.3368
   98SOL     OW  389   1.453   1.283   1.017 -0.2839  0.4899  0.1306
   98SOL    HW1  390   1.502   1.329   1.084 -0.9799 -1.3937 -1.6150
   98SOL    HW2  391   1.498   1.295   0.933  2.0558 -1.8274 -0.5101
   98SOL     MW  392   1.466   1.291   1.015 -0.0671 -0.0644 -0.1843
   99SOL     OW  393   1.371   0.388   1.330  0.3418 -0.3685  0.0375
   99SOL    HW1  394   1.462   0.396   1.295 -0.3411  1.7965  1.0316
   99SOL    HW2  395   1.388   0.398   1.426  0.5491 -2.4525  0.6275
   99SOL     MW  396   1.386   0.391   1.338  0.2791 -0.3578  0.2465
  100SOL     OW  397   1.026   1.151   1.369 -0.1242  0.2221  0.2776
  100SOL    HW1  398   1.025   1.197   1.450  1.1873 -0.4166  0.4859
  100SOL    HW2  399   1.054   1.065   1.399  2.1778  2.5904 -0.4836
  100SOL     MW  400   1.030   1.146   1.384  0.3525  0.4503  0.2046
  101SOL     OW  401   0.494   1.080   0.296  0.1779 -0.0100  0.3879
  101SOL    HW1  402   0.518   0.994   0.321  1.9022 -0.2177  1.9379
  101SOL    HW2  403   0.471   1.074   0.198 -0.4353  1.8449 -0.7757
  101SOL     MW  404   0.494   1.068   0.287  0.3245  0.2073  0.4389
  102SOL     OW  405   2.907   0.623   1.033  0.1669  0.5391  0.4501
  102SOL    HW1  406   2.950   0.708   1.040  0.0900 -2.6821 -0.4722
  102SOL    HW2  407   2.953   0.568   1.094 -1.6485  1.7493  1.2456
  102SOL     MW  408   2.919   0.627   1.042 -0.0828  0.2738  0.4334
  103SOL     OW  409   1.736   0.328   1.793  0.4847 -0.1324  0.3761
  103SOL    HW1  410   1.666   0.273   1.773 -1.2736  2.4075  1.5328
  103SOL    HW2  411   1.779   0.294   1.878  1.7248  0.8469  0.4274
  103SOL     MW  412   1.732   0.316   1.802  0.4163  0.3319  0.5355
  104SOL     OW  413   0.056   1.726   1.512 -0.8298 -0.2281 -0.3485
  104SOL    HW1  414   0.045   1.642   1.571  1.5551 -0.4014  2.8934
  104SOL    HW2  415   0.061   1.696   1.415  0.2825  0.7822  0.1770
  104SOL     MW  416   0.055   1.711   1.507 -0.3684 -0.1177  0.1486
  105SOL     OW  417   0.040   1.180   0.470 -0.1226  0.4826 -0.2128
  105SOL    HW1  418   0.065   1.085   0.436  0.6925 -1.2955 -0.7062
  105SOL    HW2  419   0.127   1.235   0.470 -0.0467  3.0886  2.1050
  105SOL     MW  420   0.055   1.175   0.465 -0.0050  0.5919  0.0279
  106SOL     OW  421   0.866   0.382   1.028 -0.4004  0.5174 -0.0895
  106SOL    HW1  422   0.797   0.420   0.970  0.4101  1.8727 -0.5092
  106SOL    HW2  423   0.911   0.318   0.964 -0.9281  1.2427 -0.4780
  106SOL     MW  424   0.863   0.379   1.012 -0.3631  0.7919 -0.1961
  107SOL     OW  425   0.761   2.178   2.955 -0.1666 -0.2431  0.0362
  107SOL    HW1  426   0.696   2.149   2.887  1.6102 -2.0666 -0.3721
  107SOL    HW2  427   0.716   2.147   3.032  2.1832 -2.4342  1.1303
  107SOL     MW  428   0.746   2.170   2.956  0.3779 -0.7728  0.1267
  108SOL     OW  429   1.271   1.579   1.582  0.1229 -0.0754  0.6459
  108SOL    HW1  430   1.243   1.543   1.503  0.1852  1.3494  4.1888
  108SOL    HW2  431   1.350   1.519   1.603  0.4223  1.2190  0.8470
  108SOL     MW  432   1.278   1.566   1.574  0.1706  0.2834  1.1399
  109SOL     OW  433   1.978   0.792   0.184 -0.0683 -0.3491 -0.0398
  109SOL    HW1  434   1.963   0.818   0.094 -1.5961  3.2641 -0.7085
  109SOL    HW2  435   1.998   0.867   0.248 -3.1979  0.6516  1.9938
  109SOL     MW  436   1.978   0.805   0.181 -0.6828  0.2597  0.1403
  110SOL     OW  437   0.438   1.913   0.811 -0.2172 -0.3814 -0.1044
  110SOL    HW1  438   0.500   1.841   0.791  0.4732 -1.4775  3.1710
  110SOL    HW2  439   0.457   1.979   0.746 -0.8464  0.4183  0.5359
  110SOL     MW  440   0.449   1.912   0.800 -0.2091 -0.4205  0.4122
  111SOL     OW  441   0.809   0.912   1.568  0.6900 -0.7170 -0.0554
  111SOL    HW1  442   0.769   0.906   1.481 -0.2410 -2.2293 -0.1069
  111SOL    HW2  443   0.833   0.819   1.587 -0.5719 -0.5923 -0.0912
  111SOL     MW  444   0.807   0.899   1.559  0.4007 -0.9001 -0.0669
  112SOL     OW  445   1.357   1.080   1.593  0.3510  0.1876  0.2870
  112SOL    HW1  446   1.316   1.168   1.604  1.0936  1.4110 -1.6678
  112SOL    HW2  447   1.287   1.021   1.566 -0.7189  0.6583 -0.1886
  112SOL     MW  448   1.342   1.084   1.591  0.3078  0.4111 -0.0336
  113SOL     OW  449   1.308   0.056   1.710  0.3445  0.3324 -0.2598
  113SOL    HW1  450   1.312   0.017   1.798 -1.2287 -2.9525  0.1995
  113SOL    HW2  451   1.336  -0.022   1.655 -1.3709 -0.0600  0.2258
  113SOL     MW  452   1.312   0.041   1.715 -0.0894 -0.1527 -0.1351
  114SOL     OW  453   0.293   2.854   1.930 -0.5542 -0.5614  0.0260
  114SOL    HW1  454   0.344   2.928   1.962 -1.7925  0.3538 -0.6080
  114SOL    HW2  455   0.272   2.877   1.836  0.3433 -0.1484  1.6132
  114SOL     MW  456   0.297   2.867   1.922 -0.5991 -0.3861  0.1518
  115SOL     OW  457   0.483   0.828   1.145 -0.5141 -0.0778  0.1924
  115SOL    HW1  458   0.486   0.731   1.146 -2.6515 -1.8569 -0.2732
  115SOL    HW2  459   0.480   0.865   1.236  2.6992  0.2940 -1.2274
  115SOL     MW  460   0.483   0.820   1.157 -0.3722 -0.2635 -0.0564
  116SOL     OW  461   0.809   1.028   0.973  0.2713  0.5648 -0.0389
  116SOL    HW1  462   0.818   1.077   0.894 -1.4419  1.0549  0.4539
  116SOL    HW2  463   0.866   1.067   1.040 -0.8001 -2.4731  0.2090
  116SOL     MW  464   0.818   1.040   0.971 -0.0961  0.2286  0.0588
  117SOL     OW  465   1.111   1.195   0.756 -0.1527 -0.3095 -0.4003
  117SOL    HW1  466   1.157   1.128   0.808  1.0982 -0.6620  2.0929
  117SOL    HW2  467   1.176   1.269   0.746  0.6019 -0.9922 -2.3989
  117SOL     MW  468   1.126   1.196   0.762  0.1119 -0.4461 -0.3351
  118SOL     OW  469   3.031   2.945   1.770 -0.3579  0.1552  0.1325
  118SOL    HW1  470   3.087   3.017   1.799  0.8076 -1.0222  1.0163
  118SOL    HW2  471   2.942   2.976   1.762 -2.4372  0.8047 -2.9770
  118SOL     MW  472   3.027   2.958   1.773 -0.4785  0.0855 -0.1612
  119SOL     OW  473   0.480   1.432   1.223 -0.0438 -0.2215  0.1588
  119SOL    HW1  474   0.494   1.438   1.124 -2.3833  0.1033  0.3072
  119SOL    HW2  475   0.380   1.425   1.224  1.4143 -2.4692 -3.2664
  119SOL     MW  476   0.469   1.432   1.210 -0.1601 -0.4752 -0.2735
  120SOL     OW  477   0.265   0.698   0.966  0.0819  0.3671  0.1740
  120SOL    HW1  478   0.229   0.668   1.051  0.4878  0.4414 -0.8303
  120SOL    HW2  479   0.342   0.750   0.990 -0.4690 -0.0550  0.5625
  120SOL     MW  480   0.270   0.701   0.981  0.0628  0.3212  0.0927
  121SOL     OW  481   1.749   1.200   1.718 -0.0952  0.0419  0.2023
  121SOL    HW1  482   1.668   1.166   1.750 -1.1997 -2.5257  1.5871
  121SOL    HW2  483   1.776   1.130   1.657 -0.8799  0.3795  0.8889
  121SOL     MW  484   1.742   1.187   1.714 -0.3445 -0.2523  0.4756
  122SOL     OW  485   0.128   0.555   0.789 -0.2867 -0.3502 -0.0180
  122SOL    HW1  486   0.187   0.541   0.713  0.9735 -0.4383  1.3798
  122SOL    HW2  487   0.193   0.597   0.849 -2.9778 -1.2655  0.9193
  122SOL     MW  488   0.145   0.559   0.787 -0.4755 -0.4826  0.2901
  123SOL     OW  489   1.832   1.076   0.554  0.5032  0.9219 -0.4209
  123SOL    HW1  490   1.761   1.008   0.557 -1.7185 -0.6731  2.0885
  123SOL    HW2  491   1.848   1.112   0.639 -0.3252  0.2092 -1.0251
  123SOL     MW  492   1.825   1.072   0.565  0.1008  0.6174 -0.1695
  124SOL     OW  493   0.695   0.528   0.876 -0.0872 -0.1607 -0.3726
  124SOL    HW1  494   0.636   0.475   0.824  0.2343  0.1123  2.2443
  124SOL    HW2  495   0.695   0.618   0.846 -1.6618 -2.0909  0.3537
  124SOL     MW  496   0.688   0.533   0.865 -0.2526 -0.3794  0.0685
  125SOL     OW  497   0.709   1.784   1.709 -0.9008 -0.1119  0.4272
  125SOL    HW1  498   0.652   1.707   1.721  2.3726 -0.8386 -1.1678
  125SOL    HW2  499   0.655   1.857   1.696  1.2910 -2.2297 -1.5323
  125SOL     MW  500   0.694   1.783   1.709 -0.1797 -0.4872 -0.0418
  126SOL     OW  501   2.122   1.610   1.985 -0.0199 -0.1927  0.1232
  126SOL    HW1  502   2.160   1.700   1.985 -0.8151  0.4323 -1.0342
  126SOL    HW2  503   2.191   1.541   1.985  1.5989  1.1751  0.4473
  126SOL     MW  504   2.136   1.613   1.985  0.0888  0.0702  0.0133
  127SOL     OW  505   0.704   0.785   1.859  0.4669  0.0346 -0.2897
  127SOL    HW1  506   0.779   0.743   1.897  0.6258 -2.9885  1.8302
  127SOL    HW2  507   0.691   0.861   1.921  1.6526 -0.4284  2.9864
  127SOL     MW  508   0.712   0.789   1.872  0.6443 -0.4254  0.4223
  128SOL     OW  509   1.794   0.714   2.904 -0.9271 -0.3222  0.7157
  128SOL    HW1  510   1.826   0.693   2.815 -0.6602 -1.8521  0.6898
  128SOL    HW2  511   1.755   0.801   2.890  0.0870 -0.5530 -3.5824
  128SOL     MW  512   1.793   0.722   2.891 -0.7581 -0.5545  0.1452
  129SOL     OW  513   1.642   0.960   0.220 -0.3336  0.3444  0.1225
  129SOL    HW1  514   1.598   0.879   0.206  0.7935  2.1799 -1.3519
  129SOL    HW2  515   1.685   0.949   0.307  0.0610 -0.1754 -0.6113
  129SOL     MW  516   1.642   0.948   0.230 -0.1328  0.5180 -0.1688
  130SOL     OW  517   0.738   1.334   0.354 -0.3941 -0.2955  0.5156
  130SOL    HW1  518   0.794   1.351   0.430 -1.5725 -0.8010 -2.0540
  130SOL    HW2  519   0.791   1.379   0.278  6.1676  0.4454 -1.5299
  130SOL     MW  520   0.753   1.342   0.354  0.3162 -0.2644 -0.0933
  131SOL     OW  521   3.005   0.822   3.072  0.5567 -0.5805  0.1327
  131SOL    HW1  522   3.014   0.878   2.996  1.2469  1.5759  0.7788
  131SOL    HW2  523   3.092   0.818   3.119  2.0994  0.7711  0.4001
  131SOL     MW  524   3.018   0.829   3.068  0.8513 -0.1177  0.2532
  132SOL     OW  525   2.690   0.153   1.230 -0.6688 -0.6693  0.1037
  132SOL    HW1  526   2.714   0.137   1.136  1.2851 -0.8598  1.6615
  132SOL    HW2  527   2.600   0.123   1.250  1.6293  0.2964  1.9466
  132SOL     MW  528   2.681   0.147   1.220 -0.1078 -0.5670  0.5524
  133SOL     OW  529   1.049   0.155   1.733 -0.4963 -0.3724 -0.1621
  133SOL    HW1  530   1.130   0.108   1.753 -0.5027  0.4444  3.0433
  133SOL    HW2  531   1.013   0.180   1.819 -3.5285  0.5508  0.2366
  133SOL     MW  532   1.055   0.152   1.747 -0.8972 -0.1428  0.3134
  134SOL     OW  533   1.393   2.524   1.433 -0.6369 -0.3340 -0.3153
  134SOL    HW1  534   1.369   2.604   1.384  2.8681  2.7444 -1.4348
  134SOL    HW2  535   1.438   2.547   1.515 -0.1491  0.5130  2.7229
  134SOL     MW  536   1.396   2.538   1.437 -0.1101  0.1840 -0.0622
  135SOL     OW  537   3.055   1.013   2.838 -0.6838 -0.6958  0.0175
  135SOL    HW1  538   3.088   1.079   2.897 -1.6587 -2.2921 -4.8588
  135SOL    HW2  539   2.966   1.039   2.838  0.6770  0.0809  0.5217
  135SOL     MW  540   3.048   1.025   2.846 -0.6329 -0.8040 -0.5594
  136SOL     OW  541   0.209   2.048   0.883 -0.5503 -0.2399 -0.3618
  136SOL    HW1  542   0.137   2.007   0.834  1.9532 -0.7227 -0.9259
  136SOL    HW2  543   0.293   2.000   0.857 -1.3659 -0.4159  1.0018
  136SOL     MW  544   0.211   2.036   0.873 -0.3276 -0.3268 -0.2563
  137SOL     OW  545   0.683   2.075   0.532  0.1863  0.2241 -0.2512
  137SOL    HW1  546   0.735   2.058   0.606 -0.2019 -0.9296 -1.6768
  137SOL    HW2  547   0.591   2.083   0.542  2.3957  0.5264  2.5188
  137SOL     MW  548   0.678   2.074   0.543  0.4266  0.1118 -0.0738
  138SOL     OW  549   0.529   0.555   1.093  0.5942  0.2312 -0.1769
  138SOL    HW1  550   0.447   0.508   1.080  0.6661  2.2380 -0.3899
  138SOL    HW2  551   0.586   0.548   1.013  1.9613  0.7921 -1.0776
  138SOL     MW  552   0.526   0.548   1.080  0.7840  0.5700 -0.3238
  139SOL     OW  553   2.768   0.582   1.349  0.0457 -0.1439 -0.3201
  139SOL    HW1  554   2.802   0.493   1.349 -0.2208  1.4424 -0.1757
  139SOL    HW2  555   2.775   0.615   1.436 -1.0417  2.8210  0.3972
  139SOL     MW  556   2.774   0.574   1.360 -0.1329  0.4566 -0.2064
  140SOL     OW  557   0.809   0.381   2.078  0.2641  0.0855  0.2576
  140SOL    HW1  558   0.887   0.327   2.066 -4.3982  0.3830 -0.2354
  140SOL    HW2  559   0.828   0.438   2.155  0.3852  1.4740  1.5215
  140SOL     MW  560   0.822   0.382   2.087 -0.3351  0.3080  0.3593
  141SOL     OW  561   1.088   0.593   1.759 -0.0592  0.8906 -0.0349
  141SOL    HW1  562   1.111   0.526   1.694  0.9050  3.6357 -0.2534
  141SOL    HW2  563   1.146   0.668   1.741  2.5337  1.7122 -0.3757
  141SOL     MW  564   1.099   0.594   1.748  0.4101  1.3612 -0.1087
  142SOL     OW  565   0.836   1.190   0.740  0.0578  0.4427 -0.6265
  142SOL    HW1  566   0.841   1.122   0.668 -2.2969  1.1391 -1.3562
  142SOL    HW2  567   0.932   1.209   0.761 -0.0903  1.7802 -2.4932
  142SOL     MW  568   0.850   1.184   0.733 -0.2724  0.7110 -0.9691
  143SOL     OW  569   1.749   0.791   1.119 -0.1450  0.2949  0.6760
  143SOL    HW1  570   1.784   0.799   1.030  1.9428 -0.9323  1.3456
  143SOL    HW2  571   1.660   0.754   1.102  3.2862 -3.0579  0.5903
  143SOL     MW  572   1.742   0.787   1.105  0.5832 -0.3094  0.7531
  144SOL     OW  573   0.229   1.171   1.558 -0.6024 -0.7564  0.6907
  144SOL    HW1  574   0.322   1.179   1.568 -2.0406 -0.2168  1.5770
  144SOL    HW2  575   0.202   1.182   1.651  0.0002 -2.3872  3.0993
  144SOL     MW  576   0.238   1.174   1.572 -0.7126 -0.9004  1.1254
  145SOL     OW  577   0.275   0.447   1.122  0.2835  0.4225  0.6741
  145SOL    HW1  578   0.304   0.374   1.174  1.5886 -2.4736  2.4544
  145SOL    HW2  579   0.231   0.415   1.036 -1.9841  0.2634 -0.2596
  145SOL     MW  580   0.273   0.433   1.118  0.1565  0.0194  0.7858
  146SOL     OW  581   0.807   1.930   1.317 -0.2683 -0.0717  0.3971
  146SOL    HW1  582   0.830   1.919   1.227 -0.7219 -0.3453  0.4462
  146SOL    HW2  583   0.715   1.946   1.307 -1.4600 -0.0654 -0.2154
  146SOL     MW  584   0.798   1.931   1.304 -0.4854 -0.1070  0.3228
  147SOL     OW  585   0.348   0.396   2.997 -0.3374 -0.0641 -0.0270
  147SOL    HW1  586   0.266   0.400   3.049 -2.1868  1.6555  0.7045
  147SOL    HW2  587   0.340   0.458   2.925 -0.7355 -1.2279 -2.0400
  147SOL     MW  588   0.336   0.405   2.995 -0.6339  0.0092 -0.1961
  148SOL     OW  589   0.138   0.858   1.272  0.5585 -0.1278  0.0647
  148SOL    HW1  590   0.235   0.871   1.299  0.0036  0.0261 -1.2886
  148SOL    HW2  591   0.096   0.904   1.342  1.0924 -0.0928 -4.2648
  148SOL     MW  592   0.145   0.866   1.284  0.5558 -0.1029 -0.6851
  149SOL     OW  593   1.364   1.137   1.344 -0.0920  0.2453 -0.0185
  149SOL    HW1  594   1.363   1.112   1.439  3.5186 -1.6761  1.0009
  149SOL    HW2  595   1.424   1.210   1.348 -2.5997 -0.1818  0.8701
  149SOL     MW  596   1.372   1.143   1.357  0.0535 -0.0645  0.2333
  150SOL     OW  597   1.849   1.408   0.745  0.3365 -0.4746  0.0174
  150SOL    HW1  598   1.885   1.322   0.745  0.6320  1.7720  0.1246
  150SOL    HW2  599   1.922   1.470   0.761 -0.3346  1.0327  0.7283
  150SOL     MW  600   1.864   1.405   0.747  0.2870  0.0207  0.1253
  151SOL     OW  601   1.671   1.785   0.825  0.1986 -0.3012 -0.1068
  151SOL    HW1  602   1.640   1.822   0.740  1.5217  0.1427 -0.5055
  151SOL    HW2  603   1.612   1.712   0.849 -0.0152 -4.5576  2.1692
  151SOL     MW  604   1.659   1.780   0.817  0.3450 -0.8042  0.1409
  152SOL     OW  605   0.730   1.404   1.484  0.7114  0.6290  0.4430
  152SOL    HW1  606   0.714   1.312   1.505 -0.7626 -0.7962 -3.2603
  152SOL    HW2  607   0.823   1.417   1.495  0.7054 -2.9136 -1.9379
  152SOL     MW  608   0.740   1.394   1.488  0.5161 -0.0264 -0.3598
  153SOL     OW  609   2.596   1.225   0.751  0.1062 -0.4451 -0.4366
  153SOL    HW1  610   2.658   1.160   0.716 -2.8959  1.4183  0.3587
  153SOL    HW2  611   2.516   1.171   0.760 -0.0119 -1.1289  1.8164
  153SOL     MW  612   2.594   1.209   0.748 -0.3055 -0.2894 -0.0344
  154SOL     OW  613   0.333   1.812   1.748 -0.6141  0.5626  0.1253
  154SOL    HW1  614   0.322   1.812   1.653  0.5367  0.6979 -2.4082
  154SOL    HW2  615   0.328   1.715   1.774  0.1595  0.0951  0.7059
  154SOL     MW  616   0.331   1.799   1.739 -0.3602  0.5188 -0.1324
  155SOL     OW  617   1.200   0.701   0.269  0.6045  0.2479  0.0548
  155SOL    HW1  618   1.163   0.654   0.346  0.8823  1.9445 -1.8573
  155SOL    HW2  619   1.176   0.794   0.284 -0.7240 -0.9233 -0.8015
  155SOL     MW  620   1.192   0.707   0.281  0.4658  0.3172 -0.3105
  156SOL     OW  621   1.544   3.052   1.072 -0.9482  0.3969  0.2896
  156SOL    HW1  622   1.618   3.108   1.094  1.5622 -1.3724  2.7316
  156SOL    HW2  623   1.560   2.974   1.118 -0.5050 -0.7459 -2.5244
  156SOL     MW  624   1.556   3.049   1.081 -0.5585  0.0127  0.2405
  157SOL     OW  625   1.454   1.121   0.118 -0.1297 -0.2851 -0.3206
  157SOL    HW1  626   1.520   1.044   0.143  2.8965 -1.3704  0.4202
  157SOL    HW2  627   1.511   1.198   0.110 -1.1631  0.7158  2.4897
  157SOL     MW  628   1.470   1.121   0.120  0.1332 -0.2962  0.1479
  158SOL     OW  629   0.485   1.624   2.192  0.2566  0.6290 -0.1210
  158SOL    HW1  630   0.463   1.702   2.138 -0.7813  2.0149 -2.2049
  158SOL    HW2  631   0.417   1.627   2.262  0.1406  0.4203 -0.1637
  158SOL     MW  632   0.473   1.635   2.194  0.1044  0.7844 -0.4016
  159SOL     OW  633   1.276   1.703   0.421  0.2912  0.4898  0.5183
  159SOL    HW1  634   1.245   1.620   0.382 -0.0268 -1.4116 -0.4867
  159SOL    HW2  635   1.210   1.737   0.481 -0.2793 -2.1559 -1.0897
  159SOL     MW  636   1.263   1.697   0.424  0.1740 -0.1101  0.1735
  160SOL     OW  637   0.539   1.150   1.597  0.8193  0.3850  0.5400
  160SOL    HW1  638   0.533   1.058   1.626 -2.5201 -0.6261  3.3273
  160SOL    HW2  639   0.585   1.195   1.665  0.2349 -0.1932 -1.0682
  160SOL     MW  640   0.544   1.144   1.610  0.3016  0.1753  0.6956
  161SOL     OW  641   0.466   2.193   2.563 -0.3166 -0.5452  0.3288
  161SOL    HW1  642   0.380   2.223   2.535  0.4675 -0.0839 -1.2669
  161SOL    HW2  643   0.496   2.127   2.501 -2.0603  0.3145 -2.5292
  161SOL     MW  644   0.459   2.189   2.551 -0.4432 -0.3709 -0.2589
  162SOL     OW  645   1.076   1.811   1.870 -0.2772 -0.7647  0.0050
  162SOL    HW1  646   1.075   1.898   1.907 -0.3809 -1.5730  0.6400
  162SOL    HW2  647   0.990   1.778   1.897  1.8776 -0.3990  0.9078
  162SOL     MW  648   1.065   1.818   1.879 -0.0066 -0.8231  0.2079
  163SOL     OW  649   2.142   0.048   0.940  0.1018 -0.0851  0.1819
  163SOL    HW1  650   2.159   0.087   0.848  3.7261 -1.0642 -1.8928
  163SOL    HW2  651   2.050   0.035   0.937  0.2090 -3.1090 -0.9054
  163SOL     MW  652   2.132   0.051   0.928  0.5941 -0.6133 -0.2353
  164SOL     OW  653   0.354   0.191   0.886  0.5489  0.5913 -0.3195
  164SOL    HW1  654   0.269   0.226   0.892  0.9644 -2.0090  0.0346
  164SOL    HW2  655   0.345   0.109   0.835  0.3185  0.6250  0.2347
  164SOL     MW  656   0.342   0.185   0.880  0.5734  0.2527 -0.1996
  165SOL     OW  657   1.342   1.234   0.337  0.1146 -0.1535  0.1036
  165SOL    HW1  658   1.293   1.171   0.389  0.9738  2.6381  2.0199
  165SOL    HW2  659   1.367   1.194   0.249  0.9783  1.9541 -0.8724
  165SOL     MW  660   1.339   1.221   0.332  0.3419  0.4929  0.2277
  166SOL     OW  661   0.532   1.126   1.012  0.0888  0.4091  0.3378
  166SOL    HW1  662   0.494   1.072   1.076 -2.8820  1.4294 -1.1975
  166SOL    HW2  663   0.626   1.110   1.011  0.8899 -0.6413 -2.6418
  166SOL     MW  664   0.540   1.117   1.020 -0.1975  0.4051 -0.2579
  167SOL     OW  665   0.776   1.034   0.243 -0.6625 -0.4093  0.3971
  167SOL    HW1  666   0.692   1.091   0.248 -1.2436  1.6139 -0.1433
  167SOL    HW2  667   0.828   1.083   0.169 -1.2262 -1.6963 -0.1273
  167SOL     MW  668   0.772   1.048   0.234 -0.8136 -0.3122  0.2566
  168SOL     OW  669   1.654   1.675   2.982  0.4464  0.0137  0.4357
  168SOL    HW1  670   1.562   1.685   2.958  0.3422  1.5932 -1.6747
  168SOL    HW2  671   1.685   1.592   2.940  0.7998 -4.7331  0.5525
  168SOL     MW  672   1.646   1.665   2.973  0.4793 -0.4042  0.1727
  169SOL     OW  673   0.383   0.900   1.399  0.1987 -0.2348  0.0205
  169SOL    HW1  674   0.412   0.864   1.486  1.1663 -1.2030  0.7130
  169SOL    HW2  675   0.434   0.977   1.384 -2.2714  0.1065 -0.6548
  169SOL     MW  676   0.394   0.905   1.409  0.0005 -0.3175  0.0228
  170SOL     OW  677   1.002   1.479   1.519  0.0662 -0.3586 -0.1879
  170SOL    HW1  678   0.965   1.562   1.551 -1.0687 -0.5742  0.9744
  170SOL    HW2  679   1.037   1.504   1.429 -0.1765 -1.1192  1.2134
  170SOL     MW  680   1.002   1.493   1.512 -0.1156 -0.4874  0.1503
  171SOL     OW  681   0.588   1.426   0.683 -0.2799  0.1674  0.2365
  171SOL    HW1  682   0.541   1.416   0.769  1.5382  0.9769 -1.6876
  171SOL    HW2  683   0.589   1.337   0.646 -2.6468 -1.1436  1.6263
  171SOL     MW  684   0.582   1.413   0.689 -0.3523  0.1012  0.1660
  172SOL     OW  685   0.848   0.306   1.278 -0.3713  0.9270 -0.0555
  172SOL    HW1  686   0.857   0.336   1.188  0.1423  1.2389 -0.7143
  172SOL    HW2  687   0.755   0.317   1.311  0.3734 -1.3345  0.2929
  172SOL     MW  688   0.837   0.312   1.271 -0.2053  0.6698 -0.0964
  173SOL     OW  689   0.445   1.726   0.388 -0.4414  0.2689 -0.4705
  173SOL    HW1  690   0.460   1.635   0.363  3.4694  2.2754  2.1562
  173SOL    HW2  691   0.474   1.722   0.483  0.3199  1.8751 -1.0438
  173SOL     MW  692   0.451   1.714   0.397  0.1751  0.7456 -0.1995
  174SOL     OW  693   1.851   0.999   1.538 -0.1365 -0.0439  0.1718
  174SOL    HW1  694   1.830   0.903   1.554  2.6586 -0.2386  2.6143
  174SOL    HW2  695   1.847   1.009   1.442  1.0829  2.0257  3.5722
  174SOL     MW  696   1.848   0.988   1.528  0.3932  0.2035  0.9427
  175SOL     OW  697   0.476   1.431   0.348  0.6867  0.5974 -0.9897
  175SOL    HW1  698   0.438   1.366   0.279 -2.5209 -3.9430  0.4451
  175SOL    HW2  699   0.564   1.393   0.370 -0.0249  0.5095 -2.0214
  175SOL     MW  700   0.483   1.418   0.342  0.1696 -0.0133 -0.9365
  176SOL     OW  701   0.217   1.414   1.226  0.2448  0.9182  0.0151
  176SOL    HW1  702   0.198   1.348   1.159  1.3188  0.3159 -2.4363
  176SOL    HW2  703   0.196   1.363   1.307 -0.3543  1.9701 -0.1216
  176SOL     MW  704   0.211   1.398   1.228  0.3074  0.9775 -0.3264
  177SOL     OW  705   0.579   0.418   1.335  0.3612  0.3250 -0.2590
  177SOL    HW1  706   0.591   0.475   1.249  3.0199  1.2224  2.0102
  177SOL    HW2  707   0.590   0.470   1.415 -1.4171 -1.3923  1.3548
  177SOL     MW  708   0.582   0.433   1.334  0.4774  0.2169  0.2533
  178SOL     OW  709   0.023   0.433   2.953  0.0057  0.0993  0.3349
  178SOL    HW1  710  -0.053   0.451   3.011 -1.8202  2.0989 -1.0585
  178SOL    HW2  711   0.001   0.495   2.882  1.3733  2.1879  0.6914
  178SOL     MW  712   0.010   0.444   2.952 -0.0547  0.6387  0.1981
  179SOL     OW  713   1.578   1.346   1.410 -0.2770 -0.4321  0.1339
  179SOL    HW1  714   1.575   1.357   1.506 -0.6063 -1.5128  0.9077
  179SOL    HW2  715   1.672   1.363   1.385  0.4214  0.5024  0.7690
  179SOL     MW  716   1.590   1.350   1.419 -0.2283 -0.4513  0.3198
  180SOL     OW  717   3.040   0.198   0.465  0.5519 -0.2682 -0.3893
  180SOL    HW1  718   3.011   0.188   0.377 -0.0744 -2.0741 -0.5886
  180SOL    HW2  719   3.101   0.271   0.462 -0.2313 -0.8654  1.3509
  180SOL     MW  720   3.044   0.206   0.453  0.3659 -0.5853 -0.1860
  181SOL     OW  721   1.135   1.357   3.086 -0.2659 -0.2688 -0.1902
  181SOL    HW1  722   1.201   1.417   3.105 -1.7614  1.3523 -1.0986
  181SOL    HW2  723   1.179   1.279   3.053 -3.6170 -3.8561  2.7584
  181SOL     MW  724   1.149   1.355   3.084 -0.9053 -0.5282  0.0790
  182SOL     OW  725   0.498   0.896   1.651 -0.7108 -0.3976 -0.4581
  182SOL    HW1  726   0.430   0.858   1.705  0.5230  0.6380  0.6979
  182SOL    HW2  727   0.575   0.867   1.697 -0.4213 -1.6413  1.4246
  182SOL     MW  728   0.499   0.887   1.665 -0.5098 -0.4251 -0.0572
  183SOL     OW  729   1.564   1.544   1.217  0.2316 -0.0102 -0.4138
  183SOL    HW1  730   1.484   1.592   1.240  1.6952 -0.6252 -0.4567
  183SOL    HW2  731   1.570   1.480   1.295  0.5454  0.3750 -1.3021
  183SOL     MW  732   1.554   1.542   1.231  0.4661 -0.0405 -0.5367
  184SOL     OW  733   0.913   0.622   1.977  0.0881  0.2001 -0.4368
  184SOL    HW1  734   0.971   0.611   1.902 -1.7402  0.7398 -0.8764
  184SOL    HW2  735   0.894   0.529   1.998  1.4885  2.0959  2.3803
  184SOL     MW  736   0.918   0.609   1.970  0.0317  0.5214 -0.1231
  185SOL     OW  737   1.254   1.023   1.930  0.4765  0.2984 -0.4949
  185SOL    HW1  738   1.280   0.937   1.976 -0.7871 -0.4396  0.7057
  185SOL    HW2  739   1.259   1.085   1.998 -1.5650  0.4077  0.2728
  185SOL     MW  740   1.258   1.020   1.945  0.0404  0.2154 -0.2352
  186SOL     OW  741   0.372   1.646   1.446 -0.4016  0.3214 -0.4175
  186SOL    HW1  742   0.396   1.574   1.386 -0.9732 -2.2072 -1.2156
  186SOL    HW2  743   0.283   1.671   1.423  0.8333  1.5632  1.2957
  186SOL     MW  744   0.363   1.640   1.435 -0.3141  0.1516 -0.2968
  187SOL     OW  745   1.411   0.717   1.430 -0.1438  0.1896 -0.2306
  187SOL    HW1  746   1.421   0.690   1.520  0.1724  0.0874 -1.0291
  187SOL    HW2  747   1.320   0.730   1.406  1.5290 -1.9096 -1.0522
  187SOL     MW  748   1.400   0.715   1.438  0.1186 -0.1009 -0.4443
  188SOL     OW  749   1.942   1.152   0.817 -0.7467  0.6859  0.1920
  188SOL    HW1  750   1.904   1.185   0.903 -2.4458  0.6059  1.9271
  188SOL    HW2  751   1.985   1.065   0.827  0.2421  0.4408 -1.8426
  188SOL     MW  752   1.943   1.145   0.830 -0.8404  0.6430  0.1525
  189SOL     OW  753   0.701   0.804   0.853 -0.5554  0.0187  0.6567
  189SOL    HW1  754   0.614   0.851   0.842 -1.2745 -0.5338 -0.0347
  189SOL    HW2  755   0.750   0.868   0.911  2.1579 -1.8862 -2.2291
  189SOL     MW  756   0.696   0.819   0.859 -0.2922 -0.3056  0.1847
  190SOL     OW  757   1.876   0.284   2.065 -0.6146 -0.0762  0.2467
  190SOL    HW1  758   1.921   0.283   2.150 -1.4168  1.8867 -0.1007
  190SOL    HW2  759   1.932   0.341   2.007 -0.3650 -2.6434 -0.5785
  190SOL     MW  760   1.889   0.292   2.068 -0.6875 -0.1559  0.0920
  191SOL     OW  761   1.483   0.935   1.236  0.0281 -0.5718  0.1674
  191SOL    HW1  762   1.425   1.008   1.268  0.7265  0.4390 -3.7637
  191SOL    HW2  763   1.466   0.866   1.297 -1.6275 -0.5976 -1.3965
  191SOL     MW  764   1.473   0.935   1.248 -0.0982 -0.4419 -0.5576
  192SOL     OW  765   0.579   2.081   2.791  0.3558  0.0076 -0.0301
  192SOL    HW1  766   0.518   2.119   2.718 -0.9507  1.8798 -2.8775
  192SOL    HW2  767   0.573   1.988   2.782 -1.7707 -0.5518  0.5680
  192SOL     MW  768   0.570   2.074   2.780 -0.0972  0.1808 -0.3269
  193SOL     OW  769   1.021   1.562   0.799  0.3116 -0.0919 -0.4585
  193SOL    HW1  770   1.012   1.537   0.895 -1.4300 -1.1648  2.9374
  193SOL    HW2  771   0.945   1.521   0.752 -1.4779  1.7028  0.4752
  193SOL     MW  772   1.010   1.553   0.806 -0.1543  0.0033  0.1127
  194SOL     OW  773   0.436   1.395   0.946  0.3125  0.1715  0.5964
  194SOL    HW1  774   0.458   1.300   0.954 -0.3788 -1.5792  2.1727
  194SOL    HW2  775   0.349   1.400   0.918 -0.5908 -0.6188  2.3159
  194SOL     MW  776   0.428   1.383   0.943  0.1021 -0.1638  1.0312
  195SOL     OW  777   1.271   1.147   3.004 -0.3147  0.6016  0.5067
  195SOL    HW1  778   1.332   1.128   3.074 -3.0802  2.1944 -2.1456
  195SOL    HW2  779   1.201   1.075   3.016 -0.7696  0.4232 -1.0140
  195SOL     MW  780   1.270   1.135   3.014 -0.7396  0.7882 -0.0439
  196SOL     OW  781   2.172   1.023   0.589 -0.0478 -0.2638 -0.5686
  196SOL    HW1  782   2.122   0.995   0.507  0.7342 -1.6401 -2.3599
  196SOL    HW2  783   2.147   1.116   0.601  2.3307  0.9233  2.0274
  196SOL     MW  784   2.162   1.031   0.580  0.3692 -0.2887 -0.4624
  197SOL     OW  785   0.699   1.256   2.046  0.4507  0.6384 -0.0557
  197SOL    HW1  786   0.684   1.162   2.034 -1.8356 -1.6515  0.3060
  197SOL    HW2  787   0.659   1.295   1.975  0.4142 -0.5220 -0.6214
  197SOL     MW  788   0.692   1.249   2.035  0.1442  0.1831 -0.0826
  198SOL     OW  789   2.976   1.367   1.083  0.4003  0.0868  0.2961
  198SOL    HW1  790   2.934   1.457   1.075 -1.9815  1.6054  1.7729
  198SOL    HW2  791   2.897   1.314   1.050 -1.0663  1.7755 -0.0834
  198SOL     MW  792   2.960   1.372   1.078 -0.1075  0.5100  0.4409
  199SOL     OW  793   0.518   1.359   1.868  0.0328  0.0531  0.1673
  199SOL    HW1  794   0.442   1.309   1.835 -0.4299 -0.0707  2.0066
  199SOL    HW2  795   0.560   1.405   1.794 -2.4458 -1.0130 -0.3684
  199SOL     MW  796   0.513   1.358   1.854 -0.3553 -0.1039  0.3393
  200SOL     OW  797   1.852   3.098   1.325  0.0154 -0.8369 -0.6574
  200SOL    HW1  798   1.837   3.071   1.232 -1.8637 -0.0487  0.7942
  200SOL    HW2  799   1.766   3.120   1.373 -2.8969  1.7766 -0.6662
  200SOL     MW  800   1.838   3.097   1.319 -0.6167 -0.3881 -0.4670
  201SOL     OW  801   0.961   0.207   0.843  0.5995  0.1495  0.1791
  201SOL    HW1  802   0.940   0.120   0.797 -0.2670 -2.1877  1.8746
  201SOL    HW2  803   0.993   0.259   0.772 -1.1103 -2.7422  1.5084
  201SOL     MW  804   0.963   0.202   0.827  0.2596 -0.5404  0.5782
  202SOL     OW  805   1.509   1.572   0.933  0.1360 -0.1630 -0.3288
  202SOL    HW1  806   1.553   1.499   0.887  0.5632 -1.3556 -3.2183
  202SOL    HW2  807   1.538   1.579   1.024  0.6640 -1.0602 -0.3684
  202SOL     MW  808   1.519   1.563   0.939  0.2620 -0.4387 -0.7153
  203SOL     OW  809   3.087   0.483   1.205 -0.7900  0.5075  1.2842
  203SOL    HW1  810   3.181   0.460   1.187  3.0132  1.1260  1.3143
  203SOL    HW2  811   3.095   0.545   1.280  1.4397  0.9602 -1.5803
  203SOL     MW  812   3.101   0.488   1.212  0.0059  0.6488  0.9102
  204SOL     OW  813   1.063   1.762   0.595  0.0914 -0.7507  0.1852
  204SOL    HW1  814   1.030   1.696   0.656  0.8455  1.5396 -0.3760
  204SOL    HW2  815   0.987   1.764   0.539  1.2099 -0.5714 -1.9874
  204SOL     MW  816   1.048   1.753   0.596  0.3385 -0.4248 -0.1755
  205SOL     OW  817   1.367   0.086   1.372  0.5824  0.2587 -0.1980
  205SOL    HW1  818   1.323   0.060   1.292 -0.2914  1.3588  0.2062
  205SOL    HW2  819   1.357   0.176   1.378 -0.3405 -0.8630  0.3198
  205SOL     MW  820   1.360   0.094   1.362  0.3454  0.2559 -0.0764
  206SOL     OW  821   0.400   3.023   1.429 -0.3571 -0.0681  0.6189
  206SOL    HW1  822   0.352   3.022   1.341 -2.9123 -1.5190 -0.4348
  206SOL    HW2  823   0.484   2.968   1.404 -0.8160 -0.7031  0.8056
  206SOL     MW  824   0.405   3.015   1.414 -0.7548 -0.3433  0.5045
  207SOL     OW  825   0.911   1.476   0.202 -0.2593 -0.0902 -0.4050
  207SOL    HW1  826   0.901   1.566   0.169 -0.1129  0.7524 -1.6830
  207SOL    HW2  827   1.009   1.476   0.217 -0.3383  0.2063  2.2126
  207SOL     MW  828   0.923   1.488   0.200 -0.2504  0.0601 -0.2282
  208SOL     OW  829   0.699   1.632   1.318 -0.3602  0.1156 -0.1509
  208SOL    HW1  830   0.776   1.684   1.343 -0.6051  0.6527  1.8654
  208SOL    HW2  831   0.710   1.544   1.357  0.9728  0.0592  3.8800
  208SOL     MW  832   0.711   1.628   1.326 -0.2167  0.1790  0.6469
  209SOL     OW  833   1.575   0.549   2.957  0.6790  0.2798  0.4630
  209SOL    HW1  834   1.613   0.634   2.933 -0.2443 -0.1803  1.6453
  209SOL    HW2  835   1.635   0.488   2.921 -3.1837 -0.3173  0.6243
  209SOL     MW  836   1.588   0.552   2.949  0.0475  0.1403  0.6402
  210SOL     OW  837   1.579   1.345   0.800 -0.2388 -0.4605 -0.2352
  210SOL    HW1  838   1.670   1.379   0.787  1.8114 -1.8173  1.6090
  210SOL    HW2  839   1.536   1.348   0.710  1.1377  1.4792  0.6690
  210SOL     MW  840   1.585   1.350   0.786  0.2133 -0.3836  0.1275
  211SOL     OW  841   1.655   0.372   0.957  0.5742 -0.1611  0.0623
  211SOL    HW1  842   1.633   0.371   0.866 -1.8566  2.8050  3.1769
  211SOL    HW2  843   1.749   0.398   0.952 -0.1627 -1.7009  0.3380
  211SOL     MW  844   1.665   0.375   0.945  0.1562  0.0271  0.5096
  212SOL     OW  845   0.216   1.076   0.106  0.3190 -0.3250  0.1771
  212SOL    HW1  846   0.149   1.049   0.165  1.6276 -1.0668 -1.1349
  212SOL    HW2  847   0.228   0.996   0.050 -1.9795  1.1874 -0.6966
  212SOL     MW  848   0.208   1.062   0.107  0.1884 -0.2234 -0.1113
  213SOL     OW  849   0.487   1.726   3.033  0.4704  1.1083 -0.2803
  213SOL    HW1  850   0.505   1.778   3.113  0.8988 -3.5517  3.1457
  213SOL    HW2  851   0.527   1.775   2.954  0.3618  1.6833 -0.8142
  213SOL     MW  852   0.495   1.739   3.033  0.5126  0.5693  0.1013
  214SOL     OW  853   0.556   0.274   2.259 -0.0694 -0.5150  0.4509
  214SOL    HW1  854   0.497   0.343   2.227 -1.3179  2.1142 -1.9936
  214SOL    HW2  855   0.639   0.280   2.208 -1.0555 -0.3281 -0.0350
  214SOL     MW  856   0.560   0.284   2.248 -0.3642 -0.1434  0.0642
  215SOL     OW  857   0.529   0.697   2.663  0.4357 -0.1022  0.0567
  215SOL    HW1  858   0.536   0.665   2.574  2.0002 -3.5876  0.8701
  215SOL    HW2  859   0.454   0.659   2.715 -1.0571 -0.5175  0.8779
  215SOL     MW  860   0.520   0.688   2.658  0.4451 -0.6168  0.2724
  216SOL     OW  861   2.916   3.071   2.647 -0.1106 -0.2484 -0.4187
  216SOL    HW1  862   2.882   3.054   2.741 -2.4517 -1.1529  1.5202
  216SOL    HW2  863   2.924   3.173   2.651 -0.3360 -0.2470  1.1865
  216SOL     MW  864   2.912   3.082   2.660 -0.4493 -0.3676  0.0489
  217SOL     OW  865   0.935   1.164   0.064  0.4299 -0.1989 -0.5908
  217SOL    HW1  866   0.992   1.100   0.019  3.2943 -2.7004  2.2052
  217SOL    HW2  867   1.003   1.229   0.092  0.9465 -2.5064  2.8368
  217SOL     MW  868   0.952   1.164   0.062  0.8760 -0.8334  0.2303
  218SOL     OW  869   0.953   1.351   2.519  0.6165  0.4952 -0.3381
  218SOL    HW1  870   0.980   1.262   2.537  0.6385  0.7052  2.3066
  218SOL    HW2  871   1.035   1.399   2.532  1.1208 -1.0482 -0.2681
  218SOL     MW  872   0.967   1.346   2.523  0.6859  0.3193  0.0201
  219SOL     OW  873   1.100   0.465   2.627  0.0658 -0.1707  0.6745
  219SOL    HW1  874   1.176   0.512   2.666  0.6341  3.0313 -3.8674
  219SOL    HW2  875   1.029   0.525   2.614  0.7548  0.4579 -1.8052
  219SOL     MW  876   1.101   0.479   2.631  0.2317  0.3347 -0.2519
  220SOL     OW  877   1.754   0.457   2.234  0.1526  0.0133  0.3352
  220SOL    HW1  878   1.672   0.503   2.220 -0.0650  1.7344  0.9449
  220SOL    HW2  879   1.765   0.396   2.155  1.6465 -0.0316 -3.2250
  220SOL     MW  880   1.745   0.455   2.222  0.3210  0.2345 -0.0541
  221SOL     OW  881   0.357   1.339   2.928  0.8268  0.0563  0.7809
  221SOL    HW1  882   0.382   1.252   2.912  1.3622  1.6651 -0.2455
  221SOL    HW2  883   0.411   1.376   2.857 -0.3234 -1.1942 -1.2403
  221SOL     MW  884   0.367   1.332   2.917  0.7457  0.1036  0.3788
  222SOL     OW  885   0.398   0.939   2.685 -0.0105  0.0907 -0.0451
  222SOL    HW1  886   0.361   0.970   2.598 -1.4601  0.9327  2.7755
  222SOL    HW2  887   0.455   0.867   2.658 -1.0959  3.7518 -1.4420
  222SOL     MW  888   0.401   0.933   2.670 -0.3450  0.6849  0.1427
  223SOL     OW  889   0.014   2.067   2.573  0.0106 -0.6238 -0.2669
  223SOL    HW1  890   0.062   2.003   2.633 -1.2002 -0.1785 -0.6500
  223SOL    HW2  891   0.071   2.142   2.562 -0.5433 -0.9977 -2.5261
  223SOL     MW  892   0.028   2.068   2.580 -0.2222 -0.6144 -0.6156
  224SOL     OW  893   1.544   0.818   2.596 -0.0527 -0.3340 -0.0868
  224SOL    HW1  894   1.569   0.857   2.676 -0.8342 -0.2788  1.8511
  224SOL    HW2  895   1.522   0.883   2.532  1.2277  0.8028 -0.6867
  224SOL     MW  896   1.544   0.832   2.598  0.0131 -0.1768  0.0898
  225SOL     OW  897   2.953   1.493   2.306  0.4966 -0.7090 -0.1268
  225SOL    HW1  898   3.023   1.563   2.286  0.3829  3.1227  2.4580
  225SOL    HW2  899   2.886   1.541   2.355  1.0796 -0.6987 -1.4243
  225SOL     MW  900   2.954   1.508   2.310  0.5585 -0.2020  0.0430
  226SOL     OW  901   0.460   1.443   2.691  0.1629  0.5447  0.2969
  226SOL    HW1  902   0.559   1.456   2.675  0.8852 -1.1599 -2.9775
  226SOL    HW2  903   0.424   1.525   2.664 -0.6208 -0.4628  0.3627
  226SOL     MW  904   0.469   1.455   2.685  0.1548  0.1869 -0.1265
  227SOL     OW  905   0.455   1.094   2.892  0.1637  0.1480  0.4363
  227SOL    HW1  906   0.535   1.107   2.843 -0.0838  1.3991  0.8537
  227SOL    HW2  907   0.404   1.043   2.833 -1.4490  1.0234  0.9433
  227SOL     MW  908   0.459   1.089   2.878 -0.0817  0.4286  0.5582
  228SOL     OW  909   0.710   0.969   2.064  0.1665 -0.4460 -0.3227
  228SOL    HW1  910   0.800   1.006   2.042 -2.1840  0.9021  3.1936
  228SOL    HW2  911   0.730   0.924   2.150 -0.2234 -0.9155  1.6293
  228SOL     MW  912   0.724   0.968   2.072 -0.1950 -0.3301  0.3988
  229SOL     OW  913   0.176   0.590   0.022 -0.0008 -0.7929 -0.1213
  229SOL    HW1  914   0.119   0.551  -0.049 -1.4554  2.3696 -0.2729
  229SOL    HW2  915   0.199   0.515   0.079  1.4854 -0.1490  0.0029
  229SOL     MW  916   0.171   0.575   0.020  0.0034 -0.2907 -0.1249
  230SOL     OW  917   1.746   1.368   2.038 -0.5160 -0.3777  0.3767
  230SOL    HW1  918   1.685   1.334   2.104 -1.0483 -1.0657 -0.5950
  230SOL    HW2  919   1.799   1.293   2.008 -2.0625 -2.3867  0.2731
  230SOL     MW  920   1.745   1.354   2.043 -0.7903 -0.7336  0.2348
  231SOL     OW  921   2.755   1.327   2.174 -0.1675 -0.3290  0.1895
  231SOL    HW1  922   2.808   1.398   2.209 -3.7408 -0.7729 -0.8788
  231SOL    HW2  923   2.689   1.357   2.103  2.4067 -1.8540 -2.7466
  231SOL     MW  924   2.753   1.341   2.169 -0.2994 -0.5887 -0.3388
  232SOL     OW  925   2.249   0.827   2.086  0.1528  0.6874 -1.1569
  232SOL    HW1  926   2.179   0.853   2.024  2.2846 -0.8107  0.6525
  232SOL    HW2  927   2.217   0.833   2.178 -0.2562 -0.5146 -0.3025
  232SOL     MW  928   2.236   0.831   2.090  0.3801  0.3312 -0.8054
  233SOL     OW  929   2.045   0.445   1.951  0.4196  0.0783 -0.5548
  233SOL    HW1  930   2.101   0.365   1.944  1.9864 -1.1052  1.9687
  233SOL    HW2  931   2.084   0.469   2.039  2.5057 -0.8433  1.2423
  233SOL     MW  932   2.058   0.438   1.962  0.9016 -0.1994  0.0153
  234SOL     OW  933   0.285   1.016   2.447  0.0819  0.3503 -0.2453
  234SOL    HW1  934   0.207   1.060   2.408 -2.0059  0.3743  0.0578
  234SOL    HW2  935   0.354   1.084   2.431 -0.9175 -0.1006  0.8915
  234SOL     MW  936   0.284   1.031   2.439 -0.3254  0.2940 -0.0553
  235SOL     OW  937   1.145   3.021   2.710 -0.0135 -0.2403 -0.0673
  235SOL    HW1  938   1.159   2.971   2.788 -1.2538  2.6282 -0.6772
  235SOL    HW2  939   1.096   3.097   2.740  1.8935 -0.5431 -0.4465
  235SOL     MW  940   1.140   3.024   2.724  0.0744  0.0982 -0.1978
  236SOL     OW  941   2.928   0.540   0.004 -0.3653  0.3550  0.2106
  236SOL    HW1  942   2.841   0.548  -0.024  1.8475  1.0368  0.0330
  236SOL    HW2  943   2.957   0.629   0.019 -1.0190 -0.7130 -0.7884
  236SOL     MW  944   2.920   0.553   0.002 -0.1596  0.3041  0.0554
  237SOL     OW  945   1.974   1.118   2.235  0.8214  0.1573 -0.7796
  237SOL    HW1  946   1.951   1.133   2.140  2.0598 -0.2678 -4.5384
  237SOL    HW2  947   1.950   1.026   2.252  3.4360 -0.9179  2.4930
  237SOL     MW  948   1.968   1.108   2.225  1.3297 -0.0407 -0.8437
  238SOL     OW  949   1.068   1.794   2.998 -0.1969  0.2199  0.5080
  238SOL    HW1  950   1.033   1.711   2.972 -0.1926  2.4965 -1.3489
  238SOL    HW2  951   1.153   1.764   3.034  0.0716  1.7692  1.6879
  238SOL     MW  952   1.075   1.779   2.999 -0.1609  0.7247  0.4187
  239SOL     OW  953   1.246   1.355   2.360  0.1107 -0.0156 -0.2776
  239SOL    HW1  954   1.234   1.418   2.435 -1.7997  1.1125 -0.9053
  239SOL    HW2  955   1.243   1.267   2.413 -4.5374 -3.3851  2.5758
  239SOL     MW  956   1.244   1.352   2.377 -0.7546 -0.3113  0.0161
  240SOL     OW  957   0.734   0.820   2.291 -0.1717 -0.4599  0.4924
  240SOL    HW1  958   0.723   0.881   2.365 -0.9200 -1.8632 -1.2025
  240SOL    HW2  959   0.821   0.785   2.303 -1.9872 -0.2122 -0.8637
  240SOL     MW  960   0.744   0.823   2.303 -0.5100 -0.6124  0.0898
  241SOL     OW  961   0.632   0.378  -0.002  0.0278 -0.4640 -0.1146
  241SOL    HW1  962   0.668   0.449   0.054 -0.3467  1.4021 -2.3876
  241SOL    HW2  963   0.542   0.407  -0.021  1.6409 -0.5923  0.3489
  241SOL     MW  964   0.625   0.391   0.003  0.1912 -0.2347 -0.3534
  242SOL     OW  965   1.498   1.683   2.362 -0.1040 -0.1694 -0.7138
  242SOL    HW1  966   1.452   1.772   2.378 -3.4048  2.9083  0.3276
  242SOL    HW2  967   1.433   1.631   2.314  0.3582  0.7479 -1.2367
  242SOL     MW  968   1.483   1.688   2.358 -0.4786  0.3577 -0.6454
  243SOL     OW  969   1.042   0.248   2.484  0.1205  0.1719  0.1372
  243SOL    HW1  970   1.112   0.225   2.417  0.6835 -1.3310 -0.4856
  243SOL    HW2  971   1.076   0.316   2.550  0.9369 -1.0616  2.3503
  243SOL     MW  972   1.056   0.254   2.484  0.3025 -0.1891  0.3471
  244SOL     OW  973   0.248   0.768   2.357 -0.0093  0.1377  0.3753
  244SOL    HW1  974   0.269   0.859   2.382  0.3940  1.6784  0.6187
  244SOL    HW2  975   0.332   0.717   2.350  1.0526  2.1514 -0.7926
  244SOL     MW  976   0.262   0.773   2.360  0.1840  0.6067  0.2533
  245SOL     OW  977   1.266   0.220   2.323 -0.0124 -0.3070  0.0329
  245SOL    HW1  978   1.332   0.164   2.365 -0.0037  1.3289 -1.1976
  245SOL    HW2  979   1.295   0.304   2.370 -1.2353  3.0986  1.4615
  245SOL     MW  980   1.278   0.224   2.334 -0.1726  0.3582  0.0590
  246SOL     OW  981   1.191   1.187   2.134  0.4508 -0.0371 -0.3524
  246SOL    HW1  982   1.141   1.111   2.177 -1.7353 -0.0569 -0.4102
  246SOL    HW2  983   1.194   1.251   2.196 -1.6990  0.0071  1.2690
  246SOL     MW  984   1.185   1.185   2.148 -0.1213 -0.0339 -0.1461
  247SOL     OW  985   0.755   0.584   0.149 -0.3962 -0.1146  0.1613
  247SOL    HW1  986   0.704   0.662   0.137  1.6486 -1.7325  1.2816
  247SOL    HW2  987   0.843   0.599   0.109  0.9357  0.3041  0.6244
  247SOL     MW  988   0.760   0.596   0.142  0.0493 -0.2728  0.3702
  248SOL     OW  989   0.464   1.239   2.466 -0.4020  0.9246  0.2698
  248SOL    HW1  990   0.467   1.289   2.386  2.5071 -1.0022 -0.5357
  248SOL    HW2  991   0.465   1.303   2.536 -1.6817 -0.4977  0.4111
  248SOL     MW  992   0.464   1.254   2.464 -0.1870  0.4828  0.1822
  249SOL     OW  993   0.167   1.858   2.712 -0.0699  0.3540 -0.4522
  249SOL    HW1  994   0.137   1.775   2.671  1.1195  1.5405  0.3676
  249SOL    HW2  995   0.152   1.835   2.807 -0.6724 -1.5127  2.9297
  249SOL     MW  996   0.161   1.844   2.719  0.0076  0.2642  0.1022
  250SOL     OW  997   2.188   0.871   2.351  0.0081  0.4307 -0.5700
  250SOL    HW1  998   2.266   0.802   2.359 -1.3835 -1.8987 -0.5900
  250SOL    HW2  999   2.224   0.960   2.351  2.7859  0.8851  1.0376
  250SOL     MW 1000   2.203   0.873   2.352  0.1910  0.1833 -0.3605
  251SOL     OW 1001   0.137   0.888   2.017 -0.0243 -0.8577  0.1397
  251SOL    HW1 1002   0.120   0.826   2.085 -2.2809 -2.0077 -4.8290
  251SOL    HW2 1003   0.136   0.847   1.932  2.1853 -0.1552 -1.2026
  251SOL     MW 1004   0.134   0.875   2.015 -0.0305 -0.9168 -0.6930
  252SOL     OW 1005   1.713   0.983   2.858 -0.2598 -0.0299  0.0090
  252SOL    HW1 1006   1.726   1.039   2.937 -0.1212 -2.1790 -1.6394
  252SOL    HW2 1007   1.755   1.032   2.785  1.5652 -0.4692  0.1066
  252SOL     MW 1008   1.720   0.997   2.859 -0.0007 -0.3714 -0.1956
  253SOL     OW 1009   1.235   1.786   2.551  0.3553  0.0650 -0.0283
  253SOL    HW1 1010   1.197   1.781   2.460 -2.0151 -1.0184  1.2375
  253SOL    HW2 1011   1.159   1.831   2.583  1.1025  0.4998 -3.5344
  253SOL     MW 1012   1.220   1.791   2.543  0.1412 -0.0206 -0.3239
  254SOL     OW 1013   1.057   0.992   2.275 -0.0540 -0.3888  0.2690
  254SOL    HW1 1014   1.040   0.905   2.238 -0.1050 -0.6147  0.1351
  254SOL    HW2 1015   0.979   1.044   2.273  2.6474 -1.0993 -1.1317
  254SOL     MW 1016   1.044   0.988   2.270  0.2957 -0.5124  0.0665
  255SOL     OW 1017   0.786   2.587   2.183 -0.4742  0.1901 -0.7805
  255SOL    HW1 1018   0.714   2.529   2.206 -0.5903 -2.3179 -1.1774
  255SOL    HW2 1019   0.868   2.540   2.212 -1.8506 -0.5529 -0.7016
  255SOL     MW 1020   0.788   2.573   2.190 -0.6711 -0.2388 -0.8225
  256SOL     OW 1021   1.259   2.744   2.861  0.6021 -0.1521  0.7087
  256SOL    HW1 1022   1.246   2.649   2.889  1.1432 -0.6696 -0.3617
  256SOL    HW2 1023   1.348   2.735   2.841 -0.3958 -1.2681 -1.8592
  256SOL     MW 1024   1.269   2.730   2.862  0.5418 -0.3676  0.2286
  257SOL     OW 1025   0.092   1.919   0.091  0.2923 -0.0559 -0.2292
  257SOL    HW1 1026   0.135   1.883   0.165  1.6268 -0.7323 -2.1929
  257SOL    HW2 1027   0.126   1.863   0.018  1.4289 -0.7569  0.9345
  257SOL     MW 1028   0.102   1.907   0.091  0.6183 -0.2377 -0.3347
  258SOL     OW 1029   0.678   1.011   2.458  0.0355  0.3463  0.3026
  258SOL    HW1 1030   0.715   1.073   2.396  2.0626  2.8533 -1.3319
  258SOL    HW2 1031   0.644   1.078   2.520  2.4824  0.6281 -1.0302
  258SOL     MW 1032   0.679   1.028   2.458  0.6258  0.7143 -0.0889
  259SOL     OW 1033   0.762   0.447   2.383  0.1552 -0.1106  0.0430
  259SOL    HW1 1034   0.670   0.430   2.393  0.1682 -3.4984  1.3825
  259SOL    HW2 1035   0.807   0.382   2.439  2.4016  1.2187  0.0320
  259SOL     MW 1036   0.756   0.436   2.392  0.4533 -0.3822  0.2183
  260SOL     OW 1037   0.503   0.147   1.603 -0.5475  0.0459  0.0086
  260SOL    HW1 1038   0.448   0.071   1.582  1.4168  0.2569 -1.2290
  260SOL    HW2 1039   0.548   0.160   1.525  0.8233  1.4287 -0.5739
  260SOL     MW 1040   0.501   0.139   1.590 -0.1075  0.2562 -0.2315
  261SOL     OW 1041   1.311   0.779   2.007  0.4061  0.1644 -0.0875
  261SOL    HW1 1042   1.300   0.771   2.104  0.3276  1.6136 -1.2885
  261SOL    HW2 1043   1.310   0.689   1.979 -2.9671 -1.4027 -2.1101
  261SOL     MW 1044   1.309   0.766   2.016 -0.0493  0.1488 -0.5128
  262SOL     OW 1045   1.074   0.321   0.180 -0.8547  0.3424  0.6093
  262SOL    HW1 1046   1.166   0.319   0.149 -2.7991  1.4872 -1.3346
  262SOL    HW2 1047   1.034   0.252   0.127 -0.5046 -0.0255 -0.7593
  262SOL     MW 1048   1.081   0.311   0.169 -1.0650  0.4449  0.1723
  263SOL     OW 1049   0.433   3.096   2.523 -0.1755  0.5968  0.3540
  263SOL    HW1 1050   0.352   3.150   2.517 -1.2569 -0.8598  1.7883
  263SOL    HW2 1051   0.472   3.092   2.432  3.0357 -1.9600  1.4999
  263SOL     MW 1052   0.427   3.102   2.510  0.1055  0.0673  0.6944
  264SOL     OW 1053   1.513   1.300   1.924 -0.2415  0.6208 -0.3298
  264SOL    HW1 1054   1.460   1.295   2.006 -0.0448 -1.4002  1.0081
  264SOL    HW2 1055   1.602   1.319   1.951 -2.6451  0.2177 -1.1173
  264SOL     MW 1056   1.518   1.302   1.939 -0.5327  0.3010 -0.2572
  265SOL     OW 1057   0.681   2.803   2.287  0.0867  0.1742  0.4791
  265SOL    HW1 1058   0.709   2.723   2.237 -1.2691 -0.7190 -0.3719
  265SOL    HW2 1059   0.715   2.785   2.375  1.0970  0.8889 -2.6505
  265SOL     MW 1060   0.689   2.790   2.292  0.0411  0.1506 -0.0461
  266SOL     OW 1061   0.994   0.731   2.226 -0.2411  0.0775 -0.1931
  266SOL    HW1 1062   0.972   0.725   2.134  3.0411  0.3675  0.9883
  266SOL    HW2 1063   1.085   0.698   2.228 -3.4081 -3.7584  0.4197
  266SOL     MW 1064   1.003   0.726   2.214 -0.2259 -0.3904  0.0437
  267SOL     OW 1065   1.405   1.714   2.786  0.3406  0.5232  0.0794
  267SOL    HW1 1066   1.471   1.672   2.724  1.5392  0.9495 -0.8933
  267SOL    HW2 1067   1.339   1.747   2.725  0.4382  1.4022  3.7121
  267SOL     MW 1068   1.405   1.713   2.770  0.5116  0.6954  0.4303
  268SOL     OW 1069   0.242   0.818   1.708 -1.1168 -0.2728 -0.8108
  268SOL    HW1 1070   0.176   0.865   1.664  1.8910 -0.5023 -0.9935
  268SOL    HW2 1071   0.249   0.730   1.666  2.0518  1.2170 -0.7131
  268SOL     MW 1072   0.234   0.812   1.697 -0.3019 -0.1065 -0.8221
  269SOL     OW 1073   1.412   1.951   2.350  0.6520 -0.2715 -0.1577
  269SOL    HW1 1074   1.445   2.038   2.364  0.2496  1.9650 -0.5620
  269SOL    HW2 1075   1.336   1.955   2.417 -0.9319  0.2729  1.5945
  269SOL     MW 1076   1.407   1.963   2.360  0.3899  0.0954  0.0201
  270SOL     OW 1077   1.152   0.377   1.618 -0.6584 -0.1676  0.2124
  270SOL    HW1 1078   1.102   0.303   1.661  0.4849  0.7310 -0.7068
  270SOL    HW2 1079   1.240   0.346   1.609 -1.9198 -2.5548  3.3165
  270SOL     MW 1080   1.157   0.363   1.622 -0.6740 -0.3640  0.5007
  271SOL     OW 1081   0.892   0.024   2.525 -0.0891 -0.1604  0.4598
  271SOL    HW1 1082   0.973  -0.025   2.545 -1.5552 -0.3705 -0.6973
  271SOL    HW2 1083   0.928   0.122   2.525  1.2721 -0.4655  0.6547
  271SOL     MW 1084   0.907   0.030   2.528 -0.1030 -0.2284  0.3328
  272SOL     OW 1085   1.488   2.899   2.772 -0.1830 -0.1288  0.0038
  272SOL    HW1 1086   1.458   2.960   2.707 -2.8803 -0.2766  1.9546
  272SOL    HW2 1087   1.525   2.955   2.845  2.4643  0.2014  2.6978
  272SOL     MW 1088   1.489   2.915   2.773 -0.1896 -0.1047  0.6166
  273SOL     OW 1089   1.444   0.963   2.842  0.1107  0.3141  0.1425
  273SOL    HW1 1090   1.534   0.987   2.847  0.5200  0.6729 -1.3821
  273SOL    HW2 1091   1.399   1.031   2.894 -0.4707 -0.7198 -0.0857
  273SOL     MW 1092   1.450   0.975   2.850  0.0880  0.2251 -0.0888
  274SOL     OW 1093   1.480   0.723   0.156  0.0055  0.0465 -0.5185
  274SOL    HW1 1094   1.495   0.633   0.133 -0.2315 -1.0954  1.7684
  274SOL    HW2 1095   1.410   0.726   0.219  3.1621  0.8909 -2.3092
  274SOL     MW 1096   1.473   0.712   0.161  0.3907  0.0073 -0.4530
  275SOL     OW 1097   1.725   0.603   1.812  0.3601 -1.0686 -0.2249
  275SOL    HW1 1098   1.786   0.644   1.878  0.0755 -1.5615  3.4541
  275SOL    HW2 1099   1.744   0.511   1.805  0.6586 -0.0808 -1.4837
  275SOL     MW 1100   1.736   0.596   1.820  0.3620 -1.0033  0.0944
  276SOL     OW 1101   0.253   1.197   1.831  0.2674 -0.1003 -0.2683
  276SOL    HW1 1102   0.307   1.148   1.891 -1.1494  1.4707 -0.0636
  276SOL    HW2 1103   0.168   1.192   1.882  0.1752  0.2939  1.7831
  276SOL     MW 1104   0.249   1.190   1.845  0.0683  0.1590  0.0293
  277SOL     OW 1105   1.876   1.276   2.433  0.1340  0.7127  0.4058
  277SOL    HW1 1106   1.959   1.275   2.478 -3.0477 -3.0992 -0.8488
  277SOL    HW2 1107   1.899   1.255   2.345 -0.7328 -0.3775  1.2766
  277SOL     MW 1108   1.890   1.273   2.427 -0.4002  0.0659  0.3551
  278SOL     OW 1109   1.470   0.611   1.709 -0.1706 -0.0081  0.1628
  278SOL    HW1 1110   1.439   0.559   1.785  2.0214 -1.8492 -0.5689
  278SOL    HW2 1111   1.558   0.636   1.734  1.5055  1.2597  2.6379
  278SOL     MW 1112   1.477   0.607   1.722  0.3397 -0.0837  0.3928
  279SOL     OW 1113   0.537   0.009   2.255  0.9013 -0.4790 -0.1678
  279SOL    HW1 1114   0.635  -0.001   2.265  1.2427 -1.1799  1.2662
  279SOL    HW2 1115   0.515   0.100   2.257 -0.7181 -0.4104 -0.0162
  279SOL     MW 1116   0.547   0.020   2.257  0.7327 -0.5624  0.0414
  280SOL     OW 1117   1.471   1.037   2.128 -0.3544 -0.1349  0.2246
  280SOL    HW1 1118   1.536   0.973   2.092  1.4028  0.4611 -1.5709
  280SOL    HW2 1119   1.457   1.000   2.218 -0.2514  0.4635 -1.2294
  280SOL     MW 1120   1.478   1.024   2.135 -0.1089  0.0227 -0.2041
  281SOL     OW 1121   1.288   1.312   2.760  0.0710  0.0911  0.4719
  281SOL    HW1 1122   1.377   1.306   2.738 -1.8642  1.2966 -1.2860
  281SOL    HW2 1123   1.281   1.263   2.842  2.7956 -1.1487 -1.6637
  281SOL     MW 1124   1.299   1.304   2.768  0.1752  0.0866 -0.0418
  282SOL     OW 1125   1.153   1.273   1.637 -0.1418  0.0367 -0.0232
  282SOL    HW1 1126   1.096   1.353   1.604 -2.5181  0.3590 -3.5019
  282SOL    HW2 1127   1.122   1.256   1.724 -0.1585  0.0666  1.3989
  282SOL     MW 1128   1.141   1.282   1.644 -0.4575  0.0832 -0.2945
  283SOL     OW 1129   0.732   1.260   2.987  0.7400 -0.6777 -0.1074
  283SOL    HW1 1130   0.811   1.226   3.026  1.0981 -2.3433  0.3426
  283SOL    HW2 1131   0.713   1.350   3.030 -0.6811  0.6612  0.0386
  283SOL     MW 1132   0.740   1.268   2.998  0.5997 -0.7208 -0.0287
  284SOL     OW 1133   0.526   0.631   2.392  0.4896  0.0354 -0.5720
  284SOL    HW1 1134   0.584   0.700   2.358 -0.5089 -0.2103 -2.8985
  284SOL    HW2 1135   0.496   0.579   2.320 -0.9092  0.8429  0.8721
  284SOL     MW 1136   0.530   0.634   2.378  0.1733  0.1095 -0.6884
  285SOL     OW 1137   0.857   0.928   2.810  0.1470  0.1423 -0.2452
  285SOL    HW1 1138   0.889   0.967   2.725 -0.0799  2.1470 -1.5835
  285SOL    HW2 1139   0.840   0.834   2.797  1.5267 -2.4481 -0.7700
  285SOL     MW 1140   0.859   0.921   2.797  0.2991  0.0650 -0.4911
  286SOL     OW 1141   1.164   1.503   2.584  0.0856  0.1063  0.0838
  286SOL    HW1 1142   1.190   1.449   2.657 -3.0335  0.7670  0.0376
  286SOL    HW2 1143   1.191   1.594   2.598 -0.7430 -0.0750  3.5440
  286SOL     MW 1144   1.171   1.508   2.596 -0.4353  0.1695  0.5342
  287SOL     OW 1145   1.090   0.980   0.296  0.4588 -0.4268  0.0544
  287SOL    HW1 1146   1.119   1.020   0.375 -0.3343  2.0310 -1.0797
  287SOL    HW2 1147   0.996   0.999   0.295  1.1410  1.0677  2.2763
  287SOL     MW 1148   1.082   0.988   0.306  0.4442  0.0947  0.1979
  288SOL     OW 1149   1.554   0.596   2.121 -0.3645  0.4097 -0.3901
  288SOL    HW1 1150   1.515   0.616   2.206 -1.5650 -0.8313 -1.6161
  288SOL    HW2 1151   1.560   0.682   2.073 -1.8103  1.2521  2.1404
  288SOL     MW 1152   1.550   0.610   2.126 -0.7137  0.3571 -0.2180
  289SOL     OW 1153   0.976   1.034   2.572  0.6704 -0.0763 -0.3807
  289SOL    HW1 1154   0.989   0.944   2.544  0.9618  0.3645  2.0776
  289SOL    HW2 1155   0.882   1.058   2.564 -0.0376  1.1643 -1.7541
  289SOL     MW 1156   0.966   1.026   2.567  0.6154  0.1455 -0.2375
  290SOL     OW 1157   0.875   0.632   1.555 -0.1837  1.1844 -0.0466
  290SOL    HW1 1158   0.921   0.579   1.487  0.9931  2.0835 -2.3879
  290SOL    HW2 1159   0.913   0.606   1.642  0.0277  0.6437 -0.3708
  290SOL     MW 1160   0.886   0.622   1.558 -0.0005  1.2317 -0.3983
  291SOL     OW 1161   0.194   0.327   0.150 -0.0175  0.3878  0.0136
  291SOL    HW1 1162   0.272   0.276   0.166  1.4647  2.0712 -0.7376
  291SOL    HW2 1163   0.137   0.251   0.108  0.1102 -1.3363 -0.2143
  291SOL     MW 1164   0.197   0.310   0.146  0.1949  0.3824 -0.1156
  292SOL     OW 1165   1.020   0.584   0.081 -0.3867  0.0762  0.0806
  292SOL    HW1 1166   1.085   0.625   0.145 -0.9150  1.9217  0.2328
  292SOL    HW2 1167   1.021   0.495   0.127 -1.7288  0.8190 -0.3807
  292SOL     MW 1168   1.028   0.577   0.095 -0.6335  0.4177  0.0398
  293SOL     OW 1169   0.186   0.141   2.469 -0.6492 -0.1412 -0.0506
  293SOL    HW1 1170   0.104   0.128   2.423 -0.4113  0.6697 -0.4246
  293SOL    HW2 1171   0.171   0.166   2.564 -2.4559  2.7157 -0.8664
  293SOL     MW 1172   0.173   0.142   2.475 -0.8561  0.3427 -0.2076
  294SOL     OW 1173   1.525   0.642   2.385  0.4297 -0.0523  0.1033
  294SOL    HW1 1174   1.523   0.702   2.463  0.3500 -2.5029  0.7328
  294SOL    HW2 1175   1.510   0.560   2.420  4.0734  2.6852  1.2364
  294SOL     MW 1176   1.523   0.639   2.400  0.8999 -0.0144  0.3359
  295SOL     OW 1177   0.893   0.646   2.523 -0.6876 -0.8119  0.4202
  295SOL    HW1 1178   0.828   0.594   2.470  3.7262 -0.1604  1.5760
  295SOL    HW2 1179   0.848   0.643   2.616 -0.9772  1.4749 -0.5352
  295SOL     MW 1180   0.878   0.638   2.528 -0.1435 -0.4242  0.4466
  296SOL     OW 1181   1.293   0.235   2.036  0.2312 -0.5929  0.0049
  296SOL    HW1 1182   1.329   0.154   2.011  2.2555  1.9788 -0.1101
  296SOL    HW2 1183   1.280   0.241   2.129 -0.5538  0.8346 -0.9034
  296SOL     MW 1184   1.296   0.225   2.045  0.3947 -0.0652 -0.1301
  297SOL     OW 1185   1.415   0.349   1.588 -0.2230  0.7050 -0.0509
  297SOL    HW1 1186   1.422   0.437   1.620  1.9976 -1.5395 -0.0581
  297SOL    HW2 1187   1.496   0.307   1.619 -1.2925 -0.8721  1.0983
  297SOL     MW 1188   1.426   0.355   1.596 -0.0711  0.2008  0.0998
  298SOL     OW 1189   1.623   0.864   1.997 -0.2636 -0.6359 -0.0787
  298SOL    HW1 1190   1.574   0.889   1.912 -1.4332 -0.0929 -0.2550
  298SOL    HW2 1191   1.716   0.885   1.983  0.0062  1.6847  2.0531
  298SOL     MW 1192   1.629   0.870   1.984 -0.3823 -0.2581  0.1793
  299SOL     OW 1193   0.534   1.045   0.035  0.0745 -0.0973 -0.3215
  299SOL    HW1 1194   0.605   1.109   0.047  1.2254  2.1708  2.5007
  299SOL    HW2 1195   0.494   1.056  -0.055 -1.2649  0.0058  0.8192
  299SOL     MW 1196   0.538   1.055   0.024  0.0496  0.2155  0.2013
  300SOL     OW 1197   1.239   1.133   2.509 -0.0912  0.2174  0.6166
  300SOL    HW1 1198   1.161   1.079   2.526 -1.1436 -1.2616  3.8162
  300SOL    HW2 1199   1.251   1.176   2.596 -2.1837 -2.7606  0.0582
  300SOL     MW 1200   1.230   1.132   2.523 -0.5062 -0.3706  0.9651
  301SOL     OW 1201   1.417   0.961   0.665  0.8792  0.2516 -0.1746
  301SOL    HW1 1202   1.463   0.996   0.737 -0.5057 -2.3749 -0.9997
  301SOL    HW2 1203   1.352   0.891   0.693  1.2029  0.2054 -0.3245
  301SOL     MW 1204   1.415   0.956   0.678  0.7392 -0.1011 -0.3032
  302SOL     OW 1205   0.133   1.482   2.008  0.4395  0.3494 -0.3669
  302SOL    HW1 1206   0.124   1.402   2.067 -2.7015  0.9996 -0.5470
  302SOL    HW2 1207   0.081   1.555   2.058 -2.5912  0.5994  0.1055
  302SOL     MW 1208   0.125   1.481   2.022 -0.3748  0.4682 -0.3284
  303SOL     OW 1209   0.372   1.697   2.636 -0.4838 -0.1561 -0.5246
  303SOL    HW1 1210   0.338   1.677   2.549 -3.3070  0.1010  1.9820
  303SOL    HW2 1211   0.340   1.785   2.642  0.6817 -3.3510 -1.4641
  303SOL     MW 1212   0.363   1.706   2.625 -0.7025 -0.5437 -0.3178
  304SOL     OW 1213   0.593   2.058   2.352 -0.3463  0.5606  0.2318
  304SOL    HW1 1214   0.629   2.145   2.323 -1.6351  3.0926 -0.1321
  304SOL    HW2 1215   0.671   2.007   2.379  0.8710  1.1972  0.7976
  304SOL     MW 1216   0.608   2.063   2.352 -0.3557  0.9786  0.2584
  305SOL     OW 1217   1.098   0.580   0.508 -0.2468  0.2488 -0.1097
  305SOL    HW1 1218   1.007   0.610   0.495 -1.0061  0.5227  0.0285
  305SOL    HW2 1219   1.090   0.507   0.561  0.0867 -0.5453 -1.3293
  305SOL     MW 1220   1.085   0.575   0.513 -0.3030  0.1802 -0.2524
  306SOL     OW 1221   1.224   1.477   0.262 -0.5776 -0.1770 -0.5103
  306SOL    HW1 1222   1.257   1.391   0.282  1.1791 -1.1714  0.1829
  306SOL    HW2 1223   1.272   1.505   0.186 -2.0758 -0.2245  4.4327
  306SOL     MW 1224   1.235   1.470   0.255 -0.5435 -0.3145  0.2333
  307SOL     OW 1225   1.373   0.494   1.933 -0.8070 -0.2584 -0.2633
  307SOL    HW1 1226   1.335   0.406   1.956 -0.5435  0.9960  1.0948
  307SOL    HW2 1227   1.436   0.485   2.001  0.3312 -0.3668 -1.3365
  307SOL     MW 1228   1.376   0.481   1.945 -0.6221 -0.1072 -0.2257
  308SOL     OW 1229   2.138   0.586   2.696 -0.0043 -0.4405 -0.3794
  308SOL    HW1 1230   2.231   0.569   2.730 -0.7961  1.6170  1.6287
  308SOL    HW2 1231   2.150   0.673   2.668 -0.1786 -1.3403 -0.1683
  308SOL     MW 1232   2.152   0.595   2.697 -0.1317 -0.2878 -0.0866
  309SOL     OW 1233   0.409   0.374   0.398  0.4834  0.2874 -0.3425
  309SOL    HW1 1234   0.498   0.359   0.430  0.1989  0.4659  1.4514
  309SOL    HW2 1235   0.389   0.305   0.336  0.3155 -2.6203  2.6344
  309SOL     MW 1236   0.418   0.363   0.394  0.4237 -0.0727  0.2869
  310SOL     OW 1237   0.514   0.615   1.940  0.0468 -0.1188  0.1311
  310SOL    HW1 1238   0.563   0.532   1.911 -2.6953 -2.1452  1.7832
  310SOL    HW2 1239   0.577   0.690   1.914  0.9801 -3.3813  0.6281
  310SOL     MW 1240   0.529   0.614   1.932 -0.1919 -0.8166  0.4146
  311SOL     OW 1241   1.946   0.709   1.932 -0.1701  0.1320 -0.7832
  311SOL    HW1 1242   1.914   0.725   2.021  0.9599 -2.1329 -1.5214
  311SOL    HW2 1243   1.981   0.615   1.928  1.8395 -1.8588 -1.5211
  311SOL     MW 1244   1.946   0.699   1.943  0.2441 -0.4295 -0.9780
  312SOL     OW 1245   1.679   2.502   0.099  0.1120  0.4042  0.5623
  312SOL    HW1 1246   1.743   2.508   0.164  0.2563  0.4523 -1.7046
  312SOL    HW2 1247   1.595   2.534   0.129 -1.7141  2.6690 -0.1587
  312SOL     MW 1248   1.676   2.507   0.112 -0.1099  0.7094  0.1681
  313SOL     OW 1249   0.101   1.221   2.948 -0.4846 -0.4485  0.4120
  313SOL    HW1 1250   0.111   1.190   3.038 -0.8902  0.6811  0.8557
  313SOL    HW2 1251   0.178   1.267   2.920  0.8565  0.4031 -0.2751
  313SOL     MW 1252   0.112   1.223   2.956 -0.3611 -0.1871  0.3799
  314SOL     OW 1253   2.118   2.977   3.014 -0.1085 -0.9269  0.3680
  314SOL    HW1 1254   2.056   3.027   2.960 -1.2233  0.5553  1.1081
  314SOL    HW2 1255   2.172   3.051   3.049  0.6392  2.2129 -1.1006
  314SOL     MW 1256   2.117   2.994   3.011 -0.1569 -0.3171  0.2719
  315SOL     OW 1257   1.528   1.934   0.007  0.0045  0.9305 -0.2808
  315SOL    HW1 1258   1.452   1.993   0.020  0.1108  1.6796  0.8379
  315SOL    HW2 1259   1.573   1.985  -0.060 -0.4773  0.1568  1.4537
  315SOL     MW 1260   1.524   1.949  -0.000 -0.0451  0.9272  0.0957
  316SOL     OW 1261   1.276   0.674   2.724 -0.3942 -0.2207  0.0768
  316SOL    HW1 1262   1.354   0.729   2.705 -1.4507  2.4928  2.4236
  316SOL    HW2 1263   1.255   0.688   2.819  0.7705  1.5082 -0.7142
  316SOL     MW 1264   1.284   0.683   2.734 -0.3799  0.3654  0.2821
  317SOL     OW 1265   0.723   1.508   2.569 -0.0067 -0.4160  0.5587
  317SOL    HW1 1266   0.776   1.430   2.562  0.3364  0.3097  1.4508
  317SOL    HW2 1267   0.712   1.542   2.481  1.0694  0.5824  0.7231
  317SOL     MW 1268   0.729   1.502   2.557  0.1806 -0.1886  0.6981
  318SOL     OW 1269   1.352   0.383   2.917  0.5562 -0.2941 -0.2755
  318SOL    HW1 1270   1.264   0.422   2.923 -3.4916 -0.4038 -1.1296
  318SOL    HW2 1271   1.422   0.446   2.932 -0.1837 -0.1727 -1.3445
  318SOL     MW 1272   1.349   0.396   2.920 -0.0755 -0.2925 -0.5292
  319SOL     OW 1273   0.780   0.407   2.842  0.3485  0.4747  0.0481
  319SOL    HW1 1274   0.736   0.352   2.773 -0.4818  1.3057  0.1773
  319SOL    HW2 1275   0.737   0.388   2.929  0.8862  1.1546  0.3139
  319SOL     MW 1276   0.769   0.397   2.845  0.3099  0.6741  0.1002
  320SOL     OW 1277   1.061   1.320   1.940  0.3469  0.1421  0.3491
  320SOL    HW1 1278   1.122   1.274   1.999  0.4639 -1.4060  1.2885
  320SOL    HW2 1279   1.113   1.394   1.905 -0.2628  0.4909  0.7132
  320SOL     MW 1280   1.076   1.324   1.943  0.2819 -0.0161  0.5211
  321SOL     OW 1281   1.037   0.933   3.008  0.5651 -0.3363  0.0571
  321SOL    HW1 1282   0.982   0.938   2.927 -1.6827 -1.1932  1.7181
  321SOL    HW2 1283   1.093   0.860   2.985  0.6060  1.0658 -2.3398
  321SOL     MW 1284   1.037   0.924   2.994  0.2739 -0.2643 -0.0400
  322SOL     OW 1285   1.267   0.823   1.713  0.1699  0.1146  0.2604
  322SOL    HW1 1286   1.351   0.775   1.710  0.8135  0.6449  0.5340
  322SOL    HW2 1287   1.304   0.901   1.757  0.2812  0.8213  0.2091
  322SOL     MW 1288   1.283   0.827   1.718  0.2695  0.2778  0.2898
  323SOL     OW 1289   1.233   1.584   1.865  0.1961  0.6744  0.0381
  323SOL    HW1 1290   1.275   1.577   1.778 -0.3101 -0.1219 -3.3940
  323SOL    HW2 1291   1.172   1.659   1.864 -0.0083  0.6478 -0.0943
  323SOL     MW 1292   1.231   1.593   1.853  0.1024  0.5658 -0.4322
  324SOL     OW 1293   1.464   1.001   2.421  0.9116 -0.2840 -0.8600
  324SOL    HW1 1294   1.389   1.052   2.474 -0.1823  0.7258  1.4818
  324SOL    HW2 1295   1.530   1.071   2.428  3.3106 -3.2263  1.1329
  324SOL     MW 1296   1.463   1.017   2.429  1.0838 -0.5390 -0.2881
  325SOL     OW 1297   1.066   0.471   2.942 -0.7085 -0.3854 -0.0370
  325SOL    HW1 1298   1.061   0.530   3.017 -0.0542  0.5885  1.1259
  325SOL    HW2 1299   0.975   0.443   2.944  2.8469 -1.5702 -1.6279
  325SOL     MW 1300   1.053   0.475   2.952 -0.1531 -0.4132 -0.0935
  326SOL     OW 1301   0.448   1.361   2.173 -0.1550  0.2316  0.4252
  326SOL    HW1 1302   0.508   1.347   2.097 -0.2786  0.3676 -0.5687
  326SOL    HW2 1303   0.436   1.453   2.165 -1.3236 -2.2302 -0.7581
  326SOL     MW 1304   0.455   1.371   2.162 -0.3255 -0.0752  0.1380
  327SOL     OW 1305   1.926   0.821   2.445  0.2724 -0.3255 -0.4967
  327SOL    HW1 1306   1.883   0.777   2.519 -1.8157 -1.3254  0.9141
  327SOL    HW2 1307   2.021   0.806   2.459 -0.7863 -0.8630  0.5759
  327SOL     MW 1308   1.933   0.813   2.457 -0.1427 -0.5284 -0.1690
  328SOL     OW 1309   0.188   1.268   2.205 -0.5660 -0.5061  0.4997
  328SOL    HW1 1310   0.156   1.202   2.141 -0.6973 -1.4946 -2.0998
  328SOL    HW2 1311   0.281   1.288   2.184  1.5330  1.1908  1.7067
  328SOL     MW 1312   0.196   1.262   2.194 -0.3064 -0.4127  0.3160
  329SOL     OW 1313   0.110   0.086   1.351  0.0327  0.6708  0.1422
  329SOL    HW1 1314   0.065   0.109   1.431 -2.3398  3.4972  1.4082
  329SOL    HW2 1315   0.196   0.141   1.339  1.2788  0.6077 -0.1510
  329SOL     MW 1316   0.115   0.096   1.360 -0.1159  1.0354  0.2706
  330SOL     OW 1317   0.332   0.012   2.078  0.2205  0.1628 -0.7723
  330SOL    HW1 1318   0.404  -0.024   2.125  0.2863  1.7744 -1.6250
  330SOL    HW2 1319   0.259  -0.037   2.110 -0.0078 -3.2779  5.1427
  330SOL     MW 1320   0.332   0.001   2.089  0.1991 -0.0785 -0.1044
  331SOL     OW 1321   0.842   1.200   2.292  0.3403 -0.3644  0.2869
  331SOL    HW1 1322   0.795   1.231   2.217 -1.0333 -0.9752  0.9341
  331SOL    HW2 1323   0.899   1.269   2.313 -0.7869 -2.1274  0.7821
  331SOL     MW 1324   0.843   1.213   2.285  0.0103 -0.6776  0.4376
  332SOL     OW 1325   1.354   1.719   3.048 -0.5083  0.5262  0.3498
  332SOL    HW1 1326   1.350   1.711   2.951 -0.2659 -1.1571 -2.1350
  332SOL    HW2 1327   1.408   1.791   3.060 -0.8489 -0.6614  0.0023
  332SOL     MW 1328   1.361   1.727   3.037 -0.5212  0.1474 -0.0239
  333SOL     OW 1329   1.757   1.423   2.930 -0.3669 -0.2788 -0.6654
  333SOL    HW1 1330   1.851   1.406   2.917 -3.9768 -2.7375 -0.2099
  333SOL    HW2 1331   1.741   1.400   3.023  3.6195  1.5021  3.4984
  333SOL     MW 1332   1.767   1.418   2.940 -0.3172 -0.3682 -0.0560
  334SOL     OW 1333   1.399  -0.003   2.611 -0.4167 -0.1278  0.7231
  334SOL    HW1 1334   1.305  -0.015   2.635  0.2611  0.8255  0.8767
  334SOL    HW2 1335   1.429   0.086   2.637  0.7357  0.1418  0.6571
  334SOL     MW 1336   1.391   0.007   2.618 -0.1753  0.0336  0.7347
  335SOL     OW 1337   1.286   0.766   2.973  0.4437  0.3921 -0.4312
  335SOL    HW1 1338   1.337   0.738   3.050  1.9332 -0.2147 -1.2678
  335SOL    HW2 1339   1.337   0.836   2.935  4.1425  0.9523  0.5601
  335SOL     MW 1340   1.299   0.771   2.978  1.1283  0.3859 -0.4108
  336SOL     OW 1341   0.950   1.061   1.939 -0.4130 -0.3614  0.3131
  336SOL    HW1 1342   0.977   1.156   1.936  2.0339  0.6291  2.0833
  336SOL    HW2 1343   1.037   1.022   1.960  0.2174 -1.2366  0.8320
  336SOL     MW 1344   0.965   1.069   1.942 -0.0070 -0.3462  0.6151
  337SOL     OW 1345   0.583   1.794   2.787 -0.1174  0.6053  0.2497
  337SOL    HW1 1346   0.532   1.741   2.723  1.0672 -2.5491 -0.9445
  337SOL    HW2 1347   0.672   1.756   2.787 -2.3817  0.9453 -1.3564
  337SOL     MW 1348   0.588   1.782   2.778 -0.2598  0.2339 -0.1198
  338SOL     OW 1349   1.131   0.795   2.527  0.0937  0.3964 -0.0848
  338SOL    HW1 1350   1.055   0.734   2.503  0.6988 -1.8411  0.2012
  338SOL    HW2 1351   1.171   0.754   2.610  0.8641  0.6970  1.2569
  338SOL     MW 1352   1.126   0.781   2.535  0.2752  0.1409  0.1299
  339SOL     OW 1353   1.529   1.032   1.779 -0.2652 -0.3866 -0.2583
  339SOL    HW1 1354   1.464   1.062   1.706 -0.5512 -0.0235 -1.3491
  339SOL    HW2 1355   1.512   1.090   1.853  1.1448 -0.3895 -0.4067
  339SOL     MW 1356   1.518   1.043   1.779 -0.1169 -0.3391 -0.4218
  340SOL     OW 1357   1.378   1.468   0.031 -0.0476  0.3158  0.1873
  340SOL    HW1 1358   1.379   1.563   0.006  2.2929 -1.1549 -3.1317
  340SOL    HW2 1359   1.461   1.447   0.076 -1.4800 -0.8509 -0.5862
  340SOL     MW 1360   1.389   1.478   0.034  0.0722 -0.0321 -0.3527
  341SOL     OW 1361   0.158   1.426   2.693  0.2233  0.6202 -0.0939
  341SOL    HW1 1362   0.248   1.395   2.708 -0.3586  1.4604 -1.2360
  341SOL    HW2 1363   0.114   1.371   2.631 -0.6131  3.3405  1.3897
  341SOL     MW 1364   0.164   1.415   2.687  0.0361  1.0899 -0.0489
  342SOL     OW 1365   1.337   0.297   0.087 -0.7063  0.2713 -0.0775
  342SOL    HW1 1366   1.416   0.341   0.123 -1.2616 -0.5352 -1.7545
  342SOL    HW2 1367   1.336   0.318  -0.007  0.3600  0.1333  0.0539
  342SOL     MW 1368   1.347   0.306   0.079 -0.6388  0.1467 -0.2814
  343SOL     OW 1369   0.226   0.324   2.167 -0.3290  0.1783 -0.5561
  343SOL    HW1 1370   0.198   0.273   2.239 -1.6195 -0.3167 -0.1468
  343SOL    HW2 1371   0.198   0.270   2.093  0.0041 -0.0334 -1.4464
  343SOL     MW 1372   0.219   0.310   2.167 -0.4554  0.0850 -0.6195
  344SOL     OW 1373   1.691   2.074   0.173  0.1404 -0.1977  0.2589
  344SOL    HW1 1374   1.711   2.140   0.107 -1.4733 -0.2834  1.0358
  344SOL    HW2 1375   1.634   2.013   0.121 -1.5146  0.1343 -3.1144
  344SOL     MW 1376   1.686   2.075   0.158 -0.2909 -0.1652 -0.0837
  345SOL     OW 1377   0.751   1.613   2.324  0.4971 -0.5588  0.0685
  345SOL    HW1 1378   0.676   1.639   2.272 -1.1184 -1.0471 -1.4193
  345SOL    HW2 1379   0.807   1.548   2.276  0.3388 -3.8569  0.1082
  345SOL     MW 1380   0.748   1.608   2.311  0.2630 -1.0584 -0.1225
  346SOL     OW 1381   1.749   1.117   3.095  0.7770 -0.5928 -0.2887
  346SOL    HW1 1382   1.842   1.143   3.103 -0.9867  3.2169 -0.7886
  346SOL    HW2 1383   1.733   1.045   3.159 -0.1395  0.2762  1.3433
  346SOL     MW 1384   1.759   1.111   3.104  0.4233  0.0245 -0.1394
  347SOL     OW 1385   1.285   0.771   2.284 -0.4000  0.0433 -0.0190
  347SOL    HW1 1386   1.367   0.741   2.323 -2.6831 -0.5389 -1.1426
  347SOL    HW2 1387   1.240   0.826   2.346 -0.3053  0.7642  2.1559
  347SOL     MW 1388   1.290   0.774   2.297 -0.6888  0.0616  0.1197
  348SOL     OW 1389   1.415   2.624   1.861  0.3766  0.9161  0.0628
  348SOL    HW1 1390   1.437   2.541   1.910 -0.4065 -2.5901 -0.4542
  348SOL    HW2 1391   1.469   2.693   1.906 -0.1554  0.6941 -0.5427
  348SOL     MW 1392   1.425   2.623   1.873  0.2031  0.4242 -0.0853
  349SOL     OW 1393   1.494   0.250   2.695  1.1180  0.3278  0.2456
  349SOL    HW1 1394   1.431   0.286   2.753  2.0429 -1.3400 -0.9464
  349SOL    HW2 1395   1.579   0.284   2.726 -0.1193 -1.0378 -1.5232
  349SOL     MW 1396   1.497   0.259   2.707  1.0768 -0.0725 -0.1451
  350SOL     OW 1397   1.858   0.632   2.661  0.0641 -0.4503  0.0326
  350SOL    HW1 1398   1.814   0.551   2.646 -0.2967  0.3985 -1.6877
  350SOL    HW2 1399   1.943   0.602   2.700  0.5950 -0.6438  4.0362
  350SOL     MW 1400   1.863   0.617   2.664  0.0865 -0.3639  0.3338
  351SOL     OW 1401   0.071   0.966   1.521  0.3386  0.1954 -0.2788
  351SOL    HW1 1402   0.012   0.978   1.596 -0.3995 -1.3906  0.0863
  351SOL    HW2 1403   0.136   1.033   1.527  0.3791 -1.5176  1.5318
  351SOL     MW 1404   0.072   0.976   1.532  0.2466 -0.2399  0.0082
  352SOL     OW 1405   0.880   1.687   2.735 -0.2529  0.2953 -0.0686
  352SOL    HW1 1406   0.925   1.636   2.798  2.1604  1.5707  0.6821
  352SOL    HW2 1407   0.837   1.635   2.667  0.4475 -0.2991  0.1918
  352SOL     MW 1408   0.880   1.673   2.734  0.1579  0.3852  0.0648
  353SOL     OW 1409   3.089   2.452   2.707 -0.2762  0.5993 -0.3879
  353SOL    HW1 1410   3.180   2.470   2.686 -0.7092  2.3470 -1.6900
  353SOL    HW2 1411   3.054   2.533   2.684  0.2167 -2.8121 -1.5134
  353SOL     MW 1412   3.097   2.465   2.701 -0.2683  0.3798 -0.7082
  354SOL     OW 1413   0.340   2.509   0.839 -0.1650  0.2055  0.3816
  354SOL    HW1 1414   0.357   2.505   0.933  1.4773 -1.9813 -1.5004
  354SOL    HW2 1415   0.284   2.432   0.825  2.3048 -1.4354  1.1746
  354SOL     MW 1416   0.335   2.499   0.849  0.3775 -0.2995  0.2379
  355SOL     OW 1417   0.021   2.258   0.380 -0.1940  0.2157 -0.7906
  355SOL    HW1 1418  -0.040   2.183   0.385  2.4507 -0.2335 -0.1126
  355SOL    HW2 1419  -0.001   2.300   0.462  1.4597 -0.4629 -1.5061
  355SOL     MW 1420   0.010   2.253   0.392  0.3732  0.0669 -0.7956
  356SOL     OW 1421   0.803   2.867   1.021 -0.6093 -0.0150 -0.6511
  356SOL    HW1 1422   0.822   2.868   0.926 -2.5363  3.3376 -1.1443
  356SOL    HW2 1423   0.719   2.824   1.018  1.7691  1.8093 -0.7735
  356SOL     MW 1424   0.795   2.861   1.008 -0.5497  0.6680 -0.7323
  357SOL     OW 1425   1.804   2.943   0.421 -0.0507  0.0987  0.0984
  357SOL    HW1 1426   1.742   2.870   0.441  2.9144 -0.2557 -0.6755
  357SOL    HW2 1427   1.884   2.899   0.399 -4.6380  1.0088 -0.6995
  357SOL     MW 1428   1.807   2.927   0.421 -0.2648  0.1720 -0.1090
  358SOL     OW 1429   0.505   0.075   1.080  1.1342  0.4067 -0.0587
  358SOL    HW1 1430   0.591   0.052   1.041  0.7218  0.2559 -0.1200
  358SOL    HW2 1431   0.447   0.114   1.013  1.1282 -0.4205  0.4275
  358SOL     MW 1432   0.509   0.077   1.066  1.0790  0.2776 -0.0027
  359SOL     OW 1433   0.881   2.888   1.839  0.3674  0.5017  0.6578
  359SOL    HW1 1434   0.883   2.796   1.874 -1.1742  0.5051 -0.3076
  359SOL    HW2 1435   0.944   2.868   1.761 -1.9955 -0.2185 -2.1240
  359SOL     MW 1436   0.889   2.873   1.834 -0.1478  0.4071  0.1634
  360SOL     OW 1437   0.559   2.780   1.002  0.2431 -0.6612  0.1650
  360SOL    HW1 1438   0.568   2.732   0.914  1.5277 -3.2143  1.0225
  360SOL    HW2 1439   0.552   2.713   1.071  2.5664 -1.1598 -0.6410
  360SOL     MW 1440   0.559   2.765   1.000  0.7191 -1.0639  0.1718
  361SOL     OW 1441   0.197   2.696   1.327  0.0801 -0.3919 -0.0585
  361SOL    HW1 1442   0.145   2.751   1.387 -0.6356 -1.3372 -1.7964
  361SOL    HW2 1443   0.290   2.703   1.360  1.1839  1.4013 -0.6975
  361SOL     MW 1444   0.203   2.704   1.339  0.1313 -0.2800 -0.3721
  362SOL     OW 1445   1.474   2.415   0.654 -0.1946 -0.3587 -0.5094
  362SOL    HW1 1446   1.508   2.328   0.689  2.0574 -0.6664  3.3399
  362SOL    HW2 1447   1.479   2.467   0.734  1.9448 -0.1460 -2.1313
  362SOL     MW 1448   1.479   2.410   0.669  0.3848 -0.3713 -0.2155
  363SOL     OW 1449   0.290   3.090   0.729  0.2132  0.1952 -0.4558
  363SOL    HW1 1450   0.286   3.021   0.802 -2.2632  0.1100 -0.1706
  363SOL    HW2 1451   0.201   3.106   0.701  0.1726  0.2913  1.3086
  363SOL     MW 1452   0.278   3.083   0.735 -0.1189  0.1966 -0.1854
  364SOL     OW 1453   0.722   0.183   0.235  0.6128 -0.0549 -0.1293
  364SOL    HW1 1454   0.681   0.104   0.271 -2.5560 -1.4224  0.9282
  364SOL    HW2 1455   0.652   0.225   0.187 -0.3768  1.7986  0.1317
  364SOL     MW 1456   0.707   0.178   0.234  0.0641  0.0092  0.0446
  365SOL     OW 1457   0.966   1.941   1.085  0.2345  0.7200 -0.5224
  365SOL    HW1 1458   0.974   2.035   1.059  1.5788 -1.8353 -1.2281
  365SOL    HW2 1459   0.905   1.892   1.033  0.2485  1.1660 -2.1280
  365SOL     MW 1460   0.959   1.947   1.075  0.4137  0.4417 -0.8274
  366SOL     OW 1461   2.836   2.629   1.011 -0.6116  0.0325 -0.3340
  366SOL    HW1 1462   2.909   2.630   1.070  2.2264  2.8492  0.2537
  366SOL    HW2 1463   2.882   2.662   0.928 -1.6688 -1.2146 -2.1960
  366SOL     MW 1464   2.852   2.634   1.008 -0.3767  0.2396 -0.5021
  367SOL     OW 1465   1.257   2.894   0.922 -0.0098  0.8660  0.5421
  367SOL    HW1 1466   1.194   2.926   0.990 -0.9768  2.1370 -2.4430
  367SOL    HW2 1467   1.208   2.837   0.860  0.2242  1.2274 -2.6952
  367SOL     MW 1468   1.242   2.891   0.922 -0.1065  1.0814 -0.2789
  368SOL     OW 1469   1.654   0.401   0.699 -0.6526 -0.1279  0.1354
  368SOL    HW1 1470   1.738   0.354   0.688 -1.1225 -0.4004 -0.3100
  368SOL    HW2 1471   1.695   0.492   0.709  0.2166 -1.8996  0.3860
  368SOL     MW 1472   1.671   0.407   0.699 -0.6000 -0.3976  0.1097
  369SOL     OW 1473   0.171   2.490   1.648 -0.8881  0.1256 -0.1285
  369SOL    HW1 1474   0.256   2.476   1.691  0.7487  0.4529  0.9899
  369SOL    HW2 1475   0.122   2.551   1.699  1.9534  0.2528 -0.2552
  369SOL     MW 1476   0.176   2.497   1.660 -0.2972  0.1856  0.0024
  370SOL     OW 1477   0.728   0.029   0.957  0.2078 -0.5542 -1.0409
  370SOL    HW1 1478   0.801   0.083   0.976 -0.0170 -0.3236 -1.3911
  370SOL    HW2 1479   0.730  -0.049   1.015  1.7978 -1.1710  1.2739
  370SOL     MW 1480   0.738   0.026   0.967  0.3879 -0.6051 -0.7817
  371SOL     OW 1481   1.352   2.967   1.532  0.3793 -0.7101  0.1983
  371SOL    HW1 1482   1.279   2.916   1.491  0.2018 -0.9173  0.0391
  371SOL    HW2 1483   1.357   3.052   1.484 -0.2144  2.4004  0.8933
  371SOL     MW 1484   1.343   2.972   1.520  0.2775 -0.3270  0.2690
  372SOL     OW 1485   0.742   2.336   0.475  0.3858 -0.2134  0.4142
  372SOL    HW1 1486   0.676   2.269   0.496  1.4015  0.6340 -0.0162
  372SOL    HW2 1487   0.793   2.322   0.391 -0.8306 -0.7456 -2.0884
  372SOL     MW 1488   0.740   2.326   0.467  0.3593 -0.1718  0.0273
  373SOL     OW 1489   2.776   3.045   1.423 -0.3100  0.2871 -0.2566
  373SOL    HW1 1490   2.843   3.005   1.371 -1.1114  1.1463 -0.9171
  373SOL    HW2 1491   2.742   3.115   1.368  0.5114  2.2534  0.7029
  373SOL     MW 1492   2.780   3.049   1.409 -0.3074  0.6599 -0.2172
  374SOL     OW 1493   1.544   0.448   0.191  0.1111 -0.6085  0.0730
  374SOL    HW1 1494   1.637   0.443   0.194  1.3860  0.4134  2.3951
  374SOL    HW2 1495   1.517   0.458   0.283  3.0762  0.4950  1.0728
  374SOL     MW 1496   1.553   0.449   0.204  0.6705 -0.3281  0.5113
  375SOL     OW 1497   1.099   2.063   2.268 -0.6727  0.1831 -0.7609
  375SOL    HW1 1498   1.139   2.056   2.359 -1.0239 -1.2164  2.0837
  375SOL    HW2 1499   1.123   1.979   2.226 -2.2397 -1.0755  0.8506
  375SOL     MW 1500   1.108   2.051   2.274 -0.9258 -0.1676 -0.1730
  376SOL     OW 1501   0.636   2.549   0.074 -0.6219  0.4629  0.4771
  376SOL    HW1 1502   0.604   2.505   0.163  0.2662 -0.9372  3.2008
  376SOL    HW2 1503   0.615   2.492   0.004 -0.5007  2.7559 -0.4993
  376SOL     MW 1504   0.629   2.536   0.077 -0.4887  0.5807  0.7076
  377SOL     OW 1505   1.336   1.998   0.844 -0.3433  0.3059 -0.3230
  377SOL    HW1 1506   1.275   1.991   0.768 -0.0888  1.4848 -1.5001
  377SOL    HW2 1507   1.285   1.965   0.916 -2.6077 -0.4479 -2.8726
  377SOL     MW 1508   1.321   1.993   0.843 -0.6085  0.3620 -0.8147
  378SOL     OW 1509   1.047   2.813   1.623  0.2642  0.0142  0.7642
  378SOL    HW1 1510   1.011   2.725   1.636 -1.3261  0.0467  2.0498
  378SOL    HW2 1511   1.003   2.833   1.540 -1.6751 -0.5494  1.4616
  378SOL     MW 1512   1.037   2.804   1.614 -0.2015 -0.0559  1.0258
  379SOL     OW 1513   1.134   1.780   2.272  0.3618  0.0956 -0.1734
  379SOL    HW1 1514   1.039   1.784   2.277 -0.2866 -0.9457 -1.0921
  379SOL    HW2 1515   1.158   1.689   2.261  0.9468  0.9405 -2.2097
  379SOL     MW 1516   1.125   1.768   2.271  0.3534  0.0697 -0.5633
  380SOL     OW 1517   0.805   0.068   1.564 -0.0690 -0.0965  0.0612
  380SOL    HW1 1518   0.852   0.059   1.478  1.4230  0.4903 -1.2749
  380SOL    HW2 1519   0.870   0.114   1.615 -2.0752  0.4072  0.5018
  380SOL     MW 1520   0.820   0.073   1.560 -0.1369  0.0474 -0.0569
  381SOL     OW 1521   0.808   1.991   0.790  0.2958  0.2164  0.2404
  381SOL    HW1 1522   0.900   1.961   0.773  0.3856 -0.6963 -3.4687
  381SOL    HW2 1523   0.817   2.077   0.832  0.8437 -0.6473  1.0797
  381SOL     MW 1524   0.821   1.998   0.793  0.3799 -0.0180 -0.1382
  382SOL     OW 1525   0.625   0.113   0.694 -0.4889  0.4641 -0.0728
  382SOL    HW1 1526   0.642   0.100   0.783  0.8779  2.1562 -0.3765
  382SOL    HW2 1527   0.598   0.024   0.658  0.8688  0.2156  0.7923
  382SOL     MW 1528   0.624   0.099   0.701 -0.1294  0.6546  0.0013
  383SOL     OW 1529   0.566   3.079   0.342  0.2942 -0.1965 -0.2428
  383SOL    HW1 1530   0.590   3.018   0.270  0.0947 -1.4739 -0.1380
  383SOL    HW2 1531   0.507   3.023   0.385  0.4137  1.0155 -1.4686
  383SOL     MW 1532   0.561   3.064   0.338  0.2836 -0.2051 -0.3907
  384SOL     OW 1533   0.640   2.936   0.633 -0.4579 -0.3911  0.5523
  384SOL    HW1 1534   0.710   2.893   0.678 -0.7898  1.1213 -1.8829
  384SOL    HW2 1535   0.560   2.897   0.654  1.3556 -0.7607 -0.4566
  384SOL     MW 1536   0.639   2.926   0.642 -0.2624 -0.2403  0.0979
  385SOL     OW 1537   1.311   2.055   1.502 -0.1295 -0.3868  0.2673
  385SOL    HW1 1538   1.386   2.091   1.546 -1.1171  1.1834  0.9241
  385SOL    HW2 1539   1.275   1.981   1.554  3.6056  0.6153  1.4957
  385SOL     MW 1540   1.316   2.050   1.514  0.2330 -0.0474  0.5160
  386SOL     OW 1541   1.314   0.346   0.823  0.0047  0.2028 -0.4431
  386SOL    HW1 1542   1.241   0.354   0.768  0.5972  2.3259  3.0633
  386SOL    HW2 1543   1.275   0.303   0.900 -0.0389  1.0264 -0.3757
  386SOL     MW 1544   1.300   0.342   0.826  0.0771  0.5916  0.0284
  387SOL     OW 1545   0.884   2.150   1.470  0.2779 -0.3402 -0.0931
  387SOL    HW1 1546   0.968   2.192   1.454 -0.3844 -0.1573  0.1684
  387SOL    HW2 1547   0.873   2.073   1.408  0.5146  1.1343 -1.0930
  387SOL     MW 1548   0.893   2.145   1.459  0.2218 -0.1215 -0.1905
  388SOL     OW 1549   1.555   2.800   1.201  0.7907  0.8796 -0.2017
  388SOL    HW1 1550   1.476   2.773   1.152  0.6790 -1.4347  1.0878
  388SOL    HW2 1551   1.615   2.731   1.180 -0.7489 -0.1263  0.2181
  388SOL     MW 1552   1.552   2.787   1.191  0.5728  0.4415  0.0238
  389SOL     OW 1553   0.407   0.024   3.046  0.4944  0.5557  0.2578
  389SOL    HW1 1554   0.488   0.066   3.018  0.0773  2.0474 -2.8741
  389SOL    HW2 1555   0.341   0.049   2.976 -0.3319 -0.3200  0.7343
  389SOL     MW 1556   0.409   0.033   3.033  0.3303  0.6370 -0.0926
  390SOL     OW 1557   1.304   0.100   0.652  0.4170  0.2235  0.0048
  390SOL    HW1 1558   1.377   0.088   0.588 -2.3149 -0.1219  0.8038
  390SOL    HW2 1559   1.353   0.099   0.736  2.2835 -1.4427 -0.7132
  390SOL     MW 1560   1.320   0.098   0.655  0.3028 -0.0419  0.0155
  391SOL     OW 1561   0.299   2.225   1.364  0.5492  0.2774  0.0634
  391SOL    HW1 1562   0.249   2.148   1.403 -3.6564 -3.8152 -0.8538
  391SOL    HW2 1563   0.226   2.294   1.370  0.3208  0.9527 -0.7946
  391SOL     MW 1564   0.282   2.224   1.370 -0.0359 -0.1735 -0.1708
  392SOL     OW 1565   2.041   2.170   0.385 -0.5369  0.6372  0.0626
  392SOL    HW1 1566   2.138   2.180   0.374 -0.9846  2.7768 -3.3291
  392SOL    HW2 1567   1.993   2.250   0.419 -1.6506 -2.1974  0.6155
  392SOL     MW 1568   2.048   2.182   0.388 -0.7429  0.5455 -0.3119
  393SOL     OW 1569   0.163   3.017   2.744 -0.5282  0.1597  0.6012
  393SOL    HW1 1570   0.249   3.042   2.706  1.3324  0.3170 -1.2573
  393SOL    HW2 1571   0.108   3.091   2.770  0.0530  0.6672  1.9380
  393SOL     MW 1572   0.167   3.030   2.742 -0.2060  0.2474  0.5324
  394SOL     OW 1573   0.906   1.763   1.520  0.2786  0.3485 -0.2595
  394SOL    HW1 1574   0.842   1.793   1.583 -0.2609  2.6851  0.4793
  394SOL    HW2 1575   0.907   1.837   1.458  0.7901 -0.4849 -0.0828
  394SOL     MW 1576   0.898   1.777   1.520  0.2749  0.5468 -0.1387
  395SOL     OW 1577   1.035   2.798   2.602  0.6361 -0.0055 -0.5139
  395SOL    HW1 1578   1.076   2.866   2.657 -0.5625 -1.3510 -1.6390
  395SOL    HW2 1579   1.108   2.744   2.574 -1.5556  0.7146  0.3248
  395SOL     MW 1580   1.050   2.800   2.605  0.1888 -0.0880 -0.5517
  396SOL     OW 1581   0.825   1.879   2.406 -0.2343 -0.0746  0.2782
  396SOL    HW1 1582   0.886   1.894   2.483 -0.0641 -2.5752  1.5340
  396SOL    HW2 1583   0.802   1.787   2.400  3.3340 -0.1389  1.3518
  396SOL     MW 1584   0.830   1.869   2.415  0.2589 -0.4130  0.5856
  397SOL     OW 1585   1.036   2.339   1.263 -0.2976  0.0426  0.0177
  397SOL    HW1 1586   1.086   2.378   1.184 -0.2748 -1.9609 -3.1727
  397SOL    HW2 1587   1.098   2.322   1.335 -0.5235  0.5640  0.4680
  397SOL     MW 1588   1.051   2.342   1.262 -0.3244 -0.1529 -0.3438
  398SOL     OW 1589   0.554   2.693   0.761 -0.4409  0.4164 -0.4090
  398SOL    HW1 1590   0.476   2.646   0.749 -0.4963  2.2907 -0.9885
  398SOL    HW2 1591   0.632   2.640   0.731  0.2813 -0.7615 -1.0232
  398SOL     MW 1592   0.554   2.680   0.755 -0.3529  0.5083 -0.5665
  399SOL     OW 1593   0.236   2.099   0.399 -0.4453 -0.3930  0.0025
  399SOL    HW1 1594   0.162   2.150   0.368  1.3000 -1.1459  0.3678
  399SOL    HW2 1595   0.314   2.134   0.352  0.8347  1.6173 -2.8104
  399SOL     MW 1596   0.237   2.110   0.389 -0.0461 -0.2271 -0.3205
  400SOL     OW 1597   0.535   1.874   0.164 -0.1540  0.6854 -0.4541
  400SOL    HW1 1598   0.494   1.957   0.170 -4.1281 -1.6809 -1.0363
  400SOL    HW2 1599   0.489   1.829   0.234 -0.1924  2.0468  2.8901
  400SOL     MW 1600   0.523   1.879   0.174 -0.6834  0.5528 -0.0897
  401SOL     OW 1601   0.859   2.050   0.131 -0.9082 -0.2428 -0.3098
  401SOL    HW1 1602   0.874   1.958   0.134 -0.1252  1.9985 -1.3033
  401SOL    HW2 1603   0.839   2.072   0.217 -1.1416 -2.8729  1.4426
  401SOL     MW 1604   0.858   2.041   0.143 -0.8357 -0.2941 -0.2097
  402SOL     OW 1605   0.648   2.973   1.713 -0.5566  0.6729  0.9240
  402SOL    HW1 1606   0.727   2.918   1.726  0.8336 -0.5994 -0.7795
  402SOL    HW2 1607   0.685   3.062   1.681  0.0912  1.2675 -0.7245
  402SOL     MW 1608   0.663   2.978   1.710 -0.2877  0.5835  0.4817
  403SOL     OW 1609   0.094   0.416   0.393 -0.2879  0.2467 -0.4401
  403SOL    HW1 1610   0.169   0.436   0.445 -2.1824  2.0152 -1.9412
  403SOL    HW2 1611   0.135   0.374   0.314  1.1035 -0.6966 -0.1395
  403SOL     MW 1612   0.109   0.413   0.390 -0.3543  0.3556 -0.5985
  404SOL     OW 1613   0.863   2.844   0.747 -0.3592 -0.0393 -0.4440
  404SOL    HW1 1614   0.924   2.791   0.704 -0.6146  0.8804 -0.1411
  404SOL    HW2 1615   0.902   2.934   0.747 -0.6283  0.0261 -0.5253
  404SOL     MW 1616   0.876   2.849   0.741 -0.4284  0.0907 -0.4148
  405SOL     OW 1617   0.493   2.376   1.495 -0.0457  0.0142 -0.1614
  405SOL    HW1 1618   0.466   2.461   1.458  0.2819  1.9197  1.0195
  405SOL    HW2 1619   0.435   2.316   1.440 -0.1373  2.5067  1.2954
  405SOL     MW 1620   0.482   2.379   1.483 -0.0146  0.5945  0.1866
  406SOL     OW 1621   0.352   2.417   1.111  0.3029  0.0365 -0.8268
  406SOL    HW1 1622   0.257   2.422   1.108  0.7549  0.1843 -2.4262
  406SOL    HW2 1623   0.372   2.323   1.104  1.2025  1.7119  0.8140
  406SOL     MW 1624   0.342   2.405   1.110  0.4812  0.2771 -0.8214
  407SOL     OW 1625   3.088   2.709   1.165 -0.2806 -0.1650  0.4581
  407SOL    HW1 1626   3.163   2.679   1.223 -0.0660 -1.4647  1.7799
  407SOL    HW2 1627   3.115   2.729   1.071 -1.6445 -0.4566 -3.0867
  407SOL     MW 1628   3.101   2.708   1.160 -0.4322 -0.3749  0.1648
  408SOL     OW 1629   2.101   2.061   0.791  0.8813 -0.2840  0.3864
  408SOL    HW1 1630   2.033   2.114   0.831 -0.0807 -1.0950 -0.1560
  408SOL    HW2 1631   2.067   2.020   0.706  3.4279 -0.0214 -0.5687
  408SOL     MW 1632   2.087   2.063   0.785  1.0903 -0.3564  0.1888
  409SOL     OW 1633   1.390   0.103   0.912  0.5227 -0.1510  0.4637
  409SOL    HW1 1634   1.419   0.195   0.922  2.3007  1.3368 -2.7055
  409SOL    HW2 1635   1.456   0.050   0.956 -0.1031 -0.9021  0.0793
  409SOL     MW 1636   1.403   0.108   0.919  0.6747 -0.0538 -0.0052
  410SOL     OW 1637   1.157   2.465   1.046 -0.4989  0.5076 -0.2044
  410SOL    HW1 1638   1.090   2.465   0.982  0.6173 -4.2560  0.9440
  410SOL    HW2 1639   1.217   2.407   1.002  1.5201  1.4431 -0.3074
  410SOL     MW 1640   1.156   2.457   1.032 -0.0852  0.0025 -0.0665
  411SOL     OW 1641   1.943   0.013   2.838  0.4044  0.3686  0.0803
  411SOL    HW1 1642   1.879  -0.046   2.791  0.0950 -2.2884  1.3810
  411SOL    HW2 1643   1.900   0.048   2.919 -0.2095  0.6520 -0.3587
  411SOL     MW 1644   1.929   0.010   2.843  0.2825  0.0554  0.1940
  412SOL     OW 1645   0.972   2.250   0.616 -0.1203  0.2715  0.6862
  412SOL    HW1 1646   1.028   2.328   0.624 -0.9420 -1.7098  1.7761
  412SOL    HW2 1647   0.882   2.289   0.579 -0.0096  4.2688 -0.0663
  412SOL     MW 1648   0.967   2.266   0.612 -0.2141  0.5375  0.7307
  413SOL     OW 1649   0.526   2.772   3.061 -0.2472  0.6184 -0.1818
  413SOL    HW1 1650   0.589   2.701   3.098 -0.1242 -0.9463 -1.0249
  413SOL    HW2 1651   0.570   2.839   3.014 -1.0910 -1.8701  0.0899
  413SOL     MW 1652   0.540   2.772   3.060 -0.3423  0.0836 -0.2572
  414SOL     OW 1653   1.932   2.960   1.078 -0.4683 -0.5415 -0.0853
  414SOL    HW1 1654   1.887   2.961   0.992  1.3319 -0.0844  1.6038
  414SOL    HW2 1655   2.021   2.921   1.064  2.5747 -1.2350  1.1913
  414SOL     MW 1656   1.938   2.955   1.065  0.1707 -0.5727  0.3060
  415SOL     OW 1657   1.715   2.556   1.150 -0.3795  0.4523  0.1458
  415SOL    HW1 1658   1.666   2.486   1.203 -4.2392  0.0504  1.3469
  415SOL    HW2 1659   1.777   2.588   1.213  2.2747  0.8192 -0.3932
  415SOL     MW 1660   1.716   2.551   1.165 -0.5386  0.4477  0.2332
  416SOL     OW 1661   0.551   1.952   1.356  0.1627 -0.2022  0.1197
  416SOL    HW1 1662   0.498   1.989   1.287  1.2529  1.7825 -0.3044
  416SOL    HW2 1663   0.545   1.851   1.358 -1.2218 -0.1022  1.8269
  416SOL     MW 1664   0.544   1.943   1.347  0.1239  0.0729  0.2890
  417SOL     OW 1665   0.993   3.023   2.051 -0.2310  0.2855 -0.0142
  417SOL    HW1 1666   0.934   3.021   2.127  3.3734 -0.7108 -4.5596
  417SOL    HW2 1667   0.941   2.980   1.978  0.3788  1.9653 -0.2196
  417SOL     MW 1668   0.979   3.017   2.051  0.3250  0.3757 -0.6410
  418SOL     OW 1669   0.656   2.932   0.141  0.3459 -0.7971 -0.1045
  418SOL    HW1 1670   0.749   2.930   0.111  0.6448  0.7312  0.9761
  418SOL    HW2 1671   0.600   2.888   0.074 -1.7889  1.3962  1.5968
  418SOL     MW 1672   0.661   2.926   0.128  0.1037 -0.3061  0.2626
  419SOL     OW 1673   0.451   2.639   1.407 -0.1164  0.0604 -0.2428
  419SOL    HW1 1674   0.517   2.702   1.440  0.2063  1.3507  2.8948
  419SOL    HW2 1675   0.479   2.603   1.328 -0.3917 -0.5690 -2.7758
  419SOL     MW 1676   0.463   2.642   1.401 -0.1101  0.1476 -0.1630
  420SOL     OW 1677   0.883   2.197   0.991 -0.0130 -0.2718  0.4115
  420SOL    HW1 1678   0.810   2.214   1.052 -0.4779  3.9060 -0.2821
  420SOL    HW2 1679   0.899   2.285   0.955  0.2607  1.9619 -1.3020
  420SOL     MW 1680   0.875   2.211   0.995 -0.0382  0.5742  0.0939
  421SOL     OW 1681   2.947   0.060   0.013 -0.1378 -0.1735 -0.3290
  421SOL    HW1 1682   2.905   0.025  -0.065  0.9500 -1.4247 -0.9637
  421SOL    HW2 1683   2.963  -0.024   0.051  0.3864  1.7711  1.0451
  421SOL     MW 1684   2.944   0.044   0.008  0.0749 -0.0820 -0.2315
  422SOL     OW 1685   0.900   2.479   0.894 -0.0961  0.6425  0.0073
  422SOL    HW1 1686   0.873   2.543   0.958  0.6547  0.2696 -0.2652
  422SOL    HW2 1687   0.869   2.503   0.811  2.0126  2.3843 -1.4585
  422SOL     MW 1688   0.892   2.491   0.891  0.2812  0.8231 -0.2221
  423SOL     OW 1689   1.529   0.131   0.489  0.0874 -0.0845  0.2625
  423SOL    HW1 1690   1.507   0.125   0.395 -2.5507  0.3227 -0.4699
  423SOL    HW2 1691   1.509   0.221   0.519  0.1909  2.7102  2.9912
  423SOL     MW 1692   1.524   0.142   0.481 -0.2470  0.3380  0.5259
  424SOL     OW 1693   0.663   2.261   1.185  0.3259  0.0360 -0.3937
  424SOL    HW1 1694   0.597   2.195   1.151  1.3679  1.7597 -0.6052
  424SOL    HW2 1695   0.681   2.234   1.271  0.5795 -0.0077 -0.8200
  424SOL     MW 1696   0.657   2.249   1.192  0.4968  0.2577 -0.4778
  425SOL     OW 1697   1.725   2.856   1.966  0.1934 -0.1505  0.3118
  425SOL    HW1 1698   1.736   2.863   1.870 -0.6580 -1.5956 -0.5208
  425SOL    HW2 1699   1.757   2.775   2.002 -0.3609 -0.9066  0.5186
  425SOL     MW 1700   1.731   2.846   1.958  0.0079 -0.4410  0.2292
  426SOL     OW 1701   0.827   1.685   1.935  0.5393  0.2862  0.0158
  426SOL    HW1 1702   0.765   1.703   1.860 -1.4676  2.3284  0.9237
  426SOL    HW2 1703   0.810   1.756   2.007  0.0259  3.0994  2.6826
  426SOL     MW 1704   0.816   1.697   1.934  0.2068  0.9268  0.4875
  427SOL     OW 1705   0.352   1.580   1.893  0.1405  0.5737 -0.1992
  427SOL    HW1 1706   0.404   1.501   1.863  0.7772  0.9674  1.5665
  427SOL    HW2 1707   0.267   1.545   1.923  1.5894  0.2080  0.3152
  427SOL     MW 1708   0.348   1.565   1.893  0.4157  0.5774  0.1016
  428SOL     OW 1709   0.577   2.572   1.171 -0.0126  0.0034  0.5429
  428SOL    HW1 1710   0.656   2.525   1.194 -2.0812 -2.6161 -2.4672
  428SOL    HW2 1711   0.524   2.499   1.139  2.0138  0.4091 -0.2921
  428SOL     MW 1712   0.580   2.556   1.170 -0.0182 -0.2887  0.0356
  429SOL     OW 1713   1.319   2.676   1.072  0.1886  0.3054  0.4105
  429SOL    HW1 1714   1.253   2.609   1.067 -0.9203  1.7560  0.8175
  429SOL    HW2 1715   1.297   2.759   1.026  1.8210  0.5962 -1.7229
  429SOL     MW 1716   1.308   2.678   1.065  0.2576  0.5352  0.1827
  430SOL     OW 1717   1.183   2.724   0.701 -0.0713 -0.4370  0.3661
  430SOL    HW1 1718   1.186   2.628   0.699 -0.8108 -0.2792 -1.0767
  430SOL    HW2 1719   1.155   2.754   0.611 -1.1808 -0.0285 -1.4555
  430SOL     MW 1720   1.180   2.715   0.689 -0.3153 -0.3623 -0.0646
  431SOL     OW 1721   0.297   1.878   1.107 -0.3117  0.0704 -0.1789
  431SOL    HW1 1722   0.375   1.821   1.083 -0.9215  1.9061 -0.5768
  431SOL    HW2 1723   0.252   1.918   1.028 -1.6632 -0.5942 -0.7493
  431SOL     MW 1724   0.301   1.876   1.094 -0.5705  0.2249 -0.3067
  432SOL     OW 1725   0.055   0.027   1.082  0.4112 -0.8929  0.1840
  432SOL    HW1 1726   0.061   0.048   1.178  1.5340 -0.7344 -0.3613
  432SOL    HW2 1727  -0.035  -0.004   1.082 -0.6531 -2.5804 -1.7422
  432SOL     MW 1728   0.044   0.026   1.095  0.4189 -1.0946 -0.1421
  433SOL     OW 1729   0.621   2.828   1.472  0.5204 -0.3043  0.0078
  433SOL    HW1 1730   0.624   2.884   1.551 -1.4169  1.6023  0.8539
  433SOL    HW2 1731   0.715   2.834   1.440  0.7861 -2.2135  1.3663
  433SOL     MW 1732   0.634   2.836   1.478  0.2998 -0.3047  0.2986
  434SOL     OW 1733   1.578   2.826   1.473 -0.0027 -0.4276  0.5409
  434SOL    HW1 1734   1.496   2.878   1.495  0.9918 -0.6831  0.0859
  434SOL    HW2 1735   1.575   2.815   1.379 -2.2314 -4.1841 -0.3894
  434SOL     MW 1736   1.567   2.831   1.464 -0.1655 -0.9570  0.3582
  435SOL     OW 1737   2.810   1.819   0.200 -0.5147 -0.0490  0.7509
  435SOL    HW1 1738   2.851   1.898   0.170  2.3967  0.1342 -1.2517
  435SOL    HW2 1739   2.809   1.769   0.118 -3.4935 -0.8624  2.4320
  435SOL     MW 1740   2.815   1.823   0.185 -0.5236 -0.1322  0.7085
  436SOL     OW 1741   1.297   2.810   0.324  0.3507  0.4745  0.3799
  436SOL    HW1 1742   1.372   2.802   0.379 -0.0147  1.3506 -0.9450
  436SOL    HW2 1743   1.266   2.891   0.357 -0.5264 -2.8535  1.4055
  436SOL     MW 1744   1.303   2.820   0.336  0.1868  0.1510  0.3404
  437SOL     OW 1745   0.889   2.874   1.402 -0.2725 -0.0017  0.2782
  437SOL    HW1 1746   0.894   2.966   1.374 -0.5506  0.7123  1.9000
  437SOL    HW2 1747   0.926   2.829   1.325 -0.7115  3.1841 -1.2034
  437SOL     MW 1748   0.895   2.880   1.389 -0.3671  0.5128  0.2967
  438SOL     OW 1749   0.864   2.619   1.937 -0.2249  0.8774 -0.3747
  438SOL    HW1 1750   0.813   2.623   2.015  2.6716 -1.6707 -2.3331
  438SOL    HW2 1751   0.794   2.592   1.879 -0.2091  0.5795  1.2908
  438SOL     MW 1752   0.848   2.616   1.940  0.1593  0.5019 -0.4133
  439SOL     OW 1753   1.079   2.144   0.389  0.5398  0.2151  0.0640
  439SOL    HW1 1754   1.040   2.177   0.470  0.9441  0.6845  2.9400
  439SOL    HW2 1755   1.115   2.214   0.337 -0.7819 -0.8969  1.1583
  439SOL     MW 1756   1.079   2.158   0.393  0.4188  0.1303  0.5879
  440SOL     OW 1757   1.683   2.985   3.077  0.1200  0.9399  0.0620
  440SOL    HW1 1758   1.627   2.959   3.145  2.0165 -1.1802  1.3850
  440SOL    HW2 1759   1.763   2.926   3.081  3.2719 -0.5199 -1.7676
  440SOL     MW 1760   1.686   2.974   3.086  0.7861  0.4676 -0.0048
  441SOL     OW 1761   0.361   2.650   0.492 -0.0451 -0.2890 -0.1187
  441SOL    HW1 1762   0.360   2.623   0.405  2.6615 -0.3624  0.7375
  441SOL    HW2 1763   0.363   2.750   0.492 -1.8242  2.7210 -1.5070
  441SOL     MW 1764   0.361   2.660   0.481  0.0772  0.0984 -0.1889
  442SOL     OW 1765   3.072   2.353   0.636 -0.0410  0.5099  0.5090
  442SOL    HW1 1766   3.099   2.450   0.634 -0.1877 -2.2319  1.1188
  442SOL    HW2 1767   2.981   2.354   0.669  1.7915  0.4103 -1.5300
  442SOL     MW 1768   3.063   2.366   0.640  0.1814  0.1350  0.3205
  443SOL     OW 1769   1.417   1.788   1.939 -0.1075  0.4597  0.4104
  443SOL    HW1 1770   1.390   1.833   1.863 -0.6030 -0.7840  0.6741
  443SOL    HW2 1771   1.371   1.703   1.922  1.5160  1.5605 -0.3827
  443SOL     MW 1772   1.407   1.783   1.926  0.0413  0.4408  0.3406
  444SOL     OW 1773   0.906   2.570   1.584 -0.5208 -0.0856  0.0415
  444SOL    HW1 1774   0.970   2.504   1.614 -1.3517 -0.5902  1.3497
  444SOL    HW2 1775   0.823   2.541   1.617  1.2854  0.3628  0.0174
  444SOL     MW 1776   0.903   2.557   1.592 -0.3921 -0.0931  0.2109
  445SOL     OW 1777   0.913   0.015   1.266 -0.4282 -0.4296  0.4158
  445SOL    HW1 1778   0.908   0.111   1.274 -1.1865 -0.2012 -0.5048
  445SOL    HW2 1779   0.988   0.014   1.212  1.9593 -2.9090  1.1171
  445SOL     MW 1780   0.922   0.028   1.260 -0.2133 -0.7266  0.3869
  446SOL     OW 1781   2.675   2.851   1.077  0.2326  0.1274  0.1551
  446SOL    HW1 1782   2.648   2.877   0.986 -0.6749 -1.6719  0.9097
  446SOL    HW2 1783   2.735   2.775   1.061 -0.7664 -0.4689  0.3388
  446SOL     MW 1784   2.680   2.844   1.063 -0.0190 -0.1887  0.2789
  447SOL     OW 1785   0.001   2.053   1.682  0.3181  0.0294  0.1242
  447SOL    HW1 1786   0.057   2.025   1.755 -0.8497 -2.9171  0.9862
  447SOL    HW2 1787  -0.066   1.982   1.659 -0.3492  0.3849  1.0146
  447SOL     MW 1788  -0.001   2.040   1.688  0.0760 -0.3124  0.3554
  448SOL     OW 1789   1.745   2.380   1.708 -0.2137  0.0208 -0.2581
  448SOL    HW1 1790   1.679   2.314   1.688  1.8404  2.4258 -2.4610
  448SOL    HW2 1791   1.708   2.466   1.690 -0.9318  2.1856 -1.3119
  448SOL     MW 1792   1.731   2.382   1.703 -0.0374  0.6237 -0.6878
  449SOL     OW 1793   0.757   2.848   0.407  0.0871 -0.2379 -0.2111
  449SOL    HW1 1794   0.697   2.828   0.338  0.0432  0.4514  1.5752
  449SOL    HW2 1795   0.698   2.892   0.468 -2.0035  0.2250 -1.5258
  449SOL     MW 1796   0.741   2.851   0.406 -0.1945 -0.0859 -0.1489
  450SOL     OW 1797   1.199   2.433   0.670  0.0141 -0.1586 -0.3012
  450SOL    HW1 1798   1.195   2.372   0.745  1.9687  0.5058  1.2797
  450SOL    HW2 1799   1.288   2.437   0.638  0.8036 -1.6108  1.2677
  450SOL     MW 1800   1.210   2.426   0.675  0.3762 -0.2625  0.1144
  451SOL     OW 1801   0.562   2.005   1.653 -0.8635 -0.3115 -0.2055
  451SOL    HW1 1802   0.638   2.070   1.657 -0.8253  0.4730 -0.2747
  451SOL    HW2 1803   0.540   1.987   1.562 -1.3403 -2.1665 -0.2291
  451SOL     MW 1804   0.569   2.011   1.641 -0.9214 -0.4528 -0.2177
  452SOL     OW 1805   0.257   2.721   0.023  0.1458  0.3962 -0.2127
  452SOL    HW1 1806   0.350   2.729   0.003  0.6210 -1.8341  2.1312
  452SOL    HW2 1807   0.203   2.757  -0.057  0.1812 -0.4609 -2.5612
  452SOL     MW 1808   0.262   2.727   0.010  0.2132 -0.0112 -0.2133
  453SOL     OW 1809   0.359   2.965   1.699 -0.0364 -0.5634 -0.4379
  453SOL    HW1 1810   0.453   2.977   1.713 -1.0147 -0.7030 -3.5448
  453SOL    HW2 1811   0.340   2.966   1.602  0.0300 -3.0428 -2.2525
  453SOL     MW 1812   0.369   2.967   1.688 -0.1567 -0.9090 -1.0872
  454SOL     OW 1813   0.952   2.719   1.181  0.3903  0.7796 -0.5461
  454SOL    HW1 1814   0.905   2.648   1.234  0.6492  1.3169  0.0245
  454SOL    HW2 1815   0.889   2.759   1.117  0.0314 -0.2811 -2.6395
  454SOL     MW 1816   0.937   2.715   1.179  0.3771  0.7106 -0.7470
  455SOL     OW 1817   1.542   2.914   0.201  0.2070 -0.0571  0.4383
  455SOL    HW1 1818   1.601   2.903   0.272  0.5059 -0.3901  1.4244
  455SOL    HW2 1819   1.507   2.828   0.187 -0.1226 -1.2572  0.6975
  455SOL     MW 1820   1.545   2.901   0.209  0.2029 -0.2593  0.6026
  456SOL     OW 1821   2.887   0.322   1.350 -0.0612 -0.2312  0.6890
  456SOL    HW1 1822   2.812   0.257   1.322 -1.1014 -0.9543  0.8685
  456SOL    HW2 1823   2.947   0.345   1.280 -1.7950 -1.2486  0.5640
  456SOL     MW 1824   2.885   0.316   1.337 -0.4272 -0.4608  0.6962
  457SOL     OW 1825   0.967   1.543   2.941  0.2414 -0.2812 -0.2242
  457SOL    HW1 1826   0.880   1.521   2.970  2.3367 -3.9577 -2.4313
  457SOL    HW2 1827   1.012   1.460   2.966 -0.5920 -2.9939 -1.3797
  457SOL     MW 1828   0.962   1.529   2.948  0.4079 -1.1242 -0.6678
  458SOL     OW 1829   1.472   1.392   0.560 -0.3200 -0.2929 -0.1499
  458SOL    HW1 1830   1.395   1.418   0.612 -1.9739 -0.2123 -1.0216
  458SOL    HW2 1831   1.443   1.334   0.493  2.6945 -0.2053  0.9937
  458SOL     MW 1832   1.458   1.388   0.558 -0.1405 -0.2707 -0.1140
  459SOL     OW 1833   1.486   0.107   0.218 -0.2699 -0.4377 -0.1136
  459SOL    HW1 1834   1.485   0.009   0.203  1.4894 -1.4107  0.7310
  459SOL    HW2 1835   1.427   0.142   0.153  0.8459  0.7509 -0.1894
  459SOL     MW 1836   1.478   0.099   0.208  0.1094 -0.4093 -0.0122
  460SOL     OW 1837   1.788   2.160   0.657 -0.0051 -0.4090 -0.5424
  460SOL    HW1 1838   1.689   2.150   0.665 -0.0074 -0.9015 -1.0317
  460SOL    HW2 1839   1.827   2.073   0.634 -1.5420 -0.6690  0.8565
  460SOL     MW 1840   1.780   2.147   0.655 -0.2082 -0.5083 -0.4224
  461SOL     OW 1841   0.473   2.433   0.619 -0.7296  0.4274 -0.1529
  461SOL    HW1 1842   0.427   2.508   0.579 -2.3439 -0.8482 -0.4264
  461SOL    HW2 1843   0.460   2.447   0.714 -2.6400 -0.4705  0.7427
  461SOL     MW 1844   0.465   2.445   0.626 -1.1947  0.1406 -0.0708
  462SOL     OW 1845   0.373   0.241   1.257 -0.0952  0.8498  0.2498
  462SOL    HW1 1846   0.411   0.165   1.210 -0.2369  1.7442  0.9701
  462SOL    HW2 1847   0.435   0.288   1.318  5.1619  1.0280  2.4343
  462SOL     MW 1848   0.386   0.237   1.259  0.5797  0.9913  0.6331
  463SOL     OW 1849   0.883  -0.001   0.683 -0.3139  0.2838  0.2314
  463SOL    HW1 1850   0.911   0.011   0.588  0.6695  1.4724 -0.2361
  463SOL    HW2 1851   0.790   0.032   0.689  0.5017 -0.2899  1.9479
  463SOL     MW 1852   0.874   0.005   0.671 -0.0765  0.3649  0.3962
  464SOL     OW 1853   0.820   3.034   2.262  0.6997  0.4539 -0.1485
  464SOL    HW1 1854   0.790   2.945   2.282 -1.1746  0.7636 -0.2512
  464SOL    HW2 1855   0.862   3.068   2.335 -1.0557  0.1635  0.8758
  464SOL     MW 1856   0.822   3.026   2.274  0.2208  0.4565 -0.0269
  465SOL     OW 1857   0.660   0.317   0.485 -0.1899 -0.7386  0.1297
  465SOL    HW1 1858   0.672   0.289   0.578  0.9194 -1.1841 -0.3327
  465SOL    HW2 1859   0.659   0.236   0.430  2.3706 -0.6688  1.1609
  465SOL     MW 1860   0.661   0.303   0.490  0.2943 -0.7882  0.2048
  466SOL     OW 1861   1.087   2.021   0.717 -0.0585 -0.1526 -0.3894
  466SOL    HW1 1862   1.071   1.944   0.667 -0.6840 -0.9131  2.1036
  466SOL    HW2 1863   1.037   2.099   0.685  1.6275 -0.5731 -0.6424
  466SOL     MW 1864   1.078   2.021   0.706  0.0814 -0.3084 -0.0939
  467SOL     OW 1865   1.281   2.262   0.869  0.0310  0.2451 -0.4100
  467SOL    HW1 1866   1.369   2.288   0.898 -1.7456 -2.8645  0.0586
  467SOL    HW2 1867   1.282   2.166   0.869 -0.1407  0.6613  0.6563
  467SOL     MW 1868   1.293   2.253   0.873 -0.2261 -0.1103 -0.2075
  468SOL     OW 1869   0.362   2.593   1.975 -0.0221  0.3625 -0.3930
  468SOL    HW1 1870   0.400   2.529   1.914  0.9189 -1.6836  0.1199
  468SOL    HW2 1871   0.368   2.672   1.919  0.1736  2.5495  0.2430
  468SOL     MW 1872   0.368   2.595   1.959  0.1279  0.3811 -0.2414
  469SOL     OW 1873   0.366   2.146   1.784 -0.0157  0.3042  0.3463
  469SOL    HW1 1874   0.290   2.091   1.806 -1.1536 -1.7100  0.7935
  469SOL    HW2 1875   0.434   2.093   1.735 -0.1558  0.2088  0.8820
  469SOL     MW 1876   0.365   2.132   1.780 -0.1843  0.0259  0.4760
  470SOL     OW 1877   3.026   2.541   0.100  0.2004 -0.5995 -0.1086
  470SOL    HW1 1878   2.958   2.497   0.159 -1.0666  1.5161  3.2711
  470SOL    HW2 1879   2.987   2.567   0.016 -1.0116  1.0504 -0.2363
  470SOL     MW 1880   3.012   2.539   0.097 -0.1267 -0.1027  0.3205
  471SOL     OW 1881   1.217   2.735   1.416 -0.5909 -0.1254 -0.2607
  471SOL    HW1 1882   1.160   2.741   1.494 -1.7521  2.7548  0.0243
  471SOL    HW2 1883   1.164   2.721   1.340  0.1264 -2.8312  1.4760
  471SOL     MW 1884   1.203   2.734   1.416 -0.6494 -0.1024  0.0061
  472SOL     OW 1885   2.932   2.069   0.399  0.4570  0.2812 -0.5967
  472SOL    HW1 1886   2.928   2.061   0.304  0.8136  1.3075  1.2523
  472SOL    HW2 1887   2.895   1.987   0.435  0.5608  0.4816  2.6086
  472SOL     MW 1888   2.926   2.057   0.391  0.5177  0.4430  0.0702
  473SOL     OW 1889   0.840   2.522   1.319  0.0484 -0.5201 -0.3590
  473SOL    HW1 1890   0.904   2.451   1.318 -3.9698  0.3211  0.8627
  473SOL    HW2 1891   0.845   2.555   1.407  1.5390  2.7719  0.0446
  473SOL     MW 1892   0.849   2.517   1.330 -0.2851  0.0252 -0.1446
  474SOL     OW 1893   0.762   2.234   1.718 -0.2170 -0.9331  0.2895
  474SOL    HW1 1894   0.837   2.235   1.778  0.2656 -0.8334  1.8356
  474SOL    HW2 1895   0.801   2.217   1.625  0.7942 -0.5510  2.8273
  474SOL     MW 1896   0.777   2.232   1.713 -0.0199 -0.8695  0.8283
  475SOL     OW 1897   1.619   0.036   1.447 -0.4584 -0.1432 -0.6087
  475SOL    HW1 1898   1.540   0.057   1.400  1.4397  1.3730  0.6625
  475SOL    HW2 1899   1.623  -0.064   1.450  0.2839 -1.4516 -0.1510
  475SOL     MW 1900   1.609   0.026   1.441 -0.1100 -0.1158 -0.3806
  476SOL     OW 1901   1.488   2.607   0.878 -0.1231 -0.4768  0.4498
  476SOL    HW1 1902   1.434   2.628   0.954  0.5587  1.6092 -1.3325
  476SOL    HW2 1903   1.498   2.684   0.826  0.0188  1.9790  1.5348
  476SOL     MW 1904   1.482   2.620   0.881 -0.0144  0.1225  0.3578
  477SOL     OW 1905   0.783   2.566   0.643 -0.2390  0.1359 -0.4155
  477SOL    HW1 1906   0.843   2.605   0.576  0.2819  1.0574  0.6571
  477SOL    HW2 1907   0.743   2.487   0.611 -0.0393  0.8013  2.2692
  477SOL     MW 1908   0.786   2.561   0.630 -0.1440  0.3453  0.0802
  478SOL     OW 1909   0.135   2.683   0.903 -0.3938  0.5419  0.2398
  478SOL    HW1 1910   0.205   2.743   0.901 -2.6055  1.6981 -2.7298
  478SOL    HW2 1911   0.171   2.611   0.851  1.8525 -2.0392 -3.4491
  478SOL     MW 1912   0.149   2.681   0.896 -0.3892  0.3539 -0.6388
  479SOL     OW 1913   1.423   1.929   1.270 -0.0923 -0.4880  0.1138
  479SOL    HW1 1914   1.375   1.964   1.345  0.7301 -0.1451 -2.0503
  479SOL    HW2 1915   1.507   1.900   1.297  0.2710 -1.1027  0.6907
  479SOL     MW 1916   1.428   1.930   1.284  0.0641 -0.5239 -0.0956
  480SOL     OW 1917   1.860   2.390   1.386  0.8581 -0.3820  0.0568
  480SOL    HW1 1918   1.876   2.297   1.383  0.0536 -1.6215 -0.5899
  480SOL    HW2 1919   1.908   2.418   1.312  0.0414 -0.2562 -0.8761
  480SOL     MW 1920   1.869   2.381   1.376  0.6442 -0.5290 -0.1516
  481SOL     OW 1921   1.199   0.037   1.153  0.1846 -0.9130 -0.0663
  481SOL    HW1 1922   1.262   0.035   1.079  2.8847  2.2702  0.9615
  481SOL    HW2 1923   1.186   0.133   1.139  0.4093  0.6383 -0.3777
  481SOL     MW 1924   1.206   0.050   1.141  0.5705 -0.2883  0.0282
  482SOL     OW 1925   0.928   3.078   0.424  0.3999 -0.5110 -0.0399
  482SOL    HW1 1926   0.862   3.012   0.408  0.7588 -1.4287 -2.4586
  482SOL    HW2 1927   0.894   3.163   0.396 -1.2797 -0.7793 -0.3522
  482SOL     MW 1928   0.915   3.080   0.418  0.2256 -0.6675 -0.4002
  483SOL     OW 1929   0.345   2.932   0.507 -0.2077  0.1254 -0.3195
  483SOL    HW1 1930   0.262   2.916   0.467  1.1759 -0.4233  1.4623
  483SOL    HW2 1931   0.317   2.990   0.579 -0.9086  0.5603  1.6721
  483SOL     MW 1932   0.330   2.938   0.511 -0.1176  0.1104  0.1784
  484SOL     OW 1933   1.671   1.855   1.362 -0.6620 -0.3565  0.1734
  484SOL    HW1 1934   1.732   1.930   1.361 -0.1460  0.9998 -4.6085
  484SOL    HW2 1935   1.634   1.845   1.449  2.3510 -0.1535  0.4440
  484SOL     MW 1936   1.674   1.864   1.373 -0.1964 -0.1508 -0.4218
  485SOL     OW 1937   0.534   2.384   0.283 -0.2567  0.0679 -0.0893
  485SOL    HW1 1938   0.569   2.399   0.377  2.1956 -2.0039 -3.8651
  485SOL    HW2 1939   0.440   2.405   0.271  2.1397  0.0244  1.1266
  485SOL     MW 1940   0.526   2.388   0.294  0.3831 -0.2112 -0.4270
  486SOL     OW 1941   0.120   2.440   1.393  0.5688 -0.1890 -0.0418
  486SOL    HW1 1942   0.148   2.525   1.358 -1.8547  0.0491  2.2446
  486SOL    HW2 1943   0.147   2.439   1.488  0.4624 -0.8944  2.2917
  486SOL     MW 1944   0.128   2.451   1.401  0.2350 -0.2507  0.5678
  487SOL     OW 1945   1.274   1.592   1.096 -0.2011 -0.4728 -0.0900
  487SOL    HW1 1946   1.263   1.686   1.071  0.9673  2.1195  0.0193
  487SOL    HW2 1947   1.323   1.553   1.017  0.8827  0.0158 -1.1238
  487SOL     MW 1948   1.279   1.599   1.083  0.0961 -0.0663 -0.2120
  488SOL     OW 1949   1.629   1.850   0.556  0.4197 -0.0002 -0.4166
  488SOL    HW1 1950   1.718   1.881   0.547  0.1175  0.7263  2.1326
  488SOL    HW2 1951   1.570   1.919   0.526  0.0967  1.6983  1.0805
  488SOL     MW 1952   1.633   1.863   0.551  0.3372  0.3198  0.1172
  489SOL     OW 1953   0.730   0.775   0.556 -0.4282  0.3211  0.3855
  489SOL    HW1 1954   0.737   0.682   0.520 -1.2720  0.3053  2.5869
  489SOL    HW2 1955   0.721   0.779   0.653 -0.5108 -0.1347 -0.0399
  489SOL     MW 1956   0.730   0.763   0.564 -0.5504  0.2589  0.6199
  490SOL     OW 1957   1.404   2.105   0.479 -0.4426 -0.2876 -0.3623
  490SOL    HW1 1958   1.451   2.172   0.422  0.1524 -0.6003  0.2769
  490SOL    HW2 1959   1.315   2.132   0.469 -1.6312  0.3804 -0.3439
  490SOL     MW 1960   1.399   2.118   0.470 -0.5209 -0.2407 -0.2755
  491SOL     OW 1961   1.199   3.022   0.476 -0.2159 -0.2774 -0.2628
  491SOL    HW1 1962   1.212   3.081   0.553  0.2802 -1.5441  1.4509
  491SOL    HW2 1963   1.106   3.017   0.443  0.3441  0.4154 -2.9684
  491SOL     MW 1964   1.189   3.029   0.482 -0.0766 -0.3531 -0.3936
  492SOL     OW 1965   1.530   2.167   0.698 -0.0529  0.1765  0.0802
  492SOL    HW1 1966   1.480   2.130   0.622  1.7983  0.1858 -1.8263
  492SOL    HW2 1967   1.485   2.120   0.773  2.5099  0.4787  1.9709
  492SOL     MW 1968   1.517   2.155   0.698  0.5294  0.2176  0.0781
  493SOL     OW 1969   0.114   2.897   0.376 -0.1391  0.1243 -0.0486
  493SOL    HW1 1970   0.090   2.965   0.436  2.0570  0.2125 -1.1335
  493SOL    HW2 1971   0.132   2.940   0.293  0.3046 -1.8887  0.8128
  493SOL     MW 1972   0.113   2.912   0.373  0.2092 -0.1297 -0.0781
  494SOL     OW 1973   0.404   2.407   1.761  0.1119 -0.2878 -0.3937
  494SOL    HW1 1974   0.401   2.306   1.786  2.2237 -0.3203 -1.3544
  494SOL    HW2 1975   0.434   2.396   1.667 -0.8700  0.6165 -2.6368
  494SOL     MW 1976   0.408   2.393   1.752  0.2610 -0.1728 -0.8164
  495SOL     OW 1977   2.871   1.679   2.720  0.1510  0.3414 -0.2914
  495SOL    HW1 1978   2.851   1.770   2.760  1.5546  0.2984  0.9529
  495SOL    HW2 1979   2.887   1.631   2.806  0.6575  1.4632  1.0465
  495SOL     MW 1980   2.870   1.685   2.737  0.4030  0.4838  0.0493
  496SOL     OW 1981   2.865   2.307   2.632  0.4672 -0.7969  0.1553
  496SOL    HW1 1982   2.860   2.214   2.640  0.2875 -0.0215 -0.4710
  496SOL    HW2 1983   2.946   2.342   2.666  0.0345  2.8943 -2.3141
  496SOL     MW 1984   2.875   2.299   2.637  0.3864 -0.2075 -0.2531
  497SOL     OW 1985   1.534   2.282   2.584  0.0886 -0.5783  0.3899
  497SOL    HW1 1986   1.502   2.262   2.495 -1.0055 -0.9445  0.3858
  497SOL    HW2 1987   1.479   2.236   2.641  0.4642  1.1114 -0.5626
  497SOL     MW 1988   1.522   2.273   2.580 -0.0062 -0.4037  0.2637
  498SOL     OW 1989   1.544   2.693   2.289  0.2880 -0.3511 -0.0048
  498SOL    HW1 1990   1.549   2.606   2.255 -2.9832 -0.3538 -3.4923
  498SOL    HW2 1991   1.620   2.707   2.339 -0.1921  1.5963  2.2636
  498SOL     MW 1992   1.554   2.684   2.291 -0.2070 -0.0945 -0.1657
  499SOL     OW 1993   0.895   0.172   0.019 -0.2420 -0.5959  0.4647
  499SOL    HW1 1994   0.822   0.188   0.081 -0.9275  1.6150  1.0837
  499SOL    HW2 1995   0.915   0.078   0.034 -1.5853  3.3573 -0.7636
  499SOL     MW 1996   0.888   0.162   0.029 -0.5097  0.2174  0.3843
  500SOL     OW 1997   1.016   2.419   2.806 -0.0038 -0.0168  0.1469
  500SOL    HW1 1998   1.091   2.434   2.866  1.6553  0.4807 -1.0839
  500SOL    HW2 1999   0.979   2.509   2.796  1.2662  1.2446 -0.4818
  500SOL     MW 2000   1.021   2.433   2.813  0.3827  0.2153 -0.0984
  501SOL     OW 2001   1.747   2.266   3.076  0.1761  0.1047 -0.0043
  501SOL    HW1 2002   1.705   2.353   3.093  0.1924  0.7130 -1.1275
  501SOL    HW2 2003   1.833   2.286   3.111 -0.7803 -0.1937 -1.8981
  501SOL     MW 2004   1.753   2.280   3.083  0.0520  0.1456 -0.4023
  502SOL     OW 2005   0.108   2.864   2.949 -0.2296  1.0899  0.0982
  502SOL    HW1 2006   0.027   2.815   2.921 -0.2143  0.8686 -1.1655
  502SOL    HW2 2007   0.135   2.921   2.880  0.0677  0.9066  2.8201
  502SOL     MW 2008   0.101   2.865   2.936 -0.1884  1.0365  0.2906
  503SOL     OW 2009   1.157   2.602   2.044  0.0963 -0.4200 -0.1236
  503SOL    HW1 2010   1.240   2.620   1.994  2.5394  0.8485 -3.2379
  503SOL    HW2 2011   1.085   2.649   2.002  1.8197 -0.4726 -1.3803
  503SOL     MW 2012   1.159   2.611   2.032  0.6460 -0.2596 -0.7003
  504SOL     OW 2013   0.089   2.645   2.058  0.0622 -0.3796  0.4503
  504SOL    HW1 2014   0.178   2.653   2.027 -0.3787  0.8114 -1.3615
  504SOL    HW2 2015   0.083   2.551   2.077 -0.4992  0.1259 -0.2220
  504SOL     MW 2016   0.100   2.634   2.056 -0.0700 -0.1558  0.1225
  505SOL     OW 2017   1.647   2.678   2.744  0.2571  0.3135  0.2001
  505SOL    HW1 2018   1.689   2.655   2.659 -0.3375 -0.4053  0.9197
  505SOL    HW2 2019   1.606   2.767   2.731 -1.2277 -0.1041 -0.8943
  505SOL     MW 2020   1.647   2.687   2.731 -0.0172  0.1636  0.1507
  506SOL     OW 2021   1.631   0.042   2.859 -0.2825 -0.3025  0.4195
  506SOL    HW1 2022   1.656  -0.002   2.942 -1.0146  0.4685 -0.9675
  506SOL    HW2 2023   1.675  -0.018   2.793  0.2863 -2.1990 -0.7936
  506SOL     MW 2024   1.640   0.029   2.861 -0.3040 -0.4510  0.0764
  507SOL     OW 2025   0.927   2.683   2.851  0.0436 -0.2250 -0.1876
  507SOL    HW1 2026   0.968   2.747   2.789  2.1683 -0.1355  1.5455
  507SOL    HW2 2027   0.836   2.673   2.822  1.3584 -1.1907 -1.5959
  507SOL     MW 2028   0.920   2.690   2.839  0.4974 -0.3406 -0.1447
  508SOL     OW 2029   1.243   2.101   2.521 -0.1950  0.4246  0.0570
  508SOL    HW1 2030   1.296   2.108   2.601  0.4885 -0.5143  0.3643
  508SOL    HW2 2031   1.178   2.175   2.533 -0.2751 -4.4028 -0.9675
  508SOL     MW 2032   1.241   2.112   2.533 -0.1154 -0.3362 -0.0376
  509SOL     OW 2033   0.680   2.592   2.795  0.1713 -0.3323  0.1058
  509SOL    HW1 2034   0.698   2.530   2.730  2.8667  1.5060  3.0867
  509SOL    HW2 2035   0.588   2.601   2.796  2.5143  3.8654  2.4460
  509SOL     MW 2036   0.670   2.585   2.787  0.8360  0.4641  0.8079
  510SOL     OW 2037   1.580   2.601   1.639  0.2385 -0.0474  0.2407
  510SOL    HW1 2038   1.609   2.682   1.592  1.8917  3.4742  1.3416
  510SOL    HW2 2039   1.514   2.629   1.711  3.1594 -3.5901 -0.8867
  510SOL     MW 2040   1.575   2.616   1.642  0.8420 -0.0501  0.2372
  511SOL     OW 2041   0.420   2.606   2.483  0.1828  0.1829 -0.7069
  511SOL    HW1 2042   0.503   2.566   2.502  3.0848 -2.7724 -1.7565
  511SOL    HW2 2043   0.433   2.644   2.395 -0.4602 -0.7875  0.1667
  511SOL     MW 2044   0.432   2.606   2.474  0.4809 -0.3350 -0.7302
  512SOL     OW 2045   0.988   2.028   2.865 -0.2650 -0.0033 -0.6357
  512SOL    HW1 2046   0.924   2.073   2.922  1.2304 -0.1769 -0.6199
  512SOL    HW2 2047   1.012   1.959   2.925 -1.2055 -0.2620 -2.1754
  512SOL     MW 2048   0.983   2.025   2.881 -0.1918 -0.0603 -0.8367
  513SOL     OW 2049   1.633   2.456   2.208 -0.3162 -0.1966  0.1741
  513SOL    HW1 2050   1.716   2.500   2.174  0.4834  1.3239 -1.1618
  513SOL    HW2 2051   1.673   2.404   2.274 -1.6671 -2.4815  0.5191
  513SOL     MW 2052   1.649   2.455   2.212 -0.3889 -0.2975  0.0434
  514SOL     OW 2053   0.267   2.440   2.645  0.0133  0.5077 -0.4851
  514SOL    HW1 2054   0.321   2.509   2.616  0.7904 -1.6486 -0.4079
  514SOL    HW2 2055   0.285   2.409   2.733  0.4304  0.6622 -2.2775
  514SOL     MW 2056   0.276   2.445   2.652  0.1709  0.2436 -0.7114
  515SOL     OW 2057   1.073   2.057   1.945  0.5496 -0.1109  0.5642
  515SOL    HW1 2058   1.070   2.135   1.892 -0.2698  1.4956  1.0739
  515SOL    HW2 2059   1.140   2.066   2.006 -2.4380 -0.1792  0.1919
  515SOL     MW 2060   1.081   2.068   1.946  0.0473  0.0920  0.5823
  516SOL     OW 2061   1.432   2.458   2.998  1.1394 -0.4933  0.4881
  516SOL    HW1 2062   1.420   2.468   2.903  1.0028  1.0654 -0.0363
  516SOL    HW2 2063   1.342   2.439   3.021  0.0631  1.3348 -0.4136
  516SOL     MW 2064   1.419   2.457   2.988  0.9793 -0.0464  0.3000
  517SOL     OW 2065   0.565   2.413   2.272  0.0084  0.4144  0.0803
  517SOL    HW1 2066   0.496   2.444   2.331 -2.0517 -0.0955  1.7424
  517SOL    HW2 2067   0.504   2.358   2.223 -1.8882 -1.1978 -0.3570
  517SOL     MW 2068   0.548   2.410   2.273 -0.5137  0.1344  0.2419
  518SOL     OW 2069   1.864   0.080   0.029  0.0267  0.4587  0.0445
  518SOL    HW1 2070   1.809   0.154   0.054  0.5144  1.2774 -0.0034
  518SOL    HW2 2071   1.795   0.014   0.002  0.0145 -0.2958 -1.0413
  518SOL     MW 2072   1.847   0.081   0.028  0.0895  0.4672 -0.1051
  519SOL     OW 2073   0.685   2.508   1.749 -0.5792  0.0972  0.5546
  519SOL    HW1 2074   0.711   2.416   1.751 -0.5840 -2.5801  1.8479
  519SOL    HW2 2075   0.598   2.511   1.717 -0.0431  1.3480  1.6627
  519SOL     MW 2076   0.677   2.497   1.745 -0.5091 -0.0910  0.8714
  520SOL     OW 2077   1.186   2.201   2.934  0.1366 -0.0550  0.1530
  520SOL    HW1 2078   1.105   2.181   2.885 -1.4752 -0.9348  1.8905
  520SOL    HW2 2079   1.187   2.143   3.012  0.2729  1.2350  1.5212
  520SOL     MW 2080   1.176   2.191   2.938 -0.0581 -0.0009  0.5627
  521SOL     OW 2081   1.752   2.033   2.210 -0.0873 -0.2645 -0.4369
  521SOL    HW1 2082   1.788   2.040   2.125 -1.0515 -0.4923  2.4791
  521SOL    HW2 2083   1.720   1.944   2.204  2.3032 -1.8724 -1.8638
  521SOL     MW 2084   1.752   2.022   2.198  0.1009 -0.5067 -0.2404
  522SOL     OW 2085   2.921   2.519   2.281  0.0259 -0.1537 -0.3969
  522SOL    HW1 2086   2.988   2.457   2.276 -0.6606  1.2279  1.1223
  522SOL    HW2 2087   2.944   2.606   2.261 -0.8176 -1.1644  0.7001
  522SOL     MW 2088   2.933   2.522   2.278 -0.1760 -0.1048 -0.0517
  523SOL     OW 2089   0.905   1.482   2.117 -0.2267  0.2119  0.0601
  523SOL    HW1 2090   0.872   1.540   2.045 -1.3224 -1.5442  1.7227
  523SOL    HW2 2091   0.951   1.406   2.078  0.1926  0.5744 -1.3883
  523SOL     MW 2092   0.907   1.480   2.102 -0.3159  0.0280  0.0884
  524SOL     OW 2093   0.597   2.391   2.949 -0.2210 -0.1049 -0.1101
  524SOL    HW1 2094   0.641   2.468   2.910 -0.2395  1.6348  1.5427
  524SOL    HW2 2095   0.668   2.326   2.954  2.4273 -1.1522 -0.5610
  524SOL     MW 2096   0.612   2.392   2.945  0.1260 -0.0136  0.0485
  525SOL     OW 2097   0.451   2.227   2.088  0.0795  0.0346 -0.8457
  525SOL    HW1 2098   0.409   2.153   2.138 -1.6441  0.0173  0.4071
  525SOL    HW2 2099   0.508   2.180   2.036 -0.8127  0.8296  1.8691
  525SOL     MW 2100   0.453   2.211   2.088 -0.2656  0.1372 -0.3222
  526SOL     OW 2101   0.678   2.125   1.987 -0.1922 -0.3076  0.3027
  526SOL    HW1 2102   0.712   2.178   1.908 -0.7543  3.4007 -1.6847
  526SOL    HW2 2103   0.714   2.174   2.054  0.4587  0.8725 -1.5295
  526SOL     MW 2104   0.687   2.139   1.985 -0.1805  0.3374 -0.2012
  527SOL     OW 2105   1.322   1.981   2.091 -0.0113  0.8354  0.0414
  527SOL    HW1 2106   1.344   1.965   2.179  1.6245 -1.4436 -2.2577
  527SOL    HW2 2107   1.362   1.902   2.052  0.7658  0.1792 -0.4245
  527SOL     MW 2108   1.330   1.969   2.097  0.3071  0.4481 -0.3234
  528SOL     OW 2109   0.670   2.958   2.924  0.1124 -0.5400 -0.2315
  528SOL    HW1 2110   0.665   3.053   2.926  1.3684 -0.1173 -3.0697
  528SOL    HW2 2111   0.644   2.933   2.830 -1.2210  0.6244 -1.2204
  528SOL     MW 2112   0.666   2.968   2.912  0.1022 -0.3306 -0.7365
  529SOL     OW 2113   0.999   2.289   1.852  1.2375 -0.0828 -0.1841
  529SOL    HW1 2114   0.998   2.286   1.951  1.0678 -1.5263  1.2892
  529SOL    HW2 2115   1.072   2.349   1.829 -0.6994 -3.5912 -0.2945
  529SOL     MW 2116   1.009   2.296   1.862  0.9595 -0.7362 -0.0043
  530SOL     OW 2117   1.145   2.449   3.037 -0.2499 -0.2457  0.1354
  530SOL    HW1 2118   1.063   2.495   3.073 -2.0997 -0.5892 -0.8654
  530SOL    HW2 2119   1.124   2.356   3.018  0.9623 -2.2457 -3.0805
  530SOL     MW 2120   1.131   2.443   3.039 -0.3340 -0.5549 -0.4209
  531SOL     OW 2121   0.995   1.905   2.614 -0.0927 -0.2139 -0.0931
  531SOL    HW1 2122   0.993   1.954   2.693  0.6745 -1.8690 -2.3416
  531SOL    HW2 2123   0.954   1.825   2.650 -0.5329 -0.6133 -1.9780
  531SOL     MW 2124   0.990   1.901   2.629 -0.0496 -0.4850 -0.6384
  532SOL     OW 2125   1.713   0.297   2.853  0.0464  0.7129  0.3696
  532SOL    HW1 2126   1.698   0.206   2.846  2.7365  0.5080  0.2329
  532SOL    HW2 2127   1.818   0.306   2.879  0.1392  0.9425 -2.3458
  532SOL     MW 2128   1.725   0.286   2.856  0.4136  0.7162 -0.0067
  533SOL     OW 2129   1.781   2.660   2.982  0.8059  0.5755 -0.1094
  533SOL    HW1 2130   1.713   2.608   3.028 -0.8289  1.6777  2.9201
  533SOL    HW2 2131   1.734   2.673   2.891 -0.0275  0.6646 -2.6126
  533SOL     MW 2132   1.766   2.655   2.976  0.4802  0.7327 -0.0399
  534SOL     OW 2133   1.777   2.344   2.455  0.1694 -0.0838 -0.2361
  534SOL    HW1 2134   1.707   2.290   2.489 -0.3010 -3.1087 -0.4045
  534SOL    HW2 2135   1.839   2.346   2.535  2.5757 -1.2215 -1.5535
  534SOL     MW 2136   1.776   2.337   2.470  0.4248 -0.6330 -0.4321
  535SOL     OW 2137   1.829   2.336   1.950 -0.0084  0.4161  0.4835
  535SOL    HW1 2138   1.784   2.348   1.863  0.2001  1.2241  0.2055
  535SOL    HW2 2139   1.923   2.361   1.947 -0.2014 -3.2532  1.0930
  535SOL     MW 2140   1.835   2.341   1.938 -0.0064  0.0386  0.5272
  536SOL     OW 2141   0.457   1.844   2.015 -0.2883 -0.0203  0.2388
  536SOL    HW1 2142   0.417   1.802   1.938  1.1940  0.7557 -0.5797
  536SOL    HW2 2143   0.519   1.910   1.976 -0.8114  1.5965 -1.7677
  536SOL     MW 2144   0.460   1.847   2.000 -0.1618  0.2954 -0.1339
  537SOL     OW 2145   1.092   0.197   2.885 -0.4091 -0.6820  0.0229
  537SOL    HW1 2146   1.039   0.197   2.969 -0.5381 -0.5529 -0.9600
  537SOL    HW2 2147   1.098   0.289   2.873  0.7509 -1.3536 -1.4088
  537SOL     MW 2148   1.086   0.209   2.895 -0.2730 -0.7536 -0.2957
  538SOL     OW 2149   1.381   0.062   2.969 -0.3695 -0.4216 -0.0169
  538SOL    HW1 2150   1.321   0.133   2.943  0.6199  0.7404  1.0408
  538SOL    HW2 2151   1.465   0.080   2.925 -0.3773 -1.0488 -2.0606
  538SOL     MW 2152   1.384   0.074   2.960 -0.2400 -0.3510 -0.1470
  539SOL     OW 2153   0.775   2.745   2.530 -0.2488 -0.0508  0.3673
  539SOL    HW1 2154   0.849   2.801   2.564  0.7443  0.9597  2.3247
  539SOL    HW2 2155   0.817   2.653   2.521  1.1955  1.5919 -0.1273
  539SOL     MW 2156   0.790   2.740   2.534  0.0728  0.2993  0.5603
  540SOL     OW 2157   0.327   2.309   2.894 -0.1177  0.6539 -0.3234
  540SOL    HW1 2158   0.422   2.307   2.897  1.7602 -1.9859  2.1722
  540SOL    HW2 2159   0.304   2.248   2.966 -0.9566  3.1860  1.0300
  540SOL     MW 2160   0.337   2.301   2.904  0.0194  0.6397  0.1844
  541SOL     OW 2161   0.154   2.904   2.186  0.1796  0.1951 -0.0613
  541SOL    HW1 2162   0.157   2.839   2.114  1.4050  0.7183 -1.8159
  541SOL    HW2 2163   0.212   2.871   2.257 -2.2112 -0.3614  1.6067
  541SOL     MW 2164   0.162   2.891   2.186  0.0258  0.1907 -0.0727
  542SOL     OW 2165   1.049   2.299   2.577 -0.0266  0.1034  0.0767
  542SOL    HW1 2166   0.985   2.224   2.597  1.7725 -0.2329  0.4602
  542SOL    HW2 2167   1.067   2.341   2.661  0.4423 -1.8792 -0.5134
  542SOL     MW 2168   1.043   2.294   2.591  0.2726 -0.2026  0.0494
  543SOL     OW 2169   1.432   2.500   2.734 -0.0554 -0.4941  0.7451
  543SOL    HW1 2170   1.476   2.434   2.677  0.5672 -1.8145  1.6099
  543SOL    HW2 2171   1.503   2.564   2.741  0.8058  1.7740 -2.4901
  543SOL     MW 2172   1.447   2.500   2.728  0.1404 -0.3691  0.4323
  544SOL     OW 2173   0.596   0.242   2.694 -0.3274  0.0573 -0.1975
  544SOL    HW1 2174   0.512   0.259   2.732  2.5906 -3.3883 -2.3389
  544SOL    HW2 2175   0.569   0.182   2.626  2.2238 -0.9353  1.1240
  544SOL     MW 2176   0.581   0.236   2.690  0.3942 -0.5283 -0.3057
  545SOL     OW 2177   1.525   2.194   2.283 -0.1013  0.3780  0.8001
  545SOL    HW1 2178   1.499   2.245   2.208  0.5335  0.8664  1.1405
  545SOL    HW2 2179   1.612   2.151   2.260  2.5154  1.5379  0.6329
  545SOL     MW 2180   1.533   2.195   2.270  0.3277  0.5955  0.8230
  546SOL     OW 2181   2.960   2.049   0.125 -0.4641  0.7201  0.5722
  546SOL    HW1 2182   2.975   2.114   0.050 -0.2497 -2.2346  2.0291
  546SOL    HW2 2183   3.040   1.998   0.107  1.0994  0.0983  0.2703
  546SOL     MW 2184   2.973   2.051   0.112 -0.2295  0.2482  0.7246
  547SOL     OW 2185   0.258   2.984   0.117  0.2416 -0.4036 -0.1165
  547SOL    HW1 2186   0.298   3.027   0.040  0.4348  2.0007 -4.6765
  547SOL    HW2 2187   0.265   2.892   0.092  1.1646 -0.6651 -2.6614
  547SOL     MW 2188   0.264   2.978   0.103  0.3889 -0.1209 -1.0539
  548SOL     OW 2189   0.282   2.545   0.248 -0.5785  0.2223 -0.1013
  548SOL    HW1 2190   0.311   2.609   0.183  0.4723 -0.8604  0.8216
  548SOL    HW2 2191   0.226   2.477   0.209 -2.2913 -2.0939  3.0523
  548SOL     MW 2192   0.278   2.544   0.235 -0.6658 -0.2261  0.4366
  549SOL     OW 2193   0.787   1.885   2.120  0.2074 -0.0130 -0.4217
  549SOL    HW1 2194   0.756   1.967   2.084  4.4272 -1.9203  1.0352
  549SOL    HW2 2195   0.814   1.907   2.210 -2.1141  2.0973  0.8696
  549SOL     MW 2196   0.787   1.899   2.127  0.4578  0.0138 -0.0591
  550SOL     OW 2197   1.804   1.742   2.528 -0.1400 -0.1715  0.4542
  550SOL    HW1 2198   1.788   1.753   2.433 -2.6224 -0.7236 -3.2361
  550SOL    HW2 2199   1.793   1.824   2.581 -0.7187  1.9112  1.0945
  550SOL     MW 2200   1.800   1.755   2.522 -0.5439  0.0305  0.0518
  551SOL     OW 2201   0.898   2.319   0.205 -0.2880 -0.5452  0.0181
  551SOL    HW1 2202   0.990   2.345   0.226 -0.2057 -0.3920 -0.9645
  551SOL    HW2 2203   0.899   2.237   0.154  0.0504 -0.5566  1.5877
  551SOL     MW 2204   0.911   2.312   0.201 -0.2325 -0.5265  0.0955
  552SOL     OW 2205   1.744   1.730   2.240  0.1043 -0.1765  0.5337
  552SOL    HW1 2206   1.664   1.695   2.276 -1.5723 -1.3935 -0.4470
  552SOL    HW2 2207   1.759   1.688   2.150  1.7212 -1.5352 -2.3625
  552SOL     MW 2208   1.735   1.720   2.233  0.0964 -0.5164  0.0222
  553SOL     OW 2209   1.207   2.317   1.475 -0.7562  0.2840 -0.3912
  553SOL    HW1 2210   1.246   2.229   1.468 -1.9597 -0.6180  0.9986
  553SOL    HW2 2211   1.267   2.389   1.467  1.9533  0.3033  0.7005
  553SOL     MW 2212   1.220   2.315   1.473 -0.5575  0.1676 -0.0638
  554SOL     OW 2213   0.562   2.887   2.684 -0.2238  0.5132  0.2420
  554SOL    HW1 2214   0.541   2.955   2.625 -0.0307 -0.0748  0.2590
  554SOL    HW2 2215   0.625   2.836   2.627 -0.0481  0.2432 -2.1834
  554SOL     MW 2216   0.567   2.889   2.668 -0.1751  0.4000 -0.0757
  555SOL     OW 2217   0.610   2.440   2.583  0.3113  0.0933 -0.0594
  555SOL    HW1 2218   0.564   2.353   2.582 -1.2163 -0.3559 -2.5650
  555SOL    HW2 2219   0.691   2.425   2.523  2.3556  1.2660 -2.2352
  555SOL     MW 2220   0.614   2.427   2.575  0.3795  0.1888 -0.6770
  556SOL     OW 2221   0.918   1.763   0.137  0.2532  0.1588 -0.3856
  556SOL    HW1 2222   0.949   1.767   0.048  0.5591 -0.7244 -0.4524
  556SOL    HW2 2223   0.994   1.794   0.184 -0.4470  1.1554  0.3106
  556SOL     MW 2224   0.932   1.768   0.131  0.2012  0.1738 -0.3026
  557SOL     OW 2225   0.968   2.701   0.491 -0.1614 -0.3190 -0.2294
  557SOL    HW1 2226   1.017   2.661   0.422  1.9974  2.3310  3.3275
  557SOL    HW2 2227   0.906   2.760   0.454 -0.7353 -0.6673  0.1692
  557SOL     MW 2228   0.966   2.704   0.477  0.0477 -0.0153  0.2925
  558SOL     OW 2229   0.283   2.150   0.015  0.5298 -0.2358 -0.1754
  558SOL    HW1 2230   0.223   2.075   0.020 -0.9380 -1.8811  2.3651
  558SOL    HW2 2231   0.236   2.224   0.056 -0.3310 -0.2508  1.2920
  558SOL     MW 2232   0.269   2.150   0.021  0.2226 -0.4549  0.3534
  559SOL     OW 2233   1.105   2.322   2.116 -0.4537 -0.1362 -0.1210
  559SOL    HW1 2234   1.139   2.409   2.140  0.2470  0.2186  3.0227
  559SOL    HW2 2235   1.124   2.267   2.187 -2.2172  2.1453 -1.9942
  559SOL     MW 2236   1.112   2.326   2.129 -0.5939  0.2116  0.0467
  560SOL     OW 2237   1.927   2.849   0.073  0.0611 -0.1448 -0.3310
  560SOL    HW1 2238   2.009   2.889   0.032  1.8618 -1.4051 -0.8793
  560SOL    HW2 2239   1.915   2.772   0.019 -0.4807  0.5131 -2.7118
  560SOL     MW 2240   1.936   2.844   0.061  0.2272 -0.2243 -0.7174
  561SOL     OW 2241   0.462   2.132   0.232  0.1807  0.6133 -0.5986
  561SOL    HW1 2242   0.401   2.155   0.155 -0.9822 -3.7637 -1.3647
  561SOL    HW2 2243   0.500   2.217   0.261  0.8822 -2.1388  1.0614
  561SOL     MW 2244   0.459   2.147   0.225  0.1198 -0.3273 -0.4806
  562SOL     OW 2245   0.838   2.182   2.231 -0.2748 -0.0289 -0.0680
  562SOL    HW1 2246   0.861   2.270   2.264  2.3222 -0.2730  1.8917
  562SOL    HW2 2247   0.919   2.133   2.233 -2.6545  0.6113  0.1532
  562SOL     MW 2248   0.851   2.187   2.236 -0.2461  0.0234  0.2198
  563SOL     OW 2249   1.126   0.311   0.609 -0.3775  0.1622 -0.6083
  563SOL    HW1 2250   1.065   0.270   0.542  1.6233 -1.8907 -1.9693
  563SOL    HW2 2251   1.185   0.235   0.628  1.1405 -0.1484 -2.1955
  563SOL     MW 2252   1.126   0.295   0.603  0.0867 -0.1497 -0.9973
  564SOL     OW 2253   1.062   2.568   2.295 -0.3337  0.7270 -0.5590
  564SOL    HW1 2254   1.116   2.598   2.215 -1.0641  2.0525  0.9114
  564SOL    HW2 2255   1.123   2.571   2.371 -1.5681  0.1527 -0.1162
  564SOL     MW 2256   1.077   2.572   2.294 -0.5929  0.8261 -0.3066
  565SOL     OW 2257   2.881   2.704   2.638  0.2060 -0.1068  0.3413
  565SOL    HW1 2258   2.950   2.746   2.586  0.3569  3.0702 -2.0606
  565SOL    HW2 2259   2.826   2.667   2.565  1.3733  0.7580 -2.8997
  565SOL     MW 2260   2.883   2.705   2.622  0.3799  0.4265 -0.4032
  566SOL     OW 2261   2.131   1.868   2.427 -0.1475  0.2115 -0.0055
  566SOL    HW1 2262   2.161   1.861   2.337 -2.0190 -0.2913  0.1854
  566SOL    HW2 2263   2.178   1.952   2.455 -3.2998  0.2718 -2.1899
  566SOL     MW 2264   2.141   1.878   2.419 -0.8104  0.1531 -0.2685
  567SOL     OW 2265   1.148   2.972   2.990  0.8048  0.1515 -0.5863
  567SOL    HW1 2266   1.233   3.027   2.984 -0.4181  0.2545 -1.2811
  567SOL    HW2 2267   1.185   2.883   2.989  3.6570 -0.2448 -3.1330
  567SOL     MW 2268   1.164   2.967   2.989  1.0198  0.1128 -1.0140
  568SOL     OW 2269   1.611   2.101   2.906  0.6018  0.6843 -0.4623
  568SOL    HW1 2270   1.659   2.167   2.950 -0.5992 -1.3586 -0.2171
  568SOL    HW2 2271   1.666   2.045   2.849 -1.8753 -1.8129  0.1685
  568SOL     MW 2272   1.625   2.102   2.904  0.1165  0.0853 -0.3467
  569SOL     OW 2273   0.211   2.241   2.475  0.1325  0.1423 -0.0832
  569SOL    HW1 2274   0.173   2.284   2.394 -0.7991 -1.2618  2.8871
  569SOL    HW2 2275   0.222   2.314   2.543  2.3714  2.2948 -0.4640
  569SOL     MW 2276   0.208   2.257   2.473  0.3050  0.2410  0.2585
  570SOL     OW 2277   1.473   0.423   0.486 -0.1462 -0.7656 -0.2784
  570SOL    HW1 2278   1.382   0.443   0.506 -1.2234  1.5055  1.7358
  570SOL    HW2 2279   1.507   0.443   0.572  0.6756  2.7474 -0.4794
  570SOL     MW 2280   1.465   0.428   0.500 -0.1799 -0.0024 -0.0392
  571SOL     OW 2281   1.484   2.397   1.987 -0.1892  0.2763 -0.2374
  571SOL    HW1 2282   1.544   2.414   2.061 -0.4223  0.0653  3.3812
  571SOL    HW2 2283   1.490   2.302   1.983 -1.1119 -2.3743  0.2232
  571SOL     MW 2284   1.493   2.387   1.996 -0.3417 -0.1013  0.3008
  572SOL     OW 2285   0.922   2.572   0.031 -0.1592  0.3515 -0.1019
  572SOL    HW1 2286   0.901   2.645  -0.023 -1.1486  0.5126  1.0900
  572SOL    HW2 2287   0.843   2.536   0.068  1.7045 -0.5723  1.0534
  572SOL     MW 2288   0.909   2.577   0.029 -0.0438  0.2509  0.2078
  573SOL     OW 2289   1.190   2.370   0.265  0.7587 -0.2087 -0.0859
  573SOL    HW1 2290   1.273   2.346   0.217 -2.7483 -0.1383  1.5207
  573SOL    HW2 2291   1.179   2.462   0.253 -1.3512  0.8908  0.1917
  573SOL     MW 2292   1.200   2.379   0.257  0.0176 -0.0544  0.1627
  574SOL     OW 2293   1.081   2.637   0.250  0.4795  0.4033 -0.3499
  574SOL    HW1 2294   1.129   2.715   0.238 -0.0854 -2.9840  0.3117
  574SOL    HW2 2295   1.039   2.622   0.166  3.7003  0.4840  1.1623
  574SOL     MW 2296   1.081   2.645   0.237  0.8299 -0.0330 -0.0631
  575SOL     OW 2297   0.009   2.329   1.784  0.5638  0.1486  0.2328
  575SOL    HW1 2298   0.001   2.247   1.731  2.2106  1.6980 -1.6830
  575SOL    HW2 2299   0.072   2.386   1.737  1.3764 -0.2296 -1.4280
  575SOL     MW 2300   0.016   2.326   1.771  0.8883  0.3031 -0.2391
  576SOL     OW 2301   2.886   1.800   2.036 -0.3350 -0.4732  0.4578
  576SOL    HW1 2302   2.921   1.882   1.994 -0.2614  2.1506  1.3028
  576SOL    HW2 2303   2.797   1.788   1.999 -0.6477  0.5350 -1.3188
  576SOL     MW 2304   2.879   1.809   2.025 -0.3666  0.0060  0.3349
  577SOL     OW 2305   2.127   0.232   0.064 -0.3353 -0.5091  0.0893
  577SOL    HW1 2306   2.056   0.248   0.001 -1.1098  1.9612 -0.5469
  577SOL    HW2 2307   2.069   0.219   0.149  0.9502 -0.9982  0.5914
  577SOL     MW 2308   2.110   0.232   0.067 -0.2679 -0.2477  0.0716
  578SOL     OW 2309   1.923   2.028   2.432  0.2976 -0.4313 -0.1943
  578SOL    HW1 2310   1.869   2.034   2.356  0.0073 -0.3979 -0.9695
  578SOL    HW2 2311   1.969   1.944   2.429  0.0435 -0.4844  2.4488
  578SOL     MW 2312   1.922   2.018   2.421  0.2258 -0.4339  0.0522
  579SOL     OW 2313   0.868   2.501   2.494 -0.1602 -0.0404 -0.2830
  579SOL    HW1 2314   0.938   2.451   2.542  2.3494  0.8231  0.4868
  579SOL    HW2 2315   0.926   2.534   2.421  1.4092 -1.0167 -0.0391
  579SOL     MW 2316   0.885   2.499   2.491  0.3780 -0.0553 -0.1493
  580SOL     OW 2317   0.906   2.996   0.018  0.5476  0.3034 -0.1951
  580SOL    HW1 2318   0.997   2.983  -0.019 -1.1109  0.9511 -1.8864
  580SOL    HW2 2319   0.849   2.985  -0.061  0.3688 -0.2717 -1.4708
  580SOL     MW 2320   0.910   2.993   0.003  0.3052  0.3130 -0.5865
  581SOL     OW 2321   1.154   2.458   1.710  0.6633  0.1763 -0.1889
  581SOL    HW1 2322   1.242   2.462   1.754  2.4889 -1.4919 -0.1327
  581SOL    HW2 2323   1.175   2.399   1.639 -0.6634 -1.4352  2.5379
  581SOL     MW 2324   1.169   2.451   1.706  0.7291 -0.2564  0.1783
  582SOL     OW 2325   3.070   2.873   2.543  0.0793  0.3244  0.3157
  582SOL    HW1 2326   3.023   2.939   2.595  0.0093 -1.7088 -0.3765
  582SOL    HW2 2327   3.159   2.905   2.543 -0.8925 -1.3692 -1.2192
  582SOL     MW 2328   3.076   2.886   2.550 -0.0581 -0.1674  0.0219
  583SOL     OW 2329   2.003   2.364   2.687  0.4942 -0.2297  0.6607
  583SOL    HW1 2330   2.065   2.387   2.615  3.7177  0.9024  1.1557
  583SOL    HW2 2331   1.999   2.268   2.691 -1.9472  0.0813  0.1553
  583SOL     MW 2332   2.011   2.354   2.678  0.5974 -0.0393  0.6593
  584SOL     OW 2333   0.176   1.872   2.120  0.5407 -0.2740  0.3583
  584SOL    HW1 2334   0.250   1.813   2.133 -1.9084  1.2025 -1.5554
  584SOL    HW2 2335   0.185   1.951   2.173 -0.8622 -0.5406  2.0423
  584SOL     MW 2336   0.187   1.875   2.128  0.0325 -0.1144  0.3280
  585SOL     OW 2337   1.437   2.643   0.122  0.1852  0.0030  0.8200
  585SOL    HW1 2338   1.397   2.616   0.037 -1.6459 -1.6380 -2.7553
  585SOL    HW2 2339   1.373   2.685   0.176  0.5884 -0.4776 -1.8121
  585SOL     MW 2340   1.423   2.645   0.118 -0.0032 -0.2769  0.0010
  586SOL     OW 2341   1.414   2.805   2.490 -0.4267  0.3316  0.7351
  586SOL    HW1 2342   1.462   2.771   2.414  0.3257 -1.3908  1.7075
  586SOL    HW2 2343   1.432   2.891   2.513 -1.7772 -0.5343 -2.7506
  586SOL     MW 2344   1.423   2.812   2.483 -0.5056 -0.0099  0.4035
  587SOL     OW 2345   1.313   1.570   2.192  0.3114 -0.0029 -0.0103
  587SOL    HW1 2346   1.308   1.480   2.227 -1.0353 -0.4262  0.7762
  587SOL    HW2 2347   1.273   1.573   2.106 -0.6962  3.0525  1.8051
  587SOL     MW 2348   1.307   1.558   2.185  0.0008  0.3443  0.3330
  588SOL     OW 2349   1.398   2.144   2.757  0.4971  0.1417  0.4256
  588SOL    HW1 2350   1.483   2.112   2.792 -3.6143  1.7745 -1.4851
  588SOL    HW2 2351   1.337   2.171   2.824 -0.6841 -2.9849  0.6300
  588SOL     MW 2352   1.401   2.143   2.770 -0.2012 -0.0554  0.2005
  589SOL     OW 2353   1.280   2.057   0.069 -0.2682 -0.4307 -0.1130
  589SOL    HW1 2354   1.325   2.131   0.111 -0.9067  1.8851 -1.4129
  589SOL    HW2 2355   1.243   1.995   0.134  0.4583  0.5929  0.8463
  589SOL     MW 2356   1.281   2.058   0.083 -0.2566  0.0099 -0.1579
  590SOL     OW 2357   0.431   2.684   2.217 -0.4351  0.3062  0.0859
  590SOL    HW1 2358   0.402   2.645   2.129  0.9163  3.2617  0.2550
  590SOL    HW2 2359   0.511   2.740   2.214 -0.2216  0.7445  0.0190
  590SOL     MW 2360   0.438   2.686   2.205 -0.2287  0.7540  0.0994
  591SOL     OW 2361   2.282   0.714   3.092 -0.3446 -0.2939  0.5650
  591SOL    HW1 2362   2.215   0.773   3.059  2.2270 -0.9312  0.3790
  591SOL    HW2 2363   2.369   0.741   3.041  4.3318 -0.1051  0.5146
  591SOL     MW 2364   2.285   0.725   3.081  0.6117 -0.3531  0.5338
  592SOL     OW 2365   1.796   2.956   0.833 -0.1548  0.8516  0.4603
  592SOL    HW1 2366   1.778   3.020   0.763  1.1050  1.5085 -0.3892
  592SOL    HW2 2367   1.859   2.895   0.796 -0.0576  1.4057 -2.3772
  592SOL     MW 2368   1.802   2.956   0.819  0.0243  1.0114 -0.0261
  593SOL     OW 2369   1.932   0.694   0.886  0.9462  0.1539 -0.3842
  593SOL    HW1 2370   1.858   0.703   0.827  0.1310  2.8858  2.0021
  593SOL    HW2 2371   1.917   0.604   0.919  0.6265  1.1616  1.5335
  593SOL     MW 2372   1.920   0.683   0.883  0.7965  0.6473  0.1837
  594SOL     OW 2373   2.819   1.168   1.357  0.4320 -0.0977 -0.3757
  594SOL    HW1 2374   2.908   1.161   1.398  0.5634 -1.3330  1.8083
  594SOL    HW2 2375   2.823   1.130   1.267  3.3807 -0.6967 -1.7116
  594SOL     MW 2376   2.832   1.162   1.351  0.8384 -0.3397 -0.2638
  595SOL     OW 2377   0.493   0.956   0.789 -0.2961 -0.2655  0.3559
  595SOL    HW1 2378   0.504   1.007   0.712  0.7527  1.7569  4.1483
  595SOL    HW2 2379   0.510   1.017   0.862  1.8570  3.0714  0.7335
  595SOL     MW 2380   0.497   0.971   0.788  0.1264  0.4416  0.9061
  596SOL     OW 2381   2.480   1.350   0.547 -0.2652 -0.3083  0.4325
  596SOL    HW1 2382   2.563   1.395   0.508  2.7050  0.6139 -1.4157
  596SOL    HW2 2383   2.528   1.292   0.614  1.7184 -2.4393 -1.2190
  596SOL     MW 2384   2.497   1.348   0.551  0.3884 -0.4678 -0.0292
  597SOL     OW 2385   2.187   0.710   1.570 -0.3247  0.0416 -0.2393
  597SOL    HW1 2386   2.214   0.648   1.641 -3.1707  2.3776  2.2886
  597SOL    HW2 2387   2.107   0.664   1.533  1.8007 -0.8452  0.3065
  597SOL     MW 2388   2.180   0.696   1.575 -0.4198  0.2328  0.1662
  598SOL     OW 2389   2.604   0.977   2.842 -0.2247  0.1037 -0.2275
  598SOL    HW1 2390   2.624   0.983   2.745 -1.5544  0.4414  1.5727
  598SOL    HW2 2391   2.678   1.026   2.876 -0.3112  0.2627 -3.0592
  598SOL     MW 2392   2.616   0.985   2.834 -0.4116  0.1692 -0.3636
  599SOL     OW 2393   2.959   0.426   2.056  0.0962  0.7508 -0.4100
  599SOL    HW1 2394   2.930   0.436   2.149  0.1155  1.0188 -0.4232
  599SOL    HW2 2395   3.008   0.509   2.025 -0.7126 -0.7614 -0.7440
  599SOL     MW 2396   2.962   0.438   2.064 -0.0080  0.5866 -0.4558
  600SOL     OW 2397   1.933   1.681   0.856  0.0924 -0.3980  0.0862
  600SOL    HW1 2398   1.953   1.714   0.943  1.5846 -4.9169  2.0192
  600SOL    HW2 2399   1.838   1.711   0.836 -1.3174 -5.8853 -1.0888
  600SOL     MW 2400   1.923   1.689   0.865  0.1032 -1.7182  0.1862
  601SOL     OW 2401   2.537   0.804   0.836 -0.2210  0.7064 -0.5220
  601SOL    HW1 2402   2.525   0.825   0.932  1.8273  1.2986  4.3467
  601SOL    HW2 2403   2.454   0.769   0.799 -0.9729  0.7959 -0.5163
  601SOL     MW 2404   2.524   0.802   0.844 -0.0500  0.7963  0.1212
  602SOL     OW 2405   2.321   1.932   0.838  0.2763 -0.3266  0.1700
  602SOL    HW1 2406   2.294   1.839   0.849  0.2693  0.3108  0.9004
  602SOL    HW2 2407   2.241   1.985   0.827 -1.3169 -0.0325 -0.0455
  602SOL     MW 2408   2.307   1.927   0.838  0.0652 -0.2037  0.2379
  603SOL     OW 2409   3.067   1.403   1.818 -0.0235  0.1089 -0.1696
  603SOL    HW1 2410   3.140   1.435   1.872  2.8596  0.7500 -1.8178
  603SOL    HW2 2411   3.085   1.311   1.836 -1.6165  0.4226  0.1573
  603SOL     MW 2412   3.079   1.395   1.827  0.1467  0.2349 -0.3439
  604SOL     OW 2413   2.162   1.564   0.478 -0.2398  0.4568  0.5091
  604SOL    HW1 2414   2.204   1.498   0.537  1.1167  1.1270  1.5056
  604SOL    HW2 2415   2.086   1.601   0.531  1.7969  0.5709 -0.8118
  604SOL     MW 2416   2.158   1.560   0.493  0.2079  0.5603  0.4663
  605SOL     OW 2417   2.610   1.556   0.825  0.1268 -0.3245  0.2135
  605SOL    HW1 2418   2.590   1.635   0.771 -3.4982  1.4199 -1.0056
  605SOL    HW2 2419   2.570   1.486   0.778  0.2973 -0.4996 -1.5547
  605SOL     MW 2420   2.602   1.557   0.812 -0.3290 -0.1174 -0.1807
  606SOL     OW 2421   2.577   1.847   1.906 -0.8355 -0.2579  0.5951
  606SOL    HW1 2422   2.484   1.828   1.909  0.3736 -1.3844 -0.6117
  606SOL    HW2 2423   2.607   1.763   1.867  0.7120 -1.6093  1.7449
  606SOL     MW 2424   2.568   1.833   1.901 -0.4718 -0.5849  0.5876
  607SOL     OW 2425   2.369   1.044   3.045  0.6252  0.2768 -0.2475
  607SOL    HW1 2426   2.448   1.047   2.993 -0.7131  0.7344  0.2516
  607SOL    HW2 2427   2.398   1.029   3.141 -0.7431  1.0896  1.9377
  607SOL     MW 2428   2.383   1.042   3.050  0.2681  0.4444  0.1067
  608SOL     OW 2429   1.887   0.289   0.637  0.1974 -0.2416  0.0451
  608SOL    HW1 2430   1.917   0.337   0.558  0.0600  0.0384  2.5877
  608SOL    HW2 2431   1.838   0.208   0.610 -0.2460 -1.5946 -0.1890
  608SOL     MW 2432   1.884   0.284   0.623  0.1207 -0.3832  0.3497
  609SOL     OW 2433   2.063   2.024   3.054 -0.8638  0.3606  0.2730
  609SOL    HW1 2434   1.989   1.973   3.024 -0.7573 -0.6575 -1.2687
  609SOL    HW2 2435   2.114   1.983   3.126 -2.6355  0.6591 -0.4622
  609SOL     MW 2436   2.060   2.012   3.059 -1.0835  0.2657 -0.0274
  610SOL     OW 2437   1.793   1.006   1.268 -0.1835 -0.9794  0.3290
  610SOL    HW1 2438   1.775   0.923   1.222 -1.4730  0.8441  0.8456
  610SOL    HW2 2439   1.701   1.035   1.264 -0.6296  0.4602 -1.8169
  610SOL     MW 2440   1.778   0.999   1.261 -0.4125 -0.5489  0.1141
  611SOL     OW 2441   2.532   1.778   0.680 -0.2527  0.3204 -0.4810
  611SOL    HW1 2442   2.491   1.847   0.728  0.3003 -0.3187  2.0788
  611SOL    HW2 2443   2.486   1.795   0.604 -0.7082  2.2595  0.5749
  611SOL     MW 2444   2.521   1.790   0.676 -0.2399  0.4919 -0.0039
  612SOL     OW 2445   2.793   2.835   0.418 -0.1360  0.1140  0.0131
  612SOL    HW1 2446   2.837   2.863   0.501 -3.9639  0.0862  1.3378
  612SOL    HW2 2447   2.869   2.813   0.364  2.0706 -0.0490  3.6554
  612SOL     MW 2448   2.809   2.836   0.422 -0.3499  0.0888  0.6684
  613SOL     OW 2449   1.494   1.023   0.952 -0.1618 -0.3862  0.2141
  613SOL    HW1 2450   1.514   1.112   0.977  3.0633 -3.0937  0.2614
  613SOL    HW2 2451   1.489   0.980   1.037 -0.7458  2.0033  1.4588
  613SOL     MW 2452   1.496   1.029   0.967  0.1867 -0.4282  0.3846
  614SOL     OW 2453   2.005   0.553   1.465  0.2622  0.5319 -0.5191
  614SOL    HW1 2454   2.039   0.471   1.502 -2.5445 -1.5528 -2.2788
  614SOL    HW2 2455   1.983   0.531   1.375  1.0475  2.8063 -0.8658
  614SOL     MW 2456   2.006   0.539   1.458 -0.0045  0.5569 -0.7970
  615SOL     OW 2457   2.377   0.720   0.295  0.1295 -0.1021 -0.2261
  615SOL    HW1 2458   2.426   0.646   0.334 -0.6394 -1.2098 -1.6094
  615SOL    HW2 2459   2.344   0.678   0.216  1.3348  0.5733  0.6883
  615SOL     MW 2460   2.379   0.704   0.290  0.1871 -0.1591 -0.2879
  616SOL     OW 2461   2.492   0.439   1.587 -0.1813 -0.7318 -0.1932
  616SOL    HW1 2462   2.465   0.354   1.561  0.0089 -0.7156  1.9510
  616SOL    HW2 2463   2.453   0.510   1.529  1.7713  1.8039  0.0565
  616SOL     MW 2464   2.484   0.437   1.576  0.1014 -0.3951  0.1227
  617SOL     OW 2465   2.927   0.564   1.731 -0.0212  0.4812  0.4427
  617SOL    HW1 2466   2.831   0.568   1.752 -0.0092  2.6059 -2.2245
  617SOL    HW2 2467   2.935   0.469   1.736  0.4833  1.6534  0.3405
  617SOL     MW 2468   2.915   0.552   1.735  0.0469  0.9162  0.0773
  618SOL     OW 2469   2.766   0.356   1.886  0.8112  0.5711 -0.5797
  618SOL    HW1 2470   2.705   0.428   1.889 -1.8656 -1.7012  0.0909
  618SOL    HW2 2471   2.828   0.389   1.949 -0.2409  2.2301 -0.3568
  618SOL     MW 2472   2.766   0.370   1.895  0.3192  0.4901 -0.4618
  619SOL     OW 2473   2.682   0.664   0.122  0.0985  0.2382  0.0948
  619SOL    HW1 2474   2.714   0.755   0.118 -2.1066  1.8385  0.8730
  619SOL    HW2 2475   2.668   0.642   0.212 -2.2008 -1.1020 -0.3827
  619SOL     MW 2476   2.684   0.673   0.133 -0.4958  0.2725  0.1345
  620SOL     OW 2477   2.299   1.032   1.001 -0.2279  0.2884  0.3234
  620SOL    HW1 2478   2.340   1.102   0.955  0.3557  0.5081  0.6160
  620SOL    HW2 2479   2.237   0.993   0.939 -2.1700 -1.9402 -0.4253
  620SOL     MW 2480   2.296   1.036   0.987 -0.4072  0.0233  0.2632
  621SOL     OW 2481   1.520   2.132   1.960  0.2823 -0.6415  0.2134
  621SOL    HW1 2482   1.458   2.080   2.019 -0.0178  3.7190 -0.1975
  621SOL    HW2 2483   1.612   2.093   1.951 -0.5010  0.1329 -1.9173
  621SOL     MW 2484   1.524   2.120   1.967  0.1393  0.0360 -0.1219
  622SOL     OW 2485   2.625   0.159   0.272  0.5645 -0.0114 -0.3986
  622SOL    HW1 2486   2.718   0.180   0.271 -1.3688  0.4226  0.6423
  622SOL    HW2 2487   2.616   0.065   0.273 -0.6420  1.0813  1.7963
  622SOL     MW 2488   2.636   0.149   0.272  0.1502  0.1900  0.0283
  623SOL     OW 2489   2.331   2.824   0.857 -0.6094  0.0531 -0.4266
  623SOL    HW1 2490   2.404   2.893   0.867 -0.5450 -1.8704 -0.2971
  623SOL    HW2 2491   2.253   2.840   0.918 -2.2176 -0.8082 -1.8647
  623SOL     MW 2492   2.330   2.835   0.866 -0.8131 -0.3143 -0.5992
  624SOL     OW 2493   2.178   1.733   3.005  0.5495 -0.0207 -0.2923
  624SOL    HW1 2494   2.161   1.658   3.060 -1.0551 -2.1598  1.5359
  624SOL    HW2 2495   2.097   1.771   2.977  2.9885 -1.6537  2.5105
  624SOL     MW 2496   2.165   1.728   3.008  0.6596 -0.5184  0.3187
  625SOL     OW 2497   2.204   1.959   1.128  0.1850 -0.3844  0.2674
  625SOL    HW1 2498   2.254   1.889   1.178  1.1802  1.1375 -2.1966
  625SOL    HW2 2499   2.232   1.937   1.039 -0.4563 -0.4837 -0.3258
  625SOL     MW 2500   2.214   1.947   1.122  0.2317 -0.1967 -0.1360
  626SOL     OW 2501   0.291   1.616   2.388  0.9093  0.1623  0.2452
  626SOL    HW1 2502   0.252   1.538   2.362  0.5399  3.0229  1.4896
  626SOL    HW2 2503   0.222   1.678   2.381 -0.2849 -1.2376 -0.3326
  626SOL     MW 2504   0.277   1.614   2.384  0.7030  0.3551  0.3332
  627SOL     OW 2505   2.470   0.767   2.632  0.3923 -0.4996 -0.3237
  627SOL    HW1 2506   2.463   0.859   2.659  0.5119  0.6274 -0.0495
  627SOL    HW2 2507   2.447   0.766   2.541  0.7118 -2.0412 -1.3787
  627SOL     MW 2508   2.466   0.779   2.624  0.4502 -0.5543 -0.4267
  628SOL     OW 2509   2.344   1.376   1.365  0.4532  0.7084 -0.4533
  628SOL    HW1 2510   2.301   1.296   1.324  2.8357 -0.5203  1.8952
  628SOL    HW2 2511   2.441   1.369   1.344 -1.2909  1.3641  1.3474
  628SOL     MW 2512   2.351   1.364   1.357  0.5374  0.6328  0.0941
  629SOL     OW 2513   1.852   0.543   1.218 -0.2848 -0.2143  0.8150
  629SOL    HW1 2514   1.830   0.629   1.180  0.6441  0.3408 -0.2902
  629SOL    HW2 2515   1.761   0.521   1.247 -3.8127  1.0479 -0.3500
  629SOL     MW 2516   1.837   0.551   1.217 -0.6277  0.0255  0.5155
  630SOL     OW 2517   2.449   1.789   2.991  0.2024 -0.2384 -0.6656
  630SOL    HW1 2518   2.468   1.871   2.957 -0.7052 -1.3909  2.7846
  630SOL    HW2 2519   2.351   1.796   3.004 -0.8756 -2.0194  1.7219
  630SOL     MW 2520   2.438   1.801   2.988 -0.0596 -0.6255  0.1046
  631SOL     OW 2521   1.975   1.836   1.583  0.5039  0.2454 -0.2654
  631SOL    HW1 2522   2.013   1.754   1.617 -1.2071 -1.8291 -0.2944
  631SOL    HW2 2523   1.946   1.816   1.492 -0.8109 -3.0603 -1.2176
  631SOL     MW 2524   1.976   1.823   1.575  0.1047 -0.4644 -0.3949
  632SOL     OW 2525   0.139   1.983   1.462 -0.0278 -0.6222 -0.3996
  632SOL    HW1 2526   0.078   2.004   1.536 -1.9693 -0.5700  1.5575
  632SOL    HW2 2527   0.136   1.891   1.465  0.4215 -0.3118 -2.6487
  632SOL     MW 2528   0.131   1.974   1.472 -0.2247 -0.5744 -0.4381
  633SOL     OW 2529   2.598   0.516   0.362 -0.0556 -0.3511 -0.1666
  633SOL    HW1 2530   2.677   0.514   0.423 -0.0904  0.9179  0.2654
  633SOL    HW2 2531   2.558   0.434   0.393 -1.3030 -1.7580 -0.8768
  633SOL     MW 2532   2.604   0.505   0.374 -0.2248 -0.3693 -0.2033
  634SOL     OW 2533   2.693   3.074   0.615 -0.3615 -0.0620  0.0139
  634SOL    HW1 2534   2.729   3.162   0.623  2.2878  0.9884  0.1202
  634SOL    HW2 2535   2.641   3.075   0.534  0.0548 -0.0279 -0.1727
  634SOL     MW 2536   2.691   3.086   0.605  0.0430  0.0811  0.0033
  635SOL     OW 2537   2.627   0.126   1.830 -0.0029  0.3570 -0.5628
  635SOL    HW1 2538   2.687   0.051   1.809  1.9319 -1.4883  0.0244
  635SOL    HW2 2539   2.685   0.195   1.847  1.9006 -1.3828  0.6425
  635SOL     MW 2540   2.643   0.125   1.829  0.5035 -0.1160 -0.3263
  636SOL     OW 2541   2.898   1.615   1.121 -0.3819 -1.1721 -0.1870
  636SOL    HW1 2542   2.817   1.652   1.154 -0.3543  0.7475 -3.3160
  636SOL    HW2 2543   2.943   1.700   1.091  0.4054  0.3365 -0.5289
  636SOL     MW 2544   2.894   1.631   1.122 -0.2744 -0.7197 -0.6449
  637SOL     OW 2545   2.888   1.490   0.713  0.3287  0.1932  0.3947
  637SOL    HW1 2546   2.959   1.557   0.706  1.6738  0.5568  0.7422
  637SOL    HW2 2547   2.826   1.518   0.782  0.3994  1.2546 -0.0426
  637SOL     MW 2548   2.889   1.503   0.722  0.5155  0.3812  0.3829
  638SOL     OW 2549   2.791   0.495   0.566 -0.0794  0.0065 -0.4292
  638SOL    HW1 2550   2.874   0.524   0.522  2.5060  0.0577  0.0624
  638SOL    HW2 2551   2.783   0.548   0.644 -2.3376  1.1474  0.4529
  638SOL     MW 2552   2.801   0.506   0.570 -0.0362  0.1638 -0.2479
  639SOL     OW 2553   1.775   0.046   0.617 -0.1826 -0.3507  0.6560
  639SOL    HW1 2554   1.689   0.073   0.575 -0.0723  0.2097  3.1457
  639SOL    HW2 2555   1.804  -0.026   0.554  0.0755 -1.8030 -0.2212
  639SOL     MW 2556   1.767   0.040   0.604 -0.1340 -0.4684  0.8688
  640SOL     OW 2557   0.372   1.302   0.123 -0.0767  0.2156 -0.1702
  640SOL    HW1 2558   0.375   1.321   0.029 -0.3496  0.3311  0.6502
  640SOL    HW2 2559   0.331   1.215   0.130 -1.5084  1.2449 -0.5341
  640SOL     MW 2560   0.367   1.293   0.112 -0.3016  0.3667 -0.1100
  641SOL     OW 2561   2.161   0.411   0.323 -1.0241  0.0918  0.3972
  641SOL    HW1 2562   2.216   0.441   0.250  2.1434 -1.4029 -0.1398
  641SOL    HW2 2563   2.210   0.343   0.374 -3.6226 -0.8819  1.1485
  641SOL     MW 2564   2.175   0.406   0.320 -0.9490 -0.2339  0.4255
  642SOL     OW 2565   0.065   3.086   0.590 -0.0659 -0.2162  0.1449
  642SOL    HW1 2566   0.035   3.170   0.550 -0.1536 -1.5110 -2.1695
  642SOL    HW2 2567  -0.021   3.038   0.600 -1.4964  0.2791 -2.2794
  642SOL     MW 2568   0.050   3.091   0.586 -0.2662 -0.3217 -0.4803
  643SOL     OW 2569   2.056   0.333   1.641 -0.5867 -0.0176 -0.1198
  643SOL    HW1 2570   1.988   0.296   1.698 -0.4789  0.2690  2.6071
  643SOL    HW2 2571   2.100   0.269   1.591  0.2101  0.4089 -0.7866
  643SOL     MW 2572   2.053   0.319   1.642 -0.4674  0.0765  0.1520
  644SOL     OW 2573   2.739   2.033   1.035 -0.1042  0.2320  0.0238
  644SOL    HW1 2574   2.719   1.958   1.088  3.4457  1.2346  0.3174
  644SOL    HW2 2575   2.657   2.076   1.020  1.5761 -1.3990  0.6122
  644SOL     MW 2576   2.726   2.029   1.040  0.5859  0.1491  0.1402
  645SOL     OW 2577   2.875   0.823   0.671  0.3067  0.0404 -0.0510
  645SOL    HW1 2578   2.967   0.812   0.684  0.9426 -1.6455  2.0089
  645SOL    HW2 2579   2.832   0.756   0.718  0.9841  1.0403 -1.8298
  645SOL     MW 2580   2.882   0.812   0.679  0.4800 -0.0501 -0.0139
  646SOL     OW 2581   0.175   2.314   0.792 -0.6376  0.3270  0.3975
  646SOL    HW1 2582   0.190   2.231   0.841  1.3866 -0.4379  0.6282
  646SOL    HW2 2583   0.111   2.320   0.722  2.6690  2.0903  0.4944
  646SOL     MW 2584   0.168   2.304   0.789  0.0657  0.4588  0.4407
  647SOL     OW 2585   2.666   0.483   2.970 -0.0015 -0.4545 -0.1701
  647SOL    HW1 2586   2.637   0.442   3.051 -0.6267  0.8264 -0.4619
  647SOL    HW2 2587   2.618   0.565   2.957  0.8311  0.6103  0.1108
  647SOL     MW 2588   2.656   0.488   2.979  0.0259 -0.1450 -0.1715
  648SOL     OW 2589   2.134   0.740   1.213 -0.2039  0.2229  0.6928
  648SOL    HW1 2590   2.081   0.787   1.151 -1.4737  0.5539 -1.4157
  648SOL    HW2 2591   2.144   0.810   1.277 -1.0030 -1.3731 -2.8182
  648SOL     MW 2592   2.128   0.755   1.213 -0.4769  0.0560 -0.0487
  649SOL     OW 2593   2.350   2.712   1.272  0.1183 -0.2108 -0.2691
  649SOL    HW1 2594   2.428   2.761   1.262  0.2468 -1.3573 -1.7724
  649SOL    HW2 2595   2.376   2.619   1.276  2.0046 -3.5772 -2.1542
  649SOL     MW 2596   2.364   2.706   1.272  0.3841 -0.8062 -0.7161
  650SOL     OW 2597   2.818   0.211   0.625  0.4767  0.2903  0.0289
  650SOL    HW1 2598   2.788   0.302   0.625 -3.6223 -1.5097  3.0186
  650SOL    HW2 2599   2.910   0.204   0.590 -2.0837 -0.9747 -3.7691
  650SOL     MW 2600   2.826   0.222   0.620 -0.4019 -0.1141 -0.0778
  651SOL     OW 2601   2.970   0.399   0.848 -0.0743 -0.0977  0.9650
  651SOL    HW1 2602   3.052   0.451   0.825 -1.6938  0.0838 -1.9884
  651SOL    HW2 2603   2.925   0.452   0.915  1.9144  0.1512  0.0103
  651SOL     MW 2604   2.975   0.413   0.854 -0.0256 -0.0409  0.4494
  652SOL     OW 2605   2.436   1.515   2.966  0.2198  1.3600  0.2496
  652SOL    HW1 2606   2.504   1.507   2.901 -1.3181 -1.0132  0.2041
  652SOL    HW2 2607   2.437   1.609   2.976  1.0228 -2.0630  1.9934
  652SOL     MW 2608   2.445   1.526   2.959  0.1228  0.5953  0.4736
  653SOL     OW 2609   1.914   0.427   0.382 -0.0569 -0.0661 -0.2211
  653SOL    HW1 2610   1.860   0.374   0.327  0.2677  0.3445 -1.2898
  653SOL    HW2 2611   2.001   0.429   0.344  0.3551 -0.7083  0.4458
  653SOL     MW 2612   1.919   0.420   0.370  0.0403 -0.0967 -0.2741
  654SOL     OW 2613   2.404   1.033   0.742 -0.3330 -0.7744  0.3789
  654SOL    HW1 2614   2.332   1.011   0.682  0.1947 -0.7905 -1.8897
  654SOL    HW2 2615   2.446   0.955   0.773  0.2217  0.5728 -0.1953
  654SOL     MW 2616   2.400   1.020   0.738 -0.1902 -0.5987  0.0038
  655SOL     OW 2617   2.890   0.837   0.357 -0.0964 -0.5483 -0.4307
  655SOL    HW1 2618   2.840   0.859   0.436 -0.4655 -0.7233 -0.5666
  655SOL    HW2 2619   2.907   0.738   0.365  0.3574 -0.5877 -2.9348
  655SOL     MW 2620   2.885   0.827   0.369 -0.0852 -0.5766 -0.7790
  656SOL     OW 2621   1.843   2.725   1.320  0.0034  0.0318  0.2470
  656SOL    HW1 2622   1.880   2.791   1.260 -1.2357 -0.3135  1.7859
  656SOL    HW2 2623   1.923   2.698   1.373 -0.4249 -1.2251 -2.6465
  656SOL     MW 2624   1.858   2.730   1.319 -0.2166 -0.1796  0.0683
  657SOL     OW 2625   0.148   1.712   1.247  0.2420  0.5479 -0.7785
  657SOL    HW1 2626   0.190   1.773   1.184 -2.5304  0.1895 -0.4703
  657SOL    HW2 2627   0.148   1.628   1.199  1.9365 -0.7261 -0.2121
  657SOL     MW 2628   0.153   1.709   1.233  0.0998  0.3325 -0.6631
  658SOL     OW 2629   2.733   1.329   0.221  0.0210  0.0701  0.1444
  658SOL    HW1 2630   2.684   1.270   0.273  0.8947  2.3849 -1.7042
  658SOL    HW2 2631   2.765   1.386   0.288  1.4777  0.6581 -0.9910
  658SOL     MW 2632   2.731   1.328   0.237  0.3285  0.4531 -0.2493
  659SOL     OW 2633   2.280   1.512   1.106  0.1227  0.0512 -0.0219
  659SOL    HW1 2634   2.377   1.510   1.114  0.5879 -0.1334  0.7405
  659SOL    HW2 2635   2.261   1.572   1.177  4.0089  1.7455  0.6243
  659SOL     MW 2636   2.290   1.519   1.116  0.6968  0.2504  0.1639
  660SOL     OW 2637   2.053   1.595   1.682  0.2244 -0.5830 -0.2701
  660SOL    HW1 2638   2.060   1.604   1.778  0.1751  0.6261 -1.0045
  660SOL    HW2 2639   1.962   1.558   1.685 -1.2517  3.0376  0.5606
  660SOL     MW 2640   2.042   1.591   1.695  0.0231  0.0543 -0.2574
  661SOL     OW 2641   2.398   0.997   0.225  0.7025 -0.1116 -0.3032
  661SOL    HW1 2642   2.456   1.043   0.293 -1.9996  1.6899  2.7008
  661SOL    HW2 2643   2.382   0.907   0.259 -1.5681 -2.0855  0.5544
  661SOL     MW 2644   2.404   0.991   0.239  0.0464 -0.1344  0.2063
  662SOL     OW 2645   2.596   2.963   0.850  0.4419  0.2091 -0.3488
  662SOL    HW1 2646   2.547   3.034   0.884  1.1650 -1.4611  0.7775
  662SOL    HW2 2647   2.637   3.005   0.774 -1.8803  0.5382 -1.5215
  662SOL     MW 2648   2.595   2.978   0.844  0.2309  0.0321 -0.3549
  663SOL     OW 2649   2.708   1.478   0.471 -0.3885  0.2942  0.3399
  663SOL    HW1 2650   2.674   1.567   0.458 -1.5963 -1.0757  1.4003
  663SOL    HW2 2651   2.776   1.496   0.539  0.0185 -0.6516  2.1336
  663SOL     MW 2652   2.712   1.492   0.478 -0.4941 -0.0113  0.7164
  664SOL     OW 2653   2.510   1.525   1.610 -0.2815 -0.2482 -0.5690
  664SOL    HW1 2654   2.491   1.615   1.583 -0.0543 -1.9586  0.8640
  664SOL    HW2 2655   2.427   1.495   1.645  1.0767 -1.4406  2.4801
  664SOL     MW 2656   2.497   1.533   1.611 -0.0723 -0.6312  0.0224
  665SOL     OW 2657   2.841   0.871   2.009  0.0219 -0.1137 -0.3890
  665SOL    HW1 2658   2.817   0.914   1.924 -0.4228 -1.7842  2.1351
  665SOL    HW2 2659   2.921   0.814   1.996 -0.4691 -2.2447  1.1658
  665SOL     MW 2660   2.849   0.869   1.996 -0.1016 -0.6153  0.1491
  666SOL     OW 2661   2.757   3.008   1.707  0.1364  0.0194  0.2252
  666SOL    HW1 2662   2.772   3.042   1.621 -0.1505 -4.0577  1.4735
  666SOL    HW2 2663   2.679   2.950   1.708 -0.5409 -2.5090  2.0865
  666SOL     MW 2664   2.749   3.005   1.696  0.0091 -0.8521  0.6355
  667SOL     OW 2665   1.978   2.667   1.766 -0.0880  0.2166 -0.2975
  667SOL    HW1 2666   2.020   2.608   1.826 -1.6801  1.4489  1.3552
  667SOL    HW2 2667   2.047   2.733   1.743  1.9832 -0.0594  0.0525
  667SOL     MW 2668   1.993   2.668   1.771 -0.0248  0.3428 -0.0333
  668SOL     OW 2669   2.746   0.619   0.796  0.4250  0.0528  0.9134
  668SOL    HW1 2670   2.805   0.623   0.876  2.3299  1.2555  0.4379
  668SOL    HW2 2671   2.680   0.696   0.805 -2.5664  1.7569  0.1423
  668SOL     MW 2672   2.745   0.630   0.808  0.2816  0.4363  0.7489
  669SOL     OW 2673   0.223   0.972   0.704 -0.0109  0.0349 -0.5336
  669SOL    HW1 2674   0.154   0.995   0.766  4.7334  0.1092 -1.8704
  669SOL    HW2 2675   0.288   0.944   0.772 -0.3055 -0.9248 -0.7094
  669SOL     MW 2676   0.223   0.971   0.721  0.5762 -0.0819 -0.7332
  670SOL     OW 2677   2.894   0.229   0.231  0.3084  0.0593  0.3009
  670SOL    HW1 2678   2.917   0.181   0.146  1.9805  0.8663  0.6126
  670SOL    HW2 2679   2.867   0.315   0.198  0.4107  1.5710  1.9740
  670SOL     MW 2680   2.894   0.234   0.215  0.5425  0.3652  0.5628
  671SOL     OW 2681   2.039   2.955   1.469 -0.7232  0.2168 -0.2228
  671SOL    HW1 2682   1.978   2.978   1.402  2.1294 -0.0276 -1.7935
  671SOL    HW2 2683   2.010   3.007   1.546  0.0767 -1.3321  1.4574
  671SOL     MW 2684   2.027   2.965   1.470 -0.2413 -0.0198 -0.2083
  672SOL     OW 2685   1.912   1.666   1.327  0.1731 -0.1752 -0.3520
  672SOL    HW1 2686   1.819   1.680   1.343  1.6444  2.8089 -0.2971
  672SOL    HW2 2687   1.922   1.729   1.249  0.4627 -2.2732 -1.2641
  672SOL     MW 2688   1.901   1.676   1.318  0.4054 -0.0583 -0.4651
  673SOL     OW 2689   2.750   1.076   0.593 -0.2653  0.0727 -0.0569
  673SOL    HW1 2690   2.777   0.987   0.626 -1.3703  1.0830  1.3862
  673SOL    HW2 2691   2.829   1.126   0.613  0.4019 -0.8033  1.7461
  673SOL     MW 2692   2.764   1.071   0.600 -0.3231  0.0904  0.3714
  674SOL     OW 2693   2.447   0.027   1.276 -0.4452  0.3917  0.3279
  674SOL    HW1 2694   2.447   0.024   1.177  0.6479  1.6997  0.6648
  674SOL    HW2 2695   2.449  -0.064   1.307 -0.2374  1.2070  0.6875
  674SOL     MW 2696   2.447   0.015   1.267 -0.2736  0.6718  0.4198
  675SOL     OW 2697   3.023   0.860   1.059  0.3070  0.2502 -0.2905
  675SOL    HW1 2698   3.096   0.838   1.121 -0.2490 -2.4962 -1.3607
  675SOL    HW2 2699   3.072   0.910   0.997  1.2788 -0.8162  3.2210
  675SOL     MW 2700   3.039   0.864   1.059  0.3619 -0.2529  0.0316
  676SOL     OW 2701   2.847   1.493   1.676  0.5352  0.4245 -0.3643
  676SOL    HW1 2702   2.807   1.397   1.651 -1.4162 -1.8602 -0.6615
  676SOL    HW2 2703   2.923   1.456   1.728  1.0520 -2.9659 -1.2584
  676SOL     MW 2704   2.852   1.476   1.680  0.3459 -0.3243 -0.5215
  677SOL     OW 2705   2.402   0.626   1.964 -0.3170 -0.5130  0.1789
  677SOL    HW1 2706   2.356   0.594   1.890  0.1834  2.0992 -0.9350
  677SOL    HW2 2707   2.351   0.689   2.017 -0.0840 -1.1743 -2.0499
  677SOL     MW 2708   2.389   0.630   1.961 -0.2203 -0.2556 -0.2622
  678SOL     OW 2709   2.516   1.644   0.360 -0.1856  0.3496 -0.4149
  678SOL    HW1 2710   2.431   1.697   0.369  0.9268  0.7494  1.2491
  678SOL    HW2 2711   2.494   1.577   0.286 -1.8448 -1.6847 -0.6985
  678SOL     MW 2712   2.502   1.642   0.352 -0.2577  0.1339 -0.2328
  679SOL     OW 2713   2.256   0.496   1.207 -0.2205 -0.1824  0.1964
  679SOL    HW1 2714   2.206   0.414   1.198 -1.8306  0.6734  0.4852
  679SOL    HW2 2715   2.193   0.567   1.200  0.8420  0.1419 -0.5109
  679SOL     MW 2716   2.241   0.494   1.205 -0.2928 -0.0267  0.1412
  680SOL     OW 2717   2.318   0.170   1.518  0.0856  0.2479 -0.0857
  680SOL    HW1 2718   2.239   0.169   1.468  3.0791 -1.1749  2.2271
  680SOL    HW2 2719   2.366   0.117   1.456  0.8542  3.1727  2.4596
  680SOL     MW 2720   2.314   0.162   1.503  0.5820  0.4461  0.5552
  681SOL     OW 2721   0.298   0.593   1.580 -0.4169  0.3723  0.3139
  681SOL    HW1 2722   0.277   0.510   1.616  2.4015  2.6233 -3.0018
  681SOL    HW2 2723   0.388   0.593   1.553 -1.9369  1.1344 -1.5396
  681SOL     MW 2724   0.307   0.582   1.581 -0.2456  0.7698 -0.3681
  682SOL     OW 2725   0.078   2.899   1.479 -0.0342 -0.3992  0.1638
  682SOL    HW1 2726   0.117   2.982   1.450 -1.1990 -0.6963  0.7619
  682SOL    HW2 2727   0.023   2.909   1.557  1.6648  1.0758  0.4940
  682SOL     MW 2728   0.076   2.911   1.486  0.0363 -0.2438  0.2862
  683SOL     OW 2729   2.062   0.885   2.998 -0.4047 -0.5872 -0.2446
  683SOL    HW1 2730   1.993   0.846   2.948  1.7908 -0.1229 -1.2493
  683SOL    HW2 2731   2.055   0.982   2.990  1.8528 -0.5760 -1.6714
  683SOL     MW 2732   2.052   0.893   2.990  0.1828 -0.5245 -0.5654
  684SOL     OW 2733   2.223   1.697   0.890 -0.0281  0.0217 -0.5973
  684SOL    HW1 2734   2.131   1.688   0.855  0.9689 -2.5480 -1.8603
  684SOL    HW2 2735   2.231   1.614   0.944 -1.3913  0.1524  2.4297
  684SOL     MW 2736   2.212   1.685   0.893 -0.0764 -0.3001 -0.3646
  685SOL     OW 2737   2.665   1.751   1.215 -0.2471  0.2139  0.2864
  685SOL    HW1 2738   2.681   1.723   1.308  2.3384  2.4633  0.6768
  685SOL    HW2 2739   2.618   1.674   1.175  0.3841 -1.6518  2.3413
  685SOL     MW 2740   2.661   1.737   1.222  0.1773  0.2646  0.6091
  686SOL     OW 2741   2.920   0.750   1.551 -0.1496  0.4369 -0.4354
  686SOL    HW1 2742   2.916   0.685   1.621 -1.7149  0.7416 -2.1590
  686SOL    HW2 2743   2.994   0.718   1.498 -1.6915 -1.2984  2.5428
  686SOL     MW 2744   2.929   0.737   1.553 -0.5595  0.2482 -0.2699
  687SOL     OW 2745   2.082   0.230   1.126  0.8431 -0.6362  0.1821
  687SOL    HW1 2746   2.104   0.161   1.066 -2.9469  0.6456 -2.9588
  687SOL    HW2 2747   2.039   0.289   1.063  1.4053 -1.5618 -0.4809
  687SOL     MW 2748   2.079   0.229   1.110  0.4172 -0.5892 -0.3198
  688SOL     OW 2749   2.378   0.611   1.426 -0.0318  0.5434  0.5294
  688SOL    HW1 2750   2.342   0.554   1.354 -0.1799 -2.4336  1.7602
  688SOL    HW2 2751   2.298   0.647   1.466  2.9318  3.1315 -1.2016
  688SOL     MW 2752   2.363   0.608   1.421  0.3396  0.4921  0.4634
  689SOL     OW 2753   2.552   0.732   2.974  0.1279  0.1772 -0.3399
  689SOL    HW1 2754   2.591   0.806   2.929 -1.7472 -0.1080  1.9151
  689SOL    HW2 2755   2.563   0.737   3.077 -2.2399  0.2347 -0.7644
  689SOL     MW 2756   2.558   0.743   2.982 -0.4319  0.1471 -0.0984
  690SOL     OW 2757   2.075   0.932   1.916  0.0843 -0.2674  0.9738
  690SOL    HW1 2758   2.007   0.861   1.903  1.7431  0.0549  0.9429
  690SOL    HW2 2759   2.116   0.939   1.830 -3.8841 -0.6506  0.1230
  690SOL     MW 2760   2.071   0.924   1.903 -0.2204 -0.2755  0.8574
  691SOL     OW 2761   2.424   0.260   0.870 -0.0715  0.5502  0.0888
  691SOL    HW1 2762   2.503   0.309   0.894 -0.8837  1.1469  1.2185
  691SOL    HW2 2763   2.348   0.302   0.908  1.5854  0.1110  1.8223
  691SOL     MW 2764   2.425   0.272   0.878  0.0400  0.5710  0.4665
  692SOL     OW 2765   2.774   1.660   1.464 -0.1482  1.1063 -0.1844
  692SOL    HW1 2766   2.801   1.608   1.542 -2.8178 -1.3314  0.5380
  692SOL    HW2 2767   2.832   1.736   1.469 -2.8523  0.4172 -1.1532
  692SOL     MW 2768   2.785   1.663   1.475 -0.8572  0.6937 -0.2169
  693SOL     OW 2769   2.288   0.461   0.087 -0.9482 -0.3924 -0.0216
  693SOL    HW1 2770   2.229   0.393   0.048 -2.1971 -1.4414 -0.7250
  693SOL    HW2 2771   2.251   0.545   0.039  0.4851 -1.8531 -0.6303
  693SOL     MW 2772   2.275   0.463   0.075 -0.9239 -0.7235 -0.1947
  694SOL     OW 2773   1.899   1.221   1.128 -0.0679  0.2960 -0.1576
  694SOL    HW1 2774   1.988   1.219   1.172 -0.4048  0.8397  1.0906
  694SOL    HW2 2775   1.851   1.144   1.163  2.0055  1.1791 -1.1532
  694SOL     MW 2776   1.905   1.211   1.138  0.1612  0.4842 -0.1243
  695SOL     OW 2777   3.025   1.478   1.364 -0.1380  0.2929 -0.1795
  695SOL    HW1 2778   3.008   1.459   1.274  0.5048 -0.6169  1.7208
  695SOL    HW2 2779   2.951   1.528   1.387  0.0361 -0.3377 -0.3446
  695SOL     MW 2780   3.013   1.482   1.355 -0.0303  0.0896  0.0494
  696SOL     OW 2781   2.140   1.376   0.879  0.5224  0.3831  0.0190
  696SOL    HW1 2782   2.173   1.404   0.967 -1.4200 -2.8419 -2.7845
  696SOL    HW2 2783   2.082   1.301   0.889  0.2083  0.1502  0.6850
  696SOL     MW 2784   2.137   1.370   0.892  0.2247 -0.0731 -0.2630
  697SOL     OW 2785   2.940   1.081   2.184 -0.2814 -0.7026  0.1637
  697SOL    HW1 2786   2.884   1.152   2.173  1.7075  0.8245  1.5849
  697SOL    HW2 2787   2.904   1.008   2.132  0.8404  1.1516  1.9680
  697SOL     MW 2788   2.928   1.081   2.176  0.1290 -0.2564  0.5893
  698SOL     OW 2789   2.534   0.305   0.047  0.2927 -0.4820 -0.2713
  698SOL    HW1 2790   2.453   0.352   0.074  1.1120  1.5437  0.9020
  698SOL    HW2 2791   2.567   0.241   0.119  1.6029 -0.5258  0.5025
  698SOL     MW 2792   2.528   0.303   0.060  0.5737 -0.2205 -0.0144
  699SOL     OW 2793   1.844   1.625   1.990 -0.4461 -0.0045 -0.0450
  699SOL    HW1 2794   1.814   1.539   2.015  4.1030  2.8105  2.5240
  699SOL    HW2 2795   1.936   1.609   2.003 -2.8235 -3.5111  0.0594
  699SOL     MW 2796   1.852   1.611   1.995 -0.1596 -0.0958  0.3078
  700SOL     OW 2797   2.706   0.943   1.487 -0.0337 -0.1922 -0.1314
  700SOL    HW1 2798   2.710   1.019   1.427 -0.1296  1.3256  1.0539
  700SOL    HW2 2799   2.799   0.910   1.495  2.0437  1.2470  0.2902
  700SOL     MW 2800   2.719   0.948   1.480  0.2277  0.1980  0.0807
  701SOL     OW 2801   1.618   1.233   2.473  0.0508 -0.6198 -0.1921
  701SOL    HW1 2802   1.715   1.248   2.455  0.7626 -0.5879 -0.3851
  701SOL    HW2 2803   1.604   1.244   2.564  0.4041  2.1475 -0.6876
  701SOL     MW 2804   1.629   1.237   2.483  0.1913 -0.2504 -0.2829
  702SOL     OW 2805   2.197   0.422   0.872 -0.4557 -0.2073  0.0543
  702SOL    HW1 2806   2.164   0.363   0.797  1.8068 -1.8746 -0.8654
  702SOL    HW2 2807   2.219   0.509   0.837  0.1641 -0.3598 -1.0224
  702SOL     MW 2808   2.196   0.426   0.857 -0.0754 -0.4474 -0.2091
  703SOL     OW 2809   2.745   1.240   0.996 -0.0347  0.1921 -0.1102
  703SOL    HW1 2810   2.680   1.223   0.924  0.4938 -0.7291  0.1082
  703SOL    HW2 2811   2.757   1.160   1.042 -1.0077 -0.5929  2.2299
  703SOL     MW 2812   2.738   1.227   0.993 -0.0933 -0.0330  0.2274
  704SOL     OW 2813   3.079   1.266   0.197 -0.6634 -0.3526 -0.4858
  704SOL    HW1 2814   2.990   1.230   0.165 -1.9302 -1.1252  1.9454
  704SOL    HW2 2815   3.074   1.251   0.286 -2.3630 -1.8014 -1.8929
  704SOL     MW 2816   3.067   1.259   0.204 -1.0548 -0.6457 -0.3507
  705SOL     OW 2817   2.217   1.644   1.326 -0.1844  0.2695 -0.1424
  705SOL    HW1 2818   2.114   1.662   1.325 -0.0484  0.9319 -0.6477
  705SOL    HW2 2819   2.233   1.546   1.344  0.6703 -3.0081 -0.3471
  705SOL     MW 2820   2.206   1.634   1.328 -0.0537 -0.0755 -0.2361
  706SOL     OW 2821   2.980   1.211   0.690  0.8321 -0.1560 -0.2242
  706SOL    HW1 2822   3.037   1.223   0.610  0.1177  0.8998  0.8863
  706SOL    HW2 2823   2.954   1.303   0.714  2.0339 -1.2649  0.2692
  706SOL     MW 2824   2.984   1.225   0.682  0.8964 -0.1630 -0.0126
  707SOL     OW 2825   2.424   0.021   1.013  0.3011 -0.2914  0.3032
  707SOL    HW1 2826   2.440   0.105   0.972  2.4103 -3.1699  1.0486
  707SOL    HW2 2827   2.332   0.010   1.015 -0.7952  2.2749  0.6791
  707SOL     MW 2828   2.414   0.031   1.008  0.4347 -0.3326  0.4511
  708SOL     OW 2829   2.513   1.476   0.128 -0.4327 -0.2650  0.5328
  708SOL    HW1 2830   2.593   1.428   0.142  0.1153 -0.2435 -0.0545
  708SOL    HW2 2831   2.506   1.483   0.032 -2.2594 -0.0544 -2.5066
  708SOL     MW 2832   2.522   1.471   0.117 -0.6014 -0.2344  0.0543
  709SOL     OW 2833   1.759   1.652   0.142  0.3292 -1.0658  0.7355
  709SOL    HW1 2834   1.709   1.704   0.078 -3.0431  2.4591 -0.3411
  709SOL    HW2 2835   1.698   1.665   0.218  0.6366 -1.3688  1.7409
  709SOL     MW 2836   1.744   1.660   0.144 -0.0751 -0.6407  0.7261
  710SOL     OW 2837   2.195   1.177   1.242  0.4823 -0.2922  0.1280
  710SOL    HW1 2838   2.233   1.135   1.164 -1.6768 -1.2177 -0.8292
  710SOL    HW2 2839   2.155   1.102   1.293 -0.2218 -0.2311  3.1268
  710SOL     MW 2840   2.194   1.161   1.239  0.1045 -0.4063  0.3974
  711SOL     OW 2841   2.351   0.119   1.783 -0.1252 -0.2648  0.0486
  711SOL    HW1 2842   2.444   0.125   1.783 -1.6669  1.2984  0.8162
  711SOL    HW2 2843   2.320   0.097   1.699  0.7372  2.7629  1.6615
  711SOL     MW 2844   2.359   0.117   1.772 -0.2148  0.3409  0.3627
  712SOL     OW 2845   1.921   0.523   0.039  0.1894 -0.1040  0.5170
  712SOL    HW1 2846   1.852   0.561  -0.015  1.2948  0.6113  0.9528
  712SOL    HW2 2847   1.933   0.587   0.106  1.9823 -4.0908 -2.0392
  712SOL     MW 2848   1.914   0.536   0.041  0.5718 -0.5356  0.2373
  713SOL     OW 2849   2.582   0.800   1.105 -0.2939 -0.1055  0.3408
  713SOL    HW1 2850   2.569   0.703   1.078 -1.8474 -1.6609 -0.4683
  713SOL    HW2 2851   2.510   0.817   1.164  0.2313 -0.5578  0.6769
  713SOL     MW 2852   2.571   0.789   1.109 -0.4296 -0.3704  0.2784
  714SOL     OW 2853   2.199   0.226   1.990 -0.2413  0.1959  0.4803
  714SOL    HW1 2854   2.241   0.184   2.068 -0.4815  0.4774 -3.1825
  714SOL    HW2 2855   2.249   0.193   1.911 -0.0114 -3.8824 -0.4450
  714SOL     MW 2856   2.211   0.216   1.990 -0.2427 -0.3051 -0.1250
  715SOL     OW 2857   1.727   1.954   1.675  0.1760  0.1180  0.0841
  715SOL    HW1 2858   1.807   1.935   1.629 -2.8108  3.0363 -0.6577
  715SOL    HW2 2859   1.696   1.872   1.719 -0.5197  0.1668  1.4673
  715SOL     MW 2860   1.733   1.941   1.674 -0.3099  0.5095  0.1687
  716SOL     OW 2861   2.332   0.637   0.705 -0.4605  0.3124 -0.7741
  716SOL    HW1 2862   2.381   0.565   0.665  0.5565 -0.3317  1.1106
  716SOL    HW2 2863   2.265   0.666   0.644  0.6299  1.7201 -3.2152
  716SOL     MW 2864   2.330   0.631   0.692 -0.1824  0.4132 -0.8475
  717SOL     OW 2865   2.894   1.508   2.931 -0.0271  0.3976  0.1929
  717SOL    HW1 2866   2.986   1.528   2.947  0.2706 -0.0666 -0.0545
  717SOL    HW2 2867   2.838   1.564   2.987 -0.3380 -0.5187  1.9112
  717SOL     MW 2868   2.898   1.518   2.940 -0.0288  0.2155  0.3870
  718SOL     OW 2869   2.620   1.378   1.347  0.6984  0.5340 -0.6274
  718SOL    HW1 2870   2.627   1.418   1.430 -1.1259 -0.8707  2.1595
  718SOL    HW2 2871   2.696   1.326   1.349  0.5983 -0.5234  1.0645
  718SOL     MW 2872   2.631   1.376   1.358  0.4445  0.2092 -0.0365
  719SOL     OW 2873   2.216   1.343   0.617 -0.7473 -0.5865 -0.1316
  719SOL    HW1 2874   2.309   1.360   0.604  0.4598 -1.9066  1.7509
  719SOL    HW2 2875   2.203   1.331   0.711 -2.4172  0.2673  1.0984
  719SOL     MW 2876   2.226   1.344   0.628 -0.8084 -0.6481  0.2790
  720SOL     OW 2877   2.873   1.152   0.066 -0.4505  0.4126 -0.4879
  720SOL    HW1 2878   2.829   1.066   0.079 -0.9779 -0.6716 -1.3646
  720SOL    HW2 2879   2.811   1.218   0.108 -3.4003  3.2902 -1.1154
  720SOL     MW 2880   2.859   1.149   0.073 -0.9093  0.6492 -0.6864
  721SOL     OW 2881   2.431   0.881   1.355 -0.1817 -0.9809 -0.0122
  721SOL    HW1 2882   2.414   0.797   1.402  0.3620  0.1582 -0.4323
  721SOL    HW2 2883   2.521   0.891   1.371 -0.2913 -1.5161  3.9826
  721SOL     MW 2884   2.441   0.871   1.364 -0.1244 -0.9012  0.4595
  722SOL     OW 2885   2.573   1.157   0.368  0.0529  0.5451 -0.0140
  722SOL    HW1 2886   2.528   1.221   0.420 -2.3724 -0.5431  0.3652
  722SOL    HW2 2887   2.605   1.095   0.442 -0.6716 -2.6993  0.7660
  722SOL     MW 2888   2.571   1.157   0.385 -0.3627 -0.0266  0.1389
  723SOL     OW 2889   2.260   1.418   1.646  0.0914  0.3943  0.4781
  723SOL    HW1 2890   2.298   1.403   1.559  0.5251  1.0638 -1.3685
  723SOL    HW2 2891   2.188   1.478   1.626 -1.9305 -2.8271 -1.0756
  723SOL     MW 2892   2.256   1.424   1.632 -0.1182  0.0576  0.0295
  724SOL     OW 2893   2.473   0.399   0.631 -0.5140 -0.3223  0.1028
  724SOL    HW1 2894   2.449   0.345   0.707  0.7526  2.5759  0.5749
  724SOL    HW2 2895   2.569   0.395   0.626  0.1762 -0.7816 -0.5772
  724SOL     MW 2896   2.482   0.391   0.641 -0.2558 -0.0005  0.0754
  725SOL     OW 2897   2.561   0.534   1.180  0.9306  0.6379  0.4092
  725SOL    HW1 2898   2.641   0.544   1.238 -1.7364 -0.7385 -2.4132
  725SOL    HW2 2899   2.484   0.545   1.233 -0.0263  0.4057  2.0880
  725SOL     MW 2900   2.562   0.537   1.195  0.4525  0.4257  0.2583
  726SOL     OW 2901   2.591   2.446   0.531  0.4620 -0.2974 -0.3562
  726SOL    HW1 2902   2.539   2.500   0.470 -1.8373 -3.3165  1.7063
  726SOL    HW2 2903   2.528   2.419   0.593 -1.2549  3.4102  0.8535
  726SOL     MW 2904   2.576   2.450   0.531 -0.0679 -0.2066  0.0755
  727SOL     OW 2905   2.878   0.299   1.626 -0.5579 -0.0050 -0.0382
  727SOL    HW1 2906   2.875   0.330   1.538 -1.5896 -0.6327 -1.1171
  727SOL    HW2 2907   2.798   0.329   1.664  0.7006  0.4999  1.3535
  727SOL     MW 2908   2.867   0.307   1.620 -0.5280 -0.0212  0.0031
  728SOL     OW 2909   2.811   1.146   2.904  0.5206  0.5039 -0.4028
  728SOL    HW1 2910   2.811   1.230   2.862 -1.6068 -0.9647  0.5729
  728SOL    HW2 2911   2.827   1.154   3.000 -2.0725 -0.5135 -0.5880
  728SOL     MW 2912   2.813   1.158   2.911 -0.1022  0.1759 -0.2985
  729SOL     OW 2913   2.552   1.543   1.103 -0.1455 -0.4549  0.4749
  729SOL    HW1 2914   2.590   1.464   1.142 -2.3726 -2.7548 -0.8297
  729SOL    HW2 2915   2.595   1.554   1.010  0.1573 -0.3643  0.6959
  729SOL     MW 2916   2.562   1.534   1.096 -0.3994 -0.7464  0.3320
  730SOL     OW 2917   2.143   1.183   0.231 -0.1659  0.0395 -0.4398
  730SOL    HW1 2918   2.241   1.169   0.231  2.7062 -1.1719  2.8479
  730SOL    HW2 2919   2.133   1.277   0.245 -0.4146 -0.9891  0.9611
  730SOL     MW 2920   2.154   1.194   0.233  0.1802 -0.2560  0.1788
  731SOL     OW 2921   2.862   1.898   2.880 -0.1015  0.0954 -0.3936
  731SOL    HW1 2922   2.778   1.938   2.834 -3.2206  3.9295  0.3725
  731SOL    HW2 2923   2.921   1.976   2.873  0.0569  0.8571 -0.8432
  731SOL     MW 2924   2.858   1.914   2.873 -0.4921  0.7018 -0.3518
  732SOL     OW 2925   2.164   0.952   1.377 -0.2372  0.8362 -0.0586
  732SOL    HW1 2926   2.157   0.980   1.469 -0.7301  2.9458  0.2629
  732SOL    HW2 2927   2.255   0.930   1.361 -0.0042 -1.4027 -2.9262
  732SOL     MW 2928   2.175   0.953   1.387 -0.2715  0.8191 -0.3946
  733SOL     OW 2929   2.322   2.794   3.037 -0.6269 -0.6844  0.4939
  733SOL    HW1 2930   2.250   2.845   3.003  0.4369 -1.3359  1.2950
  733SOL    HW2 2931   2.300   2.698   3.028  0.8866 -0.4037  0.1854
  733SOL     MW 2932   2.310   2.788   3.032 -0.2868 -0.7333  0.5589
  734SOL     OW 2933   1.503   0.378   2.457  0.0666  0.7899 -0.1272
  734SOL    HW1 2934   1.497   0.336   2.540 -1.2520 -1.1458 -0.3538
  734SOL    HW2 2935   1.540   0.305   2.400  1.1084 -1.4903  1.1535
  734SOL     MW 2936   1.507   0.363   2.460  0.0301  0.2337  0.0119
  735SOL     OW 2937   2.941   0.941   2.582 -0.3721 -0.0426 -0.1442
  735SOL    HW1 2938   2.926   0.843   2.605  3.2679  0.6276  0.0268
  735SOL    HW2 2939   2.995   0.971   2.656 -0.0214  1.5029  1.0255
  735SOL     MW 2940   2.946   0.932   2.595  0.1544  0.2498  0.0327
  736SOL     OW 2941   0.137   0.578   2.548  0.0036 -0.1342 -0.0257
  736SOL    HW1 2942   0.175   0.656   2.498  0.9435  2.1541 -2.9295
  736SOL    HW2 2943   0.103   0.525   2.474  1.3003 -0.3100 -0.4572
  736SOL     MW 2944   0.138   0.582   2.532  0.2987  0.1445 -0.4657
  737SOL     OW 2945   2.942   0.672   2.593  0.2990 -0.1160 -0.6539
  737SOL    HW1 2946   2.899   0.643   2.512  0.2204 -0.5111 -0.6723
  737SOL    HW2 2947   3.037   0.664   2.585  1.0261 -1.1593 -2.3584
  737SOL     MW 2948   2.949   0.667   2.581  0.3846 -0.3058 -0.8813
  738SOL     OW 2949   0.232   0.567   1.900  0.7294  0.3161 -0.0296
  738SOL    HW1 2950   0.321   0.597   1.903  0.0554 -0.0918 -1.6721
  738SOL    HW2 2951   0.229   0.485   1.842 -2.0586  0.3341 -1.4146
  738SOL     MW 2952   0.243   0.560   1.893  0.2726  0.2647 -0.4290
  739SOL     OW 2953   2.418   1.046   2.130 -0.2685  0.0057 -0.1249
  739SOL    HW1 2954   2.347   0.988   2.101 -0.9897 -0.9008  0.6266
  739SOL    HW2 2955   2.483   1.044   2.061 -1.6974  0.0480 -1.4284
  739SOL     MW 2956   2.417   1.038   2.117 -0.5522 -0.1083 -0.1978
  740SOL     OW 2957   0.203   1.772   2.989  0.9855 -0.0797 -0.1119
  740SOL    HW1 2958   0.140   1.696   2.991 -0.8678  1.7115  0.5688
  740SOL    HW2 2959   0.295   1.751   3.009  1.6107  0.4193  0.2724
  740SOL     MW 2960   0.207   1.759   2.992  0.8235  0.2225  0.0286
  741SOL     OW 2961   2.270   1.285   2.701  0.2326 -0.2991  0.4581
  741SOL    HW1 2962   2.216   1.339   2.644 -0.4740  0.7983 -0.7753
  741SOL    HW2 2963   2.232   1.291   2.792 -1.4090 -3.7396  0.7311
  741SOL     MW 2964   2.258   1.293   2.705 -0.0772 -0.6083  0.3314
  742SOL     OW 2965   1.573   1.271   2.215  0.1732 -0.4832 -0.8841
  742SOL    HW1 2966   1.537   1.189   2.179 -2.3149  0.3071 -1.7182
  742SOL    HW2 2967   1.568   1.266   2.310 -1.2523 -1.6030  0.1897
  742SOL     MW 2968   1.568   1.259   2.223 -0.3432 -0.5267 -0.8525
  743SOL     OW 2969   2.532   1.264   2.800 -0.3329  0.4089 -0.0580
  743SOL    HW1 2970   2.435   1.271   2.786  0.9319 -1.6895 -1.8893
  743SOL    HW2 2971   2.550   1.168   2.818  0.7978 -5.3010  0.7493
  743SOL     MW 2972   2.521   1.253   2.800 -0.0169 -0.6213 -0.1931
  744SOL     OW 2973   2.745   0.971   1.781 -0.1071 -1.0377  0.1455
  744SOL    HW1 2974   2.667   1.027   1.811 -2.4282 -0.2274 -0.7091
  744SOL    HW2 2975   2.725   0.936   1.693  0.1715 -0.1542  0.6112
  744SOL     MW 2976   2.732   0.973   1.774 -0.3766 -0.8142  0.0942
  745SOL     OW 2977   1.770   0.414   2.511 -0.6882 -0.1684  0.2023
  745SOL    HW1 2978   1.800   0.461   2.431 -1.3643 -0.4282  0.5674
  745SOL    HW2 2979   1.677   0.403   2.492  1.2816 -0.2926  2.6509
  745SOL     MW 2980   1.762   0.419   2.498 -0.5175 -0.2191  0.5736
  746SOL     OW 2981   1.475   1.430   1.666 -0.0619 -0.1106 -0.9228
  746SOL    HW1 2982   1.559   1.476   1.674 -0.0392 -0.2736 -1.7712
  746SOL    HW2 2983   1.449   1.402   1.755  1.2918 -1.3858  0.9347
  746SOL     MW 2984   1.483   1.432   1.679  0.1197 -0.3003 -0.7897
  747SOL     OW 2985   2.545   1.163   1.881 -0.7316  0.3177 -0.5366
  747SOL    HW1 2986   2.466   1.171   1.833 -1.2933  0.7212  3.1509
  747SOL    HW2 2987   2.550   1.245   1.933  0.8885 -1.5924  1.3177
  747SOL     MW 2988   2.535   1.175   1.881 -0.5920  0.1189  0.1946
  748SOL     OW 2989   0.095   0.054   1.843  0.3075  0.7911 -1.2907
  748SOL    HW1 2990   0.187   0.046   1.867  1.3031 -0.1904  1.2286
  748SOL    HW2 2991   0.059   0.101   1.916 -0.3444  1.0786 -1.3575
  748SOL     MW 2992   0.103   0.059   1.856  0.3529  0.6995 -0.9671
  749SOL     OW 2993   2.417   0.526   2.784  0.2162 -0.1606  0.3661
  749SOL    HW1 2994   2.458   0.607   2.757 -0.8748  1.7359 -3.4155
  749SOL    HW2 2995   2.413   0.516   2.885  0.2422 -0.1375  1.0655
  749SOL     MW 2996   2.422   0.535   2.794  0.0757  0.0927 -0.0406
  750SOL     OW 2997   2.056   0.001   1.948  0.3402  0.2892 -0.1998
  750SOL    HW1 2998   2.092   0.089   1.960 -0.6804 -1.1355 -0.4524
  750SOL    HW2 2999   2.139  -0.049   1.940  4.8325  2.1466  0.3874
  750SOL     MW 3000   2.072   0.006   1.948  0.7983  0.3463 -0.1556
  751SOL     OW 3001   0.028   0.429   2.321  0.0656 -0.2585 -0.6794
  751SOL    HW1 3002  -0.052   0.384   2.335 -1.0607  1.1199 -0.4588
  751SOL    HW2 3003   0.067   0.401   2.233  0.8763 -0.1511 -1.0246
  751SOL     MW 3004   0.022   0.420   2.311  0.0239 -0.0625 -0.6958
  752SOL     OW 3005   2.141   0.866   2.708 -0.0277 -0.2194 -0.1969
  752SOL    HW1 3006   2.206   0.933   2.681  0.5941 -0.1550  0.7693
  752SOL    HW2 3007   2.158   0.857   2.801  1.9944  1.7604 -0.9981
  752SOL     MW 3008   2.152   0.874   2.716  0.3211  0.0503 -0.1752
  753SOL     OW 3009   2.868   0.311   2.317  0.4026 -0.2539 -0.1949
  753SOL    HW1 3010   2.802   0.242   2.302 -0.6452  0.3318  0.3559
  753SOL    HW2 3011   2.811   0.385   2.345 -2.2290 -3.0527  0.7417
  753SOL     MW 3012   2.852   0.312   2.319 -0.0829 -0.5459  0.0013
  754SOL     OW 3013   2.222   3.024   2.669  0.4144 -0.1550  0.3274
  754SOL    HW1 3014   2.222   3.013   2.570 -0.3068 -0.6876  0.9202
  754SOL    HW2 3015   2.295   2.971   2.701 -2.3238  0.9263  0.0137
  754SOL     MW 3016   2.232   3.015   2.660 -0.0421 -0.0826  0.3642
  755SOL     OW 3017   2.756   1.567   2.490 -0.4472 -0.1226  0.0503
  755SOL    HW1 3018   2.724   1.489   2.535 -3.6516  3.2801  3.1330
  755SOL    HW2 3019   2.810   1.605   2.555  0.9658  0.9096 -2.6101
  755SOL     MW 3020   2.759   1.562   2.504 -0.6835  0.4626  0.1060
  756SOL     OW 3021   2.254   1.292   2.997 -0.1506  0.0972 -0.3910
  756SOL    HW1 3022   2.323   1.354   2.981 -0.5378 -1.3686 -0.7912
  756SOL    HW2 3023   2.307   1.214   3.022  1.8842  1.7151 -0.1780
  756SOL     MW 3024   2.270   1.290   2.998  0.0668  0.1173 -0.4157
  757SOL     OW 3025   2.123   0.955   1.656 -0.1447 -0.0422 -1.1347
  757SOL    HW1 3026   2.138   0.859   1.635 -0.4370  0.1545 -1.0014
  757SOL    HW2 3027   2.033   0.973   1.624  0.9699  1.1773 -1.3882
  757SOL     MW 3028   2.113   0.945   1.649 -0.0362  0.1447 -1.1506
  758SOL     OW 3029   2.220   1.762   2.676 -0.6066 -0.1343 -0.1331
  758SOL    HW1 3030   2.207   1.784   2.583 -1.9053 -2.2203 -1.5606
  758SOL    HW2 3031   2.305   1.707   2.675 -0.8408 -0.4304 -3.6830
  758SOL     MW 3032   2.230   1.758   2.664 -0.8089 -0.4486 -0.7898
  759SOL     OW 3033   1.564   1.322   2.727  0.1554 -0.1365  0.6111
  759SOL    HW1 3034   1.559   1.400   2.667  2.1373  0.1306 -2.3729
  759SOL    HW2 3035   1.627   1.339   2.792 -0.1454  1.3987 -1.4357
  759SOL     MW 3036   1.572   1.334   2.727  0.3772  0.1013 -0.0526
  760SOL     OW 3037   2.621   1.930   2.710 -0.4894 -0.1097  0.2584
  760SOL    HW1 3038   2.580   1.858   2.674  0.7990 -0.9184  1.1702
  760SOL    HW2 3039   2.663   1.973   2.637  0.5351  1.1994 -0.3964
  760SOL     MW 3040   2.621   1.926   2.695 -0.1842 -0.0437  0.2923
  761SOL     OW 3041   2.101   0.456   2.467 -0.2807  0.1501  0.4186
  761SOL    HW1 3042   2.059   0.364   2.486  0.6589 -0.1308 -0.9330
  761SOL    HW2 3043   2.105   0.501   2.558 -1.0280  3.6132 -1.1300
  761SOL     MW 3044   2.096   0.450   2.481 -0.2553  0.5699  0.0359
  762SOL     OW 3045   3.098   0.187   2.045  0.4478  0.2186  0.1387
  762SOL    HW1 3046   3.061   0.137   2.120  0.8011 -0.9288  2.4897
  762SOL    HW2 3047   3.051   0.271   2.031  0.8143  2.4986  0.4750
  762SOL     MW 3048   3.087   0.191   2.053  0.5427  0.3680  0.4933
  763SOL     OW 3049   2.375   1.140   2.371 -0.2638 -0.1210  0.1074
  763SOL    HW1 3050   2.395   1.109   2.283  1.9678  0.2549  0.9971
  763SOL    HW2 3051   2.443   1.201   2.397  0.2418 -0.2667 -2.2602
  763SOL     MW 3052   2.387   1.144   2.363  0.0973 -0.0906 -0.0876
  764SOL     OW 3053   0.356   0.187   2.827  0.6321  0.1451  0.0248
  764SOL    HW1 3054   0.263   0.182   2.809  0.4218  0.9826 -1.2602
  764SOL    HW2 3055   0.364   0.262   2.891  1.1556  0.0333  1.7796
  764SOL     MW 3056   0.344   0.196   2.833  0.6734  0.2408  0.0868
  765SOL     OW 3057   2.681   0.109   2.294 -0.1019 -0.4440 -0.2354
  765SOL    HW1 3058   2.617   0.075   2.232 -1.7503 -0.8488 -0.8913
  765SOL    HW2 3059   2.734   0.032   2.309 -1.3386 -0.0896 -0.4116
  765SOL     MW 3060   2.680   0.094   2.288 -0.4825 -0.4507 -0.3451
  766SOL     OW 3061   1.851   3.024   2.140  0.0585  0.1640 -0.3533
  766SOL    HW1 3062   1.921   3.068   2.091  0.8379 -3.5531  0.0629
  766SOL    HW2 3063   1.805   2.972   2.071  0.5729  1.9969 -1.1969
  766SOL     MW 3064   1.854   3.023   2.125  0.2292 -0.0846 -0.4097
  767SOL     OW 3065   2.685   0.643   1.889  0.1466  0.6134  0.4574
  767SOL    HW1 3066   2.699   0.733   1.913  0.0665  1.7586  1.8178
  767SOL    HW2 3067   2.593   0.644   1.876  2.2495 -0.6189  2.6456
  767SOL     MW 3068   2.675   0.655   1.890  0.4135  0.6019  0.9256
  768SOL     OW 3069   0.056   1.547   2.958 -0.0113 -0.2334  0.2482
  768SOL    HW1 3070   0.088   1.516   3.043  1.7649 -1.0562 -0.6908
  768SOL    HW2 3071   0.107   1.505   2.890 -2.1801 -0.3682  1.9900
  768SOL     MW 3072   0.067   1.538   2.960 -0.0631 -0.3597  0.3541
  769SOL     OW 3073   2.356   0.666   2.352 -0.4246  0.3433 -0.4554
  769SOL    HW1 3074   2.290   0.609   2.325  0.3750  1.7408  1.0034
  769SOL    HW2 3075   2.434   0.618   2.322  0.3316  0.5004 -0.2951
  769SOL     MW 3076   2.358   0.652   2.344 -0.2193  0.5484 -0.2417
  770SOL     OW 3077   0.011   1.652   2.589  0.5734  0.2489  0.7000
  770SOL    HW1 3078  -0.075   1.673   2.631 -0.0215 -1.6672 -0.0617
  770SOL    HW2 3079   0.049   1.578   2.640 -1.5441  0.8772 -1.3216
  770SOL     MW 3080   0.004   1.645   2.601  0.2155  0.0790  0.3327
  771SOL     OW 3081   3.067   0.649   1.944 -0.2946  0.3011 -0.3014
  771SOL    HW1 3082   3.008   0.651   1.859 -2.1827  5.1700  0.8381
  771SOL    HW2 3083   3.152   0.624   1.916 -3.0008 -0.1178  0.4812
  771SOL     MW 3084   3.070   0.646   1.929 -0.9008  0.8883 -0.0478
  772SOL     OW 3085   3.092   0.037   2.288 -0.2480 -0.3309  0.0324
  772SOL    HW1 3086   3.000   0.001   2.309 -2.2536 -3.6474  0.1883
  772SOL    HW2 3087   3.146  -0.035   2.251  0.7775 -1.1083  1.9621
  772SOL     MW 3088   3.087   0.022   2.286 -0.3773 -0.8711  0.3076
  773SOL     OW 3089   2.435   2.841   2.763  0.1594 -0.3804 -0.3044
  773SOL    HW1 3090   2.433   2.760   2.708  2.5535 -1.6463 -0.7219
  773SOL    HW2 3091   2.418   2.801   2.848 -0.8272  0.1573 -1.2097
  773SOL     MW 3092   2.432   2.825   2.767  0.3451 -0.4765 -0.4789
  774SOL     OW 3093   2.287   1.165   1.736 -0.2028 -0.3533 -0.4112
  774SOL    HW1 3094   2.263   1.258   1.713  1.6305  2.8602  1.6659
  774SOL    HW2 3095   2.230   1.113   1.687  3.0297  0.3182 -0.4860
  774SOL     MW 3096   2.277   1.170   1.727  0.4655  0.1593 -0.1470
  775SOL     OW 3097   2.240   3.014   2.402 -0.1276  0.4543 -0.0784
  775SOL    HW1 3098   2.258   3.097   2.358 -2.2641  1.0781  1.4492
  775SOL    HW2 3099   2.310   2.953   2.378 -0.9660 -1.8059  2.6740
  775SOL     MW 3100   2.252   3.017   2.393 -0.5201  0.2384  0.4863
  776SOL     OW 3101   0.141   1.465   0.133  0.1099 -0.3472  0.5125
  776SOL    HW1 3102   0.224   1.413   0.131  1.1302  0.3017  2.6173
  776SOL    HW2 3103   0.077   1.401   0.163 -0.5057  0.2898  1.0509
  776SOL     MW 3104   0.143   1.449   0.137  0.1633 -0.1775  0.8613
  777SOL     OW 3105   2.996   1.071   1.719  0.4872  0.0243 -0.1229
  777SOL    HW1 3106   3.010   1.141   1.653  2.0816 -1.0355 -2.2389
  777SOL    HW2 3107   2.901   1.047   1.733 -2.3087  0.7725 -0.0864
  777SOL     MW 3108   2.985   1.077   1.712  0.3286 -0.0168 -0.3973
  778SOL     OW 3109   2.831   0.448   2.760  0.2181 -0.5306  0.2836
  778SOL    HW1 3110   2.773   0.444   2.834  1.5562 -0.6291 -1.4600
  778SOL    HW2 3111   2.860   0.533   2.734  1.1392  1.3356  0.3899
  778SOL     MW 3112   2.828   0.459   2.766  0.5162 -0.2973  0.0675
  779SOL     OW 3113   2.101   0.549   2.203 -0.1790  0.1450  0.6984
  779SOL    HW1 3114   2.057   0.628   2.191 -2.2140 -1.8244  1.2917
  779SOL    HW2 3115   2.060   0.505   2.275 -1.5949 -2.8436  2.0609
  779SOL     MW 3116   2.090   0.553   2.211 -0.6343 -0.5092  0.9565
  780SOL     OW 3117   0.114   0.231   2.708  0.1384 -0.4744  0.5386
  780SOL    HW1 3118   0.107   0.302   2.767  1.0287 -3.0341  0.9091
  780SOL    HW2 3119   0.031   0.225   2.658 -3.1509 -0.2034  3.2556
  780SOL     MW 3120   0.102   0.240   2.709 -0.1781 -0.7764  0.9460
  781SOL     OW 3121   3.034   1.312   2.513 -0.2426 -0.0299 -0.1710
  781SOL    HW1 3122   3.015   1.387   2.453  0.5002  1.6309  1.8332
  781SOL    HW2 3123   3.069   1.243   2.458  0.6222  0.7324  0.3205
  781SOL     MW 3124   3.036   1.313   2.498 -0.0305  0.2898  0.1583
  782SOL     OW 3125   0.699   1.515   3.094  0.4679 -0.3928  0.1909
  782SOL    HW1 3126   0.620   1.567   3.093 -1.4323 -0.8007  1.3070
  782SOL    HW2 3127   0.737   1.515   3.187  4.0848 -0.3238  1.0059
  782SOL     MW 3128   0.693   1.522   3.106  0.6944 -0.4375  0.4457
  783SOL     OW 3129   2.721   0.528   2.431  0.3305 -0.3385 -0.6268
  783SOL    HW1 3130   2.675   0.520   2.347  0.8245 -0.1465  0.4701
  783SOL    HW2 3131   2.664   0.478   2.495  0.6023  0.6046  0.1481
  783SOL     MW 3132   2.707   0.521   2.428  0.4315 -0.1887 -0.3799
  784SOL     OW 3133   0.174   0.830   2.777  0.3419  0.2286 -0.3854
  784SOL    HW1 3134   0.109   0.896   2.774  1.0652 -0.4104  2.3208
  784SOL    HW2 3135   0.252   0.859   2.716  1.7614 -1.1074 -0.6324
  784SOL     MW 3136   0.176   0.843   2.768  0.6246 -0.0320 -0.0609
  785SOL     OW 3137   0.420   0.515   2.174 -0.0647  0.2050 -0.0766
  785SOL    HW1 3138   0.438   0.575   2.102 -3.3195  0.6371 -0.2362
  785SOL    HW2 3139   0.343   0.464   2.149  0.2484  1.7164  0.3560
  785SOL     MW 3140   0.412   0.516   2.161 -0.4528  0.4614 -0.0406
  786SOL     OW 3141   1.972   0.309   2.931 -0.0894  0.5563  0.0639
  786SOL    HW1 3142   2.023   0.386   2.949 -1.9048 -1.4881 -1.4618
  786SOL    HW2 3143   2.013   0.277   2.849  1.8501  0.4854  1.6111
  786SOL     MW 3144   1.984   0.315   2.922 -0.0730  0.2772  0.0667
  787SOL     OW 3145   2.420   0.194   2.900 -0.7372  0.6901 -0.0094
  787SOL    HW1 3146   2.491   0.126   2.881  0.3417 -2.4288 -0.3513
  787SOL    HW2 3147   2.456   0.238   2.973  0.1642 -0.7157  1.1421
  787SOL     MW 3148   2.434   0.191   2.907 -0.4759  0.0931  0.0974
  788SOL     OW 3149   2.859   2.992   2.341  0.1826  0.2380  0.3401
  788SOL    HW1 3150   2.908   2.984   2.428  0.9138  3.4079  0.8398
  788SOL    HW2 3151   2.904   2.918   2.288 -1.5455 -0.4015 -2.6376
  788SOL     MW 3152   2.871   2.981   2.345  0.0511  0.5719  0.0131
  789SOL     OW 3153   0.087   0.165   3.056  0.1192  0.4835 -0.2655
  789SOL    HW1 3154   0.004   0.112   3.070 -2.1519 -0.7705  0.8889
  789SOL    HW2 3155   0.049   0.243   3.016 -2.6490 -0.3889  0.2506
  789SOL     MW 3156   0.071   0.168   3.053 -0.5457  0.2029 -0.0451
  790SOL     OW 3157   3.105   1.067   2.403 -0.3342 -0.0243  0.6380
  790SOL    HW1 3158   3.063   1.023   2.479 -0.1815  0.4843  4.7931
  790SOL    HW2 3159   3.044   1.063   2.327 -0.0280 -1.0326 -0.7102
  790SOL     MW 3160   3.091   1.060   2.403 -0.2737 -0.0903  1.0084
  791SOL     OW 3161   2.593   0.397   2.631 -0.4306  0.4262  0.6832
  791SOL    HW1 3162   2.525   0.447   2.669  1.4998  1.0506  2.3581
  791SOL    HW2 3163   2.676   0.417   2.682  0.5863  0.8422  0.6588
  791SOL     MW 3164   2.595   0.406   2.643 -0.0418  0.5634  0.9010
  792SOL     OW 3165   2.350   0.338   2.400 -0.2588  0.2079 -0.2989
  792SOL    HW1 3166   2.283   0.398   2.421  2.8537 -0.5226  1.9821
  792SOL    HW2 3167   2.364   0.315   2.489  1.2766  2.7828 -2.5351
  792SOL     MW 3168   2.343   0.342   2.414  0.3544  0.4513 -0.2930
  793SOL     OW 3169   1.889   1.150   1.945 -0.9686 -0.0815  0.2850
  793SOL    HW1 3170   1.846   1.161   1.852 -0.7195 -1.2939  0.0998
  793SOL    HW2 3171   1.972   1.102   1.935  0.9832  0.5803 -0.9239
  793SOL     MW 3172   1.894   1.145   1.931 -0.6782 -0.1542  0.1010
  794SOL     OW 3173   1.424   2.299   0.148  0.2773 -0.4804  0.3842
  794SOL    HW1 3174   1.452   2.365   0.087 -1.3857  2.0507 -0.9176
  794SOL    HW2 3175   1.479   2.310   0.227 -0.9345 -0.3531 -1.8021
  794SOL     MW 3176   1.435   2.309   0.150 -0.1020 -0.1297 -0.0760
  795SOL     OW 3177   2.332   1.026   2.635 -0.5644  0.0386  0.5475
  795SOL    HW1 3178   2.287   1.111   2.671 -0.4914 -0.0130  0.4043
  795SOL    HW2 3179   2.346   1.062   2.545  1.2330  1.6126 -1.5122
  795SOL     MW 3180   2.328   1.042   2.628 -0.3176  0.2395  0.2569
  796SOL     OW 3181   0.308   0.580   2.793  0.1893  0.4141 -0.1919
  796SOL    HW1 3182   0.267   0.657   2.846 -4.6494 -2.4965  1.5711
  796SOL    HW2 3183   0.249   0.574   2.721  1.5127  2.7710  0.3976
  796SOL     MW 3184   0.295   0.590   2.791 -0.2745  0.3411  0.1185
  797SOL     OW 3185   2.628   0.135   2.592 -0.3225 -0.1115 -0.1969
  797SOL    HW1 3186   2.606   0.223   2.604  0.7327 -4.0473 -2.5960
  797SOL    HW2 3187   2.620   0.135   2.500 -0.6606 -1.7699 -3.2103
  797SOL     MW 3188   2.624   0.147   2.581 -0.2279 -0.8496 -0.9110
  798SOL     OW 3189   2.304   0.140   2.225 -0.0273  0.0446  0.3733
  798SOL    HW1 3190   2.324   0.199   2.302 -1.1304  0.4515  2.4567
  798SOL    HW2 3191   2.382   0.101   2.184  1.4898 -0.7206  0.3354
  798SOL     MW 3192   2.317   0.143   2.230  0.0274 -0.0027  0.6432
  799SOL     OW 3193   2.545   2.942   3.087  0.0309  0.6879 -0.3923
  799SOL    HW1 3194   2.469   2.886   3.111  1.9760 -2.0262  0.3985
  799SOL    HW2 3195   2.519   3.023   3.054  1.0189  0.6732 -0.5261
  799SOL     MW 3196   2.532   2.945   3.086  0.4179  0.3279 -0.3056
  800SOL     OW 3197   1.972   3.093   1.694 -0.3165 -0.0145  0.6452
  800SOL    HW1 3198   1.889   3.049   1.708 -1.3513 -0.7590  0.1577
  800SOL    HW2 3199   2.009   3.102   1.779  0.9926  2.3952 -0.2477
  800SOL     MW 3200   1.966   3.088   1.707 -0.2803  0.2052  0.4631
  801SOL     OW 3201   2.791   1.288   2.646 -0.2757  0.0463 -0.3772
  801SOL    HW1 3202   2.760   1.195   2.643  0.6875  0.8599 -0.5550
  801SOL    HW2 3203   2.883   1.299   2.612  0.8312  2.9305  1.7418
  801SOL     MW 3204   2.799   1.277   2.641 -0.0025  0.5342 -0.1211
  802SOL     OW 3205   2.630   1.524   2.761  0.4751  0.1861  0.0185
  802SOL    HW1 3206   2.623   1.423   2.775 -0.4274 -0.6417 -1.3477
  802SOL    HW2 3207   2.722   1.540   2.766 -1.0145 -0.8201 -3.6984
  802SOL     MW 3208   2.641   1.513   2.763  0.1595 -0.0559 -0.6521
  803SOL     OW 3209   2.306   1.339   1.976  0.2135  0.0515  0.0972
  803SOL    HW1 3210   2.273   1.284   2.052 -1.2560 -1.4562  1.5735
  803SOL    HW2 3211   2.284   1.282   1.901 -1.5099 -0.6682  1.1619
  803SOL     MW 3212   2.299   1.324   1.976 -0.2078 -0.2424  0.4324
  804SOL     OW 3213   2.304   0.040   0.008  0.0879 -0.0265 -0.6362
  804SOL    HW1 3214   2.226   0.105   0.026 -0.6989  0.6219 -0.2846
  804SOL    HW2 3215   2.354   0.084  -0.062  0.8894  2.0936  1.4156
  804SOL     MW 3216   2.301   0.054   0.001  0.0898  0.3388 -0.3191
  805SOL     OW 3217   2.682   1.040   2.583  0.0415 -0.5954  0.3283
  805SOL    HW1 3218   2.636   1.045   2.498 -2.2002  4.0560  1.9567
  805SOL    HW2 3219   2.771   1.006   2.555  0.7994  1.6276  0.4252
  805SOL     MW 3220   2.688   1.036   2.568 -0.1543  0.3116  0.5559
  806SOL     OW 3221   2.535   0.488   2.198 -0.0279 -1.0084  0.4473
  806SOL    HW1 3222   2.480   0.414   2.200 -1.6365  1.8377 -1.7572
  806SOL    HW2 3223   2.496   0.532   2.118 -0.8561 -0.3236  0.8388
  806SOL     MW 3224   2.523   0.484   2.188 -0.3494 -0.5425  0.2081
  807SOL     OW 3225   0.031   1.164   1.978  0.3472 -0.4732 -0.2423
  807SOL    HW1 3226   0.040   1.068   1.992  0.6955 -0.0813  3.5437
  807SOL    HW2 3227  -0.045   1.173   2.027 -0.8675 -1.2093  0.5470
  807SOL     MW 3228   0.022   1.153   1.987  0.2328 -0.5186  0.3614
  808SOL     OW 3229   2.573   3.066   2.807 -0.7761 -0.1895 -0.3072
  808SOL    HW1 3230   2.531   2.978   2.781 -0.6151  1.0085 -2.4105
  808SOL    HW2 3231   2.605   3.106   2.722  0.2620 -0.6345 -1.2737
  808SOL     MW 3232   2.572   3.060   2.793 -0.6179 -0.0901 -0.7122
  809SOL     OW 3233   2.588   1.310   2.423 -0.7006 -0.5551 -0.2315
  809SOL    HW1 3234   2.642   1.273   2.494 -0.6803  1.7723 -1.0043
  809SOL    HW2 3235   2.652   1.342   2.361 -0.4479 -1.2385 -0.8375
  809SOL     MW 3236   2.604   1.309   2.424 -0.6645 -0.3382 -0.4134
  810SOL     OW 3237   2.189   1.280   2.234  0.0070 -0.0657  0.2126
  810SOL    HW1 3238   2.251   1.228   2.292 -0.1062 -1.4785  2.3026
  810SOL    HW2 3239   2.112   1.220   2.238  0.6908  0.5553 -2.0533
  810SOL     MW 3240   2.187   1.265   2.242  0.0823 -0.1702  0.1894
  811SOL     OW 3241   1.560   0.140   2.328  0.0409 -0.2073 -0.2502
  811SOL    HW1 3242   1.625   0.077   2.354 -0.9795  2.1306  0.9568
  811SOL    HW2 3243   1.559   0.136   2.229 -1.3981  2.1355 -0.9923
  811SOL     MW 3244   1.568   0.131   2.319 -0.2836  0.4102 -0.1889
  812SOL     OW 3245   1.475   2.868   2.074  0.3210  0.3852  0.8417
  812SOL    HW1 3246   1.557   2.880   2.031 -1.3051 -1.3363  2.8284
  812SOL    HW2 3247   1.489   2.812   2.148 -0.4990  2.2093 -0.3099
  812SOL     MW 3248   1.488   2.862   2.078 -0.0017  0.3987  0.9519
  813SOL     OW 3249   1.881   0.737   2.193 -0.2523  0.0827 -0.4632
  813SOL    HW1 3250   1.806   0.676   2.193  4.1382 -0.1792 -0.9146
  813SOL    HW2 3251   1.899   0.763   2.285  1.5179  2.1266  0.7854
  813SOL     MW 3252   1.874   0.732   2.205  0.5605  0.3178 -0.3580
  814SOL     OW 3253   2.727   1.257   1.592  0.1530  0.0222 -0.3156
  814SOL    HW1 3254   2.640   1.237   1.618  1.2823  3.5340  0.7820
  814SOL    HW2 3255   2.754   1.204   1.524  0.3828  0.8136  1.1068
  814SOL     MW 3256   2.719   1.247   1.587  0.3323  0.5900  0.0169
  815SOL     OW 3257   2.522   1.704   2.351 -0.3293 -0.7673 -0.8454
  815SOL    HW1 3258   2.458   1.650   2.314 -1.8239  0.1010  0.3642
  815SOL    HW2 3259   2.601   1.644   2.371  0.7980 -0.3602  0.8778
  815SOL     MW 3260   2.524   1.689   2.349 -0.3777 -0.5990 -0.4584
  816SOL     OW 3261   0.779   0.656   2.757  0.0875 -0.1712 -0.0438
  816SOL    HW1 3262   0.793   0.566   2.781  0.3583 -0.7820 -1.6850
  816SOL    HW2 3263   0.685   0.668   2.721  0.4072 -1.8587  1.0814
  816SOL     MW 3264   0.768   0.646   2.756  0.1654 -0.4744 -0.1119
  817SOL     OW 3265   3.037   1.230   1.494  0.5211  0.1998  0.1505
  817SOL    HW1 3266   3.131   1.226   1.501 -0.8483 -0.8941  0.7201
  817SOL    HW2 3267   3.009   1.321   1.465 -0.2468 -1.9157  0.9955
  817SOL     MW 3268   3.046   1.242   1.491  0.2391 -0.2237  0.3371
  818SOL     OW 3269   1.905   1.019   2.658  0.2445  0.3654  0.0493
  818SOL    HW1 3270   1.899   1.008   2.565 -0.6137  2.0207 -0.9904
  818SOL    HW2 3271   1.983   0.970   2.680  1.7284  1.7759 -2.1526
  818SOL     MW 3272   1.914   1.011   2.649  0.3271  0.7699 -0.3784
  819SOL     OW 3273   1.906   0.184   2.462 -0.2774  0.8707  0.4266
  819SOL    HW1 3274   1.847   0.254   2.463  2.4246 -1.7991 -1.1947
  819SOL    HW2 3275   1.959   0.187   2.540  0.9909  0.0222 -2.2783
  819SOL     MW 3276   1.905   0.194   2.473  0.2465  0.4065 -0.1442
  820SOL     OW 3277   2.479   1.730   2.628 -0.3143 -0.4376 -0.0892
  820SOL    HW1 3278   2.543   1.664   2.664  0.6276 -0.8059 -0.8278
  820SOL    HW2 3279   2.478   1.724   2.534 -1.5199  1.7197  0.1823
  820SOL     MW 3280   2.487   1.721   2.621 -0.3491 -0.2015 -0.1509
  821SOL     OW 3281   2.564   1.410   1.994 -0.6588 -1.0317 -0.7487
  821SOL    HW1 3282   2.586   1.491   1.939 -2.7849  3.2169  0.4486
  821SOL    HW2 3283   2.470   1.388   1.982  0.7850  2.7069  0.2015
  821SOL     MW 3284   2.555   1.418   1.985 -0.7488  0.0221 -0.4653
  822SOL     OW 3285   2.725   2.633   1.428  0.3911  0.0918  0.9899
  822SOL    HW1 3286   2.777   2.668   1.503 -2.1333  0.5742  2.6093
  822SOL    HW2 3287   2.677   2.708   1.384 -1.4317 -0.4290  1.5124
  822SOL     MW 3288   2.726   2.648   1.432 -0.1825  0.0867  1.2725
  823SOL     OW 3289   2.260   0.501   1.741 -0.3158 -0.0033  0.1334
  823SOL    HW1 3290   2.333   0.469   1.684  0.2534 -0.5461  0.7483
  823SOL    HW2 3291   2.190   0.438   1.734 -1.1028  2.9855  1.5289
  823SOL     MW 3292   2.261   0.489   1.733 -0.3446  0.3194  0.3986
  824SOL     OW 3293   2.075   1.420   2.555  0.0646 -0.0302  0.5413
  824SOL    HW1 3294   2.119   1.474   2.490  1.1776 -0.2567  0.9447
  824SOL    HW2 3295   2.039   1.483   2.620 -0.1645 -0.0411  0.5989
  824SOL     MW 3296   2.076   1.435   2.555  0.1813 -0.0616  0.6021
  825SOL     OW 3297   1.958   2.566   0.297  0.9959  0.1960 -0.3714
  825SOL    HW1 3298   1.925   2.491   0.347 -0.5406 -1.6251 -2.0095
  825SOL    HW2 3299   1.991   2.523   0.217  0.2017  1.6702 -3.6335
  825SOL     MW 3300   1.958   2.551   0.293  0.6884  0.1502 -1.0180
  826SOL     OW 3301   1.902   2.365   0.502  0.1471  0.8512 -0.2550
  826SOL    HW1 3302   1.861   2.302   0.569 -1.1374 -0.2365  0.7741
  826SOL    HW2 3303   1.859   2.445   0.535 -0.9617  1.8552 -1.2276
  826SOL     MW 3304   1.891   2.367   0.515 -0.1686  0.8401 -0.2476
  827SOL     OW 3305   1.932   2.217   0.938 -0.3892  0.2389 -0.2576
  827SOL    HW1 3306   1.892   2.294   0.901 -3.8858  1.9788 -0.1787
  827SOL    HW2 3307   1.857   2.162   0.924  1.6571  1.9927 -1.5093
  827SOL     MW 3308   1.916   2.220   0.931 -0.5806  0.6999 -0.4123
  828SOL     OW 3309   0.058   2.599   0.591 -0.7660  0.0030 -0.8885
  828SOL    HW1 3310   0.142   2.624   0.551 -0.3904  1.0368  3.0117
  828SOL    HW2 3311  -0.005   2.613   0.525  1.4040 -1.2390  1.1997
  828SOL     MW 3312   0.061   2.604   0.577 -0.4301 -0.0245 -0.0984
  829SOL     OW 3313   2.916   2.951   1.196 -0.3482  0.0044  0.8108
  829SOL    HW1 3314   2.841   2.925   1.143 -1.1515  1.0395  0.5960
  829SOL    HW2 3315   2.977   2.877   1.196 -0.3306  0.3719  0.7442
  829SOL     MW 3316   2.914   2.938   1.189 -0.4519  0.1894  0.7737
  830SOL     OW 3317   2.510   2.850   2.049 -0.0914  0.1415 -0.3705
  830SOL    HW1 3318   2.418   2.867   2.033  0.9642  0.5776  0.4954
  830SOL    HW2 3319   2.538   2.808   1.963  0.1006 -1.8356 -1.4053
  830SOL     MW 3320   2.501   2.847   2.035  0.0732 -0.0618 -0.3928
  831SOL     OW 3321   2.403   2.436   1.307  0.1440 -0.3985  0.6785
  831SOL    HW1 3322   2.382   2.405   1.397 -1.8772  0.5917 -1.5510
  831SOL    HW2 3323   2.496   2.410   1.285 -1.7725  0.1383 -0.3580
  831SOL     MW 3324   2.413   2.429   1.316 -0.3755 -0.1970  0.2476
  832SOL     OW 3325   2.419   2.185   1.902  0.3150  0.2505  0.0666
  832SOL    HW1 3326   2.437   2.260   1.962 -0.5474  0.7204 -1.6508
  832SOL    HW2 3327   2.507   2.147   1.885  1.0830 -1.1720  2.3090
  832SOL     MW 3328   2.433   2.190   1.908  0.3025  0.1249  0.1359
  833SOL     OW 3329   1.783   2.459   0.886  0.1906 -0.1991  0.2133
  833SOL    HW1 3330   1.705   2.415   0.892  2.2791  0.5730  0.7541
  833SOL    HW2 3331   1.793   2.507   0.976 -1.7258  1.1001 -1.5976
  833SOL     MW 3332   1.774   2.460   0.899  0.2133  0.0742  0.0457
  834SOL     OW 3333   2.197   2.486   0.578  0.6666  0.3464  0.2424
  834SOL    HW1 3334   2.107   2.456   0.591  3.0585 -3.2118 -1.1309
  834SOL    HW2 3335   2.224   2.430   0.516 -0.9118  1.9399  0.6194
  834SOL     MW 3336   2.189   2.475   0.572  0.7739  0.0872  0.1110
  835SOL     OW 3337   1.790   2.594   0.636  0.2143 -0.4667 -0.0451
  835SOL    HW1 3338   1.747   2.553   0.712  3.2684 -0.9777 -1.6139
  835SOL    HW2 3339   1.853   2.662   0.679  0.1502  1.5497  1.4550
  835SOL     MW 3340   1.793   2.597   0.652  0.6088 -0.2681 -0.0542
  836SOL     OW 3341   1.938   2.198   1.605 -0.1132  0.2500  0.3329
  836SOL    HW1 3342   2.025   2.215   1.644  1.4070  0.9863 -0.9171
  836SOL    HW2 3343   1.886   2.271   1.645 -0.0458  3.4133 -2.3599
  836SOL     MW 3344   1.943   2.210   1.616  0.0963  0.7645 -0.1873
  837SOL     OW 3345   2.127   0.198   0.710  0.0811  0.4343 -0.4803
  837SOL    HW1 3346   2.040   0.224   0.692  0.1190 -1.0269  0.7381
  837SOL    HW2 3347   2.145   0.137   0.641  0.2139 -1.8567 -0.7393
  837SOL     MW 3348   2.118   0.193   0.699  0.1037 -0.0608 -0.3537
  838SOL     OW 3349   2.935   2.158   0.897 -0.0856  0.0755 -0.9493
  838SOL    HW1 3350   2.873   2.116   0.962 -0.8687  0.1237  0.2089
  838SOL    HW2 3351   2.966   2.086   0.842 -0.7207  0.7949  1.3965
  838SOL     MW 3352   2.931   2.143   0.898 -0.2727  0.1768 -0.4870
  839SOL     OW 3353   1.543   2.326   0.954  0.5237  0.0901 -0.0401
  839SOL    HW1 3354   1.524   2.414   0.981 -2.2661 -0.8472  2.2329
  839SOL    HW2 3355   1.538   2.270   1.035  0.3719 -0.2279 -0.0680
  839SOL     MW 3356   1.540   2.330   0.968  0.1356 -0.0755  0.2561
  840SOL     OW 3357   2.300   2.095   2.413 -0.1191  0.5695  0.0542
  840SOL    HW1 3358   2.259   2.141   2.335 -1.2111  3.7897 -1.8474
  840SOL    HW2 3359   2.350   2.161   2.466  0.4618  2.3599 -0.9418
  840SOL     MW 3360   2.301   2.109   2.410 -0.1866  1.2306 -0.3281
  841SOL     OW 3361   2.128   2.444   0.108  0.0350 -0.5380  0.1595
  841SOL    HW1 3362   2.189   2.465   0.038 -0.6234 -0.5150  1.6260
  841SOL    HW2 3363   2.100   2.348   0.101 -0.4813 -0.5064 -1.6759
  841SOL     MW 3364   2.132   2.434   0.098 -0.1200 -0.5308  0.1108
  842SOL     OW 3365   2.672   1.913   1.602  1.0341 -0.0896 -0.2132
  842SOL    HW1 3366   2.604   1.844   1.612 -0.1934  0.2773 -1.4158
  842SOL    HW2 3367   2.637   1.969   1.536  1.2766  1.5911 -0.7173
  842SOL     MW 3368   2.658   1.911   1.595  0.9042  0.1805 -0.4384
  843SOL     OW 3369   2.609   2.741   1.781  0.3083  0.2814 -0.0429
  843SOL    HW1 3370   2.693   2.710   1.744  0.0843  2.3117 -1.0247
  843SOL    HW2 3371   2.557   2.662   1.753  0.3155 -2.8305 -0.2322
  843SOL     MW 3372   2.613   2.727   1.773  0.2797  0.1387 -0.1974
  844SOL     OW 3373   2.607   2.295   1.206  0.4686 -0.1369  0.4217
  844SOL    HW1 3374   2.624   2.310   1.112  2.5966  1.1245 -2.3661
  844SOL    HW2 3375   2.694   2.309   1.251 -2.1887 -1.3436 -1.5839
  844SOL     MW 3376   2.621   2.299   1.200  0.3988 -0.1296 -0.2108
  845SOL     OW 3377   2.855   2.457   0.304 -0.4022 -0.5611  0.3868
  845SOL    HW1 3378   2.801   2.382   0.327  1.8616 -2.1149  1.6978
  845SOL    HW2 3379   2.864   2.507   0.380  0.0736  1.1033 -1.9169
  845SOL     MW 3380   2.849   2.454   0.317 -0.0407 -0.5465  0.2558
  846SOL     OW 3381   1.528   2.872   0.774 -0.3691 -0.1239 -0.3568
  846SOL    HW1 3382   1.601   2.929   0.806  0.2815 -1.2375 -1.8057
  846SOL    HW2 3383   1.453   2.916   0.808  0.0494  2.4670  0.7729
  846SOL     MW 3384   1.528   2.886   0.783 -0.2281  0.0710 -0.3989
  847SOL     OW 3385   2.535   1.909   0.153 -0.2511 -0.6557 -0.2270
  847SOL    HW1 3386   2.616   1.859   0.186  0.1217 -5.1179  1.4960
  847SOL    HW2 3387   2.484   1.848   0.106 -1.6738  0.9489  0.1219
  847SOL     MW 3388   2.539   1.894   0.151 -0.3896 -1.0327  0.0463
  848SOL     OW 3389   2.545   2.077   1.407  0.2300 -0.5598  0.1917
  848SOL    HW1 3390   2.559   2.142   1.340  1.7877 -2.1111 -2.1110
  848SOL    HW2 3391   2.495   2.009   1.361 -3.1975  0.6107  0.1267
  848SOL     MW 3392   2.540   2.076   1.392 -0.0167 -0.6101 -0.1207
  849SOL     OW 3393   1.971   2.727   0.761  0.3308 -0.1424 -0.9349
  849SOL    HW1 3394   2.002   2.660   0.822 -0.5782 -2.6706 -0.8392
  849SOL    HW2 3395   2.051   2.756   0.716 -1.1443  1.2904  2.2308
  849SOL     MW 3396   1.986   2.722   0.763  0.0162 -0.2869 -0.5046
  850SOL     OW 3397   2.213   1.956   1.624  0.3172 -0.4404 -0.1369
  850SOL    HW1 3398   2.119   1.937   1.610 -0.9212 -0.9961  2.0541
  850SOL    HW2 3399   2.210   2.050   1.636 -2.3462  0.2888 -1.1193
  850SOL     MW 3400   2.200   1.966   1.624 -0.1976 -0.4175  0.0226
  851SOL     OW 3401   2.280   2.401   0.326 -0.0781  0.2522  0.1828
  851SOL    HW1 3402   2.225   2.427   0.251  1.4083 -0.3068  1.2227
  851SOL    HW2 3403   2.335   2.480   0.345  1.9609 -5.0911 -0.4862
  851SOL     MW 3404   2.280   2.415   0.318  0.3870 -0.5265  0.2317
  852SOL     OW 3405   2.377   2.153   0.290 -0.1046 -0.0318  0.7027
  852SOL    HW1 3406   2.372   2.247   0.307  2.7147 -1.5789  0.7631
  852SOL    HW2 3407   2.470   2.119   0.270 -0.4800 -1.2002 -1.6463
  852SOL     MW 3408   2.389   2.161   0.289  0.2178 -0.3901  0.4007
  853SOL     OW 3409   2.496   2.443   1.995  0.4106 -0.1879  0.3530
  853SOL    HW1 3410   2.503   2.463   1.900 -1.2381  1.8223  1.0628
  853SOL    HW2 3411   2.583   2.429   2.024 -3.1932  0.7272 -1.3017
  853SOL     MW 3412   2.509   2.444   1.986 -0.2824  0.1981  0.2283
  854SOL     OW 3413   2.815   2.340   0.740  0.3758  0.8558  0.3907
  854SOL    HW1 3414   2.744   2.298   0.696  0.3602 -1.3189  0.5736
  854SOL    HW2 3415   2.862   2.265   0.783 -0.4346 -1.0775  0.9079
  854SOL     MW 3416   2.812   2.325   0.740  0.2668  0.3138  0.4831
  855SOL     OW 3417   2.708   2.238   0.384 -0.5511 -0.6227  0.2300
  855SOL    HW1 3418   2.662   2.261   0.469  0.9500 -0.5251  0.5960
  855SOL    HW2 3419   2.792   2.203   0.413  2.5865  3.3413  2.9875
  855SOL     MW 3420   2.713   2.237   0.399  0.0609 -0.0868  0.6421
  856SOL     OW 3421   2.194   1.948   0.184  0.3992 -0.3562 -0.3046
  856SOL    HW1 3422   2.107   1.961   0.223 -0.8427 -1.2161  0.6824
  856SOL    HW2 3423   2.245   2.022   0.215 -0.6519  1.8389 -2.0361
  856SOL     MW 3424   2.189   1.959   0.193  0.0967 -0.1800 -0.4028
  857SOL     OW 3425   2.608   1.986   0.486  0.3287  0.7480  0.0899
  857SOL    HW1 3426   2.657   2.057   0.443 -2.6661  0.0620  0.3966
  857SOL    HW2 3427   2.535   1.952   0.419  2.5840  0.7139  0.3162
  857SOL     MW 3428   2.604   1.991   0.471  0.2311  0.6530  0.1602
  858SOL     OW 3429   2.850   2.655   1.697  0.4598  0.0268  0.1338
  858SOL    HW1 3430   2.933   2.684   1.738  0.0968  0.4472 -1.0575
  858SOL    HW2 3431   2.838   2.566   1.711  0.9082  2.5745 -2.7290
  858SOL     MW 3432   2.859   2.647   1.704  0.4710  0.4184 -0.4011
  859SOL     OW 3433   2.157   2.575   0.904  0.2770  0.2925 -0.0593
  859SOL    HW1 3434   2.113   2.488   0.904 -3.0749 -1.2246  2.2110
  859SOL    HW2 3435   2.250   2.550   0.899 -1.7564 -2.0707  1.8361
  859SOL     MW 3436   2.163   2.560   0.903 -0.4335 -0.2194  0.4904
  860SOL     OW 3437   2.660   2.601   0.182  0.6517 -0.1230 -0.1195
  860SOL    HW1 3438   2.720   2.574   0.249 -1.6644  2.8954 -0.9581
  860SOL    HW2 3439   2.675   2.690   0.161  1.9297 -2.4072 -0.6689
  860SOL     MW 3440   2.670   2.609   0.188  0.5147 -0.0261 -0.3026
  861SOL     OW 3441   1.544   2.146   1.145  0.1935  0.3096  0.0062
  861SOL    HW1 3442   1.567   2.208   1.212  1.1847  2.8389 -1.9117
  861SOL    HW2 3443   1.502   2.078   1.196  0.3974  0.5032 -0.2434
  861SOL     MW 3444   1.541   2.145   1.160  0.3512  0.6688 -0.2798
  862SOL     OW 3445   2.425   1.783   1.538  0.2851  0.1863  0.1241
  862SOL    HW1 3446   2.351   1.837   1.566 -3.0227 -0.5255 -2.0505
  862SOL    HW2 3447   2.400   1.761   1.453 -1.4905 -0.7691  2.4032
  862SOL     MW 3448   2.412   1.788   1.531 -0.3856 -0.0337  0.1379
  863SOL     OW 3449   3.036   1.856   1.052 -0.3275 -0.3820 -0.4824
  863SOL    HW1 3450   3.100   1.843   1.122 -0.8254 -1.2485 -2.1790
  863SOL    HW2 3451   3.006   1.941   1.081 -2.6518 -1.4421  1.5895
  863SOL     MW 3452   3.040   1.865   1.065 -0.6998 -0.6362 -0.4329
  864SOL     OW 3453   3.086   1.924   0.792 -0.5617 -0.1268 -0.1279
  864SOL    HW1 3454   3.065   1.887   0.880 -1.3478 -3.4535 -1.3802
  864SOL    HW2 3455   3.046   1.867   0.721 -0.5844 -0.4412  2.3403
  864SOL     MW 3456   3.078   1.912   0.794 -0.6684 -0.6072  0.0325
  865SOL     OW 3457   2.624   2.126   0.009 -0.2636  0.0211 -0.3855
  865SOL    HW1 3458   2.574   2.074   0.074  0.3863  1.3221  0.1266
  865SOL    HW2 3459   2.572   2.125  -0.071 -0.0644  1.4552  1.1893
  865SOL     MW 3460   2.610   2.119   0.007 -0.1515  0.3820 -0.1102
  866SOL     OW 3461   2.685   2.317   1.642  0.2530 -0.0692 -0.1125
  866SOL    HW1 3462   2.667   2.236   1.692 -2.0628 -0.6434 -3.2753
  866SOL    HW2 3463   2.680   2.297   1.546  1.1707  0.5122 -1.9084
  866SOL     MW 3464   2.682   2.304   1.636  0.0686 -0.0682 -0.7668
  867SOL     OW 3465   0.018   2.686   1.796  0.0338  0.7860  0.0902
  867SOL    HW1 3466   0.020   2.676   1.889  0.4768  0.8942  2.2710
  867SOL    HW2 3467  -0.015   2.776   1.781 -0.0011  0.3725 -0.4196
  867SOL     MW 3468   0.014   2.697   1.806  0.0876  0.7458  0.3107
  868SOL     OW 3469   2.830   2.611   0.566  0.2079 -0.2436  0.0358
  868SOL    HW1 3470   2.752   2.554   0.573 -0.1742 -0.9391 -1.4485
  868SOL    HW2 3471   2.803   2.689   0.509 -0.4335  0.7287  1.8225
  868SOL     MW 3472   2.816   2.613   0.560  0.0729 -0.2071  0.0757
  869SOL     OW 3473   2.049   2.370   1.165  0.9589 -0.0185  0.6769
  869SOL    HW1 3474   2.143   2.376   1.142  0.7861  0.7457  1.7962
  869SOL    HW2 3475   2.005   2.336   1.085  0.6182  0.0162  0.9021
  869SOL     MW 3476   2.056   2.366   1.151  0.8911  0.0869  0.8543
  870SOL     OW 3477   2.154   3.091   0.476 -0.0520  0.2474 -0.0537
  870SOL    HW1 3478   2.199   3.156   0.417  1.0378  3.3651 -2.0043
  870SOL    HW2 3479   2.192   3.009   0.437 -0.7991 -0.8989 -0.4861
  870SOL     MW 3480   2.165   3.089   0.463 -0.0068  0.5075 -0.3681
  871SOL     OW 3481   2.493   2.114   0.947 -0.4179  0.2503 -0.0257
  871SOL    HW1 3482   2.426   2.055   0.910  1.4941  1.3071  0.5616
  871SOL    HW2 3483   2.447   2.188   0.991  0.4949  0.6087  0.2735
  871SOL     MW 3484   2.478   2.116   0.948 -0.0452  0.4370  0.0913
  872SOL     OW 3485   2.035   2.563   1.505 -0.8268 -0.2645  0.4670
  872SOL    HW1 3486   2.004   2.599   1.591 -2.0466  0.7716 -0.2550
  872SOL    HW2 3487   1.971   2.494   1.481 -1.3760 -0.7020  2.6801
  872SOL     MW 3488   2.022   2.559   1.513 -1.0602 -0.1855  0.6638
  873SOL     OW 3489   2.934   2.045   1.904  0.1664  0.6606  0.3338
  873SOL    HW1 3490   2.964   2.110   1.969  0.9043  2.2127 -0.8852
  873SOL    HW2 3491   2.998   2.053   1.839 -1.1033  1.6342 -0.6990
  873SOL     MW 3492   2.946   2.055   1.904  0.0962  0.9939  0.0367
  874SOL     OW 3493   2.296   1.497   2.374 -0.8131 -0.5778 -0.2347
  874SOL    HW1 3494   2.258   1.426   2.320  1.7050  0.5866  1.5136
  874SOL    HW2 3495   2.352   1.445   2.429 -3.0623 -1.8027 -0.3377
  874SOL     MW 3496   2.299   1.481   2.374 -0.7776 -0.5858 -0.0176
  875SOL     OW 3497   2.319   2.324   1.074  0.5642  0.1160 -0.4679
  875SOL    HW1 3498   2.346   2.392   1.008 -0.6763  1.7279  0.6426
  875SOL    HW2 3499   2.349   2.373   1.151  0.3099 -2.1256  0.0396
  875SOL     MW 3500   2.327   2.339   1.075  0.3670  0.0329 -0.2544
  876SOL     OW 3501   3.033   2.328   1.233 -0.7298 -0.1700  0.1841
  876SOL    HW1 3502   3.046   2.354   1.144  0.9088 -1.1364 -0.8879
  876SOL    HW2 3503   3.091   2.386   1.289 -0.1426  0.0764 -0.9339
  876SOL     MW 3504   3.042   2.339   1.229 -0.4362 -0.2650 -0.1049
  877SOL     OW 3505   3.039   2.697   0.331  0.1501 -0.5326  0.1985
  877SOL    HW1 3506   3.107   2.761   0.347 -1.4018  2.1503  0.5689
  877SOL    HW2 3507   3.049   2.683   0.238 -1.9060  2.7688  0.8903
  877SOL     MW 3508   3.049   2.704   0.321 -0.3260  0.2570  0.3386
  878SOL     OW 3509   2.408   1.846   1.264 -0.6170 -0.0908 -0.4399
  878SOL    HW1 3510   2.376   1.758   1.273 -1.8878  0.0658  0.7909
  878SOL    HW2 3511   2.481   1.841   1.206 -0.1668 -0.8776 -2.5214
  878SOL     MW 3512   2.413   1.834   1.257 -0.7253 -0.1740 -0.5521
  879SOL     OW 3513   2.659   2.412   0.958 -0.2468 -0.1721 -0.3228
  879SOL    HW1 3514   2.716   2.483   0.989  0.4273 -0.3982  0.3705
  879SOL    HW2 3515   2.708   2.389   0.882 -0.9362  0.4829  1.7520
  879SOL     MW 3516   2.673   2.418   0.952 -0.2488 -0.1155  0.0424
  880SOL     OW 3517   2.576   2.201   0.689  0.5730  0.4030 -0.4862
  880SOL    HW1 3518   2.569   2.173   0.786 -0.6949 -1.1181  3.3177
  880SOL    HW2 3519   2.549   2.118   0.643  2.0575 -1.1949  0.5311
  880SOL     MW 3520   2.571   2.187   0.696  0.6016 -0.0085  0.1499
  881SOL     OW 3521   2.937   2.707   0.785  0.5058  1.2331 -0.2840
  881SOL    HW1 3522   2.903   2.645   0.714 -1.2547 -4.2643  1.7593
  881SOL    HW2 3523   3.033   2.694   0.796  0.5175  2.4803  0.1692
  881SOL     MW 3524   2.945   2.697   0.777  0.2751  0.6723  0.0454
  882SOL     OW 3525   2.252   2.881   1.930 -0.7232 -0.2395  0.2736
  882SOL    HW1 3526   2.230   2.880   1.836  1.5862  0.5248 -1.2338
  882SOL    HW2 3527   2.201   2.814   1.969 -0.6114  3.3749  1.6311
  882SOL     MW 3528   2.243   2.872   1.923 -0.4038  0.3382  0.2538
  883SOL     OW 3529   2.299   2.248   1.495 -0.4329 -0.4503 -0.4911
  883SOL    HW1 3530   2.389   2.210   1.486  1.8340  0.1426 -1.5506
  883SOL    HW2 3531   2.240   2.226   1.425 -1.7119 -0.3750  0.4371
  883SOL     MW 3532   2.303   2.240   1.485 -0.3026 -0.3622 -0.5084
  884SOL     OW 3533   1.956   1.835   1.120 -0.2243 -0.5124 -1.0814
  884SOL    HW1 3534   1.886   1.895   1.083  1.0561  1.9131  0.6029
  884SOL    HW2 3535   2.025   1.907   1.124  0.0755  0.8654 -0.3763
  884SOL     MW 3536   1.956   1.853   1.116 -0.0158 -0.0106 -0.7661
  885SOL     OW 3537   2.858   2.408   1.828  0.2053 -0.4608  0.8294
  885SOL    HW1 3538   2.951   2.382   1.813  1.1563  1.0244 -0.2967
  885SOL    HW2 3539   2.811   2.364   1.754  0.8988 -0.2265  0.6893
  885SOL     MW 3540   2.865   2.399   1.816  0.4223 -0.2339  0.6623
  886SOL     OW 3541   2.797   2.362   1.381 -0.1766 -0.7481  0.4432
  886SOL    HW1 3542   2.881   2.362   1.337  0.0925 -0.6650  0.7244
  886SOL    HW2 3543   2.791   2.444   1.427  0.6538 -0.0819 -2.5475
  886SOL     MW 3544   2.808   2.373   1.381 -0.0316 -0.6492  0.0857
  887SOL     OW 3545   2.304   2.595   1.547 -0.3751  0.2222 -0.9076
  887SOL    HW1 3546   2.333   2.642   1.470 -1.6002  1.6252 -1.3862
  887SOL    HW2 3547   2.211   2.559   1.529 -3.0535  1.6249  1.0552
  887SOL     MW 3548   2.296   2.596   1.535 -0.8901  0.5924 -0.7118
  888SOL     OW 3549   1.852   2.054   1.374  0.4705 -0.6263  0.1409
  888SOL    HW1 3550   1.939   2.062   1.341 -0.0809  1.3827  2.0111
  888SOL    HW2 3551   1.867   2.089   1.465  1.2267  1.9326  0.5499
  888SOL     MW 3552   1.865   2.060   1.382  0.4975 -0.0236  0.4416
  889SOL     OW 3553   2.306   2.001   2.102  0.0039  0.4061  0.2597
  889SOL    HW1 3554   2.382   1.987   2.157 -0.3325 -1.0850 -0.5630
  889SOL    HW2 3555   2.356   2.057   2.043  1.1794 -3.3241  1.2637
  889SOL     MW 3556   2.322   2.006   2.102  0.1146 -0.2828  0.2837
  890SOL     OW 3557   0.132   2.360   0.129 -0.0369  0.0033  0.0587
  890SOL    HW1 3558   0.099   2.450   0.105  0.9918 -0.9833  0.4496
  890SOL    HW2 3559   0.074   2.337   0.206  1.6876 -0.4396 -0.4013
  890SOL     MW 3560   0.120   2.369   0.136  0.3263 -0.1853  0.0496
  891SOL     OW 3561   3.030   2.047   1.295  0.3947 -0.6212 -0.0015
  891SOL    HW1 3562   3.112   2.021   1.334 -0.2696 -1.5637 -0.0054
  891SOL    HW2 3563   3.027   2.142   1.276  0.8136  0.7285 -1.5114
  891SOL     MW 3564   3.040   2.056   1.297  0.3623 -0.5675 -0.2012
  892SOL     OW 3565   2.424   2.366   2.812 -0.3146  0.2239 -1.0370
  892SOL    HW1 3566   2.415   2.276   2.849  3.0229  2.0963  2.3460
  892SOL    HW2 3567   2.526   2.377   2.809 -0.4464 -0.6423  1.5032
  892SOL     MW 3568   2.436   2.356   2.817  0.1084  0.3566 -0.2555
  893SOL     OW 3569   1.595   2.377   1.287  0.5383  0.8170  0.1760
  893SOL    HW1 3570   1.530   2.432   1.332 -0.9915 -1.6533 -2.2906
  893SOL    HW2 3571   1.669   2.369   1.348 -2.8619 -0.2003  2.9295
  893SOL     MW 3572   1.596   2.383   1.301 -0.1121  0.3568  0.2139
  894SOL     OW 3573   2.831   1.821   0.472  0.0307  0.8358 -0.2251
  894SOL    HW1 3574   2.742   1.864   0.495  1.3852 -3.2109 -0.8609
  894SOL    HW2 3575   2.834   1.807   0.372 -1.5630 -1.1923 -2.5275
  894SOL     MW 3576   2.819   1.825   0.462 -0.0008  0.0343 -0.6127
  895SOL     OW 3577   2.127   2.155   1.301  0.2808 -0.8972 -0.4770
  895SOL    HW1 3578   2.100   2.230   1.250  1.1145  1.3360 -2.5677
  895SOL    HW2 3579   2.165   2.096   1.238  1.1332  4.2054 -0.0232
  895SOL     MW 3580   2.128   2.157   1.286  0.5033  0.0707 -0.6930
  896SOL     OW 3581   2.153   2.790   1.076  0.4482 -0.1875  0.5996
  896SOL    HW1 3582   2.209   2.778   1.154  1.7814  0.8305  2.4608
  896SOL    HW2 3583   2.141   2.702   1.024  1.1055  0.2938 -0.8919
  896SOL     MW 3584   2.159   2.777   1.079  0.7108  0.0104  0.6484
  897SOL     OW 3585   2.998   2.899   0.117 -0.2539 -0.4850  0.0297
  897SOL    HW1 3586   3.071   2.851   0.080  0.5419 -1.7787 -2.5703
  897SOL    HW2 3587   2.927   2.840   0.082  2.9032  0.2941 -1.0914
  897SOL     MW 3588   2.998   2.885   0.107  0.2677 -0.5529 -0.4613
  898SOL     OW 3589   2.090   0.155   1.401  0.2560 -0.1961 -0.0109
  898SOL    HW1 3590   2.028   0.087   1.408  0.8759 -1.3422  1.0452
  898SOL    HW2 3591   2.090   0.181   1.307  0.9074 -1.6128  0.2640
  898SOL     MW 3592   2.082   0.150   1.389  0.4237 -0.5342  0.1647
  899SOL     OW 3593   2.929   2.925   0.635 -0.0961  0.0952  0.0500
  899SOL    HW1 3594   2.914   2.851   0.695 -1.2193  0.0495  1.4443
  899SOL    HW2 3595   2.852   2.976   0.646  1.3889 -0.1850 -1.4302
  899SOL     MW 3596   2.917   2.922   0.645 -0.0483  0.0522  0.0387
  900SOL     OW 3597   0.083   2.441   1.022  0.3828 -0.1937 -0.0313
  900SOL    HW1 3598   0.079   2.537   1.024  0.2715 -0.7849  1.9538
  900SOL    HW2 3599   0.095   2.414   0.930  3.3874  1.5865  2.6661
  900SOL     MW 3600   0.084   2.450   1.010  0.7645 -0.0368  0.5865
  901SOL     OW 3601   1.754   2.889   1.675  0.0486  0.8228 -0.0018
  901SOL    HW1 3602   1.827   2.823   1.672  0.1681 -1.8360 -0.0770
  901SOL    HW2 3603   1.705   2.867   1.594 -0.0294 -0.0688 -0.7746
  901SOL     MW 3604   1.757   2.877   1.664  0.0541  0.3543 -0.1137
  902SOL     OW 3605   2.654   2.097   1.809  0.2890  0.2833 -0.2118
  902SOL    HW1 3606   2.633   2.014   1.768  0.5241 -1.8139 -0.6836
  902SOL    HW2 3607   2.735   2.086   1.863  2.0557 -1.6234  1.7988
  902SOL     MW 3608   2.662   2.085   1.811  0.5531 -0.2450 -0.0088
  903SOL     OW 3609   1.599   2.763   0.511 -0.3250  0.1953 -0.0985
  903SOL    HW1 3610   1.660   2.692   0.537 -0.4328 -2.9600  0.6179
  903SOL    HW2 3611   1.563   2.807   0.594 -0.4687  0.4053 -1.2905
  903SOL     MW 3612   1.602   2.759   0.525 -0.3582 -0.1933 -0.1612
  904SOL     OW 3613   2.494   2.495   1.714 -0.0525  0.1785  0.1816
  904SOL    HW1 3614   2.420   2.502   1.656  2.2624  0.3779  1.1697
  904SOL    HW2 3615   2.549   2.426   1.681 -0.2269  2.3306 -1.8708
  904SOL     MW 3616   2.491   2.487   1.702  0.2299  0.4887  0.0412
  905SOL     OW 3617   2.331   2.569   2.157 -0.1893  0.3877  0.1258
  905SOL    HW1 3618   2.393   2.542   2.090 -1.5283 -2.1059 -1.1087
  905SOL    HW2 3619   2.302   2.481   2.189 -3.2446 -1.6959  3.0893
  905SOL     MW 3620   2.335   2.554   2.153 -0.7691 -0.2162  0.3539
  906SOL     OW 3621   2.420   2.542   0.910  0.3940 -0.6283  0.0525
  906SOL    HW1 3622   2.514   2.519   0.904 -2.1472 -2.0584 -0.2775
  906SOL    HW2 3623   2.421   2.637   0.906  0.4874 -3.5176 -0.7678
  906SOL     MW 3624   2.433   2.551   0.909  0.0710 -1.1982 -0.0992
  907SOL     OW 3625   2.562   2.893   1.322  0.7783 -0.5691 -0.1501
  907SOL    HW1 3626   2.621   2.911   1.392  1.4678 -0.1463 -0.7155
  907SOL    HW2 3627   2.616   2.897   1.243  0.3549 -0.7605 -2.6443
  907SOL     MW 3628   2.577   2.896   1.321  0.8134 -0.5386 -0.5538
  908SOL     OW 3629   2.749   2.373   0.007 -0.3786  0.3658 -0.2115
  908SOL    HW1 3630   2.698   2.288   0.017  1.1065  2.7768 -0.1886
  908SOL    HW2 3631   2.708   2.447   0.059 -0.7097  0.0826  0.5571
  908SOL     MW 3632   2.737   2.371   0.015 -0.2263  0.6465 -0.1070
  909SOL     OW 3633   1.696   0.183   1.148  0.4692  0.0400 -0.2116
  909SOL    HW1 3634   1.674   0.245   1.075  1.4846  0.7615  1.0888
  909SOL    HW2 3635   1.783   0.203   1.190  0.7228 -2.2538 -2.4427
  909SOL     MW 3636   1.705   0.194   1.144  0.6367 -0.1674 -0.3344
  910SOL     OW 3637   2.283   1.787   0.384  1.1067  0.1909 -0.4747
  910SOL    HW1 3638   2.224   1.709   0.399 -0.1913  1.1452 -0.6983
  910SOL    HW2 3639   2.249   1.834   0.304  1.3472  0.2933  0.5088
  910SOL     MW 3640   2.271   1.783   0.375  0.9671  0.3303 -0.3744
  911SOL     OW 3641   2.176   2.199   1.739 -0.1397  0.3547  0.1990
  911SOL    HW1 3642   2.256   2.184   1.792 -1.5596 -1.6608  0.4289
  911SOL    HW2 3643   2.207   2.242   1.660  1.1816  0.8567  2.7188
  911SOL     MW 3644   2.191   2.202   1.735 -0.1527  0.1550  0.5618
  912SOL     OW 3645   2.927   1.892   1.535  0.5850 -0.3608 -0.0158
  912SOL    HW1 3646   2.947   1.951   1.453 -0.5723  1.2587  0.3296
  912SOL    HW2 3647   2.838   1.916   1.572  2.2068 -1.1663 -0.7116
  912SOL     MW 3648   2.918   1.903   1.529  0.6463 -0.2534 -0.0620
  913SOL     OW 3649   2.576   2.993   0.360  0.0595 -0.0864  0.4021
  913SOL    HW1 3650   2.653   2.940   0.382 -0.5355  1.0415 -0.4131
  913SOL    HW2 3651   2.491   2.946   0.377 -1.7938  0.1430  2.1756
  913SOL     MW 3652   2.575   2.980   0.365 -0.2635  0.0927  0.5286
  914SOL     OW 3653   2.768   1.725   3.056 -0.4657  0.1975  0.4515
  914SOL    HW1 3654   2.788   1.792   2.991 -2.3670  2.7469  1.2314
  914SOL    HW2 3655   2.669   1.735   3.045  1.2629  1.1282 -1.7996
  914SOL     MW 3656   2.757   1.735   3.046 -0.4885  0.6566  0.2574
  915SOL     OW 3657   1.739   0.234   0.237 -0.4532 -0.1947  0.1099
  915SOL    HW1 3658   1.789   0.157   0.262 -1.8180  1.6965 -1.1467
  915SOL    HW2 3659   1.646   0.215   0.239  1.1482 -0.0127 -0.3098
  915SOL     MW 3660   1.733   0.221   0.240 -0.4220  0.0788 -0.1113
  916SOL     OW 3661   1.785   2.062   1.928  0.6203 -0.0996 -0.2622
  916SOL    HW1 3662   1.817   2.150   1.949  2.5967  0.7116 -3.0440
  916SOL    HW2 3663   1.790   2.048   1.832 -0.1509  0.3363 -0.8474
  916SOL     MW 3664   1.790   2.072   1.918  0.7793  0.0649 -0.7064
  917SOL     OW 3665   2.448   2.267   2.557  0.5133 -0.6337  0.3085
  917SOL    HW1 3666   2.440   2.284   2.652  1.3003 -1.8914 -0.0471
  917SOL    HW2 3667   2.537   2.292   2.532 -0.5545 -2.1560  0.1328
  917SOL     MW 3668   2.458   2.272   2.566  0.4763 -1.0005  0.2384
  918SOL     OW 3669   1.994   1.631   2.678 -0.0837 -0.2668  0.1931
  918SOL    HW1 3670   1.931   1.672   2.613  0.4266 -0.0104  0.1115
  918SOL    HW2 3671   2.080   1.685   2.687  1.6452  1.8415 -2.0129
  918SOL     MW 3672   1.997   1.644   2.671  0.2118  0.0452 -0.1087
  919SOL     OW 3673   0.076   2.331   2.255 -0.1307 -0.3994  0.3055
  919SOL    HW1 3674  -0.001   2.275   2.242  0.0588 -0.5040  2.4811
  919SOL    HW2 3675   0.141   2.321   2.182  0.6573 -0.0629  2.0453
  919SOL     MW 3676   0.074   2.323   2.243 -0.0017 -0.3688  0.8221
  920SOL     OW 3677   2.763   2.788   0.007 -0.0060  0.4625  0.0089
  920SOL    HW1 3678   2.679   2.833   0.004 -1.1072 -1.9435 -0.4949
  920SOL    HW2 3679   2.755   2.729  -0.067  2.6456 -0.1590  1.7625
  920SOL     MW 3680   2.751   2.786  -0.003  0.1985  0.0630  0.1738
  921SOL     OW 3681   2.390   2.608   2.624  0.5246 -1.0615 -0.0003
  921SOL    HW1 3682   2.465   2.623   2.566  0.3527  3.7342  1.1964
  921SOL    HW2 3683   2.415   2.564   2.702 -2.9455  1.7411 -1.8159
  921SOL     MW 3684   2.403   2.604   2.627  0.0441 -0.0590 -0.0820
  922SOL     OW 3685   2.052   2.833   0.319  0.5535 -0.0866  0.2316
  922SOL    HW1 3686   2.010   2.848   0.229  0.3171 -3.0233 -0.1243
  922SOL    HW2 3687   2.051   2.731   0.331 -1.0327 -0.0038 -0.4262
  922SOL     MW 3688   2.046   2.822   0.309  0.3130 -0.4631  0.0978
  923SOL     OW 3689   2.179   2.823   1.653 -0.3169  0.4041 -0.1016
  923SOL    HW1 3690   2.235   2.748   1.623 -0.8344 -0.0374 -0.1495
  923SOL    HW2 3691   2.130   2.852   1.579 -0.9813 -0.0603  2.1114
  923SOL     MW 3692   2.180   2.817   1.639 -0.4728  0.2846  0.1841
  924SOL     OW 3693   1.225   2.619   2.501  0.2573 -0.2701 -0.6772
  924SOL    HW1 3694   1.288   2.688   2.500 -0.3249 -0.3016  2.3504
  924SOL    HW2 3695   1.255   2.567   2.573 -2.6507  2.0476  3.4847
  924SOL     MW 3696   1.237   2.622   2.510 -0.2032  0.0315  0.2714
  925SOL     OW 3697   2.952   0.251   2.600  0.0647  0.1346  0.4095
  925SOL    HW1 3698   2.908   0.258   2.512 -0.8550 -0.9855 -3.3938
  925SOL    HW2 3699   2.913   0.318   2.646  3.5143  1.1579 -0.5839
  925SOL     MW 3700   2.941   0.261   2.594  0.3985  0.1218 -0.2234
  926SOL     OW 3701   2.750   2.411   2.088  0.3123  0.2433 -0.0188
  926SOL    HW1 3702   2.812   2.451   2.150 -0.6855  0.3962 -1.3076
  926SOL    HW2 3703   2.778   2.418   1.995  0.4878  0.5053 -0.0639
  926SOL     MW 3704   2.762   2.417   2.084  0.2038  0.2980 -0.1948
  927SOL     OW 3705   2.305   0.152   0.300  0.2567 -0.3992  0.4523
  927SOL    HW1 3706   2.405   0.156   0.288 -0.1648 -0.6217 -1.6951
  927SOL    HW2 3707   2.281   0.134   0.209 -0.9174  1.8132  0.7649
  927SOL     MW 3708   2.315   0.150   0.286  0.0461 -0.1367  0.2102
  928SOL     OW 3709   2.081   2.425   1.892  0.2407  0.2647  0.3701
  928SOL    HW1 3710   2.088   2.352   1.831  1.9979 -0.8918 -0.5594
  928SOL    HW2 3711   2.144   2.407   1.956  2.0339  2.9115  0.8452
  928SOL     MW 3712   2.090   2.413   1.892  0.7092  0.4613  0.3101
  929SOL     OW 3713   2.687   2.376   2.444  0.3498  0.2306  0.2861
  929SOL    HW1 3714   2.700   2.391   2.349 -2.2784 -0.2228 -2.6864
  929SOL    HW2 3715   2.772   2.354   2.478  1.8161  1.2047  1.6275
  929SOL     MW 3716   2.700   2.375   2.436  0.1965  0.2993  0.0709
  930SOL     OW 3717   2.008   2.828   2.700  0.5182 -0.0817  0.3057
  930SOL    HW1 3718   2.030   2.759   2.767 -0.5128  0.6366 -0.8260
  930SOL    HW2 3719   2.064   2.910   2.723 -0.1577  1.3209  1.1027
  930SOL     MW 3720   2.019   2.830   2.712  0.2930  0.1981  0.2615
  931SOL     OW 3721   3.017   2.785   2.270  0.4606 -0.2457 -0.2177
  931SOL    HW1 3722   3.033   2.840   2.348 -0.1156 -2.0090  0.4954
  931SOL    HW2 3723   3.091   2.786   2.219 -1.7737  0.3319  0.4745
  931SOL     MW 3724   3.029   2.792   2.273  0.0898 -0.4021 -0.0323
  932SOL     OW 3725   2.834   1.999   2.524 -0.4061  0.4791  0.9568
  932SOL    HW1 3726   2.930   1.996   2.538 -0.5284 -0.3133 -0.6338
  932SOL    HW2 3727   2.834   2.001   2.428  0.3582 -1.2393 -0.2840
  932SOL     MW 3728   2.847   1.999   2.513 -0.3214  0.1478  0.5833
  933SOL     OW 3729   2.037   2.868   2.258 -0.2884  0.2926  0.0128
  933SOL    HW1 3730   2.094   2.930   2.300 -0.5954 -2.6473  1.9382
  933SOL    HW2 3731   1.958   2.921   2.240 -1.6477 -1.9133 -0.9992
  933SOL     MW 3732   2.034   2.883   2.261 -0.5082 -0.3863  0.1333
  934SOL     OW 3733   2.021   2.687   2.476 -0.2579 -0.1961 -0.0143
  934SOL    HW1 3734   2.014   2.748   2.553  1.7581 -1.3640  0.9117
  934SOL    HW2 3735   2.041   2.742   2.400  0.7807 -0.4862 -1.6609
  934SOL     MW 3736   2.023   2.702   2.476  0.1451 -0.3885 -0.1094
  935SOL     OW 3737   2.646   1.607   1.810 -0.1182  0.4357 -0.0963
  935SOL    HW1 3738   2.729   1.592   1.774 -2.0811 -3.5298  1.4441
  935SOL    HW2 3739   2.601   1.582   1.724 -0.6491 -1.9816 -0.0703
  935SOL     MW 3740   2.651   1.602   1.794 -0.4472 -0.4065  0.1104
  936SOL     OW 3741   3.000   2.272   3.081 -0.3570 -0.0987  0.1485
  936SOL    HW1 3742   3.074   2.315   3.122  0.3649 -1.2487 -0.9896
  936SOL    HW2 3743   2.924   2.330   3.090 -1.4896 -0.9074  0.7969
  936SOL     MW 3744   3.000   2.285   3.087 -0.4112 -0.3571  0.0839
  937SOL     OW 3745   1.949   2.091   2.701 -0.0974  0.3533 -0.2233
  937SOL    HW1 3746   2.044   2.076   2.734 -2.0917 -2.4901 -1.5931
  937SOL    HW2 3747   1.943   2.064   2.609 -2.1414 -0.3992  1.0590
  937SOL     MW 3748   1.961   2.085   2.693 -0.6302 -0.1212 -0.2348
  938SOL     OW 3749   2.263   1.832   1.907 -0.0557 -0.1207  0.0960
  938SOL    HW1 3750   2.245   1.867   1.823  0.3932 -1.8545 -0.1230
  938SOL    HW2 3751   2.252   1.902   1.975 -0.1926  0.3363  3.7826
  938SOL     MW 3752   2.259   1.846   1.905 -0.0145 -0.2892  0.5535
  939SOL     OW 3753   2.812   1.976   2.249  0.0676 -0.0216  0.1250
  939SOL    HW1 3754   2.842   1.909   2.178  0.6608  0.3681  0.1010
  939SOL    HW2 3755   2.718   1.972   2.253  0.1917 -0.3262 -0.6643
  939SOL     MW 3756   2.804   1.966   2.240  0.1622 -0.0103  0.0177
  940SOL     OW 3757   2.316   0.175   2.641 -0.2847 -0.1594 -0.5409
  940SOL    HW1 3758   2.284   0.083   2.664  2.2650  0.5616 -0.6805
  940SOL    HW2 3759   2.373   0.197   2.711  0.7161 -0.2013  0.3791
  940SOL     MW 3760   2.319   0.166   2.653  0.1838 -0.0698 -0.4379
  941SOL     OW 3761   0.190   2.284   2.020 -0.0763  0.5478  0.1023
  941SOL    HW1 3762   0.281   2.266   2.018 -1.1889 -0.9363 -0.9582
  941SOL    HW2 3763   0.170   2.282   1.924 -0.0980 -1.2458 -5.5483
  941SOL     MW 3764   0.199   2.281   2.007 -0.2260  0.1153 -0.7832
  942SOL     OW 3765   2.933   2.208   2.139  0.0630 -0.8765 -0.0689
  942SOL    HW1 3766   2.856   2.265   2.112  0.2766  2.0101  0.6530
  942SOL    HW2 3767   2.890   2.128   2.171  1.9511 -1.7270 -1.2376
  942SOL     MW 3768   2.917   2.205   2.139  0.3403 -0.6079 -0.1278
  943SOL     OW 3769   0.324   2.055   2.302 -0.9972  0.4911 -0.4996
  943SOL    HW1 3770   0.286   2.104   2.375 -1.3758 -0.2572 -4.1733
  943SOL    HW2 3771   0.418   2.020   2.315  0.4380  1.4641  0.3461
  943SOL     MW 3772   0.332   2.057   2.313 -0.8578  0.5208 -0.8727
  944SOL     OW 3773   2.104   2.702   2.055  0.4520  0.2599  0.3479
  944SOL    HW1 3774   2.189   2.666   2.081  2.5236  1.3162  0.1879
  944SOL    HW2 3775   2.081   2.771   2.115 -1.0438 -1.2503 -1.3204
  944SOL     MW 3776   2.112   2.707   2.067  0.5280  0.2000  0.1066
  945SOL     OW 3777   2.727   2.674   2.851 -0.7850 -0.0317  0.3236
  945SOL    HW1 3778   2.715   2.574   2.847 -0.5111  0.8618  1.5079
  945SOL    HW2 3779   2.761   2.698   2.764 -0.0061 -1.2131  1.9989
  945SOL     MW 3780   2.730   2.664   2.839 -0.6461 -0.0697  0.7009
  946SOL     OW 3781   2.490   2.755   2.308 -0.2902 -0.0456  0.2116
  946SOL    HW1 3782   2.543   2.795   2.234 -3.8518  3.1688  2.3482
  946SOL    HW2 3783   2.427   2.694   2.263 -0.4773  2.2700  0.1291
  946SOL     MW 3784   2.489   2.752   2.292 -0.7848  0.6841  0.4826
  947SOL     OW 3785   1.985   0.114   0.288 -0.0336  0.1340  0.3477
  947SOL    HW1 3786   1.966   0.081   0.206 -0.6805  1.2567  1.8350
  947SOL    HW2 3787   2.011   0.046   0.346 -2.2256  0.3147 -0.2122
  947SOL     MW 3788   1.986   0.101   0.285 -0.4081  0.3059  0.4701
  948SOL     OW 3789   1.760   2.969   2.675 -0.1085 -0.3116  0.0940
  948SOL    HW1 3790   1.826   2.899   2.670 -1.6181 -1.0445 -0.5735
  948SOL    HW2 3791   1.746   2.994   2.578 -1.5781 -1.8967  0.9279
  948SOL     MW 3792   1.767   2.963   2.661 -0.5016 -0.6174  0.1160
  949SOL     OW 3793   2.524   1.991   2.271 -0.5576  0.1823 -0.1506
  949SOL    HW1 3794   2.523   1.898   2.303 -0.3372 -1.7069 -1.0348
  949SOL    HW2 3795   2.465   2.036   2.333  1.1044 -1.2535 -2.2688
  949SOL     MW 3796   2.516   1.985   2.283 -0.3092 -0.2564 -0.5467
  950SOL     OW 3797   2.280   2.520   2.993 -0.6346  0.4398 -0.4879
  950SOL    HW1 3798   2.328   2.475   2.922  1.7736  0.9719 -1.7118
  950SOL    HW2 3799   2.198   2.533   2.941 -0.0629 -0.3318  0.4725
  950SOL     MW 3800   2.276   2.516   2.977 -0.2414  0.4082 -0.5227
  951SOL     OW 3801   2.995   2.135   2.835  0.4536  0.2037  0.0250
  951SOL    HW1 3802   3.011   2.169   2.921 -0.1745 -0.2272 -0.0263
  951SOL    HW2 3803   3.067   2.143   2.776 -3.1305 -2.9672 -2.8255
  951SOL     MW 3804   3.006   2.140   2.839 -0.1022 -0.2716 -0.3579
  952SOL     OW 3805   0.005   1.661   2.167  0.0556 -0.4021  0.1555
  952SOL    HW1 3806  -0.079   1.662   2.113  0.0512 -1.4103 -0.8846
  952SOL    HW2 3807   0.034   1.753   2.143 -1.3904  0.8756  1.9948
  952SOL     MW 3808  -0.002   1.673   2.157 -0.1357 -0.3666  0.2609
  953SOL     OW 3809   1.917   1.794   2.912  0.0683 -0.1766 -0.7784
  953SOL    HW1 3810   1.829   1.768   2.934  0.3414  2.9659  2.2115
  953SOL    HW2 3811   1.946   1.718   2.859  1.9830  0.5889 -0.7690
  953SOL     MW 3812   1.910   1.780   2.908  0.3569  0.3390 -0.3826
  954SOL     OW 3813   2.467   2.102   2.875 -0.1118  0.1863  0.0747
  954SOL    HW1 3814   2.370   2.075   2.851 -2.4552 -1.2719  1.8218
  954SOL    HW2 3815   2.526   2.061   2.809  1.1021  1.5988  1.2839
  954SOL     MW 3816   2.462   2.093   2.863 -0.2608  0.1803  0.4647
  955SOL     OW 3817   1.588   1.588   2.627  0.0109 -0.5411  0.6570
  955SOL    HW1 3818   1.553   1.611   2.533  0.5629  1.4432 -0.1805
  955SOL    HW2 3819   1.673   1.631   2.618 -0.0429 -0.6234  2.4219
  955SOL     MW 3820   1.594   1.597   2.614  0.0767 -0.2901  0.7794
  956SOL     OW 3821   2.698   2.413   2.833 -0.2942 -0.1424  0.3172
  956SOL    HW1 3822   2.712   2.382   2.923 -0.0252 -0.9287  0.4698
  956SOL    HW2 3823   2.770   2.389   2.780 -0.7791  1.0863 -0.3606
  956SOL     MW 3824   2.709   2.406   2.838 -0.3227 -0.0840  0.2479
  957SOL     OW 3825   2.308   2.859   0.386  0.0231 -0.0727  0.4775
  957SOL    HW1 3826   2.224   2.859   0.334  0.4787 -2.8211 -2.0433
  957SOL    HW2 3827   2.280   2.831   0.481 -0.1769  0.1096  0.1387
  957SOL     MW 3828   2.293   2.856   0.392  0.0568 -0.4113  0.1002
  958SOL     OW 3829   2.054   2.592   2.862 -0.0553 -0.5637  0.0682
  958SOL    HW1 3830   2.043   2.528   2.786 -1.9344 -1.7752  1.0411
  958SOL    HW2 3831   1.974   2.594   2.916  2.8598 -0.4884  2.0303
  958SOL     MW 3832   2.042   2.584   2.859  0.0814 -0.7136  0.4555
  959SOL     OW 3833   2.445   2.617   0.374  0.2981 -0.3211 -0.3458
  959SOL    HW1 3834   2.478   2.624   0.287  0.8828 -1.1496  1.5354
  959SOL    HW2 3835   2.388   2.697   0.382  1.4371 -2.0965  1.6867
  959SOL     MW 3836   2.442   2.629   0.363  0.5255 -0.6647  0.1706
  960SOL     OW 3837   1.973   2.304   2.231 -0.4428 -0.1441 -0.6260
  960SOL    HW1 3838   1.961   2.216   2.192  2.0722 -0.0552 -0.0646
  960SOL    HW2 3839   1.916   2.301   2.309  0.6403  1.2142  1.1120
  960SOL     MW 3840   1.964   2.292   2.236  0.0320  0.0468 -0.3226
  961SOL     OW 3841   2.242   2.325   2.250  0.1709 -0.2518 -0.4532
  961SOL    HW1 3842   2.146   2.331   2.238 -0.7508 -0.6961 -1.8391
  961SOL    HW2 3843   2.251   2.365   2.333 -2.9539  0.2481 -2.1203
  961SOL     MW 3844   2.231   2.331   2.260 -0.3630 -0.2444 -0.8561
  962SOL     OW 3845   2.225   2.019   2.823  0.0319  0.7067  0.0014
  962SOL    HW1 3846   2.183   2.009   2.906 -1.5397  0.1717 -1.3777
  962SOL    HW2 3847   2.231   1.929   2.783 -1.0538 -2.7941  0.9340
  962SOL     MW 3848   2.221   2.006   2.829 -0.3187  0.1742 -0.0575
  963SOL     OW 3849   1.828   2.611   2.056 -0.1020 -0.0135 -0.0779
  963SOL    HW1 3850   1.919   2.635   2.082  2.2174 -0.1051  1.2752
  963SOL    HW2 3851   1.838   2.529   2.012 -0.2514 -2.1915  1.3646
  963SOL     MW 3852   1.841   2.603   2.053  0.1843 -0.3129  0.2910
  964SOL     OW 3853   1.749   1.917   2.724 -0.2537 -0.2652 -0.5402
  964SOL    HW1 3854   1.806   1.993   2.704 -0.8777 -0.9517  2.2745
  964SOL    HW2 3855   1.800   1.872   2.799  0.7243  1.6194  0.1803
  964SOL     MW 3856   1.763   1.921   2.731 -0.2070 -0.1071 -0.0738
  965SOL     OW 3857   2.232   2.754   0.616 -0.4148  0.1353 -0.1597
  965SOL    HW1 3858   2.222   2.661   0.620 -0.7280 -0.2412  1.4942
  965SOL    HW2 3859   2.285   2.784   0.692  0.6815 -1.2911  2.6186
  965SOL     MW 3860   2.238   2.746   0.627 -0.3115 -0.1025  0.4251
  966SOL     OW 3861   2.647   2.630   2.503  0.3223  0.1645 -0.1967
  966SOL    HW1 3862   2.614   2.677   2.430 -0.1020  0.4544  3.0769
  966SOL    HW2 3863   2.654   2.535   2.482  1.2019 -0.0076 -0.7983
  966SOL     MW 3864   2.643   2.623   2.491  0.3823  0.1800  0.1559
  967SOL     OW 3865   2.827   3.014   2.899 -0.1703  0.0458  0.1237
  967SOL    HW1 3866   2.829   2.929   2.947 -1.4282 -1.0261  1.3881
  967SOL    HW2 3867   2.732   3.028   2.884 -0.1903 -0.3485  1.2237
  967SOL     MW 3868   2.815   3.005   2.904 -0.3389 -0.1477  0.4357
  968SOL     OW 3869   3.029   2.653   2.895  0.5597 -0.0481  0.1671
  968SOL    HW1 3870   2.961   2.649   2.833  0.7051 -2.8299 -2.9638
  968SOL    HW2 3871   3.085   2.575   2.875 -1.7970 -2.5043  1.4791
  968SOL     MW 3872   3.028   2.642   2.884  0.2679 -0.7392 -0.0729
  969SOL     OW 3873   1.514   2.157   1.672 -0.0981  0.5877 -0.0812
  969SOL    HW1 3874   1.565   2.077   1.660  0.8526 -0.2362  0.0264
  969SOL    HW2 3875   1.477   2.143   1.756 -0.1102 -2.8293 -1.2354
  969SOL     MW 3876   1.516   2.144   1.682  0.0258  0.0281 -0.2193
  970SOL     OW 3877   1.635   1.705   1.763  0.4114  0.0083  0.0766
  970SOL    HW1 3878   1.718   1.694   1.818  0.3835 -1.0469  1.4017
  970SOL    HW2 3879   1.571   1.735   1.826  2.6031 -1.8195 -1.3154
  970SOL     MW 3880   1.638   1.707   1.779  0.6969 -0.3720  0.0678
  971SOL     OW 3881   1.763   3.070   2.409 -0.3608 -0.2974 -0.0251
  971SOL    HW1 3882   1.785   3.042   2.322  1.5613 -1.7526 -2.2882
  971SOL    HW2 3883   1.812   3.150   2.417 -2.7321  0.2611 -1.2987
  971SOL     MW 3884   1.772   3.077   2.398 -0.4201 -0.4157 -0.4917
  972SOL     OW 3885   0.262   2.875   2.463 -0.4213  0.2893 -0.1386
  972SOL    HW1 3886   0.282   2.793   2.510  1.6419  0.0939  0.9760
  972SOL    HW2 3887   0.333   2.931   2.484  3.2543 -1.7193 -0.4837
  972SOL     MW 3888   0.274   2.872   2.472  0.3359 -0.0015 -0.0371
  973SOL     OW 3889   2.490   0.047   2.058 -0.1093 -0.5213 -0.3713
  973SOL    HW1 3890   2.508  -0.044   2.068 -0.1435 -2.5404 -1.1963
  973SOL    HW2 3891   2.545   0.089   1.990  1.1254  2.9952  0.7616
  973SOL     MW 3892   2.499   0.041   2.050  0.0491 -0.3238 -0.3307
  974SOL     OW 3893   2.052   0.226   2.686 -0.0070  0.0894  0.2579
  974SOL    HW1 3894   2.147   0.222   2.670  1.0193  1.3786 -1.2754
  974SOL    HW2 3895   2.024   0.145   2.731  0.6832 -0.5638 -2.4487
  974SOL     MW 3896   2.061   0.214   2.690  0.2195  0.1733 -0.3015
  975SOL     OW 3897   2.181   2.476   2.490  0.2736 -0.1208 -0.0881
  975SOL    HW1 3898   2.254   2.513   2.537 -1.5897 -0.3732  2.0431
  975SOL    HW2 3899   2.118   2.553   2.492 -0.2347  2.0994  0.3922
  975SOL     MW 3900   2.183   2.491   2.497 -0.0393  0.1389  0.2565
  976SOL     OW 3901   0.262   0.322   1.711  0.1039 -0.0217  0.2431
  976SOL    HW1 3902   0.333   0.271   1.751 -0.2809  1.7335 -0.1877
  976SOL    HW2 3903   0.197   0.260   1.679 -2.9550 -1.9341  0.3953
  976SOL     MW 3904   0.263   0.307   1.712 -0.3504 -0.0424  0.2063
  977SOL     OW 3905   1.745   2.621   2.481 -0.3749 -0.1776 -0.0701
  977SOL    HW1 3906   1.728   2.534   2.446  0.1540 -1.0491  1.2431
  977SOL    HW2 3907   1.837   2.636   2.460  0.1587 -0.6826  2.3167
  977SOL     MW 3908   1.755   2.612   2.473 -0.2347 -0.3592  0.4181
   3.10000   3.10000   3.10000
