977 TIP4P/2005f water molecules t=   0.95000 step= 950
 3908
    1SOL     OW    1   0.374   0.803   3.086 -0.0667 -0.2750  0.1752
    1SOL    HW1    2   0.319   0.831   3.018  0.1278 -1.8074  2.4373
    1SOL    HW2    3   0.322   0.733   3.114  0.4921  1.8558  0.6714
    1SOL     MW    4   0.360   0.798   3.080  0.0327 -0.1960  0.5391
    2SOL     OW    5   0.316   3.022   1.171  0.2636 -0.1455  0.1409
    2SOL    HW1    6   0.365   3.101   1.149 -1.4726  3.3666 -0.8356
    2SOL    HW2    7   0.227   3.062   1.166 -1.6049 -3.5012  0.9043
    2SOL     MW    8   0.311   3.038   1.168 -0.2120 -0.1249  0.1128
    3SOL     OW    9   2.638   0.416   0.956 -0.1000  0.1911  0.2821
    3SOL    HW1   10   2.679   0.475   0.899  0.6538  0.0838  1.6903
    3SOL    HW2   11   2.645   0.469   1.045  1.4260  1.6671  0.5458
    3SOL     MW   12   2.644   0.431   0.960  0.2008  0.3717  0.5027
    4SOL     OW   13   2.959   1.661   0.603 -1.2319  0.4782 -0.2655
    4SOL    HW1   14   2.893   1.721   0.556 -1.3782 -1.7208 -0.9779
    4SOL    HW2   15   3.024   1.620   0.539 -1.1578 -3.2456 -2.0309
    4SOL     MW   16   2.959   1.664   0.588 -1.2414 -0.3033 -0.5924
    5SOL     OW   17   1.761   1.509   0.513  0.8304 -0.2047 -0.0914
    5SOL    HW1   18   1.791   1.448   0.584 -0.7083  1.5484  1.9846
    5SOL    HW2   19   1.671   1.505   0.505  1.9559 -0.9352 -1.3626
    5SOL     MW   20   1.753   1.500   0.521  0.7759 -0.0698  0.0148
    6SOL     OW   21   0.805   1.435   0.602 -0.0415 -0.3560 -0.2540
    6SOL    HW1   22   0.717   1.454   0.638  2.0017  3.0630  0.4566
    6SOL    HW2   23   0.836   1.357   0.641  2.1861  2.4989  0.6761
    6SOL     MW   24   0.797   1.427   0.612  0.5220  0.4718 -0.0375
    7SOL     OW   25   2.057   1.084   3.058  0.2032 -0.4604  0.7035
    7SOL    HW1   26   2.063   1.152   2.997 -1.1819 -0.8739  2.0416
    7SOL    HW2   27   2.107   1.115   3.131  1.4882 -1.0385 -1.1863
    7SOL     MW   28   2.064   1.097   3.059  0.1900 -0.5912  0.6307
    8SOL     OW   29   0.916   1.407   1.071  0.3822  0.0164  0.4724
    8SOL    HW1   30   1.012   1.384   1.067 -1.5765 -1.0223  1.1974
    8SOL    HW2   31   0.876   1.336   1.131 -2.1421  1.7122  2.5137
    8SOL     MW   32   0.924   1.395   1.078 -0.2093  0.1031  0.8374
    9SOL     OW   33   1.015   0.531   1.411 -0.2763  0.2513  0.1714
    9SOL    HW1   34   0.959   0.468   1.358 -0.2337 -1.4610 -2.4436
    9SOL    HW2   35   1.066   0.477   1.476  0.9309 -0.4151  1.0207
    9SOL     MW   36   1.014   0.515   1.413 -0.1114 -0.0625 -0.0616
   10SOL     OW   37   0.233   0.770   0.457 -0.9251 -0.2568  0.2519
   10SOL    HW1   38   0.320   0.799   0.426 -0.4949  2.3590  2.2768
   10SOL    HW2   39   0.229   0.824   0.539  0.5734  2.9807 -0.3338
   10SOL     MW   40   0.244   0.781   0.464 -0.6706  0.5155  0.4418
   11SOL     OW   41   0.810   1.145   1.732  0.1323 -0.0059 -0.3379
   11SOL    HW1   42   0.844   1.132   1.818 -1.4758 -2.4531  1.2323
   11SOL    HW2   43   0.839   1.077   1.675  0.0483 -0.6271  3.0810
   11SOL     MW   44   0.819   1.134   1.735 -0.0910 -0.4107  0.3204
   12SOL     OW   45   0.051   1.085   0.867 -0.6053 -0.2264  0.1522
   12SOL    HW1   46   0.083   1.161   0.918 -1.4658  3.3297  2.6062
   12SOL    HW2   47   0.018   1.129   0.787  1.7947 -2.8227 -2.4894
   12SOL     MW   48   0.051   1.101   0.863 -0.4022 -0.0998  0.1275
   13SOL     OW   49   1.876   1.423   1.335  0.5700 -0.6971 -0.1728
   13SOL    HW1   50   1.903   1.357   1.272 -2.5680 -0.5167  1.3559
   13SOL    HW2   51   1.878   1.511   1.296  0.9814 -0.5123  0.4515
   13SOL     MW   52   1.880   1.426   1.321  0.2103 -0.6489  0.1113
   14SOL     OW   53   0.636   0.412   1.878 -0.3829 -0.4190  0.0348
   14SOL    HW1   54   0.577   0.339   1.897 -0.6225 -1.9310  0.4837
   14SOL    HW2   55   0.719   0.418   1.935  0.8561 -0.2583 -5.2333
   14SOL     MW   56   0.639   0.403   1.888 -0.2510 -0.5973 -0.6011
   15SOL     OW   57   1.940   0.352   1.003 -0.2300 -0.2363  0.0418
   15SOL    HW1   58   1.949   0.401   1.084 -1.6005  0.6670 -0.5545
   15SOL    HW2   59   2.000   0.388   0.935  0.9833 -0.0518  1.1657
   15SOL     MW   60   1.949   0.363   1.004 -0.2507 -0.0928  0.1114
   16SOL     OW   61   0.192   1.807   0.320  0.4822 -0.3655  0.0397
   16SOL    HW1   62   0.278   1.762   0.327  0.3664 -2.4657  0.3475
   16SOL    HW2   63   0.207   1.891   0.358  0.3883 -1.9366 -1.0260
   16SOL     MW   64   0.206   1.812   0.326  0.4545 -0.8499 -0.0603
   17SOL     OW   65   1.130   0.904   1.437 -0.3722 -0.1676 -0.6866
   17SOL    HW1   66   1.182   0.884   1.516 -1.7608  0.0337  3.4611
   17SOL    HW2   67   1.040   0.893   1.466  1.6796  3.0655 -0.5147
   17SOL     MW   68   1.125   0.900   1.451 -0.2847  0.2855 -0.1167
   18SOL     OW   69   0.042   1.588   0.410  0.4299  0.3383 -0.0175
   18SOL    HW1   70   0.093   1.667   0.388 -0.7694 -0.6239  1.9647
   18SOL    HW2   71   0.057   1.541   0.330 -0.0649  0.3583 -1.9625
   18SOL     MW   72   0.051   1.592   0.396  0.2064  0.2140 -0.0126
   19SOL     OW   73   0.106   1.296   1.026  0.1721 -0.2639  0.2908
   19SOL    HW1   74   0.120   1.358   0.959 -2.1348  1.2320  1.2768
   19SOL    HW2   75   0.018   1.332   1.057 -2.4416  4.1100 -1.7896
   19SOL     MW   76   0.096   1.309   1.021 -0.4771  0.5106  0.1464
   20SOL     OW   77   0.463   2.140   1.189  0.1875  0.8164  0.4123
   20SOL    HW1   78   0.408   2.077   1.142 -0.8978 -0.9390 -0.4017
   20SOL    HW2   79   0.407   2.171   1.266  1.8172 -0.7968 -0.5331
   20SOL     MW   80   0.448   2.136   1.193  0.2593  0.3719  0.1802
   21SOL     OW   81   0.491   0.835   0.385 -0.1896  0.0390  0.3586
   21SOL    HW1   82   0.562   0.826   0.450 -1.2566 -0.3836  3.6823
   21SOL    HW2   83   0.522   0.815   0.298 -0.5555  2.7938  0.4993
   21SOL     MW   84   0.504   0.831   0.382 -0.3786  0.3467  0.8157
   22SOL     OW   85   1.566   0.696   1.043  0.5932 -0.5154 -0.8808
   22SOL    HW1   86   1.537   0.688   0.951 -0.5386 -0.2613  1.7297
   22SOL    HW2   87   1.500   0.751   1.091 -0.5221 -3.7925  0.7952
   22SOL     MW   88   1.553   0.702   1.037  0.2967 -0.9142 -0.3152
   23SOL     OW   89   0.002   0.761   0.660 -0.2230 -0.3167  0.2575
   23SOL    HW1   90   0.026   0.688   0.721 -0.5441 -3.5418 -1.9110
   23SOL    HW2   91   0.072   0.825   0.674 -2.0918  0.1291 -2.5563
   23SOL     MW   92   0.015   0.760   0.670 -0.5120 -0.6834 -0.3999
   24SOL     OW   93   1.987   2.231   0.069 -0.6271  0.6236 -0.6731
   24SOL    HW1   94   1.984   2.184   0.155  1.7375 -0.7664  1.6548
   24SOL    HW2   95   2.003   2.155   0.011 -0.5645 -0.8774 -0.3059
   24SOL     MW   96   1.988   2.215   0.072 -0.3068  0.2422 -0.3175
   25SOL     OW   97   0.265   1.408   0.522 -0.6837 -0.1783  0.2240
   25SOL    HW1   98   0.198   1.472   0.508  2.5576  1.4287  0.8796
   25SOL    HW2   99   0.350   1.450   0.528  2.4412  0.8856  2.8901
   25SOL     MW  100   0.267   1.422   0.521  0.1563  0.1741  0.6623
   26SOL     OW  101   2.047   0.993   0.349  0.8400  0.2298  0.2943
   26SOL    HW1  102   1.999   1.056   0.402  1.2818 -2.3085 -1.8112
   26SOL    HW2  103   2.100   1.032   0.282 -1.7986 -1.3917 -0.9552
   26SOL     MW  104   2.048   1.007   0.347  0.5501 -0.3190 -0.1483
   27SOL     OW  105   2.038   1.427   0.254 -0.2276  0.3483 -0.3939
   27SOL    HW1  106   1.958   1.392   0.292 -0.1675 -0.7073 -0.3230
   27SOL    HW2  107   2.077   1.492   0.313 -0.5449 -2.1247  0.4881
   27SOL     MW  108   2.032   1.431   0.267 -0.2616 -0.1173 -0.2682
   28SOL     OW  109   0.450   0.981   1.975  0.3351  0.1014 -0.4128
   28SOL    HW1  110   0.538   0.942   1.963 -3.7492 -1.5454 -0.5568
   28SOL    HW2  111   0.396   0.908   1.977  2.4350  0.3785 -1.4924
   28SOL     MW  112   0.455   0.967   1.973  0.0733 -0.0793 -0.5743
   29SOL     OW  113   0.275   1.437   0.809  0.1511 -0.1566 -0.0549
   29SOL    HW1  114   0.240   1.524   0.840  2.5326  0.2536  1.2926
   29SOL    HW2  115   0.251   1.429   0.719 -2.1253  0.4630  0.4570
   29SOL     MW  116   0.267   1.447   0.801  0.1650 -0.0207  0.1904
   30SOL     OW  117   0.830   1.194   1.215 -0.3102  0.4140 -0.3263
   30SOL    HW1  118   0.758   1.229   1.264  1.5470  0.3779  1.0996
   30SOL    HW2  119   0.895   1.174   1.288  1.9249  0.7290  2.3651
   30SOL     MW  120   0.829   1.196   1.231  0.2297  0.4508  0.2170
   31SOL     OW  121   0.385   0.160   0.198 -0.0583  1.0469  0.2010
   31SOL    HW1  122   0.401   0.071   0.230  0.0042 -1.0835 -0.6114
   31SOL    HW2  123   0.425   0.149   0.112 -1.5539  3.2843  2.4277
   31SOL     MW  124   0.392   0.147   0.191 -0.2474  1.0610  0.3876
   32SOL     OW  125   2.808   0.975   1.137 -0.0407 -0.1771  0.8086
   32SOL    HW1  126   2.750   0.903   1.119  0.4382 -2.4396 -1.0700
   32SOL    HW2  127   2.898   0.950   1.136  0.7933  1.1475  2.8307
   32SOL     MW  128   2.812   0.962   1.135  0.1326 -0.3008  0.8276
   33SOL     OW  129   1.748   1.295   0.325 -0.4643  0.3564 -0.0746
   33SOL    HW1  130   1.799   1.224   0.365  0.0378 -1.0734  0.2264
   33SOL    HW2  131   1.732   1.361   0.392  0.6971 -0.2588  0.0202
   33SOL     MW  132   1.752   1.294   0.339 -0.2448  0.0866 -0.0224
   34SOL     OW  133   1.232   1.853   1.092 -0.0697  0.0485  0.6258
   34SOL    HW1  134   1.154   1.910   1.090 -0.6151  1.7842  1.2089
   34SOL    HW2  135   1.280   1.876   1.168  0.0698  0.6296  0.5452
   34SOL     MW  136   1.228   1.864   1.102 -0.1232  0.3542  0.6921
   35SOL     OW  137   0.426   0.219   1.820 -0.3862 -0.2945 -0.1177
   35SOL    HW1  138   0.438   0.133   1.855 -0.1746  1.3464  1.5465
   35SOL    HW2  139   0.449   0.211   1.731 -0.2077  0.1196  0.2743
   35SOL     MW  140   0.430   0.206   1.813 -0.3347 -0.0234  0.1536
   36SOL     OW  141   1.938   1.975   0.559 -0.0019 -0.0805  0.8450
   36SOL    HW1  142   1.933   1.998   0.466  0.2555 -1.2669  2.0114
   36SOL    HW2  143   1.969   1.878   0.569 -0.4208  1.2482  0.0534
   36SOL     MW  144   1.941   1.965   0.548 -0.0232 -0.0618  0.8944
   37SOL     OW  145   1.767   1.977   0.988 -0.5994 -0.6882  0.0422
   37SOL    HW1  146   1.728   1.911   0.923 -1.4965 -1.3035 -0.4021
   37SOL    HW2  147   1.693   2.015   1.029 -1.2119  0.3470 -2.0528
   37SOL     MW  148   1.752   1.973   0.985 -0.7985 -0.6328 -0.2928
   38SOL     OW  149   2.815   0.890   0.124 -0.4155 -0.4135  0.4366
   38SOL    HW1  150   2.844   0.894   0.216  3.7334  1.3525  0.1950
   38SOL    HW2  151   2.899   0.893   0.073 -1.5690  2.6631 -0.2253
   38SOL     MW  152   2.830   0.891   0.129 -0.0203  0.2255  0.3174
   39SOL     OW  153   1.431   0.629   0.797 -0.1895  0.3081  0.2489
   39SOL    HW1  154   1.401   0.543   0.827 -1.2379 -0.0513  2.2643
   39SOL    HW2  155   1.354   0.675   0.753 -0.7635  2.1499 -3.6149
   39SOL     MW  156   1.417   0.624   0.795 -0.4035  0.5037  0.0050
   40SOL     OW  157   1.147   1.903   0.318 -0.2326 -0.0116 -0.4475
   40SOL    HW1  158   1.179   1.841   0.385  0.1546  1.2399 -1.4583
   40SOL    HW2  159   1.133   1.982   0.372 -0.8338 -2.5975  1.1949
   40SOL     MW  160   1.150   1.905   0.334 -0.2609 -0.1876 -0.3642
   41SOL     OW  161   0.551   0.569   1.661  0.3653  0.0281  0.7555
   41SOL    HW1  162   0.624   0.631   1.652 -0.1535  1.2573 -0.9298
   41SOL    HW2  163   0.579   0.496   1.712 -0.2867 -0.2422  2.1261
   41SOL     MW  164   0.565   0.567   1.666  0.2108  0.1546  0.7140
   42SOL     OW  165   1.282   3.005   1.981 -0.4292  0.0266 -0.3128
   42SOL    HW1  166   1.197   3.019   2.020  1.3009  2.5159 -1.2436
   42SOL    HW2  167   1.337   2.950   2.042 -1.8032 -2.5743 -1.3101
   42SOL     MW  168   1.278   2.999   1.994 -0.3822  0.0119 -0.5672
   43SOL     OW  169   1.543   0.129   1.707 -0.6985  0.5766  0.3461
   43SOL    HW1  170   1.583   0.084   1.633 -3.6916  3.6293 -0.4833
   43SOL    HW2  171   1.468   0.073   1.732  0.0480 -0.2689 -0.6972
   43SOL     MW  172   1.539   0.116   1.701 -0.9949  0.8678  0.0990
   44SOL     OW  173   1.041   0.793   1.010 -0.1490 -0.5294 -0.0421
   44SOL    HW1  174   1.055   0.884   0.983 -0.3808  0.6542  3.1579
   44SOL    HW2  175   1.110   0.775   1.077  1.6996  1.2407 -0.4368
   44SOL     MW  176   1.052   0.803   1.015  0.0643 -0.1397  0.3280
   45SOL     OW  177   1.217   0.766   0.660  0.1244  0.1040 -0.1359
   45SOL    HW1  178   1.153   0.807   0.716 -1.1018 -1.1805  1.1514
   45SOL    HW2  179   1.166   0.716   0.600 -3.6665  2.4945  0.1677
   45SOL     MW  180   1.202   0.765   0.660 -0.5375  0.2499  0.0740
   46SOL     OW  181   0.549   1.192   0.602  0.4924  0.1375 -0.7424
   46SOL    HW1  182   0.514   1.176   0.511 -1.1853  1.5730 -0.5038
   46SOL    HW2  183   0.620   1.129   0.613 -3.9682  1.5039  2.0344
   46SOL     MW  184   0.554   1.181   0.592 -0.3175  0.5072 -0.3446
   47SOL     OW  185   0.178   1.986   1.955  0.4695  0.1894  0.9635
   47SOL    HW1  186   0.272   1.964   1.964  0.4748  1.8391 -2.4455
   47SOL    HW2  187   0.137   1.981   2.038  0.6745 -0.2179  0.5544
   47SOL     MW  188   0.185   1.982   1.967  0.4972  0.3533  0.4597
   48SOL     OW  189   1.076   0.520   0.984  0.0719  0.5258  0.4155
   48SOL    HW1  190   0.988   0.484   0.996 -0.5506  0.3557  2.9323
   48SOL    HW2  191   1.065   0.609   0.985 -1.1074 -0.3433  1.1505
   48SOL     MW  192   1.063   0.527   0.986 -0.1659  0.3887  0.8445
   49SOL     OW  193   1.804   0.722   1.555 -0.3626 -0.1495  0.0311
   49SOL    HW1  194   1.783   0.650   1.613 -0.4780 -0.2291 -3.6083
   49SOL    HW2  195   1.874   0.694   1.496 -0.3377  1.3394 -3.2063
   49SOL     MW  196   1.810   0.709   1.555 -0.3745  0.0364 -0.8762
   50SOL     OW  197   1.276   1.058   0.505  0.3590  0.0070 -0.6060
   50SOL    HW1  198   1.234   1.095   0.585 -2.1689 -1.8561  2.4877
   50SOL    HW2  199   1.360   1.017   0.531  2.4840  1.2031  1.9735
   50SOL     MW  200   1.281   1.058   0.519  0.3058 -0.0810  0.1425
   51SOL     OW  201   0.321   2.893   0.915  0.4202  0.3239 -0.2114
   51SOL    HW1  202   0.401   2.838   0.926 -0.8150  3.7584  1.6672
   51SOL    HW2  203   0.314   2.943   0.999  2.5747 -2.1550  1.2374
   51SOL     MW  204   0.331   2.892   0.927  0.5415  0.4500  0.2276
   52SOL     OW  205   0.791   1.797   0.466 -0.3071 -0.6313 -0.5495
   52SOL    HW1  206   0.762   1.885   0.439  1.5688 -0.9747 -0.8296
   52SOL    HW2  207   0.763   1.743   0.394  2.5110 -1.5930 -0.4918
   52SOL     MW  208   0.783   1.801   0.453  0.3122 -0.8035 -0.5789
   53SOL     OW  209   0.454   2.117   0.546 -0.0800  0.2284 -0.6254
   53SOL    HW1  210   0.375   2.106   0.487  2.4036 -1.1446 -2.2561
   53SOL    HW2  211   0.432   2.203   0.582  1.6180  0.4349  1.5444
   53SOL     MW  212   0.440   2.127   0.543  0.4717  0.0745 -0.5543
   54SOL     OW  213   2.029   0.947   0.798 -0.7632  0.0954 -0.1810
   54SOL    HW1  214   2.079   0.945   0.718 -0.1062  2.4364  0.3334
   54SOL    HW2  215   2.001   0.855   0.812  4.0524 -1.6850  0.5059
   54SOL     MW  216   2.032   0.935   0.790 -0.0412  0.1694 -0.0225
   55SOL     OW  217   0.523   1.564   1.620 -0.1674  0.2381 -0.3649
   55SOL    HW1  218   0.480   1.602   1.541  0.2586 -2.2469  0.2684
   55SOL    HW2  219   0.591   1.500   1.598  1.8466  0.4260 -0.7752
   55SOL     MW  220   0.526   1.561   1.606  0.1545 -0.0649 -0.3354
   56SOL     OW  221   0.604   0.786   0.133  0.3219  0.1492  0.7856
   56SOL    HW1  222   0.654   0.868   0.124  1.6409  1.2459  2.5345
   56SOL    HW2  223   0.529   0.796   0.070  0.2752 -0.1914 -0.4736
   56SOL     MW  224   0.600   0.798   0.123  0.4897  0.2490  0.8502
   57SOL     OW  225   1.168   1.279   1.130  0.0357  0.4300  0.9025
   57SOL    HW1  226   1.261   1.275   1.087 -0.5472  0.2218 -2.4682
   57SOL    HW2  227   1.170   1.226   1.205  0.3443  0.5412  0.3312
   57SOL     MW  228   1.181   1.272   1.134 -0.0005  0.4172  0.3824
   58SOL     OW  229   0.566   1.166   1.346  0.1440  0.1425  0.4489
   58SOL    HW1  230   0.533   1.257   1.326  3.9636  0.2736  1.9471
   58SOL    HW2  231   0.576   1.153   1.437 -0.2120 -3.0981 -0.0494
   58SOL     MW  232   0.563   1.176   1.355  0.6010 -0.2678  0.5809
   59SOL     OW  233   1.554   1.718   0.359  0.0886  0.1650  0.2452
   59SOL    HW1  234   1.599   1.775   0.427  0.1079  1.2151  0.9000
   59SOL    HW2  235   1.463   1.709   0.386  2.8306  1.4995 -0.9056
   59SOL     MW  236   1.548   1.724   0.372  0.4529  0.4796  0.1798
   60SOL     OW  237   0.068   0.211   1.577 -0.2954 -0.0890  0.0846
   60SOL    HW1  238  -0.011   0.247   1.606  1.5135  1.5339 -0.8835
   60SOL    HW2  239   0.083   0.137   1.643  3.1335 -1.5644  1.0056
   60SOL     MW  240   0.060   0.206   1.590  0.3957 -0.0695  0.0784
   61SOL     OW  241   2.038   1.496   3.089 -0.6531 -0.0611  0.4574
   61SOL    HW1  242   2.021   1.492   3.186  0.1172  2.2685  0.3250
   61SOL    HW2  243   2.101   1.422   3.080 -1.2450 -1.4193 -2.9650
   61SOL     MW  244   2.044   1.486   3.100 -0.6296  0.0671 -0.0116
   62SOL     OW  245   0.568   1.724   0.618 -0.5310 -0.4198  0.0109
   62SOL    HW1  246   0.659   1.755   0.587  2.0116  0.4948 -0.9552
   62SOL    HW2  247   0.586   1.633   0.626 -1.5614 -1.1805 -0.0028
   62SOL     MW  248   0.582   1.716   0.615 -0.3315 -0.3995 -0.1184
   63SOL     OW  249   1.701   0.681   0.697 -0.3100 -0.7132 -0.2421
   63SOL    HW1  250   1.711   0.764   0.645 -0.6738 -0.2482 -0.2349
   63SOL    HW2  251   1.610   0.680   0.727  0.0042  1.3376  0.6023
   63SOL     MW  252   1.691   0.692   0.694 -0.3165 -0.3812 -0.1298
   64SOL     OW  253   0.184   1.690   0.826  0.4894  0.0649  0.3854
   64SOL    HW1  254   0.246   1.763   0.807 -0.6297 -2.6444 -1.5311
   64SOL    HW2  255   0.100   1.726   0.788  0.9571 -3.1812 -0.4730
   64SOL     MW  256   0.181   1.705   0.818  0.4035 -0.7208  0.0193
   65SOL     OW  257   1.605   2.293   0.397  0.1868 -0.0017  0.0382
   65SOL    HW1  258   1.697   2.301   0.414  1.5846  2.5806 -1.9640
   65SOL    HW2  259   1.556   2.339   0.467  1.6397 -0.3789  2.8489
   65SOL     MW  260   1.610   2.300   0.409  0.5629  0.2893  0.1449
   66SOL     OW  261   0.274   0.524   0.552 -0.0093  0.3151  0.3418
   66SOL    HW1  262   0.345   0.496   0.488  1.2259  0.4687  0.2885
   66SOL    HW2  263   0.256   0.606   0.516  0.8893 -2.1023 -0.0553
   66SOL     MW  264   0.281   0.531   0.539  0.2723  0.0164  0.2824
   67SOL     OW  265   1.540   0.066   2.036 -0.2425  0.1635 -0.0077
   67SOL    HW1  266   1.615   0.059   1.983 -0.9891  2.0111  0.3326
   67SOL    HW2  267   1.526  -0.022   2.078 -1.3464  1.0873  0.1320
   67SOL     MW  268   1.548   0.054   2.035 -0.4867  0.5292  0.0556
   68SOL     OW  269   0.731   0.061   2.917 -0.2386 -0.5609  0.0673
   68SOL    HW1  270   0.725   0.115   2.835  2.1385 -1.5201 -0.3498
   68SOL    HW2  271   0.776   0.116   2.978 -1.4503  0.4356 -3.1502
   68SOL     MW  272   0.736   0.075   2.914 -0.0849 -0.5560 -0.4123
   69SOL     OW  273   1.051   0.226   1.974  0.4050 -0.5247  0.0549
   69SOL    HW1  274   1.141   0.245   1.997 -0.6311 -0.0953 -0.7971
   69SOL    HW2  275   1.050   0.135   2.002 -0.7947 -2.7489  0.1410
   69SOL     MW  276   1.063   0.216   1.980  0.1100 -0.7615 -0.0461
   70SOL     OW  277   0.546   1.740   1.123  0.3471  0.1186  0.0068
   70SOL    HW1  278   0.591   1.735   1.209  1.9401 -2.7798 -1.0357
   70SOL    HW2  279   0.607   1.775   1.059 -2.6495  0.9054 -2.9275
   70SOL     MW  280   0.560   1.744   1.126  0.1619 -0.1600 -0.5179
   71SOL     OW  281   1.582   0.490   1.245 -0.0433 -0.1257  0.1182
   71SOL    HW1  282   1.565   0.559   1.308 -0.0640  0.0307  1.1304
   71SOL    HW2  283   1.573   0.534   1.160 -0.3691 -0.1907 -0.6029
   71SOL     MW  284   1.579   0.505   1.242 -0.0890 -0.1137  0.1566
   72SOL     OW  285   0.746   1.839   0.957 -0.0211  0.3256  0.2435
   72SOL    HW1  286   0.753   1.897   0.879  0.3584  1.5380  1.4975
   72SOL    HW2  287   0.750   1.743   0.936 -1.1236 -2.5444  0.1510
   72SOL     MW  288   0.748   1.834   0.944 -0.1165  0.1069  0.3967
   73SOL     OW  289   1.202   0.699   1.262  0.1506 -0.5204 -0.2679
   73SOL    HW1  290   1.152   0.626   1.299  0.5316 -0.2426 -0.9105
   73SOL    HW2  291   1.186   0.773   1.325  0.2371 -0.1258  0.8717
   73SOL     MW  292   1.193   0.699   1.275  0.2123 -0.4317 -0.2023
   74SOL     OW  293   2.706   0.143   0.965 -0.1527  0.4277  0.1694
   74SOL    HW1  294   2.795   0.145   0.927  1.6032  0.1407  0.4880
   74SOL    HW2  295   2.683   0.234   0.953  1.1931 -0.4583  0.0892
   74SOL     MW  296   2.715   0.155   0.959  0.2565  0.2729  0.2008
   75SOL     OW  297   1.618   1.399   0.113  0.0881  0.7360  0.6655
   75SOL    HW1  298   1.652   1.489   0.109 -1.0722  0.8095  0.8493
   75SOL    HW2  299   1.659   1.367   0.196 -2.5858 -0.0168 -0.6068
   75SOL     MW  300   1.628   1.407   0.124 -0.4178  0.6463  0.5219
   76SOL     OW  301   2.976   0.560   0.477 -0.5436 -0.4483 -0.1248
   76SOL    HW1  302   3.033   0.614   0.534 -0.5727  1.0458 -0.2037
   76SOL    HW2  303   3.033   0.488   0.440 -0.5873 -0.6671  0.4761
   76SOL     MW  304   2.991   0.558   0.480 -0.5532 -0.2800 -0.0560
   77SOL     OW  305   0.815   0.544   0.474  0.0198  0.0844 -0.1083
   77SOL    HW1  306   0.794   0.555   0.379  0.1655  0.3933 -0.8150
   77SOL    HW2  307   0.764   0.471   0.499  2.5955  0.6726 -0.2834
   77SOL     MW  308   0.806   0.536   0.465  0.3789  0.2028 -0.2247
   78SOL     OW  309   0.728   0.896   1.290  0.1393 -0.3592 -0.4025
   78SOL    HW1  310   0.691   0.986   1.271  0.9206  1.6362  0.2916
   78SOL    HW2  311   0.711   0.840   1.214  1.8125  1.3724  0.5400
   78SOL     MW  312   0.721   0.900   1.277  0.4632  0.1326 -0.1866
   79SOL     OW  313   1.962   1.689   0.596 -0.2235  0.2389 -0.1908
   79SOL    HW1  314   1.899   1.645   0.535  0.7555  1.2238 -2.3205
   79SOL    HW2  315   1.939   1.651   0.685  0.5787  1.1168  1.0614
   79SOL     MW  316   1.950   1.678   0.600  0.0115  0.4847 -0.3066
   80SOL     OW  317   0.086   0.952   0.329 -0.0856  0.4665 -0.0397
   80SOL    HW1  318  -0.007   0.916   0.325  0.5158  1.5881 -2.3205
   80SOL    HW2  319   0.135   0.889   0.381 -0.8675 -1.4868  0.9163
   80SOL     MW  320   0.080   0.939   0.335 -0.1094  0.3568 -0.2145
   81SOL     OW  321   1.906   1.874   0.278 -0.3587 -0.1561  0.1296
   81SOL    HW1  322   1.868   1.786   0.260 -1.4467 -1.6308  4.3512
   81SOL    HW2  323   1.840   1.937   0.242 -1.6326  2.9146 -1.4516
   81SOL     MW  324   1.892   1.871   0.271 -0.6703  0.0545  0.4780
   82SOL     OW  325   0.780   1.016   0.561 -0.3274  0.3559  0.1472
   82SOL    HW1  326   0.784   1.040   0.461 -1.1081 -0.5440  0.9413
   82SOL    HW2  327   0.741   0.929   0.568 -0.6973  0.9934  0.5463
   82SOL     MW  328   0.775   1.008   0.548 -0.4792  0.3213  0.3046
   83SOL     OW  329   0.061   0.633   1.454 -0.0290 -0.4091  0.0339
   83SOL    HW1  330   0.086   0.701   1.384 -2.0204  1.1247  1.0648
   83SOL    HW2  331   0.145   0.581   1.459  0.8731 -1.3601 -2.9525
   83SOL     MW  332   0.075   0.635   1.445 -0.1727 -0.3322 -0.2241
   84SOL     OW  333   0.116   0.235   1.030  0.0131 -0.2136  0.1969
   84SOL    HW1  334   0.049   0.294   0.993  4.1006 -0.5126 -0.4697
   84SOL    HW2  335   0.080   0.202   1.113 -2.1857  0.3247 -0.5010
   84SOL     MW  336   0.102   0.238   1.036  0.2623 -0.1820  0.0168
   85SOL     OW  337   0.475   0.438   0.746  0.2821 -0.4004  0.8049
   85SOL    HW1  338   0.415   0.479   0.679 -1.1011  1.1836 -1.2896
   85SOL    HW2  339   0.431   0.357   0.782 -0.5702 -0.4744  0.0152
   85SOL     MW  340   0.461   0.433   0.742 -0.0128 -0.2012  0.4243
   86SOL     OW  341   1.173   0.258   1.137  0.1232 -0.2490 -0.0130
   86SOL    HW1  342   1.114   0.328   1.103 -1.2840  1.7319  0.8330
   86SOL    HW2  343   1.245   0.293   1.187 -0.6360 -1.2343 -0.0503
   86SOL     MW  344   1.175   0.272   1.139 -0.1626 -0.1176  0.0937
   87SOL     OW  345   1.282   1.476   1.309  0.0922 -0.0252 -0.5108
   87SOL    HW1  346   1.286   1.519   1.221  0.2111  0.3182 -1.3504
   87SOL    HW2  347   1.243   1.395   1.286  0.8036  0.5289  2.0612
   87SOL     MW  348   1.277   1.471   1.294  0.2017  0.0932 -0.2822
   88SOL     OW  349   1.185   1.036   0.978  0.0483  0.5676 -0.2351
   88SOL    HW1  350   1.280   1.047   0.983 -0.4809  0.1707 -0.2753
   88SOL    HW2  351   1.159   1.108   1.035  1.6056 -0.6038 -2.8758
   88SOL     MW  352   1.194   1.047   0.986  0.1840  0.3607 -0.5888
   89SOL     OW  353   1.745   0.715   0.358 -0.4202  0.2005 -0.2354
   89SOL    HW1  354   1.761   0.618   0.368 -1.1650  0.9798  1.5061
   89SOL    HW2  355   1.819   0.754   0.311  1.1747  2.2625  1.6690
   89SOL     MW  356   1.757   0.707   0.353 -0.3081  0.5754  0.2456
   90SOL     OW  357   0.764   1.129   2.728  0.5696 -0.6230 -0.2759
   90SOL    HW1  358   0.770   1.051   2.778 -1.7373 -3.0691 -0.0622
   90SOL    HW2  359   0.796   1.196   2.785  2.3790  2.4846  1.5505
   90SOL     MW  360   0.769   1.128   2.742  0.5040 -0.5358 -0.0067
   91SOL     OW  361   2.206   0.668   0.439  0.5567  0.0884  0.1899
   91SOL    HW1  362   2.252   0.703   0.363 -3.3250 -1.5794 -1.9915
   91SOL    HW2  363   2.196   0.576   0.419 -1.8886 -0.7275  0.1264
   91SOL     MW  364   2.210   0.661   0.426 -0.2780 -0.2393 -0.1063
   92SOL     OW  365   1.724   0.905   0.564  0.6750  0.3037  0.0000
   92SOL    HW1  366   1.631   0.900   0.604  0.0635  0.8587 -2.3053
   92SOL    HW2  367   1.742   0.833   0.502 -1.1070  1.1535  1.6884
   92SOL     MW  368   1.714   0.895   0.561  0.3592  0.4891 -0.0814
   93SOL     OW  369   0.979   0.238   0.403  0.1059  0.1427  0.2642
   93SOL    HW1  370   0.891   0.276   0.417 -0.3305 -0.5991  0.8378
   93SOL    HW2  371   1.012   0.280   0.322  1.0536 -2.1885 -0.7678
   93SOL     MW  372   0.972   0.249   0.394  0.1734 -0.2627  0.2037
   94SOL     OW  373   1.826   1.412   1.633  0.1052 -0.5510 -0.4839
   94SOL    HW1  374   1.827   1.385   1.541 -0.7904  0.2834 -4.3752
   94SOL    HW2  375   1.804   1.336   1.689 -1.2027 -1.8984  0.2147
   94SOL     MW  376   1.823   1.398   1.628 -0.1855 -0.6187 -0.9051
   95SOL     OW  377   0.757   1.584   0.923  0.8271 -0.3884  0.0007
   95SOL    HW1  378   0.806   1.527   0.980 -0.5566  2.3224  3.8557
   95SOL    HW2  379   0.662   1.566   0.935  0.5260  1.8805  1.4084
   95SOL     MW  380   0.751   1.574   0.932  0.6048  0.2686  0.6951
   96SOL     OW  381   1.272   1.865   1.644 -0.3869 -0.1561 -0.4593
   96SOL    HW1  382   1.174   1.864   1.667  1.5533 -1.9281  1.5258
   96SOL    HW2  383   1.292   1.774   1.646 -0.7216  4.6331 -0.3012
   96SOL     MW  384   1.262   1.853   1.647 -0.1751  0.2420 -0.1765
   97SOL     OW  385   1.249   1.462   0.753 -0.4376  0.5667  0.4237
   97SOL    HW1  386   1.305   1.519   0.807  1.3731 -0.4184 -0.6965
   97SOL    HW2  387   1.156   1.495   0.752 -1.8947 -0.9235  2.0759
   97SOL     MW  388   1.244   1.474   0.760 -0.3910  0.2401  0.4939
   98SOL     OW  389   1.418   1.266   1.046 -0.5779 -0.2867  0.2939
   98SOL    HW1  390   1.462   1.323   1.114 -0.1809 -3.4208  0.1482
   98SOL    HW2  391   1.466   1.283   0.962  0.6826  1.5440  1.1783
   98SOL     MW  392   1.430   1.276   1.044 -0.3592 -0.4586  0.3913
   99SOL     OW  393   1.334   0.332   1.349  0.0957  0.0849  0.1832
   99SOL    HW1  394   1.391   0.398   1.315 -0.5324 -0.6424  3.6235
   99SOL    HW2  395   1.323   0.352   1.442 -4.6605  1.4056  0.4301
   99SOL     MW  396   1.340   0.343   1.357 -0.6147  0.1632  0.6697
  100SOL     OW  397   0.998   1.175   1.453 -0.1764 -0.2541  0.1574
  100SOL    HW1  398   1.030   1.227   1.530  0.1046 -2.6981  0.4274
  100SOL    HW2  399   1.070   1.115   1.441  0.4066  2.0506 -1.0583
  100SOL     MW  400   1.012   1.174   1.462 -0.0624 -0.2725  0.0326
  101SOL     OW  401   0.487   1.114   0.362  0.1412  0.4773  0.5391
  101SOL    HW1  402   0.481   1.018   0.360  1.3891 -1.8816 -0.4446
  101SOL    HW2  403   0.437   1.135   0.279 -1.0093  0.4412 -1.1839
  101SOL     MW  404   0.480   1.104   0.351  0.1540  0.1613  0.1820
  102SOL     OW  405   2.924   0.649   1.071 -0.1645 -0.1130 -0.6057
  102SOL    HW1  406   2.983   0.726   1.073 -2.8213  0.6566  1.7611
  102SOL    HW2  407   2.914   0.621   1.161 -0.0889  3.3500 -0.9922
  102SOL     MW  408   2.931   0.655   1.083 -0.5051  0.4454 -0.3444
  103SOL     OW  409   1.763   0.302   1.816 -1.2081  0.0092  0.7511
  103SOL    HW1  410   1.684   0.247   1.785 -0.2987  2.4882  2.0825
  103SOL    HW2  411   1.812   0.251   1.875  0.8207 -1.4888 -0.6454
  103SOL     MW  412   1.759   0.288   1.820 -0.8204  0.1387  0.7425
  104SOL     OW  413   0.138   1.609   1.493  0.2676 -0.6598  0.7927
  104SOL    HW1  414   0.139   1.563   1.572  0.3596 -1.8153 -2.8880
  104SOL    HW2  415   0.049   1.592   1.446 -2.2105  1.3560 -3.2773
  104SOL     MW  416   0.126   1.601   1.498 -0.0472 -0.5463 -0.2299
  105SOL     OW  417   0.040   1.222   0.431  0.8421  0.3282 -0.1760
  105SOL    HW1  418   0.082   1.131   0.426  1.4852 -0.9414 -0.5467
  105SOL    HW2  419   0.119   1.273   0.445 -1.5183 -0.1512 -0.5960
  105SOL     MW  420   0.056   1.217   0.432  0.6156  0.0974 -0.2803
  106SOL     OW  421   0.857   0.351   0.985  0.0655 -0.3156 -0.3600
  106SOL    HW1  422   0.808   0.408   0.924  0.8339  0.5048 -0.4126
  106SOL    HW2  423   0.926   0.306   0.930 -0.1968  0.4179 -0.2751
  106SOL     MW  424   0.860   0.353   0.969  0.1323 -0.1106 -0.3558
  107SOL     OW  425   0.802   2.183   2.983  0.2099  0.2800 -0.8644
  107SOL    HW1  426   0.735   2.161   2.915  0.3988 -3.1699 -0.8867
  107SOL    HW2  427   0.790   2.126   3.063  1.3434  0.1188  0.4306
  107SOL     MW  428   0.791   2.172   2.984  0.3844 -0.1965 -0.6965
  108SOL     OW  429   1.323   1.613   1.649  0.0268  0.4179  0.0314
  108SOL    HW1  430   1.276   1.577   1.573  1.3095  4.5729  2.0927
  108SOL    HW2  431   1.410   1.590   1.618 -1.3352 -0.2915  1.1576
  108SOL     MW  432   1.328   1.605   1.635  0.0163  0.8725  0.4520
  109SOL     OW  433   1.958   0.791   0.206 -0.5041 -0.0811  0.5507
  109SOL    HW1  434   1.922   0.871   0.168  2.3185 -1.6802 -1.9641
  109SOL    HW2  435   2.014   0.812   0.282  0.5378  0.0488  1.4423
  109SOL     MW  436   1.961   0.804   0.211  0.0058 -0.2749  0.3366
  110SOL     OW  437   0.362   1.876   0.690 -0.4895 -0.4898 -0.7877
  110SOL    HW1  438   0.443   1.824   0.673  0.5588 -2.2036 -0.4134
  110SOL    HW2  439   0.377   1.954   0.636 -0.9307  0.5805  0.1374
  110SOL     MW  440   0.375   1.879   0.680 -0.4094 -0.5747 -0.6162
  111SOL     OW  441   0.860   0.909   1.538  0.3236 -0.1875  0.0409
  111SOL    HW1  442   0.821   0.906   1.447 -1.8172  1.1066 -3.1508
  111SOL    HW2  443   0.843   0.819   1.574 -1.3676 -0.4987 -2.7186
  111SOL     MW  444   0.852   0.897   1.531 -0.1820 -0.0578 -0.7443
  112SOL     OW  445   1.343   1.122   1.618 -0.0812  0.4248  0.2342
  112SOL    HW1  446   1.292   1.191   1.667 -1.1077  0.1527 -0.2120
  112SOL    HW2  447   1.313   1.035   1.644 -1.2975 -0.0878  2.4933
  112SOL     MW  448   1.332   1.120   1.628 -0.3771  0.3213  0.4734
  113SOL     OW  449   1.288   3.103   1.714 -0.3291 -0.5592 -0.0095
  113SOL    HW1  450   1.278   3.079   1.809  3.2750  1.9791  1.7543
  113SOL    HW2  451   1.317   3.024   1.664  3.9656 -2.4902  1.8142
  113SOL     MW  452   1.290   3.089   1.720  0.7131 -0.4790  0.4639
  114SOL     OW  453   0.286   2.868   1.955  0.4691  0.2252  0.3985
  114SOL    HW1  454   0.352   2.929   1.995  2.3753  4.3250 -0.8992
  114SOL    HW2  455   0.298   2.867   1.857  0.4890  0.2987  1.6471
  114SOL     MW  456   0.296   2.876   1.947  0.7233  0.7758  0.3920
  115SOL     OW  457   0.497   0.857   1.107  0.0724 -0.1686 -0.1987
  115SOL    HW1  458   0.504   0.762   1.122 -0.1674  1.0062  0.3346
  115SOL    HW2  459   0.455   0.888   1.189  1.2797  1.7061  3.1834
  115SOL     MW  460   0.492   0.849   1.120  0.2001  0.2337  0.3179
  116SOL     OW  461   0.784   1.090   0.927  0.1943  0.3035  0.2817
  116SOL    HW1  462   0.832   1.144   0.858 -1.9225  1.2724 -2.1460
  116SOL    HW2  463   0.829   1.095   1.015 -0.4986  0.3029 -0.2791
  116SOL     MW  464   0.796   1.098   0.929 -0.1764  0.4313 -0.1126
  117SOL     OW  465   1.179   1.174   0.737  0.6397 -0.0219 -0.2394
  117SOL    HW1  466   1.181   1.117   0.817 -0.9092  1.2738  0.8579
  117SOL    HW2  467   1.208   1.257   0.765  0.6471 -1.4312 -0.9021
  117SOL     MW  468   1.183   1.177   0.751  0.4363 -0.0369 -0.1821
  118SOL     OW  469   3.050   2.978   1.714 -0.4749  0.0280 -0.0713
  118SOL    HW1  470   3.128   3.032   1.741  1.5671 -0.2825 -4.0108
  118SOL    HW2  471   2.966   3.020   1.745 -0.7823 -0.1462  1.4635
  118SOL     MW  472   3.049   2.990   1.721 -0.2460 -0.0359 -0.3886
  119SOL     OW  473   0.429   1.490   1.287  0.2483  0.4033  0.6845
  119SOL    HW1  474   0.474   1.517   1.207 -1.8141 -0.1225 -0.5598
  119SOL    HW2  475   0.333   1.484   1.272  0.4879  0.6089 -2.0844
  119SOL     MW  476   0.422   1.493   1.275  0.0078  0.3610  0.1550
  120SOL     OW  477   0.255   0.694   0.994  0.3599  0.1822  0.4012
  120SOL    HW1  478   0.239   0.650   1.079  0.0386 -0.4929  1.2375
  120SOL    HW2  479   0.331   0.751   1.008  0.4139 -2.0193  1.1009
  120SOL     MW  480   0.263   0.696   1.007  0.3246 -0.1973  0.6039
  121SOL     OW  481   1.715   1.173   1.738  0.2347 -0.4019  0.0958
  121SOL    HW1  482   1.621   1.153   1.748 -3.0133 -0.8262 -0.4036
  121SOL    HW2  483   1.742   1.105   1.675 -1.2798 -0.2603  2.8383
  121SOL     MW  484   1.706   1.161   1.731 -0.3937 -0.4392  0.3917
  122SOL     OW  485   0.131   0.556   0.773 -0.3984  0.2205 -0.3718
  122SOL    HW1  486   0.185   0.547   0.693 -0.3627  1.5578 -0.5317
  122SOL    HW2  487   0.192   0.589   0.847 -0.1203 -2.4271 -0.0967
  122SOL     MW  488   0.146   0.559   0.772 -0.3570  0.0477 -0.3566
  123SOL     OW  489   1.893   1.137   0.502  0.1497  0.3594 -0.1396
  123SOL    HW1  490   1.839   1.064   0.533 -1.8892  0.6182 -0.8306
  123SOL    HW2  491   1.890   1.202   0.569 -2.7757  2.3806  0.3516
  123SOL     MW  492   1.886   1.136   0.515 -0.5053  0.6602 -0.1659
  124SOL     OW  493   0.679   0.548   0.890 -0.2269  0.3571  0.9146
  124SOL    HW1  494   0.611   0.515   0.823 -1.4495  0.4953  0.5384
  124SOL    HW2  495   0.687   0.643   0.880  0.0978  0.6950  0.1689
  124SOL     MW  496   0.671   0.556   0.880 -0.3453  0.4199  0.7666
  125SOL     OW  497   0.651   1.785   1.702 -0.5648 -0.2314  0.0791
  125SOL    HW1  498   0.591   1.713   1.676  0.9719  2.4862 -2.5591
  125SOL    HW2  499   0.612   1.873   1.679 -3.1775  1.9863 -0.4254
  125SOL     MW  500   0.638   1.787   1.696 -0.7068  0.4197 -0.3356
  126SOL     OW  501   2.068   1.588   1.946 -0.1704 -0.6617 -0.0330
  126SOL    HW1  502   2.118   1.670   1.960 -2.1184 -0.1549 -1.5929
  126SOL    HW2  503   2.128   1.516   1.967  1.4110  2.0261  1.0848
  126SOL     MW  504   2.082   1.589   1.950 -0.2187 -0.2402 -0.0914
  127SOL     OW  505   0.673   0.797   1.838 -0.6010 -0.0296  0.0113
  127SOL    HW1  506   0.741   0.731   1.866 -2.4361 -0.7501 -0.4739
  127SOL    HW2  507   0.693   0.875   1.894  2.1059  1.5114 -1.1121
  127SOL     MW  508   0.685   0.798   1.849 -0.4860  0.0786 -0.2009
  128SOL     OW  509   1.788   0.719   2.934 -0.2020  0.2726  0.1217
  128SOL    HW1  510   1.815   0.698   2.843 -1.1203 -0.1080  0.0018
  128SOL    HW2  511   1.758   0.813   2.923  0.4950 -0.4533 -1.6207
  128SOL     MW  512   1.787   0.729   2.920 -0.2312  0.1266 -0.1241
  129SOL     OW  513   1.597   0.947   0.188 -0.5790 -0.3205  0.4453
  129SOL    HW1  514   1.555   0.860   0.167  0.5206  1.0820 -0.5585
  129SOL    HW2  515   1.594   0.953   0.281 -0.7188  1.6075  0.7172
  129SOL     MW  516   1.591   0.936   0.197 -0.4524  0.1189  0.3487
  130SOL     OW  517   0.761   1.381   0.338 -0.0166  0.2866 -0.4122
  130SOL    HW1  518   0.787   1.386   0.433  2.5616 -1.2248  1.0523
  130SOL    HW2  519   0.817   1.439   0.286 -0.8661 -2.9940  4.0304
  130SOL     MW  520   0.772   1.389   0.344  0.2115 -0.3456  0.3672
  131SOL     OW  521   3.063   0.807   0.006  0.4601 -0.1705  0.3881
  131SOL    HW1  522   3.051   0.807  -0.093  0.7527 -2.8545  1.2647
  131SOL    HW2  523   3.154   0.786   0.030 -1.2837 -1.2504 -1.8422
  131SOL     MW  524   3.073   0.804  -0.004  0.2686 -0.6671  0.2095
  132SOL     OW  525   2.685   0.121   1.256 -0.0094  0.0714  0.0527
  132SOL    HW1  526   2.701   0.122   1.155  0.0444 -0.7402 -1.1517
  132SOL    HW2  527   2.590   0.101   1.273  1.3720  2.8379  1.2797
  132SOL     MW  528   2.674   0.118   1.245  0.1800  0.3293  0.0557
  133SOL     OW  529   1.034   0.167   1.716  0.7823  0.5233 -0.4623
  133SOL    HW1  530   1.098   0.099   1.697 -1.2926 -1.7803 -2.0141
  133SOL    HW2  531   1.039   0.182   1.813 -0.9269 -1.0551 -1.3441
  133SOL     MW  532   1.043   0.160   1.727  0.2830  0.0111 -0.7834
  134SOL     OW  533   1.356   2.525   1.445 -0.0495  0.1746 -0.6955
  134SOL    HW1  534   1.279   2.584   1.450  0.2763  1.7838  4.0220
  134SOL    HW2  535   1.420   2.561   1.510 -0.2855  1.3825  0.3899
  134SOL     MW  536   1.355   2.538   1.454 -0.0377  0.5463  0.0702
  135SOL     OW  537   3.014   0.967   2.863 -0.2166 -0.0251 -0.3528
  135SOL    HW1  538   3.088   1.001   2.912 -3.5286  2.3535 -1.6926
  135SOL    HW2  539   2.962   1.046   2.845  0.6616  0.5038  0.5413
  135SOL     MW  540   3.017   0.982   2.867 -0.5377  0.3585 -0.4116
  136SOL     OW  541   0.178   2.033   0.835 -0.4405  0.2584 -0.3095
  136SOL    HW1  542   0.108   1.967   0.820  2.2688 -2.2469  0.1715
  136SOL    HW2  543   0.238   2.014   0.768 -0.0855 -0.3278 -0.5358
  136SOL     MW  544   0.177   2.022   0.824 -0.0362 -0.1495 -0.2759
  137SOL     OW  545   0.705   2.035   0.501 -0.5411 -0.2336  0.4229
  137SOL    HW1  546   0.737   2.029   0.597  4.1709 -0.1090 -1.7183
  137SOL    HW2  547   0.608   2.050   0.515  2.8815 -2.5612 -1.6783
  137SOL     MW  548   0.696   2.036   0.515  0.5322 -0.5243 -0.1369
  138SOL     OW  549   0.543   0.570   1.126 -0.5250  0.2555 -0.4011
  138SOL    HW1  550   0.464   0.522   1.113  1.0193  0.1840  0.4163
  138SOL    HW2  551   0.602   0.544   1.053  0.4338  0.2498  2.6482
  138SOL     MW  552   0.540   0.560   1.115 -0.1947  0.2453  0.1091
  139SOL     OW  553   2.785   0.615   1.348 -0.0929  0.5302 -0.2573
  139SOL    HW1  554   2.771   0.520   1.377 -2.0790 -1.2110  0.5344
  139SOL    HW2  555   2.823   0.659   1.419  1.4252 -0.5453 -1.8634
  139SOL     MW  556   2.789   0.608   1.361 -0.1547  0.1585 -0.3647
  140SOL     OW  557   0.847   0.390   2.077  0.3935  0.0135  0.1771
  140SOL    HW1  558   0.915   0.325   2.050  1.3584  3.6061  0.9573
  140SOL    HW2  559   0.873   0.409   2.166  0.7295  1.3574 -2.4875
  140SOL     MW  560   0.859   0.384   2.085  0.5652  0.6648 -0.0715
  141SOL     OW  561   1.067   0.666   1.733  0.1528  0.0987  0.0467
  141SOL    HW1  562   1.091   0.573   1.727 -0.7964 -0.0813  1.3402
  141SOL    HW2  563   1.144   0.712   1.699 -2.0614 -0.2693  1.4009
  141SOL     MW  564   1.080   0.660   1.728 -0.2645  0.0264  0.3961
  142SOL     OW  565   0.918   1.205   0.721  0.5859 -0.6235 -0.0163
  142SOL    HW1  566   0.892   1.128   0.667 -2.5239 -1.1711  3.2237
  142SOL    HW2  567   1.015   1.192   0.728 -0.7979 -0.6408 -2.0784
  142SOL     MW  568   0.928   1.193   0.715 -0.0070 -0.6980  0.1391
  143SOL     OW  569   1.803   0.805   1.111  0.1035  0.3598  0.1938
  143SOL    HW1  570   1.884   0.773   1.081  0.0678  2.2653  0.0240
  143SOL    HW2  571   1.731   0.757   1.069  0.1484 -2.8343  0.4839
  143SOL     MW  572   1.804   0.795   1.101  0.1047  0.1898  0.2096
  144SOL     OW  573   0.258   1.188   1.598  0.4401  0.3229  0.5327
  144SOL    HW1  574   0.355   1.193   1.597  1.3111 -0.6841  1.4987
  144SOL    HW2  575   0.226   1.198   1.688 -0.7146  0.7173 -0.5608
  144SOL     MW  576   0.267   1.190   1.610  0.4027  0.2421  0.5159
  145SOL     OW  577   0.219   0.470   1.181  0.1408  0.1375  0.1924
  145SOL    HW1  578   0.294   0.433   1.233  3.0219 -1.4325  3.0087
  145SOL    HW2  579   0.174   0.399   1.121 -0.4320 -1.7934 -1.0940
  145SOL     MW  580   0.223   0.456   1.180  0.4453 -0.3244  0.3943
  146SOL     OW  581   0.875   1.950   1.346  0.1194  0.1874  0.4503
  146SOL    HW1  582   0.918   1.941   1.257 -1.2993 -1.1877  0.2603
  146SOL    HW2  583   0.796   1.894   1.339  0.5019  1.7192 -2.5598
  146SOL     MW  584   0.870   1.942   1.334 -0.0173  0.2081  0.0281
  147SOL     OW  585   0.434   0.457   2.937  0.1549  0.5052 -0.2056
  147SOL    HW1  586   0.357   0.420   2.984 -1.5639  0.2535 -1.0597
  147SOL    HW2  587   0.395   0.512   2.867  0.8951  1.1523 -0.8428
  147SOL     MW  588   0.419   0.459   2.934  0.0258  0.5574 -0.4023
  148SOL     OW  589   0.143   0.837   1.287  0.3800  0.4068 -0.0980
  148SOL    HW1  590   0.242   0.860   1.287  1.6578  1.2537 -2.2333
  148SOL    HW2  591   0.101   0.903   1.350 -1.8200 -0.0242  1.1921
  148SOL     MW  592   0.151   0.849   1.295  0.2584  0.4617 -0.2095
  149SOL     OW  593   1.321   1.143   1.332 -0.3131  0.7294 -0.4983
  149SOL    HW1  594   1.312   1.112   1.424  0.7622  1.7489  0.0992
  149SOL    HW2  595   1.406   1.190   1.332 -0.3612  2.4364  1.0947
  149SOL     MW  596   1.331   1.145   1.344 -0.1776  1.0891 -0.2093
  150SOL     OW  597   1.828   1.340   0.716 -0.3534 -0.3110  0.1417
  150SOL    HW1  598   1.861   1.273   0.770  0.2725  1.1985 -0.6422
  150SOL    HW2  599   1.854   1.418   0.765  0.3391 -2.1382  1.2662
  150SOL     MW  600   1.836   1.341   0.729 -0.1794 -0.3529  0.1866
  151SOL     OW  601   1.660   1.790   0.811 -0.1606  0.2266  0.3329
  151SOL    HW1  602   1.668   1.828   0.720  0.2332  0.4578  0.6834
  151SOL    HW2  603   1.595   1.711   0.826 -3.3209 -0.7955  2.7073
  151SOL     MW  604   1.652   1.785   0.801 -0.5256  0.1223  0.6924
  152SOL     OW  605   0.754   1.368   1.495  0.1778 -0.3654 -0.0405
  152SOL    HW1  606   0.763   1.288   1.545  0.5079  2.1586  3.4386
  152SOL    HW2  607   0.834   1.410   1.516 -0.2631  0.1534 -1.2766
  152SOL     MW  608   0.766   1.363   1.504  0.1632  0.0361  0.2554
  153SOL     OW  609   2.623   1.221   0.776  0.0172 -0.1812  0.0504
  153SOL    HW1  610   2.678   1.165   0.712 -1.7452  0.4011  2.2228
  153SOL    HW2  611   2.554   1.152   0.799 -0.4225 -1.2920 -0.5567
  153SOL     MW  612   2.621   1.204   0.771 -0.2733 -0.2509  0.2569
  154SOL     OW  613   0.232   1.813   1.699 -0.4202 -0.1965 -0.3098
  154SOL    HW1  614   0.273   1.804   1.612 -1.9257 -1.4315  1.3926
  154SOL    HW2  615   0.279   1.750   1.753  0.3070  1.6224 -0.4856
  154SOL     MW  616   0.243   1.803   1.695 -0.5229 -0.1195 -0.1083
  155SOL     OW  617   1.215   0.695   0.238 -0.2771  0.1916 -0.7440
  155SOL    HW1  618   1.172   0.650   0.315  0.4123 -2.0222  1.7902
  155SOL    HW2  619   1.201   0.793   0.259 -2.4652  0.1681  3.0579
  155SOL     MW  620   1.208   0.702   0.251 -0.4748 -0.1036  0.0920
  156SOL     OW  621   1.484   3.081   1.124 -0.1477 -0.2820  0.2514
  156SOL    HW1  622   1.560   3.146   1.133  0.3428  0.4600 -1.7293
  156SOL    HW2  623   1.516   3.003   1.170  1.0511  0.3642 -2.1034
  156SOL     MW  624   1.498   3.080   1.131  0.0752 -0.0989 -0.3206
  157SOL     OW  625   1.447   1.154   0.102 -0.0648 -0.1174  0.3575
  157SOL    HW1  626   1.502   1.074   0.142  0.3309 -0.6534  3.2042
  157SOL    HW2  627   1.503   1.237   0.111  2.5265  1.8028  0.2063
  157SOL     MW  628   1.461   1.154   0.108  0.3293  0.0652  0.7132
  158SOL     OW  629   0.536   1.658   2.212  0.0657 -0.0388 -0.0803
  158SOL    HW1  630   0.503   1.713   2.144  0.7271  0.9968  0.0298
  158SOL    HW2  631   0.460   1.654   2.269  3.0792 -1.8570 -1.4725
  158SOL     MW  632   0.522   1.665   2.210  0.5506 -0.1420 -0.2494
  159SOL     OW  633   1.291   1.681   0.420  0.1159 -0.1523  0.2723
  159SOL    HW1  634   1.242   1.616   0.370  0.4419 -0.2227  2.5837
  159SOL    HW2  635   1.242   1.688   0.504 -0.0676 -1.0753  2.7045
  159SOL     MW  636   1.278   1.674   0.425  0.1347 -0.2834  0.8982
  160SOL     OW  637   0.542   1.130   1.627 -0.5935  0.1049 -0.2528
  160SOL    HW1  638   0.503   1.038   1.631  0.8135  2.1716  0.6795
  160SOL    HW2  639   0.617   1.129   1.686  2.9373 -0.8727 -1.1394
  160SOL     MW  640   0.546   1.118   1.635  0.0580  0.2486 -0.2468
  161SOL     OW  641   0.494   2.246   2.561  0.4856  0.5413  0.1826
  161SOL    HW1  642   0.406   2.228   2.581 -0.1732 -1.4933 -2.3415
  161SOL    HW2  643   0.513   2.183   2.491  1.1123 -1.1402 -2.3889
  161SOL     MW  644   0.485   2.235   2.555  0.4814  0.0510 -0.4897
  162SOL     OW  645   1.055   1.754   1.866 -0.4529  0.2633  0.8359
  162SOL    HW1  646   1.086   1.822   1.926  3.1691 -1.4558  0.6709
  162SOL    HW2  647   0.960   1.752   1.882 -0.7205 -0.7246 -1.1349
  162SOL     MW  648   1.047   1.763   1.876 -0.0103 -0.0939  0.5541
  163SOL     OW  649   2.147   0.013   0.932 -0.3071  0.5383  0.0034
  163SOL    HW1  650   2.117   0.037   0.844 -0.8753  0.1616 -0.6559
  163SOL    HW2  651   2.151  -0.084   0.919 -0.5068 -0.1430 -2.9628
  163SOL     MW  652   2.144   0.003   0.919 -0.4084  0.3987 -0.4750
  164SOL     OW  653   0.353   0.188   0.855 -0.1333  0.2681 -0.2422
  164SOL    HW1  654   0.268   0.182   0.901 -1.9838 -1.0339  0.2849
  164SOL    HW2  655   0.354   0.117   0.793 -0.4221  2.5203  0.4619
  164SOL     MW  656   0.342   0.177   0.853 -0.4156  0.3935 -0.0797
  165SOL     OW  657   1.343   1.260   0.347  0.1094 -0.0941  0.4482
  165SOL    HW1  658   1.313   1.188   0.407 -0.4659 -0.2073  3.0957
  165SOL    HW2  659   1.367   1.223   0.258  1.4491  1.2945 -1.2556
  165SOL     MW  660   1.342   1.246   0.343  0.2103  0.0742  0.5727
  166SOL     OW  661   0.531   1.173   1.035  0.0456  0.2301 -0.4646
  166SOL    HW1  662   0.480   1.133   1.105 -3.2450  0.0961  0.2820
  166SOL    HW2  663   0.622   1.143   1.026  0.2175  1.5440 -2.4259
  166SOL     MW  664   0.536   1.163   1.043 -0.3659  0.3858 -0.6248
  167SOL     OW  665   0.798   1.012   0.272  0.1611  0.0342  0.3881
  167SOL    HW1  666   0.725   1.068   0.266 -2.2484  2.2539  0.0561
  167SOL    HW2  667   0.863   1.055   0.214  4.5352  1.3454  1.9191
  167SOL     MW  668   0.797   1.025   0.263  0.4203  0.5001  0.5463
  168SOL     OW  669   1.708   1.646   3.039 -0.4967 -0.3799  0.0596
  168SOL    HW1  670   1.616   1.673   3.031  0.2122  1.3626  1.9706
  168SOL    HW2  671   1.719   1.563   3.002 -1.8659  1.3918  0.9472
  168SOL     MW  672   1.697   1.639   3.033 -0.5838  0.0838  0.4289
  169SOL     OW  673   0.412   0.929   1.350 -0.1800  0.3419  0.2296
  169SOL    HW1  674   0.407   0.902   1.440 -0.2682  1.1378 -3.3179
  169SOL    HW2  675   0.437   1.019   1.341 -0.6248 -0.5171 -0.1945
  169SOL     MW  676   0.415   0.938   1.361 -0.2503  0.3336 -0.2944
  170SOL     OW  677   1.029   1.491   1.515 -0.0327  0.3464  0.4676
  170SOL    HW1  678   1.011   1.588   1.525 -0.9530  1.1190  0.3037
  170SOL    HW2  679   1.073   1.481   1.427  3.2921 -1.2481 -0.7481
  170SOL     MW  680   1.033   1.503   1.504  0.2845  0.2379  0.2856
  171SOL     OW  681   0.524   1.459   0.633 -0.4378  0.0665 -0.4191
  171SOL    HW1  682   0.500   1.460   0.729 -1.7686 -3.5086  2.2107
  171SOL    HW2  683   0.526   1.359   0.625 -1.2422  0.8174  1.2080
  171SOL     MW  684   0.521   1.446   0.645 -0.7195 -0.3061  0.1426
  172SOL     OW  685   0.848   0.330   1.264 -0.0911  0.6743 -0.4005
  172SOL    HW1  686   0.836   0.341   1.168 -0.8424  1.0421 -2.8291
  172SOL    HW2  687   0.760   0.367   1.293  0.1732 -2.3852  0.7319
  172SOL     MW  688   0.835   0.337   1.255 -0.1554  0.3192 -0.5715
  173SOL     OW  689   0.436   1.716   0.386 -0.6624 -0.4458 -0.3140
  173SOL    HW1  690   0.461   1.628   0.353  0.9104 -1.3578  5.0395
  173SOL    HW2  691   0.474   1.711   0.477  0.9553  1.2963  0.8917
  173SOL     MW  692   0.444   1.703   0.393 -0.2415 -0.3362  0.5514
  174SOL     OW  693   1.816   0.996   1.558  0.0081 -0.3176 -0.4788
  174SOL    HW1  694   1.792   0.901   1.566 -0.5528 -1.4725 -0.7644
  174SOL    HW2  695   1.817   1.011   1.463  2.6308 -3.2260  0.8151
  174SOL     MW  696   1.813   0.985   1.546  0.2801 -0.8537 -0.3458
  175SOL     OW  697   0.523   1.478   0.256 -0.4547  0.1392 -0.1414
  175SOL    HW1  698   0.459   1.415   0.233  1.1834  2.7641  0.3569
  175SOL    HW2  699   0.601   1.428   0.284 -0.5901 -1.1369 -2.3483
  175SOL     MW  700   0.525   1.463   0.257 -0.2564  0.3172 -0.3668
  176SOL     OW  701   0.171   1.481   1.226 -0.0536  0.4210 -0.0882
  176SOL    HW1  702   0.151   1.417   1.162 -2.0091  0.2569  0.4028
  176SOL    HW2  703   0.093   1.472   1.292  1.8413 -0.1865  0.4513
  176SOL     MW  704   0.158   1.472   1.227 -0.0616  0.3192  0.0478
  177SOL     OW  705   0.634   0.435   1.378  0.8383  0.2755  0.5687
  177SOL    HW1  706   0.602   0.490   1.305  0.7529 -2.2969 -1.0465
  177SOL    HW2  707   0.617   0.487   1.463 -0.3262 -0.1927 -0.3845
  177SOL     MW  708   0.628   0.449   1.380  0.6734 -0.1257  0.2298
  178SOL     OW  709   3.072   0.505   2.953  0.0150  0.2627 -0.0028
  178SOL    HW1  710   3.009   0.509   3.027  0.7785 -0.5707 -0.3485
  178SOL    HW2  711   3.004   0.516   2.881 -0.8113  2.2863  1.1945
  178SOL     MW  712   3.054   0.507   2.953  0.0067  0.4197  0.1096
  179SOL     OW  713   1.589   1.332   1.351  0.0169 -0.1575 -0.5576
  179SOL    HW1  714   1.553   1.358   1.439  0.6465 -1.9977  0.4304
  179SOL    HW2  715   1.688   1.335   1.356 -0.2206  0.0238 -0.7175
  179SOL     MW  716   1.597   1.336   1.363  0.0686 -0.3764 -0.4484
  180SOL     OW  717   3.045   0.199   0.429 -1.0992  0.0623 -0.5268
  180SOL    HW1  718   2.986   0.169   0.355 -0.7117 -0.8176  0.6053
  180SOL    HW2  719   3.096   0.278   0.396  0.5177 -0.2462  0.2361
  180SOL     MW  720   3.044   0.206   0.415 -0.8348 -0.0945 -0.2768
  181SOL     OW  721   1.115   1.308   3.087 -0.1563  0.0507  0.3226
  181SOL    HW1  722   1.153   1.369   3.142 -1.9334 -2.7711  0.1740
  181SOL    HW2  723   1.188   1.247   3.057 -1.0133 -0.5830 -1.8179
  181SOL     MW  724   1.129   1.308   3.090 -0.5038 -0.4052  0.0206
  182SOL     OW  725   0.456   0.893   1.634 -0.1869 -0.0369 -0.5244
  182SOL    HW1  726   0.378   0.840   1.658  2.2108 -0.7783 -1.6261
  182SOL    HW2  727   0.527   0.840   1.674  0.1786 -2.3478 -0.5651
  182SOL     MW  728   0.455   0.879   1.642  0.1777 -0.4397 -0.6751
  183SOL     OW  729   1.588   1.521   1.134 -0.0114  0.2956 -0.2421
  183SOL    HW1  730   1.567   1.593   1.194  0.7198  0.7232  1.4724
  183SOL    HW2  731   1.594   1.445   1.198  0.1492  0.1301 -1.2842
  183SOL     MW  732   1.586   1.520   1.151  0.1063  0.3302 -0.1534
  184SOL     OW  733   0.893   0.645   1.953 -0.7949  0.4522  0.0571
  184SOL    HW1  734   0.982   0.650   1.923 -0.1390  1.8316 -2.1461
  184SOL    HW2  735   0.885   0.559   1.998 -0.8484 -0.7264 -1.6247
  184SOL     MW  736   0.904   0.634   1.955 -0.7154  0.4787 -0.4555
  185SOL     OW  737   1.232   1.009   1.933 -0.4665 -0.1622 -0.1990
  185SOL    HW1  738   1.209   0.918   1.963  0.3992 -1.7446  1.7552
  185SOL    HW2  739   1.240   1.065   2.009 -0.6993 -3.5374 -0.9674
  185SOL     MW  740   1.230   1.005   1.947 -0.3830 -0.8163 -0.0425
  186SOL     OW  741   0.383   1.701   1.443  0.1732  0.5105  0.0456
  186SOL    HW1  742   0.412   1.627   1.386  3.5758 -0.4616  0.3322
  186SOL    HW2  743   0.292   1.677   1.474 -0.0095  0.0644 -0.7498
  186SOL     MW  744   0.375   1.688   1.440  0.5980  0.3234 -0.0216
  187SOL     OW  745   1.435   0.697   1.393  0.0837 -0.2139 -0.4796
  187SOL    HW1  746   1.429   0.640   1.469 -0.4229 -0.3416 -0.2417
  187SOL    HW2  747   1.353   0.696   1.347  0.5080  0.8937 -0.6220
  187SOL     MW  748   1.423   0.689   1.397  0.0729 -0.0846 -0.4670
  188SOL     OW  749   1.903   1.156   0.929 -0.1281 -0.0094  0.6066
  188SOL    HW1  750   1.900   1.166   1.032  3.5608  0.0690  1.0249
  188SOL    HW2  751   1.944   1.069   0.907  0.4365 -0.3367 -0.2907
  188SOL     MW  752   1.908   1.146   0.940  0.4331 -0.0422  0.5434
  189SOL     OW  753   0.657   0.816   0.837  0.1875 -0.4184 -0.6453
  189SOL    HW1  754   0.577   0.845   0.877 -2.1400 -1.1943 -0.3433
  189SOL    HW2  755   0.724   0.884   0.861  0.4452  1.1276 -1.5374
  189SOL     MW  756   0.655   0.829   0.845 -0.0856 -0.3168 -0.7232
  190SOL     OW  757   1.888   0.252   2.136  0.4724 -0.7227  0.2275
  190SOL    HW1  758   1.934   0.221   2.211 -0.1361 -0.7795  0.0889
  190SOL    HW2  759   1.941   0.323   2.095  2.2605 -0.0411  1.3498
  190SOL     MW  760   1.901   0.257   2.141  0.6281 -0.6403  0.3573
  191SOL     OW  761   1.507   0.936   1.238 -0.6681  0.0430 -0.0223
  191SOL    HW1  762   1.441   0.999   1.276 -1.1939  0.4171 -0.7993
  191SOL    HW2  763   1.493   0.850   1.280  1.6319  1.1203 -0.6640
  191SOL     MW  764   1.496   0.933   1.248 -0.4340  0.2345 -0.2095
  192SOL     OW  765   0.611   2.110   2.795  0.2071  1.0723 -0.3267
  192SOL    HW1  766   0.558   2.146   2.728 -1.4716 -1.8009  1.1548
  192SOL    HW2  767   0.595   2.012   2.800  2.3770 -2.3273  2.7832
  192SOL     MW  768   0.602   2.102   2.786  0.2719  0.2446  0.2791
  193SOL     OW  769   0.995   1.565   0.729 -0.0610 -0.3050 -0.1947
  193SOL    HW1  770   0.952   1.600   0.816  1.1613  0.6781 -1.4752
  193SOL    HW2  771   0.927   1.501   0.693  0.1643 -2.1576 -0.2269
  193SOL     MW  772   0.980   1.561   0.736  0.1300 -0.4197 -0.3679
  194SOL     OW  773   0.511   1.444   0.935 -0.1516  0.2322 -0.4734
  194SOL    HW1  774   0.522   1.355   0.974 -1.2857 -0.5482  0.1880
  194SOL    HW2  775   0.417   1.442   0.906  0.4025  2.1483  2.4464
  194SOL     MW  776   0.500   1.432   0.936 -0.2281  0.3821 -0.0009
  195SOL     OW  777   1.299   1.128   2.983  0.1916 -0.1495 -0.2295
  195SOL    HW1  778   1.357   1.127   3.062  1.9042 -0.7940 -0.9059
  195SOL    HW2  779   1.225   1.073   3.016 -0.8315 -4.1581  1.6676
  195SOL     MW  780   1.297   1.121   2.998  0.2826 -0.7634 -0.0684
  196SOL     OW  781   2.206   1.003   0.580  0.1645 -0.0833  0.0832
  196SOL    HW1  782   2.166   0.960   0.501  1.4448  1.1786 -0.0890
  196SOL    HW2  783   2.198   1.099   0.569 -0.6544  2.0069  2.7899
  196SOL     MW  784   2.199   1.010   0.568  0.2254  0.3590  0.4176
  197SOL     OW  785   0.644   1.225   2.093  0.0399 -0.5676 -0.2134
  197SOL    HW1  786   0.647   1.132   2.095 -3.6558  1.0765  1.5892
  197SOL    HW2  787   0.624   1.262   2.010  0.7372  0.8257 -0.9864
  197SOL     MW  788   0.642   1.217   2.082 -0.3557 -0.1668 -0.0776
  198SOL     OW  789   2.964   1.370   1.091  0.1000 -0.4256 -0.1995
  198SOL    HW1  790   2.929   1.452   1.061 -0.9739  0.4757  0.4288
  198SOL    HW2  791   2.892   1.316   1.062  0.0568  4.0979  0.2353
  198SOL     MW  792   2.950   1.373   1.083 -0.0474  0.2902 -0.0592
  199SOL     OW  793   0.547   1.402   1.895 -0.3582  0.6832 -0.1473
  199SOL    HW1  794   0.473   1.346   1.910  0.3547  3.9405 -1.8032
  199SOL    HW2  795   0.589   1.372   1.813  1.8762 -3.9848 -0.4443
  199SOL     MW  796   0.543   1.391   1.886  0.0307  0.4971 -0.4049
  200SOL     OW  797   1.868   3.006   1.311 -0.1722 -0.4286  0.2221
  200SOL    HW1  798   1.886   3.004   1.219 -1.6659 -0.3184  2.3108
  200SOL    HW2  799   1.797   3.065   1.323  1.4554 -1.5079 -1.9926
  200SOL     MW  800   1.861   3.013   1.301 -0.1545 -0.5565  0.2055
  201SOL     OW  801   1.030   0.200   0.847  0.4932  0.2222  0.1676
  201SOL    HW1  802   0.998   0.142   0.773 -2.1897  0.8080 -1.4081
  201SOL    HW2  803   1.096   0.247   0.805  1.5089  1.5145 -0.0254
  201SOL     MW  804   1.034   0.198   0.832  0.2732  0.4700 -0.0658
  202SOL     OW  805   1.509   1.564   0.880 -0.1733  0.2514 -0.1701
  202SOL    HW1  806   1.525   1.477   0.838 -0.5085 -0.8281 -0.0111
  202SOL    HW2  807   1.563   1.572   0.958 -0.1952  0.7342  0.0159
  202SOL     MW  808   1.519   1.554   0.885 -0.2204  0.1727 -0.1246
  203SOL     OW  809   3.071   0.443   1.287 -0.8367 -0.4006  0.3974
  203SOL    HW1  810   3.158   0.422   1.254  3.7232 -1.7934  1.7624
  203SOL    HW2  811   3.105   0.515   1.344  0.9573 -0.5631 -1.5204
  203SOL     MW  812   3.087   0.450   1.290  0.0016 -0.6058  0.3245
  204SOL     OW  813   1.049   1.742   0.540 -0.1813  0.0032  0.0396
  204SOL    HW1  814   1.025   1.663   0.599  2.3405 -0.6261  1.3456
  204SOL    HW2  815   0.959   1.781   0.523  0.1968  2.8986 -1.9735
  204SOL     MW  816   1.034   1.737   0.545  0.2013  0.3022 -0.0537
  205SOL     OW  817   1.362   0.070   1.357  0.3131 -0.1476 -0.0358
  205SOL    HW1  818   1.401   0.043   1.275  0.3460 -0.7877 -2.1931
  205SOL    HW2  819   1.359   0.168   1.354 -0.6331 -0.0502 -1.4445
  205SOL     MW  820   1.367   0.079   1.346  0.1926 -0.2192 -0.5063
  206SOL     OW  821   0.416   3.005   1.423 -0.3515 -0.1945 -0.5089
  206SOL    HW1  822   0.367   2.990   1.335 -1.5150  1.1357  1.5184
  206SOL    HW2  823   0.507   2.976   1.416  2.2781  1.5701 -0.4695
  206SOL     MW  824   0.422   2.999   1.411 -0.1581  0.2138 -0.2362
  207SOL     OW  825   0.912   1.544   0.187 -0.7750  0.9903 -0.3515
  207SOL    HW1  826   0.908   1.638   0.210  2.1722  0.4501 -0.3224
  207SOL    HW2  827   0.994   1.516   0.232  3.3994  0.1873 -4.0440
  207SOL     MW  828   0.922   1.552   0.196  0.1646  0.8131 -0.8349
  208SOL     OW  829   0.688   1.672   1.372 -0.0526  0.3036  0.0654
  208SOL    HW1  830   0.745   1.708   1.439 -1.0618  0.0707 -0.4905
  208SOL    HW2  831   0.677   1.579   1.392  1.8188 -1.6500  0.7548
  208SOL     MW  832   0.694   1.665   1.383  0.0612  0.0151  0.0830
  209SOL     OW  833   1.537   0.500   3.009 -0.1245 -0.2417 -0.6066
  209SOL    HW1  834   1.576   0.583   2.980 -0.9783 -0.2919  3.0761
  209SOL    HW2  835   1.599   0.437   2.980  1.7829 -1.0280  0.8253
  209SOL     MW  836   1.551   0.503   3.002  0.0145 -0.3521  0.0682
  210SOL     OW  837   1.556   1.283   0.800 -0.5659 -0.4953 -0.3216
  210SOL    HW1  838   1.651   1.297   0.775 -0.9689 -2.2397  0.6626
  210SOL    HW2  839   1.514   1.264   0.716  1.4540 -0.2279 -2.4955
  210SOL     MW  840   1.563   1.282   0.786 -0.3526 -0.6902 -0.4786
  211SOL     OW  841   1.670   0.332   0.943  0.4658 -0.5280 -0.4244
  211SOL    HW1  842   1.639   0.360   0.852 -0.1875  1.1781 -1.3573
  211SOL    HW2  843   1.767   0.332   0.937  2.3807 -0.2017  0.0383
  211SOL     MW  844   1.679   0.336   0.930  0.6322 -0.2598 -0.4865
  212SOL     OW  845   0.253   1.022   0.125  0.2321  0.2121  0.3559
  212SOL    HW1  846   0.212   0.964   0.188  1.7289  0.3337 -0.7314
  212SOL    HW2  847   0.305   0.966   0.064 -0.1634 -1.7727 -0.4161
  212SOL     MW  848   0.254   1.007   0.125  0.3774 -0.0337  0.1105
  213SOL     OW  849   0.533   1.709   3.036 -0.0317 -0.3570  0.4883
  213SOL    HW1  850   0.527   1.783   3.103  0.2728 -0.1040 -0.3008
  213SOL    HW2  851   0.575   1.755   2.963  1.0621 -3.4156 -1.2245
  213SOL     MW  852   0.538   1.725   3.035  0.1528 -0.7272  0.1582
  214SOL     OW  853   0.607   0.302   2.216  0.6786  0.2628 -0.6941
  214SOL    HW1  854   0.538   0.372   2.214  0.8595 -1.8253  0.0498
  214SOL    HW2  855   0.674   0.343   2.166 -4.1326  0.7319 -1.7307
  214SOL     MW  856   0.607   0.316   2.209  0.0676  0.0492 -0.7327
  215SOL     OW  857   0.509   0.711   2.666 -0.6949 -0.2198  0.0321
  215SOL    HW1  858   0.476   0.700   2.577  0.9659  2.7442 -1.7419
  215SOL    HW2  859   0.455   0.660   2.723  2.6617  1.5789  1.6312
  215SOL     MW  860   0.498   0.703   2.662 -0.0329  0.4086  0.0090
  216SOL     OW  861   2.911   3.040   2.658  0.0934 -0.0442  0.4966
  216SOL    HW1  862   2.879   3.022   2.746  2.5191 -1.3760 -2.7976
  216SOL    HW2  863   2.926   3.135   2.661  2.1054 -1.5923 -3.9740
  216SOL     MW  864   2.909   3.050   2.670  0.6789 -0.4242 -0.5279
  217SOL     OW  865   0.984   1.088   0.081  0.5133 -0.0005  0.7180
  217SOL    HW1  866   1.056   1.027   0.058 -1.8209  0.1528 -0.0467
  217SOL    HW2  867   1.020   1.177   0.053  0.2402  1.5592 -1.1504
  217SOL     MW  868   0.999   1.092   0.074  0.1693  0.2255  0.3706
  218SOL     OW  869   0.966   1.308   2.553 -0.2436  0.1286  0.2613
  218SOL    HW1  870   1.017   1.231   2.578 -0.6196 -2.7486  1.4176
  218SOL    HW2  871   1.033   1.377   2.549  1.3300 -1.2635 -2.8040
  218SOL     MW  872   0.982   1.307   2.556 -0.0856 -0.4347  0.0095
  219SOL     OW  873   1.143   0.431   2.644  0.4473  0.2737  0.1190
  219SOL    HW1  874   1.203   0.505   2.671  0.4744  0.4437  1.9414
  219SOL    HW2  875   1.065   0.465   2.602 -2.2247  0.7973 -1.5772
  219SOL     MW  876   1.141   0.445   2.642  0.0983  0.3652  0.1356
  220SOL     OW  877   1.752   0.482   2.224  0.7711  0.4593  0.3189
  220SOL    HW1  878   1.676   0.479   2.161 -2.5839  0.8244 -1.8402
  220SOL    HW2  879   1.794   0.391   2.217 -0.3398 -2.7950  0.5806
  220SOL     MW  880   1.747   0.469   2.215  0.1818  0.0781  0.0686
  221SOL     OW  881   0.405   1.333   2.960 -0.1082 -0.6496  0.3991
  221SOL    HW1  882   0.436   1.255   2.909  0.9941  2.1397  3.3797
  221SOL    HW2  883   0.406   1.398   2.893 -1.7101 -0.0189  1.7107
  221SOL     MW  884   0.409   1.331   2.945 -0.1741 -0.1983  0.9654
  222SOL     OW  885   0.363   0.944   2.679 -0.1129  0.1977  0.0490
  222SOL    HW1  886   0.327   0.969   2.597 -0.5671  0.6830  2.2641
  222SOL    HW2  887   0.422   0.869   2.665  0.8488 -0.5020 -2.3210
  222SOL     MW  888   0.366   0.937   2.666 -0.0460  0.1695  0.0285
  223SOL     OW  889   0.009   2.026   2.519  0.1613 -0.2337 -0.2722
  223SOL    HW1  890   0.055   1.962   2.570  0.3601 -0.1876 -0.2379
  223SOL    HW2  891   0.073   2.100   2.515 -2.6096  1.2846  0.1330
  223SOL     MW  892   0.024   2.027   2.525 -0.1780 -0.0273 -0.2142
  224SOL     OW  893   1.502   0.788   2.615  0.2376 -0.3902 -0.5416
  224SOL    HW1  894   1.524   0.839   2.690  1.1034 -3.0985 -1.2585
  224SOL    HW2  895   1.478   0.857   2.542 -2.8243  0.8954 -1.4518
  224SOL     MW  896   1.502   0.804   2.616 -0.0521 -0.5779 -0.7563
  225SOL     OW  897   2.904   1.444   2.290  0.5648 -0.0236 -0.8530
  225SOL    HW1  898   2.952   1.495   2.233 -0.7708  0.5421  0.7023
  225SOL    HW2  899   2.848   1.501   2.342 -0.2052  0.9210 -0.6800
  225SOL     MW  900   2.903   1.458   2.289  0.2870  0.1756 -0.6250
  226SOL     OW  901   0.470   1.484   2.698 -0.1720  0.2208 -0.1017
  226SOL    HW1  902   0.560   1.481   2.655 -1.8527 -1.4850 -2.0050
  226SOL    HW2  903   0.442   1.576   2.685 -3.2224  0.4981  1.2969
  226SOL     MW  904   0.479   1.496   2.690 -0.7962  0.0323 -0.1683
  227SOL     OW  905   0.492   1.106   2.830  0.3765  0.1544 -0.0858
  227SOL    HW1  906   0.588   1.097   2.813  2.5359 -1.1936  0.7331
  227SOL    HW2  907   0.441   1.056   2.760  0.1041  0.8894 -0.5630
  227SOL     MW  908   0.498   1.098   2.818  0.6255  0.0735 -0.0407
  228SOL     OW  909   0.725   0.961   2.049  0.2761  0.2563 -0.0745
  228SOL    HW1  910   0.811   1.005   2.046  0.3891 -1.1083 -0.0888
  228SOL    HW2  911   0.719   0.907   2.134  0.9666 -0.8008  2.7031
  228SOL     MW  912   0.735   0.959   2.060  0.3821 -0.0632  0.2901
  229SOL     OW  913   0.160   0.620   0.007 -0.4140 -0.1021 -0.5901
  229SOL    HW1  914   0.090   0.591  -0.051  1.0674  0.5499 -0.7532
  229SOL    HW2  915   0.177   0.541   0.057  1.1132  0.4634 -1.3220
  229SOL     MW  916   0.153   0.605   0.006 -0.0170  0.0586 -0.7082
  230SOL     OW  917   1.688   1.352   2.042 -0.0041 -0.0283  0.5051
  230SOL    HW1  918   1.626   1.320   2.110  0.1783 -1.4046 -0.1241
  230SOL    HW2  919   1.718   1.273   2.001 -2.0876  0.1904 -0.5554
  230SOL     MW  920   1.684   1.338   2.045 -0.2549 -0.1810  0.2821
  231SOL     OW  921   2.725   1.255   2.191 -0.1719  0.0594  0.4778
  231SOL    HW1  922   2.786   1.317   2.235 -4.9952 -3.7779  1.3398
  231SOL    HW2  923   2.707   1.270   2.098 -1.4021  2.4158 -2.2430
  231SOL     MW  924   2.731   1.265   2.185 -0.9706 -0.1360  0.2325
  232SOL     OW  925   2.284   0.835   2.010 -0.7111 -0.2027 -0.2866
  232SOL    HW1  926   2.220   0.896   1.972 -0.3811  2.4407 -0.4440
  232SOL    HW2  927   2.254   0.814   2.095 -0.3088  0.3728 -0.1893
  232SOL     MW  928   2.272   0.840   2.016 -0.6145  0.2220 -0.2945
  233SOL     OW  929   2.039   0.444   2.043 -0.3452  0.1958  0.6464
  233SOL    HW1  930   2.107   0.374   2.026  2.4583  1.5456 -4.0702
  233SOL    HW2  931   2.067   0.492   2.120  0.3544  0.1852 -0.4186
  233SOL     MW  932   2.052   0.441   2.051  0.1170  0.3725 -0.1164
  234SOL     OW  933   0.279   1.068   2.413 -0.5104 -0.0970 -0.2072
  234SOL    HW1  934   0.185   1.094   2.417  1.4492 -1.1811 -0.6921
  234SOL    HW2  935   0.322   1.151   2.426 -1.5879  0.2276  1.4426
  234SOL     MW  936   0.272   1.082   2.415 -0.3940 -0.1972 -0.0535
  235SOL     OW  937   1.119   3.056   2.720  0.1094 -0.0096  0.5040
  235SOL    HW1  938   1.141   2.991   2.787  0.6583 -1.4436  1.0773
  235SOL    HW2  939   1.099   3.135   2.766 -0.1291 -1.7750  3.8831
  235SOL     MW  940   1.119   3.058   2.735  0.1504 -0.4317  1.0255
  236SOL     OW  941   2.935   0.567   0.087  0.1107 -0.3643  0.9430
  236SOL    HW1  942   2.841   0.596   0.076  2.5974  3.5521  2.7761
  236SOL    HW2  943   2.981   0.650   0.074  3.7089 -0.6741  1.4613
  236SOL     MW  944   2.929   0.581   0.084  0.9136  0.1116  1.2532
  237SOL     OW  945   2.016   1.114   2.190  0.1984  0.2090  0.2681
  237SOL    HW1  946   1.946   1.117   2.123 -2.7096 -0.5736  0.0237
  237SOL    HW2  947   2.046   1.026   2.178  1.2602  0.4894 -1.6521
  237SOL     MW  948   2.011   1.103   2.179 -0.0452  0.1427 -0.0175
  238SOL     OW  949   1.054   1.837   2.993  0.7353  0.5118  0.7312
  238SOL    HW1  950   1.015   1.754   2.959 -1.0695  1.3239  1.4625
  238SOL    HW2  951   1.140   1.810   3.001 -2.8993 -1.0661  0.7521
  238SOL     MW  952   1.060   1.823   2.989  0.0176  0.4108  0.8305
  239SOL     OW  953   1.271   1.360   2.362  0.2167  0.2142 -0.1200
  239SOL    HW1  954   1.236   1.417   2.432  0.3365  1.2550  0.9760
  239SOL    HW2  955   1.294   1.281   2.411  0.0329 -0.3093 -3.4689
  239SOL     MW  956   1.269   1.357   2.377  0.2083  0.2825 -0.4173
  240SOL     OW  957   0.704   0.821   2.269  0.5908  0.3157 -0.2481
  240SOL    HW1  958   0.692   0.874   2.343  0.9803  0.0630 -0.5744
  240SOL    HW2  959   0.779   0.760   2.278  0.9315 -0.0583 -1.0847
  240SOL     MW  960   0.712   0.820   2.280  0.6871  0.2330 -0.4016
  241SOL     OW  961   0.654   0.375   0.027  0.6037  0.1234  0.1761
  241SOL    HW1  962   0.657   0.446   0.089 -0.2002 -1.8688  0.7404
  241SOL    HW2  963   0.576   0.392  -0.033 -1.8701 -0.0274  0.5069
  241SOL     MW  964   0.644   0.387   0.027  0.1712 -0.1594  0.2942
  242SOL     OW  965   1.510   1.685   2.333  0.2826  0.4332 -0.0380
  242SOL    HW1  966   1.485   1.780   2.337  3.0254  2.1932 -0.3773
  242SOL    HW2  967   1.452   1.631   2.279 -2.0751 -0.5662  1.9278
  242SOL     MW  968   1.499   1.690   2.326  0.3334  0.5335  0.1766
  243SOL     OW  969   1.045   0.214   2.506 -0.0429  0.0401  0.3437
  243SOL    HW1  970   1.115   0.222   2.436  2.1767 -0.9787 -1.3233
  243SOL    HW2  971   1.072   0.278   2.570  0.7243 -0.5915  1.9471
  243SOL     MW  972   1.058   0.224   2.505  0.3512 -0.1776  0.3353
  244SOL     OW  973   0.271   0.790   2.434 -0.1495 -0.0988  0.1160
  244SOL    HW1  974   0.264   0.882   2.412 -2.2439 -0.3643 -0.2901
  244SOL    HW2  975   0.350   0.759   2.391  0.5917 -1.1468 -0.1676
  244SOL     MW  976   0.280   0.798   2.426 -0.3281 -0.2721  0.0250
  245SOL     OW  977   1.241   0.215   2.315  0.5546 -0.3585 -0.5941
  245SOL    HW1  978   1.271   0.126   2.305  0.2252  1.4313 -0.2485
  245SOL    HW2  979   1.317   0.257   2.345 -1.7692 -1.4478  1.1402
  245SOL     MW  980   1.255   0.209   2.318  0.2045 -0.2661 -0.3197
  246SOL     OW  981   1.237   1.210   2.151  0.0361 -0.2660  0.4827
  246SOL    HW1  982   1.178   1.138   2.189  1.4039  1.1648 -1.0905
  246SOL    HW2  983   1.251   1.268   2.222  4.3597  1.5484  0.5281
  246SOL     MW  984   1.231   1.208   2.165  0.7870  0.1622  0.2811
  247SOL     OW  985   0.754   0.582   0.198  0.5303  0.5098  0.0849
  247SOL    HW1  986   0.696   0.652   0.177 -1.8703 -1.0248  0.9494
  247SOL    HW2  987   0.844   0.604   0.162  1.5180 -2.0729 -0.8470
  247SOL     MW  988   0.759   0.594   0.190  0.3439 -0.0334  0.0760
  248SOL     OW  989   0.327   1.358   2.499 -0.2952  0.7122  0.5099
  248SOL    HW1  990   0.380   1.355   2.417 -1.1588 -1.0941 -0.4636
  248SOL    HW2  991   0.387   1.404   2.563 -0.6164  0.0051  0.7233
  248SOL     MW  992   0.342   1.364   2.496 -0.4516  0.3806  0.4096
  249SOL     OW  993   0.180   1.911   2.728  0.1071 -0.3522 -0.2015
  249SOL    HW1  994   0.147   1.834   2.687 -2.8078  2.8524  2.9864
  249SOL    HW2  995   0.188   1.882   2.824 -0.7116  0.5016  0.4139
  249SOL     MW  996   0.177   1.897   2.735 -0.3855  0.1832  0.3003
  250SOL     OW  997   2.171   0.893   2.277  0.2522  0.3081 -0.0729
  250SOL    HW1  998   2.250   0.836   2.306 -1.7787  1.2380 -1.9033
  250SOL    HW2  999   2.193   0.983   2.299 -0.8463  1.6336 -1.6520
  250SOL     MW 1000   2.184   0.897   2.283 -0.1607  0.6057 -0.5228
  251SOL     OW 1001   0.143   0.866   1.985 -0.5391 -0.2918 -0.1907
  251SOL    HW1 1002   0.127   0.776   2.019  4.8415  2.7363  1.7531
  251SOL    HW2 1003   0.165   0.858   1.893  0.7771 -0.8730  1.9723
  251SOL     MW 1004   0.144   0.853   1.977  0.3445  0.0311  0.3512
  252SOL     OW 1005   1.721   1.001   2.853  0.0310  0.0053  0.3204
  252SOL    HW1 1006   1.740   1.045   2.938  1.5424  0.3680  1.9485
  252SOL    HW2 1007   1.783   1.035   2.789  1.8031 -0.9567  0.0773
  252SOL     MW 1008   1.731   1.011   2.856  0.4642 -0.0738  0.5032
  253SOL     OW 1009   1.222   1.774   2.560 -0.9100 -0.4206  0.3338
  253SOL    HW1 1010   1.233   1.751   2.467 -0.1242 -1.0928 -0.0212
  253SOL    HW2 1011   1.134   1.806   2.583 -1.2266 -0.0268 -3.2955
  253SOL     MW 1012   1.212   1.775   2.551 -0.8481 -0.4574 -0.1919
  254SOL     OW 1013   1.078   1.008   2.238  0.2767  0.2810 -0.2419
  254SOL    HW1 1014   1.030   0.931   2.268  1.0818  0.2936 -0.1965
  254SOL    HW2 1015   1.012   1.079   2.242 -1.9442  2.0869  1.8389
  254SOL     MW 1016   1.063   1.007   2.243  0.0899  0.5209  0.0386
  255SOL     OW 1017   0.769   2.577   2.156  0.1994 -0.2837  0.3809
  255SOL    HW1 1018   0.702   2.533   2.205 -0.4461  0.4398  0.6647
  255SOL    HW2 1019   0.858   2.565   2.193  1.6222  1.3408  0.2352
  255SOL     MW 1020   0.772   2.570   2.167  0.3020  0.0261  0.3991
  256SOL     OW 1021   1.330   2.665   2.952  0.5355  0.0574 -0.0036
  256SOL    HW1 1022   1.334   2.598   2.881  1.1995  2.5924  1.4408
  256SOL    HW2 1023   1.389   2.736   2.928 -0.7793  1.6801 -0.8665
  256SOL     MW 1024   1.338   2.665   2.939  0.4496  0.6060  0.0732
  257SOL     OW 1025   0.123   1.888   0.063  0.3625 -0.4151  0.2034
  257SOL    HW1 1026   0.145   1.845   0.151  3.3995  0.5089  0.7932
  257SOL    HW2 1027   0.188   1.839   0.012  0.6687  0.6269  1.0659
  257SOL     MW 1028   0.135   1.876   0.068  0.8036 -0.1557  0.3950
  258SOL     OW 1029   0.762   1.041   2.442  0.3091  0.2276 -0.0851
  258SOL    HW1 1030   0.795   1.122   2.388  0.7066  2.0222 -0.2117
  258SOL    HW2 1031   0.749   1.088   2.524  2.4713  1.2838  0.4593
  258SOL     MW 1032   0.765   1.058   2.446  0.6468  0.6037 -0.0300
  259SOL     OW 1033   0.830   0.370   2.368  0.1132  0.3968  0.2588
  259SOL    HW1 1034   0.769   0.309   2.408 -2.5431 -0.9213 -1.9471
  259SOL    HW2 1035   0.919   0.347   2.389 -0.3976  0.9262 -0.6781
  259SOL     MW 1036   0.833   0.359   2.376 -0.3047  0.2928 -0.1558
  260SOL     OW 1037   0.491   0.141   1.556  0.2655  0.0657 -0.1012
  260SOL    HW1 1038   0.445   0.081   1.495  1.8153  0.5079 -1.2846
  260SOL    HW2 1039   0.588   0.116   1.550  3.0644 -0.3919 -0.4157
  260SOL     MW 1040   0.498   0.130   1.548  0.8393  0.0636 -0.2988
  261SOL     OW 1041   1.178   0.756   2.017 -1.3142 -0.3812  0.2317
  261SOL    HW1 1042   1.213   0.762   2.103 -0.3235 -0.5005 -0.6220
  261SOL    HW2 1043   1.193   0.669   1.987 -2.6617 -1.2968 -3.0453
  261SOL     MW 1044   1.184   0.745   2.024 -1.3613 -0.5177 -0.3133
  262SOL     OW 1045   1.031   0.331   0.152 -0.5763 -0.5455 -0.1711
  262SOL    HW1 1046   1.123   0.343   0.118 -0.4867  0.4448 -0.8892
  262SOL    HW2 1047   0.996   0.260   0.094  0.5042 -0.8054 -1.4057
  262SOL     MW 1048   1.038   0.324   0.140 -0.4219 -0.4492 -0.4287
  263SOL     OW 1049   0.410  -0.003   2.498  0.1166  0.5294 -0.4005
  263SOL    HW1 1050   0.338   0.059   2.480 -2.7288 -0.2071 -1.2534
  263SOL    HW2 1051   0.473   0.007   2.426  0.2122  0.6313 -1.2070
  263SOL     MW 1052   0.409   0.006   2.486 -0.2462  0.4457 -0.6194
  264SOL     OW 1053   1.478   1.346   1.874 -0.3047  0.2265 -0.7302
  264SOL    HW1 1054   1.397   1.354   1.920 -0.7088 -0.4366 -1.2075
  264SOL    HW2 1055   1.550   1.344   1.936  1.3189  1.0276  0.0819
  264SOL     MW 1056   1.477   1.347   1.889 -0.1438  0.2447 -0.6860
  265SOL     OW 1057   0.707   2.812   2.281  0.0477 -0.0922 -0.3059
  265SOL    HW1 1058   0.733   2.738   2.223  0.7214 -1.4218  1.3555
  265SOL    HW2 1059   0.709   2.783   2.372  0.1722 -2.8061  0.6335
  265SOL     MW 1060   0.711   2.799   2.285  0.1530 -0.6257  0.0373
  266SOL     OW 1061   0.973   0.744   2.224 -0.5387  0.5054 -0.1972
  266SOL    HW1 1062   0.966   0.767   2.131 -2.0024 -0.9931  1.8398
  266SOL    HW2 1063   1.067   0.723   2.237 -2.1524  1.2204 -2.0427
  266SOL     MW 1064   0.985   0.744   2.214 -0.9447  0.4020 -0.1719
  267SOL     OW 1065   1.443   1.780   2.766 -0.0035  0.0794 -0.8911
  267SOL    HW1 1066   1.466   1.695   2.733 -0.9739 -1.4685  0.8935
  267SOL    HW2 1067   1.382   1.805   2.699  2.1623 -0.1019  1.4776
  267SOL     MW 1068   1.438   1.772   2.753  0.1542 -0.1487 -0.3431
  268SOL     OW 1069   0.188   0.820   1.664  0.2592  0.2939 -0.2658
  268SOL    HW1 1070   0.153   0.862   1.586 -1.1749  2.3362 -0.6315
  268SOL    HW2 1071   0.185   0.726   1.636  0.7579  0.2299  0.1274
  268SOL     MW 1072   0.183   0.813   1.650  0.1358  0.5549 -0.2622
  269SOL     OW 1073   1.417   1.943   2.366  0.0534  0.3704 -0.1523
  269SOL    HW1 1074   1.482   2.015   2.374 -0.5560  0.0503 -1.6013
  269SOL    HW2 1075   1.342   1.978   2.404  1.4814 -0.3942 -0.3701
  269SOL     MW 1076   1.416   1.957   2.372  0.1614  0.2273 -0.3722
  270SOL     OW 1077   1.120   0.401   1.650 -0.0736 -0.0457 -0.1640
  270SOL    HW1 1078   1.077   0.319   1.679 -0.2988 -2.0392  1.3324
  270SOL    HW2 1079   1.213   0.382   1.655  0.0992  0.3873  4.1133
  270SOL     MW 1080   1.127   0.388   1.654 -0.0805 -0.2516  0.5978
  271SOL     OW 1081   0.870   0.015   2.543 -0.7774 -0.3332  0.2196
  271SOL    HW1 1082   0.910  -0.041   2.609 -3.0420 -0.4265 -1.0210
  271SOL    HW2 1083   0.937   0.086   2.528  1.1302  1.5590  0.4197
  271SOL     MW 1084   0.884   0.017   2.550 -0.8245 -0.0959  0.0823
  272SOL     OW 1085   1.484   2.867   2.828 -0.6515 -0.5496 -0.3696
  272SOL    HW1 1086   1.436   2.852   2.751  0.2109  0.4491  0.2298
  272SOL    HW2 1087   1.525   2.951   2.816  0.9508  1.6173  0.5181
  272SOL     MW 1088   1.483   2.876   2.816 -0.3263 -0.1320 -0.1734
  273SOL     OW 1089   1.451   0.986   2.820  0.0799 -0.3662  0.0908
  273SOL    HW1 1090   1.537   1.021   2.837 -1.1440 -1.3787 -1.2561
  273SOL    HW2 1091   1.390   1.043   2.870 -1.2457  0.0892  0.4314
  273SOL     MW 1092   1.454   0.998   2.829 -0.2565 -0.4397 -0.0420
  274SOL     OW 1093   1.477   0.717   0.114 -0.5987 -0.3575 -0.0893
  274SOL    HW1 1094   1.510   0.632   0.144  0.1496  1.7502  0.7233
  274SOL    HW2 1095   1.382   0.715   0.148  0.4905  0.2002 -5.8986
  274SOL     MW 1096   1.469   0.705   0.122 -0.3563 -0.0059 -0.7486
  275SOL     OW 1097   1.718   0.544   1.748 -0.4368  0.6714 -0.2456
  275SOL    HW1 1098   1.785   0.590   1.800  0.7735  2.0440 -2.2252
  275SOL    HW2 1099   1.743   0.451   1.762 -0.8282 -1.6478  0.4117
  275SOL     MW 1100   1.731   0.538   1.757 -0.3288  0.5465 -0.4201
  276SOL     OW 1101   0.321   1.203   1.903  0.3073 -0.1513  0.0203
  276SOL    HW1 1102   0.366   1.117   1.932 -0.8771 -2.8405  0.2511
  276SOL    HW2 1103   0.241   1.216   1.957  1.6703 -0.5225  3.1845
  276SOL     MW 1104   0.317   1.194   1.914  0.3308 -0.5551  0.4682
  277SOL     OW 1105   1.889   1.270   2.408  0.0897 -0.4543 -0.2930
  277SOL    HW1 1106   1.942   1.348   2.440  1.3152  1.0626 -0.0203
  277SOL    HW2 1107   1.926   1.251   2.320  3.2168 -2.8248  0.0102
  277SOL     MW 1108   1.901   1.278   2.400  0.6640 -0.5670 -0.2170
  278SOL     OW 1109   1.453   0.605   1.731 -0.0906 -0.3964 -0.2572
  278SOL    HW1 1110   1.399   0.569   1.809 -1.6797  2.0412  0.2025
  278SOL    HW2 1111   1.548   0.588   1.743  2.0045  1.0818 -0.2032
  278SOL     MW 1112   1.458   0.598   1.743 -0.0239  0.1203 -0.1894
  279SOL     OW 1113   0.574   0.033   2.262  0.7776  0.1918 -0.2094
  279SOL    HW1 1114   0.657  -0.018   2.259  2.8224 -2.4577  0.9808
  279SOL    HW2 1115   0.590   0.120   2.229  0.3256 -0.1350  1.9444
  279SOL     MW 1116   0.587   0.038   2.258  0.9877 -0.2009  0.2318
  280SOL     OW 1117   1.484   0.962   2.149  0.5858 -0.1514  0.4518
  280SOL    HW1 1118   1.546   0.900   2.106  0.8665  1.7294  1.7079
  280SOL    HW2 1119   1.469   0.934   2.241 -0.0126  1.8759  0.1294
  280SOL     MW 1120   1.490   0.950   2.156  0.5439  0.3642  0.5750
  281SOL     OW 1121   1.295   1.354   2.777  0.8484  0.2337 -0.1399
  281SOL    HW1 1122   1.389   1.342   2.760 -2.2724 -1.2331  2.0941
  281SOL    HW2 1123   1.270   1.289   2.844 -0.4939  0.1644 -1.1137
  281SOL     MW 1124   1.304   1.344   2.783  0.2596  0.0310  0.0264
  282SOL     OW 1125   1.103   1.297   1.691  0.2918  0.1715 -0.1168
  282SOL    HW1 1126   1.094   1.388   1.650  1.5620 -1.9552 -2.0644
  282SOL    HW2 1127   1.049   1.306   1.770 -2.6019 -1.8020  0.2913
  282SOL     MW 1128   1.094   1.310   1.696  0.0776 -0.3695 -0.3199
  283SOL     OW 1129   0.819   1.196   2.994  0.4340  0.1188 -0.1281
  283SOL    HW1 1130   0.855   1.130   3.052  0.1747 -3.3170  0.7070
  283SOL    HW2 1131   0.809   1.282   3.032  0.8081  1.8858 -0.4741
  283SOL     MW 1132   0.822   1.199   3.007  0.4492 -0.1013 -0.0636
  284SOL     OW 1133   0.522   0.658   2.391 -0.4227  0.0618  0.2872
  284SOL    HW1 1134   0.575   0.733   2.345  0.5609 -1.8693 -0.7001
  284SOL    HW2 1135   0.487   0.609   2.318  1.6382  1.5615 -0.0206
  284SOL     MW 1136   0.524   0.662   2.375 -0.0210  0.0049  0.1163
  285SOL     OW 1137   0.945   0.932   2.818  0.3026 -0.3200 -0.2408
  285SOL    HW1 1138   0.968   0.974   2.735 -3.7330  0.3670 -0.5873
  285SOL    HW2 1139   0.891   0.853   2.789 -0.5394 -0.8267  0.6385
  285SOL     MW 1140   0.941   0.927   2.803 -0.3410 -0.2962 -0.1705
  286SOL     OW 1141   1.171   1.498   2.586 -0.2252  0.3946 -0.3379
  286SOL    HW1 1142   1.213   1.444   2.654 -4.5683  1.6415  1.4295
  286SOL    HW2 1143   1.183   1.589   2.584  0.2174 -0.0140 -0.2197
  286SOL     MW 1144   1.178   1.503   2.595 -0.7398  0.5052 -0.0891
  287SOL     OW 1145   1.124   0.931   0.299  0.5847 -0.4384  0.4809
  287SOL    HW1 1146   1.163   0.974   0.377  0.2666 -1.6784 -1.3318
  287SOL    HW2 1147   1.030   0.940   0.303  1.5079  3.6119  2.3599
  287SOL     MW 1148   1.117   0.938   0.310  0.6645 -0.0676  0.4897
  288SOL     OW 1149   1.534   0.580   2.100 -0.1077  0.4003 -0.2419
  288SOL    HW1 1150   1.521   0.623   2.186  3.2644  2.3579  1.9349
  288SOL    HW2 1151   1.577   0.648   2.046 -2.0311 -0.2645 -1.2840
  288SOL     MW 1152   1.538   0.594   2.104  0.0834  0.5708 -0.0922
  289SOL     OW 1153   1.035   1.031   2.573  1.2017 -0.0864  0.1980
  289SOL    HW1 1154   1.065   0.940   2.561 -1.8955 -0.1403 -0.6917
  289SOL    HW2 1155   0.951   1.035   2.530  2.8125 -0.6955 -0.1319
  289SOL     MW 1156   1.028   1.019   2.565  1.0056 -0.1739  0.0371
  290SOL     OW 1157   0.827   0.658   1.593  0.3168 -0.3633 -0.0738
  290SOL    HW1 1158   0.872   0.612   1.525  0.3061  2.3648 -0.0746
  290SOL    HW2 1159   0.905   0.668   1.649  1.5115  1.8404 -2.0940
  290SOL     MW 1160   0.843   0.653   1.592  0.4730  0.2874 -0.3405
  291SOL     OW 1161   0.221   0.367   0.112 -0.0451  0.8175 -0.0119
  291SOL    HW1 1162   0.275   0.307   0.167 -0.1972 -0.4333  0.1656
  291SOL    HW2 1163   0.175   0.295   0.069  2.4264 -1.0502 -3.8888
  291SOL     MW 1164   0.222   0.350   0.114  0.2609  0.4060 -0.5000
  292SOL     OW 1165   1.011   0.590   0.098 -0.3432  0.0743  0.1068
  292SOL    HW1 1166   1.084   0.631   0.147  2.6193  0.1762  1.5644
  292SOL    HW2 1167   1.026   0.495   0.116 -0.4596 -0.4544 -0.6010
  292SOL     MW 1168   1.022   0.583   0.107  0.0323  0.0180  0.2057
  293SOL     OW 1169   0.163   0.132   2.432 -0.4279  0.0541 -0.1656
  293SOL    HW1 1170   0.089   0.080   2.395 -1.4592  0.5915  0.0876
  293SOL    HW2 1171   0.123   0.207   2.469 -0.8253  0.7638 -1.8344
  293SOL     MW 1172   0.148   0.135   2.432 -0.6164  0.2187 -0.3524
  294SOL     OW 1173   1.492   0.639   2.366 -0.5953  0.0224 -0.5845
  294SOL    HW1 1174   1.488   0.689   2.449  0.7066  0.1914  3.7206
  294SOL    HW2 1175   1.482   0.556   2.403 -0.5013  3.2209  3.0613
  294SOL     MW 1176   1.490   0.634   2.382 -0.4111  0.4667  0.4646
  295SOL     OW 1177   0.924   0.592   2.526  0.5443 -0.5104  0.0979
  295SOL    HW1 1178   0.861   0.550   2.467 -1.4925 -2.0235 -3.4387
  295SOL    HW2 1179   0.866   0.604   2.600  1.9503  1.8813 -0.1116
  295SOL     MW 1180   0.908   0.588   2.528  0.4610 -0.3945 -0.3964
  296SOL     OW 1181   1.314   0.261   2.056  0.2607 -0.0583  0.0383
  296SOL    HW1 1182   1.379   0.196   2.035 -0.4349 -0.1565  1.0083
  296SOL    HW2 1183   1.285   0.253   2.153 -0.5319  1.6935 -1.6884
  296SOL     MW 1184   1.319   0.251   2.066  0.0643  0.1599 -0.0616
  297SOL     OW 1185   1.377   0.358   1.627  0.0416 -0.2620 -0.3382
  297SOL    HW1 1186   1.414   0.444   1.656  3.5612  0.2537  1.2576
  297SOL    HW2 1187   1.429   0.290   1.671 -0.4173 -0.0871 -1.8626
  297SOL     MW 1188   1.388   0.361   1.636  0.4454 -0.1709 -0.3288
  298SOL     OW 1189   1.649   0.794   1.980 -0.1676  0.0035  0.1422
  298SOL    HW1 1190   1.649   0.881   1.939 -0.1244 -1.3588 -0.5635
  298SOL    HW2 1191   1.708   0.815   2.056  1.4576 -2.1013  0.0333
  298SOL     MW 1192   1.657   0.809   1.985  0.0526 -0.4540  0.0347
  299SOL     OW 1193   0.573   1.082   0.051 -0.0419 -0.2798  0.1729
  299SOL    HW1 1194   0.643   1.128   0.012 -2.2778 -2.2333  0.2419
  299SOL    HW2 1195   0.503   1.128   0.008 -1.9207 -0.6906  1.5525
  299SOL     MW 1196   0.573   1.095   0.041 -0.5848 -0.5918  0.3640
  300SOL     OW 1197   1.309   1.135   2.528  0.1608 -0.2254 -0.1776
  300SOL    HW1 1198   1.226   1.093   2.516 -0.2234 -2.3157  2.9719
  300SOL    HW2 1199   1.309   1.157   2.622 -0.5320 -3.4511 -1.3103
  300SOL     MW 1200   1.298   1.133   2.539  0.0187 -0.9268  0.0885
  301SOL     OW 1201   1.472   0.914   0.640 -0.1943 -0.1473 -0.0143
  301SOL    HW1 1202   1.462   0.937   0.735  1.4169 -3.0161 -1.5308
  301SOL    HW2 1203   1.407   0.847   0.631  2.7597  0.6926  1.4579
  301SOL     MW 1204   1.462   0.908   0.651  0.4080 -0.4150 -0.0201
  302SOL     OW 1205   0.117   1.507   2.006 -0.1651  0.6543 -0.5007
  302SOL    HW1 1206   0.130   1.449   2.078 -2.5468  1.3352  1.6595
  302SOL    HW2 1207   0.061   1.580   2.050  0.8732  1.6242  0.9418
  302SOL     MW 1208   0.111   1.509   2.021 -0.3424  0.8721 -0.0254
  303SOL     OW 1209   0.387   1.736   2.612  0.6377  0.5655 -0.6735
  303SOL    HW1 1210   0.353   1.689   2.533  1.3202 -2.2483 -0.3275
  303SOL    HW2 1211   0.310   1.787   2.637 -4.1546 -0.6366 -1.4148
  303SOL     MW 1212   0.373   1.736   2.605  0.0955  0.0356 -0.7257
  304SOL     OW 1213   0.560   2.072   2.358  0.9246  0.1625  0.3213
  304SOL    HW1 1214   0.622   2.119   2.298 -1.3127 -1.8538  0.3110
  304SOL    HW2 1215   0.610   1.989   2.379 -1.7289 -2.1072 -0.1197
  304SOL     MW 1216   0.574   2.067   2.353  0.2793 -0.4030  0.2618
  305SOL     OW 1217   1.123   0.584   0.456 -0.3201 -0.1352 -0.4558
  305SOL    HW1 1218   1.028   0.567   0.454 -2.1535  1.1975 -1.0311
  305SOL    HW2 1219   1.173   0.515   0.501  0.3252 -1.2270  0.9173
  305SOL     MW 1220   1.117   0.573   0.462 -0.4768 -0.1034 -0.3506
  306SOL     OW 1221   1.159   1.462   0.268  0.2696 -0.4216  0.0323
  306SOL    HW1 1222   1.210   1.384   0.302 -2.5835 -0.7515  1.8000
  306SOL    HW2 1223   1.205   1.498   0.195 -1.0853 -0.6115  2.6912
  306SOL     MW 1224   1.172   1.457   0.262 -0.2856 -0.4902  0.6163
  307SOL     OW 1225   1.321   0.513   1.956 -0.2736  0.4830 -0.0261
  307SOL    HW1 1226   1.310   0.426   2.000  0.3078 -1.7240  1.7104
  307SOL    HW2 1227   1.395   0.541   2.020  1.5253  1.3128 -0.5825
  307SOL     MW 1228   1.329   0.505   1.970  0.0405  0.3013  0.1296
  308SOL     OW 1229   2.144   0.546   2.726  0.4415 -0.2084  0.0162
  308SOL    HW1 1230   2.232   0.521   2.735 -2.3190  2.4059 -2.3909
  308SOL    HW2 1231   2.153   0.644   2.732 -2.3111  0.0725  0.0514
  308SOL     MW 1232   2.157   0.556   2.728 -0.2859  0.1736 -0.2968
  309SOL     OW 1233   0.459   0.419   0.356  0.0204  0.3113 -0.4446
  309SOL    HW1 1234   0.512   0.372   0.419  0.4035  0.3526 -0.7931
  309SOL    HW2 1235   0.487   0.383   0.273  3.0798  0.4765  0.0004
  309SOL     MW 1236   0.470   0.408   0.354  0.4746  0.3385 -0.4319
  310SOL     OW 1237   0.476   0.629   1.940 -0.7867  0.4519 -0.2736
  310SOL    HW1 1238   0.532   0.545   1.923  0.5788  1.4804 -1.4136
  310SOL    HW2 1239   0.541   0.697   1.934  0.6612  3.0547  1.2494
  310SOL     MW 1240   0.492   0.627   1.937 -0.4155  0.9310 -0.2231
  311SOL     OW 1241   1.929   0.657   1.897  0.0595 -0.9827  0.1857
  311SOL    HW1 1242   1.897   0.688   1.982 -0.7941 -1.5468  3.5194
  311SOL    HW2 1243   1.967   0.568   1.907 -0.7595 -0.1659 -1.4426
  311SOL     MW 1244   1.930   0.649   1.910 -0.1612 -0.9493  0.4107
  312SOL     OW 1245   1.761   2.536   0.132  0.5348 -1.0057 -0.2051
  312SOL    HW1 1246   1.831   2.541   0.197  0.6759 -0.9833 -0.2984
  312SOL    HW2 1247   1.685   2.596   0.165 -0.1581  0.5877  0.9545
  312SOL     MW 1248   1.760   2.544   0.145  0.4620 -0.7925 -0.0644
  313SOL     OW 1249   0.109   1.109   2.987  0.9015 -0.6982 -0.2815
  313SOL    HW1 1250   0.066   1.129   3.070 -2.5664 -0.9649 -1.6114
  313SOL    HW2 1251   0.141   1.194   2.957  0.1101 -1.6449  0.2189
  313SOL     MW 1252   0.108   1.123   2.994  0.3395 -0.8583 -0.3910
  314SOL     OW 1253   2.174   2.935   2.969  0.5370  0.2809 -0.6152
  314SOL    HW1 1254   2.116   2.991   2.920  2.7796  0.7106  2.7453
  314SOL    HW2 1255   2.227   3.006   3.002 -0.2698 -1.0227 -0.8671
  314SOL     MW 1256   2.173   2.952   2.967  0.7265  0.1656 -0.2050
  315SOL     OW 1257   1.512   1.966   0.019 -0.4146 -0.3575  0.4589
  315SOL    HW1 1258   1.438   1.988   0.075  0.3698  1.2049  0.8895
  315SOL    HW2 1259   1.494   2.025  -0.049 -1.3625 -0.3576 -0.6849
  315SOL     MW 1260   1.500   1.977   0.017 -0.4362 -0.1514  0.3648
  316SOL     OW 1261   1.266   0.664   2.718 -0.5967 -0.6897 -0.3414
  316SOL    HW1 1262   1.348   0.681   2.677 -0.0966 -0.1133  1.1354
  316SOL    HW2 1263   1.278   0.683   2.810 -0.0504 -0.3363  1.4206
  316SOL     MW 1264   1.279   0.669   2.725 -0.4587 -0.5670  0.0859
  317SOL     OW 1265   0.723   1.431   2.582 -0.1262 -0.8499 -0.2886
  317SOL    HW1 1266   0.797   1.365   2.592 -0.1424  0.1869 -0.2292
  317SOL    HW2 1267   0.732   1.482   2.493 -1.0978  0.6444 -0.8366
  317SOL     MW 1268   0.734   1.429   2.572 -0.2565 -0.5160 -0.3531
  318SOL     OW 1269   1.325   0.354   2.916  0.6252 -0.0193  0.0946
  318SOL    HW1 1270   1.233   0.400   2.912 -3.2308 -1.1785  0.7259
  318SOL    HW2 1271   1.387   0.425   2.948  0.6753 -0.3338  1.3113
  318SOL     MW 1272   1.321   0.369   2.920  0.1230 -0.2137  0.3384
  319SOL     OW 1273   0.796   0.429   2.883  0.5170  0.2757  0.4811
  319SOL    HW1 1274   0.770   0.372   2.811  0.8707 -0.1476  1.9574
  319SOL    HW2 1275   0.743   0.398   2.955 -0.2408  1.6015 -2.8475
  319SOL     MW 1276   0.786   0.417   2.883  0.4637  0.3947  0.2367
  320SOL     OW 1277   1.063   1.349   1.978 -0.2775  0.0839  0.9990
  320SOL    HW1 1278   1.127   1.308   2.040 -2.2063 -3.0153 -0.8807
  320SOL    HW2 1279   1.106   1.418   1.926 -1.2212  0.6636 -1.0001
  320SOL     MW 1280   1.077   1.353   1.979 -0.6565 -0.2485  0.4873
  321SOL     OW 1281   1.144   0.912   3.037  1.0305  0.1922  0.1452
  321SOL    HW1 1282   1.098   0.913   2.957  2.1049 -1.0167  0.4468
  321SOL    HW2 1283   1.215   0.852   3.015 -0.1621 -1.2670 -0.0859
  321SOL     MW 1284   1.147   0.904   3.023  1.0149 -0.1598  0.1545
  322SOL     OW 1285   1.271   0.859   1.687 -0.2286 -0.0448 -0.1096
  322SOL    HW1 1286   1.355   0.811   1.699 -1.2147  2.5303  1.3977
  322SOL    HW2 1287   1.249   0.879   1.780  0.1484  2.4926 -0.8841
  322SOL     MW 1288   1.279   0.855   1.700 -0.3090  0.6298 -0.0129
  323SOL     OW 1289   1.234   1.573   1.908 -0.3002  0.2177  0.0966
  323SOL    HW1 1290   1.284   1.565   1.821  1.8836 -3.4910 -0.7354
  323SOL    HW2 1291   1.167   1.644   1.885 -1.1228  0.6369 -0.2836
  323SOL     MW 1292   1.232   1.581   1.893 -0.1206 -0.2163 -0.0633
  324SOL     OW 1293   1.475   0.973   2.419 -0.4299  0.0585  0.1964
  324SOL    HW1 1294   1.406   1.022   2.464  2.7034  1.0240 -6.2944
  324SOL    HW2 1295   1.551   1.033   2.434 -1.5520 -1.3603  3.8612
  324SOL     MW 1296   1.476   0.987   2.427 -0.1645 -0.0013 -0.1765
  325SOL     OW 1297   1.058   0.451   2.975 -0.7861  0.8008 -0.2553
  325SOL    HW1 1298   1.058   0.527   3.032 -0.3937 -0.0743  2.4432
  325SOL    HW2 1299   0.959   0.461   2.958  0.4513  0.8103  0.5179
  325SOL     MW 1300   1.045   0.462   2.980 -0.5710  0.6866  0.2028
  326SOL     OW 1301   0.490   1.378   2.240 -0.4584  0.5169  1.3049
  326SOL    HW1 1302   0.545   1.314   2.193 -0.4708  1.6574 -0.1462
  326SOL    HW2 1303   0.523   1.464   2.225 -0.6543 -1.9850  2.2478
  326SOL     MW 1304   0.502   1.381   2.232 -0.4859  0.3373  1.2378
  327SOL     OW 1305   1.934   0.793   2.426  0.2557  0.2610  0.3869
  327SOL    HW1 1306   1.896   0.797   2.513  0.1692 -0.9632  1.7680
  327SOL    HW2 1307   2.022   0.825   2.430 -2.5965  0.7353  0.7237
  327SOL     MW 1308   1.941   0.798   2.438 -0.1320  0.1620  0.6135
  328SOL     OW 1309   0.173   1.322   2.243  0.4738  0.7255  0.5197
  328SOL    HW1 1310   0.141   1.244   2.195  0.8990  2.4985  1.2559
  328SOL    HW2 1311   0.266   1.306   2.254  2.9208  0.4442  1.6578
  328SOL     MW 1312   0.181   1.310   2.238  0.8527  0.9223  0.7670
  329SOL     OW 1313   0.149   0.213   1.320  0.0732  0.3766  0.6934
  329SOL    HW1 1314   0.105   0.224   1.404  0.1802  0.3832 -2.0636
  329SOL    HW2 1315   0.241   0.210   1.331 -3.2760  1.5598 -1.9557
  329SOL     MW 1316   0.156   0.214   1.333 -0.3546  0.5336 -0.0199
  330SOL     OW 1317   0.391   0.005   2.070 -0.1663  0.1487  0.0275
  330SOL    HW1 1318   0.466   0.020   2.132  0.2885  2.0038  1.7272
  330SOL    HW2 1319   0.322  -0.037   2.131 -1.6912 -1.4873  1.1620
  330SOL     MW 1320   0.391   0.001   2.086 -0.3075  0.1776  0.4015
  331SOL     OW 1321   0.877   1.215   2.283  0.7368  0.0604  0.0872
  331SOL    HW1 1322   0.820   1.249   2.207 -2.2563 -2.1962 -0.0032
  331SOL    HW2 1323   0.874   1.293   2.347 -0.9826  1.7459  0.8693
  331SOL     MW 1324   0.869   1.230   2.281  0.1150 -0.0149  0.1785
  332SOL     OW 1325   1.332   1.755   3.017  0.1885  0.1414 -0.2115
  332SOL    HW1 1326   1.355   1.767   2.924  0.3367 -1.6742 -1.4215
  332SOL    HW2 1327   1.361   1.837   3.059 -1.5140 -0.8444 -3.8180
  332SOL     MW 1328   1.339   1.768   3.011 -0.0166 -0.2282 -0.8470
  333SOL     OW 1329   1.760   1.389   2.983  0.8660 -0.1825 -0.1556
  333SOL    HW1 1330   1.846   1.391   3.009 -1.8454  1.0410  0.0842
  333SOL    HW2 1331   1.705   1.376   3.061 -0.0990  2.9916  2.2663
  333SOL     MW 1332   1.764   1.388   2.996  0.3809  0.3977  0.1956
  334SOL     OW 1333   1.388   0.002   2.620  0.1369 -0.0097 -0.1741
  334SOL    HW1 1334   1.306   0.006   2.667 -1.4118 -1.7246 -1.1687
  334SOL    HW2 1335   1.437   0.082   2.642 -3.8983  2.8749  1.2505
  334SOL     MW 1336   1.383   0.013   2.629 -0.5999  0.1446 -0.1174
  335SOL     OW 1337   1.363   0.764   2.948  0.0274 -0.1521 -0.1565
  335SOL    HW1 1338   1.417   0.748   3.025  2.4552 -0.7355 -2.3093
  335SOL    HW2 1339   1.412   0.829   2.898  1.6799  1.1778 -1.3296
  335SOL     MW 1340   1.377   0.770   2.952  0.5658 -0.0536 -0.5953
  336SOL     OW 1341   0.953   1.076   1.962  0.3309  0.7895 -1.0397
  336SOL    HW1 1342   0.972   1.163   2.004  0.3913  1.1419  1.9495
  336SOL    HW2 1343   1.046   1.051   1.950  0.0216  0.2734  4.0344
  336SOL     MW 1344   0.968   1.084   1.966  0.2980  0.7679  0.0241
  337SOL     OW 1345   0.591   1.840   2.794 -0.3400  0.0206  0.1229
  337SOL    HW1 1346   0.516   1.816   2.747  1.7336  1.2400  0.1799
  337SOL    HW2 1347   0.663   1.783   2.758 -0.3346 -1.0607 -2.7386
  337SOL     MW 1348   0.591   1.829   2.783 -0.0657  0.0388 -0.2471
  338SOL     OW 1349   1.118   0.794   2.533  0.1245 -0.1353  0.2677
  338SOL    HW1 1350   1.049   0.724   2.518 -0.2321 -3.4294  0.9050
  338SOL    HW2 1351   1.161   0.748   2.612  0.0453 -2.0930  1.7668
  338SOL     MW 1352   1.115   0.779   2.541  0.0670 -0.8282  0.5496
  339SOL     OW 1353   1.500   1.033   1.820 -1.2730 -0.1476  0.3126
  339SOL    HW1 1354   1.450   1.066   1.747 -1.0765 -2.3957 -0.5732
  339SOL    HW2 1355   1.435   1.026   1.886  0.6900  2.3817  0.7355
  339SOL     MW 1356   1.485   1.037   1.819 -0.9880 -0.1105  0.2515
  340SOL     OW 1357   1.320   1.543   0.070 -0.5340  0.5510 -0.1664
  340SOL    HW1 1358   1.315   1.611   0.006 -3.5306 -0.5576 -2.2839
  340SOL    HW2 1359   1.411   1.510   0.068 -0.2079  1.4114 -0.6904
  340SOL     MW 1360   1.331   1.548   0.061 -0.8864  0.5182 -0.5149
  341SOL     OW 1361   0.159   1.424   2.749 -0.1525 -0.0247  0.1576
  341SOL    HW1 1362   0.236   1.386   2.714  0.6573  0.7157  4.0420
  341SOL    HW2 1363   0.086   1.389   2.697 -1.0633 -0.1494 -1.0219
  341SOL     MW 1364   0.160   1.415   2.737 -0.1658  0.0565  0.5145
  342SOL     OW 1365   1.295   0.347   0.081  0.2359 -0.3635  0.0716
  342SOL    HW1 1366   1.356   0.398   0.130  0.3169  0.6546 -2.2242
  342SOL    HW2 1367   1.322   0.345  -0.012  0.3321  1.1339 -0.0279
  342SOL     MW 1368   1.307   0.353   0.075  0.2592 -0.0316 -0.2445
  343SOL     OW 1369   0.221   0.288   2.148  0.4081 -0.0702  0.0472
  343SOL    HW1 1370   0.234   0.211   2.211 -0.9374 -0.7000  2.2645
  343SOL    HW2 1371   0.242   0.254   2.062  0.0299 -1.0880  0.2315
  343SOL     MW 1372   0.225   0.273   2.145  0.1807 -0.2876  0.3641
  344SOL     OW 1373   1.733   2.067   0.177  0.6526 -0.3683 -0.3271
  344SOL    HW1 1374   1.744   2.157   0.148  0.9822 -1.8535  0.7373
  344SOL    HW2 1375   1.681   2.027   0.107  0.0974  3.7940  1.8693
  344SOL     MW 1376   1.728   2.073   0.164  0.6228 -0.0151  0.1032
  345SOL     OW 1377   0.778   1.589   2.348  0.1546 -0.5285 -0.3602
  345SOL    HW1 1378   0.699   1.609   2.302  3.6604  1.0719  1.3750
  345SOL    HW2 1379   0.842   1.561   2.286 -1.4858  2.3179 -2.7871
  345SOL     MW 1380   0.776   1.588   2.334  0.4007  0.0582 -0.4514
  346SOL     OW 1381   1.766   1.047   0.009  0.3396  0.0537 -0.0243
  346SOL    HW1 1382   1.851   1.013  -0.011  0.1138  0.3727 -2.0329
  346SOL    HW2 1383   1.724   1.002   0.081 -1.2084  1.5401 -0.7057
  346SOL     MW 1384   1.772   1.037   0.016  0.1056  0.2919 -0.3792
  347SOL     OW 1385   1.235   0.718   2.281 -0.3224 -0.3959  0.1021
  347SOL    HW1 1386   1.317   0.673   2.292  0.9064 -1.7610  1.3210
  347SOL    HW2 1387   1.214   0.752   2.369  0.5267  0.5918  1.7568
  347SOL     MW 1388   1.243   0.717   2.294 -0.0482 -0.4457  0.4812
  348SOL     OW 1389   1.417   2.677   1.913 -0.4060  0.3355  0.5384
  348SOL    HW1 1390   1.442   2.590   1.956  0.3236  0.2968 -1.4158
  348SOL    HW2 1391   1.433   2.748   1.971 -2.0648 -0.7398 -0.9812
  348SOL     MW 1392   1.423   2.675   1.926 -0.5286  0.1885  0.0801
  349SOL     OW 1393   1.488   0.278   2.705 -0.6089 -0.1029  0.1071
  349SOL    HW1 1394   1.431   0.302   2.776 -1.7553 -0.0873 -0.7438
  349SOL    HW2 1395   1.575   0.318   2.734  3.2940 -0.9831  0.9370
  349SOL     MW 1396   1.492   0.287   2.718 -0.2452 -0.2170  0.1043
  350SOL     OW 1397   1.848   0.640   2.681 -0.7196 -0.1659 -0.6707
  350SOL    HW1 1398   1.776   0.593   2.630 -1.1202 -0.4162  0.5415
  350SOL    HW2 1399   1.929   0.594   2.677  1.5423 -0.0725  0.1224
  350SOL     MW 1400   1.850   0.628   2.674 -0.4740 -0.1866 -0.4061
  351SOL     OW 1401   0.060   0.996   1.487  0.1163  0.3917  0.7486
  351SOL    HW1 1402  -0.010   1.008   1.557 -2.0987 -0.1027 -0.5160
  351SOL    HW2 1403   0.126   1.058   1.515  3.5942  1.6980 -2.4544
  351SOL     MW 1404   0.059   1.006   1.500  0.2829  0.4988  0.1592
  352SOL     OW 1405   0.820   1.655   2.680 -0.2626 -0.5756 -0.3924
  352SOL    HW1 1406   0.884   1.622   2.748  2.7906  0.0120 -0.0742
  352SOL    HW2 1407   0.791   1.574   2.637  1.5326  1.0312  2.0527
  352SOL     MW 1408   0.825   1.640   2.683  0.3771 -0.2861 -0.0278
  353SOL     OW 1409   3.061   2.503   2.637 -0.0873  0.4521  0.0919
  353SOL    HW1 1410   3.155   2.519   2.625 -2.3640  3.0426  1.1445
  353SOL    HW2 1411   3.020   2.593   2.629 -1.8138  2.4559 -1.6447
  353SOL     MW 1412   3.068   2.517   2.634 -0.6155  1.0583  0.0016
  354SOL     OW 1413   0.288   2.513   0.799 -0.0267 -0.6393 -0.6667
  354SOL    HW1 1414   0.341   2.492   0.879  0.7225  0.5918  1.0724
  354SOL    HW2 1415   0.214   2.451   0.797 -1.7400 -0.5001  0.3580
  354SOL     MW 1416   0.285   2.502   0.809 -0.1539 -0.4585 -0.3020
  355SOL     OW 1417   0.077   2.276   0.378 -0.2764 -0.2872  0.0907
  355SOL    HW1 1418  -0.002   2.221   0.364 -0.0503  1.2575 -1.1632
  355SOL    HW2 1419   0.059   2.326   0.459  0.8064  0.6051  0.7854
  355SOL     MW 1420   0.064   2.276   0.387 -0.1037  0.0343  0.0169
  356SOL     OW 1421   0.807   2.801   0.957 -0.1593  0.2340 -0.1636
  356SOL    HW1 1422   0.841   2.855   0.880  0.9187  1.3300 -0.1763
  356SOL    HW2 1423   0.711   2.797   0.956  2.6138 -0.9943  1.0398
  356SOL     MW 1424   0.799   2.807   0.947  0.3488  0.2166 -0.0065
  357SOL     OW 1425   1.784   2.927   0.418 -0.0513 -0.0457 -0.0504
  357SOL    HW1 1426   1.731   2.854   0.457  0.7116 -1.3219  2.5945
  357SOL    HW2 1427   1.857   2.877   0.383 -0.1902 -3.1998 -0.2934
  357SOL     MW 1428   1.787   2.911   0.419  0.0310 -0.6302  0.2665
  358SOL     OW 1429   0.472   0.147   1.096 -0.0944  0.8359 -0.4732
  358SOL    HW1 1430   0.567   0.126   1.082 -0.0985 -0.7981 -1.3526
  358SOL    HW2 1431   0.431   0.158   1.001  0.9544  1.0160 -0.0748
  358SOL     MW 1432   0.479   0.145   1.082  0.0434  0.6441 -0.5367
  359SOL     OW 1433   0.876   2.951   1.873 -0.0053 -0.4499  0.7927
  359SOL    HW1 1434   0.863   2.859   1.896  2.0276  0.4005 -4.5000
  359SOL    HW2 1435   0.903   2.933   1.784  0.0133  1.0487 -0.7604
  359SOL     MW 1436   0.878   2.936   1.865  0.2654 -0.1400 -0.1105
  360SOL     OW 1437   0.540   2.758   0.958  0.5400  0.4736 -0.4413
  360SOL    HW1 1438   0.531   2.708   0.878 -1.2920  0.9949 -2.1628
  360SOL    HW2 1439   0.525   2.695   1.030  0.6708 -1.7569  0.5792
  360SOL     MW 1440   0.537   2.743   0.957  0.3156  0.2481 -0.5338
  361SOL     OW 1441   0.163   2.676   1.355  0.4558 -0.6438  0.8757
  361SOL    HW1 1442   0.121   2.749   1.404  1.2315 -0.0836  1.4262
  361SOL    HW2 1443   0.257   2.684   1.368 -0.7079  0.8318 -0.8048
  361SOL     MW 1444   0.170   2.687   1.363  0.4046 -0.3752  0.7266
  362SOL     OW 1445   1.489   2.425   0.610  0.0656 -0.3068 -0.0930
  362SOL    HW1 1446   1.557   2.370   0.650  0.9474  0.4016  0.8235
  362SOL    HW2 1447   1.502   2.509   0.652 -0.0788 -2.9150  0.2993
  362SOL     MW 1448   1.500   2.429   0.621  0.1629 -0.5575  0.0797
  363SOL     OW 1449   0.339   3.062   0.692  0.2800 -0.1463 -0.0343
  363SOL    HW1 1450   0.338   2.993   0.766  0.2076 -1.0336  0.6631
  363SOL    HW2 1451   0.252   3.080   0.669 -0.3176 -1.1035 -0.0904
  363SOL     MW 1452   0.328   3.055   0.699  0.1916 -0.3897  0.0503
  364SOL     OW 1453   0.712   0.186   0.214  0.3773  0.1693  0.3199
  364SOL    HW1 1454   0.646   0.114   0.236 -1.7584  0.7467  1.7163
  364SOL    HW2 1455   0.674   0.241   0.147  0.7533  2.9961  3.1874
  364SOL     MW 1456   0.698   0.184   0.208  0.1452  0.6184  0.8824
  365SOL     OW 1457   0.970   1.987   1.090  0.3104 -0.0174 -0.1473
  365SOL    HW1 1458   0.955   2.078   1.075 -1.3502  2.2131  0.2628
  365SOL    HW2 1459   0.896   1.945   1.044 -0.9353  0.9127  1.7163
  365SOL     MW 1460   0.958   1.993   1.082 -0.0731  0.3996  0.1527
  366SOL     OW 1461   2.819   2.649   1.012 -0.1537  0.5021  0.1513
  366SOL    HW1 1462   2.904   2.658   1.067 -0.1316 -0.9232 -1.1552
  366SOL    HW2 1463   2.855   2.679   0.932 -1.1241  0.9310  2.4474
  366SOL     MW 1464   2.835   2.654   1.009 -0.2788  0.3706  0.2818
  367SOL     OW 1465   1.270   2.942   0.844  0.2736  0.4970 -0.4434
  367SOL    HW1 1466   1.234   3.024   0.828  1.7058  0.6342  0.5195
  367SOL    HW2 1467   1.215   2.876   0.793  1.0517  0.0232 -0.4646
  367SOL     MW 1468   1.258   2.944   0.835  0.5653  0.4526 -0.3191
  368SOL     OW 1469   1.648   0.416   0.691 -0.3607  0.5336 -0.0431
  368SOL    HW1 1470   1.715   0.351   0.656  1.0875 -0.8443 -3.4978
  368SOL    HW2 1471   1.680   0.502   0.669 -2.5918 -1.4294 -0.3470
  368SOL     MW 1472   1.661   0.419   0.683 -0.4640  0.0928 -0.5390
  369SOL     OW 1473   0.116   2.524   1.671  0.4641  0.5787  0.7531
  369SOL    HW1 1474   0.213   2.500   1.682 -1.0991 -0.4513  0.8380
  369SOL    HW2 1475   0.090   2.599   1.718 -2.8559 -1.2992 -2.4590
  369SOL     MW 1476   0.125   2.530   1.679 -0.1802  0.1950  0.3405
  370SOL     OW 1477   0.721   0.081   0.984 -0.4597 -0.0481  1.1144
  370SOL    HW1 1478   0.788   0.153   0.980 -2.6913  3.0813 -0.1219
  370SOL    HW2 1479   0.751   0.006   1.033  0.5907  0.7733 -1.0879
  370SOL     MW 1480   0.734   0.081   0.990 -0.6155  0.4732  0.6607
  371SOL     OW 1481   1.341   2.906   1.524 -0.4490 -0.6031  0.4327
  371SOL    HW1 1482   1.276   2.854   1.474 -1.7877 -0.0402 -0.0654
  371SOL    HW2 1483   1.342   2.994   1.479 -1.6632  1.3819 -0.0248
  371SOL     MW 1484   1.332   2.911   1.511 -0.7859 -0.2669  0.3066
  372SOL     OW 1485   0.757   2.304   0.463 -0.0062  0.2163 -0.3990
  372SOL    HW1 1486   0.751   2.208   0.475  1.7271  1.9748 -0.1450
  372SOL    HW2 1487   0.797   2.308   0.376  1.4089 -1.0746 -2.9297
  372SOL     MW 1488   0.762   2.292   0.453  0.4092  0.2780 -0.6994
  373SOL     OW 1489   2.755   3.022   1.431  0.1536 -0.3290  0.1308
  373SOL    HW1 1490   2.823   2.998   1.370  0.7327  1.6379  1.8428
  373SOL    HW2 1491   2.713   3.096   1.388 -1.6741 -2.2920  2.5578
  373SOL     MW 1492   2.758   3.029   1.417 -0.0112 -0.3285  0.6769
  374SOL     OW 1493   1.494   0.465   0.233  0.0573  0.0851  0.9521
  374SOL    HW1 1494   1.564   0.409   0.201  0.7427 -1.5960 -1.6984
  374SOL    HW2 1495   1.466   0.441   0.323  0.9891 -2.3540  1.3215
  374SOL     MW 1496   1.499   0.455   0.240  0.2707 -0.4585  0.6511
  375SOL     OW 1497   1.004   2.084   2.307 -1.0954  0.4352 -0.3694
  375SOL    HW1 1498   1.032   2.061   2.400  0.1625 -1.4199  1.3613
  375SOL    HW2 1499   0.992   1.997   2.272  0.7531 -2.6778 -0.8050
  375SOL     MW 1500   1.006   2.070   2.314 -0.6855 -0.2203 -0.1985
  376SOL     OW 1501   0.662   2.578   0.064  0.4289 -0.3767  0.0580
  376SOL    HW1 1502   0.618   2.548   0.144  4.5277  0.3462 -5.0207
  376SOL    HW2 1503   0.680   2.500   0.016  0.0895  0.9920  1.7321
  376SOL     MW 1504   0.659   2.564   0.068  0.9249 -0.1007 -0.3912
  377SOL     OW 1505   1.284   2.031   0.869 -0.2299 -0.3855 -0.1236
  377SOL    HW1 1506   1.208   2.018   0.811 -0.9140  0.8671  1.4569
  377SOL    HW2 1507   1.270   1.953   0.921 -0.5398  2.3012  0.7850
  377SOL     MW 1508   1.272   2.019   0.868 -0.3610  0.1342  0.2048
  378SOL     OW 1509   0.967   2.792   1.619 -0.5769 -0.0425 -0.4622
  378SOL    HW1 1510   0.935   2.704   1.629 -1.1537  0.7645 -3.3137
  378SOL    HW2 1511   0.911   2.839   1.555 -2.1428  2.1552 -0.4896
  378SOL     MW 1512   0.955   2.787   1.612 -0.8596  0.3539 -0.8420
  379SOL     OW 1513   1.163   1.774   2.267  0.2543 -0.4065 -0.0747
  379SOL    HW1 1514   1.075   1.743   2.256 -0.5264  2.2983  3.0202
  379SOL    HW2 1515   1.219   1.700   2.243  0.0661 -0.6039  0.5656
  379SOL     MW 1516   1.159   1.760   2.262  0.1265 -0.0757  0.4181
  380SOL     OW 1517   0.773   0.075   1.568  0.0470  0.5128  0.7790
  380SOL    HW1 1518   0.803   0.093   1.475 -3.2038 -1.3123 -3.0459
  380SOL    HW2 1519   0.856   0.092   1.618  1.8264  1.1874 -2.3189
  380SOL     MW 1520   0.788   0.080   1.563 -0.1471  0.3610 -0.1344
  381SOL     OW 1521   0.811   2.045   0.778 -0.0449 -0.4545 -0.0624
  381SOL    HW1 1522   0.902   2.033   0.757 -1.0562  1.5014  0.5669
  381SOL    HW2 1523   0.806   2.109   0.852  1.1114  2.6394  0.8183
  381SOL     MW 1524   0.822   2.052   0.785 -0.0258  0.2118  0.1369
  382SOL     OW 1525   0.655   0.115   0.710  0.5283 -0.1382  0.4819
  382SOL    HW1 1526   0.674   0.124   0.813 -1.2012 -0.0869  1.7007
  382SOL    HW2 1527   0.611   0.034   0.692  2.3464 -1.3812  0.2871
  382SOL     MW 1528   0.651   0.106   0.721  0.5400 -0.2955  0.6170
  383SOL     OW 1529   0.566   3.038   0.302 -0.4836 -0.1564 -0.2205
  383SOL    HW1 1530   0.614   2.982   0.241  0.8824  1.5402 -2.7336
  383SOL    HW2 1531   0.502   2.986   0.341 -0.4057  1.6196  0.3846
  383SOL     MW 1532   0.564   3.024   0.299 -0.2931  0.3018 -0.4722
  384SOL     OW 1533   0.629   2.909   0.621 -0.2827 -0.5856  0.2360
  384SOL    HW1 1534   0.716   2.892   0.659  0.5745  0.5662  1.9551
  384SOL    HW2 1535   0.574   2.829   0.642 -1.3037 -1.3309 -0.7848
  384SOL     MW 1536   0.633   2.896   0.629 -0.3044 -0.5319  0.3281
  385SOL     OW 1537   1.337   2.097   1.530  0.0533 -0.3229 -0.1497
  385SOL    HW1 1538   1.423   2.122   1.573  0.8847  0.6592  0.6676
  385SOL    HW2 1539   1.307   2.013   1.562  2.6132  1.0496  1.1438
  385SOL     MW 1540   1.345   2.089   1.540  0.5007 -0.0122  0.1288
  386SOL     OW 1541   1.308   0.394   0.864  0.1228  0.4245  0.3056
  386SOL    HW1 1542   1.224   0.429   0.894  0.0134  1.3666  1.1845
  386SOL    HW2 1543   1.341   0.311   0.905  1.4521  1.5291  0.7800
  386SOL     MW 1544   1.302   0.387   0.874  0.2838  0.6946  0.4841
  387SOL     OW 1545   0.844   2.175   1.482 -0.4181  0.2863  0.0449
  387SOL    HW1 1546   0.899   2.230   1.430  0.3395  0.4885  0.2341
  387SOL    HW2 1547   0.864   2.089   1.445 -1.7830  1.1659 -0.1209
  387SOL     MW 1548   0.854   2.171   1.471 -0.4982  0.4290  0.0480
  388SOL     OW 1549   1.568   2.809   1.230 -0.2089 -0.1120 -0.3907
  388SOL    HW1 1550   1.489   2.761   1.215  1.3273  0.5985  1.8748
  388SOL    HW2 1551   1.627   2.741   1.197  0.6265 -1.1016  0.5501
  388SOL     MW 1552   1.565   2.794   1.223  0.1040 -0.1488  0.0323
  389SOL     OW 1553   0.457   0.068   3.030  0.0969  0.4134 -0.8484
  389SOL    HW1 1554   0.549   0.046   3.025 -3.5781  0.9607 -1.4171
  389SOL    HW2 1555   0.428   0.100   2.944  0.7125 -1.0743  1.2499
  389SOL     MW 1556   0.466   0.069   3.018 -0.3068  0.2893 -0.6466
  390SOL     OW 1557   1.283   0.099   0.680  0.0538 -0.3473  0.9892
  390SOL    HW1 1558   1.344   0.105   0.610  0.1008 -0.3733  0.3005
  390SOL    HW2 1559   1.344   0.111   0.752 -4.6632 -0.0700  2.3244
  390SOL     MW 1560   1.299   0.101   0.680 -0.5624 -0.3141  1.0745
  391SOL     OW 1561   0.314   2.214   1.404 -0.0944  0.3134  0.1520
  391SOL    HW1 1562   0.276   2.125   1.436 -1.1243 -0.8026  0.1096
  391SOL    HW2 1563   0.233   2.269   1.407  1.0277  2.4364  0.6855
  391SOL     MW 1564   0.298   2.210   1.408 -0.0822  0.4463  0.2168
  392SOL     OW 1565   2.078   2.187   0.335  0.6026  0.1885 -0.3367
  392SOL    HW1 1566   2.167   2.155   0.349  0.1809  0.8623  0.4238
  392SOL    HW2 1567   2.078   2.267   0.394 -1.6333  0.9865 -0.5209
  392SOL     MW 1568   2.090   2.193   0.345  0.2520  0.3827 -0.2607
  393SOL     OW 1569   0.160   3.021   2.746  0.5688  0.2221 -0.5397
  393SOL    HW1 1570   0.242   3.028   2.701 -0.2166 -1.0571  3.2102
  393SOL    HW2 1571   0.136   3.113   2.757 -1.4503 -0.0301  2.0147
  393SOL     MW 1572   0.168   3.034   2.742  0.1987  0.0201  0.2921
  394SOL     OW 1573   0.867   1.771   1.554 -0.2782 -0.1853  0.4467
  394SOL    HW1 1574   0.785   1.789   1.605  2.0009 -0.3617 -1.8515
  394SOL    HW2 1575   0.876   1.850   1.497 -2.0180  1.3384 -0.4589
  394SOL     MW 1576   0.857   1.784   1.553 -0.2071 -0.0076  0.0240
  395SOL     OW 1577   1.032   2.797   2.597 -0.4456  0.4153  0.4577
  395SOL    HW1 1578   1.109   2.857   2.609  1.5558 -0.0769  0.1435
  395SOL    HW2 1579   1.078   2.730   2.551 -2.1181 -0.8513  0.9243
  395SOL     MW 1580   1.048   2.796   2.593 -0.4022  0.1833  0.4778
  396SOL     OW 1581   0.739   1.866   2.396 -0.1071  0.6732  0.1470
  396SOL    HW1 1582   0.808   1.857   2.461 -0.1642 -0.2237 -1.2990
  396SOL    HW2 1583   0.724   1.770   2.370  0.9407 -1.8200  1.2462
  396SOL     MW 1584   0.746   1.852   2.401  0.0236  0.2259  0.1012
  397SOL     OW 1585   1.002   2.305   1.252 -0.7996 -0.4720  0.2025
  397SOL    HW1 1586   1.033   2.335   1.161  1.3719  1.2150 -0.2577
  397SOL    HW2 1587   1.079   2.289   1.313 -0.7138  0.6765  1.0939
  397SOL     MW 1588   1.016   2.306   1.248 -0.5018 -0.0979  0.2594
  398SOL     OW 1589   0.529   2.667   0.695  0.0652  0.0483 -0.4981
  398SOL    HW1 1590   0.461   2.630   0.646 -0.4078  1.4241 -1.3452
  398SOL    HW2 1591   0.612   2.622   0.663  1.1151  0.1485  1.1043
  398SOL     MW 1592   0.531   2.656   0.684  0.1413  0.2430 -0.3984
  399SOL     OW 1593   0.260   2.065   0.392  0.2450 -0.5454 -0.1947
  399SOL    HW1 1594   0.182   2.116   0.404  0.3343  1.9167 -1.2257
  399SOL    HW2 1595   0.289   2.105   0.314 -1.7810  2.2420 -0.8692
  399SOL     MW 1596   0.254   2.077   0.383 -0.0105  0.1472 -0.4197
  400SOL     OW 1597   0.495   1.913   0.174 -0.4624  0.3086 -0.4722
  400SOL    HW1 1598   0.427   1.980   0.182  0.4705  1.1385 -0.4093
  400SOL    HW2 1599   0.489   1.874   0.260  0.6110  1.4204 -0.9778
  400SOL     MW 1600   0.485   1.916   0.186 -0.1977  0.5648 -0.5306
  401SOL     OW 1601   0.784   2.019   0.109 -0.4384 -0.0579 -0.0006
  401SOL    HW1 1602   0.839   1.939   0.129  1.1975 -3.0567 -3.1994
  401SOL    HW2 1603   0.689   1.998   0.120 -0.4522  1.5066  0.1842
  401SOL     MW 1604   0.779   2.006   0.113 -0.2244 -0.2471 -0.3982
  402SOL     OW 1605   0.611   2.994   1.793 -0.2472 -0.2821  0.2343
  402SOL    HW1 1606   0.696   2.969   1.830 -1.1181  1.2773  0.4265
  402SOL    HW2 1607   0.627   3.081   1.761 -1.1619 -0.0901  4.6380
  402SOL     MW 1608   0.624   3.002   1.794 -0.4828 -0.0510  0.8407
  403SOL     OW 1609   0.084   0.413   0.345 -0.3658 -0.1030 -0.7151
  403SOL    HW1 1610   0.155   0.442   0.399 -1.9419  3.2503 -0.3144
  403SOL    HW2 1611   0.122   0.397   0.259 -1.4892  3.0376 -1.8471
  403SOL     MW 1612   0.099   0.415   0.341 -0.7220  0.7538 -0.8116
  404SOL     OW 1613   0.892   2.908   0.720  0.4886  0.6167  0.4760
  404SOL    HW1 1614   0.980   2.877   0.706  1.9063  1.3865  2.4871
  404SOL    HW2 1615   0.888   2.999   0.688 -2.9062  0.8395  0.0080
  404SOL     MW 1616   0.903   2.916   0.714  0.2277  0.7477  0.6796
  405SOL     OW 1617   0.511   2.379   1.494  0.0801  0.3312  0.1532
  405SOL    HW1 1618   0.495   2.449   1.437  0.3941  1.5704  0.5584
  405SOL    HW2 1619   0.444   2.315   1.476 -2.2898 -1.2682  2.1723
  405SOL     MW 1620   0.500   2.380   1.484 -0.1911  0.2837  0.4731
  406SOL     OW 1621   0.387   2.391   1.014  0.1729  0.3641 -0.1832
  406SOL    HW1 1622   0.296   2.400   1.041  2.3988 -1.2504  1.0061
  406SOL    HW2 1623   0.419   2.311   1.063  1.3169  0.0104 -1.5058
  406SOL     MW 1624   0.379   2.382   1.024  0.6175  0.1044 -0.2008
  407SOL     OW 1625   3.056   2.699   1.146 -0.6307 -0.2311 -0.2184
  407SOL    HW1 1626   3.123   2.686   1.220  1.1241  0.9887  1.4672
  407SOL    HW2 1627   3.112   2.717   1.069  1.7639 -1.3109  0.5308
  407SOL     MW 1628   3.072   2.700   1.146 -0.0832 -0.2127  0.1029
  408SOL     OW 1629   2.139   2.083   0.762 -0.3759  0.4913 -0.8642
  408SOL    HW1 1630   2.066   2.132   0.809  2.1318  3.1192  0.7870
  408SOL    HW2 1631   2.107   2.048   0.681 -2.5773 -2.5864  2.1299
  408SOL     MW 1632   2.125   2.085   0.757 -0.3355  0.4319 -0.2513
  409SOL     OW 1633   1.465   0.123   0.896  0.5146  0.2540 -0.0981
  409SOL    HW1 1634   1.534   0.188   0.914 -0.1828  0.7446 -1.2504
  409SOL    HW2 1635   1.469   0.051   0.957  1.9006 -0.5542  0.9226
  409SOL     MW 1636   1.475   0.122   0.906  0.6055  0.2121 -0.1155
  410SOL     OW 1637   1.099   2.473   1.047 -0.0347  0.1532 -0.1502
  410SOL    HW1 1638   1.041   2.526   0.987 -0.7682  3.4542 -1.0620
  410SOL    HW2 1639   1.146   2.410   0.994  0.1168  0.1983 -0.9637
  410SOL     MW 1640   1.097   2.472   1.032 -0.1115  0.5947 -0.3779
  411SOL     OW 1641   1.975   0.028   2.889  0.2510 -0.2436  0.2057
  411SOL    HW1 1642   1.917  -0.001   2.819  0.7352  0.6601  1.2507
  411SOL    HW2 1643   1.926   0.075   2.953 -0.7210 -0.6116 -1.4134
  411SOL     MW 1644   1.961   0.030   2.888  0.1866 -0.1729  0.1299
  412SOL     OW 1645   1.000   2.275   0.612 -0.0644  0.2191 -0.0724
  412SOL    HW1 1646   1.053   2.347   0.653  1.4400  4.7994 -1.8961
  412SOL    HW2 1647   0.933   2.301   0.556  0.9352  0.2213  1.6599
  412SOL     MW 1648   0.998   2.288   0.610  0.2659  0.8237 -0.0845
  413SOL     OW 1649   0.528   2.809   3.045  0.2803 -0.1953  0.1358
  413SOL    HW1 1650   0.564   2.726   3.068  2.2152 -0.2181  0.5095
  413SOL    HW2 1651   0.580   2.833   2.974  1.4457 -1.9463 -2.0433
  413SOL     MW 1652   0.540   2.801   3.038  0.6894 -0.4294 -0.1024
  414SOL     OW 1653   1.919   2.855   1.064  0.0218  0.3243 -0.4441
  414SOL    HW1 1654   1.898   2.901   0.980 -0.7656  2.4415  0.4334
  414SOL    HW2 1655   2.013   2.842   1.072 -1.3789  1.6465  0.4968
  414SOL     MW 1656   1.929   2.859   1.054 -0.2669  0.7781 -0.2042
  415SOL     OW 1657   1.774   2.632   1.091  0.4827 -0.0840 -0.2487
  415SOL    HW1 1658   1.807   2.648   1.177 -0.8625 -0.2358  1.4422
  415SOL    HW2 1659   1.809   2.709   1.042 -4.0242  0.9914 -2.5660
  415SOL     MW 1660   1.783   2.644   1.096 -0.2895  0.0378 -0.3313
  416SOL     OW 1661   0.523   1.922   1.382  0.5343 -0.2334  0.8532
  416SOL    HW1 1662   0.519   1.956   1.293  2.2754 -0.5299  0.0990
  416SOL    HW2 1663   0.475   1.832   1.388  0.0312 -1.4409  3.1571
  416SOL     MW 1664   0.516   1.914   1.371  0.6977 -0.4318  1.0576
  417SOL     OW 1665   1.024   3.086   2.080 -0.7269  0.0355  0.3941
  417SOL    HW1 1666   0.968   3.060   2.153  1.1362  1.0970 -1.8201
  417SOL    HW2 1667   0.964   3.045   2.006 -1.7887  0.8732 -3.8154
  417SOL     MW 1668   1.009   3.077   2.080 -0.6212  0.2861 -0.4534
  418SOL     OW 1669   0.730   2.904   0.142  0.2466  0.1978 -0.4618
  418SOL    HW1 1670   0.818   2.874   0.115 -0.7125 -3.0638  0.7440
  418SOL    HW2 1671   0.680   2.874   0.068 -0.7237  0.2440  2.0580
  418SOL     MW 1672   0.735   2.896   0.129 -0.0079 -0.2264  0.0297
  419SOL     OW 1673   0.434   2.653   1.392 -0.0209 -0.2052 -0.3485
  419SOL    HW1 1674   0.492   2.699   1.460  0.0063 -2.0247 -2.1165
  419SOL    HW2 1675   0.484   2.645   1.310 -0.6478  1.0214  1.7420
  419SOL     MW 1676   0.448   2.658   1.390 -0.1000 -0.2834 -0.3059
  420SOL     OW 1677   0.886   2.271   0.968 -0.4436  0.6180 -0.0078
  420SOL    HW1 1678   0.819   2.288   1.035  0.5714  0.9926  0.4607
  420SOL    HW2 1679   0.919   2.364   0.950  1.8975  0.3937  4.3805
  420SOL     MW 1680   0.882   2.285   0.974 -0.0008  0.6378  0.6330
  421SOL     OW 1681   2.928   0.055   3.079 -0.3207  0.9786 -0.1227
  421SOL    HW1 1682   2.860   0.030   3.013 -3.7424  3.4735 -0.2506
  421SOL    HW2 1683   2.953  -0.026   3.128 -0.5637  0.8418  0.2628
  421SOL     MW 1684   2.922   0.041   3.077 -0.8042  1.2897 -0.0887
  422SOL     OW 1685   0.886   2.564   0.888  0.2537 -0.7293 -0.1554
  422SOL    HW1 1686   0.837   2.640   0.922 -0.3671 -1.9213  0.0132
  422SOL    HW2 1687   0.876   2.568   0.794 -1.6062  0.9952  4.0318
  422SOL     MW 1688   0.878   2.575   0.880 -0.0736 -0.6590  0.4193
  423SOL     OW 1689   1.489   0.103   0.503  0.1300 -0.0688  0.0135
  423SOL    HW1 1690   1.444   0.095   0.418  0.1948 -2.6773  1.8999
  423SOL    HW2 1691   1.491   0.199   0.526 -3.2017  0.3101 -0.6116
  423SOL     MW 1692   1.484   0.115   0.495 -0.3010 -0.3630  0.1799
  424SOL     OW 1693   0.716   2.269   1.187  0.5750 -0.0428  0.0643
  424SOL    HW1 1694   0.639   2.219   1.184 -0.6117  1.3499 -1.3634
  424SOL    HW2 1695   0.736   2.273   1.283 -0.2278  0.8098  1.5975
  424SOL     MW 1696   0.709   2.263   1.200  0.3125  0.2535  0.0782
  425SOL     OW 1697   1.744   2.825   2.011  0.0446  0.1819  0.5613
  425SOL    HW1 1698   1.731   2.861   1.923  0.4094 -0.0556  1.0026
  425SOL    HW2 1699   1.758   2.731   2.015 -0.2135 -1.3584 -0.2328
  425SOL     MW 1700   1.744   2.817   2.000  0.0587 -0.0527  0.5147
  426SOL     OW 1701   0.807   1.698   1.946  0.3186 -0.1703 -0.2280
  426SOL    HW1 1702   0.734   1.708   1.878 -1.3076 -0.4817  2.6471
  426SOL    HW2 1703   0.786   1.755   2.022 -2.0631  0.5136 -2.8256
  426SOL     MW 1704   0.795   1.707   1.947 -0.2102 -0.1211 -0.1914
  427SOL     OW 1705   0.367   1.645   1.928 -0.4320  0.1091  0.3058
  427SOL    HW1 1706   0.430   1.591   1.876  1.0656  2.5621 -0.9899
  427SOL    HW2 1707   0.313   1.578   1.972 -1.2971 -0.9760  0.0760
  427SOL     MW 1708   0.368   1.629   1.927 -0.3485  0.2896  0.1046
  428SOL     OW 1709   0.577   2.587   1.174 -0.2959  0.4097  0.2751
  428SOL    HW1 1710   0.681   2.594   1.172  0.5989  0.3723 -3.0530
  428SOL    HW2 1711   0.550   2.509   1.125  1.2762 -0.9470 -1.8631
  428SOL     MW 1712   0.587   2.578   1.167  0.0296  0.2257 -0.4461
  429SOL     OW 1713   1.308   2.770   1.093 -0.6093  0.3623 -0.3824
  429SOL    HW1 1714   1.228   2.723   1.113  0.3091  0.6799  0.8380
  429SOL    HW2 1715   1.286   2.843   1.033  2.1887  0.2883 -2.6654
  429SOL     MW 1716   1.294   2.773   1.088 -0.1190  0.3945 -0.5226
  430SOL     OW 1717   1.150   2.734   0.737 -0.3426  0.0338 -0.2282
  430SOL    HW1 1718   1.198   2.653   0.751  0.7410 -0.0956  0.3912
  430SOL    HW2 1719   1.103   2.717   0.649 -1.1178  0.2040 -1.3759
  430SOL     MW 1720   1.150   2.721   0.727 -0.3019  0.0392 -0.2979
  431SOL     OW 1721   0.352   1.919   1.064  0.5227 -0.2372 -0.5868
  431SOL    HW1 1722   0.419   1.851   1.073  3.3646  1.4370 -1.3795
  431SOL    HW2 1723   0.342   1.931   0.967 -0.0348 -0.2952 -1.4797
  431SOL     MW 1724   0.360   1.911   1.052  0.8241 -0.0240 -0.8092
  432SOL     OW 1725   0.059   3.096   1.185  0.2092  0.4963  0.7580
  432SOL    HW1 1726   0.087   3.146   1.261  1.7770 -0.5715 -1.3854
  432SOL    HW2 1727  -0.004   3.041   1.227  0.0331  2.1035  0.9138
  432SOL     MW 1728   0.055   3.095   1.201  0.3928  0.5675  0.4958
  433SOL     OW 1729   0.635   2.838   1.534  0.2979 -0.3426 -0.2553
  433SOL    HW1 1730   0.644   2.905   1.595 -1.1596 -4.3766  2.3058
  433SOL    HW2 1731   0.706   2.861   1.472  1.0890 -0.7091 -1.5710
  433SOL     MW 1732   0.646   2.850   1.534  0.2100 -0.9232 -0.0910
  434SOL     OW 1733   1.580   2.833   1.527 -0.2800 -0.1348  0.3653
  434SOL    HW1 1734   1.484   2.863   1.546  0.6608 -0.4783  2.8440
  434SOL    HW2 1735   1.586   2.816   1.430 -0.7450  0.1595 -0.1442
  434SOL     MW 1736   1.568   2.835   1.517 -0.2172 -0.1413  0.6251
  435SOL     OW 1737   2.839   1.809   0.228  0.2674 -0.4325 -0.0484
  435SOL    HW1 1738   2.905   1.867   0.179  0.5490  0.8141  0.6782
  435SOL    HW2 1739   2.785   1.758   0.165  0.2100  1.0532  1.9698
  435SOL     MW 1740   2.840   1.810   0.213  0.2970 -0.0720  0.3138
  436SOL     OW 1741   1.340   2.759   0.392 -0.5234 -1.0065 -0.1218
  436SOL    HW1 1742   1.420   2.770   0.451  0.8477  1.0016 -0.5603
  436SOL    HW2 1743   1.276   2.835   0.421 -0.0267  1.1214  0.3945
  436SOL     MW 1744   1.342   2.770   0.404 -0.2770 -0.4608 -0.1115
  437SOL     OW 1745   0.842   2.917   1.394 -0.4935  0.7482 -0.3052
  437SOL    HW1 1746   0.881   3.002   1.370  0.0849 -0.6696 -1.4002
  437SOL    HW2 1747   0.874   2.851   1.332  0.1390 -0.3447 -0.3418
  437SOL     MW 1748   0.852   2.920   1.383 -0.3337  0.4169 -0.4545
  438SOL     OW 1749   0.858   2.678   1.902 -0.1348  0.1867 -0.2515
  438SOL    HW1 1750   0.831   2.650   1.985  3.0663 -0.6606 -2.1083
  438SOL    HW2 1751   0.816   2.617   1.841  2.0549  2.4443 -0.9804
  438SOL     MW 1752   0.849   2.666   1.905  0.5765  0.3728 -0.5926
  439SOL     OW 1753   1.170   2.144   0.451  0.7951  0.1949  0.2693
  439SOL    HW1 1754   1.124   2.205   0.517  0.2006  1.5123  2.7257
  439SOL    HW2 1755   1.169   2.206   0.372 -0.5391  2.8592  1.8959
  439SOL     MW 1756   1.164   2.161   0.449  0.5407  0.7203  0.8080
  440SOL     OW 1757   1.727   2.985   0.012  0.7450  0.0472 -0.0123
  440SOL    HW1 1758   1.671   2.973   0.088  2.3134  1.0520 -2.2700
  440SOL    HW2 1759   1.809   2.936   0.030 -0.3988  1.0715 -1.6209
  440SOL     MW 1760   1.730   2.977   0.024  0.8010  0.3149 -0.5225
  441SOL     OW 1761   0.339   2.638   0.489  0.2855 -0.2520 -0.0399
  441SOL    HW1 1762   0.294   2.611   0.414  2.4593  0.4713  1.9694
  441SOL    HW2 1763   0.352   2.738   0.477 -0.6905 -0.1169  0.0987
  441SOL     MW 1764   0.335   2.648   0.477  0.4435 -0.1387  0.2435
  442SOL     OW 1765   3.063   2.408   0.612 -0.3449  0.7538 -0.6025
  442SOL    HW1 1766   3.076   2.498   0.620 -1.6845 -3.8502 -1.3417
  442SOL    HW2 1767   2.981   2.387   0.651  0.6076 -1.3052 -0.0854
  442SOL     MW 1768   3.054   2.417   0.618 -0.3959 -0.1253 -0.6318
  443SOL     OW 1769   1.405   1.784   1.928 -0.1247 -0.4634 -0.1866
  443SOL    HW1 1770   1.335   1.811   1.870 -1.9152 -2.4129  0.4939
  443SOL    HW2 1771   1.376   1.693   1.941 -1.1743 -2.7125 -0.9737
  443SOL     MW 1772   1.392   1.775   1.922 -0.4994 -1.0174 -0.2007
  444SOL     OW 1773   0.891   2.528   1.585  0.3755 -0.4067 -0.2860
  444SOL    HW1 1774   0.969   2.494   1.633  0.7237  2.5893 -0.3452
  444SOL    HW2 1775   0.814   2.479   1.622 -0.8060 -2.8085  2.1538
  444SOL     MW 1776   0.891   2.517   1.597  0.2655 -0.3283  0.0281
  445SOL     OW 1777   0.942   0.083   1.348  0.8684 -0.2336  0.4006
  445SOL    HW1 1778   0.910   0.158   1.296  0.8836  0.2734  0.4398
  445SOL    HW2 1779   1.008   0.044   1.291  2.8852 -0.4506 -1.6273
  445SOL     MW 1780   0.947   0.088   1.334  1.1365 -0.1953  0.1382
  446SOL     OW 1781   2.728   2.886   1.094 -0.1936 -0.2270  0.2366
  446SOL    HW1 1782   2.670   2.929   1.033  1.1870  0.2511  1.1544
  446SOL    HW2 1783   2.742   2.797   1.055  1.2842  0.7102 -0.2537
  446SOL     MW 1784   2.722   2.880   1.081  0.1835 -0.0403  0.2930
  447SOL     OW 1785   0.068   2.031   1.658  0.9323 -0.0520 -0.6053
  447SOL    HW1 1786   0.111   1.963   1.718 -0.3779 -2.3806  1.3430
  447SOL    HW2 1787  -0.024   2.007   1.649 -1.8888 -0.4154 -1.2591
  447SOL     MW 1788   0.062   2.019   1.665  0.3872 -0.4072 -0.4345
  448SOL     OW 1789   1.701   2.400   1.640  0.4317  0.0649 -0.8240
  448SOL    HW1 1790   1.657   2.322   1.623  0.8762  1.8783 -0.3387
  448SOL    HW2 1791   1.632   2.470   1.657 -2.8688  0.5902  1.2585
  448SOL     MW 1792   1.686   2.399   1.640  0.0549  0.3735 -0.4852
  449SOL     OW 1793   0.780   2.817   0.404  0.3431 -0.1739 -0.5485
  449SOL    HW1 1794   0.759   2.825   0.308  2.7588 -0.4203 -1.6580
  449SOL    HW2 1795   0.723   2.868   0.458  1.0510 -1.0872  0.3673
  449SOL     MW 1796   0.770   2.824   0.399  0.7552 -0.3269 -0.5740
  450SOL     OW 1797   1.210   2.441   0.686 -0.0241  0.0161  0.1863
  450SOL    HW1 1798   1.236   2.393   0.767 -2.7936  2.5608 -2.9099
  450SOL    HW2 1799   1.283   2.434   0.625 -1.1270  0.4090  2.4317
  450SOL     MW 1800   1.223   2.434   0.688 -0.5350  0.4037  0.0741
  451SOL     OW 1801   0.558   2.035   1.617  0.6038  0.4889 -0.2673
  451SOL    HW1 1802   0.639   2.084   1.588  1.3268 -1.0196 -0.2689
  451SOL    HW2 1803   0.535   1.998   1.531  0.0468 -1.3425  0.2236
  451SOL     MW 1804   0.566   2.037   1.602  0.6257  0.0483 -0.2028
  452SOL     OW 1805   0.265   2.751   0.017  0.3466  0.3218  0.0360
  452SOL    HW1 1806   0.353   2.764  -0.023  1.9041 -1.1365 -2.5578
  452SOL    HW2 1807   0.201   2.782  -0.050  1.3612  0.9050  2.2333
  452SOL     MW 1808   0.269   2.757   0.003  0.6860  0.2063 -0.0163
  453SOL     OW 1809   0.348   2.889   1.692 -0.0117  0.2367  0.1549
  453SOL    HW1 1810   0.425   2.919   1.743 -0.6148 -1.5134 -0.4758
  453SOL    HW2 1811   0.377   2.891   1.602  0.4290 -1.2182 -1.3147
  453SOL     MW 1812   0.362   2.893   1.687 -0.0331 -0.1861 -0.1222
  454SOL     OW 1813   1.008   2.744   1.194  0.1440 -0.0637  0.0372
  454SOL    HW1 1814   0.956   2.665   1.220 -2.9538  0.3786  1.5598
  454SOL    HW2 1815   0.960   2.782   1.121  1.9865  1.2908  1.9213
  454SOL     MW 1816   0.995   2.738   1.188 -0.0217  0.1734  0.4867
  455SOL     OW 1817   1.598   2.918   0.227  0.1608  0.4325 -0.1267
  455SOL    HW1 1818   1.672   2.916   0.285 -0.5623  0.6555 -1.9133
  455SOL    HW2 1819   1.578   2.821   0.191 -2.2258  0.2287  0.0643
  455SOL     MW 1820   1.605   2.905   0.230 -0.2495  0.4351 -0.3372
  456SOL     OW 1821   2.834   0.341   1.384 -0.0759  0.1178  0.2156
  456SOL    HW1 1822   2.787   0.275   1.331  1.5011  1.4484  1.5857
  456SOL    HW2 1823   2.913   0.380   1.336 -0.0257  1.8999  1.7111
  456SOL     MW 1824   2.838   0.338   1.371  0.1388  0.5285  0.5937
  457SOL     OW 1825   0.969   1.575   2.912  0.5148 -0.0017 -0.4095
  457SOL    HW1 1826   0.901   1.542   2.971  0.5344 -0.1917  0.1937
  457SOL    HW2 1827   1.026   1.501   2.920 -3.1562 -2.4728  2.0566
  457SOL     MW 1828   0.968   1.561   2.921  0.0330 -0.3528 -0.0045
  458SOL     OW 1829   1.496   1.408   0.542 -0.2909  0.2680 -0.3148
  458SOL    HW1 1830   1.429   1.460   0.582  0.1771 -2.0015  0.7540
  458SOL    HW2 1831   1.448   1.371   0.465 -0.2950 -1.0925 -0.8673
  458SOL     MW 1832   1.481   1.410   0.537 -0.2297 -0.2110 -0.2466
  459SOL     OW 1833   1.473   0.054   0.233 -0.2665  0.1183 -0.3616
  459SOL    HW1 1834   1.496  -0.041   0.229 -1.2305 -0.1053 -0.2441
  459SOL    HW2 1835   1.417   0.058   0.157  0.2990  2.2666 -2.1550
  459SOL     MW 1836   1.469   0.042   0.222 -0.3191  0.3723 -0.5827
  460SOL     OW 1837   1.779   2.204   0.594 -0.0515  0.0292 -0.1816
  460SOL    HW1 1838   1.695   2.164   0.618  0.3618  0.1027  0.4433
  460SOL    HW2 1839   1.842   2.131   0.604 -1.3949 -0.2897 -0.1605
  460SOL     MW 1840   1.776   2.189   0.599 -0.1743 -0.0032 -0.0964
  461SOL     OW 1841   0.383   2.386   0.583 -0.2267 -0.2309 -0.0585
  461SOL    HW1 1842   0.385   2.465   0.532 -3.4389  0.9822 -0.3054
  461SOL    HW2 1843   0.395   2.412   0.677 -0.0991  2.3810  1.7265
  461SOL     MW 1844   0.385   2.400   0.589 -0.6337  0.2738  0.1445
  462SOL     OW 1845   0.407   0.327   1.301 -0.1002  0.6235 -0.6773
  462SOL    HW1 1846   0.448   0.277   1.232  2.0979  0.9080  1.3811
  462SOL    HW2 1847   0.480   0.352   1.362 -1.0348 -0.5757 -2.1578
  462SOL     MW 1848   0.422   0.323   1.300  0.0665  0.5028 -0.6011
  463SOL     OW 1849   0.907   0.062   0.631  0.0969 -0.0037 -0.4909
  463SOL    HW1 1850   0.913   0.071   0.533  0.4197  0.0580 -0.8354
  463SOL    HW2 1851   0.813   0.072   0.656 -1.0269 -2.0333  1.1357
  463SOL     MW 1852   0.895   0.065   0.621 -0.0088 -0.2633 -0.3217
  464SOL     OW 1853   0.849   3.029   2.285 -0.0486  0.3804  0.1036
  464SOL    HW1 1854   0.806   2.944   2.297 -1.1235  1.5341 -1.5626
  464SOL    HW2 1855   0.865   3.070   2.373  2.0938  2.5893  3.4394
  464SOL     MW 1856   0.846   3.023   2.298  0.0922  0.8241  0.3239
  465SOL     OW 1857   0.665   0.292   0.483  0.1849 -0.0986 -0.8477
  465SOL    HW1 1858   0.648   0.246   0.566  2.2390 -0.6302 -1.0949
  465SOL    HW2 1859   0.685   0.235   0.407 -0.4648 -1.3114 -1.1029
  465SOL     MW 1860   0.666   0.278   0.484  0.3702 -0.3288 -0.9140
  466SOL     OW 1861   1.073   1.968   0.694 -0.0859 -0.3320  0.0551
  466SOL    HW1 1862   1.088   1.888   0.638  0.4045 -1.2438 -1.7656
  466SOL    HW2 1863   1.043   2.044   0.637 -0.5688  0.8334  1.2917
  466SOL     MW 1864   1.071   1.967   0.679 -0.0849 -0.2985 -0.0219
  467SOL     OW 1865   1.263   2.295   0.899 -0.2581  0.3279  0.4573
  467SOL    HW1 1866   1.350   2.300   0.931 -0.0426  1.1626  0.4863
  467SOL    HW2 1867   1.257   2.197   0.887  1.3763  0.3744  3.3997
  467SOL     MW 1868   1.274   2.283   0.902 -0.0140  0.4441  0.8493
  468SOL     OW 1869   0.393   2.624   1.989  0.0887 -0.0780  0.1978
  468SOL    HW1 1870   0.389   2.581   1.906  0.4609 -0.4455 -1.4060
  468SOL    HW2 1871   0.352   2.708   1.963  2.4581 -1.1814  0.0536
  468SOL     MW 1872   0.387   2.629   1.975  0.4505 -0.2720 -0.0328
  469SOL     OW 1873   0.371   2.176   1.790 -0.2054  0.1044 -0.4477
  469SOL    HW1 1874   0.294   2.124   1.802  0.5930  1.7102  1.7989
  469SOL    HW2 1875   0.435   2.121   1.739 -1.0507 -3.9032 -1.5932
  469SOL     MW 1876   0.369   2.162   1.784 -0.2116 -0.2125 -0.3024
  470SOL     OW 1877   3.039   2.600   0.080  0.3001  0.9054 -0.8085
  470SOL    HW1 1878   2.963   2.545   0.089  0.7193  2.5733  2.2190
  470SOL    HW2 1879   3.048   2.606  -0.018  0.5491 -1.1095 -1.3843
  470SOL     MW 1880   3.030   2.593   0.068  0.3882  0.8596 -0.4851
  471SOL     OW 1881   1.168   2.714   1.427 -0.1266 -0.2333  0.2004
  471SOL    HW1 1882   1.103   2.729   1.497 -0.3418 -0.7238  0.2118
  471SOL    HW2 1883   1.117   2.708   1.347  1.9893 -0.2641  1.1612
  471SOL     MW 1884   1.153   2.715   1.426  0.1242 -0.3021  0.3287
  472SOL     OW 1885   2.957   2.101   0.377  0.1221  0.1130 -0.2421
  472SOL    HW1 1886   2.946   2.067   0.283 -0.6702 -0.2344 -3.1379
  472SOL    HW2 1887   2.943   2.022   0.430 -1.2080  1.0180 -0.3961
  472SOL     MW 1888   2.954   2.086   0.372 -0.1579  0.1866 -0.6445
  473SOL     OW 1889   0.875   2.555   1.313  0.2436  0.0651  0.2653
  473SOL    HW1 1890   0.909   2.466   1.288  2.8142  0.0241 -0.1825
  473SOL    HW2 1891   0.867   2.552   1.407 -0.6873  1.9227 -0.6621
  473SOL     MW 1892   0.879   2.543   1.322  0.4599  0.3047  0.0839
  474SOL     OW 1893   0.818   2.168   1.774  0.0902  0.0120  0.1918
  474SOL    HW1 1894   0.908   2.180   1.818  1.3912 -1.1083 -0.7325
  474SOL    HW2 1895   0.841   2.159   1.684 -3.5686 -1.7688  1.0681
  474SOL     MW 1896   0.833   2.169   1.768 -0.2209 -0.3708  0.1854
  475SOL     OW 1897   1.645   0.017   1.440  0.5391  0.1845 -0.4461
  475SOL    HW1 1898   1.578   0.047   1.384  1.6170 -0.1854 -0.7752
  475SOL    HW2 1899   1.630  -0.071   1.465  1.8548  0.6957 -2.5875
  475SOL     MW 1900   1.635   0.010   1.436  0.8549  0.2032 -0.7721
  476SOL     OW 1901   1.441   2.607   0.885 -0.3158 -0.1218  0.3965
  476SOL    HW1 1902   1.382   2.652   0.958 -4.3071  1.6545 -1.1391
  476SOL    HW2 1903   1.475   2.682   0.834 -0.0079  0.7149  1.1055
  476SOL     MW 1904   1.437   2.623   0.888 -0.8018  0.2230  0.2875
  477SOL     OW 1905   0.768   2.533   0.639  0.4535 -0.0708 -0.2130
  477SOL    HW1 1906   0.835   2.584   0.598  1.4022  0.5739  1.5598
  477SOL    HW2 1907   0.762   2.446   0.599  0.5768  0.2913 -1.8001
  477SOL     MW 1908   0.776   2.528   0.629  0.5949  0.0620 -0.1885
  478SOL     OW 1909   0.117   2.707   0.928 -0.1367  0.2789 -0.2572
  478SOL    HW1 1910   0.169   2.791   0.911  1.4191  2.4299 -2.6824
  478SOL    HW2 1911   0.163   2.650   0.858  1.6256 -0.8462  4.1573
  478SOL     MW 1912   0.130   2.711   0.917  0.3011  0.4142  0.0052
  479SOL     OW 1913   1.423   1.963   1.299  0.2089  0.1870  0.3405
  479SOL    HW1 1914   1.388   2.020   1.367 -0.8279 -2.7427 -1.8072
  479SOL    HW2 1915   1.481   1.897   1.347 -0.0241  1.4986  0.9194
  479SOL     MW 1916   1.426   1.962   1.314  0.0414 -0.0265  0.1335
  480SOL     OW 1917   1.897   2.327   1.357  0.1145 -0.3785 -0.0552
  480SOL    HW1 1918   1.929   2.236   1.350 -1.0493 -0.8453  0.4358
  480SOL    HW2 1919   1.950   2.371   1.287 -1.1691 -1.5608  0.1362
  480SOL     MW 1920   1.908   2.321   1.347 -0.2084 -0.5961  0.0348
  481SOL     OW 1921   1.120   3.070   1.113 -1.2139  0.2022 -0.4493
  481SOL    HW1 1922   1.189   3.030   1.065 -3.1585 -1.0743  1.2958
  481SOL    HW2 1923   1.129   3.162   1.094  1.2405 -2.2543  1.0859
  481SOL     MW 1924   1.130   3.077   1.104 -1.1466 -0.2903 -0.0165
  482SOL     OW 1925   0.951   3.051   0.350  0.4150 -0.0506 -0.6198
  482SOL    HW1 1926   0.885   2.978   0.353  1.7125 -0.0812  0.3697
  482SOL    HW2 1927   0.904   3.132   0.327 -0.3630 -1.1661 -0.2655
  482SOL     MW 1928   0.936   3.052   0.347  0.4836 -0.2018 -0.4425
  483SOL     OW 1929   0.369   2.905   0.470  0.5909 -0.5570 -0.1481
  483SOL    HW1 1930   0.277   2.918   0.430  0.0682 -0.6934 -0.8059
  483SOL    HW2 1931   0.369   2.968   0.548  0.0815  0.5960  0.3686
  483SOL     MW 1932   0.357   2.915   0.475  0.4547 -0.4229 -0.1667
  484SOL     OW 1933   1.664   1.827   1.399 -0.5035  0.6286  0.2100
  484SOL    HW1 1934   1.712   1.907   1.374 -1.2430  1.3772  1.5057
  484SOL    HW2 1935   1.686   1.825   1.492 -1.0884 -0.9726 -0.4344
  484SOL     MW 1936   1.673   1.837   1.408 -0.6783  0.5161  0.2959
  485SOL     OW 1937   0.536   2.451   0.293  0.0656  0.4549 -0.5408
  485SOL    HW1 1938   0.565   2.423   0.388  1.7394 -1.2992 -1.2616
  485SOL    HW2 1939   0.463   2.510   0.311  0.0286  1.0529 -0.6622
  485SOL     MW 1940   0.530   2.455   0.308  0.2815  0.3024 -0.6519
  486SOL     OW 1941   0.127   2.402   1.421 -0.2144 -0.2112  0.3294
  486SOL    HW1 1942   0.140   2.494   1.391  3.1787 -0.1095 -1.5117
  486SOL    HW2 1943   0.091   2.412   1.510 -1.4199 -2.2620 -1.9607
  486SOL     MW 1944   0.124   2.415   1.429  0.0743 -0.4684 -0.2157
  487SOL     OW 1945   1.277   1.581   1.060  0.2541  0.4858 -0.5249
  487SOL    HW1 1946   1.229   1.663   1.068 -1.3548 -1.1866 -0.6036
  487SOL    HW2 1947   1.352   1.612   0.999  2.0332  1.3451  1.1673
  487SOL     MW 1948   1.280   1.596   1.053  0.2766  0.3785 -0.3120
  488SOL     OW 1949   1.690   1.877   0.546  0.5080 -0.2242 -0.5377
  488SOL    HW1 1950   1.778   1.914   0.535 -2.0374 -0.8103 -2.7569
  488SOL    HW2 1951   1.638   1.957   0.567 -0.7579 -0.7364  1.8855
  488SOL     MW 1952   1.695   1.892   0.547  0.0051 -0.3691 -0.5108
  489SOL     OW 1953   0.680   0.758   0.562 -0.5000  0.3902 -0.6772
  489SOL    HW1 1954   0.724   0.680   0.526  2.2133 -0.5105  1.5039
  489SOL    HW2 1955   0.659   0.742   0.652  2.9702 -1.3785  1.9069
  489SOL     MW 1956   0.683   0.745   0.569  0.3158  0.0380 -0.0485
  490SOL     OW 1957   1.428   2.042   0.404  0.2395 -1.2058 -0.2955
  490SOL    HW1 1958   1.468   2.124   0.363  0.1229  1.5390  0.1516
  490SOL    HW2 1959   1.339   2.063   0.413  2.0098  1.0795  2.7817
  490SOL     MW 1960   1.422   2.055   0.400  0.4577 -0.5421  0.1695
  491SOL     OW 1961   1.184   2.974   0.473 -0.1892 -0.4603  0.0119
  491SOL    HW1 1962   1.205   3.046   0.532 -0.3354  2.0530 -0.3535
  491SOL    HW2 1963   1.100   2.995   0.434  1.9394 -3.6701 -0.2115
  491SOL     MW 1964   1.176   2.986   0.476  0.0724 -0.5522 -0.0658
  492SOL     OW 1965   1.542   2.060   0.675 -0.4937 -0.2048  0.5564
  492SOL    HW1 1966   1.476   2.076   0.614  2.0597 -2.4302 -1.8951
  492SOL    HW2 1967   1.498   2.052   0.762 -1.0396  0.1357 -0.5841
  492SOL     MW 1968   1.527   2.061   0.679 -0.2288 -0.4535  0.0824
  493SOL     OW 1969   0.120   2.919   0.346  0.4514  0.4421 -0.1697
  493SOL    HW1 1970   0.086   2.989   0.406 -0.3131  1.9055 -1.3504
  493SOL    HW2 1971   0.161   2.970   0.277 -1.6356 -0.2224  0.1080
  493SOL     MW 1972   0.121   2.935   0.345  0.0752  0.5475 -0.2888
  494SOL     OW 1973   0.392   2.453   1.719 -0.0968  0.4075  0.1703
  494SOL    HW1 1974   0.372   2.367   1.764 -1.6467  0.8334  0.9980
  494SOL    HW2 1975   0.437   2.424   1.636  2.3710 -2.4567 -1.3499
  494SOL     MW 1976   0.395   2.438   1.714  0.0243  0.0858  0.0789
  495SOL     OW 1977   2.922   1.706   2.673  0.2840  0.1711 -1.0506
  495SOL    HW1 1978   2.876   1.788   2.693 -2.0629 -1.1570  1.3604
  495SOL    HW2 1979   2.904   1.648   2.752  1.6063  1.0861  0.0297
  495SOL     MW 1980   2.914   1.709   2.686  0.1488  0.1166 -0.5899
  496SOL     OW 1981   2.872   2.297   2.665 -0.1609 -0.9600  0.0373
  496SOL    HW1 1982   2.902   2.207   2.672 -1.2147  1.0681  0.7430
  496SOL    HW2 1983   2.947   2.368   2.667  1.6154  1.5662 -0.4114
  496SOL     MW 1984   2.885   2.294   2.666 -0.0655 -0.3591  0.0712
  497SOL     OW 1985   1.573   2.282   2.623  0.1777 -0.1391  0.6349
  497SOL    HW1 1986   1.549   2.227   2.549  2.3769 -0.6155 -1.1317
  497SOL    HW2 1987   1.630   2.224   2.678  1.7030  1.3160 -0.5747
  497SOL     MW 1988   1.577   2.267   2.621  0.6691 -0.0100  0.2422
  498SOL     OW 1989   1.536   2.730   2.369  0.0213 -0.0778  0.2212
  498SOL    HW1 1990   1.529   2.659   2.310 -4.1529 -0.3844  4.1091
  498SOL    HW2 1991   1.623   2.712   2.420  0.7461 -1.1167  2.8532
  498SOL     MW 1992   1.546   2.718   2.368 -0.4338 -0.2554  1.0815
  499SOL     OW 1993   0.891   0.105   0.046  0.3043 -0.3767  0.4918
  499SOL    HW1 1994   0.824   0.122   0.108  0.0390  1.4647 -0.7935
  499SOL    HW2 1995   0.902   0.005   0.044 -0.9413 -0.5942 -1.1882
  499SOL     MW 1996   0.883   0.094   0.054  0.1049 -0.1625  0.1006
  500SOL     OW 1997   1.101   2.461   2.775  0.6209  0.6607 -0.4178
  500SOL    HW1 1998   1.103   2.418   2.859 -1.6143  0.1956 -0.7648
  500SOL    HW2 1999   1.042   2.530   2.788  0.1448 -0.5851 -0.2806
  500SOL     MW 2000   1.094   2.464   2.788  0.2632  0.4350 -0.4455
  501SOL     OW 2001   1.725   2.292   0.015  0.3451 -1.0691  0.3872
  501SOL    HW1 2002   1.717   2.381   0.061  3.8139  1.7519 -1.4195
  501SOL    HW2 2003   1.818   2.289   0.010  0.8303  0.4435  0.9473
  501SOL     MW 2004   1.736   2.303   0.021  0.8668 -0.4973  0.2227
  502SOL     OW 2005   0.080   2.847   2.955 -0.1759 -0.8539  0.3707
  502SOL    HW1 2006   0.042   2.768   2.906 -0.1211 -1.7877  0.3070
  502SOL    HW2 2007   0.116   2.906   2.887 -0.1877  1.0508 -1.5896
  502SOL     MW 2008   0.080   2.844   2.940 -0.1702 -0.7258  0.1037
  503SOL     OW 2009   1.137   2.635   1.976 -0.7590  0.2383 -0.1095
  503SOL    HW1 2010   1.205   2.679   1.926  0.8072  3.3493 -1.1084
  503SOL    HW2 2011   1.051   2.645   1.941 -0.6314  1.5643 -1.8982
  503SOL     MW 2012   1.135   2.642   1.965 -0.5355  0.8237 -0.4773
  504SOL     OW 2013   0.053   2.673   2.094 -0.4866  0.6567  0.1431
  504SOL    HW1 2014   0.113   2.595   2.086 -2.0444  1.3941  1.0301
  504SOL    HW2 2015  -0.029   2.625   2.106 -0.4879  0.2650 -1.6613
  504SOL     MW 2016   0.050   2.656   2.095 -0.6923  0.7023  0.0221
  505SOL     OW 2017   1.645   2.661   2.772 -0.0962 -0.1484  0.5217
  505SOL    HW1 2018   1.684   2.657   2.686 -0.7063 -0.6625  1.6400
  505SOL    HW2 2019   1.589   2.738   2.770  0.4623  0.2131 -0.4573
  505SOL     MW 2020   1.643   2.671   2.760 -0.1030 -0.1685  0.5401
  506SOL     OW 2021   1.625   3.094   2.859 -0.5659 -0.0751 -0.0159
  506SOL    HW1 2022   1.675   3.039   2.923  0.6155 -0.7849 -3.3428
  506SOL    HW2 2023   1.693   3.104   2.783 -0.8552  0.1576 -1.9781
  506SOL     MW 2024   1.641   3.088   2.858 -0.4482 -0.1380 -0.7138
  507SOL     OW 2025   0.938   2.708   2.856 -0.2527 -0.4333  0.2875
  507SOL    HW1 2026   0.997   2.760   2.802  1.5895  0.5560 -0.0605
  507SOL    HW2 2027   0.849   2.743   2.844  1.1467  1.1958 -2.4777
  507SOL     MW 2028   0.934   2.719   2.847  0.1750 -0.0879 -0.1233
  508SOL     OW 2029   1.235   2.117   2.497 -0.3864  0.1710 -0.1243
  508SOL    HW1 2030   1.298   2.125   2.578 -0.6265  0.1295  0.3766
  508SOL    HW2 2031   1.163   2.170   2.514 -0.4884  1.3981  1.1097
  508SOL     MW 2032   1.234   2.125   2.510 -0.4315  0.3274  0.1046
  509SOL     OW 2033   0.630   2.590   2.800 -0.3624 -0.0797 -0.3572
  509SOL    HW1 2034   0.633   2.543   2.721 -0.2083  2.2716  0.1035
  509SOL    HW2 2035   0.539   2.612   2.817 -2.0454  1.7558  1.3374
  509SOL     MW 2036   0.619   2.586   2.792 -0.5641  0.4727 -0.0729
  510SOL     OW 2037   1.528   2.615   1.671 -0.4188  0.3649  0.4469
  510SOL    HW1 2038   1.578   2.681   1.609  0.0357 -0.1383 -1.9914
  510SOL    HW2 2039   1.487   2.669   1.742 -0.4121 -1.5589  0.1836
  510SOL     MW 2040   1.529   2.631   1.672 -0.3579  0.0447  0.0905
  511SOL     OW 2041   0.427   2.644   2.435 -0.1732  0.3227 -0.5228
  511SOL    HW1 2042   0.514   2.603   2.470  1.2657 -1.5316  0.2006
  511SOL    HW2 2043   0.454   2.690   2.353  1.5874 -1.1855  3.3581
  511SOL     MW 2044   0.442   2.644   2.429  0.2489 -0.1210  0.0847
  512SOL     OW 2045   0.963   2.020   2.802 -0.3582  0.0401 -0.2977
  512SOL    HW1 2046   0.918   2.077   2.869 -0.7117 -0.9398 -1.3339
  512SOL    HW2 2047   0.983   1.944   2.861 -1.3622  0.9157 -0.1226
  512SOL     MW 2048   0.960   2.017   2.819 -0.5373  0.0263 -0.4113
  513SOL     OW 2049   1.626   2.480   2.234 -0.0794  0.5448  0.3901
  513SOL    HW1 2050   1.706   2.482   2.182 -1.0490 -1.8756  2.7319
  513SOL    HW2 2051   1.626   2.390   2.263 -1.2634  0.0385  0.2971
  513SOL     MW 2052   1.637   2.468   2.231 -0.3635  0.1586  0.6868
  514SOL     OW 2053   0.246   2.490   2.596  0.4447  0.2819  0.0691
  514SOL    HW1 2054   0.300   2.531   2.523  3.4984  1.5443 -0.2463
  514SOL    HW2 2055   0.299   2.481   2.675 -1.2938 -1.1288 -3.1571
  514SOL     MW 2056   0.260   2.494   2.597  0.6183  0.2623 -0.3982
  515SOL     OW 2057   1.133   2.014   2.007  0.1751 -0.2064 -0.0694
  515SOL    HW1 2058   1.117   2.088   1.951  1.0139  2.0188  1.9906
  515SOL    HW2 2059   1.220   2.028   2.043  2.3154  0.6434  1.7453
  515SOL     MW 2060   1.143   2.025   2.004  0.5681  0.1993  0.4418
  516SOL     OW 2061   1.474   2.450   3.087 -0.3427  0.0756  0.6818
  516SOL    HW1 2062   1.494   2.429   2.999  0.9632 -0.1281  1.3023
  516SOL    HW2 2063   1.402   2.508   3.068  1.8387  0.3658 -0.7031
  516SOL     MW 2064   1.467   2.455   3.073  0.1175  0.0870  0.5810
  517SOL     OW 2065   0.544   2.459   2.255 -0.2737  0.3514 -0.3768
  517SOL    HW1 2066   0.504   2.415   2.327  1.6736  1.5903 -1.1750
  517SOL    HW2 2067   0.511   2.401   2.179 -0.1522 -0.7505  2.6091
  517SOL     MW 2068   0.534   2.445   2.254 -0.0007  0.3695 -0.0882
  518SOL     OW 2069   1.798   0.153   3.083  0.0490  0.0568  0.0850
  518SOL    HW1 2070   1.735   0.188   3.149  1.0002  0.1221  1.0500
  518SOL    HW2 2071   1.796   0.058   3.104 -1.3750  0.3707  1.4233
  518SOL     MW 2072   1.789   0.145   3.095 -0.0134  0.1068  0.3889
  519SOL     OW 2073   0.715   2.405   1.760  0.5505 -0.8392  0.0612
  519SOL    HW1 2074   0.737   2.312   1.769  0.4206 -1.0451 -0.4342
  519SOL    HW2 2075   0.632   2.425   1.801 -1.5245  1.9589 -1.9609
  519SOL     MW 2076   0.707   2.395   1.767  0.2596 -0.4971 -0.2709
  520SOL     OW 2077   1.172   2.137   2.960  0.2575 -0.7705 -0.5201
  520SOL    HW1 2078   1.084   2.105   2.936 -0.1861  0.0037  0.2182
  520SOL    HW2 2079   1.188   2.091   3.042 -0.8800  1.3625  1.6269
  520SOL     MW 2080   1.163   2.126   2.968  0.0489 -0.3869 -0.1394
  521SOL     OW 2081   1.746   1.987   2.170  0.3055 -0.5719 -0.3391
  521SOL    HW1 2082   1.783   2.013   2.089 -1.0923 -2.3070  0.5088
  521SOL    HW2 2083   1.794   1.909   2.187  0.0618  1.1346 -0.3393
  521SOL     MW 2084   1.757   1.980   2.161  0.0889 -0.5757 -0.2273
  522SOL     OW 2085   2.918   2.519   2.252 -0.2961  0.4223  0.0632
  522SOL    HW1 2086   2.990   2.446   2.252 -0.0909  0.9885 -0.3070
  522SOL    HW2 2087   2.956   2.600   2.285 -2.6546 -1.9818  1.2192
  522SOL     MW 2088   2.932   2.520   2.256 -0.5802  0.1798  0.1669
  523SOL     OW 2089   0.939   1.526   2.140  0.0923  0.5891  0.1523
  523SOL    HW1 2090   0.893   1.572   2.076 -0.6101 -0.4759  1.2346
  523SOL    HW2 2091   0.981   1.455   2.086 -0.1218 -0.0336  0.1460
  523SOL     MW 2092   0.939   1.522   2.124 -0.0286  0.3664  0.2943
  524SOL     OW 2093   0.623   2.383   2.967  0.3316  0.6047  0.0243
  524SOL    HW1 2094   0.653   2.454   2.907  2.2802 -0.7358  2.5745
  524SOL    HW2 2095   0.704   2.326   2.967 -2.1687 -0.1339 -0.0211
  524SOL     MW 2096   0.638   2.385   2.959  0.2588  0.3304  0.3548
  525SOL     OW 2097   0.440   2.286   2.037  0.3426  0.2476  0.0342
  525SOL    HW1 2098   0.396   2.228   2.100 -1.2430  2.8691 -0.0183
  525SOL    HW2 2099   0.440   2.245   1.952  0.8782 -0.9284 -3.9463
  525SOL     MW 2100   0.435   2.273   2.034  0.2041  0.4383 -0.4979
  526SOL     OW 2101   0.656   2.049   1.980 -0.1126 -0.7571 -0.5339
  526SOL    HW1 2102   0.696   2.082   1.905  1.1101 -1.5478  4.0694
  526SOL    HW2 2103   0.666   2.117   2.049  1.9223  0.4592 -0.2331
  526SOL     MW 2104   0.662   2.062   1.979  0.3172 -0.7009  0.1131
  527SOL     OW 2105   1.409   2.014   2.105  0.4750  0.3928  0.2434
  527SOL    HW1 2106   1.393   1.990   2.202  1.4216  1.7220  2.4251
  527SOL    HW2 2107   1.397   1.938   2.048 -0.0163 -0.0215  2.1100
  527SOL     MW 2108   1.405   2.001   2.110  0.5350  0.5135  0.7776
  528SOL     OW 2109   0.709   2.875   2.860 -0.0018 -0.3183  0.2258
  528SOL    HW1 2110   0.721   2.968   2.873  1.0348  0.3887 -1.1299
  528SOL    HW2 2111   0.655   2.882   2.781 -2.1233 -3.4759  0.4406
  528SOL     MW 2112   0.704   2.888   2.851 -0.1449 -0.6417  0.0752
  529SOL     OW 2113   1.075   2.275   1.864  0.7966 -0.4635  0.8070
  529SOL    HW1 2114   1.066   2.305   1.956 -1.6809  1.7117  0.5388
  529SOL    HW2 2115   1.109   2.356   1.822 -1.2917  3.6122 -5.0528
  529SOL     MW 2116   1.078   2.290   1.871  0.1942  0.3612 -0.0015
  530SOL     OW 2117   1.155   2.437   3.055 -0.4857 -0.1619 -0.1786
  530SOL    HW1 2118   1.080   2.424   3.114  1.0308  2.1413  1.5605
  530SOL    HW2 2119   1.201   2.353   3.044  2.2009  0.9499 -0.8568
  530SOL     MW 2120   1.151   2.424   3.061  0.0688  0.2887 -0.0386
  531SOL     OW 2121   0.960   1.864   2.567 -0.3368 -0.0488 -0.2600
  531SOL    HW1 2122   0.955   1.926   2.640 -0.8787  3.5471 -1.9130
  531SOL    HW2 2123   0.918   1.778   2.594 -0.4882  1.2922  1.4111
  531SOL     MW 2124   0.954   1.861   2.580 -0.4283  0.6026 -0.2576
  532SOL     OW 2125   1.699   0.339   2.869 -0.3008  0.6753 -0.5768
  532SOL    HW1 2126   1.712   0.261   2.924 -1.3381  1.0472 -3.2667
  532SOL    HW2 2127   1.796   0.367   2.853  1.8337 -0.0884 -1.2209
  532SOL     MW 2128   1.714   0.332   2.874 -0.1561  0.6236 -1.0167
  533SOL     OW 2129   1.836   2.679   2.976  0.6020  0.1180 -0.2789
  533SOL    HW1 2130   1.813   2.629   3.050 -0.3799 -0.0256  1.7827
  533SOL    HW2 2131   1.758   2.667   2.918  1.4759  1.4958 -0.4803
  533SOL     MW 2132   1.823   2.671   2.978  0.5878  0.2808 -0.0334
  534SOL     OW 2133   1.810   2.349   2.463  0.1719 -0.0549 -0.0290
  534SOL    HW1 2134   1.727   2.326   2.510 -1.0715 -0.7463  1.3652
  534SOL    HW2 2135   1.874   2.313   2.529  0.1552 -0.2298 -1.5929
  534SOL     MW 2136   1.808   2.341   2.478  0.0057 -0.1692 -0.0514
  535SOL     OW 2137   1.863   2.361   1.881 -0.2125  0.5252 -0.7099
  535SOL    HW1 2138   1.830   2.398   1.797 -0.5114 -2.2051 -0.4177
  535SOL    HW2 2139   1.957   2.389   1.897 -0.1665 -1.3788  0.8649
  535SOL     MW 2140   1.871   2.370   1.872 -0.2459 -0.0863 -0.4635
  536SOL     OW 2141   0.437   1.887   2.023 -0.3731  0.2150  0.0777
  536SOL    HW1 2142   0.432   1.807   1.972  1.6351 -3.2707  1.5285
  536SOL    HW2 2143   0.524   1.932   2.002  1.3007 -0.6863 -1.0909
  536SOL     MW 2144   0.448   1.882   2.013  0.1127 -0.3639  0.1149
  537SOL     OW 2145   1.009   0.160   2.889 -0.3301 -0.4302 -0.3789
  537SOL    HW1 2146   0.975   0.110   2.962  0.9808  3.0537 -0.7590
  537SOL    HW2 2147   1.023   0.251   2.925  0.8690  2.3387 -0.4633
  537SOL     MW 2148   1.006   0.166   2.903  0.0011  0.3948 -0.4402
  538SOL     OW 2149   1.370   0.069   2.976  0.0447 -0.3088  0.0804
  538SOL    HW1 2150   1.328   0.151   2.951  1.4094 -0.5087 -0.0099
  538SOL    HW2 2151   1.460   0.071   2.947 -1.1623 -0.0890 -0.6329
  538SOL     MW 2152   1.376   0.080   2.969  0.0655 -0.3062 -0.0256
  539SOL     OW 2153   0.758   2.781   2.547 -0.0506 -0.1625 -0.2336
  539SOL    HW1 2154   0.858   2.785   2.571  0.5155 -1.9860 -0.9936
  539SOL    HW2 2155   0.731   2.693   2.578  0.3342  0.2366 -0.1498
  539SOL     MW 2156   0.767   2.770   2.554  0.0749 -0.3505 -0.3229
  540SOL     OW 2157   0.371   2.395   2.839  0.5062  0.0823  0.0397
  540SOL    HW1 2158   0.452   2.390   2.893 -1.7929 -1.6807 -0.6404
  540SOL    HW2 2159   0.314   2.329   2.877  0.4699  1.5352  0.3170
  540SOL     MW 2160   0.374   2.386   2.851  0.1980  0.0414 -0.0135
  541SOL     OW 2161   0.180   2.935   2.217 -0.1135  0.5344  0.0583
  541SOL    HW1 2162   0.179   2.863   2.154 -0.7186 -0.8250 -0.3233
  541SOL    HW2 2163   0.235   2.904   2.285  0.5640 -1.8535 -0.2930
  541SOL     MW 2164   0.187   2.921   2.218 -0.1039  0.0400 -0.0384
  542SOL     OW 2165   0.996   2.241   2.597  0.0441 -0.2016  0.4979
  542SOL    HW1 2166   0.972   2.178   2.663 -0.1436  3.5210 -0.4518
  542SOL    HW2 2167   1.033   2.320   2.645 -0.0618  0.1273  3.2110
  542SOL     MW 2168   0.998   2.243   2.612  0.0053  0.3330  0.7306
  543SOL     OW 2169   1.442   2.472   2.787 -0.4494 -0.2414  0.8011
  543SOL    HW1 2170   1.458   2.389   2.742  0.0399 -1.3845 -0.8000
  543SOL    HW2 2171   1.520   2.522   2.756  1.9560 -1.3940  0.3663
  543SOL     MW 2172   1.455   2.468   2.777 -0.0675 -0.5443  0.5325
  544SOL     OW 2173   0.713   0.216   2.683  0.6412 -0.4712  0.3001
  544SOL    HW1 2174   0.625   0.216   2.668  1.0830 -2.4417 -0.7162
  544SOL    HW2 2175   0.757   0.167   2.614  1.9308  0.1996  0.1312
  544SOL     MW 2176   0.707   0.210   2.672  0.8697 -0.6427  0.1438
  545SOL     OW 2177   1.576   2.170   2.323 -0.3833  0.2256  0.1266
  545SOL    HW1 2178   1.503   2.193   2.266 -1.9106  0.4510  0.1597
  545SOL    HW2 2179   1.641   2.115   2.270  0.0998  0.5893  1.8953
  545SOL     MW 2180   1.575   2.166   2.308 -0.5211  0.3033  0.3643
  546SOL     OW 2181   3.000   2.015   0.139  0.3909  0.0778  0.1280
  546SOL    HW1 2182   2.991   2.088   0.074 -1.2610  0.6272  3.4156
  546SOL    HW2 2183   3.075   1.969   0.098  0.4038 -0.7886 -1.9379
  546SOL     MW 2184   3.008   2.019   0.125  0.1747  0.0360  0.2892
  547SOL     OW 2185   0.298   2.974   0.119 -0.2413 -0.1554 -0.0460
  547SOL    HW1 2186   0.342   3.020   0.046  4.2144  0.5362 -2.6871
  547SOL    HW2 2187   0.285   2.877   0.085  1.1033  0.8361 -2.4180
  547SOL     MW 2188   0.302   2.968   0.105  0.5240  0.0667 -0.7075
  548SOL     OW 2189   0.278   2.556   0.233 -0.1133 -0.3133 -0.9136
  548SOL    HW1 2190   0.264   2.623   0.167  3.0159 -1.3808  0.0848
  548SOL    HW2 2191   0.214   2.483   0.219 -4.3167  0.7387  0.8645
  548SOL     MW 2192   0.268   2.555   0.222 -0.2550 -0.3153 -0.5473
  549SOL     OW 2193   0.852   1.880   2.149  0.5936 -0.3410  0.5335
  549SOL    HW1 2194   0.856   1.970   2.112 -1.1269  1.5193 -0.2007
  549SOL    HW2 2195   0.797   1.893   2.225  0.5559  2.8970  1.0711
  549SOL     MW 2196   0.845   1.894   2.154  0.3616  0.3317  0.5075
  550SOL     OW 2197   1.794   1.712   2.553 -0.3493  0.0076  0.4250
  550SOL    HW1 2198   1.810   1.727   2.455  0.9831 -0.3074  1.4394
  550SOL    HW2 2199   1.777   1.793   2.604  2.0511 -0.2401 -0.7035
  550SOL     MW 2200   1.794   1.725   2.547  0.1432 -0.0667  0.4100
  551SOL     OW 2201   0.880   2.247   0.223  0.2305  0.4925  0.8432
  551SOL    HW1 2202   0.973   2.250   0.204 -0.4092 -0.3659 -0.5695
  551SOL    HW2 2203   0.841   2.160   0.201 -1.9372  0.0720 -2.0190
  551SOL     MW 2204   0.887   2.236   0.218 -0.1399  0.3238  0.2792
  552SOL     OW 2205   1.769   1.738   2.284 -0.0114 -0.0834  0.5958
  552SOL    HW1 2206   1.668   1.719   2.290  2.4868  0.6619  0.6224
  552SOL    HW2 2207   1.794   1.693   2.193 -0.5291 -1.0983 -2.2152
  552SOL     MW 2208   1.759   1.730   2.273  0.2499 -0.1189  0.2284
  553SOL     OW 2209   1.194   2.315   1.444  0.3072 -0.0016  0.0541
  553SOL    HW1 2210   1.250   2.243   1.468 -3.6346  0.8966 -0.5922
  553SOL    HW2 2211   1.243   2.398   1.424  1.5161  0.4151  2.9695
  553SOL     MW 2212   1.208   2.317   1.444 -0.0534  0.1719  0.3535
  554SOL     OW 2213   0.543   2.926   2.644 -0.2375 -0.0280 -0.4932
  554SOL    HW1 2214   0.511   2.999   2.588  1.3778 -2.2208  0.5901
  554SOL    HW2 2215   0.600   2.879   2.587 -0.9440 -0.8922  1.4908
  554SOL     MW 2216   0.546   2.929   2.629 -0.1176 -0.4314 -0.0885
  555SOL     OW 2217   0.632   2.480   2.548  0.1974  0.4998 -0.7862
  555SOL    HW1 2218   0.586   2.403   2.575  3.3124  3.2000  0.9331
  555SOL    HW2 2219   0.686   2.443   2.480 -1.2765  1.8779  0.9396
  555SOL     MW 2220   0.633   2.465   2.543  0.4139  1.0379 -0.3316
  556SOL     OW 2221   0.960   1.818   0.161  0.5026  0.1079 -0.0824
  556SOL    HW1 2222   1.017   1.809   0.084  1.6903 -1.6396 -1.6743
  556SOL    HW2 2223   1.020   1.856   0.224  0.6809 -2.4455 -0.3073
  556SOL     MW 2224   0.975   1.822   0.159  0.6828 -0.4596 -0.3221
  557SOL     OW 2225   0.978   2.672   0.510  0.1072 -0.1230  0.2713
  557SOL    HW1 2226   1.021   2.622   0.438 -0.4082 -2.0125  2.1824
  557SOL    HW2 2227   0.911   2.732   0.463 -1.8881 -0.7634  1.5906
  557SOL     MW 2228   0.975   2.673   0.494 -0.2241 -0.4568  0.6975
  558SOL     OW 2229   0.270   2.214   3.031  0.0950  0.9584 -0.6291
  558SOL    HW1 2230   0.281   2.125   3.063  0.9216  1.3989 -0.3664
  558SOL    HW2 2231   0.213   2.254   3.097 -0.0207  3.0336  1.0546
  558SOL     MW 2232   0.264   2.208   3.044  0.1888  1.2903 -0.3723
  559SOL     OW 2233   1.016   2.336   2.124 -0.2634  0.3404 -0.0148
  559SOL    HW1 2234   1.024   2.405   2.190 -0.9941  1.4848 -2.3138
  559SOL    HW2 2235   1.046   2.249   2.169  0.8334 -1.0478  3.0472
  559SOL     MW 2236   1.021   2.334   2.139 -0.2151  0.3082  0.0859
  560SOL     OW 2237   1.966   2.848   0.035  0.3914  0.1884  0.1580
  560SOL    HW1 2238   2.035   2.873  -0.025 -1.6737  1.3219 -0.5208
  560SOL    HW2 2239   1.911   2.808  -0.030  0.1670 -2.7326  0.1444
  560SOL     MW 2240   1.968   2.846   0.018  0.0894 -0.0475  0.0666
  561SOL     OW 2241   0.415   2.198   0.186 -0.1999  0.3408 -0.3058
  561SOL    HW1 2242   0.387   2.206   0.091 -2.6169 -0.7849 -4.6707
  561SOL    HW2 2243   0.469   2.271   0.204 -1.0390 -1.1558  0.5320
  561SOL     MW 2244   0.419   2.208   0.176 -0.6295 -0.0052 -0.7712
  562SOL     OW 2245   0.749   2.203   2.203 -0.8245 -0.5438 -0.2490
  562SOL    HW1 2246   0.774   2.285   2.164 -1.0926 -0.7408  1.5996
  562SOL    HW2 2247   0.830   2.167   2.242  0.1533 -2.2133  0.4224
  562SOL     MW 2248   0.763   2.209   2.203 -0.7308 -0.7901  0.0835
  563SOL     OW 2249   1.177   0.318   0.559  0.0599 -0.5277 -0.1090
  563SOL    HW1 2250   1.120   0.271   0.497 -0.3883 -0.2723  0.8459
  563SOL    HW2 2251   1.183   0.246   0.622  0.2471 -1.4533 -2.0321
  563SOL     MW 2252   1.170   0.302   0.559  0.0255 -0.6161 -0.2367
  564SOL     OW 2253   1.045   2.614   2.235  0.2741 -0.4742  0.4274
  564SOL    HW1 2254   1.069   2.623   2.136 -0.4879 -0.5023  2.6053
  564SOL    HW2 2255   1.100   2.677   2.278  0.3859  0.8368 -0.5694
  564SOL     MW 2256   1.055   2.624   2.228  0.1883 -0.3049  0.5833
  565SOL     OW 2257   2.896   2.733   2.669 -0.0941  0.1195  0.3342
  565SOL    HW1 2258   2.949   2.810   2.639 -0.4391  0.0575 -1.8684
  565SOL    HW2 2259   2.817   2.728   2.616 -2.4936 -1.2579  0.9992
  565SOL     MW 2260   2.893   2.743   2.658 -0.4562 -0.0704  0.1313
  566SOL     OW 2261   2.156   1.879   2.366  0.7264 -0.2823 -0.0851
  566SOL    HW1 2262   2.182   1.858   2.276 -1.1741 -2.0046 -0.2083
  566SOL    HW2 2263   2.181   1.976   2.379  1.0828 -1.6486  0.6877
  566SOL     MW 2264   2.162   1.889   2.356  0.5227 -0.6898  0.0006
  567SOL     OW 2265   1.188   2.899   2.923  0.3353  0.3109 -0.3304
  567SOL    HW1 2266   1.247   2.962   2.960 -3.4574  0.5564 -2.4671
  567SOL    HW2 2267   1.213   2.810   2.913  0.8414 -0.9029 -0.4893
  567SOL     MW 2268   1.199   2.896   2.927 -0.0984  0.1831 -0.6333
  568SOL     OW 2269   1.607   2.151   2.881  0.0842 -0.0917 -0.1914
  568SOL    HW1 2270   1.675   2.189   2.941 -0.3849  1.8458 -0.7353
  568SOL    HW2 2271   1.642   2.067   2.849 -0.3725  3.3404  0.2294
  568SOL     MW 2272   1.621   2.145   2.885 -0.0379  0.6168 -0.2077
  569SOL     OW 2273   0.190   2.251   2.488  0.3476 -0.0266 -0.1115
  569SOL    HW1 2274   0.129   2.288   2.425 -1.9639 -0.0153 -1.7100
  569SOL    HW2 2275   0.194   2.324   2.555  3.8253 -0.1041  0.3213
  569SOL     MW 2276   0.182   2.266   2.489  0.5015 -0.0353 -0.2653
  570SOL     OW 2277   1.431   0.383   0.490  1.0484  0.3451 -0.1349
  570SOL    HW1 2278   1.336   0.363   0.506 -1.4120 -1.0210  2.5261
  570SOL    HW2 2279   1.454   0.426   0.575 -1.1439 -0.1798  0.0810
  570SOL     MW 2280   1.422   0.386   0.503  0.4345  0.0956  0.2447
  571SOL     OW 2281   1.499   2.438   2.000  0.4272  0.2004  0.4652
  571SOL    HW1 2282   1.543   2.447   2.087  0.7382  1.5949  1.3848
  571SOL    HW2 2283   1.522   2.349   1.979 -0.2721  1.9499 -0.3180
  571SOL     MW 2284   1.508   2.428   2.008  0.3760  0.6152  0.4832
  572SOL     OW 2285   0.970   2.662   0.039  0.5455  0.3486  0.2834
  572SOL    HW1 2286   0.950   2.708  -0.041 -0.5982 -0.2206 -0.5576
  572SOL    HW2 2287   0.889   2.627   0.070  3.4258  1.3607  3.0991
  572SOL     MW 2288   0.956   2.663   0.033  0.7747  0.4071  0.5440
  573SOL     OW 2289   1.149   2.314   0.228 -0.3803 -0.2717 -0.3458
  573SOL    HW1 2290   1.240   2.312   0.212  0.1019  1.0565 -2.0488
  573SOL    HW2 2291   1.141   2.411   0.252 -0.7253 -0.5494 -3.1760
  573SOL     MW 2292   1.160   2.327   0.229 -0.3622 -0.1331 -0.9439
  574SOL     OW 2293   1.120   2.605   0.285 -0.3907 -0.5309  0.6057
  574SOL    HW1 2294   1.201   2.645   0.303  0.4455  1.2731  0.9437
  574SOL    HW2 2295   1.090   2.634   0.198  1.1169  0.5802 -3.2698
  574SOL     MW 2296   1.127   2.614   0.276 -0.0814 -0.1462  0.1390
  575SOL     OW 2297   0.054   2.293   1.809  0.1621 -0.3280  0.7344
  575SOL    HW1 2298   0.085   2.227   1.751  0.1537 -2.6333  2.2914
  575SOL    HW2 2299   0.060   2.369   1.749  1.8162 -2.8082 -2.3865
  575SOL     MW 2300   0.059   2.295   1.794  0.3793 -0.9594  0.5281
  576SOL     OW 2301   2.804   1.819   2.102 -0.1198 -0.3234  0.5373
  576SOL    HW1 2302   2.848   1.870   2.032 -2.4164 -3.3676 -0.1875
  576SOL    HW2 2303   2.715   1.787   2.074  0.1005 -0.8357  1.4133
  576SOL     MW 2304   2.798   1.821   2.089 -0.3937 -0.7926  0.5572
  577SOL     OW 2305   2.083   0.198   0.106 -0.0077  0.0643  0.1048
  577SOL    HW1 2306   2.021   0.245   0.056  1.9054 -1.1459  1.1611
  577SOL    HW2 2307   2.028   0.160   0.173 -0.9371 -0.6810  0.8336
  577SOL     MW 2308   2.068   0.199   0.109  0.1221 -0.1937  0.3403
  578SOL     OW 2309   1.936   2.017   2.379 -0.0868 -0.1212 -0.2907
  578SOL    HW1 2310   1.857   1.981   2.344  1.0374 -0.1813 -0.5953
  578SOL    HW2 2311   2.010   1.954   2.358  0.3134 -0.9821 -3.2277
  578SOL     MW 2312   1.935   2.004   2.371  0.1144 -0.2427 -0.7184
  579SOL     OW 2313   0.870   2.443   2.407 -0.1588 -0.6000 -0.3063
  579SOL    HW1 2314   0.910   2.370   2.463  0.0695 -0.0715 -0.6231
  579SOL    HW2 2315   0.946   2.497   2.392 -0.1582  0.6164  0.3471
  579SOL     MW 2316   0.886   2.441   2.412 -0.1286 -0.3698 -0.2619
  580SOL     OW 2317   0.938   2.943   3.059  0.5106 -0.9341  0.0321
  580SOL    HW1 2318   1.029   2.905   3.056  0.3186 -2.6778  0.3161
  580SOL    HW2 2319   0.899   2.917   2.978  0.8274  0.9456 -0.1498
  580SOL     MW 2320   0.945   2.934   3.048  0.5270 -0.9162  0.0455
  581SOL     OW 2321   1.163   2.482   1.695 -0.6885 -0.0407 -0.0880
  581SOL    HW1 2322   1.223   2.464   1.759 -2.4730 -0.7254 -1.4656
  581SOL    HW2 2323   1.183   2.420   1.626  1.5757 -2.8443  1.5364
  581SOL     MW 2324   1.174   2.471   1.694 -0.6252 -0.5009 -0.0554
  582SOL     OW 2325   0.012   2.867   2.570  0.2575 -0.0483  0.0418
  582SOL    HW1 2326   0.030   2.948   2.620  1.6296  0.4303  2.1457
  582SOL    HW2 2327   0.102   2.855   2.548  0.4209 -1.3118  2.1002
  582SOL     MW 2328   0.026   2.876   2.573  0.4601 -0.1519  0.5910
  583SOL     OW 2329   2.013   2.385   2.682 -0.4917  0.9004 -0.3734
  583SOL    HW1 2330   2.081   2.405   2.618  0.8141 -1.5250  0.2671
  583SOL    HW2 2331   2.001   2.287   2.672 -0.2716 -2.4980  2.4577
  583SOL     MW 2332   2.021   2.375   2.672 -0.2904  0.1320  0.0846
  584SOL     OW 2333   0.238   1.840   2.221 -0.2927  0.5851  0.1252
  584SOL    HW1 2334   0.285   1.849   2.135  1.5853  0.6430 -0.4629
  584SOL    HW2 2335   0.259   1.921   2.265 -0.8769  0.9150  0.3901
  584SOL     MW 2336   0.247   1.852   2.215 -0.1220  0.6363  0.0825
  585SOL     OW 2337   1.537   2.661   0.170 -0.0605 -0.0731  0.3820
  585SOL    HW1 2338   1.526   2.616   0.087 -0.8645 -0.1110  1.9129
  585SOL    HW2 2339   1.456   2.674   0.213  1.2771  1.2331 -0.5181
  585SOL     MW 2340   1.525   2.657   0.165  0.0099  0.0943  0.4652
  586SOL     OW 2341   1.343   2.842   2.522 -0.3576  0.1008  0.3217
  586SOL    HW1 2342   1.420   2.814   2.459  1.2473  0.3122 -1.6871
  586SOL    HW2 2343   1.356   2.935   2.550  0.0236 -2.0468 -0.7052
  586SOL     MW 2344   1.355   2.851   2.518 -0.0956 -0.1547 -0.0789
  587SOL     OW 2345   1.328   1.558   2.195 -0.2815  0.1705 -0.1520
  587SOL    HW1 2346   1.325   1.471   2.242  0.0267 -0.4026 -0.6573
  587SOL    HW2 2347   1.273   1.549   2.117  0.8455  0.7691  0.4837
  587SOL     MW 2348   1.320   1.546   2.191 -0.0921  0.1739 -0.1348
  588SOL     OW 2349   1.344   2.097   2.754 -0.7344 -0.3194  0.2251
  588SOL    HW1 2350   1.417   2.137   2.792 -2.4829 -0.8124  0.2867
  588SOL    HW2 2351   1.265   2.117   2.815  0.5505 -0.9933  1.3818
  588SOL     MW 2352   1.343   2.105   2.767 -0.7956 -0.4734  0.3859
  589SOL     OW 2353   1.261   2.038   0.107  0.5465 -0.1594  0.1360
  589SOL    HW1 2354   1.306   2.119   0.139 -0.1694  0.8795 -0.4655
  589SOL    HW2 2355   1.242   1.985   0.185  0.6662 -0.0520 -0.8907
  589SOL     MW 2356   1.265   2.042   0.122  0.4679 -0.0082 -0.0788
  590SOL     OW 2357   0.457   2.775   2.212  0.2823 -0.0228  0.1067
  590SOL    HW1 2358   0.455   2.704   2.149  3.1196  3.4234  1.5443
  590SOL    HW2 2359   0.543   2.812   2.217 -1.7375  0.6345  1.8413
  590SOL     MW 2360   0.468   2.770   2.204  0.3901  0.5186  0.5253
  591SOL     OW 2361   2.253   0.660   0.007 -0.5009 -0.5556  0.5259
  591SOL    HW1 2362   2.189   0.727  -0.024 -0.1731 -0.4757 -1.1562
  591SOL    HW2 2363   2.334   0.702  -0.042  3.7759  0.6300 -3.0333
  591SOL     MW 2364   2.255   0.674  -0.003  0.1066 -0.3887 -0.1657
  592SOL     OW 2365   1.763   2.956   0.823  0.4375 -0.2642  0.6000
  592SOL    HW1 2366   1.778   3.030   0.760  0.9048  2.0758 -2.4394
  592SOL    HW2 2367   1.804   2.877   0.785 -0.4274  1.4293 -1.6566
  592SOL     MW 2368   1.770   2.955   0.809  0.3850  0.2680 -0.0987
  593SOL     OW 2369   1.959   0.678   0.844  0.5960 -0.4943 -0.5402
  593SOL    HW1 2370   1.879   0.650   0.801 -1.5053  0.5562 -0.9935
  593SOL    HW2 2371   2.030   0.619   0.819  0.7014 -3.0222  4.0926
  593SOL     MW 2372   1.958   0.666   0.835  0.3327 -0.6892  0.0112
  594SOL     OW 2373   2.835   1.145   1.361  0.5466  0.1258 -0.1094
  594SOL    HW1 2374   2.927   1.184   1.377 -0.0152  0.9146  0.1046
  594SOL    HW2 2375   2.826   1.083   1.286  0.1820  2.7122  0.8583
  594SOL     MW 2376   2.846   1.142   1.354  0.4244  0.5711  0.0465
  595SOL     OW 2377   0.425   1.010   0.834 -0.9633  0.2302  0.3650
  595SOL    HW1 2378   0.461   1.067   0.764  3.0821 -0.5058  0.1674
  595SOL    HW2 2379   0.445   1.078   0.907 -1.5693  0.9662  0.5552
  595SOL     MW 2380   0.432   1.026   0.834 -0.5095  0.2302  0.3640
  596SOL     OW 2381   2.449   1.319   0.599  0.2264 -0.2527 -0.3467
  596SOL    HW1 2382   2.522   1.371   0.569  0.1073 -0.9454 -1.3711
  596SOL    HW2 2383   2.494   1.280   0.674 -0.2216  1.0515  2.9249
  596SOL     MW 2384   2.464   1.321   0.605  0.1516 -0.1720 -0.0502
  597SOL     OW 2385   2.207   0.714   1.606  0.2260 -0.5255 -0.1598
  597SOL    HW1 2386   2.222   0.652   1.681 -0.1191 -2.3791 -0.4879
  597SOL    HW2 2387   2.135   0.672   1.549 -0.9538  0.1044  0.6750
  597SOL     MW 2388   2.199   0.700   1.608  0.0248 -0.6870 -0.0929
  598SOL     OW 2389   2.604   1.004   2.866 -0.2155 -0.1806 -0.1316
  598SOL    HW1 2390   2.597   0.987   2.771 -0.7691  0.0362 -0.8860
  598SOL    HW2 2391   2.692   1.049   2.872  4.1239 -1.8134 -1.5869
  598SOL     MW 2392   2.614   1.008   2.855  0.2840 -0.3674 -0.4231
  599SOL     OW 2393   2.959   0.409   2.073 -0.6448 -0.0250  0.2509
  599SOL    HW1 2394   3.021   0.418   2.153  1.2258  0.5604 -0.3081
  599SOL    HW2 2395   2.969   0.489   2.016 -0.3330 -0.7243 -0.5524
  599SOL     MW 2396   2.969   0.421   2.076 -0.3568 -0.0400  0.0712
  600SOL     OW 2397   1.882   1.603   0.834 -0.2396 -0.1933 -0.4318
  600SOL    HW1 2398   1.907   1.643   0.917 -3.0684  0.0152  0.2940
  600SOL    HW2 2399   1.802   1.653   0.812 -2.3382 -1.7081  1.4108
  600SOL     MW 2400   1.874   1.615   0.842 -0.8897 -0.3657 -0.0929
  601SOL     OW 2401   2.481   0.765   0.828  0.4761 -0.2771 -0.2638
  601SOL    HW1 2402   2.468   0.771   0.927  0.4995 -0.2619  3.4463
  601SOL    HW2 2403   2.414   0.712   0.787  2.0893  1.7392 -2.1010
  601SOL     MW 2404   2.471   0.759   0.836  0.6920 -0.0091 -0.0167
  602SOL     OW 2405   2.350   1.937   0.820  0.2238  0.0498 -0.2217
  602SOL    HW1 2406   2.305   1.852   0.813 -1.4627  0.6347 -0.9789
  602SOL    HW2 2407   2.278   1.998   0.803  1.3170  1.1398  0.1242
  602SOL     MW 2408   2.334   1.934   0.816  0.1455  0.2708 -0.2760
  603SOL     OW 2409   3.090   1.357   1.815  0.0903 -0.3284  0.0282
  603SOL    HW1 2410   3.156   1.401   1.872  0.4567 -2.1098 -1.0232
  603SOL    HW2 2411   3.094   1.271   1.849 -0.0466  0.9208  2.7036
  603SOL     MW 2412   3.099   1.352   1.827  0.1206 -0.3986  0.2425
  604SOL     OW 2413   2.172   1.584   0.451  0.2296 -0.3363 -0.0449
  604SOL    HW1 2414   2.193   1.503   0.498 -1.1649 -1.7115 -1.2858
  604SOL    HW2 2415   2.086   1.617   0.500 -1.9018 -1.5804  1.6440
  604SOL     MW 2416   2.163   1.578   0.464 -0.2356 -0.6819  0.0142
  605SOL     OW 2417   2.606   1.504   0.841 -0.0669 -0.6106  0.1142
  605SOL    HW1 2418   2.584   1.584   0.781 -1.2304 -0.9315 -2.8119
  605SOL    HW2 2419   2.566   1.420   0.811  1.5584 -1.9623  1.4740
  605SOL     MW 2420   2.598   1.504   0.829 -0.0060 -0.8313 -0.0925
  606SOL     OW 2421   2.577   1.734   2.002  0.6784 -1.0079  0.0294
  606SOL    HW1 2422   2.481   1.736   1.986  0.1239 -0.2518  1.5240
  606SOL    HW2 2423   2.608   1.673   1.936 -0.7506 -3.2359  0.1307
  606SOL     MW 2424   2.568   1.726   1.991  0.4167 -1.2021  0.2400
  607SOL     OW 2425   2.387   1.129   3.049 -0.0156  0.1339 -0.0324
  607SOL    HW1 2426   2.447   1.085   2.990  1.1704 -0.2918 -0.6983
  607SOL    HW2 2427   2.417   1.089   3.134 -0.1931 -2.0234  2.2171
  607SOL     MW 2428   2.399   1.118   3.053  0.1175 -0.2069  0.1765
  608SOL     OW 2429   1.855   0.269   0.626 -0.2901  0.3275 -0.2373
  608SOL    HW1 2430   1.863   0.326   0.546  1.2263 -1.5715  0.2125
  608SOL    HW2 2431   1.829   0.179   0.604 -1.7393  0.3767 -1.8138
  608SOL     MW 2432   1.852   0.265   0.613 -0.2812  0.0834 -0.3859
  609SOL     OW 2433   2.044   2.006   3.025  0.2124 -0.2886 -0.8942
  609SOL    HW1 2434   1.984   1.938   3.016  0.0689 -0.0383  1.0357
  609SOL    HW2 2435   2.093   1.977   3.109 -1.0804 -2.6154  2.5893
  609SOL     MW 2436   2.043   1.993   3.035  0.0229 -0.5626 -0.1800
  610SOL     OW 2437   1.785   0.993   1.284  0.2998 -0.4735 -0.3151
  610SOL    HW1 2438   1.812   0.932   1.219  0.7079  1.7686 -0.2395
  610SOL    HW2 2439   1.694   0.995   1.259  0.5386  0.5829  2.3781
  610SOL     MW 2440   1.776   0.985   1.272  0.3852 -0.0383  0.0502
  611SOL     OW 2441   2.536   1.720   0.696  0.2867 -0.3971 -0.1647
  611SOL    HW1 2442   2.547   1.809   0.722 -1.1247  1.5223 -1.3213
  611SOL    HW2 2443   2.451   1.733   0.648 -1.7259  0.7780  2.1132
  611SOL     MW 2444   2.527   1.733   0.693 -0.1651  0.0112 -0.0167
  612SOL     OW 2445   2.797   2.836   0.419  0.7247 -0.3522  0.0810
  612SOL    HW1 2446   2.825   2.899   0.491  0.8749  0.1650 -2.2013
  612SOL    HW2 2447   2.886   2.818   0.377  0.5080  0.3067 -0.6372
  612SOL     MW 2448   2.813   2.842   0.423  0.7159 -0.1970 -0.3149
  613SOL     OW 2449   1.474   1.005   0.919  0.1734  0.5997 -0.4349
  613SOL    HW1 2450   1.521   1.081   0.892 -1.7245  1.5375  2.8124
  613SOL    HW2 2451   1.492   1.010   1.015  0.8595  1.1668 -2.1942
  613SOL     MW 2452   1.482   1.016   0.928  0.0135  0.7982 -0.2385
  614SOL     OW 2453   2.022   0.566   1.459 -0.0591  0.0934 -0.0858
  614SOL    HW1 2454   1.995   0.493   1.518  4.0339 -1.0758 -1.1016
  614SOL    HW2 2455   1.954   0.565   1.391  3.7422  3.1789  2.0536
  614SOL     MW 2456   2.010   0.556   1.458  0.9825  0.3463  0.0624
  615SOL     OW 2457   2.384   0.744   0.246  0.0980  0.4385  0.1272
  615SOL    HW1 2458   2.415   0.663   0.288 -3.4072 -2.9322 -1.8103
  615SOL    HW2 2459   2.356   0.700   0.162 -1.2087 -2.4771 -2.4310
  615SOL     MW 2460   2.385   0.728   0.240 -0.5369 -0.3909 -0.4660
  616SOL     OW 2461   2.540   0.406   1.651  0.3566 -0.2070  0.0972
  616SOL    HW1 2462   2.543   0.328   1.601 -1.0398  2.3138 -0.6920
  616SOL    HW2 2463   2.511   0.470   1.584  0.3143  3.4044  1.8829
  616SOL     MW 2464   2.537   0.404   1.635  0.1668  0.6021  0.2286
  617SOL     OW 2465   2.823   0.657   1.741 -0.7969 -0.0869 -0.4711
  617SOL    HW1 2466   2.746   0.673   1.790 -1.5349 -2.7105  0.4898
  617SOL    HW2 2467   2.820   0.563   1.748 -0.1007  0.8577 -2.0679
  617SOL     MW 2468   2.813   0.647   1.749 -0.8024 -0.3085 -0.5550
  618SOL     OW 2469   2.731   0.355   1.921  0.8035 -0.1363  0.6241
  618SOL    HW1 2470   2.685   0.438   1.897 -0.3327  0.1976  0.6868
  618SOL    HW2 2471   2.781   0.382   2.000 -1.0782  0.2337  2.0797
  618SOL     MW 2472   2.732   0.370   1.928  0.4054 -0.0435  0.8244
  619SOL     OW 2473   2.669   0.670   0.085 -0.1144  0.5985  0.1848
  619SOL    HW1 2474   2.720   0.756   0.100 -0.9796  1.8021 -0.6855
  619SOL    HW2 2475   2.614   0.649   0.163 -1.2971  2.5593  0.3848
  619SOL     MW 2476   2.668   0.678   0.097 -0.3846  1.0160  0.0964
  620SOL     OW 2477   2.217   1.061   0.988 -0.1451 -0.2435 -1.1616
  620SOL    HW1 2478   2.293   1.079   0.931 -2.5190  0.8595 -0.1387
  620SOL    HW2 2479   2.166   1.010   0.930 -2.9874  2.4322  0.6715
  620SOL     MW 2480   2.220   1.056   0.973 -0.8333  0.2551 -0.7848
  621SOL     OW 2481   1.554   2.174   1.911 -0.0927  0.2252 -0.4992
  621SOL    HW1 2482   1.494   2.109   1.959 -1.7349 -0.4099 -1.3544
  621SOL    HW2 2483   1.641   2.148   1.940  3.7557  0.8217  2.1247
  621SOL     MW 2484   1.558   2.162   1.921  0.1984  0.2201 -0.2659
  622SOL     OW 2485   2.624   0.173   0.232 -0.1589  0.0328 -0.0665
  622SOL    HW1 2486   2.715   0.205   0.233 -0.3804  0.1019 -0.9894
  622SOL    HW2 2487   2.629   0.082   0.266  0.3548  0.0189 -1.4222
  622SOL     MW 2488   2.637   0.165   0.237 -0.1203  0.0401 -0.3672
  623SOL     OW 2489   2.365   2.768   0.843  0.8445  0.1524  0.1220
  623SOL    HW1 2490   2.446   2.823   0.848 -0.7018  0.9527 -0.5328
  623SOL    HW2 2491   2.311   2.789   0.920 -0.4382 -1.9296 -2.3259
  623SOL     MW 2492   2.368   2.778   0.854  0.4713 -0.0167 -0.2874
  624SOL     OW 2493   2.172   1.714   2.982 -0.7889 -0.7177 -0.4611
  624SOL    HW1 2494   2.160   1.641   3.038 -0.1461  3.4849  2.2464
  624SOL    HW2 2495   2.087   1.744   2.957  1.3022 -1.2506  3.5553
  624SOL     MW 2496   2.159   1.709   2.986 -0.4281 -0.2335  0.4261
  625SOL     OW 2497   2.209   1.904   1.085 -0.0457 -0.3594 -0.6041
  625SOL    HW1 2498   2.278   1.877   1.154 -1.1805  0.9890 -1.8928
  625SOL    HW2 2499   2.254   1.889   1.002 -1.9937 -1.0857 -0.0681
  625SOL     MW 2500   2.224   1.898   1.083 -0.4524 -0.2774 -0.7034
  626SOL     OW 2501   0.316   1.596   2.353  0.0568  0.1986  0.6176
  626SOL    HW1 2502   0.274   1.514   2.372 -3.1808 -0.0303  0.7098
  626SOL    HW2 2503   0.251   1.657   2.326 -0.8127 -1.7815  2.3656
  626SOL     MW 2504   0.302   1.593   2.352 -0.4851 -0.0929  0.8604
  627SOL     OW 2505   2.441   0.705   2.572 -0.0746 -0.0652  0.4463
  627SOL    HW1 2506   2.422   0.796   2.602 -1.1166 -0.5360 -0.7083
  627SOL    HW2 2507   2.401   0.707   2.487  2.2711  0.6948  1.3687
  627SOL     MW 2508   2.434   0.717   2.565  0.0974 -0.0271  0.4157
  628SOL     OW 2509   2.341   1.413   1.345  0.2386  0.2328 -0.4169
  628SOL    HW1 2510   2.293   1.355   1.286 -0.9512  1.6526  1.7934
  628SOL    HW2 2511   2.427   1.430   1.300 -1.1466 -0.8341 -0.7168
  628SOL     MW 2512   2.346   1.407   1.331 -0.1011  0.2794 -0.1649
  629SOL     OW 2513   1.866   0.521   1.248  0.3432  0.2387 -0.1274
  629SOL    HW1 2514   1.870   0.607   1.208 -0.7512  1.7130  1.8344
  629SOL    HW2 2515   1.774   0.492   1.230 -1.7816 -1.2653 -1.6882
  629SOL     MW 2516   1.854   0.529   1.240 -0.0815  0.2348 -0.0745
  630SOL     OW 2517   2.406   1.824   3.018 -0.0739 -0.5423  1.0410
  630SOL    HW1 2518   2.409   1.898   2.953  1.0519 -2.1906  1.6270
  630SOL    HW2 2519   2.313   1.788   3.019 -3.3800  1.5583  1.5551
  630SOL     MW 2520   2.394   1.829   3.009 -0.3615 -0.4827  1.1861
  631SOL     OW 2521   2.007   1.824   1.597  0.7955 -0.0853 -0.0243
  631SOL    HW1 2522   2.012   1.732   1.617 -1.5884  1.6941 -3.2504
  631SOL    HW2 2523   1.995   1.838   1.499  2.6451  0.2732 -0.4762
  631SOL     MW 2524   2.006   1.814   1.587  0.7250  0.1968 -0.5096
  632SOL     OW 2525   0.181   1.945   1.404 -0.0132 -0.4119 -0.6423
  632SOL    HW1 2526   0.127   1.942   1.485 -1.1782 -1.2848  1.5190
  632SOL    HW2 2527   0.169   1.859   1.363 -2.2618  3.2584  0.6124
  632SOL     MW 2528   0.172   1.933   1.409 -0.4636 -0.0428 -0.1916
  633SOL     OW 2529   2.559   0.493   0.312 -0.1121  0.4005 -0.5706
  633SOL    HW1 2530   2.610   0.489   0.395  0.5159  1.3202  1.2557
  633SOL    HW2 2531   2.501   0.422   0.331  1.0686  1.1212  1.1720
  633SOL     MW 2532   2.558   0.483   0.326  0.1265  0.6169 -0.0997
  634SOL     OW 2533   2.644   0.044   0.662  0.2193  0.4950 -0.2746
  634SOL    HW1 2534   2.707   0.111   0.632 -2.3632  2.1184 -0.0767
  634SOL    HW2 2535   2.623  -0.022   0.599  0.9165 -0.5329 -0.0012
  634SOL     MW 2536   2.650   0.044   0.650 -0.0294  0.5736 -0.2124
  635SOL     OW 2537   2.607   0.119   1.848 -0.4177 -0.1912  0.0180
  635SOL    HW1 2538   2.681   0.067   1.816 -1.9209 -0.3079  3.9585
  635SOL    HW2 2539   2.646   0.200   1.866  1.5892 -2.7093 -2.3399
  635SOL     MW 2540   2.622   0.123   1.846 -0.3512 -0.5388  0.2268
  636SOL     OW 2541   2.832   1.604   1.030 -0.4667 -0.3685 -1.0332
  636SOL    HW1 2542   2.750   1.623   1.075 -0.9613  1.1505 -0.3582
  636SOL    HW2 2543   2.890   1.682   1.055 -2.6873 -0.2897 -3.7286
  636SOL     MW 2544   2.829   1.617   1.039 -0.8249 -0.1577 -1.2998
  637SOL     OW 2545   2.876   1.464   0.749  0.0209  0.3951 -0.3499
  637SOL    HW1 2546   2.909   1.545   0.711  1.1611 -0.2513  3.1449
  637SOL    HW2 2547   2.801   1.488   0.809 -0.1751 -0.8939 -0.4670
  637SOL     MW 2548   2.870   1.478   0.752  0.1455  0.1397  0.0958
  638SOL     OW 2549   2.703   0.517   0.587 -0.3143 -0.2488  0.1433
  638SOL    HW1 2550   2.786   0.533   0.534 -2.2305  1.9773 -1.9672
  638SOL    HW2 2551   2.727   0.553   0.672 -0.5994 -0.5699 -1.7631
  638SOL     MW 2552   2.717   0.524   0.591 -0.6047  0.0025 -0.3867
  639SOL     OW 2553   1.749   0.021   0.595 -0.5754  0.3240 -0.5788
  639SOL    HW1 2554   1.662   0.036   0.569 -2.2858 -1.1157  1.3055
  639SOL    HW2 2555   1.779  -0.057   0.548 -0.8785 -0.8904 -0.6459
  639SOL     MW 2556   1.742   0.013   0.585 -0.8410 -0.0262 -0.3390
  640SOL     OW 2557   0.333   1.300   0.134 -0.3298  0.3323 -0.1868
  640SOL    HW1 2558   0.346   1.310   0.035  0.8296 -2.3527 -0.3059
  640SOL    HW2 2559   0.289   1.210   0.144  0.0814 -3.0811 -1.4247
  640SOL     MW 2560   0.329   1.289   0.123 -0.1225 -0.4723 -0.3659
  641SOL     OW 2561   2.169   0.388   0.388  0.2721  0.0376  0.3425
  641SOL    HW1 2562   2.201   0.410   0.294  0.5046 -1.8980  0.4758
  641SOL    HW2 2563   2.230   0.323   0.416 -0.7074  2.0310  0.5363
  641SOL     MW 2564   2.182   0.383   0.379  0.1735  0.0452  0.3857
  642SOL     OW 2565   0.063   3.089   0.563 -0.4027 -0.2933  0.1914
  642SOL    HW1 2566   0.032   3.174   0.519 -1.5047  2.5672  0.2706
  642SOL    HW2 2567  -0.022   3.047   0.581  0.1581  1.9133 -3.4053
  642SOL     MW 2568   0.048   3.095   0.559 -0.4741  0.3753 -0.2727
  643SOL     OW 2569   1.978   0.345   1.619  0.2119  0.4924  0.0467
  643SOL    HW1 2570   1.905   0.292   1.661 -2.7357 -0.2193  1.0603
  643SOL    HW2 2571   2.011   0.286   1.543  1.4843  0.7987  0.4668
  643SOL     MW 2572   1.972   0.330   1.614 -0.0091  0.4389  0.2359
  644SOL     OW 2573   2.759   2.002   1.055  0.4051 -0.6651  0.3788
  644SOL    HW1 2574   2.743   1.952   1.136 -0.0640 -1.8071  0.5720
  644SOL    HW2 2575   2.668   2.020   1.020 -0.3849  1.0262 -1.7742
  644SOL     MW 2576   2.745   1.998   1.061  0.2390 -0.5926  0.1203
  645SOL     OW 2577   2.843   0.848   0.625 -0.2612  0.2652  0.1113
  645SOL    HW1 2578   2.934   0.831   0.641 -0.4749 -0.9437  1.1240
  645SOL    HW2 2579   2.797   0.776   0.672 -1.3725 -1.4622  0.4254
  645SOL     MW 2580   2.849   0.836   0.634 -0.4360 -0.1222  0.2864
  646SOL     OW 2581   0.104   2.299   0.837 -0.1986 -0.6361  0.7856
  646SOL    HW1 2582   0.115   2.203   0.865 -1.1045  0.0628 -1.6727
  646SOL    HW2 2583   0.066   2.298   0.747 -2.2699 -3.1769  3.0883
  646SOL     MW 2584   0.100   2.286   0.829 -0.5914 -0.8791  0.7651
  647SOL     OW 2585   2.695   0.464   2.904 -0.0206  0.0027 -0.3757
  647SOL    HW1 2586   2.665   0.433   2.987  4.0754  2.2235  0.5707
  647SOL    HW2 2587   2.620   0.504   2.857  0.1373 -3.0154 -2.5497
  647SOL     MW 2588   2.681   0.465   2.909  0.5406 -0.1025 -0.5376
  648SOL     OW 2589   2.100   0.735   1.189  0.2696 -0.0852 -0.0692
  648SOL    HW1 2590   2.174   0.682   1.184 -1.2257 -1.3303  2.3058
  648SOL    HW2 2591   2.130   0.828   1.181  3.9040  2.4822 -2.0374
  648SOL     MW 2592   2.114   0.740   1.187  0.5519  0.0892 -0.0155
  649SOL     OW 2593   2.388   2.666   1.270 -0.1954 -0.0790  0.1689
  649SOL    HW1 2594   2.471   2.706   1.297  1.7434  1.2069 -0.5298
  649SOL    HW2 2595   2.390   2.572   1.280 -0.4529 -3.2369 -1.1876
  649SOL     MW 2596   2.399   2.659   1.275  0.0264 -0.3260 -0.1023
  650SOL     OW 2597   2.855   0.224   0.614  0.1040  0.3720  0.1771
  650SOL    HW1 2598   2.879   0.287   0.681 -0.4463 -0.6614  1.0112
  650SOL    HW2 2599   2.926   0.225   0.540  1.0233 -2.8443 -2.4205
  650SOL     MW 2600   2.867   0.233   0.613  0.1527 -0.1887 -0.0556
  651SOL     OW 2601   3.039   0.428   0.938  0.6028 -0.0573  0.7683
  651SOL    HW1 2602   3.103   0.450   0.868  1.2358  0.3256 -1.3369
  651SOL    HW2 2603   3.017   0.514   0.976  1.5800  2.2131 -1.7466
  651SOL     MW 2604   3.045   0.442   0.934  0.8153  0.2928  0.1587
  652SOL     OW 2605   2.454   1.525   3.019 -0.5543  0.9766  0.3107
  652SOL    HW1 2606   2.528   1.505   2.955  0.5891 -0.8210  1.1857
  652SOL    HW2 2607   2.441   1.622   2.997 -0.0376 -0.8215  3.2702
  652SOL     MW 2608   2.462   1.535   3.008 -0.3352  0.5022  0.8166
  653SOL     OW 2609   1.797   0.426   0.400  0.2996  0.3228 -0.2077
  653SOL    HW1 2610   1.729   0.371   0.359 -3.0083  0.0326  0.6880
  653SOL    HW2 2611   1.871   0.429   0.333  1.0126  1.9649  1.0384
  653SOL     MW 2612   1.798   0.419   0.386 -0.0428  0.5011  0.0749
  654SOL     OW 2613   2.416   1.030   0.775  0.2818  0.2070 -0.2218
  654SOL    HW1 2614   2.349   1.042   0.706  0.5244  0.7754  1.8383
  654SOL    HW2 2615   2.442   0.931   0.785  1.5659  1.8244 -0.1235
  654SOL     MW 2616   2.411   1.018   0.767  0.4832  0.4954  0.0630
  655SOL     OW 2617   2.929   0.844   0.374  0.5099 -0.1700  0.0622
  655SOL    HW1 2618   2.888   0.851   0.461  0.8219  0.7525  0.7033
  655SOL    HW2 2619   2.942   0.752   0.367 -1.6249 -0.4347 -0.4746
  655SOL     MW 2620   2.925   0.832   0.385  0.2694 -0.0832  0.0759
  656SOL     OW 2621   1.887   2.736   1.336 -0.1442 -0.2407  0.2883
  656SOL    HW1 2622   1.860   2.826   1.344  2.2233 -1.1287  0.7243
  656SOL    HW2 2623   1.932   2.713   1.411  1.6597 -0.1107  1.2561
  656SOL     MW 2624   1.889   2.745   1.347  0.4062 -0.3407  0.4735
  657SOL     OW 2625   0.148   1.763   1.173 -0.6091  0.4534  0.1911
  657SOL    HW1 2626   0.218   1.813   1.137 -2.2403  0.2657  0.7833
  657SOL    HW2 2627   0.188   1.675   1.186 -1.2959 -2.3265  0.8415
  657SOL     MW 2628   0.162   1.758   1.170 -0.9150  0.0618  0.3550
  658SOL     OW 2629   2.685   1.358   0.252 -0.1767 -0.3811  0.0075
  658SOL    HW1 2630   2.639   1.275   0.295 -1.8088 -1.3739  1.9871
  658SOL    HW2 2631   2.688   1.412   0.331  0.0519  1.0148  0.9774
  658SOL     MW 2632   2.680   1.354   0.268 -0.3619 -0.3279  0.3967
  659SOL     OW 2633   2.277   1.548   1.036 -0.3719  0.2326 -0.9916
  659SOL    HW1 2634   2.368   1.520   1.069  0.8428 -0.9095  0.2827
  659SOL    HW2 2635   2.232   1.560   1.115  0.5873 -0.2430 -2.4263
  659SOL     MW 2636   2.283   1.546   1.051 -0.0851  0.0192 -1.0128
  660SOL     OW 2637   2.049   1.565   1.669  0.6494  0.5748 -0.0554
  660SOL    HW1 2638   2.070   1.561   1.766 -2.4400  0.5281  0.6822
  660SOL    HW2 2639   1.969   1.504   1.661  1.1796 -1.8909  0.8607
  660SOL     MW 2640   2.041   1.556   1.681  0.3118  0.2433  0.1628
  661SOL     OW 2641   2.456   1.023   0.185  0.0429 -0.2331 -0.2698
  661SOL    HW1 2642   2.488   1.077   0.261  1.9799 -0.8033  0.2122
  661SOL    HW2 2643   2.424   0.939   0.222 -1.9253  1.3857 -1.8757
  661SOL     MW 2644   2.456   1.019   0.200  0.0388 -0.0948 -0.4181
  662SOL     OW 2645   2.558   2.979   0.885 -0.2029 -0.0556  0.6114
  662SOL    HW1 2646   2.523   3.056   0.936  1.0455 -0.9948  0.8024
  662SOL    HW2 2647   2.611   3.030   0.821 -0.3567  0.4136  1.2427
  662SOL     MW 2648   2.560   2.996   0.883 -0.0585 -0.1176  0.7199
  663SOL     OW 2649   2.645   1.492   0.511 -0.2387  0.1939 -0.3261
  663SOL    HW1 2650   2.616   1.575   0.491  0.9424  2.3601  1.1893
  663SOL    HW2 2651   2.717   1.517   0.568 -2.0405 -0.0121  0.5860
  663SOL     MW 2652   2.651   1.506   0.516 -0.3206  0.4525 -0.0058
  664SOL     OW 2653   2.540   1.512   1.550 -0.1470  0.2789 -0.3236
  664SOL    HW1 2654   2.513   1.601   1.534 -0.1406 -0.2914  0.7460
  664SOL    HW2 2655   2.465   1.464   1.579  2.0254 -1.9341  0.9888
  664SOL     MW 2656   2.526   1.517   1.551  0.1405 -0.0883 -0.0093
  665SOL     OW 2657   2.852   0.859   2.007  0.0001  0.2235 -0.2109
  665SOL    HW1 2658   2.856   0.890   1.921  2.0750  1.0356  1.6986
  665SOL    HW2 2659   2.924   0.799   2.010 -2.1437 -0.7521 -2.0996
  665SOL     MW 2660   2.862   0.856   1.996 -0.0090  0.2019 -0.2082
  666SOL     OW 2661   2.776   3.049   1.725  0.6082  0.0684 -0.0953
  666SOL    HW1 2662   2.758   3.047   1.632  1.9229  0.9300 -0.3528
  666SOL    HW2 2663   2.759   2.966   1.761 -0.2877  2.2890  2.5189
  666SOL     MW 2664   2.772   3.038   1.718  0.6634  0.4751  0.2156
  667SOL     OW 2665   1.961   2.681   1.784 -0.1150 -0.6073  0.4758
  667SOL    HW1 2666   1.946   2.698   1.877 -2.4461  1.3895  1.2284
  667SOL    HW2 2667   2.037   2.737   1.763 -1.4431  1.3353  1.0232
  667SOL     MW 2668   1.969   2.691   1.794 -0.5978 -0.0875  0.6473
  668SOL     OW 2669   2.756   0.654   0.829 -0.3297  0.2033  0.3141
  668SOL    HW1 2670   2.813   0.656   0.912 -1.3263  2.5963 -1.3371
  668SOL    HW2 2671   2.686   0.709   0.852  0.7862 -4.3817 -0.0645
  668SOL     MW 2672   2.754   0.661   0.843 -0.3139 -0.0859  0.0463
  669SOL     OW 2673   0.204   0.945   0.679  0.4363 -0.4526 -0.3470
  669SOL    HW1 2674   0.141   0.987   0.730 -0.0529 -2.7678 -0.9092
  669SOL    HW2 2675   0.277   0.970   0.731 -1.7111 -3.6454  0.4027
  669SOL     MW 2676   0.205   0.954   0.693  0.0884 -1.1793 -0.3222
  670SOL     OW 2677   2.890   0.242   0.210  0.4325  0.6650 -0.0425
  670SOL    HW1 2678   2.891   0.193   0.126  0.9499 -3.1274  0.3875
  670SOL    HW2 2679   2.901   0.331   0.177 -1.3653  0.9899  2.1422
  670SOL     MW 2680   2.891   0.247   0.195  0.2636  0.2075  0.3025
  671SOL     OW 2681   2.047   3.032   1.522  0.4637  0.1527  0.1097
  671SOL    HW1 2682   1.984   3.013   1.448  1.0018 -0.6938 -2.3382
  671SOL    HW2 2683   1.995   3.065   1.601  0.5012  0.7117  1.9635
  671SOL     MW 2684   2.032   3.034   1.522  0.5397  0.1148  0.0313
  672SOL     OW 2685   1.918   1.716   1.316 -0.2865  0.3224  0.0535
  672SOL    HW1 2686   1.841   1.758   1.347  0.8219  0.7056  2.0081
  672SOL    HW2 2687   1.922   1.747   1.228  0.1408  1.5569  0.3642
  672SOL     MW 2688   1.908   1.726   1.309 -0.0839  0.5358  0.3523
  673SOL     OW 2689   2.774   1.094   0.596  0.1017 -0.1533  0.3457
  673SOL    HW1 2690   2.797   1.002   0.614  2.0640  1.9658 -1.3539
  673SOL    HW2 2691   2.848   1.146   0.614 -0.9236  1.0553  2.3852
  673SOL     MW 2692   2.787   1.089   0.601  0.2253  0.2857  0.3905
  674SOL     OW 2693   2.437   3.085   1.292  0.2350 -0.8363  0.5488
  674SOL    HW1 2694   2.415   3.098   1.196 -0.0624  0.5339  1.4596
  674SOL    HW2 2695   2.469   2.996   1.305 -2.0832 -1.4258  1.9642
  674SOL     MW 2696   2.438   3.075   1.281 -0.1101 -0.7333  0.8557
  675SOL     OW 2697   3.070   0.904   1.065  0.5648  0.1588 -0.1546
  675SOL    HW1 2698   3.150   0.895   1.115 -1.4569  0.4606 -3.7525
  675SOL    HW2 2699   3.087   0.959   0.987 -0.2750  0.5360  0.1101
  675SOL     MW 2700   3.083   0.910   1.062  0.1872  0.2484 -0.5944
  676SOL     OW 2701   2.904   1.501   1.667  0.3032 -0.1550  0.4434
  676SOL    HW1 2702   2.871   1.409   1.660 -0.6926  0.4417  2.0921
  676SOL    HW2 2703   2.973   1.475   1.722 -0.6339 -1.6949 -1.0383
  676SOL     MW 2704   2.908   1.485   1.673  0.0481 -0.2794  0.4655
  677SOL     OW 2705   2.394   0.564   1.991 -0.3322  0.5483  0.6151
  677SOL    HW1 2706   2.355   0.529   1.907 -3.7406  1.3326 -0.0703
  677SOL    HW2 2707   2.355   0.649   1.995 -0.6796  2.0802 -0.2911
  677SOL     MW 2708   2.384   0.571   1.980 -0.8278  0.8539  0.4051
  678SOL     OW 2709   2.560   1.672   0.289 -0.1003 -0.2501 -0.6156
  678SOL    HW1 2710   2.488   1.705   0.352 -0.9718 -2.6916  2.3062
  678SOL    HW2 2711   2.506   1.602   0.244 -2.5835 -1.1756 -1.3424
  678SOL     MW 2712   2.543   1.667   0.292 -0.5429 -0.6944 -0.3260
  679SOL     OW 2713   2.211   0.464   1.276 -0.0440  0.1096  1.0651
  679SOL    HW1 2714   2.211   0.370   1.252 -1.0253 -0.7318  1.9860
  679SOL    HW2 2715   2.122   0.479   1.311 -0.8573 -0.4748 -1.9336
  679SOL     MW 2716   2.199   0.453   1.277 -0.2808 -0.0785  0.7910
  680SOL     OW 2717   2.355   0.177   1.508  0.1129  0.0509 -0.5137
  680SOL    HW1 2718   2.257   0.166   1.483  2.8303  0.7158  0.2472
  680SOL    HW2 2719   2.400   0.108   1.456  0.9120 -2.8810 -2.2261
  680SOL     MW 2720   2.348   0.166   1.497  0.5769 -0.2482 -0.6392
  681SOL     OW 2721   0.315   0.524   1.539 -0.4717 -0.8208 -0.1352
  681SOL    HW1 2722   0.286   0.464   1.600 -0.6577  0.3940 -0.5655
  681SOL    HW2 2723   0.390   0.562   1.586 -3.5690  0.1573 -0.0944
  681SOL     MW 2724   0.321   0.521   1.553 -0.9049 -0.5314 -0.1866
  682SOL     OW 2725   0.080   2.887   1.495  0.6101 -0.1498 -0.0432
  682SOL    HW1 2726   0.148   2.858   1.553  0.1902 -0.5549  0.7616
  682SOL    HW2 2727   0.002   2.921   1.545 -1.2500 -1.6189 -3.5483
  682SOL     MW 2728   0.078   2.888   1.510  0.3093 -0.3970 -0.3994
  683SOL     OW 2729   2.073   0.828   2.985  0.6640 -0.3399 -0.3395
  683SOL    HW1 2730   1.982   0.795   2.984 -0.1744  0.2455  0.3765
  683SOL    HW2 2731   2.076   0.923   2.986  1.9541 -0.5481 -2.2857
  683SOL     MW 2732   2.061   0.836   2.985  0.7236 -0.2901 -0.5018
  684SOL     OW 2733   2.219   1.666   0.809  0.0236 -0.1115 -0.2457
  684SOL    HW1 2734   2.170   1.603   0.763  0.8612 -1.5618 -1.5808
  684SOL    HW2 2735   2.255   1.618   0.889  1.4082 -1.3290 -0.6891
  684SOL     MW 2736   2.217   1.651   0.813  0.3168 -0.4635 -0.4804
  685SOL     OW 2737   2.615   1.752   1.221 -0.4727 -0.2186  0.5025
  685SOL    HW1 2738   2.691   1.733   1.277 -0.2668  0.4189  1.0618
  685SOL    HW2 2739   2.588   1.671   1.176  0.8143  1.7385  0.0640
  685SOL     MW 2740   2.621   1.739   1.223 -0.2757  0.1237  0.5184
  686SOL     OW 2741   2.891   0.813   1.515 -0.2089  0.4986  0.0472
  686SOL    HW1 2742   2.875   0.777   1.603  1.1706 -0.8294 -0.2090
  686SOL    HW2 2743   2.972   0.768   1.486 -0.4401 -2.3043  1.9673
  686SOL     MW 2744   2.900   0.802   1.523 -0.0574 -0.0464  0.2667
  687SOL     OW 2745   2.155   0.197   1.172  0.2359 -0.6545  0.4191
  687SOL    HW1 2746   2.176   0.132   1.110 -0.8610 -0.4325 -0.6356
  687SOL    HW2 2747   2.088   0.249   1.121  0.1139 -0.9026 -2.9988
  687SOL     MW 2748   2.149   0.195   1.157  0.0751 -0.6580 -0.1710
  688SOL     OW 2749   2.387   0.587   1.455 -0.1053 -0.1403 -0.3829
  688SOL    HW1 2750   2.319   0.515   1.430 -1.5501 -3.7971  1.7683
  688SOL    HW2 2751   2.335   0.654   1.512 -0.4022  1.7772  1.0637
  688SOL     MW 2752   2.371   0.587   1.459 -0.3351 -0.3698  0.0918
  689SOL     OW 2753   2.495   0.771   2.992 -0.5286  0.2028 -0.1659
  689SOL    HW1 2754   2.541   0.845   2.951 -3.0474  1.5040 -1.6710
  689SOL    HW2 2755   2.555   0.729   3.064 -4.3026 -1.3976 -1.3926
  689SOL     MW 2756   2.509   0.775   2.996 -1.3589  0.1634 -0.5263
  690SOL     OW 2757   2.036   0.927   1.892  0.0970 -0.4499 -0.2076
  690SOL    HW1 2758   2.010   0.835   1.897 -1.2706 -0.9521 -1.0970
  690SOL    HW2 2759   2.072   0.926   1.801  0.6499 -0.7126 -0.4540
  690SOL     MW 2760   2.037   0.915   1.881 -0.0105 -0.5508 -0.3575
  691SOL     OW 2761   2.393   0.313   0.908 -0.0713  0.0193  0.2652
  691SOL    HW1 2762   2.480   0.350   0.918  0.9368  0.9189  0.5319
  691SOL    HW2 2763   2.333   0.387   0.900  1.3787  0.9891 -1.5938
  691SOL     MW 2764   2.397   0.328   0.908  0.2530  0.2659  0.0551
  692SOL     OW 2765   2.854   1.706   1.387 -0.1415  0.1799 -0.4670
  692SOL    HW1 2766   2.810   1.647   1.450 -0.2843 -0.2011 -2.9457
  692SOL    HW2 2767   2.874   1.787   1.440 -1.1300  3.6087  0.6107
  692SOL     MW 2768   2.851   1.709   1.403 -0.2908  0.5820 -0.6518
  693SOL     OW 2769   2.285   0.410   0.138 -0.8625 -0.0527  0.4210
  693SOL    HW1 2770   2.217   0.356   0.096  1.5566  0.4838  1.0481
  693SOL    HW2 2771   2.282   0.485   0.082  1.3519  1.4286 -1.4171
  693SOL     MW 2772   2.275   0.413   0.125 -0.2511  0.2135  0.2612
  694SOL     OW 2773   1.926   1.194   1.196 -0.7280  0.5058  0.6454
  694SOL    HW1 2774   2.019   1.178   1.201 -0.0429  2.2244  0.5764
  694SOL    HW2 2775   1.872   1.119   1.226 -0.0268  0.2929  1.8426
  694SOL     MW 2776   1.931   1.182   1.201 -0.5451  0.7044  0.7942
  695SOL     OW 2777   3.027   1.507   1.342  0.4788 -0.1756 -0.4493
  695SOL    HW1 2778   2.983   1.474   1.265  0.7629  1.5748 -0.1402
  695SOL    HW2 2779   2.959   1.571   1.369  1.5971 -3.6500  0.3484
  695SOL     MW 2780   3.012   1.511   1.336  0.6638 -0.4030 -0.3033
  696SOL     OW 2781   2.136   1.319   0.844 -0.4832 -0.3935 -0.2873
  696SOL    HW1 2782   2.187   1.371   0.913  1.2137  0.2689  4.9456
  696SOL    HW2 2783   2.110   1.234   0.876  0.6880 -0.5114 -1.3146
  696SOL     MW 2784   2.139   1.314   0.857 -0.1048 -0.3216  0.2676
  697SOL     OW 2785   2.928   1.038   2.216 -0.3838 -0.4083  0.1481
  697SOL    HW1 2786   2.875   1.123   2.217 -0.1319 -0.6064 -1.8130
  697SOL    HW2 2787   2.892   0.980   2.153  0.0540 -0.1981  2.0440
  697SOL     MW 2788   2.916   1.042   2.208 -0.2928 -0.4067  0.1395
  698SOL     OW 2789   2.533   0.305   0.010  0.6981  0.3735 -0.1945
  698SOL    HW1 2790   2.465   0.355   0.057  1.9150 -0.8195  2.1777
  698SOL    HW2 2791   2.566   0.249   0.081 -0.8920  2.0932 -1.3993
  698SOL     MW 2792   2.529   0.304   0.025  0.6489  0.4430 -0.0405
  699SOL     OW 2793   1.812   1.613   2.026 -0.6971 -0.7799  0.4123
  699SOL    HW1 2794   1.789   1.515   2.044 -1.7075 -0.1156 -0.8187
  699SOL    HW2 2795   1.913   1.600   2.005  0.8378 -0.8904  2.6781
  699SOL     MW 2796   1.822   1.598   2.025 -0.6279 -0.7068  0.5488
  700SOL     OW 2797   2.669   0.970   1.492  0.1266 -0.3898  0.1542
  700SOL    HW1 2798   2.701   1.038   1.435  1.3875 -1.8899 -0.9549
  700SOL    HW2 2799   2.746   0.908   1.495  1.0175 -0.9066 -1.2947
  700SOL     MW 2800   2.683   0.971   1.485  0.4105 -0.6559 -0.1833
  701SOL     OW 2801   1.642   1.179   2.450  0.0608 -0.2649 -0.6348
  701SOL    HW1 2802   1.736   1.191   2.439 -2.1172 -0.7866 -0.0410
  701SOL    HW2 2803   1.615   1.241   2.522 -0.1749  2.4438 -1.9976
  701SOL     MW 2804   1.651   1.189   2.458 -0.2576  0.0236 -0.7363
  702SOL     OW 2805   2.140   0.454   0.836 -0.9250 -0.2761  0.6029
  702SOL    HW1 2806   2.135   0.371   0.778  0.7166  0.9655  0.1578
  702SOL    HW2 2807   2.186   0.523   0.790 -1.6635 -1.1316 -0.2620
  702SOL     MW 2808   2.145   0.452   0.823 -0.8059 -0.2252  0.4301
  703SOL     OW 2809   2.736   1.216   1.026 -0.1401  0.0152  0.4423
  703SOL    HW1 2810   2.706   1.244   0.935 -2.0445  0.3900 -2.6331
  703SOL    HW2 2811   2.760   1.121   1.018 -1.4085  0.5979 -0.7389
  703SOL     MW 2812   2.735   1.207   1.013 -0.5587  0.1415 -0.1193
  704SOL     OW 2813   3.027   1.191   0.111  0.0033 -0.2869 -0.3675
  704SOL    HW1 2814   2.932   1.193   0.089 -3.6015  0.1523  0.3900
  704SOL    HW2 2815   3.030   1.158   0.204 -2.7643 -0.6131 -3.1243
  704SOL     MW 2816   3.015   1.187   0.121 -0.8375 -0.2720 -0.6313
  705SOL     OW 2817   2.172   1.651   1.284  0.0376 -0.6544 -0.3937
  705SOL    HW1 2818   2.087   1.678   1.318 -1.0495  1.4648  4.2755
  705SOL    HW2 2819   2.208   1.591   1.354  3.7648  0.7977 -0.8087
  705SOL     MW 2820   2.165   1.647   1.297  0.3859 -0.1832  0.1676
  706SOL     OW 2821   3.008   1.211   0.673  0.0815 -0.1047  0.1750
  706SOL    HW1 2822   3.041   1.227   0.579  2.5570 -0.3655 -1.6094
  706SOL    HW2 2823   2.959   1.288   0.703  1.8123 -1.3456 -1.2020
  706SOL     MW 2824   3.006   1.223   0.664  0.6365 -0.3028 -0.2421
  707SOL     OW 2825   2.394   0.055   1.012 -0.7644  0.4741 -0.4261
  707SOL    HW1 2826   2.412   0.147   1.003  0.0660  2.2265 -0.3437
  707SOL    HW2 2827   2.315   0.034   0.954 -2.5556  0.1481  2.3058
  707SOL     MW 2828   2.386   0.064   1.003 -0.8912  0.6623 -0.0548
  708SOL     OW 2829   2.435   1.453   0.195 -0.1392  0.2125  0.5600
  708SOL    HW1 2830   2.528   1.426   0.199  2.2825  0.5675 -0.2911
  708SOL    HW2 2831   2.438   1.478   0.103 -1.4874  1.1216 -0.1627
  708SOL     MW 2832   2.448   1.452   0.183  0.0024  0.3793  0.3523
  709SOL     OW 2833   1.782   1.652   0.224  0.1811  0.2074  0.3569
  709SOL    HW1 2834   1.782   1.678   0.132  1.9245  0.3475  3.6219
  709SOL    HW2 2835   1.699   1.686   0.264 -2.0666 -0.6098 -1.2184
  709SOL     MW 2836   1.771   1.660   0.217  0.1145  0.1180  0.5798
  710SOL     OW 2837   2.217   1.233   1.211  0.3128 -0.1703  0.0484
  710SOL    HW1 2838   2.243   1.180   1.131  3.0929 -0.3562  0.2960
  710SOL    HW2 2839   2.220   1.160   1.282  0.5438 -0.2226  1.1822
  710SOL     MW 2840   2.221   1.216   1.210  0.7101 -0.2018  0.2306
  711SOL     OW 2841   2.335   0.129   1.786 -0.0751  0.4071 -0.1004
  711SOL    HW1 2842   2.427   0.119   1.818 -0.1984 -3.0980  1.7837
  711SOL    HW2 2843   2.345   0.131   1.685 -0.7565 -3.2084 -1.4406
  711SOL     MW 2844   2.349   0.128   1.777 -0.1813 -0.5324 -0.0286
  712SOL     OW 2845   1.927   0.511   0.104 -0.3980 -0.3816  0.2116
  712SOL    HW1 2846   1.837   0.519   0.097  0.7796 -0.4148  0.8175
  712SOL    HW2 2847   1.944   0.605   0.133 -0.3778  1.0352  1.5554
  712SOL     MW 2848   1.917   0.524   0.107 -0.2400 -0.1990  0.4688
  713SOL     OW 2849   2.557   0.837   1.080 -0.0239 -0.0375  0.2179
  713SOL    HW1 2850   2.534   0.756   1.132 -1.9709  4.0805  0.7469
  713SOL    HW2 2851   2.533   0.905   1.141  4.1434 -1.7495 -0.8136
  713SOL     MW 2852   2.551   0.835   1.095  0.2691  0.2800  0.1516
  714SOL     OW 2853   2.234   0.227   2.006  0.6806 -0.0795  0.3755
  714SOL    HW1 2854   2.261   0.162   2.067 -4.9292  0.0325  0.6598
  714SOL    HW2 2855   2.268   0.193   1.919 -2.3587  2.6308 -3.1541
  714SOL     MW 2856   2.242   0.214   2.002 -0.4606  0.2928 -0.0527
  715SOL     OW 2857   1.763   1.898   1.646 -0.2176 -0.7378  0.1139
  715SOL    HW1 2858   1.859   1.887   1.641  1.4997  1.7026  0.2254
  715SOL    HW2 2859   1.736   1.865   1.731  1.2870  0.1312  0.0736
  715SOL     MW 2860   1.772   1.892   1.656  0.2075 -0.3012  0.1233
  716SOL     OW 2861   2.297   0.617   0.674 -0.3443 -0.2716 -0.7817
  716SOL    HW1 2862   2.359   0.544   0.652  0.3383  1.4157  0.1905
  716SOL    HW2 2863   2.265   0.654   0.587  1.1297 -0.7761 -0.8087
  716SOL     MW 2864   2.301   0.612   0.659 -0.0598 -0.1156 -0.6570
  717SOL     OW 2865   2.867   1.558   2.924  0.0665  0.5919 -0.5620
  717SOL    HW1 2866   2.962   1.554   2.950  0.0050  0.4926  0.0572
  717SOL    HW2 2867   2.813   1.619   2.977 -2.6942 -3.4077  1.4837
  717SOL     MW 2868   2.872   1.565   2.935 -0.3059  0.0511 -0.2104
  718SOL     OW 2869   2.691   1.390   1.320 -0.1300  0.0611 -0.3031
  718SOL    HW1 2870   2.658   1.399   1.410  0.0516 -0.7220  0.0923
  718SOL    HW2 2871   2.733   1.304   1.318 -2.2343  2.5212 -0.4703
  718SOL     MW 2872   2.692   1.380   1.332 -0.3837  0.2823 -0.2730
  719SOL     OW 2873   2.182   1.291   0.571  0.1056  0.2709 -0.2932
  719SOL    HW1 2874   2.274   1.305   0.579  0.1327 -1.9559 -1.0834
  719SOL    HW2 2875   2.157   1.307   0.663 -0.2227 -0.2262 -1.5944
  719SOL     MW 2876   2.191   1.295   0.585  0.0659 -0.0885 -0.5691
  720SOL     OW 2877   2.747   1.218   0.021 -0.1792 -0.1656 -0.0772
  720SOL    HW1 2878   2.734   1.133   0.068 -2.1516 -0.7045  0.7781
  720SOL    HW2 2879   2.741   1.278   0.101  1.2635  2.0193  1.4876
  720SOL     MW 2880   2.744   1.215   0.038 -0.2491  0.0516  0.2421
  721SOL     OW 2881   2.436   0.850   1.369 -0.5235 -0.0988 -0.3167
  721SOL    HW1 2882   2.432   0.754   1.367  0.0336 -2.0374  2.4486
  721SOL    HW2 2883   2.516   0.873   1.423 -0.8114  1.6842 -1.0454
  721SOL     MW 2884   2.446   0.841   1.376 -0.4880 -0.1194 -0.0480
  722SOL     OW 2885   2.587   1.146   0.381  0.0365  0.4817  0.6400
  722SOL    HW1 2886   2.541   1.194   0.453 -1.1138 -1.9085 -0.5607
  722SOL    HW2 2887   2.664   1.108   0.430 -1.2950  0.6576  1.0042
  722SOL     MW 2888   2.591   1.147   0.397 -0.2910  0.1896  0.5296
  723SOL     OW 2889   2.234   1.394   1.612  0.6518 -0.6165 -0.5276
  723SOL    HW1 2890   2.266   1.382   1.521  1.4610  0.6978  1.3909
  723SOL    HW2 2891   2.184   1.480   1.606 -0.0383  1.8220 -1.1992
  723SOL     MW 2892   2.232   1.404   1.599  0.6675 -0.1214 -0.3631
  724SOL     OW 2893   2.454   0.380   0.636  0.3592  0.0425 -0.3602
  724SOL    HW1 2894   2.441   0.315   0.704 -1.3981 -1.3048  1.0724
  724SOL    HW2 2895   2.545   0.409   0.642 -0.8847  1.1323  0.5857
  724SOL     MW 2896   2.464   0.375   0.646 -0.0368  0.0085 -0.0464
  725SOL     OW 2897   2.539   0.606   1.191 -0.2388  0.0315 -0.3225
  725SOL    HW1 2898   2.614   0.603   1.244 -0.6404 -0.2325 -0.3604
  725SOL    HW2 2899   2.459   0.566   1.235 -0.7363  0.0794 -0.7567
  725SOL     MW 2900   2.538   0.600   1.203 -0.3574  0.0030 -0.3848
  726SOL     OW 2901   2.605   2.459   0.546  0.7485  0.2751 -0.2241
  726SOL    HW1 2902   2.561   2.517   0.480 -2.6726  1.1094  2.7344
  726SOL    HW2 2903   2.543   2.447   0.618 -0.5863  1.7600  3.1303
  726SOL     MW 2904   2.591   2.465   0.547  0.1210  0.5811  0.6088
  727SOL     OW 2905   2.872   0.337   1.656  0.3731  0.5860  0.4216
  727SOL    HW1 2906   2.838   0.326   1.562 -2.4999  2.5463  0.8243
  727SOL    HW2 2907   2.795   0.321   1.708  0.4956  0.2242  0.4424
  727SOL     MW 2908   2.857   0.334   1.650  0.0102  0.7969  0.4775
  728SOL     OW 2909   2.825   1.174   2.843  0.3419  0.3442  0.3039
  728SOL    HW1 2910   2.826   1.241   2.779 -0.9838 -2.7603 -0.1902
  728SOL    HW2 2911   2.811   1.215   2.932  1.8316  0.6710 -0.0895
  728SOL     MW 2912   2.823   1.188   2.846  0.3635 -0.0223  0.1868
  729SOL     OW 2913   2.551   1.486   1.101 -0.4077 -0.3927  0.5958
  729SOL    HW1 2914   2.615   1.423   1.146  0.5618 -0.9715  2.4905
  729SOL    HW2 2915   2.588   1.495   1.010 -0.1746  2.5949 -0.2538
  729SOL     MW 2916   2.564   1.479   1.095 -0.2490 -0.0749  0.7337
  730SOL     OW 2917   2.188   1.169   0.204  0.4616  0.0993 -0.5197
  730SOL    HW1 2918   2.283   1.186   0.184  0.4143 -2.1642 -1.5536
  730SOL    HW2 2919   2.167   1.244   0.256  2.5066  0.8403  0.0191
  730SOL     MW 2920   2.198   1.181   0.209  0.7252 -0.1015 -0.5850
  731SOL     OW 2921   2.793   1.916   2.863 -1.0021 -0.3524 -0.3199
  731SOL    HW1 2922   2.735   1.938   2.787 -1.3818 -0.0139 -0.9760
  731SOL    HW2 2923   2.850   1.991   2.853 -0.1320  1.9384 -0.5247
  731SOL     MW 2924   2.793   1.929   2.851 -0.9374 -0.0055 -0.4335
  732SOL     OW 2925   2.213   1.009   1.337 -0.1027  0.0141  0.7224
  732SOL    HW1 2926   2.177   1.011   1.424  0.0908 -0.9939  0.6989
  732SOL    HW2 2927   2.293   0.959   1.340  1.2540  0.9028  0.8352
  732SOL     MW 2928   2.219   1.003   1.349  0.1018 -0.0017  0.7342
  733SOL     OW 2929   2.355   2.742   3.026  0.2304  0.1894 -0.3595
  733SOL    HW1 2930   2.263   2.779   3.007  0.3432  1.4044 -2.9055
  733SOL    HW2 2931   2.344   2.647   3.018  1.9555  0.4307  1.3674
  733SOL     MW 2932   2.341   2.734   3.022  0.4729  0.3815 -0.4675
  734SOL     OW 2933   1.455   0.379   2.446  0.0979 -0.8789  0.0741
  734SOL    HW1 2934   1.452   0.336   2.530 -1.1253 -1.2264 -0.9901
  734SOL    HW2 2935   1.506   0.312   2.392  0.2302 -2.1265  0.6952
  734SOL     MW 2936   1.461   0.364   2.450 -0.0461 -1.0893  0.0157
  735SOL     OW 2937   2.917   0.884   2.606 -0.0512  0.2188  0.2693
  735SOL    HW1 2938   2.913   0.788   2.594 -1.8339  0.4495  0.5087
  735SOL    HW2 2939   2.924   0.899   2.702  1.7693  0.7725 -1.1775
  735SOL     MW 2940   2.917   0.874   2.617 -0.0462  0.3223  0.1100
  736SOL     OW 2941   0.111   0.572   2.501 -0.5016  0.0599 -0.5348
  736SOL    HW1 2942   0.172   0.638   2.484 -0.5969  0.1782 -1.1781
  736SOL    HW2 2943   0.098   0.524   2.421 -1.4329  0.5877 -0.7336
  736SOL     MW 2944   0.118   0.574   2.488 -0.6371  0.1451 -0.6459
  737SOL     OW 2945   2.927   0.618   2.545 -0.2238 -0.1171 -0.2649
  737SOL    HW1 2946   2.858   0.588   2.482  0.9581  2.4604 -0.7852
  737SOL    HW2 2947   3.018   0.611   2.518 -0.9835  0.0716  1.4230
  737SOL     MW 2948   2.930   0.613   2.533 -0.1681  0.2479 -0.1108
  738SOL     OW 2949   0.209   0.584   1.867 -0.0951  0.2391 -0.2603
  738SOL    HW1 2950   0.299   0.603   1.879 -0.0665 -1.7333  2.8261
  738SOL    HW2 2951   0.205   0.497   1.815 -0.9420  0.9471 -0.2247
  738SOL     MW 2952   0.220   0.575   1.862 -0.2031  0.0723  0.1516
  739SOL     OW 2953   2.435   1.050   2.061  0.0460 -0.6224 -0.3435
  739SOL    HW1 2954   2.401   0.957   2.044  0.0562 -0.3805  2.4638
  739SOL    HW2 2955   2.498   1.059   1.989  0.2394 -0.1838 -0.9796
  739SOL     MW 2956   2.439   1.039   2.049  0.0729 -0.5326 -0.0570
  740SOL     OW 2957   0.266   1.761   2.984  0.6255 -0.0727 -0.3140
  740SOL    HW1 2958   0.202   1.691   2.978  1.6605  0.2527 -0.1653
  740SOL    HW2 2959   0.359   1.731   3.001  0.9182  0.1507  1.9910
  740SOL     MW 2960   0.270   1.748   2.986  0.8007 -0.0003  0.0097
  741SOL     OW 2961   2.262   1.207   2.731 -0.1921 -0.9456  0.1323
  741SOL    HW1 2962   2.206   1.266   2.682 -4.1286 -1.5138  0.2383
  741SOL    HW2 2963   2.242   1.223   2.825  2.6943  2.8407  2.2218
  741SOL     MW 2964   2.252   1.217   2.737 -0.3307 -0.5210  0.4220
  742SOL     OW 2965   1.511   1.258   2.218 -0.1996 -0.2118  0.2854
  742SOL    HW1 2966   1.468   1.176   2.196  2.7421 -0.3985  0.6005
  742SOL    HW2 2967   1.560   1.235   2.297 -1.6090  0.9688 -0.0132
  742SOL     MW 2968   1.512   1.244   2.226  0.0026 -0.0806  0.2876
  743SOL     OW 2969   2.536   1.262   2.753  0.0170  0.1184 -0.4696
  743SOL    HW1 2970   2.438   1.240   2.740 -1.6685 -1.1399 -1.3583
  743SOL    HW2 2971   2.562   1.188   2.806 -0.0604  3.6697 -4.4775
  743SOL     MW 2972   2.526   1.249   2.758 -0.2156  0.4210 -1.1156
  744SOL     OW 2973   2.757   0.955   1.758 -0.2960  0.1300  0.7198
  744SOL    HW1 2974   2.688   1.009   1.801 -0.4538 -3.1968  0.7132
  744SOL    HW2 2975   2.717   0.948   1.668 -2.5904  1.3128  1.2246
  744SOL     MW 2976   2.743   0.962   1.752 -0.6196 -0.1528  0.7855
  745SOL     OW 2977   1.741   0.449   2.499  0.3262  0.0868 -0.2366
  745SOL    HW1 2978   1.744   0.486   2.413 -2.5588  2.1095  2.5959
  745SOL    HW2 2979   1.663   0.397   2.492  1.5137  0.6423  2.7793
  745SOL     MW 2980   1.731   0.447   2.487  0.1023  0.4269  0.5350
  746SOL     OW 2981   1.546   1.430   1.605  0.2277 -0.1317 -0.2217
  746SOL    HW1 2982   1.638   1.452   1.621  1.6468  1.6648  2.0045
  746SOL    HW2 2983   1.512   1.395   1.689  1.8061  0.1389  1.6864
  746SOL     MW 2984   1.554   1.428   1.618  0.6232  0.1410  0.3237
  747SOL     OW 2985   2.549   1.123   1.807  0.4820  0.0395 -0.7018
  747SOL    HW1 2986   2.460   1.138   1.788  1.0375  1.5748 -2.0886
  747SOL    HW2 2987   2.583   1.188   1.868  3.2269 -1.6281 -0.4353
  747SOL     MW 2988   2.542   1.134   1.813  0.9175  0.0221 -0.8496
  748SOL     OW 2989   0.129   0.059   1.810  0.3990 -0.2875 -0.2565
  748SOL    HW1 2990   0.199   0.021   1.863 -1.2388  0.1513 -0.7026
  748SOL    HW2 2991   0.070   0.098   1.873  0.3986  0.1185 -2.2406
  748SOL     MW 2992   0.130   0.059   1.825  0.1829 -0.1760 -0.5771
  749SOL     OW 2993   2.431   0.578   2.789  0.2993 -0.0065 -0.2032
  749SOL    HW1 2994   2.424   0.604   2.697 -1.0386 -0.9910  1.5177
  749SOL    HW2 2995   2.455   0.660   2.846  2.5978  0.5537 -0.9515
  749SOL     MW 2996   2.434   0.592   2.785  0.4260 -0.0625 -0.0749
  750SOL     OW 2997   2.062   0.014   1.954 -0.1808 -0.4607  0.2452
  750SOL    HW1 2998   2.118   0.089   1.959 -2.3985 -1.4407  0.3928
  750SOL    HW2 2999   2.121  -0.063   1.960 -0.5792  0.0504  1.1077
  750SOL     MW 3000   2.077   0.014   1.955 -0.5260 -0.5226  0.3785
  751SOL     OW 3001   0.018   0.391   2.286  0.3082 -0.2798 -0.4085
  751SOL    HW1 3002  -0.042   0.315   2.310  2.5836 -0.2583  0.3001
  751SOL    HW2 3003   0.089   0.341   2.244  0.1771 -2.0613  0.7510
  751SOL     MW 3004   0.019   0.375   2.284  0.5911 -0.5120 -0.1620
  752SOL     OW 3005   2.108   0.817   2.723  0.0260 -0.5629  0.0544
  752SOL    HW1 3006   2.186   0.855   2.680 -0.0363 -0.7417 -0.4963
  752SOL    HW2 3007   2.121   0.835   2.813 -0.1523 -1.8359 -1.1239
  752SOL     MW 3008   2.120   0.824   2.729 -0.0057 -0.7544 -0.1737
  753SOL     OW 3009   2.906   0.255   2.360  0.3102 -0.0830  0.1831
  753SOL    HW1 3010   2.836   0.202   2.322  1.2614 -1.0217  0.8568
  753SOL    HW2 3011   2.859   0.340   2.361 -1.6524  1.6749 -1.0643
  753SOL     MW 3012   2.890   0.259   2.355  0.1768  0.0251  0.1074
  754SOL     OW 3013   2.239   2.992   2.671  0.3315 -0.2691 -0.1919
  754SOL    HW1 3014   2.269   3.001   2.575 -0.7293 -0.6251 -2.0001
  754SOL    HW2 3015   2.301   2.933   2.719  1.9698 -0.9502 -0.6206
  754SOL     MW 3016   2.251   2.986   2.665  0.4077 -0.4060 -0.4870
  755SOL     OW 3017   2.723   1.591   2.451 -0.3073  0.0916  0.2718
  755SOL    HW1 3018   2.744   1.527   2.517 -1.6783  2.6617  1.0484
  755SOL    HW2 3019   2.754   1.665   2.498  0.6738  0.3136  1.7158
  755SOL     MW 3020   2.730   1.592   2.466 -0.3587  0.4600  0.5648
  756SOL     OW 3021   2.240   1.346   2.999  0.3190 -0.1882 -0.9954
  756SOL    HW1 3022   2.311   1.412   3.002  2.0865  0.2883  0.0668
  756SOL    HW2 3023   2.289   1.272   3.044  0.6660 -1.5432 -2.4432
  756SOL     MW 3024   2.255   1.345   3.005  0.5980 -0.3041 -1.0463
  757SOL     OW 3025   2.083   0.987   1.597  0.0516  0.0677 -0.5792
  757SOL    HW1 3026   2.111   0.897   1.593 -1.4843  1.3026 -1.8537
  757SOL    HW2 3027   1.989   0.984   1.585  2.1267 -0.1285  0.1386
  757SOL     MW 3028   2.074   0.975   1.595  0.1227  0.2047 -0.6526
  758SOL     OW 3029   2.181   1.793   2.627  0.5187  0.3910 -0.8884
  758SOL    HW1 3030   2.156   1.818   2.537  0.0469 -1.9902 -1.2278
  758SOL    HW2 3031   2.274   1.785   2.613 -2.2495  0.6539 -1.2823
  758SOL     MW 3032   2.190   1.795   2.614  0.0912  0.1115 -0.9852
  759SOL     OW 3033   1.565   1.339   2.720  0.2272  0.4753  0.2883
  759SOL    HW1 3034   1.537   1.426   2.696 -0.6702  0.0314  0.5055
  759SOL    HW2 3035   1.651   1.350   2.770  1.0673  0.8537 -2.3062
  759SOL     MW 3036   1.573   1.352   2.724  0.2196  0.4666 -0.0254
  760SOL     OW 3037   2.552   1.958   2.717 -0.4718  0.2307  0.5468
  760SOL    HW1 3038   2.518   1.872   2.689 -1.6440 -5.0485 -3.0631
  760SOL    HW2 3039   2.594   2.003   2.643  0.8487  3.2713 -1.3571
  760SOL     MW 3040   2.553   1.953   2.704 -0.4522 -0.0647 -0.1807
  761SOL     OW 3041   2.072   0.420   2.460  0.1975 -0.1626  0.1687
  761SOL    HW1 3042   2.018   0.337   2.462 -3.3555 -2.4298  2.3236
  761SOL    HW2 3043   2.075   0.438   2.551  0.6744  3.8051 -1.1563
  761SOL     MW 3044   2.065   0.412   2.472 -0.2083  0.0618  0.2782
  762SOL     OW 3045   3.086   0.177   2.013 -0.1768 -0.5828 -0.3913
  762SOL    HW1 3046   3.084   0.138   2.097 -1.6907  2.1799  0.3741
  762SOL    HW2 3047   3.048   0.264   2.016 -1.4863 -1.3205  0.5565
  762SOL     MW 3048   3.080   0.183   2.025 -0.5493 -0.3156 -0.1653
  763SOL     OW 3049   2.412   1.057   2.341  0.1989 -0.4893  0.0431
  763SOL    HW1 3050   2.431   1.042   2.244  0.7361  0.8383 -0.9786
  763SOL    HW2 3051   2.475   1.129   2.356  0.2014  0.5682 -1.6907
  763SOL     MW 3052   2.423   1.065   2.330  0.2701 -0.1746 -0.3204
  764SOL     OW 3053   0.386   0.232   2.774  0.4724  0.2374  0.1752
  764SOL    HW1 3054   0.305   0.244   2.725  1.0403 -1.0061 -2.7371
  764SOL    HW2 3055   0.392   0.310   2.833  2.6916  0.3420 -1.3536
  764SOL     MW 3056   0.376   0.244   2.775  0.8401  0.0871 -0.4107
  765SOL     OW 3057   2.701   0.092   2.264  0.1507 -0.3093 -0.0899
  765SOL    HW1 3058   2.634   0.070   2.195  1.1583 -1.4370 -0.2315
  765SOL    HW2 3059   2.745   0.005   2.278  1.4760  0.3371 -0.4569
  765SOL     MW 3060   2.698   0.077   2.257  0.4585 -0.3728 -0.1570
  766SOL     OW 3061   1.847   3.033   2.153  0.4238  0.0422  0.1664
  766SOL    HW1 3062   1.908   3.073   2.086 -0.4217  2.4548  0.5716
  766SOL    HW2 3063   1.807   2.955   2.109  1.4772  0.5489 -3.0192
  766SOL     MW 3064   1.850   3.028   2.139  0.4513  0.4274 -0.2004
  767SOL     OW 3065   2.646   0.647   1.952 -0.2546  0.0460  0.1927
  767SOL    HW1 3066   2.673   0.729   1.987  0.6479  0.0584 -1.9360
  767SOL    HW2 3067   2.556   0.633   1.982 -2.6346  1.6219  0.4506
  767SOL     MW 3068   2.638   0.656   1.961 -0.4495  0.2556 -0.0541
  768SOL     OW 3069   0.063   1.553   2.965 -0.8364  0.1864 -0.1348
  768SOL    HW1 3070   0.085   1.515   3.053 -0.6529 -1.9514  0.0537
  768SOL    HW2 3071   0.106   1.500   2.892  0.6835 -2.4025  0.4449
  768SOL     MW 3072   0.072   1.541   2.967 -0.6117 -0.4372 -0.0335
  769SOL     OW 3073   2.355   0.694   2.304 -0.4864 -0.0043 -0.6834
  769SOL    HW1 3074   2.274   0.649   2.297  0.2914  2.1784 -4.1526
  769SOL    HW2 3075   2.423   0.624   2.286  1.2953  1.7988  1.7295
  769SOL     MW 3076   2.353   0.679   2.301 -0.1487  0.5216 -0.8228
  770SOL     OW 3077   0.086   1.698   2.600  0.2482 -0.1529  0.2793
  770SOL    HW1 3078  -0.014   1.707   2.619 -1.5791 -1.9626  1.4403
  770SOL    HW2 3079   0.109   1.625   2.650  1.2978 -0.5564 -0.0294
  770SOL     MW 3080   0.076   1.690   2.609  0.1456 -0.4449  0.3918
  771SOL     OW 3081   3.023   0.643   1.941  0.0543 -0.1733  0.6663
  771SOL    HW1 3082   2.955   0.647   1.867 -2.2767  0.7884 -2.2291
  771SOL    HW2 3083   3.105   0.619   1.901 -1.4110  0.0601  0.3169
  771SOL     MW 3084   3.025   0.640   1.926 -0.4466 -0.0156  0.2382
  772SOL     OW 3085   3.070   0.016   2.244 -0.1603  0.0519 -0.1968
  772SOL    HW1 3086   2.985  -0.009   2.286  1.6297 -0.9715 -0.1782
  772SOL    HW2 3087   3.122  -0.058   2.217  1.7260 -0.6228  2.9774
  772SOL     MW 3088   3.066   0.003   2.246  0.3248 -0.1721  0.2245
  773SOL     OW 3089   2.415   2.798   2.772 -0.0826  0.1530 -0.0045
  773SOL    HW1 3090   2.406   2.710   2.733  2.1626  2.5627  1.1233
  773SOL    HW2 3091   2.372   2.785   2.860  2.5935 -0.0098  0.4350
  773SOL     MW 3092   2.408   2.785   2.779  0.5667  0.4495  0.2023
  774SOL     OW 3093   2.277   1.177   1.772 -0.1631 -0.4782 -0.4501
  774SOL    HW1 3094   2.283   1.257   1.723  0.5116 -0.4612  1.2124
  774SOL    HW2 3095   2.213   1.120   1.723 -1.0672 -1.2932  1.0857
  774SOL     MW 3096   2.269   1.180   1.759 -0.1933 -0.5835 -0.0281
  775SOL     OW 3097   2.267   2.972   2.388 -0.0176 -0.0796 -0.0120
  775SOL    HW1 3098   2.283   3.046   2.333 -1.9468  0.9632 -0.6551
  775SOL    HW2 3099   2.330   2.912   2.348 -2.8550 -0.1280  0.7503
  775SOL     MW 3100   2.277   2.974   2.376 -0.6465  0.0516  0.0037
  776SOL     OW 3101   0.094   1.441   0.173 -0.2494 -0.1786  0.1934
  776SOL    HW1 3102   0.175   1.391   0.169 -3.6556 -0.4348 -0.9567
  776SOL    HW2 3103   0.019   1.388   0.183  2.1080 -0.9223 -0.1732
  776SOL     MW 3104   0.095   1.427   0.174 -0.3878 -0.3105 -0.0067
  777SOL     OW 3105   2.986   1.092   1.686  0.4358  0.7203  0.1696
  777SOL    HW1 3106   2.954   1.174   1.657  0.4491 -0.2137 -0.6840
  777SOL    HW2 3107   2.909   1.041   1.703 -0.1868  0.3261 -1.7749
  777SOL     MW 3108   2.971   1.096   1.685  0.3554  0.5451 -0.1996
  778SOL     OW 3109   2.889   0.441   2.741  0.2411 -0.5274  0.2579
  778SOL    HW1 3110   2.819   0.467   2.808 -0.1755 -1.0118 -1.7354
  778SOL    HW2 3111   2.899   0.515   2.668  0.8458  1.5366 -2.1989
  778SOL     MW 3112   2.881   0.454   2.740  0.2659 -0.3190 -0.3292
  779SOL     OW 3113   2.091   0.597   2.267  0.2848 -0.4002  0.4183
  779SOL    HW1 3114   2.042   0.681   2.283  0.0264  3.1622 -0.7632
  779SOL    HW2 3115   2.071   0.538   2.343  0.0874  3.8952 -2.7517
  779SOL     MW 3116   2.082   0.601   2.279  0.2246  0.6365 -0.1558
  780SOL     OW 3117   0.107   0.200   2.758  0.3614 -0.6627 -0.1971
  780SOL    HW1 3118   0.098   0.228   2.851  3.2152 -0.1053  0.3772
  780SOL    HW2 3119   0.023   0.203   2.715  0.3213  1.9618  0.7948
  780SOL     MW 3120   0.095   0.204   2.765  0.7326 -0.2429  0.0096
  781SOL     OW 3121   3.042   1.318   2.551  0.0211  0.0006 -0.6276
  781SOL    HW1 3122   3.064   1.363   2.470  0.5393 -0.1073  0.8175
  781SOL    HW2 3123   3.047   1.223   2.530 -2.6286 -1.7757  0.4917
  781SOL     MW 3124   3.046   1.312   2.537 -0.2601 -0.2480 -0.2892
  782SOL     OW 3125   0.769   1.475   3.073  0.1166  0.4988  0.1036
  782SOL    HW1 3126   0.687   1.518   3.096 -2.0878  1.6248  3.6659
  782SOL    HW2 3127   0.823   1.484   3.154 -0.1092 -0.6152  0.5237
  782SOL     MW 3128   0.765   1.482   3.087 -0.2040  0.5004  0.6290
  783SOL     OW 3129   2.761   0.467   2.395  0.1712 -0.1093  0.1018
  783SOL    HW1 3130   2.699   0.495   2.330  0.8778  0.8334 -0.1773
  783SOL    HW2 3131   2.706   0.435   2.467  1.3062 -0.3753 -0.6581
  783SOL     MW 3132   2.746   0.466   2.396  0.4142 -0.0200 -0.0353
  784SOL     OW 3133   0.203   0.816   2.861  0.0603 -0.1352  0.8194
  784SOL    HW1 3134   0.159   0.898   2.888 -2.7519  1.1348  2.6559
  784SOL    HW2 3135   0.247   0.841   2.785  0.6744 -0.5943  0.0884
  784SOL     MW 3136   0.203   0.830   2.854 -0.2297 -0.0282  0.9652
  785SOL     OW 3137   0.418   0.500   2.171 -0.0459 -0.1526  0.4615
  785SOL    HW1 3138   0.431   0.546   2.087 -2.1806 -0.1347 -0.2341
  785SOL    HW2 3139   0.337   0.444   2.169 -1.9182 -2.9995 -0.4223
  785SOL     MW 3140   0.409   0.499   2.159 -0.5746 -0.5259  0.2531
  786SOL     OW 3141   2.013   0.388   2.925  0.1019  0.1464 -0.0950
  786SOL    HW1 3142   1.971   0.447   2.987 -2.4502  3.9992  2.4080
  786SOL    HW2 3143   2.082   0.441   2.893  0.1821  0.5291 -0.9337
  786SOL     MW 3144   2.017   0.403   2.929 -0.2243  0.7052  0.1246
  787SOL     OW 3145   2.422   0.206   2.883  0.3256 -0.9599 -0.0045
  787SOL    HW1 3146   2.459   0.126   2.860 -3.6709  1.2104  0.6066
  787SOL    HW2 3147   2.467   0.244   2.959  1.0338  0.8961  1.0210
  787SOL     MW 3148   2.433   0.200   2.890 -0.1083 -0.4286  0.2114
  788SOL     OW 3149   2.860   2.981   2.371  0.2137 -0.3468  0.3420
  788SOL    HW1 3150   2.846   2.968   2.460 -0.8367  2.1419 -2.3064
  788SOL    HW2 3151   2.870   2.892   2.327 -0.3720 -0.6777 -5.1590
  788SOL     MW 3152   2.859   2.968   2.377 -0.0021 -0.0621 -0.7332
  789SOL     OW 3153   0.017   0.257   3.035 -0.0355  1.0597 -0.4910
  789SOL    HW1 3154  -0.043   0.181   3.051  1.3649  2.4072  1.0021
  789SOL    HW2 3155  -0.033   0.326   2.992 -1.7852  2.3113 -3.2749
  789SOL     MW 3156   0.002   0.256   3.031 -0.0816  1.4027 -0.6613
  790SOL     OW 3157   3.063   1.062   2.450 -0.2802 -0.2524  0.7007
  790SOL    HW1 3158   3.009   0.994   2.507  1.4675 -0.9480  1.0197
  790SOL    HW2 3159   3.034   1.049   2.356 -0.4883  1.7560 -1.2407
  790SOL     MW 3160   3.052   1.051   2.445 -0.0771 -0.0792  0.4867
  791SOL     OW 3161   2.633   0.383   2.616  0.0158  0.1840  0.0985
  791SOL    HW1 3162   2.551   0.416   2.653  2.0831  1.9563  1.1378
  791SOL    HW2 3163   2.697   0.373   2.691  0.7886 -0.2819  2.4558
  791SOL     MW 3164   2.631   0.386   2.631  0.3905  0.3564  0.5466
  792SOL     OW 3165   2.328   0.310   2.382  0.0901 -0.2500 -0.6700
  792SOL    HW1 3166   2.239   0.331   2.411  0.6031 -0.7493  2.0283
  792SOL    HW2 3167   2.357   0.256   2.455 -0.1432 -1.1867  1.2619
  792SOL     MW 3168   2.320   0.306   2.396  0.1270 -0.4395 -0.0591
  793SOL     OW 3169   1.798   1.040   1.960  0.2057 -0.8255  0.1499
  793SOL    HW1 3170   1.783   1.088   1.880 -2.1158 -3.6096  0.3181
  793SOL    HW2 3171   1.891   1.000   1.949  5.4503 -0.1130  0.8089
  793SOL     MW 3172   1.808   1.041   1.948  0.5913 -1.0988  0.2590
  794SOL     OW 3173   1.421   2.272   0.176 -0.0045  0.5422 -0.2133
  794SOL    HW1 3174   1.445   2.335   0.100 -0.0919  0.2740  0.1537
  794SOL    HW2 3175   1.494   2.281   0.232 -1.1719  1.2665  0.7015
  794SOL     MW 3176   1.434   2.281   0.173 -0.1701  0.6024 -0.0442
  795SOL     OW 3177   2.347   0.947   2.635  0.0745  0.3049 -0.0901
  795SOL    HW1 3178   2.298   1.024   2.669  1.8214 -1.5227  2.3080
  795SOL    HW2 3179   2.400   0.996   2.573  0.2591  0.2184 -1.2984
  795SOL     MW 3180   2.348   0.963   2.631  0.3294  0.0524  0.0669
  796SOL     OW 3181   0.286   0.573   2.753  0.1905  0.0672  0.1454
  796SOL    HW1 3182   0.238   0.640   2.797  0.8149  0.8089 -0.5490
  796SOL    HW2 3183   0.228   0.553   2.677 -1.5238 -1.5930  2.8536
  796SOL     MW 3184   0.272   0.579   2.749  0.0467 -0.0540  0.4111
  797SOL     OW 3185   2.589   0.127   2.530 -0.0522 -0.4325 -0.8454
  797SOL    HW1 3186   2.618   0.214   2.548  2.5699  2.0745  0.3961
  797SOL    HW2 3187   2.633   0.113   2.443 -2.1168  1.5045  2.1698
  797SOL     MW 3188   2.599   0.137   2.521  0.0214  0.1538 -0.2838
  798SOL     OW 3189   2.326   0.074   2.237 -0.1918 -0.0173  0.2586
  798SOL    HW1 3190   2.317   0.162   2.275  0.0114 -1.9589  1.5485
  798SOL    HW2 3191   2.395   0.068   2.165 -0.3430 -1.0100 -0.1461
  798SOL     MW 3192   2.334   0.085   2.232 -0.1850 -0.4045  0.3754
  799SOL     OW 3193   2.513   2.977   0.024 -0.1779 -0.3063  0.7502
  799SOL    HW1 3194   2.463   2.895   0.028 -1.1047  1.6703  0.1097
  799SOL    HW2 3195   2.453   3.044  -0.001 -0.5683  1.2182 -0.2358
  799SOL     MW 3196   2.499   2.975   0.021 -0.3517  0.1556  0.5356
  800SOL     OW 3197   1.900   0.016   1.731 -0.7179 -0.1634  0.2428
  800SOL    HW1 3198   1.843  -0.062   1.745 -1.1326 -0.8946 -1.6855
  800SOL    HW2 3199   1.966   0.005   1.797 -2.2077 -1.3222  3.3931
  800SOL     MW 3200   1.901   0.004   1.741 -0.9692 -0.4128  0.4040
  801SOL     OW 3201   2.778   1.288   2.561 -0.2805 -0.3099 -0.0023
  801SOL    HW1 3202   2.749   1.197   2.578 -0.6259 -2.9470 -0.4683
  801SOL    HW2 3203   2.877   1.300   2.549 -1.8373  0.2716 -0.3602
  801SOL     MW 3204   2.787   1.278   2.562 -0.5315 -0.5812 -0.1110
  802SOL     OW 3205   2.622   1.547   2.770 -0.0384  0.5245  0.1319
  802SOL    HW1 3206   2.593   1.453   2.754 -1.7821 -0.0199 -2.0332
  802SOL    HW2 3207   2.712   1.549   2.792 -0.8686 -1.3858  0.4031
  802SOL     MW 3208   2.630   1.535   2.771 -0.3780  0.2006 -0.1180
  803SOL     OW 3209   2.254   1.385   1.983  0.1768  0.4395  1.2855
  803SOL    HW1 3210   2.230   1.357   2.073  0.4604 -1.7027 -1.4805
  803SOL    HW2 3211   2.228   1.317   1.917 -2.0458  2.3217 -1.4242
  803SOL     MW 3212   2.248   1.373   1.986 -0.0790  0.4052  0.5631
  804SOL     OW 3213   2.304   0.063   3.077 -0.4984  0.4460  0.0886
  804SOL    HW1 3214   2.223   0.111   3.106 -0.7273  1.9785  2.2036
  804SOL    HW2 3215   2.331   0.109   3.001  0.6822 -0.9092 -0.0653
  804SOL     MW 3216   2.297   0.076   3.070 -0.3728  0.4694  0.3473
  805SOL     OW 3217   2.686   1.026   2.568  0.4408 -0.4285 -0.1563
  805SOL    HW1 3218   2.685   1.016   2.473  1.9168 -0.8268 -0.0698
  805SOL    HW2 3219   2.769   0.975   2.586  0.2759  1.4248  2.0844
  805SOL     MW 3220   2.697   1.018   2.558  0.6138 -0.2365  0.1507
  806SOL     OW 3221   2.523   0.487   2.258  0.2474 -0.2967  0.2956
  806SOL    HW1 3222   2.468   0.412   2.285 -1.8025  1.9623  0.6581
  806SOL    HW2 3223   2.516   0.488   2.162  3.1534 -4.9396  1.2358
  806SOL     MW 3224   2.515   0.477   2.249  0.3604 -0.6112  0.4675
  807SOL     OW 3225   0.065   1.131   2.071  0.4617  0.4488  0.0352
  807SOL    HW1 3226   0.078   1.044   2.043  0.9203  0.4015 -1.0358
  807SOL    HW2 3227  -0.014   1.110   2.124 -1.3130 -0.6540  0.8229
  807SOL     MW 3228   0.056   1.117   2.075  0.2881  0.2971 -0.0022
  808SOL     OW 3229   2.547   3.070   2.757 -0.2869 -0.2028  0.1026
  808SOL    HW1 3230   2.524   2.978   2.736 -0.4198 -0.6821 -0.3284
  808SOL    HW2 3231   2.557   3.112   2.672 -1.5900 -2.2332  0.5369
  808SOL     MW 3232   2.545   3.063   2.743 -0.4764 -0.5339  0.1030
  809SOL     OW 3233   2.536   1.318   2.419 -0.4370  0.5283 -0.1099
  809SOL    HW1 3234   2.616   1.327   2.478 -1.1067  1.4885 -0.5529
  809SOL    HW2 3235   2.564   1.326   2.330 -2.3451 -1.3282  0.4697
  809SOL     MW 3236   2.550   1.320   2.415 -0.7771  0.4100 -0.0919
  810SOL     OW 3237   2.214   1.282   2.248  0.4973  0.1524 -0.3809
  810SOL    HW1 3238   2.284   1.216   2.247 -0.7882 -0.1035  0.2248
  810SOL    HW2 3239   2.132   1.229   2.256 -1.9747 -2.5223 -1.5688
  810SOL     MW 3240   2.212   1.267   2.249  0.0015 -0.2343 -0.4577
  811SOL     OW 3241   1.549   0.161   2.311 -0.1003  0.5641 -0.1579
  811SOL    HW1 3242   1.601   0.084   2.347  0.1177 -4.1315  1.1854
  811SOL    HW2 3243   1.574   0.172   2.219 -0.6625  2.7811 -1.1241
  811SOL     MW 3244   1.560   0.153   2.304 -0.1457  0.2371 -0.1081
  812SOL     OW 3245   1.491   2.869   2.128 -0.3967 -0.0103  0.0260
  812SOL    HW1 3246   1.581   2.858   2.080  1.3868  0.1416 -2.0427
  812SOL    HW2 3247   1.505   2.829   2.216  2.6704 -1.5094  1.8752
  812SOL     MW 3248   1.504   2.862   2.134  0.2433 -0.1880 -0.0030
  813SOL     OW 3249   1.861   0.751   2.168 -1.0260  0.0165 -0.1433
  813SOL    HW1 3250   1.841   0.656   2.185  1.7805  1.0077  0.1684
  813SOL    HW2 3251   1.877   0.785   2.260  0.1090 -1.4012  1.2050
  813SOL     MW 3252   1.861   0.743   2.182 -0.5060 -0.0397  0.0757
  814SOL     OW 3253   2.760   1.268   1.603  0.5934 -0.0981  0.0448
  814SOL    HW1 3254   2.668   1.240   1.612  0.4890 -0.9546  0.7061
  814SOL    HW2 3255   2.794   1.228   1.518 -1.6436  1.0449  2.2275
  814SOL     MW 3256   2.752   1.259   1.593  0.2845 -0.0603  0.4200
  815SOL     OW 3257   2.468   1.652   2.346 -0.1939 -0.2850  0.6398
  815SOL    HW1 3258   2.416   1.574   2.336  0.3567  2.0254  0.8895
  815SOL    HW2 3259   2.563   1.619   2.360  2.9175  0.2179  1.2377
  815SOL     MW 3260   2.474   1.637   2.346  0.2893  0.0862  0.7516
  816SOL     OW 3261   0.781   0.681   2.737 -0.0040  0.3771 -0.4551
  816SOL    HW1 3262   0.779   0.600   2.792 -1.9304 -0.5635  1.5385
  816SOL    HW2 3263   0.693   0.708   2.721  1.1903  0.7659  1.3906
  816SOL     MW 3264   0.769   0.674   2.742 -0.1006  0.3043  0.0515
  817SOL     OW 3265   3.036   1.276   1.482 -0.7811  0.4390 -0.4788
  817SOL    HW1 3266   3.120   1.263   1.524  0.2990 -0.7043 -1.6372
  817SOL    HW2 3267   3.029   1.363   1.443 -1.7645  2.7293  1.5314
  817SOL     MW 3268   3.046   1.286   1.483 -0.7683  0.5903 -0.3664
  818SOL     OW 3269   1.927   1.062   2.674  0.2786  0.1398 -0.1545
  818SOL    HW1 3270   1.945   1.091   2.584 -0.4873  1.8167  1.1421
  818SOL    HW2 3271   1.994   0.998   2.694  0.6187  0.7371 -0.4994
  818SOL     MW 3272   1.939   1.058   2.665  0.2224  0.4398 -0.0289
  819SOL     OW 3273   1.891   0.227   2.474 -0.2137  1.0170  0.1176
  819SOL    HW1 3274   1.856   0.319   2.479  0.4316 -0.6652 -4.3271
  819SOL    HW2 3275   1.931   0.210   2.564  0.5651 -1.8181  3.2310
  819SOL     MW 3276   1.892   0.237   2.487 -0.0258  0.4210 -0.0581
  820SOL     OW 3277   2.448   1.732   2.621  0.0046 -0.0961  0.5087
  820SOL    HW1 3278   2.509   1.674   2.664  1.8012  3.1748 -1.4021
  820SOL    HW2 3279   2.428   1.695   2.534 -0.1536  2.8289 -0.4944
  820SOL     MW 3280   2.453   1.720   2.615  0.2207  0.7214  0.1243
  821SOL     OW 3281   2.594   1.348   1.965  0.3777  0.5640  0.0515
  821SOL    HW1 3282   2.632   1.436   1.960 -3.3211 -0.3174  1.4984
  821SOL    HW2 3283   2.504   1.360   1.992  2.1519 -0.5184 -0.3646
  821SOL     MW 3284   2.587   1.361   1.968  0.1238  0.3049  0.1875
  822SOL     OW 3285   2.764   2.611   1.496  0.3739  0.1996 -0.1051
  822SOL    HW1 3286   2.812   2.640   1.572 -0.1092 -0.2805  3.0155
  822SOL    HW2 3287   2.723   2.687   1.450  0.8633 -1.0658  0.5907
  822SOL     MW 3288   2.765   2.625   1.500  0.3747 -0.0307  0.3985
  823SOL     OW 3289   2.260   0.498   1.771 -0.5608 -0.5736 -0.2703
  823SOL    HW1 3290   2.340   0.457   1.732  0.9782  1.9323 -0.0094
  823SOL    HW2 3291   2.181   0.451   1.754  0.8640 -0.8132  0.8905
  823SOL     MW 3292   2.260   0.487   1.764 -0.1698 -0.2746 -0.0827
  824SOL     OW 3293   2.082   1.375   2.577  0.0328 -0.0406  0.4248
  824SOL    HW1 3294   2.143   1.441   2.545  0.1443  0.8455  1.1720
  824SOL    HW2 3295   2.034   1.414   2.646  0.1448 -2.5724 -1.3613
  824SOL     MW 3296   2.083   1.389   2.582  0.0623 -0.2577  0.2877
  825SOL     OW 3297   2.015   2.581   0.275  1.0414  0.2442  0.6444
  825SOL    HW1 3298   2.009   2.522   0.349  1.1853  0.7421  2.5199
  825SOL    HW2 3299   2.077   2.532   0.218 -1.1630 -0.5024 -1.7146
  825SOL     MW 3300   2.022   2.566   0.277  0.7695  0.2114  0.5806
  826SOL     OW 3301   1.890   2.440   0.518  0.0989  0.8489  0.2984
  826SOL    HW1 3302   1.869   2.354   0.557  1.1420 -3.2464 -0.7985
  826SOL    HW2 3303   1.829   2.500   0.564  0.1033 -0.5352  1.9346
  826SOL     MW 3304   1.879   2.437   0.529  0.2371  0.1259  0.3695
  827SOL     OW 3305   1.940   2.194   0.937  0.5078  0.7039 -1.0668
  827SOL    HW1 3306   1.876   2.262   0.924  0.3463 -2.3201  2.0400
  827SOL    HW2 3307   1.874   2.124   0.962 -0.9226 -0.5694 -0.9616
  827SOL     MW 3308   1.923   2.194   0.939  0.2977  0.1369 -0.6430
  828SOL     OW 3309   0.040   2.672   0.591 -0.0353  0.7874  0.4680
  828SOL    HW1 3310   0.134   2.680   0.589  0.0415  0.9673  0.8529
  828SOL    HW2 3311   0.002   2.664   0.502 -2.7783  1.3220  0.4477
  828SOL     MW 3312   0.047   2.672   0.579 -0.3871  0.8816  0.5161
  829SOL     OW 3313   2.941   2.938   1.264  0.3123 -0.4700  0.2168
  829SOL    HW1 3314   2.887   2.939   1.182  0.3293  3.3582 -0.1383
  829SOL    HW2 3315   2.987   2.854   1.251 -0.3028 -0.9044  0.2020
  829SOL     MW 3316   2.940   2.927   1.252  0.2334 -0.0222  0.1680
  830SOL     OW 3317   2.506   2.847   2.028 -0.1777 -0.1934  0.3094
  830SOL    HW1 3318   2.419   2.864   1.991  2.1645 -0.9894 -1.0878
  830SOL    HW2 3319   2.563   2.819   1.959 -2.5437  1.8950  0.9318
  830SOL     MW 3320   2.502   2.846   2.014 -0.1809 -0.0229  0.2072
  831SOL     OW 3321   2.422   2.384   1.312  0.3931 -0.0185 -0.0593
  831SOL    HW1 3322   2.372   2.334   1.378 -2.7717 -0.8163 -1.4950
  831SOL    HW2 3323   2.504   2.336   1.291 -0.2567  0.2372 -1.5750
  831SOL     MW 3324   2.426   2.371   1.318 -0.1102 -0.0901 -0.4487
  832SOL     OW 3325   2.429   2.208   1.905 -0.3628  0.1961  0.0932
  832SOL    HW1 3326   2.437   2.300   1.950  0.1311  1.3633 -1.2123
  832SOL    HW2 3327   2.522   2.170   1.901 -0.7498 -1.6344  0.0252
  832SOL     MW 3328   2.443   2.215   1.910 -0.3487  0.1086 -0.0880
  833SOL     OW 3329   1.799   2.445   0.873  0.1697 -0.8290 -0.3823
  833SOL    HW1 3330   1.721   2.391   0.906 -2.1090  1.4963  1.7369
  833SOL    HW2 3331   1.805   2.519   0.949 -1.4711  0.8443  2.3130
  833SOL     MW 3332   1.790   2.447   0.887 -0.3474 -0.3014  0.2530
  834SOL     OW 3333   2.242   2.486   0.594 -0.1492  0.3449 -0.6573
  834SOL    HW1 3334   2.179   2.433   0.645 -0.0821 -2.7704 -0.3695
  834SOL    HW2 3335   2.281   2.431   0.516  1.7738 -1.6573 -2.4258
  834SOL     MW 3336   2.239   2.472   0.590  0.1134 -0.3303 -0.8527
  835SOL     OW 3337   1.745   2.606   0.659  0.5088 -0.2537  0.0405
  835SOL    HW1 3338   1.749   2.537   0.724  0.2750 -0.5421  1.5888
  835SOL    HW2 3339   1.821   2.672   0.678  1.8510  0.3540  1.2882
  835SOL     MW 3340   1.755   2.606   0.670  0.6550 -0.2116  0.4094
  836SOL     OW 3341   1.971   2.170   1.624  0.3610 -0.5989 -0.0437
  836SOL    HW1 3342   2.061   2.195   1.634  0.6518  1.0658  1.5610
  836SOL    HW2 3343   1.923   2.248   1.639 -0.5222 -0.7184 -0.6913
  836SOL     MW 3344   1.976   2.183   1.627  0.2828 -0.3950  0.0826
  837SOL     OW 3345   2.121   0.196   0.702 -0.0528 -0.5522  0.3701
  837SOL    HW1 3346   2.035   0.221   0.672  2.2576 -1.1991 -2.1320
  837SOL    HW2 3347   2.160   0.173   0.617 -0.1581  2.4413  2.0793
  837SOL     MW 3348   2.115   0.196   0.687  0.2381 -0.2426  0.2655
  838SOL     OW 3349   2.946   2.123   0.890  0.3054 -0.4947  0.1568
  838SOL    HW1 3350   2.879   2.076   0.945  0.7985 -0.2078 -0.9116
  838SOL    HW2 3351   2.973   2.054   0.830 -1.6366  0.8695  0.3246
  838SOL     MW 3352   2.941   2.108   0.889  0.1142 -0.2769  0.0380
  839SOL     OW 3353   1.542   2.354   0.920 -0.2932  0.1296 -0.2323
  839SOL    HW1 3354   1.515   2.447   0.913  2.5625  1.4961  0.3483
  839SOL    HW2 3355   1.550   2.325   1.010 -1.3072 -0.5852  1.5237
  839SOL     MW 3356   1.540   2.363   0.931 -0.0502  0.2156  0.0760
  840SOL     OW 3357   2.317   2.110   2.402 -0.3037  0.5893  0.2055
  840SOL    HW1 3358   2.289   2.158   2.322  0.6852 -0.0878  1.3545
  840SOL    HW2 3359   2.389   2.154   2.449 -1.8012 -0.8262 -1.8487
  840SOL     MW 3360   2.323   2.122   2.398 -0.3708  0.3132  0.0861
  841SOL     OW 3361   2.182   2.425   0.131  0.2228 -0.1686  0.4636
  841SOL    HW1 3362   2.212   2.449   0.042  2.7292  0.8964 -1.0226
  841SOL    HW2 3363   2.135   2.344   0.127  1.1504  0.1518 -0.1333
  841SOL     MW 3364   2.180   2.418   0.119  0.6759  0.0142  0.1888
  842SOL     OW 3365   2.669   1.992   1.569  0.0726  0.6794  0.0758
  842SOL    HW1 3366   2.597   1.933   1.603 -0.2015 -0.0381  1.6377
  842SOL    HW2 3367   2.639   2.032   1.492  1.6034 -1.9480  3.5462
  842SOL     MW 3368   2.656   1.990   1.563  0.2384  0.2381  0.7398
  843SOL     OW 3369   2.669   2.787   1.806 -0.1808  0.7862  0.1850
  843SOL    HW1 3370   2.744   2.737   1.772 -1.0610  1.2941 -0.8120
  843SOL    HW2 3371   2.599   2.742   1.767  0.2339  1.2713  3.2607
  843SOL     MW 3372   2.669   2.774   1.796 -0.2422  0.9172  0.4593
  844SOL     OW 3373   2.649   2.249   1.224  0.2914  0.5447 -0.0706
  844SOL    HW1 3374   2.673   2.309   1.151  0.5591  0.2853 -2.4538
  844SOL    HW2 3375   2.707   2.285   1.285 -0.6383  0.3203 -0.3398
  844SOL     MW 3376   2.660   2.262   1.223  0.2040  0.4809 -0.4206
  845SOL     OW 3377   2.875   2.469   0.287 -0.0752 -0.4575 -0.2470
  845SOL    HW1 3378   2.826   2.389   0.302 -1.7456 -0.9492  1.8256
  845SOL    HW2 3379   2.889   2.518   0.373 -3.7954  2.4600  0.7460
  845SOL     MW 3380   2.870   2.465   0.300 -0.7864 -0.1374  0.1574
  846SOL     OW 3381   1.513   2.858   0.787 -0.8617 -0.2674  0.0243
  846SOL    HW1 3382   1.584   2.908   0.830  0.3910  0.2861  0.3599
  846SOL    HW2 3383   1.432   2.903   0.812  1.2320  2.1545 -1.4820
  846SOL     MW 3384   1.512   2.871   0.796 -0.4202  0.1252 -0.1301
  847SOL     OW 3385   2.491   1.929   0.151 -0.4085  0.0988  0.1303
  847SOL    HW1 3386   2.553   1.868   0.184  1.2245  1.6255  1.3277
  847SOL    HW2 3387   2.459   1.899   0.067  3.4510  2.6978  1.9475
  847SOL     MW 3388   2.495   1.917   0.144  0.3162  0.6432  0.5280
  848SOL     OW 3389   2.525   2.053   1.357 -0.3018 -0.2093 -0.4717
  848SOL    HW1 3390   2.536   2.115   1.281  1.1437  0.6280 -0.5632
  848SOL    HW2 3391   2.475   1.981   1.321 -1.6601  2.0895  0.5229
  848SOL     MW 3392   2.520   2.052   1.342 -0.2903  0.2045 -0.3526
  849SOL     OW 3393   1.978   2.744   0.744  0.6099 -0.5735  0.1679
  849SOL    HW1 3394   2.012   2.673   0.796  0.2443  1.5772  0.1940
  849SOL    HW2 3395   2.047   2.756   0.680 -1.4476  0.6257  0.7454
  849SOL     MW 3396   1.991   2.736   0.743  0.2902 -0.1315  0.2475
  850SOL     OW 3397   2.232   1.926   1.692  0.5804 -0.4264  0.4305
  850SOL    HW1 3398   2.147   1.889   1.653 -3.3995  2.6983  0.3261
  850SOL    HW2 3399   2.214   2.021   1.682  1.1654  0.6501  0.7422
  850SOL     MW 3400   2.219   1.934   1.686  0.1325  0.1279  0.4578
  851SOL     OW 3401   2.332   2.364   0.357  0.1566 -0.0593  0.1549
  851SOL    HW1 3402   2.285   2.368   0.273 -0.8404 -1.6971  0.8924
  851SOL    HW2 3403   2.392   2.446   0.347  0.8094  0.6086 -1.3215
  851SOL     MW 3404   2.333   2.375   0.345  0.1112 -0.1873  0.0574
  852SOL     OW 3405   2.337   2.101   0.291 -0.1325  0.2076 -0.5281
  852SOL    HW1 3406   2.364   2.190   0.308 -3.1967  0.9798  2.4789
  852SOL    HW2 3407   2.392   2.044   0.230  2.3648 -1.3831  0.1142
  852SOL     MW 3408   2.347   2.105   0.285 -0.2073  0.0996 -0.0466
  853SOL     OW 3409   2.505   2.462   1.979 -0.0152  0.5825 -0.3560
  853SOL    HW1 3410   2.507   2.514   1.896  0.6664 -2.0364  0.5042
  853SOL    HW2 3411   2.589   2.463   2.028 -1.0260 -1.6190 -0.2262
  853SOL     MW 3412   2.516   2.469   1.975 -0.0587 -0.0535 -0.2254
  854SOL     OW 3413   2.825   2.341   0.764  0.2017 -0.3529  0.5178
  854SOL    HW1 3414   2.756   2.286   0.723  0.3141 -3.4283 -0.4261
  854SOL    HW2 3415   2.872   2.272   0.816 -1.3564 -0.6269 -0.0173
  854SOL     MW 3416   2.822   2.325   0.766  0.0109 -0.7948  0.3226
  855SOL     OW 3417   2.675   2.233   0.376 -0.4660  0.4130  0.2253
  855SOL    HW1 3418   2.652   2.277   0.454 -1.4775 -1.8868 -3.3992
  855SOL    HW2 3419   2.761   2.189   0.389 -1.2789 -0.5354 -0.4527
  855SOL     MW 3420   2.684   2.233   0.388 -0.7067 -0.0156 -0.3423
  856SOL     OW 3421   2.156   1.926   0.174 -0.4448 -0.6288  0.3391
  856SOL    HW1 3422   2.072   1.913   0.218 -1.5467 -1.3949 -1.9181
  856SOL    HW2 3423   2.183   2.010   0.207  0.3236 -0.9818  1.2464
  856SOL     MW 3424   2.148   1.935   0.184 -0.4888 -0.7765  0.1610
  857SOL     OW 3425   2.508   2.006   0.521 -0.0981  0.2322  0.2581
  857SOL    HW1 3426   2.492   2.060   0.452 -2.6909 -3.6677  1.3726
  857SOL    HW2 3427   2.450   1.927   0.515 -1.1511 -2.7931  0.4298
  857SOL     MW 3428   2.499   2.002   0.511 -0.5791 -0.6815  0.4278
  858SOL     OW 3429   2.892   2.645   1.748 -0.0135 -0.4246 -0.0255
  858SOL    HW1 3430   2.975   2.686   1.763 -1.0458  0.1657 -0.1589
  858SOL    HW2 3431   2.907   2.556   1.782  0.8153  0.0566  0.7602
  858SOL     MW 3432   2.905   2.639   1.754 -0.0404 -0.2832  0.0606
  859SOL     OW 3433   2.076   2.567   0.965 -0.0126  0.4484  0.0022
  859SOL    HW1 3434   2.037   2.510   1.029 -0.6476 -1.7787 -1.2228
  859SOL    HW2 3435   2.158   2.529   0.942 -0.5875 -0.2049  0.7536
  859SOL     MW 3436   2.081   2.555   0.971 -0.1723  0.0684 -0.0602
  860SOL     OW 3437   2.672   2.609   0.138 -0.4176 -0.6535 -0.1853
  860SOL    HW1 3438   2.749   2.599   0.198  1.2254  0.4223 -0.5743
  860SOL    HW2 3439   2.682   2.684   0.076  1.7888  2.2480 -3.2156
  860SOL     MW 3440   2.683   2.617   0.138  0.0903 -0.1287 -0.6364
  861SOL     OW 3441   1.605   2.125   1.142  0.6852  0.0238 -0.5968
  861SOL    HW1 3442   1.609   2.208   1.185  0.1471 -0.7763  1.3643
  861SOL    HW2 3443   1.550   2.068   1.195  0.6028 -1.2617 -2.2610
  861SOL     MW 3444   1.598   2.128   1.155  0.6033 -0.2513 -0.5576
  862SOL     OW 3445   2.469   1.796   1.561 -0.0592  0.0846  0.5873
  862SOL    HW1 3446   2.378   1.808   1.591  2.1104  1.2544 -1.0400
  862SOL    HW2 3447   2.476   1.826   1.470 -1.1613 -3.0854 -0.4865
  862SOL     MW 3448   2.458   1.801   1.553  0.0817 -0.1793  0.2309
  863SOL     OW 3449   2.985   1.817   1.046  0.6242  0.1384 -0.2034
  863SOL    HW1 3450   3.066   1.789   1.089 -1.2651  0.7302 -1.8039
  863SOL    HW2 3451   2.976   1.907   1.083  0.4716 -1.1401  1.1645
  863SOL     MW 3452   2.994   1.825   1.057  0.3548  0.0478 -0.2341
  864SOL     OW 3453   3.058   1.851   0.774  0.1350 -0.0991 -0.4004
  864SOL    HW1 3454   3.021   1.821   0.862 -1.8237 -0.3116 -0.8410
  864SOL    HW2 3455   3.011   1.785   0.714 -2.4439 -1.8059 -1.6752
  864SOL     MW 3456   3.047   1.838   0.778 -0.4637 -0.3524 -0.6267
  865SOL     OW 3457   2.566   2.167   0.025 -0.5958  0.8621 -0.1347
  865SOL    HW1 3458   2.541   2.088   0.075  2.0737  0.5676 -2.0992
  865SOL    HW2 3459   2.511   2.165  -0.054  1.2042 -0.9993 -1.0620
  865SOL     MW 3460   2.556   2.156   0.022 -0.0061  0.5777 -0.5163
  866SOL     OW 3461   2.671   2.379   1.676 -0.1775 -0.0804 -0.0138
  866SOL    HW1 3462   2.649   2.287   1.667  4.4207 -1.0146 -1.0596
  866SOL    HW2 3463   2.715   2.400   1.597 -1.4203  0.9619  0.6581
  866SOL     MW 3464   2.674   2.369   1.664  0.2652 -0.0661 -0.0631
  867SOL     OW 3465   0.039   2.738   1.814 -0.0178  0.0699  0.0360
  867SOL    HW1 3466   0.052   2.745   1.912 -0.4019  0.2552 -2.1787
  867SOL    HW2 3467   0.011   2.824   1.781  2.3637 -1.6107  0.1377
  867SOL     MW 3468   0.037   2.750   1.822  0.2457 -0.1274 -0.2428
  868SOL     OW 3469   2.833   2.599   0.540 -1.0308 -0.1178 -0.5522
  868SOL    HW1 3470   2.753   2.551   0.571 -0.8256 -0.5425  0.1936
  868SOL    HW2 3471   2.805   2.681   0.495 -0.4562 -0.3574 -0.5627
  868SOL     MW 3472   2.819   2.603   0.538 -0.9279 -0.2054 -0.4552
  869SOL     OW 3473   2.083   2.349   1.144  0.4594 -0.0796 -0.4032
  869SOL    HW1 3474   2.175   2.350   1.109  0.8381 -1.0440 -1.8403
  869SOL    HW2 3475   2.048   2.286   1.078 -1.2276 -1.4079  0.9512
  869SOL     MW 3476   2.091   2.341   1.131  0.2868 -0.3821 -0.4141
  870SOL     OW 3477   2.177   0.031   0.459 -0.1511  0.1665  0.0071
  870SOL    HW1 3478   2.247   0.070   0.402 -2.1408 -2.4716  1.4828
  870SOL    HW2 3479   2.211  -0.056   0.465 -0.1214  1.5520 -0.7174
  870SOL     MW 3480   2.191   0.024   0.453 -0.4097  0.0012  0.1062
  871SOL     OW 3481   2.516   2.100   0.951 -0.5181 -0.5362  0.2096
  871SOL    HW1 3482   2.464   2.040   0.898 -0.6799  0.0687 -4.5611
  871SOL    HW2 3483   2.466   2.180   0.965  0.7799 -0.3774  0.0537
  871SOL     MW 3484   2.503   2.103   0.946 -0.3682 -0.4355 -0.4404
  872SOL     OW 3485   1.982   2.526   1.526  0.3879  0.0073  0.4079
  872SOL    HW1 3486   1.949   2.561   1.608 -1.8063 -0.8697 -0.1754
  872SOL    HW2 3487   1.906   2.476   1.485 -0.4460  2.6676 -1.7522
  872SOL     MW 3488   1.967   2.524   1.532 -0.0116  0.2426  0.0459
  873SOL     OW 3489   2.931   2.031   1.938 -0.0031 -0.2304  0.0876
  873SOL    HW1 3490   2.927   2.079   2.022 -2.3239  0.9160  0.2018
  873SOL    HW2 3491   3.019   2.011   1.917  0.1657  0.3349 -2.8863
  873SOL     MW 3492   2.942   2.035   1.946 -0.2870 -0.0046 -0.2897
  874SOL     OW 3493   2.286   1.479   2.434  0.6910 -0.6801  0.6374
  874SOL    HW1 3494   2.247   1.417   2.364 -1.0210 -1.2495 -3.6764
  874SOL    HW2 3495   2.367   1.436   2.460 -1.8909 -2.9527  1.6086
  874SOL     MW 3496   2.291   1.465   2.428  0.1245 -1.0550  0.1964
  875SOL     OW 3497   2.339   2.328   1.040 -0.5772 -0.0762 -0.1093
  875SOL    HW1 3498   2.379   2.399   0.986  1.1463 -0.7149 -1.4074
  875SOL    HW2 3499   2.382   2.347   1.124  0.2382 -1.5175  1.7845
  875SOL     MW 3500   2.350   2.340   1.044 -0.2422 -0.3506 -0.0307
  876SOL     OW 3501   3.050   2.255   1.286  0.1108  0.5945  0.3015
  876SOL    HW1 3502   3.081   2.263   1.199 -0.8238  1.0738  0.5936
  876SOL    HW2 3503   3.114   2.319   1.321  1.0363 -0.6289  2.4265
  876SOL     MW 3504   3.062   2.265   1.279  0.1096  0.4963  0.6204
  877SOL     OW 3505   3.042   2.711   0.348  0.1139 -0.1574  0.4343
  877SOL    HW1 3506   3.098   2.788   0.333  0.6952 -2.1204  0.8437
  877SOL    HW2 3507   3.045   2.663   0.262 -0.0751 -0.5481  0.6940
  877SOL     MW 3508   3.050   2.715   0.335  0.1657 -0.4680  0.5226
  878SOL     OW 3509   2.369   1.840   1.277  0.4627 -0.6482  0.1620
  878SOL    HW1 3510   2.294   1.778   1.272 -2.0145  5.5320  0.9994
  878SOL    HW2 3511   2.451   1.810   1.236  1.3980  1.2161  1.4644
  878SOL     MW 3512   2.370   1.828   1.271  0.2592  0.4132  0.4443
  879SOL     OW 3513   2.680   2.417   1.000  0.1068  0.6369 -0.3621
  879SOL    HW1 3514   2.720   2.501   1.023  0.9753  0.7659  0.9077
  879SOL    HW2 3515   2.738   2.376   0.939  1.8058 -0.3339 -3.2749
  879SOL     MW 3516   2.693   2.423   0.995  0.4456  0.5259 -0.5789
  880SOL     OW 3517   2.629   2.175   0.684  0.1469  0.2321  0.3880
  880SOL    HW1 3518   2.587   2.122   0.756  1.8926 -2.5985  0.7031
  880SOL    HW2 3519   2.576   2.134   0.617  0.8939  0.8203 -2.2134
  880SOL     MW 3520   2.617   2.162   0.685  0.4758 -0.0637  0.0864
  881SOL     OW 3521   2.907   2.732   0.769 -0.2449  0.1359  0.5607
  881SOL    HW1 3522   2.900   2.678   0.685 -0.9189 -1.4746 -1.8740
  881SOL    HW2 3523   3.002   2.715   0.782  2.1275  0.7768 -2.5485
  881SOL     MW 3524   2.919   2.722   0.759 -0.0208  0.0079 -0.1707
  882SOL     OW 3525   2.229   2.873   1.941  0.2676  0.5862 -0.0182
  882SOL    HW1 3526   2.230   2.860   1.845  1.0451 -0.9472  2.5658
  882SOL    HW2 3527   2.170   2.821   1.989  0.6039  0.8080 -0.4624
  882SOL     MW 3528   2.222   2.865   1.935  0.4146  0.4132  0.2641
  883SOL     OW 3529   2.297   2.181   1.467 -0.1292  0.0102 -0.4794
  883SOL    HW1 3530   2.378   2.134   1.439 -2.1355 -1.9456  0.4419
  883SOL    HW2 3531   2.232   2.156   1.398  2.3113  1.3065 -2.7364
  883SOL     MW 3532   2.299   2.171   1.454 -0.0719 -0.0768 -0.6556
  884SOL     OW 3533   1.952   1.800   1.047  0.0588 -0.0254 -0.1271
  884SOL    HW1 3534   1.889   1.870   1.040 -2.1561 -2.7934  0.2763
  884SOL    HW2 3535   2.040   1.848   1.038  2.0965  2.0638 -2.5634
  884SOL     MW 3536   1.955   1.816   1.045  0.0354 -0.1150 -0.3953
  885SOL     OW 3537   2.897   2.381   1.867  0.5106 -0.2171 -0.3890
  885SOL    HW1 3538   2.968   2.323   1.839 -1.3608 -0.4280  0.8074
  885SOL    HW2 3539   2.823   2.369   1.804  0.7462  0.4502  1.5463
  885SOL     MW 3540   2.897   2.372   1.855  0.2948 -0.1569  0.0242
  886SOL     OW 3541   2.810   2.337   1.421  0.4261 -0.2965  0.5859
  886SOL    HW1 3542   2.898   2.304   1.391  1.2364 -0.3772  3.0088
  886SOL    HW2 3543   2.823   2.432   1.413  1.5975 -0.7736 -1.7860
  886SOL     MW 3544   2.824   2.346   1.416  0.6876 -0.3701  0.5926
  887SOL     OW 3545   2.247   2.634   1.514  0.3383 -0.0267  0.5885
  887SOL    HW1 3546   2.282   2.632   1.425  0.0657 -2.1487 -1.3125
  887SOL    HW2 3547   2.162   2.587   1.515 -0.1670  0.8676 -0.2129
  887SOL     MW 3548   2.241   2.627   1.503  0.2357 -0.1887  0.2320
  888SOL     OW 3549   1.879   2.030   1.380  0.2969  0.6787 -0.7184
  888SOL    HW1 3550   1.968   2.050   1.347 -0.0512 -1.2649  0.4896
  888SOL    HW2 3551   1.874   2.058   1.469  2.0460  0.8318 -0.8906
  888SOL     MW 3552   1.890   2.036   1.387  0.4818  0.4424 -0.5818
  889SOL     OW 3553   2.303   2.018   2.081  0.5420  0.0700  0.2571
  889SOL    HW1 3554   2.367   2.000   2.145  1.8732  0.2428 -1.0741
  889SOL    HW2 3555   2.336   2.096   2.039  0.0525 -0.5340 -0.8876
  889SOL     MW 3556   2.315   2.026   2.084  0.6530  0.0131 -0.0696
  890SOL     OW 3557   0.074   2.334   0.113 -0.1351 -0.1482  0.3187
  890SOL    HW1 3558   0.039   2.422   0.100 -0.0263 -0.3779 -0.7107
  890SOL    HW2 3559   0.053   2.323   0.208 -3.6398 -0.3691 -0.2187
  890SOL     MW 3560   0.067   2.344   0.124 -0.5832 -0.2077  0.1120
  891SOL     OW 3561   3.022   1.983   1.276  0.3234 -0.4129  0.5953
  891SOL    HW1 3562   3.111   1.942   1.281  0.4071 -0.7379 -1.5253
  891SOL    HW2 3563   3.019   2.081   1.304  0.5711  1.1821  0.8396
  891SOL     MW 3564   3.033   1.991   1.281  0.3671 -0.2453  0.3478
  892SOL     OW 3565   2.434   2.326   2.756 -0.2308  0.0235 -0.8710
  892SOL    HW1 3566   2.433   2.232   2.785  3.5742 -0.1194 -0.1232
  892SOL    HW2 3567   2.524   2.351   2.795 -3.8248 -0.4200  0.7420
  892SOL     MW 3568   2.446   2.317   2.765 -0.2029 -0.0538 -0.5595
  893SOL     OW 3569   1.633   2.372   1.281 -0.2463  0.0257 -0.5545
  893SOL    HW1 3570   1.594   2.403   1.361 -0.4381 -1.5941 -3.2453
  893SOL    HW2 3571   1.725   2.351   1.297  0.4996  0.1860 -1.6580
  893SOL     MW 3572   1.640   2.373   1.294 -0.1732 -0.1669 -1.0551
  894SOL     OW 3573   2.792   1.872   0.492  0.1800 -0.6584 -0.3341
  894SOL    HW1 3574   2.715   1.921   0.505  0.4210  3.6423 -0.1118
  894SOL    HW2 3575   2.790   1.853   0.398 -2.4441  1.2474  2.7128
  894SOL     MW 3576   2.782   1.876   0.482 -0.1344  0.1605  0.0973
  895SOL     OW 3577   2.129   2.120   1.268 -0.6910 -0.1678  0.3950
  895SOL    HW1 3578   2.133   2.214   1.230  1.8484 -0.4243 -2.1554
  895SOL    HW2 3579   2.165   2.060   1.194 -0.2106  1.7069  0.9874
  895SOL     MW 3580   2.134   2.124   1.253 -0.2926  0.0457  0.1367
  896SOL     OW 3581   2.218   2.787   1.070  0.7854  0.2826 -0.0858
  896SOL    HW1 3582   2.279   2.763   1.150 -3.4261 -2.8251  4.0030
  896SOL    HW2 3583   2.174   2.701   1.034 -0.9994 -3.4725 -2.9397
  896SOL     MW 3584   2.220   2.772   1.076 -0.0058 -0.6229  0.0771
  897SOL     OW 3585   2.984   2.921   0.104 -0.1007 -0.2408 -0.7664
  897SOL    HW1 3586   3.038   2.892   0.032 -0.8847  2.0493  3.7695
  897SOL    HW2 3587   2.897   2.901   0.081 -0.3534  1.0269 -0.3133
  897SOL     MW 3588   2.980   2.915   0.092 -0.2375  0.2286 -0.1082
  898SOL     OW 3589   2.073   0.172   1.430 -0.1687  0.6019 -0.3866
  898SOL    HW1 3590   2.060   0.079   1.466  1.6609  0.1479 -1.0191
  898SOL    HW2 3591   2.104   0.156   1.336  2.7622  3.5672 -0.6364
  898SOL     MW 3592   2.075   0.157   1.422  0.4594  0.9333 -0.5030
  899SOL     OW 3593   2.909   2.965   0.625  0.3713  0.2920  0.1572
  899SOL    HW1 3594   2.910   2.882   0.678 -1.5796  0.4941 -0.1424
  899SOL    HW2 3595   2.838   3.010   0.667 -0.2730 -0.3666  1.8871
  899SOL     MW 3596   2.900   2.960   0.637  0.0289  0.2318  0.3459
  900SOL     OW 3597   0.112   2.396   1.081 -0.2563 -0.1939 -0.1825
  900SOL    HW1 3598   0.077   2.480   1.092  2.3468 -0.5044  1.6390
  900SOL    HW2 3599   0.075   2.365   0.996 -0.4230  0.5358  0.3512
  900SOL     MW 3600   0.103   2.403   1.071  0.0652 -0.1386  0.1283
  901SOL     OW 3601   1.746   2.908   1.746  0.3661 -0.2701  0.7323
  901SOL    HW1 3602   1.817   2.840   1.723 -1.7344 -2.7375 -0.5215
  901SOL    HW2 3603   1.681   2.893   1.676  0.8810  2.2194  0.6393
  901SOL     MW 3604   1.746   2.897   1.733  0.1569 -0.2672  0.5546
  902SOL     OW 3605   2.677   2.106   1.823  0.2080 -0.2145 -0.0986
  902SOL    HW1 3606   2.681   2.068   1.741  0.7692 -1.6117  1.6812
  902SOL    HW2 3607   2.755   2.077   1.868  1.5115  0.8701 -0.7951
  902SOL     MW 3608   2.688   2.097   1.818  0.4540 -0.2557  0.0443
  903SOL     OW 3609   1.572   2.788   0.534  0.0885  0.3884  0.7924
  903SOL    HW1 3610   1.623   2.702   0.551  1.8999 -1.2914  1.0418
  903SOL    HW2 3611   1.540   2.829   0.617  0.4188 -0.8421 -0.2649
  903SOL     MW 3612   1.574   2.782   0.547  0.3711  0.0044  0.6858
  904SOL     OW 3613   2.478   2.592   1.728 -0.5750  1.2728  0.0856
  904SOL    HW1 3614   2.415   2.623   1.667  2.9180 -1.6419 -0.9988
  904SOL    HW2 3615   2.505   2.507   1.686  0.7829  0.5187 -0.0990
  904SOL     MW 3616   2.474   2.585   1.715  0.0651  0.7887 -0.0818
  905SOL     OW 3617   2.320   2.577   2.181 -0.6448 -0.0039  0.0200
  905SOL    HW1 3618   2.367   2.539   2.104  1.7839  0.2270  0.4192
  905SOL    HW2 3619   2.272   2.499   2.213 -0.0150 -0.8752 -0.0544
  905SOL     MW 3620   2.320   2.562   2.175 -0.2413 -0.0884  0.0628
  906SOL     OW 3621   2.424   2.516   0.884  0.4756 -0.6591  0.3869
  906SOL    HW1 3622   2.517   2.514   0.900 -2.0117  0.2286 -0.0141
  906SOL    HW2 3623   2.399   2.618   0.866 -0.0729  0.3233 -0.7832
  906SOL     MW 3624   2.433   2.529   0.884  0.0750 -0.4124  0.1796
  907SOL     OW 3625   2.634   2.790   1.337  0.3795 -0.3934 -0.2208
  907SOL    HW1 3626   2.678   2.865   1.375 -0.8467  1.3323 -1.8437
  907SOL    HW2 3627   2.652   2.800   1.242  1.8384 -1.7883 -1.9643
  907SOL     MW 3628   2.642   2.801   1.330  0.4102 -0.3498 -0.6650
  908SOL     OW 3629   2.748   2.374   3.082 -0.2825 -0.0992  0.3007
  908SOL    HW1 3630   2.706   2.296   3.124 -0.7606 -4.7094  1.2995
  908SOL    HW2 3631   2.719   2.449   3.133 -0.4149  0.5846 -0.9615
  908SOL     MW 3632   2.739   2.373   3.094 -0.3630 -0.6173  0.2660
  909SOL     OW 3633   1.713   0.140   1.122 -0.3917 -0.5225  0.0270
  909SOL    HW1 3634   1.714   0.204   1.051 -1.1393  0.1460  0.6318
  909SOL    HW2 3635   1.765   0.176   1.192  1.0506  0.3128  3.3104
  909SOL     MW 3636   1.720   0.153   1.122 -0.3001 -0.3241  0.5400
  910SOL     OW 3637   2.359   1.765   0.447 -0.5092 -0.3352  0.8336
  910SOL    HW1 3638   2.306   1.684   0.442  1.2352 -0.3412 -0.3223
  910SOL    HW2 3639   2.312   1.818   0.383 -0.6470 -2.0693 -0.7542
  910SOL     MW 3640   2.346   1.761   0.438 -0.2972 -0.5648  0.4716
  911SOL     OW 3641   2.230   2.235   1.725  0.2062 -0.4802 -0.0178
  911SOL    HW1 3642   2.307   2.225   1.783 -0.9784  1.4087  2.2243
  911SOL    HW2 3643   2.263   2.233   1.633  1.6568  1.9941 -0.1284
  911SOL     MW 3644   2.245   2.233   1.720  0.2413  0.0955  0.2634
  912SOL     OW 3645   2.930   1.936   1.515  0.0508 -0.0115  0.1349
  912SOL    HW1 3646   2.951   1.962   1.422 -1.2275  0.6408 -2.0241
  912SOL    HW2 3647   2.836   1.961   1.532 -0.5773  0.0973  3.8338
  912SOL     MW 3648   2.921   1.943   1.505 -0.2007  0.0889  0.3381
  913SOL     OW 3649   2.621   3.031   0.363  0.2449  0.2914 -0.2267
  913SOL    HW1 3650   2.686   2.961   0.374 -0.6632  1.3900 -0.5272
  913SOL    HW2 3651   2.537   3.004   0.346  1.6069  1.4593  1.4159
  913SOL     MW 3652   2.619   3.019   0.362  0.3048  0.5905 -0.0496
  914SOL     OW 3653   2.681   1.748   3.053 -0.1268  0.2436  0.2813
  914SOL    HW1 3654   2.738   1.806   2.997 -0.4413  0.9582 -0.7461
  914SOL    HW2 3655   2.589   1.784   3.031  1.3052  0.2958 -1.7837
  914SOL     MW 3656   2.676   1.760   3.043  0.0206  0.3448 -0.1267
  915SOL     OW 3657   1.704   0.231   0.220 -0.6092 -0.0612  0.0549
  915SOL    HW1 3658   1.773   0.169   0.236  0.7688  1.7994 -0.9699
  915SOL    HW2 3659   1.622   0.177   0.227  1.4295  1.4068  3.7367
  915SOL     MW 3660   1.702   0.216   0.223 -0.1584  0.3780  0.4055
  916SOL     OW 3661   1.808   2.102   1.930 -0.2143  0.0722 -0.4182
  916SOL    HW1 3662   1.838   2.193   1.904  1.1277  0.4925  1.1096
  916SOL    HW2 3663   1.838   2.047   1.860  1.8676  0.6359 -0.5384
  916SOL     MW 3664   1.816   2.107   1.917  0.2374  0.2020 -0.2324
  917SOL     OW 3665   2.541   2.187   2.538  0.5054  0.2678 -0.1954
  917SOL    HW1 3666   2.539   2.226   2.624  1.9393 -1.5850 -1.3864
  917SOL    HW2 3667   2.600   2.242   2.494 -0.8193  2.1459 -0.0710
  917SOL     MW 3668   2.548   2.199   2.543  0.5198  0.2711 -0.3361
  918SOL     OW 3669   2.000   1.615   2.722  0.2819 -0.4811 -0.2628
  918SOL    HW1 3670   1.948   1.647   2.647  0.8387 -3.7161 -0.1687
  918SOL    HW2 3671   2.089   1.645   2.704 -0.8063 -0.3043 -0.4652
  918SOL     MW 3672   2.005   1.623   2.710  0.2118 -0.8846 -0.2771
  919SOL     OW 3673   0.016   2.305   2.265 -0.8099 -0.0913 -0.1818
  919SOL    HW1 3674  -0.059   2.245   2.244 -0.7858 -2.3552  0.9585
  919SOL    HW2 3675   0.061   2.312   2.182 -0.5177  0.0676 -0.6837
  919SOL     MW 3676   0.012   2.298   2.251 -0.7682 -0.3691 -0.0976
  920SOL     OW 3677   2.741   2.839   3.082  0.1969  0.5111 -0.2001
  920SOL    HW1 3678   2.665   2.895   3.110 -2.7078  1.4156 -5.1882
  920SOL    HW2 3679   2.702   2.784   3.007  1.7585 -0.3956 -1.0015
  920SOL     MW 3680   2.726   2.839   3.076  0.0197  0.5108 -0.9640
  921SOL     OW 3681   2.435   2.571   2.610  0.3499  0.1909  0.5271
  921SOL    HW1 3682   2.516   2.593   2.571 -0.3809 -2.4466 -1.9453
  921SOL    HW2 3683   2.439   2.476   2.645  0.8452 -3.1113 -0.6617
  921SOL     MW 3684   2.446   2.561   2.609  0.3188 -0.5928  0.0441
  922SOL     OW 3685   2.037   2.835   0.328  0.4080 -0.2160 -0.2480
  922SOL    HW1 3686   2.018   2.842   0.236 -0.1136  0.3520  1.0019
  922SOL    HW2 3687   2.021   2.740   0.330 -1.6224  2.4869 -1.6725
  922SOL     MW 3688   2.032   2.823   0.316  0.0713  0.2155 -0.2711
  923SOL     OW 3689   2.156   2.832   1.678  0.0514 -0.3500 -0.0576
  923SOL    HW1 3690   2.180   2.762   1.617  1.6941  0.8865  1.5844
  923SOL    HW2 3691   2.135   2.905   1.623  0.7664 -1.2942  1.3337
  923SOL     MW 3692   2.157   2.832   1.663  0.3625 -0.3114  0.3426
  924SOL     OW 3693   1.199   2.618   2.490 -0.4401  0.1873 -0.1663
  924SOL    HW1 3694   1.273   2.674   2.487 -1.6501 -1.1895  0.4248
  924SOL    HW2 3695   1.221   2.555   2.561  2.3615 -0.2500 -0.1556
  924SOL     MW 3696   1.212   2.617   2.499 -0.2301 -0.0520 -0.0869
  925SOL     OW 3697   2.963   0.211   2.633 -0.0814 -0.6117  0.7657
  925SOL    HW1 3698   2.942   0.214   2.531  2.2873  1.8764 -1.5032
  925SOL    HW2 3699   2.937   0.293   2.673  1.2299  0.4641  2.9616
  925SOL     MW 3700   2.957   0.222   2.625  0.4041 -0.1415  0.7560
  926SOL     OW 3701   2.741   2.392   2.082 -0.9383  0.1803  0.3628
  926SOL    HW1 3702   2.804   2.427   2.148  1.6947 -1.0469 -0.6004
  926SOL    HW2 3703   2.806   2.382   2.014  0.9290  0.7522 -1.3834
  926SOL     MW 3704   2.758   2.395   2.082 -0.3445  0.0939  0.0053
  927SOL     OW 3705   2.362   0.143   0.297 -0.4116  0.2063 -0.4768
  927SOL    HW1 3706   2.461   0.154   0.290  2.9627  1.9521 -1.6562
  927SOL    HW2 3707   2.333   0.139   0.205  0.5449 -0.1410 -0.4012
  927SOL     MW 3708   2.371   0.144   0.284  0.1598  0.3908 -0.6225
  928SOL     OW 3709   2.120   2.434   1.936  1.0018  0.0209 -0.0259
  928SOL    HW1 3710   2.152   2.499   1.877  1.2415  2.2383 -1.8359
  928SOL    HW2 3711   2.168   2.356   1.906 -0.2445 -1.0272 -0.9626
  928SOL     MW 3712   2.131   2.432   1.924  0.8690  0.1752 -0.3883
  929SOL     OW 3713   2.722   2.381   2.444  0.3065 -0.0165 -0.4567
  929SOL    HW1 3714   2.782   2.390   2.370  0.5415 -2.1687  2.7349
  929SOL    HW2 3715   2.779   2.342   2.510  1.0437  3.4338  1.6992
  929SOL     MW 3716   2.738   2.377   2.443  0.4348  0.1548  0.2489
  930SOL     OW 3717   2.018   2.847   2.695  0.1034  0.0792 -0.0897
  930SOL    HW1 3718   2.028   2.773   2.753  0.7934 -1.3231  0.7607
  930SOL    HW2 3719   2.112   2.885   2.670  0.6275  3.1864 -0.1133
  930SOL     MW 3720   2.032   2.843   2.699  0.2636  0.3041  0.0194
  931SOL     OW 3721   3.012   2.778   2.297  0.2229 -0.1176 -0.0519
  931SOL    HW1 3722   3.019   2.833   2.373  1.0880 -0.6734  2.7451
  931SOL    HW2 3723   3.091   2.792   2.249 -3.5029  3.2054  2.0863
  931SOL     MW 3724   3.023   2.787   2.301 -0.1546  0.2475  0.5992
  932SOL     OW 3725   2.839   1.984   2.568  0.2523 -0.3713  0.4678
  932SOL    HW1 3726   2.937   1.990   2.551  0.5402 -0.4022  0.4978
  932SOL    HW2 3727   2.805   1.984   2.478  3.4161 -0.2246  0.0629
  932SOL     MW 3728   2.848   1.985   2.554  0.7077 -0.3560  0.4183
  933SOL     OW 3729   2.013   2.878   2.307  0.4068 -0.0716  0.5102
  933SOL    HW1 3730   2.094   2.917   2.336  1.0050 -0.7000  0.3722
  933SOL    HW2 3731   1.962   2.941   2.257 -1.0255 -1.5846  0.6769
  933SOL     MW 3732   2.017   2.891   2.305  0.2967 -0.3542  0.5140
  934SOL     OW 3733   2.016   2.668   2.468 -0.0096  0.2831 -0.1265
  934SOL    HW1 3734   2.046   2.717   2.547  2.4358  0.9000  0.0088
  934SOL    HW2 3735   2.003   2.740   2.403 -1.5216 -0.2142  0.8459
  934SOL     MW 3736   2.018   2.684   2.470  0.1136  0.2989  0.0197
  935SOL     OW 3737   2.668   1.568   1.812  0.0776 -0.8636  0.1344
  935SOL    HW1 3738   2.769   1.563   1.797  2.9356  1.7942 -0.8000
  935SOL    HW2 3739   2.624   1.559   1.727  1.6742  1.1524 -0.5590
  935SOL     MW 3740   2.676   1.566   1.799  0.6653 -0.2469 -0.0804
  936SOL     OW 3741   2.983   2.216   3.066  0.5473 -0.2696 -0.2760
  936SOL    HW1 3742   3.054   2.254   3.124  0.5620 -0.0972  0.8525
  936SOL    HW2 3743   2.914   2.283   3.079 -2.4282  1.7007  0.3432
  936SOL     MW 3744   2.983   2.230   3.076  0.1566  0.0131 -0.0454
  937SOL     OW 3745   1.939   2.129   2.616 -0.3007  0.4532 -0.4678
  937SOL    HW1 3746   2.020   2.100   2.663 -0.3212 -0.3904 -0.2493
  937SOL    HW2 3747   1.950   2.098   2.526 -0.3925 -2.4263 -1.4789
  937SOL     MW 3748   1.951   2.121   2.610 -0.3155 -0.0380 -0.5724
  938SOL     OW 3749   2.243   1.794   1.956  0.3484  0.1147  0.3215
  938SOL    HW1 3750   2.244   1.821   1.863  1.1941  0.9359 -0.5019
  938SOL    HW2 3751   2.248   1.879   1.996  2.5733 -0.4754  2.0563
  938SOL     MW 3752   2.244   1.809   1.949  0.7536  0.1452  0.4418
  939SOL     OW 3753   2.741   1.964   2.307 -0.1637 -0.0056  0.2197
  939SOL    HW1 3754   2.761   1.906   2.232 -3.6015  1.0856  0.9028
  939SOL    HW2 3755   2.645   1.961   2.302 -1.8337 -3.1468 -1.2662
  939SOL     MW 3756   2.731   1.956   2.296 -0.8377 -0.2761  0.1138
  940SOL     OW 3757   2.305   0.179   2.643 -0.4114 -0.1727  0.2296
  940SOL    HW1 3758   2.276   0.086   2.649 -0.7058 -2.8041  2.8001
  940SOL    HW2 3759   2.353   0.188   2.719 -0.3849 -0.9915 -3.2954
  940SOL     MW 3760   2.307   0.167   2.654 -0.4467 -0.6280  0.1037
  941SOL     OW 3761   0.165   2.382   2.041 -0.7791  0.4053 -0.3644
  941SOL    HW1 3762   0.253   2.371   2.021 -0.4229  0.9321 -1.7169
  941SOL    HW2 3763   0.127   2.348   1.958 -0.7693  1.6763  3.1009
  941SOL     MW 3764   0.171   2.376   2.027 -0.7308  0.6425 -0.0856
  942SOL     OW 3765   2.889   2.166   2.182 -0.0493 -0.1494  0.4910
  942SOL    HW1 3766   2.821   2.225   2.148  0.9046 -0.0048 -2.0669
  942SOL    HW2 3767   2.843   2.107   2.237  1.3786  2.0243 -0.2291
  942SOL     MW 3768   2.874   2.166   2.185  0.2649  0.1565  0.0585
  943SOL     OW 3769   0.305   2.098   2.273 -0.7354 -0.0382  0.1898
  943SOL    HW1 3770   0.265   2.161   2.336 -0.4118  0.1895  0.0271
  943SOL    HW2 3771   0.398   2.088   2.305 -0.1855 -0.0789 -0.1529
  943SOL     MW 3772   0.312   2.105   2.285 -0.6202 -0.0135  0.1231
  944SOL     OW 3773   2.077   2.701   2.100  0.0750 -0.3293  0.2344
  944SOL    HW1 3774   2.150   2.636   2.111 -2.5196 -3.8270  1.8006
  944SOL    HW2 3775   2.068   2.775   2.172  0.5351  0.9287 -1.7351
  944SOL     MW 3776   2.085   2.702   2.111 -0.2066 -0.6248  0.1812
  945SOL     OW 3777   2.643   2.696   2.883 -0.4454  0.7956  0.4283
  945SOL    HW1 3778   2.675   2.613   2.850 -1.0529  3.2802  0.3796
  945SOL    HW2 3779   2.555   2.711   2.844 -0.2053 -0.5037  0.8164
  945SOL     MW 3780   2.636   2.687   2.873 -0.4939  0.9520  0.4731
  946SOL     OW 3781   2.454   2.803   2.286  0.8718 -0.5520 -0.7969
  946SOL    HW1 3782   2.469   2.854   2.201  1.8807 -2.4066 -0.5105
  946SOL    HW2 3783   2.426   2.720   2.260 -0.3755  2.7186  0.3506
  946SOL     MW 3784   2.452   2.799   2.271  0.8404 -0.3652 -0.6077
  947SOL     OW 3785   1.916   0.077   0.323 -0.3688 -0.8216  0.1621
  947SOL    HW1 3786   1.866   0.032   0.384 -3.1737  2.2058 -0.1232
  947SOL    HW2 3787   2.010   0.065   0.342 -1.0268  1.2491 -0.6900
  947SOL     MW 3788   1.922   0.069   0.333 -0.8257 -0.1489  0.0120
  948SOL     OW 3789   1.829   3.047   2.674  0.1111  1.2176 -0.1812
  948SOL    HW1 3790   1.876   2.963   2.667  1.6121  1.7304  0.1162
  948SOL    HW2 3791   1.782   3.054   2.588  0.4200  0.6372 -2.3631
  948SOL     MW 3792   1.829   3.037   2.662  0.3499  1.2086 -0.4298
  949SOL     OW 3793   2.470   1.931   2.265 -0.7913 -0.0945 -0.9297
  949SOL    HW1 3794   2.465   1.835   2.296  0.1358  1.6065 -0.3965
  949SOL    HW2 3795   2.419   1.990   2.324  0.7896  1.4416  1.5036
  949SOL     MW 3796   2.462   1.926   2.277 -0.4604  0.3326 -0.5383
  950SOL     OW 3797   2.273   2.494   2.954  0.1174 -0.9535 -0.0792
  950SOL    HW1 3798   2.314   2.431   2.892 -0.4394 -1.1656  0.3090
  950SOL    HW2 3799   2.213   2.542   2.902 -0.8403 -0.0806  1.1013
  950SOL     MW 3800   2.271   2.492   2.939 -0.0824 -0.8663  0.1278
  951SOL     OW 3801   2.994   2.100   2.824  0.2329  0.1866 -0.2723
  951SOL    HW1 3802   3.010   2.136   2.916 -0.6694 -0.9726  3.0552
  951SOL    HW2 3803   3.070   2.048   2.800 -0.6516 -2.7704 -1.7978
  951SOL     MW 3804   3.006   2.098   2.833 -0.0029 -0.3565 -0.0345
  952SOL     OW 3805   3.035   1.653   2.144 -0.9635 -0.0953 -0.1489
  952SOL    HW1 3806   2.952   1.703   2.132 -1.0444  0.4825 -0.9000
  952SOL    HW2 3807   3.086   1.703   2.206 -0.4052 -1.9132  1.7685
  952SOL     MW 3808   3.031   1.666   2.150 -0.9006 -0.2589  0.0050
  953SOL     OW 3809   1.915   1.782   2.920 -0.3070  0.1125  0.4791
  953SOL    HW1 3810   1.846   1.747   2.975  1.2297 -0.4956 -1.1505
  953SOL    HW2 3811   1.946   1.711   2.853  1.2657 -1.0134  1.5406
  953SOL     MW 3812   1.910   1.768   2.918  0.1033 -0.1163  0.4042
  954SOL     OW 3813   2.398   2.080   2.887  0.0098 -0.2070 -0.0597
  954SOL    HW1 3814   2.310   2.060   2.857  2.9281  0.8359  0.2169
  954SOL    HW2 3815   2.472   2.042   2.831  1.6445 -0.5714  1.1101
  954SOL     MW 3816   2.396   2.073   2.876  0.6105 -0.1175  0.1312
  955SOL     OW 3817   1.520   1.572   2.589  0.0386  0.0319  0.0479
  955SOL    HW1 3818   1.498   1.608   2.504  0.6665  0.8425 -2.9139
  955SOL    HW2 3819   1.616   1.584   2.582 -2.1764  0.3981  1.4219
  955SOL     MW 3820   1.530   1.579   2.577 -0.1708  0.1872 -0.1616
  956SOL     OW 3821   2.678   2.415   2.828 -0.1147  0.1739  0.0638
  956SOL    HW1 3822   2.701   2.399   2.919 -0.5023  0.8564 -0.3873
  956SOL    HW2 3823   2.753   2.386   2.779  1.0167 -0.1702  1.6480
  956SOL     MW 3824   2.691   2.409   2.834 -0.0166  0.2186  0.2133
  957SOL     OW 3825   2.350   2.838   0.354 -0.5466 -0.1031  0.1289
  957SOL    HW1 3826   2.273   2.858   0.300 -0.5818  0.4903 -3.0049
  957SOL    HW2 3827   2.324   2.806   0.443  0.3911 -0.5667 -0.4571
  957SOL     MW 3828   2.337   2.837   0.359 -0.4275 -0.0860 -0.3619
  958SOL     OW 3829   2.035   2.607   2.828  0.5206  0.2795 -0.3267
  958SOL    HW1 3830   2.005   2.519   2.793 -2.7774  0.7273 -0.5123
  958SOL    HW2 3831   1.955   2.630   2.874  1.2862  1.8445  0.1927
  958SOL     MW 3832   2.020   2.598   2.830  0.1864  0.5451 -0.2826
  959SOL     OW 3833   2.491   2.599   0.340  0.3220 -0.0966 -0.1604
  959SOL    HW1 3834   2.552   2.590   0.268  3.5474 -1.0940 -0.1450
  959SOL    HW2 3835   2.460   2.692   0.329 -0.7288  3.3366  0.8310
  959SOL     MW 3836   2.495   2.610   0.329  0.6089  0.2248 -0.0276
  960SOL     OW 3837   1.916   2.245   2.225 -0.3569 -0.1224  0.2545
  960SOL    HW1 3838   1.904   2.169   2.278 -1.5749  1.1594  2.4397
  960SOL    HW2 3839   1.889   2.311   2.293  0.1366  1.7761  0.8107
  960SOL     MW 3840   1.911   2.244   2.241 -0.4525  0.2972  0.6162
  961SOL     OW 3841   2.202   2.321   2.269  0.0452 -0.2908  0.3548
  961SOL    HW1 3842   2.108   2.309   2.237 -0.8579  2.0088  0.3615
  961SOL    HW2 3843   2.194   2.375   2.357  3.1012  0.0129 -0.2947
  961SOL     MW 3844   2.188   2.327   2.276  0.3292  0.0527  0.2700
  962SOL     OW 3845   2.132   2.026   2.776 -0.4156 -0.1596 -0.3175
  962SOL    HW1 3846   2.111   2.002   2.864 -1.4547 -1.4900 -4.0890
  962SOL    HW2 3847   2.159   1.944   2.725  0.8960 -0.3448 -3.0664
  962SOL     MW 3848   2.133   2.012   2.780 -0.3797 -0.3596 -1.1778
  963SOL     OW 3849   1.841   2.561   2.056  0.1481 -0.9273 -0.2555
  963SOL    HW1 3850   1.931   2.578   2.093 -1.1484 -0.1749 -1.9388
  963SOL    HW2 3851   1.848   2.478   2.005  0.9172 -0.4779 -0.6060
  963SOL     MW 3852   1.854   2.552   2.054  0.0785 -0.7688 -0.5239
  964SOL     OW 3853   1.773   1.930   2.726 -0.5754  0.0615  0.3110
  964SOL    HW1 3854   1.844   1.984   2.696  3.4978  0.7235 -2.7748
  964SOL    HW2 3855   1.820   1.864   2.779  1.1477  3.6513  0.6275
  964SOL     MW 3856   1.788   1.928   2.729  0.1894  0.6225 -0.0543
  965SOL     OW 3857   2.208   2.764   0.605 -0.3397 -0.3278 -0.6909
  965SOL    HW1 3858   2.221   2.674   0.582  1.4954  1.2755 -0.0266
  965SOL    HW2 3859   2.265   2.775   0.682 -0.0445 -1.9610  0.6514
  965SOL     MW 3860   2.217   2.754   0.612 -0.0586 -0.3317 -0.4261
  966SOL     OW 3861   2.686   2.677   2.466  0.1631  0.1739 -0.2500
  966SOL    HW1 3862   2.651   2.704   2.382 -1.6043 -2.1581 -0.8523
  966SOL    HW2 3863   2.713   2.587   2.455 -0.8112 -0.1669  3.4263
  966SOL     MW 3864   2.685   2.669   2.453 -0.1987 -0.1788  0.1556
  967SOL     OW 3865   2.783   3.058   2.903 -0.2262 -0.1482 -0.1961
  967SOL    HW1 3866   2.778   2.975   2.957 -0.9698 -1.9125 -1.2427
  967SOL    HW2 3867   2.689   3.062   2.874 -1.4533 -1.0166 -3.0707
  967SOL     MW 3868   2.770   3.047   2.906 -0.4862 -0.4955 -0.7135
  968SOL     OW 3869   3.004   2.623   2.902 -0.8241 -0.1975 -0.5218
  968SOL    HW1 3870   2.928   2.673   2.866  1.9335 -2.3567 -0.3732
  968SOL    HW2 3871   3.039   2.570   2.832 -1.9413  2.9566 -0.6159
  968SOL     MW 3872   2.999   2.623   2.888 -0.6076 -0.0662 -0.5146
  969SOL     OW 3873   1.600   2.115   1.633  0.7478 -0.2406  0.1972
  969SOL    HW1 3874   1.664   2.043   1.639 -0.5661  1.6445 -1.7660
  969SOL    HW2 3875   1.588   2.129   1.727  0.6266  1.6400 -0.2293
  969SOL     MW 3876   1.607   2.107   1.646  0.5585  0.2563 -0.1181
  970SOL     OW 3877   1.687   1.785   1.866  0.5114  0.5165  0.7116
  970SOL    HW1 3878   1.718   1.713   1.917 -3.2646 -0.4708  2.6027
  970SOL    HW2 3879   1.598   1.794   1.898 -1.0035 -0.1543  2.0080
  970SOL     MW 3880   1.679   1.776   1.877 -0.1867  0.2978  1.1322
  971SOL     OW 3881   1.760   3.079   2.412 -0.0622  0.1582  0.5385
  971SOL    HW1 3882   1.797   3.051   2.332 -3.9208  0.9119  2.0886
  971SOL    HW2 3883   1.798   3.164   2.427 -0.2902 -1.2025  0.7995
  971SOL     MW 3884   1.770   3.087   2.403 -0.6014  0.0781  0.7775
  972SOL     OW 3885   0.265   2.838   2.488 -0.1802 -0.7196  0.5083
  972SOL    HW1 3886   0.335   2.772   2.468  0.7725  1.7691 -2.4275
  972SOL    HW2 3887   0.306   2.924   2.499 -0.4082  1.4616 -1.2381
  972SOL     MW 3888   0.280   2.841   2.487 -0.0846 -0.1035 -0.1094
  973SOL     OW 3889   2.527   0.019   2.081  0.4570 -0.1416 -0.0733
  973SOL    HW1 3890   2.537  -0.073   2.065  1.9056 -1.0467  0.5088
  973SOL    HW2 3891   2.555   0.059   1.996 -0.1793 -1.0513 -0.1818
  973SOL     MW 3892   2.532   0.012   2.067  0.5642 -0.3811 -0.0108
  974SOL     OW 3893   2.047   0.203   2.683 -0.6283 -0.2098 -0.1359
  974SOL    HW1 3894   2.142   0.209   2.680 -1.0325 -0.1354 -0.6952
  974SOL    HW2 3895   2.033   0.163   2.769  2.5853  1.0872 -1.2326
  974SOL     MW 3896   2.058   0.198   2.694 -0.2576 -0.0288 -0.3544
  975SOL     OW 3897   2.208   2.489   2.477  0.0876  0.1572 -0.3279
  975SOL    HW1 3898   2.285   2.532   2.521 -0.7798  4.0664  1.0080
  975SOL    HW2 3899   2.137   2.560   2.473 -2.0783 -2.4343 -1.9845
  975SOL     MW 3900   2.209   2.504   2.482 -0.3126  0.3310 -0.3702
  976SOL     OW 3901   0.211   0.368   1.747  0.4711  0.2739  0.0438
  976SOL    HW1 3902   0.282   0.301   1.779  0.6370  1.1263  1.1412
  976SOL    HW2 3903   0.145   0.312   1.685  0.0473 -0.5372  0.7540
  976SOL     MW 3904   0.212   0.352   1.743  0.4371  0.2793  0.2823
  977SOL     OW 3905   1.752   2.625   2.519  0.6522  0.6136  0.0848
  977SOL    HW1 3906   1.767   2.531   2.526  0.2550 -0.8177 -1.0480
  977SOL    HW2 3907   1.832   2.659   2.490 -1.5836  0.5723 -1.4707
  977SOL     MW 3908   1.765   2.617   2.516  0.3048  0.4193 -0.2699
   3.10000   3.10000   3.10000
