977 TIP4P/2005f water molecules t=   1.54000 step= 1540
 3908
    1SOL     OW    1   0.382   0.834   0.086  0.7125 -0.6648  0.2438
    1SOL    HW1    2   0.334   0.822  -0.001  0.0781  2.4846 -0.8382
    1SOL    HW2    3   0.390   0.745   0.124 -0.4169  0.5426  4.0259
    1SOL     MW    4   0.377   0.820   0.079  0.4798 -0.0899  0.6001
    2SOL     OW    5   0.312   3.024   1.089  0.2188 -0.0317 -0.3808
    2SOL    HW1    6   0.355   3.105   1.054  3.4365  0.0024 -0.1116
    2SOL    HW2    7   0.228   3.054   1.123  1.3803 -1.9645  1.0751
    2SOL     MW    8   0.307   3.039   1.089  0.7966 -0.2822 -0.1532
    3SOL     OW    9   2.633   0.332   0.971  0.2973  0.3087 -0.0573
    3SOL    HW1   10   2.673   0.410   0.933 -4.0914 -3.6101 -0.0721
    3SOL    HW2   11   2.610   0.352   1.061  1.7512 -1.8730  0.8367
    3SOL     MW   12   2.635   0.345   0.978 -0.0899 -0.4962  0.0587
    4SOL     OW   13   3.014   1.717   0.528 -0.8976  0.0613 -0.0732
    4SOL    HW1   14   2.945   1.768   0.487 -1.0847  0.3641  1.9348
    4SOL    HW2   15   3.075   1.688   0.461  1.4274  2.7356 -1.5265
    4SOL     MW   16   3.013   1.720   0.514 -0.6155  0.4541  0.0000
    5SOL     OW   17   1.641   1.427   0.635  0.5081 -0.9048 -0.5248
    5SOL    HW1   18   1.666   1.412   0.723 -0.4968 -1.2531  1.8407
    5SOL    HW2   19   1.552   1.470   0.626  0.1794  0.3042 -1.9090
    5SOL     MW   20   1.632   1.431   0.645  0.3321 -0.7912 -0.3953
    6SOL     OW   21   0.781   1.435   0.594  0.4075  0.2391  0.5117
    6SOL    HW1   22   0.686   1.440   0.567 -1.8310 -0.6531 -0.6964
    6SOL    HW2   23   0.802   1.350   0.623 -0.3116  1.2413 -0.4535
    6SOL     MW   24   0.771   1.424   0.594  0.0173  0.2536  0.2249
    7SOL     OW   25   1.952   1.041   0.037 -0.6754 -0.2053  0.0753
    7SOL    HW1   26   2.037   1.093   0.030 -0.2701  0.6047 -3.0422
    7SOL    HW2   27   1.931   1.031   0.129  0.1598 -0.8366  0.7859
    7SOL     MW   28   1.960   1.046   0.048 -0.5117 -0.1817 -0.2422
    8SOL     OW   29   0.776   1.488   1.149  0.2495 -0.2978 -0.0759
    8SOL    HW1   30   0.864   1.527   1.141 -0.8305  0.8362  2.4216
    8SOL    HW2   31   0.801   1.400   1.182 -1.2786 -2.7975 -2.7176
    8SOL     MW   32   0.791   1.481   1.152 -0.0946 -0.4780 -0.0949
    9SOL     OW   33   1.006   0.480   1.316 -0.4323 -0.1123  0.5907
    9SOL    HW1   34   0.961   0.418   1.265 -0.9909  1.3301 -0.9791
    9SOL    HW2   35   1.043   0.443   1.399 -1.1393  1.2999 -0.1005
    9SOL     MW   36   1.005   0.467   1.320 -0.5993  0.2643  0.2924
   10SOL     OW   37   0.281   0.868   0.496 -0.0858  0.0521 -0.0927
   10SOL    HW1   38   0.379   0.876   0.480 -0.5275  0.3130 -2.0156
   10SOL    HW2   39   0.273   0.910   0.581  1.5160 -3.6881  0.2613
   10SOL     MW   40   0.292   0.875   0.505  0.0672 -0.4069 -0.2997
   11SOL     OW   41   0.777   1.126   1.550  0.5332  0.0387 -0.4201
   11SOL    HW1   42   0.832   1.130   1.631  1.0114 -0.1265 -4.1936
   11SOL    HW2   43   0.815   1.057   1.487 -1.6169 -1.2027  2.7776
   11SOL     MW   44   0.789   1.118   1.552  0.3126 -0.1469 -0.4960
   12SOL     OW   45   3.075   1.111   0.862 -0.7468 -0.4016  0.5721
   12SOL    HW1   46   3.123   1.179   0.906 -0.8352 -1.1057 -0.1817
   12SOL    HW2   47   3.016   1.152   0.791  0.1551  0.1662 -0.4982
   12SOL     MW   48   3.073   1.125   0.858 -0.6395 -0.4196  0.3314
   13SOL     OW   49   1.838   1.430   1.280 -0.3281  0.0376 -0.3640
   13SOL    HW1   50   1.851   1.393   1.191  0.3644  1.0950  0.5129
   13SOL    HW2   51   1.908   1.492   1.288  0.2131  2.1651 -1.5443
   13SOL     MW   52   1.849   1.433   1.270 -0.1653  0.4578 -0.4040
   14SOL     OW   53   0.534   0.367   1.836 -0.9005 -0.1293 -1.0865
   14SOL    HW1   54   0.470   0.295   1.849  0.5750  2.2842  0.9413
   14SOL    HW2   55   0.598   0.327   1.775  1.2535  1.4518 -1.0035
   14SOL     MW   56   0.534   0.352   1.830 -0.4216  0.3978 -0.8080
   15SOL     OW   57   1.998   0.391   1.064 -0.3338  0.3238 -0.5623
   15SOL    HW1   58   1.946   0.472   1.074 -0.4044  0.9869 -1.1035
   15SOL    HW2   59   2.076   0.407   1.014  1.0448 -0.4351 -0.2493
   15SOL     MW   60   2.002   0.404   1.059 -0.1612  0.3111 -0.5924
   16SOL     OW   61   0.283   1.841   0.257 -0.0791 -0.0445  0.4923
   16SOL    HW1   62   0.363   1.804   0.289 -0.9833 -0.9535  0.2520
   16SOL    HW2   63   0.280   1.935   0.287  0.7178 -0.6144  0.2209
   16SOL     MW   64   0.293   1.849   0.265 -0.0933 -0.2396  0.4248
   17SOL     OW   65   1.109   0.902   1.410  0.0513  0.1052  0.2299
   17SOL    HW1   66   1.146   0.886   1.493 -0.1263  0.8261 -0.1168
   17SOL    HW2   67   1.013   0.894   1.411  0.3472  0.1226  2.0803
   17SOL     MW   68   1.101   0.899   1.421  0.0669  0.2026  0.4283
   18SOL     OW   69   0.118   1.611   0.326  0.1123  0.3365  0.2971
   18SOL    HW1   70   0.202   1.664   0.311  2.2487  2.6661 -0.1065
   18SOL    HW2   71   0.103   1.566   0.242 -0.2394 -0.9134 -2.6456
   18SOL     MW   72   0.127   1.612   0.313  0.3478  0.4789 -0.1444
   19SOL     OW   73   0.098   1.348   0.945  0.2178 -0.2603  0.3996
   19SOL    HW1   74   0.141   1.360   0.856 -3.2898 -0.4074  0.4074
   19SOL    HW2   75   0.016   1.383   0.929  1.5113 -0.7043 -0.0223
   19SOL     MW   76   0.093   1.355   0.931 -0.0744 -0.3383  0.3450
   20SOL     OW   77   0.450   2.133   1.252 -0.0826 -0.6780  0.6193
   20SOL    HW1   78   0.402   2.053   1.219 -1.5087 -2.8451  1.0567
   20SOL    HW2   79   0.416   2.128   1.340 -0.1332 -0.9713 -1.1405
   20SOL     MW   80   0.439   2.122   1.259 -0.2774 -1.0026  0.4448
   21SOL     OW   81   0.542   0.869   0.430  0.1973 -0.2317  0.0946
   21SOL    HW1   82   0.618   0.859   0.486  3.4797 -0.7310 -1.0511
   21SOL    HW2   83   0.587   0.840   0.345  2.1898 -0.7399 -1.0670
   21SOL     MW   84   0.558   0.864   0.426  0.8933 -0.3646 -0.2098
   22SOL     OW   85   1.549   0.696   0.997 -0.3203  0.2405  0.4294
   22SOL    HW1   86   1.538   0.662   0.911 -2.2247  0.0990  0.1594
   22SOL    HW2   87   1.476   0.758   1.011  1.4748 -0.9236  1.2912
   22SOL     MW   88   1.538   0.700   0.987 -0.3347  0.0682  0.5075
   23SOL     OW   89  -0.003   0.762   0.704 -0.5917  0.5496 -0.4918
   23SOL    HW1   90   0.062   0.697   0.733  1.4766  1.5887 -1.3628
   23SOL    HW2   91   0.053   0.840   0.709 -0.1212 -1.5893 -0.4738
   23SOL     MW   92   0.013   0.763   0.709 -0.2567  0.4045 -0.6044
   24SOL     OW   93   2.089   2.176   0.015  0.0866 -0.1969  0.1364
   24SOL    HW1   94   2.064   2.204   0.107 -2.5703  2.0666 -3.7297
   24SOL    HW2   95   2.116   2.085   0.023  2.9008 -0.1357  0.2098
   24SOL     MW   96   2.089   2.168   0.028  0.1073  0.1098 -0.3640
   25SOL     OW   97   0.198   1.365   0.443 -0.2252  0.8318 -0.0591
   25SOL    HW1   98   0.174   1.452   0.409  0.4967  1.2437  0.9606
   25SOL    HW2   99   0.279   1.351   0.391  0.6719  1.1550  0.6556
   25SOL     MW  100   0.205   1.375   0.432 -0.0115  0.9288  0.1697
   26SOL     OW  101   2.004   1.003   0.301 -0.2420  0.2321 -0.0524
   26SOL    HW1  102   1.953   1.053   0.365  2.2191  0.9646 -0.1679
   26SOL    HW2  103   2.066   1.071   0.280 -3.9148 -0.0422  2.4556
   26SOL     MW  104   2.006   1.018   0.306 -0.4018  0.2926  0.2633
   27SOL     OW  105   1.886   1.335   0.175  0.4054  0.2050  0.4912
   27SOL    HW1  106   1.815   1.396   0.181  1.1146 -0.1368 -0.5387
   27SOL    HW2  107   1.932   1.346   0.259  1.4705  0.3031  1.1744
   27SOL     MW  108   1.882   1.344   0.187  0.6395  0.1728  0.4455
   28SOL     OW  109   0.415   0.929   1.995 -0.1172 -0.5005  0.2357
   28SOL    HW1  110   0.476   0.903   2.062 -0.8641  0.5479  0.3088
   28SOL    HW2  111   0.325   0.919   2.020  2.6440 -0.7293 -0.2731
   28SOL     MW  112   0.411   0.924   2.007  0.1485 -0.3924  0.1782
   29SOL     OW  113   0.239   1.379   0.708 -0.3656  0.2320 -0.2627
   29SOL    HW1  114   0.217   1.469   0.727  1.0013 -1.6843  0.2878
   29SOL    HW2  115   0.193   1.360   0.627 -3.6198  0.2589  2.7670
   29SOL     MW  116   0.230   1.389   0.700 -0.6146 -0.0173  0.2096
   30SOL     OW  117   0.794   1.242   1.254 -0.5692 -0.3574  0.1719
   30SOL    HW1  118   0.730   1.226   1.323 -1.3708  0.6615 -1.0358
   30SOL    HW2  119   0.879   1.218   1.290 -0.8899  1.1948 -4.2504
   30SOL     MW  120   0.797   1.237   1.268 -0.7173 -0.0181 -0.5709
   31SOL     OW  121   0.477   0.289   0.176  0.7319 -0.0085  0.4474
   31SOL    HW1  122   0.509   0.220   0.232  0.3144 -1.1281 -0.0970
   31SOL    HW2  123   0.492   0.239   0.094 -0.3539  0.9594 -0.6859
   31SOL     MW  124   0.483   0.274   0.173  0.5336 -0.0285  0.2261
   32SOL     OW  125   2.714   1.001   1.111  0.6027 -0.2091 -0.3716
   32SOL    HW1  126   2.681   0.916   1.107  0.1862  3.1850 -1.0388
   32SOL    HW2  127   2.812   0.988   1.099 -0.4978 -1.1030 -4.0831
   32SOL     MW  128   2.723   0.988   1.109  0.4026  0.1208 -0.9493
   33SOL     OW  129   1.663   1.284   0.394  0.2425 -0.2395  0.3224
   33SOL    HW1  130   1.724   1.214   0.408 -2.4485  1.0946  1.5323
   33SOL    HW2  131   1.664   1.322   0.483  0.6324  0.2022  1.1615
   33SOL     MW  132   1.671   1.279   0.408 -0.0611 -0.0052  0.5928
   34SOL     OW  133   1.213   1.919   1.168 -0.5833 -0.0985 -0.1490
   34SOL    HW1  134   1.143   1.986   1.162 -2.7320  1.6234  0.5256
   34SOL    HW2  135   1.282   1.944   1.235  2.1890 -1.1475  1.3535
   34SOL     MW  136   1.213   1.931   1.176 -0.5010 -0.0097  0.1382
   35SOL     OW  137   0.351   0.141   1.826  0.5308  0.3045 -0.2600
   35SOL    HW1  138   0.364   0.067   1.886 -0.5110 -0.0253 -2.0267
   35SOL    HW2  139   0.346   0.104   1.739 -1.2435 -1.4445  1.7948
   35SOL     MW  140   0.352   0.126   1.822  0.1593  0.0302 -0.2220
   36SOL     OW  141   1.931   1.954   0.572 -0.4088  0.2818 -0.1638
   36SOL    HW1  142   1.911   1.924   0.486 -0.1259  1.0577  2.0986
   36SOL    HW2  143   1.962   1.871   0.604  3.4740 -1.1314 -2.5681
   36SOL     MW  144   1.932   1.939   0.565  0.1408  0.1977 -0.1825
   37SOL     OW  145   1.833   2.051   1.032 -0.4768  0.0686 -0.4567
   37SOL    HW1  146   1.767   2.027   0.967  1.6315  0.9048 -2.1159
   37SOL    HW2  147   1.786   2.077   1.111 -0.0046  1.5542  2.3521
   37SOL     MW  148   1.818   2.051   1.034 -0.1363  0.3750 -0.3050
   38SOL     OW  149   2.861   0.947   0.168  0.0877  0.5020 -0.3178
   38SOL    HW1  150   2.878   0.939   0.263  2.6944 -0.6445 -0.4202
   38SOL    HW2  151   2.950   0.939   0.125 -0.8892  1.2188 -0.4515
   38SOL     MW  152   2.875   0.945   0.175  0.3027  0.4453 -0.3489
   39SOL     OW  153   1.472   0.599   0.758  0.1923  0.3969 -0.1791
   39SOL    HW1  154   1.448   0.510   0.791 -0.1443  1.2188  0.5987
   39SOL    HW2  155   1.394   0.644   0.759  0.8076 -3.6816  1.1661
   39SOL     MW  156   1.459   0.593   0.762  0.2291 -0.0328  0.1010
   40SOL     OW  157   1.268   1.874   0.269 -0.4988 -0.3434 -0.2861
   40SOL    HW1  158   1.323   1.799   0.300 -0.0037 -1.1628  1.2103
   40SOL    HW2  159   1.229   1.912   0.347 -3.6831  0.4168 -1.9507
   40SOL     MW  160   1.270   1.869   0.283 -0.8536 -0.3512 -0.3083
   41SOL     OW  161   0.544   0.547   1.612 -0.4575  0.4800 -0.4636
   41SOL    HW1  162   0.606   0.614   1.575 -0.1755  1.5504  1.4961
   41SOL    HW2  163   0.456   0.574   1.580  1.7767 -2.1321  1.6457
   41SOL     MW  164   0.541   0.559   1.603 -0.1255  0.2766  0.0732
   42SOL     OW  165   1.241   2.974   1.945  0.0482 -0.4436  0.0324
   42SOL    HW1  166   1.156   2.972   1.983  0.1884  1.5574  1.5657
   42SOL    HW2  167   1.290   2.902   1.985 -2.1889 -2.0381  0.1237
   42SOL     MW  168   1.236   2.964   1.955 -0.2285 -0.3900  0.2468
   43SOL     OW  169   1.479   0.130   1.687 -0.3074  0.2527  0.0539
   43SOL    HW1  170   1.523   0.117   1.605 -0.5359 -0.8661 -1.1541
   43SOL    HW2  171   1.401   0.075   1.694 -0.8088  2.6985  2.1429
   43SOL     MW  172   1.474   0.121   1.677 -0.4037  0.4278  0.1701
   44SOL     OW  173   1.253   0.781   1.059 -0.0796  0.1156  0.1696
   44SOL    HW1  174   1.240   0.878   1.062  0.3053  0.9592 -0.2530
   44SOL    HW2  175   1.241   0.768   1.155 -2.6785  0.9004  0.8232
   44SOL     MW  176   1.250   0.792   1.072 -0.3717  0.3305  0.2001
   45SOL     OW  177   1.281   0.795   0.762 -0.0394  0.4754 -0.0112
   45SOL    HW1  178   1.242   0.798   0.848  0.7797  1.8956  0.9672
   45SOL    HW2  179   1.199   0.785   0.710 -0.0246  1.6796 -2.3316
   45SOL     MW  180   1.265   0.794   0.766  0.0706  0.8216 -0.1883
   46SOL     OW  181   0.491   1.073   0.645 -0.1658 -0.0617  0.1314
   46SOL    HW1  182   0.528   1.079   0.557 -1.7944  2.5718  1.6615
   46SOL    HW2  183   0.519   1.156   0.690 -2.8564  1.0784 -3.5373
   46SOL     MW  184   0.500   1.085   0.639 -0.7357  0.4362 -0.1508
   47SOL     OW  185   0.142   2.016   1.895 -0.0640  0.9805 -0.8344
   47SOL    HW1  186   0.144   1.932   1.848  1.2700  2.0887 -0.4026
   47SOL    HW2  187   0.122   1.988   1.986 -0.5411  0.6597  3.3052
   47SOL     MW  188   0.139   2.001   1.901  0.0491  1.0844 -0.2313
   48SOL     OW  189   1.176   0.509   1.028  0.1375  0.1744 -0.0582
   48SOL    HW1  190   1.083   0.491   1.023 -1.8890 -1.1254 -0.1647
   48SOL    HW2  191   1.190   0.602   1.058  0.8383  0.2609  0.1112
   48SOL     MW  192   1.165   0.519   1.031 -0.0374  0.0143 -0.0499
   49SOL     OW  193   1.687   0.658   1.546 -0.4823 -0.1041  0.0566
   49SOL    HW1  194   1.723   0.607   1.620 -2.0241 -1.2007 -1.4177
   49SOL    HW2  195   1.722   0.613   1.468 -1.1988 -1.3684 -0.3509
   49SOL     MW  196   1.697   0.646   1.546 -0.7802 -0.4156 -0.1917
   50SOL     OW  197   1.268   1.230   0.598 -0.2849 -0.0690  0.1221
   50SOL    HW1  198   1.208   1.235   0.665 -1.0530  0.3347  0.3927
   50SOL    HW2  199   1.324   1.160   0.628  0.6471 -2.2390  2.1758
   50SOL     MW  200   1.268   1.222   0.611 -0.2633 -0.3020  0.4287
   51SOL     OW  201   0.316   2.884   0.841 -0.0157 -0.3909  0.0033
   51SOL    HW1  202   0.406   2.851   0.857 -0.3184 -0.2923 -1.3633
   51SOL    HW2  203   0.313   2.931   0.923 -3.1061  3.0597 -1.4954
   51SOL     MW  204   0.327   2.886   0.854 -0.4634  0.0774 -0.3748
   52SOL     OW  205   0.814   1.804   0.464  0.0628 -0.6375  0.2875
   52SOL    HW1  206   0.774   1.893   0.476  0.9240 -1.0322  0.0261
   52SOL    HW2  207   0.830   1.798   0.369 -1.8474  0.3766 -0.7850
   52SOL     MW  208   0.811   1.815   0.453 -0.0756 -0.5558  0.1115
   53SOL     OW  209   0.445   2.165   0.509  0.1393 -0.9682 -0.0139
   53SOL    HW1  210   0.392   2.169   0.428  0.4115 -1.4119 -2.0327
   53SOL    HW2  211   0.442   2.254   0.559 -1.2174  0.7193 -1.8703
   53SOL     MW  212   0.437   2.177   0.505 -0.0038 -0.8041 -0.5252
   54SOL     OW  213   2.036   0.973   0.719 -0.3328  0.0885 -0.3188
   54SOL    HW1  214   2.120   0.982   0.670 -0.5025  1.7232  1.6873
   54SOL    HW2  215   2.008   0.883   0.728  0.6069 -0.5144 -0.3435
   54SOL     MW  216   2.043   0.962   0.714 -0.2312  0.2246 -0.0574
   55SOL     OW  217   0.464   1.515   1.677 -0.5761 -0.4148 -0.0422
   55SOL    HW1  218   0.432   1.559   1.602 -2.4817 -3.2677  0.6468
   55SOL    HW2  219   0.540   1.473   1.643  0.4119  2.1387 -0.3402
   55SOL     MW  220   0.470   1.515   1.663 -0.6972 -0.4543  0.0094
   56SOL     OW  221   0.643   0.894   0.176 -0.1192  0.1101 -0.2840
   56SOL    HW1  222   0.646   0.982   0.210 -1.4055 -1.0502 -0.7673
   56SOL    HW2  223   0.569   0.904   0.117  0.6134  2.2525 -2.3139
   56SOL     MW  224   0.634   0.907   0.173 -0.1923  0.2397 -0.6156
   57SOL     OW  225   1.109   1.258   1.125 -0.9890  0.2673  0.0218
   57SOL    HW1  226   1.204   1.297   1.128  0.3676 -1.2095 -2.6355
   57SOL    HW2  227   1.090   1.204   1.206 -1.2710 -2.0838 -1.2568
   57SOL     MW  228   1.119   1.256   1.136 -0.8472 -0.2378 -0.4975
   58SOL     OW  229   0.469   1.249   1.267 -0.6872  0.0033  0.6956
   58SOL    HW1  230   0.455   1.342   1.246 -0.8969 -1.4663  0.7255
   58SOL    HW2  231   0.462   1.230   1.356  0.7455 -1.0689 -0.0031
   58SOL     MW  232   0.466   1.259   1.276 -0.5258 -0.3320  0.6073
   59SOL     OW  233   1.438   1.698   0.368 -0.0052  0.1719  0.7006
   59SOL    HW1  234   1.506   1.722   0.434  0.2217  2.2000  1.5200
   59SOL    HW2  235   1.379   1.644   0.420 -0.4717 -0.3197  3.7626
   59SOL     MW  236   1.439   1.694   0.384 -0.0368  0.3747  1.2127
   60SOL     OW  237   3.070   0.194   1.674  0.5723 -0.1024 -0.6256
   60SOL    HW1  238   2.999   0.258   1.702  0.2875  3.1542 -1.1843
   60SOL    HW2  239   3.048   0.119   1.724  2.1664  4.0844 -1.3071
   60SOL     MW  240   3.058   0.193   1.684  0.7450  0.8797 -0.7892
   61SOL     OW  241   1.972   1.396   2.996  0.0875 -0.4111 -0.3610
   61SOL    HW1  242   1.918   1.382   3.076 -3.3236  0.0709 -0.6927
   61SOL    HW2  243   2.023   1.321   2.971 -0.6090  1.3372  2.2088
   61SOL     MW  244   1.972   1.384   3.003 -0.4545 -0.1168 -0.0657
   62SOL     OW  245   0.579   1.722   0.596  0.6024 -0.0726 -0.0471
   62SOL    HW1  246   0.672   1.742   0.575  1.3088  0.3270  0.2303
   62SOL    HW2  247   0.574   1.628   0.568  2.1969 -2.2956 -1.3844
   62SOL     MW  248   0.591   1.712   0.589  0.9060 -0.3132 -0.1869
   63SOL     OW  249   1.738   0.680   0.648  0.1748  0.4228  0.0586
   63SOL    HW1  250   1.736   0.769   0.607 -0.9885 -0.5684 -0.0764
   63SOL    HW2  251   1.645   0.674   0.681 -0.2603  0.8110 -1.7669
   63SOL     MW  252   1.726   0.691   0.647 -0.0361  0.3432 -0.2000
   64SOL     OW  253   0.228   1.653   0.762  0.0359 -0.2808  0.0577
   64SOL    HW1  254   0.285   1.701   0.703 -1.0628  1.7840 -1.3343
   64SOL    HW2  255   0.154   1.712   0.768  1.9981  1.6928 -2.8871
   64SOL     MW  256   0.226   1.667   0.755  0.1499  0.2520 -0.5145
   65SOL     OW  257   1.501   2.317   0.352 -0.3072 -0.1673 -0.0050
   65SOL    HW1  258   1.583   2.351   0.381 -1.2744  0.1164  2.0941
   65SOL    HW2  259   1.441   2.356   0.416 -2.1582  1.6146  2.1132
   65SOL     MW  260   1.504   2.327   0.364 -0.6791  0.1052  0.5514
   66SOL     OW  261   0.348   0.600   0.481  0.1870  0.7714  0.4512
   66SOL    HW1  262   0.416   0.617   0.418 -0.0659  0.1650  0.9464
   66SOL    HW2  263   0.304   0.682   0.517  1.6447 -0.5468  0.5946
   66SOL     MW  264   0.351   0.613   0.477  0.3460  0.5175  0.5354
   67SOL     OW  265   1.481   0.062   1.984 -0.0372 -0.4195  0.5967
   67SOL    HW1  266   1.498   0.077   1.892  0.6382  0.0583 -1.3794
   67SOL    HW2  267   1.404   0.005   1.988  1.6837  0.4474 -1.9285
   67SOL     MW  268   1.473   0.056   1.972  0.2789 -0.2421  0.0028
   68SOL     OW  269   0.800   3.081   2.991 -0.3363  0.1418  0.2770
   68SOL    HW1  270   0.789   3.122   2.904  1.7776 -3.4244 -0.3662
   68SOL    HW2  271   0.888   3.109   3.018  2.1855 -1.5676  1.9463
   68SOL     MW  272   0.810   3.090   2.983  0.2753 -0.5543  0.4124
   69SOL     OW  273   0.982   0.220   1.949  0.7910  0.0675 -0.1580
   69SOL    HW1  274   1.076   0.230   1.961  0.6637  2.0445 -0.4954
   69SOL    HW2  275   0.955   0.165   2.019  0.1147  2.9391 -1.0146
   69SOL     MW  276   0.991   0.214   1.960  0.6850  0.7072 -0.3155
   70SOL     OW  277   0.495   1.757   1.068 -0.4026  0.1288  0.4351
   70SOL    HW1  278   0.576   1.812   1.073  2.7779 -0.6817 -3.7823
   70SOL    HW2  279   0.527   1.697   1.001 -0.7747  1.4686  1.4482
   70SOL     MW  280   0.510   1.756   1.060 -0.0321  0.1986  0.0123
   71SOL     OW  281   1.485   0.539   1.200  0.6552  0.2609  0.6655
   71SOL    HW1  282   1.472   0.602   1.272 -0.9033  2.1848  0.4106
   71SOL    HW2  283   1.499   0.588   1.117 -2.6617 -1.7380  0.0907
   71SOL     MW  284   1.485   0.554   1.199  0.0119  0.2510  0.5561
   72SOL     OW  285   0.745   1.852   1.026  0.3883  0.1291 -0.4962
   72SOL    HW1  286   0.755   1.926   0.965  2.4841  0.3110 -0.7546
   72SOL    HW2  287   0.774   1.784   0.971 -0.4109 -0.0316  0.7405
   72SOL     MW  288   0.750   1.853   1.011  0.5593  0.1319 -0.3671
   73SOL     OW  289   1.213   0.673   1.328  0.0227 -0.1853 -0.8695
   73SOL    HW1  290   1.137   0.606   1.338 -4.8933 -1.0855 -0.0681
   73SOL    HW2  291   1.166   0.751   1.367  0.0360 -0.3486  0.5747
   73SOL     MW  292   1.197   0.675   1.334 -0.6242 -0.3256 -0.5732
   74SOL     OW  293   2.869   0.155   1.025 -0.6401 -0.7620 -0.3290
   74SOL    HW1  294   2.933   0.125   0.967 -2.8100  0.1928 -1.0808
   74SOL    HW2  295   2.842   0.237   0.992  0.6244 -1.3190  0.5332
   74SOL     MW  296   2.874   0.162   1.013 -0.7596 -0.7095 -0.3144
   75SOL     OW  297   1.580   1.345   0.156 -0.3140  0.0202  0.1972
   75SOL    HW1  298   1.646   1.303   0.104 -0.5968  1.5784 -1.9567
   75SOL    HW2  299   1.607   1.323   0.253 -1.2863 -2.1431 -0.4016
   75SOL     MW  300   1.592   1.337   0.162 -0.4796 -0.0596 -0.1660
   76SOL     OW  301   2.989   0.633   0.479 -0.1225  0.4697  0.8088
   76SOL    HW1  302   3.032   0.692   0.545 -0.9225  1.5485  0.4086
   76SOL    HW2  303   3.063   0.594   0.424  0.9456  1.8646  2.5135
   76SOL     MW  304   3.004   0.636   0.480 -0.0871  0.7960  0.9809
   77SOL     OW  305   0.874   0.600   0.421  0.2365  0.2613  0.1191
   77SOL    HW1  306   0.852   0.618   0.330  0.1061 -2.4357  0.4981
   77SOL    HW2  307   0.871   0.505   0.416 -1.8711  0.7219  0.1442
   77SOL     MW  308   0.871   0.590   0.408 -0.0588 -0.0338  0.1724
   78SOL     OW  309   0.738   0.848   1.113  0.4202 -0.2074 -0.5113
   78SOL    HW1  310   0.724   0.930   1.060  1.3544 -2.3429 -0.3573
   78SOL    HW2  311   0.648   0.837   1.143 -1.8051 -0.6284 -4.2653
   78SOL     MW  312   0.724   0.857   1.110  0.2498 -0.5447 -0.9863
   79SOL     OW  313   1.858   1.578   0.570  0.2433 -0.4273 -0.1330
   79SOL    HW1  314   1.772   1.539   0.590 -2.2355 -3.4524  1.3981
   79SOL    HW2  315   1.894   1.615   0.654  0.0218  0.0252  1.8973
   79SOL     MW  316   1.852   1.578   0.584 -0.1130 -0.7667  0.3369
   80SOL     OW  317   0.088   0.977   0.351 -0.0704 -0.2678 -0.3263
   80SOL    HW1  318   0.006   0.924   0.365 -3.4221  0.7776 -0.5759
   80SOL    HW2  319   0.162   0.934   0.393 -0.2968  0.5575 -1.6376
   80SOL     MW  320   0.087   0.964   0.358 -0.5425 -0.0210 -0.5322
   81SOL     OW  321   1.816   1.845   0.335 -0.2368  0.3050  0.1218
   81SOL    HW1  322   1.798   1.758   0.310 -0.1829  3.4480  0.4745
   81SOL    HW2  323   1.781   1.899   0.262  1.4207 -0.9193  0.2838
   81SOL     MW  324   1.809   1.841   0.322 -0.0110  0.5581  0.1897
   82SOL     OW  325   0.887   1.022   0.518  0.1487  0.3905  0.1371
   82SOL    HW1  326   0.823   1.053   0.454  1.1422 -0.7800  0.2632
   82SOL    HW2  327   0.869   0.931   0.546  0.1960  0.2517 -2.1652
   82SOL     MW  328   0.877   1.014   0.514  0.2860  0.2177 -0.1500
   83SOL     OW  329   0.042   0.772   1.536  0.1941 -0.2150  0.5716
   83SOL    HW1  330   0.054   0.805   1.445  2.7167  1.4932 -0.0486
   83SOL    HW2  331   0.110   0.702   1.535  1.1938 -3.4963 -0.9284
   83SOL     MW  332   0.053   0.767   1.524  0.6589 -0.4225  0.2918
   84SOL     OW  333   0.051   0.208   0.913 -0.0442  0.2932 -0.1919
   84SOL    HW1  334   0.011   0.285   0.957  0.2610  0.6272  1.3349
   84SOL    HW2  335   0.046   0.146   0.988  0.4559 -2.1454  0.3661
   84SOL     MW  336   0.045   0.210   0.929  0.0620  0.0155  0.0832
   85SOL     OW  337   0.396   0.461   0.716 -0.1992 -0.2344 -0.1198
   85SOL    HW1  338   0.392   0.507   0.632  2.1607  0.5653  0.0281
   85SOL    HW2  339   0.364   0.374   0.704 -2.0606  2.2847  0.6110
   85SOL     MW  340   0.391   0.456   0.703 -0.1335  0.2035 -0.0039
   86SOL     OW  341   1.204   0.247   1.144  0.6677  0.4665  0.5211
   86SOL    HW1  342   1.184   0.333   1.105  1.1271  1.3690  0.0361
   86SOL    HW2  343   1.290   0.261   1.182 -1.6792 -0.5034 -0.9308
   86SOL     MW  344   1.213   0.260   1.144  0.4187  0.4576  0.2655
   87SOL     OW  345   1.047   1.514   1.209  0.4042  0.3584  0.5221
   87SOL    HW1  346   1.107   1.572   1.157 -1.9003  0.4017  1.2695
   87SOL    HW2  347   1.049   1.430   1.159 -1.6113 -1.7800  0.9701
   87SOL     MW  348   1.055   1.511   1.196 -0.1658  0.0820  0.6799
   88SOL     OW  349   1.256   1.063   1.031  0.1098  0.1508  0.1129
   88SOL    HW1  350   1.341   1.106   1.021  2.3490  1.5860  0.3923
   88SOL    HW2  351   1.201   1.131   1.073 -0.4683  1.1286  0.4037
   88SOL     MW  352   1.260   1.078   1.035  0.3290  0.4692  0.1881
   89SOL     OW  353   1.738   0.732   0.290 -0.1849 -0.2351 -0.2802
   89SOL    HW1  354   1.715   0.655   0.339 -1.2612 -1.9833 -1.6980
   89SOL    HW2  355   1.834   0.720   0.272  0.1251  0.4410 -0.4041
   89SOL     MW  356   1.748   0.721   0.294 -0.2860 -0.3765 -0.4836
   90SOL     OW  357   0.842   1.208   2.901  0.2394  0.3939  0.2304
   90SOL    HW1  358   0.890   1.125   2.906 -1.4732 -3.0052 -1.4498
   90SOL    HW2  359   0.852   1.241   2.992 -1.5417  0.6818 -0.5972
   90SOL     MW  360   0.849   1.202   2.914 -0.2216 -0.0166 -0.1005
   91SOL     OW  361   2.189   0.639   0.443 -0.3629 -0.6864 -0.0572
   91SOL    HW1  362   2.271   0.660   0.385  4.0067 -0.5508 -0.2182
   91SOL    HW2  363   2.163   0.550   0.424  1.1240  0.3125  0.2848
   91SOL     MW  364   2.196   0.630   0.433  0.4098 -0.5367 -0.0333
   92SOL     OW  365   1.636   0.952   0.578  0.1739  0.2631 -0.2327
   92SOL    HW1  366   1.557   0.985   0.619  1.6804 -0.1584 -0.1081
   92SOL    HW2  367   1.625   0.960   0.481 -2.5701  3.0802 -0.5362
   92SOL     MW  368   1.624   0.958   0.570  0.0106  0.5792 -0.2563
   93SOL     OW  369   1.091   0.228   0.366 -0.3876  0.5693 -0.7874
   93SOL    HW1  370   1.000   0.257   0.390  1.1729 -0.3230 -0.6499
   93SOL    HW2  371   1.120   0.268   0.276  2.3780 -0.3099 -0.4939
   93SOL     MW  372   1.083   0.237   0.357  0.1832  0.3355 -0.7306
   94SOL     OW  373   1.826   1.361   1.549 -0.3441 -0.0166  0.8452
   94SOL    HW1  374   1.850   1.382   1.458  1.2478 -1.4143 -1.4932
   94SOL    HW2  375   1.836   1.265   1.564  1.5554 -0.7993  1.3795
   94SOL     MW  376   1.830   1.351   1.539  0.1166 -0.3043  0.6072
   95SOL     OW  377   0.633   1.543   0.928 -0.8886  0.1529 -0.2461
   95SOL    HW1  378   0.675   1.492   1.004  0.2640  2.4466 -2.6223
   95SOL    HW2  379   0.567   1.480   0.893  1.3188 -0.7779  1.2135
   95SOL     MW  380   0.630   1.528   0.934 -0.4453  0.3327 -0.3671
   96SOL     OW  381   1.343   1.851   1.678 -0.4651 -0.2239 -0.5958
   96SOL    HW1  382   1.247   1.858   1.698 -0.1658 -0.2713 -3.8260
   96SOL    HW2  383   1.354   1.769   1.629 -0.7818  0.7484 -3.0060
   96SOL     MW  384   1.332   1.841   1.674 -0.4674 -0.1019 -1.3400
   97SOL     OW  385   1.071   1.471   0.934 -0.0232  0.0976  0.4288
   97SOL    HW1  386   1.149   1.527   0.933  0.7190 -0.1406  0.0532
   97SOL    HW2  387   1.002   1.524   0.892  0.4315  1.6348 -2.7164
   97SOL     MW  388   1.073   1.485   0.928  0.1347  0.2690 -0.0358
   98SOL     OW  389   1.362   1.364   1.167 -0.0430  0.5648  0.6773
   98SOL    HW1  390   1.402   1.376   1.250 -0.8036 -0.8311 -1.0312
   98SOL    HW2  391   1.417   1.410   1.103 -1.3315  0.1805 -2.8901
   98SOL     MW  392   1.374   1.372   1.170 -0.3133  0.3299 -0.0188
   99SOL     OW  393   1.456   0.272   1.274  0.6446 -0.2921  0.2276
   99SOL    HW1  394   1.471   0.368   1.246 -1.1955 -3.1715 -1.2694
   99SOL    HW2  395   1.416   0.287   1.363 -2.0896  1.0935  0.5892
   99SOL     MW  396   1.453   0.287   1.282  0.0411 -0.4892  0.0778
  100SOL     OW  397   1.050   1.173   1.361  0.5739 -0.1716 -0.6274
  100SOL    HW1  398   1.081   1.221   1.441  1.4121  0.3432 -0.2260
  100SOL    HW2  399   1.073   1.081   1.376 -0.6896 -1.7063  1.9020
  100SOL     MW  400   1.057   1.167   1.374  0.5178 -0.3061 -0.2407
  101SOL     OW  401   0.526   1.200   0.391 -0.2933  0.2539  0.6100
  101SOL    HW1  402   0.454   1.159   0.337  1.8954 -1.3786 -2.0032
  101SOL    HW2  403   0.603   1.183   0.333  0.2248 -1.7814 -1.6633
  101SOL     MW  404   0.527   1.192   0.376  0.0638 -0.2300 -0.0347
  102SOL     OW  405   2.903   0.660   1.074  0.3177 -0.2650  0.4038
  102SOL    HW1  406   2.926   0.754   1.050  0.7079  1.0957  0.5650
  102SOL    HW2  407   2.897   0.654   1.168  0.9415  0.2075  3.3773
  102SOL     MW  408   2.905   0.672   1.083  0.4515 -0.0231  0.8174
  103SOL     OW  409   1.846   0.252   1.821  0.5824 -0.0506  0.7077
  103SOL    HW1  410   1.820   0.158   1.802 -1.5520 -1.4140  0.7760
  103SOL    HW2  411   1.860   0.264   1.917  0.0234  2.2252 -0.2669
  103SOL     MW  412   1.845   0.241   1.831  0.2270  0.0698  0.5881
  104SOL     OW  413   0.073   1.527   1.647  0.0840  0.0681  0.2535
  104SOL    HW1  414   0.123   1.446   1.679  1.2962 -0.3446  0.5905
  104SOL    HW2  415  -0.020   1.490   1.661  3.4154  0.3340  1.4600
  104SOL     MW  416   0.067   1.512   1.653  0.6835  0.0487  0.4571
  105SOL     OW  417   3.062   1.225   0.409 -0.2750  0.1270 -0.2222
  105SOL    HW1  418   3.091   1.138   0.380  0.6443  1.7101  2.6425
  105SOL    HW2  419   3.140   1.274   0.410 -1.7609  0.5532 -1.8795
  105SOL     MW  420   3.076   1.220   0.405 -0.3497  0.3921 -0.0629
  106SOL     OW  421   0.771   0.394   0.872  0.6362 -0.7299 -0.1575
  106SOL    HW1  422   0.700   0.434   0.921  0.4719 -1.9160 -1.2077
  106SOL    HW2  423   0.794   0.464   0.812 -0.2074  0.8757 -1.3323
  106SOL     MW  424   0.765   0.409   0.871  0.5032 -0.6745 -0.4510
  107SOL     OW  425   0.826   2.162   2.885  0.3342  0.1178 -0.8437
  107SOL    HW1  426   0.730   2.161   2.874  2.4573  2.3822  2.2398
  107SOL    HW2  427   0.832   2.151   2.982 -0.8885 -1.2271 -0.3650
  107SOL     MW  428   0.814   2.160   2.896  0.4530  0.2392 -0.3737
  108SOL     OW  429   1.352   1.589   1.641 -0.1916 -0.1871  0.0400
  108SOL    HW1  430   1.307   1.566   1.560  0.0257 -0.2626  6.0956
  108SOL    HW2  431   1.420   1.529   1.659 -0.7501 -0.7956 -1.8062
  108SOL     MW  432   1.355   1.578   1.633 -0.2367 -0.2774  0.5954
  109SOL     OW  433   2.017   0.743   0.245  0.6600  0.6771 -0.4075
  109SOL    HW1  434   2.009   0.840   0.274  0.6909  2.0761  0.9527
  109SOL    HW2  435   2.071   0.705   0.320  1.9906  1.1242  1.7698
  109SOL     MW  436   2.023   0.750   0.259  0.8396  0.9207  0.0592
  110SOL     OW  437   0.424   1.977   0.704 -0.0254  0.4137  0.2468
  110SOL    HW1  438   0.462   1.906   0.652 -0.6363 -0.0657 -1.3938
  110SOL    HW2  439   0.430   2.051   0.644  1.7249  1.1680 -3.8538
  110SOL     MW  440   0.430   1.978   0.689  0.1250  0.4500 -0.5107
  111SOL     OW  441   0.832   0.906   1.376  0.4006  0.0728 -0.4402
  111SOL    HW1  442   0.808   0.893   1.284  1.1859 -1.2178 -0.3815
  111SOL    HW2  443   0.795   0.821   1.416  0.7180  0.3240 -0.0943
  111SOL     MW  444   0.824   0.893   1.369  0.5461 -0.0643 -0.3868
  112SOL     OW  445   1.376   1.070   1.597  0.0456  0.2545  0.2624
  112SOL    HW1  446   1.307   1.142   1.610  0.6367 -0.3057  0.2970
  112SOL    HW2  447   1.351   0.980   1.616  2.3950  0.6705 -0.9016
  112SOL     MW  448   1.363   1.068   1.601  0.4336  0.2355  0.1134
  113SOL     OW  449   1.265   3.057   1.683 -0.2139 -0.5101  0.0101
  113SOL    HW1  450   1.250   3.027   1.775 -0.1599 -0.3433  1.2929
  113SOL    HW2  451   1.257   2.983   1.622  0.8989 -1.4294  1.1371
  113SOL     MW  452   1.262   3.044   1.687 -0.0600 -0.6094  0.3280
  114SOL     OW  453   0.269   2.881   1.891  0.0055  0.6820  0.0176
  114SOL    HW1  454   0.359   2.923   1.890 -1.1846 -1.5500  4.1225
  114SOL    HW2  455   0.207   2.950   1.902  1.9310 -0.6159 -2.4984
  114SOL     MW  456   0.272   2.896   1.892  0.1025  0.2163  0.2273
  115SOL     OW  457   0.456   0.814   1.195 -0.3217  0.1975  0.3352
  115SOL    HW1  458   0.457   0.718   1.224  0.5942  0.1079 -1.7021
  115SOL    HW2  459   0.395   0.848   1.256 -0.5565  2.7349  0.1353
  115SOL     MW  460   0.448   0.806   1.207 -0.2319  0.5205  0.0400
  116SOL     OW  461   0.779   1.090   0.982 -0.2022 -0.0051 -0.3510
  116SOL    HW1  462   0.808   1.125   0.891  0.8301  1.4270  0.0662
  116SOL    HW2  463   0.829   1.151   1.040  1.8264  3.9275 -2.3775
  116SOL     MW  464   0.790   1.103   0.978  0.2017  0.7027 -0.5633
  117SOL     OW  465   1.125   1.224   0.826 -0.0825  0.5088 -0.4460
  117SOL    HW1  466   1.148   1.154   0.891  2.2696  0.1874  0.2461
  117SOL    HW2  467   1.112   1.299   0.892  2.5006  0.6173  3.7003
  117SOL     MW  468   1.126   1.224   0.843  0.5687  0.4807  0.1924
  118SOL     OW  469   3.009   2.943   1.718 -0.0708  0.4843  0.3187
  118SOL    HW1  470   3.042   2.967   1.806  2.1248  0.5415  2.4041
  118SOL    HW2  471   2.916   2.964   1.715 -2.4430 -1.4225 -0.2162
  118SOL     MW  472   3.001   2.949   1.730 -0.0941  0.2403  0.5233
  119SOL     OW  473   0.410   1.535   1.237 -0.2134  0.5258 -0.4333
  119SOL    HW1  474   0.423   1.609   1.179 -1.1244  0.6419 -1.4495
  119SOL    HW2  475   0.322   1.508   1.211  2.2411  0.3954 -3.4324
  119SOL     MW  476   0.400   1.542   1.226 -0.0097  0.5239 -0.9631
  120SOL     OW  477   0.244   0.785   0.990  0.5898  0.8005  0.3515
  120SOL    HW1  478   0.298   0.778   1.070  2.2021  0.1714  0.3943
  120SOL    HW2  479   0.321   0.802   0.925 -1.7165 -0.7186 -6.0025
  120SOL     MW  480   0.261   0.787   0.992  0.4982  0.5171 -0.4812
  121SOL     OW  481   1.790   1.107   1.624  0.4022  0.4121 -0.6694
  121SOL    HW1  482   1.730   1.113   1.548  1.9459  1.2282  2.6824
  121SOL    HW2  483   1.839   1.023   1.605 -1.4677 -2.3225 -2.2681
  121SOL     MW  484   1.789   1.097   1.611  0.3592  0.1589 -0.4381
  122SOL     OW  485   0.181   0.577   0.825 -0.1850 -0.2940 -0.2460
  122SOL    HW1  486   0.261   0.527   0.802 -1.3718  2.2949  1.1262
  122SOL    HW2  487   0.205   0.639   0.891  0.0304 -0.0864  1.2163
  122SOL     MW  488   0.194   0.579   0.831 -0.3131  0.0750  0.1280
  123SOL     OW  489   1.861   1.112   0.514  0.0554 -0.1528 -0.0357
  123SOL    HW1  490   1.785   1.065   0.552  0.6719 -0.3020  1.7390
  123SOL    HW2  491   1.880   1.188   0.573 -0.9440  0.0659  1.4594
  123SOL     MW  492   1.853   1.116   0.527  0.0049 -0.1436  0.3957
  124SOL     OW  493   0.527   0.542   0.964  0.2596  0.0835 -0.0661
  124SOL    HW1  494   0.492   0.530   0.874 -1.7783 -0.6915  0.0413
  124SOL    HW2  495   0.594   0.609   0.959  0.1736  0.8508  0.0826
  124SOL     MW  496   0.531   0.549   0.952 -0.0206  0.0825 -0.0323
  125SOL     OW  497   0.719   1.728   1.771 -0.5912  0.0077  0.4403
  125SOL    HW1  498   0.661   1.654   1.780  2.0794 -1.7279  1.1443
  125SOL    HW2  499   0.682   1.803   1.736 -1.1194 -1.2189 -0.9527
  125SOL     MW  500   0.707   1.728   1.768 -0.3085 -0.3831  0.3494
  126SOL     OW  501   2.141   1.517   1.957  0.5176  0.5404 -0.2878
  126SOL    HW1  502   2.211   1.580   1.958 -2.8174  0.5682  1.8623
  126SOL    HW2  503   2.181   1.434   1.956  2.5298  1.4280 -0.6061
  126SOL     MW  504   2.155   1.514   1.957  0.3431  0.6612 -0.0461
  127SOL     OW  505   0.559   0.849   1.771 -0.1502 -0.5454  0.1299
  127SOL    HW1  506   0.647   0.807   1.776  1.3528 -1.8867 -1.2694
  127SOL    HW2  507   0.546   0.897   1.857 -0.2213  0.9506  0.1664
  127SOL     MW  508   0.569   0.849   1.783  0.0387 -0.5250 -0.0499
  128SOL     OW  509   1.735   0.707   2.877  0.2400 -0.7618 -0.1552
  128SOL    HW1  510   1.739   0.715   2.775  2.3026  3.0307 -2.4405
  128SOL    HW2  511   1.695   0.794   2.888  0.2604 -0.5787 -0.8035
  128SOL     MW  512   1.730   0.720   2.865  0.5149 -0.2372 -0.5423
  129SOL     OW  513   1.579   0.939   0.198 -0.6750  0.4830 -0.6209
  129SOL    HW1  514   1.520   0.865   0.172 -2.0691  2.7218  0.0547
  129SOL    HW2  515   1.646   0.896   0.251  0.2267 -0.8110  0.2958
  129SOL     MW  516   1.580   0.924   0.202 -0.7400  0.6077 -0.4108
  130SOL     OW  517   0.808   1.415   0.325  0.7444  0.6619 -0.2707
  130SOL    HW1  518   0.809   1.452   0.423  0.3454  0.0505  0.8779
  130SOL    HW2  519   0.884   1.446   0.282  1.2777  0.0718 -0.5988
  130SOL     MW  520   0.819   1.424   0.332  0.7621  0.5034 -0.1625
  131SOL     OW  521   3.094   0.791   0.033  0.2086 -0.4135  0.8398
  131SOL    HW1  522   3.056   0.853  -0.034  0.8870 -1.5179 -0.1007
  131SOL    HW2  523   3.184   0.776   0.019 -0.4601 -1.6986 -1.2884
  131SOL     MW  524   3.101   0.797   0.022  0.2099 -0.7288  0.4349
  132SOL     OW  525   2.738   0.131   1.268  0.5611 -0.2566 -0.0053
  132SOL    HW1  526   2.774   0.149   1.181 -1.8767 -0.3783 -2.7564
  132SOL    HW2  527   2.648   0.085   1.242 -0.1819 -0.9121 -2.6403
  132SOL     MW  528   2.731   0.127   1.253  0.1414 -0.3592 -0.7159
  133SOL     OW  529   1.011   0.100   1.674  0.0345  0.2346 -0.3798
  133SOL    HW1  530   1.100   0.055   1.680  2.4684 -1.4910 -0.5406
  133SOL    HW2  531   0.981   0.110   1.767 -2.8254 -2.8596 -0.0774
  133SOL     MW  532   1.019   0.096   1.687 -0.0217 -0.4013 -0.3611
  134SOL     OW  533   1.422   2.418   1.474 -0.0639  0.2184  0.0248
  134SOL    HW1  534   1.348   2.481   1.453 -2.3784  0.9546  2.0038
  134SOL    HW2  535   1.452   2.462   1.556  0.9202  1.4012 -0.8118
  134SOL     MW  536   1.416   2.432   1.482 -0.2394  0.4716  0.1756
  135SOL     OW  537   3.012   0.982   2.948 -0.3418  0.0703  0.4813
  135SOL    HW1  538   3.090   1.029   2.987  0.6743  0.6074  2.0088
  135SOL    HW2  539   2.958   1.048   2.900 -2.1100  1.7290  0.6134
  135SOL     MW  540   3.015   0.997   2.947 -0.4410  0.3600  0.7003
  136SOL     OW  541   0.211   1.999   0.884 -0.0730 -0.3449 -0.2684
  136SOL    HW1  542   0.144   1.966   0.820  1.0086 -0.5649  2.5957
  136SOL    HW2  543   0.294   1.989   0.841 -0.0375 -1.5883  0.4018
  136SOL     MW  544   0.213   1.994   0.870  0.0744 -0.5380  0.1979
  137SOL     OW  545   0.701   2.045   0.571 -0.0607 -0.5163  0.0995
  137SOL    HW1  546   0.715   2.022   0.662  0.1319 -2.0232 -1.0301
  137SOL    HW2  547   0.601   2.058   0.564  0.1887 -0.9013  2.3990
  137SOL     MW  548   0.690   2.044   0.582 -0.0024 -0.7659  0.2538
  138SOL     OW  549   0.429   0.539   1.212 -0.2071 -0.0889  0.2804
  138SOL    HW1  550   0.333   0.532   1.211  2.5734  1.0842  0.3805
  138SOL    HW2  551   0.457   0.516   1.123  3.1913  2.4506  0.2639
  138SOL     MW  552   0.420   0.535   1.200  0.6082  0.4010  0.2914
  139SOL     OW  553   2.811   0.570   1.354  0.1806  0.1621  0.0531
  139SOL    HW1  554   2.855   0.483   1.335 -0.3965  0.1447 -0.5623
  139SOL    HW2  555   2.835   0.596   1.445 -1.1211 -1.1387  0.5178
  139SOL     MW  556   2.820   0.562   1.363 -0.0673 -0.0118  0.0332
  140SOL     OW  557   0.881   0.487   1.970  0.5984 -0.1019 -0.2986
  140SOL    HW1  558   0.914   0.398   1.971  1.0584 -1.3990 -0.9998
  140SOL    HW2  559   0.859   0.502   2.063 -0.1451  0.3386  0.1916
  140SOL     MW  560   0.883   0.478   1.983  0.5610 -0.2149 -0.3264
  141SOL     OW  561   1.012   0.676   1.658  0.2811  0.2117 -0.4740
  141SOL    HW1  562   1.059   0.597   1.643 -0.2587 -0.6776  0.7199
  141SOL    HW2  563   1.086   0.737   1.680  0.3348 -3.0705  0.1926
  141SOL     MW  564   1.028   0.674   1.659  0.2169 -0.3387 -0.2285
  142SOL     OW  565   0.877   1.215   0.722  0.2693  0.0434 -0.2489
  142SOL    HW1  566   0.883   1.162   0.639  0.6590 -0.5163 -1.1744
  142SOL    HW2  567   0.964   1.203   0.763 -0.7988 -1.8354  2.3582
  142SOL     MW  568   0.889   1.207   0.717  0.1798 -0.2783 -0.0270
  143SOL     OW  569   1.861   0.668   1.062 -0.0816 -0.4778  0.2973
  143SOL    HW1  570   1.924   0.685   0.985 -0.7076  3.3686 -0.6824
  143SOL    HW2  571   1.782   0.694   1.014  0.6555  0.2808 -1.8812
  143SOL     MW  572   1.859   0.674   1.046 -0.0669  0.1298 -0.1194
  144SOL     OW  573   0.268   1.312   1.728 -0.0825  0.5100  0.3853
  144SOL    HW1  574   0.341   1.370   1.703 -0.0733 -4.6422  2.9310
  144SOL    HW2  575   0.304   1.267   1.806  3.6569 -1.7866 -0.1436
  144SOL     MW  576   0.282   1.314   1.735  0.4121 -0.4728  0.6514
  145SOL     OW  577   0.180   0.442   1.257  0.1016  0.2431  0.0725
  145SOL    HW1  578   0.241   0.358   1.267 -1.5445 -2.9076  0.1204
  145SOL    HW2  579   0.119   0.420   1.188 -0.2471  3.1135  0.5650
  145SOL     MW  580   0.180   0.428   1.249 -0.1616  0.2061  0.1438
  146SOL     OW  581   0.842   1.885   1.377 -0.6795  0.3450  0.7233
  146SOL    HW1  582   0.864   1.937   1.296 -1.2152 -0.8921 -0.9922
  146SOL    HW2  583   0.753   1.856   1.372 -1.3804 -1.5825  4.3023
  146SOL     MW  584   0.833   1.888   1.366 -0.8427 -0.0725  0.9692
  147SOL     OW  585   0.432   0.487   2.912  0.1845 -0.2983 -0.3790
  147SOL    HW1  586   0.346   0.490   2.952  1.1916 -1.2876 -0.3349
  147SOL    HW2  587   0.424   0.563   2.854  0.1804 -1.1324  0.6888
  147SOL     MW  588   0.419   0.497   2.910  0.3169 -0.5389 -0.2323
  148SOL     OW  589   0.064   0.931   1.275  0.3864  0.0790  0.6870
  148SOL    HW1  590   0.148   0.957   1.295 -2.5987  1.0529  0.2605
  148SOL    HW2  591   0.003   0.988   1.315  2.1058  1.5497  0.3932
  148SOL     MW  592   0.067   0.942   1.283  0.2194  0.4015  0.5919
  149SOL     OW  593   1.577   1.176   1.466  0.2614  0.1646 -0.2564
  149SOL    HW1  594   1.494   1.131   1.512 -0.9540  0.0198  0.6812
  149SOL    HW2  595   1.542   1.263   1.445 -1.6692 -0.9450  1.5266
  149SOL     MW  596   1.561   1.181   1.469 -0.1537 -0.0009  0.1026
  150SOL     OW  597   1.721   1.396   0.887  0.1371  0.2641  0.3145
  150SOL    HW1  598   1.775   1.317   0.868 -2.8677 -3.6170 -0.7275
  150SOL    HW2  599   1.776   1.473   0.895 -0.1611  0.5831 -1.7595
  150SOL     MW  600   1.735   1.396   0.886 -0.2987 -0.2059 -0.0966
  151SOL     OW  601   1.680   1.842   0.816 -0.2657  0.6468 -0.0311
  151SOL    HW1  602   1.649   1.836   0.724  0.3240  0.3417  0.3489
  151SOL    HW2  603   1.613   1.817   0.874 -0.6068  3.7429 -0.9461
  151SOL     MW  604   1.667   1.838   0.812 -0.2329  1.0151 -0.1017
  152SOL     OW  605   0.724   1.440   1.609 -0.6662 -0.4374 -0.7946
  152SOL    HW1  606   0.755   1.489   1.527  0.3325  1.0773 -0.0591
  152SOL    HW2  607   0.731   1.341   1.590 -0.8919 -1.9963  0.4823
  152SOL     MW  608   0.729   1.434   1.596 -0.5642 -0.4432 -0.5291
  153SOL     OW  609   2.574   1.224   0.750 -0.1031 -0.2987  0.0237
  153SOL    HW1  610   2.639   1.177   0.694  0.8623  1.4691  2.0260
  153SOL    HW2  611   2.516   1.158   0.796  0.2146  0.7638 -1.4266
  153SOL     MW  612   2.575   1.209   0.748  0.0662  0.0748  0.0965
  154SOL     OW  613   0.100   1.759   1.775 -0.1661  0.1665 -0.2863
  154SOL    HW1  614   0.079   1.678   1.736 -0.8523  1.7544 -1.4991
  154SOL    HW2  615   0.197   1.752   1.804 -2.1858 -1.9562 -2.0943
  154SOL     MW  616   0.110   1.747   1.773 -0.5231  0.0959 -0.6848
  155SOL     OW  617   1.213   0.765   0.306  0.4766 -0.3101 -0.3088
  155SOL    HW1  618   1.182   0.725   0.393  1.0867 -1.2190 -0.2736
  155SOL    HW2  619   1.224   0.858   0.327 -1.5634 -1.1873 -0.2354
  155SOL     MW  620   1.211   0.772   0.321  0.2879 -0.5458 -0.2945
  156SOL     OW  621   1.552   3.088   1.108 -0.1935  0.3192  0.0040
  156SOL    HW1  622   1.628   3.125   1.152 -1.2700  1.2550  0.2667
  156SOL    HW2  623   1.572   2.997   1.085 -3.5599 -0.8454 -1.7275
  156SOL     MW  624   1.565   3.081   1.111 -0.7797  0.2890 -0.1898
  157SOL     OW  625   1.413   1.133   0.123  0.2620 -0.1439  0.2209
  157SOL    HW1  626   1.471   1.055   0.150 -0.5273 -0.6184  2.5868
  157SOL    HW2  627   1.479   1.199   0.137 -0.0562 -3.3249 -0.1606
  157SOL     MW  628   1.429   1.132   0.128  0.1159 -0.6262  0.4827
  158SOL     OW  629   0.444   1.696   2.280 -0.0811 -0.4562 -0.0300
  158SOL    HW1  630   0.485   1.737   2.203  2.6195 -0.5719  0.4176
  158SOL    HW2  631   0.352   1.718   2.273  1.6949  2.5029 -3.8058
  158SOL     MW  632   0.437   1.704   2.269  0.5095 -0.0810 -0.4691
  159SOL     OW  633   1.196   1.613   0.495  0.0423  0.0999  0.2183
  159SOL    HW1  634   1.146   1.599   0.412  1.2098  0.9093 -1.8823
  159SOL    HW2  635   1.143   1.683   0.546 -2.5597 -0.7838 -0.4611
  159SOL     MW  636   1.183   1.621   0.491 -0.1469  0.0901 -0.1485
  160SOL     OW  637   0.510   1.220   1.546 -0.4874 -0.6075 -0.2834
  160SOL    HW1  638   0.445   1.155   1.584  0.1069 -0.7019  0.6975
  160SOL    HW2  639   0.598   1.184   1.570 -0.9612 -0.3394  0.8054
  160SOL     MW  640   0.513   1.206   1.554 -0.4715 -0.5846 -0.0103
  161SOL     OW  641   0.440   2.249   2.604 -0.8316  0.5904  1.0194
  161SOL    HW1  642   0.352   2.259   2.563  1.4694 -1.3451  2.6070
  161SOL    HW2  643   0.484   2.187   2.535  3.0787 -1.2374 -1.0449
  161SOL     MW  644   0.434   2.242   2.590 -0.0121  0.0939  0.9565
  162SOL     OW  645   1.077   1.811   1.805 -0.1802 -0.3255  0.1221
  162SOL    HW1  646   1.057   1.898   1.779 -0.0520 -1.7693 -2.6365
  162SOL    HW2  647   1.000   1.778   1.849  0.8088 -1.4431 -1.4086
  162SOL     MW  648   1.064   1.818   1.807 -0.0328 -0.6634 -0.4438
  163SOL     OW  649   2.114   3.077   0.851  0.6126  0.5614 -0.2172
  163SOL    HW1  650   2.113   3.141   0.772  0.0367  0.4024  1.5899
  163SOL    HW2  651   2.084   2.990   0.816  1.2633 -2.0813  0.9217
  163SOL     MW  652   2.110   3.074   0.836  0.6225  0.1918  0.1715
  164SOL     OW  653   0.293   0.200   0.786  0.1954  0.0935 -0.0175
  164SOL    HW1  654   0.204   0.204   0.822 -0.2477 -0.0705  1.3691
  164SOL    HW2  655   0.306   0.126   0.732  0.0708  2.6072 -0.8598
  164SOL     MW  656   0.283   0.191   0.783  0.1205  0.4035  0.0543
  165SOL     OW  657   1.188   1.310   0.324  0.0170 -0.4677 -0.2017
  165SOL    HW1  658   1.227   1.283   0.412  1.0452  0.8954  2.0743
  165SOL    HW2  659   1.230   1.257   0.260 -0.4286  0.7327  0.2594
  165SOL     MW  660   1.199   1.300   0.327  0.0939 -0.1294  0.1594
  166SOL     OW  661   0.519   1.134   1.032 -0.7726 -0.5905  0.7470
  166SOL    HW1  662   0.517   1.177   1.114 -1.1061  0.2939 -1.4714
  166SOL    HW2  663   0.621   1.123   1.018 -0.2704 -0.5769 -1.7826
  166SOL     MW  664   0.532   1.138   1.041 -0.7504 -0.4720  0.1205
  167SOL     OW  665   0.791   1.162   0.259 -0.1693  0.3645  0.4913
  167SOL    HW1  666   0.801   1.260   0.286  2.0209 -0.8254  2.1729
  167SOL    HW2  667   0.877   1.128   0.224  0.5479 -3.1205  0.8324
  167SOL     MW  668   0.804   1.170   0.258  0.2143 -0.2523  0.7582
  168SOL     OW  669   1.729   1.640   3.041 -0.4075 -0.8582 -0.0810
  168SOL    HW1  670   1.669   1.712   3.017 -2.2048  0.7204  0.7599
  168SOL    HW2  671   1.702   1.559   2.993 -1.6368 -0.9962  0.6249
  168SOL     MW  672   1.717   1.639   3.032 -0.8068 -0.6681  0.1231
  169SOL     OW  673   0.320   0.951   1.363  0.6094  0.5149  0.3747
  169SOL    HW1  674   0.371   0.971   1.449  0.8293  0.8390  0.6843
  169SOL    HW2  675   0.371   0.998   1.299 -1.6053  1.7447  0.9617
  169SOL     MW  676   0.334   0.960   1.366  0.3462  0.7199  0.4930
  170SOL     OW  677   1.178   1.506   1.444 -0.6132  0.8018  0.0084
  170SOL    HW1  678   1.131   1.575   1.488 -0.9446  2.1800 -1.2131
  170SOL    HW2  679   1.129   1.486   1.364 -0.3707 -3.2571  0.3447
  170SOL     MW  680   1.165   1.512   1.439 -0.6249  0.4481 -0.1084
  171SOL     OW  681   0.533   1.453   0.484 -0.3474  0.7739 -0.3381
  171SOL    HW1  682   0.483   1.435   0.558  2.5158  1.3418  1.8639
  171SOL    HW2  683   0.542   1.365   0.444  2.0982 -0.3093 -1.9808
  171SOL     MW  684   0.527   1.439   0.488  0.3531  0.7059 -0.2643
  172SOL     OW  685   0.777   0.237   1.244 -0.7592  0.4751  0.3952
  172SOL    HW1  686   0.767   0.182   1.162  0.6868 -1.6552 -2.4174
  172SOL    HW2  687   0.810   0.175   1.313  0.2516 -1.0285 -0.0888
  172SOL     MW  688   0.780   0.222   1.242 -0.4351 -0.0043 -0.0398
  173SOL     OW  689   0.529   1.744   0.312  0.8700 -1.0116  0.9110
  173SOL    HW1  690   0.531   1.646   0.286 -1.7484  0.9403  1.5114
  173SOL    HW2  691   0.561   1.745   0.400  2.4444 -0.9444  0.0410
  173SOL     MW  692   0.534   1.731   0.320  0.7322 -0.7452  0.8754
  174SOL     OW  693   1.857   0.865   1.506  0.9336  0.1174  0.7170
  174SOL    HW1  694   1.788   0.794   1.518 -1.2212  1.2032 -0.8051
  174SOL    HW2  695   1.830   0.904   1.418  0.3011  1.9751  0.7560
  174SOL     MW  696   1.844   0.861   1.496  0.5659  0.5058  0.5214
  175SOL     OW  697   0.555   1.513   0.144  0.1347 -0.3954 -0.0796
  175SOL    HW1  698   0.506   1.427   0.134  1.0143  0.4398 -2.5805
  175SOL    HW2  699   0.645   1.495   0.151 -0.0312  0.7213 -1.8887
  175SOL     MW  700   0.560   1.499   0.144  0.2288 -0.1379 -0.6483
  176SOL     OW  701   0.156   1.473   1.167 -0.1885  0.4296  0.5476
  176SOL    HW1  702   0.137   1.432   1.076 -0.0848 -0.2723 -3.7680
  176SOL    HW2  703   0.091   1.429   1.217 -0.3185 -0.5908  0.6501
  176SOL     MW  704   0.145   1.462   1.161 -0.1920  0.2024 -0.0082
  177SOL     OW  705   0.529   0.330   1.461  0.3742  0.1818 -0.1805
  177SOL    HW1  706   0.582   0.348   1.387  0.2160 -0.8941  0.5800
  177SOL    HW2  707   0.534   0.412   1.514  2.0513 -0.3277  2.3855
  177SOL     MW  708   0.537   0.343   1.458  0.5746 -0.0274  0.2584
  178SOL     OW  709   0.009   0.486   2.990  0.1872  0.2306 -0.2124
  178SOL    HW1  710  -0.037   0.501   3.070 -3.5097  0.3554  1.2384
  178SOL    HW2  711  -0.056   0.483   2.919 -1.5666  0.7311  2.0646
  178SOL     MW  712  -0.006   0.487   2.991 -0.5320  0.3131  0.2795
  179SOL     OW  713   1.554   1.446   1.384  0.2067  0.4647 -0.3072
  179SOL    HW1  714   1.573   1.452   1.480  0.7880 -0.8789 -1.0552
  179SOL    HW2  715   1.641   1.446   1.353 -1.0915  0.6707  1.3123
  179SOL     MW  716   1.568   1.447   1.393  0.1121  0.3146 -0.1922
  180SOL     OW  717   3.019   0.296   0.465  0.7475  0.4274 -1.0430
  180SOL    HW1  718   2.969   0.295   0.387  1.6866 -0.8286  1.3909
  180SOL    HW2  719   3.066   0.374   0.456 -2.2058 -0.0858  0.6819
  180SOL     MW  720   3.019   0.306   0.454  0.4818  0.1940 -0.4943
  181SOL     OW  721   1.120   1.281   3.091 -0.2746 -0.1745  0.0795
  181SOL    HW1  722   1.199   1.331   3.120 -1.3755  0.2436 -1.1121
  181SOL    HW2  723   1.161   1.243   3.018  0.8400  0.5398  3.6510
  181SOL     MW  724   1.136   1.283   3.085 -0.2728 -0.0251  0.3935
  182SOL     OW  725   0.373   0.983   1.626 -0.3060 -0.1613  0.1931
  182SOL    HW1  726   0.287   0.938   1.654 -0.5893 -0.7661 -2.9620
  182SOL    HW2  727   0.438   0.944   1.682  0.1436 -0.7702  0.6712
  182SOL     MW  728   0.370   0.972   1.637 -0.2841 -0.3215 -0.1601
  183SOL     OW  729   1.532   1.716   1.256 -0.0166  0.1166 -0.4273
  183SOL    HW1  730   1.624   1.710   1.277 -2.1531  2.1627 -2.2545
  183SOL    HW2  731   1.503   1.648   1.318  0.9422 -1.6728 -0.4923
  183SOL     MW  732   1.540   1.706   1.267 -0.1720  0.1505 -0.6770
  184SOL     OW  733   0.793   0.715   1.822 -0.3690  0.4595 -0.7932
  184SOL    HW1  734   0.877   0.708   1.781 -1.1621  1.6553  1.3625
  184SOL    HW2  735   0.771   0.621   1.840  1.4782  0.1264  0.5237
  184SOL     MW  736   0.801   0.702   1.819 -0.2299  0.5733 -0.3350
  185SOL     OW  737   1.067   0.941   1.880  0.3626  0.1313  0.6808
  185SOL    HW1  738   1.055   0.856   1.925 -1.9425  0.0401 -2.6315
  185SOL    HW2  739   1.125   0.998   1.929 -0.0771  1.5251  0.1966
  185SOL     MW  740   1.073   0.937   1.892  0.0004  0.3032  0.1799
  186SOL     OW  741   0.314   1.648   1.485 -0.3070 -0.3968  0.1354
  186SOL    HW1  742   0.336   1.605   1.402  2.2041  1.4825  0.8010
  186SOL    HW2  743   0.233   1.608   1.511  0.4959  2.2301  2.0897
  186SOL     MW  744   0.306   1.637   1.477  0.1303  0.1977  0.4810
  187SOL     OW  745   1.463   0.771   1.385 -0.6350  0.3282  0.0191
  187SOL    HW1  746   1.498   0.718   1.457 -0.6991  0.5933  1.1709
  187SOL    HW2  747   1.376   0.731   1.378  0.7915 -1.7419 -0.2048
  187SOL     MW  748   1.456   0.758   1.393 -0.4552  0.0901  0.1415
  188SOL     OW  749   1.941   1.208   0.832 -0.5914 -0.1767 -0.0293
  188SOL    HW1  750   1.916   1.184   0.927 -1.9333  1.2151  1.7526
  188SOL    HW2  751   1.979   1.134   0.790  0.2800 -0.7566  1.2588
  188SOL     MW  752   1.943   1.195   0.839 -0.6535 -0.0696  0.3758
  189SOL     OW  753   0.690   0.739   0.845 -0.4285 -0.4487  0.9347
  189SOL    HW1  754   0.612   0.789   0.854 -1.4848  0.5704  1.2349
  189SOL    HW2  755   0.735   0.763   0.929 -0.4659  0.8716  1.5076
  189SOL     MW  756   0.686   0.749   0.857 -0.5728 -0.1400  1.0499
  190SOL     OW  757   1.876   0.292   2.098  0.0075 -0.5915 -0.2137
  190SOL    HW1  758   1.864   0.230   2.174 -3.3179 -0.7788 -1.0499
  190SOL    HW2  759   1.965   0.332   2.095 -2.2629  0.7657 -2.2919
  190SOL     MW  760   1.886   0.289   2.108 -0.7308 -0.4371 -0.5982
  191SOL     OW  761   1.528   0.998   1.249 -0.0454 -0.5801 -0.3912
  191SOL    HW1  762   1.552   1.068   1.312  0.6388  1.1230 -1.5905
  191SOL    HW2  763   1.485   0.932   1.305 -0.9961 -1.6128 -0.7285
  191SOL     MW  764   1.526   0.999   1.265 -0.0806 -0.4917 -0.5939
  192SOL     OW  765   0.519   2.160   2.880 -0.1450  0.5335 -0.0512
  192SOL    HW1  766   0.473   2.162   2.800 -0.1445 -1.0280  0.1012
  192SOL    HW2  767   0.534   2.071   2.904 -0.0927 -0.1129 -1.2044
  192SOL     MW  768   0.515   2.149   2.873 -0.1380  0.2422 -0.1832
  193SOL     OW  769   0.871   1.604   0.793 -0.4890  0.2628 -0.6376
  193SOL    HW1  770   0.801   1.572   0.842  3.2720 -0.2329  0.6463
  193SOL    HW2  771   0.845   1.550   0.718 -3.4919  0.7299  4.1896
  193SOL     MW  772   0.859   1.593   0.790 -0.3890  0.2590  0.1687
  194SOL     OW  773   0.498   1.309   0.815  0.0067  0.3940 -0.4318
  194SOL    HW1  774   0.501   1.248   0.891 -0.8456 -1.0362  0.1644
  194SOL    HW2  775   0.405   1.321   0.794  1.4154  1.4634  2.3112
  194SOL     MW  776   0.486   1.302   0.822  0.0801  0.3464  0.0088
  195SOL     OW  777   1.302   1.098   2.937  0.1687  0.0935  0.4879
  195SOL    HW1  778   1.342   1.099   3.021  0.5492 -2.0953 -1.1895
  195SOL    HW2  779   1.232   1.037   2.960 -0.3395 -0.0740 -0.6580
  195SOL     MW  780   1.298   1.090   2.951  0.1518 -0.2174  0.1154
  196SOL     OW  781   2.270   0.989   0.567 -0.1351  0.3514  0.3930
  196SOL    HW1  782   2.230   0.932   0.509  2.0286  2.2862  0.2306
  196SOL    HW2  783   2.251   1.081   0.538  1.1551  1.7096 -1.7405
  196SOL     MW  784   2.262   0.994   0.556  0.3206  0.7859  0.0901
  197SOL     OW  785   0.615   1.286   2.214  0.7866  0.2607 -0.0424
  197SOL    HW1  786   0.617   1.204   2.166 -1.1000  3.2790 -0.0144
  197SOL    HW2  787   0.681   1.345   2.182  0.6951  1.2287 -0.4522
  197SOL     MW  788   0.624   1.283   2.204  0.5256  0.7867 -0.0927
  198SOL     OW  789   2.910   1.418   1.014 -0.7391 -0.4319 -0.7366
  198SOL    HW1  790   2.888   1.511   0.998  2.2459  1.0819  0.6819
  198SOL    HW2  791   2.830   1.361   0.990 -0.4268 -0.4935 -3.3085
  198SOL     MW  792   2.897   1.422   1.009 -0.3040 -0.2403 -0.8887
  199SOL     OW  793   0.745   1.316   1.857 -0.1332 -0.3102  0.2433
  199SOL    HW1  794   0.657   1.284   1.879 -1.3606 -0.5122 -0.3018
  199SOL    HW2  795   0.736   1.383   1.790 -1.8235 -0.7233  0.6082
  199SOL     MW  796   0.732   1.321   1.851 -0.5182 -0.3914  0.2195
  200SOL     OW  797   1.839   2.921   1.357 -0.0235  0.2559 -0.4323
  200SOL    HW1  798   1.907   2.956   1.289  1.3045 -1.3675 -1.2407
  200SOL    HW2  799   1.787   2.991   1.370  2.4470 -3.6383 -0.3817
  200SOL     MW  800   1.841   2.935   1.350  0.4777 -0.4721 -0.5323
  201SOL     OW  801   1.116   0.332   0.760  0.9604  0.1470  1.1072
  201SOL    HW1  802   1.072   0.247   0.766 -1.1077  1.4041 -2.4408
  201SOL    HW2  803   1.206   0.312   0.795 -0.4126 -0.6606  1.8136
  201SOL     MW  804   1.122   0.318   0.765  0.5064  0.2063  0.7322
  202SOL     OW  805   1.484   1.772   0.999  0.3666 -0.0097  0.6281
  202SOL    HW1  806   1.485   1.675   0.977  0.5318 -0.2651  0.7490
  202SOL    HW2  807   1.496   1.776   1.091  1.0288 -0.0643 -2.5503
  202SOL     MW  808   1.486   1.760   1.008  0.4758 -0.0506  0.2247
  203SOL     OW  809   2.988   0.356   1.355 -0.1590 -0.3615 -0.6486
  203SOL    HW1  810   3.018   0.266   1.369  0.9727  1.4523  2.5466
  203SOL    HW2  811   3.049   0.424   1.383  0.8792 -1.3343 -3.1978
  203SOL     MW  812   3.000   0.353   1.361  0.1273 -0.2505 -0.5634
  204SOL     OW  813   1.043   1.781   0.625 -0.4368  0.0309  0.1654
  204SOL    HW1  814   1.005   1.724   0.690 -2.9038  0.7760 -0.6129
  204SOL    HW2  815   0.969   1.793   0.564  0.4920  1.6995 -0.4142
  204SOL     MW  816   1.028   1.775   0.626 -0.6398  0.3494 -0.0138
  205SOL     OW  817   1.370   3.026   1.331  0.8030 -0.0846  0.1476
  205SOL    HW1  818   1.424   3.057   1.257  3.2111 -0.5984 -0.4794
  205SOL    HW2  819   1.302   3.096   1.339  1.3483  0.8542 -2.1200
  205SOL     MW  820   1.368   3.040   1.323  1.1927 -0.0285 -0.2343
  206SOL     OW  821   0.415   3.028   1.355 -0.2463 -0.8050 -0.3240
  206SOL    HW1  822   0.382   3.043   1.268 -0.7047 -0.8244  0.6749
  206SOL    HW2  823   0.512   3.038   1.343 -0.0568 -1.2910 -2.4262
  206SOL     MW  824   0.424   3.031   1.342 -0.2818 -0.8717 -0.4696
  207SOL     OW  825   0.891   1.739   0.187 -0.0801  0.9205  0.5374
  207SOL    HW1  826   0.950   1.811   0.184  0.5905 -0.8953  2.0941
  207SOL    HW2  827   0.946   1.674   0.227 -2.8625  0.2788  3.8616
  207SOL     MW  828   0.906   1.740   0.192 -0.3587  0.5963  1.1813
  208SOL     OW  829   0.788   1.601   1.392  0.9948  0.2723 -0.1879
  208SOL    HW1  830   0.867   1.625   1.433 -0.8924  1.7416 -0.3113
  208SOL    HW2  831   0.794   1.553   1.302  0.5881 -3.4017  0.9633
  208SOL     MW  832   0.799   1.598   1.385  0.6922 -0.0186 -0.0523
  209SOL     OW  833   1.524   0.513   2.850  0.3489  0.3879  0.0144
  209SOL    HW1  834   1.568   0.601   2.866  0.3939  0.0355  0.0450
  209SOL    HW2  835   1.598   0.451   2.865  1.5283 -0.1777 -0.8412
  209SOL     MW  836   1.539   0.517   2.854  0.5104  0.2667 -0.0945
  210SOL     OW  837   1.490   1.516   0.961  0.1638 -0.7571  0.3103
  210SOL    HW1  838   1.582   1.493   0.956 -0.3744 -0.4824 -0.2618
  210SOL    HW2  839   1.459   1.513   0.867  1.6139 -0.0025 -1.3412
  210SOL     MW  840   1.498   1.513   0.948  0.2841 -0.6213  0.0169
  211SOL     OW  841   1.739   0.321   0.974  0.4292  0.5801  0.0576
  211SOL    HW1  842   1.744   0.355   0.886  1.7473  0.4966  0.0547
  211SOL    HW2  843   1.835   0.306   0.996  1.4155 -1.2836 -3.5526
  211SOL     MW  844   1.752   0.323   0.966  0.7332  0.3232 -0.4191
  212SOL     OW  845   0.310   1.107   0.265  0.1595  0.3062  0.3337
  212SOL    HW1  846   0.233   1.066   0.310 -0.1431  0.6869  1.3627
  212SOL    HW2  847   0.349   1.041   0.204  0.1774  0.3086  3.7021
  212SOL     MW  848   0.305   1.093   0.263  0.1219  0.3567  0.9139
  213SOL     OW  849   0.378   1.829   3.029 -0.7774  0.8318  0.0452
  213SOL    HW1  850   0.439   1.849   3.107  1.2385  0.2344  1.5606
  213SOL    HW2  851   0.441   1.854   2.954  0.2412  1.4742  0.7463
  213SOL     MW  852   0.394   1.835   3.029 -0.3770  0.8378  0.3376
  214SOL     OW  853   0.610   0.302   2.125 -0.2972 -0.4667 -0.0811
  214SOL    HW1  854   0.551   0.385   2.128  0.9411 -0.7285 -0.7213
  214SOL    HW2  855   0.633   0.316   2.031 -2.3205  2.4355  1.3129
  214SOL     MW  856   0.605   0.315   2.113 -0.4007 -0.1184  0.0183
  215SOL     OW  857   0.492   0.559   2.553 -0.0694 -0.5169 -0.6980
  215SOL    HW1  858   0.501   0.585   2.458 -2.8221  0.4668  0.7937
  215SOL    HW2  859   0.418   0.603   2.592  1.9574 -0.6778  0.2273
  215SOL     MW  860   0.483   0.568   2.545 -0.1652 -0.4084 -0.3791
  216SOL     OW  861   2.946   3.063   2.717 -0.5845 -0.3641  0.5203
  216SOL    HW1  862   2.905   3.055   2.805 -1.7894 -0.6122 -0.0845
  216SOL    HW2  863   2.956   3.164   2.709  0.1021  2.5752 -1.6072
  216SOL     MW  864   2.942   3.075   2.727 -0.6529 -0.0091  0.1598
  217SOL     OW  865   1.035   1.073   0.145  0.2185 -0.1074 -0.0955
  217SOL    HW1  866   1.049   1.004   0.079  1.7225  1.1011  3.3280
  217SOL    HW2  867   1.064   1.157   0.103  1.0695  2.1852  0.7758
  217SOL     MW  868   1.041   1.075   0.131  0.5292  0.3546  0.4712
  218SOL     OW  869   0.852   1.381   2.673  0.0517 -0.3519 -0.7318
  218SOL    HW1  870   0.852   1.333   2.755  0.4842 -0.1547  0.1133
  218SOL    HW2  871   0.943   1.416   2.672  1.9449 -2.9834  1.6133
  218SOL     MW  872   0.864   1.379   2.683  0.3585 -0.6731 -0.3109
  219SOL     OW  873   1.045   0.410   2.616  0.0973  0.3160  0.2065
  219SOL    HW1  874   1.114   0.477   2.645 -0.5002 -1.1897  0.9146
  219SOL    HW2  875   0.965   0.460   2.597 -2.9979  0.0913  0.4268
  219SOL     MW  876   1.044   0.426   2.618 -0.3899  0.0877  0.3290
  220SOL     OW  877   1.708   0.531   2.194  0.1546 -0.1631 -0.3714
  220SOL    HW1  878   1.627   0.547   2.142 -0.9512 -1.6808 -2.4992
  220SOL    HW2  879   1.764   0.457   2.158  0.6589 -2.1095  0.5513
  220SOL     MW  880   1.705   0.523   2.182  0.0752 -0.6201 -0.5304
  221SOL     OW  881   0.344   1.309   2.928  0.0312  0.4361  0.6375
  221SOL    HW1  882   0.420   1.253   2.910 -2.5457  0.4303  0.0542
  221SOL    HW2  883   0.364   1.388   2.884  1.2904 -2.1778 -1.8925
  221SOL     MW  884   0.357   1.312   2.920 -0.1427  0.0905  0.2267
  222SOL     OW  885   0.507   0.973   2.689 -0.0166  0.4141 -0.0284
  222SOL    HW1  886   0.419   0.995   2.658 -0.6723 -1.0789  3.5394
  222SOL    HW2  887   0.492   0.883   2.702 -0.4510 -0.8339 -0.1078
  222SOL     MW  888   0.493   0.964   2.687 -0.1604  0.0525  0.4319
  223SOL     OW  889   0.001   2.035   2.573  0.3425  0.1286 -0.3368
  223SOL    HW1  890   0.050   2.002   2.647 -0.9161  2.5120  0.0215
  223SOL    HW2  891   0.033   2.119   2.551  0.6923  1.2972 -0.7552
  223SOL     MW  892   0.012   2.042   2.580  0.2226  0.5972 -0.3447
  224SOL     OW  893   1.439   0.708   2.467 -0.2470 -0.2703 -0.4865
  224SOL    HW1  894   1.488   0.702   2.552  1.7425 -0.1665  1.4225
  224SOL    HW2  895   1.422   0.806   2.450  0.2135  2.8021  2.5086
  224SOL     MW  896   1.443   0.720   2.476  0.0762  0.1488  0.1606
  225SOL     OW  897   2.959   1.445   2.269 -0.1039  0.0677 -0.0175
  225SOL    HW1  898   2.990   1.533   2.233 -0.5669  1.7366  4.2270
  225SOL    HW2  899   2.898   1.478   2.340 -1.3402 -0.5581 -1.6168
  225SOL     MW  900   2.955   1.461   2.274 -0.3281  0.2053  0.3315
  226SOL     OW  901   0.400   1.493   2.711  0.3143 -0.4227 -0.0689
  226SOL    HW1  902   0.490   1.510   2.682  1.4843 -0.8709  0.0637
  226SOL    HW2  903   0.377   1.588   2.724 -1.4678 -2.3010 -1.0198
  226SOL     MW  904   0.409   1.508   2.709  0.2336 -0.7296 -0.1769
  227SOL     OW  905   0.583   1.125   2.890 -0.3265 -0.0731  0.3477
  227SOL    HW1  906   0.676   1.158   2.889 -1.0166 -0.7681  0.5781
  227SOL    HW2  907   0.580   1.070   2.812 -1.5526  1.0600 -1.7598
  227SOL     MW  908   0.595   1.122   2.879 -0.5793 -0.0153  0.1001
  228SOL     OW  909   0.768   1.126   2.048 -0.2518  0.2285 -0.1810
  228SOL    HW1  910   0.768   1.206   1.994  0.6424 -0.6618  0.9708
  228SOL    HW2  911   0.823   1.142   2.129  1.3405  0.1860 -1.0451
  228SOL     MW  912   0.775   1.139   2.051  0.0763  0.1054 -0.1430
  229SOL     OW  913   0.233   0.590   3.093 -0.0623 -0.4283 -0.2664
  229SOL    HW1  914   0.168   0.552   3.023 -0.6935 -0.5975 -1.2056
  229SOL    HW2  915   0.235   0.527   3.167  1.9109  0.9668  2.5926
  229SOL     MW  916   0.225   0.576   3.094  0.1148 -0.2665 -0.0131
  230SOL     OW  917   1.805   1.369   1.990 -0.1966  0.0700  0.4226
  230SOL    HW1  918   1.779   1.325   2.073  0.3641 -0.4827  4.4338
  230SOL    HW2  919   1.798   1.295   1.934 -1.2262  1.6342  1.2395
  230SOL     MW  920   1.801   1.353   1.994 -0.2584  0.2035  1.0596
  231SOL     OW  921   2.732   1.278   2.234 -0.0277 -0.4325  0.6324
  231SOL    HW1  922   2.816   1.315   2.249 -1.6933 -0.2609  2.6419
  231SOL    HW2  923   2.710   1.314   2.147 -2.0874 -0.5265  2.5385
  231SOL     MW  924   2.740   1.287   2.224 -0.5192 -0.4223  1.1490
  232SOL     OW  925   2.300   0.816   1.971  0.3583 -0.2208 -0.0214
  232SOL    HW1  926   2.227   0.824   1.913 -1.2006  0.0291 -0.9694
  232SOL    HW2  927   2.245   0.798   2.050 -0.1928 -1.1892 -1.0195
  232SOL     MW  928   2.283   0.815   1.974  0.0799 -0.3156 -0.2782
  233SOL     OW  929   2.112   0.440   2.096  0.0802 -0.1131  0.0104
  233SOL    HW1  930   2.167   0.369   2.060  0.5743 -0.2890 -1.1061
  233SOL    HW2  931   2.177   0.517   2.120 -0.1823  0.5721  1.3262
  233SOL     MW  932   2.128   0.441   2.094  0.1107 -0.0459  0.0367
  234SOL     OW  933   0.254   1.032   2.608 -0.3358  0.3756  0.0004
  234SOL    HW1  934   0.208   0.996   2.530  2.7605  0.2510 -0.2776
  234SOL    HW2  935   0.276   1.124   2.596 -0.9427 -0.7635  2.4545
  234SOL     MW  936   0.251   1.039   2.596 -0.0073  0.2089  0.2875
  235SOL     OW  937   1.048   3.007   2.814  0.7804 -0.5033 -0.0041
  235SOL    HW1  938   1.115   2.965   2.862 -1.3471 -0.8760  1.8692
  235SOL    HW2  939   1.036   3.101   2.838  1.6514  0.2100 -0.8775
  235SOL     MW  940   1.055   3.014   2.824  0.6146 -0.4583  0.1278
  236SOL     OW  941   2.939   0.606   0.168  0.4771  0.3238  0.4798
  236SOL    HW1  942   2.944   0.647   0.255 -0.4481 -1.7187  0.8210
  236SOL    HW2  943   2.989   0.675   0.121  0.8853  0.6931  0.3290
  236SOL     MW  944   2.946   0.621   0.173  0.4089  0.1030  0.5050
  237SOL     OW  945   1.958   1.054   2.149  0.0454  0.1161 -0.4953
  237SOL    HW1  946   1.872   1.047   2.115  1.9389  1.3519  0.8356
  237SOL    HW2  947   2.008   0.982   2.120 -2.1194  2.1810  2.2282
  237SOL     MW  948   1.953   1.044   2.141  0.0096  0.5516  0.0396
  238SOL     OW  949   1.088   1.765   2.971  0.4531  0.0925  0.4058
  238SOL    HW1  950   1.021   1.733   2.905 -1.5785  1.6801  0.2210
  238SOL    HW2  951   1.176   1.729   2.951  1.0209  1.0962 -3.2411
  238SOL     MW  952   1.091   1.756   2.960  0.2600  0.4344 -0.0997
  239SOL     OW  953   1.180   1.299   2.265 -0.2064 -0.0148  0.1049
  239SOL    HW1  954   1.092   1.266   2.239  0.1889 -1.3028  0.5733
  239SOL    HW2  955   1.191   1.287   2.355  0.2999 -0.2872 -0.5345
  239SOL     MW  956   1.170   1.293   2.274 -0.0875 -0.2207  0.0823
  240SOL     OW  957   0.604   0.875   2.205 -0.5715  0.4237  0.3674
  240SOL    HW1  958   0.629   0.916   2.297  1.3542 -1.9974 -0.7310
  240SOL    HW2  959   0.693   0.858   2.166  0.8603  1.9342 -0.9066
  240SOL     MW  960   0.619   0.878   2.212 -0.1285  0.3035  0.0544
  241SOL     OW  961   0.690   0.455   3.048 -0.1152 -0.1558  0.3868
  241SOL    HW1  962   0.700   0.538   3.090  0.3907 -1.7248 -1.5018
  241SOL    HW2  963   0.605   0.458   3.010 -0.5005  0.9760  0.3287
  241SOL     MW  964   0.680   0.466   3.049 -0.0993 -0.2135  0.1299
  242SOL     OW  965   1.503   1.693   2.303 -0.3489  0.1053  0.2267
  242SOL    HW1  966   1.436   1.759   2.312 -2.2014  0.7330 -0.6865
  242SOL    HW2  967   1.462   1.615   2.257  1.0435  0.5593  1.8237
  242SOL     MW  968   1.489   1.692   2.299 -0.4096  0.2480  0.3169
  243SOL     OW  969   1.024   0.338   2.363  0.5800 -0.0539 -0.5175
  243SOL    HW1  970   1.110   0.307   2.328  1.9745 -4.2431  1.0174
  243SOL    HW2  971   1.043   0.359   2.453  0.7542  1.7265  1.3234
  243SOL     MW  972   1.038   0.336   2.370  0.7870 -0.3717 -0.0721
  244SOL     OW  973   0.122   0.764   2.380 -0.4860 -0.2465  0.2523
  244SOL    HW1  974   0.091   0.852   2.399 -0.1277  2.8507  1.3346
  244SOL    HW2  975   0.210   0.764   2.344 -1.3138 -0.7448 -0.2982
  244SOL     MW  976   0.129   0.776   2.378 -0.5479  0.0964  0.3225
  245SOL     OW  977   1.285   0.211   2.362  0.2890  0.1661  0.2398
  245SOL    HW1  978   1.380   0.190   2.344  0.9148  0.0983 -0.1755
  245SOL    HW2  979   1.252   0.134   2.403 -2.0802  0.3607  1.6661
  245SOL     MW  980   1.293   0.198   2.365  0.0590  0.1828  0.3732
  246SOL     OW  981   1.231   1.093   2.034 -0.1930 -0.5341  0.3192
  246SOL    HW1  982   1.161   1.107   2.104  0.1308 -0.5473  2.3068
  246SOL    HW2  983   1.307   1.120   2.097  1.0216  3.2123  0.1563
  246SOL     MW  984   1.231   1.099   2.052  0.0100 -0.0415  0.5600
  247SOL     OW  985   0.777   0.652   0.148 -0.4408 -0.3053 -0.4331
  247SOL    HW1  986   0.746   0.743   0.141 -2.3814  1.0075 -0.0902
  247SOL    HW2  987   0.868   0.652   0.111 -2.7136  0.8879 -2.0366
  247SOL     MW  988   0.785   0.664   0.143 -0.9967  0.0254 -0.5994
  248SOL     OW  989   0.330   1.289   2.551 -0.2844 -0.6382  0.2131
  248SOL    HW1  990   0.322   1.341   2.473  1.1765  0.7324  0.0457
  248SOL    HW2  991   0.347   1.364   2.619 -3.7192  1.4946 -2.0283
  248SOL     MW  992   0.331   1.306   2.550 -0.5448 -0.1760 -0.1047
  249SOL     OW  993   2.987   1.924   2.820 -0.1513  0.4769 -0.4337
  249SOL    HW1  994   2.965   1.869   2.746  0.3614 -0.6150 -0.6948
  249SOL    HW2  995   3.043   1.873   2.875 -0.5062 -0.4123 -1.3900
  249SOL     MW  996   2.992   1.910   2.817 -0.1305  0.2155 -0.5943
  250SOL     OW  997   2.168   0.831   2.201  0.4464 -0.4687 -0.5734
  250SOL    HW1  998   2.164   0.752   2.250  5.8720 -0.9990  2.3323
  250SOL    HW2  999   2.249   0.876   2.232  0.2889 -0.2313  3.2911
  250SOL     MW 1000   2.178   0.826   2.212  1.1415 -0.5073  0.3199
  251SOL     OW 1001   0.145   0.901   2.037 -0.2624 -0.2367  0.0733
  251SOL    HW1 1002   0.114   0.827   2.080 -1.8687  3.1059  1.4000
  251SOL    HW2 1003   0.134   0.878   1.945 -0.7984  1.0637 -1.1868
  251SOL     MW 1004   0.139   0.889   2.031 -0.5451  0.3759  0.0821
  252SOL     OW 1005   1.666   0.965   2.814  0.1235  0.3032  0.0360
  252SOL    HW1 1006   1.642   1.017   2.891  3.3051  3.1895 -0.1082
  252SOL    HW2 1007   1.760   0.992   2.789  3.4617 -0.6930  0.5753
  252SOL     MW 1008   1.676   0.975   2.821  0.9837  0.5526  0.0881
  253SOL     OW 1009   1.149   1.694   2.450  0.1533  0.5299  0.8204
  253SOL    HW1 1010   1.129   1.688   2.355 -0.1701 -2.4065 -2.3495
  253SOL    HW2 1011   1.091   1.752   2.493  2.1014 -0.6089  2.1998
  253SOL     MW 1012   1.138   1.701   2.443  0.3677 -0.0077  0.5842
  254SOL     OW 1013   0.949   1.137   2.238  0.1299  0.0912 -0.1855
  254SOL    HW1 1014   0.936   1.046   2.202  1.0092 -2.3636 -1.6954
  254SOL    HW2 1015   0.893   1.157   2.313 -1.0051  0.7425 -0.3343
  254SOL     MW 1016   0.940   1.128   2.243  0.0962 -0.1467 -0.4044
  255SOL     OW 1017   0.852   2.571   2.146 -0.5052  0.0930 -0.9411
  255SOL    HW1 1018   0.771   2.518   2.162 -2.0750 -2.7223  0.5740
  255SOL    HW2 1019   0.919   2.516   2.177 -0.6140 -2.7025 -0.3985
  255SOL     MW 1020   0.850   2.556   2.152 -0.7267 -0.6473 -0.6696
  256SOL     OW 1021   1.220   2.760   3.000 -0.4752 -0.1083  0.5914
  256SOL    HW1 1022   1.181   2.692   2.948 -0.2516  2.6812 -0.7596
  256SOL    HW2 1023   1.305   2.772   2.957  1.9389  0.2879 -0.5984
  256SOL     MW 1024   1.226   2.752   2.987 -0.1272  0.3120  0.2562
  257SOL     OW 1025   0.054   1.880   0.109 -0.1185 -0.4924 -0.4247
  257SOL    HW1 1026   0.116   1.854   0.171  1.2313  2.7751  0.8050
  257SOL    HW2 1027   0.099   1.856   0.032  0.8970 -0.8711  0.6622
  257SOL     MW 1028   0.068   1.874   0.107  0.1936 -0.1112 -0.1191
  258SOL     OW 1029   0.652   0.993   2.456 -0.3008  0.5321 -0.6227
  258SOL    HW1 1030   0.678   1.081   2.453 -0.8715 -2.0734  1.8690
  258SOL    HW2 1031   0.579   0.993   2.510  1.1558  0.6587 -2.4550
  258SOL     MW 1032   0.646   1.004   2.463 -0.1839  0.2050 -0.5357
  259SOL     OW 1033   0.812   0.491   2.277  0.3680  0.6413  0.3494
  259SOL    HW1 1034   0.730   0.441   2.256 -1.1146  0.1829  0.4115
  259SOL    HW2 1035   0.887   0.433   2.297  1.3740  2.4395  0.7491
  259SOL     MW 1036   0.811   0.477   2.277  0.3051  0.8181  0.4103
  260SOL     OW 1037   0.652   0.099   1.549 -0.1735  0.0920 -0.0007
  260SOL    HW1 1038   0.628   0.174   1.501 -0.6963  0.3277  2.8140
  260SOL    HW2 1039   0.724   0.055   1.503 -0.6523  2.2736  0.8173
  260SOL     MW 1040   0.658   0.103   1.536 -0.3056  0.4110  0.4786
  261SOL     OW 1041   1.051   0.708   1.996 -1.1497  0.7470 -0.2849
  261SOL    HW1 1042   1.099   0.697   2.086 -1.5982 -3.2145  3.3418
  261SOL    HW2 1043   1.004   0.625   1.973 -2.5185 -0.4976 -1.8429
  261SOL     MW 1044   1.051   0.696   2.005 -1.3895  0.0601 -0.0120
  262SOL     OW 1045   1.130   0.336   0.136  0.4715  0.1674 -0.3095
  262SOL    HW1 1046   1.219   0.303   0.114  1.1246 -0.7806 -1.2472
  262SOL    HW2 1047   1.091   0.327   0.053  1.3334 -0.6527 -0.0832
  262SOL     MW 1048   1.137   0.331   0.122  0.6714 -0.0659 -0.4034
  263SOL     OW 1049   0.367   3.091   2.497  0.1465  0.4480 -0.0676
  263SOL    HW1 1050   0.283   3.134   2.515 -2.3425  0.7289 -0.1744
  263SOL    HW2 1051   0.398   3.153   2.431 -1.8675 -0.4730 -0.6737
  263SOL     MW 1052   0.360   3.105   2.491 -0.4476  0.3635 -0.1616
  264SOL     OW 1053   1.538   1.401   1.916  0.2198  0.1343  0.3039
  264SOL    HW1 1054   1.505   1.314   1.895  1.3936 -0.5661  1.0154
  264SOL    HW2 1055   1.630   1.400   1.951 -1.1341  2.0177  3.0670
  264SOL     MW 1056   1.546   1.390   1.918  0.1960  0.2904  0.7623
  265SOL     OW 1057   0.737   2.805   2.295 -0.0291  0.5249 -0.3469
  265SOL    HW1 1058   0.789   2.730   2.273 -1.1762 -0.4591  0.9349
  265SOL    HW2 1059   0.726   2.800   2.391  2.3154 -2.0866 -0.3482
  265SOL     MW 1060   0.742   2.795   2.305  0.1289  0.0505 -0.1780
  266SOL     OW 1061   0.870   0.903   2.116  0.5189 -0.1688 -0.4378
  266SOL    HW1 1062   0.814   0.952   2.058  0.9442  1.0446 -0.4825
  266SOL    HW2 1063   0.900   0.825   2.073  0.9207 -2.7676 -1.5426
  266SOL     MW 1064   0.867   0.899   2.103  0.6281 -0.3516 -0.5894
  267SOL     OW 1065   1.373   1.702   2.651  0.1713 -0.6134 -0.1017
  267SOL    HW1 1066   1.451   1.670   2.611 -1.5119 -0.2223  2.9458
  267SOL    HW2 1067   1.298   1.659   2.611  1.4817 -2.9895 -0.7266
  267SOL     MW 1068   1.373   1.692   2.640  0.1221 -0.8753  0.2180
  268SOL     OW 1069   0.139   0.898   1.746  0.7456 -0.3038  0.3335
  268SOL    HW1 1070   0.125   0.987   1.711  0.2038 -1.9437 -1.1850
  268SOL    HW2 1071   0.094   0.840   1.682  0.9707  2.4119  0.2920
  268SOL     MW 1072   0.131   0.902   1.733  0.7038 -0.1619  0.1277
  269SOL     OW 1073   1.334   1.910   2.293  0.0965 -0.8443 -0.4033
  269SOL    HW1 1074   1.352   1.984   2.357 -0.6731  0.7411  1.6548
  269SOL    HW2 1075   1.255   1.872   2.331 -0.9580 -1.3186  3.8397
  269SOL     MW 1076   1.326   1.915   2.306 -0.1442 -0.6977  0.4280
  270SOL     OW 1077   1.122   0.406   1.579  0.0327 -0.7543 -0.3630
  270SOL    HW1 1078   1.097   0.322   1.611 -0.2142  0.2680 -0.2032
  270SOL    HW2 1079   1.216   0.415   1.590 -0.3399 -0.8063 -1.0884
  270SOL     MW 1080   1.131   0.396   1.584 -0.0491 -0.6263 -0.4376
  271SOL     OW 1081   0.865   0.119   2.466  0.4484  0.0118 -0.1113
  271SOL    HW1 1082   0.913   0.039   2.482 -0.0784 -0.4304  1.5529
  271SOL    HW2 1083   0.935   0.188   2.458  1.4115 -0.4650  1.1388
  271SOL     MW 1084   0.881   0.117   2.467  0.5060 -0.1095  0.2732
  272SOL     OW 1085   1.440   2.824   2.836  0.3132 -0.3022 -0.1133
  272SOL    HW1 1086   1.420   2.812   2.745  0.7518 -0.4903  0.6500
  272SOL    HW2 1087   1.491   2.908   2.832 -0.0073 -2.1831 -2.6791
  272SOL     MW 1088   1.444   2.833   2.823  0.3288 -0.5752 -0.3511
  273SOL     OW 1089   1.412   0.810   2.762 -0.1952 -0.3385 -0.4056
  273SOL    HW1 1090   1.466   0.890   2.738  1.0341  1.3103 -1.0154
  273SOL    HW2 1091   1.324   0.833   2.739  0.7232 -1.6628  1.1520
  273SOL     MW 1092   1.407   0.824   2.756  0.0882 -0.2957 -0.2806
  274SOL     OW 1093   1.441   0.712   0.166  0.3491 -0.1275  0.1917
  274SOL    HW1 1094   1.487   0.642   0.207  1.1373  1.7307  0.3997
  274SOL    HW2 1095   1.370   0.733   0.227  1.6004 -2.6222  1.0863
  274SOL     MW 1096   1.438   0.706   0.179  0.6182 -0.2115  0.3372
  275SOL     OW 1097   1.784   0.517   1.755  0.2639  0.5666 -0.3689
  275SOL    HW1 1098   1.838   0.570   1.814 -0.0637  3.2853 -0.1818
  275SOL    HW2 1099   1.800   0.422   1.771  1.3344  2.4617  0.8334
  275SOL     MW 1100   1.793   0.511   1.765  0.3619  1.1753 -0.1856
  276SOL     OW 1101   0.469   1.206   1.920 -0.2679 -0.2242 -0.0814
  276SOL    HW1 1102   0.451   1.114   1.914  1.9530  0.4061 -3.3771
  276SOL    HW2 1103   0.425   1.232   1.998 -0.9459  2.9810 -1.5810
  276SOL     MW 1104   0.461   1.197   1.930 -0.0643  0.2818 -0.7141
  277SOL     OW 1105   2.005   1.089   2.438 -0.1097 -0.1672 -0.1328
  277SOL    HW1 1106   2.066   1.162   2.455  0.1424 -0.9749 -1.7194
  277SOL    HW2 1107   1.972   1.109   2.350 -2.5134  0.9244  0.5958
  277SOL     MW 1108   2.009   1.101   2.428 -0.3936 -0.1297 -0.2460
  278SOL     OW 1109   1.440   0.670   1.721  0.3447 -0.2419 -0.9924
  278SOL    HW1 1110   1.428   0.617   1.806  1.6683  0.7313  4.7773
  278SOL    HW2 1111   1.537   0.658   1.711 -0.0811  1.1625  0.9912
  278SOL     MW 1112   1.452   0.661   1.731  0.4631  0.0718  0.0305
  279SOL     OW 1113   0.532   0.083   2.262  0.1025 -0.3811  0.7255
  279SOL    HW1 1114   0.607   0.026   2.289  2.8942  1.0805 -1.9116
  279SOL    HW2 1115   0.578   0.155   2.210  1.6998 -1.4987  1.7480
  279SOL     MW 1116   0.548   0.085   2.259  0.6816 -0.3357  0.5125
  280SOL     OW 1117   1.454   1.121   2.199 -0.0137 -0.2808  0.1433
  280SOL    HW1 1118   1.493   1.038   2.169  2.1247 -0.8874 -0.5918
  280SOL    HW2 1119   1.436   1.103   2.295  1.1789 -2.1575  1.5203
  280SOL     MW 1120   1.457   1.107   2.207  0.4258 -0.6084  0.2280
  281SOL     OW 1121   1.366   1.131   2.668 -0.8142 -0.0868  0.2182
  281SOL    HW1 1122   1.399   1.227   2.662 -0.5363  2.0385 -0.8673
  281SOL    HW2 1123   1.348   1.114   2.761 -0.9335 -1.4580 -0.5054
  281SOL     MW 1124   1.368   1.141   2.680 -0.7933  0.0127 -0.0205
  282SOL     OW 1125   1.181   1.268   1.582  0.4423  0.2205  0.2533
  282SOL    HW1 1126   1.180   1.364   1.565 -2.0464 -2.3086  0.3262
  282SOL    HW2 1127   1.099   1.244   1.639 -0.6179  0.9273  1.9030
  282SOL     MW 1128   1.170   1.277   1.587 -0.0260 -0.0199  0.4806
  283SOL     OW 1129   0.854   1.375   0.015 -0.4640  0.8146  0.3614
  283SOL    HW1 1130   0.951   1.361   0.005 -1.0348  0.0884 -3.3531
  283SOL    HW2 1131   0.817   1.454  -0.033  0.1096  1.6012  0.9271
  283SOL     MW 1132   0.862   1.384   0.007 -0.4636  0.8226 -0.0540
  284SOL     OW 1133   0.403   0.725   2.311  0.0338 -0.7482 -0.0326
  284SOL    HW1 1134   0.458   0.790   2.263  0.4699  2.9704  0.8101
  284SOL    HW2 1135   0.397   0.643   2.257  0.5901 -2.1688  2.0068
  284SOL     MW 1136   0.410   0.723   2.298  0.1648 -0.4450  0.3476
  285SOL     OW 1137   0.885   0.867   2.860 -0.1024 -0.6315  0.1832
  285SOL    HW1 1138   0.903   0.909   2.773  1.1238 -1.5585  0.4070
  285SOL    HW2 1139   0.824   0.801   2.835 -1.6388 -0.0855  4.0807
  285SOL     MW 1140   0.879   0.864   2.846 -0.1433 -0.6818  0.7270
  286SOL     OW 1141   1.132   1.451   2.586  0.1395 -0.8273 -0.1463
  286SOL    HW1 1142   1.133   1.359   2.556  0.1390  2.5958 -1.8837
  286SOL    HW2 1143   1.152   1.507   2.516 -1.6247 -0.4449  1.3021
  286SOL     MW 1144   1.135   1.446   2.572 -0.0933 -0.3252 -0.1844
  287SOL     OW 1145   1.199   1.014   0.361 -0.0250  0.0342 -0.0674
  287SOL    HW1 1146   1.148   1.052   0.430 -3.2747  0.5881 -0.3326
  287SOL    HW2 1147   1.131   1.026   0.294 -1.0319  2.1388  2.1976
  287SOL     MW 1148   1.183   1.021   0.361 -0.5866  0.3850  0.1965
  288SOL     OW 1149   1.472   0.626   2.101 -0.3631 -0.1821  0.5297
  288SOL    HW1 1150   1.439   0.607   2.182  0.3905  0.8098  0.1675
  288SOL    HW2 1151   1.491   0.725   2.115 -1.1305  1.0482 -0.3182
  288SOL     MW 1152   1.470   0.637   2.114 -0.3649  0.1111  0.3700
  289SOL     OW 1153   0.937   0.969   2.606  0.1207 -0.4469 -0.2475
  289SOL    HW1 1154   0.990   0.898   2.565  2.2213 -2.0694 -2.4973
  289SOL    HW2 1155   0.855   0.964   2.561 -1.4177 -0.6275  0.6036
  289SOL     MW 1156   0.933   0.959   2.595  0.1949 -0.6848 -0.4321
  290SOL     OW 1157   0.814   0.639   1.459 -0.1850  0.0202 -0.1473
  290SOL    HW1 1158   0.847   0.570   1.401  0.9458  0.9041  0.7326
  290SOL    HW2 1159   0.881   0.642   1.527 -1.1740 -2.0178  0.6346
  290SOL     MW 1160   0.827   0.630   1.460 -0.1663 -0.1320  0.0720
  291SOL     OW 1161   0.197   0.370   0.165 -0.0449 -0.1558 -0.1125
  291SOL    HW1 1162   0.283   0.327   0.190  1.1303 -0.9220  1.2595
  291SOL    HW2 1163   0.134   0.299   0.157 -0.2542  0.0628  0.9943
  291SOL     MW 1164   0.200   0.355   0.167  0.0825 -0.2281  0.2146
  292SOL     OW 1165   1.048   0.633   0.102  0.1886  0.7668 -0.3102
  292SOL    HW1 1166   1.119   0.695   0.131  0.8816 -2.5919  0.2461
  292SOL    HW2 1167   1.074   0.548   0.140 -0.8237 -1.0998 -0.0691
  292SOL     MW 1168   1.061   0.630   0.111  0.1465  0.0774 -0.2050
  293SOL     OW 1169   0.096   0.129   2.553 -0.0627 -0.6603  0.2465
  293SOL    HW1 1170   0.053   0.079   2.483 -0.6747 -1.5799  0.8454
  293SOL    HW2 1171   0.028   0.169   2.602 -0.8500  0.3994 -0.8974
  293SOL     MW 1172   0.081   0.128   2.550 -0.2473 -0.6418  0.1746
  294SOL     OW 1173   1.307   0.513   2.346  0.3746 -0.5799  0.2390
  294SOL    HW1 1174   1.355   0.589   2.380 -1.3991 -0.0628  0.3471
  294SOL    HW2 1175   1.282   0.469   2.424 -2.9819  0.2495  0.7726
  294SOL     MW 1176   1.310   0.518   2.361 -0.3023 -0.4022  0.3236
  295SOL     OW 1177   0.827   0.572   2.533 -0.4227  0.5315  0.2961
  295SOL    HW1 1178   0.798   0.554   2.442  1.0573  0.8267 -0.5448
  295SOL    HW2 1179   0.754   0.601   2.582 -0.9926 -1.5560  2.0367
  295SOL     MW 1180   0.814   0.573   2.528 -0.3026  0.2950  0.4148
  296SOL     OW 1181   1.260   0.215   2.047  0.1426  0.4110  0.2769
  296SOL    HW1 1182   1.347   0.179   2.057  1.0175  2.8178  2.4661
  296SOL    HW2 1183   1.232   0.243   2.136 -1.7825  1.1785 -1.9742
  296SOL     MW 1184   1.268   0.214   2.060  0.0040  0.8298  0.2687
  297SOL     OW 1185   1.426   0.381   1.569  0.1499 -0.1122  0.7844
  297SOL    HW1 1186   1.441   0.439   1.648 -1.6143 -1.2411  1.7820
  297SOL    HW2 1187   1.421   0.295   1.610 -0.2136 -0.9283  1.6979
  297SOL     MW 1188   1.427   0.377   1.585 -0.1308 -0.3688  1.0365
  298SOL     OW 1189   1.581   0.879   2.075  0.0394 -0.2631  0.2195
  298SOL    HW1 1190   1.630   0.925   2.007  0.9974 -1.2586  0.0939
  298SOL    HW2 1191   1.652   0.840   2.131 -0.6690  3.7536  2.1548
  298SOL     MW 1192   1.597   0.880   2.073  0.0724  0.1355  0.4582
  299SOL     OW 1193   0.572   1.168   0.085  0.1308  0.3726 -0.2919
  299SOL    HW1 1194   0.583   1.141  -0.002 -0.2403 -0.4132  2.2603
  299SOL    HW2 1195   0.648   1.220   0.106 -1.0525 -1.3638  4.7141
  299SOL     MW 1196   0.584   1.171   0.077 -0.0743  0.0398  0.7053
  300SOL     OW 1197   1.108   1.186   2.543 -0.1412  0.5389  0.6391
  300SOL    HW1 1198   1.028   1.132   2.564 -1.1275  2.2842  2.9936
  300SOL    HW2 1199   1.183   1.138   2.582  0.8382  0.1537  2.4163
  300SOL     MW 1200   1.108   1.172   2.551 -0.1421  0.7183  1.1842
  301SOL     OW 1201   1.432   1.047   0.730  0.4544  0.7057  0.0658
  301SOL    HW1 1202   1.463   1.052   0.822  0.0837 -0.3778  0.9792
  301SOL    HW2 1203   1.383   0.964   0.732  0.2419 -1.7981 -0.0564
  301SOL     MW 1204   1.430   1.036   0.743  0.3775  0.2324  0.1702
  302SOL     OW 1205   0.173   1.563   2.038 -0.3402 -0.2304 -0.0037
  302SOL    HW1 1206   0.196   1.472   2.010  0.1778 -0.3633 -0.4808
  302SOL    HW2 1207   0.080   1.575   2.061  0.5093  1.9913  1.2510
  302SOL     MW 1208   0.164   1.553   2.037 -0.1598  0.0452  0.0989
  303SOL     OW 1209   0.357   1.766   2.666 -0.3558  0.4337 -0.3687
  303SOL    HW1 1210   0.345   1.791   2.575  0.2438 -3.7714  1.0297
  303SOL    HW2 1211   0.280   1.792   2.714  2.1774 -2.1431 -0.4654
  303SOL     MW 1212   0.345   1.773   2.660  0.0575 -0.4611 -0.1969
  304SOL     OW 1213   0.486   2.056   2.408  0.1525 -0.0520  0.3018
  304SOL    HW1 1214   0.546   2.115   2.351 -1.2634 -0.4493 -1.3028
  304SOL    HW2 1215   0.541   1.979   2.426 -2.9398 -1.9168  2.1086
  304SOL     MW 1216   0.501   2.054   2.403 -0.4423 -0.3504  0.3285
  305SOL     OW 1217   1.110   0.665   0.556 -0.1155  0.2638 -0.6830
  305SOL    HW1 1218   1.017   0.655   0.526  1.4178 -2.0963  2.2810
  305SOL    HW2 1219   1.151   0.582   0.546 -1.2577  1.5302  2.2242
  305SOL     MW 1220   1.103   0.653   0.551 -0.0639  0.1195  0.0916
  306SOL     OW 1221   1.074   1.551   0.250 -0.5534 -0.4586  0.2717
  306SOL    HW1 1222   1.117   1.465   0.275  2.5935 -0.4979  0.3346
  306SOL    HW2 1223   1.138   1.570   0.178  2.4560 -1.9261  0.7599
  306SOL     MW 1224   1.088   1.542   0.244  0.2589 -0.6574  0.3444
  307SOL     OW 1225   1.369   0.448   1.906  0.2305  0.3289  0.2650
  307SOL    HW1 1226   1.343   0.362   1.936  1.1078 -0.3188 -0.3953
  307SOL    HW2 1227   1.395   0.498   1.986  3.2805 -0.6652 -0.3598
  307SOL     MW 1228   1.369   0.443   1.921  0.7487  0.1123  0.0955
  308SOL     OW 1229   2.216   0.498   2.668 -0.4093 -0.3673  0.2807
  308SOL    HW1 1230   2.313   0.508   2.680  0.7004  0.6342 -0.6281
  308SOL    HW2 1231   2.183   0.592   2.675  1.6430 -0.3964  1.5714
  308SOL     MW 1232   2.225   0.512   2.670  0.0079 -0.2390  0.3311
  309SOL     OW 1233   0.496   0.588   0.247  0.3730  0.0955 -0.2489
  309SOL    HW1 1234   0.585   0.592   0.215  1.9116 -2.5732  2.3815
  309SOL    HW2 1235   0.473   0.497   0.222  1.0925  0.4530 -0.8512
  309SOL     MW 1236   0.505   0.576   0.239  0.6710 -0.2095  0.0187
  310SOL     OW 1237   0.453   0.626   1.900 -0.3490 -0.8383 -0.6813
  310SOL    HW1 1238   0.483   0.548   1.855 -1.0247  1.0558  4.1395
  310SOL    HW2 1239   0.490   0.708   1.859 -0.7170  1.3557 -1.5109
  310SOL     MW 1240   0.462   0.627   1.889 -0.4867 -0.2989 -0.1547
  311SOL     OW 1241   1.947   0.636   1.958  0.1600 -0.5296 -0.5112
  311SOL    HW1 1242   1.903   0.676   2.033  0.4982  4.1925  0.1563
  311SOL    HW2 1243   2.002   0.559   1.990  1.8513 -2.2203  0.0223
  311SOL     MW 1244   1.948   0.631   1.972  0.4278 -0.1296 -0.3528
  312SOL     OW 1245   1.758   2.444   0.112 -0.5103  0.0165 -0.3163
  312SOL    HW1 1246   1.745   2.387   0.189 -0.4724 -0.6423 -1.0295
  312SOL    HW2 1247   1.713   2.525   0.136 -1.5323 -0.2885  1.6846
  312SOL     MW 1248   1.750   2.447   0.125 -0.6401 -0.1107 -0.1464
  313SOL     OW 1249   0.121   1.128   3.039  0.0251 -0.2717  0.0580
  313SOL    HW1 1250   0.082   1.175   3.115  0.2086 -0.9814 -1.2701
  313SOL    HW2 1251   0.171   1.197   2.999 -1.2214  2.2199  1.2523
  313SOL     MW 1252   0.122   1.144   3.044 -0.1152 -0.0366  0.0404
  314SOL     OW 1253   2.155   2.942   3.095  0.2335  0.6384  0.5909
  314SOL    HW1 1254   2.108   2.957   3.020  0.9296 -2.6513  0.4248
  314SOL    HW2 1255   2.201   3.025   3.107  0.6862  0.5371  1.6746
  314SOL     MW 1256   2.155   2.955   3.087  0.3851  0.1910  0.7120
  315SOL     OW 1257   1.539   1.814   2.973  0.1413 -0.2064 -0.1470
  315SOL    HW1 1258   1.492   1.855   3.056 -2.2935 -0.0036 -1.2791
  315SOL    HW2 1259   1.566   1.888   2.917 -1.1822 -0.6160  0.7645
  315SOL     MW 1260   1.536   1.829   2.976 -0.3546 -0.2337 -0.1761
  316SOL     OW 1261   1.208   0.590   2.722 -0.3310  0.7521 -0.2355
  316SOL    HW1 1262   1.299   0.616   2.755  0.4435  2.8165 -0.3827
  316SOL    HW2 1263   1.154   0.567   2.807  0.3474 -1.5893 -0.4901
  316SOL     MW 1264   1.213   0.591   2.738 -0.1393  0.7155 -0.2885
  317SOL     OW 1265   0.678   1.590   2.658 -0.7447  0.4036 -0.2931
  317SOL    HW1 1266   0.741   1.523   2.665 -1.2702  3.4342 -0.1018
  317SOL    HW2 1267   0.675   1.601   2.559  2.7891  0.7614 -2.4743
  317SOL     MW 1268   0.686   1.583   2.646 -0.3478  0.8506 -0.5556
  318SOL     OW 1269   1.324   0.387   2.969 -0.2767  0.3890  0.0146
  318SOL    HW1 1270   1.243   0.447   2.964 -1.6558  0.9818 -4.1012
  318SOL    HW2 1271   1.402   0.434   2.919  0.6329 -1.8587 -0.0858
  318SOL     MW 1272   1.324   0.401   2.962 -0.3387  0.1707 -0.5417
  319SOL     OW 1273   0.849   0.393   2.850 -1.0504  0.6483 -0.8914
  319SOL    HW1 1274   0.832   0.311   2.810 -0.4224  1.8235  1.2401
  319SOL    HW2 1275   0.795   0.405   2.924 -1.8727 -1.5103 -0.7324
  319SOL     MW 1276   0.840   0.384   2.855 -1.0760  0.5186 -0.5892
  320SOL     OW 1277   1.058   1.396   1.969 -0.1102 -0.6046  0.0063
  320SOL    HW1 1278   1.105   1.314   1.941 -0.5797 -1.6655 -1.0300
  320SOL    HW2 1279   1.110   1.474   1.948 -2.6973  0.2655 -0.2987
  320SOL     MW 1280   1.071   1.395   1.963 -0.5135 -0.6298 -0.1707
  321SOL     OW 1281   1.121   0.909   3.021 -0.1848 -0.4897  0.6862
  321SOL    HW1 1282   1.040   0.886   2.974  2.6388 -0.2933 -0.8118
  321SOL    HW2 1283   1.171   0.823   3.026  0.2265 -0.4997 -1.2435
  321SOL     MW 1284   1.117   0.895   3.015  0.2420 -0.4651  0.2340
  322SOL     OW 1285   1.222   0.818   1.692  0.3068 -0.1064 -0.1988
  322SOL    HW1 1286   1.294   0.764   1.722  0.5633 -1.5126 -1.3490
  322SOL    HW2 1287   1.178   0.862   1.763 -1.7326 -2.2170  0.4204
  322SOL     MW 1288   1.226   0.817   1.705  0.0715 -0.5704 -0.2689
  323SOL     OW 1289   1.226   1.604   1.895  0.2965 -0.3527 -0.4469
  323SOL    HW1 1290   1.268   1.591   1.812 -0.3689  0.9934 -0.5698
  323SOL    HW2 1291   1.193   1.694   1.891  1.0163  0.5252 -0.0777
  323SOL     MW 1292   1.228   1.614   1.883  0.3036 -0.0592 -0.4144
  324SOL     OW 1293   1.445   0.996   2.461 -0.1217 -0.1553  0.3251
  324SOL    HW1 1294   1.409   1.048   2.532 -5.0969  0.6911  1.0883
  324SOL    HW2 1295   1.539   1.027   2.448  0.8335 -1.0022  0.1519
  324SOL     MW 1296   1.453   1.007   2.468 -0.6521 -0.1554  0.4030
  325SOL     OW 1297   1.075   0.510   2.941 -0.4477  0.5186 -0.2568
  325SOL    HW1 1298   1.061   0.556   3.022 -1.8595 -1.4390 -2.2805
  325SOL    HW2 1299   0.994   0.474   2.910  0.9377  0.9462 -2.1874
  325SOL     MW 1300   1.063   0.511   2.948 -0.4512  0.3167 -0.7785
  326SOL     OW 1301   0.329   1.374   2.260 -0.1929  0.4299  0.1268
  326SOL    HW1 1302   0.413   1.341   2.242 -0.6255  0.7742  0.8863
  326SOL    HW2 1303   0.322   1.467   2.232 -2.3114 -0.7762 -0.0028
  326SOL     MW 1304   0.339   1.382   2.254 -0.5295  0.3162  0.2099
  327SOL     OW 1305   1.964   0.795   2.435 -0.3830  0.6472  0.0634
  327SOL    HW1 1306   1.903   0.781   2.510  0.2112 -2.0956  0.3963
  327SOL    HW2 1307   1.997   0.884   2.454 -0.8995 -0.5938 -2.5775
  327SOL     MW 1308   1.961   0.805   2.447 -0.3727  0.1215 -0.2411
  328SOL     OW 1309   0.204   1.271   2.048 -0.7592  0.4915 -0.1526
  328SOL    HW1 1310   0.131   1.221   2.075 -0.6843  0.8140  1.0810
  328SOL    HW2 1311   0.245   1.295   2.129 -1.3030  1.7324  0.4572
  328SOL     MW 1312   0.200   1.268   2.062 -0.8211  0.6978  0.0906
  329SOL     OW 1313   0.050   0.130   1.374 -0.1382 -0.5192  0.4451
  329SOL    HW1 1314   0.037   0.079   1.452 -1.5066  0.5520  0.3087
  329SOL    HW2 1315   0.145   0.168   1.379  0.4149  0.0842 -0.5403
  329SOL     MW 1316   0.061   0.128   1.385 -0.2458 -0.2983  0.2971
  330SOL     OW 1317   0.396   3.083   2.063 -0.2282 -0.2102 -0.2774
  330SOL    HW1 1318   0.456   3.124   2.129  0.2506  0.2316 -0.4313
  330SOL    HW2 1319   0.336   3.029   2.121 -2.0266  1.2888 -0.1821
  330SOL     MW 1320   0.396   3.081   2.080 -0.4023  0.0459 -0.2852
  331SOL     OW 1321   0.791   1.222   2.439 -0.6119  0.0435 -0.3627
  331SOL    HW1 1322   0.752   1.287   2.379  1.9036  0.2343  0.7988
  331SOL    HW2 1323   0.820   1.271   2.517  0.0820 -2.5490 -0.0102
  331SOL     MW 1324   0.790   1.237   2.442 -0.1884 -0.2734 -0.1629
  332SOL     OW 1325   1.339   1.643   2.908  0.0207 -0.1259  0.3981
  332SOL    HW1 1326   1.333   1.639   2.814 -0.4899 -0.2855 -0.5705
  332SOL    HW2 1327   1.408   1.714   2.928  2.0924  0.5059 -1.2998
  332SOL     MW 1328   1.347   1.652   2.899  0.2267 -0.0636  0.0463
  333SOL     OW 1329   1.693   1.399   2.930 -0.4071 -0.0666  0.0795
  333SOL    HW1 1330   1.795   1.398   2.929  1.3881  1.5263  0.0912
  333SOL    HW2 1331   1.678   1.310   2.973  0.3281 -1.0848 -0.8814
  333SOL     MW 1332   1.704   1.387   2.936 -0.0732  0.0092 -0.0458
  334SOL     OW 1333   1.278   3.058   2.658  0.3749 -0.4298 -0.5978
  334SOL    HW1 1334   1.200   3.054   2.709  2.3975 -0.2111 -1.2988
  334SOL    HW2 1335   1.310   3.147   2.694  1.5416 -0.3780 -0.2882
  334SOL     MW 1336   1.272   3.069   2.670  0.7957 -0.3941 -0.6494
  335SOL     OW 1337   1.296   0.704   3.028 -1.0037 -0.2109  0.6622
  335SOL    HW1 1338   1.335   0.691   3.108 -1.0059  0.9195 -3.2955
  335SOL    HW2 1339   1.373   0.725   2.980 -0.5657  0.3901 -4.9429
  335SOL     MW 1340   1.311   0.705   3.032 -0.9462  0.0175 -0.5995
  336SOL     OW 1341   0.971   1.155   1.731  0.0876 -0.3016 -1.0555
  336SOL    HW1 1342   0.930   1.212   1.799 -1.6676 -0.3416  3.6524
  336SOL    HW2 1343   0.982   1.075   1.781 -0.9618  1.1201 -1.2219
  336SOL     MW 1344   0.967   1.152   1.746 -0.2824 -0.1193 -0.4563
  337SOL     OW 1345   0.562   1.879   2.835 -0.2036  0.5390  0.6727
  337SOL    HW1 1346   0.523   1.836   2.758  1.2602  1.4723 -0.7358
  337SOL    HW2 1347   0.651   1.842   2.835  2.2455  0.9397 -0.3863
  337SOL     MW 1348   0.569   1.869   2.825  0.3127  0.7150  0.3471
  338SOL     OW 1349   1.055   0.743   2.499  0.4189 -0.0084 -0.0343
  338SOL    HW1 1350   0.975   0.684   2.509  0.4496  0.0001 -0.9944
  338SOL    HW2 1351   1.126   0.707   2.560 -0.9260  0.7889 -1.3954
  338SOL     MW 1352   1.054   0.730   2.508  0.2455  0.0979 -0.3406
  339SOL     OW 1353   1.437   1.164   1.859 -0.0689  0.6130 -0.8726
  339SOL    HW1 1354   1.436   1.120   1.775  1.1664  0.4410 -0.8875
  339SOL    HW2 1355   1.359   1.137   1.908 -0.2608  0.7458  1.1364
  339SOL     MW 1356   1.427   1.155   1.855  0.0688  0.6078 -0.6095
  340SOL     OW 1357   1.275   1.507   0.048 -0.4858 -0.1583  0.6428
  340SOL    HW1 1358   1.279   1.556  -0.034 -1.0408  1.5159  1.8338
  340SOL    HW2 1359   1.354   1.463   0.045 -3.3764 -0.4103 -2.3358
  340SOL     MW 1360   1.286   1.508   0.037 -0.9404  0.0293  0.4069
  341SOL     OW 1361   0.061   1.354   2.798  0.5952  0.4830  0.3827
  341SOL    HW1 1362   0.155   1.341   2.794  1.6620  0.4824  1.3817
  341SOL    HW2 1363   0.022   1.303   2.726  1.3077 -3.2386 -1.8158
  341SOL     MW 1364   0.069   1.345   2.788  0.8299 -0.0081  0.2245
  342SOL     OW 1365   1.408   0.308   0.116  0.1005 -0.3992  0.3728
  342SOL    HW1 1366   1.474   0.363   0.159 -1.7777 -0.8210 -0.7498
  342SOL    HW2 1367   1.394   0.354   0.032  0.5489  0.7992  2.1074
  342SOL     MW 1368   1.415   0.321   0.110 -0.0881 -0.2967  0.4536
  343SOL     OW 1369   0.288   0.281   2.226 -0.2824 -0.1808 -0.0544
  343SOL    HW1 1370   0.335   0.200   2.231 -2.5584  1.0118 -3.3121
  343SOL    HW2 1371   0.221   0.276   2.153 -1.2031 -0.3192 -0.5086
  343SOL     MW 1372   0.285   0.270   2.217 -0.7042 -0.0417 -0.5442
  344SOL     OW 1373   1.718   2.004   0.141 -0.3402 -0.3127 -0.4792
  344SOL    HW1 1374   1.762   2.066   0.084 -0.2887  1.3147 -2.5051
  344SOL    HW2 1375   1.623   1.997   0.117  2.0794  2.1777 -0.2474
  344SOL     MW 1376   1.711   2.012   0.131 -0.0142  0.2306 -0.7159
  345SOL     OW 1377   0.692   1.593   2.368 -0.0870  0.6073  0.0383
  345SOL    HW1 1378   0.602   1.621   2.340  1.3332  2.3080  1.1176
  345SOL    HW2 1379   0.746   1.567   2.292 -1.0438 -1.8693 -1.5482
  345SOL     MW 1380   0.687   1.593   2.354 -0.0259  0.5049 -0.0286
  346SOL     OW 1381   1.681   1.089   3.072 -0.4497 -0.0582  0.8132
  346SOL    HW1 1382   1.773   1.077   3.075 -1.3939  0.1335  0.6900
  346SOL    HW2 1383   1.643   1.046   3.144  1.5699 -0.9639 -2.0352
  346SOL     MW 1384   1.688   1.081   3.082 -0.3078 -0.1524  0.4211
  347SOL     OW 1385   1.143   0.701   2.246  0.1497 -0.5190  0.5163
  347SOL    HW1 1386   1.191   0.626   2.292  1.6254  0.7223  1.5239
  347SOL    HW2 1387   1.112   0.750   2.321  0.8289  1.2967 -2.6459
  347SOL     MW 1388   1.145   0.697   2.262  0.4340 -0.1156  0.2320
  348SOL     OW 1389   1.346   2.548   1.929 -0.2060 -0.5754  0.2596
  348SOL    HW1 1390   1.345   2.491   2.005 -0.3838  1.2226 -1.1105
  348SOL    HW2 1391   1.354   2.639   1.969 -0.9263  0.2566  1.7954
  348SOL     MW 1392   1.347   2.552   1.945 -0.3245 -0.2284  0.2814
  349SOL     OW 1393   1.412   0.184   2.754  0.6375  0.1333  0.1267
  349SOL    HW1 1394   1.370   0.240   2.819 -0.3219  2.1045  1.2838
  349SOL    HW2 1395   1.452   0.119   2.813 -0.0041 -3.6391 -1.0187
  349SOL     MW 1396   1.412   0.183   2.771  0.4263 -0.1043  0.1283
  350SOL     OW 1397   1.831   0.667   2.630  0.4425  0.1572 -0.1074
  350SOL    HW1 1398   1.789   0.593   2.577 -1.8885  1.2306  0.6701
  350SOL    HW2 1399   1.913   0.622   2.670  1.5745 -1.1699 -0.6180
  350SOL     MW 1400   1.836   0.651   2.629  0.2843  0.1237 -0.0722
  351SOL     OW 1401   0.090   1.141   1.641  0.1214 -0.0669 -0.0290
  351SOL    HW1 1402   0.007   1.153   1.691 -0.9432 -3.6103  0.9702
  351SOL    HW2 1403   0.156   1.212   1.652  0.8958 -3.3105  1.4002
  351SOL     MW 1404   0.088   1.152   1.649  0.0831 -0.9624  0.2914
  352SOL     OW 1405   0.839   1.763   2.802 -0.3380  0.4263 -0.3093
  352SOL    HW1 1406   0.804   1.723   2.892 -2.6681 -2.6056 -1.0482
  352SOL    HW2 1407   0.789   1.709   2.736  1.9707 -1.2867 -3.0306
  352SOL     MW 1408   0.828   1.751   2.805 -0.3408 -0.1998 -0.7658
  353SOL     OW 1409   0.024   2.584   2.728  0.0823 -0.5575 -0.5854
  353SOL    HW1 1410   0.101   2.590   2.674  0.5248 -1.9215 -0.0368
  353SOL    HW2 1411   0.000   2.678   2.726  3.2615  0.3195 -0.0273
  353SOL     MW 1412   0.031   2.597   2.721  0.5602 -0.6218 -0.4394
  354SOL     OW 1413   0.353   2.437   0.882  0.1687  0.1771  0.1073
  354SOL    HW1 1414   0.372   2.415   0.975 -2.1005 -2.8543  0.6590
  354SOL    HW2 1415   0.292   2.356   0.859  1.3026 -2.5492  1.7179
  354SOL     MW 1416   0.347   2.423   0.891  0.0189 -0.5826  0.3926
  355SOL     OW 1417   3.067   2.178   0.369  0.2633  0.2783  0.0148
  355SOL    HW1 1418   2.981   2.142   0.370  0.0224 -1.6739 -0.6763
  355SOL    HW2 1419   3.080   2.229   0.459 -0.3580 -1.3271 -0.1090
  355SOL     MW 1420   3.057   2.180   0.381  0.1496 -0.1911 -0.0927
  356SOL     OW 1421   0.796   2.848   0.991 -0.6535  0.6961  0.6300
  356SOL    HW1 1422   0.855   2.851   0.913 -1.9924  0.6327  1.5895
  356SOL    HW2 1423   0.706   2.829   0.962 -1.4773  0.3357 -0.5582
  356SOL     MW 1424   0.792   2.846   0.977 -0.9388  0.6402  0.5998
  357SOL     OW 1425   1.825   2.803   0.483  0.0053  0.1324  0.1649
  357SOL    HW1 1426   1.807   2.719   0.523 -0.5411 -0.2777 -0.9835
  357SOL    HW2 1427   1.915   2.800   0.454  0.3846 -0.2400 -0.7576
  357SOL     MW 1428   1.835   2.792   0.485 -0.0168  0.0292 -0.1083
  358SOL     OW 1429   0.448   0.183   1.045 -0.4618  0.0313  0.1827
  358SOL    HW1 1430   0.543   0.179   1.046 -2.6679 -4.1458 -0.9250
  358SOL    HW2 1431   0.424   0.205   0.955 -0.4744 -1.1652 -1.0320
  358SOL     MW 1432   0.457   0.186   1.033 -0.7545 -0.6777 -0.1237
  359SOL     OW 1433   0.875   2.987   1.824  0.3300  0.4024  0.1940
  359SOL    HW1 1434   0.869   2.891   1.832  0.2578 -2.2778 -1.9781
  359SOL    HW2 1435   0.903   2.994   1.728  2.0292  1.7023 -2.4247
  359SOL     MW 1436   0.878   2.975   1.812  0.5446  0.2203 -0.4381
  360SOL     OW 1437   0.553   2.765   0.885  0.3352  0.0418  0.8798
  360SOL    HW1 1438   0.585   2.748   0.793 -0.7538  1.9936 -1.5145
  360SOL    HW2 1439   0.547   2.682   0.933  2.2342  0.4989 -1.8106
  360SOL     MW 1440   0.556   2.752   0.879  0.4421  0.3597  0.2089
  361SOL     OW 1441   0.220   2.646   1.393  0.2100 -0.3365 -0.3132
  361SOL    HW1 1442   0.206   2.736   1.414  0.4477 -0.0596 -0.2969
  361SOL    HW2 1443   0.311   2.616   1.423  0.5392  1.0806 -1.0943
  361SOL     MW 1444   0.230   2.654   1.400  0.2848 -0.1130 -0.4141
  362SOL     OW 1445   1.386   2.400   0.603  0.1478  0.2869  0.4507
  362SOL    HW1 1446   1.429   2.328   0.646  1.5257 -0.6566  0.4108
  362SOL    HW2 1447   1.429   2.489   0.617 -0.6882 -0.4224  1.1872
  362SOL     MW 1448   1.398   2.403   0.610  0.2193  0.0688  0.5426
  363SOL     OW 1449   0.312   3.083   0.620  0.1261  0.5701 -0.3358
  363SOL    HW1 1450   0.298   3.022   0.696 -4.2302 -0.0028 -2.3260
  363SOL    HW2 1451   0.221   3.103   0.600  1.8150 -1.1219  0.2472
  363SOL     MW 1452   0.298   3.078   0.627 -0.2259  0.2713 -0.5215
  364SOL     OW 1453   0.784   0.258   0.125  0.3847  0.1652  0.0416
  364SOL    HW1 1454   0.703   0.219   0.147 -0.5414  0.0568 -0.9022
  364SOL    HW2 1455   0.745   0.330   0.070 -1.2957 -1.1853 -0.2475
  364SOL     MW 1456   0.768   0.263   0.120  0.0408 -0.0273 -0.1211
  365SOL     OW 1457   0.908   2.023   1.146 -0.4989  0.0864  0.1662
  365SOL    HW1 1458   0.881   2.107   1.114 -0.3674 -1.4749 -0.2992
  365SOL    HW2 1459   0.856   1.955   1.096  2.5736  1.6073  3.5003
  365SOL     MW 1460   0.897   2.025   1.135 -0.0762  0.0810  0.5447
  366SOL     OW 1461   2.949   2.630   0.935 -0.1117 -0.0812  0.0799
  366SOL    HW1 1462   3.044   2.642   0.957 -1.3018 -1.5344  2.0086
  366SOL    HW2 1463   2.946   2.682   0.849  1.2154  1.0809 -2.1009
  366SOL     MW 1464   2.962   2.638   0.927 -0.0936 -0.1196  0.0466
  367SOL     OW 1465   1.221   2.982   0.927  0.0399 -0.0067 -0.3622
  367SOL    HW1 1466   1.269   3.031   0.856  2.1013  0.2978 -1.7371
  367SOL    HW2 1467   1.160   2.932   0.876 -2.2934 -2.2637  1.1264
  367SOL     MW 1468   1.219   2.982   0.911  0.0040 -0.2643 -0.3472
  368SOL     OW 1469   1.748   0.404   0.720  0.2393 -0.0500 -0.2754
  368SOL    HW1 1470   1.785   0.353   0.649 -2.5046  3.1565  0.5055
  368SOL    HW2 1471   1.741   0.493   0.687 -1.2772 -0.7215 -1.4875
  368SOL     MW 1472   1.752   0.409   0.706 -0.3228  0.2845 -0.3323
  369SOL     OW 1473   0.133   2.400   1.774  0.4052 -0.3100 -0.3132
  369SOL    HW1 1474   0.232   2.380   1.781  0.1395  1.7897 -1.9032
  369SOL    HW2 1475   0.113   2.490   1.761 -1.2740 -3.2056  0.1958
  369SOL     MW 1476   0.143   2.409   1.773  0.1486 -0.4150 -0.4558
  370SOL     OW 1477   0.727   0.158   0.996  0.1625  0.0695  0.1177
  370SOL    HW1 1478   0.751   0.242   0.957  2.4445 -0.0753 -1.2739
  370SOL    HW2 1479   0.812   0.109   0.989 -1.5570  0.6816  0.6188
  370SOL     MW 1480   0.742   0.163   0.990  0.2367  0.1312  0.0002
  371SOL     OW 1481   1.219   2.807   1.507  0.3147 -0.3833 -0.3027
  371SOL    HW1 1482   1.207   2.716   1.486  0.2962  0.3522 -1.1201
  371SOL    HW2 1483   1.180   2.851   1.434 -0.9653  0.4131  3.0660
  371SOL     MW 1484   1.213   2.801   1.495  0.1434 -0.1812  0.0339
  372SOL     OW 1485   0.805   2.304   0.510 -0.5439  0.4246  0.0363
  372SOL    HW1 1486   0.777   2.219   0.539 -0.5724  1.3090 -0.5988
  372SOL    HW2 1487   0.857   2.300   0.432  0.0957  1.1017 -0.1123
  372SOL     MW 1488   0.808   2.292   0.503 -0.4633  0.6306 -0.0671
  373SOL     OW 1489   2.864   3.016   1.404 -0.3514 -0.0890  0.1838
  373SOL    HW1 1490   2.943   2.999   1.347 -0.5746  0.9455 -1.0102
  373SOL    HW2 1491   2.833   3.102   1.376 -0.5822 -0.3621  0.7100
  373SOL     MW 1492   2.870   3.025   1.393 -0.4113  0.0115  0.0957
  374SOL     OW 1493   1.605   0.448   0.295  0.4512 -0.0754  0.0147
  374SOL    HW1 1494   1.699   0.433   0.290  0.8606 -0.2563 -0.9480
  374SOL    HW2 1495   1.581   0.398   0.373 -1.3132 -0.6358  2.6408
  374SOL     MW 1496   1.614   0.440   0.305  0.2724 -0.1732  0.2342
  375SOL     OW 1497   0.930   2.168   2.332 -0.2274 -0.0269 -0.6626
  375SOL    HW1 1498   0.977   2.148   2.417  1.4579  0.0441  0.3885
  375SOL    HW2 1499   0.927   2.077   2.304  2.2433  2.2184 -0.3575
  375SOL     MW 1500   0.936   2.154   2.340  0.3210  0.2787 -0.4836
  376SOL     OW 1501   0.705   2.526   0.045  0.7583  0.3836 -0.1691
  376SOL    HW1 1502   0.698   2.448   0.102 -0.2401 -1.5493  2.5034
  376SOL    HW2 1503   0.689   2.499  -0.050 -2.6166 -0.3358 -0.9003
  376SOL     MW 1504   0.702   2.512   0.040  0.1813  0.0337  0.0870
  377SOL     OW 1505   1.283   2.084   0.912  0.4185 -0.1355  0.0468
  377SOL    HW1 1506   1.211   2.064   0.854 -0.8729  0.0284  1.0018
  377SOL    HW2 1507   1.285   2.010   0.973  1.2277 -0.8737 -0.9026
  377SOL     MW 1508   1.274   2.072   0.912  0.3548 -0.2113  0.0476
  378SOL     OW 1509   0.944   2.886   1.569  0.1451 -0.7326 -0.8703
  378SOL    HW1 1510   0.942   2.790   1.591 -2.3728 -0.4328  0.0354
  378SOL    HW2 1511   1.026   2.918   1.536  0.5516  1.7639  1.6370
  378SOL     MW 1512   0.954   2.878   1.568 -0.1335 -0.3636 -0.4200
  379SOL     OW 1513   1.119   1.655   2.194  0.2018 -0.1684  0.0802
  379SOL    HW1 1514   1.039   1.615   2.160  0.2447  1.0856  1.9274
  379SOL    HW2 1515   1.198   1.612   2.154  0.8115  0.0303 -1.3057
  379SOL     MW 1516   1.119   1.644   2.184  0.2879  0.0233  0.1410
  380SOL     OW 1517   0.894   0.069   1.407 -0.3037 -0.0118 -0.1580
  380SOL    HW1 1518   0.956  -0.007   1.381  4.7402  1.0960  0.7000
  380SOL    HW2 1519   0.926   0.091   1.496  1.7491 -0.8914 -0.4732
  380SOL     MW 1520   0.907   0.062   1.415  0.6326  0.0184 -0.0864
  381SOL     OW 1521   0.781   2.046   0.819  0.2376 -0.4466  0.3960
  381SOL    HW1 1522   0.873   2.045   0.795 -0.4815 -0.7289  0.9605
  381SOL    HW2 1523   0.778   2.127   0.881  0.3970 -1.7521  1.4268
  381SOL     MW 1524   0.793   2.057   0.824  0.1637 -0.6561  0.6065
  382SOL     OW 1525   0.790   0.138   0.653  0.4352 -0.2290  0.0610
  382SOL    HW1 1526   0.731   0.178   0.714  0.5963 -0.0604 -2.5241
  382SOL    HW2 1527   0.762   0.046   0.648 -0.1609 -0.1642  2.5391
  382SOL     MW 1528   0.778   0.131   0.660  0.3778 -0.1982  0.0469
  383SOL     OW 1529   0.580   0.062   0.288  0.1670  0.3256  0.2528
  383SOL    HW1 1530   0.618  -0.006   0.230 -0.8764 -0.0925 -1.9580
  383SOL    HW2 1531   0.516   0.015   0.341  0.3686 -1.8036  1.2847
  383SOL     MW 1532   0.576   0.047   0.287  0.0560 -0.0105  0.0972
  384SOL     OW 1533   0.744   2.967   0.609  0.0595  0.3378  0.5291
  384SOL    HW1 1534   0.820   2.931   0.665  0.7557 -0.5236 -2.0877
  384SOL    HW2 1535   0.681   2.890   0.598  2.2554  0.2162  0.8193
  384SOL     MW 1536   0.746   2.952   0.615  0.4411  0.2081  0.2221
  385SOL     OW 1537   1.431   2.064   1.545 -0.3420  0.7830  0.1378
  385SOL    HW1 1538   1.506   2.105   1.596  0.6843  0.2797 -1.2348
  385SOL    HW2 1539   1.420   1.973   1.579 -0.9320  1.8350 -0.9092
  385SOL     MW 1540   1.439   2.058   1.556 -0.2844  0.8554 -0.1815
  386SOL     OW 1541   1.387   0.374   0.851  0.9290  0.1153  0.1613
  386SOL    HW1 1542   1.360   0.420   0.930  2.7568 -0.6970  1.0564
  386SOL    HW2 1543   1.422   0.289   0.873  1.2482 -0.0448 -0.1472
  386SOL     MW 1544   1.388   0.369   0.864  1.2123 -0.0130  0.2387
  387SOL     OW 1545   0.802   2.129   1.514  0.4619 -0.1418  0.7559
  387SOL    HW1 1546   0.873   2.194   1.480 -0.0748 -2.3028  0.7679
  387SOL    HW2 1547   0.820   2.050   1.462 -2.1953 -1.9766  0.0510
  387SOL     MW 1548   0.814   2.127   1.502  0.0405 -0.6690  0.6645
  388SOL     OW 1549   1.466   2.761   1.299 -0.6303  0.4173  0.1032
  388SOL    HW1 1550   1.393   2.827   1.294  1.3350  0.7373  0.4742
  388SOL    HW2 1551   1.447   2.690   1.244  2.4534  0.5196  2.4331
  388SOL     MW 1552   1.454   2.760   1.291  0.0359  0.4730  0.4595
  389SOL     OW 1553   0.559   0.136   3.050 -0.3059  0.0445 -0.1064
  389SOL    HW1 1554   0.636   0.074   3.056 -2.4389  0.8055  1.1211
  389SOL    HW2 1555   0.554   0.160   2.957  0.4498 -0.6825  1.5686
  389SOL     MW 1556   0.569   0.131   3.039 -0.4876  0.0489  0.2765
  390SOL     OW 1557   1.343   0.031   0.730 -0.4254 -0.4839  0.9809
  390SOL    HW1 1558   1.385   0.005   0.644  0.7967  0.0175  0.1907
  390SOL    HW2 1559   1.409   0.048   0.793  1.1181  0.4216 -1.9549
  390SOL     MW 1560   1.358   0.030   0.727 -0.0605 -0.2982  0.4893
  391SOL     OW 1561   0.362   2.170   1.519 -0.2596 -0.1962  0.0776
  391SOL    HW1 1562   0.333   2.076   1.529 -0.1158 -0.2607  0.3480
  391SOL    HW2 1563   0.290   2.228   1.492 -0.9567 -1.4962  1.0297
  391SOL     MW 1564   0.349   2.165   1.516 -0.3326 -0.3763  0.2389
  392SOL     OW 1565   2.053   2.226   0.300 -0.1929  0.2473  0.3311
  392SOL    HW1 1566   2.131   2.270   0.332 -1.5962 -0.5021  0.3559
  392SOL    HW2 1567   1.979   2.266   0.348  0.1386 -4.2701  1.0996
  392SOL     MW 1568   2.053   2.237   0.311 -0.3343 -0.4476  0.4358
  393SOL     OW 1569   0.256   2.951   2.862 -0.1367  0.1300  0.0049
  393SOL    HW1 1570   0.344   2.932   2.820  0.0240 -0.6777 -2.2120
  393SOL    HW2 1571   0.245   3.044   2.840  0.1188  2.0419  0.5300
  393SOL     MW 1572   0.266   2.961   2.854 -0.0818  0.2757 -0.2183
  394SOL     OW 1573   0.991   1.709   1.537  0.2893 -0.3598 -0.6200
  394SOL    HW1 1574   0.957   1.699   1.621  1.7331  0.2156 -3.2683
  394SOL    HW2 1575   0.973   1.800   1.519  0.1642  1.5043  0.9476
  394SOL     MW 1576   0.984   1.720   1.546  0.4633 -0.0379 -0.7626
  395SOL     OW 1577   0.961   2.972   2.556 -0.2879  0.3646  0.7188
  395SOL    HW1 1578   0.964   2.982   2.648  0.3404  0.7959 -1.1489
  395SOL    HW2 1579   1.022   2.897   2.550  0.9996 -1.3001 -0.7985
  395SOL     MW 1580   0.969   2.964   2.568 -0.0351  0.2019  0.2722
  396SOL     OW 1581   0.718   1.852   2.435 -0.3018 -0.5053 -0.1815
  396SOL    HW1 1582   0.797   1.880   2.483 -0.8012 -0.7289  0.4331
  396SOL    HW2 1583   0.737   1.760   2.410  1.8081 -0.7817  2.3321
  396SOL     MW 1584   0.731   1.843   2.438 -0.0893 -0.5713  0.2313
  397SOL     OW 1585   0.967   2.306   1.416 -0.8536 -0.1691 -0.4429
  397SOL    HW1 1586   0.989   2.359   1.332  3.0663  0.9338 -0.0988
  397SOL    HW2 1587   1.047   2.288   1.469  0.7055 -0.1657  0.4919
  397SOL     MW 1588   0.980   2.310   1.412 -0.1307 -0.0231 -0.2742
  398SOL     OW 1589   0.595   2.731   0.593 -0.1272 -0.2817 -0.0262
  398SOL    HW1 1590   0.526   2.676   0.554  1.9148  0.6379 -0.4116
  398SOL    HW2 1591   0.672   2.674   0.598  0.9766  0.4305  2.0484
  398SOL     MW 1592   0.596   2.717   0.588  0.2879 -0.0664  0.1967
  399SOL     OW 1593   0.218   2.092   0.323  0.4485  0.1268  0.3296
  399SOL    HW1 1594   0.126   2.099   0.340  2.9783 -0.2528  0.3325
  399SOL    HW2 1595   0.238   2.114   0.227  2.4172 -4.0326 -0.9818
  399SOL     MW 1596   0.209   2.096   0.313  1.0420 -0.4721  0.1569
  400SOL     OW 1597   0.569   1.929   0.097 -0.1281 -0.4831 -0.0542
  400SOL    HW1 1598   0.503   1.996   0.115  1.0633  2.6136 -0.2001
  400SOL    HW2 1599   0.573   1.884   0.177  2.5740 -0.6041 -1.4287
  400SOL     MW 1600   0.561   1.932   0.110  0.3856 -0.0905 -0.2548
  401SOL     OW 1601   0.821   2.062   0.047 -0.1400 -0.5171  0.2736
  401SOL    HW1 1602   0.894   1.999   0.056 -0.8432 -1.9370 -4.2782
  401SOL    HW2 1603   0.740   2.010   0.049 -3.4810  4.1956 -0.4817
  401SOL     MW 1604   0.820   2.046   0.049 -0.6736 -0.0827 -0.4266
  402SOL     OW 1605   0.545   2.992   1.717 -0.5148  0.6599 -0.2985
  402SOL    HW1 1606   0.614   2.956   1.770  1.6863 -2.2040 -1.8680
  402SOL    HW2 1607   0.581   3.078   1.690 -0.9680  2.5741 -1.1190
  402SOL     MW 1608   0.559   2.999   1.720 -0.2842  0.5346 -0.6138
  403SOL     OW 1609   0.098   0.514   0.358  0.2852 -0.4632 -0.3522
  403SOL    HW1 1610   0.182   0.546   0.402  3.4451  1.7497 -1.5714
  403SOL    HW2 1611   0.130   0.469   0.284 -2.5512 -0.3915  0.1971
  403SOL     MW 1612   0.113   0.512   0.354  0.3279 -0.1618 -0.4406
  404SOL     OW 1613   0.980   2.896   0.779  0.2343  0.0906  0.1894
  404SOL    HW1 1614   1.043   2.838   0.738 -0.8873 -1.0303  0.8777
  404SOL    HW2 1615   1.015   2.986   0.755 -1.1358 -2.0143  1.1345
  404SOL     MW 1616   0.993   2.901   0.770 -0.0944 -0.3350  0.4049
  405SOL     OW 1617   0.465   2.483   1.523 -0.6268 -0.0235 -0.1998
  405SOL    HW1 1618   0.522   2.551   1.494 -1.4364 -1.7587  2.6732
  405SOL    HW2 1619   0.516   2.400   1.499  0.9806  1.2401  1.8133
  405SOL     MW 1620   0.479   2.481   1.516 -0.5216 -0.0857  0.4449
  406SOL     OW 1621   0.356   2.391   1.160  0.2559  0.2282  0.2002
  406SOL    HW1 1622   0.257   2.380   1.142  1.0963  0.3094 -2.2837
  406SOL    HW2 1623   0.395   2.304   1.179 -1.0378 -0.9355  1.0992
  406SOL     MW 1624   0.348   2.378   1.160  0.1961  0.0854 -0.0089
  407SOL     OW 1625   0.077   2.663   1.165 -0.2738 -0.3869  0.3059
  407SOL    HW1 1626   0.142   2.654   1.241  0.4011  3.5830  0.4531
  407SOL    HW2 1627   0.132   2.680   1.087  1.1229  4.6957  0.0628
  407SOL     MW 1628   0.093   2.664   1.165 -0.0005  0.8075  0.2933
  408SOL     OW 1629   2.104   2.111   0.744 -0.3286 -0.1212  0.5461
  408SOL    HW1 1630   2.046   2.158   0.804  2.5189  1.6172  1.7797
  408SOL    HW2 1631   2.055   2.064   0.678  3.7156  1.6158  1.3841
  408SOL     MW 1632   2.090   2.111   0.743  0.5807  0.3374  0.8195
  409SOL     OW 1633   1.546   0.141   0.891  0.4207  0.1235 -0.1024
  409SOL    HW1 1634   1.624   0.200   0.912 -1.8872  2.9830 -1.6615
  409SOL    HW2 1635   1.543   0.086   0.975  2.4165 -2.3192  1.1071
  409SOL     MW 1636   1.556   0.141   0.905  0.3795  0.1785 -0.1485
  410SOL     OW 1637   1.042   2.459   1.166  0.1504 -0.1059 -0.2363
  410SOL    HW1 1638   0.979   2.441   1.099 -0.8526 -1.1814  1.1521
  410SOL    HW2 1639   1.123   2.416   1.130 -0.1553  0.2293 -1.7955
  410SOL     MW 1640   1.044   2.451   1.152 -0.0223 -0.2036 -0.2588
  411SOL     OW 1641   2.013   3.010   2.887 -0.0370 -0.6374 -0.8363
  411SOL    HW1 1642   1.952   2.987   2.817  1.8439  0.8041 -1.3888
  411SOL    HW2 1643   2.014   3.102   2.891  1.2047 -0.1483 -0.3472
  411SOL     MW 1644   2.005   3.019   2.878  0.3750 -0.3827 -0.8446
  412SOL     OW 1645   1.067   2.280   0.614 -0.1228  0.2636  0.4550
  412SOL    HW1 1646   1.084   2.362   0.663  1.9459  0.3431 -2.2196
  412SOL    HW2 1647   0.979   2.284   0.571  1.6372 -1.3404 -1.3783
  412SOL     MW 1648   1.058   2.291   0.615  0.3824  0.0624 -0.1398
  413SOL     OW 1649   0.597   2.762   0.073  0.3186  0.3638  0.3872
  413SOL    HW1 1650   0.645   2.674   0.060  0.4920 -3.3486 -2.1939
  413SOL    HW2 1651   0.602   2.815  -0.007  0.0346 -1.0099  2.1701
  413SOL     MW 1652   0.604   2.757   0.061  0.3040 -0.3073  0.2819
  414SOL     OW 1653   2.014   3.039   1.167 -0.3961  0.3181 -0.2306
  414SOL    HW1 1654   2.075   3.109   1.146 -3.3272  0.7055 -0.8556
  414SOL    HW2 1655   1.993   3.011   1.080 -2.5668 -0.1825  0.6849
  414SOL     MW 1656   2.019   3.044   1.153 -1.0692  0.3031 -0.1923
  415SOL     OW 1657   1.639   2.796   1.089 -0.1632  0.3156  0.3968
  415SOL    HW1 1658   1.608   2.783   1.179  1.4252 -0.9603 -0.1628
  415SOL    HW2 1659   1.731   2.818   1.105 -0.3875 -0.9939  0.4423
  415SOL     MW 1660   1.647   2.798   1.103  0.0168 -0.0255  0.3290
  416SOL     OW 1661   0.592   1.778   1.467  0.2944 -0.2996  0.3224
  416SOL    HW1 1662   0.519   1.783   1.406  1.2082 -0.1978  3.6883
  416SOL    HW2 1663   0.655   1.713   1.439  0.5391 -0.9222  0.7191
  416SOL     MW 1664   0.590   1.770   1.455  0.4472 -0.3683  0.8189
  417SOL     OW 1665   0.988   3.035   2.066 -0.0809  0.4199  0.9059
  417SOL    HW1 1666   0.918   3.037   2.132 -0.6953 -1.4238  1.6683
  417SOL    HW2 1667   0.941   3.017   1.976  1.4807 -1.0793 -2.1722
  417SOL     MW 1668   0.973   3.033   2.063  0.0441 -0.0212  0.6003
  418SOL     OW 1669   0.728   2.973   0.161  0.1315  0.2330 -0.2864
  418SOL    HW1 1670   0.804   2.934   0.116 -0.2505  1.1234 -1.5826
  418SOL    HW2 1671   0.662   2.904   0.161 -2.4203  2.4693  1.1179
  418SOL     MW 1672   0.730   2.958   0.155 -0.2556  0.6456 -0.2721
  419SOL     OW 1673   0.554   2.690   1.350 -0.0384  0.4527 -0.1750
  419SOL    HW1 1674   0.573   2.774   1.389  0.8250  0.6404 -0.1539
  419SOL    HW2 1675   0.632   2.639   1.361 -0.7723  1.4675  2.3167
  419SOL     MW 1676   0.566   2.695   1.356 -0.0213  0.6114  0.1565
  420SOL     OW 1677   0.763   2.251   1.056  0.0555 -0.1418 -0.2042
  420SOL    HW1 1678   0.714   2.267   1.137 -1.8648 -2.6883 -1.3236
  420SOL    HW2 1679   0.769   2.343   1.011  0.6561  1.2971  0.1749
  420SOL     MW 1680   0.757   2.266   1.061 -0.1187 -0.2880 -0.3019
  421SOL     OW 1681   2.935   0.160   3.084  0.1232  0.2891  0.1441
  421SOL    HW1 1682   2.861   0.108   3.045  0.2060 -0.3157 -0.0392
  421SOL    HW2 1683   2.970   0.092   3.142 -2.9102  0.0721  3.2385
  421SOL     MW 1684   2.930   0.144   3.086 -0.2661  0.1807  0.5282
  422SOL     OW 1685   0.819   2.494   0.976  0.0519  0.7269  0.2759
  422SOL    HW1 1686   0.735   2.532   1.001  0.2842 -0.5842 -2.1702
  422SOL    HW2 1687   0.857   2.552   0.909 -0.4171  0.4511  0.7573
  422SOL     MW 1688   0.813   2.507   0.971  0.0207  0.5175  0.0166
  423SOL     OW 1689   1.451   0.063   0.469 -0.2339  0.1562  0.3507
  423SOL    HW1 1690   1.481   0.051   0.383 -2.8247  0.4151  0.3927
  423SOL    HW2 1691   1.452   0.154   0.498 -0.0387 -1.8801 -0.1157
  423SOL     MW 1692   1.455   0.074   0.461 -0.5500 -0.0783  0.2947
  424SOL     OW 1693   0.646   2.296   1.349  0.1212  0.2828  0.3107
  424SOL    HW1 1694   0.584   2.237   1.301  1.2407 -1.7342 -2.0541
  424SOL    HW2 1695   0.716   2.237   1.379 -0.5289 -1.0976  1.9834
  424SOL     MW 1696   0.647   2.280   1.347  0.1831 -0.1654  0.2194
  425SOL     OW 1697   1.685   2.775   2.064 -0.2868 -0.1734  0.1229
  425SOL    HW1 1698   1.704   2.768   1.968  1.7428  0.9487 -1.1804
  425SOL    HW2 1699   1.733   2.694   2.095 -1.2148  1.2446 -0.9954
  425SOL     MW 1700   1.694   2.763   2.055 -0.1415  0.1618 -0.1966
  426SOL     OW 1701   0.894   1.752   1.992  0.8985  0.0694 -0.0905
  426SOL    HW1 1702   0.818   1.739   1.934 -0.3454 -0.7428 -1.0592
  426SOL    HW2 1703   0.880   1.819   2.062  2.8116 -3.9617  1.1212
  426SOL     MW 1704   0.882   1.759   1.994  0.9868 -0.5696 -0.0584
  427SOL     OW 1705   0.349   1.707   1.869  0.1234  0.2334  0.0228
  427SOL    HW1 1706   0.395   1.626   1.830  0.2665 -1.9743 -0.3470
  427SOL    HW2 1707   0.271   1.665   1.923 -1.3521 -0.7625 -0.0264
  427SOL     MW 1708   0.345   1.691   1.871 -0.0524 -0.1893 -0.0325
  428SOL     OW 1709   0.569   2.584   1.090  0.4030  0.1601 -0.5451
  428SOL    HW1 1710   0.492   2.531   1.124 -0.4053 -1.3033  1.3923
  428SOL    HW2 1711   0.582   2.666   1.149  0.1322  0.9040 -0.3576
  428SOL     MW 1712   0.560   2.588   1.102  0.2606  0.0652 -0.2648
  429SOL     OW 1713   1.190   2.746   1.144 -0.3456 -0.1471 -0.4093
  429SOL    HW1 1714   1.101   2.736   1.178 -1.1041  0.2200  1.2115
  429SOL    HW2 1715   1.187   2.807   1.073 -0.5269  0.3810 -0.7955
  429SOL     MW 1716   1.178   2.753   1.139 -0.4696 -0.0290 -0.2464
  430SOL     OW 1717   1.169   2.727   0.709 -0.3013  0.6936 -0.5507
  430SOL    HW1 1718   1.170   2.636   0.741 -1.1508 -0.1705  0.7265
  430SOL    HW2 1719   1.142   2.726   0.615  0.6008  1.9042  3.4677
  430SOL     MW 1720   1.166   2.715   0.701 -0.2943  0.7393  0.1480
  431SOL     OW 1721   0.295   1.927   1.145 -0.0740 -0.3943  0.0098
  431SOL    HW1 1722   0.361   1.857   1.108 -0.9603 -0.5378 -3.7058
  431SOL    HW2 1723   0.246   1.955   1.064 -0.6408 -0.0830 -0.2480
  431SOL     MW 1724   0.297   1.921   1.129 -0.2658 -0.3722 -0.5145
  432SOL     OW 1725   0.053   0.029   1.121  0.4372  0.0342  0.2826
  432SOL    HW1 1726   0.054   0.062   1.212  0.5585 -1.0403 -0.3754
  432SOL    HW2 1727   0.014  -0.061   1.134  2.4343 -0.2570  1.7977
  432SOL     MW 1728   0.048   0.022   1.135  0.7167 -0.1460  0.3957
  433SOL     OW 1729   0.659   2.897   1.466 -0.1978  0.5156  0.1183
  433SOL    HW1 1730   0.607   2.919   1.548  0.9587 -0.8301 -0.0290
  433SOL    HW2 1731   0.760   2.901   1.489  0.7356 -2.4882 -1.0703
  433SOL     MW 1732   0.666   2.900   1.480  0.0780 -0.0582 -0.0580
  434SOL     OW 1733   1.536   2.824   1.580 -0.8373  1.1290 -0.3129
  434SOL    HW1 1734   1.445   2.850   1.557 -3.0918 -0.9628  0.5763
  434SOL    HW2 1735   1.553   2.762   1.510 -0.2332  1.0073 -0.5785
  434SOL     MW 1736   1.526   2.820   1.568 -1.0551  0.8369 -0.2306
  435SOL     OW 1737   2.754   1.775   0.224  0.0201  0.4857 -0.0258
  435SOL    HW1 1738   2.821   1.827   0.182 -2.8010 -1.9036  3.7247
  435SOL    HW2 1739   2.676   1.818   0.192 -0.2655  0.7320 -0.7622
  435SOL     MW 1740   2.753   1.788   0.214 -0.3898  0.2029  0.3719
  436SOL     OW 1741   1.401   2.699   0.338 -0.3359 -0.1033 -0.6888
  436SOL    HW1 1742   1.421   2.670   0.431 -1.0231 -3.0501 -1.7532
  436SOL    HW2 1743   1.357   2.786   0.356 -0.4274  0.3444 -1.9822
  436SOL     MW 1744   1.398   2.707   0.353 -0.4387 -0.4330 -0.9999
  437SOL     OW 1745   1.059   2.981   1.319 -0.1609  0.0917 -0.5601
  437SOL    HW1 1746   1.062   3.039   1.238 -1.9157  0.3563  1.4980
  437SOL    HW2 1747   1.010   2.901   1.298 -2.1759  2.7244  1.1466
  437SOL     MW 1748   1.053   2.978   1.305 -0.6583  0.4740 -0.0633
  438SOL     OW 1749   0.882   2.731   1.924  0.2273  0.1614  0.1651
  438SOL    HW1 1750   0.860   2.690   2.012  1.7634 -0.5943 -0.0015
  438SOL    HW2 1751   0.878   2.656   1.869  0.4034 -1.9023  2.4283
  438SOL     MW 1752   0.878   2.716   1.928  0.4532 -0.2106  0.4417
  439SOL     OW 1753   1.166   2.079   0.418  0.3617 -0.1624 -0.2879
  439SOL    HW1 1754   1.156   2.152   0.480  2.2015  0.2284 -1.9978
  439SOL    HW2 1755   1.159   2.132   0.336  0.7591 -0.8834  1.6795
  439SOL     MW 1756   1.164   2.095   0.415  0.6569 -0.2060 -0.2539
  440SOL     OW 1757   1.770   2.956   3.079  0.3220  0.1163 -0.1176
  440SOL    HW1 1758   1.743   2.912   3.159  2.0782  2.1408  1.6176
  440SOL    HW2 1759   1.862   2.928   3.067 -0.3809  1.3096  0.0906
  440SOL     MW 1760   1.779   2.947   3.088  0.4610  0.5409  0.1388
  441SOL     OW 1761   0.342   2.660   0.480 -0.1885  0.2286 -0.6195
  441SOL    HW1 1762   0.321   2.615   0.391 -3.2950 -0.3546 -2.3252
  441SOL    HW2 1763   0.365   2.750   0.449 -0.0320 -0.3512 -0.5729
  441SOL     MW 1764   0.342   2.666   0.465 -0.5778  0.0751 -0.8384
  442SOL     OW 1765   3.088   2.295   0.598 -0.1173 -0.4533  0.5883
  442SOL    HW1 1766   3.101   2.394   0.593  0.8606 -2.2446 -1.9449
  442SOL    HW2 1767   2.995   2.282   0.622  0.4150 -0.2008 -0.1868
  442SOL     MW 1768   3.078   2.307   0.601  0.0819 -0.6563  0.1518
  443SOL     OW 1769   1.498   1.766   1.893  0.1242  0.0566  0.0390
  443SOL    HW1 1770   1.466   1.805   1.808  2.1323  2.1153 -2.3708
  443SOL    HW2 1771   1.447   1.686   1.910 -0.3980  1.7479  2.3226
  443SOL     MW 1772   1.487   1.761   1.884  0.3202  0.5514  0.0224
  444SOL     OW 1773   0.965   2.611   1.609  1.1289  0.2596  0.0863
  444SOL    HW1 1774   1.023   2.562   1.670  1.0493 -2.0070  0.5027
  444SOL    HW2 1775   0.875   2.593   1.638  1.6199  0.7161  3.0384
  444SOL     MW 1776   0.961   2.602   1.621  1.1832  0.0208  0.5307
  445SOL     OW 1777   1.212   0.147   1.432  0.1814  0.1225  0.1489
  445SOL    HW1 1778   1.262   0.212   1.473  1.0341 -1.9162 -1.4823
  445SOL    HW2 1779   1.153   0.185   1.366 -0.5000 -1.6977  1.0636
  445SOL     MW 1780   1.210   0.161   1.429  0.2040 -0.3866  0.0543
  446SOL     OW 1781   2.791   2.856   1.033 -0.3315 -0.3375 -0.2340
  446SOL    HW1 1782   2.721   2.901   0.985  1.4738  1.3505  2.1203
  446SOL    HW2 1783   2.792   2.771   0.995 -0.7578  1.8648  0.3038
  446SOL     MW 1784   2.782   2.851   1.022 -0.1496  0.1758  0.1476
  447SOL     OW 1785   0.014   1.963   1.579  0.6049 -0.2888 -0.1821
  447SOL    HW1 1786   0.003   1.898   1.648 -0.5510  0.5853  1.6744
  447SOL    HW2 1787  -0.061   1.932   1.513 -1.8683 -0.3400 -0.6919
  447SOL     MW 1788   0.003   1.950   1.579  0.1260 -0.1802 -0.0044
  448SOL     OW 1789   1.788   2.439   1.673  0.0290 -0.4074 -0.2710
  448SOL    HW1 1790   1.735   2.357   1.660  1.6454  0.8463  1.2689
  448SOL    HW2 1791   1.711   2.501   1.674 -1.8800 -0.1011  0.1486
  448SOL     MW 1792   1.771   2.437   1.671 -0.0096 -0.2015 -0.0125
  449SOL     OW 1793   0.893   2.951   0.394 -0.5152 -0.4191  0.6503
  449SOL    HW1 1794   0.821   2.950   0.329 -0.3324  0.6014  2.9753
  449SOL    HW2 1795   0.842   2.976   0.474  0.9757  0.7272 -0.8929
  449SOL     MW 1796   0.876   2.954   0.396 -0.2943 -0.1332  0.7534
  450SOL     OW 1797   1.180   2.464   0.768 -0.1244  0.1894  0.0756
  450SOL    HW1 1798   1.193   2.427   0.852 -0.5502  0.7589 -0.8251
  450SOL    HW2 1799   1.248   2.425   0.709  1.5274  0.5781  2.1991
  450SOL     MW 1800   1.190   2.454   0.771  0.0373  0.3158  0.2369
  451SOL     OW 1801   0.557   2.002   1.717 -0.4638 -0.1702  0.0547
  451SOL    HW1 1802   0.595   2.056   1.651 -2.9763 -1.6887  1.1563
  451SOL    HW2 1803   0.505   1.937   1.674  0.1908  1.8755  0.0455
  451SOL     MW 1804   0.555   2.000   1.703 -0.7089 -0.1007  0.1988
  452SOL     OW 1805   0.360   2.648   0.049 -0.1914 -0.3325 -0.1381
  452SOL    HW1 1806   0.450   2.691   0.066  2.0559  2.6176 -0.9707
  452SOL    HW2 1807   0.291   2.719   0.036 -3.0085  3.1847  0.7076
  452SOL     MW 1808   0.363   2.663   0.049 -0.2666  0.5208 -0.1364
  453SOL     OW 1809   0.295   3.088   1.592 -0.3246  0.1459  0.2326
  453SOL    HW1 1810   0.366   3.036   1.632  0.8719 -1.3348  1.8213
  453SOL    HW2 1811   0.325   3.088   1.501  0.5675  0.9571 -1.9968
  453SOL     MW 1812   0.309   3.081   1.585 -0.0490  0.0576  0.1481
  454SOL     OW 1813   0.936   2.749   1.236 -0.1458  0.2921  0.4303
  454SOL    HW1 1814   0.889   2.678   1.284 -1.4710 -1.3083  3.5250
  454SOL    HW2 1815   0.894   2.767   1.152  1.8345  0.1527 -1.0754
  454SOL     MW 1816   0.924   2.742   1.231 -0.0594  0.0625  0.6400
  455SOL     OW 1817   1.663   2.884   0.247  0.5895 -0.7690 -0.1968
  455SOL    HW1 1818   1.728   2.857   0.317  0.4837  0.7672  2.3335
  455SOL    HW2 1819   1.629   2.809   0.197 -0.3923  0.0372 -2.5232
  455SOL     MW 1820   1.667   2.870   0.250  0.4460 -0.4600 -0.1699
  456SOL     OW 1821   2.746   0.289   1.497  0.2917 -0.0768  0.0749
  456SOL    HW1 1822   2.735   0.219   1.432  2.7462 -0.2187 -1.9179
  456SOL    HW2 1823   2.828   0.321   1.468  1.1298  1.3166  0.6688
  456SOL     MW 1824   2.755   0.284   1.484  0.7261  0.0883 -0.1097
  457SOL     OW 1825   0.785   1.648   3.037 -0.3310  0.2386  0.2293
  457SOL    HW1 1826   0.687   1.649   3.047  0.4427  1.7240  0.3042
  457SOL    HW2 1827   0.832   1.683   3.116  0.4113 -0.3938 -2.1025
  457SOL     MW 1828   0.778   1.653   3.049 -0.1310  0.3511 -0.0685
  458SOL     OW 1829   1.379   1.504   0.677 -0.4281  0.5794  0.2739
  458SOL    HW1 1830   1.323   1.560   0.613 -0.5884  4.0621 -1.4634
  458SOL    HW2 1831   1.350   1.419   0.665  1.8501  0.8277  0.0065
  458SOL     MW 1832   1.368   1.501   0.667 -0.1486  1.0717  0.0094
  459SOL     OW 1833   1.559   0.020   0.210  0.0291  0.1407  0.2197
  459SOL    HW1 1834   1.580  -0.072   0.229 -0.8734  2.1543  0.2408
  459SOL    HW2 1835   1.513   0.026   0.123  1.5742 -0.2271  0.2738
  459SOL     MW 1836   1.556   0.008   0.201  0.1139  0.3579  0.2296
  460SOL     OW 1837   1.771   2.192   0.680 -0.0693  0.4651 -0.4284
  460SOL    HW1 1838   1.670   2.190   0.692  0.5117  0.6806  2.3387
  460SOL    HW2 1839   1.796   2.102   0.663 -1.5154 -0.0499  0.6610
  460SOL     MW 1840   1.761   2.180   0.680 -0.1835  0.4256  0.0804
  461SOL     OW 1841   0.473   2.416   0.621  0.1617  0.5804  0.6478
  461SOL    HW1 1842   0.405   2.477   0.592 -3.4852 -0.3191 -0.3455
  461SOL    HW2 1843   0.472   2.415   0.714  0.0810 -0.5500 -0.1597
  461SOL     MW 1844   0.463   2.424   0.629 -0.3301  0.3126  0.4102
  462SOL     OW 1845   0.304   0.208   1.298 -0.3435 -0.5348  0.2501
  462SOL    HW1 1846   0.360   0.188   1.220 -3.4745 -2.8197 -1.2662
  462SOL    HW2 1847   0.373   0.231   1.363 -1.4039 -0.7271  0.7921
  462SOL     MW 1848   0.320   0.208   1.297 -0.8965 -0.8616  0.1215
  463SOL     OW 1849   1.047   0.063   0.716  0.3314 -0.3696  0.2291
  463SOL    HW1 1850   1.130   0.070   0.668  1.2526  0.4603 -1.4378
  463SOL    HW2 1851   0.972   0.108   0.662  2.9210  0.1444 -1.0475
  463SOL     MW 1852   1.048   0.070   0.702  0.7946 -0.1923 -0.1593
  464SOL     OW 1853   0.776   3.063   2.253 -0.1913  0.9659  0.1547
  464SOL    HW1 1854   0.778   2.968   2.273 -0.8225  2.7899  0.8766
  464SOL    HW2 1855   0.813   3.116   2.323  0.7097  1.7096  3.1878
  464SOL     MW 1856   0.781   3.057   2.265 -0.1557  1.3047  0.6501
  465SOL     OW 1857   0.845   0.339   0.406 -1.2263 -0.1556 -0.1509
  465SOL    HW1 1858   0.803   0.300   0.482  0.7899  1.1596  2.8130
  465SOL    HW2 1859   0.837   0.277   0.324  0.1309 -0.4280 -1.3645
  465SOL     MW 1860   0.838   0.326   0.405 -0.7812 -0.0180  0.0800
  466SOL     OW 1861   1.063   2.039   0.737  0.6672 -0.4292 -0.2701
  466SOL    HW1 1862   1.067   1.961   0.681 -0.4162 -2.4982 -0.1711
  466SOL    HW2 1863   1.056   2.125   0.680 -0.3753  1.0672 -2.1258
  466SOL     MW 1864   1.063   2.040   0.722  0.3867 -0.5048 -0.5019
  467SOL     OW 1865   1.268   2.340   1.007  0.1111 -0.3541  0.0424
  467SOL    HW1 1866   1.360   2.368   1.005  0.7481 -1.6423 -0.1723
  467SOL    HW2 1867   1.271   2.248   0.976  1.1707 -1.7226 -0.1886
  467SOL     MW 1868   1.281   2.332   1.002  0.3350 -0.7047 -0.0164
  468SOL     OW 1869   0.445   2.669   1.870  0.2194 -0.4213  0.0645
  468SOL    HW1 1870   0.413   2.587   1.835  2.0758  0.7786 -1.2653
  468SOL    HW2 1871   0.371   2.734   1.859 -3.7770 -0.2936 -1.8511
  468SOL     MW 1872   0.431   2.667   1.864 -0.0629 -0.2462 -0.3637
  469SOL     OW 1873   0.390   2.140   1.875 -0.1947 -0.5061 -0.2672
  469SOL    HW1 1874   0.296   2.113   1.854 -1.3629  1.5361  0.6788
  469SOL    HW2 1875   0.448   2.109   1.804 -0.0535 -2.0260  1.5288
  469SOL     MW 1876   0.385   2.132   1.863 -0.3302 -0.4372  0.0946
  470SOL     OW 1877   3.082   2.595   0.146 -0.2922  0.0666  0.1641
  470SOL    HW1 1878   3.003   2.588   0.205  0.2370  0.3023 -0.1857
  470SOL    HW2 1879   3.051   2.611   0.060  0.1792  0.9127 -1.8344
  470SOL     MW 1880   3.067   2.596   0.142 -0.1602  0.2094 -0.1457
  471SOL     OW 1881   1.179   2.532   1.409 -0.1007 -0.3302  0.9227
  471SOL    HW1 1882   1.114   2.522   1.476 -0.2114 -0.1296 -0.7668
  471SOL    HW2 1883   1.142   2.549   1.319 -1.1005  3.6588 -0.1015
  471SOL     MW 1884   1.166   2.533   1.406 -0.2472  0.2226  0.5647
  472SOL     OW 1885   2.796   2.090   0.370  0.3224  0.3457 -0.0396
  472SOL    HW1 1886   2.820   2.076   0.277  0.7329 -0.7255 -1.4110
  472SOL    HW2 1887   2.794   2.004   0.414  0.2116  2.0105  1.0284
  472SOL     MW 1888   2.799   2.077   0.363  0.3620  0.4240 -0.0796
  473SOL     OW 1889   0.775   2.560   1.368  0.7927  0.0013  0.1687
  473SOL    HW1 1890   0.756   2.469   1.345 -0.1425 -0.9053  0.7005
  473SOL    HW2 1891   0.829   2.563   1.449  1.5308  0.3164  2.7936
  473SOL     MW 1892   0.780   2.548   1.376  0.7667 -0.0767  0.5852
  474SOL     OW 1893   0.716   2.285   1.734  0.0101 -0.3215 -0.4869
  474SOL    HW1 1894   0.794   2.315   1.786  2.4120 -0.0411 -1.4035
  474SOL    HW2 1895   0.747   2.218   1.671 -2.3899  1.9809  0.2206
  474SOL     MW 1896   0.731   2.280   1.732  0.0103  0.0192 -0.5145
  475SOL     OW 1897   1.606   3.095   1.476 -0.6617 -0.1335  0.5593
  475SOL    HW1 1898   1.518   3.077   1.436 -0.9040 -0.8412 -1.8590
  475SOL    HW2 1899   1.616   3.006   1.507  2.4515 -1.3572 -2.3620
  475SOL     MW 1900   1.596   3.081   1.475 -0.2829 -0.3883 -0.1452
  476SOL     OW 1901   1.430   2.604   1.080 -0.1760 -0.1394  0.2850
  476SOL    HW1 1902   1.335   2.616   1.066 -0.5056 -1.9766 -1.3129
  476SOL    HW2 1903   1.482   2.677   1.036  2.1687 -0.5946  0.9094
  476SOL     MW 1904   1.425   2.616   1.072  0.0898 -0.4418  0.1565
  477SOL     OW 1905   0.810   2.566   0.652  0.3501 -0.0244  0.2143
  477SOL    HW1 1906   0.864   2.599   0.582  0.6593  1.0970  1.1188
  477SOL    HW2 1907   0.789   2.482   0.616  0.8461  3.5712  0.6077
  477SOL     MW 1908   0.814   2.560   0.638  0.4563  0.5980  0.3855
  478SOL     OW 1909   0.142   2.685   0.898  0.4232 -0.3299  0.1640
  478SOL    HW1 1910   0.205   2.755   0.882 -2.1056  2.3548  0.6012
  478SOL    HW2 1911   0.191   2.604   0.889  0.6947 -1.7001  0.0014
  478SOL     MW 1912   0.157   2.683   0.895  0.1254 -0.1565  0.2002
  479SOL     OW 1913   1.442   2.001   1.292 -0.2394 -0.0541  0.1367
  479SOL    HW1 1914   1.444   2.023   1.384 -0.2615  0.0012  0.9688
  479SOL    HW2 1915   1.473   1.908   1.289  0.0708 -2.1360 -0.1235
  479SOL     MW 1916   1.446   1.992   1.304 -0.2014 -0.3215  0.2122
  480SOL     OW 1917   2.007   2.450   1.301  0.6243  0.1271  0.8229
  480SOL    HW1 1918   1.982   2.359   1.299  0.5954 -1.0869  0.6312
  480SOL    HW2 1919   2.022   2.473   1.209  1.9880  1.3566  0.3641
  480SOL     MW 1920   2.005   2.441   1.288  0.8004  0.1292  0.7371
  481SOL     OW 1921   1.050   0.039   1.091 -0.4071  0.0531 -0.0808
  481SOL    HW1 1922   1.106  -0.015   1.032  0.4681 -0.7715 -0.7707
  481SOL    HW2 1923   1.094   0.127   1.085 -2.4634  2.9240  0.5554
  481SOL     MW 1924   1.063   0.043   1.083 -0.5629  0.3231 -0.0878
  482SOL     OW 1925   1.098   3.076   0.267  0.3453 -0.0799  0.4118
  482SOL    HW1 1926   1.023   3.034   0.309 -0.2884 -0.4773 -0.1836
  482SOL    HW2 1927   1.110   3.167   0.309  0.5844 -2.4745 -0.0464
  482SOL     MW 1928   1.090   3.082   0.278  0.2932 -0.4483  0.2728
  483SOL     OW 1929   0.427   2.927   0.396  0.2874  0.4220 -0.1187
  483SOL    HW1 1930   0.342   2.974   0.370 -2.1490  1.1580 -1.8155
  483SOL    HW2 1931   0.433   2.950   0.489 -0.4512 -0.3982 -0.0188
  483SOL     MW 1932   0.417   2.936   0.405 -0.1315  0.4109 -0.3294
  484SOL     OW 1933   1.893   1.939   1.481 -0.4411 -0.2487  0.0608
  484SOL    HW1 1934   1.914   2.022   1.443 -1.6700 -1.5598 -0.4304
  484SOL    HW2 1935   1.854   1.952   1.567  2.3159 -1.2883  3.1363
  484SOL     MW 1936   1.891   1.952   1.487 -0.2395 -0.5588  0.4017
  485SOL     OW 1937   0.555   2.301   0.260  0.2863 -0.4049  0.2632
  485SOL    HW1 1938   0.587   2.290   0.355  2.3043 -0.8785  1.6931
  485SOL    HW2 1939   0.478   2.363   0.265 -0.4170  0.3254  0.4980
  485SOL     MW 1940   0.549   2.308   0.273  0.4598 -0.3710  0.4828
  486SOL     OW 1941   0.151   2.351   1.488 -0.0880  0.7770  0.4260
  486SOL    HW1 1942   0.196   2.426   1.444  1.7406  1.8289  0.6286
  486SOL    HW2 1943   0.139   2.379   1.580  3.5458 -1.1883  2.6553
  486SOL     MW 1944   0.155   2.365   1.495  0.6327  0.6565  0.7469
  487SOL     OW 1945   1.230   1.676   1.056  0.3627  0.3709 -0.0981
  487SOL    HW1 1946   1.213   1.765   1.099 -3.3571 -0.7195 -2.4195
  487SOL    HW2 1947   1.326   1.684   1.051 -0.9312 -0.6561 -0.5254
  487SOL     MW 1948   1.241   1.689   1.061 -0.2988  0.0915 -0.4607
  488SOL     OW 1949   1.614   1.849   0.540 -0.1765 -0.8883  0.1781
  488SOL    HW1 1950   1.687   1.849   0.474 -1.0305 -0.2342  2.2237
  488SOL    HW2 1951   1.549   1.919   0.525  0.9330 -0.6553  2.9609
  488SOL     MW 1952   1.615   1.858   0.529 -0.1428 -0.7713  0.8152
  489SOL     OW 1953   0.768   0.786   0.597 -0.1437  0.8041  0.8388
  489SOL    HW1 1954   0.787   0.699   0.560  1.3493  0.4933  1.1235
  489SOL    HW2 1955   0.725   0.773   0.685  0.8328  1.6915 -0.3367
  489SOL     MW 1956   0.765   0.773   0.604  0.1821  0.8802  0.7213
  490SOL     OW 1957   1.444   2.074   0.469  0.5638 -0.0613 -0.4954
  490SOL    HW1 1958   1.469   2.149   0.418 -0.4001 -2.3891  0.8078
  490SOL    HW2 1959   1.345   2.077   0.468 -1.2668  2.9320  0.2384
  490SOL     MW 1960   1.434   2.084   0.462  0.1951  0.0265 -0.2266
  491SOL     OW 1961   1.269   2.932   0.403  0.1293 -0.3676  0.4490
  491SOL    HW1 1962   1.342   2.994   0.429 -0.0629  0.6589 -0.2027
  491SOL    HW2 1963   1.203   2.992   0.360  0.5747  2.3071  2.2278
  491SOL     MW 1964   1.270   2.948   0.400  0.1627  0.1208  0.5977
  492SOL     OW 1965   1.515   2.169   0.722 -0.3340  0.5484  0.1560
  492SOL    HW1 1966   1.473   2.114   0.654 -0.9763  0.7728  2.2272
  492SOL    HW2 1967   1.471   2.139   0.798 -1.9171  1.7088  0.8562
  492SOL     MW 1968   1.503   2.158   0.723 -0.6276  0.7311  0.5216
  493SOL     OW 1969   0.191   3.032   0.335 -0.0703  0.5122  0.8959
  493SOL    HW1 1970   0.134   3.079   0.395 -0.0819  0.3457  1.8458
  493SOL    HW2 1971   0.211   3.101   0.266  2.2888 -0.6687  2.0249
  493SOL     MW 1972   0.186   3.048   0.334  0.2394  0.3344  1.1702
  494SOL     OW 1973   0.414   2.406   1.783 -0.1544  0.1216  0.0915
  494SOL    HW1 1974   0.451   2.319   1.803  2.7621  0.8914 -1.8610
  494SOL    HW2 1975   0.434   2.423   1.688 -1.0517 -0.3370  0.7995
  494SOL     MW 1976   0.422   2.396   1.773  0.1120  0.1627 -0.0727
  495SOL     OW 1977   2.886   1.647   2.622 -0.5200  0.1814 -0.7070
  495SOL    HW1 1978   2.866   1.736   2.601 -0.6529  1.9338  2.6791
  495SOL    HW2 1979   2.865   1.635   2.717 -2.5182 -0.2467 -0.5693
  495SOL     MW 1980   2.881   1.657   2.631 -0.8012  0.3561 -0.2421
  496SOL     OW 1981   2.912   2.381   2.704  0.1783  0.2974  0.2298
  496SOL    HW1 1982   2.958   2.295   2.737 -0.7434 -1.3121  1.1750
  496SOL    HW2 1983   2.983   2.442   2.694  0.3539 -0.2752  0.5238
  496SOL     MW 1984   2.927   2.377   2.707  0.0798  0.0095  0.3933
  497SOL     OW 1985   1.642   2.211   2.602  0.2366 -0.2991  0.0228
  497SOL    HW1 1986   1.571   2.197   2.541 -1.2282  1.0713  1.2590
  497SOL    HW2 1987   1.632   2.152   2.675  1.4742 -0.4624  1.4917
  497SOL     MW 1988   1.631   2.201   2.603  0.2067 -0.1398  0.3797
  498SOL     OW 1989   1.444   2.713   2.324  0.0410  0.1442  0.7985
  498SOL    HW1 1990   1.435   2.614   2.336  0.4723  2.0261  1.6248
  498SOL    HW2 1991   1.540   2.723   2.348  1.2907 -0.1028 -1.2352
  498SOL     MW 1992   1.456   2.701   2.329  0.2628  0.3599  0.6392
  499SOL     OW 1993   0.996   0.151   3.082  0.1830 -0.3033  0.0163
  499SOL    HW1 1994   0.900   0.179   3.112 -1.6504  2.6579 -0.8833
  499SOL    HW2 1995   1.016   0.069   3.133 -0.4451  1.0577 -0.3548
  499SOL     MW 1996   0.986   0.144   3.093 -0.1418  0.2669 -0.1513
  500SOL     OW 1997   1.095   2.524   2.802  0.3186 -0.5134 -0.5786
  500SOL    HW1 1998   1.139   2.475   2.880 -0.6223 -1.0566  0.5804
  500SOL    HW2 1999   1.001   2.521   2.829  0.3700 -0.3854 -1.7747
  500SOL     MW 2000   1.089   2.517   2.816  0.2012 -0.5682 -0.5835
  501SOL     OW 2001   1.810   2.219   3.065 -0.5969 -0.0091  0.2137
  501SOL    HW1 2002   1.800   2.305   3.114  0.1829 -2.7704  0.0761
  501SOL    HW2 2003   1.906   2.220   3.049  1.0565  1.3435  0.4846
  501SOL     MW 2004   1.822   2.231   3.069 -0.2759 -0.1949  0.2313
  502SOL     OW 2005   0.159   2.807   3.072  0.0480 -0.4359  0.3099
  502SOL    HW1 2006   0.094   2.744   3.045 -0.4552 -1.1504  2.7678
  502SOL    HW2 2007   0.217   2.847   3.003 -1.8239 -1.2107  0.7573
  502SOL     MW 2008   0.158   2.804   3.059 -0.2653 -0.6324  0.6933
  503SOL     OW 2009   1.055   2.780   2.168 -0.5475  0.2288  0.6050
  503SOL    HW1 2010   1.018   2.719   2.098  0.6314 -1.0722 -1.4760
  503SOL    HW2 2011   1.044   2.873   2.147 -3.0439  2.0981 -2.5106
  503SOL     MW 2012   1.049   2.784   2.156 -0.7213  0.3038 -0.0806
  504SOL     OW 2013   0.077   2.675   2.113 -0.3169 -0.3312 -0.0540
  504SOL    HW1 2014   0.124   2.607   2.061  0.8381 -0.1309 -0.2345
  504SOL    HW2 2015   0.059   2.643   2.203 -0.0284  2.0418 -1.6370
  504SOL     MW 2016   0.081   2.662   2.118 -0.1264  0.0083 -0.2867
  505SOL     OW 2017   1.695   2.689   2.697  0.2068  0.3300 -0.6900
  505SOL    HW1 2018   1.681   2.682   2.598  0.4768 -1.7083 -1.3706
  505SOL    HW2 2019   1.623   2.746   2.721 -1.5936 -3.7845  2.0727
  505SOL     MW 2020   1.684   2.695   2.687  0.0049 -0.4818 -0.4153
  506SOL     OW 2021   1.592   3.046   2.835  0.7945 -0.0693  0.0054
  506SOL    HW1 2022   1.623   3.041   2.925 -1.5122  0.7709  0.7799
  506SOL    HW2 2023   1.675   3.035   2.784  1.3611 -0.6437 -0.4533
  506SOL     MW 2024   1.607   3.044   2.840  0.5649 -0.0342  0.0470
  507SOL     OW 2025   0.863   2.746   2.858  0.3753 -0.5480 -0.2644
  507SOL    HW1 2026   0.905   2.824   2.832 -2.5228 -3.3797  4.1217
  507SOL    HW2 2027   0.770   2.770   2.880  0.3819 -1.1425  3.9697
  507SOL     MW 2028   0.857   2.760   2.857 -0.0062 -1.0001  0.8730
  508SOL     OW 2029   1.131   2.080   2.521 -0.0344  0.1681 -0.1344
  508SOL    HW1 2030   1.225   2.072   2.530 -1.0079  1.3171  1.5283
  508SOL    HW2 2031   1.095   2.145   2.587 -0.4782 -2.0927 -0.2396
  508SOL     MW 2032   1.138   2.087   2.531 -0.2214  0.0214  0.0711
  509SOL     OW 2033   0.623   2.517   2.824  0.0284 -0.3191  0.2857
  509SOL    HW1 2034   0.619   2.498   2.732 -1.6182  0.7467 -0.9634
  509SOL    HW2 2035   0.535   2.509   2.847  2.0141 -1.9519 -0.7384
  509SOL     MW 2036   0.611   2.513   2.815  0.0732 -0.3939 -0.0142
  510SOL     OW 2037   1.537   2.559   1.703 -0.1502 -0.4019  0.2616
  510SOL    HW1 2038   1.549   2.658   1.685 -0.1408  0.5393  0.1450
  510SOL    HW2 2039   1.486   2.544   1.785  1.1809  0.4024 -1.2543
  510SOL     MW 2040   1.532   2.570   1.711  0.0267 -0.1716  0.0462
  511SOL     OW 2041   0.481   2.640   2.449 -0.2136 -0.2123  0.0141
  511SOL    HW1 2042   0.554   2.580   2.475 -0.6882  1.5442 -0.1751
  511SOL    HW2 2043   0.464   2.642   2.355  3.3401 -0.1787  3.1827
  511SOL     MW 2044   0.488   2.632   2.440  0.1926  0.0239  0.4072
  512SOL     OW 2045   1.055   2.008   2.849 -0.5519  0.1406  0.7700
  512SOL    HW1 2046   0.966   2.044   2.849 -0.0156  2.4457  0.5717
  512SOL    HW2 2047   1.049   1.926   2.903 -1.6674 -0.6620 -0.4919
  512SOL     MW 2048   1.042   2.002   2.856 -0.6283  0.3389  0.5774
  513SOL     OW 2049   1.518   2.443   2.324 -0.1492 -0.3770  0.3382
  513SOL    HW1 2050   1.595   2.451   2.377 -0.1474  1.7308  1.8814
  513SOL    HW2 2051   1.477   2.357   2.331 -2.0763  1.8297  2.1415
  513SOL     MW 2052   1.523   2.433   2.332 -0.4032  0.1923  0.7797
  514SOL     OW 2053   0.260   2.516   2.586 -0.1921 -0.6635 -0.1517
  514SOL    HW1 2054   0.327   2.574   2.549 -2.9849 -1.6327 -0.9185
  514SOL    HW2 2055   0.287   2.514   2.679 -2.6292  0.4824 -0.1297
  514SOL     MW 2056   0.272   2.524   2.594 -0.8822 -0.6402 -0.2500
  515SOL     OW 2057   1.070   2.087   1.789 -0.6920 -0.2378  0.7080
  515SOL    HW1 2058   1.000   2.144   1.806  1.5902  1.4469 -1.8261
  515SOL    HW2 2059   1.134   2.111   1.859 -0.0883  0.0318 -0.4636
  515SOL     MW 2060   1.069   2.098   1.800 -0.3112  0.0200  0.2191
  516SOL     OW 2061   1.462   2.484   3.040 -0.4425  0.3756 -0.3304
  516SOL    HW1 2062   1.504   2.461   2.955  2.0225 -0.4118 -2.0463
  516SOL    HW2 2063   1.368   2.483   3.031  0.8127 -2.1189  2.9141
  516SOL     MW 2064   1.455   2.481   3.028  0.0484 -0.0574 -0.1287
  517SOL     OW 2065   0.615   2.440   2.156  0.0064 -1.2579 -0.1386
  517SOL    HW1 2066   0.565   2.519   2.174 -0.9792 -0.3499  0.0471
  517SOL    HW2 2067   0.555   2.383   2.107 -4.3920  0.3605 -1.6111
  517SOL     MW 2068   0.601   2.443   2.152 -0.7040 -0.9246 -0.3084
  518SOL     OW 2069   1.910   0.161   2.983  0.2051 -0.2095 -0.3072
  518SOL    HW1 2070   1.852   0.196   2.918  3.2703  2.8624 -1.7540
  518SOL    HW2 2071   1.847   0.134   3.051  1.2343 -1.0343 -1.1770
  518SOL     MW 2072   1.894   0.162   2.983  0.7453  0.0870 -0.6129
  519SOL     OW 2073   0.722   2.559   1.694  0.2412  0.4430  0.1192
  519SOL    HW1 2074   0.714   2.468   1.701 -2.5629  1.9341  1.6723
  519SOL    HW2 2075   0.652   2.595   1.747  2.9682 -0.4243 -0.2963
  519SOL     MW 2076   0.712   2.552   1.702  0.2311  0.5253  0.2693
  520SOL     OW 2077   1.286   2.147   2.931 -0.3286 -0.0191  0.5182
  520SOL    HW1 2078   1.207   2.124   2.876  2.1838 -0.5833 -2.6861
  520SOL    HW2 2079   1.324   2.069   2.966 -0.5559  1.6444 -1.4646
  520SOL     MW 2080   1.281   2.133   2.929 -0.0271  0.1260 -0.1662
  521SOL     OW 2081   1.722   2.064   2.316  0.3008 -0.5042  0.1587
  521SOL    HW1 2082   1.746   2.091   2.225 -0.7737  1.3916  0.2214
  521SOL    HW2 2083   1.730   1.968   2.306  0.8675  0.6242  0.4061
  521SOL     MW 2084   1.726   2.055   2.303  0.2338 -0.1052  0.1996
  522SOL     OW 2085   2.850   2.547   2.165  0.0153 -0.0278 -0.3818
  522SOL    HW1 2086   2.939   2.518   2.192  1.6028 -1.5133  2.7143
  522SOL    HW2 2087   2.800   2.568   2.246 -2.9143 -0.2514 -0.2839
  522SOL     MW 2088   2.855   2.546   2.179 -0.1618 -0.2533  0.0396
  523SOL     OW 2089   0.867   1.513   2.128 -0.2658 -0.0962 -0.3409
  523SOL    HW1 2090   0.857   1.600   2.092 -0.0415 -0.7086  2.9722
  523SOL    HW2 2091   0.928   1.471   2.066 -0.0030  2.3283  2.1371
  523SOL     MW 2092   0.874   1.519   2.115 -0.2015  0.1429  0.4232
  524SOL     OW 2093   0.837   2.424   2.892  0.1780  0.6013 -0.1309
  524SOL    HW1 2094   0.755   2.466   2.856  0.6797 -0.7822 -0.5913
  524SOL    HW2 2095   0.821   2.331   2.874  0.3930  1.0426  2.7064
  524SOL     MW 2096   0.824   2.417   2.885  0.2725  0.4770  0.1827
  525SOL     OW 2097   0.408   2.259   2.120  0.7397  0.1258 -0.0975
  525SOL    HW1 2098   0.356   2.206   2.175 -1.8361  2.8121  0.3091
  525SOL    HW2 2099   0.399   2.210   2.034  2.5605 -1.0720  1.1777
  525SOL     MW 2100   0.400   2.245   2.116  0.6401  0.3222  0.1244
  526SOL     OW 2101   0.694   2.084   1.994  0.2465  0.4722 -0.6024
  526SOL    HW1 2102   0.658   2.110   1.907  2.0605  1.6763  0.9910
  526SOL    HW2 2103   0.673   2.149   2.065  1.9924  1.3722 -1.3200
  526SOL     MW 2104   0.687   2.096   1.992  0.7162  0.7498 -0.4869
  527SOL     OW 2105   1.314   1.973   2.011 -0.0297 -0.0875  0.2272
  527SOL    HW1 2106   1.290   1.946   2.101 -0.4428 -2.1855  0.6703
  527SOL    HW2 2107   1.337   1.901   1.956 -0.4895 -1.5692  1.0859
  527SOL     MW 2108   1.314   1.960   2.016 -0.1449 -0.5598  0.3990
  528SOL     OW 2109   0.631   2.867   2.913 -0.2826  0.5254  0.1336
  528SOL    HW1 2110   0.669   2.951   2.923 -0.9216 -1.6010  0.6303
  528SOL    HW2 2111   0.566   2.871   2.840  0.1007  1.1345 -1.7371
  528SOL     MW 2112   0.627   2.878   2.905 -0.3163  0.3252 -0.0476
  529SOL     OW 2113   0.944   2.364   1.890 -0.3590 -0.1258 -0.2510
  529SOL    HW1 2114   0.971   2.352   1.986  1.5570 -0.0609 -0.3118
  529SOL    HW2 2115   1.015   2.410   1.846 -3.7403 -3.4197 -3.3695
  529SOL     MW 2116   0.957   2.368   1.897 -0.5524 -0.5518 -0.6705
  530SOL     OW 2117   1.189   2.416   3.005  0.4242 -0.1193  0.1497
  530SOL    HW1 2118   1.120   2.440   3.060  3.4659 -1.2633  0.5882
  530SOL    HW2 2119   1.200   2.320   3.019 -0.4061 -1.5188 -2.1975
  530SOL     MW 2120   1.182   2.406   3.014  0.7159 -0.4549 -0.1022
  531SOL     OW 2121   0.977   1.863   2.577  0.2589 -0.2780  0.2492
  531SOL    HW1 2122   1.032   1.943   2.564 -0.0916 -0.3383  1.3565
  531SOL    HW2 2123   0.971   1.852   2.664  0.4153  1.0942 -0.0947
  531SOL     MW 2124   0.983   1.872   2.587  0.2333 -0.1049  0.3499
  532SOL     OW 2125   1.724   0.328   2.830 -0.0833 -0.0145  0.0015
  532SOL    HW1 2126   1.697   0.334   2.740  0.0221 -0.3947 -1.9304
  532SOL    HW2 2127   1.811   0.361   2.832  1.3842  1.1547 -0.5438
  532SOL     MW 2128   1.732   0.333   2.818  0.1242  0.0896 -0.3253
  533SOL     OW 2129   1.843   2.673   3.016  0.1004  0.4592 -0.7486
  533SOL    HW1 2130   1.818   2.582   3.017 -2.2064 -1.9134  2.0130
  533SOL    HW2 2131   1.772   2.722   2.981  1.1336 -0.9924  0.4546
  533SOL     MW 2132   1.830   2.667   3.012 -0.0677 -0.0454 -0.2255
  534SOL     OW 2133   1.769   2.435   2.514 -0.1648 -0.2942  0.0179
  534SOL    HW1 2134   1.717   2.358   2.552 -1.5962 -3.1188 -0.5931
  534SOL    HW2 2135   1.845   2.454   2.567 -2.8827  0.4165  0.8181
  534SOL     MW 2136   1.772   2.427   2.526 -0.7123 -0.5731  0.0429
  535SOL     OW 2137   1.911   2.400   1.906 -0.0818 -0.1234  0.2745
  535SOL    HW1 2138   1.858   2.418   1.824  0.9492  0.4123  1.5690
  535SOL    HW2 2139   2.001   2.394   1.869  0.5456 -1.7834  0.6333
  535SOL     MW 2140   1.916   2.402   1.891  0.1370 -0.2718  0.4926
  536SOL     OW 2141   0.559   1.811   2.054  0.3934 -0.3025  0.3561
  536SOL    HW1 2142   0.496   1.799   1.985  0.5533 -0.2075  1.3871
  536SOL    HW2 2143   0.605   1.894   2.026 -0.3263 -0.5504 -0.5290
  536SOL     MW 2144   0.557   1.820   2.041  0.3195 -0.3227  0.3754
  537SOL     OW 2145   1.084   0.195   2.813  0.2435 -0.1731 -0.6473
  537SOL    HW1 2146   1.079   0.218   2.905 -2.3110  0.9258 -0.0929
  537SOL    HW2 2147   1.082   0.275   2.759 -1.3189 -2.0221  0.3502
  537SOL     MW 2148   1.083   0.208   2.818 -0.2997 -0.2721 -0.4426
  538SOL     OW 2149   1.436   0.058   3.065  0.4089 -0.3664 -0.0352
  538SOL    HW1 2150   1.427   0.145   3.107  1.2576 -0.8276 -2.6196
  538SOL    HW2 2151   1.351   0.008   3.087 -0.1772 -1.0600  2.0676
  538SOL     MW 2152   1.424   0.063   3.073  0.4436 -0.5188 -0.0987
  539SOL     OW 2153   0.728   2.808   2.569 -0.4376 -0.1766  0.1879
  539SOL    HW1 2154   0.807   2.863   2.560  1.2791  0.2930 -2.3807
  539SOL    HW2 2155   0.754   2.743   2.632 -4.4427  1.2989  0.2365
  539SOL     MW 2156   0.742   2.807   2.576 -0.7395  0.0800 -0.1446
  540SOL     OW 2157   0.347   2.499   2.900 -0.3679  0.1960 -0.2001
  540SOL    HW1 2158   0.366   2.559   2.973  1.2027  1.4180  0.3722
  540SOL    HW2 2159   0.337   2.405   2.926  1.2712 -3.1789 -0.7700
  540SOL     MW 2160   0.348   2.495   2.913  0.0556 -0.0880 -0.1998
  541SOL     OW 2161   0.213   2.938   2.185 -0.0908 -0.1340 -0.3997
  541SOL    HW1 2162   0.203   2.855   2.140  1.9414 -1.3664 -0.9885
  541SOL    HW2 2163   0.238   2.907   2.276 -1.6875 -3.9563  0.5041
  541SOL     MW 2164   0.215   2.923   2.191 -0.0333 -0.8010 -0.3582
  542SOL     OW 2165   1.041   2.273   2.688 -0.4928 -0.0701  0.1141
  542SOL    HW1 2166   1.000   2.238   2.768 -1.3443 -0.4886  0.2946
  542SOL    HW2 2167   1.075   2.361   2.715  0.9622 -0.7770  1.2653
  542SOL     MW 2168   1.040   2.280   2.702 -0.4132 -0.2186  0.2898
  543SOL     OW 2169   1.710   2.422   2.823 -0.2394 -0.4670  0.3148
  543SOL    HW1 2170   1.707   2.360   2.755 -0.0166  0.8079  2.3102
  543SOL    HW2 2171   1.710   2.505   2.779 -1.1500  0.1479 -1.8126
  543SOL     MW 2172   1.710   2.425   2.808 -0.3302 -0.2176  0.2973
  544SOL     OW 2173   0.773   0.142   2.759  0.1516  0.3612 -0.0447
  544SOL    HW1 2174   0.681   0.167   2.731 -0.3686  2.5494 -2.2766
  544SOL    HW2 2175   0.811   0.132   2.674 -1.8101 -0.6263 -0.7870
  544SOL     MW 2176   0.766   0.144   2.744 -0.1759  0.5196 -0.4371
  545SOL     OW 2177   1.445   2.175   2.355 -0.4960 -0.2026 -0.7763
  545SOL    HW1 2178   1.382   2.167   2.280  0.4664 -0.6212 -1.5129
  545SOL    HW2 2179   1.534   2.145   2.319  2.4756 -2.6804 -0.2091
  545SOL     MW 2180   1.448   2.170   2.340  0.0230 -0.5847 -0.7986
  546SOL     OW 2181   2.903   2.015   0.117 -0.2560  0.2317 -0.0346
  546SOL    HW1 2182   2.896   2.088   0.057 -2.1979 -1.7565  0.6099
  546SOL    HW2 2183   2.995   1.981   0.116 -0.5783  2.0044 -1.0105
  546SOL     MW 2184   2.914   2.020   0.109 -0.5548  0.2033 -0.0783
  547SOL     OW 2185   0.186   0.071   0.094  0.5244 -0.0367 -0.1379
  547SOL    HW1 2186   0.261   0.105   0.036  2.2060 -0.0415 -0.8821
  547SOL    HW2 2187   0.129   0.019   0.037  0.5673 -0.9480  0.7399
  547SOL     MW 2188   0.188   0.068   0.079  0.7519 -0.1575 -0.1203
  548SOL     OW 2189   0.317   2.474   0.263 -0.0218 -0.8011 -0.6099
  548SOL    HW1 2190   0.333   2.530   0.182 -2.7933 -0.3784  1.2105
  548SOL    HW2 2191   0.252   2.415   0.243 -0.7349  1.8790  1.0761
  548SOL     MW 2192   0.311   2.473   0.250 -0.4815 -0.3917 -0.1472
  549SOL     OW 2193   0.850   1.942   2.201  0.2508  0.4503 -0.3338
  549SOL    HW1 2194   0.799   2.005   2.150 -2.8209 -0.8260 -1.8873
  549SOL    HW2 2195   0.791   1.906   2.260 -0.8546  2.7981 -0.2143
  549SOL     MW 2196   0.835   1.945   2.202 -0.3003  0.5917 -0.5230
  550SOL     OW 2197   1.812   1.719   2.545  0.0561 -0.0613 -0.1423
  550SOL    HW1 2198   1.842   1.745   2.460  1.6534  0.3549 -1.0735
  550SOL    HW2 2199   1.792   1.798   2.594  0.7563  0.2528  2.2125
  550SOL     MW 2200   1.814   1.733   2.540  0.3592  0.0350  0.0455
  551SOL     OW 2201   0.904   2.255   0.263 -0.1037 -0.1984 -0.0702
  551SOL    HW1 2202   1.000   2.249   0.240 -1.8327 -3.5006  4.2267
  551SOL    HW2 2203   0.847   2.199   0.205 -2.2080 -2.2715  0.0393
  551SOL     MW 2204   0.909   2.247   0.252 -0.6095 -0.9076  0.5112
  552SOL     OW 2205   1.757   1.789   2.271 -0.3867  0.0453 -0.2499
  552SOL    HW1 2206   1.664   1.764   2.266  1.0128  2.0326  0.6980
  552SOL    HW2 2207   1.807   1.733   2.204  3.5222  1.1484 -3.9611
  552SOL     MW 2208   1.752   1.779   2.262  0.3137  0.4531 -0.6145
  553SOL     OW 2209   1.207   2.239   1.547 -0.7150 -0.0821  0.0957
  553SOL    HW1 2210   1.245   2.155   1.545 -1.1679 -0.1815 -1.4796
  553SOL    HW2 2211   1.283   2.295   1.520  1.9310  1.1442  0.4670
  553SOL     MW 2212   1.222   2.235   1.544 -0.4256  0.0666 -0.0631
  554SOL     OW 2213   0.485   2.922   2.700 -0.0480 -0.3042  0.5734
  554SOL    HW1 2214   0.458   2.994   2.644  0.8136 -1.1118  2.7932
  554SOL    HW2 2215   0.555   2.874   2.650 -0.4986 -2.0935  2.9154
  554SOL     MW 2216   0.491   2.925   2.686  0.0062 -0.6468  1.1753
  555SOL     OW 2217   0.623   2.457   2.553 -0.2274  0.3438  0.7518
  555SOL    HW1 2218   0.597   2.372   2.578 -2.0808  1.3192  1.7779
  555SOL    HW2 2219   0.716   2.441   2.526 -1.2992 -0.3947  2.2929
  555SOL     MW 2220   0.632   2.444   2.553 -0.6133  0.3751  1.0905
  556SOL     OW 2221   1.051   1.926   0.087  0.2258 -0.5309 -0.5820
  556SOL    HW1 2222   1.061   1.877   0.009 -1.2284  3.4104 -0.0341
  556SOL    HW2 2223   1.135   1.913   0.136  2.5978  2.0571 -0.6187
  556SOL     MW 2224   1.064   1.918   0.084  0.3469  0.3306 -0.5146
  557SOL     OW 2225   0.991   2.689   0.477  1.0197  0.6374 -0.7508
  557SOL    HW1 2226   1.055   2.637   0.422  0.1073 -0.7598  2.1098
  557SOL    HW2 2227   0.985   2.780   0.438  0.6636 -1.0461 -0.1133
  557SOL     MW 2228   0.998   2.694   0.465  0.8523  0.2309 -0.2893
  558SOL     OW 2229   0.211   2.262   2.998 -0.4186 -0.7016  0.6159
  558SOL    HW1 2230   0.146   2.228   2.930 -2.8346  1.8513 -0.9840
  558SOL    HW2 2231   0.165   2.299   3.073  1.0663  1.2761 -1.9636
  558SOL     MW 2232   0.196   2.263   2.999 -0.5415 -0.1039  0.0645
  559SOL     OW 2233   1.054   2.372   2.177  0.3733  0.2723  0.5322
  559SOL    HW1 2234   1.146   2.371   2.189 -0.0974  4.1810 -1.0117
  559SOL    HW2 2235   1.018   2.323   2.248  0.7573  1.7964  0.9605
  559SOL     MW 2236   1.061   2.365   2.188  0.3618  0.9891  0.3850
  560SOL     OW 2237   1.955   2.798   0.148  0.3093 -0.8890  0.2429
  560SOL    HW1 2238   2.032   2.838   0.112 -0.6722  0.9623  0.8273
  560SOL    HW2 2239   1.919   2.743   0.075  1.5326 -2.1658  0.6291
  560SOL     MW 2240   1.960   2.796   0.134  0.3412 -0.8132  0.3710
  561SOL     OW 2241   0.382   2.145   0.095  1.2312 -0.2792  0.0992
  561SOL    HW1 2242   0.334   2.186   0.018  0.2454 -0.0950 -1.6534
  561SOL    HW2 2243   0.453   2.208   0.115  1.0188  1.4772 -0.4604
  561SOL     MW 2244   0.385   2.159   0.087  1.0731 -0.0231 -0.2059
  562SOL     OW 2245   0.664   2.195   2.254 -0.5010  0.0955  0.2069
  562SOL    HW1 2246   0.652   2.287   2.236  2.2241 -2.6663  0.4254
  562SOL    HW2 2247   0.752   2.186   2.292  2.3349  1.6483  0.9023
  562SOL     MW 2248   0.674   2.206   2.257  0.2327 -0.0640  0.3275
  563SOL     OW 2249   1.209   0.417   0.520  0.1320  0.0285  0.2739
  563SOL    HW1 2250   1.169   0.348   0.468  1.6023 -0.2338 -0.0088
  563SOL    HW2 2251   1.187   0.383   0.605  0.9412 -1.5922 -4.5742
  563SOL     MW 2252   1.201   0.404   0.524  0.4327 -0.2199 -0.4030
  564SOL     OW 2253   1.058   2.607   2.386 -0.2202 -0.0229 -0.2058
  564SOL    HW1 2254   1.067   2.677   2.313  2.0671 -0.4395 -0.9927
  564SOL    HW2 2255   1.083   2.650   2.467  0.0450 -0.1912 -0.4892
  564SOL     MW 2256   1.063   2.622   2.387  0.1166 -0.1001 -0.3470
  565SOL     OW 2257   2.754   2.829   2.552  0.2353 -0.0079 -0.3837
  565SOL    HW1 2258   2.816   2.870   2.491 -2.2560  3.9917  0.0489
  565SOL    HW2 2259   2.725   2.756   2.496  1.7799  1.7340  0.5060
  565SOL     MW 2260   2.758   2.825   2.537  0.1104  0.7496 -0.2092
  566SOL     OW 2261   2.166   1.911   2.315  0.1631  0.4023 -0.6148
  566SOL    HW1 2262   2.190   1.912   2.223  0.2756  0.3177 -0.7715
  566SOL    HW2 2263   2.219   1.982   2.350  1.7939  1.0681  1.0525
  566SOL     MW 2264   2.176   1.920   2.307  0.3931  0.4790 -0.4155
  567SOL     OW 2265   1.202   3.022   0.027  0.1416 -0.2144 -0.2951
  567SOL    HW1 2266   1.193   3.039   0.119 -0.4288  2.9150 -1.5439
  567SOL    HW2 2267   1.232   2.929   0.021 -0.4757  0.7855 -2.0126
  567SOL     MW 2268   1.205   3.012   0.038 -0.0151  0.3304 -0.6865
  568SOL     OW 2269   1.631   2.079   2.860  0.4932  0.8919  0.3442
  568SOL    HW1 2270   1.664   2.149   2.909 -0.9526 -0.3731 -0.0695
  568SOL    HW2 2271   1.707   2.028   2.831 -3.0228 -0.8396  1.2900
  568SOL     MW 2272   1.645   2.081   2.863 -0.1614  0.4966  0.4144
  569SOL     OW 2273   0.121   2.305   2.453  0.2690 -0.4905  0.0839
  569SOL    HW1 2274   0.055   2.336   2.391 -0.9692  1.7497  1.1100
  569SOL    HW2 2275   0.168   2.387   2.471 -0.0601 -0.2431 -1.6705
  569SOL     MW 2276   0.118   2.320   2.447  0.0622 -0.1623 -0.0122
  570SOL     OW 2277   1.485   0.364   0.530  0.4229 -0.1625  0.1306
  570SOL    HW1 2278   1.404   0.405   0.516 -0.3460 -0.8821  0.6023
  570SOL    HW2 2279   1.520   0.415   0.599 -2.7380  0.3028  1.3029
  570SOL     MW 2280   1.479   0.376   0.537 -0.0956 -0.1961  0.3475
  571SOL     OW 2281   1.332   2.358   2.144 -0.1658  0.2958 -0.2104
  571SOL    HW1 2282   1.405   2.393   2.194 -1.7550  0.7162  0.6762
  571SOL    HW2 2283   1.368   2.309   2.064  1.6518 -2.1920 -1.3390
  571SOL     MW 2284   1.346   2.356   2.140 -0.1357  0.0230 -0.2423
  572SOL     OW 2285   0.997   2.573   0.059  0.4480 -0.0405  0.1325
  572SOL    HW1 2286   0.982   2.666   0.055 -0.9777 -4.0117 -2.5924
  572SOL    HW2 2287   0.906   2.542   0.053 -1.6489  1.0240 -0.7644
  572SOL     MW 2288   0.983   2.581   0.058 -0.0168 -0.4240 -0.3453
  573SOL     OW 2289   1.170   2.271   0.216  0.0939  0.2532  0.2737
  573SOL    HW1 2290   1.245   2.256   0.159  0.5320 -1.4705 -1.7911
  573SOL    HW2 2291   1.181   2.358   0.253 -1.5977 -0.2701  1.7758
  573SOL     MW 2292   1.181   2.281   0.214 -0.0715 -0.0433  0.1994
  574SOL     OW 2293   1.151   2.540   0.300 -0.0453  0.2966  0.4985
  574SOL    HW1 2294   1.237   2.575   0.284  4.7362 -1.3519  3.1074
  574SOL    HW2 2295   1.084   2.552   0.228  2.2646 -0.9720 -2.1668
  574SOL     MW 2296   1.153   2.546   0.289  0.8904 -0.0883  0.4911
  575SOL     OW 2297   3.036   2.207   1.694  0.5155 -0.4370 -0.4842
  575SOL    HW1 2298   3.059   2.123   1.644 -1.3309 -1.1560  1.5743
  575SOL    HW2 2299   3.112   2.252   1.740  0.6442  1.3198 -1.6268
  575SOL     MW 2300   3.049   2.202   1.693  0.2889 -0.3001 -0.3634
  576SOL     OW 2301   2.841   1.842   2.019 -0.0043 -0.1554  0.2991
  576SOL    HW1 2302   2.904   1.884   1.967 -1.8047 -2.1081 -2.6041
  576SOL    HW2 2303   2.765   1.831   1.958  0.0345  1.3260 -0.7779
  576SOL     MW 2304   2.840   1.846   2.004 -0.2367 -0.2176 -0.2261
  577SOL     OW 2305   2.100   0.256   0.064 -0.1889 -0.4553 -0.5921
  577SOL    HW1 2306   2.039   0.237  -0.003  1.5519 -2.2945  0.4750
  577SOL    HW2 2307   2.085   0.191   0.127  1.2927 -0.4434 -2.0642
  577SOL     MW 2308   2.090   0.245   0.063  0.2363 -0.6964 -0.6455
  578SOL     OW 2309   1.970   2.078   2.413  0.7249  0.5720 -0.5901
  578SOL    HW1 2310   1.880   2.073   2.385  3.2660  0.2150 -1.2971
  578SOL    HW2 2311   2.013   1.994   2.383 -2.3555  1.7727 -1.4080
  578SOL     MW 2312   1.964   2.066   2.406  0.6538  0.6833 -0.7913
  579SOL     OW 2313   0.865   2.427   2.496  0.0543  0.0869 -0.1905
  579SOL    HW1 2314   0.925   2.389   2.561  1.7238  0.1698  4.5124
  579SOL    HW2 2315   0.928   2.492   2.448 -0.1665 -0.4268 -2.5281
  579SOL     MW 2316   0.881   2.431   2.499  0.2455  0.0301  0.1216
  580SOL     OW 2317   0.962   2.846   0.009  0.2750  0.1066 -0.1640
  580SOL    HW1 2318   1.055   2.857  -0.005  0.7827  0.1931 -3.5981
  580SOL    HW2 2319   0.926   2.820  -0.075 -1.4822  1.1126 -0.2916
  580SOL     MW 2320   0.970   2.844  -0.004  0.1101  0.2507 -0.6339
  581SOL     OW 2321   1.160   2.433   1.740 -0.5234 -0.0937  0.5224
  581SOL    HW1 2322   1.244   2.464   1.779 -2.5709 -1.4148 -0.6957
  581SOL    HW2 2323   1.175   2.346   1.700  0.2573 -3.1607  0.6703
  581SOL     MW 2324   1.173   2.426   1.740 -0.6905 -0.6727  0.3812
  582SOL     OW 2325   0.031   2.865   2.733 -0.3780  0.5144  0.2556
  582SOL    HW1 2326  -0.027   2.946   2.740  3.0395  2.8839 -0.6702
  582SOL    HW2 2327   0.108   2.886   2.792  0.0400  0.7605 -0.3096
  582SOL     MW 2328   0.034   2.879   2.742  0.1280  0.8595  0.0589
  583SOL     OW 2329   2.012   2.441   2.678 -0.4170 -0.5166 -0.0867
  583SOL    HW1 2330   2.079   2.449   2.611 -1.8189  1.3676  2.1233
  583SOL    HW2 2331   1.993   2.350   2.692  1.6677 -0.8128 -0.9877
  583SOL     MW 2332   2.018   2.430   2.671 -0.3269 -0.3071  0.0860
  584SOL     OW 2333   0.089   1.910   2.189  0.5420  0.3236 -0.0977
  584SOL    HW1 2334   0.099   1.845   2.266 -1.2746 -2.3429  0.8953
  584SOL    HW2 2335   0.140   1.989   2.227 -2.2672  2.2432  2.6367
  584SOL     MW 2336   0.097   1.912   2.204 -0.0683  0.2251  0.3941
  585SOL     OW 2337   1.579   2.652   0.135 -0.3301  0.2156  0.3068
  585SOL    HW1 2338   1.534   2.614   0.060  1.3614 -0.3163  1.9672
  585SOL    HW2 2339   1.503   2.658   0.196 -1.3028  1.2179  3.0099
  585SOL     MW 2340   1.563   2.648   0.133 -0.2352  0.2777  0.8825
  586SOL     OW 2341   1.359   2.810   2.569 -0.0840  0.6331 -0.3207
  586SOL    HW1 2342   1.393   2.793   2.476  1.0467  0.4083  1.4806
  586SOL    HW2 2343   1.324   2.897   2.583  1.4402  2.8379 -0.0755
  586SOL     MW 2344   1.359   2.820   2.559  0.2663  0.8943 -0.0507
  587SOL     OW 2345   1.363   1.470   2.189 -0.2496  0.4143  0.0799
  587SOL    HW1 2346   1.294   1.397   2.204  0.9899 -0.5058  0.5894
  587SOL    HW2 2347   1.420   1.433   2.123 -0.5612 -0.3193  1.1585
  587SOL     MW 2348   1.361   1.456   2.182 -0.1272  0.1961  0.2894
  588SOL     OW 2349   1.381   1.975   2.629  0.2688  0.0481 -0.0002
  588SOL    HW1 2350   1.385   1.881   2.659  0.2765 -2.0368  0.4507
  588SOL    HW2 2351   1.389   2.029   2.707 -1.1367  0.2743  0.5036
  588SOL     MW 2352   1.383   1.970   2.643  0.0844 -0.1972  0.1258
  589SOL     OW 2353   1.415   1.979   0.040  0.0952  0.4842  0.2620
  589SOL    HW1 2354   1.420   2.074   0.052  0.2698  1.4834  0.9166
  589SOL    HW2 2355   1.373   1.951   0.122  0.6924 -0.3522 -0.8515
  589SOL     MW 2356   1.410   1.988   0.052  0.1971  0.5057  0.2014
  590SOL     OW 2357   0.496   2.674   2.176 -0.0066 -0.1493 -0.2232
  590SOL    HW1 2358   0.492   2.697   2.081 -0.6189  0.8371 -0.3166
  590SOL    HW2 2359   0.573   2.725   2.206 -2.0452  0.2006  2.1992
  590SOL     MW 2360   0.506   2.683   2.167 -0.3563  0.0270  0.0841
  591SOL     OW 2361   2.279   0.706   0.061 -0.5001 -0.6112  0.1417
  591SOL    HW1 2362   2.192   0.699   0.100  1.9000 -1.0261 -1.4850
  591SOL    HW2 2363   2.265   0.773  -0.008 -2.0036  0.5790  2.4666
  591SOL     MW 2364   2.266   0.714   0.057 -0.3818 -0.5089  0.2338
  592SOL     OW 2365   1.718   2.930   0.801 -0.6195  0.3758  0.0732
  592SOL    HW1 2366   1.725   3.017   0.766  0.0755  2.0773 -1.8983
  592SOL    HW2 2367   1.805   2.890   0.795 -1.4843  0.9504  1.5319
  592SOL     MW 2368   1.730   2.937   0.796 -0.6419  0.6761  0.0055
  593SOL     OW 2369   1.975   0.672   0.799  0.4076  0.1990 -0.5211
  593SOL    HW1 2370   1.885   0.681   0.762  1.5128  0.8724 -0.6747
  593SOL    HW2 2371   2.008   0.583   0.780  2.4199  0.9785 -2.8203
  593SOL     MW 2372   1.968   0.661   0.791  0.8190  0.3907 -0.8447
  594SOL     OW 2373   2.740   1.070   1.389 -0.9821 -0.1000 -0.1870
  594SOL    HW1 2374   2.823   1.125   1.383 -1.1630  0.3357  0.2652
  594SOL    HW2 2375   2.716   1.035   1.306 -2.8900 -0.2703  1.0361
  594SOL     MW 2376   2.748   1.073   1.378 -1.2577 -0.0650  0.0340
  595SOL     OW 2377   0.463   0.899   0.846  0.2199  0.0414  0.2909
  595SOL    HW1 2378   0.492   0.949   0.769  1.2824  0.2507  3.3706
  595SOL    HW2 2379   0.463   0.961   0.924 -0.7889 -1.7237  1.5765
  595SOL     MW 2380   0.467   0.914   0.846  0.2270 -0.1639  0.8669
  596SOL     OW 2381   2.460   1.322   0.519 -0.5065  0.0831  0.1025
  596SOL    HW1 2382   2.524   1.385   0.482 -0.5916 -0.5832 -1.6673
  596SOL    HW2 2383   2.504   1.283   0.595  0.5210  0.3083  1.2299
  596SOL     MW 2384   2.474   1.325   0.524 -0.3822  0.0249  0.0177
  597SOL     OW 2385   2.191   0.644   1.571  0.3608  0.2570  0.1652
  597SOL    HW1 2386   2.208   0.586   1.644  1.6600 -0.2236  2.7357
  597SOL    HW2 2387   2.132   0.586   1.506 -1.4301 -1.4749 -2.5102
  597SOL     MW 2388   2.186   0.629   1.572  0.2959 -0.0349  0.1514
  598SOL     OW 2389   2.602   1.027   2.866  0.0800  0.6861  0.0148
  598SOL    HW1 2390   2.581   0.933   2.874 -2.2394  0.4325  1.1312
  598SOL    HW2 2391   2.696   1.045   2.857  0.2695  1.3163 -2.0597
  598SOL     MW 2392   2.612   1.017   2.866 -0.2011  0.7358 -0.1116
  599SOL     OW 2393   3.002   0.426   2.165  0.8728  0.1838  0.5710
  599SOL    HW1 2394   3.013   0.449   2.263 -1.2642 -0.8305  1.2319
  599SOL    HW2 2395   3.000   0.504   2.113 -0.3602  0.2485 -0.3342
  599SOL     MW 2396   3.003   0.440   2.171  0.4282  0.0585  0.5388
  600SOL     OW 2397   1.841   1.638   0.894  0.2684  0.2055 -0.2656
  600SOL    HW1 2398   1.913   1.685   0.938  0.0641  2.2840 -0.3537
  600SOL    HW2 2399   1.787   1.714   0.874 -0.5148 -0.6209 -1.5068
  600SOL     MW 2400   1.843   1.654   0.897  0.1381  0.3707 -0.4410
  601SOL     OW 2401   2.528   0.689   0.811  0.3930  0.3343  0.3825
  601SOL    HW1 2402   2.504   0.670   0.902  0.0632 -1.6542  0.9585
  601SOL    HW2 2403   2.455   0.658   0.745 -2.0340  0.5591 -1.8846
  601SOL     MW 2404   2.515   0.682   0.814  0.0292  0.1016  0.1594
  602SOL     OW 2405   2.305   1.929   0.758 -0.1242  0.2020 -0.0556
  602SOL    HW1 2406   2.279   1.836   0.741 -1.1376  0.5243 -0.7009
  602SOL    HW2 2407   2.227   1.985   0.758  4.3398  3.1713 -1.4023
  602SOL     MW 2408   2.291   1.924   0.756  0.3311  0.6363 -0.3184
  603SOL     OW 2409   2.955   1.370   1.977 -0.0266  0.5269 -0.2475
  603SOL    HW1 2410   2.964   1.406   2.064  2.9369 -1.2353 -1.8401
  603SOL    HW2 2411   2.997   1.292   1.996 -2.4957  0.6514  0.9490
  603SOL     MW 2412   2.962   1.365   1.991  0.0387  0.3108 -0.2998
  604SOL     OW 2413   2.009   1.411   0.415 -0.3034 -0.9516 -0.8767
  604SOL    HW1 2414   2.090   1.387   0.459  1.6838  0.8147 -0.5435
  604SOL    HW2 2415   1.953   1.461   0.480 -3.4800 -1.0565 -1.0937
  604SOL     MW 2416   2.012   1.415   0.429 -0.4604 -0.7324 -0.8614
  605SOL     OW 2417   2.465   1.436   0.845 -0.4220  0.0013 -0.7789
  605SOL    HW1 2418   2.452   1.500   0.778 -0.9368  1.9183 -0.3470
  605SOL    HW2 2419   2.508   1.362   0.799  0.2704  2.7162 -1.5615
  605SOL     MW 2420   2.469   1.435   0.830 -0.3986  0.6124 -0.8252
  606SOL     OW 2421   2.601   1.805   1.880 -0.2285  0.0566 -0.2597
  606SOL    HW1 2422   2.510   1.789   1.902 -1.1725  0.4312  0.7449
  606SOL    HW2 2423   2.636   1.717   1.842  0.1571  1.5659 -0.4289
  606SOL     MW 2424   2.593   1.791   1.878 -0.3022  0.3052 -0.1495
  607SOL     OW 2425   2.401   1.036   3.061  0.8442 -0.2927  0.4306
  607SOL    HW1 2426   2.481   1.079   3.035 -1.2510  3.6696 -1.5212
  607SOL    HW2 2427   2.398   1.025   3.153 -1.4954  0.7246 -1.6487
  607SOL     MW 2428   2.411   1.040   3.069  0.2591  0.3643 -0.1013
  608SOL     OW 2429   1.857   0.234   0.530 -0.0546 -0.5231 -0.0936
  608SOL    HW1 2430   1.865   0.261   0.435 -0.4793 -1.0448  1.5401
  608SOL    HW2 2431   1.827   0.136   0.521 -1.5683  0.0817 -0.3709
  608SOL     MW 2432   1.854   0.225   0.516 -0.3104 -0.5121  0.0854
  609SOL     OW 2433   2.130   1.918   3.063 -0.3570 -0.2711  0.9418
  609SOL    HW1 2434   2.064   1.860   3.025  1.8626  1.5468 -2.3834
  609SOL    HW2 2435   2.133   1.896   3.154 -0.4948 -0.3277  1.9408
  609SOL     MW 2436   2.122   1.907   3.070 -0.0823 -0.0387  0.6349
  610SOL     OW 2437   1.783   0.920   1.233  0.3331  0.0544  0.0022
  610SOL    HW1 2438   1.812   0.838   1.196 -1.8993 -0.4634 -1.7554
  610SOL    HW2 2439   1.686   0.924   1.221  0.8283 -1.9099  2.0832
  610SOL     MW 2440   1.774   0.910   1.227  0.1039 -0.2731  0.0448
  611SOL     OW 2441   2.507   1.638   0.628  0.1276 -0.7599 -0.1886
  611SOL    HW1 2442   2.581   1.608   0.574  0.0335  0.0130  0.0261
  611SOL    HW2 2443   2.457   1.689   0.559 -0.2097  2.3483  0.6792
  611SOL     MW 2444   2.510   1.641   0.612  0.0707 -0.2478 -0.0458
  612SOL     OW 2445   2.946   2.966   0.330  0.7735 -0.0569 -0.0828
  612SOL    HW1 2446   2.939   2.998   0.423 -0.0609 -1.9631 -3.7096
  612SOL    HW2 2447   3.016   2.900   0.324  0.2000 -0.4970 -2.2543
  612SOL     MW 2448   2.954   2.962   0.342  0.5878 -0.3665 -0.8478
  613SOL     OW 2449   1.526   1.127   1.007  0.0776  0.4596  0.1293
  613SOL    HW1 2450   1.572   1.212   1.018 -0.9131  0.7541  2.5741
  613SOL    HW2 2451   1.525   1.076   1.091 -1.2726  0.5731  0.2285
  613SOL     MW 2452   1.532   1.132   1.020 -0.2313  0.5135  0.4649
  614SOL     OW 2453   2.039   0.479   1.425 -0.2683  0.0543 -0.8795
  614SOL    HW1 2454   2.026   0.421   1.502  1.5165  1.5405 -1.8280
  614SOL    HW2 2455   1.948   0.502   1.404 -1.9085 -2.6490 -1.0324
  614SOL     MW 2456   2.025   0.475   1.433 -0.2492 -0.1063 -1.0248
  615SOL     OW 2457   2.420   0.717   0.336 -0.2292 -0.1526  0.4834
  615SOL    HW1 2458   2.475   0.636   0.353 -0.5908  2.0727  1.0132
  615SOL    HW2 2459   2.401   0.725   0.241 -1.8833  1.4737 -2.6675
  615SOL     MW 2460   2.425   0.707   0.326 -0.4951  0.3555  0.1376
  616SOL     OW 2461   2.498   0.430   1.607  0.0587  0.1017 -0.4151
  616SOL    HW1 2462   2.590   0.415   1.585  1.5128 -0.0493  1.2017
  616SOL    HW2 2463   2.462   0.475   1.529 -1.6100  1.7544  1.4060
  616SOL     MW 2464   2.505   0.434   1.594  0.0304  0.2999  0.0385
  617SOL     OW 2465   2.871   0.578   1.860 -0.3025 -0.4476  0.6247
  617SOL    HW1 2466   2.789   0.579   1.904  0.1772  0.3778  1.1269
  617SOL    HW2 2467   2.873   0.491   1.825  1.9432 -0.5215 -0.0156
  617SOL     MW 2468   2.861   0.566   1.861  0.0571 -0.3484  0.6065
  618SOL     OW 2469   2.760   0.285   2.017  0.1654 -0.3608 -0.3604
  618SOL    HW1 2470   2.749   0.377   2.008 -0.2950  1.2821 -0.3745
  618SOL    HW2 2471   2.809   0.276   2.102  0.0511 -0.5328  1.8528
  618SOL     MW 2472   2.765   0.296   2.027  0.0896 -0.1667 -0.0702
  619SOL     OW 2473   2.668   0.735   0.086  0.3309  0.2386 -0.4170
  619SOL    HW1 2474   2.719   0.817   0.106 -0.6052 -0.8660  0.3533
  619SOL    HW2 2475   2.665   0.689   0.172 -0.8415 -1.4007  0.8676
  619SOL     MW 2476   2.674   0.740   0.100  0.0527 -0.1235 -0.1459
  620SOL     OW 2477   2.226   1.071   0.923 -0.3840  0.1050  0.3218
  620SOL    HW1 2478   2.315   1.030   0.915 -1.0151 -1.8800 -3.4633
  620SOL    HW2 2479   2.166   1.023   0.870 -1.3608  1.2668  2.5852
  620SOL     MW 2480   2.230   1.059   0.915 -0.5961 -0.0036  0.1210
  621SOL     OW 2481   1.464   2.206   1.957  0.1175  0.0757  0.0400
  621SOL    HW1 2482   1.418   2.121   1.987  0.2769 -0.9116  1.4659
  621SOL    HW2 2483   1.560   2.191   1.988  0.5646 -0.2257  0.5521
  621SOL     MW 2484   1.471   2.193   1.965  0.1975 -0.0943  0.2957
  622SOL     OW 2485   2.663   0.249   0.274  0.1303 -0.1742  0.2121
  622SOL    HW1 2486   2.749   0.286   0.240  2.9214  1.8836  0.3969
  622SOL    HW2 2487   2.684   0.155   0.280 -0.9484  0.1276 -1.2617
  622SOL     MW 2488   2.677   0.242   0.270  0.3562  0.1372  0.0421
  623SOL     OW 2489   2.417   2.754   0.882  0.0699  0.2687  0.0768
  623SOL    HW1 2490   2.479   2.823   0.882 -1.0471 -1.9212 -0.1595
  623SOL    HW2 2491   2.362   2.752   0.968 -1.7127  0.9172  0.2674
  623SOL     MW 2492   2.418   2.763   0.893 -0.3126  0.0653  0.0708
  624SOL     OW 2493   2.154   1.589   3.040 -0.0533 -0.0430 -0.2344
  624SOL    HW1 2494   2.078   1.526   3.048 -2.1126 -2.3718  0.5063
  624SOL    HW2 2495   2.121   1.642   2.972  1.8806 -0.6171  1.9292
  624SOL     MW 2496   2.140   1.587   3.032 -0.0698 -0.4260  0.1488
  625SOL     OW 2497   2.229   1.923   1.059 -0.2927 -0.2857 -0.2164
  625SOL    HW1 2498   2.265   1.848   1.105 -3.1815  0.2171 -3.1534
  625SOL    HW2 2499   2.230   1.905   0.966  0.5080  0.7696  0.8525
  625SOL     MW 2500   2.234   1.911   1.053 -0.5682 -0.0801 -0.4629
  626SOL     OW 2501   0.119   1.789   2.440 -0.1350  0.0378  0.5032
  626SOL    HW1 2502   0.116   1.714   2.493  2.4518 -0.4136 -0.7164
  626SOL    HW2 2503   0.065   1.852   2.485  0.2919 -1.2759 -0.0672
  626SOL     MW 2504   0.112   1.787   2.453  0.2627 -0.1951  0.2670
  627SOL     OW 2505   2.505   0.829   2.580  0.4418 -0.1760 -0.1760
  627SOL    HW1 2506   2.411   0.860   2.581 -0.2245  1.8176  0.2441
  627SOL    HW2 2507   2.514   0.787   2.494 -2.0571  1.5819 -0.8915
  627SOL     MW 2508   2.494   0.828   2.569  0.0242  0.3190 -0.2150
  628SOL     OW 2509   2.262   1.368   1.323  0.3888 -0.1162 -0.4156
  628SOL    HW1 2510   2.236   1.304   1.261  2.0619  0.8779  1.8611
  628SOL    HW2 2511   2.348   1.396   1.292  0.7091 -0.2486  1.7108
  628SOL     MW 2512   2.270   1.363   1.311  0.6518 -0.0025  0.1654
  629SOL     OW 2513   1.765   0.560   1.311  0.2408  0.6325  0.3663
  629SOL    HW1 2514   1.821   0.591   1.242 -2.1204 -0.8253 -0.6523
  629SOL    HW2 2515   1.687   0.545   1.254 -1.2705  0.2524  2.6303
  629SOL     MW 2516   1.762   0.562   1.294 -0.2702  0.3900  0.5306
  630SOL     OW 2517   2.412   1.867   3.017  0.1552  0.1474  0.1131
  630SOL    HW1 2518   2.425   1.950   2.971 -0.9532 -0.5657 -0.0162
  630SOL    HW2 2519   2.317   1.875   3.030 -0.1914  1.5821 -0.1245
  630SOL     MW 2520   2.401   1.879   3.013 -0.0368  0.2426  0.0647
  631SOL     OW 2521   2.097   1.729   1.529  0.3098  0.7559 -0.2634
  631SOL    HW1 2522   2.076   1.655   1.586  0.7867  3.1514  0.5895
  631SOL    HW2 2523   2.034   1.798   1.532 -0.7488 -0.7061 -1.6613
  631SOL     MW 2524   2.086   1.728   1.537  0.2330  0.8790 -0.3353
  632SOL     OW 2525   0.280   1.925   1.520 -0.3979 -0.0900  0.4274
  632SOL    HW1 2526   0.194   1.958   1.532  4.2110 -0.3990  0.8979
  632SOL    HW2 2527   0.277   1.828   1.509  0.0011  1.2325 -1.1616
  632SOL     MW 2528   0.268   1.916   1.521  0.2628  0.0437  0.2799
  633SOL     OW 2529   2.627   0.542   0.370 -0.0345  0.0987  0.7274
  633SOL    HW1 2530   2.662   0.554   0.457  1.5076  0.6320 -1.5349
  633SOL    HW2 2531   2.638   0.445   0.364 -0.5942 -2.7742  1.9540
  633SOL     MW 2532   2.633   0.531   0.381  0.0951 -0.2100  0.5908
  634SOL     OW 2533   2.650   3.082   0.637 -0.3795  0.6435  0.1660
  634SOL    HW1 2534   2.677   3.176   0.648 -2.4362  1.2996 -0.2042
  634SOL    HW2 2535   2.578   3.085   0.574 -0.8687  0.9730  0.0251
  634SOL     MW 2536   2.644   3.095   0.630 -0.7154  0.7736  0.0986
  635SOL     OW 2537   2.623   0.069   1.889  0.2640 -0.6806  0.5767
  635SOL    HW1 2538   2.683   0.033   1.816 -0.6766  1.3475  0.1057
  635SOL    HW2 2539   2.673   0.143   1.927 -1.1756 -2.7277 -1.3274
  635SOL     MW 2540   2.638   0.074   1.884 -0.0500 -0.6831  0.2633
  636SOL     OW 2541   2.724   1.651   0.838  0.3069  0.4490 -0.9485
  636SOL    HW1 2542   2.648   1.657   0.785  0.1912  4.2179  0.5800
  636SOL    HW2 2543   2.716   1.713   0.913 -0.6424 -0.1598 -0.0252
  636SOL     MW 2544   2.713   1.660   0.841  0.1664  0.8660 -0.6250
  637SOL     OW 2545   2.868   1.526   0.652 -0.3726 -0.7277  0.3852
  637SOL    HW1 2546   2.919   1.598   0.610 -0.0691 -0.6677 -0.6483
  637SOL    HW2 2547   2.825   1.570   0.732  0.0127  2.5215  1.3805
  637SOL     MW 2548   2.869   1.541   0.657 -0.2817 -0.2911  0.3802
  638SOL     OW 2549   2.796   0.488   0.602  0.1068 -0.1352  0.7041
  638SOL    HW1 2550   2.876   0.532   0.565 -1.0755 -0.4011 -1.2003
  638SOL    HW2 2551   2.784   0.512   0.690 -0.4506 -1.4077 -0.0191
  638SOL     MW 2552   2.805   0.497   0.609 -0.1227 -0.3382  0.3574
  639SOL     OW 2553   1.740   3.079   0.556 -0.4588 -0.0933  0.1361
  639SOL    HW1 2554   1.651   3.074   0.526 -1.8268 -2.6145  3.1858
  639SOL    HW2 2555   1.775   2.993   0.551  0.9779  2.2698 -1.4474
  639SOL     MW 2556   1.733   3.067   0.551 -0.4498 -0.1141  0.3295
  640SOL     OW 2557   0.334   1.372   0.112 -0.0028  0.3573 -0.0342
  640SOL    HW1 2558   0.348   1.355   0.015 -0.8910 -2.0915 -1.7685
  640SOL    HW2 2559   0.339   1.278   0.149 -0.2612  0.7801 -1.1159
  640SOL     MW 2560   0.337   1.357   0.104 -0.1540  0.0900 -0.4058
  641SOL     OW 2561   2.101   0.389   0.384  0.5575 -0.3387  0.2743
  641SOL    HW1 2562   2.168   0.341   0.341 -1.1595 -0.3170  2.2588
  641SOL    HW2 2563   2.030   0.327   0.411 -2.5604  0.2752  0.0809
  641SOL     MW 2564   2.100   0.374   0.382 -0.0804 -0.2548  0.5106
  642SOL     OW 2565   0.050   0.050   0.578 -0.0457 -0.4463  0.4508
  642SOL    HW1 2566   0.016   0.138   0.541  1.7937  2.7161  0.2308
  642SOL    HW2 2567  -0.016  -0.006   0.619  0.2948 -2.2022 -3.0396
  642SOL     MW 2568   0.037   0.054   0.578  0.2419 -0.2607 -0.0388
  643SOL     OW 2569   2.064   0.318   1.661  0.1256 -0.0931  0.4391
  643SOL    HW1 2570   1.987   0.295   1.713 -1.4326 -1.2084 -0.0276
  643SOL    HW2 2571   2.080   0.243   1.607 -0.2629  0.7949  0.9744
  643SOL     MW 2572   2.056   0.305   1.661 -0.1312 -0.1231  0.4482
  644SOL     OW 2573   2.671   1.900   1.002  0.1895 -0.0148  0.1362
  644SOL    HW1 2574   2.663   1.836   1.075  1.4228  1.8987  0.5394
  644SOL    HW2 2575   2.595   1.897   0.944 -3.2011 -0.2814  0.6494
  644SOL     MW 2576   2.660   1.891   1.004 -0.0951  0.2025  0.2571
  645SOL     OW 2577   2.798   0.861   0.684 -0.5386  0.0827  0.2103
  645SOL    HW1 2578   2.878   0.833   0.736  0.8999 -0.0662  0.2942
  645SOL    HW2 2579   2.721   0.810   0.707 -3.4767  0.9094  0.7697
  645SOL     MW 2580   2.798   0.850   0.694 -0.7364  0.1722  0.2952
  646SOL     OW 2581   0.149   2.274   0.817  0.5845 -0.3756 -0.2816
  646SOL    HW1 2582   0.176   2.182   0.842  0.5231 -0.9048  0.1631
  646SOL    HW2 2583   0.086   2.272   0.742  0.3864  3.3887  1.0095
  646SOL     MW 2584   0.145   2.262   0.810  0.5503  0.0512 -0.0526
  647SOL     OW 2585   2.724   0.506   3.029  0.1616 -0.0604 -0.1311
  647SOL    HW1 2586   2.674   0.431   3.063 -0.8184 -2.4116  1.3440
  647SOL    HW2 2587   2.720   0.571   3.097  0.6720  2.2027 -0.2051
  647SOL     MW 2588   2.717   0.504   3.043  0.0996 -0.0720  0.0538
  648SOL     OW 2589   2.257   0.675   1.114  0.1012 -0.1246 -0.1065
  648SOL    HW1 2590   2.252   0.587   1.162  1.1829  1.9930 -0.4205
  648SOL    HW2 2591   2.177   0.719   1.138 -0.2956 -1.0447  2.1674
  648SOL     MW 2592   2.246   0.669   1.124  0.1916  0.0334  0.1521
  649SOL     OW 2593   2.429   2.713   1.244 -0.0189 -0.3433  0.2179
  649SOL    HW1 2594   2.510   2.767   1.261  0.1017  0.5701  0.8035
  649SOL    HW2 2595   2.465   2.629   1.223 -1.6192  0.3015  1.0200
  649SOL     MW 2596   2.444   2.709   1.244 -0.2141 -0.1377  0.4010
  650SOL     OW 2597   2.760   0.226   0.644  0.3605  0.2363 -0.3613
  650SOL    HW1 2598   2.793   0.316   0.626 -1.1924  0.3750 -1.7626
  650SOL    HW2 2599   2.838   0.177   0.656 -0.7441 -0.5403 -1.3654
  650SOL     MW 2600   2.774   0.231   0.643  0.0099  0.1521 -0.6787
  651SOL     OW 2601   3.074   0.451   1.003 -0.5871 -0.1344  0.1971
  651SOL    HW1 2602   3.132   0.486   0.931 -0.3820  1.9560 -1.0740
  651SOL    HW2 2603   3.035   0.527   1.041  0.3759 -0.7331 -3.4266
  651SOL     MW 2604   3.077   0.465   0.999 -0.4329  0.0624 -0.4487
  652SOL     OW 2605   2.364   1.395   3.016 -0.2317  0.1391 -0.1224
  652SOL    HW1 2606   2.442   1.408   2.957  1.1353  2.3433  1.0799
  652SOL    HW2 2607   2.301   1.464   2.994 -0.5514 -2.8680 -0.0078
  652SOL     MW 2608   2.366   1.406   3.005 -0.0936  0.0332  0.0514
  653SOL     OW 2609   1.858   0.364   0.285  0.2728 -0.6066 -0.4921
  653SOL    HW1 2610   1.829   0.300   0.218  0.0468 -0.0377 -0.0073
  653SOL    HW2 2611   1.946   0.397   0.264 -0.6069 -0.7297  1.4083
  653SOL     MW 2612   1.866   0.360   0.274  0.1269 -0.5478 -0.1774
  654SOL     OW 2613   2.458   0.957   0.780  0.7364 -0.4636  0.0817
  654SOL    HW1 2614   2.393   0.964   0.704  0.4114  2.7033 -0.4787
  654SOL    HW2 2615   2.472   0.863   0.790 -0.1143 -1.5825 -0.1763
  654SOL     MW 2616   2.452   0.945   0.771  0.5813 -0.1934 -0.0263
  655SOL     OW 2617   2.926   0.916   0.444  0.6050  0.1366 -0.3778
  655SOL    HW1 2618   2.888   0.958   0.520  2.4634  3.0709 -1.2496
  655SOL    HW2 2619   2.940   0.824   0.468  1.7985  0.0702  2.1118
  655SOL     MW 2620   2.923   0.909   0.457  1.0077  0.5150 -0.1643
  656SOL     OW 2621   1.816   2.631   1.415  0.2117  0.1905 -0.0586
  656SOL    HW1 2622   1.824   2.713   1.366  1.6044  1.0335 -0.4116
  656SOL    HW2 2623   1.878   2.568   1.374 -0.0386  0.3774 -0.0691
  656SOL     MW 2624   1.825   2.634   1.403  0.3624  0.3264 -0.1066
  657SOL     OW 2625   0.073   1.818   1.247  0.0617 -0.4131  0.0313
  657SOL    HW1 2626   0.157   1.863   1.236 -1.4620  1.8397 -0.8587
  657SOL    HW2 2627   0.084   1.755   1.321 -2.5741  0.6272  2.1435
  657SOL     MW 2628   0.086   1.816   1.255 -0.4871  0.0214  0.1925
  658SOL     OW 2629   2.721   1.336   0.242 -0.0079  0.4610 -0.0064
  658SOL    HW1 2630   2.662   1.269   0.288 -0.7609  1.5920  3.0327
  658SOL    HW2 2631   2.751   1.395   0.315  0.1421 -2.0580  0.1192
  658SOL     MW 2632   2.717   1.335   0.258 -0.0875  0.2778  0.4112
  659SOL     OW 2633   2.177   1.504   1.017  0.3804 -0.0909  0.5162
  659SOL    HW1 2634   2.238   1.441   1.039 -2.2724  0.3214  3.2637
  659SOL    HW2 2635   2.168   1.557   1.092 -0.6196 -2.1771 -0.7737
  659SOL     MW 2636   2.184   1.503   1.030 -0.1015 -0.3117  0.7085
  660SOL     OW 2637   2.089   1.505   1.677 -0.3321  0.0087 -0.4363
  660SOL    HW1 2638   2.114   1.524   1.767  1.1130  0.0497  1.2282
  660SOL    HW2 2639   1.998   1.476   1.687 -1.0672 -0.3276  2.5513
  660SOL     MW 2640   2.080   1.504   1.690 -0.2384 -0.0302  0.1775
  661SOL     OW 2641   2.410   0.986   0.238 -0.5234  0.2751 -0.1717
  661SOL    HW1 2642   2.474   1.043   0.277 -2.6106 -1.2639 -3.3323
  661SOL    HW2 2643   2.411   0.910   0.302  1.6473 -1.4058  1.9047
  661SOL     MW 2644   2.419   0.983   0.251 -0.5124 -0.1497 -0.3148
  662SOL     OW 2645   2.572   2.978   0.898  0.2323 -0.3412  0.0665
  662SOL    HW1 2646   2.481   3.014   0.931 -0.6911  0.7983  1.4641
  662SOL    HW2 2647   2.583   3.026   0.810  0.2740  1.6692 -0.6093
  662SOL     MW 2648   2.561   2.989   0.890  0.1160  0.0744  0.1617
  663SOL     OW 2649   2.672   1.513   0.468  0.1212 -0.2104 -0.0035
  663SOL    HW1 2650   2.677   1.585   0.401  0.1132  1.3858 -0.7753
  663SOL    HW2 2651   2.749   1.523   0.520  0.4903 -1.5609 -0.3709
  663SOL     MW 2652   2.683   1.524   0.466  0.1688 -0.1780 -0.1538
  664SOL     OW 2653   2.556   1.484   1.565 -0.0101  0.0959 -0.6721
  664SOL    HW1 2654   2.509   1.547   1.518 -1.1131 -1.1043 -2.4537
  664SOL    HW2 2655   2.487   1.426   1.591 -2.2977  2.0644  1.6262
  664SOL     MW 2656   2.540   1.485   1.562 -0.4575  0.1973 -0.6039
  665SOL     OW 2657   2.835   0.800   2.098  0.5434  0.2921  0.0664
  665SOL    HW1 2658   2.811   0.846   2.015 -2.8558  0.5353  1.2335
  665SOL    HW2 2659   2.922   0.758   2.083  0.2561  0.1773 -0.9594
  665SOL     MW 2660   2.843   0.800   2.085  0.0570  0.3091  0.0850
  666SOL     OW 2661   2.755   3.021   1.683  0.3459 -0.0829 -0.2210
  666SOL    HW1 2662   2.766   3.016   1.589 -0.5448  2.6276 -0.8160
  666SOL    HW2 2663   2.709   2.939   1.697 -0.3383 -0.4633 -1.0308
  666SOL     MW 2664   2.750   3.010   1.672  0.1381  0.2245 -0.4064
  667SOL     OW 2665   1.983   2.697   1.741  0.2009 -0.0381 -0.2587
  667SOL    HW1 2666   1.997   2.686   1.836  1.6559 -0.7342 -0.0090
  667SOL    HW2 2667   2.067   2.740   1.712 -0.0983  0.4441  1.6256
  667SOL     MW 2668   1.996   2.701   1.750  0.3534 -0.0663  0.0229
  668SOL     OW 2669   2.760   0.570   0.867 -0.2410  0.5089  0.0032
  668SOL    HW1 2670   2.821   0.615   0.933  1.7999  0.7726  3.6470
  668SOL    HW2 2671   2.677   0.615   0.862  1.6071 -0.4643 -1.1055
  668SOL     MW 2672   2.757   0.582   0.875  0.2721  0.4153  0.3377
  669SOL     OW 2673   0.164   0.977   0.720  0.7699 -0.0518 -0.3046
  669SOL    HW1 2674   0.100   1.024   0.775  2.3805 -1.1548  1.2812
  669SOL    HW2 2675   0.228   0.983   0.787  0.7761  1.4894 -1.0205
  669SOL     MW 2676   0.164   0.984   0.736  0.9832  0.0060 -0.1898
  670SOL     OW 2677   2.909   0.337   0.220  0.1244  0.3152  0.4301
  670SOL    HW1 2678   2.929   0.280   0.145 -0.0691  0.9881 -2.0733
  670SOL    HW2 2679   2.901   0.426   0.185  2.1798 -0.9530  0.3450
  670SOL     MW 2680   2.910   0.341   0.206  0.3701  0.2367  0.0886
  671SOL     OW 2681   2.026   3.012   1.549 -0.1310 -0.6458  0.0257
  671SOL    HW1 2682   1.968   2.965   1.487  1.4260  2.4760 -1.3308
  671SOL    HW2 2683   1.964   3.046   1.618 -1.9301  0.0107 -3.3130
  671SOL     MW 2684   2.010   3.011   1.550 -0.1629 -0.1473 -0.5938
  672SOL     OW 2685   1.809   1.729   1.301  0.7244  0.0389  0.4917
  672SOL    HW1 2686   1.856   1.794   1.356 -1.2238  1.0531 -1.9733
  672SOL    HW2 2687   1.857   1.743   1.221 -0.1786 -0.4808  1.9246
  672SOL     MW 2688   1.821   1.740   1.298  0.3482  0.1041  0.3555
  673SOL     OW 2689   2.750   1.106   0.598  0.1702  0.7318 -0.3636
  673SOL    HW1 2690   2.745   1.017   0.636  1.3151 -2.6962  1.1657
  673SOL    HW2 2691   2.840   1.143   0.627  2.3463 -1.2877  2.2069
  673SOL     MW 2692   2.761   1.099   0.607  0.6084  0.0131  0.1774
  674SOL     OW 2693   2.496   0.035   1.226 -0.5642 -0.3783 -0.8664
  674SOL    HW1 2694   2.445   0.026   1.144  2.1371 -2.1678 -0.0542
  674SOL    HW2 2695   2.490  -0.047   1.271 -0.0608  1.0129 -0.4741
  674SOL     MW 2696   2.489   0.023   1.221 -0.1413 -0.4308 -0.7075
  675SOL     OW 2697   2.986   0.926   1.045  0.2412  0.2238 -0.3760
  675SOL    HW1 2698   3.067   0.921   1.093 -0.4664 -0.7534  1.2946
  675SOL    HW2 2699   3.005   0.973   0.968 -2.2749 -0.2140 -0.3938
  675SOL     MW 2700   2.999   0.932   1.041 -0.1841  0.0371 -0.1579
  676SOL     OW 2701   2.920   1.445   1.713  0.1158 -0.7291  0.2724
  676SOL    HW1 2702   2.882   1.368   1.670 -0.2920  0.8409  3.9744
  676SOL    HW2 2703   2.925   1.400   1.797  0.9638 -2.4808  0.0576
  676SOL     MW 2704   2.915   1.429   1.718  0.1739 -0.7531  0.7325
  677SOL     OW 2705   2.406   0.554   2.036  0.1789  0.6312 -0.2459
  677SOL    HW1 2706   2.374   0.485   1.982  2.1679  2.0053  1.3888
  677SOL    HW2 2707   2.391   0.642   1.992  0.0982 -0.0798 -0.6214
  677SOL     MW 2708   2.400   0.557   2.023  0.4307  0.7187 -0.0798
  678SOL     OW 2709   2.414   1.634   0.267 -0.1278 -0.2361  0.0352
  678SOL    HW1 2710   2.315   1.636   0.275 -0.1588 -0.0181 -2.8740
  678SOL    HW2 2711   2.442   1.552   0.212 -0.6073  1.8869 -2.8072
  678SOL     MW 2712   2.404   1.624   0.261 -0.1951  0.0728 -0.7236
  679SOL     OW 2713   2.237   0.432   1.235 -0.3218 -0.2498  0.3482
  679SOL    HW1 2714   2.227   0.344   1.197 -0.9113 -0.0939 -1.8515
  679SOL    HW2 2715   2.163   0.432   1.296  1.3604 -1.8699 -1.3195
  679SOL     MW 2716   2.226   0.421   1.238 -0.1777 -0.4430 -0.1621
  680SOL     OW 2717   2.362   0.119   1.470  1.0027 -0.4155  0.2274
  680SOL    HW1 2718   2.271   0.133   1.436  1.2114 -2.0837  0.5557
  680SOL    HW2 2719   2.405   0.098   1.396 -0.1586  2.0748  0.4131
  680SOL     MW 2720   2.355   0.118   1.456  0.8770 -0.3071  0.2952
  681SOL     OW 2721   0.215   0.573   1.501 -0.2599  1.2289 -0.2317
  681SOL    HW1 2722   0.219   0.519   1.581  0.2133 -0.5407  3.1074
  681SOL    HW2 2723   0.205   0.506   1.433 -0.9875  1.0801  2.0929
  681SOL     MW 2724   0.214   0.557   1.503 -0.2934  0.9758  0.5156
  682SOL     OW 2725   0.114   2.914   1.496 -0.5241  0.6540  0.4253
  682SOL    HW1 2726   0.178   2.970   1.543 -0.3628 -1.1155  0.7443
  682SOL    HW2 2727   0.044   2.916   1.556  0.7637 -0.5727 -0.7011
  682SOL     MW 2728   0.113   2.922   1.510 -0.3329  0.2587  0.3188
  683SOL     OW 2729   2.049   0.829   2.981 -0.4765 -0.3716  0.4994
  683SOL    HW1 2730   2.013   0.754   3.026  2.9786  1.6868 -0.1391
  683SOL    HW2 2731   2.014   0.910   3.021  0.1661  0.7922 -1.2648
  683SOL     MW 2732   2.039   0.830   2.992  0.0642  0.0535  0.1824
  684SOL     OW 2733   2.131   1.727   0.667 -0.4054  0.1111 -0.3469
  684SOL    HW1 2734   2.137   1.721   0.572 -1.9982  0.7365  2.6216
  684SOL    HW2 2735   2.105   1.644   0.706  2.7517  0.3029 -1.0685
  684SOL     MW 2736   2.129   1.716   0.659 -0.1990  0.2189 -0.0504
  685SOL     OW 2737   2.703   1.677   1.169 -0.4384  0.4078 -0.0945
  685SOL    HW1 2738   2.763   1.637   1.235  1.0837 -1.7097 -0.0626
  685SOL    HW2 2739   2.632   1.615   1.147 -1.0177 -1.5438 -2.3899
  685SOL     MW 2740   2.701   1.664   1.175 -0.3140 -0.1291 -0.3932
  686SOL     OW 2741   2.911   0.643   1.603 -0.0852 -0.4519  0.1366
  686SOL    HW1 2742   2.890   0.651   1.697  2.6490 -2.2881 -1.7661
  686SOL    HW2 2743   2.968   0.714   1.582  1.0105  1.5058 -0.6955
  686SOL     MW 2744   2.915   0.654   1.612  0.4201 -0.4358 -0.2242
  687SOL     OW 2745   2.163   0.166   1.147  0.5994  0.4425 -0.4684
  687SOL    HW1 2746   2.204   0.136   1.066 -1.0484 -1.5992  0.2972
  687SOL    HW2 2747   2.081   0.216   1.119 -3.8303 -2.1754 -2.0323
  687SOL     MW 2748   2.158   0.169   1.133 -0.2025 -0.1723 -0.5737
  688SOL     OW 2749   2.409   0.581   1.394  0.5356 -0.1268  0.4849
  688SOL    HW1 2750   2.389   0.501   1.345 -1.0435 -1.3485  2.2258
  688SOL    HW2 2751   2.326   0.590   1.447  2.4228 -0.4769 -0.8568
  688SOL     MW 2752   2.395   0.571   1.395  0.5762 -0.3342  0.5376
  689SOL     OW 2753   2.481   0.788   2.943  0.1881 -0.2051  0.4903
  689SOL    HW1 2754   2.456   0.865   2.990  1.8895 -1.2767  1.6357
  689SOL    HW2 2755   2.532   0.742   3.010  0.8908 -1.4886 -0.8311
  689SOL     MW 2756   2.484   0.792   2.958  0.5053 -0.5158  0.4671
  690SOL     OW 2757   2.033   0.888   1.887  0.3539 -0.7101 -0.0981
  690SOL    HW1 2758   2.001   0.804   1.912 -0.1788  1.4341 -0.3294
  690SOL    HW2 2759   2.048   0.885   1.792  1.1757 -1.6330  1.9021
  690SOL     MW 2760   2.031   0.877   1.878  0.3920 -0.5489  0.1353
  691SOL     OW 2761   2.380   0.252   0.854 -1.0642  0.1288  0.0523
  691SOL    HW1 2762   2.471   0.275   0.896  1.5885  0.2332  2.5027
  691SOL    HW2 2763   2.329   0.332   0.861  0.0387  0.5522  1.0618
  691SOL     MW 2764   2.385   0.266   0.860 -0.5687  0.1984  0.5088
  692SOL     OW 2765   2.891   1.591   1.423 -0.0440  0.1910  0.1992
  692SOL    HW1 2766   2.877   1.560   1.515  1.6518 -0.7731  0.9694
  692SOL    HW2 2767   2.901   1.685   1.426  0.6531 -0.5008  0.5709
  692SOL     MW 2768   2.890   1.599   1.436  0.2717 -0.0274  0.3498
  693SOL     OW 2769   2.322   0.409   0.077  0.6393 -0.0704 -0.3876
  693SOL    HW1 2770   2.232   0.373   0.072  2.1358  1.1365 -2.9565
  693SOL    HW2 2771   2.322   0.506   0.059  1.8164  1.5101  1.3129
  693SOL     MW 2772   2.310   0.417   0.074  0.9921  0.2974 -0.5021
  694SOL     OW 2773   1.879   1.142   1.086 -0.5339  0.9590  0.5742
  694SOL    HW1 2774   1.974   1.160   1.118  3.3334 -1.8603 -0.8700
  694SOL    HW2 2775   1.863   1.061   1.147  2.1136 -3.1237 -0.0501
  694SOL     MW 2776   1.889   1.134   1.098  0.3256  0.0484  0.3013
  695SOL     OW 2777   2.963   1.368   1.274 -0.0330  0.4213  0.1590
  695SOL    HW1 2778   2.929   1.384   1.191 -1.9724 -1.6008  0.0205
  695SOL    HW2 2779   2.969   1.457   1.315  1.6753  1.4588 -1.5954
  695SOL     MW 2780   2.959   1.382   1.268 -0.0635  0.2914 -0.0907
  696SOL     OW 2781   2.107   1.441   0.774 -0.1873  0.2033 -0.2000
  696SOL    HW1 2782   2.139   1.470   0.860 -3.1085  0.4406 -0.3639
  696SOL    HW2 2783   2.052   1.368   0.800  1.9175  0.2152 -0.3829
  696SOL     MW 2784   2.104   1.435   0.789 -0.2950  0.2362 -0.2457
  697SOL     OW 2785   2.905   1.008   2.271  0.6040  0.4519  0.4636
  697SOL    HW1 2786   2.841   1.076   2.274  0.5073  4.8360  0.3867
  697SOL    HW2 2787   2.878   0.943   2.199  1.8909  0.3429 -0.7538
  697SOL     MW 2788   2.893   1.008   2.262  0.7610  1.0160  0.2929
  698SOL     OW 2789   2.565   0.278  -0.001 -0.7141  0.3852 -0.6195
  698SOL    HW1 2790   2.478   0.313   0.026 -0.3307 -0.0391  0.3357
  698SOL    HW2 2791   2.605   0.277   0.090  1.4263 -0.9137 -1.9588
  698SOL     MW 2792   2.559   0.283   0.014 -0.3811  0.1579 -0.6702
  699SOL     OW 2793   1.925   1.629   2.075 -0.6972  0.1881  0.1844
  699SOL    HW1 2794   1.887   1.535   2.071 -0.3182 -1.1962 -2.1468
  699SOL    HW2 2795   2.021   1.615   2.047  0.2351 -2.6483 -0.3826
  699SOL     MW 2796   1.933   1.614   2.071 -0.5242 -0.3687 -0.1980
  700SOL     OW 2797   2.705   0.843   1.569  0.0138 -0.7361  0.0027
  700SOL    HW1 2798   2.737   0.912   1.504 -0.3216 -1.1713 -1.2982
  700SOL    HW2 2799   2.755   0.761   1.557 -1.6140 -1.5665 -1.1833
  700SOL     MW 2800   2.716   0.841   1.559 -0.2452 -0.9031 -0.3254
  701SOL     OW 2801   1.676   1.172   2.517  0.0590 -0.0024  0.2178
  701SOL    HW1 2802   1.743   1.121   2.561 -0.5871  1.2039 -0.4260
  701SOL    HW2 2803   1.637   1.236   2.574  0.4196 -1.4573 -1.6606
  701SOL     MW 2804   1.680   1.173   2.530  0.0213 -0.0352 -0.1150
  702SOL     OW 2805   2.163   0.433   0.826 -0.0392 -0.4801 -0.2193
  702SOL    HW1 2806   2.137   0.358   0.772 -1.2546  0.3476  0.4736
  702SOL    HW2 2807   2.229   0.484   0.779 -1.6165  0.5383  0.8251
  702SOL     MW 2808   2.169   0.430   0.813 -0.4077 -0.2365  0.0099
  703SOL     OW 2809   2.733   1.229   0.967  0.3105 -0.0128  0.0259
  703SOL    HW1 2810   2.681   1.209   0.888  1.3818 -0.7399 -1.9385
  703SOL    HW2 2811   2.717   1.155   1.023  0.0252 -1.3140 -0.8839
  703SOL     MW 2812   2.724   1.217   0.964  0.4142 -0.2804 -0.3533
  704SOL     OW 2813   3.051   1.253   0.110 -0.0702 -0.8288 -0.6694
  704SOL    HW1 2814   2.966   1.232   0.061 -0.0455  0.9279  0.5180
  704SOL    HW2 2815   3.036   1.240   0.207  0.2851 -0.0129  0.4748
  704SOL     MW 2816   3.038   1.249   0.117 -0.0201 -0.4894 -0.3617
  705SOL     OW 2817   2.114   1.576   1.272 -0.3704 -0.0228  0.0124
  705SOL    HW1 2818   2.091   1.630   1.353 -2.0289 -3.3956 -1.1093
  705SOL    HW2 2819   2.164   1.502   1.305  0.4819  0.2337 -2.5285
  705SOL     MW 2820   2.118   1.574   1.287 -0.4768 -0.4339 -0.4708
  706SOL     OW 2821   2.962   1.259   0.673 -0.1486  0.3224  0.5302
  706SOL    HW1 2822   2.991   1.248   0.579  0.7910  1.6960 -1.4441
  706SOL    HW2 2823   2.912   1.342   0.676  1.0027 -1.9968  0.6481
  706SOL     MW 2824   2.959   1.269   0.661  0.1272  0.1976  0.2853
  707SOL     OW 2825   2.356   0.012   0.976  0.1153  0.7282 -0.0377
  707SOL    HW1 2826   2.392   0.098   0.940 -1.4313  0.2464 -2.1994
  707SOL    HW2 2827   2.282  -0.001   0.910  1.3972  1.8233 -1.0807
  707SOL     MW 2828   2.351   0.022   0.963  0.0804  0.8091 -0.4605
  708SOL     OW 2829   2.477   1.393   0.170  0.0030  0.1816  0.1611
  708SOL    HW1 2830   2.573   1.384   0.166 -0.2076 -1.3985  1.4301
  708SOL    HW2 2831   2.435   1.372   0.084 -2.6446 -2.7715  1.1366
  708SOL     MW 2832   2.484   1.389   0.158 -0.3741 -0.4165  0.4572
  709SOL     OW 2833   1.704   1.620   0.222  0.1519 -0.1669 -0.0816
  709SOL    HW1 2834   1.704   1.631   0.129 -2.3509 -2.3336  0.4771
  709SOL    HW2 2835   1.618   1.573   0.233 -1.0639 -3.0955  1.0081
  709SOL     MW 2836   1.693   1.615   0.211 -0.3387 -0.8391  0.1359
  710SOL     OW 2837   2.138   1.184   1.155 -0.0999  0.2931 -0.4918
  710SOL    HW1 2838   2.164   1.149   1.068 -2.5011 -0.3695  0.9032
  710SOL    HW2 2839   2.145   1.119   1.222 -1.2943  0.7206 -0.8909
  710SOL     MW 2840   2.142   1.171   1.152 -0.5743  0.2621 -0.3604
  711SOL     OW 2841   2.375   0.161   1.793 -0.1726  0.6743 -0.1989
  711SOL    HW1 2842   2.461   0.128   1.811  0.2656 -0.5366 -2.4433
  711SOL    HW2 2843   2.365   0.152   1.701  1.4874  3.2692  0.3493
  711SOL     MW 2844   2.385   0.156   1.783  0.1042  0.8569 -0.4227
  712SOL     OW 2845   1.909   0.631   3.082  0.2041  0.1884  0.3101
  712SOL    HW1 2846   1.861   0.644   2.997 -0.1534 -2.6193 -0.1438
  712SOL    HW2 2847   1.845   0.651   3.152 -0.7544 -0.0941  3.1402
  712SOL     MW 2848   1.894   0.636   3.080  0.0305 -0.2193  0.6236
  713SOL     OW 2849   2.547   0.707   1.079 -0.2615 -0.1280 -0.3610
  713SOL    HW1 2850   2.542   0.629   1.126  0.5020  1.0064  2.1683
  713SOL    HW2 2851   2.457   0.742   1.093 -2.2656 -0.6855  2.7458
  713SOL     MW 2852   2.535   0.701   1.087 -0.4252 -0.0519  0.3826
  714SOL     OW 2853   2.220   0.204   2.014  0.5041 -0.6358  0.4072
  714SOL    HW1 2854   2.269   0.165   2.084  0.5874 -1.5073 -1.4558
  714SOL    HW2 2855   2.268   0.198   1.927  0.3840  0.6726 -1.0843
  714SOL     MW 2856   2.232   0.198   2.012  0.4992 -0.5781 -0.0354
  715SOL     OW 2857   1.816   2.048   1.755 -0.2582  0.0529  0.4495
  715SOL    HW1 2858   1.906   2.064   1.738  0.6836 -0.7519  0.1893
  715SOL    HW2 2859   1.813   1.977   1.823  0.6569 -0.7388 -1.8386
  715SOL     MW 2860   1.827   2.041   1.762 -0.0132 -0.1577  0.1133
  716SOL     OW 2861   2.360   0.555   0.666  0.5091 -0.3398 -0.0339
  716SOL    HW1 2862   2.408   0.474   0.644 -0.4291  0.6185 -1.6304
  716SOL    HW2 2863   2.284   0.559   0.596 -0.3315 -0.6385 -0.0425
  716SOL     MW 2864   2.356   0.545   0.654  0.2744 -0.2527 -0.2457
  717SOL     OW 2865   2.824   1.605   2.873 -0.0965 -1.0290 -0.4613
  717SOL    HW1 2866   2.896   1.597   2.939 -1.0522  0.7571  1.5137
  717SOL    HW2 2867   2.771   1.687   2.888 -2.4104  0.6255  0.6188
  717SOL     MW 2868   2.827   1.614   2.884 -0.5279 -0.5751 -0.0582
  718SOL     OW 2869   2.657   1.369   1.308 -0.3274 -0.2532 -0.2756
  718SOL    HW1 2870   2.641   1.382   1.401 -0.0582  1.3807 -0.9681
  718SOL    HW2 2871   2.752   1.370   1.296 -1.1255 -2.4411  0.0285
  718SOL     MW 2872   2.667   1.371   1.319 -0.3972 -0.3263 -0.3268
  719SOL     OW 2873   2.212   1.270   0.584  0.2904 -0.1031 -0.1978
  719SOL    HW1 2874   2.304   1.300   0.562  2.6755  0.6280  0.5517
  719SOL    HW2 2875   2.178   1.318   0.669 -0.4184  2.5385  2.4527
  719SOL     MW 2876   2.220   1.280   0.592  0.5116  0.3419  0.2508
  720SOL     OW 2877   2.787   1.195   0.030  0.6242  0.4348  0.2655
  720SOL    HW1 2878   2.790   1.101   0.061 -4.8364 -0.5591 -0.4401
  720SOL    HW2 2879   2.774   1.253   0.107  0.6352  0.4147 -1.2694
  720SOL     MW 2880   2.786   1.190   0.044 -0.0948  0.3010 -0.0301
  721SOL     OW 2881   2.477   0.846   1.369 -0.3797 -0.1991 -0.6140
  721SOL    HW1 2882   2.466   0.755   1.382  2.0326  2.5110 -0.0300
  721SOL    HW2 2883   2.546   0.870   1.436  2.7369  1.5235  0.7676
  721SOL     MW 2884   2.484   0.837   1.380  0.3498  0.3858 -0.3547
  722SOL     OW 2885   2.571   1.159   0.360  0.0629  0.3805  0.0253
  722SOL    HW1 2886   2.526   1.218   0.419  3.5081 -0.8447 -0.9999
  722SOL    HW2 2887   2.643   1.126   0.419 -2.2929  1.1696 -0.5875
  722SOL     MW 2888   2.574   1.163   0.375  0.2067  0.3229 -0.1908
  723SOL     OW 2889   2.314   1.325   1.594  0.1814 -0.6452  0.5980
  723SOL    HW1 2890   2.280   1.320   1.500 -4.5613 -0.3468  0.9312
  723SOL    HW2 2891   2.252   1.385   1.632 -0.1614  1.1728 -0.8577
  723SOL     MW 2892   2.301   1.332   1.586 -0.4896 -0.3660  0.4499
  724SOL     OW 2893   2.485   0.311   0.602  0.0738  0.3411  0.2828
  724SOL    HW1 2894   2.452   0.259   0.677 -2.2397 -2.1526 -0.5426
  724SOL    HW2 2895   2.580   0.307   0.607 -0.8692 -2.4034  0.0178
  724SOL     MW 2896   2.493   0.304   0.612 -0.3559 -0.3501  0.1389
  725SOL     OW 2897   2.607   0.412   1.229  0.4980 -0.0419  0.3364
  725SOL    HW1 2898   2.657   0.481   1.273  1.5533  1.2229  0.9533
  725SOL    HW2 2899   2.602   0.338   1.288 -1.1802 -1.2604  1.1112
  725SOL     MW 2900   2.613   0.411   1.242  0.4158 -0.0358  0.5200
  726SOL     OW 2901   2.528   2.525   0.501 -0.0218 -0.2883 -0.2720
  726SOL    HW1 2902   2.483   2.607   0.479 -0.2417 -0.5244 -1.0601
  726SOL    HW2 2903   2.512   2.507   0.592 -0.3312  0.5083  0.1946
  726SOL     MW 2904   2.520   2.533   0.510 -0.0916 -0.2144 -0.3144
  727SOL     OW 2905   2.839   0.333   1.754 -0.2024 -0.5031 -0.3888
  727SOL    HW1 2906   2.788   0.314   1.668 -1.8596  1.3669 -0.6299
  727SOL    HW2 2907   2.799   0.290   1.826 -0.4156  0.8881  0.2136
  727SOL     MW 2908   2.827   0.325   1.752 -0.4492 -0.0728 -0.3411
  728SOL     OW 2909   2.837   1.180   2.865 -0.4011  0.1811 -0.2975
  728SOL    HW1 2910   2.830   1.259   2.816  0.9632 -1.2641  0.4048
  728SOL    HW2 2911   2.812   1.202   2.959 -1.9421  1.7667  0.5747
  728SOL     MW 2912   2.833   1.193   2.871 -0.4244  0.1997 -0.0897
  729SOL     OW 2913   2.490   1.471   1.138  0.4623  0.1427  0.0789
  729SOL    HW1 2914   2.566   1.426   1.173  2.0769  3.4317 -0.4236
  729SOL    HW2 2915   2.488   1.457   1.039  1.2008  0.4566 -0.3845
  729SOL     MW 2916   2.500   1.463   1.129  0.7728  0.6181 -0.0485
  730SOL     OW 2917   2.211   1.178   0.271 -0.3572 -0.5536 -0.7577
  730SOL    HW1 2918   2.275   1.106   0.246  0.6690 -0.4020  2.3114
  730SOL    HW2 2919   2.266   1.252   0.273  0.4310  0.5136 -0.6039
  730SOL     MW 2920   2.226   1.178   0.268 -0.1178 -0.3928 -0.3325
  731SOL     OW 2921   2.766   2.090   2.863 -0.5681  0.3753  0.0482
  731SOL    HW1 2922   2.722   2.065   2.778 -1.4318  1.9792 -0.6904
  731SOL    HW2 2923   2.852   2.054   2.876 -0.5178 -0.0074  1.7443
  731SOL     MW 2924   2.771   2.082   2.854 -0.6754  0.5364  0.1745
  732SOL     OW 2925   2.213   0.975   1.337  0.0881 -0.1520  0.5872
  732SOL    HW1 2926   2.190   0.960   1.425 -1.7072  2.0342 -1.1826
  732SOL    HW2 2927   2.309   0.974   1.349  1.4821 -2.5565  3.2902
  732SOL     MW 2928   2.222   0.973   1.350  0.0351 -0.1808  0.7103
  733SOL     OW 2929   2.398   2.807   3.025  0.4029 -0.1929  0.1758
  733SOL    HW1 2930   2.318   2.855   3.055  0.8932  0.6989  1.6007
  733SOL    HW2 2931   2.382   2.711   3.033 -0.9920 -0.9415 -0.0056
  733SOL     MW 2932   2.385   2.801   3.030  0.2835 -0.1740  0.3399
  734SOL     OW 2933   1.553   0.258   2.524  0.5180 -0.1120  0.1449
  734SOL    HW1 2934   1.486   0.230   2.588  0.6780 -0.4653  0.7414
  734SOL    HW2 2935   1.535   0.206   2.447 -1.1249 -0.2888  0.1353
  734SOL     MW 2936   1.542   0.247   2.523  0.3223 -0.1819  0.2224
  735SOL     OW 2937   2.989   0.948   2.668  0.5834  0.0120  0.7623
  735SOL    HW1 2938   2.954   0.854   2.652  0.4288 -0.6530 -0.5441
  735SOL    HW2 2939   3.013   0.955   2.761 -0.9325  0.9877  0.6411
  735SOL     MW 2940   2.987   0.936   2.678  0.3630  0.0530  0.5740
  736SOL     OW 2941   0.109   0.600   2.599  0.4143  0.0182  0.4369
  736SOL    HW1 2942   0.117   0.660   2.520  0.2371 -0.3870 -1.1180
  736SOL    HW2 2943   0.118   0.517   2.549  3.3770 -0.9520  0.4767
  736SOL     MW 2944   0.111   0.597   2.582  0.7818 -0.1633  0.2370
  737SOL     OW 2945   2.936   0.691   2.625  0.6304  0.3356 -0.6325
  737SOL    HW1 2946   2.883   0.650   2.556 -1.2566  0.0442 -1.5739
  737SOL    HW2 2947   3.026   0.672   2.598 -1.0233 -0.1748  2.7899
  737SOL     MW 2948   2.941   0.683   2.613  0.1632  0.2298 -0.3052
  738SOL     OW 2949   0.187   0.556   1.883 -0.0066 -0.5553 -0.3156
  738SOL    HW1 2950   0.276   0.602   1.874  0.8908 -1.9210  0.0596
  738SOL    HW2 2951   0.170   0.504   1.803 -0.2658  0.6998 -1.1251
  738SOL     MW 2952   0.196   0.555   1.871  0.0776 -0.5699 -0.3729
  739SOL     OW 2953   2.458   1.002   2.094  0.0248 -0.2435  0.1952
  739SOL    HW1 2954   2.413   0.936   2.035 -3.8156  1.4209 -3.4653
  739SOL    HW2 2955   2.416   1.084   2.080  3.0917  1.0362  1.2062
  739SOL     MW 2956   2.447   1.004   2.084 -0.0772  0.1449 -0.1544
  740SOL     OW 2957   0.122   1.833   2.939  0.2285  0.6347  0.4216
  740SOL    HW1 2958   0.078   1.745   2.946  0.1519 -0.6304  1.7912
  740SOL    HW2 2959   0.212   1.821   2.971 -1.6248  1.0261  1.2170
  740SOL     MW 2960   0.128   1.820   2.944 -0.0262  0.5194  0.7072
  741SOL     OW 2961   2.244   1.207   2.706  0.6378 -0.1458  0.3097
  741SOL    HW1 2962   2.201   1.271   2.650  2.2897  0.2333 -0.5230
  741SOL    HW2 2963   2.234   1.245   2.790  1.6695 -1.7937 -1.0843
  741SOL     MW 2964   2.237   1.221   2.709  0.9919 -0.3132  0.0159
  742SOL     OW 2965   1.711   1.254   2.230  0.0177  0.2005 -0.4870
  742SOL    HW1 2966   1.625   1.235   2.190 -0.8279 -1.1654 -0.4849
  742SOL    HW2 2967   1.708   1.220   2.318  1.0062 -1.4509 -1.2656
  742SOL     MW 2968   1.699   1.247   2.237  0.0365 -0.1976 -0.5895
  743SOL     OW 2969   2.509   1.245   2.688  0.3864 -0.2414 -0.2234
  743SOL    HW1 2970   2.412   1.254   2.684 -0.4068 -0.3926 -0.8034
  743SOL    HW2 2971   2.547   1.166   2.731 -0.6863 -0.3326 -2.5883
  743SOL     MW 2972   2.501   1.236   2.694  0.1402 -0.2734 -0.6119
  744SOL     OW 2973   2.792   0.951   1.864  0.0265  0.2141  0.0809
  744SOL    HW1 2974   2.712   1.009   1.868 -2.6534 -0.8277  0.2376
  744SOL    HW2 2975   2.793   0.906   1.780 -2.4067 -3.1388  1.7930
  744SOL     MW 2976   2.782   0.953   1.854 -0.6482 -0.3658  0.3275
  745SOL     OW 2977   1.702   0.470   2.479 -0.5036  0.5544 -0.0553
  745SOL    HW1 2978   1.693   0.492   2.385  1.3330 -0.3874 -0.1105
  745SOL    HW2 2979   1.635   0.395   2.485 -0.2629  1.0154 -2.8622
  745SOL     MW 2980   1.692   0.463   2.467 -0.2295  0.4910 -0.4329
  746SOL     OW 2981   1.577   1.442   1.653  0.3387 -0.1728 -0.8882
  746SOL    HW1 2982   1.665   1.421   1.635 -1.5485 -1.8198 -0.1590
  746SOL    HW2 2983   1.566   1.428   1.749 -0.1994  0.1896 -0.8252
  746SOL     MW 2984   1.587   1.437   1.663  0.0187 -0.3423 -0.7837
  747SOL     OW 2985   2.588   1.132   1.818  0.2652  0.6092  0.2192
  747SOL    HW1 2986   2.509   1.080   1.816 -1.0442  2.3694  0.4471
  747SOL    HW2 2987   2.593   1.177   1.905  1.9249 -1.5389  1.6961
  747SOL     MW 2988   2.578   1.131   1.829  0.3114  0.5580  0.4441
  748SOL     OW 2989   0.086   0.014   1.912 -0.2715 -0.2713 -0.4368
  748SOL    HW1 2990   0.136   0.091   1.872  2.6892  1.0305 -0.8380
  748SOL    HW2 2991   0.043   0.063   1.987  0.2854  2.4310  0.7462
  748SOL     MW 2992   0.087   0.030   1.917  0.1926  0.2570 -0.3337
  749SOL     OW 2993   2.475   0.608   2.733 -0.3423  0.1838  0.0924
  749SOL    HW1 2994   2.506   0.680   2.676  0.2055  2.5988 -0.4832
  749SOL    HW2 2995   2.479   0.636   2.821 -0.0152  1.2050 -0.7496
  749SOL     MW 2996   2.480   0.621   2.737 -0.2268  0.6372 -0.0947
  750SOL     OW 2997   2.050   3.090   1.983  0.2700  0.2359  0.3343
  750SOL    HW1 2998   2.087   3.173   2.007 -1.5943  0.8668 -2.1733
  750SOL    HW2 2999   2.121   3.034   1.958 -1.4665 -0.4169 -0.2307
  750SOL     MW 3000   2.065   3.093   1.983 -0.2051  0.2330 -0.0711
  751SOL     OW 3001   0.111   0.406   2.415  0.2760 -0.6517  0.5904
  751SOL    HW1 3002   0.109   0.320   2.451  0.9938 -0.9911 -0.3291
  751SOL    HW2 3003   0.165   0.392   2.341 -3.1346 -0.9830  0.9421
  751SOL     MW 3004   0.118   0.393   2.410 -0.0793 -0.7402  0.5155
  752SOL     OW 3005   2.107   0.745   2.735 -0.9077  0.1837 -0.0062
  752SOL    HW1 3006   2.164   0.806   2.685  1.6235  0.9791  1.4702
  752SOL    HW2 3007   2.104   0.777   2.825  1.2252 -0.6872 -0.0705
  752SOL     MW 3008   2.114   0.757   2.740 -0.2923  0.1738  0.1801
  753SOL     OW 3009   2.897   0.231   2.434  0.0840 -0.1112 -0.1712
  753SOL    HW1 3010   2.844   0.166   2.385  0.0548  0.1159  1.8069
  753SOL    HW2 3011   2.855   0.312   2.412  1.1437 -3.6008 -1.6324
  753SOL     MW 3012   2.884   0.233   2.425  0.2200 -0.5417 -0.1030
  754SOL     OW 3013   2.237   2.983   2.591  0.1330  0.4521  0.2414
  754SOL    HW1 3014   2.268   2.965   2.503 -0.5629 -1.3045 -0.6642
  754SOL    HW2 3015   2.302   2.968   2.663 -2.2971 -0.7178 -1.5249
  754SOL     MW 3016   2.250   2.979   2.589 -0.2795  0.0660 -0.1111
  755SOL     OW 3017   2.690   1.522   2.462  0.2669 -0.2026  0.2627
  755SOL    HW1 3018   2.690   1.438   2.509 -0.7996  3.3870 -0.0977
  755SOL    HW2 3019   2.759   1.566   2.516 -0.2737 -0.8676 -0.4987
  755SOL     MW 3020   2.699   1.517   2.475  0.0549  0.1833  0.1147
  756SOL     OW 3021   2.166   1.201   3.004 -0.2942  0.9852  0.2562
  756SOL    HW1 3022   2.216   1.284   3.034 -1.6489  2.0302  2.1358
  756SOL    HW2 3023   2.233   1.136   3.000 -1.1707  0.9196 -1.1158
  756SOL     MW 3024   2.182   1.203   3.008 -0.5886  1.1144  0.3232
  757SOL     OW 3025   2.095   0.901   1.617 -0.0459 -0.4871 -0.4472
  757SOL    HW1 3026   2.135   0.814   1.600  0.2424 -1.8628 -0.9819
  757SOL    HW2 3027   2.010   0.890   1.563  1.3556 -0.7938 -1.6629
  757SOL     MW 3028   2.089   0.888   1.607  0.1771 -0.7090 -0.6781
  758SOL     OW 3029   2.239   1.821   2.605 -0.3201  0.6860  0.1421
  758SOL    HW1 3030   2.251   1.828   2.515  1.7585  2.2928 -2.3146
  758SOL    HW2 3031   2.333   1.798   2.627  0.1416 -1.7023  0.4313
  758SOL     MW 3032   2.253   1.819   2.596  0.0151  0.5829 -0.1439
  759SOL     OW 3033   1.562   1.352   2.683  0.2068 -0.3175  0.7446
  759SOL    HW1 3034   1.585   1.433   2.638  2.6076 -1.0865 -1.5989
  759SOL    HW2 3035   1.599   1.371   2.771  1.8387 -0.6888 -0.1499
  759SOL     MW 3036   1.570   1.365   2.689  0.7389 -0.4679  0.3174
  760SOL     OW 3037   2.574   1.984   2.712 -0.1791 -0.1320  0.1884
  760SOL    HW1 3038   2.575   1.888   2.698 -1.6989  0.6653  3.1251
  760SOL    HW2 3039   2.572   2.033   2.630 -0.5989  2.5198 -2.2114
  760SOL     MW 3040   2.574   1.978   2.700 -0.4350  0.3231  0.2592
  761SOL     OW 3041   2.164   0.329   2.437 -1.0200 -0.0024  0.3578
  761SOL    HW1 3042   2.103   0.269   2.469  1.3490  0.8954  0.3656
  761SOL    HW2 3043   2.193   0.362   2.522 -2.3621  0.8379 -1.3731
  761SOL     MW 3044   2.160   0.326   2.453 -0.8845  0.2269  0.1304
  762SOL     OW 3045   0.004   0.186   2.107 -0.6277 -0.2835 -0.2967
  762SOL    HW1 3046   0.008   0.142   2.193  1.5056 -2.6727  2.2542
  762SOL    HW2 3047  -0.040   0.265   2.127  3.1977 -1.1257  2.7685
  762SOL     MW 3048  -0.001   0.190   2.121  0.1585 -0.7098  0.4443
  763SOL     OW 3049   2.347   1.003   2.326  0.1355  0.0364 -0.1496
  763SOL    HW1 3050   2.414   0.959   2.270 -0.9036  0.5007 -0.4387
  763SOL    HW2 3051   2.406   1.080   2.355  0.7093  0.9670 -0.8112
  763SOL     MW 3052   2.363   1.007   2.323  0.0741  0.2204 -0.2750
  764SOL     OW 3053   0.503   0.224   2.786  0.6049  0.2026  0.0695
  764SOL    HW1 3054   0.419   0.185   2.767 -0.5330 -1.8474 -2.7929
  764SOL    HW2 3055   0.478   0.302   2.831  1.1567 -0.4804 -0.8543
  764SOL     MW 3056   0.489   0.229   2.789  0.5276 -0.1580 -0.4300
  765SOL     OW 3057   2.743   3.086   2.354  0.0369  0.0885  0.2813
  765SOL    HW1 3058   2.675   3.056   2.285  1.9397 -0.5045 -0.8251
  765SOL    HW2 3059   2.810   3.017   2.366 -1.2892 -0.3428 -0.4746
  765SOL     MW 3060   2.743   3.073   2.347  0.1130 -0.0466  0.0356
  766SOL     OW 3061   1.864   2.965   2.160 -0.1427 -0.0869  0.1607
  766SOL    HW1 3062   1.927   3.000   2.104  1.2831 -0.0291  1.1500
  766SOL    HW2 3063   1.797   2.915   2.109  0.1484  0.4940 -0.3050
  766SOL     MW 3064   1.863   2.963   2.146  0.0838 -0.0026  0.2297
  767SOL     OW 3065   2.665   0.560   2.029  0.3686 -0.0188  0.5875
  767SOL    HW1 3066   2.701   0.646   2.055  0.9639 -0.4745  0.4881
  767SOL    HW2 3067   2.565   0.556   2.017  1.1097  0.0243 -2.8518
  767SOL     MW 3068   2.656   0.571   2.031  0.5449 -0.0732  0.1206
  768SOL     OW 3069   3.091   1.610   2.976  0.2148  0.2707 -0.5211
  768SOL    HW1 3070   3.124   1.569   3.065  1.1012 -2.7948  0.6672
  768SOL    HW2 3071   3.095   1.548   2.914 -0.6357  1.3312  1.5800
  768SOL     MW 3072   3.096   1.596   2.980  0.2196  0.0062 -0.0871
  769SOL     OW 3073   2.433   0.706   2.313  0.1372  0.2298  0.0713
  769SOL    HW1 3074   2.372   0.661   2.370  2.5737 -0.0931  0.6525
  769SOL    HW2 3075   2.500   0.651   2.280 -1.2387  0.6008  0.0931
  769SOL     MW 3076   2.434   0.693   2.316  0.2772  0.2361  0.1508
  770SOL     OW 3077   0.056   1.578   2.616  0.0162  0.0883  0.2035
  770SOL    HW1 3078  -0.043   1.600   2.612  1.8285 -0.0356 -1.5460
  770SOL    HW2 3079   0.057   1.485   2.612 -2.1467 -0.9256 -2.2796
  770SOL     MW 3080   0.043   1.569   2.615 -0.0300 -0.0618 -0.3549
  771SOL     OW 3081   3.079   0.654   2.022  0.3450 -0.3348  0.6038
  771SOL    HW1 3082   3.008   0.626   1.964 -0.3427  2.2519 -0.3650
  771SOL    HW2 3083   3.161   0.627   1.969 -3.0675 -0.9347 -0.7325
  771SOL     MW 3084   3.080   0.647   2.008 -0.1960 -0.0727  0.2997
  772SOL     OW 3085   0.007   3.089   2.317  0.6210 -0.3509 -0.2938
  772SOL    HW1 3086  -0.046   3.012   2.327 -0.4802  0.7201  0.7457
  772SOL    HW2 3087   0.076   3.051   2.257  2.7896  0.7111 -1.5066
  772SOL     MW 3088   0.009   3.074   2.310  0.7618 -0.0695 -0.3167
  773SOL     OW 3089   2.410   2.854   2.753 -0.5132  0.2645 -0.2099
  773SOL    HW1 3090   2.420   2.767   2.712 -0.2252 -2.1678  2.3225
  773SOL    HW2 3091   2.389   2.830   2.843 -0.1675  1.1981 -2.2483
  773SOL     MW 3092   2.408   2.840   2.760 -0.4296  0.0668 -0.1447
  774SOL     OW 3093   2.308   1.097   1.726  0.2301  0.6250 -0.2208
  774SOL    HW1 3094   2.311   1.170   1.657 -0.1045  0.1966 -1.5544
  774SOL    HW2 3095   2.239   1.039   1.691  0.4712  2.3531  2.4500
  774SOL     MW 3096   2.299   1.099   1.712  0.2177  0.7965 -0.0444
  775SOL     OW 3097   2.281   2.882   2.303 -0.0693  0.0980  0.2337
  775SOL    HW1 3098   2.317   2.961   2.257 -0.0080  1.9540  1.3824
  775SOL    HW2 3099   2.344   2.812   2.280 -0.0915 -0.0378 -0.6930
  775SOL     MW 3100   2.294   2.883   2.294 -0.0642  0.3250  0.2630
  776SOL     OW 3101   0.080   1.494   0.095 -0.3715  0.3692 -0.2099
  776SOL    HW1 3102   0.176   1.465   0.098 -0.9893  3.1778 -0.1510
  776SOL    HW2 3103   0.034   1.408   0.088 -0.8571 -2.7236  2.2854
  776SOL     MW 3104   0.086   1.479   0.095 -0.5170  0.3317  0.1271
  777SOL     OW 3105   2.937   1.161   1.737  0.4634 -0.2778 -0.3183
  777SOL    HW1 3106   2.869   1.179   1.671  0.3948 -0.6348  1.7336
  777SOL    HW2 3107   2.907   1.082   1.779  0.1884  0.8032 -1.4577
  777SOL     MW 3108   2.924   1.153   1.734  0.4181 -0.1823 -0.1979
  778SOL     OW 3109   2.899   0.482   2.822 -0.0104  0.4617  0.0295
  778SOL    HW1 3110   2.836   0.508   2.889  0.7509 -1.1116  0.7104
  778SOL    HW2 3111   2.929   0.563   2.784  0.9826 -1.5697  0.9718
  778SOL     MW 3112   2.894   0.496   2.826  0.2211 -0.0139  0.2437
  779SOL     OW 3113   2.154   0.598   2.354  0.2024 -0.5806 -0.1914
  779SOL    HW1 3114   2.087   0.654   2.401 -1.7489 -0.1566  4.6396
  779SOL    HW2 3115   2.131   0.513   2.387  0.3193  0.8400 -3.5608
  779SOL     MW 3116   2.142   0.594   2.365 -0.0397 -0.3372  0.0015
  780SOL     OW 3117   0.256   0.123   2.797  0.0804  0.6815  0.5837
  780SOL    HW1 3118   0.187   0.161   2.857 -1.1171 -1.0682 -2.7036
  780SOL    HW2 3119   0.210   0.109   2.713  0.3311  1.8801  0.0040
  780SOL     MW 3120   0.241   0.126   2.794 -0.0445  0.6088  0.0735
  781SOL     OW 3121   3.061   1.287   2.515 -0.5049  0.1791  0.2782
  781SOL    HW1 3122   3.068   1.320   2.425  1.1672  0.5005 -0.1371
  781SOL    HW2 3123   3.096   1.198   2.504  1.2389 -1.2482  1.4756
  781SOL     MW 3124   3.067   1.280   2.501 -0.0542  0.0332  0.3814
  782SOL     OW 3125   0.513   1.601   2.992  0.3493  0.7148 -0.0897
  782SOL    HW1 3126   0.452   1.675   3.010 -1.3023 -1.5477  1.3975
  782SOL    HW2 3127   0.529   1.562   3.087 -2.3524 -2.1607  2.9672
  782SOL     MW 3128   0.507   1.605   3.007 -0.2251  0.0369  0.5099
  783SOL     OW 3129   2.811   0.488   2.458 -0.4024  0.4311  0.2049
  783SOL    HW1 3130   2.738   0.470   2.392  1.5292  0.5180  0.6005
  783SOL    HW2 3131   2.762   0.472   2.539  2.0798  0.4524 -0.7726
  783SOL     MW 3132   2.795   0.484   2.460  0.1799  0.4454  0.1281
  784SOL     OW 3133   0.239   0.902   2.899  0.1521  0.6100  0.0757
  784SOL    HW1 3134   0.205   0.970   2.969 -1.1378 -1.1095 -0.8009
  784SOL    HW2 3135   0.235   0.948   2.816  0.7885 -0.3764 -0.1346
  784SOL     MW 3136   0.234   0.917   2.898  0.0659  0.2530 -0.0677
  785SOL     OW 3137   0.445   0.514   2.149 -0.3466 -0.2799 -0.3497
  785SOL    HW1 3138   0.441   0.554   2.056 -0.4367 -0.8483  0.1792
  785SOL    HW2 3139   0.382   0.440   2.150 -1.7583  2.0559  1.0987
  785SOL     MW 3140   0.437   0.509   2.137 -0.5448 -0.0467 -0.0888
  786SOL     OW 3141   2.003   0.478   2.856  0.0835 -0.1169  0.1114
  786SOL    HW1 3142   2.006   0.546   2.917 -0.0997 -2.3030 -2.7490
  786SOL    HW2 3143   2.072   0.477   2.794 -3.1351 -0.6189  0.2585
  786SOL     MW 3144   2.013   0.487   2.856 -0.3653 -0.4716 -0.2466
  787SOL     OW 3145   2.433   0.115   2.891 -0.0360  0.1310 -0.2736
  787SOL    HW1 3146   2.490   0.043   2.855  0.2624  1.7496 -0.6374
  787SOL    HW2 3147   2.499   0.166   2.947 -1.8263  0.1418 -1.1103
  787SOL     MW 3148   2.449   0.112   2.894 -0.2328  0.3460 -0.4320
  788SOL     OW 3149   2.937   2.871   2.317  0.3722  0.5398 -0.4406
  788SOL    HW1 3150   2.928   2.841   2.229  1.4332 -0.9223 -2.6876
  788SOL    HW2 3151   3.011   2.823   2.362  2.7835 -0.0820  0.1397
  788SOL     MW 3152   2.946   2.861   2.311  0.8303  0.2648 -0.6605
  789SOL     OW 3153   0.077   0.221   2.967  0.0876 -0.3758  0.0440
  789SOL    HW1 3154  -0.010   0.185   3.003  0.2308 -1.5356  2.7312
  789SOL    HW2 3155   0.075   0.315   2.978 -1.0906  0.0868  1.6779
  789SOL     MW 3156   0.065   0.228   2.973 -0.0490 -0.4678  0.6141
  790SOL     OW 3157   0.021   1.005   2.448  0.2048 -0.3452 -0.4581
  790SOL    HW1 3158  -0.013   1.001   2.538 -0.2180  1.8328 -1.0085
  790SOL    HW2 3159  -0.050   1.005   2.378 -1.8154  1.7436 -0.5097
  790SOL     MW 3160   0.007   1.005   2.450 -0.1175  0.2178 -0.5376
  791SOL     OW 3161   2.673   0.394   2.691  0.7376 -0.2069 -0.2380
  791SOL    HW1 3162   2.604   0.466   2.705  0.8412  0.0642  0.3851
  791SOL    HW2 3163   2.749   0.421   2.742 -0.9656 -1.1761 -0.8336
  791SOL     MW 3164   2.674   0.407   2.700  0.5266 -0.2990 -0.2344
  792SOL     OW 3165   2.423   0.248   2.351  0.2556 -0.5716 -0.0435
  792SOL    HW1 3166   2.340   0.284   2.386  0.2248  2.6899  1.4208
  792SOL    HW2 3167   2.461   0.200   2.433 -1.0493 -2.2464  0.9447
  792SOL     MW 3168   2.417   0.247   2.366  0.0794 -0.3622  0.2801
  793SOL     OW 3169   1.770   1.004   1.911 -0.6928  0.0544  0.2550
  793SOL    HW1 3170   1.744   1.055   1.837 -0.8877 -0.9762 -3.4280
  793SOL    HW2 3171   1.857   0.964   1.885  1.8075  0.6035  0.6096
  793SOL     MW 3172   1.778   1.005   1.898 -0.3887 -0.0092 -0.1842
  794SOL     OW 3173   1.414   2.241   0.089 -0.3075  0.2500 -0.0677
  794SOL    HW1 3174   1.440   2.311   0.024  1.0838 -1.9122 -1.9151
  794SOL    HW2 3175   1.453   2.264   0.173  0.1090 -1.3145  2.3083
  794SOL     MW 3176   1.423   2.253   0.092 -0.0690 -0.2417  0.0021
  795SOL     OW 3177   2.229   0.945   2.574 -0.1926 -0.2594  0.0750
  795SOL    HW1 3178   2.227   1.029   2.620  0.1436  1.0811  0.0109
  795SOL    HW2 3179   2.242   0.970   2.485  0.7737 -2.1014  0.8320
  795SOL     MW 3180   2.230   0.959   2.569 -0.0208 -0.3256  0.1664
  796SOL     OW 3181   0.339   0.698   2.740  0.1486 -0.3139 -0.5653
  796SOL    HW1 3182   0.292   0.756   2.805 -1.1560 -1.3128 -0.4531
  796SOL    HW2 3183   0.274   0.655   2.686  2.4068  1.1067  0.8948
  796SOL     MW 3184   0.325   0.700   2.741  0.2744 -0.2582 -0.3579
  797SOL     OW 3185   2.600   0.120   2.555 -0.1751 -0.4573  0.3979
  797SOL    HW1 3186   2.643   0.178   2.609 -2.2361  0.4976 -1.4892
  797SOL    HW2 3187   2.662   0.101   2.482 -1.3038 -0.7791 -0.3742
  797SOL     MW 3188   2.614   0.125   2.552 -0.5960 -0.3737  0.0470
  798SOL     OW 3189   2.332   0.041   2.210 -0.2024  0.6715  0.1225
  798SOL    HW1 3190   2.367   0.111   2.269 -1.5777 -1.1121 -3.8551
  798SOL    HW2 3191   2.414  -0.007   2.178  0.7601  2.1963 -1.8080
  798SOL     MW 3192   2.347   0.044   2.213 -0.2568  0.6374 -0.6570
  799SOL     OW 3193   2.455   2.929   0.195  0.4628 -0.3910 -0.0796
  799SOL    HW1 3194   2.445   2.842   0.164  0.9136  0.8054  0.3918
  799SOL    HW2 3195   2.409   2.983   0.130 -2.4017 -1.5252 -0.4738
  799SOL     MW 3196   2.448   2.925   0.182  0.1444 -0.3828 -0.0694
  800SOL     OW 3197   1.864   3.064   1.773  0.1283 -0.0329  0.1533
  800SOL    HW1 3198   1.819   2.982   1.786  1.2016 -0.5381 -3.4794
  800SOL    HW2 3199   1.930   3.076   1.841  0.6853  2.0967 -0.1520
  800SOL     MW 3200   1.867   3.055   1.784  0.3434  0.1814 -0.3663
  801SOL     OW 3201   2.817   1.321   2.623  0.1967  0.5285 -0.0867
  801SOL    HW1 3202   2.779   1.227   2.625  0.9381 -1.6783 -0.3727
  801SOL    HW2 3203   2.902   1.314   2.579 -0.6509 -1.0781 -0.6797
  801SOL     MW 3204   2.823   1.307   2.618  0.1827  0.0253 -0.2027
  802SOL     OW 3205   2.559   1.505   2.830  0.2496 -0.1844 -0.0925
  802SOL    HW1 3206   2.561   1.435   2.761 -0.6945 -0.4259 -2.0210
  802SOL    HW2 3207   2.652   1.513   2.871  4.8382  1.5589  0.8136
  802SOL     MW 3208   2.571   1.497   2.826  0.7304  0.0137 -0.2274
  803SOL     OW 3209   2.321   1.262   1.950  0.5494  0.1108 -0.4125
  803SOL    HW1 3210   2.250   1.231   2.007 -1.1072  0.9928 -2.9213
  803SOL    HW2 3211   2.319   1.204   1.875 -0.1053 -0.5970 -2.9210
  803SOL     MW 3212   2.312   1.250   1.947  0.2445  0.1338 -1.0745
  804SOL     OW 3213   2.301   0.072   0.024  0.0223 -0.2896 -0.1158
  804SOL    HW1 3214   2.243   0.143   0.033  0.1859 -0.8502  0.5150
  804SOL    HW2 3215   2.333   0.091  -0.063 -0.5549 -0.8169 -0.0288
  804SOL     MW 3216   2.298   0.084   0.014 -0.0323 -0.4332 -0.0211
  805SOL     OW 3217   2.720   1.045   2.578 -0.0317 -0.1536 -0.5767
  805SOL    HW1 3218   2.652   0.977   2.577 -0.5301 -1.8114 -2.5277
  805SOL    HW2 3219   2.800   1.004   2.607  0.2097  2.4621 -0.7915
  805SOL     MW 3220   2.722   1.031   2.582 -0.0656 -0.0272 -0.8625
  806SOL     OW 3221   2.630   0.406   2.272  0.2757  0.0362  0.0006
  806SOL    HW1 3222   2.555   0.340   2.283 -2.0246  1.0688 -2.2823
  806SOL    HW2 3223   2.623   0.436   2.178 -1.2732  0.7374  1.0262
  806SOL     MW 3224   2.619   0.402   2.261 -0.2322  0.2649 -0.1653
  807SOL     OW 3225   3.092   1.112   2.082  0.3857  0.3389 -0.8509
  807SOL    HW1 3226   3.141   1.029   2.059  2.4518  0.4268 -2.4533
  807SOL    HW2 3227   3.021   1.091   2.145 -0.3758  0.8690  0.2703
  807SOL     MW 3228   3.089   1.098   2.087  0.5578  0.4204 -0.9144
  808SOL     OW 3229   2.614   3.034   2.772 -0.5648  0.4348 -0.3414
  808SOL    HW1 3230   2.560   2.958   2.758  0.6047 -0.5289  0.3186
  808SOL    HW2 3231   2.614   3.082   2.691 -0.3949 -1.6161  2.4862
  808SOL     MW 3232   2.607   3.030   2.760 -0.3880  0.0371  0.1188
  809SOL     OW 3233   2.486   1.235   2.415 -0.4005  0.4010  0.3284
  809SOL    HW1 3234   2.544   1.218   2.497  0.9601 -0.6277  0.1605
  809SOL    HW2 3235   2.554   1.250   2.349 -0.2836 -0.8527  0.7759
  809SOL     MW 3236   2.502   1.235   2.417 -0.2055  0.0999  0.3653
  810SOL     OW 3237   2.195   1.193   2.186 -0.4954  0.0964 -0.0434
  810SOL    HW1 3238   2.247   1.118   2.226 -1.4828 -1.8716  3.1377
  810SOL    HW2 3239   2.107   1.160   2.199  0.8567 -1.8989  0.6026
  810SOL     MW 3240   2.190   1.179   2.193 -0.4473 -0.4265  0.4615
  811SOL     OW 3241   1.521   0.108   2.285  0.1488 -0.5487 -0.0946
  811SOL    HW1 3242   1.577   0.039   2.322 -1.4242  3.2008 -1.4501
  811SOL    HW2 3243   1.524   0.110   2.181  1.6989 -0.7558 -1.3556
  811SOL     MW 3244   1.528   0.099   2.276  0.1458 -0.0813 -0.4398
  812SOL     OW 3245   1.403   2.788   2.064 -0.4116  0.3364 -0.1256
  812SOL    HW1 3246   1.494   2.784   2.087  0.0217  1.6390  0.4247
  812SOL    HW2 3247   1.347   2.762   2.137  0.0910 -2.2698 -0.0394
  812SOL     MW 3248   1.408   2.784   2.077 -0.2881  0.1644 -0.0416
  813SOL     OW 3249   1.843   0.775   2.185 -0.2461  1.0757  0.2302
  813SOL    HW1 3250   1.804   0.696   2.220  3.0019  1.8650  0.4917
  813SOL    HW2 3251   1.898   0.818   2.255 -1.9120  0.8793  0.7774
  813SOL     MW 3252   1.845   0.770   2.199 -0.0374  1.1540  0.3369
  814SOL     OW 3253   2.743   1.271   1.595  0.0735 -0.2877  0.2540
  814SOL    HW1 3254   2.685   1.240   1.671 -1.5183 -0.6529 -0.5705
  814SOL    HW2 3255   2.716   1.212   1.526  2.0877 -0.0544 -1.0231
  814SOL     MW 3256   2.732   1.259   1.596  0.1293 -0.3051 -0.0233
  815SOL     OW 3257   2.482   1.680   2.376 -0.6166  0.3629 -0.7013
  815SOL    HW1 3258   2.410   1.620   2.341 -1.5643  0.9677  1.5474
  815SOL    HW2 3259   2.567   1.631   2.370 -1.4846 -0.4291  0.3389
  815SOL     MW 3260   2.484   1.666   2.370 -0.8562  0.3382 -0.2674
  816SOL     OW 3261   0.669   0.621   2.761 -0.3084 -0.1619  0.4909
  816SOL    HW1 3262   0.691   0.527   2.758  0.2920  0.2596 -2.0404
  816SOL    HW2 3263   0.593   0.610   2.702 -1.0006  0.2102 -2.7409
  816SOL     MW 3264   0.662   0.607   2.753 -0.3205 -0.0572 -0.2695
  817SOL     OW 3265   3.018   1.148   1.417  0.5758 -0.3203 -0.3150
  817SOL    HW1 3266   3.076   1.151   1.496 -0.3385  2.6023 -1.5216
  817SOL    HW2 3267   3.030   1.235   1.368  1.7896 -0.6932  1.4809
  817SOL     MW 3268   3.027   1.160   1.421  0.6153  0.0161 -0.2372
  818SOL     OW 3269   1.921   1.003   2.740  0.2028 -0.0743 -0.1729
  818SOL    HW1 3270   1.982   1.043   2.682 -0.7273 -1.1499 -0.9805
  818SOL    HW2 3271   1.936   0.908   2.734 -0.0729 -2.6392  0.4468
  818SOL     MW 3272   1.931   0.996   2.731  0.0437 -0.5546 -0.1977
  819SOL     OW 3273   1.835   0.239   2.384 -0.3386 -0.2722 -0.9820
  819SOL    HW1 3274   1.796   0.315   2.423  1.8434  1.6697 -0.7943
  819SOL    HW2 3275   1.881   0.208   2.465 -0.2184  1.2980  2.4832
  819SOL     MW 3276   1.836   0.245   2.400 -0.0348  0.1912 -0.5000
  820SOL     OW 3277   2.499   1.721   2.654 -0.0280 -0.3344 -0.6988
  820SOL    HW1 3278   2.516   1.652   2.719 -0.6762  0.9241  2.7142
  820SOL    HW2 3279   2.510   1.695   2.567  0.3603 -0.7928 -1.0450
  820SOL     MW 3280   2.502   1.709   2.651 -0.0622 -0.2288 -0.2942
  821SOL     OW 3281   2.591   1.366   2.001 -0.2026  0.0953 -0.1727
  821SOL    HW1 3282   2.611   1.427   1.934  0.7228 -1.6794 -1.0848
  821SOL    HW2 3283   2.500   1.344   1.988  0.2728 -1.4482  0.5406
  821SOL     MW 3284   2.582   1.371   1.991 -0.0178 -0.3425 -0.1989
  822SOL     OW 3285   2.859   2.666   1.408  0.0850 -0.0595 -0.3653
  822SOL    HW1 3286   2.860   2.664   1.507 -1.8944 -1.9606  1.4351
  822SOL    HW2 3287   2.787   2.724   1.384  0.6232  2.2722 -2.1277
  822SOL     MW 3288   2.850   2.673   1.418 -0.1052 -0.0027 -0.3603
  823SOL     OW 3289   2.284   0.463   1.777 -0.1205 -0.4613 -0.6578
  823SOL    HW1 3290   2.359   0.460   1.717  1.1814  1.1514 -0.0734
  823SOL    HW2 3291   2.219   0.401   1.754 -2.4395  1.3604 -0.2525
  823SOL     MW 3292   2.285   0.454   1.766 -0.2547 -0.0082 -0.5272
  824SOL     OW 3293   2.111   1.331   2.520  0.3106  0.2759 -0.0895
  824SOL    HW1 3294   2.186   1.360   2.458 -0.7628 -3.2153  1.8047
  824SOL    HW2 3295   2.079   1.406   2.567  0.8597  0.6823  0.0318
  824SOL     MW 3296   2.116   1.345   2.518  0.2414 -0.1311  0.1764
  825SOL     OW 3297   2.160   2.478   0.423  0.3109 -0.7581  0.6460
  825SOL    HW1 3298   2.246   2.458   0.374  2.8158  0.7178 -1.7488
  825SOL    HW2 3299   2.186   2.432   0.508  0.3242  3.6899  2.8081
  825SOL     MW 3300   2.175   2.469   0.428  0.6432  0.0235  0.6153
  826SOL     OW 3301   1.772   2.364   0.429 -0.3901 -0.3719 -0.8818
  826SOL    HW1 3302   1.777   2.298   0.495 -0.5209 -2.6995 -1.7834
  826SOL    HW2 3303   1.789   2.454   0.465 -1.2764  1.2888  0.9022
  826SOL     MW 3304   1.775   2.367   0.442 -0.5243 -0.4599 -0.7654
  827SOL     OW 3305   1.953   2.255   0.894  0.1253  0.4453  0.3407
  827SOL    HW1 3306   1.888   2.264   0.826  2.4088 -0.9180 -0.8570
  827SOL    HW2 3307   1.915   2.211   0.967  2.9515  1.0573  1.0967
  827SOL     MW 3308   1.939   2.251   0.895  0.7995  0.3462  0.2824
  828SOL     OW 3309   0.078   2.637   0.578  0.6382 -0.4551  0.1173
  828SOL    HW1 3310   0.170   2.626   0.550 -0.4282  1.2355 -0.4331
  828SOL    HW2 3311   0.045   2.687   0.505 -2.4645  0.3897  0.8965
  828SOL     MW 3312   0.086   2.642   0.565  0.0881 -0.1206  0.1475
  829SOL     OW 3313   3.017   2.900   1.183 -0.0584 -0.0733  0.0067
  829SOL    HW1 3314   2.948   2.885   1.125  1.6893  1.2471  1.3930
  829SOL    HW2 3315   3.064   2.822   1.188 -1.6826  2.5067 -0.4399
  829SOL     MW 3316   3.014   2.888   1.176 -0.0421  0.4413  0.1307
  830SOL     OW 3317   2.546   2.792   2.024 -0.2174 -0.3238 -0.6974
  830SOL    HW1 3318   2.470   2.804   1.976  0.4697  0.4859 -0.7826
  830SOL    HW2 3319   2.618   2.757   1.972  1.2099 -1.2477 -0.4396
  830SOL     MW 3320   2.546   2.789   2.011  0.0616 -0.3389 -0.6746
  831SOL     OW 3321   2.501   2.445   1.180 -0.0762  0.2990 -0.3624
  831SOL    HW1 3322   2.465   2.379   1.233 -0.0393 -2.4845 -1.3478
  831SOL    HW2 3323   2.589   2.407   1.155  0.7219  1.4761  0.2910
  831SOL     MW 3324   2.508   2.431   1.184  0.0340  0.0871 -0.4062
  832SOL     OW 3325   2.431   2.116   1.815 -0.3009  0.2597  0.6105
  832SOL    HW1 3326   2.460   2.199   1.862 -1.4780 -0.6029  0.6641
  832SOL    HW2 3327   2.505   2.099   1.757 -0.6008 -1.9270 -0.6124
  832SOL     MW 3328   2.445   2.124   1.813 -0.4958 -0.1426  0.4562
  833SOL     OW 3329   1.711   2.599   0.896 -0.7273  0.1884 -0.1598
  833SOL    HW1 3330   1.648   2.523   0.926  1.4392  3.3431 -0.3263
  833SOL    HW2 3331   1.692   2.669   0.958 -3.2558 -0.7383 -0.0882
  833SOL     MW 3332   1.700   2.598   0.908 -0.7751  0.4824 -0.1723
  834SOL     OW 3333   2.278   2.356   0.647 -0.4483  0.2668  0.1693
  834SOL    HW1 3334   2.242   2.301   0.720  0.0816 -0.8806 -1.3918
  834SOL    HW2 3335   2.356   2.317   0.612 -2.6281  1.4371  1.1685
  834SOL     MW 3336   2.284   2.343   0.652 -0.6660  0.2699  0.0952
  835SOL     OW 3337   1.800   2.566   0.656 -0.7360 -0.2420 -0.1297
  835SOL    HW1 3338   1.798   2.579   0.753  1.0284 -0.1007 -1.2019
  835SOL    HW2 3339   1.807   2.473   0.660 -1.2664  0.8748 -0.3636
  835SOL     MW 3340   1.801   2.556   0.669 -0.5732 -0.0760 -0.3020
  836SOL     OW 3341   2.048   2.150   1.660 -0.5791 -0.4719  0.1559
  836SOL    HW1 3342   2.138   2.127   1.625 -0.2906 -0.7203  0.5866
  836SOL    HW2 3343   2.057   2.244   1.680  2.4279  0.2904 -1.5730
  836SOL     MW 3344   2.061   2.160   1.658 -0.1443 -0.4041 -0.0154
  837SOL     OW 3345   2.110   0.179   0.675  0.3899 -0.2343 -0.4478
  837SOL    HW1 3346   2.018   0.180   0.653  2.0030  3.4174  2.4975
  837SOL    HW2 3347   2.158   0.132   0.604  1.5528  1.0106  1.4129
  837SOL     MW 3348   2.104   0.173   0.662  0.7562  0.4118  0.1863
  838SOL     OW 3349   2.870   2.097   0.940 -0.1044 -0.2041 -0.3127
  838SOL    HW1 3350   2.812   2.023   0.934 -0.3851 -0.7763 -0.7857
  838SOL    HW2 3351   2.913   2.092   1.025  1.9254 -1.7009 -0.5291
  838SOL     MW 3352   2.868   2.087   0.951  0.1264 -0.4771 -0.4037
  839SOL     OW 3353   1.554   2.371   0.996  0.4292 -0.4945  0.3728
  839SOL    HW1 3354   1.550   2.438   1.075 -0.2187 -1.5514 -0.9747
  839SOL    HW2 3355   1.589   2.295   1.035  1.3653 -1.2202  2.5104
  839SOL     MW 3356   1.558   2.370   1.011  0.4672 -0.7297  0.4770
  840SOL     OW 3357   2.363   2.088   2.421  0.5576 -0.6071 -0.5068
  840SOL    HW1 3358   2.317   2.157   2.364 -0.2774  1.3880  0.0674
  840SOL    HW2 3359   2.391   2.147   2.493  0.1511  1.0080  0.5873
  840SOL     MW 3360   2.361   2.105   2.423  0.3938 -0.1308 -0.2867
  841SOL     OW 3361   2.316   2.398   0.066  0.6041 -0.0162  0.2873
  841SOL    HW1 3362   2.308   2.461  -0.012 -1.4963 -0.2996 -1.3856
  841SOL    HW2 3363   2.251   2.330   0.048  0.1625  0.7087  0.9707
  841SOL     MW 3364   2.306   2.397   0.053  0.2687  0.0421  0.1568
  842SOL     OW 3365   2.694   1.971   1.404 -0.0119 -0.3948  0.0654
  842SOL    HW1 3366   2.642   1.892   1.414 -0.2829 -0.4315  1.0262
  842SOL    HW2 3367   2.664   2.007   1.313 -1.9062 -0.5591 -2.9161
  842SOL     MW 3368   2.683   1.965   1.393 -0.2976 -0.4213 -0.2012
  843SOL     OW 3369   2.649   2.768   1.750 -0.3602 -0.1713 -0.0077
  843SOL    HW1 3370   2.740   2.740   1.767 -1.0593  0.8588 -0.1154
  843SOL    HW2 3371   2.610   2.684   1.737 -1.0903  1.3673 -0.4056
  843SOL     MW 3372   2.656   2.753   1.750 -0.5488  0.1676 -0.0744
  844SOL     OW 3373   2.742   2.336   1.151  0.1467  0.1887  0.1025
  844SOL    HW1 3374   2.766   2.372   1.065 -2.3479 -0.2791  0.9271
  844SOL    HW2 3375   2.787   2.385   1.213 -1.2976  1.3217 -1.9650
  844SOL     MW 3376   2.751   2.347   1.148 -0.3730  0.2765 -0.0615
  845SOL     OW 3377   2.833   2.580   0.285 -0.2761 -0.3224 -0.1255
  845SOL    HW1 3378   2.826   2.491   0.326 -0.7614 -2.3299  1.4286
  845SOL    HW2 3379   2.839   2.627   0.371  1.9293 -1.4885 -0.8780
  845SOL     MW 3380   2.832   2.574   0.302 -0.0492 -0.7411 -0.0197
  846SOL     OW 3381   1.456   2.834   0.806 -0.5962  0.1526 -0.2223
  846SOL    HW1 3382   1.542   2.880   0.816  0.0861  3.1270 -2.2946
  846SOL    HW2 3383   1.390   2.867   0.867  0.9016 -0.5420  0.1264
  846SOL     MW 3384   1.459   2.844   0.816 -0.3086  0.4534 -0.4497
  847SOL     OW 3385   2.510   1.885   0.174  0.1986 -0.1127  0.5912
  847SOL    HW1 3386   2.476   1.792   0.205  1.9705 -4.4127  1.0613
  847SOL    HW2 3387   2.488   1.877   0.079  1.9948 -0.8627  1.5255
  847SOL     MW 3388   2.503   1.872   0.166  0.6693 -0.7790  0.7765
  848SOL     OW 3389   2.587   2.104   1.184  0.2586 -0.4038  0.3210
  848SOL    HW1 3390   2.644   2.176   1.185  0.5902 -0.1854 -1.2199
  848SOL    HW2 3391   2.598   2.059   1.101  1.4496  0.9924 -0.5351
  848SOL     MW 3392   2.596   2.107   1.173  0.4595 -0.1908  0.0048
  849SOL     OW 3393   2.005   2.850   0.787 -0.4302  0.4857  0.2089
  849SOL    HW1 3394   1.988   2.806   0.876  0.2219 -1.7233 -0.8579
  849SOL    HW2 3395   2.076   2.794   0.760  0.5126  1.4155  1.4474
  849SOL     MW 3396   2.012   2.836   0.795 -0.2198  0.3169  0.2316
  850SOL     OW 3397   2.347   1.823   1.645  0.1608  0.4125  0.1870
  850SOL    HW1 3398   2.253   1.816   1.628 -2.0026  2.0925  1.1677
  850SOL    HW2 3399   2.359   1.916   1.640 -1.5164  0.5711  3.2141
  850SOL     MW 3400   2.336   1.834   1.642 -0.3459  0.6551  0.7158
  851SOL     OW 3401   2.388   2.296   0.299  0.3192 -0.4944 -0.3940
  851SOL    HW1 3402   2.385   2.328   0.209  1.5638 -0.0120 -0.1694
  851SOL    HW2 3403   2.467   2.332   0.335 -2.0967 -2.1744  0.1644
  851SOL     MW 3404   2.398   2.305   0.292  0.1647 -0.6524 -0.2907
  852SOL     OW 3405   2.323   2.036   0.350 -0.3095 -0.4869  0.0741
  852SOL    HW1 3406   2.331   2.130   0.360  1.6407 -0.8442  1.0964
  852SOL    HW2 3407   2.375   2.004   0.278 -1.3201  0.4418  1.8617
  852SOL     MW 3408   2.331   2.044   0.342 -0.1855 -0.4116  0.4448
  853SOL     OW 3409   2.518   2.371   1.915  0.3305  0.4662  0.1617
  853SOL    HW1 3410   2.509   2.452   1.870  1.7981  1.5769 -0.0865
  853SOL    HW2 3411   2.611   2.368   1.943  2.0111  0.9741  0.5870
  853SOL     MW 3412   2.529   2.382   1.913  0.7459  0.6797  0.1851
  854SOL     OW 3413   2.847   2.240   0.709  0.2943  0.9204  0.1808
  854SOL    HW1 3414   2.764   2.212   0.668 -0.5110  0.2226  1.4077
  854SOL    HW2 3415   2.862   2.184   0.788 -0.1274  1.8673 -1.0127
  854SOL     MW 3416   2.838   2.229   0.714  0.1324  0.9532  0.1852
  855SOL     OW 3417   2.771   2.360   0.431  0.2244  0.2716  0.3081
  855SOL    HW1 3418   2.709   2.349   0.505  0.6884 -1.1189  1.1459
  855SOL    HW2 3419   2.771   2.272   0.390  1.0030 -0.9590 -0.9576
  855SOL     MW 3420   2.763   2.347   0.435  0.3883 -0.0742  0.2517
  856SOL     OW 3421   2.096   1.880   0.235 -0.1580  0.0250  0.3936
  856SOL    HW1 3422   2.004   1.884   0.258  2.7716  2.2077  2.5087
  856SOL    HW2 3423   2.136   1.957   0.276 -2.0108  0.3304  0.4932
  856SOL     MW 3424   2.089   1.891   0.243 -0.0160  0.3533  0.6858
  857SOL     OW 3425   2.513   1.954   0.520  0.0900  0.4048 -0.0729
  857SOL    HW1 3426   2.464   2.000   0.452 -0.0646 -0.5036 -1.3062
  857SOL    HW2 3427   2.449   1.913   0.585  2.0487 -0.8178  1.4222
  857SOL     MW 3428   2.498   1.955   0.519  0.3280  0.1237 -0.0384
  858SOL     OW 3429   2.883   2.661   1.791  0.0231 -0.1496 -0.0758
  858SOL    HW1 3430   2.973   2.679   1.817 -0.4070  0.6533  1.8370
  858SOL    HW2 3431   2.884   2.572   1.756 -2.5104 -0.4670 -1.1973
  858SOL     MW 3432   2.895   2.651   1.790 -0.3679 -0.0855  0.0286
  859SOL     OW 3433   1.918   2.740   1.049 -0.0677 -0.2158 -0.7410
  859SOL    HW1 3434   1.866   2.668   1.016 -2.9463 -0.0742 -1.0088
  859SOL    HW2 3435   1.995   2.690   1.078  1.6299  0.3777  3.0859
  859SOL     MW 3436   1.922   2.724   1.048 -0.2235 -0.1188 -0.2714
  860SOL     OW 3437   2.616   2.643   0.154 -0.2158 -0.1306  0.5301
  860SOL    HW1 3438   2.702   2.610   0.210  2.1855 -1.4709 -1.8791
  860SOL    HW2 3439   2.648   2.693   0.081 -1.7153 -0.0621 -0.2946
  860SOL     MW 3440   2.631   2.646   0.152 -0.0968 -0.2984  0.1034
  861SOL     OW 3441   1.647   2.159   1.202 -0.0303  0.4037  0.3696
  861SOL    HW1 3442   1.684   2.230   1.262  3.2674 -1.5597  2.1084
  861SOL    HW2 3443   1.565   2.127   1.238 -0.3541  1.0904  0.2173
  861SOL     MW 3444   1.641   2.164   1.214  0.3620  0.2352  0.5789
  862SOL     OW 3445   2.518   1.736   1.431 -0.0090 -0.4005 -0.5242
  862SOL    HW1 3446   2.456   1.762   1.499  0.5387 -2.0906  0.8841
  862SOL    HW2 3447   2.492   1.775   1.347 -0.7992 -0.8620  2.0645
  862SOL     MW 3448   2.507   1.745   1.429 -0.0410 -0.6844  0.0032
  863SOL     OW 3449   3.004   1.730   0.987  0.0002 -0.4334 -0.2342
  863SOL    HW1 3450   3.082   1.711   1.041  0.1082 -2.7705 -2.7459
  863SOL    HW2 3451   2.943   1.779   1.043 -0.0646  1.6430 -1.4130
  863SOL     MW 3452   3.006   1.734   1.002  0.0059 -0.4678 -0.7211
  864SOL     OW 3453   0.034   1.837   0.747 -0.5380 -0.0683 -0.2917
  864SOL    HW1 3454  -0.025   1.812   0.815  1.4899 -2.7534 -1.2406
  864SOL    HW2 3455  -0.009   1.809   0.665 -0.6365  0.3947 -0.6027
  864SOL     MW 3456   0.021   1.830   0.745 -0.2834 -0.3615 -0.4580
  865SOL     OW 3457   2.636   2.190   0.067 -0.1094  0.6239  0.4978
  865SOL    HW1 3458   2.579   2.121   0.097  1.5648  0.1704 -3.9225
  865SOL    HW2 3459   2.614   2.186  -0.027 -2.3669 -0.1655  0.6939
  865SOL     MW 3460   2.626   2.180   0.058 -0.1863  0.4599 -0.0595
  866SOL     OW 3461   2.626   2.399   1.549  0.0110  0.6055 -0.0555
  866SOL    HW1 3462   2.630   2.299   1.571 -1.3582 -2.3115 -0.7875
  866SOL    HW2 3463   2.686   2.398   1.478 -1.3040 -1.3853  2.1789
  866SOL     MW 3464   2.635   2.386   1.543 -0.3432 -0.0420  0.1428
  867SOL     OW 3465   0.118   2.683   1.765  0.2880 -0.6049 -0.3633
  867SOL    HW1 3466   0.168   2.747   1.817 -0.7706 -3.0196  4.2379
  867SOL    HW2 3467   0.072   2.736   1.694 -0.6644  1.1752 -1.6655
  867SOL     MW 3468   0.119   2.698   1.762  0.0227 -0.6886  0.0720
  868SOL     OW 3469   2.770   2.675   0.524 -0.0792  0.3397 -0.4946
  868SOL    HW1 3470   2.708   2.595   0.514  0.2276 -3.7932 -1.9418
  868SOL    HW2 3471   2.709   2.749   0.522  2.7877 -0.0177  0.5448
  868SOL     MW 3472   2.754   2.674   0.523  0.3396 -0.2528 -0.5484
  869SOL     OW 3473   2.062   2.476   1.034 -0.1966  0.6630  0.0472
  869SOL    HW1 3474   2.155   2.464   1.013 -0.4824 -1.3108 -0.3090
  869SOL    HW2 3475   2.024   2.399   0.998  1.2173  2.1273 -2.7407
  869SOL     MW 3476   2.070   2.464   1.026 -0.0477  0.5957 -0.3676
  870SOL     OW 3477   2.202   0.033   0.457  0.0038 -0.3957 -0.2384
  870SOL    HW1 3478   2.278   0.077   0.413  4.1731 -1.7610  0.5566
  870SOL    HW2 3479   2.224  -0.055   0.481 -3.9343  2.8715 -1.6527
  870SOL     MW 3480   2.215   0.027   0.454  0.0343 -0.1448 -0.3201
  871SOL     OW 3481   2.504   2.094   0.874 -0.4989 -0.3094 -0.9418
  871SOL    HW1 3482   2.426   2.040   0.845  0.3310  1.4329  0.2857
  871SOL    HW2 3483   2.469   2.159   0.936 -2.1391  0.5660 -0.9568
  871SOL     MW 3484   2.489   2.096   0.878 -0.6058  0.0360 -0.7818
  872SOL     OW 3485   2.111   2.570   1.516  0.5215 -0.4645  0.3450
  872SOL    HW1 3486   2.035   2.612   1.556  0.7623  1.0624  0.4691
  872SOL    HW2 3487   2.072   2.523   1.437 -2.8630 -0.3887 -0.2444
  872SOL     MW 3488   2.096   2.570   1.511  0.1067 -0.2530  0.2836
  873SOL     OW 3489   2.832   2.087   1.821  0.4014  0.1811 -0.2878
  873SOL    HW1 3490   2.799   2.143   1.894 -0.1735  1.0665  0.8492
  873SOL    HW2 3491   2.921   2.114   1.791  0.5261 -3.3023 -1.6240
  873SOL     MW 3492   2.839   2.098   1.826  0.3420 -0.1617 -0.3141
  874SOL     OW 3493   2.303   1.411   2.330 -0.1650  0.1032  0.1327
  874SOL    HW1 3494   2.275   1.371   2.248 -1.0148 -1.3270  2.3317
  874SOL    HW2 3495   2.358   1.341   2.369 -1.5170 -1.9690  1.9530
  874SOL     MW 3496   2.306   1.396   2.324 -0.4555 -0.3589  0.6630
  875SOL     OW 3497   2.346   2.339   0.982 -0.2488 -0.0623  0.3222
  875SOL    HW1 3498   2.384   2.391   0.912  0.8937 -1.7515  1.9433
  875SOL    HW2 3499   2.399   2.375   1.057 -1.4908  1.2115 -1.1651
  875SOL     MW 3500   2.358   2.351   0.982 -0.2619 -0.1171  0.3399
  876SOL     OW 3501   3.077   2.248   1.313  0.1844 -0.0412  0.1277
  876SOL    HW1 3502   3.125   2.251   1.230 -1.4569 -2.1116 -1.3035
  876SOL    HW2 3503   3.132   2.299   1.378  0.6043 -0.5444 -0.2082
  876SOL     MW 3504   3.090   2.255   1.310  0.0232 -0.3808 -0.1054
  877SOL     OW 3505   0.052   2.789   0.336 -0.0145 -0.2357 -0.4495
  877SOL    HW1 3506   0.121   2.853   0.325 -3.5059 -0.4249  0.0818
  877SOL    HW2 3507   0.057   2.743   0.253  0.3412  0.1521  1.6293
  877SOL     MW 3508   0.062   2.792   0.324 -0.4283 -0.2095 -0.1051
  878SOL     OW 3509   2.348   1.703   1.195 -0.7980 -0.5296  0.0284
  878SOL    HW1 3510   2.279   1.658   1.250 -1.9955 -1.3830 -1.0127
  878SOL    HW2 3511   2.411   1.631   1.172  0.3905 -1.9186 -0.1074
  878SOL     MW 3512   2.347   1.688   1.199 -0.7992 -0.8254 -0.1269
  879SOL     OW 3513   2.769   2.463   0.872  0.0886  0.2777 -0.3806
  879SOL    HW1 3514   2.843   2.517   0.907  0.7546 -2.5475  0.4499
  879SOL    HW2 3515   2.791   2.390   0.812 -0.6247 -2.0772 -1.1147
  879SOL     MW 3516   2.781   2.461   0.868  0.0824 -0.4057 -0.3679
  880SOL     OW 3517   2.582   2.199   0.625 -0.1669  0.1710  0.1216
  880SOL    HW1 3518   2.543   2.171   0.712  0.9833 -0.1783  1.9549
  880SOL    HW2 3519   2.577   2.105   0.584 -0.8958 -5.6969  0.2794
  880SOL     MW 3520   2.576   2.183   0.631 -0.1113 -0.6493  0.3843
  881SOL     OW 3521   2.960   2.762   0.707 -0.7062  0.6072  0.5988
  881SOL    HW1 3522   2.901   2.721   0.649  0.2434  1.9527 -0.6632
  881SOL    HW2 3523   3.051   2.726   0.680 -1.4048 -1.7161  0.9814
  881SOL     MW 3524   2.965   2.752   0.696 -0.6731  0.4782  0.4828
  882SOL     OW 3525   2.299   2.849   1.928  0.3691  0.1954  0.1616
  882SOL    HW1 3526   2.275   2.849   1.831  0.5862 -0.7243 -0.5904
  882SOL    HW2 3527   2.234   2.792   1.966  0.5498  1.4669  1.2223
  882SOL     MW 3528   2.287   2.842   1.920  0.4216  0.2418  0.2024
  883SOL     OW 3529   2.374   2.243   1.318  0.7215 -0.3186 -0.2160
  883SOL    HW1 3530   2.449   2.188   1.289  0.2446  1.0449 -1.0457
  883SOL    HW2 3531   2.304   2.190   1.274 -2.5795 -0.6766 -1.8526
  883SOL     MW 3532   2.375   2.229   1.309  0.2230 -0.1859 -0.5414
  884SOL     OW 3533   1.972   1.815   1.068 -0.4084  0.0551  0.0739
  884SOL    HW1 3534   1.906   1.877   1.044 -0.2398  0.1710 -2.5935
  884SOL    HW2 3535   2.050   1.870   1.083  0.7538 -2.9629 -1.5911
  884SOL     MW 3536   1.974   1.830   1.067 -0.2328 -0.3278 -0.4977
  885SOL     OW 3537   2.827   2.398   1.734  0.5613  0.2845 -0.4675
  885SOL    HW1 3538   2.888   2.324   1.704  0.1573  1.0613 -0.2935
  885SOL    HW2 3539   2.755   2.394   1.672 -0.7163  0.9418  0.1853
  885SOL     MW 3540   2.826   2.388   1.722  0.3394  0.4738 -0.3584
  886SOL     OW 3541   2.870   2.407   1.385  0.1444  0.1498 -0.4585
  886SOL    HW1 3542   2.956   2.359   1.385 -1.8238 -0.2234 -0.2262
  886SOL    HW2 3543   2.871   2.509   1.387  0.2423 -1.1612 -1.7093
  886SOL     MW 3544   2.882   2.414   1.385 -0.1023 -0.0724 -0.5929
  887SOL     OW 3545   2.341   2.688   1.501 -0.0053  0.4130 -0.2384
  887SOL    HW1 3546   2.385   2.694   1.419 -1.6687  4.5451  1.2104
  887SOL    HW2 3547   2.248   2.661   1.494  2.2219 -1.0704 -0.5647
  887SOL     MW 3548   2.334   2.685   1.489  0.0691  0.7625 -0.0903
  888SOL     OW 3549   2.000   2.160   1.358  1.2576  0.2526 -0.3510
  888SOL    HW1 3550   2.067   2.140   1.292  0.7797  0.4920 -1.7985
  888SOL    HW2 3551   2.042   2.195   1.435  2.7737 -1.3804 -2.8689
  888SOL     MW 3552   2.015   2.162   1.360  1.3946  0.0687 -0.8742
  889SOL     OW 3553   2.305   1.949   2.071 -0.5363 -0.5804 -0.2671
  889SOL    HW1 3554   2.387   1.943   2.117 -1.2351 -1.1725 -0.2079
  889SOL    HW2 3555   2.331   2.002   1.996 -1.0106 -0.4367  1.6823
  889SOL     MW 3556   2.319   1.955   2.067 -0.6911 -0.6396 -0.0021
  890SOL     OW 3557   0.066   2.330   0.144 -0.7777  0.3215  0.7522
  890SOL    HW1 3558   0.054   2.422   0.153 -1.5863 -1.2061 -2.0507
  890SOL    HW2 3559   0.052   2.282   0.229 -0.9525 -2.6677  1.1954
  890SOL     MW 3560   0.063   2.335   0.156 -0.9075 -0.2744  0.4409
  891SOL     OW 3561   2.981   2.036   1.184 -0.2619  0.9299 -0.1870
  891SOL    HW1 3562   3.072   2.010   1.170  1.6417  1.9224  0.7154
  891SOL    HW2 3563   2.993   2.100   1.251 -0.6293 -1.1436 -1.2606
  891SOL     MW 3564   2.994   2.041   1.191 -0.0592  0.7873 -0.2096
  892SOL     OW 3565   2.465   2.398   2.839  0.2621  0.2117  0.4498
  892SOL    HW1 3566   2.471   2.316   2.886  4.4148  1.2387 -0.2527
  892SOL    HW2 3567   2.547   2.435   2.861 -0.6893 -2.8497 -1.7031
  892SOL     MW 3568   2.477   2.392   2.848  0.6845 -0.0567  0.0731
  893SOL     OW 3569   1.669   2.382   1.355  0.1163 -0.3626 -0.1641
  893SOL    HW1 3570   1.580   2.385   1.382  1.8075 -0.6447 -0.7477
  893SOL    HW2 3571   1.709   2.466   1.375  0.6798 -1.2589  3.6250
  893SOL     MW 3572   1.663   2.393   1.361  0.4138 -0.5181  0.2588
  894SOL     OW 3573   2.771   1.836   0.472  0.6203 -0.1087 -0.4618
  894SOL    HW1 3574   2.684   1.875   0.509 -1.9683  0.3203  3.5313
  894SOL    HW2 3575   2.752   1.816   0.372 -0.7107 -2.5730  0.1140
  894SOL     MW 3576   2.757   1.839   0.464  0.1031 -0.3772  0.1410
  895SOL     OW 3577   2.195   2.170   1.133  0.2176  0.5397  0.0198
  895SOL    HW1 3578   2.241   2.227   1.071 -0.6954 -0.2930 -0.3541
  895SOL    HW2 3579   2.191   2.076   1.108 -0.1788  1.3067  2.4503
  895SOL     MW 3580   2.201   2.165   1.121  0.0448  0.5310  0.2911
  896SOL     OW 3581   2.220   2.778   1.099  0.0752 -0.5184 -0.2345
  896SOL    HW1 3582   2.284   2.755   1.170 -0.6956 -4.0730  1.0002
  896SOL    HW2 3583   2.190   2.861   1.128 -0.8960 -1.5495  1.8020
  896SOL     MW 3584   2.224   2.786   1.112 -0.1546 -1.1234  0.1971
  897SOL     OW 3585   3.082   3.008   3.087 -0.6792 -0.2406  0.0373
  897SOL    HW1 3586   3.143   2.940   3.073 -0.0658  1.0729 -0.2190
  897SOL    HW2 3587   3.006   2.983   3.043  1.4837  0.3700  1.0428
  897SOL     MW 3588   3.080   2.996   3.079 -0.3129  0.0133  0.1362
  898SOL     OW 3589   2.057   0.155   1.417  0.5792 -0.0514 -0.1467
  898SOL    HW1 3590   2.042   0.063   1.445 -0.7533  0.4739  2.1592
  898SOL    HW2 3591   2.074   0.151   1.325 -0.8300 -0.5732 -2.4923
  898SOL     MW 3592   2.057   0.142   1.409  0.2175 -0.0510 -0.1519
  899SOL     OW 3593   2.922   3.001   0.598 -0.4699  0.3364  0.4381
  899SOL    HW1 3594   2.941   2.915   0.648  0.1680 -5.0715 -2.5149
  899SOL    HW2 3595   2.825   3.012   0.592  0.4893  1.6392 -1.3697
  899SOL     MW 3596   2.911   2.991   0.604 -0.2592 -0.2052 -0.1900
  900SOL     OW 3597   0.096   2.369   1.096 -0.1747 -0.5468  0.2447
  900SOL    HW1 3598   0.039   2.446   1.098  0.4355 -0.7755 -0.9748
  900SOL    HW2 3599   0.112   2.348   1.004 -1.2283 -2.4642  1.6067
  900SOL     MW 3600   0.090   2.376   1.084 -0.2332 -0.8300  0.2635
  901SOL     OW 3601   1.725   2.800   1.787  0.0836  0.6536  0.5489
  901SOL    HW1 3602   1.816   2.758   1.764  2.7979 -0.2951  1.5732
  901SOL    HW2 3603   1.686   2.810   1.699 -2.4022  1.3699  0.6613
  901SOL     MW 3604   1.732   2.796   1.772  0.1137  0.6230  0.6988
  902SOL     OW 3605   2.654   2.136   1.630 -0.0294  0.4026 -0.5414
  902SOL    HW1 3606   2.672   2.073   1.552 -1.3654 -1.1460 -2.0803
  902SOL    HW2 3607   2.712   2.109   1.707  1.4296  0.6279 -1.3673
  902SOL     MW 3608   2.664   2.125   1.630 -0.0132  0.2280 -0.8534
  903SOL     OW 3609   1.495   2.649   0.587 -0.2417 -0.0251 -0.4393
  903SOL    HW1 3610   1.578   2.617   0.621 -1.3684 -2.6093 -0.7653
  903SOL    HW2 3611   1.466   2.728   0.644  0.0173  0.9379 -3.2717
  903SOL     MW 3612   1.502   2.655   0.599 -0.3562 -0.2390 -0.8560
  904SOL     OW 3613   2.476   2.546   1.692  0.7442 -0.6228 -0.1781
  904SOL    HW1 3614   2.409   2.591   1.630 -0.8055 -1.2741 -0.2867
  904SOL    HW2 3615   2.527   2.493   1.627 -0.1153 -0.6838  1.9003
  904SOL     MW 3616   2.474   2.545   1.675  0.4263 -0.7168  0.0818
  905SOL     OW 3617   2.314   2.454   2.100  0.4010 -0.0347 -0.0122
  905SOL    HW1 3618   2.375   2.408   2.044 -0.3816  0.8217 -0.9606
  905SOL    HW2 3619   2.276   2.405   2.179 -1.9036 -2.5678  1.5051
  905SOL     MW 3620   2.317   2.442   2.103 -0.0063 -0.2559  0.0629
  906SOL     OW 3621   2.506   2.519   0.794  0.0443 -0.0478 -0.5840
  906SOL    HW1 3622   2.593   2.515   0.834  3.3622  1.4637 -0.6554
  906SOL    HW2 3623   2.474   2.603   0.830  1.7958  0.8549  1.6661
  906SOL     MW 3624   2.514   2.530   0.804  0.7131  0.2707 -0.2965
  907SOL     OW 3625   2.661   2.866   1.272 -0.1465 -0.2131  0.3354
  907SOL    HW1 3626   2.715   2.943   1.292  2.2700  2.7095 -1.6156
  907SOL    HW2 3627   2.679   2.856   1.181  1.4113  0.3094 -0.8865
  907SOL     MW 3628   2.671   2.875   1.263  0.3779  0.2414 -0.0833
  908SOL     OW 3629   2.718   2.436   0.030 -0.2623 -0.2098 -0.4237
  908SOL    HW1 3630   2.675   2.350   0.048 -0.4058 -0.3440 -1.1540
  908SOL    HW2 3631   2.665   2.501   0.078 -0.5563  2.1374  0.5807
  908SOL     MW 3632   2.705   2.433   0.039 -0.3200  0.0822 -0.3875
  909SOL     OW 3633   1.725   0.136   1.238 -0.4530  0.2631  0.1483
  909SOL    HW1 3634   1.678   0.215   1.212  0.5000 -2.4127  2.4121
  909SOL    HW2 3635   1.684   0.120   1.320  0.2050  0.7942  0.7528
  909SOL     MW 3636   1.714   0.145   1.245 -0.2404 -0.0199  0.5267
  910SOL     OW 3637   2.146   1.673   0.389 -0.4938 -0.0065 -0.1126
  910SOL    HW1 3638   2.077   1.605   0.387 -0.9211 -0.9106 -0.2191
  910SOL    HW2 3639   2.131   1.749   0.330  0.3135 -0.4160 -0.6637
  910SOL     MW 3640   2.135   1.674   0.381 -0.4437 -0.1798 -0.1993
  911SOL     OW 3641   2.298   2.108   1.564  0.5257  0.4343  0.0982
  911SOL    HW1 3642   2.335   2.148   1.645  1.8844  1.4212  1.8988
  911SOL    HW2 3643   2.340   2.157   1.487  1.5632  0.3988 -1.3753
  911SOL     MW 3644   2.308   2.120   1.565  0.8418  0.5599  0.1413
  912SOL     OW 3645   2.942   1.869   1.413  0.4801  0.0116 -0.5763
  912SOL    HW1 3646   2.986   1.907   1.326 -0.1280  0.7305  0.9428
  912SOL    HW2 3647   2.849   1.893   1.407 -1.7649 -1.7967 -3.1313
  912SOL     MW 3648   2.935   1.877   1.401  0.1037 -0.1321 -0.7130
  913SOL     OW 3649   2.693   3.063   0.271  0.1796 -0.4866 -0.2672
  913SOL    HW1 3650   2.773   3.011   0.287  0.7730 -0.8031  1.4565
  913SOL    HW2 3651   2.632   3.011   0.223 -0.0167  2.8344 -0.5474
  913SOL     MW 3652   2.695   3.049   0.267  0.2320 -0.0902 -0.0768
  914SOL     OW 3653   2.688   1.818   2.954  0.7333 -0.0930 -0.2357
  914SOL    HW1 3654   2.697   1.908   2.925  1.9037 -0.6316 -2.5494
  914SOL    HW2 3655   2.589   1.803   2.954 -3.0451 -0.0200 -3.0756
  914SOL     MW 3656   2.676   1.828   2.950  0.3892 -0.1545 -0.9157
  915SOL     OW 3657   1.793   0.153   0.137  0.5628 -0.1492 -0.0759
  915SOL    HW1 3658   1.869   0.113   0.177 -0.3988  3.1161 -1.4626
  915SOL    HW2 3659   1.718   0.092   0.150 -0.3813 -1.5260 -0.2844
  915SOL     MW 3660   1.793   0.140   0.144  0.3114  0.0999 -0.2864
  916SOL     OW 3661   1.727   2.191   2.029  0.2390  0.0384 -0.6611
  916SOL    HW1 3662   1.773   2.277   2.029 -1.3450  0.8835 -0.4559
  916SOL    HW2 3663   1.761   2.137   1.957  0.3989  0.6277  0.5190
  916SOL     MW 3664   1.737   2.195   2.019  0.0511  0.2276 -0.4783
  917SOL     OW 3665   2.521   2.276   2.588  0.2016  0.3403  0.4265
  917SOL    HW1 3666   2.516   2.316   2.671  1.0782  0.3564 -0.5313
  917SOL    HW2 3667   2.597   2.303   2.542 -0.9840 -3.3572 -2.1064
  917SOL     MW 3668   2.531   2.285   2.593  0.1608 -0.1454 -0.0341
  918SOL     OW 3669   2.041   1.609   2.657  0.6561 -0.8301 -0.5673
  918SOL    HW1 3670   1.968   1.635   2.600  1.0062  2.7201 -1.1044
  918SOL    HW2 3671   2.110   1.673   2.638  1.7889  1.1433  0.4023
  918SOL     MW 3672   2.041   1.621   2.647  0.8517 -0.1013 -0.5102
  919SOL     OW 3673   3.071   2.413   2.233  0.1328  0.5510  0.2144
  919SOL    HW1 3674   3.004   2.349   2.224 -0.0813  0.1619  1.1813
  919SOL    HW2 3675   3.132   2.411   2.158  1.4062 -0.0291 -1.4198
  919SOL     MW 3676   3.070   2.405   2.222  0.2726  0.4231  0.1264
  920SOL     OW 3677   2.684   2.813   3.041 -0.5686 -0.5278 -0.4553
  920SOL    HW1 3678   2.588   2.822   3.038  0.0647 -1.9120  0.6102
  920SOL    HW2 3679   2.722   2.766   2.973  2.4274  1.1639 -0.6367
  920SOL     MW 3680   2.676   2.808   3.032 -0.0898 -0.4872 -0.3387
  921SOL     OW 3681   2.457   2.619   2.629  0.3578  0.6182  0.3576
  921SOL    HW1 3682   2.534   2.605   2.574 -1.6751  1.4481 -1.9840
  921SOL    HW2 3683   2.452   2.546   2.692  3.1798 -0.6532 -0.0705
  921SOL     MW 3684   2.466   2.607   2.630  0.4619  0.5600 -0.0078
  922SOL     OW 3685   2.074   2.737   0.378  0.5856 -0.7163  0.4531
  922SOL    HW1 3686   2.035   2.740   0.292  2.4071 -1.0147  2.7876
  922SOL    HW2 3687   2.134   2.658   0.365  2.1034 -1.9022 -0.8869
  922SOL     MW 3688   2.077   2.727   0.365  1.0262 -0.9121  0.5843
  923SOL     OW 3689   2.206   2.846   1.680 -0.0842 -0.0961 -0.8329
  923SOL    HW1 3690   2.262   2.823   1.609  3.2037  1.5934  0.1104
  923SOL    HW2 3691   2.157   2.921   1.647  0.5759  0.0829 -0.9276
  923SOL     MW 3692   2.207   2.853   1.666  0.4367  0.1504 -0.7210
  924SOL     OW 3693   1.089   2.734   2.605 -0.4936 -0.0505 -0.3919
  924SOL    HW1 3694   1.186   2.754   2.596 -3.7159 -0.6292 -0.0742
  924SOL    HW2 3695   1.086   2.663   2.667 -0.3605 -0.1850  1.2927
  924SOL     MW 3696   1.101   2.727   2.612 -0.9012 -0.1446 -0.1277
  925SOL     OW 3697   2.977   0.235   2.688 -0.4036  0.3590 -0.6194
  925SOL    HW1 3698   2.945   0.241   2.596  1.1448  1.7919  1.1376
  925SOL    HW2 3699   2.982   0.328   2.724 -1.6102  2.6872  0.9263
  925SOL     MW 3700   2.974   0.248   2.680 -0.3585  0.8552 -0.1836
  926SOL     OW 3701   2.777   2.354   1.998  0.1326  0.3974 -0.4472
  926SOL    HW1 3702   2.787   2.440   2.038 -0.0035 -3.0607  0.5217
  926SOL    HW2 3703   2.801   2.361   1.906  1.1229  2.6263  0.8334
  926SOL     MW 3704   2.782   2.366   1.991  0.2453  0.2352 -0.1504
  927SOL     OW 3705   2.383   0.155   0.304 -0.0575 -0.1443 -0.2237
  927SOL    HW1 3706   2.455   0.217   0.308 -1.5874  1.5624  1.3014
  927SOL    HW2 3707   2.385   0.124   0.215 -1.8470 -1.1864  2.7146
  927SOL     MW 3708   2.393   0.159   0.293 -0.4955 -0.0566  0.3652
  928SOL     OW 3709   2.150   2.401   1.719 -0.4334 -0.2013  0.0513
  928SOL    HW1 3710   2.142   2.470   1.650 -2.2058 -0.9654 -0.9040
  928SOL    HW2 3711   2.233   2.428   1.756 -1.1545  2.3427 -3.4052
  928SOL     MW 3712   2.160   2.414   1.715 -0.7624  0.0335 -0.5308
  929SOL     OW 3713   2.745   2.348   2.459  0.2729 -0.0551  0.2205
  929SOL    HW1 3714   2.772   2.292   2.390 -1.9413  4.7214  0.6387
  929SOL    HW2 3715   2.816   2.348   2.520 -0.5558  0.0293  2.5510
  929SOL     MW 3716   2.758   2.340   2.458 -0.1286  0.5863  0.5832
  930SOL     OW 3717   2.008   2.810   2.645  0.5421 -0.6139  0.5933
  930SOL    HW1 3718   2.014   2.760   2.729  0.3457  2.6189  2.4800
  930SOL    HW2 3719   2.093   2.845   2.633  1.7272 -1.2190 -2.5200
  930SOL     MW 3720   2.020   2.808   2.654  0.6726 -0.2672  0.4315
  931SOL     OW 3721   0.029   2.792   2.474 -0.2736 -0.0929 -0.0330
  931SOL    HW1 3722   0.018   2.822   2.562  1.0768 -0.6368 -3.3249
  931SOL    HW2 3723   0.117   2.802   2.445  0.1488 -2.8620  0.4976
  931SOL     MW 3724   0.039   2.798   2.482 -0.0397 -0.5300 -0.3973
  932SOL     OW 3725   2.861   1.892   2.502 -0.3783  0.3401  0.3640
  932SOL    HW1 3726   2.940   1.947   2.517 -0.6297  0.7694  1.4058
  932SOL    HW2 3727   2.830   1.920   2.413 -2.0523 -0.1817 -0.6114
  932SOL     MW 3728   2.868   1.902   2.493 -0.6323  0.3279  0.3727
  933SOL     OW 3729   2.051   2.783   2.222  0.3898  0.5173 -0.3557
  933SOL    HW1 3730   2.134   2.829   2.265  4.1083  3.2474  0.7962
  933SOL    HW2 3731   1.987   2.855   2.214 -0.4319 -0.8719  0.8889
  933SOL     MW 3732   2.054   2.799   2.226  0.7720  0.6942 -0.0395
  934SOL     OW 3733   1.998   2.633   2.446  0.5142  0.4440  0.3662
  934SOL    HW1 3734   1.981   2.699   2.507 -0.6655 -3.1937 -0.1739
  934SOL    HW2 3735   2.018   2.691   2.370 -2.5376  1.0679  2.8666
  934SOL     MW 3736   1.999   2.650   2.444 -0.0441  0.0463  0.6249
  935SOL     OW 3737   2.676   1.556   1.809 -0.7329 -1.1919 -0.0795
  935SOL    HW1 3738   2.765   1.528   1.799 -3.3913  1.0475  0.8190
  935SOL    HW2 3739   2.628   1.552   1.730 -4.2659  0.4556  0.2346
  935SOL     MW 3740   2.681   1.552   1.798 -1.5498 -0.6791  0.0805
  936SOL     OW 3741   2.947   2.264   3.091  0.2069 -0.5612  0.0982
  936SOL    HW1 3742   3.010   2.283   3.161 -2.0432 -0.3143 -0.5471
  936SOL    HW2 3743   2.883   2.338   3.095 -2.6364 -0.7620 -1.5326
  936SOL     MW 3744   2.947   2.277   3.100 -0.4651 -0.5551 -0.2021
  937SOL     OW 3745   1.989   2.147   2.720 -0.7458 -0.4090 -0.2206
  937SOL    HW1 3746   2.081   2.135   2.748  0.1046  1.4470  0.4317
  937SOL    HW2 3747   1.993   2.135   2.625  1.6809  1.4569  1.6617
  937SOL     MW 3748   2.002   2.144   2.711 -0.3135  0.0821  0.1138
  938SOL     OW 3749   2.347   1.720   1.921  0.7748 -0.5920 -0.3123
  938SOL    HW1 3750   2.362   1.767   1.839 -1.4440  0.5315 -0.4895
  938SOL    HW2 3751   2.332   1.793   1.983  0.6557 -0.5881 -1.8311
  938SOL     MW 3752   2.347   1.736   1.918  0.4663 -0.4433 -0.5361
  939SOL     OW 3753   2.754   1.977   2.248 -0.3875 -0.1449 -0.0186
  939SOL    HW1 3754   2.784   1.935   2.164 -1.0909 -1.0339 -0.2462
  939SOL    HW2 3755   2.661   1.975   2.239 -0.0136 -2.2309 -2.1775
  939SOL     MW 3756   2.746   1.971   2.236 -0.4310 -0.5374 -0.3334
  940SOL     OW 3757   2.231   0.149   2.664  0.0123 -0.3681  0.2560
  940SOL    HW1 3758   2.248   0.060   2.636 -0.4939 -0.9941 -2.7995
  940SOL    HW2 3759   2.295   0.159   2.732 -0.9374 -0.5376  0.3355
  940SOL     MW 3760   2.242   0.139   2.669 -0.1798 -0.4731 -0.1367
  941SOL     OW 3761   0.190   2.428   2.043 -0.0504  0.4943 -0.2944
  941SOL    HW1 3762   0.267   2.384   2.043 -1.6766  3.8673 -1.1158
  941SOL    HW2 3763   0.160   2.416   1.955  2.3232  0.6727 -1.7473
  941SOL     MW 3764   0.196   2.420   2.031  0.0482  0.9629 -0.5945
  942SOL     OW 3765   2.871   2.218   2.247  0.2316 -0.3442 -0.4759
  942SOL    HW1 3766   2.830   2.264   2.182 -0.0661 -1.6006  0.5832
  942SOL    HW2 3767   2.822   2.135   2.256 -1.1460 -0.7074 -1.7186
  942SOL     MW 3768   2.859   2.213   2.240  0.0105 -0.5579 -0.5001
  943SOL     OW 3769   0.234   2.101   2.297  0.1813 -0.0728  0.4355
  943SOL    HW1 3770   0.210   2.194   2.325 -1.5293  0.5582  0.9810
  943SOL    HW2 3771   0.322   2.074   2.335 -0.6948  3.9495 -0.8351
  943SOL     MW 3772   0.243   2.109   2.305 -0.1600  0.5411  0.3398
  944SOL     OW 3773   2.099   2.666   1.987  0.0303 -0.2769 -0.6061
  944SOL    HW1 3774   2.142   2.598   2.032 -0.2199  1.9305 -1.1023
  944SOL    HW2 3775   2.068   2.716   2.060 -1.1609  0.9363 -2.3409
  944SOL     MW 3776   2.100   2.664   2.002 -0.1599  0.1744 -0.9005
  945SOL     OW 3777   2.844   2.740   2.803 -0.4991  0.4825 -0.0906
  945SOL    HW1 3778   2.794   2.664   2.799  2.7607 -0.6636  1.5369
  945SOL    HW2 3779   2.820   2.794   2.725 -1.6279 -0.9946 -0.1847
  945SOL     MW 3780   2.834   2.737   2.792 -0.2180  0.1364  0.1117
  946SOL     OW 3781   2.448   2.654   2.231 -0.3119 -0.5605 -0.0502
  946SOL    HW1 3782   2.502   2.699   2.167  2.4213  2.7407 -1.7904
  946SOL    HW2 3783   2.401   2.576   2.190  0.9828 -3.7953 -0.3225
  946SOL     MW 3784   2.449   2.649   2.217  0.2195 -0.5518 -0.3158
  947SOL     OW 3785   2.027   0.067   0.241  0.3837  0.3332  0.1355
  947SOL    HW1 3786   2.028  -0.020   0.211  0.3613 -1.2286 -2.3099
  947SOL    HW2 3787   2.077   0.054   0.321 -0.1441 -0.1133 -0.2956
  947SOL     MW 3788   2.034   0.054   0.248  0.3111  0.0682 -0.2440
  948SOL     OW 3789   1.824   2.992   2.659 -0.2969  0.3112 -0.1400
  948SOL    HW1 3790   1.882   2.912   2.641 -1.0987  0.3104  1.2796
  948SOL    HW2 3791   1.794   3.009   2.569  0.5399  0.0830 -0.6867
  948SOL     MW 3792   1.828   2.984   2.645 -0.2923  0.2810 -0.0249
  949SOL     OW 3793   2.503   1.921   2.249  0.0629 -0.9453 -0.3109
  949SOL    HW1 3794   2.486   1.833   2.280  2.9935  0.3229 -0.9183
  949SOL    HW2 3795   2.469   1.977   2.321  0.6395 -0.6611  1.0227
  949SOL     MW 3796   2.496   1.917   2.262  0.5256 -0.7405 -0.2151
  950SOL     OW 3797   2.298   2.568   2.958  0.1398 -0.2149  0.8820
  950SOL    HW1 3798   2.362   2.523   2.903  0.9068  0.4862 -0.1447
  950SOL    HW2 3799   2.214   2.605   2.911 -2.7391  2.0449 -0.8418
  950SOL     MW 3800   2.295   2.567   2.944 -0.1388  0.1758  0.5191
  951SOL     OW 3801   3.073   2.201   2.843 -0.3335 -0.5714 -0.1371
  951SOL    HW1 3802   3.003   2.239   2.899 -2.0952  0.5027 -0.9472
  951SOL    HW2 3803   3.049   2.107   2.842  0.3733 -0.6068  0.2908
  951SOL     MW 3804   3.061   2.194   2.851 -0.4727 -0.4343 -0.1875
  952SOL     OW 3805   3.028   1.663   2.142 -0.2485  0.1772  0.2304
  952SOL    HW1 3806   2.953   1.694   2.088 -0.4775  1.5987  0.0917
  952SOL    HW2 3807   3.053   1.748   2.174  0.3706  0.1754 -5.4508
  952SOL     MW 3808   3.022   1.679   2.139 -0.1970  0.3645 -0.5375
  953SOL     OW 3809   1.973   1.724   2.897  0.1563 -0.7022  0.5700
  953SOL    HW1 3810   1.897   1.693   2.942  0.2085  0.1224  1.0882
  953SOL    HW2 3811   1.996   1.688   2.809  0.3017  0.5186 -2.2528
  953SOL     MW 3812   1.966   1.715   2.891  0.1824 -0.4323  0.2659
  954SOL     OW 3813   2.473   2.146   2.941 -0.0035 -0.1735  0.0039
  954SOL    HW1 3814   2.389   2.133   2.900  1.8927 -0.1090 -1.8177
  954SOL    HW2 3815   2.528   2.117   2.876 -2.7327  1.6078 -1.2292
  954SOL     MW 3816   2.470   2.140   2.927 -0.1134  0.0700 -0.3992
  955SOL     OW 3817   1.597   1.599   2.537  0.3426 -0.5323  0.1478
  955SOL    HW1 3818   1.568   1.624   2.443 -1.6421  1.3953  0.1993
  955SOL    HW2 3819   1.686   1.646   2.549 -0.9738 -2.0254 -1.9720
  955SOL     MW 3820   1.605   1.608   2.526 -0.0929 -0.4750 -0.1251
  956SOL     OW 3821   2.711   2.497   2.873  0.0921  0.5437  0.7126
  956SOL    HW1 3822   2.733   2.475   2.971 -0.2910  0.2135  4.5741
  956SOL    HW2 3823   2.769   2.445   2.818  0.6926 -1.2065  0.2860
  956SOL     MW 3824   2.722   2.487   2.879  0.1208  0.2692  1.1658
  957SOL     OW 3825   2.254   2.875   0.527  0.2643 -0.2252  0.2859
  957SOL    HW1 3826   2.188   2.819   0.481  0.8994  0.4322 -0.9081
  957SOL    HW2 3827   2.238   2.843   0.617 -1.4251 -1.2821  2.9717
  957SOL     MW 3828   2.243   2.863   0.533  0.1252 -0.2779  0.4827
  958SOL     OW 3829   2.056   2.651   2.860 -0.0229 -0.1252  0.7774
  958SOL    HW1 3830   2.026   2.577   2.810 -0.1329 -2.3070  2.2600
  958SOL    HW2 3831   1.979   2.660   2.919  1.4523  0.4406  0.5842
  958SOL     MW 3832   2.042   2.642   2.861  0.1572 -0.3384  0.9475
  959SOL     OW 3833   2.517   2.805   0.446 -0.1366  0.3312 -0.1848
  959SOL    HW1 3834   2.540   2.868   0.377  0.6513 -0.7034 -1.6203
  959SOL    HW2 3835   2.421   2.820   0.461  0.5372  0.8064  1.2997
  959SOL     MW 3836   2.507   2.815   0.439  0.0562  0.2574 -0.1784
  960SOL     OW 3837   1.941   2.340   2.307 -0.0175 -0.3330 -0.3261
  960SOL    HW1 3838   1.915   2.255   2.344 -2.2139 -0.3343 -1.1040
  960SOL    HW2 3839   1.889   2.396   2.367 -0.5179  0.8048 -0.4971
  960SOL     MW 3840   1.931   2.336   2.320 -0.3733 -0.1831 -0.4513
  961SOL     OW 3841   2.209   2.281   2.297  0.1611 -0.1921  0.2255
  961SOL    HW1 3842   2.116   2.279   2.279 -0.2531 -0.5808  1.0939
  961SOL    HW2 3843   2.206   2.361   2.348 -0.6788 -2.5105 -2.5711
  961SOL     MW 3844   2.197   2.291   2.302 -0.0043 -0.5493 -0.0289
  962SOL     OW 3845   2.218   2.070   2.834 -0.1748  0.2615  0.2971
  962SOL    HW1 3846   2.173   2.032   2.909 -1.5085 -2.1303 -0.1446
  962SOL    HW2 3847   2.215   2.003   2.766 -0.4899 -3.1247 -3.3760
  962SOL     MW 3848   2.211   2.056   2.835 -0.3923 -0.5009 -0.2458
  963SOL     OW 3849   1.819   2.535   2.149  0.2902  0.8030 -0.6639
  963SOL    HW1 3850   1.872   2.491   2.220  0.7956  1.5564 -1.8344
  963SOL    HW2 3851   1.874   2.509   2.069  2.5701  1.3988  0.4242
  963SOL     MW 3852   1.834   2.526   2.148  0.6577  0.9810 -0.6748
  964SOL     OW 3853   1.839   1.944   2.770  0.1959 -0.0708  0.4842
  964SOL    HW1 3854   1.899   2.022   2.747  0.2724  2.4640 -1.1250
  964SOL    HW2 3855   1.903   1.893   2.828  2.7820  0.9422 -0.1444
  964SOL     MW 3856   1.855   1.948   2.775  0.5472  0.3973  0.1890
  965SOL     OW 3857   2.214   2.654   0.699 -0.1270 -1.1288  0.5417
  965SOL    HW1 3858   2.213   2.564   0.669  0.4385 -0.2898  0.4889
  965SOL    HW2 3859   2.293   2.665   0.758 -1.5178 -4.6096  1.1754
  965SOL     MW 3860   2.224   2.644   0.703 -0.2359 -1.4774  0.6183
  966SOL     OW 3861   2.672   2.606   2.388 -0.0630 -0.2251  0.8766
  966SOL    HW1 3862   2.588   2.610   2.344  2.1017  0.3734  3.3896
  966SOL    HW2 3863   2.690   2.515   2.405  1.1108  1.0377 -1.3491
  966SOL     MW 3864   2.663   2.595   2.384  0.3775  0.0205  0.9145
  967SOL     OW 3865   2.814   3.026   2.952 -0.1739 -0.7539  0.2471
  967SOL    HW1 3866   2.778   2.956   3.010 -3.1160  2.4095 -1.8523
  967SOL    HW2 3867   2.742   3.036   2.882 -0.5663 -2.1448 -2.3131
  967SOL     MW 3868   2.799   3.018   2.950 -0.6139 -0.5200 -0.3677
  968SOL     OW 3869   3.045   2.633   2.976  0.3674  0.3895 -0.6234
  968SOL    HW1 3870   2.980   2.681   2.928  1.8681  0.7273  0.7819
  968SOL    HW2 3871   3.090   2.598   2.900 -0.2736 -1.2696  0.2599
  968SOL     MW 3872   3.043   2.635   2.959  0.4808  0.2152 -0.3214
  969SOL     OW 3873   1.608   2.223   1.680 -0.2589  0.0670  0.3194
  969SOL    HW1 3874   1.678   2.159   1.707 -0.6156 -1.2081 -0.9646
  969SOL    HW2 3875   1.552   2.228   1.753  0.9987  0.9167 -1.1816
  969SOL     MW 3876   1.610   2.216   1.693 -0.1400  0.0108 -0.0480
  970SOL     OW 3877   1.807   1.823   1.926  0.1782  0.1209  0.1040
  970SOL    HW1 3878   1.850   1.762   1.992  0.7688 -1.5327 -2.6905
  970SOL    HW2 3879   1.723   1.778   1.914 -1.3064  0.5146  4.3594
  970SOL     MW 3880   1.802   1.809   1.933  0.0602 -0.0453  0.2967
  971SOL     OW 3881   1.752   3.056   2.392 -0.6291  0.7856 -1.0848
  971SOL    HW1 3882   1.794   3.028   2.310 -0.7576  1.5506  1.3981
  971SOL    HW2 3883   1.768   3.148   2.387 -1.5755  3.9982 -0.3309
  971SOL     MW 3884   1.760   3.065   2.380 -0.7709  1.3104 -0.6577
  972SOL     OW 3885   0.281   2.840   2.425  0.7089  0.8645 -0.8959
  972SOL    HW1 3886   0.354   2.781   2.439  2.1679 -0.8941  0.6537
  972SOL    HW2 3887   0.315   2.930   2.449 -0.8684  0.8361 -0.2351
  972SOL     MW 3888   0.295   2.844   2.430  0.6933  0.6287 -0.6043
  973SOL     OW 3889   2.580   3.040   2.143 -0.4626  0.0554 -0.1420
  973SOL    HW1 3890   2.559   2.951   2.105  0.7903  1.8274 -1.2921
  973SOL    HW2 3891   2.601   3.089   2.060  0.4171 -0.6695 -2.0308
  973SOL     MW 3892   2.580   3.035   2.127 -0.1812  0.1936 -0.5430
  974SOL     OW 3893   1.947   0.134   2.614 -0.4429  0.0954 -0.3865
  974SOL    HW1 3894   2.033   0.152   2.656 -0.5051 -1.4073 -0.0383
  974SOL    HW2 3895   1.924   0.046   2.640 -0.8575 -1.0842 -0.6194
  974SOL     MW 3896   1.955   0.125   2.623 -0.5058 -0.2585 -0.3713
  975SOL     OW 3897   2.218   2.487   2.501  0.2002 -0.2508  0.0719
  975SOL    HW1 3898   2.296   2.540   2.525  0.4240  3.0495 -3.2100
  975SOL    HW2 3899   2.150   2.556   2.481  1.1643  0.7040 -1.1442
  975SOL     MW 3900   2.219   2.503   2.502  0.3569  0.3106 -0.5215
  976SOL     OW 3901   0.167   0.377   1.688 -0.1257 -0.4119 -0.5203
  976SOL    HW1 3902   0.232   0.319   1.734  0.3910 -2.2684  2.4846
  976SOL    HW2 3903   0.086   0.322   1.678  0.0080  2.1338  0.9559
  976SOL     MW 3904   0.165   0.362   1.693 -0.0399 -0.3210  0.0710
  977SOL     OW 3905   1.703   2.718   2.418 -0.3338  0.7659 -0.6170
  977SOL    HW1 3906   1.786   2.670   2.412 -1.4569  0.0832 -1.3989
  977SOL    HW2 3907   1.721   2.803   2.382  5.0764 -0.6642  0.5878
  977SOL     MW 3908   1.716   2.723   2.413  0.2318  0.4871 -0.5612
   3.10000   3.10000   3.10000
