977 TIP4P/2005f water molecules t=   1.52000 step= 1520
 3908
    1SOL     OW    1   0.369   0.843   0.078  0.3881 -0.6970  0.3650
    1SOL    HW1    2   0.333   0.826  -0.011 -1.2664  1.9100 -1.5643
    1SOL    HW2    3   0.384   0.758   0.122  4.2791  0.0188  0.6055
    1SOL     MW    4   0.367   0.830   0.072  0.6832 -0.2586  0.1422
    2SOL     OW    5   0.304   3.030   1.096  0.1221 -0.0811 -0.2312
    2SOL    HW1    6   0.352   3.105   1.058  2.0657 -0.0331 -1.8552
    2SOL    HW2    7   0.210   3.046   1.092  1.0665 -3.4600  1.2841
    2SOL     MW    8   0.298   3.042   1.090  0.5031 -0.5206 -0.2455
    3SOL     OW    9   2.628   0.336   0.968  0.3861 -0.0518  0.1335
    3SOL    HW1   10   2.696   0.394   0.930 -1.6787 -3.7503  3.4252
    3SOL    HW2   11   2.620   0.352   1.060 -1.9269 -0.3764 -0.0087
    3SOL     MW   12   2.636   0.345   0.975 -0.1915 -0.5826  0.5491
    4SOL     OW   13   3.033   1.715   0.528 -1.1345  0.1645 -0.0706
    4SOL    HW1   14   2.959   1.760   0.490  0.3384 -0.5315 -0.4107
    4SOL    HW2   15   3.077   1.664   0.463 -0.7043 -2.1419  0.8846
    4SOL     MW   16   3.029   1.714   0.514 -0.8834 -0.2316  0.0106
    5SOL     OW   17   1.633   1.445   0.639  0.0658 -0.7650 -0.1802
    5SOL    HW1   18   1.677   1.417   0.719  2.7008 -0.6646  2.5474
    5SOL    HW2   19   1.532   1.459   0.652 -1.3330 -0.5647  0.5415
    5SOL     MW   20   1.625   1.444   0.651  0.2289 -0.7253  0.2749
    6SOL     OW   21   0.780   1.433   0.587  0.0364  0.0681  0.1288
    6SOL    HW1   22   0.683   1.423   0.564 -2.1295 -0.8292 -0.2499
    6SOL    HW2   23   0.802   1.367   0.649 -1.2772  0.6063 -1.1878
    6SOL     MW   24   0.770   1.423   0.592 -0.4227  0.0207 -0.0949
    7SOL     OW   25   1.963   1.045   0.034 -0.5002 -0.2482  0.3048
    7SOL    HW1   26   2.031   1.114   0.011  2.9206  0.1494  1.4708
    7SOL    HW2   27   1.963   1.031   0.129 -4.9424 -1.2304  0.3441
    7SOL     MW   28   1.972   1.052   0.044 -0.6350 -0.3253  0.4638
    8SOL     OW   29   0.776   1.496   1.150  0.1053 -0.3422 -0.0974
    8SOL    HW1   30   0.870   1.492   1.132 -1.2647  1.3251 -2.8497
    8SOL    HW2   31   0.776   1.414   1.201  1.1034 -0.1339  1.4378
    8SOL     MW   32   0.788   1.485   1.155  0.0562 -0.0947 -0.2580
    9SOL     OW   33   1.015   0.476   1.308 -0.5430  0.1380  0.1762
    9SOL    HW1   34   0.964   0.409   1.270  1.6626  1.8556 -0.5538
    9SOL    HW2   35   1.049   0.454   1.399  0.7355  0.3742 -0.4725
    9SOL     MW   36   1.012   0.464   1.315 -0.0833  0.3958 -0.0057
   10SOL     OW   37   0.281   0.866   0.503  0.1396  0.0525 -0.3030
   10SOL    HW1   38   0.373   0.897   0.481 -0.0587 -0.4583  1.0518
   10SOL    HW2   39   0.256   0.933   0.565 -0.1806  1.2174 -3.8478
   10SOL     MW   40   0.290   0.879   0.508  0.0712  0.1388 -0.5920
   11SOL     OW   41   0.766   1.129   1.558  0.5366 -0.2011 -0.2276
   11SOL    HW1   42   0.828   1.123   1.635 -1.7256 -0.9484 -2.1935
   11SOL    HW2   43   0.799   1.065   1.485  3.2352  1.8828  0.2506
   11SOL     MW   44   0.779   1.120   1.559  0.5942 -0.0247 -0.4239
   12SOL     OW   45   3.087   1.119   0.856 -0.2499 -0.5863 -0.0211
   12SOL    HW1   46   3.142   1.183   0.899 -0.9275 -0.7551 -0.0275
   12SOL    HW2   47   3.030   1.165   0.785 -1.6006  0.1473  0.6234
   12SOL     MW   48   3.087   1.134   0.852 -0.5175 -0.5118  0.0631
   13SOL     OW   49   1.844   1.426   1.286 -0.3677  0.3321  0.0464
   13SOL    HW1   50   1.850   1.373   1.203  0.4847  0.3990 -1.9818
   13SOL    HW2   51   1.907   1.493   1.279  1.7963 -1.6092  0.7062
   13SOL     MW   52   1.853   1.428   1.274  0.0303  0.0848 -0.1341
   14SOL     OW   53   0.549   0.358   1.859 -0.8482  0.4621 -1.2005
   14SOL    HW1   54   0.474   0.296   1.848 -0.3087  2.7189  1.6908
   14SOL    HW2   55   0.592   0.360   1.774  2.8651 -1.8265 -0.7580
   14SOL     MW   56   0.544   0.350   1.846 -0.2871  0.4579 -0.7607
   15SOL     OW   57   2.004   0.385   1.073 -0.0309  0.3270 -0.2437
   15SOL    HW1   58   1.952   0.455   1.112 -2.5842  0.4913 -1.8651
   15SOL    HW2   59   2.052   0.411   0.997  1.0846 -0.2557  0.2398
   15SOL     MW   60   2.003   0.397   1.068 -0.2206  0.2718 -0.3938
   16SOL     OW   61   0.281   1.838   0.249  0.6861  0.2151  0.4695
   16SOL    HW1   62   0.373   1.831   0.266  0.1105  0.3799  0.1775
   16SOL    HW2   63   0.255   1.930   0.277 -0.0569 -0.5398  0.3818
   16SOL     MW   64   0.290   1.850   0.255  0.5121  0.1373  0.4194
   17SOL     OW   65   1.105   0.903   1.407  0.5137 -0.2359  0.1537
   17SOL    HW1   66   1.118   0.883   1.497  0.2131 -0.3597 -1.5257
   17SOL    HW2   67   1.012   0.897   1.386  0.5300 -2.0740  0.9800
   17SOL     MW   68   1.095   0.899   1.416  0.4762 -0.4948  0.0412
   18SOL     OW   69   0.116   1.603   0.331  0.0622  0.2033 -0.2428
   18SOL    HW1   70   0.170   1.683   0.311  4.3910  1.2420 -2.1291
   18SOL    HW2   71   0.088   1.571   0.241 -1.8812 -0.5008 -3.4374
   18SOL     MW   72   0.119   1.609   0.316  0.3769  0.2475 -0.9132
   19SOL     OW   73   0.092   1.350   0.934  0.2038  0.0348  0.6152
   19SOL    HW1   74   0.142   1.367   0.851 -0.4435  0.7719  1.6144
   19SOL    HW2   75   0.017   1.401   0.919  2.8484 -2.3030 -1.6283
   19SOL     MW   76   0.089   1.359   0.921  0.4673 -0.1764  0.4511
   20SOL     OW   77   0.450   2.149   1.244  0.4373 -0.5476  0.4493
   20SOL    HW1   78   0.392   2.081   1.201 -1.5312 -2.3794  0.3388
   20SOL    HW2   79   0.412   2.138   1.330  0.3688 -1.4486 -1.3024
   20SOL     MW   80   0.438   2.139   1.250  0.1685 -0.9081  0.2036
   21SOL     OW   81   0.537   0.875   0.433 -0.2054 -0.1650 -0.0880
   21SOL    HW1   82   0.600   0.824   0.480  2.4251  1.5840  0.1526
   21SOL    HW2   83   0.583   0.880   0.345  1.3971 -4.1147 -2.6872
   21SOL     MW   84   0.551   0.869   0.428  0.3531 -0.4554 -0.3992
   22SOL     OW   85   1.557   0.697   0.988 -0.5097 -0.0141  0.5200
   22SOL    HW1   86   1.536   0.640   0.917 -0.0458 -0.2885 -1.8017
   22SOL    HW2   87   1.478   0.752   1.004 -0.7919 -0.7637 -1.2990
   22SOL     MW   88   1.544   0.697   0.981 -0.4857 -0.1492 -0.0263
   23SOL     OW   89   0.005   0.749   0.712 -0.2662  0.8121 -0.4443
   23SOL    HW1   90   0.053   0.689   0.769  0.6473  1.4637 -0.0107
   23SOL    HW2   91   0.063   0.827   0.715  0.1293 -1.8412  1.8797
   23SOL     MW   92   0.019   0.752   0.720 -0.0935  0.5480 -0.0805
   24SOL     OW   93   2.089   2.183   0.020 -0.0560 -0.5273 -0.0813
   24SOL    HW1   94   2.078   2.170   0.118  1.9321  2.0835 -1.6552
   24SOL    HW2   95   2.065   2.099  -0.015  0.6929 -0.6154 -1.0212
   24SOL     MW   96   2.084   2.170   0.029  0.3052 -0.1944 -0.4129
   25SOL     OW   97   0.202   1.351   0.442 -0.3937  0.6971  0.3221
   25SOL    HW1   98   0.174   1.432   0.396 -1.4201  0.3727  0.0578
   25SOL    HW2   99   0.252   1.309   0.370  3.4547  1.3857 -0.1952
   25SOL     MW  100   0.205   1.356   0.426 -0.0214  0.7452  0.2189
   26SOL     OW  101   2.009   1.001   0.303 -0.2134  0.0596 -0.3806
   26SOL    HW1  102   1.958   1.029   0.380  2.7089  2.6226 -0.9995
   26SOL    HW2  103   2.080   1.060   0.307 -3.5153 -1.7748  0.7655
   26SOL     MW  104   2.012   1.013   0.313 -0.2635  0.1557 -0.3110
   27SOL     OW  105   1.875   1.334   0.165  0.3533 -0.0491  0.4643
   27SOL    HW1  106   1.809   1.400   0.184  0.4917 -1.2541 -0.6639
   27SOL    HW2  107   1.940   1.341   0.233  0.3284 -0.5266  1.4961
   27SOL     MW  108   1.875   1.344   0.177  0.3683 -0.2711  0.4516
   28SOL     OW  109   0.419   0.941   1.992 -0.3920 -0.6354  0.2217
   28SOL    HW1  110   0.470   0.917   2.067 -1.2899 -1.0952 -1.0386
   28SOL    HW2  111   0.327   0.930   2.008  1.8465  0.2104  0.5982
   28SOL     MW  112   0.413   0.936   2.004 -0.2151 -0.5844  0.1051
   29SOL     OW  113   0.246   1.379   0.713 -0.5588 -0.0468 -0.3004
   29SOL    HW1  114   0.247   1.472   0.722 -2.2048 -1.4610 -1.2505
   29SOL    HW2  115   0.257   1.359   0.622  1.2911  1.0106  0.9311
   29SOL     MW  116   0.248   1.389   0.702 -0.5319 -0.0939 -0.2633
   30SOL     OW  117   0.809   1.244   1.257 -0.5624 -0.1458  0.2686
   30SOL    HW1  118   0.725   1.228   1.300 -0.7857  1.1926 -0.9051
   30SOL    HW2  119   0.880   1.222   1.319  0.6454  1.0233 -4.7260
   30SOL     MW  120   0.807   1.239   1.271 -0.4325  0.1850 -0.5452
   31SOL     OW  121   0.462   0.290   0.167  0.6964 -0.1697  0.4688
   31SOL    HW1  122   0.482   0.224   0.232  2.4593  1.3905  1.5802
   31SOL    HW2  123   0.497   0.239   0.091  0.9823 -0.3123  0.0709
   31SOL     MW  124   0.469   0.275   0.166  0.9667  0.0173  0.5629
   32SOL     OW  125   2.706   1.000   1.124  0.1588 -0.0298 -0.7842
   32SOL    HW1  126   2.667   0.914   1.130  3.1614  2.5192 -1.4432
   32SOL    HW2  127   2.802   0.982   1.115  1.2826  1.6832  2.5136
   32SOL     MW  128   2.713   0.986   1.123  0.7032  0.5325 -0.4360
   33SOL     OW  129   1.661   1.285   0.393  0.1402 -0.2139 -0.3647
   33SOL    HW1  130   1.750   1.251   0.410 -2.1003 -0.2094 -1.0803
   33SOL    HW2  131   1.648   1.336   0.472  1.5398 -0.6502  1.3187
   33SOL     MW  132   1.671   1.287   0.405  0.0292 -0.2709 -0.2370
   34SOL     OW  133   1.221   1.921   1.168 -0.1840 -0.2391  0.2503
   34SOL    HW1  134   1.138   1.966   1.169 -2.0430 -0.0295 -2.8973
   34SOL    HW2  135   1.298   1.973   1.208  2.1458  0.4172  1.8864
   34SOL     MW  136   1.220   1.934   1.173 -0.1219 -0.1248  0.0508
   35SOL     OW  137   0.341   0.141   1.829  0.4209 -0.2436 -0.2512
   35SOL    HW1  138   0.368   0.093   1.910  0.2603 -2.3013 -2.4131
   35SOL    HW2  139   0.347   0.081   1.757  1.4068  1.5354  0.7164
   35SOL     MW  140   0.345   0.127   1.830  0.5298 -0.2804 -0.4087
   36SOL     OW  141   1.938   1.950   0.575 -0.1567  0.1062 -0.2921
   36SOL    HW1  142   1.904   1.909   0.496 -0.0145  0.8623  1.4409
   36SOL    HW2  143   1.915   1.884   0.633  0.2477 -0.5581 -1.6796
   36SOL     MW  144   1.930   1.936   0.573 -0.0846  0.1183 -0.2465
   37SOL     OW  145   1.837   2.045   1.039 -0.2485  0.4212 -0.3848
   37SOL    HW1  146   1.775   2.006   0.976  1.0096 -0.3069 -1.2934
   37SOL    HW2  147   1.786   2.095   1.106  0.9332  0.3784  4.6789
   37SOL     MW  148   1.822   2.047   1.039  0.0734  0.3195  0.1634
   38SOL     OW  149   2.859   0.939   0.172 -0.0631  0.4327 -0.1917
   38SOL    HW1  150   2.851   0.953   0.267  0.8382 -0.9974  0.0989
   38SOL    HW2  151   2.943   0.886   0.157  1.8948  1.3986  0.4792
   38SOL     MW  152   2.869   0.934   0.183  0.3142  0.3715 -0.0649
   39SOL     OW  153   1.474   0.597   0.755 -0.1732 -0.0361  0.3675
   39SOL    HW1  154   1.423   0.518   0.779 -1.1272  0.0375 -0.5223
   39SOL    HW2  155   1.414   0.665   0.743 -1.7315 -2.4544  0.5889
   39SOL     MW  156   1.459   0.596   0.757 -0.5046 -0.3454  0.2793
   40SOL     OW  157   1.276   1.881   0.269 -0.4625 -0.3532  0.3518
   40SOL    HW1  158   1.348   1.819   0.298  0.9488 -1.9718 -1.8024
   40SOL    HW2  159   1.254   1.938   0.341  1.7220 -1.4972  0.8165
   40SOL     MW  160   1.283   1.880   0.282  0.0119 -0.7177  0.1289
   41SOL     OW  161   0.547   0.544   1.615 -0.2461  0.1700 -0.1027
   41SOL    HW1  162   0.631   0.568   1.569  0.8178  0.4527 -0.4427
   41SOL    HW2  163   0.479   0.613   1.584 -2.0170 -3.1394  0.6407
   41SOL     MW  164   0.549   0.556   1.605 -0.3394 -0.2294 -0.0495
   42SOL     OW  165   1.246   2.985   1.942 -0.6383 -0.3263  0.1233
   42SOL    HW1  166   1.159   2.974   1.976  1.0643 -3.8564 -0.0638
   42SOL    HW2  167   1.291   2.909   1.982  0.9285  0.4764  1.0758
   42SOL     MW  168   1.240   2.973   1.952 -0.2069 -0.6861  0.2242
   43SOL     OW  169   1.483   0.125   1.684 -0.3595  0.0322  0.0591
   43SOL    HW1  170   1.565   0.100   1.651 -0.4702  2.4540 -1.9350
   43SOL    HW2  171   1.410   0.065   1.671 -0.2570 -1.1670  0.6234
   43SOL     MW  172   1.484   0.114   1.678 -0.3606  0.1935 -0.1296
   44SOL     OW  173   1.256   0.778   1.056 -0.3799  0.2208  0.0260
   44SOL    HW1  174   1.255   0.876   1.068  0.0314  1.0130  1.1540
   44SOL    HW2  175   1.281   0.757   1.147  0.2327 -0.2911  0.8984
   44SOL     MW  176   1.259   0.788   1.070 -0.2448  0.2578  0.2899
   45SOL     OW  177   1.278   0.787   0.764  0.0815  0.5946 -0.0433
   45SOL    HW1  178   1.253   0.759   0.851  1.3863  0.7518  1.1810
   45SOL    HW2  179   1.221   0.729   0.707 -0.8814 -0.0569 -1.6015
   45SOL     MW  180   1.267   0.776   0.768  0.1266  0.5294 -0.0874
   46SOL     OW  181   0.497   1.073   0.644 -0.4018 -0.1010  0.1445
   46SOL    HW1  182   0.524   1.091   0.552  1.8134 -0.9037  1.8390
   46SOL    HW2  183   0.549   1.139   0.695  0.3709 -0.8838 -1.1469
   46SOL     MW  184   0.508   1.084   0.639 -0.0076 -0.3102  0.1977
   47SOL     OW  185   0.144   1.995   1.909 -0.0684  0.9919 -0.9812
   47SOL    HW1  186   0.098   1.928   1.854  1.1429  0.4277 -0.0564
   47SOL    HW2  187   0.115   1.967   1.993 -0.0782  1.0940  1.8012
   47SOL     MW  188   0.134   1.982   1.913  0.0901  0.9309 -0.4921
   48SOL     OW  189   1.174   0.503   1.029  0.0364  0.2647  0.0124
   48SOL    HW1  190   1.087   0.508   1.000 -0.2114 -1.0418  1.6124
   48SOL    HW2  191   1.207   0.597   1.040 -0.2572  1.9873  1.2773
   48SOL     MW  192   1.167   0.516   1.027 -0.0351  0.3196  0.3904
   49SOL     OW  193   1.696   0.659   1.550 -0.1935  0.1974 -0.2133
   49SOL    HW1  194   1.738   0.604   1.617  0.4110  1.5792 -0.9178
   49SOL    HW2  195   1.710   0.614   1.467  1.3132  0.0401 -0.7157
   49SOL     MW  196   1.703   0.646   1.548  0.0850  0.3590 -0.3725
   50SOL     OW  197   1.273   1.235   0.594 -0.3088 -0.2518 -0.1147
   50SOL    HW1  198   1.223   1.223   0.671 -0.7060  0.5861  2.1783
   50SOL    HW2  199   1.346   1.180   0.608  1.4054 -1.2881  2.2748
   50SOL     MW  200   1.276   1.226   0.606 -0.1350 -0.2779  0.5031
   51SOL     OW  201   0.319   2.894   0.845  0.1497 -0.5672 -0.0789
   51SOL    HW1  202   0.402   2.839   0.851 -0.6566 -1.4780 -2.7249
   51SOL    HW2  203   0.320   2.915   0.937 -2.5850 -0.7635  0.1459
   51SOL     MW  204   0.330   2.890   0.858 -0.3175 -0.7133 -0.3984
   52SOL     OW  205   0.814   1.816   0.461 -0.0901 -0.4052  0.1727
   52SOL    HW1  206   0.788   1.910   0.470 -0.7440 -1.1939 -1.1526
   52SOL    HW2  207   0.832   1.802   0.368  0.9857  0.0410 -0.4476
   52SOL     MW  208   0.813   1.826   0.450 -0.0344 -0.4504 -0.0840
   53SOL     OW  209   0.444   2.179   0.511  0.0738 -0.2993  0.1374
   53SOL    HW1  210   0.357   2.176   0.473 -0.0463  1.6572 -2.5754
   53SOL    HW2  211   0.462   2.274   0.547  0.3396 -1.4494 -0.2910
   53SOL     MW  212   0.435   2.191   0.511  0.0930 -0.1929 -0.2771
   54SOL     OW  213   2.046   0.969   0.726 -0.4552  0.2479 -0.3576
   54SOL    HW1  214   2.108   0.961   0.652 -0.5249  1.5450 -0.1975
   54SOL    HW2  215   2.014   0.885   0.754 -1.5589  0.6345 -1.9091
   54SOL     MW  216   2.050   0.957   0.720 -0.6100  0.4701 -0.5412
   55SOL     OW  217   0.473   1.525   1.679 -0.3734 -0.6163 -0.3257
   55SOL    HW1  218   0.468   1.585   1.610  1.1760 -0.6740  1.8446
   55SOL    HW2  219   0.540   1.468   1.649 -1.5922  0.2248 -0.7013
   55SOL     MW  220   0.481   1.525   1.666 -0.3298 -0.5129 -0.0889
   56SOL     OW  221   0.647   0.890   0.182 -0.0173  0.0845 -0.3419
   56SOL    HW1  222   0.670   0.982   0.158 -2.0497  0.9672  3.9205
   56SOL    HW2  223   0.555   0.893   0.160 -0.4062  0.2939 -0.6948
   56SOL     MW  224   0.638   0.903   0.176 -0.3368  0.2286  0.1739
   57SOL     OW  225   1.128   1.256   1.130 -0.5338 -0.1447 -0.2138
   57SOL    HW1  226   1.218   1.304   1.130 -1.7706  1.5069 -2.5614
   57SOL    HW2  227   1.082   1.247   1.217 -2.8021 -0.7792 -1.3188
   57SOL     MW  228   1.134   1.261   1.142 -0.9963 -0.0105 -0.6694
   58SOL     OW  229   0.482   1.253   1.259 -0.7009 -0.2418  0.2089
   58SOL    HW1  230   0.473   1.345   1.231  0.9020 -0.6872 -0.4034
   58SOL    HW2  231   0.484   1.246   1.350 -1.6863 -0.6318 -1.3259
   58SOL     MW  232   0.481   1.264   1.267 -0.6195 -0.3520 -0.0744
   59SOL     OW  233   1.441   1.690   0.351 -0.2547  0.7457  0.6678
   59SOL    HW1  234   1.496   1.702   0.429  1.3089 -0.4555  1.9462
   59SOL    HW2  235   1.364   1.651   0.392 -0.1879 -2.3755  2.0105
   59SOL     MW  236   1.438   1.686   0.367 -0.0396  0.1754  1.0136
   60SOL     OW  237   3.058   0.190   1.690  0.4932  0.0652 -0.6655
   60SOL    HW1  238   2.973   0.227   1.725 -0.6609  2.4595 -0.9050
   60SOL    HW2  239   3.053   0.092   1.701  1.1004  2.3153 -0.4885
   60SOL     MW  240   3.046   0.182   1.696  0.4210  0.6779 -0.6738
   61SOL     OW  241   1.968   1.398   3.004  0.1997  0.0842 -0.7390
   61SOL    HW1  242   1.968   1.389   3.102  1.9477 -0.2958  1.4402
   61SOL    HW2  243   2.019   1.331   2.958 -1.8292  1.1333  0.9732
   61SOL     MW  244   1.975   1.388   3.011  0.1627  0.1725 -0.2256
   62SOL     OW  245   0.564   1.727   0.594  0.7226 -0.0219  0.3235
   62SOL    HW1  246   0.657   1.735   0.567  1.8073 -1.6760  0.3367
   62SOL    HW2  247   0.550   1.634   0.580 -0.0085 -2.5742 -1.1954
   62SOL     MW  248   0.575   1.716   0.589  0.7692 -0.5769  0.1249
   63SOL     OW  249   1.734   0.673   0.649  0.3370  0.1918 -0.1763
   63SOL    HW1  250   1.724   0.769   0.627  0.8203  0.1475 -0.7512
   63SOL    HW2  251   1.643   0.653   0.685 -0.0923  2.8799  0.8048
   63SOL     MW  252   1.721   0.683   0.651  0.3441  0.5407 -0.1227
   64SOL     OW  253   0.229   1.650   0.762 -0.2588 -0.0253  0.1175
   64SOL    HW1  254   0.297   1.711   0.739 -2.3873  1.9207 -2.7053
   64SOL    HW2  255   0.154   1.708   0.770  2.5981  2.2580  0.1199
   64SOL     MW  256   0.228   1.666   0.760 -0.1627  0.5327 -0.2546
   65SOL     OW  257   1.509   2.318   0.348 -0.3308 -0.1472 -0.0904
   65SOL    HW1  258   1.599   2.330   0.369 -1.0994  2.4084 -0.2008
   65SOL    HW2  259   1.467   2.361   0.423 -1.0462  1.8454  2.8485
   65SOL     MW  260   1.515   2.325   0.361 -0.5266  0.4529  0.2828
   66SOL     OW  261   0.340   0.588   0.475  0.5864  0.6264  0.1684
   66SOL    HW1  262   0.391   0.569   0.398  1.7096  2.5917  0.6932
   66SOL    HW2  263   0.315   0.685   0.485 -1.2151 -1.0507  0.8131
   66SOL     MW  264   0.343   0.598   0.466  0.4969  0.6644  0.3227
   67SOL     OW  265   1.476   0.068   1.977  0.3925 -0.2156  0.4821
   67SOL    HW1  266   1.492   0.100   1.891 -0.6535 -2.2877 -1.8254
   67SOL    HW2  267   1.427  -0.016   1.970 -1.6236  2.4352  0.9840
   67SOL     MW  268   1.472   0.061   1.965 -0.0115 -0.1392  0.2439
   68SOL     OW  269   0.799   3.086   2.978  0.4703 -0.3731  0.4615
   68SOL    HW1  270   0.782   3.142   2.900 -3.2637  0.9080  3.7455
   68SOL    HW2  271   0.873   3.121   3.023  1.2578 -0.3616  0.7467
   68SOL     MW  272   0.806   3.098   2.973  0.0815 -0.2025  0.9325
   69SOL     OW  273   0.970   0.215   1.956  0.4324  0.2074 -0.2209
   69SOL    HW1  274   1.064   0.215   1.972  0.4259  0.4343 -3.4091
   69SOL    HW2  275   0.940   0.125   1.972  0.6822  2.5269  2.6190
   69SOL     MW  276   0.979   0.203   1.960  0.4645  0.5433 -0.2668
   70SOL     OW  277   0.496   1.750   1.064 -0.2377  0.4789 -0.1085
   70SOL    HW1  278   0.578   1.798   1.078  1.3095 -0.1861  1.1123
   70SOL    HW2  279   0.532   1.683   1.003  3.5115  3.4823  2.0098
   70SOL     MW  280   0.512   1.747   1.058  0.4611  0.7874  0.3321
   71SOL     OW  281   1.478   0.534   1.190  0.0370  0.1838  0.2126
   71SOL    HW1  282   1.458   0.592   1.263  1.6244 -0.8220  2.5737
   71SOL    HW2  283   1.508   0.585   1.114  1.8874 -0.2717  1.5484
   71SOL     MW  284   1.480   0.549   1.189  0.4905 -0.0090  0.7004
   72SOL     OW  285   0.741   1.854   1.031  0.3528 -0.1513 -0.1425
   72SOL    HW1  286   0.700   1.901   0.960 -0.1687  1.0057  0.5823
   72SOL    HW2  287   0.774   1.777   0.988 -1.4571  1.6465 -0.2108
   72SOL     MW  288   0.740   1.850   1.016  0.0452  0.2386 -0.0559
   73SOL     OW  289   1.220   0.677   1.342 -0.1337  0.3284 -0.3217
   73SOL    HW1  290   1.157   0.606   1.311 -3.7737 -3.3333  0.3291
   73SOL    HW2  291   1.157   0.754   1.347 -2.3182 -1.4798 -1.2549
   73SOL     MW  292   1.203   0.678   1.339 -0.9022 -0.3933 -0.3589
   74SOL     OW  293   2.881   0.169   1.033 -0.5653 -0.6277 -0.5364
   74SOL    HW1  294   2.969   0.172   0.998 -2.8376 -3.7317 -0.8913
   74SOL    HW2  295   2.830   0.222   0.974  2.2977  1.5435  1.4488
   74SOL     MW  296   2.886   0.177   1.020 -0.4874 -0.7507 -0.3213
   75SOL     OW  297   1.587   1.346   0.147 -0.1633 -0.1604  0.7556
   75SOL    HW1  298   1.650   1.282   0.122 -0.5958  0.9711  0.3695
   75SOL    HW2  299   1.597   1.340   0.247  0.4776  1.3897 -0.7902
   75SOL     MW  300   1.596   1.337   0.157 -0.1358  0.1934  0.5007
   76SOL     OW  301   2.991   0.631   0.463  0.2283 -0.1470  0.5715
   76SOL    HW1  302   3.034   0.647   0.549  2.6129 -1.0153 -0.4119
   76SOL    HW2  303   3.058   0.576   0.414 -2.0073  0.3445  0.9345
   76SOL     MW  304   3.005   0.626   0.468  0.2479 -0.1967  0.4897
   77SOL     OW  305   0.872   0.600   0.416  0.0274 -0.1510  0.5040
   77SOL    HW1  306   0.827   0.627   0.336  1.9726 -0.0714  0.2012
   77SOL    HW2  307   0.861   0.507   0.410  0.3804  0.4670 -3.0270
   77SOL     MW  308   0.865   0.591   0.405  0.3306 -0.0590 -0.0018
   78SOL     OW  309   0.729   0.852   1.124  0.3668 -0.2077 -0.8685
   78SOL    HW1  310   0.737   0.945   1.088 -1.1809 -0.5571  0.4256
   78SOL    HW2  311   0.641   0.854   1.160  2.0623  0.2416  4.1495
   78SOL     MW  312   0.718   0.865   1.124  0.3863 -0.1945 -0.0357
   79SOL     OW  313   1.858   1.591   0.572  0.2696 -0.7458 -0.4999
   79SOL    HW1  314   1.772   1.548   0.574 -3.6679 -0.6750  1.7272
   79SOL    HW2  315   1.876   1.616   0.662  1.0905  0.8926  1.7488
   79SOL     MW  316   1.849   1.589   0.584 -0.1416 -0.5203  0.0906
   80SOL     OW  317   0.090   0.979   0.358  0.1886 -0.1025 -0.2927
   80SOL    HW1  318   0.007   0.939   0.383 -1.7810 -2.4536 -1.6649
   80SOL    HW2  319   0.161   0.939   0.408  0.9686  2.7389  0.0088
   80SOL     MW  320   0.089   0.968   0.368  0.0316 -0.0378 -0.4340
   81SOL     OW  321   1.822   1.838   0.333 -0.3887  0.2280 -0.1364
   81SOL    HW1  322   1.784   1.759   0.304  1.0071  1.6279  1.3644
   81SOL    HW2  323   1.783   1.905   0.276 -1.7095 -1.5790  0.6624
   81SOL     MW  324   1.812   1.836   0.322 -0.3788  0.1743  0.1670
   82SOL     OW  325   0.884   1.018   0.518  0.2923  0.0852 -0.0375
   82SOL    HW1  326   0.847   1.042   0.430 -2.9065 -0.2819  1.1875
   82SOL    HW2  327   0.841   0.938   0.554  0.9584  1.0076  0.8573
   82SOL     MW  328   0.873   1.010   0.511 -0.0419  0.1585  0.2422
   83SOL     OW  329   0.035   0.777   1.522  0.0301  0.0323  1.0349
   83SOL    HW1  330   0.020   0.811   1.434  1.3309 -1.1757 -1.6410
   83SOL    HW2  331   0.101   0.706   1.510  2.7580 -1.8297  0.7752
   83SOL     MW  332   0.042   0.772   1.509  0.5616 -0.3727  0.6476
   84SOL     OW  333   0.048   0.201   0.914  0.2603  0.2999 -0.0492
   84SOL    HW1  334   0.024   0.291   0.946 -2.1609  1.0215 -0.2214
   84SOL    HW2  335   0.066   0.155   0.998 -0.4897 -0.4750  2.1234
   84SOL     MW  336   0.047   0.207   0.930 -0.1581  0.2928  0.2148
   85SOL     OW  337   0.402   0.463   0.718 -0.3978 -0.1592 -0.1831
   85SOL    HW1  338   0.374   0.492   0.632 -1.7172  1.0686  0.4281
   85SOL    HW2  339   0.386   0.370   0.724  1.8503  1.5507 -0.8958
   85SOL     MW  340   0.396   0.455   0.707 -0.2753  0.2284 -0.1965
   86SOL     OW  341   1.199   0.245   1.138  0.0605 -0.2023  0.1991
   86SOL    HW1  342   1.186   0.335   1.108  0.1499  0.0155 -1.3891
   86SOL    HW2  343   1.287   0.246   1.175 -2.6816  0.3996 -1.2324
   86SOL     MW  344   1.209   0.257   1.139 -0.2895 -0.0942 -0.1993
   87SOL     OW  345   1.045   1.511   1.198  0.0122  0.1158  0.2784
   87SOL    HW1  346   1.104   1.579   1.156 -0.6160 -0.5980  2.3583
   87SOL    HW2  347   1.060   1.429   1.151 -1.8804 -1.5103  0.4301
   87SOL     MW  348   1.055   1.509   1.186 -0.3204 -0.1930  0.5729
   88SOL     OW  349   1.252   1.053   1.026  0.0080  0.6124  0.3071
   88SOL    HW1  350   1.343   1.079   1.021  1.4975  2.8672 -0.2451
   88SOL    HW2  351   1.209   1.125   1.077 -0.6499  2.3748 -0.9266
   88SOL     MW  352   1.259   1.066   1.032  0.1177  1.1424  0.0715
   89SOL     OW  353   1.746   0.736   0.298 -0.5183 -0.1756 -0.5670
   89SOL    HW1  354   1.720   0.673   0.361 -0.2947  0.5029  0.0253
   89SOL    HW2  355   1.845   0.728   0.293 -0.4765 -0.0325 -1.4182
   89SOL     MW  356   1.755   0.727   0.305 -0.4833 -0.0672 -0.6011
   90SOL     OW  357   0.841   1.202   2.897 -0.2596  0.2661  0.5634
   90SOL    HW1  358   0.912   1.142   2.909 -0.0168 -1.0670 -1.8327
   90SOL    HW2  359   0.857   1.260   2.975 -1.1067  0.7790 -1.4955
   90SOL     MW  360   0.852   1.201   2.909 -0.3394  0.1579 -0.0244
   91SOL     OW  361   2.188   0.650   0.447 -0.0320 -0.6407 -0.1089
   91SOL    HW1  362   2.280   0.665   0.404  1.7152  0.5238 -2.0684
   91SOL    HW2  363   2.165   0.561   0.422 -0.7324  1.3310 -0.6034
   91SOL     MW  364   2.197   0.640   0.438  0.1061 -0.2269 -0.4327
   92SOL     OW  365   1.638   0.945   0.580 -0.2103  0.5106  0.1981
   92SOL    HW1  366   1.563   0.984   0.626 -0.7209  0.5456 -3.8159
   92SOL    HW2  367   1.603   0.914   0.496  0.6887  0.8161 -1.8357
   92SOL     MW  368   1.624   0.946   0.575 -0.1590  0.5555 -0.5999
   93SOL     OW  369   1.095   0.217   0.383 -0.6168  0.7324 -0.9407
   93SOL    HW1  370   1.009   0.244   0.420  2.9000 -0.4822  1.1167
   93SOL    HW2  371   1.106   0.261   0.295  0.1925 -1.5730 -1.2327
   93SOL     MW  372   1.085   0.226   0.376 -0.0460  0.2680 -0.7077
   94SOL     OW  373   1.833   1.367   1.539 -0.2370 -0.2580  0.3121
   94SOL    HW1  374   1.828   1.378   1.442 -0.7326 -0.5435 -1.7591
   94SOL    HW2  375   1.806   1.277   1.564 -0.0504 -2.3695 -2.1159
   94SOL     MW  376   1.829   1.357   1.529 -0.2778 -0.5742 -0.2815
   95SOL     OW  377   0.645   1.540   0.929  0.0462 -0.0801  0.4435
   95SOL    HW1  378   0.676   1.511   1.018 -4.1121 -0.8604 -1.7373
   95SOL    HW2  379   0.597   1.461   0.893 -2.6022  2.7455 -0.7534
   95SOL     MW  380   0.642   1.526   0.936 -0.8519  0.1897 -0.0022
   96SOL     OW  381   1.350   1.852   1.695 -0.1564  0.1738 -1.2941
   96SOL    HW1  382   1.264   1.872   1.742 -0.0832 -0.1919  0.1599
   96SOL    HW2  383   1.354   1.757   1.673  0.8745 -1.3646  1.6063
   96SOL     MW  384   1.339   1.842   1.698 -0.0108 -0.0775 -0.7196
   97SOL     OW  385   1.073   1.468   0.921 -0.0703 -0.0163  0.8010
   97SOL    HW1  386   1.117   1.543   0.964  2.2007  1.1883 -2.0796
   97SOL    HW2  387   0.990   1.505   0.887 -2.1042  1.7254  2.0690
   97SOL     MW  388   1.068   1.483   0.922 -0.0390  0.3724  0.5882
   98SOL     OW  389   1.367   1.355   1.159 -0.3131  0.3851  0.5027
   98SOL    HW1  390   1.394   1.385   1.247 -2.3728 -2.3339 -0.2897
   98SOL    HW2  391   1.402   1.419   1.099  0.9813 -1.1019 -1.1980
   98SOL     MW  392   1.376   1.367   1.163 -0.4140 -0.1699  0.1738
   99SOL     OW  393   1.444   0.282   1.269  0.4501 -0.0769  0.0816
   99SOL    HW1  394   1.456   0.376   1.238  2.5719 -2.9725  1.7934
   99SOL    HW2  395   1.464   0.282   1.363 -0.2510 -2.2401  2.5604
   99SOL     MW  396   1.448   0.294   1.277  0.6376 -0.7444  0.6345
  100SOL     OW  397   1.036   1.174   1.374  0.4841  0.1332 -0.6105
  100SOL    HW1  398   1.095   1.218   1.440  0.7012  0.6009 -0.3050
  100SOL    HW2  399   1.076   1.088   1.361  2.8200 -0.5864 -0.3630
  100SOL     MW  400   1.049   1.168   1.381  0.8209  0.1000 -0.5375
  101SOL     OW  401   0.533   1.198   0.383 -0.4095  0.3215  0.7939
  101SOL    HW1  402   0.457   1.146   0.351  1.0944  0.3875 -2.9547
  101SOL    HW2  403   0.591   1.179   0.310 -1.2665 -1.1283 -1.1060
  101SOL     MW  404   0.531   1.189   0.369 -0.3242  0.1389  0.0487
  102SOL     OW  405   2.899   0.666   1.066  0.0594 -0.2560  0.1109
  102SOL    HW1  406   2.939   0.758   1.065  0.8703  1.3294  0.0229
  102SOL    HW2  407   2.848   0.654   1.142  1.9285 -0.6124  2.4145
  102SOL     MW  408   2.898   0.676   1.076  0.4130 -0.0939  0.4033
  103SOL     OW  409   1.837   0.251   1.809  0.4089  0.3786  0.6825
  103SOL    HW1  410   1.841   0.160   1.775 -0.7275 -0.9220 -1.8630
  103SOL    HW2  411   1.843   0.250   1.906  0.7236  0.6834 -0.0007
  103SOL     MW  412   1.838   0.239   1.818  0.3005  0.2472  0.2565
  104SOL     OW  413   0.070   1.522   1.639 -0.3033  0.3895  0.3383
  104SOL    HW1  414   0.107   1.445   1.686  0.2735 -1.5775  1.7278
  104SOL    HW2  415  -0.024   1.505   1.663  2.9015 -0.0888 -0.3608
  104SOL     MW  416   0.063   1.510   1.648  0.1956  0.0668  0.4294
  105SOL     OW  417   3.068   1.220   0.410 -0.2914  0.2558 -0.0768
  105SOL    HW1  418   3.091   1.126   0.406 -0.1555  1.9203 -2.0603
  105SOL    HW2  419   3.148   1.259   0.437 -0.7795 -2.1886  0.5461
  105SOL     MW  420   3.081   1.213   0.413 -0.3379  0.1529 -0.2563
  106SOL     OW  421   0.756   0.409   0.880  0.7248 -0.6545 -0.5020
  106SOL    HW1  422   0.685   0.470   0.902  1.7336 -1.2931  2.1263
  106SOL    HW2  423   0.808   0.456   0.820 -0.3441  0.5144 -0.1858
  106SOL     MW  424   0.753   0.423   0.875  0.7168 -0.5845 -0.1135
  107SOL     OW  425   0.816   2.154   2.895  0.6247  0.8308 -0.4619
  107SOL    HW1  426   0.724   2.133   2.870  2.4150 -0.9651  2.0814
  107SOL    HW2  427   0.813   2.128   2.989 -1.3792  2.2289  0.0138
  107SOL     MW  428   0.803   2.148   2.904  0.5965  0.7783 -0.0636
  108SOL     OW  429   1.354   1.590   1.636 -0.3431 -0.1475 -0.1029
  108SOL    HW1  430   1.315   1.565   1.550  3.5705  1.2807  2.3806
  108SOL    HW2  431   1.439   1.558   1.654 -0.0356 -0.8530  0.6062
  108SOL     MW  432   1.360   1.583   1.627  0.2139 -0.0522  0.3183
  109SOL     OW  433   2.004   0.726   0.252  0.3842  0.7208 -0.5333
  109SOL    HW1  434   2.018   0.825   0.258  0.9299  1.7664  1.6853
  109SOL    HW2  435   2.057   0.695   0.328  0.9770  0.5209  1.4723
  109SOL     MW  436   2.013   0.735   0.263  0.5344  0.8324  0.0241
  110SOL     OW  437   0.422   1.967   0.706  0.0350  0.5050  0.1991
  110SOL    HW1  438   0.492   1.909   0.673 -0.3177 -0.0039 -3.8581
  110SOL    HW2  439   0.409   2.024   0.632  0.7648  2.5272 -1.8980
  110SOL     MW  440   0.429   1.967   0.692  0.0848  0.7047 -0.6129
  111SOL     OW  441   0.824   0.905   1.384  0.2123  0.1014 -0.2897
  111SOL    HW1  442   0.804   0.899   1.290  0.2152  0.8143  0.2178
  111SOL    HW2  443   0.811   0.807   1.408 -0.5275  0.2066 -0.4081
  111SOL     MW  444   0.820   0.891   1.375  0.1150  0.2093 -0.2383
  112SOL     OW  445   1.368   1.063   1.599  0.4542  0.3270 -0.3192
  112SOL    HW1  446   1.308   1.135   1.569  2.2304  0.4339  0.9658
  112SOL    HW2  447   1.320   0.981   1.619  1.7378  0.6224  0.4514
  112SOL     MW  448   1.354   1.062   1.597  0.8579  0.3801 -0.0480
  113SOL     OW  449   1.268   3.066   1.680  0.0672 -0.1046  0.1553
  113SOL    HW1  450   1.260   3.026   1.771 -0.1509 -1.7849  0.9016
  113SOL    HW2  451   1.230   3.002   1.616  0.8550 -0.4385 -0.5740
  113SOL     MW  452   1.262   3.052   1.684  0.1423 -0.3703  0.1575
  114SOL     OW  453   0.269   2.875   1.888 -0.1766  0.1651  0.4005
  114SOL    HW1  454   0.323   2.939   1.831  1.9795 -0.2678  0.6472
  114SOL    HW2  455   0.213   2.923   1.946  1.2582 -0.4300 -2.7926
  114SOL     MW  456   0.269   2.890   1.888  0.2972  0.0294  0.0117
  115SOL     OW  457   0.465   0.803   1.189 -0.7602  0.4811  0.4124
  115SOL    HW1  458   0.453   0.704   1.180  2.8387  0.8556 -0.2964
  115SOL    HW2  459   0.413   0.823   1.263 -1.3820  3.1736  0.6510
  115SOL     MW  460   0.457   0.793   1.198 -0.3674  0.8857  0.3504
  116SOL     OW  461   0.783   1.087   0.989 -0.7661 -0.1929 -0.4472
  116SOL    HW1  462   0.825   1.138   0.913  1.0246  1.6568  1.0608
  116SOL    HW2  463   0.823   1.135   1.061  1.8082  1.4822 -2.0496
  116SOL     MW  464   0.794   1.100   0.989 -0.1902  0.2722 -0.4597
  117SOL     OW  465   1.123   1.214   0.828  0.1954  0.1734 -0.2997
  117SOL    HW1  466   1.146   1.164   0.908 -2.0832  0.8337  2.9220
  117SOL    HW2  467   1.107   1.303   0.875 -2.8364  1.0186  2.4992
  117SOL     MW  468   1.124   1.219   0.845 -0.5053  0.3721  0.4947
  118SOL     OW  469   3.014   2.934   1.711 -0.3990  0.2496  0.4638
  118SOL    HW1  470   3.053   2.968   1.790  0.1198  0.2104  2.8467
  118SOL    HW2  471   2.928   2.974   1.704 -1.6962  1.2906 -2.8397
  118SOL     MW  472   3.008   2.944   1.720 -0.5017  0.3818  0.3424
  119SOL     OW  473   0.410   1.525   1.250 -0.0546  0.2931 -0.5097
  119SOL    HW1  474   0.450   1.580   1.186 -2.3434  1.4634 -0.9644
  119SOL    HW2  475   0.327   1.507   1.209  0.4666  2.4309 -0.0421
  119SOL     MW  476   0.404   1.530   1.236 -0.2878  0.7296 -0.5080
  120SOL     OW  477   0.240   0.771   0.986  0.0740  0.4253  0.2020
  120SOL    HW1  478   0.214   0.771   1.077  1.4306 -1.7843  0.9492
  120SOL    HW2  479   0.325   0.826   0.982  1.9509  1.4756 -4.9185
  120SOL     MW  480   0.248   0.779   0.998  0.5006  0.2724 -0.3750
  121SOL     OW  481   1.782   1.102   1.637  0.1598  0.3667 -0.7279
  121SOL    HW1  482   1.693   1.097   1.596  5.0843 -1.6581 -2.9030
  121SOL    HW2  483   1.825   1.028   1.593  3.1515 -1.6191  1.0937
  121SOL     MW  484   1.776   1.092   1.626  1.2043 -0.1625 -0.7745
  122SOL     OW  485   0.179   0.577   0.829  0.2755  0.0398 -0.3062
  122SOL    HW1  486   0.257   0.539   0.785 -0.7479  0.7779  2.2681
  122SOL    HW2  487   0.216   0.650   0.881  2.2425  0.7542  0.2239
  122SOL     MW  488   0.194   0.582   0.830  0.4000  0.2314  0.1034
  123SOL     OW  489   1.857   1.116   0.508  0.1662 -0.3567  0.1784
  123SOL    HW1  490   1.786   1.071   0.558 -0.0447  1.5837  1.8229
  123SOL    HW2  491   1.897   1.180   0.566 -0.9476  1.6848  1.5654
  123SOL     MW  492   1.853   1.118   0.523 -0.0086  0.1686  0.5783
  124SOL     OW  493   0.528   0.538   0.959 -0.2871  0.2084  0.5831
  124SOL    HW1  494   0.482   0.513   0.876  0.8079  0.3232 -1.3740
  124SOL    HW2  495   0.561   0.627   0.943  3.5359 -0.3920  2.5808
  124SOL     MW  496   0.526   0.546   0.946  0.3618  0.1443  0.5884
  125SOL     OW  497   0.728   1.730   1.764 -0.4580 -0.1292  0.2691
  125SOL    HW1  498   0.660   1.676   1.730 -0.9997 -0.6923  2.7276
  125SOL    HW2  499   0.721   1.819   1.747 -0.3446 -2.3747  0.8429
  125SOL     MW  500   0.718   1.735   1.758 -0.5145 -0.4998  0.6692
  126SOL     OW  501   2.140   1.508   1.958 -0.0002  0.5393  0.1992
  126SOL    HW1  502   2.223   1.549   1.940 -2.1772 -1.0586 -0.4111
  126SOL    HW2  503   2.160   1.418   1.970 -1.8869  1.2755 -0.6592
  126SOL     MW  504   2.154   1.502   1.957 -0.5363  0.4256  0.0054
  127SOL     OW  505   0.564   0.859   1.770 -0.3257 -0.4138 -0.0733
  127SOL    HW1  506   0.653   0.829   1.798  1.9081 -1.2653 -2.2365
  127SOL    HW2  507   0.516   0.891   1.853 -0.8538 -0.3768  0.6406
  127SOL     MW  508   0.569   0.859   1.785 -0.1006 -0.5213 -0.2645
  128SOL     OW  509   1.726   0.719   2.887  0.3905 -0.2617 -0.0906
  128SOL    HW1  510   1.762   0.674   2.803 -1.2610  0.9969 -4.5094
  128SOL    HW2  511   1.714   0.802   2.841  1.0731 -0.2752 -0.5146
  128SOL     MW  512   1.729   0.724   2.870  0.2626 -0.0975 -0.7295
  129SOL     OW  513   1.593   0.930   0.207 -0.7484  0.1112 -0.2810
  129SOL    HW1  514   1.534   0.856   0.183  0.9631 -0.0897 -0.8753
  129SOL    HW2  515   1.674   0.892   0.236  0.3632  1.9847  1.4720
  129SOL     MW  516   1.596   0.915   0.208 -0.3759  0.3319 -0.1281
  130SOL     OW  517   0.794   1.408   0.323  0.9104  0.2388  0.3423
  130SOL    HW1  518   0.796   1.398   0.428 -0.1359  2.1083  0.4617
  130SOL    HW2  519   0.869   1.457   0.301 -0.9301 -2.6662 -1.7140
  130SOL     MW  520   0.804   1.413   0.334  0.5295  0.1022  0.0867
  131SOL     OW  521   3.087   0.800   0.020  0.5139 -0.3000  0.5118
  131SOL    HW1  522   3.063   0.853  -0.062  0.6087 -0.3153  0.9648
  131SOL    HW2  523   3.179   0.798   0.036 -1.2700 -0.6075 -1.8672
  131SOL     MW  524   3.096   0.807   0.012  0.2910 -0.3426  0.2577
  132SOL     OW  525   2.736   0.138   1.275 -0.3037 -0.3631  0.0447
  132SOL    HW1  526   2.786   0.137   1.193 -1.0474 -1.2372 -1.6634
  132SOL    HW2  527   2.642   0.104   1.242  1.7665  0.3925 -2.9019
  132SOL     MW  528   2.730   0.133   1.260 -0.1286 -0.3788 -0.5695
  133SOL     OW  529   1.011   0.102   1.681 -0.2804 -0.3326 -0.1342
  133SOL    HW1  530   1.097   0.055   1.679  2.2534 -1.7263 -2.0510
  133SOL    HW2  531   1.006   0.149   1.765 -0.0817  1.3819  0.1759
  133SOL     MW  532   1.021   0.102   1.691  0.0802 -0.2902 -0.3462
  134SOL     OW  533   1.423   2.411   1.474  0.0888  0.0978 -0.1202
  134SOL    HW1  534   1.363   2.479   1.437 -0.6481  2.7698 -0.0884
  134SOL    HW2  535   1.450   2.464   1.553 -1.2077  0.4800  0.7110
  134SOL     MW  536   1.419   2.427   1.480 -0.1795  0.5008 -0.0063
  135SOL     OW  537   3.020   0.981   2.935 -0.4698 -0.1249  0.9331
  135SOL    HW1  538   3.098   1.038   2.958  1.7944  0.0288  0.4105
  135SOL    HW2  539   2.944   1.040   2.919 -1.1929  1.2232 -2.1090
  135SOL     MW  540   3.020   0.996   2.936 -0.2664  0.0732  0.4627
  136SOL     OW  541   0.213   2.011   0.885 -0.2763 -0.7549 -0.1280
  136SOL    HW1  542   0.146   1.946   0.851  0.9718  2.2143 -1.5736
  136SOL    HW2  543   0.290   1.999   0.832  0.3498  0.2038  1.3018
  136SOL     MW  544   0.214   2.001   0.873 -0.0290 -0.2367 -0.1301
  137SOL     OW  545   0.700   2.055   0.562  0.2614 -0.7553  0.8720
  137SOL    HW1  546   0.710   2.071   0.656 -1.9596  1.0757 -0.3753
  137SOL    HW2  547   0.616   2.102   0.533 -0.4000 -0.9985  0.7170
  137SOL     MW  548   0.691   2.063   0.570 -0.1189 -0.5458  0.6870
  138SOL     OW  549   0.427   0.538   1.210 -0.1691  0.0058 -0.1824
  138SOL    HW1  550   0.333   0.511   1.219  2.4020  2.3038  2.4064
  138SOL    HW2  551   0.448   0.532   1.118  0.8087 -1.2979  0.3398
  138SOL     MW  552   0.417   0.534   1.199  0.2991  0.1370  0.2281
  139SOL     OW  553   2.809   0.567   1.350  0.0359  0.0501  0.4462
  139SOL    HW1  554   2.874   0.492   1.337 -1.1201 -0.8157 -0.5389
  139SOL    HW2  555   2.830   0.609   1.436  2.2006  0.1697  0.3767
  139SOL     MW  556   2.820   0.563   1.359  0.1690 -0.0484  0.3071
  140SOL     OW  557   0.871   0.487   1.980  0.4205  0.2068 -0.7476
  140SOL    HW1  558   0.898   0.397   1.970  1.6096 -0.2433 -0.9315
  140SOL    HW2  559   0.844   0.488   2.073  0.6258  2.3183  0.1943
  140SOL     MW  560   0.871   0.475   1.991  0.6045  0.4260 -0.6476
  141SOL     OW  561   1.003   0.670   1.662  0.4434  0.4802  0.0696
  141SOL    HW1  562   1.039   0.584   1.653  2.7106  2.3268 -1.1217
  141SOL    HW2  563   1.081   0.723   1.684 -1.2002  0.9071 -1.1761
  141SOL     MW  564   1.018   0.666   1.664  0.5257  0.7802 -0.2520
  142SOL     OW  565   0.870   1.212   0.725  0.5389  0.2886 -0.0788
  142SOL    HW1  566   0.878   1.131   0.671  0.0675 -0.0178 -1.8176
  142SOL    HW2  567   0.962   1.233   0.740  0.1196  1.7574 -0.5149
  142SOL     MW  568   0.883   1.204   0.720  0.4214  0.4420 -0.3658
  143SOL     OW  569   1.863   0.676   1.061  0.1753 -0.2218  0.2638
  143SOL    HW1  570   1.896   0.679   0.965 -0.9163 -3.3776 -1.1963
  143SOL    HW2  571   1.771   0.677   1.037  0.5966  0.6604 -3.3516
  143SOL     MW  572   1.855   0.676   1.045  0.0869 -0.5218 -0.4059
  144SOL     OW  573   0.270   1.316   1.718 -0.1357 -0.5814  0.0803
  144SOL    HW1  574   0.345   1.373   1.694 -3.7059 -0.7100  3.4946
  144SOL    HW2  575   0.287   1.295   1.808  1.1054  1.0916  1.6401
  144SOL     MW  576   0.282   1.321   1.726 -0.4430 -0.3776  0.7366
  145SOL     OW  577   0.177   0.438   1.253  0.1168  0.1772  0.1880
  145SOL    HW1  578   0.231   0.353   1.274  2.3135  1.8031 -0.4826
  145SOL    HW2  579   0.110   0.415   1.188  2.0933 -2.9638  1.0672
  145SOL     MW  580   0.175   0.424   1.247  0.6674 -0.0227  0.2155
  146SOL     OW  581   0.858   1.886   1.363 -1.1096 -0.1663  0.5449
  146SOL    HW1  582   0.899   1.929   1.284  0.6416  0.4191  0.8322
  146SOL    HW2  583   0.770   1.869   1.339  0.4936 -1.2776  0.5856
  146SOL     MW  584   0.852   1.890   1.349 -0.6670 -0.2357  0.5882
  147SOL     OW  585   0.428   0.491   2.919  0.0205 -0.1650 -0.4750
  147SOL    HW1  586   0.375   0.532   2.990 -1.5324 -1.8261 -1.3684
  147SOL    HW2  587   0.416   0.560   2.851  2.2302  0.3614  0.9648
  147SOL     MW  588   0.419   0.506   2.919  0.1072 -0.3147 -0.4029
  148SOL     OW  589   0.054   0.928   1.264  0.7028  0.1640  0.2573
  148SOL    HW1  590   0.140   0.922   1.296 -1.8596  2.4329  2.1621
  148SOL    HW2  591   0.008   1.000   1.300  0.3434 -2.2179  1.3559
  148SOL     MW  592   0.059   0.937   1.273  0.3173  0.1491  0.6535
  149SOL     OW  593   1.577   1.171   1.463 -0.1378  0.1716  0.3210
  149SOL    HW1  594   1.494   1.154   1.519 -0.2686  1.1302 -0.7861
  149SOL    HW2  595   1.567   1.265   1.443 -1.3154 -0.8183  0.6076
  149SOL     MW  596   1.565   1.182   1.467 -0.3104  0.1675  0.2128
  150SOL     OW  597   1.726   1.391   0.886 -0.3329  0.3236 -0.0618
  150SOL    HW1  598   1.802   1.333   0.872  0.4742 -1.9486 -0.8339
  150SOL    HW2  599   1.758   1.481   0.894 -2.4786  1.9213  1.6947
  150SOL     MW  600   1.740   1.395   0.885 -0.5096  0.2346  0.0681
  151SOL     OW  601   1.684   1.828   0.818 -0.0917  0.5498  0.0015
  151SOL    HW1  602   1.658   1.844   0.726 -0.9498 -1.0757 -0.1597
  151SOL    HW2  603   1.608   1.824   0.870  0.1038 -3.6266 -0.3587
  151SOL     MW  604   1.671   1.830   0.813 -0.1791 -0.2157 -0.0673
  152SOL     OW  605   0.739   1.446   1.622 -0.7089 -0.0221 -0.5339
  152SOL    HW1  606   0.739   1.512   1.547 -1.4434  0.6980 -0.2261
  152SOL    HW2  607   0.742   1.355   1.580 -0.0845 -3.5747  0.6597
  152SOL     MW  608   0.739   1.442   1.606 -0.7234 -0.3959 -0.3358
  153SOL     OW  609   2.571   1.218   0.748  0.4116  0.5637  0.0801
  153SOL    HW1  610   2.649   1.191   0.697 -1.3247 -0.6765 -0.9109
  153SOL    HW2  611   2.516   1.135   0.758  0.5894  2.4042  2.5705
  153SOL     MW  612   2.574   1.204   0.743  0.2059  0.6429  0.2779
  154SOL     OW  613   0.106   1.759   1.780 -0.0259 -0.2335 -0.0149
  154SOL    HW1  614   0.081   1.678   1.747  2.3658 -0.2546  1.7398
  154SOL    HW2  615   0.200   1.753   1.814 -2.6280  1.2203 -2.4424
  154SOL     MW  616   0.115   1.748   1.780 -0.0537 -0.0445 -0.1037
  155SOL     OW  617   1.206   0.765   0.312  0.4774  0.3316 -0.3024
  155SOL    HW1  618   1.173   0.726   0.397 -1.6917  0.7934  0.4423
  155SOL    HW2  619   1.204   0.860   0.325  1.2706  0.6878  0.7102
  155SOL     MW  620   1.201   0.772   0.325  0.2959  0.4395 -0.0705
  156SOL     OW  621   1.556   3.075   1.111  0.1428  0.7843 -0.1369
  156SOL    HW1  622   1.619   3.137   1.147 -1.9119  2.0449 -0.8186
  156SOL    HW2  623   1.609   2.999   1.093 -1.7729 -0.6616 -0.0906
  156SOL     MW  624   1.571   3.073   1.114 -0.3811  0.7598 -0.2207
  157SOL     OW  625   1.406   1.141   0.113  0.3837 -0.2670  0.4257
  157SOL    HW1  626   1.458   1.077   0.170  3.8225 -1.0692 -0.7997
  157SOL    HW2  627   1.456   1.215   0.143 -0.6082 -2.8323  1.1312
  157SOL     MW  628   1.420   1.142   0.125  0.7065 -0.7113  0.3571
  158SOL     OW  629   0.443   1.702   2.282  0.1746 -0.0926 -0.2115
  158SOL    HW1  630   0.438   1.753   2.203 -0.4817 -0.1623 -0.3668
  158SOL    HW2  631   0.356   1.698   2.320  0.2850 -0.6077 -1.4232
  158SOL     MW  632   0.431   1.708   2.277  0.1026 -0.1698 -0.3918
  159SOL     OW  633   1.202   1.609   0.492 -0.4621  0.2711  0.1898
  159SOL    HW1  634   1.142   1.584   0.420 -3.2681  0.6434  0.9603
  159SOL    HW2  635   1.152   1.685   0.534  0.3040  0.3599  0.1357
  159SOL     MW  636   1.188   1.616   0.488 -0.7312  0.3320  0.2843
  160SOL     OW  637   0.519   1.231   1.549 -0.3384 -0.4171  0.0236
  160SOL    HW1  638   0.452   1.175   1.595 -0.8702 -2.0958 -0.7153
  160SOL    HW2  639   0.600   1.175   1.543 -0.6719 -0.5695 -0.0428
  160SOL     MW  640   0.521   1.216   1.554 -0.4526 -0.6587 -0.0826
  161SOL     OW  641   0.452   2.238   2.585 -0.4830  0.6381  0.7297
  161SOL    HW1  642   0.376   2.304   2.567 -1.2393 -0.0722  1.2209
  161SOL    HW2  643   0.434   2.155   2.526  1.2523 -3.1977 -0.0804
  161SOL     MW  644   0.439   2.236   2.575 -0.3538  0.0383  0.6876
  162SOL     OW  645   1.076   1.823   1.806  0.0510 -0.5319 -0.3339
  162SOL    HW1  646   1.091   1.914   1.804  0.4609 -1.3233  1.2541
  162SOL    HW2  647   1.032   1.803   1.887 -0.2381 -2.5372 -1.8672
  162SOL     MW  648   1.072   1.832   1.816  0.0669 -0.9009 -0.3266
  163SOL     OW  649   2.107   3.072   0.856  0.2612  0.1393 -0.6158
  163SOL    HW1  650   2.095   3.149   0.793  2.2480 -1.0704  0.9937
  163SOL    HW2  651   2.062   2.997   0.809 -2.0139 -0.5989  0.2144
  163SOL     MW  652   2.099   3.072   0.842  0.2232 -0.1177 -0.2939
  164SOL     OW  653   0.293   0.198   0.786 -0.1719 -0.0949 -0.2090
  164SOL    HW1  654   0.204   0.206   0.820 -1.2766  1.1597  0.4392
  164SOL    HW2  655   0.304   0.126   0.728  0.1014 -0.1960  2.3190
  164SOL     MW  656   0.283   0.189   0.783 -0.2816  0.0573  0.2101
  165SOL     OW  657   1.190   1.318   0.324 -0.0064 -0.3764 -0.1703
  165SOL    HW1  658   1.199   1.298   0.421  0.4909 -2.3153  2.3752
  165SOL    HW2  659   1.225   1.243   0.276 -0.9325  2.1188 -1.4677
  165SOL     MW  660   1.196   1.305   0.331 -0.0630 -0.3030 -0.0057
  166SOL     OW  661   0.531   1.143   1.017 -0.1286 -0.2158  0.8702
  166SOL    HW1  662   0.509   1.172   1.103 -1.9526 -0.6345 -0.9345
  166SOL    HW2  663   0.634   1.137   1.020 -0.3912 -0.6507  0.2223
  166SOL     MW  664   0.542   1.146   1.029 -0.4039 -0.3284  0.5466
  167SOL     OW  665   0.793   1.154   0.252 -0.1115  0.7539  0.3496
  167SOL    HW1  666   0.797   1.250   0.282 -2.7239 -0.4488 -1.3781
  167SOL    HW2  667   0.877   1.130   0.208  1.3756  0.9601 -0.3249
  167SOL     MW  668   0.804   1.163   0.250 -0.2600  0.6224  0.0327
  168SOL     OW  669   1.743   1.657   3.041 -0.7354 -0.8061  0.1040
  168SOL    HW1  670   1.665   1.709   3.016 -1.7688  1.3533 -1.5120
  168SOL    HW2  671   1.725   1.563   3.021 -0.8781 -0.6809 -1.9615
  168SOL     MW  672   1.730   1.651   3.035 -0.8906 -0.5047 -0.3817
  169SOL     OW  673   0.310   0.945   1.353  0.4907  0.1681  0.2825
  169SOL    HW1  674   0.312   0.948   1.455  2.5822  1.1121  0.8102
  169SOL    HW2  675   0.366   1.020   1.337  2.2265 -2.8037 -3.1891
  169SOL     MW  676   0.318   0.955   1.364  0.9957 -0.0995 -0.1059
  170SOL     OW  677   1.187   1.496   1.444 -0.3877  0.2587 -0.0233
  170SOL    HW1  678   1.134   1.550   1.499  0.8505 -0.3642  1.4668
  170SOL    HW2  679   1.163   1.514   1.355  0.1624  0.6644 -0.2471
  170SOL     MW  680   1.177   1.506   1.440 -0.1518  0.2300  0.1438
  171SOL     OW  681   0.531   1.439   0.496  0.1531  0.5366 -0.6518
  171SOL    HW1  682   0.445   1.438   0.528  4.2843  1.5096  1.2810
  171SOL    HW2  683   0.538   1.358   0.441  1.4003 -0.5106 -2.5201
  171SOL     MW  684   0.521   1.428   0.493  0.8627  0.5268 -0.6433
  172SOL     OW  685   0.789   0.238   1.242 -0.5280 -0.2663  0.2792
  172SOL    HW1  686   0.761   0.203   1.154 -1.0844 -3.3802 -2.0666
  172SOL    HW2  687   0.844   0.169   1.284 -0.4025 -1.2325  0.5570
  172SOL     MW  688   0.792   0.225   1.236 -0.5849 -0.8047  0.0064
  173SOL     OW  689   0.517   1.761   0.297  0.1112 -0.8244  0.6156
  173SOL    HW1  690   0.550   1.676   0.253 -0.1031 -0.0634  1.4947
  173SOL    HW2  691   0.523   1.744   0.388  0.3690  1.0046 -0.2827
  173SOL     MW  692   0.522   1.748   0.303  0.1169 -0.4827  0.6130
  174SOL     OW  693   1.843   0.864   1.492  0.4349 -0.0374  0.6936
  174SOL    HW1  694   1.783   0.794   1.528  0.8923 -1.0003  0.4243
  174SOL    HW2  695   1.812   0.873   1.397 -0.6216 -1.2491  0.0762
  174SOL     MW  696   1.831   0.856   1.484  0.3559 -0.3243  0.5766
  175SOL     OW  697   0.561   1.520   0.150 -0.4132 -0.4469 -0.5439
  175SOL    HW1  698   0.468   1.490   0.169  1.2132 -3.3760  0.0253
  175SOL    HW2  699   0.617   1.472   0.207  0.8098  1.9955 -3.5726
  175SOL     MW  700   0.556   1.510   0.160 -0.0373 -0.5111 -0.8684
  176SOL     OW  701   0.159   1.468   1.166 -0.2177  0.1934 -0.0132
  176SOL    HW1  702   0.148   1.420   1.076  0.5963 -1.3178 -3.3223
  176SOL    HW2  703   0.085   1.437   1.214  1.0704  0.5307  0.0279
  176SOL     MW  704   0.148   1.457   1.160  0.0596  0.0385 -0.4444
  177SOL     OW  705   0.521   0.324   1.456  0.5387  0.4951  0.3209
  177SOL    HW1  706   0.564   0.358   1.379  0.2243 -2.0120  1.2201
  177SOL    HW2  707   0.526   0.395   1.521 -0.9891  1.1329  0.5579
  177SOL     MW  708   0.527   0.338   1.454  0.2956  0.2485  0.4708
  178SOL     OW  709   0.010   0.481   2.991  0.3218  0.0181 -0.0447
  178SOL    HW1  710  -0.024   0.500   3.072 -2.0968  0.8025 -1.9311
  178SOL    HW2  711  -0.061   0.482   2.923 -1.4757 -0.5413  2.4034
  178SOL     MW  712  -0.004   0.484   2.992 -0.2345  0.0478  0.0294
  179SOL     OW  713   1.550   1.435   1.387  0.2937  0.5286 -0.1820
  179SOL    HW1  714   1.562   1.457   1.481  1.3424  0.9575 -0.5405
  179SOL    HW2  715   1.636   1.454   1.360 -1.5240 -1.7277  1.3824
  179SOL     MW  716   1.563   1.441   1.396  0.1922  0.2875 -0.0229
  180SOL     OW  717   3.007   0.290   0.482  0.5017  0.4523 -0.9705
  180SOL    HW1  718   2.963   0.300   0.400  0.4746 -0.3981  2.2862
  180SOL    HW2  719   3.094   0.323   0.465 -2.4552  1.4094 -0.1517
  180SOL     MW  720   3.013   0.295   0.469  0.1080  0.4664 -0.4328
  181SOL     OW  721   1.127   1.283   3.088 -0.3724 -0.2951  0.0303
  181SOL    HW1  722   1.187   1.359   3.100  1.6728 -2.1603  0.9054
  181SOL    HW2  723   1.165   1.253   3.007 -2.1172  2.7646  1.9662
  181SOL     MW  724   1.140   1.289   3.079 -0.3328 -0.1375  0.4011
  182SOL     OW  725   0.378   0.986   1.623 -0.2415 -0.3080  0.2533
  182SOL    HW1  726   0.306   0.971   1.691 -1.5066 -0.1010 -0.5896
  182SOL    HW2  727   0.452   0.936   1.655  1.1369  0.9295  0.2390
  182SOL     MW  728   0.378   0.978   1.636 -0.2265 -0.1174  0.1402
  183SOL     OW  729   1.534   1.717   1.268  0.2774 -0.2538 -0.5184
  183SOL    HW1  730   1.625   1.708   1.288 -1.9657 -0.3550 -0.5943
  183SOL    HW2  731   1.499   1.645   1.317 -2.7968  0.5901  0.8149
  183SOL     MW  732   1.542   1.706   1.277 -0.4242 -0.1558 -0.3525
  184SOL     OW  733   0.797   0.709   1.833  0.1960  0.2359 -0.5094
  184SOL    HW1  734   0.872   0.692   1.777 -1.0911  0.1221  0.6607
  184SOL    HW2  735   0.783   0.622   1.879 -3.4934 -2.4174 -3.2873
  184SOL     MW  736   0.805   0.695   1.832 -0.4606 -0.1292 -0.7215
  185SOL     OW  737   1.064   0.940   1.871  0.0594 -0.2550  0.3557
  185SOL    HW1  738   1.051   0.852   1.898 -0.5834  0.6598  0.3236
  185SOL    HW2  739   1.128   0.986   1.926 -0.4242  3.3814 -1.5939
  185SOL     MW  740   1.071   0.935   1.882 -0.0892  0.3455  0.0942
  186SOL     OW  741   0.313   1.651   1.478  0.0166 -0.3461  0.3343
  186SOL    HW1  742   0.350   1.595   1.409  1.1313  3.0722 -0.2846
  186SOL    HW2  743   0.249   1.590   1.515 -0.0552  2.6559  0.3823
  186SOL     MW  744   0.309   1.636   1.473  0.1542  0.5010  0.2589
  187SOL     OW  745   1.475   0.761   1.381 -0.6258  0.5863  0.1517
  187SOL    HW1  746   1.518   0.738   1.463 -1.6816 -3.2805  0.2759
  187SOL    HW2  747   1.384   0.740   1.405 -0.4788  0.4819 -0.3771
  187SOL     MW  748   1.468   0.756   1.395 -0.7457  0.0623  0.0983
  188SOL     OW  749   1.951   1.214   0.828 -0.2805 -0.3750  0.2726
  188SOL    HW1  750   1.941   1.174   0.922 -0.4552 -1.8126  1.1996
  188SOL    HW2  751   1.979   1.144   0.773 -1.7383  0.7880 -0.6880
  188SOL     MW  752   1.954   1.199   0.833 -0.4959 -0.4112  0.2682
  189SOL     OW  753   0.696   0.744   0.834 -0.1136 -0.3729 -0.0202
  189SOL    HW1  754   0.623   0.802   0.828 -1.8252  1.1115  2.8474
  189SOL    HW2  755   0.743   0.785   0.908  0.6451 -0.6854  1.7917
  189SOL     MW  756   0.693   0.757   0.843 -0.2393 -0.2183  0.5972
  190SOL     OW  757   1.882   0.302   2.105 -0.0793 -0.2642 -0.3161
  190SOL    HW1  758   1.854   0.283   2.197 -0.3187 -4.9304 -0.4369
  190SOL    HW2  759   1.949   0.371   2.104  0.6129 -3.3280 -1.9917
  190SOL     MW  760   1.887   0.308   2.117 -0.0196 -1.2841 -0.5531
  191SOL     OW  761   1.527   1.011   1.258  0.0941 -0.4837 -0.3417
  191SOL    HW1  762   1.542   1.067   1.338  1.1357  0.6916 -1.3345
  191SOL    HW2  763   1.511   0.923   1.296 -0.4323 -1.3510 -0.7520
  191SOL     MW  764   1.527   1.007   1.274  0.1621 -0.4430 -0.5268
  192SOL     OW  765   0.525   2.151   2.882 -0.2857  0.6159 -0.0590
  192SOL    HW1  766   0.497   2.190   2.801 -2.6604 -4.0411  0.6062
  192SOL    HW2  767   0.516   2.058   2.874 -0.4765  1.0991  2.7441
  192SOL     MW  768   0.520   2.144   2.870 -0.6242  0.0652  0.3986
  193SOL     OW  769   0.878   1.598   0.803 -0.4045  0.1238 -0.2849
  193SOL    HW1  770   0.789   1.586   0.811  1.7402  0.0087 -2.4347
  193SOL    HW2  771   0.882   1.552   0.718 -0.6024  1.5487  1.3193
  193SOL     MW  772   0.866   1.590   0.793 -0.1477  0.2966 -0.3569
  194SOL     OW  773   0.497   1.304   0.819 -0.0392  0.0005 -0.1730
  194SOL    HW1  774   0.496   1.254   0.902 -1.3290  0.8574  1.3624
  194SOL    HW2  775   0.408   1.295   0.783  1.3713 -0.5805  0.7352
  194SOL     MW  776   0.485   1.297   0.825 -0.0233  0.0369  0.1494
  195SOL     OW  777   1.299   1.099   2.932  0.1006 -0.2101  0.3174
  195SOL    HW1  778   1.334   1.125   3.014 -0.6816  0.1542 -1.6964
  195SOL    HW2  779   1.251   1.024   2.965 -0.4503 -1.2057 -0.1663
  195SOL     MW  780   1.297   1.093   2.947 -0.0753 -0.2934 -0.0122
  196SOL     OW  781   2.268   0.978   0.561  0.2959  0.4152  0.0829
  196SOL    HW1  782   2.231   0.930   0.488 -0.6586  0.3224  4.7474
  196SOL    HW2  783   2.238   1.071   0.561 -1.7752  1.4858  0.0790
  196SOL     MW  784   2.259   0.984   0.552 -0.1033  0.5442  0.6978
  197SOL     OW  785   0.600   1.278   2.215  0.6726  0.2695 -0.3018
  197SOL    HW1  786   0.634   1.202   2.167 -0.4909  0.4171  3.2112
  197SOL    HW2  787   0.641   1.354   2.181  3.2587 -1.0384  0.0360
  197SOL     MW  788   0.610   1.278   2.204  0.8603  0.1164  0.2063
  198SOL     OW  789   2.923   1.430   1.027 -0.6463 -0.7048 -0.2468
  198SOL    HW1  790   2.870   1.496   0.982  0.2772  1.1707 -0.8018
  198SOL    HW2  791   2.872   1.344   1.013 -1.2813 -0.6579  0.6627
  198SOL     MW  792   2.909   1.428   1.019 -0.6082 -0.4511 -0.2000
  199SOL     OW  793   0.748   1.322   1.855  0.0001 -0.2053  0.0633
  199SOL    HW1  794   0.656   1.297   1.850 -1.1782  0.5750  0.2263
  199SOL    HW2  795   0.766   1.384   1.783 -1.9287 -0.1475  0.3067
  199SOL     MW  796   0.738   1.327   1.845 -0.4098 -0.0947  0.1169
  200SOL     OW  797   1.837   2.923   1.365 -0.1941  0.2425 -0.3107
  200SOL    HW1  798   1.893   2.968   1.295  2.0871 -0.6239 -0.8940
  200SOL    HW2  799   1.767   2.981   1.383  4.6296 -3.6766 -0.3203
  200SOL     MW  800   1.835   2.936   1.358  0.7433 -0.3889 -0.3889
  201SOL     OW  801   1.101   0.328   0.743  0.6087 -0.0716  0.5567
  201SOL    HW1  802   1.093   0.235   0.764 -0.3029  1.0571  1.9932
  201SOL    HW2  803   1.192   0.345   0.777  0.9554  0.6831 -0.4771
  201SOL     MW  804   1.112   0.318   0.750  0.5341  0.1769  0.6098
  202SOL     OW  805   1.479   1.777   0.990  0.2065 -0.4815  0.5787
  202SOL    HW1  806   1.497   1.683   0.964 -0.4272 -0.6337  0.2929
  202SOL    HW2  807   1.502   1.778   1.080 -1.0358 -1.3686 -2.4825
  202SOL     MW  808   1.484   1.765   0.999 -0.0410 -0.6186  0.1371
  203SOL     OW  809   2.988   0.363   1.370 -0.1521 -0.3777 -0.8202
  203SOL    HW1  810   3.034   0.292   1.325  0.9497  0.0668  1.1143
  203SOL    HW2  811   3.037   0.398   1.446  2.5401  0.8483 -2.4765
  203SOL     MW  812   3.000   0.358   1.374  0.3485 -0.1573 -0.7835
  204SOL     OW  813   1.048   1.782   0.624 -0.2098 -0.2071  0.0612
  204SOL    HW1  814   1.035   1.741   0.706  0.8005 -1.6009 -2.0993
  204SOL    HW2  815   0.962   1.782   0.581  0.1304 -1.2702 -0.6173
  204SOL     MW  816   1.035   1.777   0.629 -0.0316 -0.5313 -0.3134
  205SOL     OW  817   1.356   3.030   1.331  0.5908 -0.2159 -0.0521
  205SOL    HW1  818   1.365   3.068   1.245  1.8499  1.0544 -0.4664
  205SOL    HW2  819   1.286   3.084   1.373 -0.4597 -0.3231 -0.7521
  205SOL     MW  820   1.348   3.042   1.325  0.6183 -0.0624 -0.1991
  206SOL     OW  821   0.420   3.046   1.360 -0.4925 -0.8104 -0.1674
  206SOL    HW1  822   0.406   3.022   1.269  1.1151  1.1366  0.2418
  206SOL    HW2  823   0.515   3.033   1.370  1.3865  0.6341 -1.0976
  206SOL     MW  824   0.430   3.041   1.349 -0.0325 -0.3629 -0.2361
  207SOL     OW  825   0.891   1.725   0.177  0.4478  0.5589  0.5870
  207SOL    HW1  826   0.923   1.795   0.127 -0.6749  0.5321  0.8722
  207SOL    HW2  827   0.964   1.666   0.183  0.4358 -0.2218 -1.7871
  207SOL     MW  828   0.905   1.726   0.171  0.2981  0.4523  0.3114
  208SOL     OW  829   0.768   1.594   1.399  1.1869  0.2230 -0.3874
  208SOL    HW1  830   0.848   1.631   1.426 -0.6586 -0.9685 -0.8146
  208SOL    HW2  831   0.760   1.585   1.298  0.7392  2.0022 -1.8505
  208SOL     MW  832   0.778   1.598   1.389  0.8843  0.3005 -0.6368
  209SOL     OW  833   1.518   0.511   2.850 -0.0100 -0.0981  0.1326
  209SOL    HW1  834   1.576   0.592   2.861  0.3018  0.9405 -0.3310
  209SOL    HW2  835   1.583   0.438   2.854  0.7305 -0.4899  1.5993
  209SOL     MW  836   1.534   0.512   2.852  0.1288 -0.0127  0.2650
  210SOL     OW  837   1.486   1.524   0.953  0.4246  0.2890  0.7024
  210SOL    HW1  838   1.561   1.470   0.934  0.1749  2.1859  0.1487
  210SOL    HW2  839   1.421   1.505   0.882  1.0021 -1.4049 -1.8408
  210SOL     MW  840   1.487   1.514   0.941  0.4679  0.3157  0.2938
  211SOL     OW  841   1.730   0.308   0.978  0.1638  0.3760 -0.3405
  211SOL    HW1  842   1.739   0.342   0.890  2.0553  1.1725  0.2003
  211SOL    HW2  843   1.816   0.333   1.019  1.2354  2.1702  0.0143
  211SOL     MW  844   1.743   0.316   0.971  0.5548  0.7178 -0.2223
  212SOL     OW  845   0.309   1.101   0.251  0.1170  0.1626  0.8995
  212SOL    HW1  846   0.221   1.066   0.278 -0.0675 -1.0607  1.4047
  212SOL    HW2  847   0.339   1.049   0.172 -0.4248  1.1582  1.1238
  212SOL     MW  848   0.301   1.090   0.244  0.0212  0.1325  0.9957
  213SOL     OW  849   0.390   1.812   3.023 -0.5276  0.3695  0.2977
  213SOL    HW1  850   0.429   1.857   3.102  1.6243  2.3514  1.6560
  213SOL    HW2  851   0.454   1.846   2.953 -1.2815  0.8612  0.5599
  213SOL     MW  852   0.404   1.823   3.024 -0.3432  0.6959  0.5115
  214SOL     OW  853   0.621   0.311   2.127 -0.8649 -0.4777  0.0133
  214SOL    HW1  854   0.569   0.396   2.119  0.9675 -2.5539 -2.5293
  214SOL    HW2  855   0.629   0.306   2.028  0.7050  1.0518  0.1388
  214SOL     MW  856   0.615   0.322   2.113 -0.4160 -0.5498 -0.3056
  215SOL     OW  857   0.495   0.569   2.563 -0.1939 -0.5023 -0.1607
  215SOL    HW1  858   0.518   0.587   2.468 -0.0233  0.4123 -1.3405
  215SOL    HW2  859   0.412   0.615   2.586  0.3151 -0.4460 -2.5896
  215SOL     MW  860   0.487   0.577   2.553 -0.1043 -0.3742 -0.6369
  216SOL     OW  861   2.958   3.065   2.712 -0.5741  0.0782  0.0521
  216SOL    HW1  862   2.900   3.051   2.789  1.3501 -1.3316  1.4019
  216SOL    HW2  863   2.964   3.166   2.711 -0.1647  2.9476 -0.1001
  216SOL     MW  864   2.951   3.077   2.722 -0.2662  0.2708  0.2101
  217SOL     OW  865   1.029   1.071   0.141  0.2728 -0.0704  0.1585
  217SOL    HW1  866   1.034   0.998   0.073 -1.4857  1.1962  1.2742
  217SOL    HW2  867   1.076   1.144   0.098 -0.3262  2.3283  0.1150
  217SOL     MW  868   1.036   1.071   0.127 -0.0382  0.4132  0.3000
  218SOL     OW  869   0.851   1.387   2.683 -0.4458 -0.0975 -0.4293
  218SOL    HW1  870   0.876   1.328   2.752  1.3234  1.6191  0.6239
  218SOL    HW2  871   0.935   1.429   2.663  0.8127  0.4063  1.0258
  218SOL     MW  872   0.865   1.385   2.690 -0.0463  0.1954 -0.0983
  219SOL     OW  873   1.047   0.404   2.613  0.1084  0.3837  0.0850
  219SOL    HW1  874   1.116   0.463   2.655 -0.4410 -1.1263 -1.2425
  219SOL    HW2  875   0.964   0.455   2.615 -2.4774  1.1708 -2.3819
  219SOL     MW  876   1.045   0.419   2.618 -0.3053  0.2883 -0.4156
  220SOL     OW  877   1.707   0.533   2.205  0.2283  0.0693 -0.4175
  220SOL    HW1  878   1.623   0.570   2.166 -1.0353  0.4657 -2.1641
  220SOL    HW2  879   1.745   0.463   2.149  1.1449 -1.0109 -2.3088
  220SOL     MW  880   1.701   0.529   2.193  0.1825 -0.0209 -0.8975
  221SOL     OW  881   0.346   1.301   2.919 -0.1458  0.4210  0.1720
  221SOL    HW1  882   0.428   1.253   2.899 -0.3302  2.3355  1.2757
  221SOL    HW2  883   0.363   1.387   2.889  0.1873 -1.1672  2.9059
  221SOL     MW  884   0.359   1.306   2.912 -0.1262  0.4641  0.6783
  222SOL     OW  885   0.507   0.963   2.684  0.0049  0.6831  0.1598
  222SOL    HW1  886   0.421   0.986   2.653  0.1942  0.0700 -0.5718
  222SOL    HW2  887   0.489   0.876   2.704 -1.2960  2.4242  0.2161
  222SOL     MW  888   0.493   0.954   2.683 -0.1417  0.8319  0.0707
  223SOL     OW  889  -0.003   2.028   2.576 -0.0767  0.5167  0.0227
  223SOL    HW1  890   0.034   2.004   2.663  2.8182 -1.2541 -1.2258
  223SOL    HW2  891   0.020   2.112   2.552  1.7666 -1.2118  0.6107
  223SOL     MW  892   0.005   2.036   2.584  0.5485  0.0550 -0.0645
  224SOL     OW  893   1.443   0.713   2.472 -0.3821 -0.7310 -0.5103
  224SOL    HW1  894   1.459   0.720   2.566  2.7896  2.0598  1.3830
  224SOL    HW2  895   1.444   0.806   2.439 -0.8498  2.4922  0.4537
  224SOL     MW  896   1.445   0.726   2.480 -0.0253  0.0625 -0.1333
  225SOL     OW  897   2.960   1.440   2.272  0.0230  0.1902 -0.3827
  225SOL    HW1  898   2.997   1.511   2.217 -1.8927  1.5815  1.3671
  225SOL    HW2  899   2.913   1.496   2.338  1.0144  1.9614  0.4288
  225SOL     MW  900   2.959   1.457   2.273 -0.0990  0.6074 -0.0448
  226SOL     OW  901   0.398   1.504   2.715 -0.1460 -0.3702 -0.2082
  226SOL    HW1  902   0.493   1.514   2.720  0.8260 -2.6225 -4.4878
  226SOL    HW2  903   0.371   1.599   2.692 -0.7820 -0.1500  3.7605
  226SOL     MW  904   0.407   1.518   2.713 -0.1016 -0.6383 -0.2492
  227SOL     OW  905   0.588   1.132   2.890  0.1884 -0.3541 -0.2329
  227SOL    HW1  906   0.685   1.141   2.874 -0.7120  1.4017 -0.4965
  227SOL    HW2  907   0.563   1.066   2.828  0.8065 -2.1263  0.2629
  227SOL     MW  908   0.598   1.124   2.880  0.1512 -0.3563 -0.2022
  228SOL     OW  909   0.764   1.132   2.047  0.2708 -0.5218  0.1533
  228SOL    HW1  910   0.767   1.186   1.966  2.1789  0.5392  2.4489
  228SOL    HW2  911   0.844   1.147   2.101 -0.6530 -0.6573  1.5052
  228SOL     MW  912   0.775   1.141   2.043  0.4007 -0.3997  0.6345
  229SOL     OW  913   0.235   0.595   3.096 -0.1809 -0.3248 -0.0756
  229SOL    HW1  914   0.144   0.609   3.051 -1.0577 -0.0241 -2.2943
  229SOL    HW2  915   0.224   0.525   3.160  1.5980 -0.8466  0.5337
  229SOL     MW  916   0.222   0.587   3.098 -0.0619 -0.3540 -0.2880
  230SOL     OW  917   1.805   1.364   1.978  0.0361  0.4359  0.3438
  230SOL    HW1  918   1.793   1.321   2.064 -0.0805 -1.0867  3.5442
  230SOL    HW2  919   1.870   1.302   1.944 -3.7054 -0.6322 -1.7512
  230SOL     MW  920   1.812   1.350   1.985 -0.4729  0.0941  0.4897
  231SOL     OW  921   2.736   1.285   2.220 -0.0190  0.0498  0.3672
  231SOL    HW1  922   2.814   1.339   2.220  0.6218 -4.2048  2.6059
  231SOL    HW2  923   2.689   1.305   2.136  0.5812 -1.2691  0.8321
  231SOL     MW  924   2.740   1.294   2.209  0.1448 -0.6855  0.7239
  232SOL     OW  925   2.295   0.815   1.973  0.4014  0.1015 -0.2067
  232SOL    HW1  926   2.236   0.856   1.916 -1.7145 -1.5302  1.3338
  232SOL    HW2  927   2.244   0.833   2.054 -0.3245  0.2375 -0.3924
  232SOL     MW  928   2.280   0.823   1.976  0.0265 -0.0958 -0.0280
  233SOL     OW  929   2.110   0.446   2.092 -0.0586 -0.5303  0.1866
  233SOL    HW1  930   2.146   0.360   2.063  1.3359 -0.7439  1.0670
  233SOL    HW2  931   2.189   0.489   2.138  2.4714  3.7941 -0.2584
  233SOL     MW  932   2.125   0.440   2.095  0.4592  0.0121  0.2440
  234SOL     OW  933   0.259   1.028   2.604 -0.1231  0.1627  0.1317
  234SOL    HW1  934   0.167   1.016   2.573  0.6217 -1.6089 -1.0027
  234SOL    HW2  935   0.287   1.114   2.578 -0.2251 -1.4848 -0.4644
  234SOL     MW  936   0.251   1.038   2.597 -0.0383 -0.2884 -0.0966
  235SOL     OW  937   1.035   3.015   2.814  0.6053 -0.5571  0.1764
  235SOL    HW1  938   1.105   2.979   2.861  0.1687  0.9120 -1.8767
  235SOL    HW2  939   1.022   3.110   2.827  0.6609  0.1616  1.5259
  235SOL     MW  940   1.042   3.023   2.822  0.5551 -0.2684  0.0836
  236SOL     OW  941   2.930   0.602   0.157  0.3226  0.1715  0.6411
  236SOL    HW1  942   2.942   0.636   0.247 -0.5541  1.7030  0.7681
  236SOL    HW2  943   2.978   0.672   0.109  1.0220 -0.2456 -1.6560
  236SOL     MW  944   2.938   0.616   0.163  0.2992  0.3185  0.3548
  237SOL     OW  945   1.959   1.050   2.157 -0.1562 -0.0728 -0.4323
  237SOL    HW1  946   1.871   1.041   2.116  1.3878 -0.2592  0.1675
  237SOL    HW2  947   2.014   0.979   2.121 -1.0196  4.1011 -0.4384
  237SOL     MW  948   1.954   1.039   2.147 -0.0664  0.4533 -0.3540
  238SOL     OW  949   1.081   1.760   2.967  0.1219  0.4549  0.0956
  238SOL    HW1  950   1.031   1.719   2.894 -0.3664 -1.9486 -0.5880
  238SOL    HW2  951   1.171   1.725   2.967  0.4693 -0.6645  1.8838
  238SOL     MW  952   1.086   1.750   2.957  0.1033 -0.0099  0.2413
  239SOL     OW  953   1.179   1.297   2.266  0.3422  0.1411 -0.1136
  239SOL    HW1  954   1.090   1.278   2.234 -0.8279 -0.0510  0.3078
  239SOL    HW2  955   1.184   1.265   2.354 -0.4252  2.9157 -1.5375
  239SOL     MW  956   1.168   1.290   2.274  0.0866  0.4818 -0.2459
  240SOL     OW  957   0.610   0.868   2.201 -0.2354  0.3489 -0.0599
  240SOL    HW1  958   0.610   0.923   2.287  1.2691 -0.9823 -0.7721
  240SOL    HW2  959   0.706   0.849   2.191  1.1511 -1.4993  2.4312
  240SOL     MW  960   0.623   0.873   2.211  0.1460 -0.0706  0.1748
  241SOL     OW  961   0.689   0.461   3.045  0.2506 -0.2832 -0.0134
  241SOL    HW1  962   0.711   0.537   3.100 -2.2622 -1.2870 -0.6798
  241SOL    HW2  963   0.603   0.473   3.013  0.4428 -1.5826 -0.4134
  241SOL     MW  964   0.681   0.472   3.048 -0.0556 -0.5871 -0.1541
  242SOL     OW  965   1.509   1.688   2.295 -0.1534  0.0453  0.4854
  242SOL    HW1  966   1.459   1.767   2.298 -0.2096  1.0596  2.4593
  242SOL    HW2  967   1.451   1.618   2.254  0.0260  1.5428  0.7422
  242SOL     MW  968   1.494   1.689   2.290 -0.1371  0.3767  0.7797
  243SOL     OW  969   1.010   0.335   2.368  0.5578  0.0462 -0.1182
  243SOL    HW1  970   1.091   0.364   2.327  2.8157  0.7041 -0.7838
  243SOL    HW2  971   1.024   0.363   2.463  2.0402  1.2153  2.5357
  243SOL     MW  972   1.023   0.342   2.375  1.0513  0.2873  0.1441
  244SOL     OW  973   0.134   0.766   2.375 -0.5998 -0.2982  0.1921
  244SOL    HW1  974   0.100   0.852   2.379 -1.7358  1.3205  0.2837
  244SOL    HW2  975   0.230   0.770   2.362 -0.8321  1.1860  0.5520
  244SOL     MW  976   0.142   0.778   2.374 -0.7803  0.1112  0.2516
  245SOL     OW  977   1.276   0.207   2.355  0.3872 -0.0383  0.6334
  245SOL    HW1  978   1.370   0.189   2.328  1.0531  2.4398 -1.4353
  245SOL    HW2  979   1.251   0.132   2.401  0.8856  0.5626 -1.4639
  245SOL     MW  980   1.285   0.195   2.357  0.5408  0.3680  0.0838
  246SOL     OW  981   1.230   1.103   2.027  0.3902 -0.3341  0.0178
  246SOL    HW1  982   1.161   1.129   2.091 -2.4292 -0.9637  1.3140
  246SOL    HW2  983   1.302   1.089   2.099  0.0988 -1.4681  2.3452
  246SOL     MW  984   1.231   1.104   2.045 -0.0202 -0.5668  0.4959
  247SOL     OW  985   0.787   0.655   0.156 -0.2529 -0.1479 -0.5394
  247SOL    HW1  986   0.769   0.749   0.159 -0.2295  1.6061 -0.6590
  247SOL    HW2  987   0.884   0.641   0.143 -1.7366  0.2417  2.2631
  247SOL     MW  988   0.797   0.666   0.155 -0.4456  0.1349 -0.1854
  248SOL     OW  989   0.334   1.295   2.548 -0.3091 -0.2378  0.2862
  248SOL    HW1  990   0.318   1.338   2.467  1.4547  2.6817  2.5259
  248SOL    HW2  991   0.377   1.371   2.599  2.0403 -0.7483 -1.1846
  248SOL     MW  992   0.337   1.311   2.544  0.2336  0.0801  0.3876
  249SOL     OW  993   2.990   1.920   2.830 -0.2385  0.2258 -0.5017
  249SOL    HW1  994   2.964   1.851   2.771  1.1961  0.3859 -1.6866
  249SOL    HW2  995   3.070   1.886   2.868 -2.1408 -1.6485  0.3015
  249SOL     MW  996   2.997   1.906   2.828 -0.3002 -0.0004 -0.5520
  250SOL     OW  997   2.155   0.841   2.204  0.3064 -0.2946 -0.3182
  250SOL    HW1  998   2.134   0.755   2.227  3.8810  0.7127  3.7541
  250SOL    HW2  999   2.215   0.871   2.274  3.6357 -4.6567 -0.7768
  250SOL     MW 1000   2.160   0.834   2.216  1.2173 -0.7372  0.1586
  251SOL     OW 1001   0.152   0.898   2.035 -0.5204 -0.0600  0.2739
  251SOL    HW1 1002   0.128   0.809   2.054  1.8659  2.4206  2.4719
  251SOL    HW2 1003   0.138   0.898   1.940  1.3967  1.1109 -1.1046
  251SOL     MW 1004   0.147   0.887   2.025  0.0474  0.4218  0.3821
  252SOL     OW 1005   1.653   0.960   2.814  0.5889 -0.1938 -0.0650
  252SOL    HW1 1006   1.645   0.996   2.902 -0.1285  0.9001 -0.6527
  252SOL    HW2 1007   1.745   0.991   2.786  3.0979  3.7287  1.8005
  252SOL     MW 1008   1.664   0.969   2.822  0.8253  0.4680  0.1036
  253SOL     OW 1009   1.147   1.691   2.441 -0.1758  0.0700  0.4121
  253SOL    HW1 1010   1.125   1.666   2.347  0.7773 -1.5847 -3.2665
  253SOL    HW2 1011   1.071   1.731   2.474  1.5652  0.4866  1.2592
  253SOL     MW 1012   1.134   1.693   2.433  0.1797 -0.0933  0.0385
  254SOL     OW 1013   0.949   1.137   2.241 -0.2765  0.2841 -0.0348
  254SOL    HW1 1014   0.935   1.039   2.234 -1.0488 -2.5206 -2.9316
  254SOL    HW2 1015   0.922   1.167   2.328  0.1951 -0.9680  0.8147
  254SOL     MW 1016   0.944   1.128   2.252 -0.3161 -0.2512 -0.3049
  255SOL     OW 1017   0.863   2.577   2.165 -0.4958  0.0192 -0.8620
  255SOL    HW1 1018   0.785   2.517   2.153 -1.5794 -3.6426 -1.2728
  255SOL    HW2 1019   0.934   2.519   2.181 -0.1330 -1.9131  0.4646
  255SOL     MW 1020   0.862   2.561   2.165 -0.5909 -0.7189 -0.7411
  256SOL     OW 1021   1.228   2.761   2.990 -0.5109 -0.2016  0.5108
  256SOL    HW1 1022   1.190   2.676   2.967  0.6611  0.7290  0.1204
  256SOL    HW2 1023   1.296   2.777   2.923  2.5787 -0.0334 -1.0946
  256SOL     MW 1024   1.232   2.752   2.978  0.0514 -0.0566  0.2475
  257SOL     OW 1025   0.051   1.889   0.115  0.4014 -0.2758 -0.0705
  257SOL    HW1 1026   0.129   1.855   0.147 -2.5883 -3.5595  1.1438
  257SOL    HW2 1027   0.070   1.885   0.023  1.1944 -1.3036  0.7409
  257SOL     MW 1028   0.064   1.884   0.107  0.1116 -0.8447  0.1968
  258SOL     OW 1029   0.658   0.984   2.465 -0.4533  0.5231 -0.3175
  258SOL    HW1 1030   0.695   1.067   2.463 -2.7769 -2.2847 -0.4839
  258SOL    HW2 1031   0.632   0.974   2.552 -0.5340  3.0442 -2.0934
  258SOL     MW 1032   0.659   0.993   2.476 -0.7705  0.4853 -0.5738
  259SOL     OW 1033   0.803   0.476   2.265  0.6534  0.7427  0.7543
  259SOL    HW1 1034   0.736   0.417   2.226 -2.5658  1.9903  0.5130
  259SOL    HW2 1035   0.878   0.425   2.300  0.3670  0.7106  0.7836
  259SOL     MW 1036   0.804   0.462   2.265  0.1909  0.9031  0.7263
  260SOL     OW 1037   0.655   0.092   1.549 -0.0163  0.6680 -0.1377
  260SOL    HW1 1038   0.615   0.169   1.515  2.2506 -1.7093 -2.0411
  260SOL    HW2 1039   0.733   0.075   1.491 -2.0532 -3.9677  0.5272
  260SOL     MW 1040   0.660   0.100   1.536  0.0141 -0.2573 -0.3011
  261SOL     OW 1041   1.075   0.697   1.995 -1.0331  0.7465 -0.0045
  261SOL    HW1 1042   1.096   0.715   2.097  1.2141 -0.6510  1.1832
  261SOL    HW2 1043   1.017   0.619   1.994  0.1726 -3.0015  2.8572
  261SOL     MW 1044   1.070   0.689   2.008 -0.5775  0.0676  0.5298
  262SOL     OW 1045   1.121   0.342   0.141  0.2284 -0.3628 -0.2274
  262SOL    HW1 1046   1.217   0.335   0.128  1.3801 -2.9597 -0.4977
  262SOL    HW2 1047   1.093   0.273   0.085 -1.0123  3.1304 -2.3154
  262SOL     MW 1048   1.130   0.332   0.132  0.2166 -0.2445 -0.5386
  263SOL     OW 1049   0.365   3.083   2.498  0.1813  0.1485 -0.0960
  263SOL    HW1 1050   0.301   3.150   2.511 -1.6294  0.3397  1.2246
  263SOL    HW2 1051   0.436   3.136   2.457 -1.3501  1.9468 -0.2324
  263SOL     MW 1052   0.366   3.099   2.494 -0.2597  0.4110  0.0602
  264SOL     OW 1053   1.535   1.400   1.913  0.2100  0.1513 -0.1253
  264SOL    HW1 1054   1.491   1.315   1.908 -1.1761 -0.1476 -0.8342
  264SOL    HW2 1055   1.630   1.382   1.933  0.7743 -0.5380 -2.7587
  264SOL     MW 1056   1.541   1.386   1.915  0.1016  0.0209 -0.5663
  265SOL     OW 1057   0.735   2.791   2.299  0.1408  1.0388 -0.2680
  265SOL    HW1 1058   0.807   2.733   2.281 -0.6147  0.5681  2.8841
  265SOL    HW2 1059   0.714   2.777   2.391  0.9604  0.1615 -0.6147
  265SOL     MW 1060   0.742   2.782   2.309  0.1492  0.8610  0.1022
  266SOL     OW 1061   0.864   0.894   2.130 -0.1265  0.8246 -0.7298
  266SOL    HW1 1062   0.832   0.969   2.079  0.0935  0.5066 -2.5299
  266SOL    HW2 1063   0.907   0.839   2.071  0.0344 -0.6867  0.1687
  266SOL     MW 1064   0.866   0.896   2.115 -0.0762  0.5833 -0.8488
  267SOL     OW 1065   1.368   1.713   2.649  0.6499 -0.7198  0.3065
  267SOL    HW1 1066   1.442   1.674   2.605 -2.4746  0.6388 -0.9025
  267SOL    HW2 1067   1.294   1.723   2.590 -0.6271 -0.8098  1.2596
  267SOL     MW 1068   1.368   1.709   2.635  0.0691 -0.5524  0.2727
  268SOL     OW 1069   0.127   0.905   1.746  0.4875 -0.5651 -0.1912
  268SOL    HW1 1070   0.098   0.994   1.727  1.0609 -1.7304 -1.4955
  268SOL    HW2 1071   0.099   0.855   1.666 -0.5417  2.1146  1.1667
  268SOL     MW 1072   0.119   0.910   1.733  0.4273 -0.3653 -0.1841
  269SOL     OW 1073   1.333   1.924   2.295  0.0243 -0.7064 -0.3901
  269SOL    HW1 1074   1.361   1.979   2.372 -0.9668  0.8646  2.9838
  269SOL    HW2 1075   1.249   1.901   2.322 -0.1764 -0.5212  1.4527
  269SOL     MW 1076   1.326   1.928   2.309 -0.1330 -0.4747  0.2982
  270SOL     OW 1077   1.123   0.420   1.584 -0.0416 -0.7778 -0.1045
  270SOL    HW1 1078   1.086   0.343   1.624  1.6975 -0.4703 -2.1419
  270SOL    HW2 1079   1.216   0.424   1.606 -0.6360  0.7698 -0.2766
  270SOL     MW 1080   1.130   0.410   1.592  0.1094 -0.5331 -0.3960
  271SOL     OW 1081   0.857   0.116   2.468  0.3765  0.0968  0.0102
  271SOL    HW1 1082   0.924   0.058   2.496 -0.2297 -1.0461 -1.0403
  271SOL    HW2 1083   0.904   0.184   2.411  1.3386  1.9469  0.6265
  271SOL     MW 1084   0.872   0.118   2.464  0.4235  0.1901 -0.0471
  272SOL     OW 1085   1.434   2.828   2.839  0.4554 -0.1450 -0.2224
  272SOL    HW1 1086   1.412   2.821   2.748  0.2157  3.0527  0.7171
  272SOL    HW2 1087   1.471   2.917   2.845 -1.2080 -1.2793 -0.2960
  272SOL     MW 1088   1.436   2.839   2.828  0.2043  0.1272 -0.1081
  273SOL     OW 1089   1.414   0.816   2.769 -0.4098 -0.2277 -0.3409
  273SOL    HW1 1090   1.487   0.881   2.772  1.4268  1.5161 -2.1607
  273SOL    HW2 1091   1.337   0.858   2.729 -1.2918 -2.6605  0.4124
  273SOL     MW 1092   1.413   0.830   2.764 -0.2839 -0.3186 -0.4816
  274SOL     OW 1093   1.431   0.712   0.163  0.6103  0.1618 -0.0719
  274SOL    HW1 1094   1.466   0.632   0.201 -1.5738  0.7119  0.7745
  274SOL    HW2 1095   1.358   0.737   0.218  1.1345 -0.1149 -0.1155
  274SOL     MW 1096   1.426   0.705   0.175  0.3913  0.1979  0.0340
  275SOL     OW 1097   1.779   0.505   1.761  0.2036  0.3446 -0.3176
  275SOL    HW1 1098   1.835   0.532   1.834  1.6840 -0.5703  0.2254
  275SOL    HW2 1099   1.769   0.408   1.765  0.0559  1.7348 -0.8922
  275SOL     MW 1100   1.785   0.496   1.771  0.3795  0.4073 -0.3217
  276SOL     OW 1101   0.474   1.206   1.926 -0.5237 -0.2797  0.0406
  276SOL    HW1 1102   0.457   1.114   1.933  0.4457  1.0338 -4.4561
  276SOL    HW2 1103   0.430   1.245   2.001  2.5194  1.1784 -0.8390
  276SOL     MW 1104   0.466   1.199   1.937  0.0057  0.0860 -0.6687
  277SOL     OW 1105   2.008   1.090   2.442 -0.0880  0.0183 -0.1800
  277SOL    HW1 1106   2.011   1.187   2.444  2.4830 -0.4285  1.8791
  277SOL    HW2 1107   1.996   1.074   2.348  0.8458  2.2685 -0.6707
  277SOL     MW 1108   2.007   1.101   2.430  0.3744  0.2563  0.0269
  278SOL     OW 1109   1.436   0.671   1.740  0.2308  0.5363 -0.7582
  278SOL    HW1 1110   1.414   0.579   1.773 -1.3802 -3.1602  0.2058
  278SOL    HW2 1111   1.526   0.661   1.699  0.9447 -1.9289 -2.2150
  278SOL     MW 1112   1.445   0.657   1.739  0.1124 -0.2766 -0.8232
  279SOL     OW 1113   0.527   0.093   2.257 -0.2309 -0.5694 -0.2934
  279SOL    HW1 1114   0.606   0.038   2.242  1.0380  0.2359  2.9245
  279SOL    HW2 1115   0.555   0.179   2.217  3.3753 -3.4242 -0.2026
  279SOL     MW 1116   0.541   0.097   2.250  0.4123 -0.8398  0.1432
  280SOL     OW 1117   1.453   1.126   2.193  0.1451  0.0149  0.1860
  280SOL    HW1 1118   1.496   1.042   2.175 -1.9571 -2.1750  0.2111
  280SOL    HW2 1119   1.411   1.112   2.282 -1.1303  0.0504  2.2282
  280SOL     MW 1120   1.453   1.113   2.202 -0.3006 -0.2694  0.4588
  281SOL     OW 1121   1.378   1.136   2.670 -0.5470 -0.3943 -0.0746
  281SOL    HW1 1122   1.450   1.208   2.664 -0.1485  3.0176 -2.2359
  281SOL    HW2 1123   1.356   1.122   2.763 -1.0649 -1.4710 -0.8774
  281SOL     MW 1124   1.385   1.143   2.682 -0.5628 -0.0862 -0.4657
  282SOL     OW 1125   1.175   1.261   1.579  0.2797  0.5095 -0.1068
  282SOL    HW1 1126   1.172   1.348   1.533  0.0777 -0.7400  3.6433
  282SOL    HW2 1127   1.098   1.257   1.645 -1.6822  0.9447 -0.5713
  282SOL     MW 1128   1.165   1.272   1.582 -0.0058  0.4020  0.3267
  283SOL     OW 1129   0.862   1.361   0.009 -0.3636  0.3658  0.2842
  283SOL    HW1 1130   0.954   1.351   0.042  0.4129  3.3677  0.3290
  283SOL    HW2 1131   0.841   1.448  -0.034  0.2070 -0.1179 -3.0189
  283SOL     MW 1132   0.871   1.371   0.008 -0.1859  0.6981 -0.1457
  284SOL     OW 1133   0.399   0.739   2.309  0.2789 -0.6524 -0.0411
  284SOL    HW1 1134   0.487   0.772   2.301  0.7941  1.4606 -0.8078
  284SOL    HW2 1135   0.402   0.653   2.262 -2.4582 -0.6763  0.0003
  284SOL     MW 1136   0.411   0.732   2.302 -0.0142 -0.3768 -0.1368
  285SOL     OW 1137   0.886   0.879   2.854 -0.2156 -0.7389  0.1425
  285SOL    HW1 1138   0.901   0.927   2.767  0.5555  1.8108  1.6357
  285SOL    HW2 1139   0.848   0.800   2.823  0.9106  1.3354  0.6565
  285SOL     MW 1140   0.883   0.875   2.838  0.0347 -0.1288  0.4073
  286SOL     OW 1141   1.128   1.463   2.593  0.3990 -0.2840 -0.7528
  286SOL    HW1 1142   1.126   1.367   2.575  0.1029  1.6109  0.5060
  286SOL    HW2 1143   1.136   1.507   2.512  1.6429 -3.7041  0.8793
  286SOL     MW 1144   1.129   1.456   2.580  0.5240 -0.4852 -0.3714
  287SOL     OW 1145   1.203   1.018   0.361 -0.0476 -0.6805  0.0078
  287SOL    HW1 1146   1.160   1.049   0.435 -1.2151  1.3225 -2.7132
  287SOL    HW2 1147   1.142   1.048   0.297 -1.2850 -1.4276  1.6938
  287SOL     MW 1148   1.189   1.026   0.362 -0.3649 -0.5148 -0.1288
  288SOL     OW 1149   1.477   0.624   2.094 -0.1600  0.0889  0.3705
  288SOL    HW1 1150   1.421   0.625   2.165  2.1842 -1.8286 -1.2076
  288SOL    HW2 1151   1.480   0.726   2.081  0.5722  1.9173  2.6947
  288SOL     MW 1152   1.470   0.638   2.101  0.2459  0.0771  0.4690
  289SOL     OW 1153   0.933   0.979   2.610  0.1000 -0.3120  0.0370
  289SOL    HW1 1154   0.969   0.894   2.579  2.6835 -2.6076 -0.2743
  289SOL    HW2 1155   0.855   0.988   2.561  0.7315 -0.6079 -0.2518
  289SOL     MW 1156   0.927   0.969   2.599  0.5242 -0.6539 -0.0422
  290SOL     OW 1157   0.815   0.639   1.463 -0.1410 -0.0248 -0.1485
  290SOL    HW1 1158   0.864   0.586   1.398 -0.6405 -1.0076  1.0213
  290SOL    HW2 1159   0.881   0.659   1.530  1.9751  0.0769 -2.9803
  290SOL     MW 1160   0.831   0.635   1.463  0.0723 -0.1411 -0.3678
  291SOL     OW 1161   0.199   0.371   0.163 -0.3518  0.1678  0.2673
  291SOL    HW1 1162   0.295   0.344   0.164  1.3629 -1.6319  0.7152
  291SOL    HW2 1163   0.155   0.292   0.131 -1.1833  0.0231  0.9208
  291SOL     MW 1164   0.206   0.357   0.159 -0.2353 -0.0888  0.4126
  292SOL     OW 1165   1.047   0.620   0.106 -0.0575  0.5473 -0.4006
  292SOL    HW1 1166   1.070   0.698   0.164  0.7072  1.3299 -1.9011
  292SOL    HW2 1167   1.093   0.546   0.145  0.6667  1.1946  1.9650
  292SOL     MW 1168   1.056   0.621   0.119  0.1389  0.7360 -0.2864
  293SOL     OW 1169   0.101   0.143   2.547 -0.1997 -0.6378  0.3596
  293SOL    HW1 1170   0.062   0.099   2.470 -1.9289  0.2966 -0.1169
  293SOL    HW2 1171   0.028   0.163   2.602 -0.5353 -1.2053  1.1044
  293SOL     MW 1172   0.086   0.140   2.544 -0.4721 -0.5894  0.3950
  294SOL     OW 1173   1.304   0.522   2.342  0.0077 -0.1823  0.2875
  294SOL    HW1 1174   1.347   0.589   2.398  1.8465  1.5292 -2.3120
  294SOL    HW2 1175   1.327   0.435   2.367 -2.4285  0.8261  4.0031
  294SOL     MW 1176   1.313   0.520   2.353 -0.0711  0.1766  0.4347
  295SOL     OW 1177   0.839   0.564   2.528 -0.8530  0.2343  0.2795
  295SOL    HW1 1178   0.805   0.538   2.441  0.3497 -0.4379 -0.4918
  295SOL    HW2 1179   0.766   0.592   2.578  0.6319  2.7498 -0.4062
  295SOL     MW 1180   0.825   0.564   2.523 -0.4984  0.4775  0.0873
  296SOL     OW 1181   1.256   0.210   2.044  0.2929  0.0769  0.1810
  296SOL    HW1 1182   1.312   0.157   1.991  1.1782 -0.1395  1.5433
  296SOL    HW2 1183   1.289   0.193   2.135 -0.4692  2.5964  1.4983
  296SOL     MW 1184   1.268   0.201   2.049  0.3091  0.3808  0.5345
  297SOL     OW 1185   1.419   0.380   1.556  0.1324  0.0167  0.3808
  297SOL    HW1 1186   1.471   0.463   1.572  1.1312  0.9730  6.0039
  297SOL    HW2 1187   1.456   0.312   1.610  0.3111 -0.3388  0.6678
  297SOL     MW 1188   1.431   0.382   1.566  0.2877  0.0960  1.1605
  298SOL     OW 1189   1.583   0.883   2.074 -0.2120 -0.2150  0.0518
  298SOL    HW1 1190   1.606   0.946   2.005  2.2053 -1.1749  0.1184
  298SOL    HW2 1191   1.667   0.831   2.086 -1.1007 -1.3048 -0.7425
  298SOL     MW 1192   1.597   0.884   2.066 -0.0103 -0.4854 -0.0442
  299SOL     OW 1193   0.570   1.165   0.080  0.4359  0.1455  0.1706
  299SOL    HW1 1194   0.550   1.130  -0.005 -0.8329  0.4436  4.1013
  299SOL    HW2 1195   0.658   1.199   0.069 -1.7459  2.1441  2.4764
  299SOL     MW 1196   0.579   1.164   0.067 -0.0194  0.4486  0.9935
  300SOL     OW 1197   1.113   1.176   2.528 -0.4900  0.4699  0.9489
  300SOL    HW1 1198   1.055   1.095   2.533 -2.0702 -0.1807 -1.8163
  300SOL    HW2 1199   1.199   1.153   2.562  0.5896 -1.6336 -0.1358
  300SOL     MW 1200   1.117   1.162   2.533 -0.5561  0.1065  0.4409
  301SOL     OW 1201   1.423   1.033   0.727  0.5585  0.6957 -0.0365
  301SOL    HW1 1202   1.459   1.066   0.810  0.5847 -0.1631  1.4559
  301SOL    HW2 1203   1.362   0.967   0.758 -0.2510 -1.1460  0.7312
  301SOL     MW 1204   1.419   1.029   0.742  0.4552  0.3394  0.2617
  302SOL     OW 1205   0.182   1.563   2.036 -0.7023  0.2076  0.1327
  302SOL    HW1 1206   0.178   1.466   2.042  3.5059 -1.1807 -1.9451
  302SOL    HW2 1207   0.098   1.609   2.051 -1.7871 -1.6067 -0.5581
  302SOL     MW 1208   0.170   1.556   2.039 -0.2902 -0.2149 -0.2326
  303SOL     OW 1209   0.359   1.766   2.673 -0.2748 -0.1279 -0.5614
  303SOL    HW1 1210   0.366   1.808   2.585  1.0206 -0.4444  0.7729
  303SOL    HW2 1211   0.273   1.787   2.716  2.9374 -0.1265  0.9293
  303SOL     MW 1212   0.348   1.774   2.667  0.3200 -0.1695 -0.1887
  304SOL     OW 1213   0.490   2.056   2.401 -0.1012  0.2789  0.3526
  304SOL    HW1 1214   0.542   2.119   2.342 -2.4939  1.5954  1.1116
  304SOL    HW2 1215   0.553   1.984   2.414 -1.5229 -0.4398  0.2985
  304SOL     MW 1216   0.505   2.055   2.395 -0.6045  0.3578  0.4456
  305SOL     OW 1217   1.111   0.661   0.564 -0.2017 -0.0702 -0.1930
  305SOL    HW1 1218   1.023   0.673   0.523  2.1016  0.4943 -2.1089
  305SOL    HW2 1219   1.144   0.577   0.544 -0.2667  1.0495 -0.7516
  305SOL     MW 1220   1.104   0.652   0.556  0.0936  0.1520 -0.5195
  306SOL     OW 1221   1.082   1.557   0.244 -0.7631  0.2843  0.6041
  306SOL    HW1 1222   1.112   1.467   0.275  0.7431 -1.3703 -2.3209
  306SOL    HW2 1223   1.149   1.564   0.174 -0.4048 -1.3832 -1.4853
  306SOL     MW 1224   1.095   1.546   0.239 -0.5171 -0.1540 -0.0575
  307SOL     OW 1225   1.362   0.442   1.901  0.4392  0.1623  0.4638
  307SOL    HW1 1226   1.318   0.374   1.948  1.0274 -0.9562 -2.0341
  307SOL    HW2 1227   1.371   0.519   1.961 -1.5317  0.2976  1.4075
  307SOL     MW 1228   1.357   0.443   1.915  0.2568  0.0326  0.2588
  308SOL     OW 1229   2.224   0.504   2.662 -0.5512 -0.3035  0.1075
  308SOL    HW1 1230   2.310   0.529   2.699  0.0984  0.8973  1.3619
  308SOL    HW2 1231   2.172   0.589   2.666  1.1734  0.3548 -0.0842
  308SOL     MW 1232   2.228   0.518   2.667 -0.2380 -0.0582  0.2477
  309SOL     OW 1233   0.488   0.587   0.247  0.2965  0.1970  0.2938
  309SOL    HW1 1234   0.568   0.613   0.206 -1.0568 -1.7153 -1.6884
  309SOL    HW2 1235   0.492   0.492   0.230 -0.4429 -0.2913 -0.3166
  309SOL     MW 1236   0.499   0.578   0.239  0.0204 -0.1198 -0.0483
  310SOL     OW 1237   0.461   0.637   1.907 -0.2672 -0.7063 -0.3432
  310SOL    HW1 1238   0.492   0.563   1.857 -3.5282  2.6610  1.4060
  310SOL    HW2 1239   0.490   0.719   1.868  0.0668  1.5150  0.6790
  310SOL     MW 1240   0.469   0.638   1.895 -0.6534  0.0311  0.0225
  311SOL     OW 1241   1.943   0.642   1.965  0.1376  0.0365 -0.1847
  311SOL    HW1 1242   1.903   0.681   2.044 -4.5552 -1.6700  0.8826
  311SOL    HW2 1243   2.015   0.580   1.995  1.3371 -3.5089 -1.4361
  311SOL     MW 1244   1.947   0.639   1.979 -0.3233 -0.6564 -0.2090
  312SOL     OW 1245   1.771   2.443   0.119 -0.6100 -0.0058 -0.4999
  312SOL    HW1 1246   1.762   2.422   0.212 -1.7141 -1.4924  0.1409
  312SOL    HW2 1247   1.706   2.513   0.109  0.1631  1.5020  0.8206
  312SOL     MW 1248   1.761   2.449   0.130 -0.6537 -0.0030 -0.2411
  313SOL     OW 1249   0.125   1.131   3.037 -0.5796 -0.1093  0.1378
  313SOL    HW1 1250   0.077   1.187   3.100  2.8549  0.4860 -0.2043
  313SOL    HW2 1251   0.180   1.193   2.996 -0.3061 -1.1710  1.0779
  313SOL     MW 1252   0.126   1.146   3.040 -0.0903 -0.1708  0.2167
  314SOL     OW 1253   2.154   2.930   3.088 -0.0170  0.5955  0.3120
  314SOL    HW1 1254   2.103   2.962   3.008 -4.4427  0.1174 -3.6230
  314SOL    HW2 1255   2.201   3.010   3.111  1.2693  0.7291  0.1261
  314SOL     MW 1256   2.153   2.945   3.080 -0.4312  0.5500 -0.2317
  315SOL     OW 1257   1.541   1.820   2.972 -0.3103 -0.2822  0.1596
  315SOL    HW1 1258   1.486   1.872   3.045  2.7416 -0.6036  1.9694
  315SOL    HW2 1259   1.572   1.888   2.908 -0.1091 -0.4991  1.5014
  315SOL     MW 1260   1.538   1.836   2.973  0.1189 -0.3532  0.5754
  316SOL     OW 1261   1.215   0.581   2.725 -0.5114  0.2784 -0.0079
  316SOL    HW1 1262   1.308   0.567   2.750  1.3739  1.1657  1.2490
  316SOL    HW2 1263   1.166   0.569   2.812 -1.5116  1.8620 -1.2479
  316SOL     MW 1264   1.221   0.577   2.740 -0.3946  0.6044 -0.0057
  317SOL     OW 1265   0.688   1.582   2.665  0.1081  0.2608 -0.1027
  317SOL    HW1 1266   0.741   1.504   2.671 -1.5973 -0.5271 -2.0619
  317SOL    HW2 1267   0.673   1.589   2.569 -3.1223  0.4010 -2.2773
  317SOL     MW 1268   0.693   1.572   2.653 -0.5431  0.1753 -0.6481
  318SOL     OW 1269   1.330   0.377   2.970  0.0970  0.7073 -0.1982
  318SOL    HW1 1270   1.243   0.424   2.987 -1.4527  0.9275  3.5217
  318SOL    HW2 1271   1.396   0.443   2.930 -1.0095 -0.6760  0.0931
  318SOL     MW 1272   1.327   0.392   2.967 -0.2535  0.5539  0.3311
  319SOL     OW 1273   0.867   0.381   2.865 -0.3664  0.4012 -0.8410
  319SOL    HW1 1274   0.855   0.291   2.838 -2.9856  2.4889 -0.3541
  319SOL    HW2 1275   0.803   0.405   2.930 -2.9681  0.6473  0.9811
  319SOL     MW 1276   0.857   0.373   2.870 -1.0552  0.7091 -0.5364
  320SOL     OW 1277   1.064   1.407   1.967 -0.2877 -0.1520  0.1096
  320SOL    HW1 1278   1.116   1.328   1.978 -1.3362 -3.5873 -1.1333
  320SOL    HW2 1279   1.120   1.483   1.952 -0.7450 -0.2326  0.0778
  320SOL     MW 1280   1.078   1.406   1.966 -0.4864 -0.6159 -0.0586
  321SOL     OW 1281   1.117   0.918   3.010  0.2635 -0.1969  0.3388
  321SOL    HW1 1282   1.043   0.881   2.960  0.3910 -0.0842  3.9891
  321SOL    HW2 1283   1.184   0.845   3.009 -0.1636 -1.4306  1.4181
  321SOL     MW 1284   1.116   0.904   3.003  0.2240 -0.3448  0.9628
  322SOL     OW 1285   1.220   0.833   1.692 -0.1253 -1.0978  0.2894
  322SOL    HW1 1286   1.297   0.781   1.713  1.3243 -1.3397 -0.2323
  322SOL    HW2 1287   1.176   0.866   1.770  0.0163  2.3558  1.5033
  322SOL     MW 1288   1.224   0.830   1.705  0.0847 -0.6741  0.3807
  323SOL     OW 1289   1.225   1.609   1.903  0.0703 -0.2137 -0.1505
  323SOL    HW1 1290   1.256   1.576   1.821 -1.0611  1.8987 -0.2112
  323SOL    HW2 1291   1.153   1.665   1.877  0.3527  0.8360 -0.6302
  323SOL     MW 1292   1.220   1.612   1.889 -0.0417  0.2035 -0.2218
  324SOL     OW 1293   1.453   0.998   2.449 -0.4291  0.0721  0.7373
  324SOL    HW1 1294   1.426   1.028   2.536 -2.3700 -0.1600  2.9383
  324SOL    HW2 1295   1.547   1.029   2.437  1.1402 -1.0555 -2.6074
  324SOL     MW 1296   1.462   1.006   2.459 -0.4781 -0.1073  0.5864
  325SOL     OW 1297   1.085   0.503   2.954 -0.5742  0.3029 -0.7404
  325SOL    HW1 1298   1.063   0.562   3.025  1.7379 -0.6923 -2.6390
  325SOL    HW2 1299   1.005   0.459   2.927 -1.6694  0.6220  0.7484
  325SOL     MW 1300   1.071   0.505   2.960 -0.4137  0.2137 -0.7945
  326SOL     OW 1301   0.340   1.368   2.259 -0.6380  0.1628 -0.2678
  326SOL    HW1 1302   0.423   1.328   2.263 -1.4220  0.4515 -0.6929
  326SOL    HW2 1303   0.344   1.463   2.240 -1.3415  1.2353 -0.1531
  326SOL     MW 1304   0.351   1.375   2.257 -0.8343  0.3424 -0.3088
  327SOL     OW 1305   1.974   0.788   2.434 -0.4760  0.4313  0.1616
  327SOL    HW1 1306   1.914   0.758   2.507 -1.4264 -0.0549 -1.0067
  327SOL    HW2 1307   1.993   0.882   2.459  2.8870 -1.0216 -0.9157
  327SOL     MW 1308   1.969   0.797   2.447 -0.1577  0.1754 -0.1347
  328SOL     OW 1309   0.220   1.262   2.047 -0.5998  0.3482  0.1252
  328SOL    HW1 1310   0.150   1.202   2.057 -0.4739  0.6745  0.5868
  328SOL    HW2 1311   0.238   1.291   2.135 -0.5349 -0.0800  1.5755
  328SOL     MW 1312   0.213   1.258   2.060 -0.5746  0.3348  0.3775
  329SOL     OW 1313   0.052   0.140   1.368 -0.2813 -0.6027  0.6067
  329SOL    HW1 1314   0.054   0.074   1.435 -1.2202  0.5571 -0.1651
  329SOL    HW2 1315   0.150   0.152   1.339  0.7089  2.2545  0.8617
  329SOL     MW 1316   0.065   0.133   1.373 -0.2745 -0.0727  0.5385
  330SOL     OW 1317   0.402   3.086   2.059 -0.2131  0.0002  0.8219
  330SOL    HW1 1318   0.446   3.111   2.142  1.3391 -0.5103  0.2302
  330SOL    HW2 1319   0.334   3.022   2.092  0.9898 -1.5697  0.6892
  330SOL     MW 1320   0.398   3.081   2.074  0.1504 -0.2743  0.7264
  331SOL     OW 1321   0.799   1.227   2.446 -0.2034 -0.2593 -0.3633
  331SOL    HW1 1322   0.718   1.256   2.400  0.8811 -0.2844 -0.9459
  331SOL    HW2 1323   0.816   1.289   2.518  0.4021 -0.5487 -1.4327
  331SOL     MW 1324   0.791   1.239   2.450  0.0195 -0.3008 -0.5813
  332SOL     OW 1325   1.334   1.644   2.906  0.1066 -0.2058 -0.0477
  332SOL    HW1 1326   1.348   1.655   2.812  2.1867  0.2011 -1.1194
  332SOL    HW2 1327   1.405   1.697   2.952  0.7589  1.5603  0.1489
  332SOL     MW 1328   1.345   1.653   2.900  0.4671  0.0809 -0.1631
  333SOL     OW 1329   1.700   1.397   2.927 -0.3418  0.2860  0.0663
  333SOL    HW1 1330   1.799   1.378   2.941  1.9021 -0.5223 -1.5995
  333SOL    HW2 1331   1.663   1.329   2.989 -0.3721 -2.0716  0.6844
  333SOL     MW 1332   1.708   1.385   2.937 -0.0497 -0.1317 -0.0720
  334SOL     OW 1333   1.266   3.064   2.669  0.4803 -0.1928 -0.2593
  334SOL    HW1 1334   1.176   3.081   2.697  1.8824 -2.4835 -0.1926
  334SOL    HW2 1335   1.310   3.147   2.710  0.2926  1.4419 -1.3195
  334SOL     MW 1336   1.260   3.078   2.678  0.6406 -0.2793 -0.3904
  335SOL     OW 1337   1.315   0.705   3.024 -0.5578 -0.0762  0.2754
  335SOL    HW1 1338   1.357   0.701   3.107 -6.3239 -2.2540 -0.1178
  335SOL    HW2 1339   1.383   0.743   2.979 -0.1681 -0.9998  2.4014
  335SOL     MW 1340   1.330   0.710   3.029 -1.2672 -0.4854  0.5041
  336SOL     OW 1341   0.972   1.162   1.749  0.1952 -0.8028 -1.0545
  336SOL    HW1 1342   0.915   1.219   1.798  0.0359  1.7484  2.0431
  336SOL    HW2 1343   0.991   1.090   1.809 -1.2244  1.9090 -0.0260
  336SOL     MW 1344   0.967   1.160   1.763 -0.0131 -0.1084 -0.5101
  337SOL     OW 1345   0.563   1.868   2.822  0.0029  0.5911  0.5325
  337SOL    HW1 1346   0.510   1.815   2.762  0.0264  0.2881  0.6319
  337SOL    HW2 1347   0.648   1.829   2.818 -0.0330 -1.3887  1.7968
  337SOL     MW 1348   0.567   1.856   2.814  0.0013  0.2899  0.7124
  338SOL     OW 1349   1.047   0.743   2.506  0.4757 -0.0557 -0.5407
  338SOL    HW1 1350   0.969   0.681   2.503  0.1819  0.9552  0.4688
  338SOL    HW2 1351   1.119   0.694   2.561  0.3631  1.0764  0.3172
  338SOL     MW 1352   1.046   0.728   2.513  0.4221  0.2271 -0.2943
  339SOL     OW 1353   1.440   1.149   1.871 -0.3216  0.6759 -0.4284
  339SOL    HW1 1354   1.419   1.122   1.782  2.9314  0.4680 -1.0211
  339SOL    HW2 1355   1.362   1.132   1.925 -0.3734  0.2817  0.6660
  339SOL     MW 1356   1.427   1.143   1.867  0.1008  0.5965 -0.3622
  340SOL     OW 1357   1.289   1.507   0.035 -0.6735  0.1750  0.6273
  340SOL    HW1 1358   1.327   1.527  -0.050 -2.3875  0.1131  0.0512
  340SOL    HW2 1359   1.360   1.521   0.096 -0.9255 -3.2824 -3.1629
  340SOL     MW 1360   1.304   1.512   0.032 -0.9329 -0.2894  0.0512
  341SOL     OW 1361   0.050   1.348   2.792  0.5143  0.2077  0.5261
  341SOL    HW1 1362   0.134   1.316   2.768  1.1889  1.3223 -0.3442
  341SOL    HW2 1363  -0.005   1.323   2.722  0.1729 -0.9234 -1.5465
  341SOL     MW 1364   0.054   1.341   2.780  0.5582  0.2055  0.1379
  342SOL     OW 1365   1.406   0.314   0.109  0.0850 -0.1710  0.1716
  342SOL    HW1 1366   1.486   0.358   0.145 -0.7160  0.0296 -0.8806
  342SOL    HW2 1367   1.405   0.347   0.019  1.2844 -0.3392  1.6970
  342SOL     MW 1368   1.416   0.324   0.101  0.1375 -0.1667  0.2340
  343SOL     OW 1369   0.295   0.286   2.226 -0.2756 -0.0726  0.2229
  343SOL    HW1 1370   0.364   0.223   2.256 -3.3356 -1.7482 -1.5668
  343SOL    HW2 1371   0.229   0.236   2.176  0.1219 -0.4020 -3.0107
  343SOL     MW 1372   0.295   0.271   2.223 -0.6269 -0.3372 -0.4399
  344SOL     OW 1373   1.720   2.009   0.151  0.0621 -0.4226 -0.1625
  344SOL    HW1 1374   1.752   2.083   0.104 -0.5137 -0.4492 -2.2945
  344SOL    HW2 1375   1.630   1.982   0.114 -0.7867  0.8000 -1.1978
  344SOL     MW 1376   1.713   2.015   0.140 -0.1258 -0.2648 -0.5804
  345SOL     OW 1377   0.691   1.581   2.367 -0.0759  0.5314  0.1314
  345SOL    HW1 1378   0.609   1.594   2.315  0.0221 -1.2470  0.8012
  345SOL    HW2 1379   0.764   1.579   2.305  0.3194  0.8368 -1.4433
  345SOL     MW 1380   0.690   1.583   2.352 -0.0108  0.3370  0.0120
  346SOL     OW 1381   1.690   1.091   3.059 -0.5308 -0.2658  0.6228
  346SOL    HW1 1382   1.781   1.081   3.069 -1.6366 -0.8331  0.0758
  346SOL    HW2 1383   1.646   1.052   3.133  1.6058  2.1785 -0.2747
  346SOL     MW 1384   1.696   1.085   3.070 -0.3948 -0.0181  0.4322
  347SOL     OW 1385   1.140   0.713   2.242  0.1210 -0.5739  0.1330
  347SOL    HW1 1386   1.192   0.628   2.247 -1.4859 -2.5418 -0.7052
  347SOL    HW2 1387   1.095   0.712   2.327  0.7330  0.3295 -1.8846
  347SOL     MW 1388   1.141   0.702   2.254 -0.0103 -0.7144 -0.2438
  348SOL     OW 1389   1.353   2.555   1.923 -0.5430 -0.4469  0.3118
  348SOL    HW1 1390   1.326   2.500   1.998  2.3592  1.9552  0.2609
  348SOL    HW2 1391   1.369   2.644   1.964  1.2165  0.5837  0.7386
  348SOL     MW 1392   1.352   2.560   1.938  0.0720  0.0060  0.3614
  349SOL     OW 1393   1.400   0.181   2.753  0.5293  0.0538  0.1359
  349SOL    HW1 1394   1.354   0.241   2.809 -1.1007  1.2599 -1.0169
  349SOL    HW2 1395   1.470   0.153   2.810  1.9200 -1.2191 -0.6488
  349SOL     MW 1396   1.403   0.185   2.768  0.4977  0.0450 -0.1197
  350SOL     OW 1397   1.821   0.662   2.631  0.2359  0.1423 -0.3008
  350SOL    HW1 1398   1.800   0.578   2.580  1.7113  1.3090 -0.5120
  350SOL    HW2 1399   1.906   0.639   2.682  1.4819  0.4896  2.5053
  350SOL     MW 1400   1.829   0.648   2.631  0.5950  0.3421  0.0416
  351SOL     OW 1401   0.082   1.146   1.636  0.7034 -0.1496  0.6237
  351SOL    HW1 1402   0.002   1.167   1.685 -1.0765  0.8983 -0.7294
  351SOL    HW2 1403   0.160   1.188   1.671  0.7177  0.2917 -4.0907
  351SOL     MW 1404   0.082   1.155   1.647  0.4704  0.0469 -0.1768
  352SOL     OW 1405   0.844   1.760   2.808 -0.0401  0.2336 -0.2548
  352SOL    HW1 1406   0.846   1.723   2.906  0.0740  0.1846 -0.2844
  352SOL    HW2 1407   0.794   1.686   2.764 -4.4596  0.1259  1.2603
  352SOL     MW 1408   0.837   1.745   2.815 -0.6082  0.2129 -0.0588
  353SOL     OW 1409   0.020   2.590   2.735  0.4024  0.1940 -0.0417
  353SOL    HW1 1410   0.092   2.599   2.676 -1.0261  0.5331 -0.6526
  353SOL    HW2 1411  -0.016   2.679   2.724 -2.3688 -0.8691 -1.6852
  353SOL     MW 1412   0.025   2.603   2.726 -0.1517  0.0985 -0.3391
  354SOL     OW 1413   0.353   2.440   0.876  0.2716 -0.1800  0.2378
  354SOL    HW1 1414   0.357   2.413   0.968 -1.9550 -0.7793 -0.2887
  354SOL    HW2 1415   0.270   2.383   0.852 -1.0643 -0.1428  4.0990
  354SOL     MW 1416   0.343   2.429   0.885 -0.1985 -0.2542  0.6778
  355SOL     OW 1417   3.060   2.175   0.365  0.4315  0.1561  0.5526
  355SOL    HW1 1418   2.973   2.147   0.370  0.9601  1.4807  0.7063
  355SOL    HW2 1419   3.082   2.228   0.446  0.4581 -1.3411 -1.6400
  355SOL     MW 1420   3.051   2.178   0.376  0.5048  0.1333  0.2836
  356SOL     OW 1421   0.812   2.832   0.980 -0.6609  0.9050  0.4577
  356SOL    HW1 1422   0.875   2.862   0.910 -1.8753 -0.7091 -0.2618
  356SOL    HW2 1423   0.724   2.826   0.943 -1.3840  0.3206  0.4941
  356SOL     MW 1424   0.808   2.835   0.966 -0.9165  0.6150  0.3676
  357SOL     OW 1425   1.824   2.801   0.481  0.1572  0.1566  0.0062
  357SOL    HW1 1426   1.819   2.748   0.560 -1.2293 -1.2324 -1.3321
  357SOL    HW2 1427   1.912   2.791   0.446  1.1402 -0.0966  0.7005
  357SOL     MW 1428   1.835   2.792   0.487  0.1040 -0.0601 -0.0788
  358SOL     OW 1429   0.456   0.185   1.044  0.0294 -0.2297 -0.0911
  358SOL    HW1 1430   0.551   0.193   1.025 -1.6953  2.9068  2.8624
  358SOL    HW2 1431   0.410   0.211   0.966  0.2816  0.9838 -0.3386
  358SOL     MW 1432   0.463   0.190   1.031 -0.1649  0.3442  0.2659
  359SOL     OW 1433   0.862   2.980   1.826  0.6539  0.6806 -0.1840
  359SOL    HW1 1434   0.868   2.894   1.871  2.0179 -1.7831 -0.3235
  359SOL    HW2 1435   0.900   2.956   1.736  1.3486 -1.1944 -3.0563
  359SOL     MW 1436   0.868   2.966   1.820  0.9255  0.1082 -0.5814
  360SOL     OW 1437   0.549   2.761   0.869 -0.0301  0.3142  0.8001
  360SOL    HW1 1438   0.572   2.703   0.796  2.0170 -0.0099 -0.5342
  360SOL    HW2 1439   0.534   2.707   0.948 -1.2632  0.6413 -1.9046
  360SOL     MW 1440   0.550   2.746   0.870  0.0773  0.3146  0.2672
  361SOL     OW 1441   0.217   2.648   1.402 -0.0576  0.0811 -0.6363
  361SOL    HW1 1442   0.189   2.735   1.422  2.7964  0.0130 -0.1000
  361SOL    HW2 1443   0.313   2.638   1.428  1.6072 -1.4696  1.3550
  361SOL     MW 1444   0.226   2.658   1.408  0.5386 -0.1325 -0.3028
  362SOL     OW 1445   1.384   2.393   0.592 -0.0154  0.3851  0.5200
  362SOL    HW1 1446   1.427   2.340   0.655  0.1749 -0.4423  0.6189
  362SOL    HW2 1447   1.419   2.486   0.588  0.7891 -0.5459  0.9741
  362SOL     MW 1448   1.394   2.399   0.600  0.1159  0.1531  0.5930
  363SOL     OW 1449   0.312   3.072   0.630 -0.1905  0.6945 -0.8693
  363SOL    HW1 1450   0.318   3.007   0.703 -0.7557  1.8278 -0.1276
  363SOL    HW2 1451   0.219   3.084   0.624  1.9598 -0.5546  2.2292
  363SOL     MW 1452   0.301   3.065   0.639  0.0186  0.6792 -0.3626
  364SOL     OW 1453   0.779   0.256   0.127  0.1799 -0.0719 -0.3539
  364SOL    HW1 1454   0.700   0.210   0.142  0.2528  3.1562  0.1603
  364SOL    HW2 1455   0.741   0.325   0.071 -0.0221  1.2837  1.4912
  364SOL     MW 1456   0.764   0.259   0.122  0.1629  0.5329 -0.0426
  365SOL     OW 1457   0.919   2.023   1.141 -0.9698 -0.2531  0.1264
  365SOL    HW1 1458   0.873   2.103   1.121  1.2619 -1.2219 -0.0042
  365SOL    HW2 1459   0.861   1.959   1.100  1.7821  3.4183  2.1117
  365SOL     MW 1460   0.905   2.025   1.133 -0.3123  0.1035  0.3711
  366SOL     OW 1461   2.957   2.637   0.937 -0.4256 -0.7730  0.0770
  366SOL    HW1 1462   3.052   2.659   0.953  0.0766  0.2194 -1.5973
  366SOL    HW2 1463   2.949   2.676   0.842 -2.6134  1.0969 -0.6559
  366SOL     MW 1464   2.968   2.645   0.926 -0.6480 -0.3953 -0.2406
  367SOL     OW 1465   1.221   2.980   0.932 -0.0377  0.0645 -0.1963
  367SOL    HW1 1466   1.243   3.059   0.880  2.0461  2.0946 -0.6764
  367SOL    HW2 1467   1.158   2.939   0.878  0.0660 -0.3850  0.0367
  367SOL     MW 1468   1.216   2.985   0.918  0.2509  0.2730 -0.2289
  368SOL     OW 1469   1.746   0.404   0.722 -0.0126 -0.1225 -0.1087
  368SOL    HW1 1470   1.781   0.339   0.665  0.1924  3.6569  1.3829
  368SOL    HW2 1471   1.769   0.486   0.681  0.6973 -0.8485  0.2983
  368SOL     MW 1472   1.753   0.407   0.709  0.1081  0.2804  0.1418
  369SOL     OW 1473   0.128   2.410   1.781  0.0307 -0.4199 -0.4013
  369SOL    HW1 1474   0.218   2.371   1.763  0.1154 -1.1488  2.7482
  369SOL    HW2 1475   0.127   2.504   1.783  2.2348 -2.1480 -1.0474
  369SOL     MW 1476   0.140   2.417   1.779  0.3327 -0.7441 -0.0710
  370SOL     OW 1477   0.726   0.155   0.991 -0.2586  0.0585  0.5208
  370SOL    HW1 1478   0.750   0.240   0.955  0.3975  0.5212 -0.0975
  370SOL    HW2 1479   0.811   0.100   0.982  1.2527  1.4113 -1.1022
  370SOL     MW 1480   0.741   0.159   0.985  0.0274  0.2980  0.2251
  371SOL     OW 1481   1.213   2.817   1.509  0.0308 -0.5564 -0.1833
  371SOL    HW1 1482   1.214   2.723   1.498  0.3987  0.0849  0.6081
  371SOL    HW2 1483   1.231   2.847   1.421 -1.0636 -1.2045  1.4982
  371SOL     MW 1484   1.215   2.809   1.496 -0.0650 -0.5573  0.1430
  372SOL     OW 1485   0.817   2.293   0.513 -0.4007  0.4742 -0.0206
  372SOL    HW1 1486   0.772   2.214   0.538  0.1659  1.3619 -0.4776
  372SOL    HW2 1487   0.831   2.297   0.419 -0.4234 -1.1029 -2.2816
  372SOL     MW 1488   0.813   2.283   0.504 -0.3289  0.3832 -0.3792
  373SOL     OW 1489   2.870   3.019   1.402 -0.3182  0.1112  0.1685
  373SOL    HW1 1490   2.925   2.959   1.347  1.6223  0.0237 -0.0715
  373SOL    HW2 1491   2.850   3.094   1.344  0.9716  0.0899  0.3580
  373SOL     MW 1492   2.874   3.021   1.387  0.1080  0.0968  0.1618
  374SOL     OW 1493   1.593   0.453   0.291  0.9558 -0.3135  0.3021
  374SOL    HW1 1494   1.684   0.421   0.293  2.2413  0.5089 -1.7943
  374SOL    HW2 1495   1.553   0.422   0.372 -1.0165 -2.6057  2.0694
  374SOL     MW 1496   1.600   0.445   0.302  0.8652 -0.5074  0.2587
  375SOL     OW 1497   0.930   2.164   2.343 -0.1300  0.3882 -0.5970
  375SOL    HW1 1498   1.000   2.138   2.406 -0.5713 -1.1432  3.0352
  375SOL    HW2 1499   0.924   2.075   2.307  0.0900  1.0267  1.0952
  375SOL     MW 1500   0.939   2.149   2.347 -0.1592  0.2704  0.1055
  376SOL     OW 1501   0.697   2.515   0.047 -0.0585  0.8415 -0.0503
  376SOL    HW1 1502   0.667   2.438   0.090  1.9258 -1.2911  1.8418
  376SOL    HW2 1503   0.741   2.491  -0.039  0.7018  1.0867 -2.6488
  376SOL     MW 1504   0.699   2.502   0.041  0.3036  0.5925 -0.1435
  377SOL     OW 1505   1.276   2.086   0.911  0.3562  0.0185  0.0156
  377SOL    HW1 1506   1.204   2.061   0.854  1.5066 -0.7723 -0.8367
  377SOL    HW2 1507   1.269   2.025   0.985 -0.3436 -1.1661  0.0106
  377SOL     MW 1508   1.266   2.075   0.913  0.4156 -0.2421 -0.0975
  378SOL     OW 1509   0.941   2.898   1.584  0.2822 -0.5532 -0.7387
  378SOL    HW1 1510   0.947   2.802   1.604 -0.0436 -0.4022  1.9815
  378SOL    HW2 1511   0.990   2.922   1.507  0.9879  1.4312  1.7246
  378SOL     MW 1512   0.949   2.888   1.576  0.3323 -0.2715 -0.0548
  379SOL     OW 1513   1.115   1.658   2.185  0.0009  0.0590  0.6205
  379SOL    HW1 1514   1.034   1.607   2.160  0.7773  0.4820 -1.1820
  379SOL    HW2 1515   1.195   1.602   2.175  2.1419 -0.1754  0.9098
  379SOL     MW 1516   1.115   1.644   2.180  0.3858  0.0839  0.4209
  380SOL     OW 1517   0.894   0.069   1.417 -0.1630  0.4303 -0.7935
  380SOL    HW1 1518   0.936  -0.009   1.375  0.2545 -2.7657  1.7314
  380SOL    HW2 1519   0.942   0.076   1.501  0.0929 -1.9953 -1.2554
  380SOL     MW 1520   0.906   0.060   1.422 -0.0741 -0.3114 -0.5213
  381SOL     OW 1521   0.780   2.056   0.818  0.1927 -0.6811 -0.1617
  381SOL    HW1 1522   0.874   2.053   0.802 -1.2408 -0.4802 -1.2483
  381SOL    HW2 1523   0.769   2.147   0.862 -0.5620  1.5558 -0.6253
  381SOL     MW 1524   0.791   2.068   0.822 -0.0960 -0.3595 -0.3662
  382SOL     OW 1525   0.780   0.145   0.649  0.4841 -0.3655  0.2965
  382SOL    HW1 1526   0.748   0.147   0.740 -0.7282  1.0237 -1.3411
  382SOL    HW2 1527   0.743   0.065   0.615  1.0021 -0.2623  1.5709
  382SOL     MW 1528   0.771   0.135   0.657  0.3925 -0.1686  0.2486
  383SOL     OW 1529   0.576   0.059   0.285  0.1018  0.2468 -0.0184
  383SOL    HW1 1530   0.643  -0.003   0.252  0.2467 -2.5952  0.4228
  383SOL    HW2 1531   0.509   0.003   0.318  0.1570  0.6268  1.6220
  383SOL     MW 1532   0.576   0.044   0.285  0.1282 -0.0780  0.2563
  384SOL     OW 1533   0.743   2.961   0.603  0.1187  0.1998  0.0804
  384SOL    HW1 1534   0.790   2.932   0.686 -0.5366 -0.5631  0.8310
  384SOL    HW2 1535   0.677   2.887   0.589  0.6788  1.9449  1.0844
  384SOL     MW 1536   0.740   2.948   0.612  0.1061  0.3294  0.3119
  385SOL     OW 1537   1.440   2.049   1.544 -0.4171  0.3275  0.0054
  385SOL    HW1 1538   1.498   2.119   1.585 -0.9343  0.7138  0.4382
  385SOL    HW2 1539   1.403   1.993   1.615  0.4519 -0.0573 -1.7491
  385SOL     MW 1540   1.442   2.051   1.559 -0.3707  0.3277 -0.1690
  386SOL     OW 1541   1.362   0.369   0.849  1.5460  0.3178 -0.0370
  386SOL    HW1 1542   1.306   0.387   0.924  1.6007  2.2711 -0.6808
  386SOL    HW2 1543   1.430   0.309   0.879 -0.4436 -1.1109  0.8167
  386SOL     MW 1544   1.364   0.363   0.863  1.2907  0.3870 -0.0093
  387SOL     OW 1545   0.794   2.133   1.499  0.5017  0.0263  0.4517
  387SOL    HW1 1546   0.870   2.191   1.483 -2.3944 -0.6395  1.8489
  387SOL    HW2 1547   0.835   2.050   1.480  1.7394  0.0371 -0.2857
  387SOL     MW 1548   0.809   2.130   1.495  0.2829 -0.0601  0.5388
  388SOL     OW 1549   1.475   2.751   1.296 -0.8036  0.3070 -0.3556
  388SOL    HW1 1550   1.418   2.831   1.310 -0.8176  0.1551  2.4833
  388SOL    HW2 1551   1.447   2.696   1.228  1.1791 -0.2071  2.5943
  388SOL     MW 1552   1.464   2.755   1.289 -0.5438  0.2191  0.4082
  389SOL     OW 1553   0.566   0.136   3.050 -0.2100 -0.0899 -0.1397
  389SOL    HW1 1554   0.647   0.076   3.042 -0.4288  0.9538  1.1865
  389SOL    HW2 1555   0.539   0.154   2.958 -0.1254  0.4109  1.6601
  389SOL     MW 1556   0.573   0.130   3.037 -0.2277  0.1139  0.2727
  390SOL     OW 1557   1.349   0.039   0.717 -0.5000 -0.3309  0.7775
  390SOL    HW1 1558   1.379   0.026   0.624  3.9404 -0.6832 -0.5561
  390SOL    HW2 1559   1.414   0.089   0.763  0.4821 -4.0320 -0.5010
  390SOL     MW 1560   1.362   0.044   0.711  0.2154 -0.8657  0.4329
  391SOL     OW 1561   0.371   2.179   1.513 -0.4979 -0.4924  0.4925
  391SOL    HW1 1562   0.340   2.086   1.516 -1.3496 -0.4022 -0.6918
  391SOL    HW2 1563   0.297   2.238   1.525 -0.6796 -0.8555 -2.1326
  391SOL     MW 1564   0.357   2.175   1.515 -0.6342 -0.5284 -0.0101
  392SOL     OW 1565   2.057   2.225   0.294 -0.1788  0.0842  0.4536
  392SOL    HW1 1566   2.143   2.263   0.316 -0.4179 -0.6080 -0.3020
  392SOL    HW2 1567   1.992   2.299   0.282 -1.3239 -0.2242  2.6410
  392SOL     MW 1568   2.060   2.240   0.295 -0.3614 -0.0478  0.6425
  393SOL     OW 1569   0.260   2.948   2.863 -0.4052 -0.1123  0.1089
  393SOL    HW1 1570   0.343   2.924   2.816  2.5689  0.8293  1.1136
  393SOL    HW2 1571   0.258   3.044   2.851 -1.7479  1.1001 -0.3875
  393SOL     MW 1572   0.271   2.958   2.855 -0.1899  0.1719  0.1759
  394SOL     OW 1573   0.987   1.709   1.551  0.4047  0.1685 -0.2760
  394SOL    HW1 1574   0.956   1.742   1.635 -1.6522 -3.6669 -2.6779
  394SOL    HW2 1575   0.944   1.765   1.489 -1.0817  1.7091  0.1594
  394SOL     MW 1576   0.977   1.721   1.554 -0.0628 -0.1343 -0.5355
  395SOL     OW 1577   0.963   2.967   2.546 -0.0314  0.2604  0.5591
  395SOL    HW1 1578   0.989   3.002   2.628 -2.5649  0.0699 -0.4868
  395SOL    HW2 1579   1.011   2.884   2.553  1.6688 -1.2778 -1.2336
  395SOL     MW 1580   0.972   2.961   2.558 -0.1413  0.0323  0.1846
  396SOL     OW 1581   0.724   1.865   2.435 -0.2103 -0.3910  0.0183
  396SOL    HW1 1582   0.807   1.850   2.485 -0.1202 -1.3269 -0.3818
  396SOL    HW2 1583   0.686   1.777   2.424  3.1427 -1.9913 -0.7318
  396SOL     MW 1584   0.730   1.851   2.440  0.2440 -0.7256 -0.1334
  397SOL     OW 1585   0.981   2.312   1.423 -0.9792 -0.4793 -0.0776
  397SOL    HW1 1586   0.981   2.342   1.327  0.7476  1.2246 -1.9686
  397SOL    HW2 1587   1.069   2.277   1.452  1.7649  1.0676 -1.1080
  397SOL     MW 1588   0.993   2.312   1.414 -0.3893 -0.0504 -0.4630
  398SOL     OW 1589   0.597   2.735   0.594 -0.1232 -0.1867 -0.1722
  398SOL    HW1 1590   0.508   2.710   0.558  0.7496 -0.5568  1.6962
  398SOL    HW2 1591   0.653   2.658   0.594  1.5897  0.6368 -0.8915
  398SOL     MW 1592   0.592   2.721   0.589  0.2179 -0.1269 -0.0206
  399SOL     OW 1593   0.208   2.093   0.319  0.0593 -0.0639 -0.0219
  399SOL    HW1 1594   0.118   2.111   0.337  2.6496 -2.9519  1.9333
  399SOL    HW2 1595   0.237   2.140   0.235  0.3408  2.2669 -0.3430
  399SOL     MW 1596   0.200   2.102   0.310  0.4382 -0.1374  0.1937
  400SOL     OW 1597   0.569   1.937   0.102  0.0509 -0.4878  0.0776
  400SOL    HW1 1598   0.501   2.005   0.099 -1.6969 -0.6172 -2.5792
  400SOL    HW2 1599   0.543   1.879   0.169  2.5188 -0.9363 -1.3628
  400SOL     MW 1600   0.557   1.938   0.110  0.1459 -0.5640 -0.4630
  401SOL     OW 1601   0.824   2.071   0.046 -0.0709 -0.8791 -0.1052
  401SOL    HW1 1602   0.912   2.055   0.085 -0.2200  2.9249  1.4823
  401SOL    HW2 1603   0.768   2.002   0.078 -0.4239 -1.4375 -3.2465
  401SOL     MW 1604   0.828   2.060   0.055 -0.1371 -0.4509 -0.3102
  402SOL     OW 1605   0.553   2.981   1.722 -0.2262  0.2975 -0.0656
  402SOL    HW1 1606   0.598   2.972   1.803 -0.7421 -1.0652  0.0134
  402SOL    HW2 1607   0.600   3.055   1.681 -1.0126  2.2703 -1.3125
  402SOL     MW 1608   0.565   2.990   1.727 -0.3980  0.3780 -0.2197
  403SOL     OW 1609   0.095   0.520   0.366 -0.2631 -0.0514 -0.6680
  403SOL    HW1 1610   0.172   0.535   0.426  0.7461 -0.5051  3.2816
  403SOL    HW2 1611   0.128   0.469   0.298  0.7332  1.3408  0.9862
  403SOL     MW 1612   0.109   0.515   0.365  0.0015  0.0724  0.0714
  404SOL     OW 1613   0.976   2.901   0.774  0.3143 -0.2278  0.1478
  404SOL    HW1 1614   1.044   2.844   0.744  0.3398 -0.0123  0.0348
  404SOL    HW2 1615   1.010   2.986   0.738 -1.3794 -1.6796  2.5037
  404SOL     MW 1616   0.989   2.905   0.765  0.0942 -0.3909  0.4438
  405SOL     OW 1617   0.479   2.483   1.523 -0.5826  0.2763  0.2494
  405SOL    HW1 1618   0.498   2.557   1.468  0.3746 -3.0850  0.5920
  405SOL    HW2 1619   0.491   2.404   1.462  0.4214 -0.5598 -0.6461
  405SOL     MW 1620   0.483   2.482   1.508 -0.3238 -0.2775  0.1765
  406SOL     OW 1621   0.356   2.388   1.156 -0.2620  0.1375  0.1822
  406SOL    HW1 1622   0.255   2.382   1.153  0.0160 -0.9260  2.3205
  406SOL    HW2 1623   0.394   2.301   1.180  0.0033 -0.4817 -0.7427
  406SOL     MW 1624   0.348   2.376   1.159 -0.1903 -0.0845  0.3423
  407SOL     OW 1625   0.077   2.665   1.160  0.1389  0.2717  0.2958
  407SOL    HW1 1626   0.143   2.650   1.235 -0.8100 -3.7738  0.8391
  407SOL    HW2 1627   0.128   2.664   1.077 -0.4881 -3.9135 -1.8929
  407SOL     MW 1628   0.093   2.663   1.159 -0.0690 -0.8142  0.0787
  408SOL     OW 1629   2.105   2.106   0.728 -0.5214  0.2005  0.7421
  408SOL    HW1 1630   2.057   2.158   0.787  1.5215  0.2284  2.5267
  408SOL    HW2 1631   2.048   2.068   0.663  3.6067  0.1315  2.0605
  408SOL     MW 1632   2.091   2.108   0.727  0.2928  0.1951  1.1515
  409SOL     OW 1633   1.536   0.139   0.893  0.7771  0.1592 -0.1153
  409SOL    HW1 1634   1.621   0.185   0.918  1.5844 -1.1691 -0.8176
  409SOL    HW2 1635   1.521   0.079   0.971 -2.7519  0.6376  2.3801
  409SOL     MW 1636   1.545   0.137   0.907  0.4180  0.0471  0.1213
  410SOL     OW 1637   1.041   2.456   1.172 -0.2011  0.4559 -0.1470
  410SOL    HW1 1638   0.989   2.494   1.103  1.4925 -3.6610 -2.2583
  410SOL    HW2 1639   1.113   2.417   1.116  1.4750 -0.3169  1.2018
  410SOL     MW 1640   1.043   2.456   1.155  0.2435 -0.1893 -0.2476
  411SOL     OW 1641   2.009   3.024   2.896  0.6460 -0.9579 -0.1836
  411SOL    HW1 1642   1.936   2.980   2.851  0.4135 -0.2612 -0.8886
  411SOL    HW2 1643   1.969   3.101   2.935  1.4088  1.5604 -2.7405
  411SOL     MW 1644   1.994   3.029   2.896  0.7160 -0.5337 -0.6140
  412SOL     OW 1645   1.063   2.274   0.605  0.1370  0.7321  0.4468
  412SOL    HW1 1646   1.101   2.328   0.675 -0.1750 -2.6456  0.9236
  412SOL    HW2 1647   0.973   2.302   0.575  0.3659 -1.5454 -0.3447
  412SOL     MW 1648   1.056   2.285   0.610  0.1261 -0.0140  0.4053
  413SOL     OW 1649   0.591   2.765   0.066  0.0627 -0.0451  0.3258
  413SOL    HW1 1650   0.629   2.671   0.079  3.6735 -2.0703 -0.0547
  413SOL    HW2 1651   0.599   2.784  -0.030  0.9632 -0.3166  2.5161
  413SOL     MW 1652   0.597   2.755   0.055  0.6579 -0.3481  0.5645
  414SOL     OW 1653   2.026   3.027   1.170 -0.6617  0.9260 -0.1744
  414SOL    HW1 1654   2.066   3.115   1.176  2.2303 -1.7733 -0.2935
  414SOL    HW2 1655   2.013   3.031   1.076  0.5154 -1.8283  0.7500
  414SOL     MW 1656   2.029   3.039   1.159 -0.1248  0.2064 -0.0682
  415SOL     OW 1657   1.643   2.796   1.081 -0.2140 -0.3894  0.3431
  415SOL    HW1 1658   1.596   2.790   1.164  0.3571  1.3697  0.2684
  415SOL    HW2 1659   1.734   2.806   1.115 -0.6631  3.0637  0.4644
  415SOL     MW 1660   1.649   2.797   1.097 -0.1979  0.2983  0.3492
  416SOL     OW 1661   0.584   1.786   1.457  0.3253 -0.5036  0.4916
  416SOL    HW1 1662   0.513   1.770   1.390  0.3186  1.4366 -0.5797
  416SOL    HW2 1663   0.645   1.716   1.452  1.4877 -0.2079  0.3636
  416SOL     MW 1664   0.583   1.775   1.447  0.4778 -0.2086  0.3334
  417SOL     OW 1665   0.987   3.029   2.053 -0.0383  0.1126  0.4900
  417SOL    HW1 1666   0.919   3.049   2.118  1.9467  2.0193  2.7382
  417SOL    HW2 1667   0.942   3.022   1.959  0.7675  0.3890 -0.5189
  417SOL     MW 1668   0.972   3.031   2.049  0.3299  0.4006  0.6535
  418SOL     OW 1669   0.733   2.961   0.170 -0.6073  0.5678 -0.4637
  418SOL    HW1 1670   0.796   2.976   0.098  3.0453 -1.6330  1.9771
  418SOL    HW2 1671   0.674   2.897   0.129 -0.9698 -1.0690  0.8400
  418SOL     MW 1672   0.734   2.955   0.155 -0.1732  0.0614  0.0304
  419SOL     OW 1673   0.546   2.681   1.350  0.4232  0.3139  0.0587
  419SOL    HW1 1674   0.575   2.762   1.390  2.4278 -0.2139  0.2113
  419SOL    HW2 1675   0.628   2.628   1.351  3.0911  1.6495 -1.9267
  419SOL     MW 1676   0.561   2.685   1.355  1.0397  0.4205 -0.1831
  420SOL     OW 1677   0.759   2.248   1.063  0.0851  0.4468 -0.4417
  420SOL    HW1 1678   0.733   2.281   1.150  1.1053  1.3743 -0.6274
  420SOL    HW2 1679   0.798   2.330   1.017 -0.7892  0.2025 -2.2252
  420SOL     MW 1680   0.761   2.263   1.069  0.1043  0.5369 -0.7015
  421SOL     OW 1681   2.935   0.154   3.085 -0.0724  0.3751  0.0459
  421SOL    HW1 1682   2.862   0.107   3.038 -0.1401 -0.9625 -1.2888
  421SOL    HW2 1683   3.003   0.090   3.074 -0.6919 -0.8200  0.0136
  421SOL     MW 1684   2.934   0.139   3.077 -0.1631  0.0410 -0.1345
  422SOL     OW 1685   0.819   2.487   0.970 -0.2535 -0.0084  0.4824
  422SOL    HW1 1686   0.758   2.540   1.023  0.7757 -0.6452 -0.6643
  422SOL    HW2 1687   0.827   2.531   0.884  2.5577  1.6787  1.2751
  422SOL     MW 1688   0.812   2.500   0.965  0.2532  0.1302  0.4357
  423SOL     OW 1689   1.461   0.061   0.460 -0.7293  0.1272  0.4352
  423SOL    HW1 1690   1.485   0.052   0.371  3.0411  0.8392  1.6258
  423SOL    HW2 1691   1.444   0.151   0.489  0.7320 -1.2271  1.2083
  423SOL     MW 1692   1.462   0.072   0.452 -0.0390  0.0424  0.6943
  424SOL     OW 1693   0.648   2.296   1.340 -0.1745  0.0865  0.3839
  424SOL    HW1 1694   0.568   2.246   1.311 -1.7639 -2.5209  3.5570
  424SOL    HW2 1695   0.690   2.237   1.405  0.8734 -2.7956 -2.1733
  424SOL     MW 1696   0.643   2.281   1.345 -0.2460 -0.6378  0.4652
  425SOL     OW 1697   1.693   2.775   2.065 -0.2219  0.1217  0.0624
  425SOL    HW1 1698   1.686   2.761   1.969 -2.7332 -1.5341 -0.9147
  425SOL    HW2 1699   1.723   2.685   2.092 -0.7448  1.7449 -0.5913
  425SOL     MW 1700   1.696   2.761   2.056 -0.6222  0.1174 -0.1528
  426SOL     OW 1701   0.872   1.753   1.994  0.9405  0.1498  0.2611
  426SOL    HW1 1702   0.816   1.747   1.916 -0.1381 -2.6531 -1.3446
  426SOL    HW2 1703   0.864   1.831   2.054  2.4012  0.3278 -1.8431
  426SOL     MW 1704   0.864   1.763   1.992  0.9909 -0.1965 -0.2284
  427SOL     OW 1705   0.349   1.705   1.871 -0.3937  0.2268 -0.0927
  427SOL    HW1 1706   0.381   1.638   1.806  1.7171 -1.9947 -0.4886
  427SOL    HW2 1707   0.311   1.648   1.947 -0.3635  0.5508  0.0742
  427SOL     MW 1708   0.348   1.689   1.872 -0.1112 -0.0236 -0.1229
  428SOL     OW 1709   0.561   2.582   1.098  0.6011  0.0517 -0.5298
  428SOL    HW1 1710   0.494   2.511   1.107 -3.5153  0.8695  2.2970
  428SOL    HW2 1711   0.567   2.635   1.187  1.2018  1.9896 -0.0586
  428SOL     MW 1712   0.553   2.580   1.111  0.1373  0.4153 -0.0947
  429SOL     OW 1713   1.201   2.749   1.148 -0.6915 -0.0358 -0.0939
  429SOL    HW1 1714   1.111   2.719   1.164 -2.0419 -0.5830  0.5256
  429SOL    HW2 1715   1.201   2.824   1.094 -0.1583 -1.2289 -1.0980
  429SOL     MW 1716   1.189   2.755   1.143 -0.7993 -0.2654 -0.1446
  430SOL     OW 1717   1.174   2.715   0.711 -0.3031  0.3767 -0.1427
  430SOL    HW1 1718   1.186   2.631   0.754  1.7631 -0.6666  0.2035
  430SOL    HW2 1719   1.136   2.701   0.619  1.5415  1.4779  1.3995
  430SOL     MW 1720   1.170   2.702   0.705  0.2129  0.3843  0.1065
  431SOL     OW 1721   0.299   1.936   1.145 -0.4178 -0.3426  0.3639
  431SOL    HW1 1722   0.369   1.863   1.136  0.1555 -0.6124 -1.3223
  431SOL    HW2 1723   0.277   1.956   1.050  0.1280 -2.7626 -0.5684
  431SOL     MW 1724   0.305   1.929   1.131 -0.2701 -0.6975  0.0184
  432SOL     OW 1725   0.045   0.028   1.116  0.4758  0.0677  0.1993
  432SOL    HW1 1726   0.041   0.068   1.203 -0.9451 -0.7238 -0.9544
  432SOL    HW2 1727  -0.018  -0.046   1.126 -0.7763  1.0593  0.3537
  432SOL     MW 1728   0.036   0.023   1.129  0.1231  0.0941  0.0674
  433SOL     OW 1729   0.665   2.895   1.469 -0.4126 -0.2120 -0.2746
  433SOL    HW1 1730   0.608   2.912   1.551 -1.8768  1.5134 -1.6600
  433SOL    HW2 1731   0.762   2.898   1.502  1.8163  2.4621 -0.1043
  433SOL     MW 1732   0.670   2.898   1.484 -0.3117  0.3685 -0.4349
  434SOL     OW 1733   1.553   2.804   1.582 -0.6259  0.8016  0.2317
  434SOL    HW1 1734   1.468   2.846   1.569 -0.8843  2.7574 -1.5604
  434SOL    HW2 1735   1.571   2.759   1.498 -1.3300 -0.9933  1.0233
  434SOL     MW 1736   1.544   2.803   1.569 -0.7529  0.8228  0.0997
  435SOL     OW 1737   2.758   1.770   0.218 -0.0343  0.4156  0.2703
  435SOL    HW1 1738   2.804   1.819   0.147 -1.0241 -2.2761  3.2530
  435SOL    HW2 1739   2.670   1.793   0.198  0.1003  0.5815  0.1792
  435SOL     MW 1740   2.753   1.779   0.206 -0.1471  0.0823  0.6518
  436SOL     OW 1741   1.405   2.702   0.352 -0.2720 -0.1262 -0.3311
  436SOL    HW1 1742   1.456   2.696   0.437  0.8167 -0.8567 -1.3950
  436SOL    HW2 1743   1.356   2.787   0.367 -0.6736 -0.1911 -1.7977
  436SOL     MW 1744   1.405   2.713   0.365 -0.1813 -0.2311 -0.6650
  437SOL     OW 1745   1.064   2.973   1.325 -0.2682  0.4894 -0.3685
  437SOL    HW1 1746   1.074   3.038   1.253  1.3300 -0.3116  1.3186
  437SOL    HW2 1747   1.028   2.891   1.290  0.8943  1.3967  0.8037
  437SOL     MW 1748   1.061   2.971   1.311  0.0961  0.5034  0.0088
  438SOL     OW 1749   0.876   2.728   1.920  0.3962  0.3530  0.0901
  438SOL    HW1 1750   0.834   2.664   1.985 -1.4862  0.2229  0.2652
  438SOL    HW2 1751   0.855   2.692   1.838  1.4908 -2.0956  3.1294
  438SOL     MW 1752   0.868   2.714   1.918  0.2923  0.0127  0.5142
  439SOL     OW 1753   1.160   2.085   0.426  0.3595 -0.4260 -0.4351
  439SOL    HW1 1754   1.108   2.142   0.486  0.9924  0.6099 -1.6940
  439SOL    HW2 1755   1.152   2.147   0.349 -0.7692 -1.1722  1.1534
  439SOL     MW 1756   1.152   2.101   0.424  0.2941 -0.3878 -0.3916
  440SOL     OW 1757   1.760   2.954   3.077  0.6011  0.1559  0.2905
  440SOL    HW1 1758   1.727   2.913   3.158  0.5695 -1.7488 -1.0761
  440SOL    HW2 1759   1.856   2.932   3.085  1.8813 -1.3994 -1.9326
  440SOL     MW 1760   1.768   2.945   3.089  0.7659 -0.3006 -0.1831
  441SOL     OW 1761   0.350   2.656   0.494 -0.6908  0.3533 -0.5768
  441SOL    HW1 1762   0.351   2.598   0.411  2.1072 -0.3711 -2.8961
  441SOL    HW2 1763   0.355   2.744   0.451  0.5382 -0.0615  0.3867
  441SOL     MW 1764   0.351   2.660   0.478 -0.1595  0.2030 -0.7557
  442SOL     OW 1765   3.089   2.311   0.592 -0.1638 -0.9177  0.0068
  442SOL    HW1 1766   3.087   2.410   0.607  1.6378 -0.4450  1.4369
  442SOL    HW2 1767   3.010   2.275   0.632  1.1945 -0.5585 -0.7452
  442SOL     MW 1768   3.078   2.319   0.599  0.2531 -0.8079  0.0963
  443SOL     OW 1769   1.494   1.762   1.892  0.0241  0.0531 -0.1545
  443SOL    HW1 1770   1.441   1.796   1.816 -0.0053  3.9101 -0.5869
  443SOL    HW2 1771   1.475   1.668   1.908  1.3274 -0.6321  1.0896
  443SOL     MW 1772   1.485   1.754   1.884  0.1922  0.4716 -0.0474
  444SOL     OW 1773   0.947   2.607   1.602  0.5800  0.1996  0.2080
  444SOL    HW1 1774   1.011   2.563   1.660 -0.1240  0.4078  3.5004
  444SOL    HW2 1775   0.860   2.591   1.641  0.1924 -1.1493  1.1853
  444SOL     MW 1776   0.944   2.599   1.614  0.4360  0.0491  0.7714
  445SOL     OW 1777   1.210   0.149   1.428  0.0188  0.0229  0.2513
  445SOL    HW1 1778   1.207   0.224   1.488  3.1320 -2.0062  0.2520
  445SOL    HW2 1779   1.176   0.178   1.343 -0.9464 -0.7812  0.6329
  445SOL     MW 1780   1.205   0.163   1.425  0.3022 -0.3509  0.3017
  446SOL     OW 1781   2.792   2.858   1.034 -0.1515  0.0156 -0.1700
  446SOL    HW1 1782   2.742   2.888   0.957  0.1579  0.1666  1.5126
  446SOL    HW2 1783   2.843   2.787   0.995 -2.3197 -0.4237  2.3868
  446SOL     MW 1784   2.792   2.853   1.019 -0.3968 -0.0224  0.3894
  447SOL     OW 1785   0.009   1.971   1.587 -0.1019 -0.3499 -0.4882
  447SOL    HW1 1786   0.034   1.897   1.640 -0.8984 -1.1224 -0.8565
  447SOL    HW2 1787  -0.055   1.926   1.519  0.7042  0.1521 -1.4776
  447SOL     MW 1788   0.004   1.955   1.585 -0.1006 -0.3856 -0.6673
  448SOL     OW 1789   1.786   2.442   1.676  0.1802 -0.2439 -0.0017
  448SOL    HW1 1790   1.724   2.374   1.638  0.8304  0.4445  0.4228
  448SOL    HW2 1791   1.726   2.517   1.676 -0.9040  0.7967 -0.3995
  448SOL     MW 1792   1.770   2.443   1.671  0.1229 -0.0158  0.0018
  449SOL     OW 1793   0.900   2.956   0.379 -0.3616  0.0836  0.7491
  449SOL    HW1 1794   0.840   2.954   0.302  0.6838  0.0580  1.9090
  449SOL    HW2 1795   0.839   2.949   0.453  0.7672 -0.8541 -1.7261
  449SOL     MW 1796   0.884   2.955   0.379 -0.0747 -0.0435  0.5755
  450SOL     OW 1797   1.181   2.457   0.769 -0.1978  0.5929 -0.0608
  450SOL    HW1 1798   1.224   2.425   0.848 -0.4731 -0.4974 -1.8008
  450SOL    HW2 1799   1.245   2.452   0.696 -0.3545 -1.7451 -0.0959
  450SOL     MW 1800   1.195   2.452   0.770 -0.2548  0.1406 -0.2950
  451SOL     OW 1801   0.569   2.003   1.713 -0.7295  0.0884  0.2815
  451SOL    HW1 1802   0.624   2.054   1.651 -2.4613 -2.4752 -0.2692
  451SOL    HW2 1803   0.512   1.947   1.660  1.4802  0.1112  1.2158
  451SOL     MW 1804   0.569   2.002   1.697 -0.6665 -0.2468  0.3321
  452SOL     OW 1805   0.361   2.642   0.052  0.3190  0.1814 -0.0217
  452SOL    HW1 1806   0.450   2.698   0.053  0.6604  1.8572  1.5301
  452SOL    HW2 1807   0.287   2.706   0.032 -1.3853  4.0608 -0.9502
  452SOL     MW 1808   0.363   2.658   0.049  0.1392  0.9144  0.0605
  453SOL     OW 1809   0.303   3.086   1.589 -0.5979  0.2151  0.1465
  453SOL    HW1 1810   0.365   3.030   1.633  1.0587 -0.1458  1.4441
  453SOL    HW2 1811   0.344   3.087   1.498 -1.2906 -0.8923 -3.2929
  453SOL     MW 1812   0.316   3.079   1.583 -0.4707  0.0214 -0.1361
  454SOL     OW 1813   0.937   2.745   1.223  0.0598  0.1606  0.6409
  454SOL    HW1 1814   0.893   2.670   1.262  0.5326 -2.9876  2.3294
  454SOL    HW2 1815   0.877   2.795   1.166  0.8343  1.0837  0.0732
  454SOL     MW 1816   0.923   2.742   1.221  0.2244 -0.1330  0.7888
  455SOL     OW 1817   1.657   2.888   0.251 -0.0328 -0.0099 -0.1520
  455SOL    HW1 1818   1.728   2.876   0.316  2.8595  1.7249  0.0247
  455SOL    HW2 1819   1.607   2.810   0.231 -1.0449  0.3473 -2.3196
  455SOL     MW 1820   1.659   2.876   0.257  0.2153  0.2661 -0.4147
  456SOL     OW 1821   2.740   0.291   1.499  0.2833 -0.0848 -0.3197
  456SOL    HW1 1822   2.700   0.220   1.452  0.7222 -0.2636 -1.3641
  456SOL    HW2 1823   2.814   0.305   1.448  0.3211 -0.4852  0.0468
  456SOL     MW 1824   2.745   0.283   1.486  0.3462 -0.1612 -0.4091
  457SOL     OW 1825   0.792   1.642   3.039 -0.3427  0.5209 -0.0642
  457SOL    HW1 1826   0.703   1.623   3.002  0.1585  1.3927  0.6947
  457SOL    HW2 1827   0.788   1.672   3.133  2.3168  1.1480 -1.7504
  457SOL     MW 1828   0.779   1.643   3.047  0.0744  0.7187 -0.1866
  458SOL     OW 1829   1.382   1.487   0.674  0.2653  0.7526 -0.0776
  458SOL    HW1 1830   1.318   1.540   0.617 -1.7644  3.4316 -1.3166
  458SOL    HW2 1831   1.354   1.399   0.665  1.8538  2.1333  3.2434
  458SOL     MW 1832   1.370   1.482   0.666  0.2071  1.2883  0.1971
  459SOL     OW 1833   1.555   0.022   0.206  0.2808 -0.6180  0.1917
  459SOL    HW1 1834   1.604  -0.059   0.216  0.4602  0.0300 -1.4177
  459SOL    HW2 1835   1.508   0.019   0.119  0.1773 -0.1646  1.2533
  459SOL     MW 1836   1.555   0.011   0.196  0.2908 -0.4727  0.1194
  460SOL     OW 1837   1.778   2.186   0.683 -0.6636  0.0950  0.1804
  460SOL    HW1 1838   1.686   2.161   0.712 -0.8850  0.9959 -2.5174
  460SOL    HW2 1839   1.821   2.112   0.643 -0.3571  0.3033  1.0982
  460SOL     MW 1840   1.772   2.173   0.681 -0.6524  0.2414 -0.0545
  461SOL     OW 1841   0.470   2.409   0.613 -0.0274 -0.1052  0.3075
  461SOL    HW1 1842   0.451   2.487   0.567 -1.2101  0.4861 -0.4012
  461SOL    HW2 1843   0.444   2.415   0.704  3.3176 -0.8253 -0.1792
  461SOL     MW 1844   0.464   2.420   0.619  0.2579 -0.1222  0.1498
  462SOL     OW 1845   0.319   0.222   1.295 -0.6191 -0.8121  0.0792
  462SOL    HW1 1846   0.375   0.214   1.214 -2.4543  0.3974 -0.3996
  462SOL    HW2 1847   0.390   0.243   1.362 -3.6212 -0.5070  2.2511
  462SOL     MW 1848   0.336   0.224   1.293 -1.2573 -0.6123  0.3026
  463SOL     OW 1849   1.038   0.066   0.716  0.4103 -0.0140  0.0244
  463SOL    HW1 1850   1.100   0.088   0.650  0.3467  0.7499  0.3640
  463SOL    HW2 1851   0.947   0.098   0.680  3.2288  0.6391 -2.2414
  463SOL     MW 1852   1.034   0.073   0.703  0.7738  0.1730 -0.2297
  464SOL     OW 1853   0.783   3.046   2.244 -0.4996  0.3416  0.1948
  464SOL    HW1 1854   0.760   2.955   2.267  1.9408  1.0810  2.1294
  464SOL    HW2 1855   0.802   3.091   2.325  1.3439  1.7685  1.9472
  464SOL     MW 1856   0.782   3.040   2.258  0.0656  0.6274  0.6812
  465SOL     OW 1857   0.866   0.331   0.407 -0.7384  0.4653  0.0750
  465SOL    HW1 1858   0.807   0.291   0.469  0.8020  0.6164  1.3285
  465SOL    HW2 1859   0.823   0.343   0.315  0.7024 -0.4783 -2.7370
  465SOL     MW 1860   0.852   0.327   0.403 -0.3451  0.3607 -0.1306
  466SOL     OW 1861   1.049   2.047   0.747  0.5970 -0.3777 -0.5231
  466SOL    HW1 1862   1.059   1.977   0.685  1.2412 -0.8050 -1.2267
  466SOL    HW2 1863   1.067   2.137   0.697  1.3559  1.2674 -0.2087
  466SOL     MW 1864   1.053   2.049   0.732  0.7821 -0.2170 -0.5745
  467SOL     OW 1865   1.263   2.350   1.006  0.1903 -0.3584  0.1132
  467SOL    HW1 1866   1.355   2.377   1.003  0.4730 -0.9407 -0.1860
  467SOL    HW2 1867   1.266   2.256   0.981  1.7430 -1.4784 -0.7949
  467SOL     MW 1868   1.276   2.342   1.002  0.4324 -0.5830 -0.0461
  468SOL     OW 1869   0.448   2.675   1.872 -0.1082 -0.3763 -0.4809
  468SOL    HW1 1870   0.404   2.590   1.858 -1.6516  1.8341  0.5651
  468SOL    HW2 1871   0.380   2.741   1.894 -2.2720  1.4520 -0.2327
  468SOL     MW 1872   0.433   2.672   1.873 -0.5973  0.1566 -0.3101
  469SOL     OW 1873   0.392   2.151   1.874  0.0554 -0.3039  0.2024
  469SOL    HW1 1874   0.322   2.085   1.902 -1.4775 -0.6180 -1.7824
  469SOL    HW2 1875   0.452   2.102   1.817 -0.4490  2.0421 -0.7069
  469SOL     MW 1876   0.391   2.136   1.870 -0.2134 -0.0358 -0.1794
  470SOL     OW 1877   3.086   2.591   0.149 -0.1820  0.2921 -0.1249
  470SOL    HW1 1878   2.995   2.594   0.191  0.6428  0.1999  1.5139
  470SOL    HW2 1879   3.074   2.602   0.057 -0.8443 -0.6203 -2.3794
  470SOL     MW 1880   3.072   2.593   0.142 -0.1606  0.1595 -0.2061
  471SOL     OW 1881   1.182   2.540   1.394 -0.0127 -0.3246  0.7284
  471SOL    HW1 1882   1.115   2.535   1.464  0.0280 -0.7183 -0.0924
  471SOL    HW2 1883   1.146   2.503   1.310 -1.3705 -1.7035 -0.8984
  471SOL     MW 1884   1.168   2.534   1.392 -0.1865 -0.5585  0.4055
  472SOL     OW 1885   2.791   2.084   0.368  0.1452  0.0805  0.3408
  472SOL    HW1 1886   2.806   2.065   0.275  0.4902  2.2968 -1.9873
  472SOL    HW2 1887   2.792   2.000   0.419  0.5931  0.2540 -0.9527
  472SOL     MW 1888   2.793   2.070   0.363  0.2498  0.3958 -0.1370
  473SOL     OW 1889   0.770   2.554   1.360 -0.3419  0.6950  0.4265
  473SOL    HW1 1890   0.725   2.469   1.357  1.1956 -0.9990 -1.6235
  473SOL    HW2 1891   0.819   2.558   1.442  2.1783 -0.2666  1.8129
  473SOL     MW 1892   0.770   2.544   1.370  0.1935  0.3446  0.3390
  474SOL     OW 1893   0.719   2.288   1.743 -0.1512 -0.0252 -0.6721
  474SOL    HW1 1894   0.776   2.302   1.818 -0.0927  0.4347  1.0323
  474SOL    HW2 1895   0.773   2.246   1.672 -1.1821 -1.3376  1.7383
  474SOL     MW 1896   0.733   2.284   1.743 -0.2795 -0.1377 -0.1292
  475SOL     OW 1897   1.616   3.095   1.465 -0.4329 -0.2025  0.5918
  475SOL    HW1 1898   1.529   3.084   1.422 -2.4112  3.2338 -0.5371
  475SOL    HW2 1899   1.606   3.045   1.543  1.3980  0.0968  1.0681
  475SOL     MW 1900   1.603   3.087   1.470 -0.4523  0.2904  0.5057
  476SOL     OW 1901   1.428   2.610   1.075  0.4045 -0.2509  0.1504
  476SOL    HW1 1902   1.340   2.641   1.104 -0.2439 -2.1334  1.3333
  476SOL    HW2 1903   1.468   2.675   1.014  2.6460  0.2871 -0.3896
  476SOL     MW 1904   1.421   2.622   1.070  0.6147 -0.4283  0.2353
  477SOL     OW 1905   0.800   2.561   0.645  0.6253  0.3781  0.2029
  477SOL    HW1 1906   0.876   2.591   0.598 -0.1405 -0.5996 -1.5389
  477SOL    HW2 1907   0.796   2.471   0.610 -0.7408  2.1760  2.5700
  477SOL     MW 1908   0.809   2.553   0.634  0.3440  0.4863  0.2854
  478SOL     OW 1909   0.139   2.686   0.896  0.1170  0.2508  0.0660
  478SOL    HW1 1910   0.181   2.762   0.859  1.2217 -0.4637  0.6475
  478SOL    HW2 1911   0.180   2.615   0.851 -1.0604 -2.9249  2.9684
  478SOL     MW 1912   0.150   2.687   0.886  0.1074 -0.2624  0.5257
  479SOL     OW 1913   1.447   2.002   1.286 -0.5225  0.1471  0.2587
  479SOL    HW1 1914   1.439   2.026   1.380  0.5635  1.1364  2.5945
  479SOL    HW2 1915   1.492   1.916   1.293  1.6027 -1.5535  0.0850
  479SOL     MW 1916   1.452   1.994   1.300 -0.0989  0.0532  0.5440
  480SOL     OW 1917   1.991   2.447   1.286  0.7146  0.1996  0.5156
  480SOL    HW1 1918   1.962   2.360   1.305  1.5662 -0.2202  0.9796
  480SOL    HW2 1919   2.019   2.447   1.193  0.9538  1.1953 -0.8484
  480SOL     MW 1920   1.991   2.436   1.276  0.8585  0.2756  0.3968
  481SOL     OW 1921   1.056   0.031   1.090 -0.0686  0.8652 -0.0114
  481SOL    HW1 1922   1.108  -0.022   1.026 -1.5855 -2.0456 -0.8125
  481SOL    HW2 1923   1.119   0.099   1.122  0.6308  0.3578  2.1787
  481SOL     MW 1924   1.071   0.033   1.086 -0.1765  0.4142  0.1719
  482SOL     OW 1925   1.090   3.083   0.260  0.5767 -0.3275  0.4850
  482SOL    HW1 1926   1.021   3.033   0.309 -0.6080  0.0353  1.1137
  482SOL    HW2 1927   1.095   3.170   0.305 -0.1505 -2.0591 -2.9651
  482SOL     MW 1928   1.081   3.088   0.273  0.3244 -0.5081  0.1127
  483SOL     OW 1929   0.425   2.917   0.403  0.1976  0.4669 -0.4134
  483SOL    HW1 1930   0.338   2.954   0.366 -2.1373  0.9332 -0.3363
  483SOL    HW2 1931   0.432   2.968   0.485  1.9635 -1.4851  0.5052
  483SOL     MW 1932   0.414   2.929   0.409  0.1225  0.2709 -0.2821
  484SOL     OW 1933   1.900   1.940   1.482 -0.2021  0.3950 -0.1595
  484SOL    HW1 1934   1.939   2.005   1.426  0.6119  1.1509  2.2844
  484SOL    HW2 1935   1.828   1.983   1.521 -0.6601 -1.1833  1.5314
  484SOL     MW 1936   1.896   1.954   1.480 -0.1551  0.2865  0.3861
  485SOL     OW 1937   0.547   2.311   0.251  0.4695 -0.6452  0.4001
  485SOL    HW1 1938   0.565   2.281   0.342  2.5514 -0.1369  4.0688
  485SOL    HW2 1939   0.479   2.383   0.259 -1.2524 -0.0579 -0.7246
  485SOL     MW 1940   0.541   2.317   0.264  0.5170 -0.5006  0.7357
  486SOL     OW 1941   0.152   2.340   1.480 -0.1658  0.2484  0.2792
  486SOL    HW1 1942   0.180   2.423   1.441  0.7002  0.8348 -1.9114
  486SOL    HW2 1943   0.099   2.362   1.555 -0.0203  2.0369  0.0843
  486SOL     MW 1944   0.149   2.354   1.485 -0.0323  0.5618 -0.0356
  487SOL     OW 1945   1.225   1.669   1.063  0.4333  0.6223 -0.3260
  487SOL    HW1 1946   1.221   1.762   1.100 -0.8898 -2.2138  0.3578
  487SOL    HW2 1947   1.310   1.687   1.016  1.1640 -2.3296  0.8443
  487SOL     MW 1948   1.236   1.684   1.062  0.3551 -0.1413 -0.0814
  488SOL     OW 1949   1.617   1.867   0.531 -0.0579 -0.6458  0.3336
  488SOL    HW1 1950   1.698   1.846   0.479 -0.9385 -0.7456  1.3233
  488SOL    HW2 1951   1.554   1.930   0.491 -1.1886 -2.2635  1.0654
  488SOL     MW 1952   1.619   1.872   0.519 -0.3233 -0.8724  0.5607
  489SOL     OW 1953   0.766   0.773   0.579  0.3002  0.3378  1.2524
  489SOL    HW1 1954   0.798   0.702   0.523 -2.6227 -0.4195 -0.0532
  489SOL    HW2 1955   0.767   0.740   0.671 -1.0884  1.0456 -0.1213
  489SOL     MW 1956   0.770   0.760   0.584 -0.2686  0.3313  0.8989
  490SOL     OW 1957   1.436   2.074   0.477  0.5659  0.1349 -0.1276
  490SOL    HW1 1958   1.464   2.155   0.435 -2.6759 -2.1971 -0.7880
  490SOL    HW2 1959   1.342   2.070   0.453 -0.1660 -1.8120 -3.3083
  490SOL     MW 1960   1.427   2.084   0.468  0.0416 -0.4297 -0.6344
  491SOL     OW 1961   1.271   2.935   0.395 -0.3013 -0.4135  0.3476
  491SOL    HW1 1962   1.324   3.011   0.431 -0.0296  2.3540 -0.5794
  491SOL    HW2 1963   1.203   2.980   0.342  1.3963  1.5819 -0.0375
  491SOL     MW 1964   1.269   2.951   0.393 -0.0415  0.2150  0.1745
  492SOL     OW 1965   1.516   2.158   0.717  0.0927  0.5234  0.2311
  492SOL    HW1 1966   1.487   2.120   0.632  0.9645 -1.3629  1.5863
  492SOL    HW2 1967   1.472   2.102   0.774  2.0776  1.4580 -0.0933
  492SOL     MW 1968   1.506   2.146   0.713  0.4696  0.3978  0.3671
  493SOL     OW 1969   0.192   3.026   0.317  0.0872  0.6030  0.6753
  493SOL    HW1 1970   0.128   3.061   0.378 -0.1747 -0.8285  0.9325
  493SOL    HW2 1971   0.158   3.057   0.228  0.5539 -1.0420  1.4715
  493SOL     MW 1972   0.179   3.035   0.313  0.1142  0.1970  0.8143
  494SOL     OW 1973   0.412   2.405   1.783  0.3444  0.0970 -0.0491
  494SOL    HW1 1974   0.406   2.310   1.797  0.8698  0.4585 -0.5199
  494SOL    HW2 1975   0.455   2.415   1.696 -0.3825 -1.5851  0.8403
  494SOL     MW 1976   0.417   2.394   1.773  0.3178 -0.0773  0.0061
  495SOL     OW 1977   2.899   1.642   2.628 -0.3233 -0.0634 -0.0501
  495SOL    HW1 1978   2.880   1.724   2.586 -2.8824  1.0190  0.4430
  495SOL    HW2 1979   2.848   1.642   2.711  0.4224  2.6279  0.9087
  495SOL     MW 1980   2.890   1.653   2.633 -0.5626  0.4345  0.1415
  496SOL     OW 1981   2.910   2.378   2.695  0.0167  0.0404  0.5058
  496SOL    HW1 1982   2.964   2.307   2.748  1.9460 -2.3561 -0.9606
  496SOL    HW2 1983   2.963   2.456   2.702 -0.4433 -0.5796 -0.9926
  496SOL     MW 1984   2.924   2.379   2.703  0.2105 -0.3576  0.1147
  497SOL     OW 1985   1.636   2.217   2.602  0.2204 -0.3736 -0.1441
  497SOL    HW1 1986   1.593   2.181   2.525  0.4447  0.7744 -0.2675
  497SOL    HW2 1987   1.611   2.169   2.678  0.8747 -0.6405  0.1492
  497SOL     MW 1988   1.627   2.206   2.602  0.3363 -0.2573 -0.1217
  498SOL     OW 1989   1.442   2.709   2.315  0.0189  0.2280  0.0409
  498SOL    HW1 1990   1.429   2.611   2.292  1.2941  0.3148  1.2040
  498SOL    HW2 1991   1.525   2.702   2.367  0.9977  0.2726 -0.5179
  498SOL     MW 1992   1.451   2.695   2.319  0.3163  0.2454  0.1206
  499SOL     OW 1993   0.991   0.149   3.083  0.0958  0.1291 -0.3735
  499SOL    HW1 1994   0.928   0.184   3.158 -1.8669  0.1051 -0.4380
  499SOL    HW2 1995   1.068   0.100   3.126 -1.1326 -0.7508  0.5052
  499SOL     MW 1996   0.993   0.147   3.098 -0.3252  0.0099 -0.2660
  500SOL     OW 1997   1.082   2.541   2.803  0.7878 -0.9545  0.3210
  500SOL    HW1 1998   1.137   2.481   2.861  1.2712 -0.6319  0.4606
  500SOL    HW2 1999   0.992   2.529   2.839  1.4213 -0.2726  1.2895
  500SOL     MW 2000   1.077   2.531   2.815  0.9352 -0.8220  0.4672
  501SOL     OW 2001   1.818   2.217   3.061 -0.5184  0.3442  0.2687
  501SOL    HW1 2002   1.798   2.310   3.091  2.2971 -0.8548 -0.7188
  501SOL    HW2 2003   1.912   2.219   3.078  1.4440  0.1868 -2.5358
  501SOL     MW 2004   1.828   2.230   3.067  0.1120  0.1652 -0.2316
  502SOL     OW 2005   0.160   2.814   3.063 -0.0732  0.0146  0.2179
  502SOL    HW1 2006   0.104   2.753   3.019  0.4868 -0.5459  0.4212
  502SOL    HW2 2007   0.198   2.883   3.004  1.1253 -1.3943  1.3584
  502SOL     MW 2008   0.158   2.815   3.050  0.1588 -0.2452  0.3952
  503SOL     OW 2009   1.070   2.775   2.161 -0.5790 -0.0680  0.6414
  503SOL    HW1 2010   1.007   2.733   2.098 -2.4650  1.2368 -3.0942
  503SOL    HW2 2011   1.062   2.869   2.153 -0.5433  0.8995 -2.0159
  503SOL     MW 2012   1.061   2.782   2.151 -0.8231  0.2318 -0.2021
  504SOL     OW 2013   0.083   2.681   2.119 -0.3501 -0.4253 -0.3762
  504SOL    HW1 2014   0.134   2.622   2.062 -0.1926 -0.7401 -1.4884
  504SOL    HW2 2015   0.064   2.639   2.207 -0.7021  0.1007  0.7944
  504SOL     MW 2016   0.087   2.668   2.123 -0.3758 -0.3975 -0.3685
  505SOL     OW 2017   1.688   2.685   2.711  0.1388  0.2721 -0.7836
  505SOL    HW1 2018   1.712   2.684   2.613  0.5279 -0.7315 -1.9203
  505SOL    HW2 2019   1.672   2.778   2.728 -1.1329 -0.6210  0.5908
  505SOL     MW 2020   1.689   2.697   2.701  0.0224  0.0219 -0.7523
  506SOL     OW 2021   1.582   3.049   2.836  0.3212 -0.3302  0.0940
  506SOL    HW1 2022   1.632   3.047   2.917 -1.2514 -0.4562  0.4448
  506SOL    HW2 2023   1.650   3.042   2.767  0.6401  0.3990 -1.8130
  506SOL     MW 2024   1.598   3.048   2.838  0.1558 -0.2506 -0.1113
  507SOL     OW 2025   0.866   2.761   2.857 -0.4670 -0.3788  0.0382
  507SOL    HW1 2026   0.921   2.820   2.803 -2.1319 -3.5115  2.5424
  507SOL    HW2 2027   0.774   2.796   2.865 -1.7595 -0.7053 -1.4447
  507SOL     MW 2028   0.861   2.773   2.851 -0.8572 -0.8352  0.1729
  508SOL     OW 2029   1.134   2.079   2.522 -0.4528  0.0904  0.0594
  508SOL    HW1 2030   1.209   2.027   2.554  0.7609  1.6154 -2.8874
  508SOL    HW2 2031   1.122   2.155   2.585  1.4066 -0.9313 -1.0498
  508SOL     MW 2032   1.142   2.082   2.535 -0.0473  0.1568 -0.4758
  509SOL     OW 2033   0.609   2.530   2.815  0.7873 -0.7606  0.7671
  509SOL    HW1 2034   0.611   2.502   2.727  0.5522 -1.6727 -0.1238
  509SOL    HW2 2035   0.522   2.517   2.842  2.1237  0.7444 -1.8966
  509SOL     MW 2036   0.598   2.525   2.807  0.9326 -0.6824  0.2981
  510SOL     OW 2037   1.535   2.565   1.700  0.2945 -0.2381  0.1263
  510SOL    HW1 2038   1.533   2.661   1.669  1.2555  2.1793  1.2183
  510SOL    HW2 2039   1.483   2.547   1.786  1.0765 -0.3907 -0.5967
  510SOL     MW 2040   1.528   2.575   1.707  0.5245  0.0607  0.1750
  511SOL     OW 2041   0.475   2.648   2.443  0.8016 -0.3275  0.0448
  511SOL    HW1 2042   0.524   2.579   2.490 -2.0537 -1.9065 -0.7492
  511SOL    HW2 2043   0.485   2.648   2.346 -3.4457 -2.2877  2.9862
  511SOL     MW 2044   0.483   2.639   2.437 -0.1355 -0.7945  0.3281
  512SOL     OW 2045   1.064   2.007   2.835 -0.4936  0.0340  0.6404
  512SOL    HW1 2046   0.971   2.012   2.854 -0.5577  0.3397 -1.2598
  512SOL    HW2 2047   1.092   1.921   2.876  0.1035  0.5810  2.7490
  512SOL     MW 2048   1.055   1.997   2.843 -0.4232  0.1465  0.6679
  513SOL     OW 2049   1.523   2.443   2.318 -0.3422  0.0745  0.4990
  513SOL    HW1 2050   1.604   2.481   2.339 -0.0884 -1.1933  0.4513
  513SOL    HW2 2051   1.502   2.361   2.362 -2.3256 -1.3509 -4.8057
  513SOL     MW 2052   1.531   2.437   2.326 -0.5704 -0.2809 -0.2072
  514SOL     OW 2053   0.269   2.531   2.592 -0.3095 -0.3959 -0.3619
  514SOL    HW1 2054   0.346   2.567   2.546 -2.1738 -1.2017  0.4569
  514SOL    HW2 2055   0.305   2.497   2.676 -1.4928 -2.3309 -0.9390
  514SOL     MW 2056   0.284   2.531   2.597 -0.7116 -0.7575 -0.3300
  515SOL     OW 2057   1.082   2.091   1.780 -0.8068  0.0040  0.1742
  515SOL    HW1 2058   1.002   2.126   1.816  0.3836 -1.8727 -0.9220
  515SOL    HW2 2059   1.147   2.102   1.853  0.5716 -0.9230  1.5540
  515SOL     MW 2060   1.080   2.097   1.794 -0.4678 -0.3659  0.2116
  516SOL     OW 2061   1.466   2.477   3.045 -0.4674  0.3921 -0.2840
  516SOL    HW1 2062   1.527   2.456   2.976  1.5950 -0.8924 -1.2467
  516SOL    HW2 2063   1.380   2.499   3.010  0.4264  0.7594  2.8985
  516SOL     MW 2064   1.462   2.477   3.032 -0.0773  0.2711  0.0089
  517SOL     OW 2065   0.620   2.456   2.160 -0.0326 -0.3664 -0.0289
  517SOL    HW1 2066   0.576   2.546   2.162 -4.3258 -0.4598 -1.6880
  517SOL    HW2 2067   0.560   2.396   2.122 -0.0670 -1.4739 -0.6753
  517SOL     MW 2068   0.607   2.460   2.155 -0.6036 -0.5248 -0.3331
  518SOL     OW 2069   1.900   0.162   2.989  0.3563  0.0628 -0.3061
  518SOL    HW1 2070   1.825   0.190   2.939  1.0210 -2.4227 -1.9198
  518SOL    HW2 2071   1.861   0.161   3.079  2.5403 -1.0076 -0.1588
  518SOL     MW 2072   1.885   0.166   2.994  0.7321 -0.4064 -0.4996
  519SOL     OW 2073   0.713   2.550   1.696  0.7720  0.5275 -0.2996
  519SOL    HW1 2074   0.712   2.458   1.698 -0.7950  1.1597 -0.9204
  519SOL    HW2 2075   0.621   2.578   1.715  1.6449 -1.8364  2.2324
  519SOL     MW 2076   0.701   2.542   1.699  0.6804  0.2991 -0.0474
  520SOL     OW 2077   1.290   2.143   2.923  0.0230  0.1668  0.3298
  520SOL    HW1 2078   1.199   2.111   2.902 -1.1342  1.4982  1.9789
  520SOL    HW2 2079   1.337   2.088   2.984 -1.7095 -0.1836 -1.4202
  520SOL     MW 2080   1.284   2.132   2.928 -0.3583  0.2962  0.3165
  521SOL     OW 2081   1.714   2.070   2.309  0.6789 -0.2426  0.5612
  521SOL    HW1 2082   1.736   2.104   2.219  1.5096 -1.0214 -0.3600
  521SOL    HW2 2083   1.706   1.975   2.290 -0.2843  0.3210  3.1109
  521SOL     MW 2084   1.716   2.062   2.294  0.6614 -0.2710  0.7760
  522SOL     OW 2085   2.847   2.554   2.169 -0.1564 -0.5235 -0.2002
  522SOL    HW1 2086   2.936   2.516   2.185  3.6691  0.0732 -1.6695
  522SOL    HW2 2087   2.809   2.580   2.254  1.8188  0.5561  2.2929
  522SOL     MW 2088   2.854   2.553   2.182  0.6090 -0.3023 -0.0651
  523SOL     OW 2089   0.871   1.517   2.131  0.0441 -0.1665 -0.4421
  523SOL    HW1 2090   0.866   1.590   2.071  0.0036 -1.5778  0.6390
  523SOL    HW2 2091   0.914   1.447   2.082 -1.9378  0.5675  1.4575
  523SOL     MW 2092   0.876   1.517   2.117 -0.2227 -0.2559 -0.0489
  524SOL     OW 2093   0.845   2.415   2.897 -0.5882  0.0148 -0.4898
  524SOL    HW1 2094   0.763   2.452   2.864 -1.3030  0.9266  1.6326
  524SOL    HW2 2095   0.828   2.320   2.898 -1.1601  1.3499 -3.6439
  524SOL     MW 2096   0.832   2.408   2.893 -0.7579  0.3112 -0.6260
  525SOL     OW 2097   0.391   2.254   2.118  0.6602  0.1065  0.1954
  525SOL    HW1 2098   0.369   2.184   2.173  2.9359  0.5662 -1.3019
  525SOL    HW2 2099   0.403   2.213   2.029 -1.3557  0.4569  0.4022
  525SOL     MW 2100   0.390   2.240   2.114  0.6945  0.2134  0.0251
  526SOL     OW 2101   0.688   2.072   2.005  0.5316  0.8361 -0.5836
  526SOL    HW1 2102   0.639   2.080   1.919 -0.3761  0.8648  0.0306
  526SOL    HW2 2103   0.642   2.116   2.082 -1.0243  0.6788 -0.8749
  526SOL     MW 2104   0.675   2.078   2.004  0.2066  0.8191 -0.5410
  527SOL     OW 2105   1.314   1.978   2.004 -0.2129  0.0657  0.1240
  527SOL    HW1 2106   1.315   1.973   2.102  0.6734 -4.9864  1.1691
  527SOL    HW2 2107   1.375   1.913   1.972 -2.5559 -1.2487  0.9777
  527SOL     MW 2108   1.322   1.969   2.013 -0.4051 -0.7743  0.3745
  528SOL     OW 2109   0.633   2.859   2.915  0.3318  0.2148 -0.1313
  528SOL    HW1 2110   0.692   2.929   2.940 -2.3342  0.3039 -2.1730
  528SOL    HW2 2111   0.583   2.887   2.838 -3.0491 -1.3033  0.1968
  528SOL     MW 2112   0.634   2.872   2.908 -0.4660  0.0262 -0.3574
  529SOL     OW 2113   0.952   2.368   1.898  0.1157 -0.0389 -0.6611
  529SOL    HW1 2114   0.944   2.369   1.997 -3.0185 -2.1497  1.0116
  529SOL    HW2 2115   1.042   2.388   1.870 -2.6345  2.0825  1.6421
  529SOL     MW 2116   0.963   2.371   1.907 -0.6607 -0.0375 -0.1365
  530SOL     OW 2117   1.185   2.418   3.014 -0.1389  0.0422 -0.7119
  530SOL    HW1 2118   1.109   2.439   3.062  1.3418 -0.3237 -3.4198
  530SOL    HW2 2119   1.196   2.325   3.032  0.9726 -0.5560  1.2734
  530SOL     MW 2120   1.176   2.408   3.023  0.2031 -0.0850 -0.8073
  531SOL     OW 2121   0.970   1.867   2.568  0.2874 -0.0743  0.6110
  531SOL    HW1 2122   1.030   1.943   2.574  1.5828 -0.9200  0.2984
  531SOL    HW2 2123   0.943   1.850   2.650  3.9906  0.7932 -1.3043
  531SOL     MW 2124   0.975   1.875   2.580  0.9469 -0.0714  0.3170
  532SOL     OW 2125   1.727   0.327   2.833 -0.2471 -0.0911 -0.0631
  532SOL    HW1 2126   1.708   0.315   2.743 -1.6156  2.5997 -0.4035
  532SOL    HW2 2127   1.806   0.375   2.835  0.9570 -0.1326 -0.3721
  532SOL     MW 2128   1.735   0.332   2.821 -0.2688  0.2585 -0.1488
  533SOL     OW 2129   1.840   2.667   3.028  0.0427  0.4243 -0.3790
  533SOL    HW1 2130   1.825   2.579   3.011  0.3843  0.2642 -1.8295
  533SOL    HW2 2131   1.771   2.717   2.984  1.2795 -1.0155 -0.0662
  533SOL     MW 2132   1.829   2.662   3.020  0.2510  0.2132 -0.5291
  534SOL     OW 2133   1.779   2.442   2.512 -0.4079  0.0155  0.1744
  534SOL    HW1 2134   1.734   2.358   2.540 -2.8965 -1.5865  2.4410
  534SOL    HW2 2135   1.855   2.463   2.565 -0.4208 -0.9636 -2.6859
  534SOL     MW 2136   1.783   2.434   2.523 -0.7379 -0.3250  0.0960
  535SOL     OW 2137   1.912   2.403   1.902 -0.1849 -0.1445 -0.0795
  535SOL    HW1 2138   1.856   2.417   1.823  1.0565  0.0101  2.0526
  535SOL    HW2 2139   1.997   2.433   1.867  0.9701 -0.3304 -0.5690
  535SOL     MW 2140   1.916   2.409   1.887  0.1313 -0.1486  0.1373
  536SOL     OW 2141   0.550   1.818   2.046  0.5286 -0.5393  0.3548
  536SOL    HW1 2142   0.494   1.802   1.970  0.7006  0.9420  1.9128
  536SOL    HW2 2143   0.592   1.905   2.027  0.6964  0.5892  0.6572
  536SOL     MW 2144   0.548   1.827   2.033  0.5734 -0.1950  0.6003
  537SOL     OW 2145   1.083   0.196   2.821 -0.2729  0.0608 -0.2880
  537SOL    HW1 2146   1.086   0.215   2.913  2.2532  0.0504 -0.7331
  537SOL    HW2 2147   1.066   0.280   2.772  2.7379  0.4298  0.8935
  537SOL     MW 2148   1.082   0.210   2.827  0.4577  0.1081 -0.1908
  538SOL     OW 2149   1.428   0.069   3.070  0.4661 -0.5711 -0.3275
  538SOL    HW1 2150   1.412   0.153   3.119  0.6057 -2.4330 -0.0025
  538SOL    HW2 2151   1.339   0.028   3.058 -1.0333 -1.0146 -1.0997
  538SOL     MW 2152   1.414   0.074   3.075  0.2867 -0.8752 -0.3865
  539SOL     OW 2153   0.738   2.811   2.571 -0.2901 -0.4060 -0.1276
  539SOL    HW1 2154   0.808   2.878   2.569 -1.5303  2.9408 -0.0283
  539SOL    HW2 2155   0.784   2.731   2.600 -2.3768  0.6717 -0.0957
  539SOL     MW 2156   0.754   2.809   2.575 -0.7291  0.1778 -0.1103
  540SOL     OW 2157   0.355   2.497   2.904 -0.1353  0.1294 -0.2726
  540SOL    HW1 2158   0.351   2.559   2.979 -0.4488  1.4062  1.2736
  540SOL    HW2 2159   0.292   2.424   2.913 -1.1736 -3.4561  0.1350
  540SOL     MW 2160   0.346   2.496   2.915 -0.3137 -0.1752 -0.0148
  541SOL     OW 2161   0.210   2.943   2.193  0.3126  0.1783 -0.5780
  541SOL    HW1 2162   0.156   2.868   2.169  2.9278 -2.4522  0.5282
  541SOL    HW2 2163   0.261   2.904   2.268 -0.3207 -1.1056  0.6648
  541SOL     MW 2164   0.210   2.928   2.200  0.5741 -0.3382 -0.2681
  542SOL     OW 2165   1.050   2.279   2.684 -0.3520 -0.5258  0.1860
  542SOL    HW1 2166   1.018   2.228   2.758 -0.8235  0.6877  1.5119
  542SOL    HW2 2167   1.065   2.370   2.718  0.9975  0.1136 -0.6816
  542SOL     MW 2168   1.047   2.284   2.698 -0.2361 -0.2814  0.2465
  543SOL     OW 2169   1.715   2.431   2.818 -0.2100 -0.7540  0.2148
  543SOL    HW1 2170   1.684   2.369   2.751  2.1287  1.4894 -0.2031
  543SOL    HW2 2171   1.705   2.513   2.771  1.5608  0.3923 -0.4483
  543SOL     MW 2172   1.709   2.434   2.803  0.3322 -0.3068  0.0722
  544SOL     OW 2173   0.771   0.134   2.761  0.4753  0.2083  0.1638
  544SOL    HW1 2174   0.676   0.150   2.743 -1.3585  0.2158 -2.7117
  544SOL    HW2 2175   0.800   0.150   2.675 -0.7582  0.0112  0.8113
  544SOL     MW 2176   0.762   0.138   2.748  0.0706  0.1833 -0.1301
  545SOL     OW 2177   1.455   2.181   2.370 -0.7148 -0.2125 -0.5887
  545SOL    HW1 2178   1.384   2.209   2.306 -2.1500 -2.1294 -1.5945
  545SOL    HW2 2179   1.527   2.135   2.319  2.8480 -0.1588 -1.9363
  545SOL     MW 2180   1.455   2.178   2.355 -0.4341 -0.4583 -0.8992
  546SOL     OW 2181   2.910   2.009   0.118 -0.2325  0.4057 -0.1509
  546SOL    HW1 2182   2.921   2.095   0.077  0.2896 -1.6142  0.1120
  546SOL    HW2 2183   2.996   1.964   0.125 -1.4492 -0.6490 -0.6214
  546SOL     MW 2184   2.923   2.015   0.114 -0.3242  0.0001 -0.1783
  547SOL     OW 2185   0.176   0.074   0.098  0.4011 -0.3634 -0.0450
  547SOL    HW1 2186   0.234   0.103   0.028  3.4079  1.9818 -1.6372
  547SOL    HW2 2187   0.105   0.026   0.054  0.9902 -0.2399 -0.5046
  547SOL     MW 2188   0.174   0.071   0.083  0.8756 -0.0377 -0.3158
  548SOL     OW 2189   0.322   2.486   0.271 -0.6941 -0.5354 -0.4174
  548SOL    HW1 2190   0.336   2.557   0.202  1.7448 -3.5113  0.1530
  548SOL    HW2 2191   0.265   2.423   0.232  3.6611  0.6829  1.2068
  548SOL     MW 2192   0.316   2.487   0.257  0.2023 -0.7673 -0.1279
  549SOL     OW 2193   0.848   1.934   2.206  0.2544  0.0998 -0.1129
  549SOL    HW1 2194   0.792   1.989   2.155 -0.4348  2.6470  1.4993
  549SOL    HW2 2195   0.800   1.909   2.280 -2.8971 -0.3012 -3.1433
  549SOL     MW 2196   0.835   1.938   2.209 -0.2523  0.3829 -0.3000
  550SOL     OW 2197   1.821   1.728   2.547 -0.4841 -0.6563  0.0419
  550SOL    HW1 2198   1.788   1.738   2.460  0.7704 -2.3804 -2.1421
  550SOL    HW2 2199   1.810   1.809   2.594 -2.3135 -0.8044  0.4964
  550SOL     MW 2200   1.815   1.740   2.542 -0.5599 -0.9033 -0.1863
  551SOL     OW 2201   0.907   2.261   0.259  0.4877 -0.2180  0.2857
  551SOL    HW1 2202   0.991   2.300   0.227 -1.7940  1.1400  0.8012
  551SOL    HW2 2203   0.856   2.213   0.194 -2.2122 -2.5118  0.0932
  551SOL     MW 2204   0.912   2.260   0.246 -0.1695 -0.3415  0.3283
  552SOL     OW 2205   1.760   1.786   2.278 -0.4077  0.2386 -0.5902
  552SOL    HW1 2206   1.671   1.748   2.276  0.0681  3.9777  2.3696
  552SOL    HW2 2207   1.822   1.725   2.235  2.0351 -3.4703 -1.0171
  552SOL     MW 2208   1.756   1.773   2.272 -0.0226  0.2426 -0.2560
  553SOL     OW 2209   1.221   2.241   1.544 -0.9090 -0.4844  0.3921
  553SOL    HW1 2210   1.268   2.170   1.578 -1.3264  0.9901 -1.1867
  553SOL    HW2 2211   1.293   2.297   1.502  0.6168  1.4471 -0.9333
  553SOL     MW 2212   1.237   2.239   1.543 -0.7627 -0.0350  0.0089
  554SOL     OW 2213   0.487   2.931   2.682 -0.2002 -0.2875  0.5732
  554SOL    HW1 2214   0.436   2.989   2.624 -0.2027 -0.7530  3.9869
  554SOL    HW2 2215   0.556   2.887   2.627  0.4529 -0.3176  1.8431
  554SOL     MW 2216   0.489   2.932   2.667 -0.1144 -0.3529  1.1911
  555SOL     OW 2217   0.623   2.447   2.543  0.4836  0.4794  0.2699
  555SOL    HW1 2218   0.585   2.362   2.539  1.2518  1.2841  1.3399
  555SOL    HW2 2219   0.717   2.427   2.529  1.1404  1.7006 -1.7027
  555SOL     MW 2220   0.630   2.433   2.541  0.6716  0.7467  0.1508
  556SOL     OW 2221   1.051   1.930   0.098 -0.0112 -0.2501 -0.7976
  556SOL    HW1 2222   1.074   1.870   0.030 -4.0906  0.5904  0.6355
  556SOL    HW2 2223   1.106   1.912   0.175  0.4198  1.0219  1.6189
  556SOL     MW 2224   1.061   1.919   0.099 -0.4926  0.0286 -0.2897
  557SOL     OW 2225   0.976   2.679   0.488  0.5819  0.4175 -0.6102
  557SOL    HW1 2226   1.031   2.640   0.417  0.0952  0.0146  1.1362
  557SOL    HW2 2227   0.945   2.768   0.454  0.9211  0.3707  1.6746
  557SOL     MW 2228   0.979   2.686   0.474  0.5624  0.3582 -0.0783
  558SOL     OW 2229   0.219   2.275   2.992 -0.3722 -0.4906  0.4512
  558SOL    HW1 2230   0.176   2.226   2.920 -0.6009 -3.0300 -1.2896
  558SOL    HW2 2231   0.170   2.286   3.076 -0.8332 -0.6940 -1.1595
  558SOL     MW 2232   0.207   2.270   2.994 -0.4632 -0.8525  0.0090
  559SOL     OW 2233   1.044   2.361   2.168  0.8188  0.6049  0.5827
  559SOL    HW1 2234   1.137   2.349   2.166 -0.8792 -0.5176  0.8574
  559SOL    HW2 2235   1.009   2.288   2.215 -2.0961  2.4309 -0.8608
  559SOL     MW 2236   1.052   2.350   2.174  0.2102  0.6977  0.4285
  560SOL     OW 2237   1.951   2.816   0.138  0.2055 -0.8851  0.7184
  560SOL    HW1 2238   2.028   2.833   0.085  0.6558 -0.6365  1.8358
  560SOL    HW2 2239   1.897   2.750   0.088 -1.0538  0.4359 -1.1470
  560SOL     MW 2240   1.954   2.810   0.124  0.0987 -0.6780  0.6197
  561SOL     OW 2241   0.358   2.149   0.095  0.8859 -0.2487  0.1568
  561SOL    HW1 2242   0.346   2.191   0.007 -0.8992  1.1481 -1.0991
  561SOL    HW2 2243   0.433   2.199   0.132  2.2935  0.0728 -1.4572
  561SOL     MW 2244   0.367   2.161   0.088  0.8361 -0.0220 -0.2219
  562SOL     OW 2245   0.671   2.196   2.252 -0.6004 -0.2205 -0.2010
  562SOL    HW1 2246   0.643   2.288   2.246  2.2447 -2.3053  1.5157
  562SOL    HW2 2247   0.757   2.197   2.294  1.1946  2.4092  0.5385
  562SOL     MW 2248   0.678   2.208   2.257  0.0118 -0.1486  0.1231
  563SOL     OW 2249   1.207   0.419   0.519  0.1203 -0.2167  0.1653
  563SOL    HW1 2250   1.179   0.344   0.465 -3.9454 -0.4038  2.2064
  563SOL    HW2 2251   1.154   0.399   0.591  2.3887  2.1256 -0.7137
  563SOL     MW 2252   1.196   0.407   0.521 -0.1169  0.0677  0.3186
  564SOL     OW 2253   1.059   2.604   2.388  0.1890  0.2179  0.0450
  564SOL    HW1 2254   1.056   2.663   2.303 -1.9834  1.4705 -0.4438
  564SOL    HW2 2255   1.073   2.659   2.463 -0.5842 -1.2847  0.7288
  564SOL     MW 2256   1.060   2.619   2.387 -0.1997  0.1849  0.0707
  565SOL     OW 2257   2.751   2.823   2.556  0.0535  0.5061 -0.3328
  565SOL    HW1 2258   2.834   2.816   2.507  1.3653  0.6528  0.9428
  565SOL    HW2 2259   2.697   2.763   2.499  0.8410 -0.9939  2.1952
  565SOL     MW 2260   2.755   2.814   2.542  0.3305  0.3276  0.1691
  566SOL     OW 2261   2.163   1.902   2.328  0.1610  0.3310 -0.8479
  566SOL    HW1 2262   2.183   1.905   2.236 -0.4701 -0.4566 -0.7827
  566SOL    HW2 2263   2.220   1.966   2.365 -0.5860  2.3724  0.2482
  566SOL     MW 2264   2.173   1.911   2.321 -0.0208  0.4964 -0.6947
  567SOL     OW 2265   1.203   3.021   0.031 -0.0224 -0.0255  0.2734
  567SOL    HW1 2266   1.162   3.018   0.116  0.2948  3.2734 -0.3081
  567SOL    HW2 2267   1.245   2.932   0.019  0.3402  0.5408 -1.8781
  567SOL     MW 2268   1.203   3.009   0.041  0.0673  0.4845 -0.0872
  568SOL     OW 2269   1.624   2.064   2.853  0.7534  0.7104  0.4294
  568SOL    HW1 2270   1.653   2.128   2.915 -2.2321  0.1818 -1.6098
  568SOL    HW2 2271   1.702   2.024   2.818 -0.8488  0.7503 -0.3137
  568SOL     MW 2272   1.638   2.067   2.856  0.1481  0.6459  0.0623
  569SOL     OW 2273   0.119   2.312   2.451  0.0577 -0.5125  0.1598
  569SOL    HW1 2274   0.074   2.354   2.378 -0.5876  0.1746 -0.1975
  569SOL    HW2 2275   0.127   2.390   2.508  1.4100  1.3038 -2.3877
  569SOL     MW 2276   0.114   2.328   2.449  0.1510 -0.1822 -0.2234
  570SOL     OW 2277   1.481   0.364   0.523  0.0925  0.0176  0.3655
  570SOL    HW1 2278   1.396   0.391   0.546  0.8601  3.3065 -0.9220
  570SOL    HW2 2279   1.530   0.402   0.593  0.0754  1.2146 -0.8126
  570SOL     MW 2280   1.476   0.373   0.535  0.1915  0.6095  0.0402
  571SOL     OW 2281   1.335   2.354   2.145 -0.0206  0.3316  0.3354
  571SOL    HW1 2282   1.402   2.404   2.192  0.2141  0.9019 -1.3546
  571SOL    HW2 2283   1.378   2.291   2.080 -1.5627 -0.8584 -2.8023
  571SOL     MW 2284   1.349   2.352   2.142 -0.1931  0.2498 -0.3016
  572SOL     OW 2285   0.990   2.576   0.061  0.6622  0.0812 -0.2647
  572SOL    HW1 2286   0.981   2.669   0.046 -1.9424 -3.2300  2.7838
  572SOL    HW2 2287   0.900   2.551   0.056 -0.2874  0.6087 -0.4876
  572SOL     MW 2288   0.977   2.585   0.058  0.1933 -0.2861  0.1081
  573SOL     OW 2289   1.172   2.269   0.209 -0.3107  0.1192  0.4640
  573SOL    HW1 2290   1.259   2.259   0.172  0.2177 -2.3495 -1.1593
  573SOL    HW2 2291   1.177   2.356   0.247 -2.5966 -0.0560  0.0220
  573SOL     MW 2292   1.184   2.279   0.209 -0.5426 -0.2296  0.1915
  574SOL     OW 2293   1.146   2.536   0.289  0.5273  0.1289  0.5204
  574SOL    HW1 2294   1.206   2.602   0.273  0.5192  0.2006 -1.2631
  574SOL    HW2 2295   1.069   2.535   0.226 -2.4035 -0.4649  3.2063
  574SOL     MW 2296   1.143   2.545   0.278  0.1395  0.0600  0.6395
  575SOL     OW 2297   3.028   2.216   1.702  0.4064 -0.5974 -0.3460
  575SOL    HW1 2298   3.054   2.138   1.644  0.2784  1.7384 -2.4107
  575SOL    HW2 2299   3.097   2.251   1.762  0.5633 -0.0937  0.8324
  575SOL     MW 2300   3.041   2.210   1.702  0.4102 -0.2228 -0.4629
  576SOL     OW 2301   2.844   1.844   2.018 -0.0729 -0.2719  0.0834
  576SOL    HW1 2302   2.884   1.913   1.968 -0.9764 -2.1353  1.4831
  576SOL    HW2 2303   2.760   1.839   1.967  1.6863  2.2037 -2.9722
  576SOL     MW 2304   2.838   1.853   2.005  0.0400 -0.1911 -0.1350
  577SOL     OW 2305   2.098   0.263   0.076  0.3942 -0.3313 -0.7114
  577SOL    HW1 2306   2.046   0.276   0.002 -0.0432 -0.6936  1.7402
  577SOL    HW2 2307   2.056   0.203   0.132  0.2008  0.8425  0.0055
  577SOL     MW 2308   2.086   0.257   0.074  0.3109 -0.2242 -0.2933
  578SOL     OW 2309   1.956   2.068   2.431  0.3767  0.4677 -1.1076
  578SOL    HW1 2310   1.872   2.049   2.394  3.2402 -2.1115  0.8602
  578SOL    HW2 2311   2.019   2.008   2.382 -1.4876 -0.4401  0.5638
  578SOL     MW 2312   1.953   2.057   2.420  0.5086  0.0076 -0.6275
  579SOL     OW 2313   0.877   2.428   2.495 -1.2740  0.0056  0.1646
  579SOL    HW1 2314   0.924   2.355   2.526 -0.1221 -1.1788  1.8795
  579SOL    HW2 2315   0.957   2.483   2.457 -1.2575  2.8466  0.7118
  579SOL     MW 2316   0.894   2.425   2.494 -1.1198  0.2242  0.4631
  580SOL     OW 2317   0.955   2.841   0.018  0.3140  0.4350 -0.4207
  580SOL    HW1 2318   1.039   2.879   0.008  1.1211 -2.3315  0.7249
  580SOL    HW2 2319   0.931   2.814  -0.071  2.4407 -1.7265 -1.1371
  580SOL     MW 2320   0.963   2.842   0.005  0.7011 -0.2152 -0.3641
  581SOL     OW 2321   1.171   2.443   1.731 -0.4981 -0.5625  0.5883
  581SOL    HW1 2322   1.245   2.466   1.794 -0.5874 -0.8076 -1.3940
  581SOL    HW2 2323   1.198   2.373   1.673  0.0427 -2.4058 -0.7637
  581SOL     MW 2324   1.184   2.437   1.732 -0.4385 -0.8380  0.1484
  582SOL     OW 2325   0.034   2.855   2.730  0.0473  0.1481 -0.1658
  582SOL    HW1 2326  -0.034   2.927   2.731 -1.1042 -1.4106  2.7363
  582SOL    HW2 2327   0.111   2.905   2.768 -1.5052  1.1806  2.5861
  582SOL     MW 2328   0.035   2.871   2.736 -0.3095  0.0786  0.5802
  583SOL     OW 2329   2.018   2.447   2.678 -0.0225 -0.1022 -0.2745
  583SOL    HW1 2330   2.093   2.431   2.622 -1.9265 -1.1565  1.0783
  583SOL    HW2 2331   1.998   2.369   2.726 -0.5435  0.3389 -1.1386
  583SOL     MW 2332   2.025   2.435   2.677 -0.3425 -0.1831 -0.2100
  584SOL     OW 2333   0.081   1.902   2.188  0.2964  0.4115  0.1407
  584SOL    HW1 2334   0.102   1.853   2.272  0.5447 -1.2324  2.4606
  584SOL    HW2 2335   0.134   1.987   2.197  2.5757  0.1723 -2.8138
  584SOL     MW 2336   0.090   1.907   2.200  0.6299  0.1631  0.0570
  585SOL     OW 2337   1.583   2.649   0.125 -0.0576  0.1591  0.2900
  585SOL    HW1 2338   1.534   2.595   0.060  1.5424  1.3496 -0.2718
  585SOL    HW2 2339   1.518   2.635   0.194 -2.1167  0.7044  1.6839
  585SOL     MW 2340   1.568   2.640   0.126 -0.1182  0.3881  0.3998
  586SOL     OW 2341   1.357   2.798   2.575  0.1673  0.4004 -0.3652
  586SOL    HW1 2342   1.363   2.761   2.481 -0.2200  1.2608 -0.2339
  586SOL    HW2 2343   1.347   2.890   2.580 -1.5663  1.1752  2.0779
  586SOL     MW 2344   1.356   2.805   2.563 -0.1125  0.6162 -0.0255
  587SOL     OW 2345   1.372   1.469   2.183 -0.4869 -0.2090  0.4375
  587SOL    HW1 2346   1.310   1.399   2.219 -1.6894  0.5073 -2.0153
  587SOL    HW2 2347   1.403   1.430   2.101  0.0667 -0.5620  1.3283
  587SOL     MW 2348   1.368   1.455   2.177 -0.5725 -0.1610  0.2314
  588SOL     OW 2349   1.377   1.981   2.626  0.2575 -0.2639  0.1669
  588SOL    HW1 2350   1.373   1.883   2.637 -0.8228 -2.2911  0.8148
  588SOL    HW2 2351   1.397   2.011   2.714  0.8823  0.9230  0.2679
  588SOL     MW 2352   1.379   1.972   2.640  0.1974 -0.3747  0.2657
  589SOL     OW 2353   1.412   1.970   0.042  0.1653  0.0840 -0.3049
  589SOL    HW1 2354   1.417   2.066   0.053 -0.2488  1.3563 -2.4965
  589SOL    HW2 2355   1.354   1.945   0.116  1.8669  1.0059 -0.1293
  589SOL     MW 2356   1.405   1.980   0.053  0.3352  0.3735 -0.5709
  590SOL     OW 2357   0.497   2.682   2.177  0.1810 -0.5382  0.1868
  590SOL    HW1 2358   0.480   2.680   2.080 -0.8394 -2.0406 -0.3147
  590SOL    HW2 2359   0.582   2.730   2.184  0.2000 -1.7125  1.3606
  590SOL     MW 2360   0.506   2.688   2.165  0.0489 -0.8913  0.2755
  591SOL     OW 2361   2.285   0.716   0.063 -0.2693 -0.4285  0.0172
  591SOL    HW1 2362   2.194   0.749   0.083  0.6910 -2.5818  0.3414
  591SOL    HW2 2363   2.292   0.732  -0.034 -1.9078  2.4839 -0.6563
  591SOL     MW 2364   2.274   0.722   0.053 -0.3587 -0.3283 -0.0289
  592SOL     OW 2365   1.733   2.920   0.803 -0.8949  0.5121 -0.0576
  592SOL    HW1 2366   1.714   3.001   0.766  1.3682  1.0523  0.8584
  592SOL    HW2 2367   1.815   2.889   0.760 -1.1844  0.1422 -0.1724
  592SOL     MW 2368   1.742   2.926   0.793 -0.6345  0.5346  0.0481
  593SOL     OW 2369   1.963   0.667   0.811  0.6896  0.2371 -0.7962
  593SOL    HW1 2370   1.891   0.665   0.744 -0.9443  1.8078  2.2356
  593SOL    HW2 2371   2.011   0.584   0.813 -1.7074 -1.5751  1.5034
  593SOL     MW 2372   1.960   0.656   0.803  0.1577  0.2053 -0.0928
  594SOL     OW 2373   2.761   1.070   1.393 -0.8392  0.2124 -0.5540
  594SOL    HW1 2374   2.860   1.086   1.403 -1.2131  1.6146  1.6724
  594SOL    HW2 2375   2.728   1.066   1.305 -1.5794 -2.4832  1.4517
  594SOL     MW 2376   2.770   1.072   1.382 -0.9862  0.0417  0.0044
  595SOL     OW 2377   0.459   0.900   0.842  0.2245  0.0291 -0.2135
  595SOL    HW1 2378   0.438   0.935   0.756  0.6043 -1.0223  1.6439
  595SOL    HW2 2379   0.492   0.976   0.896 -0.9780  0.7483  1.0911
  595SOL     MW 2380   0.461   0.915   0.838  0.1159 -0.0147  0.2037
  596SOL     OW 2381   2.469   1.327   0.520 -0.3039 -0.5377 -0.4224
  596SOL    HW1 2382   2.528   1.402   0.511 -0.3966  0.7572  0.2641
  596SOL    HW2 2383   2.494   1.285   0.604  0.7127 -1.1634  1.0611
  596SOL     MW 2384   2.480   1.332   0.530 -0.1820 -0.4494 -0.1361
  597SOL     OW 2385   2.188   0.644   1.570  0.0400 -0.1070 -0.2996
  597SOL    HW1 2386   2.222   0.597   1.645 -1.5629 -1.5570  1.7156
  597SOL    HW2 2387   2.116   0.573   1.531 -1.6982  0.5945 -1.5764
  597SOL     MW 2388   2.183   0.628   1.575 -0.4008 -0.2057 -0.2022
  598SOL     OW 2389   2.602   1.016   2.865  0.0751  0.1350  0.0645
  598SOL    HW1 2390   2.603   0.922   2.853 -2.1436 -0.3385 -0.0990
  598SOL    HW2 2391   2.691   1.052   2.873  0.3792  0.8544  0.8466
  598SOL     MW 2392   2.614   1.009   2.865 -0.1775  0.1675  0.1461
  599SOL     OW 2393   2.983   0.428   2.156  0.7583 -0.1904  0.2127
  599SOL    HW1 2394   3.038   0.409   2.239  1.1811  2.0713  3.8037
  599SOL    HW2 2395   3.029   0.487   2.101 -0.2412  0.5105  0.4586
  599SOL     MW 2396   2.996   0.433   2.160  0.6822  0.2005  0.7190
  600SOL     OW 2397   1.838   1.631   0.899 -0.1289  0.4257 -0.2670
  600SOL    HW1 2398   1.900   1.667   0.963  2.3505 -0.5896 -0.4235
  600SOL    HW2 2399   1.799   1.714   0.871  0.5152  1.5734  0.5333
  600SOL     MW 2400   1.841   1.647   0.904  0.2832  0.4432 -0.1821
  601SOL     OW 2401   2.526   0.691   0.805 -0.0435 -0.3227  0.1276
  601SOL    HW1 2402   2.510   0.701   0.900 -1.5774  0.1902  0.6048
  601SOL    HW2 2403   2.457   0.623   0.767 -0.6453 -1.9481 -1.2555
  601SOL     MW 2404   2.515   0.683   0.813 -0.3253 -0.4695  0.0081
  602SOL     OW 2405   2.306   1.922   0.764 -0.3327  0.5160 -0.4946
  602SOL    HW1 2406   2.275   1.837   0.727  3.3054 -1.6435  0.9923
  602SOL    HW2 2407   2.242   1.986   0.741 -2.0401 -3.0275  2.0408
  602SOL     MW 2408   2.293   1.919   0.756 -0.0780 -0.2365  0.0361
  603SOL     OW 2409   2.957   1.362   1.981 -0.0830  0.3013 -0.2290
  603SOL    HW1 2410   2.922   1.367   2.071  2.2164  1.3121  0.2832
  603SOL    HW2 2411   3.007   1.289   2.004 -1.2557  2.9292  0.2169
  603SOL     MW 2412   2.959   1.353   1.996  0.0656  0.7814 -0.1026
  604SOL     OW 2413   2.019   1.429   0.430 -0.5638 -0.6920 -0.6458
  604SOL    HW1 2414   2.057   1.359   0.481  1.6766 -1.2531 -1.9353
  604SOL    HW2 2415   1.961   1.481   0.495 -0.0392  0.8022  1.1493
  604SOL     MW 2416   2.016   1.426   0.446 -0.1990 -0.5689 -0.5791
  605SOL     OW 2417   2.470   1.441   0.864 -0.0507 -0.4918 -1.1019
  605SOL    HW1 2418   2.459   1.483   0.784  1.0034 -1.2237 -0.4956
  605SOL    HW2 2419   2.508   1.356   0.841 -0.9793  0.6508 -1.0068
  605SOL     MW 2420   2.473   1.435   0.851 -0.0341 -0.4376 -1.0094
  606SOL     OW 2421   2.607   1.804   1.884 -0.3312 -0.3185 -0.4599
  606SOL    HW1 2422   2.526   1.785   1.928 -0.6783  1.0590 -0.2201
  606SOL    HW2 2423   2.648   1.717   1.852 -0.2046  1.2783  0.9649
  606SOL     MW 2424   2.602   1.790   1.886 -0.3603  0.0739 -0.2403
  607SOL     OW 2425   2.388   1.038   3.059  0.6227  0.2277  0.1726
  607SOL    HW1 2426   2.463   1.034   3.004  1.1106 -0.3621  0.7687
  607SOL    HW2 2427   2.407   1.007   3.145 -2.6172  0.8589 -0.8190
  607SOL     MW 2428   2.400   1.033   3.063  0.2596  0.2332  0.1204
  608SOL     OW 2429   1.863   0.241   0.530 -0.2586 -0.2102 -0.2109
  608SOL    HW1 2430   1.822   0.289   0.453  0.5190 -2.8103  0.2103
  608SOL    HW2 2431   1.810   0.155   0.532  0.1861 -0.1923 -0.7460
  608SOL     MW 2432   1.850   0.236   0.520 -0.0973 -0.5509 -0.2260
  609SOL     OW 2433   2.134   1.917   3.047 -0.3133 -0.0547  0.7350
  609SOL    HW1 2434   2.072   1.853   3.010 -0.2866  1.1960  0.9357
  609SOL    HW2 2435   2.141   1.903   3.140  3.2520  1.4660  2.0020
  609SOL     MW 2436   2.127   1.907   3.055  0.1606  0.3109  0.9287
  610SOL     OW 2437   1.783   0.920   1.235 -0.1088  0.2566  0.0183
  610SOL    HW1 2438   1.804   0.854   1.169 -0.6014 -2.2508  3.3833
  610SOL    HW2 2439   1.686   0.938   1.230  0.6689 -2.2366 -3.7873
  610SOL     MW 2440   1.773   0.913   1.226 -0.0712 -0.4032 -0.0399
  611SOL     OW 2441   2.504   1.652   0.633  0.3912 -0.4952 -0.3064
  611SOL    HW1 2442   2.568   1.598   0.584  0.0428 -2.0001  1.0084
  611SOL    HW2 2443   2.427   1.658   0.575 -0.7923  0.4779 -3.5447
  611SOL     MW 2444   2.502   1.646   0.619  0.1891 -0.5654 -0.5602
  612SOL     OW 2445   2.932   2.969   0.336  0.5949 -0.1303  0.2065
  612SOL    HW1 2446   2.924   2.982   0.432  0.4406  2.0272 -4.3445
  612SOL    HW2 2447   3.000   2.906   0.318  1.0302  0.3723  0.2234
  612SOL     MW 2448   2.940   2.962   0.346  0.6320  0.2206 -0.3917
  613SOL     OW 2449   1.524   1.117   1.000 -0.0249  0.4809  0.5467
  613SOL    HW1 2450   1.592   1.182   0.977  0.1174  2.6417  0.9465
  613SOL    HW2 2451   1.529   1.091   1.095  1.4989 -1.1071  0.5321
  613SOL     MW 2452   1.534   1.122   1.010  0.1949  0.5564  0.5975
  614SOL     OW 2453   2.041   0.478   1.440  0.1790 -0.0721 -0.2032
  614SOL    HW1 2454   2.037   0.413   1.513 -2.7313  0.9427 -2.6616
  614SOL    HW2 2455   1.952   0.507   1.431  0.9821  2.4654 -1.5415
  614SOL     MW 2456   2.029   0.473   1.448 -0.0990  0.3966 -0.7042
  615SOL     OW 2457   2.424   0.716   0.324  0.0513 -0.0737  0.8982
  615SOL    HW1 2458   2.506   0.667   0.352 -3.0208 -0.9629  0.8809
  615SOL    HW2 2459   2.414   0.708   0.229 -0.3310  1.6370 -1.6843
  615SOL     MW 2460   2.433   0.709   0.315 -0.4044  0.0347  0.5552
  616SOL     OW 2461   2.498   0.429   1.611 -0.0019  0.0287 -0.3224
  616SOL    HW1 2462   2.575   0.377   1.592  2.0162  0.8763  2.4240
  616SOL    HW2 2463   2.477   0.478   1.529 -2.9693 -0.1050  0.5588
  616SOL     MW 2464   2.505   0.429   1.597 -0.1272  0.1229  0.1562
  617SOL     OW 2465   2.875   0.586   1.850 -0.2667 -0.4268  0.7055
  617SOL    HW1 2466   2.794   0.594   1.895  0.3109  0.4145  0.1046
  617SOL    HW2 2467   2.862   0.503   1.804  1.4542 -0.6947 -2.6745
  617SOL     MW 2468   2.863   0.576   1.850  0.0365 -0.3511  0.1803
  618SOL     OW 2469   2.755   0.289   2.021  0.1861 -0.2786 -0.2858
  618SOL    HW1 2470   2.732   0.379   2.012  0.7433  0.7551  0.5054
  618SOL    HW2 2471   2.827   0.294   2.085  0.5963 -1.9742  3.0417
  618SOL     MW 2472   2.762   0.302   2.028  0.3137 -0.3659  0.2576
  619SOL     OW 2473   2.661   0.733   0.094  0.3973  0.0939 -0.5131
  619SOL    HW1 2474   2.732   0.804   0.092 -0.2624  0.8997 -0.0899
  619SOL    HW2 2475   2.670   0.695   0.181  0.4991 -0.4038  1.5647
  619SOL     MW 2476   2.671   0.738   0.105  0.3237  0.1345 -0.1831
  620SOL     OW 2477   2.233   1.070   0.920 -0.5998  0.0631 -0.0882
  620SOL    HW1 2478   2.324   1.035   0.919  0.4102 -0.5248  1.8422
  620SOL    HW2 2479   2.192   1.031   0.843  3.1566 -1.9589  1.0683
  620SOL     MW 2480   2.240   1.060   0.910  0.0291 -0.2812  0.3191
  621SOL     OW 2481   1.460   2.206   1.953  0.1572  0.0808  0.2918
  621SOL    HW1 2482   1.423   2.113   1.960  0.3205 -0.9151  0.5011
  621SOL    HW2 2483   1.550   2.198   1.998  0.4094 -1.2259 -0.3770
  621SOL     MW 2484   1.467   2.193   1.960  0.2120 -0.2230  0.2312
  622SOL     OW 2485   2.656   0.250   0.269  0.1997 -0.0944  0.0298
  622SOL    HW1 2486   2.754   0.276   0.262  2.5273  1.1624 -0.4708
  622SOL    HW2 2487   2.663   0.155   0.287  0.5054  1.2293  2.0212
  622SOL     MW 2488   2.670   0.241   0.270  0.5471  0.2461  0.2265
  623SOL     OW 2489   2.416   2.752   0.880  0.2876  0.1000 -0.0708
  623SOL    HW1 2490   2.469   2.829   0.882 -0.5949 -2.9821 -0.3232
  623SOL    HW2 2491   2.354   2.755   0.960  0.7219 -1.1853  3.1974
  623SOL     MW 2492   2.415   2.763   0.891  0.2284 -0.4762  0.3271
  624SOL     OW 2493   2.159   1.594   3.042 -0.4188 -0.0724 -0.1998
  624SOL    HW1 2494   2.107   1.513   3.035 -2.4263 -2.5588  2.4979
  624SOL    HW2 2495   2.106   1.650   2.985  2.4532 -0.9652  0.0411
  624SOL     MW 2496   2.145   1.590   3.033 -0.3048 -0.5183  0.1879
  625SOL     OW 2497   2.238   1.919   1.062 -0.4935  0.5551  0.1254
  625SOL    HW1 2498   2.298   1.868   1.115 -2.6544  1.5155 -2.2826
  625SOL    HW2 2499   2.240   1.886   0.971 -0.6894 -0.3743  1.4552
  625SOL     MW 2500   2.246   1.908   1.057 -0.8045  0.5592 -0.0168
  626SOL     OW 2501   0.121   1.788   2.434 -0.1569 -0.0569  0.4052
  626SOL    HW1 2502   0.080   1.726   2.486  0.7216 -1.0529 -0.2162
  626SOL    HW2 2503   0.076   1.871   2.457  0.4644  0.0501 -0.5838
  626SOL     MW 2504   0.110   1.791   2.444  0.0410 -0.1742  0.1927
  627SOL     OW 2505   2.499   0.831   2.582  0.4999  0.0079  0.0626
  627SOL    HW1 2506   2.409   0.866   2.576 -1.9931 -1.9600 -1.5562
  627SOL    HW2 2507   2.513   0.796   2.492 -0.0444 -1.3385  0.6504
  627SOL     MW 2508   2.489   0.831   2.569  0.0992 -0.4294 -0.0734
  628SOL     OW 2509   2.260   1.365   1.326 -0.0028  0.0292 -0.0617
  628SOL    HW1 2510   2.202   1.308   1.281  0.0596  3.2019 -0.9280
  628SOL    HW2 2511   2.321   1.389   1.257  1.2022  1.4246  2.0241
  628SOL     MW 2512   2.260   1.361   1.311  0.1644  0.6319  0.0992
  629SOL     OW 2513   1.765   0.549   1.300 -0.0937  0.5564  0.4976
  629SOL    HW1 2514   1.813   0.604   1.238  2.0062 -1.2541  2.7188
  629SOL    HW2 2515   1.692   0.520   1.243 -0.3436  1.4735 -1.4046
  629SOL     MW 2516   1.762   0.553   1.284  0.1504  0.4385  0.5397
  630SOL     OW 2517   2.411   1.865   3.015  0.1869 -0.0123  0.1269
  630SOL    HW1 2518   2.415   1.956   2.982 -0.0195 -0.0732 -1.0365
  630SOL    HW2 2519   2.316   1.851   3.008 -0.5824  1.6134  0.7502
  630SOL     MW 2520   2.399   1.875   3.010  0.0582  0.1942  0.0556
  631SOL     OW 2521   2.093   1.718   1.529  0.0325  0.4208  0.1888
  631SOL    HW1 2522   2.096   1.643   1.591 -2.7896  0.1579 -1.3235
  631SOL    HW2 2523   2.030   1.781   1.556  1.1430 -0.6078  0.4550
  631SOL     MW 2524   2.085   1.716   1.541 -0.1933  0.2504  0.0244
  632SOL     OW 2525   0.278   1.923   1.513 -0.1929  0.0441  0.3021
  632SOL    HW1 2526   0.187   1.921   1.520  4.2215  2.1318 -0.0879
  632SOL    HW2 2527   0.316   1.834   1.518 -0.1097  0.3703  1.6861
  632SOL     MW 2528   0.271   1.911   1.515  0.4005  0.3626  0.4332
  633SOL     OW 2529   2.628   0.541   0.358 -0.1360  0.2025  0.6501
  633SOL    HW1 2530   2.671   0.526   0.442 -2.8543  1.9103  0.9226
  633SOL    HW2 2531   2.636   0.456   0.318  2.2055 -2.2073  1.5962
  633SOL     MW 2532   2.634   0.528   0.363 -0.1857  0.1099  0.8109
  634SOL     OW 2533   2.657   3.066   0.636 -0.3519  0.7468  0.1576
  634SOL    HW1 2534   2.689   3.159   0.641  0.6950  0.1683 -1.9174
  634SOL    HW2 2535   2.605   3.062   0.556 -1.1258  3.6842  0.5102
  634SOL     MW 2536   2.654   3.078   0.626 -0.3159  1.0580 -0.0696
  635SOL     OW 2537   2.620   0.085   1.882  0.1432 -0.5650  0.1538
  635SOL    HW1 2538   2.681   0.035   1.818  0.8488 -0.8473  1.5367
  635SOL    HW2 2539   2.681   0.149   1.925 -1.5303 -2.5272 -1.4427
  635SOL     MW 2540   2.636   0.087   1.879  0.0155 -0.8611  0.1256
  636SOL     OW 2541   2.718   1.638   0.856  0.2826  0.4223 -0.9075
  636SOL    HW1 2542   2.632   1.625   0.822  2.7927  2.4323 -1.1990
  636SOL    HW2 2543   2.724   1.733   0.880 -3.0920  1.6655  2.0232
  636SOL     MW 2544   2.707   1.649   0.855  0.1685  0.8515 -0.5593
  637SOL     OW 2545   2.874   1.535   0.644 -0.2360 -0.4175  0.1058
  637SOL    HW1 2546   2.941   1.604   0.618 -0.8427  1.7186  1.9257
  637SOL    HW2 2547   2.831   1.570   0.726 -0.9025  0.0911  1.7864
  637SOL     MW 2548   2.877   1.548   0.651 -0.4040 -0.0686  0.5676
  638SOL     OW 2549   2.791   0.494   0.593  0.6042 -0.1765  0.4293
  638SOL    HW1 2550   2.868   0.525   0.542  0.4498 -0.7172  0.3536
  638SOL    HW2 2551   2.797   0.524   0.680 -2.8397 -0.6890 -0.1108
  638SOL     MW 2552   2.802   0.502   0.598  0.1294 -0.3154  0.3481
  639SOL     OW 2553   1.751   3.080   0.552 -0.4459 -0.2469  0.3043
  639SOL    HW1 2554   1.680   3.112   0.500  0.7178 -1.5554 -0.4125
  639SOL    HW2 2555   1.742   2.987   0.545 -1.0004  1.6986  1.3579
  639SOL     MW 2556   1.740   3.072   0.544 -0.3655 -0.1628  0.3487
  640SOL     OW 2557   0.331   1.361   0.115  0.1657  0.7526  0.0222
  640SOL    HW1 2558   0.361   1.355   0.023  0.5426 -0.3090 -1.1057
  640SOL    HW2 2559   0.340   1.265   0.143  0.5147  0.1549 -1.2754
  640SOL     MW 2560   0.336   1.348   0.106  0.2614  0.5337 -0.2979
  641SOL     OW 2561   2.103   0.396   0.377 -0.4881 -0.4036  0.1983
  641SOL    HW1 2562   2.176   0.360   0.326 -2.1028  0.6200  0.8823
  641SOL    HW2 2563   2.075   0.329   0.438 -3.0468 -2.0018 -0.2792
  641SOL     MW 2564   2.109   0.382   0.379 -1.0387 -0.4794  0.2256
  642SOL     OW 2565   0.051   0.060   0.569 -0.2232 -0.7646  0.6110
  642SOL    HW1 2566   0.005   0.130   0.517 -0.8878  1.6508 -1.8266
  642SOL    HW2 2567  -0.011   0.008   0.620  2.4266  0.2927  2.8267
  642SOL     MW 2568   0.037   0.063   0.569  0.0388 -0.3064  0.5817
  643SOL     OW 2569   2.063   0.319   1.651  0.1127  0.1121  0.3244
  643SOL    HW1 2570   1.998   0.301   1.717 -0.5424 -0.8216  0.7676
  643SOL    HW2 2571   2.057   0.250   1.586  0.7013  0.0586  2.0090
  643SOL     MW 2572   2.054   0.308   1.651  0.1039 -0.0182  0.6052
  644SOL     OW 2573   2.672   1.896   1.001 -0.2355  0.2095  0.2539
  644SOL    HW1 2574   2.647   1.814   1.049  0.6771  0.7095  0.5612
  644SOL    HW2 2575   2.606   1.927   0.941  0.5197 -1.8632 -3.4712
  644SOL     MW 2576   2.660   1.889   0.999 -0.0154  0.0020 -0.1971
  645SOL     OW 2577   2.807   0.854   0.687 -0.6085  0.4602 -0.4994
  645SOL    HW1 2578   2.901   0.833   0.715  1.4597  1.1141  2.6806
  645SOL    HW2 2579   2.753   0.779   0.694 -2.3648  2.0794 -0.0481
  645SOL     MW 2580   2.812   0.841   0.691 -0.5673  0.7601 -0.0203
  646SOL     OW 2581   0.137   2.277   0.824  0.4968 -0.2120 -0.7110
  646SOL    HW1 2582   0.160   2.186   0.854  2.3133  0.9370  2.2330
  646SOL    HW2 2583   0.095   2.275   0.736  0.0315  0.0001  1.1293
  646SOL     MW 2584   0.134   2.264   0.816  0.6751 -0.0324 -0.0798
  647SOL     OW 2585   2.722   0.507   3.029  0.1111  0.0911  0.0862
  647SOL    HW1 2586   2.665   0.434   3.051 -2.0241 -2.2261 -1.2671
  647SOL    HW2 2587   2.699   0.572   3.093  1.3473 -0.1351  1.8690
  647SOL     MW 2588   2.712   0.506   3.041 -0.0075 -0.2445  0.1429
  648SOL     OW 2589   2.256   0.678   1.113 -0.1314 -0.4538  0.2753
  648SOL    HW1 2590   2.228   0.590   1.151  0.7540  1.4719  0.8979
  648SOL    HW2 2591   2.185   0.737   1.124  0.2957 -0.9389 -0.2612
  648SOL     MW 2592   2.243   0.674   1.119  0.0417 -0.2637  0.2866
  649SOL     OW 2593   2.436   2.715   1.240 -0.4907 -0.0770  0.1490
  649SOL    HW1 2594   2.522   2.763   1.254 -0.1292  1.2001  0.9393
  649SOL    HW2 2595   2.465   2.632   1.207 -1.2926  1.0056  0.9733
  649SOL     MW 2596   2.451   2.711   1.238 -0.5488  0.2344  0.3620
  650SOL     OW 2597   2.758   0.222   0.654  0.0231  0.1356 -0.5435
  650SOL    HW1 2598   2.775   0.312   0.623 -0.1878  0.4271  0.7430
  650SOL    HW2 2599   2.847   0.191   0.668 -2.3714 -1.9238  0.1707
  650SOL     MW 2600   2.772   0.230   0.652 -0.3206 -0.0977 -0.2796
  651SOL     OW 2601   3.087   0.453   1.003 -0.9739 -0.3722  0.0543
  651SOL    HW1 2602   3.156   0.505   0.955 -0.8676  1.4360 -1.4811
  651SOL    HW2 2603   3.022   0.519   1.030  3.7963  0.6648  0.7943
  651SOL     MW 2604   3.088   0.469   1.000 -0.3305  0.0032 -0.0507
  652SOL     OW 2605   2.366   1.394   3.015 -0.0676 -0.0380  0.2459
  652SOL    HW1 2606   2.420   1.414   2.936  0.8313 -2.3678 -0.5987
  652SOL    HW2 2607   2.333   1.481   3.043  1.5799 -0.8368 -2.1191
  652SOL     MW 2608   2.368   1.409   3.008  0.2684 -0.4508 -0.1776
  653SOL     OW 2609   1.847   0.375   0.289  1.0768 -0.4781  0.0216
  653SOL    HW1 2610   1.830   0.299   0.232 -1.4795  0.4624  0.5451
  653SOL    HW2 2611   1.938   0.407   0.275 -0.6927  0.8513 -2.5271
  653SOL     MW 2612   1.857   0.369   0.280  0.5061 -0.1786 -0.2456
  654SOL     OW 2613   2.444   0.966   0.779  0.5910 -0.4680  0.0312
  654SOL    HW1 2614   2.392   0.951   0.695 -0.9591 -0.4935 -0.5087
  654SOL    HW2 2615   2.493   0.885   0.785  0.0671 -0.6146  2.0316
  654SOL     MW 2616   2.444   0.953   0.769  0.3174 -0.4907  0.2239
  655SOL     OW 2617   2.914   0.909   0.446  0.5381  0.5939  0.4470
  655SOL    HW1 2618   2.860   0.911   0.524  0.1914  1.8134 -0.4253
  655SOL    HW2 2619   2.923   0.817   0.423 -1.3856 -0.1666  0.0043
  655SOL     MW 2620   2.908   0.897   0.453  0.2385  0.6545  0.2735
  656SOL     OW 2621   1.810   2.626   1.414  0.3007  0.1467  0.2595
  656SOL    HW1 2622   1.821   2.716   1.386 -0.2620 -0.3746 -2.5348
  656SOL    HW2 2623   1.883   2.579   1.368  1.1415 -0.0679  0.6741
  656SOL     MW 2624   1.821   2.632   1.404  0.3374  0.0496 -0.0545
  657SOL     OW 2625   0.075   1.824   1.247  0.0913 -0.0787  0.1434
  657SOL    HW1 2626   0.153   1.856   1.202 -1.5180  0.5402  0.0612
  657SOL    HW2 2627   0.094   1.734   1.276 -1.5354 -1.3021  3.1286
  657SOL     MW 2628   0.088   1.816   1.245 -0.3356 -0.1585  0.5264
  658SOL     OW 2629   2.729   1.332   0.242 -0.2205  0.0019 -0.3485
  658SOL    HW1 2630   2.671   1.257   0.274 -2.2215  2.6658  1.6060
  658SOL    HW2 2631   2.723   1.398   0.317 -1.6420 -1.0449  0.6397
  658SOL     MW 2632   2.720   1.331   0.256 -0.6721  0.2152  0.0397
  659SOL     OW 2633   2.176   1.507   1.010 -0.1117 -0.2303  0.1739
  659SOL    HW1 2634   2.264   1.479   1.008 -4.1087 -2.0787  0.6271
  659SOL    HW2 2635   2.156   1.541   1.096  3.1505  0.7334 -2.3433
  659SOL     MW 2636   2.185   1.508   1.021 -0.2086 -0.3470 -0.0984
  660SOL     OW 2637   2.094   1.502   1.685  0.0713  0.4665 -0.4397
  660SOL    HW1 2638   2.078   1.508   1.778  0.0068  1.6856  1.5585
  660SOL    HW2 2639   2.020   1.453   1.647 -2.6078  1.0163  1.1563
  660SOL     MW 2640   2.082   1.496   1.692 -0.2907  0.6999  0.0346
  661SOL     OW 2641   2.418   0.984   0.238  0.1403  0.5288  0.1471
  661SOL    HW1 2642   2.474   1.034   0.291 -2.6447 -0.7413  0.3889
  661SOL    HW2 2643   2.418   0.897   0.282 -2.9560 -1.9632  2.8241
  661SOL     MW 2644   2.426   0.979   0.251 -0.6357  0.0324  0.5322
  662SOL     OW 2645   2.571   2.978   0.894 -0.2355  0.1526  0.5419
  662SOL    HW1 2646   2.499   3.046   0.917 -1.5127 -0.0537 -0.4348
  662SOL    HW2 2647   2.603   3.009   0.804  0.1992  0.3395 -1.2318
  662SOL     MW 2648   2.565   2.991   0.885 -0.3467  0.1500  0.1790
  663SOL     OW 2649   2.672   1.515   0.465 -0.0815 -0.2606  0.2961
  663SOL    HW1 2650   2.677   1.595   0.411  0.1845  0.6454 -2.5546
  663SOL    HW2 2651   2.748   1.525   0.523  0.4374  1.7904  1.5208
  663SOL     MW 2652   2.682   1.527   0.466  0.0220  0.1295  0.0816
  664SOL     OW 2653   2.557   1.484   1.578  0.1729 -0.1582 -0.5681
  664SOL    HW1 2654   2.534   1.566   1.548 -3.0943 -2.0539 -0.7243
  664SOL    HW2 2655   2.477   1.437   1.574  0.6108 -2.1666 -2.1934
  664SOL     MW 2656   2.543   1.489   1.574 -0.2004 -0.6733 -0.8032
  665SOL     OW 2657   2.826   0.793   2.094  0.4233  0.4596  0.1115
  665SOL    HW1 2658   2.830   0.852   2.016  0.2378 -0.1876  0.1169
  665SOL    HW2 2659   2.913   0.747   2.100  0.6639  0.5474  2.2214
  665SOL     MW 2660   2.838   0.795   2.084  0.4305  0.3858  0.3906
  666SOL     OW 2661   2.749   3.021   1.687  0.1822  0.1162 -0.2812
  666SOL    HW1 2662   2.771   3.007   1.597  2.0846 -1.7484  0.8467
  666SOL    HW2 2663   2.706   2.937   1.706 -1.2196 -0.1558  1.7685
  666SOL     MW 2664   2.746   3.008   1.678  0.2482 -0.1657  0.1381
  667SOL     OW 2665   1.977   2.700   1.745  0.1674 -0.1336 -0.3436
  667SOL    HW1 2666   2.006   2.666   1.831  0.6582  1.0474  0.0614
  667SOL    HW2 2667   2.053   2.755   1.712  1.6645 -1.8037  0.2321
  667SOL     MW 2668   1.991   2.702   1.752  0.4297 -0.1981 -0.2142
  668SOL     OW 2669   2.760   0.556   0.860 -0.2930  0.8376  0.2790
  668SOL    HW1 2670   2.808   0.586   0.944  3.1638  1.2748  2.5868
  668SOL    HW2 2671   2.679   0.605   0.853  1.5894 -0.1778  0.8461
  668SOL     MW 2672   2.756   0.567   0.870  0.4114  0.7613  0.6583
  669SOL     OW 2673   0.152   0.977   0.724  0.2477 -0.0288 -0.0874
  669SOL    HW1 2674   0.099   1.041   0.774  0.1213  0.7019  0.3847
  669SOL    HW2 2675   0.193   0.951   0.804  1.1837  3.3763 -0.6743
  669SOL     MW 2676   0.150   0.982   0.741  0.3545  0.5169 -0.1025
  670SOL     OW 2677   2.905   0.330   0.211  0.1363  0.4923  0.6354
  670SOL    HW1 2678   2.916   0.279   0.131  1.7394  0.1847 -0.4056
  670SOL    HW2 2679   2.920   0.422   0.188 -1.8815 -1.1460 -1.1877
  670SOL     MW 2680   2.908   0.336   0.198  0.0816  0.2356  0.2575
  671SOL     OW 2681   2.026   3.021   1.552 -0.1330 -0.1489 -0.4447
  671SOL    HW1 2682   1.965   2.962   1.505  0.5261 -0.8519  2.8490
  671SOL    HW2 2683   1.985   3.042   1.638  1.9102 -0.8829 -0.3864
  671SOL     MW 2684   2.012   3.016   1.557  0.2235 -0.3385 -0.0024
  672SOL     OW 2685   1.798   1.730   1.291  0.2987 -0.0832  0.4158
  672SOL    HW1 2686   1.829   1.791   1.362  2.6110 -1.6190  0.0511
  672SOL    HW2 2687   1.867   1.752   1.228 -1.6187 -0.4265  0.6219
  672SOL     MW 2688   1.811   1.741   1.292  0.3508 -0.3311  0.3949
  673SOL     OW 2689   2.741   1.097   0.597  0.1156  0.2516 -0.0747
  673SOL    HW1 2690   2.771   1.020   0.649  2.5640 -0.9229  2.5969
  673SOL    HW2 2691   2.811   1.169   0.618  1.8921 -0.7869  3.4613
  673SOL     MW 2692   2.755   1.097   0.607  0.6730 -0.0404  0.7443
  674SOL     OW 2693   2.496   0.038   1.244  0.5148  0.1070 -0.9219
  674SOL    HW1 2694   2.440   0.048   1.165  0.2629 -0.0297  1.0477
  674SOL    HW2 2695   2.524  -0.054   1.240 -3.7659  0.0726  1.6704
  674SOL     MW 2696   2.493   0.027   1.233 -0.0832  0.0844 -0.3200
  675SOL     OW 2697   2.984   0.923   1.050  0.1808  0.2205 -0.3367
  675SOL    HW1 2698   3.045   0.923   1.123  1.1444 -1.9760 -0.9719
  675SOL    HW2 2699   3.013   0.991   0.995 -1.9110 -2.0863 -1.3814
  675SOL     MW 2700   2.996   0.932   1.052  0.0320 -0.3736 -0.5583
  676SOL     OW 2701   2.917   1.463   1.705 -0.0057 -0.8371  0.0764
  676SOL    HW1 2702   2.863   1.392   1.668  3.8878 -0.8891  0.8423
  676SOL    HW2 2703   2.942   1.410   1.779 -1.9794 -1.6173  2.1024
  676SOL     MW 2704   2.913   1.447   1.710  0.2476 -0.9469  0.4448
  677SOL     OW 2705   2.394   0.541   2.037  0.9580  0.4798 -0.0697
  677SOL    HW1 2706   2.367   0.497   1.956  0.7063  0.2415  3.3216
  677SOL    HW2 2707   2.368   0.636   2.032  0.4268  0.9026 -2.3283
  677SOL     MW 2708   2.387   0.547   2.026  0.8547  0.5041  0.0797
  678SOL     OW 2709   2.415   1.640   0.270  0.0090 -0.4684 -0.5092
  678SOL    HW1 2710   2.334   1.652   0.327 -0.4463 -0.6435 -0.0806
  678SOL    HW2 2711   2.437   1.543   0.246  1.0429 -0.0605  1.2880
  678SOL     MW 2712   2.407   1.629   0.274  0.0854 -0.4377 -0.2155
  679SOL     OW 2713   2.240   0.435   1.231 -0.0588  0.1317  0.0868
  679SOL    HW1 2714   2.254   0.342   1.244 -3.0834 -0.9878 -1.3367
  679SOL    HW2 2715   2.178   0.446   1.302  0.7316 -0.0721 -1.7533
  679SOL     MW 2716   2.234   0.424   1.242 -0.3536 -0.0429 -0.3438
  680SOL     OW 2717   2.341   0.126   1.466  1.1543 -0.4354 -0.0072
  680SOL    HW1 2718   2.254   0.159   1.438  0.1975  0.7456 -1.4834
  680SOL    HW2 2719   2.381   0.099   1.390 -0.2813  0.2612  3.6215
  680SOL     MW 2720   2.335   0.127   1.452  0.8386 -0.1877  0.2768
  681SOL     OW 2721   0.224   0.551   1.502 -0.3105  1.0656 -0.0088
  681SOL    HW1 2722   0.184   0.476   1.549 -1.1489 -2.0151  1.6096
  681SOL    HW2 2723   0.202   0.536   1.408  0.3411 -1.0725  1.1789
  681SOL     MW 2724   0.216   0.539   1.496 -0.3351  0.3770  0.3614
  682SOL     OW 2725   0.121   2.900   1.492 -0.3048  0.7256  0.2061
  682SOL    HW1 2726   0.185   2.971   1.517 -0.8777  1.4577 -0.2110
  682SOL    HW2 2727   0.044   2.930   1.539  1.0993 -0.6363 -1.2461
  682SOL     MW 2728   0.119   2.913   1.502 -0.1952  0.6425 -0.0406
  683SOL     OW 2729   2.057   0.835   2.977 -0.6297 -0.4770  0.2370
  683SOL    HW1 2730   2.003   0.765   3.012  1.7464  0.4511 -2.2838
  683SOL    HW2 2731   2.032   0.918   3.019  0.4103  0.0437 -0.2804
  683SOL     MW 2732   2.046   0.837   2.988 -0.1790 -0.2859 -0.1638
  684SOL     OW 2733   2.137   1.721   0.670 -0.3310  0.4823 -0.3291
  684SOL    HW1 2734   2.151   1.706   0.577  1.5370 -0.1646  3.0721
  684SOL    HW2 2735   2.115   1.640   0.717 -2.3569  1.3523 -1.3670
  684SOL     MW 2736   2.136   1.709   0.664 -0.3518  0.5117 -0.0173
  685SOL     OW 2737   2.710   1.670   1.172 -0.2156  0.4690 -0.4027
  685SOL    HW1 2738   2.756   1.678   1.256  1.4763 -1.9975  1.8341
  685SOL    HW2 2739   2.649   1.597   1.174 -3.3442  0.4614 -0.0987
  685SOL     MW 2740   2.708   1.662   1.183 -0.4052  0.1426 -0.0675
  686SOL     OW 2741   2.905   0.657   1.597  0.1186 -0.8646  0.4480
  686SOL    HW1 2742   2.895   0.629   1.689  0.7868  2.4803 -0.6765
  686SOL    HW2 2743   2.997   0.670   1.597  2.0227  1.5675  2.3403
  686SOL     MW 2744   2.916   0.655   1.609  0.4580 -0.1024  0.5493
  687SOL     OW 2745   2.156   0.164   1.156  0.3103 -0.4599 -0.5069
  687SOL    HW1 2746   2.218   0.146   1.083 -0.4419  1.2141 -0.9515
  687SOL    HW2 2747   2.101   0.246   1.133 -0.6575  2.4983  0.6306
  687SOL     MW 2748   2.157   0.172   1.143  0.0834  0.1513 -0.4155
  688SOL     OW 2749   2.399   0.584   1.390  0.4621 -0.3111  0.1692
  688SOL    HW1 2750   2.355   0.544   1.316  1.3528 -0.5368 -0.1035
  688SOL    HW2 2751   2.321   0.608   1.447  0.1716 -1.3441 -3.2553
  688SOL     MW 2752   2.383   0.582   1.388  0.5413 -0.4772 -0.3186
  689SOL     OW 2753   2.477   0.791   2.939  0.2605  0.1840 -0.0159
  689SOL    HW1 2754   2.422   0.865   2.942  1.8459 -0.1056  1.6257
  689SOL    HW2 2755   2.513   0.790   3.028  0.8641 -2.6237  0.3321
  689SOL     MW 2756   2.475   0.801   2.951  0.5493 -0.2246  0.2466
  690SOL     OW 2757   2.025   0.899   1.886  0.3804 -0.5346 -0.0325
  690SOL    HW1 2758   2.008   0.808   1.903  0.9815  0.6158  0.2857
  690SOL    HW2 2759   2.052   0.907   1.793 -1.7686 -0.3578  1.1156
  690SOL     MW 2760   2.026   0.888   1.876  0.1762 -0.3595  0.1610
  691SOL     OW 2761   2.402   0.249   0.852 -1.2406  0.0311 -0.0023
  691SOL    HW1 2762   2.482   0.303   0.894  0.8031  1.5060 -1.2342
  691SOL    HW2 2763   2.328   0.310   0.857 -0.0843  0.1457 -0.4129
  691SOL     MW 2764   2.403   0.264   0.858 -0.8184  0.2408 -0.2190
  692SOL     OW 2765   2.890   1.589   1.418  0.2598  0.0767  0.2425
  692SOL    HW1 2766   2.840   1.579   1.500  0.1230 -0.8239  2.3091
  692SOL    HW2 2767   2.920   1.680   1.418 -1.9225 -0.2192 -0.2648
  692SOL     MW 2768   2.888   1.600   1.429 -0.0462 -0.0812  0.4482
  693SOL     OW 2769   2.312   0.412   0.085  0.1571 -0.4844 -0.3245
  693SOL    HW1 2770   2.238   0.349   0.083  0.0522  1.6444  1.1606
  693SOL    HW2 2771   2.285   0.496   0.046  0.5899  0.6482 -1.8945
  693SOL     MW 2772   2.299   0.415   0.080  0.2004 -0.0541 -0.3357
  694SOL     OW 2773   1.885   1.128   1.076 -0.1067  0.4938  0.0310
  694SOL    HW1 2774   1.968   1.146   1.131 -0.2902  4.4565  3.0197
  694SOL    HW2 2775   1.831   1.074   1.142 -2.4598  0.8369  3.4552
  694SOL     MW 2776   1.889   1.123   1.092 -0.4413  1.0619  0.8771
  695SOL     OW 2777   2.965   1.364   1.274 -0.2450 -0.1779 -0.2080
  695SOL    HW1 2778   2.975   1.402   1.188  1.9159  1.4789 -2.3900
  695SOL    HW2 2779   2.932   1.445   1.323 -1.1568 -0.1891  0.7827
  695SOL     MW 2780   2.962   1.380   1.269 -0.0802  0.0392 -0.3652
  696SOL     OW 2781   2.108   1.435   0.772  0.0809  0.2904  0.4524
  696SOL    HW1 2782   2.132   1.467   0.858  1.9141 -1.4953  0.1448
  696SOL    HW2 2783   2.041   1.371   0.800  0.4970  2.5975  1.6005
  696SOL     MW 2784   2.102   1.431   0.787  0.3776  0.3592  0.5633
  697SOL     OW 2785   2.893   0.998   2.260  0.5527  0.5001  0.3491
  697SOL    HW1 2786   2.819   1.041   2.288  1.1328  1.6760 -0.2270
  697SOL    HW2 2787   2.866   0.908   2.223  0.8830 -0.2224  0.2691
  697SOL     MW 2788   2.879   0.992   2.259  0.6728  0.5599  0.2625
  698SOL     OW 2789   2.576   0.274   0.013 -0.2986  0.1165 -0.4394
  698SOL    HW1 2790   2.491   0.321   0.023 -0.9072 -0.6199 -2.9052
  698SOL    HW2 2791   2.587   0.250   0.109 -0.4630  0.9018 -0.1662
  698SOL     MW 2792   2.566   0.277   0.027 -0.4006  0.1230 -0.7287
  699SOL     OW 2793   1.932   1.629   2.080 -0.1867  0.3599 -0.3170
  699SOL    HW1 2794   1.886   1.541   2.066  2.3977 -4.1209  0.0232
  699SOL    HW2 2795   2.018   1.613   2.032  0.6667 -2.0518 -1.0276
  699SOL     MW 2796   1.938   1.615   2.072  0.2669 -0.5495 -0.3659
  700SOL     OW 2797   2.707   0.860   1.570 -0.1495 -1.0015 -0.1255
  700SOL    HW1 2798   2.730   0.936   1.507  1.1228  0.3251  0.4620
  700SOL    HW2 2799   2.779   0.795   1.574 -0.6355 -1.8267 -0.2184
  700SOL     MW 2800   2.719   0.861   1.562 -0.0457 -0.9354 -0.0602
  701SOL     OW 2801   1.675   1.171   2.512 -0.0818  0.2289  0.4496
  701SOL    HW1 2802   1.750   1.121   2.549 -0.6918 -0.7195  0.5804
  701SOL    HW2 2803   1.644   1.239   2.569  0.1104 -1.7446 -0.5685
  701SOL     MW 2804   1.681   1.173   2.525 -0.1369 -0.1566  0.3325
  702SOL     OW 2805   2.167   0.438   0.828 -0.0148  0.0203 -0.2529
  702SOL    HW1 2806   2.142   0.364   0.773  0.4790 -0.8036  1.4482
  702SOL    HW2 2807   2.215   0.498   0.772  0.8506 -0.5613  1.5477
  702SOL     MW 2808   2.170   0.436   0.813  0.1646 -0.1652  0.2091
  703SOL     OW 2809   2.728   1.232   0.971  0.2772 -0.2024 -0.3652
  703SOL    HW1 2810   2.672   1.233   0.894 -1.6155 -0.2432 -0.1560
  703SOL    HW2 2811   2.707   1.150   1.012  0.2416  0.2778  1.2972
  703SOL     MW 2812   2.718   1.221   0.967  0.0227 -0.1444 -0.1183
  704SOL     OW 2813   3.050   1.266   0.122  0.1999 -0.5060 -0.6482
  704SOL    HW1 2814   2.959   1.251   0.081  1.0698 -2.4241 -2.1698
  704SOL    HW2 2815   3.038   1.265   0.220 -0.5857 -0.8721  0.4877
  704SOL     MW 2816   3.036   1.264   0.129  0.2110 -0.8074 -0.6991
  705SOL     OW 2817   2.118   1.585   1.280 -0.1273 -0.7363 -0.4337
  705SOL    HW1 2818   2.113   1.643   1.363  2.2914  0.8763 -3.3164
  705SOL    HW2 2819   2.157   1.508   1.315 -0.8849 -1.1142  0.5282
  705SOL     MW 2820   2.122   1.583   1.296  0.0918 -0.5734 -0.6871
  706SOL     OW 2821   2.958   1.256   0.659  0.2263  0.1476  1.0197
  706SOL    HW1 2822   3.011   1.238   0.578  0.8073  1.2080 -0.8718
  706SOL    HW2 2823   2.954   1.354   0.662 -1.2772 -2.5327 -0.7530
  706SOL     MW 2824   2.964   1.266   0.649  0.1046 -0.0661  0.5363
  707SOL     OW 2825   2.351   0.001   0.981  0.5270  0.1163 -0.3062
  707SOL    HW1 2826   2.364   0.077   0.921  0.1796  0.2974  1.8790
  707SOL    HW2 2827   2.264  -0.030   0.946  1.1707  3.9433 -1.7275
  707SOL     MW 2828   2.341   0.007   0.969  0.5661  0.6452 -0.2054
  708SOL     OW 2829   2.472   1.391   0.164  0.4891 -0.1274  0.0471
  708SOL    HW1 2830   2.567   1.385   0.180 -0.5293  1.2249  1.3085
  708SOL    HW2 2831   2.456   1.418   0.073 -1.7411  1.7873  0.2237
  708SOL     MW 2832   2.482   1.394   0.154  0.0605  0.3037  0.2368
  709SOL     OW 2833   1.706   1.624   0.221  0.0510 -0.2226  0.1834
  709SOL    HW1 2834   1.728   1.637   0.130 -1.1982  1.2537  0.8668
  709SOL    HW2 2835   1.612   1.628   0.220 -2.8404 -2.8143 -1.4178
  709SOL     MW 2836   1.696   1.627   0.209 -0.4953 -0.3697  0.0623
  710SOL     OW 2837   2.144   1.178   1.166 -0.3181  0.1506 -0.6587
  710SOL    HW1 2838   2.170   1.160   1.075  1.1697  0.7142  0.9320
  710SOL    HW2 2839   2.158   1.104   1.225 -0.2140 -0.1293 -0.0320
  710SOL     MW 2840   2.149   1.166   1.162 -0.1080  0.1881 -0.3661
  711SOL     OW 2841   2.375   0.146   1.796  0.0388  0.8776 -0.2420
  711SOL    HW1 2842   2.462   0.131   1.830  0.2637 -0.9404 -1.1531
  711SOL    HW2 2843   2.378   0.110   1.710  0.7132  0.1511  2.1269
  711SOL     MW 2844   2.387   0.139   1.789  0.1575  0.5419 -0.0496
  712SOL     OW 2845   1.902   0.630   3.069  0.4284 -0.0346  0.6985
  712SOL    HW1 2846   1.827   0.651   3.008  3.1194  0.7111 -3.4307
  712SOL    HW2 2847   1.874   0.639   3.158 -3.0837  1.1233  1.3211
  712SOL     MW 2848   1.889   0.634   3.073  0.3201  0.2166  0.2359
  713SOL     OW 2849   2.551   0.709   1.082  0.2068 -0.2184 -0.1304
  713SOL    HW1 2850   2.550   0.624   1.117 -3.0692  1.7823 -0.7234
  713SOL    HW2 2851   2.469   0.740   1.116 -2.6091  0.7208 -2.1853
  713SOL     MW 2852   2.540   0.702   1.091 -0.5969  0.1695 -0.4798
  714SOL     OW 2853   2.211   0.214   2.010  0.2757 -0.3107  0.2263
  714SOL    HW1 2854   2.249   0.173   2.085  0.0109  1.5126 -0.5107
  714SOL    HW2 2855   2.266   0.194   1.929  1.7661 -1.0147 -0.8545
  714SOL     MW 2856   2.223   0.206   2.009  0.4374 -0.1630 -0.0135
  715SOL     OW 2857   1.816   2.047   1.751 -0.0728 -0.0745  0.0585
  715SOL    HW1 2858   1.898   2.084   1.724  1.6739 -0.2676  1.3360
  715SOL    HW2 2859   1.839   1.963   1.798 -0.6005  1.7973  2.2224
  715SOL     MW 2860   1.830   2.041   1.754  0.0880  0.1470  0.5126
  716SOL     OW 2861   2.345   0.553   0.665  0.8161  0.2423  0.4152
  716SOL    HW1 2862   2.389   0.480   0.621  0.7014  1.3648  1.8115
  716SOL    HW2 2863   2.318   0.615   0.587 -0.5796 -2.5026 -2.9966
  716SOL     MW 2864   2.347   0.551   0.649  0.6168  0.0283  0.1492
  717SOL     OW 2865   2.829   1.619   2.884 -0.1271 -0.7382 -0.7744
  717SOL    HW1 2866   2.923   1.611   2.915  0.2025 -0.8989  0.7480
  717SOL    HW2 2867   2.775   1.694   2.930 -0.9495  1.4146 -0.1721
  717SOL     MW 2868   2.834   1.628   2.894 -0.1921 -0.4754 -0.4941
  718SOL     OW 2869   2.667   1.373   1.317 -0.4719 -0.2889 -0.4606
  718SOL    HW1 2870   2.651   1.388   1.410 -1.6007 -1.1039 -1.0705
  718SOL    HW2 2871   2.763   1.379   1.301  0.1275  2.3451  0.3583
  718SOL     MW 2872   2.677   1.376   1.327 -0.5417 -0.0489 -0.4330
  719SOL     OW 2873   2.201   1.267   0.583  0.5702  0.0516 -0.0654
  719SOL    HW1 2874   2.287   1.295   0.546  2.5551  1.6904  0.3554
  719SOL    HW2 2875   2.175   1.331   0.664  0.2439  0.9287  3.0119
  719SOL     MW 2876   2.209   1.279   0.589  0.7890  0.3836  0.3961
  720SOL     OW 2877   2.782   1.183   0.027 -0.2199  0.8406  0.2448
  720SOL    HW1 2878   2.818   1.105   0.075  3.4073  1.1794 -1.0050
  720SOL    HW2 2879   2.743   1.240   0.092  1.2878 -0.1063 -0.4609
  720SOL     MW 2880   2.782   1.180   0.042  0.4576  0.7604 -0.0132
  721SOL     OW 2881   2.481   0.848   1.380 -0.2511 -0.1938 -0.8388
  721SOL    HW1 2882   2.449   0.762   1.365  0.3414  2.4352  1.5561
  721SOL    HW2 2883   2.539   0.831   1.454  0.9991 -0.4811  2.7444
  721SOL     MW 2884   2.484   0.835   1.388 -0.0080  0.1152 -0.0501
  722SOL     OW 2885   2.576   1.145   0.361 -0.5985  0.7860 -0.3036
  722SOL    HW1 2886   2.526   1.207   0.406 -0.6005 -0.5999  1.7349
  722SOL    HW2 2887   2.636   1.117   0.437 -0.8617  2.6405 -1.0928
  722SOL     MW 2888   2.577   1.150   0.377 -0.6335  0.8478 -0.1388
  723SOL     OW 2889   2.315   1.337   1.584  0.0383 -0.7909  0.5974
  723SOL    HW1 2890   2.307   1.347   1.485 -1.1342  2.6860  0.0627
  723SOL    HW2 2891   2.235   1.379   1.611 -0.2708 -0.0945 -2.9204
  723SOL     MW 2892   2.303   1.344   1.575 -0.1572 -0.2402  0.0627
  724SOL     OW 2893   2.485   0.310   0.598  0.1628 -0.2128  0.1099
  724SOL    HW1 2894   2.463   0.277   0.686 -0.4451  0.1539  1.5119
  724SOL    HW2 2895   2.580   0.304   0.592 -0.4183  2.9875 -0.1031
  724SOL     MW 2896   2.495   0.305   0.609  0.0059  0.2578  0.2668
  725SOL     OW 2897   2.595   0.415   1.223  0.4010 -0.2353  0.1432
  725SOL    HW1 2898   2.648   0.483   1.264  1.5824  1.1154 -0.1003
  725SOL    HW2 2899   2.633   0.335   1.255 -0.7725 -0.5949  2.2898
  725SOL     MW 2900   2.607   0.413   1.233  0.4021 -0.1046  0.3943
  726SOL     OW 2901   2.528   2.527   0.509 -0.1470 -0.0629 -0.5263
  726SOL    HW1 2902   2.529   2.623   0.486 -2.1247  0.4988  0.1276
  726SOL    HW2 2903   2.507   2.519   0.601  1.2271 -1.0687 -0.5304
  726SOL     MW 2904   2.525   2.539   0.518 -0.2266 -0.1215 -0.4405
  727SOL     OW 2905   2.846   0.337   1.758 -0.5000 -0.0052  0.1221
  727SOL    HW1 2906   2.796   0.309   1.674  1.3122 -1.3212 -1.8018
  727SOL    HW2 2907   2.809   0.304   1.838  0.9500 -1.6077 -1.4363
  727SOL     MW 2908   2.834   0.329   1.758 -0.0696 -0.3903 -0.3374
  728SOL     OW 2909   2.847   1.175   2.869 -0.3919  0.3725 -0.4608
  728SOL    HW1 2910   2.827   1.243   2.806 -0.6180  0.5482  3.6280
  728SOL    HW2 2911   2.815   1.205   2.959  0.0959  0.0715  1.4500
  728SOL     MW 2912   2.840   1.188   2.873 -0.3574  0.3559  0.3308
  729SOL     OW 2913   2.476   1.469   1.133  0.9668  0.1869  0.2655
  729SOL    HW1 2914   2.525   1.409   1.188 -1.4681 -2.1765 -0.6689
  729SOL    HW2 2915   2.501   1.445   1.040 -1.0877 -0.8688 -0.9051
  729SOL     MW 2916   2.486   1.458   1.128  0.3745 -0.2642 -0.0123
  730SOL     OW 2917   2.218   1.185   0.282 -0.5081 -0.1664 -0.4004
  730SOL    HW1 2918   2.291   1.128   0.248 -0.8134 -0.6165 -2.2275
  730SOL    HW2 2919   2.256   1.269   0.278  1.0642 -2.7778  0.3856
  730SOL     MW 2920   2.233   1.189   0.277 -0.3409 -0.5704 -0.5378
  731SOL     OW 2921   2.777   2.083   2.863 -0.3943  0.4008 -0.0370
  731SOL    HW1 2922   2.707   2.042   2.807 -1.0627  0.2266 -1.6108
  731SOL    HW2 2923   2.856   2.030   2.864  1.4449  2.8379  0.5082
  731SOL     MW 2924   2.779   2.070   2.856 -0.2399  0.6994 -0.1727
  732SOL     OW 2925   2.210   0.981   1.327 -0.2408 -0.1206  0.6083
  732SOL    HW1 2926   2.209   0.931   1.408  1.9053  0.5566 -1.0694
  732SOL    HW2 2927   2.298   0.954   1.303  2.2904  1.2001  0.8508
  732SOL     MW 2928   2.222   0.971   1.334  0.3763  0.1430  0.4190
  733SOL     OW 2929   2.391   2.814   3.024  0.4320 -0.2312  0.0335
  733SOL    HW1 2930   2.304   2.860   3.026 -1.3669 -1.2473 -0.0807
  733SOL    HW2 2931   2.375   2.720   2.999  0.5201 -1.4808  1.2550
  733SOL     MW 2932   2.377   2.807   3.021  0.2063 -0.5301  0.1796
  734SOL     OW 2933   1.543   0.261   2.523  0.6138 -0.0535 -0.1647
  734SOL    HW1 2934   1.484   0.220   2.588 -0.5171 -0.4628 -0.2853
  734SOL    HW2 2935   1.545   0.198   2.453 -0.0229 -0.0963  0.0068
  734SOL     MW 2936   1.535   0.247   2.522  0.3806 -0.1132 -0.1580
  735SOL     OW 2937   2.975   0.946   2.659  0.7725  0.2979  0.3059
  735SOL    HW1 2938   2.954   0.848   2.643 -0.0737  0.5856 -0.7278
  735SOL    HW2 2939   3.018   0.956   2.746  2.1119 -0.4394 -0.4492
  735SOL     MW 2940   2.978   0.934   2.668  0.8376  0.2386  0.0699
  736SOL     OW 2941   0.099   0.605   2.592  0.6053 -0.5170  0.4628
  736SOL    HW1 2942   0.126   0.670   2.522  0.2612 -0.2129 -0.8492
  736SOL    HW2 2943   0.089   0.531   2.530 -1.4210 -0.8228 -1.0381
  736SOL     MW 2944   0.101   0.604   2.575  0.2926 -0.5172  0.0917
  737SOL     OW 2945   2.928   0.681   2.634  0.5567  0.5811 -0.3605
  737SOL    HW1 2946   2.879   0.633   2.568 -1.9756  0.4459  0.0577
  737SOL    HW2 2947   3.020   0.649   2.625 -1.0112  4.0507 -1.9514
  737SOL     MW 2948   2.934   0.671   2.624  0.0157  1.0210 -0.5153
  738SOL     OW 2949   0.187   0.570   1.892 -0.2511 -0.7464 -0.5363
  738SOL    HW1 2950   0.281   0.604   1.882  0.0412  0.6517 -1.9644
  738SOL    HW2 2951   0.178   0.494   1.835  0.5913 -0.4069 -0.3342
  738SOL     MW 2952   0.198   0.565   1.883 -0.1014 -0.5171 -0.6980
  739SOL     OW 2953   2.462   1.008   2.085 -0.2180  0.0618  0.6482
  739SOL    HW1 2954   2.457   0.916   2.057 -3.4770 -2.2793 -0.8013
  739SOL    HW2 2955   2.392   1.049   2.038 -0.5319 -0.6564  2.4213
  739SOL     MW 2956   2.452   1.001   2.075 -0.6894 -0.3418  0.6909
  740SOL     OW 2957   0.123   1.823   2.929 -0.2158  0.5496  0.4667
  740SOL    HW1 2958   0.084   1.735   2.952  0.2368 -1.4367  0.1202
  740SOL    HW2 2959   0.211   1.825   2.970 -1.1424 -1.1741 -1.3422
  740SOL     MW 2960   0.129   1.811   2.937 -0.2783  0.0601  0.1823
  741SOL     OW 2961   2.234   1.208   2.707  0.3863  0.3819 -0.1879
  741SOL    HW1 2962   2.181   1.253   2.639 -1.4872 -0.9985 -1.0155
  741SOL    HW2 2963   2.181   1.220   2.787  3.6623  2.2594 -0.2909
  741SOL     MW 2964   2.220   1.216   2.709  0.5713  0.4475 -0.3106
  742SOL     OW 2965   1.708   1.252   2.239  0.3202  0.0217 -0.2946
  742SOL    HW1 2966   1.619   1.217   2.222 -1.3902  1.4531 -1.8259
  742SOL    HW2 2967   1.721   1.255   2.332 -1.7760 -0.3105 -0.7132
  742SOL     MW 2968   1.698   1.248   2.249 -0.1821  0.1667 -0.5519
  743SOL     OW 2969   2.505   1.250   2.698  0.2381 -0.2970 -0.5127
  743SOL    HW1 2970   2.409   1.237   2.685 -1.3151 -0.1565 -1.9554
  743SOL    HW2 2971   2.555   1.190   2.757 -0.5011  0.1890  0.2775
  743SOL     MW 2972   2.499   1.240   2.704 -0.0644 -0.2143 -0.5988
  744SOL     OW 2973   2.797   0.949   1.858 -0.2807 -0.1773  0.3741
  744SOL    HW1 2974   2.722   1.013   1.876  0.0023  3.5178 -0.0200
  744SOL    HW2 2975   2.790   0.915   1.769  2.4734  2.2544 -0.4787
  744SOL     MW 2976   2.786   0.953   1.849  0.1200  0.6311  0.2096
  745SOL     OW 2977   1.714   0.460   2.480 -0.5424  0.3311 -0.1280
  745SOL    HW1 2978   1.680   0.485   2.392 -2.7851 -0.8097  0.9303
  745SOL    HW2 2979   1.634   0.411   2.511  0.1504  0.4399 -0.5494
  745SOL     MW 2980   1.699   0.457   2.473 -0.7469  0.1949 -0.0440
  746SOL     OW 2981   1.577   1.447   1.667 -0.1303 -0.3841 -0.3104
  746SOL    HW1 2982   1.666   1.428   1.652 -2.3956  1.4616 -1.8222
  746SOL    HW2 2983   1.559   1.427   1.763  0.6758 -0.0349  0.7351
  746SOL     MW 2984   1.586   1.442   1.678 -0.3228 -0.0945 -0.3720
  747SOL     OW 2985   2.587   1.122   1.814 -0.0070  0.2594  0.1800
  747SOL    HW1 2986   2.512   1.066   1.797  0.4460  0.2834  2.8397
  747SOL    HW2 2987   2.553   1.196   1.866 -0.5377  0.3355  1.7362
  747SOL     MW 2988   2.573   1.124   1.818 -0.0173  0.2726  0.7362
  748SOL     OW 2989   0.088   0.012   1.918  0.0012 -0.0984 -0.2132
  748SOL    HW1 2990   0.142   0.080   1.875 -0.6175  5.0962 -0.6992
  748SOL    HW2 2991   0.061   0.066   1.997 -1.7855  0.8714  1.6292
  748SOL     MW 2992   0.091   0.028   1.922 -0.3162  0.7149 -0.0342
  749SOL     OW 2993   2.483   0.598   2.733 -0.2390  0.2108  0.0836
  749SOL    HW1 2994   2.477   0.667   2.664  0.5151  4.4475  0.7915
  749SOL    HW2 2995   2.471   0.639   2.816 -0.3576  0.3465 -1.6357
  749SOL     MW 2996   2.481   0.613   2.735 -0.1551  0.7877 -0.0498
  750SOL     OW 2997   2.049   3.082   1.978  0.2676  0.4924  0.3120
  750SOL    HW1 2998   2.083   3.166   2.000 -1.6217 -0.5960  2.7107
  750SOL    HW2 2999   2.118   3.020   1.964 -1.1011  1.0334 -0.9273
  750SOL     MW 3000   2.063   3.085   1.979 -0.1623  0.4202  0.4649
  751SOL     OW 3001   0.106   0.414   2.401  0.4110 -0.1511  0.6920
  751SOL    HW1 3002   0.089   0.333   2.444  2.0291  0.4353 -0.1586
  751SOL    HW2 3003   0.192   0.397   2.364 -2.1621 -0.0163  0.9507
  751SOL     MW 3004   0.115   0.401   2.402  0.2850 -0.0559  0.6139
  752SOL     OW 3005   2.122   0.742   2.731 -0.5460 -0.2558  0.4993
  752SOL    HW1 3006   2.145   0.812   2.666 -0.7347  1.0239 -0.2864
  752SOL    HW2 3007   2.101   0.779   2.817 -1.6231  1.7961 -0.8152
  752SOL     MW 3008   2.122   0.756   2.734 -0.7130  0.1838  0.2222
  753SOL     OW 3009   2.895   0.233   2.437  0.0268  0.1134 -0.1617
  753SOL    HW1 3010   2.838   0.192   2.370  0.6739  0.5005 -1.1835
  753SOL    HW2 3011   2.862   0.319   2.429 -1.1610 -3.1992  0.3314
  753SOL     MW 3012   2.883   0.239   2.427 -0.0446 -0.2726 -0.2314
  754SOL     OW 3013   2.237   2.977   2.590  0.0581  0.0990  0.0882
  754SOL    HW1 3014   2.257   2.969   2.497  1.7915  2.1095 -0.3240
  754SOL    HW2 3015   2.292   2.919   2.647  0.1298  3.7317  0.4080
  754SOL     MW 3016   2.247   2.968   2.585  0.2963  0.8436  0.0760
  755SOL     OW 3017   2.692   1.523   2.460 -0.4874 -0.0614 -0.0584
  755SOL    HW1 3018   2.715   1.429   2.484 -1.3128  1.5377  0.7567
  755SOL    HW2 3019   2.743   1.564   2.534  0.2508  0.1170 -1.2187
  755SOL     MW 3020   2.702   1.516   2.473 -0.4989  0.1731 -0.1039
  756SOL     OW 3021   2.177   1.183   2.998 -0.4529  0.6056  0.4549
  756SOL    HW1 3022   2.245   1.256   3.007 -1.0370  2.4396  0.1797
  756SOL    HW2 3023   2.231   1.110   3.021 -1.8749  0.7384 -1.0486
  756SOL     MW 3024   2.193   1.183   3.002 -0.7176  0.8651  0.2202
  757SOL     OW 3025   2.097   0.911   1.624 -0.1311 -0.1304 -0.3498
  757SOL    HW1 3026   2.136   0.822   1.620 -0.2499 -1.4051 -0.7891
  757SOL    HW2 3027   2.010   0.894   1.578 -0.4300 -1.0588  1.7429
  757SOL     MW 3028   2.090   0.897   1.618 -0.1862 -0.4211 -0.1317
  758SOL     OW 3029   2.241   1.808   2.606 -0.0690  0.6572 -0.0888
  758SOL    HW1 3030   2.234   1.810   2.516  0.1626 -0.7378 -0.0563
  758SOL    HW2 3031   2.335   1.777   2.615  3.2843  2.1719  0.0718
  758SOL     MW 3032   2.252   1.804   2.595  0.4040  0.6730 -0.0633
  759SOL     OW 3033   1.556   1.360   2.672  0.4760 -0.3187  0.4436
  759SOL    HW1 3034   1.540   1.445   2.633 -0.0458 -0.0185  0.5941
  759SOL    HW2 3035   1.588   1.384   2.761 -1.4394 -1.6501  1.7717
  759SOL     MW 3036   1.558   1.374   2.678  0.1545 -0.4547  0.6387
  760SOL     OW 3037   2.579   1.984   2.707 -0.2867 -0.2962  0.1128
  760SOL    HW1 3038   2.554   1.891   2.692  2.9897 -0.8747  0.9000
  760SOL    HW2 3039   2.569   2.038   2.634  0.9738  1.8910  0.9013
  760SOL     MW 3040   2.574   1.979   2.695  0.3119 -0.0840  0.3207
  761SOL     OW 3041   2.184   0.330   2.434 -0.9569 -0.1989  0.2403
  761SOL    HW1 3042   2.108   0.273   2.442  1.3222  0.8847  1.5801
  761SOL    HW2 3043   2.202   0.343   2.527  0.3606  0.3694 -1.6183
  761SOL     MW 3044   2.176   0.324   2.447 -0.4824  0.0190  0.1719
  762SOL     OW 3045   0.014   0.192   2.111 -0.4562 -0.0518 -0.3831
  762SOL    HW1 3046  -0.024   0.155   2.188 -0.5433 -0.1456  2.9317
  762SOL    HW2 3047  -0.022   0.277   2.106 -2.0361 -2.9723 -1.0578
  762SOL     MW 3048   0.004   0.199   2.120 -0.6761 -0.4495 -0.0347
  763SOL     OW 3049   2.345   1.004   2.336  0.0118 -0.2695 -0.7315
  763SOL    HW1 3050   2.415   0.993   2.265  1.6229 -2.4189  1.8639
  763SOL    HW2 3051   2.394   1.081   2.381  0.3864 -0.0571 -0.0682
  763SOL     MW 3052   2.360   1.012   2.333  0.2738 -0.5250 -0.3016
  764SOL     OW 3053   0.494   0.225   2.792  0.3221  0.1660 -0.4951
  764SOL    HW1 3054   0.406   0.186   2.791 -1.9092 -2.8597  0.7466
  764SOL    HW2 3055   0.476   0.317   2.795  2.6983 -1.5457  2.6719
  764SOL     MW 3056   0.480   0.232   2.792  0.3412 -0.4590  0.0866
  765SOL     OW 3057   2.745   3.089   2.352 -0.3164 -0.1253  0.0937
  765SOL    HW1 3058   2.680   3.079   2.275  0.0861 -3.3856  1.0936
  765SOL    HW2 3059   2.802   3.008   2.351  0.4572  0.1290 -1.1791
  765SOL     MW 3060   2.744   3.077   2.342 -0.1612 -0.5219  0.0577
  766SOL     OW 3061   1.865   2.967   2.157  0.0524 -0.0985  0.0940
  766SOL    HW1 3062   1.900   3.018   2.090  0.1185 -0.3277  0.2050
  766SOL    HW2 3063   1.810   2.897   2.117 -0.7446  0.1424  0.8875
  766SOL     MW 3064   1.863   2.965   2.143 -0.0440 -0.0970  0.2133
  767SOL     OW 3065   2.660   0.562   2.020 -0.0357 -0.0352  0.3201
  767SOL    HW1 3066   2.696   0.641   2.063  0.7177  0.9002 -1.0493
  767SOL    HW2 3067   2.563   0.550   2.022  0.3601 -1.8163  2.0069
  767SOL     MW 3068   2.652   0.571   2.026  0.1159 -0.1468  0.3619
  768SOL     OW 3069   3.083   1.600   2.977  0.2705  0.6102 -0.1564
  768SOL    HW1 3070   3.118   1.587   3.073  2.2190 -0.7114  1.1749
  768SOL    HW2 3071   3.120   1.534   2.929 -0.6298  3.0294  2.9300
  768SOL     MW 3072   3.093   1.590   2.983  0.4088  0.7550  0.4265
  769SOL     OW 3073   2.431   0.700   2.315  0.2408  0.5114 -0.2010
  769SOL    HW1 3074   2.338   0.678   2.303  1.3452 -2.9892  2.0310
  769SOL    HW2 3075   2.486   0.626   2.289 -1.3802  1.1108  0.3930
  769SOL     MW 3076   2.426   0.688   2.310  0.1727  0.1286  0.1719
  770SOL     OW 3077   0.054   1.581   2.610 -0.1396 -0.1840  0.2734
  770SOL    HW1 3078  -0.045   1.585   2.628  1.4716 -0.8027  0.7870
  770SOL    HW2 3079   0.086   1.513   2.664 -1.4723 -1.6010 -2.8691
  770SOL     MW 3080   0.045   1.572   2.620 -0.1029 -0.4526 -0.0734
  771SOL     OW 3081   3.072   0.658   2.013  0.5465 -0.0628  0.2106
  771SOL    HW1 3082   3.010   0.644   1.940  1.5004 -4.4239 -0.7721
  771SOL    HW2 3083   3.158   0.622   1.981 -1.8975  0.4073  2.2463
  771SOL     MW 3084   3.075   0.652   1.999  0.3499 -0.5762  0.3495
  772SOL     OW 3085   3.096   3.095   2.321  0.2799 -0.4532 -0.1804
  772SOL    HW1 3086   3.029   3.028   2.333  0.2678  0.3222  0.9940
  772SOL    HW2 3087   3.169   3.043   2.277  2.7195  1.0073 -2.7243
  772SOL     MW 3088   3.097   3.079   2.317  0.6002 -0.1582 -0.3611
  773SOL     OW 3089   2.420   2.852   2.758 -0.5845  0.3147  0.1995
  773SOL    HW1 3090   2.434   2.772   2.706 -0.8161 -0.6574 -0.9128
  773SOL    HW2 3091   2.411   2.816   2.846 -0.2264 -1.7789 -3.0590
  773SOL     MW 3092   2.420   2.837   2.762 -0.5678 -0.0898 -0.3772
  774SOL     OW 3093   2.302   1.082   1.732  0.3280  0.5794 -0.3213
  774SOL    HW1 3094   2.309   1.166   1.679 -0.7986  1.2487 -0.7863
  774SOL    HW2 3095   2.247   1.029   1.667  0.6823  1.0670 -0.1366
  774SOL     MW 3096   2.296   1.086   1.716  0.2261  0.7320 -0.3583
  775SOL     OW 3097   2.283   2.876   2.303 -0.0046  0.3979 -0.0681
  775SOL    HW1 3098   2.296   2.958   2.248 -0.3629  0.1294 -1.7274
  775SOL    HW2 3099   2.358   2.819   2.275 -0.1385 -1.4089  0.5510
  775SOL     MW 3100   2.294   2.879   2.292 -0.0695  0.1241 -0.2053
  776SOL     OW 3101   0.093   1.486   0.095 -0.3510  0.3822  0.2078
  776SOL    HW1 3102   0.175   1.428   0.103 -1.7614  1.4081 -0.4096
  776SOL    HW2 3103   0.022   1.417   0.111 -3.4087 -0.3998 -2.7301
  776SOL     MW 3104   0.094   1.469   0.098 -0.9405  0.4144 -0.2612
  777SOL     OW 3105   2.932   1.161   1.744 -0.0236  0.0268 -0.4480
  777SOL    HW1 3106   2.863   1.176   1.678  1.0893 -0.4442  0.1238
  777SOL    HW2 3107   2.889   1.107   1.808  1.0558 -0.0894 -2.2974
  777SOL     MW 3108   2.917   1.156   1.744  0.2657 -0.0507 -0.6166
  778SOL     OW 3109   2.899   0.478   2.818  0.0480  0.3422  0.1558
  778SOL    HW1 3110   2.843   0.494   2.894 -0.3135 -0.9269  0.6671
  778SOL    HW2 3111   2.884   0.555   2.763  2.0183 -1.3244 -0.1458
  778SOL     MW 3112   2.889   0.491   2.821  0.2602 -0.0451  0.1835
  779SOL     OW 3113   2.152   0.610   2.358  0.3245 -0.8236 -0.2219
  779SOL    HW1 3114   2.075   0.651   2.402 -3.7978  1.0958  0.2178
  779SOL    HW2 3115   2.154   0.521   2.396 -3.2428  2.4464  1.3055
  779SOL     MW 3116   2.142   0.603   2.369 -0.6900 -0.1389  0.0376
  780SOL     OW 3117   0.250   0.106   2.786  0.5886  0.8916  0.5145
  780SOL    HW1 3118   0.206   0.154   2.859  0.1446 -0.3363 -1.7129
  780SOL    HW2 3119   0.192   0.123   2.711 -2.2864 -0.6854  2.1426
  780SOL     MW 3120   0.237   0.115   2.786  0.1507  0.5215  0.4354
  781SOL     OW 3121   3.071   1.284   2.508 -0.3242  0.2871  0.3176
  781SOL    HW1 3122   3.048   1.337   2.432 -0.5261 -0.1279 -0.4078
  781SOL    HW2 3123   3.080   1.194   2.474 -0.2421 -2.0188  0.8209
  781SOL     MW 3124   3.069   1.279   2.494 -0.3400 -0.0719  0.2883
  782SOL     OW 3125   0.511   1.586   2.992 -0.1818  0.9997 -0.2625
  782SOL    HW1 3126   0.464   1.672   3.000  1.6815  0.5934  0.5321
  782SOL    HW2 3127   0.506   1.549   3.087  0.1978  1.6748  3.3058
  782SOL     MW 3128   0.504   1.593   3.006  0.1141  1.0352  0.3131
  783SOL     OW 3129   2.811   0.481   2.458 -0.0228  0.1751 -0.3607
  783SOL    HW1 3130   2.757   0.468   2.377  0.7194 -0.0259  2.0123
  783SOL    HW2 3131   2.749   0.441   2.521  2.8402  1.3978  0.3870
  783SOL     MW 3132   2.795   0.474   2.456  0.4529  0.3099  0.0511
  784SOL     OW 3133   0.234   0.895   2.899  0.1380  0.0803 -0.1702
  784SOL    HW1 3134   0.235   0.972   2.969  0.5411  0.1332  1.4518
  784SOL    HW2 3135   0.235   0.940   2.815  0.3139 -0.3497  1.0115
  784SOL     MW 3136   0.234   0.911   2.897  0.2144  0.0305  0.1997
  785SOL     OW 3137   0.450   0.516   2.154 -0.2928  0.0203 -0.3511
  785SOL    HW1 3138   0.457   0.552   2.063  0.4512 -1.1453  0.9472
  785SOL    HW2 3139   0.380   0.450   2.156  2.7242 -1.1415 -1.0446
  785SOL     MW 3140   0.442   0.512   2.142  0.2034 -0.2868 -0.2713
  786SOL     OW 3141   2.003   0.482   2.852  0.3200 -0.1522  0.3889
  786SOL    HW1 3142   1.992   0.509   2.944  0.9739  2.3957 -3.1780
  786SOL    HW2 3143   2.090   0.476   2.816 -2.7572  1.0401  0.0050
  786SOL     MW 3144   2.013   0.485   2.859  0.0003  0.3413 -0.1323
  787SOL     OW 3145   2.437   0.112   2.898 -0.2726  0.1510 -0.3904
  787SOL    HW1 3146   2.490   0.043   2.853 -0.9829 -0.9512  1.2140
  787SOL    HW2 3147   2.509   0.168   2.942 -0.7402 -0.7208  0.3076
  787SOL     MW 3148   2.453   0.110   2.898 -0.4280 -0.1095 -0.0866
  788SOL     OW 3149   2.922   2.866   2.326  0.6880  0.3298 -0.4872
  788SOL    HW1 3150   2.919   2.812   2.252  0.7285  1.9827 -0.9659
  788SOL    HW2 3151   3.005   2.837   2.380  2.0722 -3.9719  0.1928
  788SOL     MW 3152   2.933   2.855   2.323  0.8760 -0.0197 -0.4606
  789SOL     OW 3153   0.077   0.229   2.963  0.0970 -0.4121  0.4035
  789SOL    HW1 3154  -0.017   0.199   2.960 -2.3269 -0.5591  0.8862
  789SOL    HW2 3155   0.075   0.325   2.967 -0.4123  0.3627 -0.8209
  789SOL     MW 3156   0.064   0.237   2.963 -0.2900 -0.3292  0.3057
  790SOL     OW 3157   0.019   1.011   2.454  0.3073 -0.1935  0.0688
  790SOL    HW1 3158  -0.027   0.978   2.536  0.9392 -2.1268  0.4531
  790SOL    HW2 3159  -0.040   1.016   2.373 -2.5129 -2.0509 -1.1985
  790SOL     MW 3160   0.005   1.008   2.454  0.0186 -0.6936 -0.0477
  791SOL     OW 3161   2.662   0.400   2.693  0.5337 -0.2169  0.0793
  791SOL    HW1 3162   2.589   0.465   2.719  0.0158 -0.1277  0.7582
  791SOL    HW2 3163   2.731   0.418   2.756 -0.5825  0.4351 -1.6608
  791SOL     MW 3164   2.661   0.411   2.704  0.3181 -0.1191 -0.0607
  792SOL     OW 3165   2.420   0.254   2.352  0.1563 -0.0533 -0.3457
  792SOL    HW1 3166   2.330   0.276   2.385 -1.8630 -2.6681  0.5715
  792SOL    HW2 3167   2.465   0.234   2.441  0.3464  0.2558  1.5001
  792SOL     MW 3168   2.414   0.254   2.368 -0.0851 -0.3575  0.0188
  793SOL     OW 3169   1.779   1.005   1.910 -0.5469 -0.1492  0.1323
  793SOL    HW1 3170   1.770   1.048   1.829 -1.3858  2.4983  1.8520
  793SOL    HW2 3171   1.869   0.961   1.903  1.0638 -1.8260 -3.0850
  793SOL     MW 3172   1.790   1.005   1.898 -0.4451 -0.0211 -0.0653
  794SOL     OW 3173   1.421   2.243   0.092 -0.3002 -0.1215 -0.2969
  794SOL    HW1 3174   1.426   2.323   0.033 -1.4878 -0.4711 -1.4298
  794SOL    HW2 3175   1.460   2.267   0.175  0.0372 -1.3880  1.6611
  794SOL     MW 3176   1.427   2.256   0.095 -0.4124 -0.3347 -0.1880
  795SOL     OW 3177   2.233   0.949   2.576 -0.1894 -0.1074 -0.5158
  795SOL    HW1 3178   2.247   1.029   2.624 -0.8774  0.2198  1.0019
  795SOL    HW2 3179   2.247   0.976   2.486 -1.3483  0.3469  1.0847
  795SOL     MW 3180   2.237   0.963   2.570 -0.4331 -0.0042 -0.1044
  796SOL     OW 3181   0.332   0.702   2.748  0.2993 -0.2667 -0.4257
  796SOL    HW1 3182   0.324   0.774   2.814 -0.0209  0.8176 -0.8725
  796SOL    HW2 3183   0.245   0.666   2.731  2.6737  1.2283 -1.1044
  796SOL     MW 3184   0.319   0.706   2.754  0.5703  0.0736 -0.5742
  797SOL     OW 3185   2.605   0.130   2.549  0.0631 -0.2806  0.2202
  797SOL    HW1 3186   2.651   0.194   2.597 -3.2464 -4.2566  1.1607
  797SOL    HW2 3187   2.666   0.070   2.504 -0.4424 -0.1166 -0.9580
  797SOL     MW 3188   2.619   0.131   2.550 -0.4403 -0.7836  0.1888
  798SOL     OW 3189   2.339   0.029   2.210 -0.4189  0.7016  0.2142
  798SOL    HW1 3190   2.354   0.101   2.272  0.4185 -3.5617 -2.3012
  798SOL    HW2 3191   2.430   0.009   2.178 -0.1665 -0.5657  0.7483
  798SOL     MW 3192   2.353   0.036   2.214 -0.2751 -0.0281 -0.0472
  799SOL     OW 3193   2.448   2.936   0.197  0.1560 -0.4141  0.0224
  799SOL    HW1 3194   2.441   2.858   0.144  0.3519  1.0914  1.0936
  799SOL    HW2 3195   2.437   3.003   0.133  0.0050 -1.6769 -1.8075
  799SOL     MW 3196   2.446   2.935   0.182  0.1620 -0.3821 -0.0777
  800SOL     OW 3197   1.862   3.063   1.774 -0.0078 -0.2214 -0.0020
  800SOL    HW1 3198   1.794   3.003   1.801 -0.3342  1.8487 -0.9667
  800SOL    HW2 3199   1.925   3.071   1.846  1.6141  1.2563 -1.3381
  800SOL     MW 3200   1.862   3.056   1.787  0.1631  0.2467 -0.3056
  801SOL     OW 3201   2.811   1.312   2.625  0.4400  0.7015  0.0797
  801SOL    HW1 3202   2.765   1.225   2.602  0.6411 -1.3669 -0.4480
  801SOL    HW2 3203   2.902   1.302   2.595 -0.8984 -0.5894 -0.4165
  801SOL     MW 3204   2.817   1.299   2.618  0.2899  0.2583 -0.0554
  802SOL     OW 3205   2.550   1.504   2.830  0.2356  0.1202 -0.0214
  802SOL    HW1 3206   2.560   1.421   2.779 -0.9105 -1.1020 -1.2495
  802SOL    HW2 3207   2.639   1.538   2.859  3.9096  1.1993  4.3455
  802SOL     MW 3208   2.563   1.497   2.827  0.5692  0.1013  0.3927
  803SOL     OW 3209   2.311   1.262   1.960  0.3625  0.0618 -0.2563
  803SOL    HW1 3210   2.283   1.232   2.050 -0.2765 -0.7537 -0.9320
  803SOL    HW2 3211   2.287   1.196   1.899  1.9784 -1.3260 -2.3486
  803SOL     MW 3212   2.304   1.249   1.964  0.4914 -0.2289 -0.6215
  804SOL     OW 3213   2.301   0.077   0.028 -0.0462 -0.0660 -0.3411
  804SOL    HW1 3214   2.235   0.141   0.019  0.5041  0.9368  0.8501
  804SOL    HW2 3215   2.347   0.090  -0.054  0.7056 -0.3314  0.0773
  804SOL     MW 3216   2.298   0.087   0.016  0.1256  0.0313 -0.1287
  805SOL     OW 3217   2.722   1.048   2.589 -0.0454 -0.3421 -0.4124
  805SOL    HW1 3218   2.647   1.003   2.620 -1.5358  0.4715 -1.7454
  805SOL    HW2 3219   2.799   0.997   2.621 -0.5951  0.2430 -1.9897
  805SOL     MW 3220   2.723   1.035   2.597 -0.3145 -0.1576 -0.7964
  806SOL     OW 3221   2.629   0.409   2.273  0.1841 -0.0892  0.0585
  806SOL    HW1 3222   2.545   0.359   2.298  1.0438 -2.4285 -1.9199
  806SOL    HW2 3223   2.632   0.399   2.175 -2.0077  0.6344 -0.9855
  806SOL     MW 3224   2.618   0.401   2.264  0.0084 -0.3024 -0.3403
  807SOL     OW 3225   3.081   1.108   2.099  0.5026  0.0552 -0.8377
  807SOL    HW1 3226   3.138   1.031   2.079  2.0096 -0.5572 -1.5708
  807SOL    HW2 3227   3.007   1.075   2.154 -0.5902  2.0225  1.3455
  807SOL     MW 3228   3.078   1.093   2.104  0.5572  0.2340 -0.6464
  808SOL     OW 3229   2.620   3.031   2.775 -0.1332  0.0140 -0.3030
  808SOL    HW1 3230   2.556   2.964   2.758  0.0666 -0.0177  0.1783
  808SOL    HW2 3231   2.633   3.074   2.690 -0.7848 -0.4681  3.0802
  808SOL     MW 3232   2.613   3.028   2.761 -0.1928 -0.0538  0.2069
  809SOL     OW 3233   2.496   1.226   2.403 -0.5879  0.3220  0.4187
  809SOL    HW1 3234   2.503   1.248   2.503  1.7305 -0.8118  1.9477
  809SOL    HW2 3235   2.585   1.242   2.372 -2.2257  2.4987 -0.6445
  809SOL     MW 3236   2.509   1.231   2.412 -0.4981  0.4596  0.4802
  810SOL     OW 3237   2.204   1.193   2.182 -0.3780  0.4073  0.0133
  810SOL    HW1 3238   2.239   1.126   2.246  0.1713 -3.5452 -1.4544
  810SOL    HW2 3239   2.121   1.157   2.156  0.1219 -0.2213  3.3172
  810SOL     MW 3240   2.198   1.179   2.187 -0.2396 -0.1972  0.2556
  811SOL     OW 3241   1.523   0.113   2.288 -0.1666 -0.1982  0.2383
  811SOL    HW1 3242   1.577   0.034   2.319 -1.7542  1.3362 -1.2524
  811SOL    HW2 3243   1.520   0.119   2.186 -0.8261 -0.5764 -2.6025
  811SOL     MW 3244   1.529   0.103   2.279 -0.4631 -0.0457 -0.3332
  812SOL     OW 3245   1.408   2.784   2.061 -0.2806  0.0993  0.2085
  812SOL    HW1 3246   1.500   2.769   2.053 -0.4132 -2.1178  4.0378
  812SOL    HW2 3247   1.390   2.779   2.156 -1.7816  0.9116  0.4129
  812SOL     MW 3248   1.417   2.781   2.072 -0.4961 -0.0861  0.7407
  813SOL     OW 3249   1.843   0.753   2.179  0.0975  0.9516  0.1433
  813SOL    HW1 3250   1.790   0.674   2.199  1.1062  3.4226  2.4835
  813SOL    HW2 3251   1.899   0.775   2.257  0.5178  0.1262 -0.0698
  813SOL     MW 3252   1.843   0.746   2.192  0.2860  1.1687  0.4240
  814SOL     OW 3253   2.740   1.271   1.589  0.1552  0.2119  0.1163
  814SOL    HW1 3254   2.682   1.258   1.669  1.7326  0.0890  3.1045
  814SOL    HW2 3255   2.713   1.202   1.531 -1.6995  1.5624  0.7692
  814SOL     MW 3256   2.729   1.260   1.592  0.1186  0.3739  0.5967
  815SOL     OW 3257   2.491   1.674   2.384 -0.3015  0.2805 -0.2755
  815SOL    HW1 3258   2.432   1.600   2.350 -0.5826 -0.9020 -2.1165
  815SOL    HW2 3259   2.571   1.626   2.419  1.0514  1.4827 -2.6512
  815SOL     MW 3260   2.494   1.658   2.384 -0.1601  0.2831 -0.8319
  816SOL     OW 3261   0.677   0.626   2.753 -0.3545 -0.2060  0.2922
  816SOL    HW1 3262   0.714   0.550   2.799 -0.7608 -2.3095 -0.0025
  816SOL    HW2 3263   0.609   0.581   2.699 -5.0147  0.4140  0.3295
  816SOL     MW 3264   0.673   0.610   2.752 -1.0230 -0.4017  0.2582
  817SOL     OW 3265   3.008   1.146   1.424  0.2124  0.3592 -0.2363
  817SOL    HW1 3266   3.085   1.160   1.481 -0.7466 -0.1852 -2.1024
  817SOL    HW2 3267   2.997   1.233   1.374  3.6673 -0.0988  1.4197
  817SOL     MW 3268   3.016   1.160   1.425  0.5417  0.2269 -0.2640
  818SOL     OW 3269   1.919   1.009   2.741  0.1592 -0.2776 -0.0209
  818SOL    HW1 3270   1.981   1.060   2.691 -0.2367 -0.6308  1.3719
  818SOL    HW2 3271   1.949   0.922   2.741 -0.5945 -1.4710 -0.8255
  818SOL     MW 3272   1.931   1.004   2.734  0.0075 -0.4817  0.0567
  819SOL     OW 3273   1.842   0.237   2.399 -0.4336  0.4184 -1.0436
  819SOL    HW1 3274   1.792   0.313   2.426 -1.1785 -1.3706  3.1399
  819SOL    HW2 3275   1.881   0.214   2.487  0.3095 -1.0092  1.4645
  819SOL     MW 3276   1.841   0.244   2.414 -0.4339 -0.0060 -0.1607
  820SOL     OW 3277   2.501   1.727   2.664 -0.1681 -0.2831 -0.3132
  820SOL    HW1 3278   2.518   1.649   2.718  1.6716 -1.4118  0.4671
  820SOL    HW2 3279   2.488   1.707   2.576 -0.1475  2.2360 -0.9939
  820SOL     MW 3280   2.502   1.714   2.659  0.0773 -0.0996 -0.3001
  821SOL     OW 3281   2.592   1.364   2.000  0.0146  0.1660  0.1578
  821SOL    HW1 3282   2.622   1.445   1.966 -0.2996 -0.9293 -0.0287
  821SOL    HW2 3283   2.498   1.370   2.002  0.5045 -1.8347 -0.5164
  821SOL     MW 3284   2.584   1.376   1.996  0.0377 -0.2425  0.0443
  822SOL     OW 3285   2.857   2.669   1.418  0.0164 -0.5368 -0.8142
  822SOL    HW1 3286   2.897   2.728   1.483  0.4871 -1.2132  4.0872
  822SOL    HW2 3287   2.781   2.714   1.387 -0.1847  0.8303  0.6050
  822SOL     MW 3288   2.852   2.683   1.423  0.0520 -0.4457  0.0198
  823SOL     OW 3289   2.286   0.470   1.787 -0.2264 -0.5320 -0.5008
  823SOL    HW1 3290   2.373   0.450   1.754  1.1894  0.7276 -0.5704
  823SOL    HW2 3291   2.234   0.395   1.781 -0.0585  1.1301 -0.1908
  823SOL     MW 3292   2.290   0.458   1.782 -0.0174 -0.1465 -0.4691
  824SOL     OW 3293   2.105   1.335   2.517  0.6296 -0.3330  0.2075
  824SOL    HW1 3294   2.161   1.368   2.440 -1.6700 -1.2522  2.1397
  824SOL    HW2 3295   2.055   1.404   2.556  0.1969 -2.9663  1.6709
  824SOL     MW 3296   2.106   1.349   2.512  0.2691 -0.8017  0.6555
  825SOL     OW 3297   2.156   2.487   0.412  0.3171 -0.3447  0.8394
  825SOL    HW1 3298   2.234   2.470   0.356  1.5797 -0.3730 -3.6727
  825SOL    HW2 3299   2.165   2.417   0.482 -3.3371 -1.2415  1.0654
  825SOL     MW 3300   2.167   2.475   0.414  0.0016 -0.4668  0.2739
  826SOL     OW 3301   1.779   2.370   0.445 -0.3612 -0.3843 -0.5699
  826SOL    HW1 3302   1.783   2.320   0.523 -0.3315 -0.6440 -0.7299
  826SOL    HW2 3303   1.819   2.455   0.459  0.1867  2.2951 -2.1155
  826SOL     MW 3304   1.785   2.375   0.457 -0.2850 -0.0650 -0.7950
  827SOL     OW 3305   1.941   2.250   0.894  0.4973  0.1350 -0.1698
  827SOL    HW1 3306   1.876   2.255   0.823  1.4668  3.6760  0.8284
  827SOL    HW2 3307   1.925   2.169   0.935  0.1532  0.6141  0.3663
  827SOL     MW 3308   1.930   2.240   0.890  0.5798  0.6654  0.0326
  828SOL     OW 3309   0.069   2.643   0.571  0.2234 -0.1664  0.5203
  828SOL    HW1 3310   0.165   2.639   0.592  0.1282 -2.0300 -0.4382
  828SOL    HW2 3311   0.070   2.686   0.487 -0.8413  0.5479  0.2920
  828SOL     MW 3312   0.082   2.648   0.562  0.0703 -0.3180  0.3637
  829SOL     OW 3313   3.019   2.898   1.182 -0.0220 -0.0494 -0.2567
  829SOL    HW1 3314   2.945   2.880   1.132  1.7996  0.4138  1.7696
  829SOL    HW2 3315   3.074   2.824   1.181 -1.8106  2.0456  1.5517
  829SOL     MW 3316   3.016   2.886   1.176 -0.0177  0.2882  0.2493
  830SOL     OW 3317   2.550   2.798   2.034  0.0711 -0.3754 -0.0621
  830SOL    HW1 3318   2.461   2.822   2.014 -2.7897 -0.7400 -2.8538
  830SOL    HW2 3319   2.599   2.796   1.954  1.3881 -1.4512 -0.1559
  830SOL     MW 3320   2.545   2.801   2.021 -0.1326 -0.5654 -0.4428
  831SOL     OW 3321   2.498   2.443   1.187  0.3273  0.0246 -0.4870
  831SOL    HW1 3322   2.458   2.399   1.256 -0.3954 -0.1696  1.7544
  831SOL    HW2 3323   2.590   2.405   1.190 -0.2062 -2.2364 -1.2545
  831SOL     MW 3324   2.505   2.432   1.196  0.1615 -0.2994 -0.2926
  832SOL     OW 3325   2.438   2.115   1.804 -0.0831  0.0338  0.5234
  832SOL    HW1 3326   2.456   2.206   1.845 -1.6750 -0.2232  1.1319
  832SOL    HW2 3327   2.515   2.102   1.749 -1.2878 -0.7896 -0.6321
  832SOL     MW 3328   2.451   2.125   1.802 -0.4521 -0.1087  0.4512
  833SOL     OW 3329   1.724   2.593   0.907 -0.5262  0.1083 -0.7047
  833SOL    HW1 3330   1.668   2.509   0.928 -0.4762  5.3637 -1.0834
  833SOL    HW2 3331   1.675   2.664   0.948  0.4336 -1.1258  0.2292
  833SOL     MW 3332   1.710   2.591   0.915 -0.3930  0.6389 -0.6314
  834SOL     OW 3333   2.287   2.350   0.644 -0.2542  0.3400 -0.0037
  834SOL    HW1 3334   2.232   2.287   0.695  0.8238  1.1496  3.4877
  834SOL    HW2 3335   2.375   2.312   0.621 -2.2998 -0.3306  0.5939
  834SOL     MW 3336   2.292   2.337   0.647 -0.3819  0.3584  0.5358
  835SOL     OW 3337   1.815   2.569   0.653 -0.5921 -0.1787  0.3584
  835SOL    HW1 3338   1.765   2.585   0.735  0.0340 -0.3817 -0.3555
  835SOL    HW2 3339   1.842   2.482   0.683 -3.2776 -0.9420 -1.4416
  835SOL     MW 3340   1.812   2.559   0.668 -0.8638 -0.3062  0.0267
  836SOL     OW 3341   2.054   2.160   1.657 -0.0978 -0.6631  0.1562
  836SOL    HW1 3342   2.144   2.130   1.620  0.8986  2.7692  0.5507
  836SOL    HW2 3343   2.073   2.245   1.694 -1.3150 -0.2471  0.1125
  836SOL     MW 3344   2.068   2.167   1.657 -0.1270 -0.1554  0.2025
  837SOL     OW 3345   2.098   0.181   0.677  0.3995 -0.2847 -0.4897
  837SOL    HW1 3346   2.010   0.187   0.640  1.9600 -1.6162  4.0430
  837SOL    HW2 3347   2.155   0.140   0.610  1.2475  1.4990  1.9025
  837SOL     MW 3348   2.094   0.176   0.663  0.7173 -0.2250  0.4240
  838SOL     OW 3349   2.870   2.101   0.947  0.1782 -0.1335 -0.4196
  838SOL    HW1 3350   2.801   2.037   0.954  0.4298 -0.3998 -1.1121
  838SOL    HW2 3351   2.911   2.104   1.031 -1.9112  1.6144  0.8725
  838SOL     MW 3352   2.866   2.093   0.959 -0.0643  0.0619 -0.3405
  839SOL     OW 3353   1.549   2.381   0.988  0.2182 -0.4316  0.4790
  839SOL    HW1 3354   1.513   2.448   1.060  2.1053 -1.7100  1.5147
  839SOL    HW2 3355   1.573   2.308   1.034 -0.4297  0.2001 -2.1114
  839SOL     MW 3356   1.547   2.380   1.004  0.3817 -0.5169  0.2739
  840SOL     OW 3357   2.352   2.099   2.429  0.5247 -0.7636 -0.3646
  840SOL    HW1 3358   2.301   2.171   2.380  0.8424  0.9422 -0.8784
  840SOL    HW2 3359   2.413   2.152   2.482 -0.5910  1.2205  2.1627
  840SOL     MW 3360   2.353   2.115   2.430  0.4194 -0.2767 -0.0990
  841SOL     OW 3361   2.302   2.394   0.060  0.7677  0.1956  0.4181
  841SOL    HW1 3362   2.311   2.479   0.008  0.3585  0.6014 -2.7288
  841SOL    HW2 3363   2.240   2.338   0.013  1.4364  0.4777  0.3360
  841SOL     MW 3364   2.295   2.398   0.047  0.8019  0.2863 -0.0079
  842SOL     OW 3365   2.693   1.978   1.408  0.3790 -0.6959  0.0119
  842SOL    HW1 3366   2.642   1.898   1.408 -0.1742  0.2417 -1.5532
  842SOL    HW2 3367   2.661   2.025   1.323 -0.1789  1.0034 -3.6693
  842SOL     MW 3368   2.682   1.974   1.397  0.2324 -0.3480 -0.6803
  843SOL     OW 3369   2.655   2.770   1.752 -0.1729 -0.3382 -0.2091
  843SOL    HW1 3370   2.733   2.713   1.763  1.5290  1.7841  0.3502
  843SOL    HW2 3371   2.588   2.710   1.724  1.6360  0.0180  0.5637
  843SOL     MW 3372   2.657   2.755   1.750  0.2903 -0.0112 -0.0334
  844SOL     OW 3373   2.743   2.332   1.148 -0.0632  0.3988  0.1490
  844SOL    HW1 3374   2.794   2.360   1.071 -0.2283 -0.3542  0.4683
  844SOL    HW2 3375   2.795   2.333   1.221 -1.0723  0.4461 -1.6238
  844SOL     MW 3376   2.756   2.336   1.148 -0.2181  0.3057 -0.0428
  845SOL     OW 3377   2.844   2.589   0.288 -0.4199 -0.2859 -0.2500
  845SOL    HW1 3378   2.815   2.500   0.318 -1.8531 -1.3961  1.6448
  845SOL    HW2 3379   2.820   2.636   0.371 -3.2062 -1.0141 -2.3221
  845SOL     MW 3380   2.837   2.584   0.303 -0.9766 -0.5285 -0.2734
  846SOL     OW 3381   1.465   2.826   0.813 -0.4577  0.5354 -0.6048
  846SOL    HW1 3382   1.552   2.854   0.843  0.6378 -0.5172  1.5035
  846SOL    HW2 3383   1.399   2.894   0.839 -0.8690 -1.1865  2.4690
  846SOL     MW 3384   1.468   2.839   0.820 -0.3675  0.1694  0.0789
  847SOL     OW 3385   2.502   1.891   0.162  0.7172 -0.2190  0.1744
  847SOL    HW1 3386   2.457   1.809   0.205 -2.7416 -0.9856  2.1771
  847SOL    HW2 3387   2.466   1.880   0.071  1.0848  0.8239  1.2796
  847SOL     MW 3388   2.491   1.879   0.155  0.3094 -0.1825  0.5844
  848SOL     OW 3389   2.582   2.112   1.181 -0.0202 -0.3636  0.2103
  848SOL    HW1 3390   2.639   2.181   1.156  1.7825 -1.0413  0.7991
  848SOL    HW2 3391   2.595   2.036   1.123  1.1841  1.3855 -2.5383
  848SOL     MW 3392   2.591   2.111   1.170  0.3766 -0.2222 -0.0746
  849SOL     OW 3393   2.010   2.835   0.783  0.1808  1.0151 -0.0072
  849SOL    HW1 3394   1.993   2.807   0.878  0.6757  0.1224  0.9521
  849SOL    HW2 3395   2.045   2.754   0.751 -0.7168  1.3376  1.8209
  849SOL     MW 3396   2.012   2.820   0.791  0.1276  0.9398  0.3606
  850SOL     OW 3397   2.346   1.815   1.638  0.2922  0.4148  0.7083
  850SOL    HW1 3398   2.274   1.769   1.597 -2.0617  1.3415 -1.1462
  850SOL    HW2 3399   2.331   1.906   1.611  2.9119 -0.3166 -1.7830
  850SOL     MW 3400   2.335   1.821   1.629  0.3272  0.4405  0.1349
  851SOL     OW 3401   2.384   2.309   0.308  0.4146 -0.7743 -0.3301
  851SOL    HW1 3402   2.356   2.343   0.224 -0.3111 -0.4276 -0.2669
  851SOL    HW2 3403   2.458   2.366   0.335  0.5014 -2.3032 -2.1226
  851SOL     MW 3404   2.390   2.321   0.301  0.3303 -0.9303 -0.5583
  852SOL     OW 3405   2.330   2.044   0.342 -0.3076 -0.3592  0.6278
  852SOL    HW1 3406   2.342   2.138   0.326 -2.6469 -0.2435 -0.5552
  852SOL    HW2 3407   2.382   1.990   0.281 -0.2701  2.0475  1.6109
  852SOL     MW 3408   2.338   2.049   0.332 -0.6113 -0.0264  0.6014
  853SOL     OW 3409   2.506   2.360   1.913  0.6618  0.4944  0.0751
  853SOL    HW1 3410   2.503   2.418   1.841 -0.0824  1.4999  1.3438
  853SOL    HW2 3411   2.593   2.371   1.952  2.8998  1.0925 -0.5103
  853SOL     MW 3412   2.517   2.369   1.909  0.8589  0.7060  0.1652
  854SOL     OW 3413   2.844   2.224   0.707  0.1023  0.7189  0.1429
  854SOL    HW1 3414   2.754   2.216   0.671  0.1013 -1.6913 -0.1312
  854SOL    HW2 3415   2.850   2.174   0.791 -0.9576  0.3845 -1.7020
  854SOL     MW 3416   2.833   2.216   0.713 -0.0377  0.3568 -0.1367
  855SOL     OW 3417   2.766   2.355   0.424  0.4668  0.2446  0.3885
  855SOL    HW1 3418   2.685   2.374   0.474 -0.0316  0.3154  3.0627
  855SOL    HW2 3419   2.769   2.258   0.421 -0.3246 -0.8491 -1.9306
  855SOL     MW 3420   2.756   2.344   0.430  0.2966  0.1096  0.4353
  856SOL     OW 3421   2.098   1.881   0.223 -0.0221 -0.2531  0.4339
  856SOL    HW1 3422   2.003   1.885   0.239  2.3085  1.6764  1.6445
  856SOL    HW2 3423   2.131   1.939   0.291 -2.4871  0.2778 -0.0297
  856SOL     MW 3424   2.090   1.889   0.234 -0.0398  0.0715  0.5325
  857SOL     OW 3425   2.509   1.947   0.522  0.2041  0.3399 -0.2676
  857SOL    HW1 3426   2.456   1.978   0.449  2.6663  1.4740 -1.7705
  857SOL    HW2 3427   2.456   1.933   0.606 -2.2719 -1.1843  0.6204
  857SOL     MW 3428   2.495   1.949   0.524  0.2023  0.2884 -0.3487
  858SOL     OW 3429   2.891   2.661   1.791 -0.4187  0.0006  0.0858
  858SOL    HW1 3430   2.981   2.688   1.806 -0.9383  2.2344 -0.3917
  858SOL    HW2 3431   2.889   2.566   1.796 -2.7756 -0.1133 -2.3818
  858SOL     MW 3432   2.902   2.652   1.794 -0.7982  0.2803 -0.3028
  859SOL     OW 3433   1.922   2.742   1.059 -0.3306 -0.2563 -0.2924
  859SOL    HW1 3434   1.887   2.668   1.012 -4.0733  1.0344 -0.6371
  859SOL    HW2 3435   2.015   2.728   1.069  1.0651  0.1568 -1.1744
  859SOL     MW 3436   1.930   2.730   1.054 -0.6402 -0.0315 -0.4542
  860SOL     OW 3437   2.615   2.650   0.144  0.2466 -0.5405  0.2412
  860SOL    HW1 3438   2.675   2.636   0.229 -0.1228  0.1566  1.5699
  860SOL    HW2 3439   2.654   2.714   0.087  2.1952 -1.2829  1.0540
  860SOL     MW 3440   2.628   2.657   0.148  0.4550 -0.5465  0.5237
  861SOL     OW 3441   1.646   2.156   1.192  0.1239 -0.0879  0.5784
  861SOL    HW1 3442   1.633   2.235   1.251 -0.5994  2.7794 -0.7328
  861SOL    HW2 3443   1.588   2.087   1.225  0.0190 -0.1759  0.1139
  861SOL     MW 3444   1.637   2.157   1.204  0.0146  0.2788  0.3441
  862SOL     OW 3445   2.519   1.749   1.438 -0.0749 -0.7180 -0.2114
  862SOL    HW1 3446   2.459   1.783   1.505 -1.1113  0.7919 -1.6625
  862SOL    HW2 3447   2.468   1.724   1.356  2.6683  2.6919 -1.8830
  862SOL     MW 3448   2.504   1.750   1.436  0.1503 -0.0689 -0.6234
  863SOL     OW 3449   3.006   1.741   0.997 -0.1296 -0.6531 -0.3270
  863SOL    HW1 3450   3.078   1.754   1.062  2.4748 -1.3289 -2.7923
  863SOL    HW2 3451   2.921   1.752   1.038 -0.4189  1.4038 -1.1614
  863SOL     MW 3452   3.004   1.744   1.011  0.1759 -0.4709 -0.7623
  864SOL     OW 3453   0.039   1.841   0.755 -0.1131 -0.3184 -0.3569
  864SOL    HW1 3454  -0.029   1.835   0.820  1.3442  1.4710 -1.8521
  864SOL    HW2 3455   0.001   1.801   0.676 -0.9801 -0.8220 -0.4043
  864SOL     MW 3456   0.025   1.835   0.753 -0.0353 -0.1488 -0.5604
  865SOL     OW 3457   2.639   2.177   0.062 -0.0654  0.7913  0.0750
  865SOL    HW1 3458   2.577   2.133   0.124 -0.9341 -0.7403 -3.1873
  865SOL    HW2 3459   2.606   2.142  -0.020 -0.0008 -0.2723  0.2259
  865SOL     MW 3460   2.627   2.166   0.060 -0.1715  0.4489 -0.3355
  866SOL     OW 3461   2.631   2.387   1.545 -0.2702  0.7598  0.1528
  866SOL    HW1 3462   2.635   2.287   1.563  1.4871 -1.2009  0.3808
  866SOL    HW2 3463   2.706   2.395   1.487 -3.4783  0.6024  0.8823
  866SOL     MW 3464   2.642   2.375   1.540 -0.4616  0.4803  0.2792
  867SOL     OW 3465   0.111   2.695   1.770  0.6165 -0.2630  0.0678
  867SOL    HW1 3466   0.174   2.762   1.795  1.7952 -1.0247 -0.3331
  867SOL    HW2 3467   0.076   2.714   1.683 -3.6674 -0.7830 -1.8227
  867SOL     MW 3468   0.114   2.706   1.761  0.2068 -0.4321 -0.2345
  868SOL     OW 3469   2.765   2.674   0.537  0.1608  0.1228 -0.7100
  868SOL    HW1 3470   2.706   2.595   0.545  0.1457 -4.0012 -0.3718
  868SOL    HW2 3471   2.712   2.752   0.507  3.0219  0.3729 -0.2533
  868SOL     MW 3472   2.750   2.674   0.534  0.5363 -0.3883 -0.6051
  869SOL     OW 3473   2.065   2.463   1.034 -0.3793  0.7797  0.1211
  869SOL    HW1 3474   2.159   2.462   1.017  0.0828 -0.6826 -0.3874
  869SOL    HW2 3475   2.029   2.386   0.993  2.7464 -0.3604  2.8243
  869SOL     MW 3476   2.073   2.453   1.026  0.0941  0.4364  0.4106
  870SOL     OW 3477   2.200   0.041   0.463 -0.0463 -0.9924  0.0279
  870SOL    HW1 3478   2.266   0.087   0.406  0.0426  1.2380 -2.1780
  870SOL    HW2 3479   2.224  -0.048   0.482  3.6919  3.5603 -1.7867
  870SOL     MW 3480   2.212   0.035   0.458  0.4586 -0.0975 -0.5025
  871SOL     OW 3481   2.510   2.097   0.888 -0.0850 -0.1985 -0.5639
  871SOL    HW1 3482   2.431   2.051   0.852  0.4990  0.8061  0.6296
  871SOL    HW2 3483   2.472   2.167   0.941 -1.1386 -1.0720  0.8592
  871SOL     MW 3484   2.495   2.100   0.890 -0.1470 -0.1812 -0.2187
  872SOL     OW 3485   2.098   2.580   1.510  0.9089 -0.1558  0.5158
  872SOL    HW1 3486   2.010   2.575   1.546  0.1558 -0.0191 -1.4699
  872SOL    HW2 3487   2.086   2.528   1.426 -0.3314 -2.2377 -0.5210
  872SOL     MW 3488   2.085   2.573   1.503  0.6458 -0.4124  0.1170
  873SOL     OW 3489   2.826   2.084   1.832  0.3623  0.4941 -0.8805
  873SOL    HW1 3490   2.796   2.124   1.913 -2.1216 -1.5987  1.3895
  873SOL    HW2 3491   2.895   2.135   1.786  0.0241 -1.0820 -1.6024
  873SOL     MW 3492   2.831   2.096   1.837 -0.0100  0.0100 -0.6762
  874SOL     OW 3493   2.307   1.416   2.327 -0.3830 -0.5346  0.1137
  874SOL    HW1 3494   2.269   1.363   2.255  1.6455  2.1037 -1.8664
  874SOL    HW2 3495   2.385   1.365   2.348  1.3879 -0.1694 -0.0375
  874SOL     MW 3496   2.312   1.402   2.320  0.1183 -0.1383 -0.1675
  875SOL     OW 3497   2.353   2.342   0.974 -0.3742 -0.2018  0.3209
  875SOL    HW1 3498   2.385   2.395   0.901 -0.8366  0.1981  2.8869
  875SOL    HW2 3499   2.411   2.382   1.043 -0.4110 -1.1729 -1.1316
  875SOL     MW 3500   2.365   2.355   0.974 -0.4401 -0.2771  0.4679
  876SOL     OW 3501   3.075   2.252   1.310  0.3965 -0.0699  0.4092
  876SOL    HW1 3502   3.114   2.301   1.239 -0.8328 -1.5163 -1.6180
  876SOL    HW2 3503   3.145   2.243   1.380 -2.5542  1.2220  2.4341
  876SOL     MW 3504   3.090   2.257   1.310 -0.1550 -0.0903  0.4089
  877SOL     OW 3505   0.055   2.792   0.343  0.0023 -0.0511 -0.4408
  877SOL    HW1 3506   0.111   2.863   0.311  0.5343 -2.5916  1.9490
  877SOL    HW2 3507   0.045   2.739   0.265 -0.5733  2.5281  0.0071
  877SOL     MW 3508   0.061   2.795   0.329 -0.0035 -0.0460 -0.0664
  878SOL     OW 3509   2.366   1.718   1.196 -0.9885 -0.5226 -0.2210
  878SOL    HW1 3510   2.281   1.691   1.238  0.0843 -2.4799  3.0128
  878SOL    HW2 3511   2.399   1.634   1.157  0.4854 -2.3495  0.2753
  878SOL     MW 3512   2.359   1.703   1.197 -0.6525 -1.0219  0.2711
  879SOL     OW 3513   2.763   2.455   0.881  0.4211  0.7332 -0.2739
  879SOL    HW1 3514   2.821   2.530   0.900 -0.4418  1.3174 -1.6392
  879SOL    HW2 3515   2.796   2.386   0.824  1.7936 -0.8575 -1.8091
  879SOL     MW 3516   2.775   2.456   0.876  0.4883  0.6004 -0.6566
  880SOL     OW 3517   2.584   2.203   0.623  0.1010  0.1827  0.1889
  880SOL    HW1 3518   2.567   2.163   0.712 -3.0535 -1.4731  0.4922
  880SOL    HW2 3519   2.567   2.121   0.566  0.1584 -4.4538 -3.0886
  880SOL     MW 3520   2.580   2.187   0.627 -0.3076 -0.6475 -0.2035
  881SOL     OW 3521   2.972   2.750   0.698 -0.4607  0.5904  0.4482
  881SOL    HW1 3522   2.909   2.724   0.635  2.1806 -2.7045  0.0631
  881SOL    HW2 3523   3.059   2.715   0.657 -0.4995  2.2090 -0.3330
  881SOL     MW 3524   2.975   2.742   0.684 -0.1173  0.3692  0.2943
  882SOL     OW 3525   2.292   2.845   1.932  0.0613  0.1435 -0.5632
  882SOL    HW1 3526   2.278   2.865   1.835  0.2815  0.5464 -1.6132
  882SOL    HW2 3527   2.231   2.773   1.949  0.9354 -0.4380 -0.6807
  882SOL     MW 3528   2.282   2.838   1.921  0.2057  0.1200 -0.7172
  883SOL     OW 3529   2.366   2.245   1.329  0.4277 -0.0505 -0.4762
  883SOL    HW1 3530   2.439   2.188   1.292  1.6536  0.1469  0.6975
  883SOL    HW2 3531   2.308   2.237   1.251 -2.4500 -1.6453 -2.2011
  883SOL     MW 3532   2.368   2.237   1.314  0.2098 -0.2348 -0.5489
  884SOL     OW 3533   1.977   1.816   1.071 -0.0243  0.0335 -0.3893
  884SOL    HW1 3534   1.927   1.897   1.072 -4.3864 -2.4815  0.0381
  884SOL    HW2 3535   2.070   1.843   1.085 -1.3377  2.0593  1.7346
  884SOL     MW 3536   1.983   1.830   1.073 -0.7731 -0.0310 -0.0527
  885SOL     OW 3537   2.819   2.390   1.743  0.2493  0.3078 -0.4678
  885SOL    HW1 3538   2.900   2.342   1.705 -0.8414 -1.0234  0.4672
  885SOL    HW2 3539   2.763   2.401   1.668  0.0935  0.2050 -0.2581
  885SOL     MW 3540   2.822   2.385   1.728  0.0849  0.1186 -0.3168
  886SOL     OW 3541   2.864   2.403   1.395  0.5413  0.5236 -0.4704
  886SOL    HW1 3542   2.940   2.352   1.357 -0.0628  0.3789 -0.0558
  886SOL    HW2 3543   2.871   2.503   1.397 -0.3999 -1.1486  1.3616
  886SOL     MW 3544   2.875   2.410   1.390  0.3374  0.2839 -0.1740
  887SOL     OW 3545   2.342   2.683   1.503 -0.0271  0.1978 -0.1909
  887SOL    HW1 3546   2.382   2.674   1.417 -0.7173 -3.5589  2.1577
  887SOL    HW2 3547   2.259   2.636   1.516  0.1715  1.5647 -0.3563
  887SOL     MW 3548   2.336   2.675   1.493 -0.0920 -0.1175  0.0972
  888SOL     OW 3549   1.976   2.161   1.367  1.0332 -0.3666 -0.3225
  888SOL    HW1 3550   2.058   2.155   1.321  1.2753 -1.2876 -0.6249
  888SOL    HW2 3551   1.991   2.180   1.460  1.7408  1.4893 -2.6624
  888SOL     MW 3552   1.989   2.163   1.373  1.1585 -0.2433 -0.6711
  889SOL     OW 3553   2.315   1.961   2.070 -0.2798 -0.6389  0.2520
  889SOL    HW1 3554   2.390   1.961   2.127  0.1784  0.4999 -0.1716
  889SOL    HW2 3555   2.350   2.012   1.997 -2.1321 -1.7967 -0.2879
  889SOL     MW 3556   2.329   1.968   2.068 -0.4637 -0.6414  0.1249
  890SOL     OW 3557   0.085   2.328   0.134 -0.8618  0.1136  0.3196
  890SOL    HW1 3558   0.051   2.415   0.129  1.4742 -0.2199  0.1845
  890SOL    HW2 3559   0.031   2.284   0.201  0.1821 -1.0307  3.1816
  890SOL     MW 3560   0.073   2.334   0.142 -0.4158 -0.0814  0.6794
  891SOL     OW 3561   2.983   2.018   1.190 -0.1519  0.8636 -0.1806
  891SOL    HW1 3562   3.054   1.959   1.174  2.1812  3.2064 -1.9110
  891SOL    HW2 3563   3.030   2.091   1.222 -2.4639 -0.4377 -0.2354
  891SOL     MW 3564   2.999   2.020   1.192 -0.1491  1.0010 -0.4162
  892SOL     OW 3565   2.459   2.396   2.828  0.4291  0.3176  0.4450
  892SOL    HW1 3566   2.449   2.318   2.878  0.1396  1.1182  1.7183
  892SOL    HW2 3567   2.547   2.416   2.844 -0.9392 -1.4076  5.7424
  892SOL     MW 3568   2.469   2.389   2.836  0.2104  0.1956  1.3120
  893SOL     OW 3569   1.663   2.391   1.354  0.3347 -0.4829  0.3234
  893SOL    HW1 3570   1.593   2.393   1.415  0.8026  0.1217 -2.0493
  893SOL    HW2 3571   1.707   2.475   1.355 -1.4585  0.2334 -1.6639
  893SOL     MW 3572   1.659   2.402   1.362  0.1598 -0.3086 -0.2519
  894SOL     OW 3573   2.761   1.841   0.479  0.5821 -0.2563 -0.3939
  894SOL    HW1 3574   2.662   1.863   0.492 -2.4069  1.8478  0.1038
  894SOL    HW2 3575   2.764   1.803   0.387  1.8714  1.4205  0.9124
  894SOL     MW 3576   2.748   1.839   0.468  0.3578  0.2426 -0.1559
  895SOL     OW 3577   2.188   2.165   1.133  0.4148 -0.2515 -0.2968
  895SOL    HW1 3578   2.224   2.236   1.081  1.1852  0.4332  2.3433
  895SOL    HW2 3579   2.213   2.073   1.109 -0.4640 -0.1205 -1.5550
  895SOL     MW 3580   2.196   2.162   1.123  0.4005 -0.1439 -0.1145
  896SOL     OW 3581   2.217   2.792   1.100  0.1387 -0.6273  0.3213
  896SOL    HW1 3582   2.292   2.786   1.162  2.1439 -0.6819 -0.5144
  896SOL    HW2 3583   2.191   2.882   1.109 -0.2828 -1.9959 -2.2693
  896SOL     MW 3584   2.223   2.803   1.109  0.3476 -0.8151 -0.1308
  897SOL     OW 3585   3.092   3.015   3.083 -0.4395 -0.5484  0.1167
  897SOL    HW1 3586   3.136   2.935   3.099  0.4825 -1.4201  0.6130
  897SOL    HW2 3587   3.011   2.988   3.042  1.7002  0.9835  0.9364
  897SOL     MW 3588   3.087   3.001   3.079 -0.0355 -0.4613  0.2903
  898SOL     OW 3589   2.051   0.157   1.422  0.1007 -0.3093 -0.3275
  898SOL    HW1 3590   2.041   0.063   1.449 -0.0826 -0.7439 -0.5283
  898SOL    HW2 3591   2.064   0.156   1.330  2.3441  2.4558 -0.1703
  898SOL     MW 3592   2.051   0.144   1.414  0.3725 -0.0018 -0.3332
  899SOL     OW 3593   2.924   3.002   0.597 -0.0748 -0.1871 -0.4043
  899SOL    HW1 3594   2.957   2.922   0.644  2.9805  1.0137  4.7794
  899SOL    HW2 3595   2.827   3.012   0.613  0.1675  0.0521 -1.8367
  899SOL     MW 3596   2.915   2.992   0.605  0.3603  0.0029  0.0907
  900SOL     OW 3597   0.096   2.380   1.090  0.2556 -0.6397  0.1349
  900SOL    HW1 3598   0.059   2.468   1.110 -1.9309 -2.3197  0.8648
  900SOL    HW2 3599   0.088   2.364   0.995  3.1238  1.5516  0.4755
  900SOL     MW 3600   0.090   2.390   1.080  0.3455 -0.5723  0.2761
  901SOL     OW 3601   1.727   2.789   1.777 -0.1761  0.3847  0.0959
  901SOL    HW1 3602   1.815   2.744   1.744  1.2413 -1.4080  1.7999
  901SOL    HW2 3603   1.670   2.796   1.698 -1.1164  2.6778  0.4693
  901SOL     MW 3604   1.731   2.784   1.762 -0.1131  0.4507  0.3700
  902SOL     OW 3605   2.651   2.129   1.641  0.1963  0.3871 -0.1257
  902SOL    HW1 3606   2.670   2.077   1.556  2.0796  0.3064 -2.1728
  902SOL    HW2 3607   2.722   2.113   1.710 -1.2261  0.0827 -0.1355
  902SOL     MW 3608   2.663   2.120   1.639  0.2571  0.3363 -0.3971
  903SOL     OW 3609   1.504   2.649   0.604 -0.4762  0.3162 -0.7992
  903SOL    HW1 3610   1.594   2.677   0.606 -0.2901 -4.1044 -0.7119
  903SOL    HW2 3611   1.455   2.698   0.678 -1.6785 -2.3665 -1.7959
  903SOL     MW 3612   1.509   2.659   0.614 -0.6103 -0.6210 -0.9191
  904SOL     OW 3613   2.463   2.559   1.699  0.4877 -0.7362 -0.6271
  904SOL    HW1 3614   2.425   2.620   1.626  0.0356  1.0571  0.4188
  904SOL    HW2 3615   2.512   2.499   1.643 -0.1422  1.6252  0.4133
  904SOL     MW 3616   2.464   2.559   1.682  0.3449 -0.1880 -0.3518
  905SOL     OW 3617   2.307   2.457   2.099  0.5340 -0.1217 -0.0549
  905SOL    HW1 3618   2.384   2.427   2.049  0.2556 -1.4218  0.0721
  905SOL    HW2 3619   2.265   2.395   2.167 -1.6686 -0.7826  3.5542
  905SOL     MW 3620   2.312   2.445   2.101  0.2067 -0.3804  0.4380
  906SOL     OW 3621   2.501   2.514   0.802 -0.0447  0.3735 -0.4974
  906SOL    HW1 3622   2.589   2.489   0.832  2.2490  2.0664  3.3016
  906SOL    HW2 3623   2.492   2.604   0.838  0.4743  1.5258 -0.2209
  906SOL     MW 3624   2.511   2.522   0.811  0.3264  0.7489  0.0404
  907SOL     OW 3625   2.659   2.869   1.269 -0.3625 -0.2447 -0.0836
  907SOL    HW1 3626   2.715   2.897   1.339  4.5572  1.6769 -1.0060
  907SOL    HW2 3627   2.711   2.866   1.189  1.4066  0.0934  0.2998
  907SOL     MW 3628   2.673   2.872   1.268  0.5200  0.0534 -0.1547
  908SOL     OW 3629   2.727   2.435   0.034 -0.6812  0.0542 -0.0072
  908SOL    HW1 3630   2.692   2.351   0.070  1.3002 -0.6554 -0.0355
  908SOL    HW2 3631   2.685   2.507   0.086 -1.6376  1.7556  0.7160
  908SOL     MW 3632   2.717   2.434   0.046 -0.5460  0.1850  0.0844
  909SOL     OW 3633   1.734   0.134   1.235 -0.4724  0.0921  0.2501
  909SOL    HW1 3634   1.690   0.213   1.194 -0.2134 -1.1996  0.1946
  909SOL    HW2 3635   1.692   0.123   1.317 -0.7920 -0.2132 -1.5766
  909SOL     MW 3636   1.723   0.143   1.240 -0.4804 -0.1186  0.0018
  910SOL     OW 3637   2.158   1.672   0.395 -0.7769  0.1386 -0.3789
  910SOL    HW1 3638   2.106   1.593   0.379 -2.7352  0.5243 -0.5012
  910SOL    HW2 3639   2.133   1.745   0.337 -0.4572  1.3742  0.8774
  910SOL     MW 3640   2.148   1.671   0.385 -0.9931  0.3525 -0.2293
  911SOL     OW 3641   2.289   2.097   1.560  0.1525  0.4924  0.1320
  911SOL    HW1 3642   2.338   2.112   1.645 -0.8648  2.0286  2.5495
  911SOL    HW2 3643   2.312   2.172   1.496  0.6744  1.3877 -1.8966
  911SOL     MW 3644   2.299   2.109   1.563  0.0872  0.8132  0.1833
  912SOL     OW 3645   2.931   1.864   1.421  0.5174  0.3379 -0.2591
  912SOL    HW1 3646   2.965   1.889   1.325 -0.1928 -0.0926  0.2590
  912SOL    HW2 3647   2.863   1.928   1.436  0.9312  2.7312 -0.2731
  912SOL     MW 3648   2.927   1.876   1.410  0.4783  0.5969 -0.1926
  913SOL     OW 3649   2.687   3.072   0.276  0.2675 -0.7584 -0.4109
  913SOL    HW1 3650   2.778   3.040   0.274  1.6425  0.7391  0.2096
  913SOL    HW2 3651   2.632   3.003   0.242  0.0808  1.3304  0.9043
  913SOL     MW 3652   2.692   3.058   0.271  0.4243 -0.2852 -0.1555
  914SOL     OW 3653   2.675   1.823   2.960  0.7543 -0.2604 -0.6043
  914SOL    HW1 3654   2.701   1.913   2.977 -2.2512  0.5517 -2.0722
  914SOL    HW2 3655   2.589   1.808   3.002 -2.1794 -2.4473  1.6292
  914SOL     MW 3656   2.668   1.833   2.968 -0.0293 -0.4418 -0.5033
  915SOL     OW 3657   1.784   0.154   0.140  0.6335 -0.2160 -0.0642
  915SOL    HW1 3658   1.843   0.095   0.185  0.2408  1.7959 -2.2074
  915SOL    HW2 3659   1.694   0.124   0.158 -0.8184 -0.3381  0.2791
  915SOL     MW 3660   1.780   0.142   0.148  0.3901  0.0334 -0.3017
  916SOL     OW 3661   1.725   2.189   2.040 -0.0075  0.2050 -0.5772
  916SOL    HW1 3662   1.786   2.264   2.037 -0.2497  0.6971  0.4515
  916SOL    HW2 3663   1.747   2.127   1.967 -0.0347  1.0217 -0.6957
  916SOL     MW 3664   1.736   2.190   2.030 -0.0430  0.3777 -0.4571
  917SOL     OW 3665   2.515   2.269   2.583  0.6509  0.6515  0.2258
  917SOL    HW1 3666   2.496   2.300   2.669 -1.5271 -1.9811 -0.3893
  917SOL    HW2 3667   2.598   2.297   2.556 -0.7169  1.8294  0.4162
  917SOL     MW 3668   2.523   2.277   2.591  0.1830  0.4596  0.1697
  918SOL     OW 3669   2.030   1.618   2.668  0.4645 -0.4017 -0.2570
  918SOL    HW1 3670   1.947   1.654   2.629 -0.5352 -1.6112 -2.2669
  918SOL    HW2 3671   2.095   1.681   2.635 -0.2466  1.6165 -2.7178
  918SOL     MW 3672   2.028   1.631   2.658  0.2388 -0.2950 -0.8468
  919SOL     OW 3673   3.072   2.403   2.230 -0.4222  0.5671  0.2496
  919SOL    HW1 3674   3.019   2.325   2.238 -1.1679 -0.3187 -1.6889
  919SOL    HW2 3675   3.146   2.390   2.168  1.4595  0.9222 -1.6499
  919SOL     MW 3676   3.074   2.391   2.223 -0.2723  0.4971 -0.2568
  920SOL     OW 3677   2.691   2.819   3.051 -0.4091 -0.3503 -0.5625
  920SOL    HW1 3678   2.604   2.857   3.046 -0.1192 -0.0127 -0.2449
  920SOL    HW2 3679   2.713   2.769   2.979 -0.5398  0.2545  2.0682
  920SOL     MW 3680   2.682   2.818   3.041 -0.3881 -0.2260 -0.1735
  921SOL     OW 3681   2.448   2.604   2.622  0.5192  0.9134 -0.0027
  921SOL    HW1 3682   2.539   2.589   2.599  0.6417 -0.5861  2.2593
  921SOL    HW2 3683   2.434   2.545   2.697 -0.1678 -0.4281 -0.1761
  921SOL     MW 3684   2.458   2.594   2.629  0.4447  0.5385  0.2729
  922SOL     OW 3685   2.063   2.752   0.369  0.5952 -0.4421  0.0610
  922SOL    HW1 3686   2.022   2.763   0.285 -0.5131 -2.1738  2.7689
  922SOL    HW2 3687   2.051   2.656   0.390  2.3565 -3.2165 -0.3625
  922SOL     MW 3688   2.056   2.741   0.361  0.6814 -1.0366  0.3624
  923SOL     OW 3689   2.203   2.850   1.689  0.4381 -0.2250  0.1728
  923SOL    HW1 3690   2.247   2.795   1.629 -1.5974 -0.0223 -1.3251
  923SOL    HW2 3691   2.155   2.908   1.631 -0.9128 -0.0174  1.9040
  923SOL     MW 3692   2.202   2.850   1.673 -0.0087 -0.1709  0.2036
  924SOL     OW 3693   1.107   2.737   2.616 -0.5942 -0.0571 -0.8180
  924SOL    HW1 3694   1.203   2.745   2.604 -4.1393 -1.0061 -0.3461
  924SOL    HW2 3695   1.094   2.671   2.682 -0.6931 -2.0257 -0.8870
  924SOL     MW 3696   1.118   2.730   2.623 -1.0750 -0.4420 -0.7648
  925SOL     OW 3697   2.987   0.225   2.695 -0.4411  0.0527 -0.4496
  925SOL    HW1 3698   2.942   0.225   2.610 -0.2988  0.6741  1.5258
  925SOL    HW2 3699   2.970   0.314   2.733  0.9502  4.5523 -0.4967
  925SOL     MW 3700   2.979   0.237   2.689 -0.2388  0.7284 -0.1952
  926SOL     OW 3701   2.773   2.345   2.004  0.3196  0.5982 -0.2604
  926SOL    HW1 3702   2.801   2.416   2.060 -0.1541  1.1369 -3.0619
  926SOL    HW2 3703   2.793   2.362   1.912 -0.6325 -1.3575  0.1389
  926SOL     MW 3704   2.779   2.357   1.999  0.1314  0.4112 -0.5774
  927SOL     OW 3705   2.386   0.160   0.302  0.1719 -0.2424 -0.0354
  927SOL    HW1 3706   2.476   0.181   0.324 -0.9452  0.7818  1.5584
  927SOL    HW2 3707   2.384   0.140   0.206 -1.2530 -1.0713  2.0027
  927SOL     MW 3708   2.397   0.160   0.292 -0.1635 -0.2166  0.4438
  928SOL     OW 3709   2.160   2.403   1.725 -0.5433 -0.1171 -0.6130
  928SOL    HW1 3710   2.172   2.476   1.664  0.8846  0.5744 -0.0049
  928SOL    HW2 3711   2.244   2.409   1.773 -1.0708 -0.0675  0.4507
  928SOL     MW 3712   2.172   2.414   1.723 -0.4245 -0.0194 -0.3925
  929SOL     OW 3713   2.745   2.347   2.454  0.2373 -0.2699 -0.1745
  929SOL    HW1 3714   2.790   2.301   2.387 -3.7423 -2.1414  2.1542
  929SOL    HW2 3715   2.807   2.363   2.520 -0.2826  1.3973 -0.4126
  929SOL     MW 3716   2.759   2.343   2.454 -0.3564 -0.2968  0.1014
  930SOL     OW 3717   2.005   2.816   2.632 -0.3511 -0.0898  0.6283
  930SOL    HW1 3718   2.020   2.758   2.710 -0.7171 -2.6907 -0.2104
  930SOL    HW2 3719   2.067   2.883   2.643  0.3017  0.1423  2.4145
  930SOL     MW 3720   2.015   2.817   2.644 -0.3132 -0.4023  0.7533
  931SOL     OW 3721   0.028   2.793   2.479  0.2219  0.1449 -0.0050
  931SOL    HW1 3722   0.023   2.812   2.571  0.5305 -0.2523 -2.9801
  931SOL    HW2 3723   0.120   2.801   2.451  2.8519  3.3325 -0.1214
  931SOL     MW 3724   0.039   2.796   2.487  0.6096  0.5131 -0.4129
  932SOL     OW 3725   2.872   1.885   2.496 -0.5127  0.4046  0.3815
  932SOL    HW1 3726   2.939   1.954   2.512  1.7711 -0.8148  0.3600
  932SOL    HW2 3727   2.832   1.912   2.409 -1.1960 -0.7571 -1.2466
  932SOL     MW 3728   2.875   1.898   2.486 -0.3016  0.0904  0.1638
  933SOL     OW 3729   2.040   2.772   2.230  0.2205  0.2586 -0.3956
  933SOL    HW1 3730   2.133   2.821   2.244  2.3831  1.4546  0.7734
  933SOL    HW2 3731   1.981   2.844   2.200  1.0025  0.7405  0.2289
  933SOL     MW 3732   2.044   2.788   2.227  0.6090  0.4800 -0.1589
  934SOL     OW 3733   1.988   2.630   2.437  0.4250  0.3067  0.2336
  934SOL    HW1 3734   2.015   2.701   2.485  0.3838 -0.7302  0.1649
  934SOL    HW2 3735   2.005   2.666   2.349  3.2586 -1.6153  2.1003
  934SOL     MW 3736   1.994   2.644   2.432  0.7934 -0.0837  0.4708
  935SOL     OW 3737   2.697   1.572   1.806 -0.6680 -0.5034  0.2075
  935SOL    HW1 3738   2.788   1.545   1.796 -3.3762  0.2137  3.2050
  935SOL    HW2 3739   2.641   1.540   1.740 -2.1850  0.1722 -2.9970
  935SOL     MW 3740   2.701   1.564   1.796 -1.2255 -0.3197  0.1802
  936SOL     OW 3741   2.949   2.275   3.091 -0.3330 -0.4528 -0.0347
  936SOL    HW1 3742   3.034   2.299   3.131 -0.8270 -3.3140 -0.8671
  936SOL    HW2 3743   2.885   2.341   3.123 -0.0929  2.1271  0.2683
  936SOL     MW 3744   2.951   2.287   3.101 -0.3665 -0.4899 -0.1046
  937SOL     OW 3745   2.000   2.159   2.715 -0.5428 -0.5695  0.2368
  937SOL    HW1 3746   2.085   2.123   2.752  0.1364 -2.0002  0.2828
  937SOL    HW2 3747   1.994   2.118   2.629 -0.2014 -0.1100  2.4227
  937SOL     MW 3748   2.011   2.149   2.709 -0.4081 -0.6977  0.5313
  938SOL     OW 3749   2.333   1.731   1.927  0.7679 -0.5054 -0.0546
  938SOL    HW1 3750   2.319   1.755   1.837  1.9414  1.7833  0.0845
  938SOL    HW2 3751   2.310   1.813   1.972  0.8008 -1.1063 -1.1577
  938SOL     MW 3752   2.328   1.745   1.921  0.9270 -0.2827 -0.1818
  939SOL     OW 3753   2.767   1.981   2.250 -0.7231  0.2105  0.0420
  939SOL    HW1 3754   2.794   1.927   2.171 -2.4752  0.0345 -1.0159
  939SOL    HW2 3755   2.680   1.954   2.266 -0.5166 -1.4387 -2.0444
  939SOL     MW 3756   2.759   1.971   2.242 -0.9270 -0.0303 -0.3729
  940SOL     OW 3757   2.232   0.157   2.663  0.0797 -0.3127 -0.0094
  940SOL    HW1 3758   2.234   0.063   2.654 -1.2314 -0.9966 -0.5068
  940SOL    HW2 3759   2.300   0.165   2.729 -0.7228  1.8351 -0.5617
  940SOL     MW 3760   2.241   0.145   2.670 -0.1992 -0.1196 -0.1479
  941SOL     OW 3761   0.188   2.417   2.050  0.4966  0.5438 -0.4244
  941SOL    HW1 3762   0.245   2.356   2.084 -1.2345  1.0783 -3.0467
  941SOL    HW2 3763   0.170   2.388   1.965 -2.3858 -0.0464  0.0566
  941SOL     MW 3764   0.193   2.405   2.043 -0.1121  0.5365 -0.7069
  942SOL     OW 3765   2.866   2.228   2.253  0.2019 -0.2813  0.0199
  942SOL    HW1 3766   2.823   2.262   2.182  0.8923 -1.7489  0.8891
  942SOL    HW2 3767   2.854   2.132   2.250 -1.1012 -1.8753 -1.3711
  942SOL     MW 3768   2.858   2.220   2.244  0.1210 -0.6852 -0.0489
  943SOL     OW 3769   0.240   2.103   2.287 -0.3273 -0.3951  0.2121
  943SOL    HW1 3770   0.197   2.168   2.351  2.3390  2.9382  1.7157
  943SOL    HW2 3771   0.304   2.046   2.338 -2.0979  2.0216  0.5667
  943SOL     MW 3772   0.243   2.104   2.302 -0.2091  0.3636  0.4572
  944SOL     OW 3773   2.101   2.668   2.002 -0.2114  0.1226 -0.4729
  944SOL    HW1 3774   2.140   2.581   2.008 -1.0281  1.6176 -1.0768
  944SOL    HW2 3775   2.080   2.688   2.092 -0.0769  1.9396  0.3946
  944SOL     MW 3776   2.104   2.659   2.015 -0.3014  0.5596 -0.4381
  945SOL     OW 3777   2.851   2.731   2.805 -0.2530  0.2027 -0.1776
  945SOL    HW1 3778   2.793   2.660   2.793 -0.0475  3.8282 -0.4747
  945SOL    HW2 3779   2.832   2.792   2.732  1.5530  1.5112  0.2345
  945SOL     MW 3780   2.840   2.730   2.794  0.0124  0.8537 -0.1624
  946SOL     OW 3781   2.450   2.663   2.236  0.0877 -0.6346  0.0181
  946SOL    HW1 3782   2.494   2.715   2.158  3.0169  2.9285 -3.3882
  946SOL    HW2 3783   2.380   2.600   2.204 -2.5833 -0.7059 -0.8501
  946SOL     MW 3784   2.446   2.662   2.221  0.1218 -0.1739 -0.5458
  947SOL     OW 3785   2.022   0.058   0.244  0.2632  0.5434 -0.2661
  947SOL    HW1 3786   2.020  -0.028   0.218 -0.4451  1.8048  0.2869
  947SOL    HW2 3787   2.075   0.049   0.322  0.6188  1.3740 -0.2029
  947SOL     MW 3788   2.028   0.045   0.251  0.2166  0.8195 -0.1848
  948SOL     OW 3789   1.822   2.993   2.664  0.6042 -0.4662 -0.3439
  948SOL    HW1 3790   1.888   2.920   2.648 -0.1267  1.6508 -1.5226
  948SOL    HW2 3791   1.796   3.000   2.570 -0.7786  0.5250 -0.6630
  948SOL     MW 3792   1.827   2.984   2.650  0.3253 -0.0561 -0.5415
  949SOL     OW 3793   2.496   1.938   2.258  0.3594 -1.0124 -0.6305
  949SOL    HW1 3794   2.492   1.854   2.300 -0.7642  0.6389 -2.2491
  949SOL    HW2 3795   2.444   1.999   2.315 -0.2405  0.6278 -0.5256
  949SOL     MW 3796   2.488   1.935   2.271  0.1320 -0.5781 -0.8302
  950SOL     OW 3797   2.299   2.571   2.944  0.2463 -0.1667  0.6450
  950SOL    HW1 3798   2.335   2.489   2.908  0.9555 -0.6103 -0.4645
  950SOL    HW2 3799   2.200   2.590   2.917 -2.9898  0.6809 -1.5056
  950SOL     MW 3800   2.290   2.563   2.936 -0.0871 -0.1134  0.2149
  951SOL     OW 3801   3.079   2.210   2.846 -0.4089 -0.2497 -0.2802
  951SOL    HW1 3802   3.049   2.223   2.939  0.3204  0.5574  0.8904
  951SOL    HW2 3803   3.046   2.120   2.828  1.3170 -1.4534  0.6008
  951SOL     MW 3804   3.071   2.200   2.856 -0.0850 -0.3020 -0.0095
  952SOL     OW 3805   3.031   1.660   2.137  0.2000  0.1098  0.3441
  952SOL    HW1 3806   2.973   1.720   2.090 -2.3865 -0.2996  1.1165
  952SOL    HW2 3807   3.056   1.720   2.208 -3.4260  0.1609 -1.0940
  952SOL     MW 3808   3.027   1.676   2.141 -0.6197  0.0625  0.2562
  953SOL     OW 3809   1.966   1.741   2.890  0.3411 -0.8988  0.3089
  953SOL    HW1 3810   1.903   1.696   2.943 -0.5874 -0.0097 -0.0843
  953SOL    HW2 3811   2.002   1.692   2.806  1.9309 -1.6301 -2.2692
  953SOL     MW 3812   1.962   1.728   2.886  0.4284 -0.8780 -0.0832
  954SOL     OW 3813   2.471   2.144   2.938  0.4292  0.5694  0.3391
  954SOL    HW1 3814   2.387   2.123   2.900  1.6745 -2.1028  0.0647
  954SOL    HW2 3815   2.526   2.111   2.877 -2.3846 -1.5937  1.6669
  954SOL     MW 3816   2.467   2.137   2.925  0.2223 -0.0686  0.4781
  955SOL     OW 3817   1.583   1.602   2.538  1.1613  0.2622 -0.0438
  955SOL    HW1 3818   1.555   1.609   2.441  1.6025 -0.7753 -1.3573
  955SOL    HW2 3819   1.671   1.639   2.552 -1.7808  0.1370 -0.2623
  955SOL     MW 3820   1.591   1.608   2.527  0.8313  0.1088 -0.2459
  956SOL     OW 3821   2.710   2.490   2.853 -0.2118  0.3840  0.8139
  956SOL    HW1 3822   2.718   2.466   2.954  1.1339 -0.6873  3.9842
  956SOL    HW2 3823   2.779   2.439   2.809  1.1825  0.8849 -1.3231
  956SOL     MW 3824   2.721   2.480   2.860  0.1497  0.3088  0.9503
  957SOL     OW 3825   2.253   2.882   0.518 -0.2744 -0.2767  0.3746
  957SOL    HW1 3826   2.181   2.841   0.464 -0.2318 -1.4434  1.9516
  957SOL    HW2 3827   2.247   2.818   0.588  2.6686  1.1735  4.6043
  957SOL     MW 3828   2.242   2.868   0.520  0.1196 -0.2393  1.1407
  958SOL     OW 3829   2.055   2.653   2.840  0.0323  0.1771  1.1262
  958SOL    HW1 3830   2.034   2.571   2.792 -0.4013 -1.3254 -1.1842
  958SOL    HW2 3831   1.980   2.655   2.902  0.3295 -0.1984  0.3212
  958SOL     MW 3832   2.042   2.642   2.842  0.0143 -0.0707  0.7152
  959SOL     OW 3833   2.517   2.801   0.452  0.0518  0.1069 -0.3343
  959SOL    HW1 3834   2.530   2.855   0.374  2.2624  2.3206  1.2861
  959SOL    HW2 3835   2.420   2.817   0.473 -0.3548 -0.9720 -1.3223
  959SOL     MW 3836   2.506   2.810   0.444  0.2898  0.2566 -0.2509
  960SOL     OW 3837   1.939   2.344   2.317 -0.0191  0.1703 -0.6979
  960SOL    HW1 3838   1.962   2.255   2.348  1.3993  0.2503 -0.3199
  960SOL    HW2 3839   1.891   2.376   2.395  0.7792  0.5829  0.3503
  960SOL     MW 3840   1.936   2.336   2.331  0.2733  0.2353 -0.5097
  961SOL     OW 3841   2.211   2.291   2.295 -0.1515 -0.4992  0.1544
  961SOL    HW1 3842   2.120   2.316   2.279 -0.8142 -3.5007  0.5374
  961SOL    HW2 3843   2.215   2.336   2.380 -1.3672 -2.0905 -2.6245
  961SOL     MW 3844   2.200   2.300   2.304 -0.3993 -1.1052 -0.1617
  962SOL     OW 3845   2.226   2.069   2.830 -0.6439  0.6916  0.1040
  962SOL    HW1 3846   2.190   2.037   2.914 -0.9394 -1.0839  0.7372
  962SOL    HW2 3847   2.249   1.990   2.785 -1.9461 -4.3281 -0.3936
  962SOL     MW 3848   2.224   2.054   2.835 -0.8547 -0.2050  0.1219
  963SOL     OW 3849   1.813   2.522   2.158  0.4350  0.7679 -0.0370
  963SOL    HW1 3850   1.854   2.447   2.212  0.3209  0.3175 -1.2716
  963SOL    HW2 3851   1.819   2.488   2.066  1.2881 -1.7069 -0.0647
  963SOL     MW 3852   1.820   2.507   2.153  0.5325  0.3819 -0.2035
  964SOL     OW 3853   1.833   1.939   2.760  0.0296  0.5622  0.5376
  964SOL    HW1 3854   1.905   2.006   2.775  2.5596  0.8145  0.1236
  964SOL    HW2 3855   1.873   1.857   2.807  0.1481 -0.3183  2.4133
  964SOL     MW 3856   1.848   1.937   2.768  0.3790  0.4793  0.7304
  965SOL     OW 3857   2.216   2.679   0.691 -0.4157 -1.0328  0.2377
  965SOL    HW1 3858   2.242   2.587   0.673 -0.1569 -0.7034  1.6252
  965SOL    HW2 3859   2.290   2.712   0.752  2.0910 -2.3772 -2.7191
  965SOL     MW 3860   2.229   2.671   0.697 -0.0508 -1.1667  0.0306
  966SOL     OW 3861   2.672   2.608   2.374 -0.2443 -0.0678  0.3053
  966SOL    HW1 3862   2.598   2.618   2.315  2.1956 -1.6800  0.9592
  966SOL    HW2 3863   2.676   2.516   2.388 -0.1341  1.8111  2.5757
  966SOL     MW 3864   2.662   2.597   2.368  0.0921 -0.0326  0.6911
  967SOL     OW 3865   2.822   3.041   2.953 -0.3657 -0.7916  0.0849
  967SOL    HW1 3866   2.800   2.954   2.990  0.1014  1.3095 -1.8423
  967SOL    HW2 3867   2.746   3.057   2.890 -3.1212 -1.8210  0.5562
  967SOL     MW 3868   2.809   3.032   2.950 -0.6676 -0.6502 -0.1072
  968SOL     OW 3869   3.037   2.629   2.988  0.2772  0.1900 -0.7776
  968SOL    HW1 3870   2.957   2.656   2.943  1.1975  0.0947  0.0552
  968SOL    HW2 3871   3.078   2.595   2.909  1.8489 -0.2643 -0.0031
  968SOL     MW 3872   3.032   2.629   2.971  0.6060  0.1175 -0.5655
  969SOL     OW 3873   1.611   2.219   1.679 -0.1568  0.2902  0.0928
  969SOL    HW1 3874   1.687   2.163   1.705  0.8463  1.3716  0.3594
  969SOL    HW2 3875   1.566   2.233   1.761 -0.8119 -1.1223 -3.3018
  969SOL     MW 3876   1.615   2.214   1.693 -0.1109  0.2465 -0.3199
  970SOL     OW 3877   1.802   1.825   1.922  0.2673 -0.0908  0.3419
  970SOL    HW1 3878   1.837   1.758   1.985 -2.1249 -0.2084  0.9919
  970SOL    HW2 3879   1.734   1.775   1.880  1.9831 -2.1278  0.6403
  970SOL     MW 3880   1.798   1.810   1.925  0.1780 -0.3751  0.4671
  971SOL     OW 3881   1.763   3.040   2.407 -0.4238  0.5915 -0.7097
  971SOL    HW1 3882   1.807   3.011   2.326 -2.1731  0.1284  0.6699
  971SOL    HW2 3883   1.794   3.125   2.409 -0.1537  2.1339 -0.5070
  971SOL     MW 3884   1.773   3.047   2.397 -0.6189  0.7339 -0.5009
  972SOL     OW 3885   0.277   2.830   2.439 -0.3300  0.4223 -0.5642
  972SOL    HW1 3886   0.341   2.761   2.448  0.1285 -1.4698 -1.2804
  972SOL    HW2 3887   0.316   2.910   2.484  0.0246  1.0550 -1.2231
  972SOL     MW 3888   0.291   2.831   2.446 -0.2227  0.2561 -0.7457
  973SOL     OW 3889   2.584   3.036   2.145 -0.0854 -0.0130  0.2419
  973SOL    HW1 3890   2.590   2.945   2.108 -1.5116  2.1169 -0.6696
  973SOL    HW2 3891   2.594   3.090   2.065 -0.0420 -0.1634 -0.8623
  973SOL     MW 3892   2.586   3.031   2.129 -0.2679  0.2482 -0.0240
  974SOL     OW 3893   1.958   0.137   2.621 -0.6458 -0.1659 -0.3499
  974SOL    HW1 3894   2.052   0.144   2.650 -0.6486  0.7513  0.6662
  974SOL    HW2 3895   1.929   0.052   2.650  0.5190 -0.8130 -0.0638
  974SOL     MW 3896   1.966   0.126   2.628 -0.4925 -0.1303 -0.1781
  975SOL     OW 3897   2.215   2.487   2.499  0.0406  0.1054 -0.0554
  975SOL    HW1 3898   2.281   2.535   2.548 -0.7195 -0.6746  2.8064
  975SOL    HW2 3899   2.145   2.553   2.477  0.9384  2.3868  2.7115
  975SOL     MW 3900   2.215   2.502   2.503  0.0587  0.3035  0.6872
  976SOL     OW 3901   0.169   0.380   1.695 -0.3397  0.1899 -0.3500
  976SOL    HW1 3902   0.252   0.337   1.711  2.0516 -0.5820  1.5127
  976SOL    HW2 3903   0.099   0.311   1.687  1.0750  1.1975 -2.6634
  976SOL     MW 3904   0.171   0.365   1.696  0.1624  0.2210 -0.4094
  977SOL     OW 3905   1.707   2.707   2.430 -0.2677  0.1873 -0.4159
  977SOL    HW1 3906   1.798   2.678   2.419  0.0245  4.2776 -1.4704
  977SOL    HW2 3907   1.707   2.796   2.395  0.4988 -1.9597 -1.5040
  977SOL     MW 3908   1.719   2.715   2.424 -0.1280  0.4437 -0.6986
   3.10000   3.10000   3.10000
