977 TIP4P/2005f water molecules t=   0.73000 step= 730
 3908
    1SOL     OW    1   0.216   0.861   3.059  0.5420 -0.5202 -0.1143
    1SOL    HW1    2   0.191   0.851   2.968  2.6362 -2.5000  2.2790
    1SOL    HW2    3   0.183   0.776   3.085  0.6628  1.3252 -0.1440
    1SOL     MW    4   0.209   0.849   3.050  0.8343 -0.5380  0.1976
    2SOL     OW    5   0.263   2.998   1.167  1.0364  0.6710 -0.2316
    2SOL    HW1    6   0.333   3.051   1.127  0.9644  0.1390 -0.3901
    2SOL    HW2    7   0.181   3.041   1.137  0.2876  1.5234  1.5236
    2SOL     MW    8   0.262   3.011   1.158  0.9281  0.7133 -0.0209
    3SOL     OW    9   2.637   0.407   0.931 -0.1577  0.7377  0.4976
    3SOL    HW1   10   2.674   0.485   0.878  0.9985  0.5618 -0.4043
    3SOL    HW2   11   2.612   0.448   1.016  2.0764  0.4216 -1.1307
    3SOL     MW   12   2.638   0.423   0.935  0.2896  0.6728  0.1638
    4SOL     OW   13   3.053   1.702   0.606 -0.3770  0.2300  0.5571
    4SOL    HW1   14   2.966   1.727   0.574  1.4425 -2.0322  2.5245
    4SOL    HW2   15   3.113   1.691   0.531  0.8521 -0.2507 -0.0758
    4SOL     MW   16   3.050   1.704   0.592  0.0252 -0.1319  0.7332
    5SOL     OW   17   1.714   1.505   0.514  0.1130  0.1305  0.1237
    5SOL    HW1   18   1.767   1.457   0.577 -0.0161  2.3707  0.5532
    5SOL    HW2   19   1.617   1.479   0.531 -2.1277 -1.9910 -0.0638
    5SOL     MW   20   1.708   1.495   0.524 -0.1997  0.1462  0.1557
    6SOL     OW   21   0.857   1.410   0.645 -0.0308  0.2566 -0.1713
    6SOL    HW1   22   0.768   1.435   0.665 -1.3132 -0.5400 -1.1739
    6SOL    HW2   23   0.876   1.334   0.698  3.2560  2.7332  2.1593
    6SOL     MW   24   0.848   1.403   0.655  0.2336  0.4783  0.0039
    7SOL     OW   25   2.011   1.144   3.095  0.5104  0.1738 -0.8393
    7SOL    HW1   26   2.077   1.176   3.028 -0.6984 -2.1826 -2.2546
    7SOL    HW2   27   2.059   1.145   3.179  2.6969  1.4267 -2.0066
    7SOL     MW   28   2.026   1.149   3.097  0.6394  0.0282 -1.1801
    8SOL     OW   29   0.963   1.332   1.028 -0.0280 -0.0984  0.2679
    8SOL    HW1   30   1.055   1.309   1.049  3.1208 -0.1318  0.0834
    8SOL    HW2   31   0.912   1.283   1.093  2.6775 -0.5365 -1.5509
    8SOL     MW   32   0.968   1.323   1.039  0.7444 -0.1606  0.0036
    9SOL     OW   33   1.046   0.466   1.369  0.1585  0.2017  0.2966
    9SOL    HW1   34   0.971   0.406   1.354 -0.1497 -1.4611  1.7524
    9SOL    HW2   35   1.102   0.420   1.433  2.3143 -1.0832  1.0683
    9SOL     MW   36   1.043   0.452   1.376  0.4023 -0.1872  0.5905
   10SOL     OW   37   0.279   0.796   0.455  0.2044  0.0645  0.1181
   10SOL    HW1   38   0.367   0.794   0.413 -3.4989  1.1311  1.1113
   10SOL    HW2   39   0.285   0.852   0.538  1.3675 -1.3371  1.3229
   10SOL     MW   40   0.291   0.803   0.460 -0.1308  0.0203  0.4081
   11SOL     OW   41   0.769   1.164   1.699  0.1288 -0.4061  0.7709
   11SOL    HW1   42   0.837   1.136   1.767  3.4623 -1.5777 -0.0803
   11SOL    HW2   43   0.790   1.098   1.621  1.7797 -1.5424  0.9509
   11SOL     MW   44   0.781   1.152   1.698  0.7865 -0.7106  0.6824
   12SOL     OW   45   0.006   1.066   0.874  0.4932 -0.2429 -0.0745
   12SOL    HW1   46   0.052   1.144   0.918  3.0150  1.5186 -1.1837
   12SOL    HW2   47  -0.062   1.109   0.814  1.5316  0.0389  0.0067
   12SOL     MW   48   0.003   1.082   0.872  0.9629  0.0267 -0.2101
   13SOL     OW   49   1.857   1.391   1.350  0.1198 -0.5783 -0.2059
   13SOL    HW1   50   1.888   1.355   1.272 -0.5156 -0.1095  3.1766
   13SOL    HW2   51   1.862   1.488   1.347 -0.2861 -1.2545 -0.6023
   13SOL     MW   52   1.862   1.399   1.339 -0.0176 -0.6057  0.1881
   14SOL     OW   53   0.615   0.367   1.831  0.7168 -0.1202  0.3935
   14SOL    HW1   54   0.545   0.305   1.868 -1.6292  2.0599 -0.1867
   14SOL    HW2   55   0.678   0.393   1.896 -0.9266  1.1112 -1.0589
   14SOL     MW   56   0.614   0.362   1.845  0.1904  0.3299  0.1253
   15SOL     OW   57   1.971   0.455   0.961  0.1551 -0.4087  0.6425
   15SOL    HW1   58   1.964   0.528   1.022  0.4457 -1.4017 -0.6038
   15SOL    HW2   59   2.063   0.454   0.935 -0.5657 -1.4145  1.4139
   15SOL     MW   60   1.982   0.464   0.966  0.0983 -0.6724  0.5798
   16SOL     OW   61   0.228   1.844   0.328 -0.5279 -0.0234 -0.4439
   16SOL    HW1   62   0.310   1.790   0.332  1.5651  0.2338 -0.9541
   16SOL    HW2   63   0.229   1.925   0.387 -1.3772  1.0437  3.0605
   16SOL     MW   64   0.238   1.848   0.336 -0.3638  0.1513 -0.0489
   17SOL     OW   65   1.052   0.922   1.527  0.4261  0.4294  0.1400
   17SOL    HW1   66   1.106   0.892   1.597  0.6278 -0.6614  0.2145
   17SOL    HW2   67   0.962   0.908   1.550  0.0522  0.2549 -1.1517
   17SOL     MW   68   1.047   0.916   1.539  0.4034  0.2625 -0.0206
   18SOL     OW   69   0.101   1.601   0.394 -0.3788 -0.4190 -0.2240
   18SOL    HW1   70   0.132   1.684   0.362  1.3378 -0.6481  1.4456
   18SOL    HW2   71   0.065   1.561   0.313  0.6566  1.1844 -1.2094
   18SOL     MW   72   0.100   1.607   0.379 -0.0157 -0.2377 -0.1337
   19SOL     OW   73   0.117   1.293   0.974 -0.0031 -0.4524 -0.5080
   19SOL    HW1   74   0.132   1.331   0.887 -0.8834 -1.5632  3.2826
   19SOL    HW2   75   0.036   1.330   1.008  3.2332 -0.5987 -0.3730
   19SOL     MW   76   0.109   1.303   0.967  0.3078 -0.6183  0.0099
   20SOL     OW   77   0.416   2.119   1.184  0.0609 -0.5102 -0.6546
   20SOL    HW1   78   0.370   2.038   1.149  0.5029 -0.4705 -0.4701
   20SOL    HW2   79   0.354   2.152   1.256  2.7350  0.4307 -2.3350
   20SOL     MW   80   0.402   2.113   1.189  0.4720 -0.3808 -0.8520
   21SOL     OW   81   0.541   0.815   0.356  0.3163 -0.0548 -0.1135
   21SOL    HW1   82   0.619   0.799   0.415 -0.5752  2.2769  0.3798
   21SOL    HW2   83   0.582   0.801   0.273  1.1472  1.7725  0.8852
   21SOL     MW   84   0.557   0.811   0.353  0.3083  0.4939  0.0834
   22SOL     OW   85   1.460   0.629   1.106  0.3486  0.2719 -0.4581
   22SOL    HW1   86   1.466   0.563   1.041  0.1087 -1.7330 -0.8317
   22SOL    HW2   87   1.383   0.681   1.084  0.4734  0.9764  1.7903
   22SOL     MW   88   1.451   0.627   1.095  0.3334  0.1003 -0.2107
   23SOL     OW   89   0.037   0.772   0.638  0.2597 -0.6036  0.2226
   23SOL    HW1   90   0.061   0.713   0.711  3.4167  2.4651 -0.4728
   23SOL    HW2   91   0.104   0.843   0.648  0.9054  3.0987 -1.4718
   23SOL     MW   92   0.049   0.774   0.649  0.7614  0.2897 -0.0927
   24SOL     OW   93   1.988   2.204   0.103 -0.4906 -0.2426  0.1646
   24SOL    HW1   94   2.004   2.167   0.190  0.2887  2.2818  2.2313
   24SOL    HW2   95   2.028   2.140   0.042 -2.7634  0.5515 -0.9840
   24SOL     MW   96   1.996   2.191   0.106 -0.6876  0.1952  0.2857
   25SOL     OW   97   0.211   1.386   0.494  0.7319  0.0591 -1.0502
   25SOL    HW1   98   0.157   1.457   0.454  0.2600  0.4206 -0.2015
   25SOL    HW2   99   0.294   1.416   0.473 -1.8059  0.6314  2.2113
   25SOL     MW  100   0.215   1.399   0.486  0.3348  0.1823 -0.5079
   26SOL     OW  101   1.999   0.991   0.381  0.0599  0.2619  0.0966
   26SOL    HW1  102   1.911   1.012   0.427  0.3971  0.1703 -1.3338
   26SOL    HW2  103   2.029   1.074   0.333 -0.7357  0.4994 -3.0101
   26SOL     MW  104   1.991   1.005   0.381 -0.0006  0.2812 -0.5020
   27SOL     OW  105   2.068   1.423   0.235  0.2964  0.2310  1.0095
   27SOL    HW1  106   1.984   1.378   0.260 -1.8803  0.9596  1.3728
   27SOL    HW2  107   2.098   1.470   0.316  0.4380 -0.7372  0.8639
   27SOL     MW  108   2.061   1.424   0.249  0.0279  0.1994  1.0382
   28SOL     OW  109   0.407   1.078   2.030  0.5218  0.1080  0.1386
   28SOL    HW1  110   0.485   1.023   2.038  0.0144  1.2399  2.7791
   28SOL    HW2  111   0.342   1.007   2.019 -1.7649 -1.3763 -2.8691
   28SOL     MW  112   0.409   1.061   2.030  0.1531  0.0615  0.0901
   29SOL     OW  113   0.216   1.453   0.765  0.1011 -0.3973 -0.0221
   29SOL    HW1  114   0.209   1.546   0.764 -0.2460 -0.9492  1.5391
   29SOL    HW2  115   0.212   1.427   0.670  3.7453 -0.4784 -1.8215
   29SOL     MW  116   0.214   1.461   0.753  0.5362 -0.4808 -0.0535
   30SOL     OW  117   0.795   1.210   1.216 -0.6347  0.5196 -0.1780
   30SOL    HW1  118   0.707   1.206   1.256 -0.1676  0.7169  1.3244
   30SOL    HW2  119   0.866   1.199   1.285 -1.2805 -2.0528  0.8213
   30SOL     MW  120   0.793   1.208   1.231 -0.6583  0.2062  0.1521
   31SOL     OW  121   0.417   0.192   0.188 -0.4353  0.1725  0.2902
   31SOL    HW1  122   0.422   0.109   0.237 -0.9007  1.2973 -1.6247
   31SOL    HW2  123   0.440   0.159   0.100  0.2541 -2.1646  0.7080
   31SOL     MW  124   0.420   0.177   0.183 -0.4058  0.0126  0.0927
   32SOL     OW  125   2.788   0.996   1.136  0.0676 -0.0968 -0.3589
   32SOL    HW1  126   2.719   0.924   1.108 -0.3503 -1.7508  2.6626
   32SOL    HW2  127   2.877   0.967   1.107 -0.7468  0.4423  0.5013
   32SOL     MW  128   2.791   0.983   1.128 -0.0950 -0.2439  0.1532
   33SOL     OW  129   1.837   1.300   0.354 -0.1470 -0.1223 -0.1244
   33SOL    HW1  130   1.827   1.233   0.420  1.2186 -1.7457 -0.8483
   33SOL    HW2  131   1.777   1.374   0.368  0.5024 -1.1840 -0.4038
   33SOL     MW  132   1.828   1.301   0.365  0.1189 -0.4766 -0.2568
   34SOL     OW  133   1.234   1.869   1.077 -0.1063 -0.3154 -0.4601
   34SOL    HW1  134   1.146   1.905   1.093  2.3364 -1.5437 -1.3754
   34SOL    HW2  135   1.296   1.897   1.148  1.7149  1.5332  0.2289
   34SOL     MW  136   1.230   1.877   1.088  0.4563 -0.2335 -0.4899
   35SOL     OW  137   0.437   0.174   1.871  0.3898 -0.0143  0.1754
   35SOL    HW1  138   0.395   0.123   1.943  0.3273  1.9139  2.5474
   35SOL    HW2  139   0.438   0.120   1.794  0.3737  1.9486 -0.8531
   35SOL     MW  140   0.431   0.160   1.870  0.3794  0.4991  0.3527
   36SOL     OW  141   1.876   1.937   0.516  0.7601 -0.2049  0.4574
   36SOL    HW1  142   1.866   1.925   0.422  2.0313 -1.2664  2.2596
   36SOL    HW2  143   1.895   1.843   0.545  0.2002  1.1201  1.5026
   36SOL     MW  144   1.877   1.923   0.507  0.8540 -0.1701  0.8331
   37SOL     OW  145   1.759   2.008   1.022 -0.3171  0.0328  0.2473
   37SOL    HW1  146   1.705   1.957   0.959  2.1134 -1.2979  0.3671
   37SOL    HW2  147   1.697   2.055   1.074 -1.4485 -2.0930 -1.5308
   37SOL     MW  148   1.744   2.007   1.021 -0.1457 -0.4233  0.0285
   38SOL     OW  149   2.793   0.900   0.136 -0.1418  0.1190 -0.3838
   38SOL    HW1  150   2.806   0.874   0.230 -1.9207 -0.0286 -1.3945
   38SOL    HW2  151   2.871   0.871   0.087  0.5676 -0.7434 -3.3121
   38SOL     MW  152   2.805   0.893   0.142 -0.2829 -0.0142 -0.9035
   39SOL     OW  153   1.422   0.611   0.783 -0.1155 -0.5600  0.2135
   39SOL    HW1  154   1.388   0.519   0.771  0.8986  0.4803 -1.2520
   39SOL    HW2  155   1.347   0.666   0.777  1.7229  1.4195  2.1455
   39SOL     MW  156   1.408   0.606   0.781  0.2609 -0.1616  0.2750
   40SOL     OW  157   1.146   1.905   0.245 -0.2798  0.4927  0.6144
   40SOL    HW1  158   1.197   1.840   0.288 -0.7230  1.6259  0.5281
   40SOL    HW2  159   1.128   1.973   0.312  1.7476 -0.2603  0.2658
   40SOL     MW  160   1.150   1.905   0.259 -0.0708  0.5429  0.5570
   41SOL     OW  161   0.615   0.537   1.567  0.3476  0.5002  0.5442
   41SOL    HW1  162   0.704   0.577   1.557  0.2831  0.9060 -0.0278
   41SOL    HW2  163   0.618   0.489   1.649  1.0018  0.7679 -2.9785
   41SOL     MW  164   0.627   0.536   1.576  0.4254  0.5890  0.0039
   42SOL     OW  165   1.240   3.033   1.970  0.2260  0.4538 -0.5753
   42SOL    HW1  166   1.149   3.033   1.999  0.4717  1.0636  1.7606
   42SOL    HW2  167   1.277   2.944   1.979  2.1789 -1.8165 -0.1434
   42SOL     MW  168   1.233   3.021   1.975  0.5161  0.2347 -0.2101
   43SOL     OW  169   1.556   0.131   1.730  0.3106  0.0987 -0.0848
   43SOL    HW1  170   1.589   0.111   1.639  0.0882 -0.0457 -1.4519
   43SOL    HW2  171   1.460   0.100   1.723  0.0470 -1.7890 -1.6023
   43SOL     MW  172   1.548   0.124   1.717  0.2465 -0.1694 -0.4654
   44SOL     OW  173   1.208   0.752   1.061 -1.2353  0.3709 -0.2325
   44SOL    HW1  174   1.199   0.836   1.018 -0.7514  0.2613  0.7692
   44SOL    HW2  175   1.191   0.762   1.157 -4.5413  0.1696 -2.3852
   44SOL     MW  176   1.204   0.765   1.068 -1.6077  0.3299 -0.3843
   45SOL     OW  177   1.181   0.761   0.731  0.2956  0.3356 -0.1477
   45SOL    HW1  178   1.144   0.723   0.810 -1.0702 -0.8301  0.0613
   45SOL    HW2  179   1.139   0.703   0.664 -1.4676 -0.0136  1.9506
   45SOL     MW  180   1.170   0.748   0.733 -0.1172  0.1357  0.1567
   46SOL     OW  181   0.555   1.155   0.562  0.9456  0.3684 -0.1510
   46SOL    HW1  182   0.519   1.130   0.478 -1.5308  0.6866  0.1835
   46SOL    HW2  183   0.645   1.136   0.554 -2.2321  2.5089 -2.9131
   46SOL     MW  184   0.562   1.149   0.550  0.1996  0.6928 -0.4713
   47SOL     OW  185   0.158   1.948   1.816  0.0352  0.5804  1.1794
   47SOL    HW1  186   0.219   1.879   1.784 -0.4804  3.2671 -0.3289
   47SOL    HW2  187   0.141   1.931   1.908 -2.7178 -0.3327 -2.2764
   47SOL     MW  188   0.164   1.937   1.824 -0.3961  0.8144  0.5245
   48SOL     OW  189   1.110   0.532   0.956  0.1142 -0.5404 -0.1381
   48SOL    HW1  190   1.024   0.503   0.972  0.7229 -2.4968 -0.8039
   48SOL    HW2  191   1.132   0.614   1.007 -0.8363 -1.7532  1.0652
   48SOL     MW  192   1.101   0.539   0.965  0.0691 -0.9586 -0.0672
   49SOL     OW  193   1.835   0.739   1.586 -0.0740 -0.0492  0.2094
   49SOL    HW1  194   1.802   0.720   1.671  2.3663  0.2853 -0.6267
   49SOL    HW2  195   1.870   0.652   1.550  0.0493 -0.5823  1.7556
   49SOL     MW  196   1.835   0.725   1.593  0.2642 -0.0754  0.3031
   50SOL     OW  197   1.202   1.077   0.525  0.1928 -0.2798  0.1818
   50SOL    HW1  198   1.149   1.106   0.594  2.8576  0.8032 -0.3229
   50SOL    HW2  199   1.269   1.019   0.565  0.2426 -1.4211  0.2680
   50SOL     MW  200   1.204   1.073   0.540  0.5510 -0.2875  0.1266
   51SOL     OW  201   0.310   2.897   0.928  0.5306  0.1198 -0.5631
   51SOL    HW1  202   0.408   2.900   0.949  1.7936 -1.6601 -1.0332
   51SOL    HW2  203   0.274   2.910   1.013  0.8007 -1.3486 -4.1207
   51SOL     MW  204   0.318   2.899   0.942  0.7329 -0.3088 -1.0945
   52SOL     OW  205   0.818   1.844   0.446  0.0098  0.3944 -0.3808
   52SOL    HW1  206   0.759   1.917   0.445 -2.5608 -0.4769  0.9603
   52SOL    HW2  207   0.828   1.817   0.357  0.1660 -2.5717  1.2817
   52SOL     MW  208   0.812   1.850   0.434 -0.3088 -0.1119  0.0155
   53SOL     OW  209   0.437   2.145   0.640 -0.0687 -0.4408  0.1022
   53SOL    HW1  210   0.361   2.118   0.592 -1.9259  1.7361 -0.3915
   53SOL    HW2  211   0.436   2.245   0.641 -2.3348 -1.0873  0.6037
   53SOL     MW  212   0.427   2.154   0.634 -0.6127 -0.2389  0.1033
   54SOL     OW  213   2.102   0.893   0.860 -0.1171  1.1046 -0.2168
   54SOL    HW1  214   2.131   0.898   0.767  2.5506 -0.7661 -1.0849
   54SOL    HW2  215   2.034   0.823   0.862 -0.2820 -0.1770 -1.3873
   54SOL     MW  216   2.097   0.884   0.848  0.2131  0.6887 -0.4857
   55SOL     OW  217   0.558   1.534   1.636 -0.4966  0.1648 -0.0956
   55SOL    HW1  218   0.493   1.567   1.570  0.0929  2.0423 -0.0566
   55SOL    HW2  219   0.629   1.490   1.595 -1.4396  3.0521  1.0830
   55SOL     MW  220   0.559   1.533   1.622 -0.5432  0.7935  0.0651
   56SOL     OW  221   0.566   0.772   0.049  0.5390  0.0460 -0.0401
   56SOL    HW1  222   0.590   0.864   0.024  0.1800  0.9462 -0.9894
   56SOL    HW2  223   0.478   0.758   0.027  1.7936 -2.2874 -2.4861
   56SOL     MW  224   0.557   0.782   0.043  0.6572 -0.1431 -0.4881
   57SOL     OW  225   1.186   1.223   1.093 -0.5911 -0.3394 -0.4619
   57SOL    HW1  226   1.268   1.261   1.057  0.1492 -0.5258 -0.7789
   57SOL    HW2  227   1.212   1.175   1.180  1.9422 -0.4172  2.0245
   57SOL     MW  228   1.200   1.222   1.100 -0.1592 -0.3743 -0.1757
   58SOL     OW  229   0.538   1.155   1.316  0.6243 -0.1709  0.3530
   58SOL    HW1  230   0.507   1.244   1.277 -0.4327  2.2611  2.1550
   58SOL    HW2  231   0.556   1.168   1.409 -4.2914 -1.8167 -0.1395
   58SOL     MW  232   0.537   1.168   1.323 -0.1637 -0.0672  0.5258
   59SOL     OW  233   1.541   1.691   0.332 -0.1357  0.1097  0.0836
   59SOL    HW1  234   1.605   1.648   0.384  0.8230 -1.1731  0.3462
   59SOL    HW2  235   1.455   1.679   0.371  2.0931  1.9799  0.3691
   59SOL     MW  236   1.538   1.684   0.344  0.2849  0.1872  0.1559
   60SOL     OW  237   0.064   0.180   1.607 -0.8416  0.2719 -0.3934
   60SOL    HW1  238  -0.024   0.208   1.593 -2.0810  0.0325  1.5756
   60SOL    HW2  239   0.057   0.129   1.688 -0.5815 -1.2548 -0.1459
   60SOL     MW  240   0.052   0.177   1.616 -0.9708  0.0389 -0.1009
   61SOL     OW  241   2.045   1.490   3.059 -0.1452  0.5032  0.2624
   61SOL    HW1  242   2.062   1.457   3.148  0.2999  3.2579  1.1198
   61SOL    HW2  243   2.105   1.440   3.007 -1.2045 -1.0154 -0.7429
   61SOL     MW  244   2.055   1.479   3.064 -0.2262  0.6663  0.2429
   62SOL     OW  245   0.574   1.705   0.635 -0.5122 -0.3347 -0.2109
   62SOL    HW1  246   0.673   1.721   0.632  3.3234 -1.9167 -0.4347
   62SOL    HW2  247   0.563   1.613   0.661 -0.6263 -0.4351 -2.9073
   62SOL     MW  248   0.585   1.695   0.638 -0.0212 -0.5567 -0.5962
   63SOL     OW  249   1.673   0.686   0.738  0.3981 -0.3664  0.2934
   63SOL    HW1  250   1.672   0.752   0.667  1.9839  0.8932 -0.0034
   63SOL    HW2  251   1.581   0.662   0.743  1.7062 -0.4926 -0.0469
   63SOL     MW  252   1.661   0.692   0.730  0.7799 -0.2168  0.2093
   64SOL     OW  253   0.245   1.741   0.746 -0.5217  0.6906  0.0943
   64SOL    HW1  254   0.312   1.805   0.736 -0.0247 -0.9420 -0.4555
   64SOL    HW2  255   0.160   1.788   0.718 -1.0292 -0.4689  1.2058
   64SOL     MW  256   0.242   1.756   0.741 -0.5231  0.3222  0.1684
   65SOL     OW  257   1.537   2.356   0.409 -0.2657  0.0557 -0.3058
   65SOL    HW1  258   1.617   2.308   0.428  1.2854  0.1492 -1.2569
   65SOL    HW2  259   1.515   2.405   0.487  3.1159 -3.5700 -1.0225
   65SOL     MW  260   1.545   2.356   0.422  0.3851 -0.4104 -0.5258
   66SOL     OW  261   0.284   0.561   0.570 -0.4001  0.0456  0.2913
   66SOL    HW1  262   0.344   0.510   0.516 -1.2303  0.8119  0.9651
   66SOL    HW2  263   0.276   0.652   0.524  1.1977 -0.0664 -4.2687
   66SOL     MW  264   0.291   0.566   0.557 -0.2988  0.1319 -0.2215
   67SOL     OW  265   1.514   0.078   2.036  0.1277 -0.0741  0.2095
   67SOL    HW1  266   1.574   0.105   1.969  0.8933  0.4622  1.2557
   67SOL    HW2  267   1.471  -0.004   2.009  2.3441 -2.2397 -2.2237
   67SOL     MW  268   1.516   0.071   2.023  0.5212 -0.2891  0.0265
   68SOL     OW  269   0.648   0.121   2.940  0.0219  0.0515 -0.1294
   68SOL    HW1  270   0.633   0.184   2.868  0.2645  1.2694 -1.7443
   68SOL    HW2  271   0.676   0.177   3.006  2.0546 -0.5790 -0.3747
   68SOL     MW  272   0.649   0.137   2.939  0.3221  0.1290 -0.3748
   69SOL     OW  273   0.999   0.185   2.007  0.1308  0.3586  0.2573
   69SOL    HW1  274   1.100   0.196   2.006  2.0905  0.6610 -4.3800
   69SOL    HW2  275   0.982   0.096   2.030 -0.7422 -0.4743  0.1006
   69SOL     MW  276   1.010   0.174   2.010  0.2742  0.2886 -0.3752
   70SOL     OW  277   0.518   1.723   1.112 -0.5377  0.1702 -0.1458
   70SOL    HW1  278   0.578   1.676   1.174  0.8008  0.1198 -0.6870
   70SOL    HW2  279   0.570   1.775   1.054  1.2920  4.4191  1.1261
   70SOL     MW  280   0.532   1.723   1.112 -0.1197  0.7241 -0.0494
   71SOL     OW  281   1.619   0.535   1.332 -0.7106 -0.3340  0.0419
   71SOL    HW1  282   1.619   0.615   1.385  0.4512  0.7619 -1.1383
   71SOL    HW2  283   1.575   0.567   1.248 -1.4413 -1.0672  0.6612
   71SOL     MW  284   1.613   0.550   1.328 -0.6537 -0.2861 -0.0321
   72SOL     OW  285   0.760   1.793   0.990 -0.2387  0.4233  0.1713
   72SOL    HW1  286   0.771   1.822   0.897  1.7485  1.6426 -1.0269
   72SOL    HW2  287   0.765   1.697   0.987  1.9616 -0.0806 -0.3828
   72SOL     MW  288   0.762   1.784   0.977  0.3138  0.5177 -0.0599
   73SOL     OW  289   1.159   0.719   1.352  0.1497  0.6638 -0.4936
   73SOL    HW1  290   1.108   0.636   1.351 -1.7712  0.8838 -0.6855
   73SOL    HW2  291   1.109   0.778   1.404  1.5544 -0.1053  0.6299
   73SOL     MW  292   1.146   0.716   1.359  0.0816  0.5914 -0.3707
   74SOL     OW  293   2.798   0.169   0.942 -0.3901 -0.1006  0.0068
   74SOL    HW1  294   2.843   0.163   0.856  1.3923 -0.8803 -1.6607
   74SOL    HW2  295   2.773   0.264   0.940 -0.0560  0.4801 -0.9041
   74SOL     MW  296   2.801   0.180   0.930 -0.1109 -0.1269 -0.3334
   75SOL     OW  297   1.653   1.385   0.089 -0.1308 -0.0459 -0.0390
   75SOL    HW1  298   1.678   1.400   0.177 -2.4336  1.4646  0.2956
   75SOL    HW2  299   1.696   1.305   0.062  0.6137 -1.1152  2.1696
   75SOL     MW  300   1.662   1.377   0.097 -0.3364  0.0123  0.2965
   76SOL     OW  301   3.016   0.622   0.450 -0.0710  0.0943  0.6755
   76SOL    HW1  302   3.063   0.680   0.515  1.6651  1.7635 -2.9584
   76SOL    HW2  303   3.078   0.553   0.434 -1.9326  2.2369 -0.4929
   76SOL     MW  304   3.030   0.621   0.456 -0.0876  0.5972  0.0419
   77SOL     OW  305   0.788   0.555   0.401 -0.5136  0.1514  0.0568
   77SOL    HW1  306   0.792   0.568   0.308 -0.5274 -1.6496 -1.0380
   77SOL    HW2  307   0.719   0.486   0.417  0.4836 -1.1532 -0.2190
   77SOL     MW  308   0.779   0.548   0.391 -0.3838 -0.2583 -0.1240
   78SOL     OW  309   0.739   0.901   1.287 -0.1805  0.5219  0.1909
   78SOL    HW1  310   0.752   0.990   1.282  2.4311 -0.8382 -1.7240
   78SOL    HW2  311   0.686   0.881   1.213 -4.0228  0.0835  2.6651
   78SOL     MW  312   0.734   0.910   1.277 -0.3429  0.2846  0.2647
   79SOL     OW  313   1.933   1.678   0.586  0.2959 -0.2470  0.0019
   79SOL    HW1  314   1.855   1.623   0.547 -0.3219  1.1066  1.2758
   79SOL    HW2  315   1.920   1.688   0.680 -0.6212 -2.3571 -3.4272
   79SOL     MW  316   1.921   1.672   0.593  0.0934 -0.3468 -0.2825
   80SOL     OW  317   0.078   0.944   0.306  0.0871 -0.0856  0.4177
   80SOL    HW1  318  -0.004   0.909   0.347 -0.1481  1.0410 -0.0924
   80SOL    HW2  319   0.138   0.882   0.352  0.6725  0.8855  0.1320
   80SOL     MW  320   0.075   0.931   0.318  0.1333  0.1911  0.3127
   81SOL     OW  321   1.893   1.892   0.222  0.2368 -0.2793 -0.5660
   81SOL    HW1  322   1.851   1.812   0.178  1.2934 -1.2075 -0.1653
   81SOL    HW2  323   1.824   1.964   0.196  2.1875  0.9939  1.2328
   81SOL     MW  324   1.878   1.891   0.213  0.6336 -0.2338 -0.2758
   82SOL     OW  325   0.827   1.055   0.520 -0.0714 -0.6148 -0.2316
   82SOL    HW1  326   0.821   1.074   0.424 -1.8793  0.6912  0.8903
   82SOL    HW2  327   0.817   0.963   0.527  2.5735  3.5724 -0.6963
   82SOL     MW  328   0.825   1.045   0.508  0.0390  0.1099 -0.1449
   83SOL     OW  329   0.113   0.607   1.373 -0.4458  0.5976  0.8676
   83SOL    HW1  330   0.132   0.697   1.358  0.3491  1.7934  1.7460
   83SOL    HW2  331   0.175   0.590   1.442 -1.9525  0.5266 -0.6620
   83SOL     MW  332   0.124   0.617   1.380 -0.5397  0.7460  0.7817
   84SOL     OW  333   0.088   0.271   0.942  0.6700 -0.2091  0.6228
   84SOL    HW1  334   0.010   0.313   0.895  0.9688  0.0995 -2.2498
   84SOL    HW2  335   0.058   0.195   0.998 -0.1628  0.3693  2.4894
   84SOL     MW  336   0.074   0.266   0.943  0.5995 -0.0920  0.4900
   85SOL     OW  337   0.476   0.422   0.738  0.2189 -0.1824 -0.1309
   85SOL    HW1  338   0.427   0.496   0.714 -2.3267  0.4377  1.6597
   85SOL    HW2  339   0.417   0.356   0.765  1.1639  1.2405  0.3127
   85SOL     MW  340   0.461   0.423   0.739  0.0077  0.0872  0.1639
   86SOL     OW  341   1.215   0.327   1.103 -0.1198 -0.5009  0.5932
   86SOL    HW1  342   1.173   0.407   1.068 -0.7555  0.5641  1.7534
   86SOL    HW2  343   1.256   0.348   1.188  0.6161 -2.3778 -1.4544
   86SOL     MW  344   1.215   0.340   1.109 -0.1066 -0.6080  0.4761
   87SOL     OW  345   1.166   1.425   1.295  0.7473 -0.0063 -0.2181
   87SOL    HW1  346   1.149   1.489   1.226  0.8934  0.6376  2.4032
   87SOL    HW2  347   1.168   1.345   1.245  0.9464  0.3401  0.5970
   87SOL     MW  348   1.164   1.423   1.279  0.7928  0.1244  0.2353
   88SOL     OW  349   1.212   0.996   0.923 -0.3985  0.0759  0.1558
   88SOL    HW1  350   1.307   1.003   0.923  0.4634 -0.6298 -1.8247
   88SOL    HW2  351   1.175   1.055   0.987  2.1781  0.6003 -0.3270
   88SOL     MW  352   1.219   1.005   0.931  0.0552  0.0520 -0.1692
   89SOL     OW  353   1.774   0.680   0.358  0.3833 -0.1932  0.3883
   89SOL    HW1  354   1.838   0.624   0.402 -2.2775  1.4174 -0.0624
   89SOL    HW2  355   1.798   0.681   0.267  0.1493  1.5440  0.3414
   89SOL     MW  356   1.786   0.673   0.352  0.0013  0.2485  0.3227
   90SOL     OW  357   0.687   1.153   2.784 -0.2266 -0.3251 -0.3841
   90SOL    HW1  358   0.713   1.056   2.817 -0.2749 -3.6330  0.2282
   90SOL    HW2  359   0.690   1.216   2.855 -1.8249  1.4227 -0.1508
   90SOL     MW  360   0.691   1.149   2.798 -0.4438 -0.5310 -0.2725
   91SOL     OW  361   2.177   0.663   0.513 -0.4767  0.3829 -1.0119
   91SOL    HW1  362   2.232   0.697   0.439  0.0964 -0.4205 -0.7438
   91SOL    HW2  363   2.168   0.573   0.492 -1.5981  0.4500 -0.3677
   91SOL     MW  364   2.183   0.655   0.500 -0.5490  0.2857 -0.8915
   92SOL     OW  365   1.638   0.843   0.524  0.2639  0.4016  0.2817
   92SOL    HW1  366   1.546   0.834   0.536  1.4410  0.7423  0.1544
   92SOL    HW2  367   1.666   0.767   0.467  0.2093  1.0273 -2.1126
   92SOL     MW  368   1.629   0.832   0.518  0.4120  0.5291 -0.0510
   93SOL     OW  369   0.981   0.269   0.406 -0.4374 -0.3439  0.4043
   93SOL    HW1  370   0.927   0.345   0.415 -2.3802 -2.0215 -0.9420
   93SOL    HW2  371   1.027   0.284   0.324 -0.9159 -1.5149  0.6871
   93SOL     MW  372   0.980   0.281   0.396 -0.7568 -0.7198  0.2640
   94SOL     OW  373   1.831   1.432   1.616 -1.2209  0.4845  0.1142
   94SOL    HW1  374   1.867   1.411   1.527  0.5508 -1.8689 -1.6860
   94SOL    HW2  375   1.802   1.347   1.650 -0.9292 -2.4096  1.6551
   94SOL     MW  376   1.832   1.418   1.609 -0.9486 -0.2079  0.0799
   95SOL     OW  377   0.761   1.508   0.974  0.1238  0.4106 -0.7123
   95SOL    HW1  378   0.829   1.444   1.002 -2.7814 -0.0527  1.2433
   95SOL    HW2  379   0.679   1.462   0.963  0.2068  0.6807  1.5535
   95SOL     MW  380   0.759   1.493   0.976 -0.2486  0.3851 -0.1553
   96SOL     OW  381   1.235   1.847   1.642 -0.0450 -0.1556 -0.1820
   96SOL    HW1  382   1.164   1.830   1.698  0.2919 -0.4795  3.7558
   96SOL    HW2  383   1.224   1.772   1.574  0.2119  0.8288 -0.8950
   96SOL     MW  384   1.224   1.835   1.640  0.0334 -0.0684  0.2435
   97SOL     OW  385   1.284   1.435   0.799  0.5143 -0.1261 -0.3286
   97SOL    HW1  386   1.296   1.451   0.894  1.5172 -0.7711 -1.9086
   97SOL    HW2  387   1.215   1.500   0.772 -2.7433 -0.0613 -0.0274
   97SOL     MW  388   1.276   1.446   0.808  0.2168 -0.2026 -0.4973
   98SOL     OW  389   1.462   1.286   1.045 -0.0640 -0.5615 -0.4490
   98SOL    HW1  390   1.469   1.331   1.130 -0.4398  1.4516  1.9559
   98SOL    HW2  391   1.512   1.330   0.979 -1.9785  1.6266 -1.5974
   98SOL     MW  392   1.470   1.298   1.047 -0.3662 -0.0072 -0.2832
   99SOL     OW  393   1.360   0.389   1.340 -0.0787  0.1508 -0.6663
   99SOL    HW1  394   1.423   0.458   1.319  0.3252  0.9191  0.6504
   99SOL    HW2  395   1.388   0.367   1.429 -0.4639  1.3754 -0.8818
   99SOL     MW  396   1.372   0.395   1.349 -0.0762  0.4137 -0.5210
  100SOL     OW  397   1.019   1.152   1.362  0.1230 -0.1473 -0.0584
  100SOL    HW1  398   1.076   1.213   1.412  1.0266 -1.0550  0.4057
  100SOL    HW2  399   1.026   1.072   1.418 -1.5585  0.1055 -0.7779
  100SOL     MW  400   1.028   1.149   1.376  0.0204 -0.2337 -0.0921
  101SOL     OW  401   0.500   1.081   0.312 -0.2369 -0.4041 -0.3230
  101SOL    HW1  402   0.493   0.988   0.333 -1.2820  2.0056  1.9235
  101SOL    HW2  403   0.478   1.091   0.217 -1.3772  2.6128 -3.0047
  101SOL     MW  404   0.496   1.070   0.302 -0.5252  0.3119 -0.3804
  102SOL     OW  405   2.906   0.593   0.999 -0.1677  0.3059  0.4266
  102SOL    HW1  406   2.965   0.670   1.007 -1.5893 -2.4406  2.4891
  102SOL    HW2  407   2.940   0.533   1.067 -1.4119  0.5721 -0.4839
  102SOL     MW  408   2.918   0.595   1.009 -0.5194 -0.0214  0.5786
  103SOL     OW  409   1.739   0.357   1.800 -0.4393 -0.9044 -0.5757
  103SOL    HW1  410   1.691   0.294   1.751 -1.6701  2.4401  0.9026
  103SOL    HW2  411   1.772   0.314   1.874  1.6222 -1.7493  0.7646
  103SOL     MW  412   1.737   0.343   1.804 -0.3297 -0.5746 -0.2038
  104SOL     OW  413   0.111   1.735   1.537 -1.1097 -0.6330 -0.3789
  104SOL    HW1  414   0.029   1.731   1.571  2.2359  0.1083 -3.1339
  104SOL    HW2  415   0.112   1.712   1.439  2.9755  0.5584 -0.2157
  104SOL     MW  416   0.100   1.731   1.528 -0.1293 -0.3780 -0.7209
  105SOL     OW  417   0.021   1.157   0.480  0.3827 -0.1025 -0.4436
  105SOL    HW1  418   0.037   1.083   0.414 -0.9068 -2.5243  0.1147
  105SOL    HW2  419   0.103   1.212   0.488  0.0035  1.5731  1.1136
  105SOL     MW  420   0.034   1.154   0.473  0.1625 -0.2010 -0.1645
  106SOL     OW  421   0.876   0.363   1.030  0.0868 -0.1741 -0.1678
  106SOL    HW1  422   0.819   0.420   0.977 -0.7988 -0.7764 -1.3085
  106SOL    HW2  423   0.907   0.304   0.961 -1.0171  0.6001  2.3276
  106SOL     MW  424   0.873   0.363   1.014 -0.1757 -0.1514  0.0110
  107SOL     OW  425   0.773   2.171   2.967 -0.2689  0.4822 -0.3445
  107SOL    HW1  426   0.700   2.126   2.916  0.2441  2.3680 -0.1013
  107SOL    HW2  427   0.753   2.137   3.055  1.9117  0.4275 -0.1947
  107SOL     MW  428   0.761   2.161   2.972  0.0865  0.7238 -0.2927
  108SOL     OW  429   1.288   1.557   1.531 -0.5632  0.4591  0.5779
  108SOL    HW1  430   1.263   1.495   1.455  0.7010  2.1193  0.4675
  108SOL    HW2  431   1.366   1.518   1.577 -1.7501  0.7644  1.7644
  108SOL     MW  432   1.295   1.544   1.527 -0.5530  0.7185  0.7199
  109SOL     OW  433   1.984   0.782   0.178 -0.0266  0.0458  0.1199
  109SOL    HW1  434   2.071   0.797   0.141 -1.0791  1.1650 -0.2434
  109SOL    HW2  435   1.956   0.859   0.229 -2.3784  3.8849 -1.4605
  109SOL     MW  436   1.992   0.794   0.180 -0.4758  0.7000 -0.1365
  110SOL     OW  437   0.464   1.915   0.786 -0.1350  0.2386  0.2173
  110SOL    HW1  438   0.537   1.860   0.757  0.5612 -0.1771  2.0904
  110SOL    HW2  439   0.458   1.981   0.717 -3.3052  0.3800  2.3878
  110SOL     MW  440   0.473   1.917   0.773 -0.4614  0.2024  0.7508
  111SOL     OW  441   0.792   0.935   1.555  0.8275  0.1050  0.4225
  111SOL    HW1  442   0.778   0.887   1.470  1.0758 -1.1947  0.3571
  111SOL    HW2  443   0.711   0.917   1.603 -0.2844 -1.7807 -0.6247
  111SOL     MW  444   0.780   0.926   1.550  0.7135 -0.3153  0.2757
  112SOL     OW  445   1.329   1.060   1.604 -0.1243  0.2370 -0.3878
  112SOL    HW1  446   1.275   1.139   1.633  1.2943  1.9111 -0.5590
  112SOL    HW2  447   1.275   0.981   1.618  0.7967  0.6846  3.0886
  112SOL     MW  448   1.314   1.060   1.609  0.1844  0.5170  0.0483
  113SOL     OW  449   1.301   0.045   1.746 -0.1459  0.3458 -0.3243
  113SOL    HW1  450   1.296   0.002   1.834 -0.7863 -0.0956  0.9083
  113SOL    HW2  451   1.276  -0.030   1.686  0.5293  0.3738  0.1635
  113SOL     MW  452   1.297   0.029   1.750 -0.1413  0.2912 -0.0973
  114SOL     OW  453   0.330   2.857   1.946 -0.6326  0.0052 -0.1960
  114SOL    HW1  454   0.319   2.947   1.976 -0.4514  0.1159  0.5620
  114SOL    HW2  455   0.369   2.874   1.856 -4.0944  1.8654  0.0372
  114SOL     MW  456   0.334   2.871   1.938 -1.0655  0.2652 -0.0652
  115SOL     OW  457   0.514   0.827   1.138 -0.1973  0.0562 -0.0768
  115SOL    HW1  458   0.507   0.732   1.123  1.8783 -0.4342 -2.3798
  115SOL    HW2  459   0.455   0.844   1.214 -0.6296 -0.3641  3.3852
  115SOL     MW  460   0.505   0.816   1.146  0.0195 -0.0639  0.0761
  116SOL     OW  461   0.796   1.016   1.001  0.5216  0.3300 -1.0246
  116SOL    HW1  462   0.812   1.074   0.928 -0.3781  2.5342 -1.7686
  116SOL    HW2  463   0.813   1.063   1.082  1.1733 -1.9487  2.4561
  116SOL     MW  464   0.800   1.030   1.002  0.4889  0.3202 -0.6635
  117SOL     OW  465   1.124   1.204   0.780 -0.6005 -0.2394  0.3400
  117SOL    HW1  466   1.175   1.126   0.800  1.1980 -2.0433 -4.7091
  117SOL    HW2  467   1.191   1.277   0.783  1.3636  1.5664 -1.9038
  117SOL     MW  468   1.139   1.203   0.783 -0.1041 -0.2392 -0.6222
  118SOL     OW  469   3.044   2.915   1.737 -0.4635  0.7834  1.0196
  118SOL    HW1  470   3.097   2.980   1.788  3.9600 -0.6051 -0.1653
  118SOL    HW2  471   2.968   2.957   1.706  2.9707 -0.2047  1.0762
  118SOL     MW  472   3.041   2.929   1.740  0.5732  0.4698  0.8707
  119SOL     OW  473   0.474   1.434   1.212  0.3832  0.1794  0.2627
  119SOL    HW1  474   0.482   1.472   1.124 -2.8204  0.2236 -1.6115
  119SOL    HW2  475   0.375   1.422   1.213  2.7898  2.7887  1.3341
  119SOL     MW  476   0.462   1.438   1.201  0.2781  0.5295  0.1568
  120SOL     OW  477   0.277   0.703   0.976 -0.3018  0.0800 -0.4455
  120SOL    HW1  478   0.299   0.619   1.020 -0.8284 -1.1178  1.3792
  120SOL    HW2  479   0.331   0.765   1.020  0.5982 -0.2978  0.3720
  120SOL     MW  480   0.287   0.700   0.988 -0.2525 -0.1279 -0.0969
  121SOL     OW  481   1.768   1.172   1.701 -0.3854  0.9986 -0.0203
  121SOL    HW1  482   1.685   1.141   1.729 -0.4311  0.0707 -0.8684
  121SOL    HW2  483   1.801   1.104   1.636 -0.7622  1.5231 -0.4467
  121SOL     MW  484   1.761   1.159   1.696 -0.4411  0.9454 -0.1885
  122SOL     OW  485   0.114   0.560   0.789  0.2997  0.0559 -0.1734
  122SOL    HW1  486   0.184   0.530   0.730  0.2105 -0.5361 -1.0396
  122SOL    HW2  487   0.165   0.594   0.862  0.8195 -2.5267 -1.5982
  122SOL     MW  488   0.130   0.561   0.791  0.3565 -0.3629 -0.4756
  123SOL     OW  489   1.818   1.059   0.574  0.2264 -0.2067 -0.4234
  123SOL    HW1  490   1.759   0.981   0.564 -2.1116 -1.0951  0.4609
  123SOL    HW2  491   1.819   1.084   0.671  1.2406 -1.7714  0.5936
  123SOL     MW  492   1.810   1.052   0.586  0.0517 -0.5303 -0.1725
  124SOL     OW  493   0.694   0.532   0.904  0.1828  0.4217 -0.6738
  124SOL    HW1  494   0.640   0.488   0.838  2.7763 -1.2673  0.1041
  124SOL    HW2  495   0.711   0.622   0.876 -1.2187 -1.6932 -1.5152
  124SOL     MW  496   0.689   0.539   0.891  0.3401 -0.0802 -0.6822
  125SOL     OW  497   0.712   1.772   1.705  0.2550  0.7511 -0.0628
  125SOL    HW1  498   0.637   1.712   1.690  2.4330 -1.3564 -1.0467
  125SOL    HW2  499   0.678   1.857   1.709  0.6528 -2.0122  0.1808
  125SOL     MW  500   0.697   1.775   1.703  0.5949  0.1085 -0.1605
  126SOL     OW  501   2.127   1.601   1.961 -0.4242  0.3303  0.4775
  126SOL    HW1  502   2.172   1.690   1.947  0.5002  0.9985  2.4873
  126SOL    HW2  503   2.192   1.529   1.956  1.1923 -0.3694 -0.4589
  126SOL     MW  504   2.142   1.604   1.958 -0.0889  0.3262  0.6191
  127SOL     OW  505   0.692   0.806   1.861  0.0601 -0.1573 -0.3080
  127SOL    HW1  506   0.773   0.760   1.860 -2.7437  0.4831 -0.1841
  127SOL    HW2  507   0.702   0.866   1.937  0.2428  1.2953  0.0144
  127SOL     MW  508   0.704   0.807   1.871 -0.2857  0.1188 -0.2491
  128SOL     OW  509   1.837   0.751   2.915 -0.7596 -0.5596 -0.4146
  128SOL    HW1  510   1.837   0.744   2.820  0.9640  1.8747 -0.6110
  128SOL    HW2  511   1.797   0.836   2.930  0.8523 -0.6485 -1.4853
  128SOL     MW  512   1.832   0.761   2.905 -0.3196 -0.2501 -0.5818
  129SOL     OW  513   1.649   0.930   0.204  0.0335  0.1909  0.6068
  129SOL    HW1  514   1.589   0.859   0.190  1.5661  1.5620 -0.8243
  129SOL    HW2  515   1.673   0.919   0.292  0.1480 -0.6354  0.0518
  129SOL     MW  516   1.644   0.919   0.214  0.2508  0.2628  0.3447
  130SOL     OW  517   0.741   1.355   0.367 -0.4225 -0.9041 -0.8876
  130SOL    HW1  518   0.793   1.353   0.454  0.0257  0.9503  2.2254
  130SOL    HW2  519   0.802   1.412   0.319  3.4984  3.6290  2.9069
  130SOL     MW  520   0.756   1.363   0.372  0.1539 -0.0613  0.0238
  131SOL     OW  521   2.987   0.838   3.059 -0.1649 -0.3098  0.3638
  131SOL    HW1  522   3.002   0.895   2.982  0.3029  2.1412  2.5099
  131SOL    HW2  523   3.060   0.855   3.112 -1.0858  3.0011 -0.7687
  131SOL     MW  524   2.999   0.848   3.056 -0.2247  0.4504  0.4975
  132SOL     OW  525   2.723   0.169   1.213 -0.8310  0.0290  0.1218
  132SOL    HW1  526   2.750   0.164   1.118  1.6853 -0.9668  1.5056
  132SOL    HW2  527   2.640   0.118   1.228  1.2183 -0.5111  2.0581
  132SOL     MW  528   2.716   0.162   1.202 -0.2286 -0.1736  0.5598
  133SOL     OW  529   1.051   0.169   1.719  0.8783  0.0604  0.1309
  133SOL    HW1  530   1.128   0.112   1.720  0.9368 -0.5222  2.1459
  133SOL    HW2  531   1.020   0.166   1.808 -1.6532  0.5734 -0.2938
  133SOL     MW  532   1.058   0.161   1.731  0.5520  0.0512  0.3407
  134SOL     OW  533   1.420   2.508   1.431 -0.1990  0.1463  0.4858
  134SOL    HW1  534   1.365   2.579   1.401 -1.5140  0.8398 -1.3183
  134SOL    HW2  535   1.489   2.550   1.487  2.3675  3.0934  0.6368
  134SOL     MW  536   1.422   2.523   1.434 -0.0339  0.6266  0.2676
  135SOL     OW  537   3.062   1.035   2.839  0.4852 -0.1054  0.1916
  135SOL    HW1  538   3.106   1.099   2.888 -1.1541  0.0967  0.9020
  135SOL    HW2  539   2.978   1.075   2.838  1.5088 -1.2649 -0.5624
  135SOL     MW  540   3.056   1.049   2.845  0.4040 -0.2317  0.1858
  136SOL     OW  541   0.238   2.061   0.911 -0.7000  0.0893 -0.2456
  136SOL    HW1  542   0.174   2.002   0.867  1.0840  2.5180 -1.2716
  136SOL    HW2  543   0.324   2.036   0.866 -0.2612 -0.6047 -1.8122
  136SOL     MW  544   0.241   2.050   0.899 -0.4067  0.3181 -0.5877
  137SOL     OW  545   0.678   2.066   0.545  0.1444 -0.3422 -0.2009
  137SOL    HW1  546   0.729   2.062   0.629 -0.9475  2.2076 -0.2561
  137SOL    HW2  547   0.580   2.080   0.560  1.1966  0.0760  2.5664
  137SOL     MW  548   0.672   2.067   0.558  0.1391  0.0494  0.1570
  138SOL     OW  549   0.504   0.549   1.116 -0.1456  0.0350 -0.3597
  138SOL    HW1  550   0.445   0.474   1.090  0.8693 -0.6478  2.0156
  138SOL    HW2  551   0.552   0.558   1.035  1.3239 -1.6100 -0.3217
  138SOL     MW  552   0.503   0.541   1.102  0.1822 -0.2721 -0.0413
  139SOL     OW  553   2.762   0.577   1.372  0.4740 -0.0715 -0.3015
  139SOL    HW1  554   2.813   0.498   1.356 -2.6441  1.0458  1.2626
  139SOL    HW2  555   2.826   0.644   1.397 -0.9519 -1.3677 -3.0414
  139SOL     MW  556   2.777   0.576   1.373 -0.1255 -0.0951 -0.4566
  140SOL     OW  557   0.803   0.363   2.078  0.1545  0.3216 -0.2088
  140SOL    HW1  558   0.873   0.303   2.077 -1.4815  0.5004 -2.3232
  140SOL    HW2  559   0.808   0.399   2.164  1.2839 -0.0993 -0.4469
  140SOL     MW  560   0.813   0.360   2.089  0.0876  0.2897 -0.5191
  141SOL     OW  561   1.072   0.566   1.773  0.0049  0.2196 -0.3445
  141SOL    HW1  562   1.120   0.493   1.738  0.5967  2.6899 -0.4115
  141SOL    HW2  563   1.132   0.638   1.777 -0.0602 -2.7937  0.6001
  141SOL     MW  564   1.086   0.566   1.769  0.0744  0.1480 -0.2287
  142SOL     OW  565   0.865   1.141   0.769 -0.6633  0.2622 -0.1259
  142SOL    HW1  566   0.852   1.103   0.680 -2.8448 -0.4084  1.4164
  142SOL    HW2  567   0.962   1.161   0.778 -1.6539  0.8713  0.1629
  142SOL     MW  568   0.876   1.138   0.758 -1.0818  0.2541  0.1157
  143SOL     OW  569   1.746   0.787   1.090  0.1040 -0.0759 -0.0367
  143SOL    HW1  570   1.800   0.786   1.010  1.0434 -1.1034  0.9650
  143SOL    HW2  571   1.695   0.704   1.081 -2.3308 -1.7104  0.0195
  143SOL     MW  572   1.746   0.776   1.078 -0.0933 -0.4271  0.1029
  144SOL     OW  573   0.247   1.222   1.518  0.2774 -0.6882  0.2238
  144SOL    HW1  574   0.344   1.224   1.513  1.3783 -0.4461 -0.1017
  144SOL    HW2  575   0.239   1.217   1.610  2.5695 -0.4262  0.0116
  144SOL     MW  576   0.259   1.222   1.529  0.7251 -0.6217  0.1528
  145SOL     OW  577   0.256   0.416   1.076 -0.2558  0.8026  0.2538
  145SOL    HW1  578   0.265   0.361   1.160  0.7575  0.3795  4.3755
  145SOL    HW2  579   0.192   0.362   1.010 -0.4577 -1.8712  0.7080
  145SOL     MW  580   0.249   0.402   1.078 -0.1487  0.3940  0.8575
  146SOL     OW  581   0.847   1.940   1.343 -0.8657 -0.2662 -0.7659
  146SOL    HW1  582   0.875   1.945   1.249  1.9259  1.8455 -1.4056
  146SOL    HW2  583   0.757   1.924   1.328  1.1140 -0.2645 -0.9277
  146SOL     MW  584   0.839   1.938   1.329 -0.2361  0.0126 -0.8717
  147SOL     OW  585   0.385   0.388   3.013 -0.2818 -0.1048 -0.1247
  147SOL    HW1  586   0.318   0.417   3.071  0.8719 -0.5420 -0.5213
  147SOL    HW2  587   0.379   0.447   2.939 -1.6709  0.7376  0.7460
  147SOL     MW  588   0.375   0.399   3.011 -0.3129 -0.0513 -0.0622
  148SOL     OW  589   0.104   0.882   1.291  0.2670 -0.3508 -0.1660
  148SOL    HW1  590   0.203   0.887   1.301  3.1502 -0.6308  0.3168
  148SOL    HW2  591   0.072   0.918   1.370  0.3769 -1.1131 -3.2415
  148SOL     MW  592   0.113   0.888   1.303  0.6619 -0.4883 -0.5081
  149SOL     OW  593   1.366   1.180   1.323 -0.2062 -0.6928  0.1017
  149SOL    HW1  594   1.345   1.135   1.404  2.2934 -0.3581  1.3668
  149SOL    HW2  595   1.434   1.244   1.357 -0.9506  0.7905  1.1006
  149SOL     MW  596   1.372   1.182   1.338  0.0254 -0.4530  0.4004
  150SOL     OW  597   1.855   1.407   0.741 -0.7425  0.1045  0.0022
  150SOL    HW1  598   1.917   1.329   0.743  0.6487  1.2448 -0.6722
  150SOL    HW2  599   1.886   1.463   0.809 -1.0465 -0.9630 -0.3065
  150SOL     MW  600   1.867   1.404   0.750 -0.5991  0.1141 -0.1275
  151SOL     OW  601   1.658   1.814   0.842  0.0406 -0.7466 -0.7091
  151SOL    HW1  602   1.633   1.834   0.751  2.2456  2.0006 -0.4100
  151SOL    HW2  603   1.592   1.766   0.878  2.1329  1.3902 -0.1113
  151SOL     MW  604   1.646   1.811   0.835  0.6076 -0.1022 -0.5907
  152SOL     OW  605   0.723   1.375   1.497 -0.5963  0.4504 -0.5336
  152SOL    HW1  606   0.754   1.308   1.556 -0.4178  1.3955 -0.7725
  152SOL    HW2  607   0.805   1.412   1.467 -1.4717  0.4869  0.6617
  152SOL     MW  608   0.738   1.371   1.501 -0.6882  0.5799 -0.4074
  153SOL     OW  609   2.610   1.260   0.762 -0.0422 -0.5100  0.2169
  153SOL    HW1  610   2.673   1.194   0.724 -3.6244 -0.4756  2.4565
  153SOL    HW2  611   2.531   1.205   0.756 -0.3753 -0.1730 -0.4151
  153SOL     MW  612   2.608   1.244   0.756 -0.5588 -0.4610  0.4290
  154SOL     OW  613   0.364   1.765   1.736 -0.4958  0.3041  0.3021
  154SOL    HW1  614   0.356   1.721   1.652  1.6027  3.0082  1.1865
  154SOL    HW2  615   0.347   1.692   1.799  0.7376  0.8707 -1.5358
  154SOL     MW  616   0.361   1.749   1.733 -0.0562  0.7356  0.1763
  155SOL     OW  617   1.179   0.715   0.279 -0.0434 -0.6563 -0.4009
  155SOL    HW1  618   1.145   0.661   0.356 -0.9184 -0.0476 -1.7274
  155SOL    HW2  619   1.126   0.797   0.276  1.6856 -1.9088  1.3947
  155SOL     MW  620   1.168   0.719   0.289  0.0693 -0.7412 -0.3390
  156SOL     OW  621   1.587   3.033   1.046 -0.5345  0.4561  0.5466
  156SOL    HW1  622   1.621   3.107   1.092  1.4229 -1.0666  1.6995
  156SOL    HW2  623   1.573   2.963   1.113  0.0452  1.1017 -0.8209
  156SOL     MW  624   1.590   3.034   1.061 -0.1998  0.3404  0.5183
  157SOL     OW  625   1.453   1.138   0.113 -0.0455  0.1462  0.0500
  157SOL    HW1  626   1.518   1.072   0.145  2.6931 -3.4270  0.0016
  157SOL    HW2  627   1.500   1.204   0.062  1.9245 -0.5276 -0.7016
  157SOL     MW  628   1.468   1.138   0.111  0.5758 -0.4142 -0.0556
  158SOL     OW  629   0.483   1.622   2.209  0.5080 -0.5101  0.0047
  158SOL    HW1  630   0.462   1.684   2.138  1.7432  3.4505 -0.4340
  158SOL    HW2  631   0.411   1.633   2.273 -0.6823 -0.0330  0.7684
  158SOL     MW  632   0.470   1.632   2.208  0.5139  0.0754  0.0476
  159SOL     OW  633   1.259   1.716   0.401  0.4010 -0.5633  0.0799
  159SOL    HW1  634   1.241   1.621   0.375 -0.6961 -3.0293  1.0927
  159SOL    HW2  635   1.199   1.742   0.476 -1.4882 -2.2967 -1.0240
  159SOL     MW  636   1.249   1.707   0.407  0.0070 -1.1174  0.0679
  160SOL     OW  637   0.514   1.155   1.582  0.0113  0.1344 -0.5797
  160SOL    HW1  638   0.501   1.071   1.626 -0.0510 -1.5569  2.1667
  160SOL    HW2  639   0.577   1.204   1.644  2.0813 -0.3435 -1.7997
  160SOL     MW  640   0.521   1.150   1.596  0.2762 -0.1518 -0.3783
  161SOL     OW  641   0.494   2.195   2.554 -0.3405  0.7416  0.1691
  161SOL    HW1  642   0.405   2.227   2.533 -2.1845 -0.9884  1.2562
  161SOL    HW2  643   0.532   2.152   2.477  0.3242  2.2503  0.2303
  161SOL     MW  644   0.487   2.194   2.541 -0.4961  0.7124  0.3206
  162SOL     OW  645   1.071   1.782   1.855  0.4676  0.5626  0.1803
  162SOL    HW1  646   1.068   1.876   1.883 -1.2856  3.8601 -0.4382
  162SOL    HW2  647   0.976   1.751   1.868 -0.8155  1.5359 -0.5736
  162SOL     MW  648   1.058   1.790   1.860  0.0670  1.1261 -0.0008
  163SOL     OW  649   2.129   0.042   0.965 -0.0003 -0.1443 -0.5574
  163SOL    HW1  650   2.131   0.088   0.876  2.1405  0.9075 -3.6789
  163SOL    HW2  651   2.042   0.001   0.981  2.9056 -2.5517 -0.9092
  163SOL     MW  652   2.118   0.043   0.955  0.6656 -0.3232 -1.0156
  164SOL     OW  653   0.350   0.195   0.866 -0.0327 -0.3013  1.2521
  164SOL    HW1  654   0.264   0.216   0.893 -1.4213  0.0115  0.8887
  164SOL    HW2  655   0.346   0.124   0.800 -1.1315 -0.3559  0.2172
  164SOL     MW  656   0.338   0.188   0.861 -0.3609 -0.2673  1.0676
  165SOL     OW  657   1.330   1.244   0.358 -0.2249 -0.2698 -0.4165
  165SOL    HW1  658   1.273   1.188   0.414  3.1973  1.1746  0.3821
  165SOL    HW2  659   1.363   1.196   0.277  0.3304  3.5642 -1.9355
  165SOL     MW  660   1.327   1.230   0.355  0.2999  0.4266 -0.5116
  166SOL     OW  661   0.529   1.096   0.990  0.2084  0.5020  0.5208
  166SOL    HW1  662   0.497   1.030   1.056 -0.4373  0.8380  0.2583
  166SOL    HW2  663   0.623   1.080   0.989 -0.9306  1.2333 -2.1048
  166SOL     MW  664   0.537   1.085   0.999 -0.0271  0.6428  0.1397
  167SOL     OW  665   0.800   1.044   0.254  0.1191 -0.2274 -0.4608
  167SOL    HW1  666   0.709   1.060   0.248 -0.4055  0.8009  2.5871
  167SOL    HW2  667   0.840   1.102   0.181 -2.9467 -0.3291  1.1006
  167SOL     MW  668   0.793   1.054   0.243 -0.3546 -0.1052  0.1474
  168SOL     OW  669   1.647   1.675   2.958  0.1685  0.2528  0.4522
  168SOL    HW1  670   1.555   1.659   2.937 -1.4226  2.0145  2.0566
  168SOL    HW2  671   1.693   1.587   2.942  0.4848 -3.5479 -1.2348
  168SOL     MW  672   1.641   1.661   2.953  0.0003 -0.0162  0.4413
  169SOL     OW  673   0.383   0.922   1.377 -0.2439 -0.3759  0.7826
  169SOL    HW1  674   0.439   0.894   1.447 -0.5663 -0.4265 -0.4403
  169SOL    HW2  675   0.395   1.020   1.375  2.3856 -0.7076 -0.3248
  169SOL     MW  676   0.392   0.931   1.386  0.0605 -0.4263  0.4751
  170SOL     OW  677   0.977   1.487   1.503  0.4538  0.6409  0.7859
  170SOL    HW1  678   0.952   1.574   1.536 -2.2889 -0.2679  0.1701
  170SOL    HW2  679   1.024   1.509   1.419  3.2969  2.4103 -2.7803
  170SOL     MW  680   0.980   1.501   1.496  0.4671  0.7544  0.2342
  171SOL     OW  681   0.578   1.424   0.682  0.2022  0.0827  0.2398
  171SOL    HW1  682   0.522   1.417   0.769  0.7988 -0.7315  0.5354
  171SOL    HW2  683   0.565   1.340   0.637 -1.4706  0.4057  0.4575
  171SOL     MW  684   0.569   1.412   0.688  0.0602  0.0179  0.3075
  172SOL     OW  685   0.850   0.281   1.297  0.3243 -0.2929 -0.3261
  172SOL    HW1  686   0.865   0.319   1.210  1.1218 -1.3372 -2.4456
  172SOL    HW2  687   0.757   0.291   1.325 -1.1879 -2.0312  1.9370
  172SOL     MW  688   0.840   0.288   1.289  0.2300 -0.6600 -0.3072
  173SOL     OW  689   0.446   1.681   0.382  0.1497  0.5962  0.3500
  173SOL    HW1  690   0.441   1.583   0.364  2.2922  1.6865  1.2069
  173SOL    HW2  691   0.489   1.683   0.470 -3.0304  1.5231  1.0852
  173SOL     MW  692   0.451   1.668   0.391  0.0128  0.8624  0.5601
  174SOL     OW  693   1.867   0.998   1.529 -0.7427 -0.3209 -0.1331
  174SOL    HW1  694   1.849   0.912   1.562 -0.3133  2.3521  1.6468
  174SOL    HW2  695   1.822   1.014   1.444  1.0801  1.5435  2.9320
  174SOL     MW  696   1.859   0.989   1.522 -0.4455  0.2777  0.5062
  175SOL     OW  697   0.474   1.408   0.377 -0.6182  0.4563  0.5292
  175SOL    HW1  698   0.441   1.375   0.290  0.1950 -0.9283 -3.7211
  175SOL    HW2  699   0.570   1.374   0.381  0.6055  2.3904  0.8682
  175SOL     MW  700   0.482   1.399   0.366 -0.3495  0.5288  0.0132
  176SOL     OW  701   0.196   1.367   1.229  0.1972  0.2214  0.0439
  176SOL    HW1  702   0.172   1.328   1.147  0.5106  3.5690 -1.3129
  176SOL    HW2  703   0.147   1.319   1.289 -0.1211  1.0498  1.3554
  176SOL     MW  704   0.186   1.355   1.226  0.1966  0.7724  0.0379
  177SOL     OW  705   0.570   0.385   1.341  0.0322  0.8096 -0.0420
  177SOL    HW1  706   0.550   0.454   1.265  0.9751  1.9410 -0.2208
  177SOL    HW2  707   0.598   0.442   1.415 -2.4285  0.3903  0.3674
  177SOL     MW  708   0.571   0.402   1.340 -0.1681  0.9036 -0.0115
  178SOL     OW  709   0.018   0.414   2.922  0.6890  0.3332  0.5358
  178SOL    HW1  710  -0.039   0.438   2.995 -1.4586  0.2856 -1.1913
  178SOL    HW2  711  -0.042   0.425   2.851 -0.0064 -1.2283  1.9807
  178SOL     MW  712   0.002   0.418   2.922  0.3139  0.1209  0.4985
  179SOL     OW  713   1.584   1.349   1.403 -0.0056  0.2408 -0.1075
  179SOL    HW1  714   1.601   1.356   1.496  0.1257 -1.0691  0.2243
  179SOL    HW2  715   1.671   1.345   1.364  0.7526  0.1374  0.0139
  179SOL     MW  716   1.597   1.350   1.410  0.1118  0.0544 -0.0477
  180SOL     OW  717   3.020   0.207   0.476  0.5902 -0.0319 -0.2383
  180SOL    HW1  718   3.004   0.168   0.392  0.0807  3.7768  1.4417
  180SOL    HW2  719   3.083   0.276   0.460 -0.7823  0.5714  3.4197
  180SOL     MW  720   3.026   0.211   0.463  0.3419  0.5503  0.4660
  181SOL     OW  721   1.136   1.358   3.074  0.0933  0.3541  0.5468
  181SOL    HW1  722   1.203   1.423   3.093 -2.9605 -0.0616 -0.1053
  181SOL    HW2  723   1.185   1.283   3.042 -2.7266  0.2738  1.1959
  181SOL     MW  724   1.151   1.357   3.072 -0.6817  0.2886  0.5464
  182SOL     OW  725   0.526   0.888   1.670 -0.1222 -0.0498  0.0094
  182SOL    HW1  726   0.435   0.863   1.686 -0.0791 -0.9796  1.4141
  182SOL    HW2  727   0.567   0.873   1.752 -2.4207  2.0883  0.5943
  182SOL     MW  728   0.520   0.883   1.683 -0.4198  0.1096  0.2719
  183SOL     OW  729   1.530   1.550   1.218  0.6130 -0.0872  0.2459
  183SOL    HW1  730   1.454   1.607   1.237 -0.9971  0.0529  2.1465
  183SOL    HW2  731   1.545   1.503   1.305  1.8858  0.1735 -1.2216
  183SOL     MW  732   1.522   1.551   1.232  0.5685 -0.0343  0.3031
  184SOL     OW  733   0.904   0.619   1.989  0.3993  0.0065  0.1305
  184SOL    HW1  734   0.969   0.592   1.923 -1.2887  1.0432 -2.4438
  184SOL    HW2  735   0.876   0.529   2.017  0.2799 -1.3631  1.0823
  184SOL     MW  736   0.909   0.604   1.984  0.1608 -0.0374 -0.0836
  185SOL     OW  737   1.216   0.999   1.928  0.5350  0.7212  0.2316
  185SOL    HW1  738   1.275   0.932   1.968  2.2536 -0.0945 -0.3600
  185SOL    HW2  739   1.231   1.078   1.980 -0.5239 -0.9828 -2.4119
  185SOL     MW  740   1.226   1.001   1.940  0.6221  0.3888 -0.1953
  186SOL     OW  741   0.394   1.635   1.466 -0.1088 -0.3543  0.3379
  186SOL    HW1  742   0.453   1.639   1.393  0.3582  1.0042  3.3662
  186SOL    HW2  743   0.312   1.602   1.432 -0.4839  0.6718 -3.3276
  186SOL     MW  744   0.391   1.631   1.452 -0.0967 -0.0397  0.2538
  187SOL     OW  745   1.436   0.713   1.435 -0.4143 -0.1745  0.1909
  187SOL    HW1  746   1.446   0.656   1.511  0.7977 -0.6390 -0.1765
  187SOL    HW2  747   1.344   0.719   1.417  1.3986 -1.5332 -1.0386
  187SOL     MW  748   1.425   0.706   1.443 -0.0152 -0.4150 -0.0198
  188SOL     OW  749   1.956   1.138   0.825  0.3531  0.1265 -0.1612
  188SOL    HW1  750   1.934   1.171   0.908 -3.9016 -0.0833 -1.4848
  188SOL    HW2  751   1.995   1.051   0.834 -0.9006 -1.6569 -1.7694
  188SOL     MW  752   1.958   1.131   0.837 -0.3737 -0.1365 -0.5480
  189SOL     OW  753   0.729   0.797   0.809 -0.2517  0.0493  0.7902
  189SOL    HW1  754   0.643   0.839   0.785  0.1452 -0.8752 -0.8282
  189SOL    HW2  755   0.763   0.858   0.882  1.0580 -0.0663  0.4338
  189SOL     MW  756   0.722   0.810   0.816 -0.0265 -0.0879  0.5297
  190SOL     OW  757   1.874   0.252   2.060  0.3318  0.8090  0.5919
  190SOL    HW1  758   1.889   0.161   2.051  1.3945  0.7663 -1.7446
  190SOL    HW2  759   1.957   0.302   2.048 -1.3821  1.0339  0.1909
  190SOL     MW  760   1.887   0.247   2.058  0.2458  0.8331  0.2307
  191SOL     OW  761   1.512   0.930   1.223 -0.3955 -0.1817  0.2366
  191SOL    HW1  762   1.475   1.008   1.265  1.1039  0.6628 -2.4149
  191SOL    HW2  763   1.499   0.857   1.285 -2.6286  0.9042  0.2705
  191SOL     MW  764   1.505   0.931   1.237 -0.4923  0.0730 -0.1088
  192SOL     OW  765   0.572   2.063   2.802  0.0188  0.0957 -0.1341
  192SOL    HW1  766   0.530   2.103   2.725 -1.2624  3.7559 -3.3673
  192SOL    HW2  767   0.573   1.967   2.788 -2.9141  0.7282  0.0972
  192SOL     MW  768   0.567   2.056   2.790 -0.5372  0.6621 -0.5302
  193SOL     OW  769   1.044   1.573   0.791 -0.2687 -0.1891  0.7972
  193SOL    HW1  770   1.012   1.571   0.878 -1.8908  0.0254 -3.6896
  193SOL    HW2  771   0.989   1.501   0.747 -1.8374 -0.1909  1.0267
  193SOL     MW  772   1.032   1.563   0.797 -0.6897 -0.1610  0.2355
  194SOL     OW  773   0.456   1.382   0.911 -0.5139  0.3630  0.1756
  194SOL    HW1  774   0.481   1.295   0.938 -3.9345 -0.7237 -1.6394
  194SOL    HW2  775   0.373   1.384   0.866  1.0917  0.6935  0.4511
  194SOL     MW  776   0.449   1.371   0.908 -0.7534  0.2632 -0.0275
  195SOL     OW  777   1.279   1.106   2.990  0.7823  0.2301  0.0484
  195SOL    HW1  778   1.320   1.114   3.074 -1.7406 -2.4015 -3.2905
  195SOL    HW2  779   1.193   1.069   3.021 -1.3237  0.6137  0.7772
  195SOL     MW  780   1.273   1.102   3.005  0.1716 -0.0665 -0.2960
  196SOL     OW  781   2.171   1.046   0.624 -0.1895 -0.3986 -0.2885
  196SOL    HW1  782   2.116   1.017   0.548  0.3683 -3.5819 -0.7486
  196SOL    HW2  783   2.158   1.141   0.630  1.2344  0.4074  0.8478
  196SOL     MW  784   2.162   1.055   0.615  0.0720 -0.7122 -0.1993
  197SOL     OW  785   0.675   1.248   2.048  0.0357 -0.2388  0.5355
  197SOL    HW1  786   0.680   1.150   2.044 -1.3503 -3.3745 -0.1299
  197SOL    HW2  787   0.653   1.278   1.963  0.1088 -0.3511  0.0817
  197SOL     MW  788   0.673   1.239   2.037 -0.1375 -0.6674  0.3878
  198SOL     OW  789   2.978   1.371   1.069 -0.0082 -0.7120  0.1403
  198SOL    HW1  790   2.950   1.458   1.050 -1.4380 -1.2105 -0.5878
  198SOL    HW2  791   2.904   1.319   1.030 -0.5379  0.6224 -1.5202
  198SOL     MW  792   2.965   1.376   1.061 -0.2668 -0.6017 -0.1749
  199SOL     OW  793   0.524   1.349   1.839  0.1745  0.1896  0.4921
  199SOL    HW1  794   0.449   1.292   1.817 -1.7725  0.8230  3.2463
  199SOL    HW2  795   0.532   1.415   1.767 -1.2140  0.0820  0.9236
  199SOL     MW  796   0.515   1.350   1.826 -0.2656  0.2590  0.9124
  200SOL     OW  797   1.880   0.010   1.340  0.2987  0.4429  0.1235
  200SOL    HW1  798   1.853  -0.005   1.245 -1.9027 -0.6402 -1.4760
  200SOL    HW2  799   1.802   0.034   1.387 -2.4895 -0.5511 -0.0432
  200SOL     MW  800   1.866   0.011   1.334 -0.3596  0.1688 -0.1095
  201SOL     OW  801   0.956   0.221   0.820 -0.3478 -0.3725  0.1591
  201SOL    HW1  802   0.934   0.134   0.785  0.1830 -1.3202  1.5488
  201SOL    HW2  803   1.010   0.258   0.741  0.3241 -1.4376  0.9751
  201SOL     MW  804   0.961   0.214   0.805 -0.1891 -0.6380  0.4501
  202SOL     OW  805   1.510   1.599   0.951 -0.3010 -0.4613 -0.1070
  202SOL    HW1  806   1.554   1.536   0.899 -1.8146 -0.6063 -2.0094
  202SOL    HW2  807   1.542   1.591   1.044 -1.7884 -1.4810  1.1266
  202SOL     MW  808   1.520   1.590   0.956 -0.6969 -0.6150 -0.1953
  203SOL     OW  809  -0.003   0.456   1.160  0.4335  0.3445 -0.1550
  203SOL    HW1  810   0.081   0.441   1.120  0.8582 -3.4833  2.4396
  203SOL    HW2  811   0.024   0.509   1.240  0.7124 -1.0534  0.2306
  203SOL     MW  812   0.012   0.461   1.165  0.5264 -0.3449  0.2382
  204SOL     OW  813   1.046   1.798   0.588  0.1235 -0.3915  0.0458
  204SOL    HW1  814   1.023   1.712   0.633  0.7998 -1.4449  2.9445
  204SOL    HW2  815   0.961   1.814   0.543  0.5738  0.4312 -2.3514
  204SOL     MW  816   1.032   1.789   0.588  0.2721 -0.4220  0.1120
  205SOL     OW  817   1.343   0.100   1.351  0.0683 -0.3786  0.5153
  205SOL    HW1  818   1.277   0.085   1.283  2.0424 -0.3226 -1.6880
  205SOL    HW2  819   1.358   0.198   1.351 -0.9573 -1.9112  0.0424
  205SOL     MW  820   1.336   0.111   1.342  0.1934 -0.5734  0.1622
  206SOL     OW  821   0.423   3.033   1.407  0.0973 -0.3692  0.3373
  206SOL    HW1  822   0.369   2.998   1.334 -2.4038 -1.0894  0.0244
  206SOL    HW2  823   0.500   2.962   1.413 -0.6648  1.3312  0.6257
  206SOL     MW  824   0.426   3.019   1.398 -0.3333 -0.2399  0.3341
  207SOL     OW  825   0.942   1.497   0.206 -0.6716 -0.4845 -0.1269
  207SOL    HW1  826   0.915   1.589   0.198 -1.8692  0.1000 -0.6750
  207SOL    HW2  827   1.032   1.508   0.229  1.5830  0.0638 -1.2382
  207SOL     MW  828   0.950   1.510   0.208 -0.5321 -0.3350 -0.3458
  208SOL     OW  829   0.700   1.628   1.313  0.5167  0.0099 -0.1269
  208SOL    HW1  830   0.740   1.671   1.387 -0.8283  0.5734  0.6372
  208SOL    HW2  831   0.691   1.538   1.337 -1.9384  1.3475  0.9603
  208SOL     MW  832   0.704   1.622   1.326  0.0153  0.2608  0.1173
  209SOL     OW  833   1.571   0.526   2.916 -0.3408  0.2179  0.6723
  209SOL    HW1  834   1.631   0.589   2.951  0.1237  0.7250 -0.2484
  209SOL    HW2  835   1.629   0.449   2.890 -3.6327  1.0609  0.8881
  209SOL     MW  836   1.587   0.524   2.917 -0.7138  0.3960  0.5793
  210SOL     OW  837   1.593   1.372   0.812  0.4017 -0.5892 -0.5252
  210SOL    HW1  838   1.685   1.387   0.781  1.4924  0.4812  0.3788
  210SOL    HW2  839   1.534   1.372   0.732 -1.0595  1.2916 -0.7973
  210SOL     MW  840   1.597   1.374   0.798  0.3529 -0.1998 -0.4418
  211SOL     OW  841   1.640   0.381   0.968  0.0133 -0.4344 -0.4609
  211SOL    HW1  842   1.622   0.380   0.875  1.5155 -0.5242  2.6317
  211SOL    HW2  843   1.733   0.395   0.966  0.6834  2.4993  1.8953
  211SOL     MW  844   1.650   0.382   0.955  0.2999 -0.0592  0.2580
  212SOL     OW  845   0.195   1.093   0.086  0.1972 -0.3142  0.4843
  212SOL    HW1  846   0.145   1.054   0.161  1.7565 -2.1763 -0.9796
  212SOL    HW2  847   0.214   1.012   0.036 -1.7047  0.1926 -1.0162
  212SOL     MW  848   0.191   1.077   0.089  0.1520 -0.4930  0.0932
  213SOL     OW  849   0.452   1.685   3.034  0.9635  0.0974  0.1579
  213SOL    HW1  850   0.459   1.733   3.117 -0.7470 -2.2366  0.2749
  213SOL    HW2  851   0.519   1.726   2.969  2.5121  0.4542 -0.7010
  213SOL     MW  852   0.462   1.696   3.037  0.9422 -0.1635  0.0600
  214SOL     OW  853   0.583   0.293   2.230 -0.9773  0.0800  0.7555
  214SOL    HW1  854   0.519   0.364   2.207 -2.1502  2.7378 -1.1251
  214SOL    HW2  855   0.652   0.290   2.161  1.3325  0.8594 -1.1119
  214SOL     MW  856   0.584   0.302   2.218 -0.8273  0.5335  0.2610
  215SOL     OW  857   0.513   0.681   2.669  0.2684  0.5112 -0.2593
  215SOL    HW1  858   0.516   0.656   2.576  1.1033  0.7144 -2.7918
  215SOL    HW2  859   0.434   0.648   2.716 -2.6063  4.0404  1.6933
  215SOL     MW  860   0.503   0.673   2.663 -0.0007  1.0037 -0.3358
  216SOL     OW  861   2.950   3.077   2.647 -0.7169 -0.1098  0.0080
  216SOL    HW1  862   2.910   3.064   2.736 -2.9258  0.8965  1.2839
  216SOL    HW2  863   2.922   3.173   2.631 -1.3898  3.1954  0.8525
  216SOL     MW  864   2.941   3.088   2.657 -1.0971  0.4590  0.2878
  217SOL     OW  865   0.917   1.208   0.038  0.3291 -0.7785  0.5537
  217SOL    HW1  866   0.978   1.151  -0.003  0.7674 -0.3225  1.0336
  217SOL    HW2  867   0.967   1.279   0.077  1.0824  0.4071  0.5061
  217SOL     MW  868   0.931   1.210   0.038  0.4863 -0.5619  0.6107
  218SOL     OW  869   0.911   1.326   2.535  0.5856  0.3578 -0.3477
  218SOL    HW1  870   0.912   1.250   2.592  1.1374  1.4575 -0.3233
  218SOL    HW2  871   0.998   1.358   2.541 -0.2295 -1.1887  0.7494
  218SOL     MW  872   0.923   1.320   2.543  0.5509  0.2988 -0.1997
  219SOL     OW  873   1.093   0.482   2.614 -0.1137 -0.2831  0.1534
  219SOL    HW1  874   1.184   0.511   2.613  0.0936 -0.2579  1.7497
  219SOL    HW2  875   1.040   0.505   2.535  2.6021 -0.8882 -1.1345
  219SOL     MW  876   1.098   0.489   2.603  0.2720 -0.3596  0.1941
  220SOL     OW  877   1.781   0.450   2.231 -0.7374  0.0393  0.1248
  220SOL    HW1  878   1.725   0.513   2.184 -1.2687  1.1973  3.0686
  220SOL    HW2  879   1.777   0.368   2.180  0.1431 -3.5259 -0.0207
  220SOL     MW  880   1.773   0.448   2.218 -0.6913 -0.2783  0.4940
  221SOL     OW  881   0.351   1.341   2.903 -0.9430 -0.0310  0.2826
  221SOL    HW1  882   0.374   1.243   2.900  2.8927 -2.3478 -1.8017
  221SOL    HW2  883   0.400   1.374   2.827 -0.0757 -0.9049 -0.4982
  221SOL     MW  884   0.360   1.332   2.893 -0.3225 -0.4519 -0.0954
  222SOL     OW  885   0.375   0.919   2.670  0.8418  0.4441  0.0202
  222SOL    HW1  886   0.344   0.957   2.588  2.8587 -0.2762  1.5293
  222SOL    HW2  887   0.455   0.876   2.649 -1.5672 -0.6954 -0.3217
  222SOL     MW  888   0.381   0.918   2.656  0.7900  0.1987  0.1742
  223SOL     OW  889   0.017   2.079   2.607 -0.1000  0.3236 -0.8061
  223SOL    HW1  890   0.081   2.005   2.622  1.1583 -0.1997  0.1716
  223SOL    HW2  891   0.078   2.133   2.555  0.0872 -0.1257  0.3966
  223SOL     MW  892   0.033   2.076   2.602  0.0907  0.1953 -0.5184
  224SOL     OW  893   1.539   0.817   2.603  0.5630 -0.1068 -0.1302
  224SOL    HW1  894   1.505   0.850   2.689 -0.7661 -1.3226 -0.9715
  224SOL    HW2  895   1.538   0.894   2.544 -1.7726  1.7433 -2.7611
  224SOL     MW  896   1.535   0.832   2.606  0.0795 -0.0231 -0.5884
  225SOL     OW  897   2.950   1.503   2.304 -0.4498 -0.2679  0.0213
  225SOL    HW1  898   3.008   1.569   2.263 -1.3505  2.7570  1.0637
  225SOL    HW2  899   2.901   1.551   2.371 -0.4522  0.5502 -2.9598
  225SOL     MW  900   2.951   1.518   2.307 -0.5689  0.2391 -0.2345
  226SOL     OW  901   0.466   1.427   2.661 -0.4093  0.2112  0.7783
  226SOL    HW1  902   0.559   1.442   2.656  2.3188 -0.7402  0.6377
  226SOL    HW2  903   0.421   1.510   2.663  0.4411 -1.2674  1.9434
  226SOL     MW  904   0.472   1.440   2.661  0.0628 -0.1094  0.9135
  227SOL     OW  905   0.427   1.089   2.874  0.5832 -0.0225  0.2338
  227SOL    HW1  906   0.506   1.130   2.826  1.6279  0.4432 -0.9904
  227SOL    HW2  907   0.385   1.042   2.807  1.0784 -1.1180 -0.9891
  227SOL     MW  908   0.432   1.089   2.859  0.7864 -0.1056 -0.0891
  228SOL     OW  909   0.727   0.981   2.051 -0.4461  0.3328  0.2866
  228SOL    HW1  910   0.817   1.011   2.015 -2.9432 -0.8406  1.6093
  228SOL    HW2  911   0.751   0.920   2.124  1.2922 -0.3247  0.2002
  228SOL     MW  912   0.742   0.977   2.056 -0.5462  0.0912  0.4497
  229SOL     OW  913   0.157   0.592   0.033  0.3936  0.2972 -0.1373
  229SOL    HW1  914   0.127   0.558  -0.053  1.0436  1.1955 -2.4934
  229SOL    HW2  915   0.147   0.524   0.100 -0.3286  3.1163  2.8532
  229SOL     MW  916   0.152   0.579   0.030  0.3841  0.7877 -0.0536
  230SOL     OW  917   1.772   1.378   2.022  0.0447  0.2897 -0.0442
  230SOL    HW1  918   1.748   1.357   2.110 -0.7710 -1.8948 -0.8619
  230SOL    HW2  919   1.842   1.318   1.994 -0.1462 -0.7522  1.6400
  230SOL     MW  920   1.778   1.367   2.030 -0.0881 -0.1360  0.0701
  231SOL     OW  921   2.776   1.323   2.202  0.0990  0.4020 -0.6105
  231SOL    HW1  922   2.853   1.378   2.218 -1.3502 -2.0990  0.8191
  231SOL    HW2  923   2.704   1.381   2.166 -1.4555 -1.2687 -3.7005
  231SOL     MW  924   2.777   1.338   2.200 -0.2973 -0.1484 -0.8295
  232SOL     OW  925   2.234   0.807   2.115 -0.0733  0.1070 -0.1188
  232SOL    HW1  926   2.170   0.852   2.055  2.4381 -1.4663  1.4753
  232SOL    HW2  927   2.219   0.842   2.202 -0.5115 -0.1434 -0.1038
  232SOL     MW  928   2.223   0.818   2.118  0.2002 -0.1336  0.0935
  233SOL     OW  929   2.042   0.464   1.950 -0.3332 -0.3143  0.1298
  233SOL    HW1  930   2.118   0.437   1.901 -0.2730  1.9282  2.2966
  233SOL    HW2  931   2.091   0.493   2.029  0.7578  0.7866 -2.2268
  233SOL     MW  932   2.059   0.465   1.954 -0.1813  0.1268  0.1047
  234SOL     OW  933   0.282   1.011   2.441  0.3843  0.0909  0.7463
  234SOL    HW1  934   0.210   1.053   2.390 -0.1827  1.0893 -0.4248
  234SOL    HW2  935   0.361   1.060   2.407  0.4522 -1.4911  1.2912
  234SOL     MW  936   0.283   1.023   2.430  0.3185  0.0139  0.6637
  235SOL     OW  937   1.149   3.047   2.719 -0.0828 -0.6654 -0.1809
  235SOL    HW1  938   1.155   3.005   2.811 -0.2733 -0.5904 -0.8278
  235SOL    HW2  939   1.155   3.143   2.738  1.1573 -0.8012  0.3430
  235SOL     MW  940   1.150   3.054   2.734  0.0557 -0.6734 -0.1971
  236SOL     OW  941   2.940   0.525   0.002 -0.3623  0.1172  0.0912
  236SOL    HW1  942   2.845   0.527  -0.029  1.0878 -0.3679  0.8487
  236SOL    HW2  943   2.970   0.616   0.002 -0.1128  0.8288 -1.5930
  236SOL     MW  944   2.931   0.537  -0.002 -0.1381  0.1471 -0.0310
  237SOL     OW  945   1.939   1.070   2.223  0.2713  1.1697  0.4283
  237SOL    HW1  946   1.947   1.066   2.131  0.5593 -0.3981  2.5617
  237SOL    HW2  947   1.859   1.116   2.240  0.1633 -1.9166  4.4097
  237SOL     MW  948   1.929   1.076   2.213  0.2951  0.5557  1.2351
  238SOL     OW  949   1.086   1.786   2.993 -0.3382 -0.0612 -0.4027
  238SOL    HW1  950   1.047   1.699   2.974 -1.8698  1.5634  0.1131
  238SOL    HW2  951   1.177   1.753   3.005  1.5190  0.4327  1.4715
  238SOL     MW  952   1.093   1.770   2.992 -0.2952  0.2183 -0.0874
  239SOL     OW  953   1.257   1.372   2.356  0.0400 -0.0351 -0.5265
  239SOL    HW1  954   1.241   1.432   2.437 -0.9136  1.9032  0.1655
  239SOL    HW2  955   1.239   1.282   2.401 -1.6361 -3.6231  2.3057
  239SOL     MW  956   1.252   1.368   2.373 -0.3070 -0.2527 -0.0615
  240SOL     OW  957   0.734   0.811   2.267  0.3716  0.4295  0.3548
  240SOL    HW1  958   0.740   0.867   2.344 -0.8761 -0.5724 -0.1261
  240SOL    HW2  959   0.819   0.763   2.273 -0.9572  0.4767 -0.7782
  240SOL     MW  960   0.746   0.812   2.278  0.0317  0.3035  0.1419
  241SOL     OW  961   0.641   0.392   0.000 -0.4464  0.2090  0.0486
  241SOL    HW1  962   0.664   0.472   0.046 -2.2082  0.1076 -1.5830
  241SOL    HW2  963   0.544   0.401  -0.023  0.1225  1.9594 -3.0809
  241SOL     MW  964   0.631   0.403   0.003 -0.6038  0.4266 -0.5796
  242SOL     OW  965   1.491   1.687   2.362  0.6477 -0.3249  0.7803
  242SOL    HW1  966   1.445   1.775   2.368 -3.3805  1.4253  0.4099
  242SOL    HW2  967   1.425   1.633   2.312 -0.6983 -0.4247  1.8515
  242SOL     MW  968   1.476   1.692   2.356 -0.0614 -0.1072  0.8728
  243SOL     OW  969   1.034   0.246   2.457  0.0147 -0.0317  0.5495
  243SOL    HW1  970   1.108   0.245   2.394  0.4139 -0.0418 -1.3252
  243SOL    HW2  971   1.033   0.322   2.516  0.0210 -0.2541  1.9347
  243SOL     MW  972   1.043   0.256   2.456  0.0682 -0.0624  0.4849
  244SOL     OW  973   0.245   0.739   2.349 -0.1621  0.2281 -0.2744
  244SOL    HW1  974   0.256   0.832   2.368  0.1115  0.9790 -0.3277
  244SOL    HW2  975   0.332   0.704   2.355  2.4897  1.9409 -0.5538
  244SOL     MW  976   0.258   0.747   2.352  0.2239  0.5531 -0.3183
  245SOL     OW  977   1.279   0.234   2.323 -0.2468 -0.1795  0.0132
  245SOL    HW1  978   1.327   0.149   2.324 -1.5705 -4.1932 -1.8537
  245SOL    HW2  979   1.343   0.297   2.358  1.6992  1.1579  1.3282
  245SOL     MW  980   1.294   0.231   2.328 -0.1647 -0.5326 -0.0596
  246SOL     OW  981   1.184   1.224   2.145  0.1851 -0.5797  0.4156
  246SOL    HW1  982   1.134   1.152   2.194  1.5315 -2.4264  3.1709
  246SOL    HW2  983   1.205   1.292   2.204 -2.0695 -1.5881 -0.7999
  246SOL     MW  984   1.180   1.223   2.159  0.0653 -0.9564  0.6187
  247SOL     OW  985   0.772   0.585   0.133 -0.4294 -0.1137  0.5326
  247SOL    HW1  986   0.712   0.653   0.100  1.0576 -0.0802  1.5895
  247SOL    HW2  987   0.865   0.598   0.111  1.1339 -0.7679  0.3681
  247SOL     MW  988   0.777   0.596   0.126 -0.0269 -0.1956  0.6503
  248SOL     OW  989   0.476   1.208   2.443 -0.1272  0.2206  0.4340
  248SOL    HW1  990   0.491   1.255   2.358  1.1953 -0.7134  1.1167
  248SOL    HW2  991   0.450   1.280   2.503  0.0395 -0.7729  2.3660
  248SOL     MW  992   0.474   1.224   2.440  0.0693 -0.0338  0.7790
  249SOL     OW  993   0.147   1.842   2.718  0.5356  0.1940 -0.0132
  249SOL    HW1  994   0.129   1.761   2.661 -0.5731 -0.1841  1.4203
  249SOL    HW2  995   0.149   1.815   2.813 -0.1460 -0.0390  3.4729
  249SOL     MW  996   0.145   1.827   2.723  0.2994  0.1134  0.6359
  250SOL     OW  997   2.179   0.864   2.389 -0.0930  0.3128 -0.8302
  250SOL    HW1  998   2.249   0.792   2.395  0.5544 -1.2244  1.1928
  250SOL    HW2  999   2.221   0.948   2.407 -0.5396 -0.5969 -1.8806
  250SOL     MW 1000   2.194   0.865   2.393 -0.0665 -0.0100 -0.7019
  251SOL     OW 1001   0.148   0.934   2.035 -0.1873 -0.4474 -0.7177
  251SOL    HW1 1002   0.103   0.916   2.119 -0.3349 -1.7267  2.2764
  251SOL    HW2 1003   0.151   0.849   1.984 -2.5288 -1.3947  1.9717
  251SOL     MW 1004   0.142   0.921   2.039 -0.5157 -0.7412  0.0322
  252SOL     OW 1005   1.708   0.989   2.873  0.4849 -0.0760 -0.5389
  252SOL    HW1 1006   1.734   1.052   2.944  1.7378 -4.0738  0.5361
  252SOL    HW2 1007   1.771   0.992   2.797  1.1511  2.0991 -1.1035
  252SOL     MW 1008   1.720   0.998   2.872  0.7381 -0.3165 -0.4715
  253SOL     OW 1009   1.213   1.770   2.557  0.6134  0.0543 -0.0544
  253SOL    HW1 1010   1.168   1.771   2.472  0.5089  1.3552 -1.4120
  253SOL    HW2 1011   1.162   1.835   2.595 -0.2237 -1.4687 -3.1366
  253SOL     MW 1012   1.200   1.779   2.551  0.4892  0.0250 -0.6402
  254SOL     OW 1013   1.028   1.028   2.275  0.4269 -0.5200 -0.1617
  254SOL    HW1 1014   1.023   0.938   2.243 -0.0737  1.1518 -0.6024
  254SOL    HW2 1015   0.940   1.072   2.275  1.7629 -2.9912  0.1809
  254SOL     MW 1016   1.016   1.022   2.271  0.5371 -0.6255 -0.1746
  255SOL     OW 1017   0.813   2.550   2.223 -0.1946  0.7742  0.0050
  255SOL    HW1 1018   0.755   2.485   2.261 -0.1075 -0.5215 -0.4171
  255SOL    HW2 1019   0.902   2.528   2.255  0.1128 -1.3213  2.4354
  255SOL     MW 1020   0.817   2.539   2.232 -0.1426  0.3267  0.2700
  256SOL     OW 1021   1.228   2.773   2.837  0.2126 -0.9717  0.2370
  256SOL    HW1 1022   1.219   2.695   2.793 -0.1753 -1.3787  3.8533
  256SOL    HW2 1023   1.321   2.791   2.816 -0.3335  1.8528 -1.4782
  256SOL     MW 1024   1.239   2.765   2.828  0.0894 -0.6527  0.4878
  257SOL     OW 1025   0.113   1.932   0.096 -0.6283 -0.4491 -0.0420
  257SOL    HW1 1026   0.147   1.892   0.174 -0.6085 -1.6816 -2.2335
  257SOL    HW2 1027   0.129   1.866   0.024  0.7313 -0.5714 -0.1923
  257SOL     MW 1028   0.120   1.918   0.097 -0.4463 -0.6279 -0.3510
  258SOL     OW 1029   0.694   1.018   2.469 -0.4988  0.2453 -0.2978
  258SOL    HW1 1030   0.688   1.087   2.410 -1.2894 -0.9820  2.0974
  258SOL    HW2 1031   0.622   1.041   2.524 -4.0751 -2.7910  0.4038
  258SOL     MW 1032   0.684   1.030   2.468 -1.0750 -0.3172  0.1108
  259SOL     OW 1033   0.762   0.467   2.376  0.0939 -0.5394  0.2369
  259SOL    HW1 1034   0.688   0.525   2.387  0.9515 -1.9330 -0.0466
  259SOL    HW2 1035   0.715   0.387   2.357  0.1194 -0.3928  2.1207
  259SOL     MW 1036   0.746   0.464   2.375  0.2104 -0.7040  0.4481
  260SOL     OW 1037   0.526   0.133   1.607 -0.6383  0.1401  0.1210
  260SOL    HW1 1038   0.514   0.078   1.530  0.7703  0.6786 -0.2813
  260SOL    HW2 1039   0.622   0.123   1.631 -2.8434 -0.4087  1.6747
  260SOL     MW 1040   0.537   0.124   1.600 -0.7434  0.1387  0.2729
  261SOL     OW 1041   1.293   0.744   2.018  0.4742  0.5011  0.1787
  261SOL    HW1 1042   1.292   0.740   2.115  0.4098  0.6579 -0.9702
  261SOL    HW2 1043   1.323   0.656   1.995 -2.8026  1.5460 -0.2646
  261SOL     MW 1044   1.296   0.732   2.028  0.0334  0.6596 -0.0313
  262SOL     OW 1045   1.108   0.308   0.151 -0.0890  0.3764  0.0883
  262SOL    HW1 1046   1.203   0.295   0.140 -1.1933  0.8894  1.3090
  262SOL    HW2 1047   1.069   0.244   0.095  1.6057 -0.1690  0.9430
  262SOL     MW 1048   1.115   0.298   0.142 -0.0111  0.3721  0.3621
  263SOL     OW 1049   0.434   3.064   2.522 -0.2543  1.1392 -1.0215
  263SOL    HW1 1050   0.360   3.125   2.528  0.7926  0.8690  2.3371
  263SOL    HW2 1051   0.469   3.078   2.434 -0.4782 -1.1296 -0.7009
  263SOL     MW 1052   0.429   3.074   2.511 -0.1457  0.8042 -0.5361
  264SOL     OW 1053   1.523   1.276   1.934 -0.1770  0.0716 -0.2383
  264SOL    HW1 1054   1.486   1.227   2.004  1.3497 -0.0382 -1.0101
  264SOL    HW2 1055   1.606   1.315   1.966 -1.4662 -1.3587  0.0463
  264SOL     MW 1056   1.529   1.275   1.947 -0.1457 -0.1316 -0.3026
  265SOL     OW 1057   0.666   2.799   2.269 -0.0812  0.1556  0.4794
  265SOL    HW1 1058   0.721   2.729   2.227 -0.0306 -0.6760 -2.2443
  265SOL    HW2 1059   0.680   2.771   2.358 -0.0371  0.9579 -2.7911
  265SOL     MW 1060   0.675   2.786   2.275 -0.0687  0.1517 -0.3115
  266SOL     OW 1061   1.015   0.738   2.219 -0.4209 -0.4653  0.2379
  266SOL    HW1 1062   1.019   0.728   2.123  0.3060  2.2892  1.9031
  266SOL    HW2 1063   1.107   0.721   2.236  1.0510 -1.2712 -1.7268
  266SOL     MW 1064   1.028   0.735   2.208 -0.1308 -0.2082  0.1984
  267SOL     OW 1065   1.371   1.686   2.755  0.4724  0.4920  0.6076
  267SOL    HW1 1066   1.448   1.660   2.699  0.5622 -0.5220  0.3770
  267SOL    HW2 1067   1.318   1.741   2.690 -1.9474 -0.4738  1.8263
  267SOL     MW 1068   1.374   1.689   2.739  0.1650  0.2308  0.7379
  268SOL     OW 1069   0.278   0.833   1.747 -0.2152  0.0952 -0.4520
  268SOL    HW1 1070   0.198   0.870   1.700 -1.1789 -1.0548 -0.1748
  268SOL    HW2 1071   0.287   0.740   1.721  1.1353  0.5206  0.0368
  268SOL     MW 1072   0.269   0.825   1.738 -0.1641 -0.0004 -0.3509
  269SOL     OW 1073   1.402   1.948   2.358  0.0517 -0.0139 -0.2830
  269SOL    HW1 1074   1.439   2.032   2.331  1.3711  0.5766  0.9141
  269SOL    HW2 1075   1.332   1.976   2.419 -3.3886  4.2721  0.5163
  269SOL     MW 1076   1.397   1.963   2.362 -0.2281  0.6295 -0.0196
  270SOL     OW 1077   1.175   0.370   1.592 -0.6063 -0.0763  0.3824
  270SOL    HW1 1078   1.138   0.290   1.637  1.4523 -0.6271 -1.9761
  270SOL    HW2 1079   1.268   0.377   1.596 -2.0250 -1.0473  1.3079
  270SOL     MW 1080   1.182   0.361   1.599 -0.5219 -0.2771  0.1933
  271SOL     OW 1081   0.897   0.008   2.497  0.1547  0.5889  0.2134
  271SOL    HW1 1082   0.921  -0.006   2.584 -0.3963 -0.1873 -0.6369
  271SOL    HW2 1083   0.932   0.101   2.483 -1.8416 -1.9364  2.8279
  271SOL     MW 1084   0.905   0.019   2.506 -0.1814  0.1533  0.4462
  272SOL     OW 1085   1.475   2.899   2.783  0.8116  0.6583 -0.1596
  272SOL    HW1 1086   1.458   2.956   2.711 -0.1192 -0.0176  0.8575
  272SOL    HW2 1087   1.514   2.946   2.850 -1.8815 -2.8203 -0.6575
  272SOL     MW 1088   1.478   2.912   2.782  0.3335  0.1101 -0.0911
  273SOL     OW 1089   1.433   0.934   2.852 -0.1118  1.0277  0.0472
  273SOL    HW1 1090   1.522   0.967   2.858 -0.9452 -1.2728 -1.7291
  273SOL    HW2 1091   1.381   1.009   2.890 -0.7806  1.8874  0.0801
  273SOL     MW 1092   1.438   0.948   2.858 -0.3100  0.8376 -0.1828
  274SOL     OW 1093   1.452   0.742   0.186  0.8733 -0.5393 -0.4341
  274SOL    HW1 1094   1.474   0.652   0.175 -1.5279  0.7377 -1.3611
  274SOL    HW2 1095   1.366   0.743   0.238  0.5826 -0.8250  0.1106
  274SOL     MW 1096   1.443   0.730   0.192  0.5181 -0.4085 -0.4846
  275SOL     OW 1097   1.701   0.632   1.819  0.0714 -0.0048  0.1333
  275SOL    HW1 1098   1.767   0.652   1.889  2.5701 -0.4439  1.9801
  275SOL    HW2 1099   1.712   0.537   1.804  1.4174  0.6069 -0.7573
  275SOL     MW 1100   1.711   0.622   1.826  0.5787  0.0180  0.2594
  276SOL     OW 1101   0.274   1.210   1.824 -0.6007 -0.6845  0.4270
  276SOL    HW1 1102   0.312   1.168   1.902 -1.7412 -0.3664 -0.8560
  276SOL    HW2 1103   0.193   1.243   1.857 -0.6036  1.9693  1.5783
  276SOL     MW 1104   0.268   1.209   1.839 -0.7515 -0.2924  0.4096
  277SOL     OW 1105   1.867   1.278   2.452  0.1639 -0.2417 -0.6499
  277SOL    HW1 1106   1.946   1.332   2.477 -1.2521 -1.8826 -0.0390
  277SOL    HW2 1107   1.890   1.184   2.457  0.2763 -0.0529 -2.3555
  277SOL     MW 1108   1.880   1.272   2.456 -0.0081 -0.4333 -0.7943
  278SOL     OW 1109   1.444   0.613   1.698  0.4180 -0.3847 -0.2623
  278SOL    HW1 1110   1.417   0.557   1.773  1.2204  0.1155  1.3638
  278SOL    HW2 1111   1.526   0.640   1.730 -1.6267  2.7590  1.2656
  278SOL     MW 1112   1.451   0.610   1.712  0.2541  0.0961  0.1538
  279SOL     OW 1113   0.524   0.028   2.265 -0.4572 -0.2336  0.4235
  279SOL    HW1 1114   0.613   0.011   2.294  1.1825 -3.8380 -0.5902
  279SOL    HW2 1115   0.516   0.123   2.258  0.2982  1.4826  1.1176
  279SOL     MW 1116   0.535   0.038   2.268 -0.1412 -0.4827  0.3813
  280SOL     OW 1117   1.480   1.054   2.159 -0.1923 -0.2862 -0.7756
  280SOL    HW1 1118   1.529   0.981   2.118 -0.2792 -1.6429 -0.3714
  280SOL    HW2 1119   1.476   1.020   2.254  0.5393  0.2013  0.6794
  280SOL     MW 1120   1.486   1.040   2.166 -0.1072 -0.4009 -0.5303
  281SOL     OW 1121   1.282   1.293   2.726  0.1835  0.3869  0.3225
  281SOL    HW1 1122   1.368   1.316   2.699 -2.5550 -0.9922  1.5505
  281SOL    HW2 1123   1.296   1.250   2.810  1.0440  1.3926  1.5268
  281SOL     MW 1124   1.295   1.290   2.734 -0.0643  0.3376  0.6434
  282SOL     OW 1125   1.152   1.273   1.651  0.0920 -0.2644 -0.0808
  282SOL    HW1 1126   1.123   1.344   1.600  4.1800  0.6591 -1.7872
  282SOL    HW2 1127   1.108   1.282   1.737 -0.6237 -1.7977 -0.9539
  282SOL     MW 1128   1.142   1.284   1.655  0.5369 -0.3448 -0.4211
  283SOL     OW 1129   0.697   1.288   3.017  0.7226 -0.4109 -0.7393
  283SOL    HW1 1130   0.785   1.262   3.048  1.4246 -0.4476 -2.2980
  283SOL    HW2 1131   0.679   1.386   3.045 -0.8777  2.1933 -0.0438
  283SOL     MW 1132   0.706   1.298   3.024  0.6040 -0.0722 -0.8532
  284SOL     OW 1133   0.520   0.645   2.390 -0.2922 -0.3902  0.7674
  284SOL    HW1 1134   0.570   0.717   2.350 -1.2165  0.7035 -0.5863
  284SOL    HW2 1135   0.482   0.586   2.323  0.3551 -1.9696 -0.2522
  284SOL     MW 1136   0.521   0.647   2.376 -0.3288 -0.4543  0.4542
  285SOL     OW 1137   0.850   0.920   2.816  0.1234 -0.5743 -0.1344
  285SOL    HW1 1138   0.865   0.955   2.724 -1.7806  2.4241 -0.6712
  285SOL    HW2 1139   0.817   0.830   2.808 -0.2899 -1.1447 -1.3429
  285SOL     MW 1140   0.848   0.912   2.803 -0.1823 -0.2539 -0.3647
  286SOL     OW 1141   1.164   1.501   2.571  0.3586  0.3415  0.1110
  286SOL    HW1 1142   1.198   1.445   2.642  0.5144  0.2041 -2.1887
  286SOL    HW2 1143   1.190   1.591   2.587  1.3048 -0.1802  2.8965
  286SOL     MW 1144   1.172   1.505   2.583  0.5040  0.2545  0.1751
  287SOL     OW 1145   1.068   0.962   0.282  0.2731  0.6349  0.1350
  287SOL    HW1 1146   1.103   1.010   0.357 -1.3442  0.0315 -1.7734
  287SOL    HW2 1147   0.974   0.980   0.281  0.7208  2.7218  2.4973
  287SOL     MW 1148   1.061   0.970   0.292  0.1188  0.8306  0.1949
  288SOL     OW 1149   1.574   0.608   2.117 -0.3615 -0.7518  0.0956
  288SOL    HW1 1150   1.529   0.623   2.200 -2.7494 -1.3875 -1.7053
  288SOL    HW2 1151   1.573   0.696   2.071 -3.0707  1.1663  0.6183
  288SOL     MW 1152   1.568   0.622   2.122 -1.0340 -0.5826 -0.0730
  289SOL     OW 1153   0.938   1.028   2.580  0.4948  0.3173 -0.1217
  289SOL    HW1 1154   0.991   0.949   2.556 -0.3700  0.8994  1.8378
  289SOL    HW2 1155   0.861   1.024   2.522 -0.7721 -1.7738 -0.4826
  289SOL     MW 1156   0.935   1.017   2.569  0.2135  0.1182  0.0892
  290SOL     OW 1157   0.904   0.573   1.568 -0.3249  0.7437 -0.1799
  290SOL    HW1 1158   0.960   0.517   1.513  0.3159 -0.1114 -1.0042
  290SOL    HW2 1159   0.950   0.576   1.655  0.2910  0.3082  1.1631
  290SOL     MW 1160   0.917   0.566   1.572 -0.1591  0.5734 -0.1115
  291SOL     OW 1161   0.187   0.322   0.148  0.4805 -0.7227  0.2237
  291SOL    HW1 1162   0.270   0.276   0.151  0.5328  1.4811 -1.8456
  291SOL    HW2 1163   0.142   0.250   0.089  1.8948  2.2417 -0.6839
  291SOL     MW 1164   0.192   0.306   0.140  0.6740 -0.0408 -0.1691
  292SOL     OW 1165   1.044   0.559   0.097 -0.0031  0.4505 -0.0748
  292SOL    HW1 1166   1.111   0.607   0.154  0.4637 -0.2680 -0.5898
  292SOL    HW2 1167   1.076   0.463   0.114 -2.2166  1.5881  1.0428
  292SOL     MW 1168   1.057   0.552   0.106 -0.2336  0.5058  0.0047
  293SOL     OW 1169   0.238   0.140   2.447 -0.2085 -0.4926  0.5589
  293SOL    HW1 1170   0.162   0.119   2.390 -0.1928  0.3475  0.2699
  293SOL    HW2 1171   0.212   0.209   2.509 -2.5938  1.6629  0.2522
  293SOL     MW 1172   0.225   0.147   2.448 -0.5211 -0.0973  0.4803
  294SOL     OW 1173   1.501   0.635   2.390  0.0260  0.2461 -0.3620
  294SOL    HW1 1174   1.515   0.694   2.468 -3.2168  1.3626  0.0038
  294SOL    HW2 1175   1.496   0.546   2.415  2.9625  5.1878  0.3284
  294SOL     MW 1176   1.502   0.631   2.404 -0.0144  1.0454 -0.2226
  295SOL     OW 1177   0.899   0.664   2.503  0.1855 -0.2796  0.1748
  295SOL    HW1 1178   0.847   0.598   2.450  1.4450  3.7210  1.4825
  295SOL    HW2 1179   0.867   0.643   2.594 -0.8575  0.6313 -1.6583
  295SOL     MW 1180   0.888   0.652   2.508  0.2140  0.3684  0.1055
  296SOL     OW 1181   1.262   0.264   2.050  0.3865 -0.6609 -0.1707
  296SOL    HW1 1182   1.328   0.197   2.024 -1.6436  0.0138 -0.3948
  296SOL    HW2 1183   1.251   0.267   2.145 -1.2177 -1.2500 -1.5732
  296SOL     MW 1184   1.269   0.255   2.059 -0.0930 -0.6496 -0.3853
  297SOL     OW 1185   1.456   0.343   1.599 -0.6549  0.0563 -0.0892
  297SOL    HW1 1186   1.514   0.420   1.605 -0.0581 -1.3340  1.5682
  297SOL    HW2 1187   1.472   0.289   1.676 -0.3600  0.9148  0.6113
  297SOL     MW 1188   1.466   0.346   1.610 -0.5372 -0.0138  0.2219
  298SOL     OW 1189   1.650   0.873   1.990 -0.1609  0.0089 -0.2786
  298SOL    HW1 1190   1.604   0.914   1.911 -1.9792 -1.2231 -0.7866
  298SOL    HW2 1191   1.744   0.875   1.976 -0.3434 -1.1260  0.5048
  298SOL     MW 1192   1.656   0.878   1.978 -0.4249 -0.3034 -0.2422
  299SOL     OW 1193   0.552   1.049   0.016 -0.4002  0.0186  0.5840
  299SOL    HW1 1194   0.608   1.124   0.014  0.0963 -2.8173 -1.7782
  299SOL    HW2 1195   0.485   1.049  -0.054 -1.4919 -1.3941  1.0837
  299SOL     MW 1196   0.550   1.059   0.006 -0.4787 -0.5420  0.3382
  300SOL     OW 1197   1.214   1.147   2.511  0.8145 -0.4639 -0.0908
  300SOL    HW1 1198   1.127   1.110   2.502  3.9230  0.9613  1.0609
  300SOL    HW2 1199   1.205   1.190   2.601 -2.2259 -1.4321 -1.0080
  300SOL     MW 1200   1.202   1.148   2.522  0.8235 -0.4036 -0.0598
  301SOL     OW 1201   1.379   0.924   0.690  0.3780  0.7877 -0.2442
  301SOL    HW1 1202   1.436   0.957   0.766 -0.3122  0.1145 -1.0020
  301SOL    HW2 1203   1.308   0.858   0.716 -0.6401  1.1193  0.0424
  301SOL     MW 1204   1.377   0.920   0.703  0.1526  0.7426 -0.3064
  302SOL     OW 1205   0.116   1.484   2.036  0.6496 -0.9112  0.0359
  302SOL    HW1 1206   0.155   1.409   2.091 -1.9272  1.8720  1.5872
  302SOL    HW2 1207   0.089   1.559   2.097 -1.0053 -0.5457 -0.7615
  302SOL     MW 1208   0.118   1.484   2.051  0.0913 -0.4958  0.1354
  303SOL     OW 1209   0.393   1.695   2.639  0.0073  0.3273  0.1873
  303SOL    HW1 1210   0.368   1.702   2.547  1.5059  1.1190  1.2998
  303SOL    HW2 1211   0.357   1.778   2.664 -0.4962 -2.0396  0.4173
  303SOL     MW 1212   0.385   1.707   2.630  0.1386  0.1194  0.3644
  304SOL     OW 1213   0.633   2.041   2.352 -0.6252 -0.5912 -0.1646
  304SOL    HW1 1214   0.666   2.107   2.293  2.5387  0.6456  0.2100
  304SOL    HW2 1215   0.711   1.991   2.381 -0.5758 -1.0406  1.9572
  304SOL     MW 1216   0.648   2.043   2.348 -0.2012 -0.4873  0.1648
  305SOL     OW 1217   1.102   0.572   0.520 -0.0251  0.0076 -0.1241
  305SOL    HW1 1218   1.011   0.568   0.499  1.8983 -1.8725 -0.9024
  305SOL    HW2 1219   1.118   0.492   0.572  1.9428  2.9309 -0.8553
  305SOL     MW 1220   1.092   0.561   0.524  0.4883  0.1452 -0.3233
  306SOL     OW 1221   1.241   1.481   0.268  0.3312  0.0457 -0.0851
  306SOL    HW1 1222   1.268   1.401   0.308  1.4560 -0.7928 -1.0724
  306SOL    HW2 1223   1.292   1.476   0.184 -3.3863  1.5933  2.3389
  306SOL     MW 1224   1.252   1.469   0.262 -0.0109  0.1393  0.1045
  307SOL     OW 1225   1.397   0.498   1.941  0.1297  0.3452 -0.1203
  307SOL    HW1 1226   1.364   0.422   1.990 -1.2697 -0.9547  3.1420
  307SOL    HW2 1227   1.468   0.523   2.009  2.9313  1.2820  1.4697
  307SOL     MW 1228   1.402   0.492   1.956  0.3147  0.2973  0.5199
  308SOL     OW 1229   2.142   0.599   2.705  0.3650  0.1432  0.3129
  308SOL    HW1 1230   2.232   0.553   2.713  2.1353  0.5125  1.2771
  308SOL    HW2 1231   2.160   0.689   2.690  0.7460 -2.2539 -1.0681
  308SOL     MW 1232   2.156   0.605   2.704  0.6488 -0.1243  0.2579
  309SOL     OW 1233   0.400   0.367   0.401  0.2499 -0.3758 -0.4842
  309SOL    HW1 1234   0.484   0.352   0.446 -0.2354  0.9971  1.2860
  309SOL    HW2 1235   0.393   0.299   0.336  0.5665 -0.8753  0.3223
  309SOL     MW 1236   0.410   0.356   0.398  0.2277 -0.2605 -0.1442
  310SOL     OW 1237   0.489   0.603   1.928  0.4770  0.4927  0.2928
  310SOL    HW1 1238   0.540   0.527   1.892 -0.3450 -0.7932  2.2202
  310SOL    HW2 1239   0.538   0.685   1.898  1.0926 -0.3171  0.1813
  310SOL     MW 1240   0.502   0.603   1.920  0.4497  0.2162  0.5324
  311SOL     OW 1241   1.927   0.714   1.961  0.6168 -0.5359 -0.2591
  311SOL    HW1 1242   1.914   0.720   2.054  1.5485 -0.1826 -2.5011
  311SOL    HW2 1243   1.962   0.619   1.950  0.6605 -0.9707  0.8440
  311SOL     MW 1244   1.930   0.702   1.972  0.7455 -0.5466 -0.4093
  312SOL     OW 1245   1.672   2.497   0.101  0.2652 -0.1281 -0.3069
  312SOL    HW1 1246   1.736   2.502   0.176  1.4591 -1.9106 -0.6729
  312SOL    HW2 1247   1.597   2.550   0.119 -1.6801 -1.0220 -2.3275
  312SOL     MW 1248   1.671   2.505   0.114  0.1661 -0.4812 -0.6218
  313SOL     OW 1249   0.107   1.219   2.964  0.2518  0.1295 -0.6236
  313SOL    HW1 1250   0.123   1.211   3.057 -2.4295 -0.2345 -0.7248
  313SOL    HW2 1251   0.184   1.266   2.925  3.3822  2.5977 -1.4161
  313SOL     MW 1252   0.119   1.224   2.971  0.3110  0.4071 -0.7415
  314SOL     OW 1253   2.112   2.979   3.001  0.0991  0.3124  0.0128
  314SOL    HW1 1254   2.053   3.037   2.954  0.8981  0.5318 -0.5325
  314SOL    HW2 1255   2.180   3.040   3.024 -0.1595  2.5874 -2.7905
  314SOL     MW 1256   2.113   2.995   2.998  0.1704  0.6416 -0.4290
  315SOL     OW 1257   1.511   1.911   0.036  0.0143 -0.3612 -0.6132
  315SOL    HW1 1258   1.432   1.972   0.054 -1.0539  0.6708  0.0756
  315SOL    HW2 1259   1.543   1.947  -0.048 -0.2551 -0.1697 -0.3619
  315SOL     MW 1260   1.505   1.924   0.028 -0.1622 -0.1998 -0.4891
  316SOL     OW 1261   1.305   0.669   2.709 -0.3272  0.0586  0.0675
  316SOL    HW1 1262   1.381   0.726   2.703 -0.4093  0.9485  1.9020
  316SOL    HW2 1263   1.274   0.677   2.803  2.0724  1.0885  2.2344
  316SOL     MW 1264   1.311   0.677   2.720 -0.0215  0.3119  0.5955
  317SOL     OW 1265   0.720   1.512   2.559  0.3045  0.2193  0.2566
  317SOL    HW1 1266   0.798   1.456   2.550  0.6731  0.9217  0.2953
  317SOL    HW2 1267   0.708   1.558   2.474  1.4063  1.3124 -0.0784
  317SOL     MW 1268   0.729   1.511   2.547  0.4985  0.4562  0.2175
  318SOL     OW 1269   1.334   0.394   2.930  0.2074 -0.1053 -0.1683
  318SOL    HW1 1270   1.255   0.445   2.922 -3.2298  0.8994  1.0861
  318SOL    HW2 1271   1.413   0.449   2.919  1.3965  0.7720  2.2447
  318SOL     MW 1272   1.334   0.408   2.928 -0.0892  0.1430  0.3156
  319SOL     OW 1273   0.765   0.391   2.865  0.0989 -0.4389 -0.3152
  319SOL    HW1 1274   0.698   0.354   2.805 -0.9195 -0.3812 -0.7536
  319SOL    HW2 1275   0.729   0.397   2.958  1.4917  0.6664  0.2911
  319SOL     MW 1276   0.751   0.387   2.870  0.1483 -0.2854 -0.2930
  320SOL     OW 1277   1.059   1.332   1.921 -0.1922 -0.3914 -0.1111
  320SOL    HW1 1278   1.105   1.305   2.004  1.2431 -0.1981  0.5848
  320SOL    HW2 1279   1.091   1.424   1.914 -1.5486  2.1635 -0.5976
  320SOL     MW 1280   1.069   1.340   1.931 -0.1818 -0.0288 -0.0835
  321SOL     OW 1281   1.041   0.977   3.030 -0.4066 -0.8787 -0.2213
  321SOL    HW1 1282   0.997   0.969   2.943 -0.2821  0.6450 -1.5339
  321SOL    HW2 1283   1.095   0.897   3.023 -1.7473 -1.8450 -2.3289
  321SOL     MW 1284   1.042   0.965   3.018 -0.5671 -0.8052 -0.6726
  322SOL     OW 1285   1.245   0.810   1.705  0.7171  0.2702 -0.4644
  322SOL    HW1 1286   1.315   0.744   1.691  3.2597 -0.6943  1.1556
  322SOL    HW2 1287   1.279   0.848   1.785 -1.6266  1.3962  1.3543
  322SOL     MW 1288   1.259   0.806   1.714  0.7433  0.2915 -0.0107
  323SOL     OW 1289   1.211   1.546   1.885  0.4203  0.4548 -0.2750
  323SOL    HW1 1290   1.241   1.524   1.799 -2.1518  0.8936  1.3612
  323SOL    HW2 1291   1.161   1.630   1.883  3.5821  1.5351 -0.9641
  323SOL     MW 1292   1.208   1.554   1.873  0.4981  0.6552 -0.1500
  324SOL     OW 1293   1.465   1.013   2.431 -0.8145  0.0870  0.4502
  324SOL    HW1 1294   1.371   1.041   2.453  2.9855  0.0841 -2.5910
  324SOL    HW2 1295   1.515   1.097   2.445  1.0352 -2.2421 -2.9433
  324SOL     MW 1296   1.459   1.027   2.436 -0.0691 -0.2206 -0.3988
  325SOL     OW 1297   1.091   0.495   2.917 -0.2173 -0.4406  0.7141
  325SOL    HW1 1298   1.064   0.531   3.002  1.3296  1.1227  0.4512
  325SOL    HW2 1299   1.005   0.484   2.869 -2.4363 -1.3172 -1.7351
  325SOL     MW 1300   1.076   0.498   2.922 -0.3060 -0.3500  0.3563
  326SOL     OW 1301   0.470   1.335   2.175 -0.1604  0.1237 -0.8396
  326SOL    HW1 1302   0.541   1.290   2.120  1.2070  0.7137 -2.8997
  326SOL    HW2 1303   0.499   1.425   2.169 -3.0265 -1.3140 -0.5993
  326SOL     MW 1304   0.484   1.341   2.167 -0.3581  0.0119 -1.0797
  327SOL     OW 1305   1.911   0.843   2.455  0.4384 -0.1871  0.1145
  327SOL    HW1 1306   1.905   0.764   2.517 -1.3238 -1.8985  1.5911
  327SOL    HW2 1307   2.010   0.860   2.441  1.0851 -1.7705  0.1089
  327SOL     MW 1308   1.923   0.835   2.461  0.2912 -0.6218  0.3086
  328SOL     OW 1309   0.203   1.282   2.193 -0.2461  0.3807 -0.5117
  328SOL    HW1 1310   0.154   1.221   2.146  1.5137  0.8836 -1.1748
  328SOL    HW2 1311   0.300   1.272   2.174  1.9534  1.6423 -0.0290
  328SOL     MW 1312   0.210   1.273   2.185  0.2763  0.6135 -0.5355
  329SOL     OW 1313   0.116   0.060   1.364 -0.3937  0.0651 -0.9920
  329SOL    HW1 1314   0.093   0.096   1.446 -1.0201 -1.1535 -1.4116
  329SOL    HW2 1315   0.214   0.060   1.353  4.1680 -2.4962 -0.1743
  329SOL     MW 1316   0.126   0.065   1.373  0.1255 -0.4336 -0.9395
  330SOL     OW 1317   0.306   3.100   2.081  0.2143  0.4024  0.1012
  330SOL    HW1 1318   0.392   3.087   2.122  0.2777 -2.2016 -1.7361
  330SOL    HW2 1319   0.249   3.043   2.124  1.6012 -1.7412  2.6239
  330SOL     MW 1320   0.310   3.091   2.092  0.4057 -0.2240  0.1916
  331SOL     OW 1321   0.827   1.207   2.278  0.3583  0.1561 -0.2471
  331SOL    HW1 1322   0.792   1.253   2.205 -0.0519 -0.2178  1.0896
  331SOL    HW2 1323   0.900   1.263   2.311 -0.5959  0.9204  1.8286
  331SOL     MW 1324   0.832   1.220   2.273  0.1783  0.2076  0.2032
  332SOL     OW 1325   1.369   1.703   3.019  0.1413  0.4464  0.6627
  332SOL    HW1 1326   1.370   1.705   2.916  0.6108 -1.1114  1.0125
  332SOL    HW2 1327   1.429   1.772   3.054  0.6672  3.7217  0.8948
  332SOL     MW 1328   1.377   1.712   3.010  0.2726  0.6730  0.7395
  333SOL     OW 1329   1.781   1.433   2.956 -0.8155 -0.4233 -0.4542
  333SOL    HW1 1330   1.878   1.464   2.953  0.3654  1.2977  1.1431
  333SOL    HW2 1331   1.759   1.453   3.045  1.6236  1.1965 -1.7469
  333SOL     MW 1332   1.791   1.440   2.968 -0.3379  0.0175 -0.4140
  334SOL     OW 1333   1.411   3.091   2.571  0.2091  0.1890  0.5386
  334SOL    HW1 1334   1.319   3.067   2.592 -1.4064  1.0887 -2.1626
  334SOL    HW2 1335   1.417   3.177   2.610  0.0645 -0.0407 -1.6784
  334SOL     MW 1336   1.400   3.099   2.579 -0.0231  0.2774 -0.1103
  335SOL     OW 1337   1.263   0.765   3.008  0.0011 -0.1461 -0.3167
  335SOL    HW1 1338   1.291   0.686   3.048  2.6301  0.6975 -1.2627
  335SOL    HW2 1339   1.336   0.806   2.968 -0.7081 -1.8862 -0.1657
  335SOL     MW 1340   1.276   0.760   3.008  0.2544 -0.2644 -0.4216
  336SOL     OW 1341   0.956   1.070   1.921  0.1996 -0.1181  0.3594
  336SOL    HW1 1342   0.985   1.161   1.920  1.9159  0.0003 -1.0466
  336SOL    HW2 1343   1.039   1.026   1.937  1.3493  0.4433 -0.5969
  336SOL     MW 1344   0.971   1.076   1.923  0.5777 -0.0284  0.0477
  337SOL     OW 1345   0.613   1.781   2.798 -0.7137  0.2951 -0.4366
  337SOL    HW1 1346   0.567   1.720   2.741  0.2070 -1.2700  0.5672
  337SOL    HW2 1347   0.709   1.756   2.788  0.7994 -2.3684 -1.9470
  337SOL     MW 1348   0.619   1.770   2.789 -0.3926 -0.2628 -0.5035
  338SOL     OW 1349   1.139   0.812   2.515 -0.3019 -0.7734 -0.0587
  338SOL    HW1 1350   1.065   0.757   2.483  0.1231  0.0358  0.5245
  338SOL    HW2 1351   1.180   0.757   2.587 -1.7593 -1.9301  2.0724
  338SOL     MW 1352   1.134   0.797   2.520 -0.4381 -0.8192  0.2994
  339SOL     OW 1353   1.551   1.055   1.806 -0.2535 -0.1547  0.2236
  339SOL    HW1 1354   1.476   1.067   1.742 -2.3727  0.8967 -1.4821
  339SOL    HW2 1355   1.553   1.138   1.861  1.1831 -1.2897  0.2699
  339SOL     MW 1356   1.542   1.068   1.805 -0.3435 -0.1657  0.0047
  340SOL     OW 1357   1.402   1.460   0.049 -0.1185 -0.0597 -0.3267
  340SOL    HW1 1358   1.403   1.553   0.031 -2.1587 -0.9551  1.4472
  340SOL    HW2 1359   1.491   1.432   0.077 -0.8490 -0.5255  1.1961
  340SOL     MW 1360   1.414   1.468   0.050 -0.4841 -0.2393  0.1082
  341SOL     OW 1361   0.130   1.400   2.690  0.8291  0.0378  0.2416
  341SOL    HW1 1362   0.210   1.352   2.690  0.5156 -0.0316 -0.4069
  341SOL    HW2 1363   0.061   1.352   2.634  0.5401  0.5124  2.9862
  341SOL     MW 1364   0.131   1.387   2.683  0.7496  0.0913  0.5182
  342SOL     OW 1365   1.370   0.295   0.086 -0.3907 -0.1784  0.1375
  342SOL    HW1 1366   1.424   0.359   0.132 -2.9914  0.4744 -0.8311
  342SOL    HW2 1367   1.360   0.327  -0.006  1.6558 -0.5772 -0.5225
  342SOL     MW 1368   1.375   0.308   0.080 -0.4638 -0.1449 -0.0774
  343SOL     OW 1369   0.229   0.306   2.209  0.4072  0.2052 -0.7027
  343SOL    HW1 1370   0.271   0.222   2.234  1.0784  1.2299 -0.8250
  343SOL    HW2 1371   0.181   0.280   2.131 -0.9016  0.5916  0.4198
  343SOL     MW 1372   0.228   0.292   2.202  0.3231  0.3914 -0.5707
  344SOL     OW 1373   1.697   2.066   0.175  0.1288  0.4828 -0.1776
  344SOL    HW1 1374   1.719   2.117   0.095 -1.2931  0.5352  1.0485
  344SOL    HW2 1375   1.636   2.003   0.144  1.7633  0.9353 -2.8413
  344SOL     MW 1376   1.692   2.064   0.161  0.1568  0.5495 -0.3673
  345SOL     OW 1377   0.731   1.646   2.307 -0.0067  0.1111  0.3047
  345SOL    HW1 1378   0.640   1.652   2.268 -1.1870  1.9861 -2.3483
  345SOL    HW2 1379   0.790   1.594   2.254 -0.3658 -2.8419 -1.3065
  345SOL     MW 1380   0.726   1.640   2.295 -0.2098 -0.0311 -0.2579
  346SOL     OW 1381   1.733   1.135   0.019 -0.1391 -0.1222 -0.6123
  346SOL    HW1 1382   1.827   1.148  -0.002 -1.1890  2.9586  0.5271
  346SOL    HW2 1383   1.723   1.060   0.076 -1.2147 -0.6108 -0.5936
  346SOL     MW 1384   1.744   1.127   0.024 -0.4196  0.2198 -0.4595
  347SOL     OW 1385   1.285   0.773   2.293  0.6023 -0.0277 -0.0039
  347SOL    HW1 1386   1.356   0.725   2.339  1.1673  1.1947 -1.6702
  347SOL    HW2 1387   1.243   0.825   2.356  0.5054 -1.5858 -2.1039
  347SOL     MW 1388   1.288   0.773   2.307  0.6640 -0.0720 -0.5008
  348SOL     OW 1389   1.375   2.610   1.863  0.9605 -0.1715  0.0845
  348SOL    HW1 1390   1.418   2.536   1.914 -2.1672 -0.5028 -0.6384
  348SOL    HW2 1391   1.419   2.690   1.894  1.2961  1.8004 -0.6827
  348SOL     MW 1392   1.386   2.611   1.874  0.5921  0.0449 -0.1121
  349SOL     OW 1393   1.423   0.258   2.710  0.8436 -0.1045 -0.2616
  349SOL    HW1 1394   1.369   0.306   2.774  1.6243 -1.2123 -1.1605
  349SOL    HW2 1395   1.516   0.261   2.743  1.9938 -0.6338 -0.4796
  349SOL     MW 1396   1.428   0.265   2.722  1.0984 -0.3205 -0.4089
  350SOL     OW 1397   1.884   0.642   2.625 -0.9549  0.1743  0.4800
  350SOL    HW1 1398   1.849   0.564   2.581 -0.9435  1.6059 -0.4250
  350SOL    HW2 1399   1.974   0.614   2.640  2.0368 -1.5280  1.8975
  350SOL     MW 1400   1.891   0.628   2.622 -0.5587  0.1386  0.5476
  351SOL     OW 1401   0.066   0.952   1.555 -0.2638  0.2409 -1.2445
  351SOL    HW1 1402  -0.000   1.003   1.604  1.1626  1.2039  2.1893
  351SOL    HW2 1403   0.130   1.015   1.530 -1.3924 -0.9223  2.9928
  351SOL     MW 1404   0.066   0.967   1.558 -0.2245  0.2145 -0.2323
  352SOL     OW 1405   0.860   1.674   2.712  0.6063 -0.0703  0.0775
  352SOL    HW1 1406   0.888   1.623   2.782 -2.2234  2.2549  1.3905
  352SOL    HW2 1407   0.819   1.616   2.644 -0.6525 -1.7875  0.1867
  352SOL     MW 1408   0.858   1.660   2.712  0.0669  0.0099  0.2651
  353SOL     OW 1409   3.082   2.443   2.729  0.8831 -0.4025 -0.2809
  353SOL    HW1 1410   3.171   2.435   2.753  0.1311  2.7658  2.4417
  353SOL    HW2 1411   3.095   2.490   2.643  0.7397 -0.5693 -3.3890
  353SOL     MW 1412   3.095   2.448   2.721  0.7649 -0.0065 -0.3318
  354SOL     OW 1413   0.359   2.499   0.842 -0.3714  0.7018 -0.2119
  354SOL    HW1 1414   0.394   2.469   0.928  0.8655  0.3771  0.4219
  354SOL    HW2 1415   0.312   2.419   0.808  0.0890 -2.1230  0.0304
  354SOL     MW 1416   0.357   2.485   0.849 -0.1475  0.2863 -0.0963
  355SOL     OW 1417   0.027   2.243   0.376 -0.2153  0.5699  0.7253
  355SOL    HW1 1418  -0.041   2.174   0.386  1.7232 -0.0644  0.2067
  355SOL    HW2 1419   0.015   2.282   0.458  0.0934  1.0659  0.4548
  355SOL     MW 1420   0.016   2.239   0.388  0.0812  0.5516  0.6211
  356SOL     OW 1421   0.835   2.875   1.042 -0.6917 -0.1445 -0.3097
  356SOL    HW1 1422   0.867   2.864   0.950 -1.8227 -1.6653 -1.6640
  356SOL    HW2 1423   0.746   2.844   1.033 -2.5169 -1.3845  1.6207
  356SOL     MW 1424   0.828   2.869   1.029 -1.0817 -0.5087 -0.2337
  357SOL     OW 1425   1.801   2.941   0.418  0.3615 -0.3473  0.3026
  357SOL    HW1 1426   1.727   2.882   0.447  1.9245 -1.6859 -2.8866
  357SOL    HW2 1427   1.872   2.893   0.387 -3.7833  4.7522  0.6870
  357SOL     MW 1428   1.801   2.927   0.417  0.0208  0.1489 -0.0675
  358SOL     OW 1429   0.476   0.066   1.072  0.0365 -0.0361  0.1400
  358SOL    HW1 1430   0.565   0.048   1.038 -0.1495 -1.4781 -0.4746
  358SOL    HW2 1431   0.427   0.124   1.012 -0.4015  1.3324  0.4232
  358SOL     MW 1432   0.481   0.071   1.060 -0.0459 -0.0458  0.0962
  359SOL     OW 1433   0.882   2.844   1.827 -0.3511  0.7083  0.0406
  359SOL    HW1 1434   0.891   2.757   1.877 -0.8055  2.1029  2.3438
  359SOL    HW2 1435   0.965   2.854   1.768  1.0649 -0.4791 -2.2164
  359SOL     MW 1436   0.894   2.834   1.826 -0.2242  0.7356  0.0467
  360SOL     OW 1437   0.581   2.804   1.017 -0.2344 -0.0696 -0.1342
  360SOL    HW1 1438   0.597   2.764   0.929  0.0910 -0.6999  1.4626
  360SOL    HW2 1439   0.563   2.731   1.076 -1.0893  1.5058 -1.1894
  360SOL     MW 1440   0.580   2.789   1.013 -0.3043  0.0551 -0.0627
  361SOL     OW 1441   0.196   2.712   1.342  0.1152  0.1190 -0.0235
  361SOL    HW1 1442   0.154   2.787   1.388 -0.1689 -2.9713 -0.6075
  361SOL    HW2 1443   0.286   2.709   1.380  1.9405 -1.3165  0.9500
  361SOL     MW 1444   0.203   2.722   1.353  0.3185 -0.4782  0.0279
  362SOL     OW 1445   1.472   2.445   0.653  0.2951 -0.0612  0.1887
  362SOL    HW1 1446   1.495   2.376   0.712 -2.6501 -0.4194  3.7477
  362SOL    HW2 1447   1.481   2.518   0.717 -1.7461  0.5470 -0.6793
  362SOL     MW 1448   1.476   2.446   0.669 -0.3628 -0.0282  0.5438
  363SOL     OW 1449   0.297   3.062   0.721 -0.0512 -0.3644  0.7717
  363SOL    HW1 1450   0.309   3.004   0.799 -1.7745  2.0411  0.0504
  363SOL    HW2 1451   0.207   3.051   0.690 -0.2846  0.0930  3.7375
  363SOL     MW 1452   0.287   3.053   0.727 -0.3094  0.0134  1.0679
  364SOL     OW 1453   0.699   0.199   0.237  0.3294 -0.5957 -0.1379
  364SOL    HW1 1454   0.626   0.144   0.246 -0.9338 -0.2192  0.8235
  364SOL    HW2 1455   0.667   0.266   0.179  0.1294 -2.0180  0.5467
  364SOL     MW 1456   0.685   0.201   0.231  0.1364 -0.7337  0.0793
  365SOL     OW 1457   0.986   1.933   1.098 -0.0030 -0.4205  0.0322
  365SOL    HW1 1458   0.977   2.030   1.077 -0.0501  1.9486  0.8589
  365SOL    HW2 1459   0.920   1.875   1.050 -3.9992 -0.5159 -0.3385
  365SOL     MW 1460   0.976   1.938   1.089 -0.5365 -0.1205  0.0923
  366SOL     OW 1461   2.847   2.618   1.065 -0.2972 -0.0704 -0.6304
  366SOL    HW1 1462   2.915   2.637   1.124 -0.8715  0.6317 -2.6939
  366SOL    HW2 1463   2.898   2.632   0.982 -0.3746  0.4671 -1.2992
  366SOL     MW 1464   2.863   2.622   1.062 -0.3832  0.0931 -0.9909
  367SOL     OW 1465   1.248   2.860   0.907  0.2689  0.4235 -0.1083
  367SOL    HW1 1466   1.175   2.915   0.897 -2.1527 -2.4639  1.4267
  367SOL    HW2 1467   1.239   2.799   0.830  1.7041 -3.4230  1.1324
  367SOL     MW 1468   1.237   2.859   0.896  0.1388 -0.4650  0.2580
  368SOL     OW 1469   1.665   0.427   0.673 -0.4239 -0.2469  0.3652
  368SOL    HW1 1470   1.751   0.393   0.657 -0.3138 -1.4302 -0.6692
  368SOL    HW2 1471   1.687   0.522   0.698  1.9413  0.0820 -0.3975
  368SOL     MW 1472   1.679   0.435   0.674 -0.0973 -0.3596  0.1281
  369SOL     OW 1473   0.176   2.485   1.656  0.2697  0.5909 -0.4021
  369SOL    HW1 1474   0.251   2.487   1.714  0.0816 -1.3870  1.3983
  369SOL    HW2 1475   0.116   2.553   1.691 -0.1392 -1.5418  1.9295
  369SOL     MW 1476   0.178   2.494   1.668  0.1910  0.0486  0.1431
  370SOL     OW 1477   0.736   0.050   0.994 -0.3694 -0.3780 -0.5066
  370SOL    HW1 1478   0.766   0.138   1.023  0.4544  0.0132  0.0734
  370SOL    HW2 1479   0.753  -0.016   1.057 -0.8104  0.3516  0.3628
  370SOL     MW 1480   0.742   0.053   1.006 -0.3189 -0.2302 -0.3153
  371SOL     OW 1481   1.337   2.969   1.520  0.0974 -0.4310 -0.0010
  371SOL    HW1 1482   1.286   2.892   1.485  0.3011  0.1444 -0.2083
  371SOL    HW2 1483   1.317   3.042   1.458  0.1897  0.4800 -0.8452
  371SOL     MW 1484   1.328   2.968   1.507  0.1365 -0.2349 -0.1397
  372SOL     OW 1485   0.757   2.337   0.453 -0.9853  0.4514  0.6541
  372SOL    HW1 1486   0.720   2.249   0.486  1.5193 -0.1577  1.4118
  372SOL    HW2 1487   0.802   2.337   0.362  2.1922 -1.3012  0.5229
  372SOL     MW 1488   0.758   2.325   0.445 -0.2356  0.1398  0.7368
  373SOL     OW 1489   2.790   3.028   1.409 -0.0839  0.3161  0.5838
  373SOL    HW1 1490   2.847   2.996   1.339 -0.6088  1.5177  1.4004
  373SOL    HW2 1491   2.790   3.121   1.396 -0.4372 -1.5204  2.3726
  373SOL     MW 1492   2.797   3.036   1.398 -0.1998  0.2323  0.9275
  374SOL     OW 1493   1.534   0.474   0.205  0.1026 -0.0860 -0.6451
  374SOL    HW1 1494   1.624   0.438   0.195 -3.8401 -2.8683 -0.0095
  374SOL    HW2 1495   1.515   0.453   0.297  2.3732 -2.2429 -1.0103
  374SOL     MW 1496   1.543   0.466   0.216 -0.1180 -0.7377 -0.6094
  375SOL     OW 1497   1.116   2.086   2.293  0.3833 -0.4448 -0.0405
  375SOL    HW1 1498   1.165   2.104   2.372  0.6280 -1.6218  1.6828
  375SOL    HW2 1499   1.104   1.991   2.294  0.7976 -1.7297 -0.6859
  375SOL     MW 1500   1.121   2.076   2.304  0.4702 -0.7696  0.1017
  376SOL     OW 1501   0.675   2.520   0.064  0.0297  0.4601 -0.5352
  376SOL    HW1 1502   0.626   2.499   0.145 -1.3471 -1.6693  2.3927
  376SOL    HW2 1503   0.626   2.471  -0.007  0.3850  0.0959 -2.0587
  376SOL     MW 1504   0.662   2.510   0.065 -0.1051  0.1311 -0.3499
  377SOL     OW 1505   1.353   1.991   0.848  0.3935  0.0624 -0.0513
  377SOL    HW1 1506   1.300   1.978   0.771 -1.8541  0.6035  0.7727
  377SOL    HW2 1507   1.295   1.961   0.919 -0.4886  2.2631 -1.8476
  377SOL     MW 1508   1.338   1.986   0.847 -0.0194  0.4242 -0.1796
  378SOL     OW 1509   1.036   2.812   1.590  0.4450 -0.2337  0.3296
  378SOL    HW1 1510   0.994   2.725   1.601 -1.5671 -0.2712  1.3182
  378SOL    HW2 1511   0.969   2.841   1.527 -1.9001 -2.6383  1.6159
  378SOL     MW 1512   1.021   2.804   1.583 -0.1299 -0.5559  0.6297
  379SOL     OW 1513   1.120   1.771   2.300  0.1331 -0.0224 -0.1663
  379SOL    HW1 1514   1.033   1.749   2.267  0.1690  0.9140  0.6651
  379SOL    HW2 1515   1.178   1.711   2.249 -0.8750  1.8037 -2.3601
  379SOL     MW 1516   1.116   1.760   2.289  0.0048  0.3421 -0.3460
  380SOL     OW 1517   0.816   0.067   1.569 -0.2542  0.0059 -0.4912
  380SOL    HW1 1518   0.856   0.079   1.488 -0.4028 -0.8827  1.8975
  380SOL    HW2 1519   0.890   0.093   1.628 -0.4489  0.4481  1.2124
  380SOL     MW 1520   0.831   0.072   1.566 -0.2995 -0.0530  0.0487
  381SOL     OW 1521   0.797   2.008   0.778 -0.2204 -0.4725  0.0257
  381SOL    HW1 1522   0.888   1.996   0.752 -0.4462  1.9169 -3.6032
  381SOL    HW2 1523   0.810   2.066   0.856  0.6921  0.1279  0.3770
  381SOL     MW 1524   0.811   2.014   0.785 -0.1298 -0.0780 -0.4067
  382SOL     OW 1525   0.656   0.099   0.706 -0.3279 -0.1963 -0.1285
  382SOL    HW1 1526   0.668   0.097   0.802 -2.0696  1.5320 -3.2104
  382SOL    HW2 1527   0.613   0.017   0.677 -0.2624 -1.2281  0.4943
  382SOL     MW 1528   0.652   0.088   0.715 -0.5490 -0.1044 -0.4529
  383SOL     OW 1529   0.530   3.097   0.368  0.6237 -0.3524 -0.0842
  383SOL    HW1 1530   0.568   3.041   0.300 -0.4354 -1.2064 -2.9558
  383SOL    HW2 1531   0.482   3.034   0.423  3.6822 -1.6882 -0.9871
  383SOL     MW 1532   0.529   3.081   0.366  0.8875 -0.6413 -0.5822
  384SOL     OW 1533   0.635   2.929   0.636  0.0119  0.4980 -0.1901
  384SOL    HW1 1534   0.704   2.886   0.682 -0.5960  1.5476 -4.8573
  384SOL    HW2 1535   0.559   2.868   0.629  1.0975 -1.0700 -1.6066
  384SOL     MW 1536   0.634   2.915   0.641  0.0750  0.4296 -0.9928
  385SOL     OW 1537   1.333   2.065   1.489 -0.5432 -0.2482 -0.5835
  385SOL    HW1 1538   1.410   2.097   1.537 -2.5321  1.2632  1.1132
  385SOL    HW2 1539   1.275   2.014   1.549  2.0548  1.1051  0.8762
  385SOL     MW 1540   1.336   2.063   1.503 -0.4629  0.1298 -0.1670
  386SOL     OW 1541   1.322   0.380   0.835 -0.2832 -0.8412 -0.2974
  386SOL    HW1 1542   1.239   0.353   0.787  0.3318 -0.3413  1.4472
  386SOL    HW2 1543   1.297   0.396   0.925 -0.6005  4.0342 -1.6905
  386SOL     MW 1544   1.308   0.379   0.841 -0.2440 -0.1320 -0.2510
  387SOL     OW 1545   0.868   2.172   1.463 -0.0689 -0.5080  0.6913
  387SOL    HW1 1546   0.897   2.233   1.396 -0.1480 -0.9322 -0.3987
  387SOL    HW2 1547   0.869   2.082   1.419 -0.1789 -0.8829  0.3946
  387SOL     MW 1548   0.872   2.169   1.448 -0.0938 -0.6134  0.5083
  388SOL     OW 1549   1.530   2.759   1.201 -0.3524  0.3843 -0.1056
  388SOL    HW1 1550   1.470   2.719   1.136  0.1387 -0.4451 -1.4120
  388SOL    HW2 1551   1.609   2.704   1.190 -0.5407  1.5974 -1.8868
  388SOL     MW 1552   1.533   2.746   1.191 -0.3124  0.4349 -0.5130
  389SOL     OW 1553   0.390   3.098   3.037  0.4776  0.2682  0.0755
  389SOL    HW1 1554   0.424   3.019   2.992  0.9676  0.6639 -1.0289
  389SOL    HW2 1555   0.379   3.171   2.969  0.1311  1.8535 -1.9027
  389SOL     MW 1556   0.393   3.097   3.022  0.4966  0.5296 -0.3312
  390SOL     OW 1557   1.301   0.101   0.651 -0.3255  0.0909  0.1308
  390SOL    HW1 1558   1.382   0.097   0.592 -1.0679  0.6180  0.4170
  390SOL    HW2 1559   1.339   0.061   0.728  2.3645  0.2696 -0.6398
  390SOL     MW 1560   1.316   0.095   0.653 -0.0685  0.1840  0.0669
  391SOL     OW 1561   0.278   2.225   1.382  0.1057 -0.4284 -0.3642
  391SOL    HW1 1562   0.229   2.158   1.439 -1.9449 -2.2951  0.7014
  391SOL    HW2 1563   0.206   2.296   1.368 -0.5543  0.0278 -2.1458
  391SOL     MW 1564   0.262   2.225   1.387 -0.2519 -0.6145 -0.4587
  392SOL     OW 1565   2.079   2.132   0.384 -0.1423  0.2807  0.0154
  392SOL    HW1 1566   2.108   2.061   0.436  0.1349  0.2502 -0.6076
  392SOL    HW2 1567   2.025   2.201   0.427 -1.3687  3.0725 -0.0460
  392SOL     MW 1568   2.075   2.132   0.396 -0.2675  0.6450 -0.0749
  393SOL     OW 1569   0.186   3.014   2.711 -0.1236  0.0273  0.0032
  393SOL    HW1 1570   0.242   3.052   2.776 -2.1664 -2.4445 -0.9804
  393SOL    HW2 1571   0.120   3.075   2.686  1.0067  1.2490  2.9829
  393SOL     MW 1572   0.185   3.027   2.717 -0.2440 -0.1376  0.2666
  394SOL     OW 1573   0.901   1.741   1.502  0.3267 -0.1600  0.3029
  394SOL    HW1 1574   0.845   1.765   1.575 -0.3251  1.8477  2.7947
  394SOL    HW2 1575   0.901   1.826   1.448  0.4372  2.2602  1.5829
  394SOL     MW 1576   0.894   1.756   1.505  0.2553  0.4242  0.8005
  395SOL     OW 1577   1.014   2.800   2.635  0.4178 -0.4421 -0.3028
  395SOL    HW1 1578   1.068   2.881   2.648 -1.6745 -0.2126 -1.4340
  395SOL    HW2 1579   1.067   2.739   2.580 -0.7010  2.2187 -1.5559
  395SOL     MW 1580   1.028   2.802   2.629 -0.0059 -0.0607 -0.6174
  396SOL     OW 1581   0.845   1.877   2.385 -1.0116  0.3191 -0.3315
  396SOL    HW1 1582   0.895   1.878   2.469 -1.3865 -1.3588  0.7455
  396SOL    HW2 1583   0.806   1.789   2.372  0.8401  1.6704  2.3572
  396SOL     MW 1584   0.846   1.866   2.394 -0.8168  0.2760  0.1654
  397SOL     OW 1585   1.047   2.346   1.285  0.1604 -0.1789 -0.7006
  397SOL    HW1 1586   1.093   2.381   1.206 -0.0823 -0.8015 -3.7733
  397SOL    HW2 1587   1.113   2.326   1.355 -0.6100  2.0578  1.5527
  397SOL     MW 1588   1.062   2.348   1.284  0.0268  0.0340 -0.8087
  398SOL     OW 1589   0.579   2.672   0.769 -0.6528  0.1461 -0.2913
  398SOL    HW1 1590   0.501   2.630   0.731  0.9874  0.5452  3.0364
  398SOL    HW2 1591   0.657   2.628   0.733  0.6231 -1.2571 -0.4129
  398SOL     MW 1592   0.579   2.661   0.759 -0.2681  0.0136  0.1317
  399SOL     OW 1593   0.264   2.097   0.439 -0.4036  0.4259 -1.0981
  399SOL    HW1 1594   0.196   2.165   0.416 -0.5923 -0.1935 -1.2798
  399SOL    HW2 1595   0.332   2.100   0.365  0.8168 -2.9682 -2.3342
  399SOL     MW 1596   0.264   2.106   0.427 -0.2675 -0.1036 -1.2852
  400SOL     OW 1597   0.558   1.838   0.180 -0.3451  0.7713 -0.0562
  400SOL    HW1 1598   0.521   1.926   0.174 -1.1836 -1.9402  0.3016
  400SOL    HW2 1599   0.515   1.798   0.248  1.1540  1.8562 -2.6028
  400SOL     MW 1600   0.548   1.844   0.188 -0.2580  0.5567 -0.3450
  401SOL     OW 1601   0.900   2.062   0.136 -0.4962 -0.2036  0.4324
  401SOL    HW1 1602   0.889   1.966   0.132  1.6088 -0.1546 -1.2563
  401SOL    HW2 1603   0.975   2.074   0.200 -1.5873  0.0998 -2.3621
  401SOL     MW 1604   0.908   2.051   0.144 -0.3625 -0.1571 -0.1591
  402SOL     OW 1605   0.669   2.961   1.688 -0.6842 -0.2593  0.0249
  402SOL    HW1 1606   0.711   2.893   1.743  1.7701 -0.8721 -1.9098
  402SOL    HW2 1607   0.740   3.030   1.671  0.6831  2.3777  0.9193
  402SOL     MW 1608   0.684   2.961   1.693 -0.1800  0.0078 -0.1123
  403SOL     OW 1609   0.092   0.411   0.409 -0.0416 -0.4886 -0.2018
  403SOL    HW1 1610   0.168   0.446   0.457 -1.9328 -0.0159 -0.1444
  403SOL    HW2 1611   0.139   0.384   0.332  3.1612 -1.2262  1.0009
  403SOL     MW 1612   0.108   0.412   0.405  0.1314 -0.5236 -0.0355
  404SOL     OW 1613   0.896   2.840   0.784 -0.5629 -0.0106 -0.4758
  404SOL    HW1 1614   0.963   2.781   0.742 -1.3194 -1.0061 -0.3800
  404SOL    HW2 1615   0.905   2.926   0.739  1.2891 -0.3674 -0.5613
  404SOL     MW 1616   0.906   2.844   0.772 -0.4183 -0.1890 -0.4745
  405SOL     OW 1617   0.487   2.367   1.515  0.2217  0.1556 -0.1873
  405SOL    HW1 1618   0.455   2.455   1.483  1.1959  1.2844 -2.2990
  405SOL    HW2 1619   0.412   2.301   1.485 -0.1007 -0.8807  0.6278
  405SOL     MW 1620   0.473   2.370   1.507  0.3077  0.1678 -0.3584
  406SOL     OW 1621   0.335   2.406   1.130 -0.0141  0.1549  0.1778
  406SOL    HW1 1622   0.239   2.423   1.129  1.1667  0.7601  0.1921
  406SOL    HW2 1623   0.347   2.312   1.151  0.1088 -1.1682  0.9854
  406SOL     MW 1624   0.324   2.396   1.132  0.1579  0.0602  0.2862
  407SOL     OW 1625   3.090   2.735   1.130 -0.1097 -0.1311  0.1379
  407SOL    HW1 1626   3.170   2.738   1.185  1.2868 -2.1428  3.4655
  407SOL    HW2 1627   3.117   2.697   1.054 -3.8865 -4.0637  1.9684
  407SOL     MW 1628   3.104   2.730   1.127 -0.4238 -0.9154  0.8184
  408SOL     OW 1629   2.054   2.065   0.749  0.0677  0.0396  0.5281
  408SOL    HW1 1630   2.007   2.107   0.821  1.2284  2.1201  1.2036
  408SOL    HW2 1631   1.992   2.062   0.683  0.0201  0.9542  1.6884
  408SOL     MW 1632   2.040   2.070   0.750  0.2146  0.4348  0.7703
  409SOL     OW 1633   1.367   0.060   0.922  0.3967  0.8013 -0.2793
  409SOL    HW1 1634   1.335   0.144   0.946  0.4529  1.2689 -2.7671
  409SOL    HW2 1635   1.453   0.043   0.960  0.7297  1.5921 -0.3029
  409SOL     MW 1636   1.374   0.069   0.931  0.4481  0.9673 -0.6106
  410SOL     OW 1637   1.154   2.435   1.045  0.6564  0.5064 -0.3322
  410SOL    HW1 1638   1.071   2.424   0.994  0.8460 -3.6081  2.3549
  410SOL    HW2 1639   1.200   2.358   1.016  2.1092 -0.8034 -1.1465
  410SOL     MW 1640   1.149   2.423   1.035  0.8731 -0.2093 -0.0851
  411SOL     OW 1641   1.946   0.021   2.843 -0.3154 -0.4441 -0.3354
  411SOL    HW1 1642   1.882  -0.014   2.780 -1.4170  0.4275 -0.5236
  411SOL    HW2 1643   1.897   0.076   2.908 -1.2855  1.2961  0.0787
  411SOL     MW 1644   1.931   0.024   2.843 -0.5888 -0.0995 -0.3056
  412SOL     OW 1645   0.979   2.251   0.592 -0.3076 -0.5051  0.1148
  412SOL    HW1 1646   1.050   2.321   0.609 -0.7479 -0.5826 -0.2058
  412SOL    HW2 1647   0.907   2.310   0.553  0.4812  3.3226 -2.3983
  412SOL     MW 1648   0.979   2.268   0.589 -0.2616 -0.0103 -0.2591
  413SOL     OW 1649   0.529   2.749   3.087 -0.2692  0.4813 -0.9022
  413SOL    HW1 1650   0.588   2.669   3.104  2.1006  0.0458 -1.3504
  413SOL    HW2 1651   0.567   2.778   3.010 -0.6119  0.6391  2.8411
  413SOL     MW 1652   0.542   2.742   3.079 -0.0018  0.4447 -0.4674
  414SOL     OW 1653   1.934   3.000   1.075  0.1601 -0.2340  0.0570
  414SOL    HW1 1654   1.862   2.978   1.010  0.1685  0.7383  0.5657
  414SOL    HW2 1655   1.993   2.925   1.072  0.4887 -1.9816 -0.2217
  414SOL     MW 1656   1.933   2.987   1.066  0.2046 -0.3363  0.0873
  415SOL     OW 1657   1.730   2.554   1.126  0.0083 -0.2221  0.2042
  415SOL    HW1 1658   1.705   2.489   1.188 -0.9572 -1.9635  2.0812
  415SOL    HW2 1659   1.786   2.606   1.185  2.2422  0.5529 -2.1301
  415SOL     MW 1660   1.734   2.553   1.142  0.1757 -0.3496  0.1438
  416SOL     OW 1661   0.539   1.948   1.360  0.0281  0.2060 -0.1798
  416SOL    HW1 1662   0.510   2.021   1.305  0.6697  0.0624  0.3403
  416SOL    HW2 1663   0.496   1.873   1.330 -0.6963 -0.3007 -0.8622
  416SOL     MW 1664   0.530   1.948   1.349  0.0172  0.1202 -0.2013
  417SOL     OW 1665   0.977   3.013   2.059  0.3549  0.0734  0.1349
  417SOL    HW1 1666   0.902   3.014   2.108  1.7490  0.8918 -0.3185
  417SOL    HW2 1667   0.954   2.959   1.981  0.8421 -0.8121 -0.8434
  417SOL     MW 1668   0.964   3.006   2.055  0.6031  0.0645 -0.0540
  418SOL     OW 1669   0.636   2.951   0.158  0.6530 -0.0248 -0.9620
  418SOL    HW1 1670   0.710   2.977   0.100 -0.0451  0.9930  0.8145
  418SOL    HW2 1671   0.588   2.884   0.102  0.3760 -0.1278  2.0504
  418SOL     MW 1672   0.639   2.945   0.143  0.5244  0.0959 -0.3302
  419SOL     OW 1673   0.456   2.616   1.404 -0.2576  0.2280  0.0367
  419SOL    HW1 1674   0.500   2.698   1.422  1.3594  1.6573  2.5015
  419SOL    HW2 1675   0.490   2.598   1.320 -1.3523 -3.0299 -1.0054
  419SOL     MW 1676   0.466   2.624   1.395 -0.1887 -0.0133  0.2244
  420SOL     OW 1677   0.857   2.183   0.981  0.8014  0.3308 -0.0825
  420SOL    HW1 1678   0.801   2.197   1.059  0.3993  3.3780 -2.0259
  420SOL    HW2 1679   0.881   2.268   0.954 -0.7894  1.3919  1.0853
  420SOL     MW 1680   0.852   2.196   0.987  0.5384  0.8728 -0.1848
  421SOL     OW 1681   2.941   0.059   0.020  0.0950 -0.3994  0.2829
  421SOL    HW1 1682   2.910   0.022  -0.064  1.5097 -0.2152 -0.9910
  421SOL    HW2 1683   2.964  -0.029   0.060 -1.2251 -2.1081  1.7049
  421SOL     MW 1684   2.940   0.043   0.014  0.1075 -0.6005  0.3025
  422SOL     OW 1685   0.904   2.447   0.904  0.0466  0.5541 -0.3141
  422SOL    HW1 1686   0.825   2.458   0.954 -0.6916 -0.5083 -0.7472
  422SOL    HW2 1687   0.891   2.485   0.823 -0.6076  1.1948  1.7254
  422SOL     MW 1688   0.892   2.454   0.900 -0.1371  0.4984 -0.1022
  423SOL     OW 1689   1.524   0.144   0.498  0.1432 -0.2759 -0.3347
  423SOL    HW1 1690   1.524   0.131   0.403 -0.3928 -2.6911 -0.7906
  423SOL    HW2 1691   1.512   0.232   0.520  4.1529 -1.9556 -1.9806
  423SOL     MW 1692   1.523   0.153   0.488  0.6015 -0.8162 -0.6120
  424SOL     OW 1693   0.668   2.253   1.201 -0.3405  0.0056 -0.0520
  424SOL    HW1 1694   0.596   2.201   1.155 -0.0257 -0.9884  0.5080
  424SOL    HW2 1695   0.638   2.259   1.296 -0.8981  1.4271 -0.3586
  424SOL     MW 1696   0.655   2.247   1.207 -0.3725  0.0620 -0.0186
  425SOL     OW 1697   1.723   2.860   1.952 -0.1080  0.1178 -0.0457
  425SOL    HW1 1698   1.740   2.876   1.854  1.4021 -1.1143 -2.2181
  425SOL    HW2 1699   1.758   2.775   1.981  1.6507 -0.4652  0.4899
  425SOL     MW 1700   1.730   2.851   1.943  0.3233 -0.1217 -0.2616
  426SOL     OW 1701   0.827   1.676   1.942 -0.1791 -0.4392 -0.0873
  426SOL    HW1 1702   0.779   1.697   1.858 -2.0599 -0.5803 -0.3126
  426SOL    HW2 1703   0.801   1.748   2.011 -0.2320  1.7901 -0.3876
  426SOL     MW 1704   0.817   1.688   1.940 -0.4342 -0.1637 -0.1566
  427SOL     OW 1705   0.333   1.554   1.900 -0.0223  0.4633 -0.0917
  427SOL    HW1 1706   0.399   1.485   1.883  1.9420  0.1986  0.9580
  427SOL    HW2 1707   0.279   1.516   1.968  1.1664  1.6736 -2.8911
  427SOL     MW 1708   0.334   1.540   1.907  0.3937  0.5881 -0.3226
  428SOL     OW 1709   0.578   2.569   1.168  0.2720  0.4429 -0.1556
  428SOL    HW1 1710   0.650   2.515   1.205 -1.9150 -1.6532 -1.0805
  428SOL    HW2 1711   0.514   2.499   1.153  0.4529  0.6594  1.8712
  428SOL     MW 1712   0.579   2.553   1.171  0.0073  0.1949 -0.0102
  429SOL     OW 1713   1.325   2.650   1.075  0.3127  0.6134 -0.1367
  429SOL    HW1 1714   1.257   2.583   1.064 -3.0763  0.8533  0.3541
  429SOL    HW2 1715   1.286   2.735   1.042  0.0325  2.2843  2.0767
  429SOL     MW 1716   1.311   2.652   1.069 -0.1714  0.8655  0.2201
  430SOL     OW 1717   1.174   2.728   0.680  0.5413  0.6980  0.8110
  430SOL    HW1 1718   1.183   2.631   0.682 -1.5765 -0.0831 -0.6512
  430SOL    HW2 1719   1.115   2.739   0.609 -0.0486 -0.8783  1.2599
  430SOL     MW 1720   1.168   2.717   0.671  0.1840  0.3870  0.6773
  431SOL     OW 1721   0.276   1.890   1.112  0.9980 -0.1493 -0.0243
  431SOL    HW1 1722   0.343   1.839   1.067 -1.3371  1.7142  0.0156
  431SOL    HW2 1723   0.236   1.954   1.049  1.4282 -0.1700 -0.9914
  431SOL     MW 1724   0.280   1.892   1.097  0.7467  0.0939 -0.1466
  432SOL     OW 1725   0.018   0.047   1.111  0.6997  0.0058 -0.3687
  432SOL    HW1 1726   0.049   0.066   1.204 -0.4403  2.8515 -1.8830
  432SOL    HW2 1727  -0.042  -0.026   1.123  3.7318 -0.4815 -2.0559
  432SOL     MW 1728   0.014   0.040   1.125  0.9493  0.3169 -0.7911
  433SOL     OW 1729   0.616   2.852   1.439 -0.2567  0.2189  1.0299
  433SOL    HW1 1730   0.628   2.878   1.534 -0.9341 -1.2247  0.1511
  433SOL    HW2 1731   0.708   2.861   1.406  0.7942 -2.1728  0.2717
  433SOL     MW 1732   0.629   2.857   1.448 -0.2074 -0.2872  0.8139
  434SOL     OW 1733   1.582   2.870   1.470 -0.1274 -0.4790 -0.0556
  434SOL    HW1 1734   1.488   2.892   1.497  1.6519  0.0181 -1.2029
  434SOL    HW2 1735   1.557   2.841   1.384 -0.4675 -0.3869 -1.1631
  434SOL     MW 1736   1.566   2.869   1.462  0.0625 -0.4013 -0.3531
  435SOL     OW 1737   2.814   1.820   0.182  0.3802  0.2362 -0.0129
  435SOL    HW1 1738   2.856   1.901   0.150 -1.3256  2.7134 -1.1809
  435SOL    HW2 1739   2.826   1.761   0.104  0.8685  1.0469 -0.9478
  435SOL     MW 1740   2.821   1.823   0.168  0.2196  0.6700 -0.2904
  436SOL     OW 1741   1.273   2.782   0.312  0.1489  0.6495  0.2139
  436SOL    HW1 1742   1.341   2.755   0.375  1.4632  0.7298 -0.1358
  436SOL    HW2 1743   1.244   2.860   0.355  0.6463 -1.7964 -0.9079
  436SOL     MW 1744   1.278   2.789   0.326  0.3879  0.3374  0.0198
  437SOL     OW 1745   0.889   2.897   1.367  0.4887 -0.8101  0.5184
  437SOL    HW1 1746   0.904   2.986   1.330 -1.8752 -0.5428  1.6479
  437SOL    HW2 1747   0.918   2.838   1.295  0.3635  1.7973 -0.8487
  437SOL     MW 1748   0.895   2.901   1.352  0.1603 -0.4308  0.4871
  438SOL     OW 1749   0.884   2.596   1.942 -0.6265 -0.0645 -0.3793
  438SOL    HW1 1750   0.826   2.574   2.011  1.1433  2.9282 -2.1116
  438SOL    HW2 1751   0.843   2.538   1.879 -0.8581 -0.6732  1.2596
  438SOL     MW 1752   0.871   2.586   1.943 -0.4236  0.2501 -0.3916
  439SOL     OW 1753   1.079   2.132   0.365 -0.2002 -0.0637  0.4174
  439SOL    HW1 1754   1.022   2.155   0.436 -2.2775  1.3898  0.2775
  439SOL    HW2 1755   1.121   2.214   0.339 -1.1948 -0.9351 -0.6807
  439SOL     MW 1756   1.077   2.145   0.371 -0.6055  0.0131  0.2541
  440SOL     OW 1757   1.675   2.944   3.049  0.4899  0.6683  0.6447
  440SOL    HW1 1758   1.622   2.927   3.130 -0.7740 -1.8879  3.5888
  440SOL    HW2 1759   1.737   2.878   3.041 -0.8689  0.0824 -0.1067
  440SOL     MW 1760   1.676   2.933   3.059  0.1438  0.2537  0.9340
  441SOL     OW 1761   0.354   2.641   0.510 -0.1310  0.1212 -0.3960
  441SOL    HW1 1762   0.314   2.632   0.424  3.3252 -0.4185  0.2693
  441SOL    HW2 1763   0.379   2.736   0.507  1.4026  4.2192 -0.5397
  441SOL     MW 1764   0.352   2.653   0.498  0.5273  0.5907 -0.3271
  442SOL     OW 1765   3.051   2.354   0.631  0.3115 -0.1439 -0.1438
  442SOL    HW1 1766   3.082   2.442   0.626 -0.9991 -2.2718 -1.0501
  442SOL    HW2 1767   2.964   2.363   0.672  0.9686 -0.8366 -0.6924
  442SOL     MW 1768   3.043   2.367   0.636  0.2253 -0.5161 -0.3358
  443SOL     OW 1769   1.395   1.755   1.892  1.1651  0.3134  0.7296
  443SOL    HW1 1770   1.339   1.784   1.820  2.2197 -0.9881  2.5255
  443SOL    HW2 1771   1.343   1.676   1.913  0.4480 -1.3228 -0.5005
  443SOL     MW 1772   1.381   1.749   1.885  1.2096 -0.0742  0.8043
  444SOL     OW 1773   0.936   2.570   1.577 -0.0704  0.2277  0.4200
  444SOL    HW1 1774   1.008   2.520   1.626  0.1790 -0.6540  1.6887
  444SOL    HW2 1775   0.863   2.579   1.640 -0.4916 -3.2865 -1.1796
  444SOL     MW 1776   0.936   2.565   1.592 -0.0930 -0.3523  0.3764
  445SOL     OW 1777   0.942   0.030   1.255 -0.4007  0.2028 -0.1244
  445SOL    HW1 1778   0.934   0.129   1.256 -1.0292  1.5280 -0.3870
  445SOL    HW2 1779   1.011   0.025   1.191  0.1835  0.7870  1.8952
  445SOL     MW 1780   0.950   0.042   1.247 -0.4065  0.4547  0.1074
  446SOL     OW 1781   2.689   2.841   1.095 -0.3679  0.1458 -0.5325
  446SOL    HW1 1782   2.660   2.874   1.008  1.0175 -0.4119 -1.7181
  446SOL    HW2 1783   2.722   2.749   1.082  1.0600  0.3800  0.5959
  446SOL     MW 1784   2.690   2.833   1.082  0.0033  0.1031 -0.5401
  447SOL     OW 1785   3.053   2.074   1.663  0.8494  0.1334  0.7088
  447SOL    HW1 1786   3.114   2.026   1.722  1.3189  0.3572 -0.0044
  447SOL    HW2 1787   2.992   2.006   1.620  5.9289 -0.3766  0.3071
  447SOL     MW 1788   3.053   2.059   1.665  1.5816  0.0956  0.5617
  448SOL     OW 1789   1.711   2.354   1.683  0.9621  0.7225  0.5650
  448SOL    HW1 1790   1.645   2.277   1.681 -1.7063  1.7222  0.8611
  448SOL    HW2 1791   1.669   2.433   1.661  2.3974 -0.9349  0.5651
  448SOL     MW 1792   1.696   2.354   1.680  0.7994  0.6357  0.6041
  449SOL     OW 1793   0.763   2.854   0.387  0.1831 -0.3858  0.8557
  449SOL    HW1 1794   0.716   2.862   0.300 -1.1623  1.5369  1.1590
  449SOL    HW2 1795   0.707   2.903   0.443 -1.2835  2.7468 -1.1455
  449SOL     MW 1796   0.749   2.862   0.383 -0.1879  0.2812  0.6317
  450SOL     OW 1797   1.187   2.445   0.683  0.0840  0.1618 -0.3400
  450SOL    HW1 1798   1.192   2.393   0.764  1.7237 -1.1310 -0.4893
  450SOL    HW2 1799   1.274   2.444   0.638  0.5586 -2.1222  0.3864
  450SOL     MW 1800   1.199   2.438   0.688  0.3630 -0.3101 -0.2639
  451SOL     OW 1801   0.617   2.041   1.649 -0.3239 -0.1094  0.4663
  451SOL    HW1 1802   0.682   2.115   1.649  1.1331  0.5408 -3.1169
  451SOL    HW2 1803   0.589   2.019   1.560 -1.9421 -1.3180  0.9720
  451SOL     MW 1804   0.622   2.048   1.637 -0.3452 -0.1831  0.0602
  452SOL     OW 1805   0.275   2.723   0.050 -0.3498 -0.6768 -0.5931
  452SOL    HW1 1806   0.359   2.730   0.008  0.1602  0.7887  2.0918
  452SOL    HW2 1807   0.197   2.743  -0.010 -1.9267 -0.4101  0.6723
  452SOL     MW 1808   0.276   2.726   0.036 -0.4905 -0.4483 -0.0719
  453SOL     OW 1809   0.378   3.017   1.708 -0.1016 -0.7618 -0.1700
  453SOL    HW1 1810   0.473   3.046   1.699 -0.0686  0.5488 -2.1303
  453SOL    HW2 1811   0.341   3.032   1.623 -0.9202 -0.7108  0.9047
  453SOL     MW 1812   0.386   3.023   1.695 -0.2052 -0.5821 -0.2869
  454SOL     OW 1813   0.984   2.692   1.202 -0.9122  0.3062 -0.0025
  454SOL    HW1 1814   0.911   2.635   1.232  0.2601 -0.8585 -0.8066
  454SOL    HW2 1815   0.940   2.746   1.134 -3.4852  1.1845  0.3540
  454SOL     MW 1816   0.969   2.692   1.197 -1.0970  0.2684 -0.0616
  455SOL     OW 1817   1.530   2.929   0.184  0.1985 -0.4610 -0.1396
  455SOL    HW1 1818   1.560   2.923   0.275  0.2290  0.3091 -1.0973
  455SOL    HW2 1819   1.450   2.881   0.188  1.7013 -0.0129 -0.3610
  455SOL     MW 1820   1.523   2.922   0.197  0.4008 -0.3002 -0.2952
  456SOL     OW 1821   2.898   0.351   1.317 -0.0827 -0.4105  0.4970
  456SOL    HW1 1822   2.839   0.279   1.274 -1.2692 -0.1525 -0.0912
  456SOL    HW2 1823   2.977   0.375   1.262 -1.1461 -0.2448 -0.3671
  456SOL     MW 1824   2.901   0.345   1.304 -0.3795 -0.3546  0.3054
  457SOL     OW 1825   0.939   1.546   2.990  0.7086  0.1098 -0.5820
  457SOL    HW1 1826   0.843   1.531   3.000  1.2487 -2.0251 -1.2939
  457SOL    HW2 1827   0.980   1.463   2.996 -0.9131 -1.2762 -2.7644
  457SOL     MW 1828   0.932   1.533   2.992  0.5659 -0.3547 -0.9639
  458SOL     OW 1829   1.450   1.389   0.545  0.1724  0.1425 -0.0433
  458SOL    HW1 1830   1.381   1.416   0.604  0.3797 -2.2587 -0.9000
  458SOL    HW2 1831   1.408   1.340   0.472  2.6386 -0.6772  2.5611
  458SOL     MW 1832   1.436   1.386   0.543  0.5251 -0.2825  0.1873
  459SOL     OW 1833   1.518   0.103   0.217 -0.8880  0.3557 -0.1016
  459SOL    HW1 1834   1.531   0.011   0.192  0.2626 -1.6396 -0.1704
  459SOL    HW2 1835   1.450   0.132   0.157 -1.3031  2.5857  1.8113
  459SOL     MW 1836   1.511   0.095   0.206 -0.7909  0.3866  0.1417
  460SOL     OW 1837   1.803   2.156   0.686  0.2050  0.6963 -0.2947
  460SOL    HW1 1838   1.708   2.150   0.712  1.2145  0.5820 -1.7018
  460SOL    HW2 1839   1.814   2.090   0.613  0.5574 -1.7847  1.1027
  460SOL     MW 1840   1.792   2.146   0.680  0.3847  0.3538 -0.2960
  461SOL     OW 1841   0.507   2.403   0.612 -0.0225  0.2112 -0.0696
  461SOL    HW1 1842   0.471   2.471   0.556  1.3891  0.9065 -0.4934
  461SOL    HW2 1843   0.463   2.421   0.695 -0.5309 -0.9204 -1.0338
  461SOL     MW 1844   0.496   2.414   0.616  0.0967  0.1536 -0.2527
  462SOL     OW 1845   0.342   0.225   1.268  0.2811 -0.5279 -0.3545
  462SOL    HW1 1846   0.391   0.149   1.216  0.3152  0.4771 -1.9780
  462SOL    HW2 1847   0.407   0.279   1.309  3.7997  0.3482 -1.1589
  462SOL     MW 1848   0.357   0.222   1.266  0.7498 -0.2797 -0.6748
  463SOL     OW 1849   0.898   3.093   0.689 -0.5443  0.6949 -0.1400
  463SOL    HW1 1850   0.928   3.100   0.595 -0.1461 -3.0082 -0.0751
  463SOL    HW2 1851   0.811   3.131   0.695  1.6006  0.8082  0.2616
  463SOL     MW 1852   0.891   3.099   0.677 -0.2087  0.2213 -0.0784
  464SOL     OW 1853   0.794   3.037   2.259  0.3516 -0.3008  0.1427
  464SOL    HW1 1854   0.744   2.955   2.275  0.3135 -3.8044  2.3068
  464SOL    HW2 1855   0.837   3.055   2.340  2.1242  0.6865  1.5802
  464SOL     MW 1856   0.793   3.029   2.272  0.5804 -0.6328  0.6179
  465SOL     OW 1857   0.651   0.321   0.481 -0.0809  0.8023  0.1347
  465SOL    HW1 1858   0.671   0.257   0.552  1.4347 -1.0661 -1.1545
  465SOL    HW2 1859   0.662   0.269   0.396 -0.1336 -0.4946 -0.2310
  465SOL     MW 1860   0.655   0.306   0.479  0.1121  0.3847 -0.0836
  466SOL     OW 1861   1.088   2.017   0.741  0.0018  0.0898 -0.2500
  466SOL    HW1 1862   1.076   1.936   0.696  0.1822  1.0063  1.4112
  466SOL    HW2 1863   1.069   2.092   0.681 -0.2540 -0.4051 -1.3142
  466SOL     MW 1864   1.084   2.016   0.727 -0.0082  0.1454 -0.1713
  467SOL     OW 1865   1.276   2.263   0.893  0.0051  0.2585  0.1393
  467SOL    HW1 1866   1.369   2.288   0.901 -1.5942  0.8244 -1.4158
  467SOL    HW2 1867   1.262   2.169   0.885  1.4058 -0.2103  0.5191
  467SOL     MW 1868   1.286   2.254   0.893 -0.0211  0.2713 -0.0158
  468SOL     OW 1869   0.357   2.582   1.986  0.0141 -0.0183 -0.3648
  468SOL    HW1 1870   0.380   2.522   1.915  1.1298 -1.1776  1.8940
  468SOL    HW2 1871   0.332   2.663   1.937 -2.3341  0.8707  0.0359
  468SOL     MW 1872   0.357   2.585   1.970 -0.1485 -0.0540 -0.0139
  469SOL     OW 1873   0.366   2.134   1.774 -0.1782 -0.1403  0.1301
  469SOL    HW1 1874   0.294   2.076   1.774 -0.5589  3.1801 -0.4432
  469SOL    HW2 1875   0.441   2.091   1.725 -0.2551 -1.3803 -1.7438
  469SOL     MW 1876   0.367   2.121   1.767 -0.2386  0.1342 -0.1928
  470SOL     OW 1877   3.039   2.575   0.083 -0.3726 -0.8084  0.4756
  470SOL    HW1 1878   2.959   2.534   0.114 -2.7801 -0.7332 -1.1645
  470SOL    HW2 1879   3.023   2.611  -0.004  1.3204  1.3129  1.6139
  470SOL     MW 1880   3.026   2.574   0.076 -0.4669 -0.5186  0.4094
  471SOL     OW 1881   1.245   2.746   1.416 -0.0475  0.3550  0.4593
  471SOL    HW1 1882   1.178   2.754   1.488 -2.1036  0.2961 -0.3179
  471SOL    HW2 1883   1.191   2.717   1.340  1.0071 -1.9192 -1.5098
  471SOL     MW 1884   1.229   2.744   1.416 -0.1796  0.0472  0.0969
  472SOL     OW 1885   2.906   2.057   0.394  0.2043 -0.1320  0.0259
  472SOL    HW1 1886   2.902   2.040   0.299 -1.7596  0.7771  1.4901
  472SOL    HW2 1887   2.875   1.971   0.420 -1.5534  0.9887  2.9916
  472SOL     MW 1888   2.901   2.043   0.385 -0.2867  0.1358  0.6104
  473SOL     OW 1889   0.811   2.488   1.338  0.6510  0.8779 -0.0935
  473SOL    HW1 1890   0.895   2.443   1.328 -1.5340  1.4949  0.8766
  473SOL    HW2 1891   0.828   2.526   1.418  0.3242  1.4672 -0.0874
  473SOL     MW 1892   0.825   2.487   1.347  0.3196  1.0371  0.0353
  474SOL     OW 1893   0.754   2.256   1.684  0.0791 -0.1442 -0.1080
  474SOL    HW1 1894   0.827   2.274   1.743  0.0040  1.6915  1.2594
  474SOL    HW2 1895   0.788   2.235   1.595  0.8580 -3.3370  5.5001
  474SOL     MW 1896   0.769   2.255   1.680  0.1719 -0.3232  0.8124
  475SOL     OW 1897   1.617   0.029   1.490 -0.0870  0.2584 -0.1316
  475SOL    HW1 1898   1.540   0.075   1.450  1.6167  0.1587 -1.0815
  475SOL    HW2 1899   1.588  -0.066   1.488  1.9599 -2.8656 -2.6901
  475SOL     MW 1900   1.603   0.022   1.485  0.4079 -0.1669 -0.5945
  476SOL     OW 1901   1.498   2.622   0.858  0.1334 -0.6215 -0.0140
  476SOL    HW1 1902   1.430   2.625   0.930 -0.2820  1.1463  0.4217
  476SOL    HW2 1903   1.514   2.709   0.817 -2.1960  1.4643 -0.5520
  476SOL     MW 1904   1.491   2.634   0.862 -0.2287 -0.1130 -0.0275
  477SOL     OW 1905   0.796   2.533   0.659 -0.2248  0.5089 -0.3069
  477SOL    HW1 1906   0.831   2.595   0.595 -1.4295  2.4842 -1.2079
  477SOL    HW2 1907   0.751   2.458   0.618 -0.7727  1.0365  1.5031
  477SOL     MW 1908   0.795   2.531   0.645 -0.4561  0.8391 -0.1870
  478SOL     OW 1909   0.150   2.684   0.903 -0.2763  0.4406 -0.0468
  478SOL    HW1 1910   0.199   2.766   0.904 -2.3218  0.1053  0.7164
  478SOL    HW2 1911   0.219   2.625   0.887  2.2849 -1.4120  1.3176
  478SOL     MW 1912   0.166   2.687   0.901 -0.2083  0.1519  0.2339
  479SOL     OW 1913   1.411   1.931   1.278  0.3976  0.6556 -0.0526
  479SOL    HW1 1914   1.379   1.980   1.355 -1.7986  0.2623 -0.8482
  479SOL    HW2 1915   1.480   1.878   1.307 -1.0142 -1.7014  0.7829
  479SOL     MW 1916   1.416   1.931   1.292 -0.0784  0.2927 -0.0473
  480SOL     OW 1917   1.840   2.406   1.378 -0.0115 -0.0995 -0.0366
  480SOL    HW1 1918   1.862   2.328   1.425  1.3186  2.1497  0.8102
  480SOL    HW2 1919   1.883   2.398   1.295 -4.9827 -2.5108 -0.4482
  480SOL     MW 1920   1.848   2.395   1.373 -0.4919 -0.1209  0.0208
  481SOL     OW 1921   1.182   0.064   1.138  0.0070 -0.0566  0.7933
  481SOL    HW1 1922   1.242   0.033   1.072  1.9246  2.3005  0.9833
  481SOL    HW2 1923   1.186   0.163   1.117 -0.2697  0.9853 -1.6563
  481SOL     MW 1924   1.190   0.073   1.127  0.2235  0.3918  0.4952
  482SOL     OW 1925   0.935   0.006   0.411 -0.6146 -0.4034  0.4009
  482SOL    HW1 1926   0.882  -0.039   0.345  0.0681  0.0150  1.2452
  482SOL    HW2 1927   0.913   0.098   0.397 -0.4572  0.5574 -0.5259
  482SOL     MW 1928   0.925   0.012   0.400 -0.5038 -0.2214  0.3900
  483SOL     OW 1929   0.377   2.924   0.509 -0.3734  0.4258  0.0923
  483SOL    HW1 1930   0.297   2.927   0.456 -0.6549 -0.0775  0.6270
  483SOL    HW2 1931   0.347   2.980   0.586 -1.2570  1.8542  2.2113
  483SOL     MW 1932   0.362   2.932   0.512 -0.5271  0.5478  0.4424
  484SOL     OW 1933   1.675   1.856   1.372 -0.0925  0.0225 -0.4101
  484SOL    HW1 1934   1.724   1.925   1.327 -0.1638  0.7469 -1.3618
  484SOL    HW2 1935   1.664   1.891   1.459  0.8494 -0.0263  0.9797
  484SOL     MW 1936   1.680   1.870   1.378  0.0223  0.1116 -0.3523
  485SOL     OW 1937   0.535   2.397   0.283 -0.8777  0.4593  0.2314
  485SOL    HW1 1938   0.589   2.422   0.367  0.9908 -2.2196  1.5279
  485SOL    HW2 1939   0.448   2.442   0.263  0.2181 -1.3578  1.2734
  485SOL     MW 1940   0.530   2.406   0.292 -0.4866 -0.1339  0.5400
  486SOL     OW 1941   0.123   2.456   1.396 -0.4065 -0.0379 -0.1730
  486SOL    HW1 1942   0.159   2.544   1.372 -1.2955 -2.1062 -0.9639
  486SOL    HW2 1943   0.134   2.452   1.493  2.9195 -3.2391  0.9510
  486SOL     MW 1944   0.129   2.467   1.406 -0.0849 -0.7332 -0.1291
  487SOL     OW 1945   1.278   1.603   1.098 -0.0883 -0.0690 -0.0460
  487SOL    HW1 1946   1.258   1.700   1.092  0.8463  1.5673 -0.5089
  487SOL    HW2 1947   1.362   1.595   1.042  3.4890  0.4082 -0.1357
  487SOL     MW 1948   1.286   1.615   1.090  0.5070  0.2099 -0.1189
  488SOL     OW 1949   1.613   1.855   0.572  0.1496 -0.1445 -0.1475
  488SOL    HW1 1950   1.699   1.894   0.552 -1.1661 -0.1286 -1.0147
  488SOL    HW2 1951   1.557   1.871   0.496  0.3699 -0.6633  0.7973
  488SOL     MW 1952   1.617   1.862   0.560  0.0051 -0.2109 -0.1372
  489SOL     OW 1953   0.755   0.791   0.543 -0.3992 -0.8096  0.3029
  489SOL    HW1 1954   0.782   0.702   0.517 -0.8439  0.3064  1.3421
  489SOL    HW2 1955   0.741   0.798   0.638 -0.6852  0.1080  0.0590
  489SOL     MW 1956   0.757   0.780   0.552 -0.4956 -0.5413  0.4079
  490SOL     OW 1957   1.413   2.111   0.450 -0.0038 -0.0454  0.6367
  490SOL    HW1 1958   1.449   2.198   0.419  0.8557  0.3300 -0.4576
  490SOL    HW2 1959   1.317   2.126   0.436 -0.0538 -0.8438  2.0469
  490SOL     MW 1960   1.405   2.124   0.444  0.1030 -0.1012  0.6784
  491SOL     OW 1961   1.200   3.005   0.459  0.1463  0.6528  0.8107
  491SOL    HW1 1962   1.219   3.067   0.528 -0.1572  1.8431  1.0315
  491SOL    HW2 1963   1.111   3.011   0.432  0.5952 -0.3860 -2.2671
  491SOL     MW 1964   1.191   3.014   0.464  0.1655  0.6728  0.4337
  492SOL     OW 1965   1.534   2.141   0.720 -0.5947  0.1236 -0.2094
  492SOL    HW1 1966   1.486   2.129   0.634  1.1025  2.3169  0.5216
  492SOL    HW2 1967   1.478   2.082   0.779  0.4126  0.1197  1.5740
  492SOL     MW 1968   1.520   2.132   0.717 -0.2379  0.4125  0.1223
  493SOL     OW 1969   0.130   2.918   0.383 -0.3934 -0.1928 -0.6625
  493SOL    HW1 1970   0.107   3.002   0.421  2.7395 -0.5954 -2.6313
  493SOL    HW2 1971   0.154   2.942   0.291  1.4220 -1.5024 -0.5166
  493SOL     MW 1972   0.130   2.932   0.376  0.2595 -0.4187 -0.9031
  494SOL     OW 1973   0.424   2.412   1.765 -0.7034  0.1510  0.0858
  494SOL    HW1 1974   0.399   2.314   1.781  0.9186  1.2467 -0.6851
  494SOL    HW2 1975   0.453   2.398   1.671 -1.0139 -0.4388  0.0499
  494SOL     MW 1976   0.424   2.397   1.755 -0.5304  0.2178 -0.0206
  495SOL     OW 1977   2.879   1.659   2.719 -0.5648 -0.2425  0.0022
  495SOL    HW1 1978   2.876   1.746   2.768  0.0676  1.1995  0.8403
  495SOL    HW2 1979   2.901   1.607   2.799  0.4624  2.2322  1.6039
  495SOL     MW 1980   2.882   1.664   2.736 -0.3458  0.2743  0.3241
  496SOL     OW 1981   2.853   2.317   2.635  0.1484  0.0380 -0.1444
  496SOL    HW1 1982   2.866   2.225   2.660 -0.0756 -0.2425 -0.8418
  496SOL    HW2 1983   2.928   2.368   2.658 -1.9206  1.3341  2.0586
  496SOL     MW 1984   2.865   2.311   2.641 -0.1541  0.1720  0.0543
  497SOL     OW 1985   1.519   2.309   2.542  0.5001 -0.0927  0.9671
  497SOL    HW1 1986   1.498   2.284   2.453 -0.8622  0.0029  0.7314
  497SOL    HW2 1987   1.475   2.251   2.595  1.0264  0.0406 -0.6046
  497SOL     MW 1988   1.510   2.298   2.538  0.3898 -0.0625  0.7286
  498SOL     OW 1989   1.571   2.716   2.260 -0.5739 -0.7288  0.5389
  498SOL    HW1 1990   1.572   2.628   2.228 -1.6195  3.2257 -2.0467
  498SOL    HW2 1991   1.631   2.711   2.331 -1.8303  0.4019 -1.0403
  498SOL     MW 1992   1.579   2.704   2.265 -0.8776 -0.0578 -0.0106
  499SOL     OW 1993   0.918   0.166  -0.001 -0.3538  0.1734  0.3094
  499SOL    HW1 1994   0.848   0.204   0.042 -0.4118 -0.3543 -2.0678
  499SOL    HW2 1995   0.901   0.072  -0.005  1.8630  4.3385  0.7970
  499SOL     MW 1996   0.907   0.158   0.004 -0.0690  0.6533  0.0601
  500SOL     OW 1997   1.002   2.440   2.798  0.0371 -0.3841  0.2335
  500SOL    HW1 1998   1.065   2.428   2.867  0.6965 -0.8330  0.4200
  500SOL    HW2 1999   0.967   2.529   2.810  1.3003  1.2337  1.7123
  500SOL     MW 2000   1.006   2.450   2.809  0.2908 -0.2299  0.4532
  501SOL     OW 2001   1.751   2.243   3.075  0.0411  0.4700  0.2057
  501SOL    HW1 2002   1.704   2.323   3.096 -0.1432  1.2774  0.4592
  501SOL    HW2 2003   1.833   2.261   3.122 -0.9827 -0.9560  0.9477
  501SOL     MW 2004   1.756   2.256   3.084 -0.1183  0.3884  0.3371
  502SOL     OW 2005   0.113   2.812   2.939 -0.0147  0.4074  0.2042
  502SOL    HW1 2006   0.031   2.758   2.939 -1.0257  0.5160  0.5307
  502SOL    HW2 2007   0.119   2.855   2.851  0.0929  1.3515  2.2773
  502SOL     MW 2008   0.103   2.811   2.928 -0.1339  0.5463  0.5208
  503SOL     OW 2009   1.140   2.615   2.053  0.5498 -0.1162 -0.0145
  503SOL    HW1 2010   1.205   2.612   1.986 -3.1623  1.6415  0.7968
  503SOL    HW2 2011   1.053   2.627   2.011  0.4041  0.1222 -1.4813
  503SOL     MW 2012   1.137   2.616   2.038  0.0408  0.1472 -0.1010
  504SOL     OW 2013   0.097   2.647   2.046  0.1985  0.0165 -0.1134
  504SOL    HW1 2014   0.185   2.606   2.043 -0.0879 -2.2868  0.4791
  504SOL    HW2 2015   0.052   2.606   2.116 -1.4377  1.7930  0.3804
  504SOL     MW 2016   0.103   2.636   2.055 -0.0551 -0.0530  0.0299
  505SOL     OW 2017   1.645   2.671   2.727 -0.1344 -0.1327  0.2286
  505SOL    HW1 2018   1.688   2.661   2.638  0.3135 -1.1039  1.0321
  505SOL    HW2 2019   1.590   2.752   2.717  0.8397  0.8729 -0.6148
  505SOL     MW 2020   1.644   2.680   2.714  0.0532 -0.1282  0.2233
  506SOL     OW 2021   1.637   0.020   2.863  0.3245  0.3746 -0.0636
  506SOL    HW1 2022   1.642  -0.041   2.943 -2.5005  0.0668 -0.8347
  506SOL    HW2 2023   1.672  -0.040   2.793  0.1956 -3.5045 -0.5517
  506SOL     MW 2024   1.642   0.004   2.865 -0.0652 -0.1778 -0.2298
  507SOL     OW 2025   0.910   2.685   2.868  0.4116  0.1538 -0.2699
  507SOL    HW1 2026   0.953   2.739   2.800  0.2754  3.2896  0.7677
  507SOL    HW2 2027   0.819   2.668   2.843  2.7109 -2.3431 -2.7153
  507SOL     MW 2028   0.904   2.690   2.856  0.6970  0.2381 -0.4556
  508SOL     OW 2029   1.242   2.112   2.528 -0.2677 -0.1593  0.0889
  508SOL    HW1 2030   1.294   2.106   2.609  1.7023  0.7767 -1.6054
  508SOL    HW2 2031   1.182   2.186   2.554  3.1111 -2.2584 -3.0068
  508SOL     MW 2032   1.241   2.121   2.542  0.4380 -0.3127 -0.5431
  509SOL     OW 2033   0.646   2.619   2.788  0.4339 -0.7198 -0.3681
  509SOL    HW1 2034   0.656   2.560   2.720  0.1573 -1.4594  5.2395
  509SOL    HW2 2035   0.619   2.704   2.744  1.4153  0.0365  1.6544
  509SOL     MW 2036   0.644   2.622   2.774  0.5269 -0.7176  0.6386
  510SOL     OW 2037   1.568   2.605   1.635 -0.3066 -0.1887 -0.5486
  510SOL    HW1 2038   1.574   2.688   1.596 -1.4899  0.0634  1.1342
  510SOL    HW2 2039   1.494   2.605   1.706  3.6650 -1.9099 -1.0616
  510SOL     MW 2040   1.559   2.616   1.639  0.0613 -0.3826 -0.3942
  511SOL     OW 2041   0.392   2.615   2.512  0.3980  0.0465 -0.3768
  511SOL    HW1 2042   0.465   2.563   2.538  3.1135 -1.0055 -2.1914
  511SOL    HW2 2043   0.400   2.623   2.413 -1.8680 -0.7038 -0.7124
  511SOL     MW 2044   0.403   2.610   2.503  0.4573 -0.1913 -0.6605
  512SOL     OW 2045   0.988   2.030   2.885 -0.0027 -0.1840 -0.0700
  512SOL    HW1 2046   0.904   2.066   2.921 -2.4744 -0.1137 -2.5027
  512SOL    HW2 2047   0.995   1.962   2.951 -1.7503 -0.0270 -0.1846
  512SOL     MW 2048   0.978   2.026   2.899 -0.5594 -0.1540 -0.4061
  513SOL     OW 2049   1.673   2.457   2.199 -0.9239  0.0739 -0.0138
  513SOL    HW1 2050   1.742   2.531   2.177  2.9551  0.0469 -1.0910
  513SOL    HW2 2051   1.693   2.447   2.294 -1.2827 -0.7839 -0.2014
  513SOL     MW 2052   1.685   2.466   2.209 -0.4594 -0.0429 -0.1807
  514SOL     OW 2053   0.252   2.412   2.679  0.1741  0.6433 -0.2016
  514SOL    HW1 2054   0.284   2.499   2.653 -1.6090 -0.5278  0.3673
  514SOL    HW2 2055   0.288   2.377   2.761 -1.0767 -0.4643  0.4758
  514SOL     MW 2056   0.261   2.419   2.686 -0.2261  0.3427 -0.0371
  515SOL     OW 2057   1.068   2.071   1.935  0.1320  0.1229  0.0226
  515SOL    HW1 2058   1.050   2.155   1.899 -1.7214 -2.6482  0.9429
  515SOL    HW2 2059   1.116   2.094   2.017 -0.2465  1.2253  1.9775
  515SOL     MW 2060   1.072   2.085   1.941 -0.1625 -0.0973  0.4020
  516SOL     OW 2061   1.405   2.488   2.976 -0.1660 -0.6612  0.5226
  516SOL    HW1 2062   1.414   2.478   2.882 -1.4420  0.5552 -0.5534
  516SOL    HW2 2063   1.316   2.453   2.996 -2.8704  1.0018 -1.5666
  516SOL     MW 2064   1.395   2.482   2.967 -0.6912 -0.2813  0.1050
  517SOL     OW 2065   0.597   2.402   2.267 -0.5118  0.1646  0.2817
  517SOL    HW1 2066   0.554   2.481   2.240  0.3680 -2.0799 -2.6867
  517SOL    HW2 2067   0.532   2.338   2.224 -3.2251 -4.6161 -0.3425
  517SOL     MW 2068   0.583   2.404   2.258 -0.7537 -0.7623 -0.1923
  518SOL     OW 2069   1.854   0.056   0.018  0.2695  0.4997  0.4503
  518SOL    HW1 2070   1.794   0.128   0.035  3.3313  1.6684  0.9637
  518SOL    HW2 2071   1.794  -0.024   0.015 -1.3838 -1.9475 -1.2348
  518SOL     MW 2072   1.838   0.055   0.020  0.4553  0.3310  0.2957
  519SOL     OW 2073   0.714   2.517   1.720 -0.0486 -0.2788  0.0836
  519SOL    HW1 2074   0.719   2.419   1.693  1.6744 -2.2632  0.0686
  519SOL    HW2 2075   0.635   2.524   1.774 -0.8188  0.0264  1.3003
  519SOL     MW 2076   0.704   2.505   1.723  0.0771 -0.5004  0.2422
  520SOL     OW 2077   1.204   2.201   2.944 -0.3898  0.2873 -0.6265
  520SOL    HW1 2078   1.134   2.148   2.897 -0.3217 -3.6863  0.3315
  520SOL    HW2 2079   1.233   2.147   3.023  2.8763 -1.2980 -0.8773
  520SOL     MW 2080   1.199   2.187   2.948  0.0501 -0.4462 -0.5332
  521SOL     OW 2081   1.751   2.035   2.221  0.1073  0.1021 -0.3022
  521SOL    HW1 2082   1.780   2.037   2.129 -1.5061  2.4650  0.9081
  521SOL    HW2 2083   1.743   1.940   2.228 -2.5176  0.0608 -2.1746
  521SOL     MW 2084   1.754   2.023   2.210 -0.4519  0.4084 -0.3895
  522SOL     OW 2085   2.921   2.518   2.284  0.1833  0.2070  0.2137
  522SOL    HW1 2086   2.995   2.454   2.284  1.3443  0.9994  1.7478
  522SOL    HW2 2087   2.948   2.605   2.295 -2.1376 -0.3928 -1.5640
  522SOL     MW 2088   2.935   2.521   2.285  0.0303  0.2324  0.1815
  523SOL     OW 2089   0.909   1.497   2.120  0.1739 -0.3379 -0.4096
  523SOL    HW1 2090   0.885   1.560   2.043  0.4393 -1.0217  0.1132
  523SOL    HW2 2091   0.970   1.430   2.095 -0.3033 -1.0192 -0.0986
  523SOL     MW 2092   0.914   1.496   2.106  0.1460 -0.5180 -0.2996
  524SOL     OW 2093   0.587   2.390   2.948 -0.0014  0.1746  0.1904
  524SOL    HW1 2094   0.609   2.474   2.902  1.3406  2.2622  1.3745
  524SOL    HW2 2095   0.668   2.329   2.948  1.0532 -3.1372  0.7308
  524SOL     MW 2096   0.601   2.393   2.942  0.3148  0.0131  0.4179
  525SOL     OW 2097   0.454   2.216   2.128  0.0075  0.6287 -0.6513
  525SOL    HW1 2098   0.422   2.142   2.184 -2.1539  0.1485  1.7248
  525SOL    HW2 2099   0.528   2.174   2.086 -0.3866  1.7297 -0.3225
  525SOL     MW 2100   0.460   2.201   2.130 -0.3297  0.7106 -0.2945
  526SOL     OW 2101   0.698   2.120   1.994 -0.0053  0.4923  0.0399
  526SOL    HW1 2102   0.686   2.132   1.908  0.5609 -1.0723  0.8840
  526SOL    HW2 2103   0.756   2.190   2.015 -1.5439 -2.5968 -1.4299
  526SOL     MW 2104   0.704   2.131   1.985 -0.1336 -0.1217 -0.0427
  527SOL     OW 2105   1.324   1.958   2.085 -0.2194  0.4958  0.5388
  527SOL    HW1 2106   1.340   1.949   2.175 -1.5330 -2.6332 -1.3894
  527SOL    HW2 2107   1.354   1.879   2.047  1.1863  1.4732  0.0671
  527SOL     MW 2108   1.330   1.947   2.092 -0.2072  0.2119  0.2221
  528SOL     OW 2109   0.681   2.921   2.927 -0.0700  0.3294  0.4837
  528SOL    HW1 2110   0.661   3.015   2.936  0.3481  1.4402 -0.2867
  528SOL    HW2 2111   0.670   2.899   2.827 -1.7249  2.0459 -1.4668
  528SOL     MW 2112   0.677   2.931   2.915 -0.2332  0.7024  0.1247
  529SOL     OW 2113   0.949   2.325   1.884  0.6407 -0.4135 -0.8365
  529SOL    HW1 2114   0.979   2.338   1.973 -0.2946  1.1963  1.0955
  529SOL    HW2 2115   1.010   2.378   1.826 -0.9247 -3.5053 -1.5823
  529SOL     MW 2116   0.961   2.334   1.888  0.3107 -0.6091 -0.6800
  530SOL     OW 2117   1.145   2.461   3.057  0.0964  0.2959 -0.1573
  530SOL    HW1 2118   1.058   2.511   3.056 -1.9788  0.9734  0.1035
  530SOL    HW2 2119   1.142   2.369   3.037  4.9439  0.6301 -2.0964
  530SOL     MW 2120   1.133   2.455   3.054  0.4621  0.4294 -0.3787
  531SOL     OW 2121   0.983   1.909   2.644  0.3644  0.4511 -0.0990
  531SOL    HW1 2122   0.996   1.948   2.731  1.6235 -1.0922 -2.0577
  531SOL    HW2 2123   0.962   1.819   2.679  0.2980 -2.2056 -1.4077
  531SOL     MW 2124   0.982   1.902   2.660  0.5218 -0.1031 -0.5301
  532SOL     OW 2125   1.706   0.298   2.841  0.1374 -0.0165  0.3007
  532SOL    HW1 2126   1.678   0.214   2.868  2.0731 -1.5009  0.0291
  532SOL    HW2 2127   1.807   0.305   2.873  1.5260 -2.0107 -1.5263
  532SOL     MW 2128   1.715   0.288   2.849  0.5760 -0.4755  0.0238
  533SOL     OW 2129   1.780   2.634   2.985 -0.6218 -0.0322  0.2825
  533SOL    HW1 2130   1.719   2.591   3.045 -1.0932 -1.2341 -0.0101
  533SOL    HW2 2131   1.726   2.652   2.899 -0.0573  0.2009 -3.1242
  533SOL     MW 2132   1.765   2.631   2.981 -0.6095 -0.1601 -0.2056
  534SOL     OW 2133   1.782   2.369   2.468  0.1619 -0.7534  0.1287
  534SOL    HW1 2134   1.698   2.339   2.507 -2.3652  0.5450  0.2309
  534SOL    HW2 2135   1.847   2.394   2.547 -0.0966 -0.9353  1.1870
  534SOL     MW 2136   1.779   2.369   2.483 -0.2057 -0.6061  0.2818
  535SOL     OW 2137   1.834   2.322   1.954  0.1704  0.0062 -0.0626
  535SOL    HW1 2138   1.766   2.339   1.888 -1.0516 -1.5624 -0.4823
  535SOL    HW2 2139   1.925   2.345   1.925  0.3298  1.4016 -1.7902
  535SOL     MW 2140   1.837   2.327   1.942  0.0302 -0.0167 -0.3459
  536SOL     OW 2141   0.465   1.830   2.016 -0.2318  0.1028 -0.1218
  536SOL    HW1 2142   0.477   1.838   1.921  1.6369  2.1646 -1.1366
  536SOL    HW2 2143   0.541   1.866   2.051 -1.6062 -0.1841 -1.0559
  536SOL     MW 2144   0.476   1.836   2.008 -0.1666  0.3370 -0.3790
  537SOL     OW 2145   1.114   0.202   2.895 -0.2106  0.6302 -0.1095
  537SOL    HW1 2146   1.032   0.185   2.941 -2.6424 -1.2550 -0.3923
  537SOL    HW2 2147   1.103   0.299   2.880  0.7549 -0.2965  0.8661
  537SOL     MW 2148   1.101   0.212   2.899 -0.4041  0.2592 -0.0181
  538SOL     OW 2149   1.367   0.068   2.971  0.5996  0.1901  0.0588
  538SOL    HW1 2150   1.303   0.133   2.943  1.4516  1.0886 -1.3262
  538SOL    HW2 2151   1.440   0.073   2.908  0.4730 -0.0890  1.0234
  538SOL     MW 2152   1.368   0.077   2.959  0.6953  0.2718  0.0034
  539SOL     OW 2153   0.765   2.758   2.524 -0.1210  0.2118  0.2951
  539SOL    HW1 2154   0.852   2.791   2.549  1.4167 -1.1085  1.2642
  539SOL    HW2 2155   0.784   2.659   2.517  0.5042 -0.6576  0.4003
  539SOL     MW 2156   0.779   2.749   2.526  0.1644 -0.0771  0.4368
  540SOL     OW 2157   0.346   2.288   2.889 -0.1708  0.5478 -0.1147
  540SOL    HW1 2158   0.439   2.298   2.881 -1.0082 -1.4209  1.7640
  540SOL    HW2 2159   0.335   2.235   2.967 -1.3172 -0.7962  0.0544
  540SOL     MW 2160   0.356   2.282   2.899 -0.4325  0.1107  0.1555
  541SOL     OW 2161   0.147   2.911   2.197  0.2989 -0.0199 -0.5241
  541SOL    HW1 2162   0.158   2.840   2.134 -0.3834  0.0924 -2.1015
  541SOL    HW2 2163   0.208   2.891   2.272 -0.5315 -2.9282  2.0027
  541SOL     MW 2164   0.157   2.899   2.198  0.0993 -0.3888 -0.3988
  542SOL     OW 2165   1.041   2.276   2.567  0.4258  0.7153 -0.1906
  542SOL    HW1 2166   0.985   2.203   2.582 -1.1466 -0.3862 -1.5979
  542SOL    HW2 2167   1.048   2.325   2.649 -0.5341 -0.3935  0.4584
  542SOL     MW 2168   1.034   2.273   2.580  0.0917  0.4237 -0.2906
  543SOL     OW 2169   1.416   2.518   2.686  0.3113 -0.1673  0.5505
  543SOL    HW1 2170   1.464   2.453   2.628  1.5537 -1.6111 -1.7498
  543SOL    HW2 2171   1.491   2.572   2.716  3.0664 -0.4250  1.1810
  543SOL     MW 2172   1.432   2.516   2.683  0.8387 -0.3918  0.3302
  544SOL     OW 2173   0.582   0.239   2.700  0.1973  0.1411 -0.0224
  544SOL    HW1 2174   0.494   0.191   2.705  2.5899  1.2960  0.6883
  544SOL    HW2 2175   0.634   0.190   2.634  1.0885 -0.0043 -0.0440
  544SOL     MW 2176   0.577   0.226   2.692  0.6306  0.2743  0.0685
  545SOL     OW 2177   1.522   2.171   2.257  0.0543  0.5126  0.1202
  545SOL    HW1 2178   1.488   2.170   2.167  0.9914  0.3375 -0.9872
  545SOL    HW2 2179   1.609   2.116   2.251 -0.5176 -3.6580  1.1249
  545SOL     MW 2180   1.529   2.164   2.244  0.1025 -0.0608  0.1067
  546SOL     OW 2181   2.956   2.044   0.114 -0.1547 -0.2891  0.1493
  546SOL    HW1 2182   2.971   2.125   0.051  1.3605 -2.4738 -3.5188
  546SOL    HW2 2183   3.046   2.004   0.100  3.3468  1.5896 -0.1949
  546SOL     MW 2184   2.970   2.050   0.103  0.5072 -0.3295 -0.3801
  547SOL     OW 2185   0.230   2.980   0.156  0.3345  0.1438  0.0995
  547SOL    HW1 2186   0.253   3.035   0.088 -2.1213  1.4076 -1.4999
  547SOL    HW2 2187   0.239   2.892   0.117  0.0656 -0.6488 -0.7945
  547SOL     MW 2188   0.234   2.976   0.142 -0.0250  0.2060 -0.2295
  548SOL     OW 2189   0.319   2.548   0.238 -0.1567 -0.0602 -0.3435
  548SOL    HW1 2190   0.301   2.625   0.185 -0.5102 -0.6063  0.2655
  548SOL    HW2 2191   0.249   2.490   0.220  2.9953 -0.7609  0.7228
  548SOL     MW 2192   0.307   2.551   0.229  0.2125 -0.2247 -0.1225
  549SOL     OW 2193   0.761   1.878   2.103  0.7624 -0.1026  0.9746
  549SOL    HW1 2194   0.765   1.972   2.064  0.3392  0.7539  1.8906
  549SOL    HW2 2195   0.765   1.897   2.196 -1.2682  1.9197 -1.2539
  549SOL     MW 2196   0.762   1.893   2.110  0.4387  0.2772  0.8014
  550SOL     OW 2197   1.814   1.746   2.511 -0.1259 -0.3133 -0.0583
  550SOL    HW1 2198   1.788   1.742   2.423 -2.2349  0.6299  1.8224
  550SOL    HW2 2199   1.804   1.834   2.542 -0.5211  0.7743  1.2315
  550SOL     MW 2200   1.809   1.757   2.503 -0.4563 -0.0453  0.3600
  551SOL     OW 2201   0.894   2.348   0.222  0.7009 -0.3962 -0.3750
  551SOL    HW1 2202   0.992   2.358   0.215  2.5946 -0.9827 -0.7083
  551SOL    HW2 2203   0.869   2.278   0.164  0.2663  1.1596 -3.2746
  551SOL     MW 2204   0.904   2.340   0.214  0.8934 -0.2683 -0.8016
  552SOL     OW 2205   1.741   1.770   2.229  0.0773 -0.5104  0.3202
  552SOL    HW1 2206   1.648   1.752   2.244 -0.1211 -1.7657  1.7946
  552SOL    HW2 2207   1.769   1.729   2.144  0.7788 -2.2120 -5.1497
  552SOL     MW 2208   1.733   1.763   2.220  0.1437 -0.9005 -0.2069
  553SOL     OW 2209   1.234   2.324   1.491 -0.1818 -0.4140 -0.2773
  553SOL    HW1 2210   1.285   2.241   1.489  1.1565 -1.4970 -1.6507
  553SOL    HW2 2211   1.293   2.396   1.473  2.5007 -0.0409  1.9354
  553SOL     MW 2212   1.249   2.322   1.488  0.3487 -0.5077 -0.1665
  554SOL     OW 2213   0.585   2.866   2.681 -0.1683  0.2341 -0.2592
  554SOL    HW1 2214   0.507   2.907   2.638 -0.1024 -0.8952  0.9673
  554SOL    HW2 2215   0.637   2.829   2.606 -1.9393 -1.7561 -1.7950
  554SOL     MW 2216   0.582   2.866   2.666 -0.3933 -0.1775 -0.3000
  555SOL     OW 2217   0.602   2.448   2.583 -0.5049 -0.8146  0.1457
  555SOL    HW1 2218   0.555   2.359   2.564 -0.5313 -2.0036  0.9770
  555SOL    HW2 2219   0.686   2.434   2.535  4.8750  0.3299 -0.7373
  555SOL     MW 2220   0.607   2.434   2.574  0.2015 -0.8205  0.1389
  556SOL     OW 2221   0.936   1.779   0.170 -0.4800 -0.4082 -0.5057
  556SOL    HW1 2222   0.956   1.765   0.077 -0.7580 -1.9080  0.6320
  556SOL    HW2 2223   1.015   1.828   0.197 -0.5686  0.8214 -0.8786
  556SOL     MW 2224   0.949   1.783   0.161 -0.5284 -0.4438 -0.4048
  557SOL     OW 2225   0.966   2.712   0.510  0.4935 -0.2864 -0.5802
  557SOL    HW1 2226   0.993   2.673   0.430 -0.8683  0.0937  1.2694
  557SOL    HW2 2227   0.905   2.780   0.484 -2.0974  1.3804  0.1304
  557SOL     MW 2228   0.962   2.716   0.496 -0.0280 -0.0163 -0.2424
  558SOL     OW 2229   0.257   2.146   0.038  0.3044  0.1276 -0.8934
  558SOL    HW1 2230   0.198   2.072   0.046  0.4236  0.6513  1.9918
  558SOL    HW2 2231   0.217   2.221   0.083  2.2208  0.4446  1.7908
  558SOL     MW 2232   0.244   2.146   0.045  0.5730  0.2385 -0.1586
  559SOL     OW 2233   1.120   2.313   2.097  0.0057  0.5188  0.1557
  559SOL    HW1 2234   1.156   2.381   2.150  0.2406 -1.6912 -0.4791
  559SOL    HW2 2235   1.115   2.240   2.167 -1.2033  0.5236  2.1900
  559SOL     MW 2236   1.124   2.312   2.113 -0.1229  0.2278  0.3403
  560SOL     OW 2237   1.919   2.864   0.063 -0.3952  0.0980  0.6285
  560SOL    HW1 2238   1.990   2.908   0.010  1.6848 -1.1849 -0.5198
  560SOL    HW2 2239   1.907   2.789   0.008  0.5587  0.6136  1.0377
  560SOL     MW 2240   1.927   2.860   0.049  0.0051 -0.0032  0.5310
  561SOL     OW 2241   0.453   2.124   0.240  0.5028  0.3561  0.4575
  561SOL    HW1 2242   0.397   2.149   0.160 -2.2507 -3.5685  0.1918
  561SOL    HW2 2243   0.517   2.196   0.248 -3.9554 -1.4284  0.0921
  561SOL     MW 2244   0.454   2.137   0.230 -0.4487 -0.3971  0.3742
  562SOL     OW 2245   0.850   2.179   2.222 -0.4940  0.1450  0.0234
  562SOL    HW1 2246   0.897   2.260   2.235 -0.3744 -1.9416 -1.6782
  562SOL    HW2 2247   0.916   2.114   2.256  0.0053  0.7451  0.5415
  562SOL     MW 2248   0.865   2.181   2.228 -0.4123 -0.0511 -0.1328
  563SOL     OW 2249   1.134   0.309   0.645  0.0662 -0.0071  0.0512
  563SOL    HW1 2250   1.093   0.299   0.558 -1.7012 -0.8213  0.2750
  563SOL    HW2 2251   1.192   0.232   0.639  0.2146  0.0246 -2.4988
  563SOL     MW 2252   1.136   0.298   0.633 -0.1474 -0.1103 -0.2557
  564SOL     OW 2253   1.069   2.538   2.323 -0.3029  0.3792 -0.2918
  564SOL    HW1 2254   1.096   2.583   2.236 -0.8659 -0.7185 -0.5363
  564SOL    HW2 2255   1.138   2.566   2.384  0.4837 -2.4117 -1.3093
  564SOL     MW 2256   1.082   2.548   2.319 -0.2734 -0.1338 -0.4583
  565SOL     OW 2257   2.877   2.688   2.605  0.1781  0.2872  0.7327
  565SOL    HW1 2258   2.941   2.734   2.558 -2.7242  1.9954  0.7041
  565SOL    HW2 2259   2.804   2.671   2.545  0.6379  1.4960 -3.6406
  565SOL     MW 2260   2.876   2.692   2.591 -0.1442  0.6721  0.1519
  566SOL     OW 2261   2.159   1.849   2.431  0.0158  0.5674 -0.1652
  566SOL    HW1 2262   2.186   1.775   2.380 -2.2951 -0.6295  1.0162
  566SOL    HW2 2263   2.216   1.925   2.406  0.3391 -2.7899  0.7897
  566SOL     MW 2264   2.170   1.849   2.421 -0.2464 -0.0335  0.1167
  567SOL     OW 2265   1.126   2.960   3.030 -0.1996  0.0168 -0.7007
  567SOL    HW1 2266   1.201   3.021   3.028  2.7323  2.0246  2.1914
  567SOL    HW2 2267   1.172   2.877   3.028 -0.9000  0.7999  0.1489
  567SOL     MW 2268   1.142   2.957   3.029  0.0948  0.3851 -0.2070
  568SOL     OW 2269   1.595   2.057   2.921  0.4699  0.9249  0.0200
  568SOL    HW1 2270   1.634   2.130   2.960  0.9141 -1.1007 -1.1906
  568SOL    HW2 2271   1.653   2.011   2.856 -1.3074 -0.2942 -2.9456
  568SOL     MW 2272   1.608   2.061   2.917  0.2940  0.4968 -0.5310
  569SOL     OW 2273   0.207   2.236   2.459 -0.1332 -0.1351  0.1428
  569SOL    HW1 2274   0.161   2.263   2.377  1.2228  1.1051  3.0167
  569SOL    HW2 2275   0.227   2.313   2.516 -1.1866  0.4243  1.9637
  569SOL     MW 2276   0.204   2.250   2.456 -0.0933  0.1024  0.7622
  570SOL     OW 2277   1.485   0.437   0.476 -0.5424  0.1229  0.5270
  570SOL    HW1 2278   1.417   0.441   0.543  1.5783 -1.3446  1.3501
  570SOL    HW2 2279   1.560   0.445   0.536  2.4655  0.6292 -0.8420
  570SOL     MW 2280   1.486   0.438   0.493  0.1343 -0.0039  0.4550
  571SOL     OW 2281   1.495   2.405   2.002 -0.1779 -0.2390 -0.1446
  571SOL    HW1 2282   1.569   2.402   2.067  1.9710  1.1708  0.3951
  571SOL    HW2 2283   1.485   2.316   1.972  1.2554 -1.7181 -2.3885
  571SOL     MW 2284   1.504   2.393   2.007  0.2948 -0.2482 -0.3694
  572SOL     OW 2285   0.922   2.592   0.017 -0.1262 -0.8910  0.0461
  572SOL    HW1 2286   0.910   2.649  -0.059  0.1363 -1.1938  2.2056
  572SOL    HW2 2287   0.838   2.549   0.036 -0.9044  0.1095  1.1851
  572SOL     MW 2288   0.909   2.594   0.009 -0.1943 -0.7990  0.4813
  573SOL     OW 2289   1.156   2.370   0.264  0.1928  0.2091 -0.1428
  573SOL    HW1 2290   1.235   2.363   0.206 -0.3340 -0.6725  2.8363
  573SOL    HW2 2291   1.131   2.462   0.260 -0.3405  3.1529  0.1898
  573SOL     MW 2292   1.163   2.381   0.256  0.0530  0.4812  0.2941
  574SOL     OW 2293   1.062   2.614   0.268  0.1841  0.2398 -0.3642
  574SOL    HW1 2294   1.124   2.688   0.260  0.3459 -0.9812 -1.8108
  574SOL    HW2 2295   1.018   2.616   0.186  0.6615 -0.7566  0.5945
  574SOL     MW 2296   1.065   2.624   0.256  0.2685 -0.0527 -0.4286
  575SOL     OW 2297   3.094   2.310   1.785 -0.0967 -0.1754 -0.0075
  575SOL    HW1 2298   3.066   2.240   1.719  4.2565 -0.2524 -1.8215
  575SOL    HW2 2299   3.160   2.362   1.740  0.3180 -0.7337 -0.7020
  575SOL     MW 2300   3.099   2.308   1.771  0.5324 -0.2592 -0.3385
  576SOL     OW 2301   2.882   1.801   2.031  0.2839  0.2726 -0.0806
  576SOL    HW1 2302   2.897   1.887   1.983  2.1704  0.4101 -0.0524
  576SOL    HW2 2303   2.815   1.756   1.981  1.9587 -0.2342 -1.1202
  576SOL     MW 2304   2.875   1.806   2.018  0.7537  0.2239 -0.2140
  577SOL     OW 2305   2.137   0.268   0.057  0.0258 -0.7599 -0.2085
  577SOL    HW1 2306   2.086   0.284  -0.023  1.8604  2.7700  0.7046
  577SOL    HW2 2307   2.066   0.226   0.119 -2.1113 -2.0296  1.2519
  577SOL     MW 2308   2.121   0.265   0.055 -0.0141 -0.4617  0.1046
  578SOL     OW 2309   1.917   2.053   2.451 -0.4552 -0.2505 -0.5766
  578SOL    HW1 2310   1.859   2.056   2.380  1.8417  1.4591  0.3194
  578SOL    HW2 2311   1.972   1.978   2.436  0.5116  1.5841 -0.3371
  578SOL     MW 2312   1.917   2.043   2.439 -0.0246  0.2171 -0.4268
  579SOL     OW 2313   0.873   2.477   2.502  0.1579  0.5831 -0.2911
  579SOL    HW1 2314   0.921   2.405   2.545  1.9791 -0.5040 -1.1556
  579SOL    HW2 2315   0.943   2.500   2.440  1.5760 -3.1758 -0.4559
  579SOL     MW 2316   0.889   2.471   2.500  0.5853 -0.0563 -0.4269
  580SOL     OW 2317   0.865   2.990   0.016  0.4613 -0.0585  0.3598
  580SOL    HW1 2318   0.959   2.974  -0.003 -0.9953  1.3902  0.3105
  580SOL    HW2 2319   0.814   2.967  -0.063  2.3452 -2.1517  0.2953
  580SOL     MW 2320   0.871   2.984   0.003  0.5177 -0.1436  0.3448
  581SOL     OW 2321   1.130   2.458   1.702 -0.0828  0.1926  0.2569
  581SOL    HW1 2322   1.202   2.512   1.724 -1.6344  0.2127 -2.2098
  581SOL    HW2 2323   1.167   2.406   1.630 -1.1448  2.5482 -2.1154
  581SOL     MW 2324   1.144   2.458   1.696 -0.4276  0.5061 -0.3815
  582SOL     OW 2325   3.081   2.873   2.519 -0.3646  0.0893  0.3079
  582SOL    HW1 2326   3.039   2.947   2.567  0.7319 -1.0351 -1.6176
  582SOL    HW2 2327   3.177   2.889   2.531 -0.2261 -2.9645  1.6393
  582SOL     MW 2328   3.088   2.885   2.527 -0.2017 -0.4620  0.2296
  583SOL     OW 2329   1.966   2.383   2.648  0.2718 -0.4688  0.0763
  583SOL    HW1 2330   2.036   2.412   2.589 -0.1642  0.7680 -0.0542
  583SOL    HW2 2331   2.004   2.301   2.684  1.0834  0.7434  1.1491
  583SOL     MW 2332   1.980   2.376   2.645  0.3214 -0.1457  0.2006
  584SOL     OW 2333   0.191   1.897   2.119 -0.7863 -0.3708  0.3267
  584SOL    HW1 2334   0.272   1.898   2.061  1.0839  1.6088 -1.0916
  584SOL    HW2 2335   0.219   1.905   2.210 -0.7352 -2.5721 -1.1458
  584SOL     MW 2336   0.205   1.898   2.123 -0.5328 -0.4001 -0.0547
  585SOL     OW 2337   1.441   2.654   0.097  0.1166  0.0575  0.5456
  585SOL    HW1 2338   1.410   2.633   0.012 -3.2476 -3.2279  0.1727
  585SOL    HW2 2339   1.365   2.690   0.147 -1.5833  1.7442  0.2473
  585SOL     MW 2340   1.427   2.656   0.093 -0.5516 -0.1534  0.4570
  586SOL     OW 2341   1.411   2.818   2.476  0.2268 -0.3544  0.4907
  586SOL    HW1 2342   1.477   2.802   2.409  0.2065 -4.3403 -1.6905
  586SOL    HW2 2343   1.400   2.917   2.493 -0.1080  2.8142 -2.3625
  586SOL     MW 2344   1.418   2.829   2.469  0.1799 -0.4622 -0.1736
  587SOL     OW 2345   1.301   1.567   2.180 -0.0979 -0.3695  0.2687
  587SOL    HW1 2346   1.285   1.484   2.228  0.0904  1.5988  1.8422
  587SOL    HW2 2347   1.320   1.544   2.091  1.3088 -1.7380  0.2304
  587SOL     MW 2348   1.301   1.553   2.175  0.1126 -0.2903  0.4713
  588SOL     OW 2349   1.385   2.135   2.750 -0.1026  0.0479 -0.2415
  588SOL    HW1 2350   1.466   2.101   2.790 -0.8038 -0.0753 -0.9637
  588SOL    HW2 2351   1.320   2.174   2.812 -3.5712 -1.5280  1.9813
  588SOL     MW 2352   1.387   2.136   2.764 -0.6527 -0.1763 -0.0435
  589SOL     OW 2353   1.310   2.071   0.064 -0.3884 -0.0872  0.0831
  589SOL    HW1 2354   1.358   2.143   0.109  0.7524  0.3900  1.2440
  589SOL    HW2 2355   1.256   2.018   0.126  0.0674 -1.6234 -0.5016
  589SOL     MW 2356   1.309   2.074   0.078 -0.1777 -0.2269  0.1591
  590SOL     OW 2357   0.443   2.654   2.247  0.3252  0.8943 -0.5922
  590SOL    HW1 2358   0.401   2.649   2.154  1.1441  1.5543 -0.7893
  590SOL    HW2 2359   0.497   2.734   2.263 -0.3283  1.7949  0.1293
  590SOL     MW 2360   0.445   2.664   2.237  0.3470  1.1002 -0.5230
  591SOL     OW 2361   2.284   0.730   3.067 -0.1274  0.0544  0.0540
  591SOL    HW1 2362   2.214   0.797   3.038 -0.7654 -1.7966 -0.4088
  591SOL    HW2 2363   2.366   0.746   3.018  3.0828 -0.6102 -0.5030
  591SOL     MW 2364   2.285   0.741   3.056  0.2120 -0.2775 -0.0806
  592SOL     OW 2365   1.802   2.932   0.829  0.1221 -0.2654  0.0006
  592SOL    HW1 2366   1.820   3.001   0.765  0.6849 -1.5273 -0.5498
  592SOL    HW2 2367   1.862   2.861   0.810  2.0547  0.7612 -0.2447
  592SOL     MW 2368   1.812   2.932   0.818  0.4513 -0.2965 -0.1044
  593SOL     OW 2369   1.898   0.714   0.889 -0.1524 -0.6432  0.3161
  593SOL    HW1 2370   1.822   0.707   0.829  1.0283  1.3504 -1.6200
  593SOL    HW2 2371   1.912   0.622   0.905 -2.8095 -0.6015  0.7711
  593SOL     MW 2372   1.890   0.701   0.883 -0.3472 -0.3746  0.1207
  594SOL     OW 2373   2.780   1.169   1.343  0.2414  0.1785  0.2211
  594SOL    HW1 2374   2.872   1.181   1.356  1.4723  0.0672 -0.8939
  594SOL    HW2 2375   2.777   1.113   1.263  0.5704 -2.4277  0.8685
  594SOL     MW 2376   2.792   1.163   1.334  0.4473 -0.1800  0.1594
  595SOL     OW 2377   0.501   0.976   0.756 -0.1146 -0.5800  0.3947
  595SOL    HW1 2378   0.524   1.034   0.677 -2.2900  1.2210  3.7340
  595SOL    HW2 2379   0.503   1.033   0.833 -3.7217  0.8529  0.1912
  595SOL     MW 2380   0.504   0.991   0.755 -0.8775 -0.1533  0.8085
  596SOL     OW 2381   2.505   1.354   0.531 -1.4093  0.0121  0.1793
  596SOL    HW1 2382   2.571   1.418   0.495  4.0788 -0.8390 -0.0084
  596SOL    HW2 2383   2.550   1.328   0.614  0.7661  2.1514  0.6026
  596SOL     MW 2384   2.519   1.359   0.537 -0.3982  0.1821  0.2104
  597SOL     OW 2385   2.197   0.697   1.600  0.3132  0.2580 -0.4348
  597SOL    HW1 2386   2.239   0.626   1.648 -1.5520 -0.3912  1.5101
  597SOL    HW2 2387   2.104   0.671   1.593  0.7560  0.5095  0.7800
  597SOL     MW 2388   2.190   0.684   1.605  0.1255  0.2055 -0.0179
  598SOL     OW 2389   2.599   0.973   2.862  0.4577  0.2356 -0.3266
  598SOL    HW1 2390   2.598   0.940   2.771 -0.5932 -0.6835 -3.3564
  598SOL    HW2 2391   2.684   1.014   2.868  1.0786 -0.5050 -2.3883
  598SOL     MW 2392   2.610   0.974   2.851  0.4010  0.0166 -0.9984
  599SOL     OW 2393   2.944   0.405   2.082  0.6187 -0.3220 -0.1403
  599SOL    HW1 2394   2.908   0.425   2.169  0.0844  1.3149 -0.1901
  599SOL    HW2 2395   3.005   0.480   2.051  0.8650 -1.1355 -0.4070
  599SOL     MW 2396   2.947   0.418   2.090  0.5807 -0.2134 -0.1821
  600SOL     OW 2397   1.915   1.743   0.882  0.3129 -0.3671 -0.3572
  600SOL    HW1 2398   1.970   1.780   0.952 -0.2933 -4.0488 -1.1560
  600SOL    HW2 2399   1.840   1.798   0.862 -0.4926 -4.6713 -1.2053
  600SOL     MW 2400   1.913   1.755   0.889  0.1266 -1.4208 -0.5745
  601SOL     OW 2401   2.524   0.781   0.828  0.5398 -0.3135 -0.0996
  601SOL    HW1 2402   2.504   0.798   0.923 -0.5413 -0.6008  3.2867
  601SOL    HW2 2403   2.458   0.709   0.808  2.2296 -1.8052 -0.0545
  601SOL     MW 2404   2.513   0.774   0.838  0.6201 -0.5482  0.3531
  602SOL     OW 2405   2.312   1.949   0.832  0.7444 -0.0398  0.2693
  602SOL    HW1 2406   2.289   1.857   0.853  0.3586 -0.1585 -0.7383
  602SOL    HW2 2407   2.240   1.983   0.781 -0.5845 -0.0996 -0.3065
  602SOL     MW 2408   2.299   1.941   0.828  0.5181 -0.0633  0.0604
  603SOL     OW 2409   3.057   1.380   1.816 -0.1604  0.4493 -0.2325
  603SOL    HW1 2410   3.107   1.450   1.855  1.9247 -0.2592 -0.7905
  603SOL    HW2 2411   3.057   1.318   1.891 -2.8758  0.7443  2.1005
  603SOL     MW 2412   3.063   1.381   1.831 -0.2435  0.3947  0.0017
  604SOL     OW 2413   2.148   1.551   0.468  0.3404  0.3219  0.0585
  604SOL    HW1 2414   2.167   1.466   0.513  2.9402 -0.5749 -2.3332
  604SOL    HW2 2415   2.084   1.597   0.521  2.2313 -2.8893 -2.2273
  604SOL     MW 2416   2.142   1.546   0.481  0.9329 -0.2201 -0.5586
  605SOL     OW 2417   2.637   1.543   0.826 -0.7779  0.4984  0.2740
  605SOL    HW1 2418   2.593   1.614   0.769 -0.0444  0.4397 -1.8650
  605SOL    HW2 2419   2.596   1.457   0.801 -2.8218  2.2268  0.0001
  605SOL     MW 2420   2.626   1.541   0.815 -0.9508  0.7187 -0.0444
  606SOL     OW 2421   2.598   1.856   1.898  0.1086 -0.3640 -0.1117
  606SOL    HW1 2422   2.505   1.833   1.894 -1.3067 -0.1727 -0.1597
  606SOL    HW2 2423   2.634   1.783   1.848  2.3856  0.5980 -1.4004
  606SOL     MW 2424   2.590   1.843   1.891  0.2223 -0.2118 -0.2880
  607SOL     OW 2425   2.351   1.028   3.049  0.0943  0.0653 -0.1172
  607SOL    HW1 2426   2.437   1.010   3.007  0.8652 -1.3469 -1.2145
  607SOL    HW2 2427   2.358   1.003   3.147 -1.5016  2.6985  2.1916
  607SOL     MW 2428   2.363   1.023   3.056 -0.0146  0.2264  0.0427
  608SOL     OW 2429   1.900   0.296   0.618  0.1276  0.0239 -0.0050
  608SOL    HW1 2430   1.906   0.347   0.534 -1.7272  3.5338  2.8996
  608SOL    HW2 2431   1.889   0.200   0.597  2.2734 -1.1300 -0.9376
  608SOL     MW 2432   1.899   0.290   0.604  0.1660  0.3348  0.2552
  609SOL     OW 2433   2.100   2.010   3.053  0.0612 -0.1305 -0.2672
  609SOL    HW1 2434   2.014   1.972   3.036  1.2157  0.2485  1.3228
  609SOL    HW2 2435   2.146   1.975   3.132  0.1366 -0.8497 -0.4712
  609SOL     MW 2436   2.095   2.001   3.061  0.2235 -0.1754 -0.0843
  610SOL     OW 2437   1.773   1.021   1.261  0.5825  0.2945 -0.0162
  610SOL    HW1 2438   1.783   0.931   1.231  0.0393  1.9846  0.6734
  610SOL    HW2 2439   1.680   1.014   1.263  2.5984 -0.5857  1.4443
  610SOL     MW 2440   1.762   1.008   1.257  0.7768  0.4014  0.2675
  611SOL     OW 2441   2.531   1.758   0.696  0.1194  0.3815  0.0912
  611SOL    HW1 2442   2.457   1.817   0.714 -0.6572 -0.9393 -0.7975
  611SOL    HW2 2443   2.543   1.785   0.601  3.5162 -2.8707 -1.1600
  611SOL     MW 2444   2.523   1.769   0.686  0.4651 -0.2218 -0.1911
  612SOL     OW 2445   2.806   2.830   0.390 -0.2935  0.0505  0.2928
  612SOL    HW1 2446   2.825   2.898   0.454 -0.3138 -0.5488  0.3823
  612SOL    HW2 2447   2.896   2.806   0.363 -0.8233  0.6330  1.5883
  612SOL     MW 2448   2.821   2.836   0.395 -0.3661  0.0483  0.4755
  613SOL     OW 2449   1.482   1.010   0.933  0.4055  0.6108  0.2042
  613SOL    HW1 2450   1.487   1.100   0.970  0.3499  0.3684 -0.6920
  613SOL    HW2 2451   1.505   0.951   1.005 -1.0601  1.9245  0.4029
  613SOL     MW 2452   1.486   1.014   0.947  0.2048  0.7521  0.1122
  614SOL     OW 2453   1.979   0.533   1.495  0.4421 -0.1090 -0.0016
  614SOL    HW1 2454   2.008   0.449   1.527  0.3878 -1.1190 -3.0650
  614SOL    HW2 2455   1.975   0.511   1.402  0.8478  1.4727 -0.6640
  614SOL     MW 2456   1.982   0.519   1.487  0.4884 -0.0336 -0.4932
  615SOL     OW 2457   2.382   0.732   0.300 -0.0433 -0.2353  0.2039
  615SOL    HW1 2458   2.454   0.677   0.328 -0.1222 -1.4829 -0.8184
  615SOL    HW2 2459   2.368   0.693   0.213 -1.0973 -0.4393 -1.5705
  615SOL     MW 2460   2.390   0.720   0.292 -0.1928 -0.4268 -0.1651
  616SOL     OW 2461   2.505   0.443   1.601 -0.4153  0.4415 -0.0826
  616SOL    HW1 2462   2.469   0.355   1.572 -0.4432 -0.8379  2.0304
  616SOL    HW2 2463   2.502   0.504   1.529 -0.3165  0.2845 -0.8157
  616SOL     MW 2464   2.500   0.439   1.588 -0.4059  0.2520  0.0994
  617SOL     OW 2465   2.921   0.536   1.744 -0.0532 -0.3455 -0.2864
  617SOL    HW1 2466   2.825   0.525   1.756 -0.9989  0.0982 -2.1066
  617SOL    HW2 2467   2.954   0.444   1.727  1.3728  1.2206  1.0103
  617SOL     MW 2468   2.913   0.522   1.743  0.0102 -0.0803 -0.3554
  618SOL     OW 2469   2.715   0.342   1.920  0.7404  0.3482 -0.3093
  618SOL    HW1 2470   2.682   0.421   1.878 -1.3108 -1.6695 -2.1978
  618SOL    HW2 2471   2.787   0.379   1.968  0.6024  0.7153 -3.0520
  618SOL     MW 2472   2.720   0.357   1.921  0.4516  0.1304 -0.9204
  619SOL     OW 2473   2.672   0.651   0.117  0.3515  0.2777 -0.0142
  619SOL    HW1 2474   2.717   0.735   0.124  0.4900  0.1325  1.6364
  619SOL    HW2 2475   2.649   0.616   0.204  1.3467 -3.3460 -2.3176
  619SOL     MW 2476   2.675   0.658   0.129  0.5011 -0.2196 -0.1004
  620SOL     OW 2477   2.315   1.037   1.009  0.0058 -0.0477 -0.2832
  620SOL    HW1 2478   2.373   1.075   0.943 -0.5885 -2.3785 -1.1991
  620SOL    HW2 2479   2.250   0.991   0.961 -1.4329 -0.4141  4.6032
  620SOL     MW 2480   2.314   1.036   0.994 -0.2624 -0.4035  0.2407
  621SOL     OW 2481   1.483   2.126   1.953  0.7981 -0.0125  0.0169
  621SOL    HW1 2482   1.416   2.066   1.989  2.0749  2.0824  1.3813
  621SOL    HW2 2483   1.571   2.086   1.955  1.5495  4.5615 -0.0196
  621SOL     MW 2484   1.486   2.113   1.958  1.0657  0.8674  0.1921
  622SOL     OW 2485   2.592   0.165   0.275  0.6678 -0.5664  0.3559
  622SOL    HW1 2486   2.687   0.184   0.280 -1.4149  0.5561 -1.8842
  622SOL    HW2 2487   2.581   0.073   0.296 -0.5377  0.5105 -1.0708
  622SOL     MW 2488   2.603   0.155   0.278  0.2340 -0.2762 -0.1279
  623SOL     OW 2489   2.365   2.821   0.874  0.4417  0.5419  0.1216
  623SOL    HW1 2490   2.445   2.880   0.867 -1.1829 -0.0842 -0.4862
  623SOL    HW2 2491   2.305   2.857   0.943 -1.8641 -1.7754  1.3184
  623SOL     MW 2492   2.368   2.834   0.882 -0.0769  0.1535  0.1993
  624SOL     OW 2493   2.165   1.728   3.007 -0.1430  0.5118 -0.0588
  624SOL    HW1 2494   2.139   1.653   3.054 -1.4651  1.7431 -0.0501
  624SOL    HW2 2495   2.081   1.778   2.982 -2.2703  0.4098  0.3834
  624SOL     MW 2496   2.151   1.725   3.010 -0.5981  0.6608  0.0007
  625SOL     OW 2497   2.209   1.989   1.120 -0.3308 -0.6934  0.0927
  625SOL    HW1 2498   2.284   1.931   1.100  2.5057 -0.6273 -1.1788
  625SOL    HW2 2499   2.181   1.999   1.030  0.4543 -1.8453  0.6191
  625SOL     MW 2500   2.215   1.983   1.106  0.1471 -0.8367 -0.0056
  626SOL     OW 2501   0.234   1.609   2.373  0.7926  0.3382 -0.0356
  626SOL    HW1 2502   0.223   1.512   2.367  0.6485 -1.4620  1.8169
  626SOL    HW2 2503   0.146   1.632   2.409  2.6992 -1.5999 -0.0440
  626SOL     MW 2504   0.221   1.600   2.377  1.0251 -0.1550  0.2077
  627SOL     OW 2505   2.452   0.781   2.650  0.1654  0.1266  0.0147
  627SOL    HW1 2506   2.421   0.872   2.653  0.2052  0.6139 -0.6989
  627SOL    HW2 2507   2.461   0.766   2.557  0.3729 -3.2134  0.8200
  627SOL     MW 2508   2.449   0.791   2.638  0.1980 -0.2498  0.0268
  628SOL     OW 2509   2.304   1.348   1.377  0.5382  0.2810  0.6189
  628SOL    HW1 2510   2.249   1.295   1.312  1.2552  0.8330  0.2017
  628SOL    HW2 2511   2.400   1.341   1.351 -1.3359  2.6702  0.1924
  628SOL     MW 2512   2.309   1.340   1.365  0.3855  0.6690  0.5076
  629SOL     OW 2513   1.867   0.555   1.205 -0.1434 -0.2934 -0.6930
  629SOL    HW1 2514   1.875   0.649   1.203  0.6040  0.1407 -0.2935
  629SOL    HW2 2515   1.793   0.539   1.259 -0.1530  0.8784  0.4961
  629SOL     MW 2516   1.859   0.565   1.212 -0.0461 -0.0815 -0.4834
  630SOL     OW 2517   2.444   1.809   3.025  0.1494 -0.3415 -0.6354
  630SOL    HW1 2518   2.431   1.892   2.969  0.4801  0.5213 -3.5993
  630SOL    HW2 2519   2.352   1.781   3.033 -0.4661 -0.6460  1.2997
  630SOL     MW 2520   2.430   1.816   3.019  0.1118 -0.2678 -0.7711
  631SOL     OW 2521   1.953   1.838   1.582 -0.5295  0.2689  0.1490
  631SOL    HW1 2522   1.991   1.767   1.636  1.6722  0.2537  0.7117
  631SOL    HW2 2523   1.946   1.804   1.496  1.3556  0.0385  0.4011
  631SOL     MW 2524   1.957   1.824   1.578  0.0097  0.2365  0.2565
  632SOL     OW 2525   0.146   2.019   1.474  0.4376 -0.3939 -0.0722
  632SOL    HW1 2526   0.077   2.043   1.539 -1.8562 -0.0061  1.3335
  632SOL    HW2 2527   0.171   1.929   1.497  0.9220  1.6089 -3.0975
  632SOL     MW 2528   0.141   2.010   1.485  0.1989 -0.0785 -0.2859
  633SOL     OW 2529   2.597   0.552   0.365  0.2235 -0.6098  0.1869
  633SOL    HW1 2530   2.685   0.532   0.410  2.3553 -2.7452  0.3212
  633SOL    HW2 2531   2.543   0.516   0.435 -0.4731 -1.1861 -2.3621
  633SOL     MW 2532   2.602   0.544   0.380  0.4129 -0.9675 -0.1317
  634SOL     OW 2533   2.693   3.054   0.618  0.2423  0.1189 -0.0568
  634SOL    HW1 2534   2.722   3.145   0.625  0.5401  2.6163  1.7294
  634SOL    HW2 2535   2.648   3.047   0.533  0.8114 -0.0219 -1.9404
  634SOL     MW 2536   2.691   3.065   0.608  0.3567  0.4298 -0.0697
  635SOL     OW 2537   2.615   0.102   1.845 -0.2005  0.3370  0.1406
  635SOL    HW1 2538   2.678   0.055   1.786  1.5437 -0.5787 -2.5309
  635SOL    HW2 2539   2.655   0.189   1.868  2.1742  3.0754 -2.8363
  635SOL     MW 2540   2.629   0.107   1.840  0.3430  0.5774 -0.6047
  636SOL     OW 2541   2.924   1.669   1.127 -0.5692 -0.4999  0.3236
  636SOL    HW1 2542   2.830   1.692   1.140  0.1662  0.9567 -1.6860
  636SOL    HW2 2543   2.967   1.757   1.128 -1.0295  1.8572 -0.3699
  636SOL     MW 2544   2.918   1.684   1.129 -0.5329  0.0033 -0.0330
  637SOL     OW 2545   2.852   1.478   0.684  0.5168 -0.0091  0.3558
  637SOL    HW1 2546   2.932   1.528   0.697  0.2983 -0.0725  0.5472
  637SOL    HW2 2547   2.784   1.504   0.752  0.0863 -0.3383  2.0509
  637SOL     MW 2548   2.854   1.488   0.695  0.4312 -0.0609  0.6047
  638SOL     OW 2549   2.785   0.475   0.558  0.1434 -0.1228  0.3321
  638SOL    HW1 2550   2.867   0.477   0.510  0.9866 -0.7522 -2.4355
  638SOL    HW2 2551   2.792   0.542   0.624  0.6391  0.2814  0.7582
  638SOL     MW 2552   2.797   0.484   0.560  0.3201 -0.1525  0.0232
  639SOL     OW 2553   1.776   0.054   0.570 -0.0715 -0.0509  0.5256
  639SOL    HW1 2554   1.686   0.085   0.532 -0.6931  0.7283  0.8539
  639SOL    HW2 2555   1.798  -0.026   0.518  0.2154 -0.8530  1.1126
  639SOL     MW 2556   1.767   0.048   0.558 -0.1157 -0.0540  0.6464
  640SOL     OW 2557   0.371   1.323   0.116  0.1186 -0.8237  0.2976
  640SOL    HW1 2558   0.400   1.346   0.027  1.0319  1.1962 -0.2042
  640SOL    HW2 2559   0.323   1.240   0.108 -0.3357  0.5639 -0.7936
  640SOL     MW 2560   0.369   1.315   0.103  0.1792 -0.3741  0.0874
  641SOL     OW 2561   2.215   0.419   0.330 -0.3723 -0.0775 -0.7290
  641SOL    HW1 2562   2.274   0.444   0.261 -0.5881 -0.0619  0.7870
  641SOL    HW2 2563   2.233   0.324   0.342 -1.2100 -2.4018  0.1245
  641SOL     MW 2564   2.225   0.410   0.323 -0.5113 -0.3821 -0.4164
  642SOL     OW 2565   0.053   3.085   0.581  0.2545 -0.1125  0.2047
  642SOL    HW1 2566  -0.005   3.162   0.569  0.1864  0.7454  0.3268
  642SOL    HW2 2567  -0.011   3.010   0.602 -3.1319  0.1471 -1.1229
  642SOL     MW 2568   0.037   3.085   0.582 -0.2013  0.0349  0.0457
  643SOL     OW 2569   2.079   0.322   1.641 -0.3073  0.3263 -0.0942
  643SOL    HW1 2570   2.030   0.291   1.713  0.0073  1.5903 -1.8816
  643SOL    HW2 2571   2.078   0.264   1.565 -1.0372 -0.4078  2.4819
  643SOL     MW 2572   2.072   0.310   1.640 -0.3620  0.3962  0.0099
  644SOL     OW 2573   2.740   2.003   1.044 -0.3242  0.7674 -0.3388
  644SOL    HW1 2574   2.709   1.938   1.105  0.5253 -1.2779 -0.1750
  644SOL    HW2 2575   2.662   2.042   1.009  2.5688 -0.4317  0.8809
  644SOL     MW 2576   2.726   2.000   1.047  0.1696  0.3394 -0.1562
  645SOL     OW 2577   2.858   0.843   0.665 -0.0708 -0.1303  0.0851
  645SOL    HW1 2578   2.948   0.834   0.679 -1.9744 -0.4704  1.2741
  645SOL    HW2 2579   2.809   0.790   0.728  1.2510 -2.1484 -2.9478
  645SOL     MW 2580   2.863   0.835   0.675 -0.1476 -0.4415 -0.1582
  646SOL     OW 2581   0.191   2.290   0.773 -0.3537 -0.0131  0.0189
  646SOL    HW1 2582   0.215   2.205   0.816  2.4887 -3.3856  1.5973
  646SOL    HW2 2583   0.118   2.289   0.718  0.7651  0.1895 -0.6527
  646SOL     MW 2584   0.185   2.279   0.771  0.1689 -0.4313  0.1385
  647SOL     OW 2585   2.674   0.482   2.979 -0.2909  0.3416  0.0238
  647SOL    HW1 2586   2.636   0.418   3.044 -0.5108  1.7430  1.2185
  647SOL    HW2 2587   2.643   0.569   2.995  1.3982 -1.0120  0.1878
  647SOL     MW 2588   2.665   0.485   2.990 -0.0970  0.3479  0.2031
  648SOL     OW 2589   2.134   0.730   1.174  0.1566  0.3870  0.9299
  648SOL    HW1 2590   2.138   0.784   1.092 -0.7364 -2.0135  0.8136
  648SOL    HW2 2591   2.128   0.798   1.242 -0.9598 -0.5344 -1.2979
  648SOL     MW 2592   2.134   0.746   1.172 -0.1085 -0.0513  0.6206
  649SOL     OW 2593   2.319   2.731   1.290  0.4909 -0.0464 -0.1640
  649SOL    HW1 2594   2.399   2.782   1.309  0.7994 -0.3891  1.0747
  649SOL    HW2 2595   2.345   2.642   1.266  4.4731 -2.7433  0.5427
  649SOL     MW 2596   2.333   2.726   1.289  1.0570 -0.4475  0.0927
  650SOL     OW 2597   2.800   0.213   0.644  0.4020  0.7902 -0.6934
  650SOL    HW1 2598   2.786   0.305   0.670 -2.8940 -1.0587  1.9120
  650SOL    HW2 2599   2.864   0.214   0.569  1.7191  0.4862 -0.6195
  650SOL     MW 2600   2.807   0.226   0.637  0.1409  0.5062 -0.3399
  651SOL     OW 2601   3.001   0.408   0.804 -0.7168 -0.3247  0.6595
  651SOL    HW1 2602   3.087   0.445   0.768 -0.5621  2.7839 -1.4262
  651SOL    HW2 2603   2.983   0.468   0.880  0.7125  0.8154  2.1252
  651SOL     MW 2604   3.010   0.420   0.810 -0.5078  0.2359  0.5777
  652SOL     OW 2605   2.426   1.479   2.966  0.3514 -0.1990 -0.7138
  652SOL    HW1 2606   2.479   1.480   2.886 -0.8323 -1.7632  0.7938
  652SOL    HW2 2607   2.404   1.576   2.976 -0.1883  1.2307 -0.4035
  652SOL     MW 2608   2.430   1.492   2.957  0.1240 -0.2168 -0.4740
  653SOL     OW 2609   1.896   0.425   0.389  0.0424 -0.4942  0.3912
  653SOL    HW1 2610   1.832   0.373   0.343  0.3497  2.7186 -2.0468
  653SOL    HW2 2611   1.967   0.428   0.331 -0.1859  0.1710  3.4323
  653SOL     MW 2612   1.897   0.419   0.375  0.0528  0.0175  0.4708
  654SOL     OW 2613   2.424   1.049   0.733 -0.3290  0.0674 -0.1766
  654SOL    HW1 2614   2.343   1.035   0.685 -1.1428  0.3582  1.1280
  654SOL    HW2 2615   2.475   0.968   0.718  0.4684  0.7776 -1.5449
  654SOL     MW 2616   2.420   1.037   0.725 -0.3312  0.1994 -0.1850
  655SOL     OW 2617   2.905   0.876   0.386 -0.5750 -0.5957 -0.2506
  655SOL    HW1 2618   2.880   0.885   0.478 -0.2924  0.2739 -0.0951
  655SOL    HW2 2619   2.940   0.782   0.387 -3.1167 -2.6365  0.0939
  655SOL     MW 2620   2.906   0.865   0.399 -0.8731 -0.7502 -0.1846
  656SOL     OW 2621   1.872   2.733   1.306 -0.9421 -0.4896  0.3824
  656SOL    HW1 2622   1.870   2.822   1.270  1.2474  0.9546 -3.4143
  656SOL    HW2 2623   1.951   2.736   1.360  0.6972 -0.1332  3.0657
  656SOL     MW 2624   1.882   2.745   1.308 -0.4369 -0.2521  0.2355
  657SOL     OW 2625   0.143   1.681   1.266 -0.4101  0.4624 -0.0433
  657SOL    HW1 2626   0.221   1.717   1.219 -2.1727  3.0796  0.8443
  657SOL    HW2 2627   0.132   1.594   1.230  1.5355 -0.1192  1.9039
  657SOL     MW 2628   0.152   1.674   1.255 -0.3859  0.7310  0.3308
  658SOL     OW 2629   2.721   1.309   0.224 -0.0343  0.3247  0.3415
  658SOL    HW1 2630   2.674   1.248   0.280  0.5677  1.5143 -0.6932
  658SOL    HW2 2631   2.744   1.375   0.289  1.7005  0.6190 -2.1243
  658SOL     MW 2632   2.718   1.310   0.240  0.2740  0.5205 -0.1204
  659SOL     OW 2633   2.267   1.487   1.080 -0.3059  0.3783  0.0382
  659SOL    HW1 2634   2.353   1.527   1.065  1.0646 -1.9672  1.3134
  659SOL    HW2 2635   2.257   1.510   1.170  2.1479  1.1432 -2.0030
  659SOL     MW 2636   2.277   1.495   1.090  0.1987  0.1698 -0.0629
  660SOL     OW 2637   2.036   1.602   1.711  0.7374  0.2692 -0.1206
  660SOL    HW1 2638   2.076   1.582   1.800 -1.4361 -1.4106  0.0317
  660SOL    HW2 2639   1.957   1.544   1.712 -0.6575 -0.1492 -0.2069
  660SOL     MW 2640   2.031   1.591   1.723  0.2666 -0.0076 -0.1119
  661SOL     OW 2641   2.368   1.007   0.226  0.1507 -0.3181 -0.2270
  661SOL    HW1 2642   2.458   1.036   0.258  2.6386  0.1012  1.2943
  661SOL    HW2 2643   2.361   0.916   0.250 -1.0529  0.0518 -0.0891
  661SOL     MW 2644   2.379   0.999   0.234  0.3201 -0.2140 -0.0081
  662SOL     OW 2645   2.572   2.979   0.859 -0.3623 -0.6343 -0.0469
  662SOL    HW1 2646   2.522   3.050   0.894 -0.7661 -0.3715 -0.1111
  662SOL    HW2 2647   2.617   3.011   0.780 -0.6982  0.8182  0.7222
  662SOL     MW 2648   2.571   2.993   0.853 -0.4599 -0.4080  0.0461
  663SOL     OW 2649   2.743   1.472   0.439 -0.4939  0.0344  0.5795
  663SOL    HW1 2650   2.712   1.567   0.430 -1.5344 -0.0196 -0.0436
  663SOL    HW2 2651   2.794   1.477   0.524  0.5583 -1.7266  1.5471
  663SOL     MW 2652   2.746   1.485   0.449 -0.4923 -0.2050  0.6250
  664SOL     OW 2653   2.499   1.529   1.601 -0.0052  0.4092 -0.0724
  664SOL    HW1 2654   2.492   1.620   1.569  0.2837 -0.9927  0.9460
  664SOL    HW2 2655   2.411   1.516   1.636  1.0549 -1.1458  1.0856
  664SOL     MW 2656   2.486   1.540   1.601  0.1728  0.0191  0.2148
  665SOL     OW 2657   2.853   0.882   2.015 -0.0502 -0.0550 -0.0306
  665SOL    HW1 2658   2.827   0.914   1.926 -1.0477 -1.0070  2.9606
  665SOL    HW2 2659   2.935   0.839   2.014 -1.2379 -0.1691 -0.4042
  665SOL     MW 2660   2.860   0.880   2.003 -0.3385 -0.1956  0.3147
  666SOL     OW 2661   2.761   3.024   1.698 -0.2558 -0.2519 -0.1904
  666SOL    HW1 2662   2.761   3.027   1.601 -1.9649  0.5426  1.1297
  666SOL    HW2 2663   2.714   2.952   1.733  0.8466  2.0166  1.5087
  666SOL     MW 2664   2.755   3.015   1.690 -0.3359  0.1522  0.2080
  667SOL     OW 2665   1.981   2.653   1.745  0.0469  0.2981  0.8635
  667SOL    HW1 2666   2.013   2.572   1.787  0.6646  1.7142  1.7920
  667SOL    HW2 2667   2.063   2.700   1.724  2.1077 -1.4182  1.7916
  667SOL     MW 2668   1.996   2.648   1.748  0.4003  0.2585  1.1084
  668SOL     OW 2669   2.743   0.630   0.792 -0.5264  0.2888  0.2548
  668SOL    HW1 2670   2.798   0.630   0.870 -0.1526  1.7115 -1.2276
  668SOL    HW2 2671   2.665   0.686   0.804  0.7811 -4.4628 -1.7974
  668SOL     MW 2672   2.740   0.637   0.804 -0.3046 -0.1504 -0.2116
  669SOL     OW 2673   0.235   0.949   0.698 -0.3999  0.4611  0.6152
  669SOL    HW1 2674   0.195   0.993   0.764  0.2843 -0.4940 -1.8636
  669SOL    HW2 2675   0.329   0.951   0.728  1.4216  2.2223  2.8043
  669SOL     MW 2676   0.242   0.955   0.711 -0.0693  0.5674  0.5770
  670SOL     OW 2677   2.859   0.230   0.217  0.7368 -0.1843 -0.1277
  670SOL    HW1 2678   2.871   0.174   0.135 -0.7255 -0.9786  0.1255
  670SOL    HW2 2679   2.912   0.306   0.203 -0.2435 -0.8875  0.2552
  670SOL     MW 2680   2.867   0.233   0.204  0.4145 -0.3819 -0.0438
  671SOL     OW 2681   2.065   2.940   1.469 -0.6901  0.5351 -0.1660
  671SOL    HW1 2682   2.027   2.986   1.389 -0.0701 -1.2915 -0.5615
  671SOL    HW2 2683   2.047   3.007   1.536  1.9284  0.2682  1.5293
  671SOL     MW 2684   2.058   2.955   1.468 -0.2628  0.2589  0.0055
  672SOL     OW 2685   1.903   1.667   1.360  0.1923 -0.1363 -0.5896
  672SOL    HW1 2686   1.817   1.714   1.363  0.5966  1.1530 -2.7484
  672SOL    HW2 2687   1.931   1.715   1.277  1.9437 -1.4971  1.3834
  672SOL     MW 2688   1.895   1.680   1.350  0.4768 -0.1457 -0.6141
  673SOL     OW 2689   2.759   1.074   0.577  0.4414 -0.2217  0.3511
  673SOL    HW1 2690   2.800   0.999   0.627  1.6044 -1.8451 -1.2371
  673SOL    HW2 2691   2.820   1.142   0.599 -0.1683 -0.2909  2.0972
  673SOL     MW 2692   2.773   1.073   0.586  0.5144 -0.4450  0.3719
  674SOL     OW 2693   2.458   0.059   1.264 -0.3613 -0.8316  0.2947
  674SOL    HW1 2694   2.441   0.046   1.169  0.5266 -1.4230  0.3396
  674SOL    HW2 2695   2.458  -0.028   1.305 -0.3784  0.9020  1.4138
  674SOL     MW 2696   2.456   0.045   1.257 -0.2464 -0.6809  0.4483
  675SOL     OW 2697   3.019   0.871   1.068 -0.1441  0.0599 -0.2887
  675SOL    HW1 2698   3.077   0.866   1.143 -0.1725 -2.0772 -0.0599
  675SOL    HW2 2699   3.067   0.940   1.021  0.0486 -2.2309  4.1809
  675SOL     MW 2700   3.033   0.880   1.072 -0.1224 -0.5243  0.3312
  676SOL     OW 2701   2.847   1.472   1.687  0.0858  0.2710 -0.3538
  676SOL    HW1 2702   2.800   1.381   1.665  0.6169  0.5519  3.9306
  676SOL    HW2 2703   2.922   1.435   1.739 -1.2625  1.0878  2.9016
  676SOL     MW 2704   2.851   1.455   1.691 -0.0220  0.4159  0.6410
  677SOL     OW 2705   2.416   0.639   1.961  0.0734 -0.1054 -0.0788
  677SOL    HW1 2706   2.384   0.594   1.883  0.5842  1.9620  0.6368
  677SOL    HW2 2707   2.345   0.685   2.015 -1.5616 -1.4629 -0.2393
  677SOL     MW 2708   2.402   0.639   1.958 -0.0749 -0.0117 -0.0055
  678SOL     OW 2709   2.519   1.642   0.377  0.1606 -0.1451 -0.2133
  678SOL    HW1 2710   2.425   1.679   0.388 -0.5504  1.0862  0.3306
  678SOL    HW2 2711   2.515   1.591   0.289 -1.0523 -2.9258 -1.5163
  678SOL     MW 2712   2.506   1.640   0.366 -0.0932 -0.3495 -0.3135
  679SOL     OW 2713   2.264   0.479   1.173  0.0541  0.2542  0.6764
  679SOL    HW1 2714   2.210   0.402   1.157 -3.1268  2.0098 -0.5334
  679SOL    HW2 2715   2.201   0.551   1.175  2.2878  3.2591  1.9431
  679SOL     MW 2716   2.249   0.478   1.171 -0.0709  0.8823  0.6839
  680SOL     OW 2717   2.338   0.144   1.485 -0.7158  0.3821  0.6440
  680SOL    HW1 2718   2.251   0.162   1.459  2.4567 -3.1414  0.6587
  680SOL    HW2 2719   2.370   0.131   1.391  1.6370 -1.0056  0.3933
  680SOL     MW 2720   2.331   0.145   1.469  0.0132 -0.2659  0.6129
  681SOL     OW 2721   0.331   0.555   1.574 -0.8337 -0.0724  0.3516
  681SOL    HW1 2722   0.299   0.479   1.621  2.2086  0.1530 -1.4901
  681SOL    HW2 2723   0.427   0.560   1.568 -1.2964  0.3938  0.1975
  681SOL     MW 2724   0.339   0.545   1.580 -0.4934  0.0189  0.0883
  682SOL     OW 2725   0.078   2.925   1.474 -0.0046 -0.3709 -0.2979
  682SOL    HW1 2726   0.087   3.017   1.431 -1.2942  0.7991  0.4088
  682SOL    HW2 2727   0.045   2.929   1.564  2.2934  0.3602  1.1806
  682SOL     MW 2728   0.075   2.938   1.480  0.1285 -0.1201 -0.0096
  683SOL     OW 2729   2.069   0.882   2.997 -0.0535  0.2574  0.0062
  683SOL    HW1 2730   1.988   0.828   2.985  1.1565 -0.1419  2.0434
  683SOL    HW2 2731   2.043   0.966   3.035  1.7525 -0.2691  2.3253
  683SOL     MW 2732   2.055   0.886   3.000  0.3444  0.1353  0.5810
  684SOL     OW 2733   2.217   1.703   0.912  0.1965 -0.1410 -0.3375
  684SOL    HW1 2734   2.153   1.677   0.850 -0.7521 -2.8219  0.8289
  684SOL    HW2 2735   2.218   1.623   0.963 -1.1109 -1.1604  3.4403
  684SOL     MW 2736   2.208   1.689   0.910 -0.1011 -0.6292  0.3148
  685SOL     OW 2737   2.682   1.753   1.221 -0.2314  0.0705 -0.2750
  685SOL    HW1 2738   2.732   1.720   1.298  0.6501  1.5035  0.1396
  685SOL    HW2 2739   2.645   1.672   1.185  0.4875 -0.3143  0.8763
  685SOL     MW 2740   2.684   1.738   1.226 -0.0203  0.2088 -0.0684
  686SOL     OW 2741   2.926   0.741   1.533 -0.0910  0.1494  0.5439
  686SOL    HW1 2742   2.913   0.667   1.592 -0.2751  1.5634 -1.5166
  686SOL    HW2 2743   3.020   0.757   1.538  2.7167 -2.3032  1.7643
  686SOL     MW 2744   2.937   0.734   1.542  0.2551  0.0124  0.4330
  687SOL     OW 2745   2.060   0.270   1.140  0.1079 -0.4301 -0.2062
  687SOL    HW1 2746   2.057   0.185   1.100 -2.1686  3.0513 -0.2987
  687SOL    HW2 2747   2.007   0.323   1.081 -3.3717 -1.8835  1.3446
  687SOL     MW 2748   2.053   0.265   1.127 -0.6516 -0.1625 -0.0138
  688SOL     OW 2749   2.387   0.626   1.402 -0.4893 -0.6298  0.1746
  688SOL    HW1 2750   2.355   0.578   1.326 -0.8052 -1.6730 -0.3930
  688SOL    HW2 2751   2.310   0.658   1.445  0.1171 -2.0002 -3.5144
  688SOL     MW 2752   2.373   0.624   1.398 -0.4509 -0.9483 -0.3870
  689SOL     OW 2753   2.540   0.739   2.993  0.0485  0.0037 -0.2529
  689SOL    HW1 2754   2.559   0.827   2.957  0.4974 -3.4713 -1.5462
  689SOL    HW2 2755   2.579   0.723   3.088  1.8487 -1.8910 -1.9269
  689SOL     MW 2756   2.548   0.748   3.001  0.3452 -0.7048 -0.6444
  690SOL     OW 2757   2.076   0.942   1.944 -0.3132  0.3118 -0.7874
  690SOL    HW1 2758   2.019   0.862   1.945  0.9705  1.2370 -0.5982
  690SOL    HW2 2759   2.123   0.947   1.863 -1.4916 -1.4483 -0.4114
  690SOL     MW 2760   2.075   0.932   1.933 -0.2993  0.2016 -0.7129
  691SOL     OW 2761   2.437   0.266   0.849 -0.4987 -0.6584  0.3690
  691SOL    HW1 2762   2.521   0.296   0.889 -1.1681  2.5257 -0.0525
  691SOL    HW2 2763   2.362   0.322   0.876 -0.1393 -1.6938  2.3655
  691SOL     MW 2764   2.438   0.277   0.858 -0.5396 -0.3749  0.5768
  692SOL     OW 2765   2.818   1.621   1.455 -0.6422 -0.0351  0.5666
  692SOL    HW1 2766   2.832   1.573   1.537 -0.3333 -1.1146 -2.0262
  692SOL    HW2 2767   2.856   1.712   1.477 -2.5925  0.7086 -1.2299
  692SOL     MW 2768   2.825   1.627   1.468 -0.8588 -0.0794 -0.0125
  693SOL     OW 2769   2.327   0.491   0.070  0.0183 -0.2785  0.0614
  693SOL    HW1 2770   2.252   0.435   0.088  0.6447 -2.4698  0.0406
  693SOL    HW2 2771   2.293   0.581   0.031 -1.8273 -2.6342  4.1055
  693SOL     MW 2772   2.313   0.496   0.067 -0.1426 -0.8784  0.5922
  694SOL     OW 2773   1.932   1.207   1.106 -0.4755 -0.0809  0.5504
  694SOL    HW1 2774   2.029   1.196   1.137  0.4572 -1.2492  1.1732
  694SOL    HW2 2775   1.884   1.141   1.155  0.5917  1.3378  1.2786
  694SOL     MW 2776   1.939   1.197   1.117 -0.2116 -0.0478  0.7286
  695SOL     OW 2777   3.014   1.478   1.365  0.0347  0.0485  0.4423
  695SOL    HW1 2778   2.999   1.453   1.272  0.6671 -2.0081  0.3089
  695SOL    HW2 2779   2.941   1.533   1.390  1.4688 -2.8784 -1.1261
  695SOL     MW 2780   3.003   1.482   1.356  0.3073 -0.6090  0.2178
  696SOL     OW 2781   2.120   1.371   0.885  0.3968  0.1753  0.5197
  696SOL    HW1 2782   2.166   1.415   0.962 -0.7783 -2.3473 -1.0078
  696SOL    HW2 2783   2.078   1.297   0.927  2.3042 -1.1854 -1.3562
  696SOL     MW 2784   2.120   1.367   0.901  0.4935 -0.3370  0.0706
  697SOL     OW 2785   2.927   1.117   2.156  0.2620 -0.4990  0.1993
  697SOL    HW1 2786   2.865   1.184   2.173  2.5167  3.6727 -2.1043
  697SOL    HW2 2787   2.876   1.046   2.115 -0.5298  0.9810  0.2230
  697SOL     MW 2788   2.912   1.117   2.152  0.4550  0.2467 -0.1015
  698SOL     OW 2789   2.531   0.317   0.042 -0.7672  0.3389  0.1666
  698SOL    HW1 2790   2.463   0.388   0.051 -0.6778 -0.2452 -0.2219
  698SOL    HW2 2791   2.545   0.270   0.126  0.9286 -1.7892  2.2697
  698SOL     MW 2792   2.524   0.320   0.055 -0.5317 -0.0190  0.3928
  699SOL     OW 2793   1.843   1.646   1.987  0.4000 -0.6160  0.0186
  699SOL    HW1 2794   1.823   1.559   1.978  1.2132  1.1535  0.4674
  699SOL    HW2 2795   1.938   1.643   1.994 -2.2159 -3.3216 -0.9333
  699SOL     MW 2796   1.853   1.634   1.987  0.1621 -0.7395 -0.0478
  700SOL     OW 2797   2.700   0.932   1.512  0.1090  0.4265 -0.5830
  700SOL    HW1 2798   2.709   0.998   1.442  2.7468  0.4507 -2.2386
  700SOL    HW2 2799   2.777   0.876   1.516 -1.1932 -2.3501 -0.3467
  700SOL     MW 2800   2.711   0.933   1.503  0.2852  0.0634 -0.7702
  701SOL     OW 2801   1.602   1.232   2.496  0.4261  0.0824 -0.0472
  701SOL    HW1 2802   1.695   1.263   2.478  0.1634  2.8887 -3.1131
  701SOL    HW2 2803   1.582   1.264   2.583  0.0126  1.0557 -1.7129
  701SOL     MW 2804   1.612   1.240   2.505  0.3369  0.5811 -0.6715
  702SOL     OW 2805   2.216   0.424   0.870 -0.1264  0.9390  0.1699
  702SOL    HW1 2806   2.206   0.358   0.798  0.2782 -0.9166 -1.6817
  702SOL    HW2 2807   2.273   0.495   0.834 -0.3500  1.1137 -0.9347
  702SOL     MW 2808   2.222   0.425   0.856 -0.1025  0.7172 -0.2201
  703SOL     OW 2809   2.745   1.239   1.001  0.0994 -0.2008 -0.2905
  703SOL    HW1 2810   2.685   1.240   0.925 -1.9846 -1.5804 -1.4298
  703SOL    HW2 2811   2.753   1.152   1.031 -1.0158  2.6849  1.1076
  703SOL     MW 2812   2.738   1.228   0.995 -0.3227 -0.0020 -0.2563
  704SOL     OW 2813   0.016   1.279   0.241 -0.1951 -0.4148 -0.3569
  704SOL    HW1 2814  -0.064   1.241   0.200 -2.5224 -0.7995  0.1643
  704SOL    HW2 2815   0.012   1.237   0.324 -2.2163  0.5866 -5.5648
  704SOL     MW 2816   0.005   1.269   0.246 -0.7688 -0.3334 -0.9753
  705SOL     OW 2817   2.218   1.631   1.332  0.1314  0.2071 -0.1240
  705SOL    HW1 2818   2.129   1.635   1.372 -5.0145 -0.7380  3.0317
  705SOL    HW2 2819   2.265   1.565   1.375  1.1524  1.7665  0.1368
  705SOL     MW 2820   2.212   1.623   1.343 -0.4128  0.2882  0.3268
  706SOL     OW 2821   2.955   1.216   0.693  0.0831  0.0320 -0.1903
  706SOL    HW1 2822   3.013   1.222   0.614 -3.2229  0.2877  0.6517
  706SOL    HW2 2823   2.908   1.301   0.702 -1.0957 -2.0735  0.5702
  706SOL     MW 2824   2.956   1.228   0.684 -0.5087 -0.2121  0.0211
  707SOL     OW 2825   2.391   0.027   0.984  0.4324 -0.4330  0.0465
  707SOL    HW1 2826   2.418   0.104   0.935  3.7356  1.5899  0.7826
  707SOL    HW2 2827   2.297   0.027   0.986  0.8658  3.6009  0.9826
  707SOL     MW 2828   2.382   0.037   0.978  0.9254  0.3661  0.2671
  708SOL     OW 2829   2.546   1.507   0.123 -0.5677 -0.6710 -0.1736
  708SOL    HW1 2830   2.600   1.435   0.156  1.3140  0.1207  0.3207
  708SOL    HW2 2831   2.512   1.467   0.048 -0.7579 -0.4953  0.1344
  708SOL     MW 2832   2.549   1.492   0.118 -0.3445 -0.5433 -0.0677
  709SOL     OW 2833   1.742   1.700   0.118  0.6913 -0.5515 -0.0808
  709SOL    HW1 2834   1.697   1.722   0.041 -2.6206  0.0573  0.7624
  709SOL    HW2 2835   1.664   1.689   0.175 -0.3462 -2.1633  2.0158
  709SOL     MW 2836   1.725   1.701   0.115  0.1174 -0.6838  0.3071
  710SOL     OW 2837   2.166   1.180   1.203  0.1365  0.5740  0.6677
  710SOL    HW1 2838   2.236   1.155   1.139 -2.2903 -0.3974 -1.8203
  710SOL    HW2 2839   2.151   1.098   1.252 -1.5015 -0.6274  1.0274
  710SOL     MW 2840   2.173   1.166   1.201 -0.3998  0.2873  0.3869
  711SOL     OW 2841   2.357   0.129   1.774  0.1263 -0.3989  0.3725
  711SOL    HW1 2842   2.445   0.116   1.807 -1.2057  1.0713  0.3115
  711SOL    HW2 2843   2.353   0.081   1.691 -0.1540  2.8967  1.5565
  711SOL     MW 2844   2.368   0.121   1.768 -0.0864  0.2299  0.5207
  712SOL     OW 2845   1.900   0.554   0.005  0.0981 -0.4240  0.8520
  712SOL    HW1 2846   1.881   0.640  -0.033  0.8030 -0.5809 -0.1273
  712SOL    HW2 2847   1.972   0.576   0.072  2.2110 -1.3229  2.9510
  712SOL     MW 2848   1.907   0.568   0.008  0.4699 -0.5633  0.9997
  713SOL     OW 2849   2.588   0.823   1.106  0.3050 -0.1211 -0.3148
  713SOL    HW1 2850   2.567   0.733   1.121  0.0698 -1.4842  3.7429
  713SOL    HW2 2851   2.543   0.871   1.180 -0.4104  1.1275 -1.8720
  713SOL     MW 2852   2.580   0.817   1.118  0.1796 -0.1362  0.0151
  714SOL     OW 2853   2.197   0.223   1.967  0.2919  0.0975  0.3964
  714SOL    HW1 2854   2.227   0.200   2.060  1.4037 -0.3466 -2.3788
  714SOL    HW2 2855   2.262   0.203   1.893  3.0319  2.8942 -0.1990
  714SOL     MW 2856   2.210   0.217   1.970  0.8001  0.4079 -0.0483
  715SOL     OW 2857   1.716   1.938   1.676  0.7115 -0.0817 -0.3075
  715SOL    HW1 2858   1.811   1.928   1.664 -1.6797  4.5064  0.5388
  715SOL    HW2 2859   1.682   1.848   1.692 -0.5220 -0.2006  0.8367
  715SOL     MW 2860   1.724   1.925   1.677  0.2332  0.5079 -0.0449
  716SOL     OW 2861   2.344   0.605   0.737 -0.1458  0.5625  0.1464
  716SOL    HW1 2862   2.404   0.540   0.699  0.7633 -0.3369  2.0723
  716SOL    HW2 2863   2.280   0.627   0.671  0.0575 -1.3479  0.0003
  716SOL     MW 2864   2.343   0.599   0.723  0.0010  0.1918  0.3812
  717SOL     OW 2865   2.885   1.472   2.919  0.1280  0.8537 -0.0358
  717SOL    HW1 2866   2.978   1.467   2.932 -0.7881  2.5850  1.0647
  717SOL    HW2 2867   2.847   1.526   2.991 -1.3062  1.3834  0.3020
  717SOL     MW 2868   2.893   1.478   2.930 -0.1821  1.1520  0.1540
  718SOL     OW 2869   2.575   1.365   1.352  1.1011  0.1977  0.2545
  718SOL    HW1 2870   2.594   1.411   1.431  0.2356 -3.1925 -2.2101
  718SOL    HW2 2871   2.656   1.320   1.339 -0.8921 -0.5903 -0.0543
  718SOL     MW 2872   2.588   1.365   1.361  0.7239 -0.3536 -0.1114
  719SOL     OW 2873   2.236   1.340   0.626  0.1873  0.4394 -0.4393
  719SOL    HW1 2874   2.331   1.347   0.599  1.2909  3.3708  1.0538
  719SOL    HW2 2875   2.221   1.347   0.719 -0.3448  0.0874 -1.4291
  719SOL     MW 2876   2.247   1.342   0.635  0.2627  0.7797 -0.3729
  720SOL     OW 2877   2.907   1.163   0.093 -0.2732 -0.2500 -0.5256
  720SOL    HW1 2878   2.893   1.069   0.116 -1.2360 -2.2930 -2.2828
  720SOL    HW2 2879   2.832   1.217   0.142  0.2136  0.9182  2.9942
  720SOL     MW 2880   2.895   1.158   0.103 -0.3360 -0.3654 -0.2930
  721SOL     OW 2881   2.458   0.910   1.349 -0.6616  0.2354  0.1894
  721SOL    HW1 2882   2.440   0.814   1.363  2.3161 -1.9049 -2.1933
  721SOL    HW2 2883   2.537   0.924   1.405 -3.3025 -0.0912  0.6011
  721SOL     MW 2884   2.466   0.899   1.358 -0.6172 -0.0901 -0.0706
  722SOL     OW 2885   2.583   1.134   0.379 -0.1720  0.5850 -0.4044
  722SOL    HW1 2886   2.545   1.206   0.428  2.1879  0.5578 -0.3150
  722SOL    HW2 2887   2.647   1.090   0.441  2.0161 -2.4553  1.2461
  722SOL     MW 2888   2.587   1.137   0.394  0.4281  0.1803 -0.1748
  723SOL     OW 2889   2.251   1.413   1.634  0.4246  0.2965 -0.5448
  723SOL    HW1 2890   2.273   1.381   1.541  2.0243 -0.4850 -1.9216
  723SOL    HW2 2891   2.168   1.460   1.622 -1.1340 -2.2368 -2.3649
  723SOL     MW 2892   2.243   1.415   1.620  0.4300 -0.1408 -0.9666
  724SOL     OW 2893   2.499   0.415   0.625 -0.4649 -0.3451  0.1127
  724SOL    HW1 2894   2.476   0.352   0.697  0.0572  0.2362 -0.2584
  724SOL    HW2 2895   2.589   0.395   0.606 -1.0242  0.6743  1.6049
  724SOL     MW 2896   2.508   0.404   0.632 -0.4698 -0.1339  0.2606
  725SOL     OW 2897   2.538   0.511   1.156  0.3199  0.0006  0.3301
  725SOL    HW1 2898   2.596   0.501   1.240 -0.4349 -1.2003  0.1460
  725SOL    HW2 2899   2.449   0.488   1.166  1.1247  3.2619  0.3783
  725SOL     MW 2900   2.534   0.507   1.168  0.3265  0.2724  0.3121
  726SOL     OW 2901   2.581   2.464   0.551 -0.0406  0.2117 -0.5340
  726SOL    HW1 2902   2.500   2.502   0.513 -1.1220 -2.0965  3.1054
  726SOL    HW2 2903   2.549   2.406   0.622  2.7026  0.6134 -2.8456
  726SOL     MW 2904   2.566   2.461   0.556  0.1787 -0.0399 -0.3588
  727SOL     OW 2905   2.901   0.292   1.602 -0.4915  0.7805  0.3757
  727SOL    HW1 2906   2.866   0.333   1.529 -1.2095 -1.0639  1.7407
  727SOL    HW2 2907   2.829   0.244   1.641  1.2015 -0.2093  3.4358
  727SOL     MW 2908   2.887   0.291   1.598 -0.3628  0.4066  0.9596
  728SOL     OW 2909   2.825   1.131   2.925 -0.3984 -0.0775 -0.1726
  728SOL    HW1 2910   2.806   1.207   2.867 -2.5305  0.1162  0.1220
  728SOL    HW2 2911   2.873   1.161   3.003 -2.0269  1.6320  0.8722
  728SOL     MW 2912   2.829   1.145   2.928 -0.8946  0.1736  0.0041
  729SOL     OW 2913   2.548   1.546   1.077  0.4384  0.2458 -0.3568
  729SOL    HW1 2914   2.580   1.462   1.107 -2.3013 -0.3672 -0.5865
  729SOL    HW2 2915   2.568   1.555   0.983 -0.0214  1.2980  3.3402
  729SOL     MW 2916   2.555   1.536   1.069  0.0163  0.3037  0.1007
  730SOL     OW 2917   2.143   1.164   0.227  0.1230  0.8141  0.3348
  730SOL    HW1 2918   2.228   1.134   0.252 -0.6957 -0.3508  0.9440
  730SOL    HW2 2919   2.141   1.260   0.238 -0.7716 -0.0355  0.3544
  730SOL     MW 2920   2.154   1.173   0.232 -0.1031  0.5483  0.4177
  731SOL     OW 2921   2.857   1.896   2.872  0.2676  0.2901  0.2692
  731SOL    HW1 2922   2.792   1.927   2.791 -0.8621  1.7708 -0.0405
  731SOL    HW2 2923   2.911   1.980   2.876 -1.4705  1.2056 -1.3394
  731SOL     MW 2924   2.856   1.911   2.862 -0.1108  0.6063  0.0161
  732SOL     OW 2925   2.185   0.928   1.377 -0.4727 -0.0830  0.9930
  732SOL    HW1 2926   2.180   0.952   1.470 -1.1024 -0.5303  0.8830
  732SOL    HW2 2927   2.278   0.935   1.354  0.5854 -1.6371 -4.0047
  732SOL     MW 2928   2.196   0.932   1.386 -0.4161 -0.3471  0.3190
  733SOL     OW 2929   2.324   2.802   3.006  0.2131  0.3368 -0.2909
  733SOL    HW1 2930   2.240   2.848   2.987  1.0896  0.1503  2.4349
  733SOL    HW2 2931   2.306   2.706   3.012 -0.0043 -0.7579  1.9381
  733SOL     MW 2932   2.311   2.796   3.005  0.3001  0.1678  0.3629
  734SOL     OW 2933   1.493   0.358   2.453  0.3651  0.3981 -0.1083
  734SOL    HW1 2934   1.467   0.326   2.538 -0.1951 -3.4045  0.1777
  734SOL    HW2 2935   1.533   0.276   2.410 -2.3902 -0.7070  0.6504
  734SOL     MW 2936   1.495   0.343   2.459 -0.0724 -0.2495  0.0295
  735SOL     OW 2937   2.953   0.952   2.594 -0.3963 -0.2613 -0.1824
  735SOL    HW1 2938   2.945   0.858   2.624 -0.1562  0.8164  0.8445
  735SOL    HW2 2939   3.005   0.987   2.663 -2.9196 -0.2043  0.6657
  735SOL     MW 2940   2.959   0.944   2.607 -0.6976 -0.1116  0.0650
  736SOL     OW 2941   0.119   0.586   2.558  0.1085 -0.7224 -0.2143
  736SOL    HW1 2942   0.160   0.648   2.499  1.8206  0.1426 -1.8154
  736SOL    HW2 2943   0.097   0.515   2.492 -0.6573  1.5626 -1.7788
  736SOL     MW 2944   0.122   0.585   2.541  0.2334 -0.3068 -0.6319
  737SOL     OW 2945   2.926   0.662   2.625  0.0320 -0.2370  0.1484
  737SOL    HW1 2946   2.868   0.641   2.551 -0.5341  0.4371  0.2751
  737SOL    HW2 2947   3.017   0.657   2.593 -0.7235 -1.4318 -1.9914
  737SOL     MW 2948   2.931   0.659   2.611 -0.1424 -0.3057 -0.1172
  738SOL     OW 2949   0.230   0.532   1.905 -0.0540  0.7280  0.2049
  738SOL    HW1 2950   0.325   0.551   1.918 -1.4656  1.7807 -1.2587
  738SOL    HW2 2951   0.224   0.471   1.828 -3.4361  0.5699 -3.6005
  738SOL     MW 2952   0.242   0.526   1.896 -0.6864  0.8461 -0.4903
  739SOL     OW 2953   2.442   1.041   2.125 -0.5396  0.0399  0.1279
  739SOL    HW1 2954   2.462   0.949   2.123  1.0208  1.4183 -1.3536
  739SOL    HW2 2955   2.482   1.078   2.045 -2.6531 -0.0861 -0.8705
  739SOL     MW 2956   2.450   1.034   2.114 -0.6126  0.2052 -0.1993
  740SOL     OW 2957   0.180   1.786   2.978  0.0123  0.0043  0.4160
  740SOL    HW1 2958   0.123   1.707   2.969 -2.0866  0.0330 -1.4600
  740SOL    HW2 2959   0.274   1.770   2.986  0.1265  0.5206  2.6932
  740SOL     MW 2960   0.185   1.773   2.978 -0.2496  0.0762  0.4689
  741SOL     OW 2961   2.265   1.297   2.704 -0.2352  0.3683 -0.3799
  741SOL    HW1 2962   2.208   1.347   2.649  0.1479 -0.3688 -1.3366
  741SOL    HW2 2963   2.233   1.299   2.795  1.3978 -1.5372  0.7155
  741SOL     MW 2964   2.253   1.304   2.709  0.0308  0.0197 -0.3616
  742SOL     OW 2965   1.569   1.311   2.219 -0.0563 -0.6845  0.2050
  742SOL    HW1 2966   1.541   1.219   2.217 -1.6124 -0.2580  1.3102
  742SOL    HW2 2967   1.581   1.332   2.308  0.1289 -1.3113  1.2508
  742SOL     MW 2968   1.567   1.302   2.230 -0.2372 -0.7109  0.4888
  743SOL     OW 2969   2.536   1.242   2.793  0.3897  0.4892  0.4542
  743SOL    HW1 2970   2.447   1.242   2.755 -2.6678 -0.2061 -1.6257
  743SOL    HW2 2971   2.549   1.159   2.825 -1.8689  2.6792 -0.1980
  743SOL     MW 2972   2.526   1.231   2.793 -0.3117  0.6864  0.0937
  744SOL     OW 2973   2.746   0.996   1.773 -0.0335  0.5065 -0.0790
  744SOL    HW1 2974   2.672   1.047   1.814 -1.0264  0.1340 -0.2439
  744SOL    HW2 2975   2.718   0.962   1.682  0.5616  0.2310 -0.4730
  744SOL     MW 2976   2.733   0.998   1.766 -0.0860  0.4210 -0.1528
  745SOL     OW 2977   1.789   0.421   2.493 -0.1741  0.0019 -0.2207
  745SOL    HW1 2978   1.761   0.440   2.400 -2.2559 -0.7091 -0.3012
  745SOL    HW2 2979   1.707   0.398   2.542  1.2731 -0.1453  1.7793
  745SOL     MW 2980   1.775   0.420   2.487 -0.2578 -0.1113  0.0326
  746SOL     OW 2981   1.494   1.454   1.705 -0.2339 -0.7471 -0.3359
  746SOL    HW1 2982   1.556   1.528   1.715 -1.9275  0.5949  0.9482
  746SOL    HW2 2983   1.477   1.418   1.789  0.2652 -1.5148 -0.5920
  746SOL     MW 2984   1.500   1.459   1.717 -0.3915 -0.6713 -0.2002
  747SOL     OW 2985   2.560   1.152   1.900  0.5416 -0.2900 -0.5644
  747SOL    HW1 2986   2.487   1.171   1.839  2.9368 -1.1322  0.4156
  747SOL    HW2 2987   2.595   1.236   1.934 -0.2506 -0.3379  0.0213
  747SOL     MW 2988   2.555   1.166   1.897  0.7531 -0.4075 -0.3578
  748SOL     OW 2989   0.099   0.006   1.870 -0.1367  0.4206 -0.1620
  748SOL    HW1 2990   0.171  -0.033   1.918  0.4529  2.7118 -1.2757
  748SOL    HW2 2991   0.047   0.056   1.937 -1.3504 -0.1870  2.5352
  748SOL     MW 2992   0.102   0.007   1.885 -0.2191  0.6428  0.0469
  749SOL     OW 2993   2.397   0.536   2.764 -0.2866 -0.1480  0.4073
  749SOL    HW1 2994   2.408   0.626   2.742 -0.3679  0.1837 -1.1633
  749SOL    HW2 2995   2.442   0.518   2.839  0.7095 -1.4429 -1.1050
  749SOL     MW 2996   2.405   0.545   2.771 -0.1659 -0.2751  0.0005
  750SOL     OW 2997   2.040   3.080   1.959 -0.4303  0.1824 -0.0456
  750SOL    HW1 2998   2.074   3.163   1.991  0.6459 -1.6308 -0.7161
  750SOL    HW2 2999   2.116   3.032   1.945  1.5277  2.8455 -0.3167
  750SOL     MW 3000   2.055   3.085   1.962 -0.0300  0.2945 -0.1699
  751SOL     OW 3001   0.025   0.435   2.371 -0.1236  0.5020 -0.4363
  751SOL    HW1 3002  -0.069   0.422   2.347  1.3024  0.4868  0.9827
  751SOL    HW2 3003   0.079   0.388   2.307  2.2029 -0.2153 -1.3976
  751SOL     MW 3004   0.020   0.427   2.359  0.3715  0.4054 -0.3759
  752SOL     OW 3005   2.126   0.877   2.740  0.0010 -0.5649 -0.6154
  752SOL    HW1 3006   2.215   0.909   2.743 -1.3584  0.4888 -1.0800
  752SOL    HW2 3007   2.099   0.869   2.833  0.5428  1.3879  0.4450
  752SOL     MW 3008   2.134   0.880   2.752 -0.1069 -0.1682 -0.5368
  753SOL     OW 3009   2.858   0.343   2.343  0.1740 -0.6514 -0.3139
  753SOL    HW1 3010   2.785   0.286   2.316 -0.7726  0.3065  1.6391
  753SOL    HW2 3011   2.815   0.414   2.391 -1.5764 -0.9791 -3.4710
  753SOL     MW 3012   2.843   0.345   2.345 -0.1819 -0.5682 -0.4727
  754SOL     OW 3013   2.215   3.010   2.654  0.3125 -0.1583  0.4229
  754SOL    HW1 3014   2.224   3.007   2.559 -1.0866  0.9319  2.0543
  754SOL    HW2 3015   2.286   2.960   2.698 -1.3239  1.1340 -0.8600
  754SOL     MW 3016   2.226   3.003   2.648 -0.0880  0.1560  0.4689
  755SOL     OW 3017   2.753   1.587   2.490  0.6073 -0.5137  0.2836
  755SOL    HW1 3018   2.691   1.530   2.536  0.7912 -1.0261 -0.2299
  755SOL    HW2 3019   2.804   1.614   2.564  0.9673 -1.4362 -1.8167
  755SOL     MW 3020   2.752   1.583   2.505  0.6791 -0.7030 -0.0613
  756SOL     OW 3021   2.251   1.286   3.007  0.5284  0.3232  0.2470
  756SOL    HW1 3022   2.313   1.353   3.021  0.9050 -1.1559 -0.7381
  756SOL    HW2 3023   2.295   1.204   3.034  1.4638  2.1590  1.5991
  756SOL     MW 3024   2.265   1.284   3.012  0.7015  0.3702  0.2954
  757SOL     OW 3025   2.124   0.962   1.635  0.0749 -0.4728  0.4464
  757SOL    HW1 3026   2.139   0.868   1.621 -0.2483  0.1269  0.4691
  757SOL    HW2 3027   2.034   0.985   1.613  0.8895  1.5784  0.8663
  757SOL     MW 3028   2.114   0.953   1.630  0.1397 -0.1230  0.5048
  758SOL     OW 3029   2.235   1.776   2.678 -0.2824  0.4560  0.3839
  758SOL    HW1 3030   2.229   1.804   2.586  2.7153  4.0390  2.9505
  758SOL    HW2 3031   2.330   1.746   2.684 -0.6427  0.1277 -1.6068
  758SOL     MW 3032   2.246   1.776   2.667  0.0655  0.8854  0.4599
  759SOL     OW 3033   1.560   1.360   2.736 -0.1867 -1.0948 -0.3870
  759SOL    HW1 3034   1.564   1.455   2.714  1.1215  2.7497  2.1288
  759SOL    HW2 3035   1.644   1.329   2.781  2.4581 -2.0051 -4.4906
  759SOL     MW 3036   1.572   1.368   2.739  0.3349 -0.7077 -0.5965
  760SOL     OW 3037   2.677   1.960   2.701 -0.6371 -0.3784  0.2826
  760SOL    HW1 3038   2.620   1.887   2.673 -2.3006 -4.3285  1.0062
  760SOL    HW2 3039   2.729   1.979   2.620 -0.3181  2.8060  0.8984
  760SOL     MW 3040   2.676   1.953   2.687 -0.8145 -0.4794  0.4593
  761SOL     OW 3041   2.107   0.440   2.441 -0.0080  0.2837  0.3706
  761SOL    HW1 3042   2.061   0.355   2.443 -2.1803 -3.3937  0.0902
  761SOL    HW2 3043   2.104   0.486   2.530  0.3368  4.7231 -0.1203
  761SOL     MW 3044   2.101   0.435   2.453 -0.2491  0.3842  0.2689
  762SOL     OW 3045   3.088   0.174   2.059 -0.3997  0.5446 -0.0954
  762SOL    HW1 3046   3.083   0.135   2.150 -1.4712 -2.6989  0.0385
  762SOL    HW2 3047   3.025   0.249   2.056  0.3836  1.5456 -3.0992
  762SOL     MW 3048   3.079   0.179   2.071 -0.4377  0.2487 -0.4741
  763SOL     OW 3049   2.399   1.149   2.374 -0.8266 -0.3666  0.4662
  763SOL    HW1 3050   2.410   1.102   2.286  1.0936 -0.3387 -0.6018
  763SOL    HW2 3051   2.472   1.213   2.385 -0.9023 -0.4577 -0.0861
  763SOL     MW 3052   2.410   1.151   2.364 -0.5832 -0.3750  0.2524
  764SOL     OW 3053   0.332   0.181   2.824  0.0938  0.0980  0.2184
  764SOL    HW1 3054   0.245   0.196   2.787  2.0112 -0.0580 -0.4517
  764SOL    HW2 3055   0.340   0.255   2.887 -0.9434  1.4967 -0.0820
  764SOL     MW 3056   0.322   0.193   2.828  0.2099  0.2620  0.0904
  765SOL     OW 3057   2.689   0.125   2.310  0.1682 -0.3828 -0.2600
  765SOL    HW1 3058   2.622   0.091   2.254 -1.4329 -0.5725  0.8694
  765SOL    HW2 3059   2.749   0.050   2.319 -0.9734 -0.6834 -1.7896
  765SOL     MW 3060   2.688   0.111   2.304 -0.1937 -0.4475 -0.3128
  766SOL     OW 3061   1.844   3.016   2.152 -0.0218  0.3728  0.3442
  766SOL    HW1 3062   1.924   3.028   2.097 -0.4257 -1.4362 -0.3834
  766SOL    HW2 3063   1.787   2.986   2.078  0.1317  0.5082 -0.8383
  766SOL     MW 3064   1.847   3.014   2.135 -0.0548  0.1520  0.0922
  767SOL     OW 3065   2.681   0.603   1.859  0.2119  0.5675  0.3890
  767SOL    HW1 3066   2.711   0.643   1.940 -0.0861 -0.5727 -0.9332
  767SOL    HW2 3067   2.590   0.637   1.859 -0.3404 -1.8833  0.1596
  767SOL     MW 3068   2.673   0.613   1.870  0.0997  0.0937  0.1843
  768SOL     OW 3069   0.056   1.529   2.939  0.1617  0.4633  0.6031
  768SOL    HW1 3070   0.079   1.498   3.028  0.5565 -1.0481  0.0283
  768SOL    HW2 3071   0.116   1.475   2.884  0.7205  0.8583  0.5908
  768SOL     MW 3072   0.067   1.518   2.944  0.2875  0.3160  0.5256
  769SOL     OW 3073   2.373   0.644   2.378  0.2819 -0.0485 -0.7163
  769SOL    HW1 3074   2.308   0.581   2.336 -0.4225  0.6619 -1.2072
  769SOL    HW2 3075   2.449   0.621   2.326  0.3052 -0.4761  0.3508
  769SOL     MW 3076   2.375   0.633   2.366  0.1921 -0.0112 -0.6403
  770SOL     OW 3077   0.011   1.639   2.564 -0.5634  0.4789  0.1369
  770SOL    HW1 3078  -0.060   1.681   2.617 -1.1334 -1.8764 -0.3066
  770SOL    HW2 3079   0.058   1.576   2.625 -0.3008 -0.6552  0.7900
  770SOL     MW 3080   0.008   1.636   2.579 -0.6040  0.0185  0.1646
  771SOL     OW 3081   3.075   0.635   1.961  0.4423  0.1846 -0.2822
  771SOL    HW1 3082   3.025   0.584   1.892 -0.9085 -0.0067 -1.7377
  771SOL    HW2 3083   3.161   0.602   1.952 -1.1380 -1.2352 -1.8657
  771SOL     MW 3084   3.080   0.624   1.951  0.0555 -0.0280 -0.6832
  772SOL     OW 3085   0.011   0.043   2.291 -0.1650  0.3520 -0.3784
  772SOL    HW1 3086  -0.074   0.019   2.325 -2.9251  0.6769 -0.6863
  772SOL    HW2 3087   0.048  -0.034   2.242  0.1108  0.6298 -2.5267
  772SOL     MW 3088   0.005   0.030   2.289 -0.4928  0.4315 -0.7025
  773SOL     OW 3089   2.409   2.886   2.765 -0.0777 -0.7642  0.6683
  773SOL    HW1 3090   2.409   2.804   2.718  1.4566 -2.7694  1.2526
  773SOL    HW2 3091   2.409   2.849   2.852  0.5639 -0.5774 -0.1028
  773SOL     MW 3092   2.409   2.870   2.771  0.2094 -1.0041  0.6436
  774SOL     OW 3093   2.309   1.171   1.773 -0.7395 -0.2874 -0.5480
  774SOL    HW1 3094   2.299   1.248   1.713  2.3413  2.6680  0.9463
  774SOL    HW2 3095   2.256   1.099   1.729  0.2738  0.6522  0.4307
  774SOL     MW 3096   2.300   1.172   1.759 -0.1993  0.2265 -0.2217
  775SOL     OW 3097   2.272   2.996   2.369 -0.5727  0.2953  0.3172
  775SOL    HW1 3098   2.270   3.078   2.319 -3.3558 -0.7212  1.7646
  775SOL    HW2 3099   2.345   2.939   2.346 -1.0449 -0.2135  3.0310
  775SOL     MW 3100   2.281   3.000   2.359 -1.0022  0.0940  0.8662
  776SOL     OW 3101   0.142   1.492   0.089 -0.0381 -0.3086  0.4734
  776SOL    HW1 3102   0.229   1.454   0.091  1.0708  1.3995 -1.5600
  776SOL    HW2 3103   0.082   1.424   0.120 -2.3026 -1.5042 -1.4440
  776SOL     MW 3104   0.145   1.478   0.093 -0.1906 -0.2410 -0.0478
  777SOL     OW 3105   3.000   1.079   1.718 -0.3881 -0.4976  0.1502
  777SOL    HW1 3106   3.018   1.151   1.659  0.0526 -0.4028  0.0149
  777SOL    HW2 3107   2.901   1.070   1.730 -3.4768  2.0814  2.0329
  777SOL     MW 3108   2.989   1.088   1.711 -0.7375 -0.1448  0.3808
  778SOL     OW 3109   2.822   0.457   2.750 -0.0356  0.4110 -0.0640
  778SOL    HW1 3110   2.791   0.464   2.841  1.2039 -0.4645  0.6637
  778SOL    HW2 3111   2.851   0.543   2.710 -0.1632  4.7016 -0.7101
  778SOL     MW 3112   2.822   0.469   2.757  0.1111  0.8616 -0.0532
  779SOL     OW 3113   2.138   0.554   2.199 -0.6511  0.1938 -0.4671
  779SOL    HW1 3114   2.091   0.640   2.214 -1.5964 -1.7376  0.3084
  779SOL    HW2 3115   2.111   0.501   2.268 -1.6490 -0.2850 -3.4956
  779SOL     MW 3116   2.128   0.558   2.210 -0.9075 -0.1242 -0.7644
  780SOL     OW 3117   0.091   0.270   2.687  0.3121 -0.7308  0.2221
  780SOL    HW1 3118   0.077   0.345   2.748 -0.5220  1.2255  1.0541
  780SOL    HW2 3119   0.017   0.264   2.624 -4.0615 -0.2896  1.7675
  780SOL     MW 3120   0.079   0.279   2.687 -0.3750 -0.4145  0.5358
  781SOL     OW 3121   3.052   1.302   2.505 -0.3095 -0.0091  0.1021
  781SOL    HW1 3122   3.014   1.373   2.451 -0.6295  0.4093  1.2146
  781SOL    HW2 3123   3.083   1.234   2.446  0.3549  0.2186  1.2181
  781SOL     MW 3124   3.051   1.303   2.490 -0.2640  0.0761  0.3961
  782SOL     OW 3125   0.674   1.549   3.072  0.0346  0.0059  0.4552
  782SOL    HW1 3126   0.589   1.593   3.065 -1.2999 -1.9833 -1.7410
  782SOL    HW2 3127   0.686   1.535   3.162 -0.8445 -3.4954 -2.3914
  782SOL     MW 3128   0.665   1.553   3.083 -0.2575 -0.7185 -0.2101
  783SOL     OW 3129   2.721   0.559   2.423 -0.2528 -0.8238  0.4222
  783SOL    HW1 3130   2.676   0.562   2.336  0.0156 -0.0096  0.7663
  783SOL    HW2 3131   2.662   0.506   2.479  1.9159 -0.6943 -0.2840
  783SOL     MW 3132   2.708   0.552   2.419  0.0688 -0.6993  0.3744
  784SOL     OW 3133   0.152   0.830   2.809  0.0389  0.3114 -0.4111
  784SOL    HW1 3134   0.079   0.890   2.793  1.9715 -1.8411 -1.1042
  784SOL    HW2 3135   0.223   0.845   2.742  2.1179 -1.0385  0.4039
  784SOL     MW 3136   0.152   0.840   2.798  0.5682 -0.1507 -0.3951
  785SOL     OW 3137   0.432   0.510   2.182  0.3430 -0.3051  0.0062
  785SOL    HW1 3138   0.447   0.557   2.100 -2.1841  1.6007  2.0223
  785SOL    HW2 3139   0.354   0.451   2.171 -0.0194  0.1982 -3.7401
  785SOL     MW 3140   0.423   0.508   2.170 -0.0382  0.0128 -0.2221
  786SOL     OW 3141   1.973   0.308   2.952  0.3295 -0.6233 -0.8009
  786SOL    HW1 3142   1.962   0.403   2.981  0.8897 -2.4562 -0.0601
  786SOL    HW2 3143   2.038   0.318   2.882  0.9291  0.0653  2.8467
  786SOL     MW 3144   1.980   0.322   2.947  0.4825 -0.7743 -0.2219
  787SOL     OW 3145   2.454   0.164   2.924 -0.0099  0.1404 -0.7067
  787SOL    HW1 3146   2.522   0.094   2.890 -0.3972  1.1965 -1.3718
  787SOL    HW2 3147   2.505   0.236   2.960 -0.5136 -2.9159 -1.9953
  787SOL     MW 3148   2.469   0.164   2.925 -0.1275 -0.1235 -0.9645
  788SOL     OW 3149   2.840   3.010   2.338  0.1771  0.0582  0.1897
  788SOL    HW1 3150   2.774   2.977   2.392 -1.0948 -1.6142 -1.4998
  788SOL    HW2 3151   2.870   2.923   2.296  1.8496 -1.5877  0.1569
  788SOL     MW 3152   2.835   2.994   2.339  0.2300 -0.3796 -0.0375
  789SOL     OW 3153   0.092   0.160   3.052  0.4251  0.0137  0.2493
  789SOL    HW1 3154   0.001   0.126   3.071 -2.1989  0.4822  0.2347
  789SOL    HW2 3155   0.071   0.246   3.012 -1.7351 -0.8664 -0.4566
  789SOL     MW 3156   0.077   0.167   3.049 -0.2061 -0.0406  0.1542
  790SOL     OW 3157   0.022   1.071   2.372 -0.0373 -0.0810  0.3814
  790SOL    HW1 3158  -0.010   1.024   2.444 -1.0594  0.4503  0.9421
  790SOL    HW2 3159  -0.045   1.080   2.305  1.6248  0.7502 -2.1564
  790SOL     MW 3160   0.009   1.066   2.373  0.0471  0.0988  0.1205
  791SOL     OW 3161   2.591   0.398   2.618  0.0833 -0.3554 -0.0984
  791SOL    HW1 3162   2.519   0.439   2.660  2.1630  0.0895  0.5472
  791SOL    HW2 3163   2.677   0.426   2.666  2.3462  1.1469 -1.4004
  791SOL     MW 3164   2.593   0.407   2.630  0.6563 -0.0985 -0.1850
  792SOL     OW 3165   2.360   0.311   2.417 -0.2231  0.6331 -0.0697
  792SOL    HW1 3166   2.272   0.348   2.424  3.0736 -1.9852  1.9570
  792SOL    HW2 3167   2.363   0.281   2.508 -0.4271  3.0031 -1.3299
  792SOL     MW 3168   2.349   0.312   2.430  0.1850  0.6004  0.0314
  793SOL     OW 3169   1.927   1.169   1.947 -0.3426 -0.6800  0.0241
  793SOL    HW1 3170   1.880   1.183   1.856 -0.4968  0.3359 -2.2164
  793SOL    HW2 3171   1.992   1.098   1.935  2.6534  0.6382  1.3504
  793SOL     MW 3172   1.930   1.162   1.933  0.0323 -0.3720 -0.0965
  794SOL     OW 3173   1.399   2.316   0.130  0.6148 -0.3018  0.0202
  794SOL    HW1 3174   1.414   2.372   0.057  0.6396 -3.3210  2.6781
  794SOL    HW2 3175   1.473   2.330   0.188 -1.4665 -0.8270  0.0198
  794SOL     MW 3176   1.410   2.325   0.128  0.3434 -0.7694  0.3709
  795SOL     OW 3177   2.355   1.039   2.611  0.1796 -0.5228  0.0255
  795SOL    HW1 3178   2.302   1.121   2.646 -2.1548  1.7663  1.2088
  795SOL    HW2 3179   2.365   1.075   2.519 -0.5350  2.4834 -1.3047
  795SOL     MW 3180   2.350   1.055   2.603 -0.2227  0.1759  0.0061
  796SOL     OW 3181   0.290   0.569   2.783  0.7594 -0.0347  0.3412
  796SOL    HW1 3182   0.217   0.617   2.822 -1.9459  0.5098 -1.2200
  796SOL    HW2 3183   0.247   0.563   2.693  1.8341  2.0173  0.4233
  796SOL     MW 3184   0.275   0.575   2.776  0.5443  0.3078  0.1460
  797SOL     OW 3185   2.651   0.111   2.597 -0.4242  0.6111  0.2324
  797SOL    HW1 3186   2.641   0.201   2.611 -0.1958  2.3828  0.5666
  797SOL    HW2 3187   2.665   0.122   2.507 -0.7784 -2.6861  2.8622
  797SOL     MW 3188   2.652   0.124   2.587 -0.4408  0.4098  0.6235
  798SOL     OW 3189   2.284   0.125   2.225  0.2017  0.1858 -0.2399
  798SOL    HW1 3190   2.300   0.194   2.291 -0.1704  0.8876  1.6570
  798SOL    HW2 3191   2.370   0.116   2.177  2.9295  2.4457  0.6847
  798SOL     MW 3192   2.297   0.133   2.227  0.5125  0.5766  0.1324
  799SOL     OW 3193   2.557   2.932   0.028 -0.5319 -0.1190 -0.8621
  799SOL    HW1 3194   2.477   2.891  -0.002  0.4663 -0.5347 -0.7132
  799SOL    HW2 3195   2.546   3.024   0.057  2.8376  2.4855 -2.3483
  799SOL     MW 3196   2.545   2.938   0.028  0.0444  0.1698 -1.0386
  800SOL     OW 3197   1.969   3.101   1.677  0.2459 -0.1877  0.1757
  800SOL    HW1 3198   1.896   3.042   1.682  0.6020  0.5978 -2.2154
  800SOL    HW2 3199   2.009   3.097   1.760  0.6903  0.2817 -2.3506
  800SOL     MW 3200   1.965   3.092   1.689  0.3515 -0.0221 -0.4731
  801SOL     OW 3201   2.805   1.286   2.646 -0.1177 -0.0641  0.0645
  801SOL    HW1 3202   2.769   1.195   2.638  0.1506 -0.5770  1.2996
  801SOL    HW2 3203   2.887   1.303   2.602  0.3848  2.1360  2.5918
  801SOL     MW 3204   2.811   1.276   2.639 -0.0160  0.1585  0.5609
  802SOL     OW 3205   2.609   1.512   2.772 -0.1488  0.7217 -0.1803
  802SOL    HW1 3206   2.619   1.412   2.758 -1.5314 -0.7646  0.8586
  802SOL    HW2 3207   2.704   1.538   2.794 -0.0405  1.9738  3.7162
  802SOL     MW 3208   2.623   1.502   2.773 -0.3169  0.6908  0.4709
  803SOL     OW 3209   2.290   1.364   1.974  0.4261 -0.6793 -0.4793
  803SOL    HW1 3210   2.264   1.329   2.061 -1.2090 -3.8038 -0.2653
  803SOL    HW2 3211   2.262   1.289   1.920 -2.2471 -0.6963 -0.2665
  803SOL     MW 3212   2.283   1.350   1.979 -0.1423 -1.0938 -0.4230
  804SOL     OW 3213   2.304   0.065   0.033 -0.3219 -0.3646 -0.0722
  804SOL    HW1 3214   2.237   0.133   0.045  2.9411 -2.8777  0.1763
  804SOL    HW2 3215   2.350   0.078  -0.051  0.4620 -0.7302 -0.1096
  804SOL     MW 3216   2.301   0.075   0.023  0.2121 -0.7444 -0.0443
  805SOL     OW 3217   2.699   1.038   2.560 -0.2121  0.1668  0.1525
  805SOL    HW1 3218   2.621   0.988   2.542 -0.8834 -0.2022  2.6458
  805SOL    HW2 3219   2.779   0.982   2.548 -0.3357  3.0558 -0.8567
  805SOL     MW 3220   2.699   1.024   2.556 -0.3170  0.4993  0.3483
  806SOL     OW 3221   2.547   0.550   2.196 -0.2642 -0.8913 -0.0416
  806SOL    HW1 3222   2.500   0.464   2.189 -0.7123 -2.0875  0.7214
  806SOL    HW2 3223   2.502   0.591   2.120 -2.8925 -0.9407 -0.0674
  806SOL     MW 3224   2.535   0.544   2.185 -0.6701 -1.0556  0.0557
  807SOL     OW 3225   0.016   1.185   1.991 -0.1521 -0.0263 -0.4326
  807SOL    HW1 3226   0.056   1.099   1.989  0.4447 -1.4598  0.0641
  807SOL    HW2 3227  -0.055   1.167   2.051 -1.3925 -3.0197  2.3741
  807SOL     MW 3228   0.012   1.171   1.999 -0.2370 -0.6103  0.0033
  808SOL     OW 3229   2.608   3.082   2.822 -0.7116  0.2612 -0.0073
  808SOL    HW1 3230   2.551   2.999   2.812  1.6620  1.3159 -2.1534
  808SOL    HW2 3231   2.613   3.116   2.729  0.0988 -0.2412  1.5610
  808SOL     MW 3232   2.601   3.075   2.808 -0.2915  0.3341 -0.0835
  809SOL     OW 3233   2.613   1.332   2.431  0.0348 -0.0296 -0.0821
  809SOL    HW1 3234   2.661   1.266   2.484  1.2697 -1.0516  1.0631
  809SOL    HW2 3235   2.672   1.336   2.358 -2.1550 -1.1357  1.1585
  809SOL     MW 3236   2.627   1.324   2.429 -0.0912 -0.3104  0.2327
  810SOL     OW 3237   2.200   1.291   2.220  0.0183 -0.1727  0.1151
  810SOL    HW1 3238   2.245   1.253   2.295 -1.5276 -0.9279  2.6292
  810SOL    HW2 3239   2.107   1.267   2.239 -2.2475 -1.7154 -0.4216
  810SOL     MW 3240   2.194   1.283   2.232 -0.4847 -0.4758  0.3760
  811SOL     OW 3241   1.567   0.130   2.316  0.1096  0.0379  0.6393
  811SOL    HW1 3242   1.636   0.067   2.347 -0.9909  1.1013 -0.3234
  811SOL    HW2 3243   1.564   0.122   2.219 -2.2368  3.7747 -0.0975
  811SOL     MW 3244   1.576   0.120   2.307 -0.3452  0.6713  0.4150
  812SOL     OW 3245   1.461   2.837   2.020  0.2893  0.5145  1.0547
  812SOL    HW1 3246   1.544   2.850   1.978  0.6150 -0.5474  2.2579
  812SOL    HW2 3247   1.482   2.800   2.107  1.1415  2.1928  0.1892
  812SOL     MW 3248   1.474   2.834   2.026  0.4447  0.5959  1.0992
  813SOL     OW 3249   1.870   0.719   2.228  0.0195  0.8302 -0.4274
  813SOL    HW1 3250   1.839   0.627   2.257  2.2425 -2.0763 -0.1971
  813SOL    HW2 3251   1.865   0.775   2.306  0.0770  2.0353 -0.1740
  813SOL     MW 3252   1.865   0.714   2.242  0.3204  0.6057 -0.3636
  814SOL     OW 3253   2.713   1.252   1.625  0.4459 -0.1167 -0.4574
  814SOL    HW1 3254   2.650   1.194   1.662 -2.1204 -0.2651 -1.8149
  814SOL    HW2 3255   2.752   1.206   1.549 -0.2243  4.1073  1.8826
  814SOL     MW 3256   2.710   1.238   1.620  0.0189  0.4210 -0.3278
  815SOL     OW 3257   2.550   1.732   2.387 -0.7633 -0.0498 -0.5928
  815SOL    HW1 3258   2.481   1.673   2.357 -0.0924  4.3249  2.4354
  815SOL    HW2 3259   2.633   1.676   2.405  1.9597 -0.4940  1.0868
  815SOL     MW 3260   2.552   1.717   2.385 -0.3155  0.4688  0.0284
  816SOL     OW 3261   0.763   0.666   2.760  0.1507  0.4647  0.2805
  816SOL    HW1 3262   0.776   0.582   2.800  0.1791  0.9409 -3.3879
  816SOL    HW2 3263   0.672   0.675   2.714  0.6067  1.1727  1.6573
  816SOL     MW 3264   0.753   0.656   2.759  0.2146  0.6209 -0.0219
  817SOL     OW 3265   3.035   1.238   1.483 -0.2072  0.2100  0.0036
  817SOL    HW1 3266   3.131   1.247   1.495  0.8136 -1.0037  1.9448
  817SOL    HW2 3267   3.004   1.320   1.450  0.9497 -1.2441 -0.0124
  817SOL     MW 3268   3.044   1.250   1.480  0.0802 -0.1420  0.2576
  818SOL     OW 3269   1.889   1.002   2.674  0.3320 -0.2386 -0.5979
  818SOL    HW1 3270   1.863   0.960   2.592 -2.4239 -1.6926  2.7254
  818SOL    HW2 3271   1.966   0.951   2.703  1.7790  1.2913 -2.5151
  818SOL     MW 3272   1.896   0.990   2.667  0.1593 -0.2286 -0.4124
  819SOL     OW 3273   1.931   0.193   2.450 -0.4894 -0.2846  0.3847
  819SOL    HW1 3274   1.871   0.261   2.445  2.0007 -1.7788  0.4400
  819SOL    HW2 3275   1.969   0.194   2.539  1.3323 -1.3775  1.3436
  819SOL     MW 3276   1.928   0.202   2.461  0.0795 -0.6260  0.5185
  820SOL     OW 3277   2.510   1.730   2.648 -0.4425 -0.5574 -0.8501
  820SOL    HW1 3278   2.542   1.647   2.695  0.9755  0.3988 -0.3778
  820SOL    HW2 3279   2.526   1.718   2.554  0.1010  1.7331 -0.6870
  820SOL     MW 3280   2.517   1.717   2.642 -0.1837 -0.1291 -0.7663
  821SOL     OW 3281   2.578   1.439   2.034  0.0471  0.3195 -0.7614
  821SOL    HW1 3282   2.620   1.484   1.956  1.7126  1.2403 -2.1812
  821SOL    HW2 3283   2.483   1.408   2.022  0.8842 -1.2578 -0.0697
  821SOL     MW 3284   2.571   1.441   2.022  0.3773  0.2329 -0.8574
  822SOL     OW 3285   2.716   2.644   1.379  0.2683 -0.4775  0.2743
  822SOL    HW1 3286   2.710   2.618   1.469 -0.8380 -1.3812  1.7281
  822SOL    HW2 3287   2.663   2.719   1.370  1.5642  0.6854  1.8306
  822SOL     MW 3288   2.708   2.651   1.390  0.2933 -0.4433  0.6715
  823SOL     OW 3289   2.287   0.497   1.745 -0.2773  0.2963 -0.9038
  823SOL    HW1 3290   2.374   0.469   1.715 -0.1758 -1.4930  0.4499
  823SOL    HW2 3291   2.224   0.432   1.713 -1.4034  1.5227  1.8027
  823SOL     MW 3292   2.290   0.485   1.737 -0.4125  0.2220 -0.3681
  824SOL     OW 3293   2.094   1.428   2.516 -0.7026 -0.6069  0.1516
  824SOL    HW1 3294   2.149   1.475   2.454  1.1894 -0.1891  2.8824
  824SOL    HW2 3295   2.045   1.494   2.565  0.2354 -0.4971  0.6518
  824SOL     MW 3296   2.095   1.443   2.515 -0.3292 -0.5373  0.5779
  825SOL     OW 3297   1.908   2.553   0.311  0.7546  0.1876  0.3391
  825SOL    HW1 3298   1.893   2.473   0.357 -1.4142  0.1880 -2.6436
  825SOL    HW2 3299   1.962   2.533   0.235  1.3712 -0.5905  1.1917
  825SOL     MW 3300   1.913   2.540   0.307  0.5498  0.0850  0.0580
  826SOL     OW 3301   1.892   2.371   0.525 -0.0446 -0.4346 -0.1991
  826SOL    HW1 3302   1.854   2.314   0.599  1.2855  0.6198  1.9601
  826SOL    HW2 3303   1.871   2.459   0.559  0.9797  0.0728 -2.2858
  826SOL     MW 3304   1.884   2.375   0.539  0.2660 -0.2285 -0.1895
  827SOL     OW 3305   1.925   2.191   0.958  0.4228  0.8005  0.1714
  827SOL    HW1 3306   1.876   2.258   0.923  1.3503 -2.8773 -0.5317
  827SOL    HW2 3307   1.851   2.129   0.978  0.6396  0.6398  0.3775
  827SOL     MW 3308   1.909   2.192   0.956  0.5738  0.2940  0.1058
  828SOL     OW 3309   0.086   2.610   0.607 -0.2374 -0.2428 -0.0918
  828SOL    HW1 3310   0.181   2.617   0.615 -0.0449 -0.4581  2.0940
  828SOL    HW2 3311   0.058   2.611   0.511  1.1073  2.0024  0.5662
  828SOL     MW 3312   0.095   2.611   0.595 -0.0346  0.0250  0.2834
  829SOL     OW 3313   2.940   2.949   1.152 -0.2248 -0.4549  0.5583
  829SOL    HW1 3314   2.861   2.917   1.110  0.4039  0.8806  0.3686
  829SOL    HW2 3315   3.002   2.872   1.151  0.5752  0.0064 -1.0807
  829SOL     MW 3316   2.938   2.935   1.146 -0.0363 -0.2178  0.3170
  830SOL     OW 3317   2.514   2.872   2.036 -0.1740 -0.5842  0.3378
  830SOL    HW1 3318   2.427   2.901   2.008  0.3143 -0.2217 -0.1802
  830SOL    HW2 3319   2.540   2.825   1.959  0.9155 -3.1433  1.0782
  830SOL     MW 3320   2.506   2.870   2.022  0.0342 -0.8741  0.3672
  831SOL     OW 3321   2.398   2.464   1.295  0.2918 -0.4381 -0.1421
  831SOL    HW1 3322   2.388   2.421   1.386  0.7166 -0.3382  1.9250
  831SOL    HW2 3323   2.482   2.431   1.267 -2.1266  0.5797 -1.6075
  831SOL     MW 3324   2.408   2.454   1.304  0.0288 -0.2906 -0.0627
  832SOL     OW 3325   2.387   2.187   1.913 -0.2724 -0.0918 -0.5496
  832SOL    HW1 3326   2.408   2.264   1.970 -0.6517  0.8430 -1.6381
  832SOL    HW2 3327   2.475   2.168   1.878  1.4250 -1.0083  1.9263
  832SOL     MW 3328   2.402   2.194   1.916 -0.0985 -0.0893 -0.3665
  833SOL     OW 3329   1.769   2.439   0.872 -0.2489  0.5037  0.3789
  833SOL    HW1 3330   1.678   2.422   0.878  4.0460  2.2890  2.1002
  833SOL    HW2 3331   1.800   2.488   0.957  1.7118  2.3923  1.2102
  833SOL     MW 3332   1.761   2.444   0.884  0.5764  0.9884  0.7157
  834SOL     OW 3333   2.152   2.469   0.569  0.6328  0.2156  0.0118
  834SOL    HW1 3334   2.096   2.395   0.563  2.8182 -1.4956 -1.2349
  834SOL    HW2 3335   2.207   2.453   0.503 -0.4373 -0.1982  2.1783
  834SOL     MW 3336   2.152   2.457   0.560  0.7800 -0.0648  0.1331
  835SOL     OW 3337   1.776   2.585   0.636 -0.2831  0.1250 -0.3846
  835SOL    HW1 3338   1.763   2.543   0.728  0.2900  0.4658 -0.9419
  835SOL    HW2 3339   1.841   2.656   0.655 -0.0669  2.7754  1.5060
  835SOL     MW 3340   1.783   2.589   0.651 -0.1790  0.5197 -0.2086
  836SOL     OW 3341   1.920   2.191   1.600  0.3973 -0.2786 -0.5183
  836SOL    HW1 3342   2.005   2.228   1.620  1.7854 -3.2297  0.7488
  836SOL    HW2 3343   1.859   2.250   1.645 -0.6304 -0.6537  0.9710
  836SOL     MW 3344   1.923   2.203   1.609  0.4449 -0.7175 -0.1546
  837SOL     OW 3345   2.123   0.192   0.714 -0.3114  0.0698 -0.1391
  837SOL    HW1 3346   2.040   0.237   0.691 -1.9726  1.6288  0.1763
  837SOL    HW2 3347   2.156   0.164   0.629 -0.2556 -0.9408  1.8606
  837SOL     MW 3348   2.117   0.194   0.700 -0.5232  0.1422  0.1663
  838SOL     OW 3349   2.950   2.151   0.921 -0.1507  0.1390 -0.1299
  838SOL    HW1 3350   2.883   2.107   0.979 -1.2650  1.0973  0.1272
  838SOL    HW2 3351   3.018   2.082   0.900  0.1200 -2.4508 -0.7669
  838SOL     MW 3352   2.950   2.136   0.926 -0.2620 -0.0763 -0.1800
  839SOL     OW 3353   1.525   2.343   0.949  0.2283 -0.0804 -0.3107
  839SOL    HW1 3354   1.515   2.422   1.001 -0.7979 -1.5119 -0.6983
  839SOL    HW2 3355   1.532   2.271   1.014 -0.5201 -1.1210  0.6448
  839SOL     MW 3356   1.524   2.344   0.964 -0.0059 -0.4066 -0.2358
  840SOL     OW 3357   2.330   2.075   2.413 -0.6772 -0.6651  0.0050
  840SOL    HW1 3358   2.286   2.129   2.351 -0.1345  3.4965  2.6061
  840SOL    HW2 3359   2.353   2.141   2.482 -2.5936  0.4643  0.8610
  840SOL     MW 3360   2.327   2.091   2.414 -0.8584  0.0330  0.4611
  841SOL     OW 3361   2.105   2.470   0.115  0.7951 -0.0869 -0.4221
  841SOL    HW1 3362   2.172   2.488   0.051  1.0929 -1.4340  0.7108
  841SOL    HW2 3363   2.090   2.374   0.121  0.3724 -1.6510  0.2937
  841SOL     MW 3364   2.112   2.460   0.108  0.7787 -0.4710 -0.1782
  842SOL     OW 3365   2.619   1.936   1.593  0.5768 -0.6144  0.6734
  842SOL    HW1 3366   2.542   1.877   1.603 -2.3233 -1.3842 -1.2927
  842SOL    HW2 3367   2.594   2.000   1.532  2.9488 -0.9898  0.9981
  842SOL     MW 3368   2.605   1.937   1.586  0.5071 -0.7655  0.4568
  843SOL     OW 3369   2.597   2.746   1.796 -0.1873 -0.0379 -0.2460
  843SOL    HW1 3370   2.679   2.710   1.754  0.3005 -2.7751 -1.0630
  843SOL    HW2 3371   2.542   2.678   1.769 -0.5767 -1.7245 -0.0954
  843SOL     MW 3372   2.600   2.732   1.787 -0.1743 -0.6216 -0.3339
  844SOL     OW 3373   2.604   2.296   1.209 -0.1479 -0.1259  0.2684
  844SOL    HW1 3374   2.610   2.318   1.120 -0.4818  0.1148 -0.8367
  844SOL    HW2 3375   2.673   2.339   1.257 -0.5203  0.7349 -3.4655
  844SOL     MW 3376   2.614   2.304   1.203 -0.2411  0.0195 -0.3700
  845SOL     OW 3377   2.855   2.489   0.288 -0.0559 -0.5829  0.6314
  845SOL    HW1 3378   2.838   2.398   0.306  4.5240 -0.5196 -1.2459
  845SOL    HW2 3379   2.873   2.519   0.376  0.0433 -0.2553 -1.9975
  845SOL     MW 3380   2.855   2.481   0.302  0.5615 -0.5313  0.0368
  846SOL     OW 3381   1.529   2.868   0.783 -0.4977 -0.3159  0.1582
  846SOL    HW1 3382   1.625   2.880   0.807  1.8431  1.9904 -1.6037
  846SOL    HW2 3383   1.489   2.922   0.851  2.0277 -1.6712 -0.3361
  846SOL     MW 3384   1.536   2.876   0.795  0.1444 -0.1904 -0.1395
  847SOL     OW 3385   2.566   1.927   0.177 -0.8362  0.1627 -0.2345
  847SOL    HW1 3386   2.651   1.883   0.185  1.2383 -1.3067 -0.9116
  847SOL    HW2 3387   2.515   1.878   0.109  0.9996  2.3542 -2.3164
  847SOL     MW 3388   2.571   1.915   0.169 -0.3203  0.2580 -0.5985
  848SOL     OW 3389   2.523   2.109   1.400  0.3143 -0.2811  0.2748
  848SOL    HW1 3390   2.547   2.160   1.324  1.0992 -1.4933  0.6850
  848SOL    HW2 3391   2.485   2.032   1.360  1.8812 -0.3947 -0.7388
  848SOL     MW 3392   2.521   2.105   1.384  0.6246 -0.4560  0.1952
  849SOL     OW 3393   1.993   2.747   0.773 -0.8086 -0.1481  0.6100
  849SOL    HW1 3394   2.023   2.681   0.831 -1.7791 -1.2417 -2.2820
  849SOL    HW2 3395   2.077   2.788   0.735  0.1031  1.7034  0.1313
  849SOL     MW 3396   2.008   2.744   0.776 -0.8163 -0.0481  0.1653
  850SOL     OW 3397   2.221   1.940   1.639  0.1718  0.5872  0.0477
  850SOL    HW1 3398   2.129   1.947   1.618 -1.1949 -0.6220 -0.2550
  850SOL    HW2 3399   2.253   2.024   1.619 -1.9329 -0.4964 -1.7474
  850SOL     MW 3400   2.213   1.952   1.634 -0.2862  0.2847 -0.2291
  851SOL     OW 3401   2.276   2.415   0.329 -0.0919 -0.1786 -0.5509
  851SOL    HW1 3402   2.213   2.426   0.260  0.7526 -1.1633  1.1239
  851SOL    HW2 3403   2.317   2.502   0.328  1.5606 -2.7335  0.0552
  851SOL     MW 3404   2.273   2.428   0.320  0.2375 -0.6456 -0.2500
  852SOL     OW 3405   2.367   2.153   0.263  0.2595 -0.0770  0.1499
  852SOL    HW1 3406   2.351   2.242   0.303  1.1375 -2.1087  2.7559
  852SOL    HW2 3407   2.440   2.158   0.211 -0.3603  2.1517  3.2534
  852SOL     MW 3408   2.375   2.166   0.262  0.2936 -0.0510  0.9032
  853SOL     OW 3409   2.488   2.425   1.984  0.5569  0.5129 -0.7565
  853SOL    HW1 3410   2.499   2.450   1.890  1.4026 -1.1551 -2.6940
  853SOL    HW2 3411   2.576   2.415   2.008 -1.9382 -0.0249 -0.7119
  853SOL     MW 3412   2.501   2.427   1.975  0.3393  0.2218 -1.0062
  854SOL     OW 3413   2.797   2.290   0.738  0.2150  1.0188 -0.5822
  854SOL    HW1 3414   2.717   2.248   0.711  1.0982 -0.5562  2.0453
  854SOL    HW2 3415   2.836   2.235   0.807 -0.5926  1.1600  0.4390
  854SOL     MW 3416   2.792   2.277   0.743  0.2250  0.8296 -0.1008
  855SOL     OW 3417   2.717   2.249   0.361  0.1642  0.1330  0.0471
  855SOL    HW1 3418   2.677   2.298   0.433  0.4567  1.8957  2.6964
  855SOL    HW2 3419   2.778   2.190   0.403  0.8743 -1.3792  0.8355
  855SOL     MW 3420   2.720   2.247   0.376  0.2965  0.1661  0.5006
  856SOL     OW 3421   2.196   1.955   0.192 -0.5287  0.2568 -0.1608
  856SOL    HW1 3422   2.112   1.971   0.231  0.6994  0.8608 -1.5973
  856SOL    HW2 3423   2.245   2.034   0.220  0.4080  1.1273  0.6153
  856SOL     MW 3424   2.192   1.968   0.201 -0.2431  0.4513 -0.2480
  857SOL     OW 3425   2.587   1.967   0.459  0.3668 -0.0349  0.8314
  857SOL    HW1 3426   2.585   2.063   0.428  0.8420  1.5083 -1.7924
  857SOL    HW2 3427   2.531   1.925   0.385 -3.5178 -0.8375 -2.2443
  857SOL     MW 3428   2.580   1.974   0.445 -0.0831  0.0628  0.0794
  858SOL     OW 3429   2.836   2.661   1.681  0.3629 -0.1824  0.4898
  858SOL    HW1 3430   2.929   2.676   1.693  1.8165 -0.6245  0.0439
  858SOL    HW2 3431   2.815   2.582   1.726 -1.7765 -3.0175  0.9278
  858SOL     MW 3432   2.846   2.653   1.689  0.2724 -0.6148  0.4888
  859SOL     OW 3433   2.134   2.546   0.904  0.3096  0.5285 -0.0321
  859SOL    HW1 3434   2.096   2.488   0.841  0.8726  2.7151  1.5947
  859SOL    HW2 3435   2.225   2.552   0.880 -1.5833  0.0064  0.6700
  859SOL     MW 3436   2.141   2.539   0.892  0.1341  0.7481  0.2752
  860SOL     OW 3437   2.624   2.592   0.189  0.3650  0.1452  0.4694
  860SOL    HW1 3438   2.689   2.550   0.240 -0.9789  2.4919 -0.1315
  860SOL    HW2 3439   2.670   2.672   0.159  1.2870 -1.8857 -1.6322
  860SOL     MW 3440   2.639   2.597   0.191  0.3093  0.1868  0.1128
  861SOL     OW 3441   1.548   2.134   1.132 -0.2162 -0.0338  0.6509
  861SOL    HW1 3442   1.551   2.193   1.209  1.0099  1.0226  1.7136
  861SOL    HW2 3443   1.494   2.064   1.179 -1.2824 -2.6717  1.5677
  861SOL     MW 3444   1.541   2.132   1.149 -0.1951 -0.2424  0.9121
  862SOL     OW 3445   2.406   1.776   1.544  0.2859 -0.2628 -0.1010
  862SOL    HW1 3446   2.337   1.840   1.560  2.8720  2.4419 -3.4351
  862SOL    HW2 3447   2.432   1.791   1.453  0.5688  1.4518  2.2267
  862SOL     MW 3448   2.400   1.787   1.534  0.6644  0.3203 -0.2338
  863SOL     OW 3449   3.072   1.891   1.088 -0.9939 -0.5631 -0.7246
  863SOL    HW1 3450   3.164   1.866   1.107  1.3427 -1.9880 -0.8637
  863SOL    HW2 3451   3.065   1.966   1.148 -0.8599 -2.1150  0.4254
  863SOL     MW 3452   3.083   1.897   1.099 -0.6679 -0.9559 -0.5913
  864SOL     OW 3453   0.014   1.927   0.812 -0.1845  0.0264 -0.4956
  864SOL    HW1 3454  -0.011   1.892   0.898 -2.7566  1.2774 -1.5554
  864SOL    HW2 3455  -0.044   1.887   0.741 -0.7910  1.1817  0.6177
  864SOL     MW 3456   0.003   1.917   0.814 -0.6039  0.3439 -0.4885
  865SOL     OW 3457   2.626   2.136   0.004  0.0872 -0.0747  0.3062
  865SOL    HW1 3458   2.632   2.062   0.067  1.0332  1.0582  1.4309
  865SOL    HW2 3459   2.573   2.111  -0.074 -0.7665 -1.0975  1.0777
  865SOL     MW 3460   2.620   2.123   0.002  0.0994 -0.0602  0.5564
  866SOL     OW 3461   2.677   2.303   1.623 -0.3331  0.0015  0.8297
  866SOL    HW1 3462   2.687   2.223   1.680  1.3509  0.6232  0.7825
  866SOL    HW2 3463   2.726   2.289   1.545  3.2459  0.0139  2.9598
  866SOL     MW 3464   2.685   2.290   1.621  0.3613  0.0851  1.1046
  867SOL     OW 3465   0.012   2.658   1.778  0.1826 -0.0466  0.0761
  867SOL    HW1 3466   0.049   2.660   1.863  0.3807  1.2859  1.3584
  867SOL    HW2 3467  -0.004   2.753   1.759 -1.0766  0.9515  0.4457
  867SOL     MW 3468   0.014   2.671   1.787  0.0426  0.2609  0.2941
  868SOL     OW 3469   2.813   2.591   0.539  0.1956  0.3586  0.4121
  868SOL    HW1 3470   2.730   2.551   0.564  0.3584  0.4535  0.6821
  868SOL    HW2 3471   2.785   2.667   0.483 -0.0642  1.2766  1.0837
  868SOL     MW 3472   2.799   2.595   0.535  0.1828  0.4923  0.5364
  869SOL     OW 3473   2.002   2.373   1.145  0.5515 -0.3178 -0.5826
  869SOL    HW1 3474   2.087   2.402   1.111  0.7853  0.9790 -1.1008
  869SOL    HW2 3475   1.984   2.286   1.099  1.0233 -0.9718 -0.9360
  869SOL     MW 3476   2.011   2.365   1.135  0.6446 -0.2330 -0.6976
  870SOL     OW 3477   2.162   0.011   0.483 -0.1736 -0.9275  0.0320
  870SOL    HW1 3478   2.225   0.058   0.427  2.1938  0.1021 -2.1113
  870SOL    HW2 3479   2.177  -0.073   0.448 -1.1324 -2.1418  0.7480
  870SOL     MW 3480   2.172   0.006   0.471  0.0123 -0.9519 -0.1563
  871SOL     OW 3481   2.493   2.114   0.954  0.0156 -0.4670 -0.3117
  871SOL    HW1 3482   2.430   2.053   0.915  0.4217  1.6988  1.4352
  871SOL    HW2 3483   2.441   2.191   0.974  1.9248  0.9402  0.5561
  871SOL     MW 3484   2.477   2.116   0.952  0.3211  0.0045  0.0333
  872SOL     OW 3485   2.053   2.572   1.483  0.4209 -0.0642  0.2221
  872SOL    HW1 3486   2.010   2.591   1.569 -1.5673 -0.0821 -0.0636
  872SOL    HW2 3487   1.986   2.517   1.440 -0.5954  1.4959 -0.1206
  872SOL     MW 3488   2.039   2.567   1.489  0.0245  0.1393  0.1392
  873SOL     OW 3489   2.911   2.042   1.896  0.3234 -0.8171 -0.0922
  873SOL    HW1 3490   2.961   2.105   1.947  0.3870  0.9111 -1.0347
  873SOL    HW2 3491   2.954   2.056   1.815 -0.5455 -2.2718  1.8135
  873SOL     MW 3492   2.923   2.053   1.892  0.2172 -0.7810  0.0349
  874SOL     OW 3493   2.348   1.522   2.380 -0.7643 -0.2248 -0.0459
  874SOL    HW1 3494   2.294   1.478   2.311 -1.5615 -1.0947  0.1921
  874SOL    HW2 3495   2.399   1.446   2.401 -2.4041 -0.0846 -0.2200
  874SOL     MW 3496   2.348   1.506   2.374 -1.0858 -0.3211 -0.0375
  875SOL     OW 3497   2.284   2.329   1.074  0.3409 -0.1676  0.4200
  875SOL    HW1 3498   2.322   2.379   1.005  0.1828 -0.2576  0.1302
  875SOL    HW2 3499   2.332   2.358   1.152  1.2325 -1.8711 -1.0389
  875SOL     MW 3500   2.296   2.340   1.075  0.4376 -0.4042  0.1893
  876SOL     OW 3501   3.032   2.325   1.234  0.4182  0.0802 -0.3153
  876SOL    HW1 3502   3.049   2.345   1.144 -0.5831  2.0480  1.3074
  876SOL    HW2 3503   3.103   2.378   1.281  0.3574  1.5653 -0.0537
  876SOL     MW 3504   3.044   2.335   1.229  0.2781  0.5358 -0.0667
  877SOL     OW 3505   3.040   2.707   0.343 -0.3367 -0.3904 -0.5577
  877SOL    HW1 3506   3.107   2.767   0.366 -2.7105  0.0967  1.1163
  877SOL    HW2 3507   3.050   2.694   0.248  0.8134 -0.3217 -1.8982
  877SOL     MW 3508   3.050   2.713   0.334 -0.4981 -0.3171 -0.5137
  878SOL     OW 3509   2.431   1.856   1.288 -0.0631 -0.3853 -0.2715
  878SOL    HW1 3510   2.380   1.781   1.262 -0.8754  0.3722  1.1125
  878SOL    HW2 3511   2.517   1.842   1.257  1.2241 -0.8162 -2.0804
  878SOL     MW 3512   2.435   1.844   1.281 -0.0004 -0.3422 -0.3275
  879SOL     OW 3513   2.675   2.433   0.960 -0.1234 -0.1956  0.0068
  879SOL    HW1 3514   2.729   2.500   1.004  1.4622 -0.2638  0.7114
  879SOL    HW2 3515   2.741   2.405   0.894 -1.0263 -0.3139  0.3956
  879SOL     MW 3516   2.691   2.438   0.957 -0.0333 -0.2202  0.1510
  880SOL     OW 3517   2.548   2.188   0.685  0.0254  0.5503 -0.0183
  880SOL    HW1 3518   2.542   2.161   0.780  0.9735 -1.3979  3.6387
  880SOL    HW2 3519   2.539   2.104   0.640  3.7200 -3.2660  1.3193
  880SOL     MW 3520   2.546   2.173   0.691  0.6380 -0.2102  0.6407
  881SOL     OW 3521   2.951   2.665   0.784 -0.3321  0.4557  0.1285
  881SOL    HW1 3522   2.915   2.639   0.693 -1.7321  0.1034 -1.0766
  881SOL    HW2 3523   3.047   2.670   0.778  0.5249  0.7286  1.3265
  881SOL     MW 3524   2.959   2.662   0.771 -0.4038  0.4452  0.1276
  882SOL     OW 3525   2.266   2.886   1.922  0.3024 -0.3929 -0.1879
  882SOL    HW1 3526   2.251   2.871   1.829 -0.2561  2.3671 -1.1461
  882SOL    HW2 3527   2.214   2.819   1.964  1.1624  2.1616 -0.0283
  882SOL     MW 3528   2.257   2.875   1.916  0.3421  0.3083 -0.2932
  883SOL     OW 3529   2.322   2.267   1.496 -0.4525 -0.4305  0.6819
  883SOL    HW1 3530   2.409   2.228   1.479  3.4833  3.2959 -0.2172
  883SOL    HW2 3531   2.257   2.254   1.427 -2.7978 -0.9157  0.0909
  883SOL     MW 3532   2.325   2.260   1.485 -0.2427 -0.0028  0.4853
  884SOL     OW 3533   1.957   1.846   1.154 -0.1560 -0.1524 -0.0488
  884SOL    HW1 3534   1.886   1.895   1.113  1.3402  0.5565 -1.6592
  884SOL    HW2 3535   2.031   1.906   1.137  0.1708  1.9174  0.0956
  884SOL     MW 3536   1.957   1.861   1.147  0.0845  0.2142 -0.2422
  885SOL     OW 3537   2.833   2.423   1.829  0.3252  0.2865 -0.2779
  885SOL    HW1 3538   2.923   2.388   1.816  0.4973 -1.1048 -1.2076
  885SOL    HW2 3539   2.781   2.378   1.758 -0.6944 -1.4382  0.4706
  885SOL     MW 3540   2.838   2.412   1.818  0.2134 -0.1246 -0.3018
  886SOL     OW 3541   2.805   2.382   1.356 -0.2277  0.0561  0.2486
  886SOL    HW1 3542   2.888   2.367   1.316 -0.3494  1.0534  0.3291
  886SOL    HW2 3543   2.791   2.473   1.377  0.8207 -0.9408  1.9658
  886SOL     MW 3544   2.814   2.392   1.354 -0.1054  0.0562  0.4858
  887SOL     OW 3545   2.319   2.591   1.556 -0.0981  0.2581  0.6218
  887SOL    HW1 3546   2.340   2.638   1.473  1.2118 -2.9191  0.1039
  887SOL    HW2 3547   2.220   2.580   1.543 -0.6826  0.0699  0.1699
  887SOL     MW 3548   2.309   2.596   1.543 -0.0024 -0.1859  0.4939
  888SOL     OW 3549   1.841   2.094   1.360 -0.0563 -0.6268  0.5668
  888SOL    HW1 3550   1.936   2.116   1.349  0.4870  0.4500  0.2402
  888SOL    HW2 3551   1.840   2.104   1.456  2.5597  0.2168  2.0337
  888SOL     MW 3552   1.853   2.098   1.371  0.3606 -0.3734  0.7173
  889SOL     OW 3553   2.321   2.008   2.100 -0.2708  0.0883 -0.1448
  889SOL    HW1 3554   2.398   1.997   2.157 -2.4336  0.8839  0.6747
  889SOL    HW2 3555   2.357   2.080   2.044  0.9209 -0.6551  0.7012
  889SOL     MW 3556   2.336   2.016   2.100 -0.3990  0.0952  0.0750
  890SOL     OW 3557   0.105   2.367   0.149  0.2636  0.0008 -0.6803
  890SOL    HW1 3558   0.061   2.445   0.112  1.7103 -1.4120 -0.2350
  890SOL    HW2 3559   0.056   2.340   0.230  0.6300 -1.0167 -2.1282
  890SOL     MW 3560   0.093   2.373   0.155  0.5028 -0.3199 -0.8125
  891SOL     OW 3561   3.009   2.062   1.305  0.2027  0.1733 -0.3060
  891SOL    HW1 3562   3.087   2.038   1.356 -0.9876  0.2798  0.5917
  891SOL    HW2 3563   3.007   2.155   1.284  2.1398  1.1164 -1.3178
  891SOL     MW 3564   3.019   2.071   1.309  0.3013  0.3118 -0.3210
  892SOL     OW 3565   2.445   2.360   2.842 -0.2149  0.0767 -0.1813
  892SOL    HW1 3566   2.443   2.272   2.883  0.3775  1.3614 -2.4664
  892SOL    HW2 3567   2.544   2.377   2.847 -1.4670 -2.8424 -0.7851
  892SOL     MW 3568   2.458   2.350   2.848 -0.3020 -0.1389 -0.5624
  893SOL     OW 3569   1.578   2.344   1.303 -0.0283  0.1900 -0.2392
  893SOL    HW1 3570   1.516   2.411   1.343  0.2662 -0.3533 -1.7297
  893SOL    HW2 3571   1.662   2.353   1.346 -0.4000  1.3305  0.1422
  893SOL     MW 3572   1.581   2.354   1.314 -0.0385  0.2688 -0.3855
  894SOL     OW 3573   2.824   1.786   0.488  0.3943  0.1957  0.2176
  894SOL    HW1 3574   2.727   1.814   0.474  3.0775  1.5081  1.3627
  894SOL    HW2 3575   2.845   1.788   0.397 -0.3284  2.7106 -1.5276
  894SOL     MW 3576   2.814   1.790   0.474  0.6530  0.7007  0.1384
  895SOL     OW 3577   2.109   2.183   1.323  0.3549 -0.6112  0.1630
  895SOL    HW1 3578   2.085   2.249   1.261 -1.4935 -0.6287 -2.0381
  895SOL    HW2 3579   2.150   2.108   1.273 -1.9157  1.5743 -0.5906
  895SOL     MW 3580   2.111   2.182   1.308 -0.1885 -0.3252 -0.2269
  896SOL     OW 3581   2.139   2.799   1.066  0.0951 -0.1469 -0.1925
  896SOL    HW1 3582   2.199   2.777   1.136  0.7372  0.6124  0.4380
  896SOL    HW2 3583   2.124   2.725   1.001 -0.4423 -2.0095 -2.7340
  896SOL     MW 3584   2.145   2.786   1.067  0.1089 -0.2925 -0.4447
  897SOL     OW 3585   2.996   2.920   0.114  0.0692  0.5523 -0.0606
  897SOL    HW1 3586   3.051   2.903   0.039 -1.1349  0.4420  1.9361
  897SOL    HW2 3587   2.933   2.850   0.086 -1.4096 -0.0133 -2.1824
  897SOL     MW 3588   2.995   2.908   0.101 -0.2848  0.4631 -0.0771
  898SOL     OW 3589   2.061   0.208   1.395 -0.0213 -1.4181 -0.4541
  898SOL    HW1 3590   2.001   0.136   1.388 -1.5548 -0.5414  0.8946
  898SOL    HW2 3591   2.069   0.244   1.305  0.2868 -1.4037 -2.3131
  898SOL     MW 3592   2.054   0.203   1.382 -0.1830 -1.3006 -0.5215
  899SOL     OW 3593   2.941   2.933   0.635 -0.0302  0.1651 -0.0426
  899SOL    HW1 3594   2.941   2.856   0.687 -1.4017  0.3761 -0.2210
  899SOL    HW2 3595   2.867   2.982   0.666  2.6169  1.1802  0.8811
  899SOL     MW 3596   2.931   2.929   0.646  0.1381  0.3269  0.0558
  900SOL     OW 3597   0.062   2.433   1.014 -0.2052  0.2216  0.7482
  900SOL    HW1 3598   0.074   2.518   0.972  0.2647  0.3207  0.8640
  900SOL    HW2 3599   0.071   2.368   0.939  0.8170  0.1018 -1.5916
  900SOL     MW 3600   0.065   2.436   0.999 -0.0084  0.2189  0.4547
  901SOL     OW 3601   1.775   2.857   1.689 -0.8125  0.5915  0.0454
  901SOL    HW1 3602   1.827   2.780   1.700 -1.6991 -0.5369 -0.9255
  901SOL    HW2 3603   1.740   2.848   1.601  0.5110  0.2183 -0.7019
  901SOL     MW 3604   1.777   2.845   1.679 -0.7549  0.3934 -0.1813
  902SOL     OW 3605   2.663   2.117   1.824 -0.2215  0.0674 -0.7506
  902SOL    HW1 3606   2.618   2.031   1.818  1.2838 -3.5020 -0.7349
  902SOL    HW2 3607   2.744   2.098   1.868 -0.3616 -1.3792  0.7618
  902SOL     MW 3608   2.668   2.103   1.829 -0.0413 -0.5944 -0.5490
  903SOL     OW 3609   1.612   2.781   0.521  0.1600 -0.4333 -0.2563
  903SOL    HW1 3610   1.655   2.699   0.548  2.2517  0.0840  0.0771
  903SOL    HW2 3611   1.558   2.814   0.598 -0.4448  1.3051  1.6620
  903SOL     MW 3612   1.611   2.775   0.535  0.3561 -0.1357  0.0408
  904SOL     OW 3613   2.501   2.490   1.727 -0.2649 -0.0233  0.1759
  904SOL    HW1 3614   2.431   2.511   1.668 -0.2471 -1.6094  0.9995
  904SOL    HW2 3615   2.539   2.415   1.686 -1.1061 -0.9724  1.5234
  904SOL     MW 3616   2.497   2.483   1.714 -0.3735 -0.3578  0.4624
  905SOL     OW 3617   2.325   2.566   2.161  0.2978  0.4931 -0.0492
  905SOL    HW1 3618   2.380   2.529   2.091  2.2813 -0.4972 -0.5772
  905SOL    HW2 3619   2.286   2.481   2.198 -2.3877 -2.0836  2.2900
  905SOL     MW 3620   2.327   2.550   2.157  0.2052  0.0224  0.1898
  906SOL     OW 3621   2.428   2.564   0.914 -0.0633  0.5399 -0.1804
  906SOL    HW1 3622   2.525   2.565   0.920 -0.3525  1.8007 -0.5205
  906SOL    HW2 3623   2.414   2.660   0.924  1.1361 -1.4730 -2.3486
  906SOL     MW 3624   2.439   2.577   0.916  0.0568  0.4407 -0.5113
  907SOL     OW 3625   2.562   2.873   1.338 -0.5753  0.3925  0.2313
  907SOL    HW1 3626   2.615   2.936   1.385 -0.5820  1.9819 -2.0160
  907SOL    HW2 3627   2.595   2.879   1.247 -1.8335  0.5612 -2.4113
  907SOL     MW 3628   2.573   2.882   1.332 -0.7422  0.6245 -0.4138
  908SOL     OW 3629   2.756   2.363   0.010 -0.2204 -0.1457 -0.0792
  908SOL    HW1 3630   2.709   2.282   0.008  2.2724 -0.7429 -0.9402
  908SOL    HW2 3631   2.732   2.412   0.085 -2.4242 -1.6934  0.7400
  908SOL     MW 3632   2.747   2.359   0.020 -0.1823 -0.4287 -0.0847
  909SOL     OW 3633   1.662   0.179   1.161  0.6215  0.0539 -0.3775
  909SOL    HW1 3634   1.640   0.231   1.079 -0.9256  0.4242  0.1947
  909SOL    HW2 3635   1.666   0.235   1.232  1.5720 -0.3013 -1.2960
  909SOL     MW 3636   1.659   0.193   1.160  0.5428  0.0559 -0.4232
  910SOL     OW 3637   2.270   1.792   0.413 -0.6937 -0.6344 -0.2871
  910SOL    HW1 3638   2.209   1.719   0.417 -0.2339  0.9722 -1.7035
  910SOL    HW2 3639   2.241   1.848   0.337  0.4204  0.0497 -1.1972
  910SOL     MW 3640   2.258   1.790   0.403 -0.4860 -0.3322 -0.5940
  911SOL     OW 3641   2.200   2.220   1.734 -0.0798 -0.4985  0.3393
  911SOL    HW1 3642   2.266   2.208   1.806 -0.6686 -1.6355  0.3218
  911SOL    HW2 3643   2.250   2.252   1.656  1.6189  0.4114  0.0436
  911SOL     MW 3644   2.215   2.223   1.733  0.0667 -0.5284  0.2980
  912SOL     OW 3645   2.885   1.914   1.525  0.6058 -0.2716  0.5299
  912SOL    HW1 3646   2.902   1.969   1.444  0.5589  1.4951 -1.3953
  912SOL    HW2 3647   2.791   1.914   1.551  3.2241 -0.6289 -1.0848
  912SOL     MW 3648   2.875   1.921   1.518  0.9451 -0.0856  0.0629
  913SOL     OW 3649   2.583   3.000   0.351 -0.1241 -0.1858  0.0166
  913SOL    HW1 3650   2.656   2.939   0.344 -0.4057  0.0171 -0.6212
  913SOL    HW2 3651   2.504   2.953   0.362  0.0668 -0.6809 -2.1271
  913SOL     MW 3652   2.582   2.986   0.351 -0.1360 -0.2243 -0.3504
  914SOL     OW 3653   2.771   1.684   3.042  0.5404  0.2357  0.2076
  914SOL    HW1 3654   2.785   1.760   2.986 -0.3818  2.0307 -0.5574
  914SOL    HW2 3655   2.680   1.703   3.055 -1.8945  2.0981 -2.8197
  914SOL     MW 3656   2.761   1.697   3.036  0.0975  0.7183 -0.2927
  915SOL     OW 3657   1.762   0.243   0.228 -0.2987 -0.2184  0.2099
  915SOL    HW1 3658   1.837   0.189   0.251 -1.1791  0.0739  0.6470
  915SOL    HW2 3659   1.680   0.194   0.239  0.6443  1.3948  2.7862
  915SOL     MW 3660   1.761   0.230   0.232 -0.2904  0.0330  0.6075
  916SOL     OW 3661   1.749   2.058   1.955  0.4414  0.0058  0.0942
  916SOL    HW1 3662   1.795   2.140   1.974  0.3367  1.1488 -3.1192
  916SOL    HW2 3663   1.762   2.036   1.864  0.7616  1.8235  0.0568
  916SOL     MW 3664   1.757   2.066   1.946  0.4698  0.3965 -0.3347
  917SOL     OW 3665   2.419   2.306   2.541  0.2854 -0.3734  0.0759
  917SOL    HW1 3666   2.456   2.283   2.626  1.6094 -0.6914 -0.0319
  917SOL    HW2 3667   2.496   2.320   2.482 -1.2169 -0.6568 -0.6383
  917SOL     MW 3668   2.434   2.305   2.544  0.2619 -0.4527 -0.0325
  918SOL     OW 3669   1.986   1.642   2.712 -0.2273 -0.2578 -0.7422
  918SOL    HW1 3670   1.932   1.679   2.636  1.8637  0.9586  0.5394
  918SOL    HW2 3671   2.075   1.687   2.707 -0.4767  3.3528  1.6531
  918SOL     MW 3672   1.991   1.652   2.701  0.0157  0.3791 -0.2570
  919SOL     OW 3673   0.046   2.356   2.243  0.5830 -0.4716 -0.1226
  919SOL    HW1 3674  -0.020   2.290   2.239 -0.2450  0.5277 -0.8232
  919SOL    HW2 3675   0.112   2.336   2.177  2.1483  0.3253  0.1637
  919SOL     MW 3676   0.046   2.345   2.234  0.6802 -0.2346 -0.1772
  920SOL     OW 3677   2.777   2.775   3.103 -0.4283 -0.2104 -0.5789
  920SOL    HW1 3678   2.714   2.846   3.115 -0.6129  1.1703  1.0344
  920SOL    HW2 3679   2.753   2.735   3.020  0.5132  1.5771  0.3816
  920SOL     MW 3680   2.766   2.779   3.093 -0.3285  0.2076 -0.2393
  921SOL     OW 3681   2.382   2.634   2.637  0.1940 -0.1239 -0.4572
  921SOL    HW1 3682   2.457   2.619   2.583 -1.8901 -1.0505 -3.1866
  921SOL    HW2 3683   2.372   2.564   2.707 -1.8931 -0.3848  1.6531
  921SOL     MW 3684   2.390   2.623   2.639 -0.3564 -0.2806 -0.5389
  922SOL     OW 3685   2.017   2.820   0.318  0.3248  0.8195 -0.2524
  922SOL    HW1 3686   1.967   2.830   0.236  1.7511 -1.4493  2.4691
  922SOL    HW2 3687   2.007   2.723   0.341 -1.0472 -1.0277  0.1869
  922SOL     MW 3688   2.009   2.809   0.310  0.3320  0.2765  0.1646
  923SOL     OW 3689   2.202   2.799   1.678 -0.2672  0.0907 -0.5573
  923SOL    HW1 3690   2.253   2.721   1.646  0.7539  0.2760  0.3303
  923SOL    HW2 3691   2.167   2.840   1.601  0.1528 -1.7735  0.9629
  923SOL     MW 3692   2.204   2.794   1.664 -0.0771 -0.1308 -0.2396
  924SOL     OW 3693   1.223   2.628   2.546 -0.1135 -0.3395 -0.5673
  924SOL    HW1 3694   1.272   2.704   2.512  3.9538  0.4801 -2.6434
  924SOL    HW2 3695   1.286   2.584   2.605 -1.7532  0.7910 -1.1620
  924SOL     MW 3696   1.238   2.632   2.549  0.2068 -0.0822 -0.9197
  925SOL     OW 3697   2.934   0.251   2.586  0.2013 -0.0543  0.0990
  925SOL    HW1 3698   2.931   0.270   2.494  3.6344 -1.1236 -1.7814
  925SOL    HW2 3699   2.890   0.326   2.625  1.5127 -2.0304 -1.2226
  925SOL     MW 3700   2.928   0.264   2.579  0.8273 -0.4561 -0.3235
  926SOL     OW 3701   2.749   2.412   2.073 -0.0689 -0.2654  0.1359
  926SOL    HW1 3702   2.803   2.456   2.140 -1.7078  0.3059  0.8462
  926SOL    HW2 3703   2.781   2.426   1.980  0.0740  0.2937 -0.7807
  926SOL     MW 3704   2.761   2.420   2.070 -0.2663 -0.1162  0.1087
  927SOL     OW 3705   2.321   0.152   0.296 -0.7014  0.0097 -0.3136
  927SOL    HW1 3706   2.418   0.168   0.296  2.2394  5.2038  1.2217
  927SOL    HW2 3707   2.316   0.118   0.203  2.5649  0.3169 -0.9019
  927SOL     MW 3708   2.333   0.150   0.284  0.1176  0.7356 -0.1887
  928SOL     OW 3709   2.081   2.408   1.873 -0.1195 -0.1247  0.0890
  928SOL    HW1 3710   2.116   2.326   1.842 -0.0868 -1.5135  0.7130
  928SOL    HW2 3711   2.151   2.446   1.929 -1.8944  0.1361  1.1328
  928SOL     MW 3712   2.095   2.402   1.876 -0.3494 -0.2735  0.3090
  929SOL     OW 3713   2.669   2.362   2.422  0.1817  0.2042 -0.0195
  929SOL    HW1 3714   2.693   2.376   2.333  0.6807 -1.2873  2.1574
  929SOL    HW2 3715   2.750   2.351   2.470 -1.1854 -1.4307  4.7529
  929SOL     MW 3716   2.683   2.363   2.416  0.0672 -0.2083  0.8974
  930SOL     OW 3717   1.992   2.836   2.697 -0.0915 -0.2638  0.0803
  930SOL    HW1 3718   2.026   2.755   2.743  0.6957  2.3840 -1.5186
  930SOL    HW2 3719   2.056   2.906   2.720 -1.0019  0.8724  2.9296
  930SOL     MW 3720   2.005   2.835   2.706 -0.1078  0.2355  0.2453
  931SOL     OW 3721   3.005   2.777   2.287  0.2305 -0.0480 -0.2514
  931SOL    HW1 3722   3.030   2.788   2.380  0.5828 -0.3358  0.2897
  931SOL    HW2 3723   3.082   2.811   2.236 -2.7130  1.4838  1.1628
  931SOL     MW 3724   3.019   2.783   2.293 -0.1114  0.1161  0.0066
  932SOL     OW 3725   2.863   1.986   2.511 -0.6848 -0.0246  0.0370
  932SOL    HW1 3726   2.955   2.003   2.533  0.2552 -0.4138 -2.6682
  932SOL    HW2 3727   2.854   2.009   2.420 -0.0062  0.8709  0.9068
  932SOL     MW 3728   2.874   1.991   2.502 -0.4713  0.0422 -0.2052
  933SOL     OW 3729   2.063   2.870   2.257 -0.2593 -0.0137  0.4331
  933SOL    HW1 3730   2.139   2.924   2.279 -0.4555 -1.1870 -0.2635
  933SOL    HW2 3731   1.988   2.927   2.276 -0.3523  0.2862 -1.3051
  933SOL     MW 3732   2.063   2.884   2.263 -0.2974 -0.1290  0.1118
  934SOL     OW 3733   2.014   2.700   2.457 -0.1766  0.1966  0.4825
  934SOL    HW1 3734   2.017   2.760   2.534 -0.2870 -0.3269 -1.4053
  934SOL    HW2 3735   2.054   2.749   2.385  0.4281 -1.4627 -1.4705
  934SOL     MW 3736   2.020   2.714   2.458 -0.1114 -0.0914 -0.0242
  935SOL     OW 3737   2.664   1.602   1.836 -0.2863  0.3181  0.1631
  935SOL    HW1 3738   2.736   1.554   1.799 -2.4001 -1.6825  3.2327
  935SOL    HW2 3739   2.605   1.561   1.770 -0.8543 -0.8889 -1.9338
  935SOL     MW 3740   2.666   1.591   1.822 -0.6402 -0.1051  0.2914
  936SOL     OW 3741   3.021   2.271   3.071 -0.5168  0.1180  0.1010
  936SOL    HW1 3742   3.087   2.313   3.128  1.4594 -1.5815 -2.7194
  936SOL    HW2 3743   2.945   2.324   3.076 -0.1007 -0.7879 -0.2190
  936SOL     MW 3744   3.020   2.283   3.079 -0.2011 -0.2258 -0.3134
  937SOL     OW 3745   1.991   2.102   2.704 -0.3990 -0.6011 -0.0814
  937SOL    HW1 3746   2.078   2.073   2.752  1.2821 -0.0024  0.8602
  937SOL    HW2 3747   1.981   2.104   2.610 -3.1982 -0.6788  0.1849
  937SOL     MW 3748   2.001   2.099   2.698 -0.5465 -0.5323  0.0780
  938SOL     OW 3749   2.276   1.825   1.875 -0.4999  0.4192 -0.0658
  938SOL    HW1 3750   2.267   1.857   1.782  2.0398 -1.5304  0.8805
  938SOL    HW2 3751   2.281   1.898   1.936 -2.8167 -0.6629  3.1305
  938SOL     MW 3752   2.276   1.839   1.871 -0.4705  0.0192  0.4808
  939SOL     OW 3753   2.807   1.993   2.222 -0.0774 -0.3491  0.5537
  939SOL    HW1 3754   2.828   1.909   2.171  1.2881 -1.8133 -1.5204
  939SOL    HW2 3755   2.713   1.994   2.239  1.2835  0.3466  1.6088
  939SOL     MW 3756   2.798   1.982   2.217  0.2823 -0.4505  0.4192
  940SOL     OW 3757   2.315   0.183   2.673 -0.0926  0.1815 -0.6274
  940SOL    HW1 3758   2.296   0.087   2.667 -0.6759  0.6467  0.4128
  940SOL    HW2 3759   2.373   0.194   2.744  0.1974 -0.6093 -2.3539
  940SOL     MW 3760   2.321   0.172   2.682 -0.1313  0.1385 -0.7180
  941SOL     OW 3761   0.189   2.262   2.014 -0.0206 -0.0041 -0.1160
  941SOL    HW1 3762   0.279   2.239   2.027  0.7903  0.7215 -0.0472
  941SOL    HW2 3763   0.170   2.227   1.936  0.9054  4.1394  3.3446
  941SOL     MW 3764   0.198   2.255   2.006  0.2086  0.6383  0.3497
  942SOL     OW 3765   2.935   2.221   2.152 -0.0707  0.1498 -0.1338
  942SOL    HW1 3766   2.853   2.271   2.125 -0.5332  2.3652  1.1672
  942SOL    HW2 3767   2.894   2.139   2.188  1.3371  0.8635 -0.2984
  942SOL     MW 3768   2.919   2.217   2.153  0.0540  0.5362  0.0161
  943SOL     OW 3769   0.352   2.024   2.307 -0.1858  0.3742  0.1844
  943SOL    HW1 3770   0.308   2.087   2.372 -1.7712  1.0717 -0.2114
  943SOL    HW2 3771   0.449   2.009   2.316  1.5232 -1.7747 -0.0674
  943SOL     MW 3772   0.359   2.030   2.317 -0.1695  0.1827  0.0989
  944SOL     OW 3773   2.093   2.684   2.059 -0.6940  0.0668 -0.2586
  944SOL    HW1 3774   2.165   2.639   2.104  4.5108  1.7970 -2.1981
  944SOL    HW2 3775   2.069   2.755   2.117 -1.5378  1.1959 -1.3991
  944SOL     MW 3776   2.099   2.688   2.072 -0.1186  0.4440 -0.6650
  945SOL     OW 3777   2.755   2.686   2.854  0.1327 -0.0099  0.3943
  945SOL    HW1 3778   2.715   2.597   2.862 -1.5724  0.4224  1.6114
  945SOL    HW2 3779   2.768   2.698   2.760  0.8221 -0.8851  1.0554
  945SOL     MW 3780   2.752   2.676   2.843 -0.0013 -0.0683  0.6421
  946SOL     OW 3781   2.503   2.738   2.291 -0.1036  0.0923  0.2037
  946SOL    HW1 3782   2.543   2.786   2.214  1.5607  2.5163  3.6497
  946SOL    HW2 3783   2.435   2.673   2.261  1.9590 -3.0223  2.8300
  946SOL     MW 3784   2.499   2.736   2.277  0.3882  0.0012  1.0048
  947SOL     OW 3785   1.996   0.097   0.265 -0.2415 -0.0633  0.2155
  947SOL    HW1 3786   1.951   0.030   0.209  1.9288  2.1746  2.1043
  947SOL    HW2 3787   2.033   0.055   0.343 -2.2131  1.6555  0.1024
  947SOL     MW 3788   1.995   0.082   0.268 -0.2153  0.4587  0.4498
  948SOL     OW 3789   1.779   2.997   2.662  0.1274 -0.4763  0.0056
  948SOL    HW1 3790   1.847   2.926   2.654 -1.9141  0.4594 -2.1121
  948SOL    HW2 3791   1.758   3.025   2.566  0.1328  0.6498  1.7123
  948SOL     MW 3792   1.785   2.992   2.648 -0.1413 -0.2042 -0.0486
  949SOL     OW 3793   2.541   1.975   2.284 -0.1658  0.1808  0.1835
  949SOL    HW1 3794   2.540   1.883   2.318  0.2115 -1.0118 -0.0628
  949SOL    HW2 3795   2.475   2.024   2.344  0.0801 -0.3849 -1.7386
  949SOL     MW 3796   2.532   1.970   2.296 -0.0836 -0.0512 -0.1026
  950SOL     OW 3797   2.287   2.523   3.012  0.2520 -0.4665  0.1087
  950SOL    HW1 3798   2.347   2.471   2.957  1.1018 -2.4260 -1.5474
  950SOL    HW2 3799   2.215   2.531   2.944 -0.4512  2.0495 -0.7062
  950SOL     MW 3800   2.285   2.517   2.995  0.2713 -0.3931 -0.2173
  951SOL     OW 3801   2.979   2.133   2.840  0.4217  0.3696  0.7227
  951SOL    HW1 3802   3.015   2.187   2.907  1.3518 -2.4586 -0.0715
  951SOL    HW2 3803   3.037   2.124   2.760 -2.5467 -1.2132 -0.7122
  951SOL     MW 3804   2.992   2.139   2.838  0.1528 -0.2124  0.4286
  952SOL     OW 3805   3.091   1.688   2.152  0.4914 -0.6257  0.1231
  952SOL    HW1 3806   3.003   1.731   2.128  0.0501  0.6223 -1.2543
  952SOL    HW2 3807   3.143   1.770   2.135 -0.4807  0.4093  1.3065
  952SOL     MW 3808   3.086   1.704   2.146  0.3049 -0.3245  0.0975
  953SOL     OW 3809   1.894   1.783   2.931  0.0437 -0.1524 -0.2737
  953SOL    HW1 3810   1.807   1.744   2.953  2.7950  2.0677  1.6371
  953SOL    HW2 3811   1.932   1.722   2.865  1.2344  2.9747  2.3400
  953SOL     MW 3812   1.888   1.770   2.925  0.5638  0.5531  0.3232
  954SOL     OW 3813   2.484   2.079   2.863  0.1086  0.3856  0.0205
  954SOL    HW1 3814   2.397   2.058   2.820 -1.0440  3.2500 -0.5762
  954SOL    HW2 3815   2.552   2.028   2.815 -0.2268  0.8496  1.5340
  954SOL     MW 3816   2.481   2.069   2.851 -0.0877  0.8247  0.1414
  955SOL     OW 3817   1.595   1.591   2.606 -0.3101  0.0978 -0.1988
  955SOL    HW1 3818   1.564   1.619   2.511  0.9291 -0.1419  1.2272
  955SOL    HW2 3819   1.675   1.647   2.610  0.9299 -0.4061 -0.2549
  955SOL     MW 3820   1.602   1.602   2.594  0.0170 -0.0003 -0.0181
  956SOL     OW 3821   2.703   2.414   2.839 -0.0109 -0.1806 -0.2150
  956SOL    HW1 3822   2.719   2.379   2.926 -1.0711 -2.8515 -2.0845
  956SOL    HW2 3823   2.755   2.370   2.775  0.4516  1.6068 -3.2063
  956SOL     MW 3824   2.712   2.404   2.842 -0.0897 -0.2972 -0.8563
  957SOL     OW 3825   2.304   2.875   0.372  0.2901 -0.2208  0.0662
  957SOL    HW1 3826   2.221   2.852   0.327 -0.2427  1.5273  0.6385
  957SOL    HW2 3827   2.291   2.865   0.468  2.7060 -1.3576 -1.5041
  957SOL     MW 3828   2.292   2.871   0.379  0.5386 -0.1401 -0.0655
  958SOL     OW 3829   2.036   2.615   2.846  0.5281 -0.0616  0.2069
  958SOL    HW1 3830   1.996   2.559   2.779 -1.9675  1.0741 -0.9843
  958SOL    HW2 3831   1.974   2.619   2.924  1.4643  1.8486  0.7323
  958SOL     MW 3832   2.023   2.608   2.847  0.3224  0.3402  0.1191
  959SOL     OW 3833   2.432   2.632   0.370  0.3445  0.0495  0.0031
  959SOL    HW1 3834   2.485   2.628   0.295 -1.8538  1.9838 -0.5453
  959SOL    HW2 3835   2.384   2.716   0.358 -1.2876 -1.5943  2.7047
  959SOL     MW 3836   2.433   2.642   0.358 -0.1609  0.0879  0.2872
  960SOL     OW 3837   1.967   2.302   2.264  0.1811 -0.0936 -0.3164
  960SOL    HW1 3838   1.904   2.318   2.198  1.0000 -0.8374 -1.4335
  960SOL    HW2 3839   1.916   2.307   2.348  2.5482  1.9320  2.0746
  960SOL     MW 3840   1.952   2.305   2.266  0.6015  0.0755 -0.1483
  961SOL     OW 3841   2.252   2.330   2.290  0.0922  0.3561 -0.4228
  961SOL    HW1 3842   2.161   2.306   2.265 -0.6909 -0.6300 -1.6985
  961SOL    HW2 3843   2.241   2.364   2.378 -2.5365 -1.7272 -2.0056
  961SOL     MW 3844   2.239   2.331   2.298 -0.3580 -0.0489 -0.7999
  962SOL     OW 3845   2.218   2.004   2.809 -0.5627 -0.3683  0.1468
  962SOL    HW1 3846   2.177   1.997   2.895  0.5040 -1.7242  0.6602
  962SOL    HW2 3847   2.215   1.912   2.772  3.3612 -2.8948  2.4710
  962SOL     MW 3848   2.212   1.991   2.815  0.0958 -0.8806  0.5212
  963SOL     OW 3849   1.826   2.619   2.044 -0.1576  0.0570  0.2705
  963SOL    HW1 3850   1.921   2.648   2.063  2.9241 -0.1373  2.2582
  963SOL    HW2 3851   1.841   2.530   2.006 -0.9315  0.2138  2.8611
  963SOL     MW 3852   1.841   2.611   2.041  0.1469  0.0520  0.8746
  964SOL     OW 3853   1.760   1.942   2.753 -0.4313 -0.2028 -0.3848
  964SOL    HW1 3854   1.829   2.010   2.746 -0.3691 -2.6556  1.7624
  964SOL    HW2 3855   1.806   1.862   2.791  0.1377 -2.6948  0.2576
  964SOL     MW 3856   1.775   1.940   2.757 -0.3480 -0.8552 -0.0168
  965SOL     OW 3857   2.237   2.754   0.626  0.0132  0.0114 -0.3993
  965SOL    HW1 3858   2.209   2.666   0.614  0.2463  0.1897  2.7615
  965SOL    HW2 3859   2.306   2.763   0.691  1.1083 -1.9458  0.0975
  965SOL     MW 3860   2.242   2.744   0.633  0.1884 -0.2233  0.0833
  966SOL     OW 3861   2.621   2.632   2.507  0.2397  0.1627  0.1411
  966SOL    HW1 3862   2.585   2.669   2.429  0.4006  0.6720  0.1485
  966SOL    HW2 3863   2.655   2.543   2.488  1.6076 -2.1921 -0.4108
  966SOL     MW 3864   2.621   2.625   2.494  0.4414 -0.0808  0.0693
  967SOL     OW 3865   2.855   3.019   2.909 -0.6705 -0.0961 -0.2177
  967SOL    HW1 3866   2.846   2.935   2.947 -0.9058  0.8978 -1.2730
  967SOL    HW2 3867   2.766   3.036   2.876  0.1265  0.0455  0.3445
  967SOL     MW 3868   2.842   3.010   2.909 -0.5964  0.0537 -0.2827
  968SOL     OW 3869   2.999   2.641   2.916  0.1179  1.0424 -0.4530
  968SOL    HW1 3870   2.912   2.659   2.889  0.6430 -2.1015 -1.3006
  968SOL    HW2 3871   3.039   2.595   2.842 -0.8164 -0.6851 -1.7905
  968SOL     MW 3872   2.992   2.638   2.903  0.0639  0.3997 -0.7413
  969SOL     OW 3873   1.534   2.130   1.677 -0.4466  0.4063  0.2218
  969SOL    HW1 3874   1.592   2.056   1.682 -1.5403 -0.9909 -0.2847
  969SOL    HW2 3875   1.494   2.134   1.762  1.9346 -3.4548 -1.9525
  969SOL     MW 3876   1.536   2.121   1.689 -0.2767 -0.2875 -0.1319
  970SOL     OW 3877   1.626   1.699   1.765 -0.7168  0.6314  0.0130
  970SOL    HW1 3878   1.695   1.702   1.829 -0.1482 -1.7460  1.2904
  970SOL    HW2 3879   1.549   1.722   1.812  1.7152  3.9908 -1.6884
  970SOL     MW 3880   1.625   1.703   1.780 -0.3209  0.7610 -0.0429
  971SOL     OW 3881   1.763   3.063   2.405 -0.2296 -0.2860  0.5888
  971SOL    HW1 3882   1.774   3.046   2.315  0.9943  0.8702 -0.7824
  971SOL    HW2 3883   1.825   3.141   2.413  2.6307  1.9023 -0.9412
  971SOL     MW 3884   1.772   3.071   2.394  0.3093  0.1553  0.2060
  972SOL     OW 3885   0.265   2.853   2.454  0.0091  0.6317  0.4423
  972SOL    HW1 3886   0.297   2.775   2.498  1.4618  1.4139  0.8876
  972SOL    HW2 3887   0.319   2.924   2.482  1.2959 -2.7053  0.0748
  972SOL     MW 3888   0.277   2.852   2.464  0.3706  0.2946  0.4526
  973SOL     OW 3889   2.529   0.043   2.104 -0.8453  0.2530 -0.9601
  973SOL    HW1 3890   2.534  -0.049   2.091 -2.2922  1.0013 -1.5958
  973SOL    HW2 3891   2.546   0.081   2.015  0.5081  2.6879 -2.8324
  973SOL     MW 3892   2.532   0.036   2.090 -0.8576  0.6730 -1.2910
  974SOL     OW 3893   2.050   0.206   2.685 -0.2960  0.0157 -0.1266
  974SOL    HW1 3894   2.147   0.213   2.686  2.8341 -0.2532 -0.8891
  974SOL    HW2 3895   2.023   0.134   2.745 -0.8108  0.0506 -0.9799
  974SOL     MW 3896   2.059   0.198   2.693  0.0491 -0.0152 -0.3398
  975SOL     OW 3897   2.182   2.479   2.502  0.4440 -0.8023 -0.2052
  975SOL    HW1 3898   2.272   2.511   2.520 -2.7699  2.6308 -3.4143
  975SOL    HW2 3899   2.130   2.560   2.483 -0.6814  0.5841 -0.3506
  975SOL     MW 3900   2.187   2.494   2.502 -0.1285 -0.1664 -0.6478
  976SOL     OW 3901   0.249   0.343   1.713  0.3900 -0.0871 -0.2060
  976SOL    HW1 3902   0.326   0.288   1.739  3.0533 -0.9762  0.0159
  976SOL    HW2 3903   0.195   0.288   1.659 -2.4203  0.3687 -0.3430
  976SOL     MW 3904   0.252   0.328   1.709  0.3706 -0.1443 -0.1948
  977SOL     OW 3905   1.755   2.648   2.474  0.3904 -0.2791  0.2378
  977SOL    HW1 3906   1.758   2.551   2.485 -1.5662 -0.7053 -0.4438
  977SOL    HW2 3907   1.849   2.663   2.462  0.3564 -1.5284 -1.5324
  977SOL     MW 3908   1.768   2.637   2.474  0.1278 -0.5002 -0.0857
   3.10000   3.10000   3.10000
