977 TIP4P/2005f water molecules t=   1.22000 step= 1220
 3908
    1SOL     OW    1   0.423   0.794   0.005 -0.3030  0.3783  0.6264
    1SOL    HW1    2   0.383   0.854  -0.057  1.4682 -0.5158 -0.1459
    1SOL    HW2    3   0.356   0.736   0.024  0.6752  0.1571 -1.2601
    1SOL     MW    4   0.409   0.795  -0.001  0.0598  0.2311  0.2756
    2SOL     OW    5   0.351   3.048   1.179  0.2388 -0.1734  0.5972
    2SOL    HW1    6   0.402   3.107   1.126  0.0338 -2.1795 -1.0470
    2SOL    HW2    7   0.262   3.083   1.188  0.6137 -0.2251 -0.2912
    2SOL     MW    8   0.346   3.060   1.173  0.2613 -0.4449  0.2631
    3SOL     OW    9   2.576   0.349   0.988  0.1057 -0.7497 -0.1542
    3SOL    HW1   10   2.626   0.393   0.917  0.8148  2.6854 -3.0663
    3SOL    HW2   11   2.580   0.422   1.066 -0.9950 -1.4772 -1.5852
    3SOL     MW   12   2.583   0.365   0.989  0.0540 -0.3924 -0.7272
    4SOL     OW   13   3.039   1.738   0.549  0.9994  0.2066  0.0581
    4SOL    HW1   14   2.949   1.759   0.520 -0.2651  0.7019  0.4730
    4SOL    HW2   15   3.071   1.692   0.471  0.8922 -1.5517 -0.9088
    4SOL     MW   16   3.032   1.735   0.535  0.8184  0.0399 -0.0148
    5SOL     OW   17   1.674   1.515   0.527 -0.6211 -0.1436  0.9053
    5SOL    HW1   18   1.694   1.470   0.612  0.6595  0.3537 -0.3400
    5SOL    HW2   19   1.588   1.549   0.518  0.7106  2.4820 -1.7502
    5SOL     MW   20   1.666   1.513   0.537 -0.2764  0.2685  0.3906
    6SOL     OW   21   0.826   1.384   0.578  0.1530  0.0311 -0.2471
    6SOL    HW1   22   0.734   1.402   0.595 -0.6194 -0.5921  0.7940
    6SOL    HW2   23   0.850   1.294   0.608  1.0455 -0.7387  0.1515
    6SOL     MW   24   0.817   1.374   0.584  0.1689 -0.1527 -0.0572
    7SOL     OW   25   2.066   1.039  -0.002 -0.1808  0.1468  0.2982
    7SOL    HW1   26   2.149   1.080  -0.034 -0.4703  0.4547 -2.8385
    7SOL    HW2   27   2.075   1.045   0.090  1.4879  1.2533 -1.4172
    7SOL     MW   28   2.078   1.046   0.006  0.0012  0.3334 -0.3420
    8SOL     OW   29   0.893   1.478   1.201 -0.5489  0.8834  0.1396
    8SOL    HW1   30   0.989   1.481   1.201 -1.5155  1.9218 -2.5356
    8SOL    HW2   31   0.863   1.391   1.214 -0.2699  2.7849  1.0897
    8SOL     MW   32   0.902   1.467   1.203 -0.6396  1.2713 -0.0880
    9SOL     OW   33   0.997   0.506   1.398  0.2141 -0.2784 -0.3726
    9SOL    HW1   34   0.944   0.436   1.355  2.4776 -0.1862  1.6563
    9SOL    HW2   35   1.060   0.466   1.456 -1.9319 -1.5001  3.1230
    9SOL     MW   36   0.998   0.492   1.400  0.2296 -0.4274  0.3563
   10SOL     OW   37   0.241   0.810   0.508  0.2932  0.4436  0.5351
   10SOL    HW1   38   0.328   0.840   0.475 -0.3021  1.4272  0.9099
   10SOL    HW2   39   0.224   0.845   0.594  0.9504 -2.1418 -0.2540
   10SOL     MW   40   0.250   0.819   0.515  0.3013  0.2322  0.4804
   11SOL     OW   41   0.783   1.113   1.620 -0.1805 -0.4843  0.0608
   11SOL    HW1   42   0.828   1.124   1.706  0.3015 -0.2773  2.9321
   11SOL    HW2   43   0.797   1.031   1.577  1.4472  0.5972 -3.0104
   11SOL     MW   44   0.791   1.103   1.626  0.0979 -0.3143  0.0344
   12SOL     OW   45   3.081   1.079   0.875 -0.2294  0.1411 -0.5019
   12SOL    HW1   46   3.131   1.151   0.911 -0.8226  0.3783 -0.2173
   12SOL    HW2   47   3.055   1.117   0.787 -0.5202  2.2606  2.3205
   12SOL     MW   48   3.084   1.093   0.868 -0.3460  0.4520 -0.0920
   13SOL     OW   49   1.853   1.396   1.342 -0.4142  0.5335 -0.3215
   13SOL    HW1   50   1.838   1.326   1.274 -0.2756 -0.1935 -3.8452
   13SOL    HW2   51   1.864   1.475   1.290 -0.2311  0.0429 -0.7691
   13SOL     MW   52   1.852   1.397   1.326 -0.3717  0.3728 -0.8455
   14SOL     OW   53   0.561   0.322   1.854  0.0038 -0.3151  0.0307
   14SOL    HW1   54   0.510   0.237   1.843 -0.0705 -1.5538 -0.0794
   14SOL    HW2   55   0.598   0.336   1.769 -1.1797 -1.3124  0.9884
   14SOL     MW   56   0.559   0.313   1.842 -0.1621 -0.6101  0.1425
   15SOL     OW   57   1.966   0.329   1.052  0.1237 -0.1438 -0.4929
   15SOL    HW1   58   1.943   0.407   1.109 -0.1408 -1.2493  0.0501
   15SOL    HW2   59   2.028   0.354   0.986  1.4354 -0.1133  1.6791
   15SOL     MW   60   1.971   0.343   1.051  0.2619 -0.2856 -0.1347
   16SOL     OW   61   0.210   1.819   0.300  0.6946  0.0249  0.5188
   16SOL    HW1   62   0.301   1.795   0.277 -0.7357  1.5516 -1.5940
   16SOL    HW2   63   0.205   1.918   0.308  1.2819  0.6958 -0.7360
   16SOL     MW   64   0.222   1.829   0.298  0.5833  0.3148  0.0745
   17SOL     OW   65   1.023   0.936   1.454 -0.3121 -0.1302 -0.4163
   17SOL    HW1   66   1.063   0.894   1.532  1.0145 -1.2591  0.5388
   17SOL    HW2   67   0.938   0.892   1.443 -0.1572  0.0941  0.9110
   17SOL     MW   68   1.017   0.925   1.463 -0.1166 -0.2495 -0.1152
   18SOL     OW   69   0.086   1.594   0.360 -0.0013  0.1611  0.2624
   18SOL    HW1   70   0.135   1.676   0.338 -2.4309  1.0046 -1.4497
   18SOL    HW2   71   0.043   1.578   0.274  2.8543  2.8527  1.0647
   18SOL     MW   72   0.087   1.603   0.346  0.0549  0.6275  0.1424
   19SOL     OW   73   0.094   1.297   1.006  0.3209  0.6161 -0.4246
   19SOL    HW1   74   0.125   1.351   0.929 -1.0430 -2.4154 -2.6303
   19SOL    HW2   75   0.011   1.334   1.042 -2.3163  1.6803 -2.2322
   19SOL     MW   76   0.087   1.309   1.001 -0.2070  0.3565 -0.9541
   20SOL     OW   77   0.436   2.173   1.167  0.3092 -0.2948  0.1278
   20SOL    HW1   78   0.385   2.114   1.114 -1.1079  1.0460 -1.0720
   20SOL    HW2   79   0.376   2.196   1.243  1.0003 -0.3765 -0.2092
   20SOL     MW   80   0.421   2.168   1.170  0.2134 -0.1286 -0.0749
   21SOL     OW   81   0.482   0.878   0.419  0.0583 -0.7337 -0.0844
   21SOL    HW1   82   0.538   0.837   0.486  0.8459  0.4360 -0.0389
   21SOL    HW2   83   0.520   0.862   0.330 -1.2137  2.4026 -2.5778
   21SOL     MW   84   0.494   0.870   0.416 -0.0056 -0.1656 -0.4074
   22SOL     OW   85   1.532   0.696   1.015 -0.2720  0.3182 -0.2392
   22SOL    HW1   86   1.476   0.667   0.943  0.2577  0.7529  2.0049
   22SOL    HW2   87   1.517   0.788   1.025  0.2691 -1.6056 -3.6669
   22SOL     MW   88   1.523   0.704   1.007 -0.1307  0.1217 -0.3954
   23SOL     OW   89   3.056   0.667   0.703  0.4494 -0.1528 -0.3036
   23SOL    HW1   90   3.120   0.608   0.735  1.2515  0.0984 -1.8054
   23SOL    HW2   91   3.099   0.752   0.711 -1.3850  0.6036 -0.0312
   23SOL     MW   92   3.070   0.670   0.708  0.3132 -0.0199 -0.4658
   24SOL     OW   93   2.026   2.220   0.029  0.1951 -0.1473 -0.0992
   24SOL    HW1   94   2.045   2.207   0.123  0.5392 -0.5154  1.8666
   24SOL    HW2   95   2.035   2.128  -0.006  0.1251  0.0835  0.9390
   24SOL     MW   96   2.030   2.206   0.037  0.2313 -0.1654  0.2971
   25SOL     OW   97   0.193   1.411   0.527  0.1837 -0.3745 -0.0610
   25SOL    HW1   98   0.168   1.479   0.464 -0.7771 -0.2189 -2.6308
   25SOL    HW2   99   0.282   1.398   0.524 -1.0040 -0.2866 -1.1131
   25SOL     MW  100   0.201   1.418   0.518 -0.0998 -0.3424 -0.5389
   26SOL     OW  101   2.062   1.068   0.291  0.1959  0.3535 -0.6161
   26SOL    HW1  102   1.996   1.112   0.349  1.4198  0.3069 -0.3924
   26SOL    HW2  103   2.132   1.137   0.282 -3.1496 -0.1340  1.2942
   26SOL     MW  104   2.062   1.083   0.297 -0.0840  0.2830 -0.3346
   27SOL     OW  105   1.975   1.465   0.210 -0.1111 -0.2289 -0.2288
   27SOL    HW1  106   1.897   1.511   0.241  1.2749  2.9628  1.5500
   27SOL    HW2  107   2.041   1.497   0.270  0.1126 -0.8156 -0.5346
   27SOL     MW  108   1.974   1.475   0.222  0.1013  0.1148 -0.0344
   28SOL     OW  109   0.441   1.016   1.965  0.1135  0.2507  0.1832
   28SOL    HW1  110   0.514   1.013   2.033 -0.6420 -0.7365 -1.2076
   28SOL    HW2  111   0.374   0.952   1.984 -2.9455  0.3744  2.0448
   28SOL     MW  112   0.442   1.007   1.977 -0.3898  0.1368  0.2453
   29SOL     OW  113   0.228   1.436   0.809  0.4163 -0.3213 -0.8167
   29SOL    HW1  114   0.223   1.528   0.835 -1.3573 -1.1166 -1.6288
   29SOL    HW2  115   0.192   1.425   0.721  1.2255 -0.2398  1.6834
   29SOL     MW  116   0.223   1.447   0.801  0.2890 -0.4155 -0.5940
   30SOL     OW  117   0.797   1.237   1.222  0.4563  0.2734  0.0892
   30SOL    HW1  118   0.713   1.219   1.271 -0.6651  0.6889  1.6991
   30SOL    HW2  119   0.870   1.197   1.279  2.9031 -0.2133  1.0949
   30SOL     MW  120   0.795   1.229   1.236  0.6311  0.2640  0.4343
   31SOL     OW  121   0.396   0.252   0.166 -0.1075  0.5172  0.3075
   31SOL    HW1  122   0.431   0.180   0.224  0.1616 -0.5619  1.7017
   31SOL    HW2  123   0.441   0.239   0.081 -0.2085 -0.7442  0.7646
   31SOL     MW  124   0.406   0.240   0.162 -0.0853  0.2084  0.5517
   32SOL     OW  125   2.760   0.984   1.177 -0.3021 -0.2426  0.1341
   32SOL    HW1  126   2.689   0.927   1.129  0.9202 -0.8164 -2.6314
   32SOL    HW2  127   2.846   0.957   1.137  0.6273  1.0455  0.2791
   32SOL     MW  128   2.762   0.973   1.165 -0.0182 -0.1483 -0.2117
   33SOL     OW  129   1.659   1.296   0.349 -0.1406 -0.0542  0.2574
   33SOL    HW1  130   1.729   1.245   0.384 -0.9821  0.5405  0.2608
   33SOL    HW2  131   1.660   1.372   0.411 -1.5308  0.4711 -0.0377
   33SOL     MW  132   1.669   1.299   0.361 -0.4350  0.0935  0.2189
   34SOL     OW  133   1.232   1.921   1.120  0.1282 -0.2734  0.2201
   34SOL    HW1  134   1.154   1.963   1.155  0.1494 -0.6796 -0.3189
   34SOL    HW2  135   1.303   1.963   1.168  1.2732 -1.4578 -0.8255
   34SOL     MW  136   1.231   1.932   1.131  0.2820 -0.4832  0.0110
   35SOL     OW  137   0.357   0.122   1.854 -0.2808 -0.5567  0.0727
   35SOL    HW1  138   0.377   0.060   1.925 -2.4920 -1.6539 -1.2177
   35SOL    HW2  139   0.390   0.086   1.774  1.4224  1.8607  1.5680
   35SOL     MW  140   0.364   0.109   1.853 -0.3478 -0.3825  0.0997
   36SOL     OW  141   1.978   1.924   0.557  0.1426 -0.3078  0.1588
   36SOL    HW1  142   1.949   1.920   0.468  0.4242  0.8768  0.1169
   36SOL    HW2  143   1.949   1.838   0.591  1.9614 -0.7503  1.2685
   36SOL     MW  144   1.971   1.912   0.550  0.4198 -0.2099  0.2997
   37SOL     OW  145   1.791   2.030   0.961  0.2087  0.0606 -0.2073
   37SOL    HW1  146   1.739   1.981   0.904 -0.2828 -0.6269 -0.1673
   37SOL    HW2  147   1.738   2.066   1.032  0.2053 -0.0110 -1.9860
   37SOL     MW  148   1.777   2.028   0.963  0.1434 -0.0396 -0.4367
   38SOL     OW  149   2.822   0.958   0.123 -0.0176  0.0085 -0.0313
   38SOL    HW1  150   2.835   0.947   0.218  1.7023  2.4751 -0.4313
   38SOL    HW2  151   2.907   0.935   0.090 -0.6083 -0.5825  1.8673
   38SOL     MW  152   2.835   0.953   0.131  0.1313  0.2560  0.1664
   39SOL     OW  153   1.429   0.600   0.780  0.7478 -0.6997 -0.2187
   39SOL    HW1  154   1.398   0.512   0.794  2.1554 -0.0434 -1.6298
   39SOL    HW2  155   1.350   0.645   0.754 -0.2249 -0.2203 -2.7273
   39SOL     MW  156   1.414   0.594   0.778  0.8052 -0.5498 -0.7359
   40SOL     OW  157   1.163   1.902   0.276  0.4959  0.2260 -0.7292
   40SOL    HW1  158   1.203   1.841   0.341 -1.7678 -2.3842 -0.1345
   40SOL    HW2  159   1.169   1.987   0.321 -0.3129 -0.2457  2.0690
   40SOL     MW  160   1.169   1.905   0.291  0.0905 -0.1806 -0.2816
   41SOL     OW  161   0.545   0.491   1.580  0.5768 -0.4662  0.0113
   41SOL    HW1  162   0.632   0.524   1.583 -0.1634 -0.8129  0.8646
   41SOL    HW2  163   0.489   0.563   1.630 -2.2395  2.3816  0.7622
   41SOL     MW  164   0.549   0.505   1.587  0.1076 -0.1362  0.2229
   42SOL     OW  165   1.275   3.008   2.003  0.9153  0.0805 -0.2640
   42SOL    HW1  166   1.186   2.987   2.037 -1.2709 -0.1420 -0.3562
   42SOL    HW2  167   1.324   2.926   2.021  1.8515 -1.2383 -0.1817
   42SOL     MW  168   1.269   2.995   2.010  0.7504 -0.1229 -0.2653
   43SOL     OW  169   1.483   0.135   1.666  0.3512  0.6909 -0.9340
   43SOL    HW1  170   1.540   0.087   1.608 -1.9864 -1.0814  0.9731
   43SOL    HW2  171   1.399   0.097   1.668 -0.7614  0.0532  0.1265
   43SOL     MW  172   1.479   0.123   1.658 -0.1040  0.3729 -0.5425
   44SOL     OW  173   1.179   0.772   1.005  0.8900  0.3964  0.4224
   44SOL    HW1  174   1.155   0.865   0.984 -0.5707  0.8863  1.1401
   44SOL    HW2  175   1.225   0.774   1.094  1.1979 -0.8764  0.3529
   44SOL     MW  176   1.182   0.785   1.014  0.7379  0.2931  0.5079
   45SOL     OW  177   1.223   0.750   0.682 -0.4636  0.3280  0.5253
   45SOL    HW1  178   1.168   0.757   0.758  0.6124 -0.1307  0.8821
   45SOL    HW2  179   1.168   0.688   0.634  0.5650 -0.0998 -0.0570
   45SOL     MW  180   1.209   0.743   0.686 -0.1859  0.2110  0.4956
   46SOL     OW  181   0.550   1.110   0.576 -0.1914 -0.3471  0.0053
   46SOL    HW1  182   0.528   1.137   0.489 -2.2130 -0.5028 -0.0180
   46SOL    HW2  183   0.633   1.069   0.558  1.1406  2.0828  0.6282
   46SOL     MW  184   0.558   1.108   0.562 -0.2824 -0.0471  0.0844
   47SOL     OW  185   0.216   1.969   1.968 -0.0931 -0.6596  0.0024
   47SOL    HW1  186   0.285   1.915   2.010  1.7569  0.4421 -0.3545
   47SOL    HW2  187   0.143   1.969   2.034 -2.4039 -0.0760  0.9972
   47SOL     MW  188   0.215   1.962   1.982 -0.1539 -0.4372  0.0866
   48SOL     OW  189   1.091   0.517   1.062 -0.3637 -0.2587 -0.7026
   48SOL    HW1  190   0.998   0.515   1.037  2.7466 -0.1617 -1.0716
   48SOL    HW2  191   1.116   0.610   1.063 -2.8041  1.8523  1.6042
   48SOL     MW  192   1.082   0.529   1.059 -0.2753  0.0327 -0.4469
   49SOL     OW  193   1.732   0.649   1.534  0.6533 -0.7927 -0.5195
   49SOL    HW1  194   1.711   0.605   1.619  0.1698 -1.3884  0.9949
   49SOL    HW2  195   1.817   0.612   1.514  0.8418  0.1012  1.5783
   49SOL     MW  196   1.741   0.638   1.542  0.6144 -0.7534 -0.0429
   50SOL     OW  197   1.283   1.120   0.536 -0.5109  0.4470  0.2185
   50SOL    HW1  198   1.240   1.157   0.613 -2.3110 -0.0191 -1.7703
   50SOL    HW2  199   1.354   1.073   0.582  0.2858  0.0451  1.0682
   50SOL     MW  200   1.287   1.119   0.552 -0.6433  0.3325  0.0682
   51SOL     OW  201   0.330   2.926   0.913 -0.0709  0.1107  0.0336
   51SOL    HW1  202   0.418   2.882   0.911  0.6939 -0.7031 -0.1818
   51SOL    HW2  203   0.304   2.955   1.000  0.8827  0.7231  0.6154
   51SOL     MW  204   0.338   2.924   0.924  0.1558  0.0841  0.0819
   52SOL     OW  205   0.819   1.774   0.432 -0.2863  0.4656  0.4954
   52SOL    HW1  206   0.778   1.863   0.415  0.0165  0.5830  2.6362
   52SOL    HW2  207   0.835   1.729   0.346  0.6481  0.6832 -0.3648
   52SOL     MW  208   0.816   1.780   0.419 -0.1230  0.5098  0.6644
   53SOL     OW  209   0.426   2.135   0.464  0.6331  0.4579  0.0873
   53SOL    HW1  210   0.356   2.128   0.396 -1.7591 -2.7375 -1.2896
   53SOL    HW2  211   0.412   2.225   0.505  0.9843 -0.4491  0.5980
   53SOL     MW  212   0.415   2.146   0.460  0.3638 -0.0834 -0.0270
   54SOL     OW  213   2.024   0.919   0.782  0.6956  0.2933 -0.1467
   54SOL    HW1  214   2.073   0.911   0.700  2.4189 -0.6766 -0.1015
   54SOL    HW2  215   2.002   0.828   0.813 -0.2660  0.4061  0.5637
   54SOL     MW  216   2.027   0.906   0.775  0.7961  0.1802 -0.0470
   55SOL     OW  217   0.545   1.567   1.649 -0.1865  0.4379  0.6998
   55SOL    HW1  218   0.511   1.614   1.572 -2.3657  0.7713  0.7383
   55SOL    HW2  219   0.631   1.533   1.621 -0.5609 -2.3905  1.8953
   55SOL     MW  220   0.552   1.569   1.635 -0.5234  0.1087  0.8627
   56SOL     OW  221   0.626   0.839   0.174  0.0073  0.1237 -0.0525
   56SOL    HW1  222   0.663   0.928   0.183 -1.4573  1.8453 -1.8254
   56SOL    HW2  223   0.565   0.843   0.102  0.8043 -0.6188  1.1249
   56SOL     MW  224   0.622   0.851   0.165 -0.0808  0.2529 -0.1311
   57SOL     OW  225   1.180   1.256   1.135  0.5306 -0.3490  0.1922
   57SOL    HW1  226   1.272   1.239   1.136 -1.9400  1.0974 -0.2789
   57SOL    HW2  227   1.144   1.237   1.229 -2.0500 -0.8726  1.4920
   57SOL     MW  228   1.188   1.252   1.148 -0.1358 -0.2273  0.3015
   58SOL     OW  229   0.542   1.227   1.312 -0.3345 -0.1394 -0.6740
   58SOL    HW1  230   0.515   1.316   1.280  0.5547  1.3628  1.1454
   58SOL    HW2  231   0.523   1.222   1.411 -2.5655  1.9591 -0.4392
   58SOL     MW  232   0.536   1.238   1.321 -0.5115  0.3357 -0.4029
   59SOL     OW  233   1.505   1.707   0.349 -0.2109  0.5814 -0.0213
   59SOL    HW1  234   1.571   1.760   0.395 -0.4465 -2.7065  0.5880
   59SOL    HW2  235   1.417   1.717   0.395 -1.2182 -1.1979  2.7773
   59SOL     MW  236   1.502   1.716   0.361 -0.3749 -0.0872  0.4284
   60SOL     OW  237   0.039   0.237   1.678 -0.8362 -0.5688 -0.0437
   60SOL    HW1  238  -0.058   0.262   1.696  2.3360 -1.7116  0.7652
   60SOL    HW2  239   0.044   0.147   1.711 -1.9741 -0.4679 -1.8329
   60SOL     MW  240   0.027   0.228   1.685 -0.5678 -0.7063 -0.1731
   61SOL     OW  241   2.003   1.377   3.052  0.2692 -0.5202  0.2251
   61SOL    HW1  242   2.000   1.405   3.143 -1.0572  1.7538 -1.3163
   61SOL    HW2  243   2.087   1.342   3.030  0.5136 -3.8720  3.5865
   61SOL     MW  244   2.013   1.377   3.061  0.1265 -0.6624  0.4652
   62SOL     OW  245   0.563   1.681   0.510 -0.5996  0.5090 -0.6365
   62SOL    HW1  246   0.659   1.694   0.501  0.8330 -1.6509 -0.6479
   62SOL    HW2  247   0.558   1.594   0.565  3.4332 -0.6331  0.5703
   62SOL     MW  248   0.575   1.671   0.516  0.1215  0.0733 -0.4788
   63SOL     OW  249   1.723   0.645   0.715  0.0250 -0.5865  0.0203
   63SOL    HW1  250   1.741   0.724   0.664 -0.2211 -2.2826 -1.8307
   63SOL    HW2  251   1.626   0.650   0.729 -0.1598  2.1368  1.6782
   63SOL     MW  252   1.712   0.656   0.710 -0.0319 -0.4510 -0.0052
   64SOL     OW  253   0.250   1.711   0.845  0.9748 -0.3884 -0.6303
   64SOL    HW1  254   0.306   1.757   0.784 -1.0313  0.4192  0.5755
   64SOL    HW2  255   0.154   1.723   0.825 -0.3923  1.5094  2.0682
   64SOL     MW  256   0.245   1.719   0.834  0.5297 -0.0315 -0.1151
   65SOL     OW  257   1.583   2.312   0.447 -0.2612  0.2597  0.0312
   65SOL    HW1  258   1.665   2.308   0.495 -0.1652  1.2071  0.9662
   65SOL    HW2  259   1.528   2.358   0.510  3.6692 -0.7476  2.0111
   65SOL     MW  260   1.586   2.317   0.461  0.2700  0.2518  0.4158
   66SOL     OW  261   0.316   0.543   0.497  0.1480  0.0887 -0.6904
   66SOL    HW1  262   0.374   0.526   0.428  0.2289  1.6658  0.9232
   66SOL    HW2  263   0.316   0.638   0.498  1.1001 -0.1534 -3.1524
   66SOL     MW  264   0.323   0.553   0.488  0.2843  0.2649 -0.8024
   67SOL     OW  265   1.469   0.132   1.989 -0.3022 -0.2549  0.4647
   67SOL    HW1  266   1.493   0.142   1.899 -1.9124 -0.0823 -1.2755
   67SOL    HW2  267   1.396   0.068   2.000 -0.4728  2.0159 -0.2658
   67SOL     MW  268   1.462   0.125   1.979 -0.5372  0.0675  0.1387
   68SOL     OW  269   0.697   0.086   2.983  0.1659 -0.0466 -0.4465
   68SOL    HW1  270   0.721   0.134   2.904  2.1409  1.7146  0.4816
   68SOL    HW2  271   0.762   0.091   3.052 -2.5591  0.1240 -2.9130
   68SOL     MW  272   0.709   0.093   2.981  0.0670  0.2083 -0.6494
   69SOL     OW  273   0.982   0.190   1.997 -0.9124 -0.1863  0.1081
   69SOL    HW1  274   1.071   0.226   2.002 -1.9928  2.9422 -0.8688
   69SOL    HW2  275   0.985   0.105   2.046  1.5738  0.0297 -0.4191
   69SOL     MW  276   0.994   0.184   2.004 -0.7269  0.2550 -0.0903
   70SOL     OW  277   0.558   1.763   1.143 -0.3207 -1.0195 -0.4479
   70SOL    HW1  278   0.597   1.709   1.215  0.1795  1.2723 -1.7261
   70SOL    HW2  279   0.638   1.793   1.096  0.9873 -0.7398  0.6983
   70SOL     MW  280   0.574   1.760   1.146 -0.0821 -0.6802 -0.4653
   71SOL     OW  281   1.599   0.493   1.204 -0.1874  0.4790 -0.5809
   71SOL    HW1  282   1.587   0.568   1.263 -0.4475 -1.5910 -0.8652
   71SOL    HW2  283   1.575   0.534   1.120  1.7718  1.0061  0.3693
   71SOL     MW  284   1.594   0.508   1.201  0.0368  0.2754 -0.4931
   72SOL     OW  285   0.804   1.836   1.033  0.1333 -0.2589 -0.4077
   72SOL    HW1  286   0.766   1.884   0.961  3.0789  1.0145 -1.0888
   72SOL    HW2  287   0.807   1.743   0.999  0.8366 -0.4380  1.9644
   72SOL     MW  288   0.799   1.830   1.019  0.6147 -0.1145 -0.1846
   73SOL     OW  289   1.187   0.726   1.286  0.5006 -0.0293  0.1764
   73SOL    HW1  290   1.142   0.639   1.299 -2.1727  1.6083 -1.8900
   73SOL    HW2  291   1.137   0.794   1.329 -2.2593 -0.9701 -1.8509
   73SOL     MW  292   1.175   0.724   1.294 -0.2163  0.0626 -0.3637
   74SOL     OW  293   2.784   0.241   1.131 -0.0762  0.3194  0.2256
   74SOL    HW1  294   2.856   0.234   1.069  3.0533  2.8759  0.2899
   74SOL    HW2  295   2.701   0.256   1.082  1.6563  1.5380  1.7099
   74SOL     MW  296   2.782   0.242   1.116  0.5653  0.8175  0.4299
   75SOL     OW  297   1.562   1.407   0.113  0.1110 -0.7064  0.0375
   75SOL    HW1  298   1.633   1.457   0.074  1.8269 -1.7057 -1.3865
   75SOL    HW2  299   1.593   1.372   0.196 -1.7797  0.3626 -1.7098
   75SOL     MW  300   1.576   1.409   0.119  0.0879 -0.6972 -0.3809
   76SOL     OW  301   2.968   0.589   0.471  0.4775 -0.5340 -0.4459
   76SOL    HW1  302   3.003   0.634   0.553  0.7761  0.2084 -0.8141
   76SOL    HW2  303   3.045   0.542   0.434  1.5390  0.2566  1.1752
   76SOL     MW  304   2.983   0.589   0.477  0.6570 -0.3317 -0.2806
   77SOL     OW  305   0.801   0.558   0.479 -0.4337 -0.0336  0.1702
   77SOL    HW1  306   0.782   0.556   0.384  1.3100 -0.4183 -0.5965
   77SOL    HW2  307   0.802   0.462   0.502 -0.1729  0.6841 -1.9080
   77SOL     MW  308   0.799   0.545   0.469 -0.1692  0.0103 -0.2051
   78SOL     OW  309   0.754   0.855   1.189 -0.2669 -0.4790 -0.1175
   78SOL    HW1  310   0.786   0.934   1.133 -0.5602  0.2921 -1.4465
   78SOL    HW2  311   0.664   0.837   1.168 -1.1633 -1.9042  0.1521
   78SOL     MW  312   0.746   0.863   1.179 -0.4239 -0.5653 -0.2572
   79SOL     OW  313   1.916   1.656   0.634  0.1106  0.0610  0.3059
   79SOL    HW1  314   1.832   1.629   0.595 -0.4157 -0.6931 -0.0068
   79SOL    HW2  315   1.900   1.644   0.728 -0.7823 -1.9489  0.4962
   79SOL     MW  316   1.903   1.651   0.642 -0.0767 -0.3037  0.2897
   80SOL     OW  317   0.070   0.934   0.345  0.2293 -0.1085  0.4451
   80SOL    HW1  318  -0.019   0.906   0.372  1.5719  3.7483  2.2357
   80SOL    HW2  319   0.124   0.876   0.399 -1.9465  0.4004  0.7642
   80SOL     MW  320   0.065   0.923   0.355  0.1193  0.4675  0.7234
   81SOL     OW  321   1.855   1.903   0.316 -0.1891 -0.4123  0.1032
   81SOL    HW1  322   1.840   1.812   0.284 -2.5531  2.6325 -0.9450
   81SOL    HW2  323   1.788   1.954   0.265 -2.1465  2.0411 -1.8297
   81SOL     MW  324   1.844   1.898   0.305 -0.7592  0.3131 -0.2901
   82SOL     OW  325   0.835   0.989   0.531  0.3619  0.3798 -0.4860
   82SOL    HW1  326   0.838   1.024   0.443 -0.6197  0.5736  1.2395
   82SOL    HW2  327   0.814   0.898   0.533  1.8105 -0.7329  0.0449
   82SOL     MW  328   0.832   0.981   0.520  0.4235  0.2586 -0.1883
   83SOL     OW  329   0.063   0.728   1.468 -0.4835  0.6081  0.5623
   83SOL    HW1  330   0.069   0.810   1.414  3.0519 -0.7833 -0.3375
   83SOL    HW2  331   0.149   0.710   1.496 -2.3241  1.1508 -0.7326
   83SOL     MW  332   0.075   0.737   1.464 -0.2599  0.4961  0.2727
   84SOL     OW  333   0.070   0.173   0.943 -0.3253 -0.0102 -0.6405
   84SOL    HW1  334   0.024   0.259   0.965 -2.0959  0.6109 -0.4185
   84SOL    HW2  335   0.092   0.136   1.033 -3.4350 -1.8610 -0.5169
   84SOL     MW  336   0.067   0.180   0.958 -0.9692 -0.1725 -0.5949
   85SOL     OW  337   0.434   0.448   0.742  0.1947  0.0575 -0.3946
   85SOL    HW1  338   0.392   0.472   0.660  0.8511 -1.0419  0.5957
   85SOL    HW2  339   0.419   0.355   0.751 -0.0598 -2.8318  0.9393
   85SOL     MW  340   0.427   0.439   0.733  0.2477 -0.4688 -0.0879
   86SOL     OW  341   1.165   0.261   1.127  0.5227 -0.1722 -0.1945
   86SOL    HW1  342   1.131   0.352   1.141 -2.7630  1.1022  0.2124
   86SOL    HW2  343   1.241   0.265   1.186  0.5379  0.0848  1.7330
   86SOL     MW  344   1.171   0.273   1.136  0.0912  0.0299  0.1135
   87SOL     OW  345   1.154   1.521   1.249 -0.0569 -0.2707 -0.5190
   87SOL    HW1  346   1.203   1.590   1.204 -0.5744  1.8062 -0.9208
   87SOL    HW2  347   1.177   1.442   1.196  0.2940  1.8191  2.3900
   87SOL     MW  348   1.163   1.520   1.236 -0.0789  0.2791 -0.1882
   88SOL     OW  349   1.182   1.050   0.976 -0.1100 -0.7505 -0.0627
   88SOL    HW1  350   1.275   1.032   0.967  3.1300 -1.0649 -2.4519
   88SOL    HW2  351   1.167   1.121   1.043 -0.7373 -2.7224  0.5457
   88SOL     MW  352   1.192   1.057   0.984  0.2347 -1.0521 -0.2977
   89SOL     OW  353   1.770   0.755   0.328  0.2589  0.0478  0.2581
   89SOL    HW1  354   1.763   0.659   0.335  1.7845 -1.0177 -1.3067
   89SOL    HW2  355   1.866   0.771   0.304  0.9457  0.6830 -1.3874
   89SOL     MW  356   1.782   0.745   0.326  0.5508 -0.0090 -0.1655
   90SOL     OW  357   0.825   1.114   2.807  0.2210  1.1538  0.5061
   90SOL    HW1  358   0.861   1.029   2.833 -0.4596  2.9906 -0.4782
   90SOL    HW2  359   0.837   1.165   2.891  2.5997 -1.1279  0.9739
   90SOL     MW  360   0.832   1.109   2.821  0.4451  1.0951  0.4379
   91SOL     OW  361   2.156   0.692   0.491  0.0295  0.0937 -0.3169
   91SOL    HW1  362   2.229   0.743   0.459 -1.8826 -1.7354  0.7614
   91SOL    HW2  363   2.173   0.599   0.464  1.1774  3.2354  2.2240
   91SOL     MW  364   2.168   0.687   0.483 -0.0713  0.2669  0.1606
   92SOL     OW  365   1.750   0.912   0.580  0.1911 -0.4455 -0.2479
   92SOL    HW1  366   1.657   0.939   0.585  1.9055 -0.7827  0.1113
   92SOL    HW2  367   1.764   0.871   0.492  0.7694 -1.0299  0.6499
   92SOL     MW  368   1.740   0.910   0.569  0.4936 -0.5671 -0.0820
   93SOL     OW  369   1.051   0.178   0.415  0.3138 -0.5931  0.6237
   93SOL    HW1  370   0.964   0.213   0.442 -0.8480  0.1682 -0.4045
   93SOL    HW2  371   1.073   0.236   0.338  2.2702 -1.2232 -0.3893
   93SOL     MW  372   1.043   0.190   0.408  0.4186 -0.5758  0.3544
   94SOL     OW  373   1.853   1.384   1.642 -0.4431 -0.4531  0.1841
   94SOL    HW1  374   1.863   1.365   1.542 -2.1435 -1.1474  1.4230
   94SOL    HW2  375   1.836   1.295   1.675 -1.8624  0.6115  0.1894
   94SOL     MW  376   1.852   1.370   1.633 -0.8547 -0.4042  0.3483
   95SOL     OW  377   0.770   1.574   0.977 -0.8597  0.4543  0.1699
   95SOL    HW1  378   0.816   1.560   1.059  0.9153  0.4627 -1.6878
   95SOL    HW2  379   0.699   1.513   0.968 -1.0952  1.9831  0.0835
   95SOL     MW  380   0.767   1.564   0.987 -0.6565  0.6571 -0.0866
   96SOL     OW  381   1.312   1.892   1.717  0.1535 -0.4264 -0.2167
   96SOL    HW1  382   1.231   1.875   1.772  0.6134 -0.6042 -0.2087
   96SOL    HW2  383   1.318   1.808   1.675  0.8634  3.4925  2.4824
   96SOL     MW  384   1.302   1.879   1.719  0.3079  0.0672  0.1405
   97SOL     OW  385   1.129   1.450   0.873 -0.0374  0.2176  0.0654
   97SOL    HW1  386   1.167   1.526   0.920  1.5041 -0.8543  0.4877
   97SOL    HW2  387   1.052   1.493   0.826  0.7121 -1.9239  3.1143
   97SOL     MW  388   1.124   1.466   0.873  0.2649 -0.2064  0.5234
   98SOL     OW  389   1.486   1.276   1.098 -0.0546 -0.1583  0.2848
   98SOL    HW1  390   1.530   1.343   1.150 -0.7115  1.1943 -0.2703
   98SOL    HW2  391   1.478   1.322   1.008  0.4660 -0.7247 -0.7621
   98SOL     MW  392   1.490   1.291   1.093 -0.0726 -0.0545  0.0734
   99SOL     OW  393   1.417   0.279   1.307  0.6612 -0.0412  0.3404
   99SOL    HW1  394   1.481   0.329   1.260 -1.5944  0.1548 -0.5194
   99SOL    HW2  395   1.408   0.341   1.381 -1.8606  1.3982 -4.2290
   99SOL     MW  396   1.425   0.294   1.310  0.0309  0.1746 -0.3759
  100SOL     OW  397   1.049   1.201   1.368  0.4200 -0.3807  0.2479
  100SOL    HW1  398   1.058   1.237   1.456 -2.1601  0.6569 -0.0672
  100SOL    HW2  399   1.031   1.108   1.398 -1.2181 -0.0973  1.1890
  100SOL     MW  400   1.047   1.193   1.384 -0.1366 -0.2064  0.3305
  101SOL     OW  401   0.470   1.193   0.313 -0.3590  0.0528  0.4090
  101SOL    HW1  402   0.422   1.121   0.276 -1.1166  3.7686 -2.0019
  101SOL    HW2  403   0.548   1.197   0.263  3.1791  0.3717  2.6543
  101SOL     MW  404   0.474   1.184   0.301  0.0079  0.5851  0.3872
  102SOL     OW  405   2.905   0.648   0.973 -0.1016 -0.1481  0.2047
  102SOL    HW1  406   2.961   0.732   0.978 -0.7861  0.2710 -2.5354
  102SOL    HW2  407   2.882   0.622   1.063 -0.6249 -0.1440  0.4523
  102SOL     MW  408   2.909   0.656   0.986 -0.2609 -0.0923 -0.1242
  103SOL     OW  409   1.721   0.246   1.876  1.0317 -0.4664 -0.2838
  103SOL    HW1  410   1.745   0.155   1.853  2.1507  1.7419  1.2412
  103SOL    HW2  411   1.683   0.241   1.966 -0.0014 -0.8494  3.5430
  103SOL     MW  412   1.719   0.233   1.885  1.0430 -0.2255  0.4223
  104SOL     OW  413   0.158   1.524   1.570  0.2560  0.2036 -0.3614
  104SOL    HW1  414   0.192   1.448   1.608 -2.0489 -0.3185 -1.1351
  104SOL    HW2  415   0.064   1.513   1.574 -1.4787  0.6150 -0.9311
  104SOL     MW  416   0.150   1.512   1.576 -0.2770  0.1890 -0.5387
  105SOL     OW  417   0.041   1.187   0.418 -0.3878 -0.2385  0.1206
  105SOL    HW1  418   0.080   1.092   0.395 -0.2853 -1.1556  0.2261
  105SOL    HW2  419   0.120   1.250   0.413  1.7961  0.0769  0.5183
  105SOL     MW  420   0.057   1.183   0.414 -0.0861 -0.3179  0.1870
  106SOL     OW  421   0.823   0.398   1.011  0.4543  0.1752  0.1421
  106SOL    HW1  422   0.755   0.467   0.988  1.6580  0.8908  0.5176
  106SOL    HW2  423   0.876   0.373   0.928 -0.9379  1.5526 -1.2781
  106SOL     MW  424   0.821   0.404   0.997  0.4294  0.4514  0.0043
  107SOL     OW  425   0.802   2.142   2.911  0.1229 -0.1460  0.1672
  107SOL    HW1  426   0.722   2.136   2.858  1.3660 -1.7694  0.3317
  107SOL    HW2  427   0.790   2.121   3.009 -1.1355 -2.1109  0.2918
  107SOL     MW  428   0.790   2.139   2.917  0.1209 -0.6194  0.2054
  108SOL     OW  429   1.328   1.628   1.633 -0.3110  0.7041  0.1245
  108SOL    HW1  430   1.250   1.622   1.565  0.3772  3.6374  1.9699
  108SOL    HW2  431   1.400   1.573   1.609 -2.4151 -1.5166  1.2492
  108SOL     MW  432   1.327   1.620   1.621 -0.4978  0.7981  0.5164
  109SOL     OW  433   2.027   0.756   0.268 -0.5746 -0.3311  0.5188
  109SOL    HW1  434   2.076   0.842   0.271  1.4176 -0.7621  0.8575
  109SOL    HW2  435   2.059   0.719   0.349  0.7891  0.5064 -0.4244
  109SOL     MW  436   2.038   0.763   0.279 -0.1318 -0.2775  0.4390
  110SOL     OW  437   0.406   1.925   0.625  0.1853  0.4104  0.3638
  110SOL    HW1  438   0.416   1.851   0.563 -2.0808 -1.5093 -2.3713
  110SOL    HW2  439   0.398   2.000   0.563 -0.5660 -2.2491  0.3937
  110SOL     MW  440   0.407   1.925   0.609 -0.2128 -0.1938  0.0068
  111SOL     OW  441   0.751   0.864   1.466 -0.2223  0.5865 -0.5150
  111SOL    HW1  442   0.735   0.861   1.372 -1.2077 -3.0148  0.2570
  111SOL    HW2  443   0.750   0.771   1.483  2.5757  0.4610  1.8253
  111SOL     MW  444   0.749   0.852   1.456  0.0168  0.0948 -0.1043
  112SOL     OW  445   1.317   1.091   1.636 -0.2818 -0.2261 -0.1851
  112SOL    HW1  446   1.252   1.156   1.654  1.0137 -0.7722  1.5834
  112SOL    HW2  447   1.276   1.002   1.643  0.3810 -0.5877  0.9700
  112SOL     MW  448   1.303   1.088   1.639 -0.0235 -0.3459  0.2006
  113SOL     OW  449   1.258   3.065   1.735 -0.5242 -0.4559  0.1118
  113SOL    HW1  450   1.239   3.043   1.826  1.7649 -2.0894  0.2981
  113SOL    HW2  451   1.269   2.979   1.689 -1.4066 -1.1355 -2.9059
  113SOL     MW  452   1.257   3.051   1.741 -0.3386 -0.7611 -0.2618
  114SOL     OW  453   0.244   2.875   1.876 -0.1595 -0.0178 -0.2054
  114SOL    HW1  454   0.314   2.911   1.928 -2.1839  0.9057 -2.5273
  114SOL    HW2  455   0.192   2.956   1.856 -0.6981  3.5500 -2.4661
  114SOL     MW  456   0.247   2.890   1.880 -0.4977  0.5748 -0.8100
  115SOL     OW  457   0.487   0.864   1.110 -0.2469  0.0110  0.0182
  115SOL    HW1  458   0.487   0.778   1.146  4.1177  0.7478  2.2355
  115SOL    HW2  459   0.457   0.912   1.189 -0.5085  2.2270 -0.1176
  115SOL     MW  460   0.483   0.859   1.125  0.2944  0.4006  0.2929
  116SOL     OW  461   0.784   1.088   1.011  0.1841 -0.4333 -0.2116
  116SOL    HW1  462   0.817   1.121   0.924 -0.1978 -0.2473 -0.1439
  116SOL    HW2  463   0.796   1.157   1.086 -1.1062  2.8221 -0.3421
  116SOL     MW  464   0.790   1.102   1.009 -0.0365  0.0208 -0.2199
  117SOL     OW  465   1.143   1.199   0.759 -0.1212  0.1229  0.6056
  117SOL    HW1  466   1.150   1.147   0.842  2.2067 -0.2781 -0.9458
  117SOL    HW2  467   1.157   1.288   0.794 -0.6214  4.0523 -0.5129
  117SOL     MW  468   1.146   1.204   0.775  0.1200  0.5884  0.2534
  118SOL     OW  469   3.030   2.972   1.649  0.2868 -0.2033  0.1460
  118SOL    HW1  470   3.097   3.023   1.701 -1.3168  1.1077 -0.1675
  118SOL    HW2  471   2.943   3.012   1.668 -1.2676  2.9060 -2.3828
  118SOL     MW  472   3.028   2.984   1.658 -0.1299  0.3800 -0.2290
  119SOL     OW  473   0.464   1.480   1.215 -0.4289 -0.7304  0.2132
  119SOL    HW1  474   0.495   1.551   1.162  0.4857  0.0426 -0.9826
  119SOL    HW2  475   0.366   1.474   1.201 -1.6553  1.9360 -0.0643
  119SOL     MW  476   0.455   1.488   1.206 -0.4701 -0.2766  0.0188
  120SOL     OW  477   0.265   0.729   0.961 -0.3479 -0.9496  0.5239
  120SOL    HW1  478   0.280   0.669   1.034  0.1403 -1.7451 -1.6686
  120SOL    HW2  479   0.340   0.790   0.971  0.9542 -0.7820  2.0568
  120SOL     MW  480   0.277   0.729   0.972 -0.1117 -1.0325  0.4368
  121SOL     OW  481   1.791   1.100   1.687 -0.0333  0.3895  0.0218
  121SOL    HW1  482   1.701   1.086   1.673 -1.7622 -1.2329 -3.0433
  121SOL    HW2  483   1.830   1.038   1.622  1.3015  4.9143 -1.0654
  121SOL     MW  484   1.784   1.090   1.677 -0.0853  0.7724 -0.5260
  122SOL     OW  485   0.178   0.506   0.832  0.2029  0.5749  0.5488
  122SOL    HW1  486   0.249   0.456   0.795  0.1988  2.4678  0.4949
  122SOL    HW2  487   0.220   0.584   0.868 -1.3942 -0.5383 -0.4572
  122SOL     MW  488   0.193   0.510   0.832 -0.0083  0.6778  0.4090
  123SOL     OW  489   1.856   1.156   0.482 -0.2605  0.3199 -0.5489
  123SOL    HW1  490   1.804   1.086   0.531 -0.6748 -0.4894 -0.7950
  123SOL    HW2  491   1.891   1.208   0.556 -1.7785 -0.1379  0.4673
  123SOL     MW  492   1.853   1.153   0.499 -0.5154  0.1527 -0.4473
  124SOL     OW  493   0.630   0.557   0.936 -0.1294 -0.0518 -0.1226
  124SOL    HW1  494   0.562   0.545   0.872 -1.1606 -0.8193  1.3509
  124SOL    HW2  495   0.655   0.656   0.929  2.4184 -1.0066 -1.1899
  124SOL     MW  496   0.625   0.569   0.927  0.0707 -0.2790 -0.0690
  125SOL     OW  497   0.697   1.770   1.736  0.2162  0.3602  0.0915
  125SOL    HW1  498   0.629   1.708   1.702  0.5924 -1.4291  0.3167
  125SOL    HW2  499   0.676   1.855   1.707  1.3386 -3.0455  1.8650
  125SOL     MW  500   0.686   1.773   1.728  0.4139 -0.3252  0.3552
  126SOL     OW  501   2.111   1.602   1.983  0.3023 -0.4319  0.1966
  126SOL    HW1  502   2.175   1.676   1.971 -0.0557 -0.5192  0.0837
  126SOL    HW2  503   2.165   1.536   2.021 -0.5872  1.7295  0.9034
  126SOL     MW  504   2.127   1.603   1.987  0.1377 -0.1583  0.2750
  127SOL     OW  505   0.576   0.800   1.819 -0.3911  0.1134 -0.4732
  127SOL    HW1  506   0.662   0.795   1.866  0.0290  0.9562 -1.2072
  127SOL    HW2  507   0.536   0.881   1.855  0.4653  0.0389  3.3086
  127SOL     MW  508   0.582   0.810   1.830 -0.2227  0.2148 -0.0711
  128SOL     OW  509   1.737   0.715   2.892  0.3985 -0.4643  0.2117
  128SOL    HW1  510   1.765   0.708   2.801 -1.1963  2.6772  1.2387
  128SOL    HW2  511   1.729   0.809   2.914  0.3192 -0.4223  0.0713
  128SOL     MW  512   1.739   0.726   2.883  0.1776 -0.0442  0.3287
  129SOL     OW  513   1.630   0.908   0.141  0.3156  0.2009 -0.5551
  129SOL    HW1  514   1.538   0.884   0.119 -0.3448  0.9257  1.4553
  129SOL    HW2  515   1.676   0.841   0.191 -1.9401 -0.8775 -1.1917
  129SOL     MW  516   1.624   0.896   0.145 -0.0692  0.1543 -0.3738
  130SOL     OW  517   0.786   1.373   0.292  0.7156  0.0417 -0.5552
  130SOL    HW1  518   0.806   1.395   0.380 -1.9499  0.6299 -0.4423
  130SOL    HW2  519   0.823   1.443   0.237  0.4053 -2.4259 -0.2050
  130SOL     MW  520   0.793   1.385   0.296  0.3230 -0.2063 -0.4941
  131SOL     OW  521   3.040   0.854   0.020 -0.0494 -0.0898 -0.4394
  131SOL    HW1  522   3.069   0.883  -0.066 -0.1769 -0.0275 -2.9611
  131SOL    HW2  523   3.112   0.821   0.066 -0.7400 -1.3554  0.1174
  131SOL     MW  524   3.054   0.853   0.015 -0.1573 -0.2485 -0.6987
  132SOL     OW  525   2.687   0.121   1.357  0.6302  0.5449 -0.3391
  132SOL    HW1  526   2.723   0.166   1.281 -0.8984  1.6682 -1.8461
  132SOL    HW2  527   2.597   0.102   1.322 -0.0777 -0.5466  0.6397
  132SOL     MW  528   2.680   0.124   1.342  0.3351  0.5491 -0.4088
  133SOL     OW  529   1.070   0.170   1.705 -0.4110  0.0951 -0.4898
  133SOL    HW1  530   1.121   0.085   1.701 -1.1073 -1.8062  2.5687
  133SOL    HW2  531   1.040   0.164   1.796  1.4735  2.1035 -0.2960
  133SOL     MW  532   1.073   0.158   1.716 -0.2543  0.1092 -0.0607
  134SOL     OW  533   1.400   2.512   1.391  0.1555 -0.0249 -0.1224
  134SOL    HW1  534   1.346   2.593   1.402  0.3002  0.1898  0.2563
  134SOL    HW2  535   1.459   2.528   1.460  1.0477 -0.4509 -0.2873
  134SOL     MW  536   1.401   2.525   1.402  0.2923 -0.0528 -0.0942
  135SOL     OW  537   2.998   0.973   2.867 -0.6585 -0.2030 -0.1636
  135SOL    HW1  538   3.070   1.045   2.889  4.1249  0.2932 -0.1389
  135SOL    HW2  539   2.916   1.014   2.889  0.3659 -1.3537  0.5842
  135SOL     MW  540   2.997   0.988   2.873  0.1078 -0.2893 -0.0617
  136SOL     OW  541   0.210   2.033   0.785  0.2504  0.0687 -0.1140
  136SOL    HW1  542   0.146   1.957   0.791  2.3569 -0.7177 -0.5343
  136SOL    HW2  543   0.283   2.001   0.727  2.6294 -0.6669  0.8315
  136SOL     MW  544   0.211   2.019   0.778  0.8422 -0.1321 -0.0447
  137SOL     OW  545   0.694   2.016   0.500 -0.1011  0.4843 -0.3763
  137SOL    HW1  546   0.691   1.991   0.590  2.6098  0.2039 -0.0641
  137SOL    HW2  547   0.604   2.029   0.465 -2.2992 -2.1963  1.1510
  137SOL     MW  548   0.682   2.015   0.507 -0.0334  0.0936 -0.1336
  138SOL     OW  549   0.508   0.600   1.172 -0.3075 -0.2262  0.5292
  138SOL    HW1  550   0.422   0.555   1.168 -2.0135 -0.5990 -2.6515
  138SOL    HW2  551   0.549   0.577   1.088 -1.2392  0.8266 -1.5343
  138SOL     MW  552   0.502   0.591   1.160 -0.6555 -0.1365 -0.1627
  139SOL     OW  553   2.867   0.565   1.230  0.1857 -0.5567  0.5410
  139SOL    HW1  554   2.936   0.514   1.282  0.9367  1.4665 -0.6071
  139SOL    HW2  555   2.849   0.634   1.294 -1.0476 -1.2372  1.4446
  139SOL     MW  556   2.874   0.567   1.245  0.1220 -0.3796  0.5088
  140SOL     OW  557   0.961   0.496   2.040  0.4086  0.4166 -0.6292
  140SOL    HW1  558   0.981   0.427   1.972  1.2515 -0.1657  0.3104
  140SOL    HW2  559   0.944   0.446   2.118 -3.3547 -0.8435  0.6091
  140SOL     MW  560   0.961   0.480   2.041  0.0233  0.1735 -0.3419
  141SOL     OW  561   1.018   0.643   1.716 -0.1181  0.1739 -0.6205
  141SOL    HW1  562   1.079   0.576   1.693  0.5628  0.3593 -1.4239
  141SOL    HW2  563   1.074   0.720   1.706 -3.2034 -0.7638 -0.0619
  141SOL     MW  564   1.034   0.645   1.712 -0.4354  0.0747 -0.6528
  142SOL     OW  565   0.883   1.119   0.769 -0.6593 -0.2191  0.2133
  142SOL    HW1  566   0.875   1.063   0.683 -2.4244  1.2260 -0.5962
  142SOL    HW2  567   0.971   1.159   0.767  0.7782 -0.5456 -2.2236
  142SOL     MW  568   0.894   1.117   0.758 -0.7025 -0.0715 -0.2150
  143SOL     OW  569   1.819   0.729   1.058 -0.4535 -0.7784  0.5526
  143SOL    HW1  570   1.873   0.697   0.981  0.9318  2.6523 -1.7041
  143SOL    HW2  571   1.732   0.696   1.044 -0.3716  0.9360 -0.0422
  143SOL     MW  572   1.815   0.721   1.046 -0.2599 -0.0995  0.1764
  144SOL     OW  573   0.284   1.297   1.685 -0.9221  0.6193 -0.0323
  144SOL    HW1  574   0.365   1.245   1.660 -0.8805 -0.3949  1.5508
  144SOL    HW2  575   0.293   1.294   1.785  1.4294 -1.4427  0.9102
  144SOL     MW  576   0.296   1.290   1.695 -0.6063  0.2134  0.3009
  145SOL     OW  577   0.232   0.499   1.179  0.0467  0.4248 -0.1964
  145SOL    HW1  578   0.255   0.421   1.226 -0.2066  0.7394 -1.3508
  145SOL    HW2  579   0.151   0.478   1.138 -3.9368 -3.5966  3.1569
  145SOL     MW  580   0.224   0.486   1.180 -0.5123 -0.0643  0.0937
  146SOL     OW  581   0.830   1.992   1.414  0.5236  0.1340 -0.0307
  146SOL    HW1  582   0.900   1.989   1.344  2.6824  0.5576 -2.5942
  146SOL    HW2  583   0.746   1.971   1.370  0.3605  1.3082  1.7113
  146SOL     MW  584   0.828   1.989   1.399  0.7869  0.3449 -0.1391
  147SOL     OW  585   0.359   0.482   3.000 -0.1731  0.2350 -0.4725
  147SOL    HW1  586   0.310   0.478   3.080  2.0136  1.3955 -1.8113
  147SOL    HW2  587   0.300   0.525   2.935 -0.3612  1.4729 -0.3412
  147SOL     MW  588   0.345   0.487   3.002  0.0906  0.5514 -0.6319
  148SOL     OW  589   0.093   0.956   1.310 -0.6555 -0.0322 -0.1924
  148SOL    HW1  590   0.184   0.977   1.302  1.6339  0.9069  3.8941
  148SOL    HW2  591   0.041   1.037   1.335  2.4273  2.2421 -1.0101
  148SOL     MW  592   0.098   0.970   1.312  0.0533  0.3918  0.2389
  149SOL     OW  593   1.456   1.093   1.381  0.6418 -0.3009  0.1015
  149SOL    HW1  594   1.401   1.083   1.457 -1.4526 -1.9323 -1.6735
  149SOL    HW2  595   1.492   1.184   1.383  1.7412 -0.3235 -1.6223
  149SOL     MW  596   1.454   1.104   1.391  0.5105 -0.5191 -0.3601
  150SOL     OW  597   1.742   1.369   0.774 -0.1452  0.0404  0.2250
  150SOL    HW1  598   1.791   1.291   0.773 -1.4638  0.4795 -0.2760
  150SOL    HW2  599   1.787   1.433   0.823 -1.2255 -2.5687 -0.7593
  150SOL     MW  600   1.754   1.367   0.780 -0.4617 -0.2459  0.0290
  151SOL     OW  601   1.665   1.798   0.795 -0.2211  0.7078  0.0987
  151SOL    HW1  602   1.672   1.813   0.700 -1.2634 -0.2907 -2.9567
  151SOL    HW2  603   1.581   1.760   0.810  2.2082  0.9205  1.1616
  151SOL     MW  604   1.655   1.795   0.784 -0.0381  0.6042 -0.1642
  152SOL     OW  605   0.794   1.439   1.624  0.2790  0.4108  0.2147
  152SOL    HW1  606   0.789   1.380   1.699 -3.8672  1.5628  1.1582
  152SOL    HW2  607   0.847   1.397   1.553  1.1308 -3.1470 -0.7640
  152SOL     MW  608   0.801   1.426   1.624 -0.1557  0.0934  0.2101
  153SOL     OW  609   2.594   1.217   0.800 -0.2342  0.1946  0.2172
  153SOL    HW1  610   2.670   1.184   0.751  0.0606 -0.2352 -1.1901
  153SOL    HW2  611   2.546   1.138   0.787  3.3225  0.4654 -0.5547
  153SOL     MW  612   2.598   1.202   0.792  0.2739  0.1736 -0.0703
  154SOL     OW  613   0.157   1.761   1.709 -0.1021 -0.4347  0.1117
  154SOL    HW1  614   0.153   1.683   1.662 -1.4612  0.3512 -0.5769
  154SOL    HW2  615   0.231   1.749   1.772  0.7723  2.1585 -0.6536
  154SOL     MW  616   0.166   1.749   1.711 -0.1660  0.0111 -0.0801
  155SOL     OW  617   1.161   0.685   0.274 -0.2597 -0.5065  0.1404
  155SOL    HW1  618   1.150   0.634   0.352  1.5834  0.8842  2.1912
  155SOL    HW2  619   1.154   0.781   0.299  0.0370  1.7773 -2.8431
  155SOL     MW  620   1.158   0.691   0.287  0.0227 -0.0217  0.0173
  156SOL     OW  621   1.537   3.009   1.080  0.6736 -0.2111 -0.4300
  156SOL    HW1  622   1.601   3.060   1.131 -0.8052 -0.4287  1.3956
  156SOL    HW2  623   1.549   2.924   1.117 -0.4548 -0.6236  0.4449
  156SOL     MW  624   1.547   3.005   1.091  0.3296 -0.2943 -0.0737
  157SOL     OW  625   1.424   1.193   0.101  0.0422 -0.6347  0.0274
  157SOL    HW1  626   1.475   1.120   0.129 -4.0800  2.5022 -0.7645
  157SOL    HW2  627   1.485   1.275   0.107 -1.7926  1.6785 -0.4556
  157SOL     MW  628   1.439   1.194   0.105 -0.7438  0.0844 -0.1408
  158SOL     OW  629   0.406   1.628   2.251 -0.4068 -0.1540  0.4947
  158SOL    HW1  630   0.420   1.707   2.199 -0.0091 -0.2535  1.0746
  158SOL    HW2  631   0.374   1.666   2.332  0.6064 -0.7474 -1.1904
  158SOL     MW  632   0.404   1.644   2.255 -0.2207 -0.2454  0.3489
  159SOL     OW  633   1.276   1.716   0.478  0.6229 -0.1534 -0.0705
  159SOL    HW1  634   1.252   1.648   0.416  2.1044 -1.3273 -1.0953
  159SOL    HW2  635   1.191   1.735   0.525  2.6576  0.6906 -0.3329
  159SOL     MW  636   1.262   1.710   0.476  1.0868 -0.1969 -0.2403
  160SOL     OW  637   0.506   1.144   1.581  0.0323  0.2110 -0.5246
  160SOL    HW1  638   0.463   1.057   1.592  0.4233 -0.1170 -0.3265
  160SOL    HW2  639   0.598   1.125   1.596 -0.3641 -0.1949  1.4798
  160SOL     MW  640   0.512   1.130   1.585  0.0316  0.1142 -0.2340
  161SOL     OW  641   0.481   2.252   2.545 -0.2260 -0.3077 -0.3924
  161SOL    HW1  642   0.387   2.275   2.555 -3.8762 -0.4842 -0.2403
  161SOL    HW2  643   0.483   2.174   2.489 -0.2227 -1.8290 -0.8347
  161SOL     MW  644   0.469   2.244   2.539 -0.7072 -0.5317 -0.4307
  162SOL     OW  645   1.099   1.792   1.873 -0.4628 -0.2578 -0.6907
  162SOL    HW1  646   1.103   1.874   1.930 -2.3161  2.9383  1.2346
  162SOL    HW2  647   1.008   1.796   1.859 -0.2313 -1.6329 -0.1412
  162SOL     MW  648   1.087   1.803   1.879 -0.6768 -0.0176 -0.3642
  163SOL     OW  649   2.105   3.023   0.878 -0.9474  0.0369  0.1895
  163SOL    HW1  650   2.085   3.095   0.814 -0.2138 -0.7883  3.2962
  163SOL    HW2  651   2.079   2.938   0.834  1.3477 -3.1363 -1.7465
  163SOL     MW  652   2.099   3.021   0.864 -0.5478 -0.4907  0.3440
  164SOL     OW  653   0.310   0.224   0.808 -0.3173 -0.2926 -0.2681
  164SOL    HW1  654   0.224   0.215   0.859  0.4475  0.6564  0.6345
  164SOL    HW2  655   0.314   0.146   0.757  1.0595  0.7054  0.7554
  164SOL     MW  656   0.299   0.213   0.808 -0.0347 -0.0357 -0.0140
  165SOL     OW  657   1.315   1.309   0.341 -0.5657 -0.4080  0.2653
  165SOL    HW1  658   1.312   1.238   0.414 -0.7854 -2.6837 -2.0745
  165SOL    HW2  659   1.336   1.256   0.262 -2.3478 -0.0491 -0.6949
  165SOL     MW  660   1.317   1.293   0.340 -0.8298 -0.6609 -0.1701
  166SOL     OW  661   0.542   1.204   0.985 -0.0484  0.5104  0.0606
  166SOL    HW1  662   0.480   1.215   1.061  2.1131 -2.2828  0.7231
  166SOL    HW2  663   0.618   1.152   1.015  0.4738 -1.6671 -0.1508
  166SOL     MW  664   0.544   1.199   0.999  0.3057 -0.1454  0.1202
  167SOL     OW  665   0.813   1.098   0.262 -0.0307  0.2977 -0.2785
  167SOL    HW1  666   0.816   1.189   0.305 -0.1404 -1.2611  0.0025
  167SOL    HW2  667   0.890   1.084   0.202  2.3565 -0.7099 -1.0283
  167SOL     MW  668   0.824   1.108   0.260  0.2698 -0.0409 -0.3404
  168SOL     OW  669   1.720   1.656   3.032  0.0439  0.2556 -0.5920
  168SOL    HW1  670   1.649   1.711   3.016  2.5083 -3.3020  1.5718
  168SOL    HW2  671   1.719   1.568   2.998  0.6490 -2.0064  0.8573
  168SOL     MW  672   1.710   1.652   3.025  0.4489 -0.5122 -0.1153
  169SOL     OW  673   0.369   1.000   1.343 -0.0933 -0.0948  0.2280
  169SOL    HW1  674   0.415   0.952   1.414  1.5698  1.0276  0.1435
  169SOL    HW2  675   0.422   1.080   1.325 -2.6880  0.7161 -0.5017
  169SOL     MW  676   0.382   1.004   1.350 -0.2162  0.1603  0.1205
  170SOL     OW  677   1.095   1.542   1.514  0.1609  0.1969 -0.5695
  170SOL    HW1  678   1.032   1.612   1.510  0.7627  0.5460  1.9129
  170SOL    HW2  679   1.113   1.520   1.420 -0.6031 -2.1309 -2.4856
  170SOL     MW  680   1.089   1.548   1.501  0.1395 -0.0642 -0.4947
  171SOL     OW  681   0.561   1.373   0.618  0.1506  0.1546 -1.1006
  171SOL    HW1  682   0.537   1.419   0.697  1.5585 -1.1473  1.4765
  171SOL    HW2  683   0.544   1.276   0.624  0.5584 -0.0797 -3.8298
  171SOL     MW  684   0.555   1.366   0.629  0.3902 -0.0481 -1.1207
  172SOL     OW  685   0.879   0.306   1.278  0.0240  0.4646 -0.1876
  172SOL    HW1  686   0.918   0.304   1.190 -1.7382 -1.5230  1.0105
  172SOL    HW2  687   0.779   0.306   1.273 -2.2245 -0.7668 -0.2090
  172SOL     MW  688   0.871   0.306   1.266 -0.5052  0.0399 -0.0324
  173SOL     OW  689   0.465   1.759   0.283 -0.0624  0.0041 -0.4546
  173SOL    HW1  690   0.484   1.674   0.239  0.7702 -0.8892  1.0559
  173SOL    HW2  691   0.478   1.737   0.381  1.5370  0.6034 -0.0827
  173SOL     MW  692   0.469   1.745   0.290  0.2585 -0.0347 -0.2062
  174SOL     OW  693   1.842   0.914   1.496 -0.1334 -0.1523 -0.1097
  174SOL    HW1  694   1.799   0.831   1.513  0.1808 -0.8215 -0.3500
  174SOL    HW2  695   1.827   0.925   1.403 -1.7335  0.4077 -1.8871
  174SOL     MW  696   1.835   0.904   1.486 -0.3031 -0.1667 -0.3759
  175SOL     OW  697   0.482   1.502   0.196 -0.8587  0.0642  0.0403
  175SOL    HW1  698   0.424   1.428   0.169  1.8291  1.2065  0.3041
  175SOL    HW2  699   0.523   1.470   0.283  2.1277  0.3980  1.4300
  175SOL     MW  700   0.480   1.488   0.204 -0.1100  0.2590  0.2585
  176SOL     OW  701   0.177   1.472   1.194  0.2416 -0.0421  0.6003
  176SOL    HW1  702   0.160   1.399   1.124  0.8758 -3.5420 -5.1020
  176SOL    HW2  703   0.102   1.466   1.256  0.6528  0.9838  1.2500
  176SOL     MW  704   0.165   1.461   1.193  0.3795 -0.3685 -0.0663
  177SOL     OW  705   0.587   0.350   1.308 -0.5582 -0.2916  0.1813
  177SOL    HW1  706   0.579   0.440   1.259 -0.6358 -2.3112  0.1915
  177SOL    HW2  707   0.588   0.373   1.401 -0.2912  0.2656  0.3683
  177SOL     MW  708   0.586   0.365   1.314 -0.5332 -0.4845  0.2073
  178SOL     OW  709   3.062   0.555   2.959 -0.4418 -0.8493  0.8641
  178SOL    HW1  710   2.989   0.557   3.021  0.9247  2.3292 -0.7684
  178SOL    HW2  711   3.026   0.532   2.876  1.5082 -0.0616 -1.3563
  178SOL     MW  712   3.048   0.552   2.956 -0.0042 -0.3260  0.3558
  179SOL     OW  713   1.583   1.402   1.325  0.2695  0.1930  0.2599
  179SOL    HW1  714   1.547   1.424   1.414  1.2488  1.6220 -3.5118
  179SOL    HW2  715   1.674   1.422   1.341  0.5418 -0.6221  1.3729
  179SOL     MW  716   1.590   1.408   1.339  0.4346  0.2740 -0.0909
  180SOL     OW  717   2.979   0.223   0.447  0.1873 -0.4456  0.0731
  180SOL    HW1  718   2.945   0.248   0.356 -0.8661  1.4187  0.6232
  180SOL    HW2  719   3.046   0.299   0.449 -0.8798  1.8946  0.0570
  180SOL     MW  720   2.984   0.236   0.435 -0.0925  0.1091  0.1436
  181SOL     OW  721   1.119   1.340   3.060  0.4259 -0.0490 -0.3201
  181SOL    HW1  722   1.189   1.399   3.079 -0.3992  0.5185  0.4757
  181SOL    HW2  723   1.167   1.270   3.017 -1.6377 -1.1662  1.4076
  181SOL     MW  724   1.135   1.338   3.056  0.0448 -0.1215  0.0128
  182SOL     OW  725   0.465   0.878   1.576 -0.6131  0.7533  0.2982
  182SOL    HW1  726   0.383   0.835   1.611 -0.4000  1.5229  0.4888
  182SOL    HW2  727   0.529   0.847   1.647  4.2198 -0.0652 -2.5184
  182SOL     MW  728   0.462   0.869   1.590  0.0527  0.7468 -0.0483
  183SOL     OW  729   1.592   1.703   1.209  0.2873  0.6093  0.4808
  183SOL    HW1  730   1.675   1.738   1.234 -0.5131  0.7447  0.4737
  183SOL    HW2  731   1.581   1.619   1.256 -2.3530  1.3919 -0.1008
  183SOL     MW  732   1.602   1.697   1.219 -0.1667  0.7304  0.4032
  184SOL     OW  733   0.819   0.723   1.949 -0.2159  0.2110  0.0436
  184SOL    HW1  734   0.880   0.743   1.875  1.2523 -0.5782 -1.2730
  184SOL    HW2  735   0.848   0.632   1.973 -2.2286  1.7626  0.7437
  184SOL     MW  736   0.831   0.713   1.943 -0.2877  0.3116 -0.0377
  185SOL     OW  737   1.127   0.984   1.924 -0.2332  0.1965  0.3095
  185SOL    HW1  738   1.149   0.900   1.969  1.8275 -1.6626 -0.8131
  185SOL    HW2  739   1.157   1.052   1.981 -0.8135  1.7471 -0.7361
  185SOL     MW  740   1.134   0.982   1.938 -0.0379  0.1558  0.0235
  186SOL     OW  741   0.346   1.644   1.436 -0.1724  0.2757  0.6513
  186SOL    HW1  742   0.379   1.594   1.363 -1.7271  1.0346  1.0541
  186SOL    HW2  743   0.276   1.582   1.469  0.6599  0.2658 -1.7777
  186SOL     MW  744   0.342   1.629   1.431 -0.2677  0.3745  0.3840
  187SOL     OW  745   1.504   0.739   1.353  0.2102  0.2677 -0.1812
  187SOL    HW1  746   1.550   0.738   1.438 -0.5748  1.3530  0.2480
  187SOL    HW2  747   1.411   0.717   1.362 -0.7988 -1.1617  2.8783
  187SOL     MW  748   1.498   0.736   1.365 -0.0265  0.2223  0.2791
  188SOL     OW  749   1.887   1.165   0.868  0.1329  0.4272 -0.8290
  188SOL    HW1  750   1.880   1.160   0.960 -0.6908 -1.0122 -0.7563
  188SOL    HW2  751   1.939   1.089   0.845  0.5326  0.1947 -2.7115
  188SOL     MW  752   1.893   1.154   0.877  0.0770  0.2066 -1.0678
  189SOL     OW  753   0.685   0.820   0.870  0.2855 -0.6190 -0.8138
  189SOL    HW1  754   0.594   0.871   0.865  0.7626 -0.6631  3.0007
  189SOL    HW2  755   0.737   0.881   0.920 -4.6282  2.1073  0.0065
  189SOL     MW  756   0.680   0.835   0.876 -0.2998 -0.2651 -0.2023
  190SOL     OW  757   1.890   0.237   2.174 -0.1495 -0.0571  0.2669
  190SOL    HW1  758   1.928   0.228   2.259 -3.4072 -1.3214  0.1014
  190SOL    HW2  759   1.952   0.299   2.132 -1.0740 -2.2569  0.7038
  190SOL     MW  760   1.904   0.244   2.179 -0.7013 -0.5141  0.3027
  191SOL     OW  761   1.564   0.957   1.179  0.4033 -0.2930  0.9637
  191SOL    HW1  762   1.534   1.021   1.241  1.3458  0.8772 -0.3102
  191SOL    HW2  763   1.523   0.882   1.221 -1.5916  1.4442 -2.7952
  191SOL     MW  764   1.554   0.955   1.193  0.2645  0.0906  0.2997
  192SOL     OW  765   0.575   2.122   2.762 -0.1412  0.2493  0.0151
  192SOL    HW1  766   0.540   2.155   2.677 -0.3354 -0.8182 -1.7345
  192SOL    HW2  767   0.606   2.036   2.746 -3.0847 -1.8787  2.8507
  192SOL     MW  768   0.574   2.115   2.749 -0.5552 -0.1723  0.1584
  193SOL     OW  769   0.935   1.562   0.747 -0.3349  0.5628  0.4871
  193SOL    HW1  770   0.868   1.576   0.809  1.7502 -1.3094 -0.4176
  193SOL    HW2  771   0.892   1.488   0.691 -2.5380  0.1459 -1.1201
  193SOL     MW  772   0.921   1.554   0.748 -0.3505  0.2608  0.1557
  194SOL     OW  773   0.507   1.454   0.899 -0.6049 -0.7548  0.3238
  194SOL    HW1  774   0.518   1.371   0.950  1.8688 -1.2345  1.0276
  194SOL    HW2  775   0.409   1.456   0.887 -0.9325  2.0191  0.4205
  194SOL     MW  776   0.495   1.444   0.904 -0.3218 -0.4521  0.4294
  195SOL     OW  777   1.295   1.159   2.963 -0.0932  0.0404 -0.3056
  195SOL    HW1  778   1.345   1.151   3.047 -1.2645 -0.6156  2.0891
  195SOL    HW2  779   1.247   1.074   2.965  2.4847  1.3720 -2.2988
  195SOL     MW  780   1.295   1.147   2.974  0.0924  0.1295 -0.2526
  196SOL     OW  781   2.205   0.984   0.545  0.4273  0.1052 -0.2567
  196SOL    HW1  782   2.187   0.994   0.446 -1.5604 -1.0266 -0.2539
  196SOL    HW2  783   2.205   1.074   0.571 -1.5855 -0.7945 -0.1200
  196SOL     MW  784   2.203   0.998   0.535 -0.1005 -0.1628 -0.2383
  197SOL     OW  785   0.673   1.372   2.148 -0.2956 -0.4829  0.3505
  197SOL    HW1  786   0.692   1.282   2.097 -1.5084  0.0460 -1.2695
  197SOL    HW2  787   0.664   1.437   2.078  0.1421 -1.9429 -0.4232
  197SOL     MW  788   0.674   1.369   2.132 -0.3978 -0.6058  0.0347
  198SOL     OW  789   2.921   1.406   1.059 -0.1599 -0.4845 -0.6927
  198SOL    HW1  790   2.891   1.476   1.005 -1.8253  0.3441  0.8880
  198SOL    HW2  791   2.853   1.340   1.053 -0.0542  0.6560 -2.2766
  198SOL     MW  792   2.908   1.407   1.051 -0.3657 -0.2247 -0.6931
  199SOL     OW  793   0.578   1.407   1.858  0.8304 -0.3149 -0.0814
  199SOL    HW1  794   0.506   1.362   1.902  1.7822 -1.2843  2.2402
  199SOL    HW2  795   0.547   1.465   1.789  0.2426  2.1323 -0.9460
  199SOL     MW  796   0.565   1.409   1.855  0.8784 -0.1199  0.1108
  200SOL     OW  797   1.861   2.905   1.383 -0.3129  0.3196 -0.2279
  200SOL    HW1  798   1.914   2.937   1.302  2.0800 -2.0231 -0.0921
  200SOL    HW2  799   1.780   2.958   1.377 -1.1149  3.3482  0.2237
  200SOL     MW  800   1.858   2.916   1.372 -0.1030  0.4101 -0.1504
  201SOL     OW  801   0.982   0.376   0.801 -0.4452  0.0711 -0.1613
  201SOL    HW1  802   0.977   0.291   0.749  1.8556  0.5758 -0.3571
  201SOL    HW2  803   1.071   0.392   0.821  0.9304  0.9363  1.0492
  201SOL     MW  804   0.993   0.367   0.797  0.0399  0.2518 -0.0274
  202SOL     OW  805   1.506   1.591   0.902 -0.3173  0.5808  0.0401
  202SOL    HW1  806   1.506   1.508   0.859 -0.3926  0.6640  0.1068
  202SOL    HW2  807   1.547   1.574   0.986  0.2473  0.2110  0.2678
  202SOL     MW  808   1.511   1.578   0.907 -0.2528  0.5430  0.0789
  203SOL     OW  809   3.023   0.455   1.419  0.0041  0.3706  0.2332
  203SOL    HW1  810   3.090   0.385   1.413 -2.2070  0.5238  0.6160
  203SOL    HW2  811   3.075   0.530   1.444 -1.4774  0.8323 -1.3304
  203SOL     MW  812   3.038   0.456   1.421 -0.4831  0.4518  0.0774
  204SOL     OW  813   1.031   1.773   0.593 -0.2403  0.5774  0.0932
  204SOL    HW1  814   1.008   1.711   0.663 -0.4647 -1.8312 -0.0157
  204SOL    HW2  815   0.943   1.778   0.548 -0.8949  0.1167  2.0832
  204SOL     MW  816   1.016   1.765   0.596 -0.3563  0.1988  0.3414
  205SOL     OW  817   1.419   3.087   1.302 -0.4960  0.2276 -0.3083
  205SOL    HW1  818   1.435   3.049   1.212  2.8411 -3.1163 -1.0132
  205SOL    HW2  819   1.418   3.184   1.290  1.9197  0.8561 -2.4938
  205SOL     MW  820   1.421   3.095   1.289  0.2630 -0.1307 -0.6897
  206SOL     OW  821   0.488   3.086   1.413  0.1420  0.5601  0.4245
  206SOL    HW1  822   0.449   3.067   1.326  0.2588 -0.4814  2.1377
  206SOL    HW2  823   0.564   3.030   1.419 -1.8913 -0.8155 -0.5680
  206SOL     MW  824   0.493   3.076   1.402 -0.1109  0.2412  0.5196
  207SOL     OW  825   0.931   1.619   0.223 -0.6266 -0.3383  0.6726
  207SOL    HW1  826   0.944   1.685   0.156  1.2181  1.1150 -0.6260
  207SOL    HW2  827   1.022   1.587   0.244  0.3780 -0.1500 -1.3884
  207SOL     MW  828   0.944   1.624   0.217 -0.2507 -0.1217  0.2293
  208SOL     OW  829   0.736   1.659   1.315 -0.0937  0.5125  0.3802
  208SOL    HW1  830   0.767   1.687   1.403 -0.7854  1.2821  1.3815
  208SOL    HW2  831   0.808   1.604   1.294 -4.2564  0.4505  0.2677
  208SOL     MW  832   0.750   1.656   1.324 -0.7342  0.6059  0.4974
  209SOL     OW  833   1.551   0.493   2.874  0.2026  0.0057 -1.0346
  209SOL    HW1  834   1.615   0.569   2.883 -1.3306  1.9459 -2.6299
  209SOL    HW2  835   1.616   0.421   2.841  0.1977  0.4846 -0.1493
  209SOL     MW  836   1.568   0.493   2.871 -0.0003  0.3249 -1.1283
  210SOL     OW  837   1.463   1.338   0.813  0.1760  0.8503  1.1392
  210SOL    HW1  838   1.550   1.302   0.778 -1.1300 -0.7643  0.8811
  210SOL    HW2  839   1.411   1.369   0.740 -1.3810  1.6156  0.9622
  210SOL     MW  840   1.468   1.337   0.799 -0.2018  0.7383  1.0818
  211SOL     OW  841   1.716   0.252   0.989  0.0518  0.1819  0.7558
  211SOL    HW1  842   1.683   0.303   0.914 -0.1598  1.4772  0.3570
  211SOL    HW2  843   1.812   0.263   0.990  0.7519  2.6301  1.0050
  211SOL     MW  844   1.724   0.260   0.979  0.1163  0.6758  0.7361
  212SOL     OW  845   0.260   1.056   0.189  0.0865 -0.2290  0.1507
  212SOL    HW1  846   0.176   1.016   0.216 -0.1547  1.9486 -2.6396
  212SOL    HW2  847   0.311   0.984   0.157  1.7402  1.4578  0.6023
  212SOL     MW  848   0.255   1.041   0.188  0.2728  0.2809 -0.1579
  213SOL     OW  849   0.504   1.745   2.987 -0.1177  0.3431  0.3543
  213SOL    HW1  850   0.506   1.811   3.062 -0.2723  1.7698  1.6547
  213SOL    HW2  851   0.573   1.777   2.923  0.5373 -3.2623  1.0196
  213SOL     MW  852   0.514   1.758   2.988 -0.0517  0.0556  0.6136
  214SOL     OW  853   0.656   0.380   2.174 -0.1511 -0.0534  0.1415
  214SOL    HW1  854   0.585   0.447   2.198 -0.6532 -0.7313 -1.6799
  214SOL    HW2  855   0.656   0.357   2.083 -2.5966 -1.4072  2.0574
  214SOL     MW  856   0.646   0.386   2.165 -0.5400 -0.3215  0.1540
  215SOL     OW  857   0.500   0.698   2.640 -0.1600  0.0943 -0.2035
  215SOL    HW1  858   0.484   0.689   2.550  1.0804 -3.5261  3.3879
  215SOL    HW2  859   0.430   0.645   2.677  0.3324 -0.1247 -2.9014
  215SOL     MW  860   0.488   0.690   2.633  0.0686 -0.4123 -0.0856
  216SOL     OW  861   2.983   2.993   2.740  0.3512  0.3618  0.4620
  216SOL    HW1  862   2.913   3.000   2.804  0.3566 -0.6913 -3.3320
  216SOL    HW2  863   3.024   3.080   2.730 -0.8926 -0.0234  1.2337
  216SOL     MW  864   2.979   3.005   2.747  0.1878  0.1720  0.0632
  217SOL     OW  865   1.069   1.114   0.129  0.1506 -0.2830  0.1892
  217SOL    HW1  866   1.089   1.049   0.061 -0.7817  0.6223  0.5932
  217SOL    HW2  867   1.066   1.199   0.092 -4.0559 -0.5938  0.7292
  217SOL     MW  868   1.071   1.117   0.115 -0.5274 -0.2045  0.3137
  218SOL     OW  869   0.912   1.347   2.626 -0.2428 -0.1330  0.5253
  218SOL    HW1  870   0.920   1.285   2.701  0.5569 -1.7916  0.2507
  218SOL    HW2  871   0.988   1.403   2.643 -0.3994 -0.6677 -0.4789
  218SOL     MW  872   0.923   1.346   2.638 -0.1579 -0.4224  0.3566
  219SOL     OW  873   1.129   0.356   2.598 -0.1426 -0.3078 -0.2664
  219SOL    HW1  874   1.215   0.403   2.625  2.9854  0.6123  1.4374
  219SOL    HW2  875   1.073   0.425   2.574  0.7819 -1.5736  1.1936
  219SOL     MW  876   1.133   0.371   2.598  0.3921 -0.3534  0.1510
  220SOL     OW  877   1.710   0.450   2.211 -0.9891  0.0908  0.0173
  220SOL    HW1  878   1.637   0.461   2.153  0.9445  1.5438  0.4312
  220SOL    HW2  879   1.764   0.380   2.177  0.1313  0.9184  0.0666
  220SOL     MW  880   1.707   0.442   2.199 -0.5862  0.3917  0.0784
  221SOL     OW  881   0.343   1.310   2.919 -0.1978  0.0946 -0.3568
  221SOL    HW1  882   0.420   1.255   2.901  0.0130 -0.3711  2.4987
  221SOL    HW2  883   0.359   1.400   2.886  5.0524  0.9452 -1.2991
  221SOL     MW  884   0.355   1.314   2.912  0.5227  0.1454 -0.1044
  222SOL     OW  885   0.455   0.969   2.652  0.6330 -0.9532 -0.6591
  222SOL    HW1  886   0.378   0.978   2.591 -0.9715  4.5619  0.5745
  222SOL    HW2  887   0.473   0.876   2.650  0.5366  1.2526 -1.2359
  222SOL     MW  888   0.447   0.957   2.643  0.4086  0.0655 -0.5724
  223SOL     OW  889   0.100   2.028   2.526  0.0625 -0.2132  0.2645
  223SOL    HW1  890   0.101   1.985   2.613 -1.2037  1.4532 -0.3720
  223SOL    HW2  891   0.137   2.119   2.527  1.2273 -0.2049 -0.8235
  223SOL     MW  892   0.105   2.034   2.538  0.0491  0.0077  0.0370
  224SOL     OW  893   1.562   0.727   2.524 -0.4380 -0.5110 -0.5658
  224SOL    HW1  894   1.531   0.741   2.613  0.9769  0.2074 -1.2778
  224SOL    HW2  895   1.550   0.817   2.487  2.0453  2.7172  1.2718
  224SOL     MW  896   1.557   0.741   2.531  0.0763  0.0097 -0.4173
  225SOL     OW  897   2.942   1.468   2.299 -0.4806  0.2790 -0.1525
  225SOL    HW1  898   2.981   1.529   2.239 -2.4628  0.5379  0.2373
  225SOL    HW2  899   2.887   1.527   2.351 -0.5785  1.0239  3.3407
  225SOL     MW  900   2.940   1.484   2.298 -0.7550  0.4115  0.3599
  226SOL     OW  901   0.417   1.531   2.761 -0.0726  0.5199 -0.2524
  226SOL    HW1  902   0.512   1.508   2.739 -0.9362 -3.2452 -1.4080
  226SOL    HW2  903   0.401   1.624   2.740  1.3654 -0.7744  1.9944
  226SOL     MW  904   0.428   1.540   2.755  0.0032 -0.1476 -0.1084
  227SOL     OW  905   0.539   1.140   2.847 -0.3632  0.0461 -0.5127
  227SOL    HW1  906   0.627   1.105   2.841 -1.2267 -1.2154  0.1270
  227SOL    HW2  907   0.504   1.096   2.774  2.5939 -0.2906  0.4882
  227SOL     MW  908   0.546   1.129   2.837 -0.0870 -0.1648 -0.2962
  228SOL     OW  909   0.737   1.118   2.042 -0.0233  0.4859  0.3722
  228SOL    HW1  910   0.779   1.128   1.955 -0.3729  0.4689  0.9400
  228SOL    HW2  911   0.787   1.060   2.099  1.9294  2.8739  1.9985
  228SOL     MW  912   0.749   1.111   2.038  0.1882  0.7987  0.6617
  229SOL     OW  913   0.137   0.662   0.063  0.0267  0.2494  0.2018
  229SOL    HW1  914   0.090   0.626  -0.010 -0.8815 -0.0970 -0.1801
  229SOL    HW2  915   0.152   0.583   0.117  1.0402  0.5083 -1.6639
  229SOL     MW  916   0.132   0.646   0.061  0.0406  0.2378 -0.0948
  230SOL     OW  917   1.731   1.331   2.029  0.8891 -0.1498  0.0032
  230SOL    HW1  918   1.678   1.293   2.102 -2.7875  0.1890  0.6666
  230SOL    HW2  919   1.765   1.253   1.989  1.0723 -0.4235 -0.7993
  230SOL     MW  920   1.729   1.316   2.033  0.4282 -0.1412 -0.0152
  231SOL     OW  921   2.772   1.262   2.180 -0.2593  0.1912 -0.3787
  231SOL    HW1  922   2.820   1.333   2.211 -2.0080 -1.9975 -0.6515
  231SOL    HW2  923   2.694   1.284   2.131 -0.1111 -4.5095 -1.1150
  231SOL     MW  924   2.768   1.274   2.178 -0.4705 -0.7178 -0.5118
  232SOL     OW  925   2.240   0.855   2.022  0.2971 -0.0518  0.6591
  232SOL    HW1  926   2.171   0.868   1.957  1.9002  0.8250  0.3018
  232SOL    HW2  927   2.193   0.884   2.106 -1.0704  3.9657  2.2159
  232SOL     MW  928   2.224   0.860   2.024  0.3282  0.5939  0.8174
  233SOL     OW  929   2.058   0.422   2.049 -0.4982 -0.1125  0.2011
  233SOL    HW1  930   2.112   0.344   2.027  0.7732 -2.1829 -2.9729
  233SOL    HW2  931   2.101   0.479   2.113  5.8528 -0.0195 -1.0687
  233SOL     MW  932   2.071   0.419   2.055  0.5075 -0.3734 -0.3853
  234SOL     OW  933   0.201   1.033   2.514 -0.3990 -0.1720  0.4770
  234SOL    HW1  934   0.104   1.029   2.495 -0.3603  1.9942  0.4880
  234SOL    HW2  935   0.226   1.122   2.486  0.4194 -0.5545 -0.2634
  234SOL     MW  936   0.192   1.044   2.507 -0.2859  0.0634  0.3807
  235SOL     OW  937   1.136   3.058   2.783  0.1757 -0.4349  0.3100
  235SOL    HW1  938   1.170   3.019   2.861 -2.5156 -2.7782 -0.6339
  235SOL    HW2  939   1.105   3.146   2.816  1.3220 -1.1487  2.8047
  235SOL     MW  940   1.136   3.064   2.798 -0.0282 -0.8383  0.5146
  236SOL     OW  941   2.914   0.580   0.102  0.1943 -0.1129 -0.6825
  236SOL    HW1  942   2.836   0.638   0.083 -1.5840 -0.2561 -0.7245
  236SOL    HW2  943   2.987   0.635   0.118 -1.4902 -2.1743 -1.2695
  236SOL     MW  944   2.913   0.595   0.102 -0.2626 -0.4038 -0.7655
  237SOL     OW  945   2.016   1.151   2.228 -0.3402 -0.8034  0.1911
  237SOL    HW1  946   1.973   1.119   2.151  1.9081  1.4396  1.0715
  237SOL    HW2  947   2.077   1.084   2.260 -2.1823  0.2628 -1.0520
  237SOL     MW  948   2.018   1.138   2.222 -0.2866 -0.3668  0.1432
  238SOL     OW  949   1.101   1.778   2.962 -0.0194 -0.4273 -0.3153
  238SOL    HW1  950   1.029   1.718   2.950 -0.7328  0.1636  2.2311
  238SOL    HW2  951   1.187   1.738   2.942 -0.4884  0.4798 -1.9412
  238SOL     MW  952   1.103   1.765   2.958 -0.1754 -0.2296 -0.1938
  239SOL     OW  953   1.261   1.448   2.380 -0.0490  0.1438 -0.3510
  239SOL    HW1  954   1.181   1.461   2.428 -1.7042 -2.3412  0.0167
  239SOL    HW2  955   1.286   1.360   2.398 -1.7241 -1.1993 -1.1240
  239SOL     MW  956   1.254   1.438   2.389 -0.4884 -0.3612 -0.4045
  240SOL     OW  957   0.622   0.919   2.311  0.1709 -0.0053 -0.0091
  240SOL    HW1  958   0.667   0.961   2.377 -1.6725  0.8281 -1.3545
  240SOL    HW2  959   0.688   0.869   2.261 -1.6088 -1.9880  0.1864
  240SOL     MW  960   0.637   0.918   2.313 -0.3071 -0.1569 -0.1608
  241SOL     OW  961   0.685   0.408   0.020 -0.2565  0.3270 -0.2022
  241SOL    HW1  962   0.715   0.464   0.099  3.8309  0.1846  1.7488
  241SOL    HW2  963   0.600   0.440  -0.009  0.8103 -2.7568  2.0843
  241SOL     MW  964   0.678   0.420   0.027  0.4235 -0.0987  0.3569
  242SOL     OW  965   1.488   1.731   2.309 -0.1242  0.0547 -0.2186
  242SOL    HW1  966   1.459   1.819   2.282  1.8351  0.1326 -2.9633
  242SOL    HW2  967   1.439   1.665   2.255  2.6208 -4.6016  1.0010
  242SOL     MW  968   1.478   1.734   2.298  0.4965 -0.5494 -0.4199
  243SOL     OW  969   0.988   0.173   2.453 -0.2320  0.0447 -0.3479
  243SOL    HW1  970   1.058   0.168   2.388  0.5041  1.6569  0.8740
  243SOL    HW2  971   1.037   0.225   2.525  1.2325 -1.0388 -1.2883
  243SOL     MW  972   1.004   0.179   2.454  0.0584  0.1144 -0.3108
  244SOL     OW  973   0.175   0.819   2.348 -0.3768  0.2161 -0.2161
  244SOL    HW1  974   0.189   0.906   2.391  1.3672  2.4401 -1.8657
  244SOL    HW2  975   0.262   0.781   2.342 -1.2223 -1.0198 -0.8594
  244SOL     MW  976   0.188   0.826   2.353 -0.2582  0.3464 -0.5186
  245SOL     OW  977   1.243   0.173   2.291  0.1150  0.2630  0.3641
  245SOL    HW1  978   1.249   0.104   2.354  0.1578  2.0616 -1.7269
  245SOL    HW2  979   1.269   0.253   2.329 -1.0339  0.9308  0.8867
  245SOL     MW  980   1.247   0.175   2.304 -0.0309  0.5884  0.1572
  246SOL     OW  981   1.235   1.156   2.103 -0.9667  0.1823  0.1654
  246SOL    HW1  982   1.155   1.141   2.157  0.6270  0.6189  1.0448
  246SOL    HW2  983   1.293   1.093   2.141 -2.0388 -4.0709 -0.0309
  246SOL     MW  984   1.232   1.146   2.116 -0.8979 -0.3213  0.2555
  247SOL     OW  985   0.752   0.594   0.212  0.4304  0.0440 -0.0499
  247SOL    HW1  986   0.706   0.675   0.209  1.2324  0.0710  0.5726
  247SOL    HW2  987   0.845   0.611   0.176  1.5092 -1.5944 -0.8358
  247SOL     MW  988   0.759   0.606   0.207  0.6785 -0.1686 -0.0715
  248SOL     OW  989   0.321   1.285   2.575  0.2815  0.0467 -0.6370
  248SOL    HW1  990   0.366   1.323   2.496  0.4455  1.1369  2.0381
  248SOL    HW2  991   0.361   1.339   2.647 -0.9124  2.3339  0.4890
  248SOL     MW  992   0.332   1.297   2.574  0.1456  0.4923 -0.1354
  249SOL     OW  993   0.094   1.849   2.731 -0.5971 -0.4053  0.0632
  249SOL    HW1  994   0.093   1.761   2.693 -2.6277  2.0063 -0.8442
  249SOL    HW2  995   0.123   1.830   2.818 -0.1831  1.2090  0.6230
  249SOL     MW  996   0.098   1.835   2.737 -0.8104  0.1259  0.0174
  250SOL     OW  997   2.155   0.918   2.274 -0.6356 -0.0921 -0.6363
  250SOL    HW1  998   2.156   0.821   2.295 -3.7743 -0.3896 -1.1062
  250SOL    HW2  999   2.250   0.938   2.291  0.8060  1.4925 -2.6856
  250SOL     MW 1000   2.167   0.908   2.279 -0.8595  0.0777 -0.9686
  251SOL     OW 1001   0.152   0.910   1.945 -0.3060  0.0033  0.2733
  251SOL    HW1 1002   0.157   0.828   1.983  1.5093  0.1015 -0.0534
  251SOL    HW2 1003   0.170   0.910   1.849 -0.4765 -2.6091  3.3806
  251SOL     MW 1004   0.155   0.899   1.938 -0.0889 -0.3284  0.6402
  252SOL     OW 1005   1.729   0.974   2.946 -0.4423  0.0354  0.6038
  252SOL    HW1 1006   1.733   1.037   3.019 -0.5093 -1.4132 -0.0548
  252SOL    HW2 1007   1.791   1.003   2.879  0.3110  1.4628 -0.7153
  252SOL     MW 1008   1.738   0.986   2.947 -0.3518  0.0326  0.3429
  253SOL     OW 1009   1.128   1.733   2.521 -0.0209 -0.4101 -0.5505
  253SOL    HW1 1010   1.162   1.756   2.429 -0.4109 -1.0513  1.1224
  253SOL    HW2 1011   1.047   1.791   2.537 -0.2525 -0.6707 -0.3751
  253SOL     MW 1012   1.122   1.744   2.511 -0.1029 -0.5291 -0.3066
  254SOL     OW 1013   1.000   1.081   2.233 -0.6727  0.4404 -0.0666
  254SOL    HW1 1014   1.014   1.008   2.293  3.2397  1.6445  0.4977
  254SOL    HW2 1015   0.956   1.151   2.287  0.8906 -1.2642 -0.8052
  254SOL     MW 1016   0.996   1.080   2.248  0.0497  0.3743 -0.0896
  255SOL     OW 1017   0.839   2.521   2.152  0.0231 -0.8673 -0.0983
  255SOL    HW1 1018   0.749   2.486   2.152 -1.3185  1.8600  0.0504
  255SOL    HW2 1019   0.908   2.454   2.147  0.8448  1.2361 -1.7433
  255SOL     MW 1020   0.836   2.507   2.151 -0.0455 -0.2300 -0.2957
  256SOL     OW 1021   1.290   2.721   2.959 -0.6588  0.4447  0.5042
  256SOL    HW1 1022   1.233   2.679   2.893  0.2029 -0.2365  2.3503
  256SOL    HW2 1023   1.360   2.757   2.904 -0.3495  2.0435 -2.8826
  256SOL     MW 1024   1.292   2.720   2.943 -0.5043  0.5658  0.3009
  257SOL     OW 1025   0.162   1.950   0.030 -0.6117  0.3830 -0.2893
  257SOL    HW1 1026   0.196   1.912   0.103  0.3696  1.7753 -1.0882
  257SOL    HW2 1027   0.173   1.882  -0.035  0.7400 -0.0837  0.4963
  257SOL     MW 1028   0.168   1.936   0.031 -0.3038  0.5052 -0.2911
  258SOL     OW 1029   0.813   0.993   2.529 -0.1434  0.0271 -0.0700
  258SOL    HW1 1030   0.793   1.085   2.496  0.1578  1.4829 -0.7260
  258SOL    HW2 1031   0.808   1.014   2.623  0.1904 -3.5420 -2.7542
  258SOL     MW 1032   0.809   1.008   2.537 -0.0596 -0.2517 -0.5107
  259SOL     OW 1033   0.907   0.404   2.297 -0.4462  0.3102  0.0550
  259SOL    HW1 1034   0.827   0.371   2.248  0.3044 -1.8205 -0.9267
  259SOL    HW2 1035   0.956   0.322   2.325  1.1292 -0.7853 -0.5630
  259SOL     MW 1036   0.903   0.388   2.294 -0.1393 -0.1154 -0.1561
  260SOL     OW 1037   0.601   0.150   1.625  0.3628  0.0873 -0.2907
  260SOL    HW1 1038   0.547   0.110   1.559  1.3510 -0.1318  0.7274
  260SOL    HW2 1039   0.692   0.164   1.588  1.9090 -0.7609 -2.4102
  260SOL     MW 1040   0.606   0.147   1.612  0.6972 -0.0535 -0.4360
  261SOL     OW 1041   1.174   0.729   2.030 -0.2582 -0.3572 -0.1972
  261SOL    HW1 1042   1.175   0.714   2.129  0.3636 -2.2246  2.6817
  261SOL    HW2 1043   1.117   0.654   2.003 -1.8437  1.6748  0.4632
  261SOL     MW 1044   1.167   0.717   2.039 -0.3853 -0.3355  0.2698
  262SOL     OW 1045   1.058   0.306   0.168  0.1677  0.3089 -0.0100
  262SOL    HW1 1046   1.152   0.313   0.152  0.3691  1.9703  0.8351
  262SOL    HW2 1047   1.028   0.240   0.104  2.0428  1.0164  0.5368
  262SOL     MW 1048   1.066   0.298   0.157  0.4417  0.6215  0.1737
  263SOL     OW 1049   0.450   0.046   2.466  0.6239 -0.0986  0.2363
  263SOL    HW1 1050   0.364   0.092   2.460  1.4534  1.0035 -0.2566
  263SOL    HW2 1051   0.494   0.054   2.380 -0.4689 -0.3275 -1.1494
  263SOL     MW 1052   0.445   0.053   2.454  0.5891  0.0166 -0.0115
  264SOL     OW 1053   1.527   1.342   1.839  0.3618 -0.0201  0.2198
  264SOL    HW1 1054   1.488   1.255   1.847  1.7988 -1.0301  1.7905
  264SOL    HW2 1055   1.591   1.342   1.907  0.3611 -1.7054  0.7587
  264SOL     MW 1056   1.530   1.330   1.849  0.5513 -0.3757  0.4981
  265SOL     OW 1057   0.803   2.798   2.228 -0.1261 -0.3739  0.5150
  265SOL    HW1 1058   0.823   2.707   2.202 -1.7788 -0.0245 -0.9939
  265SOL    HW2 1059   0.783   2.791   2.322 -1.6774  2.6399  1.5485
  265SOL     MW 1060   0.803   2.785   2.237 -0.5488  0.0699  0.4523
  266SOL     OW 1061   0.844   0.791   2.208  0.4281  0.6756 -0.0643
  266SOL    HW1 1062   0.829   0.776   2.112  1.3104 -0.6314 -1.4855
  266SOL    HW2 1063   0.902   0.719   2.229 -2.2319  0.4982 -0.3959
  266SOL     MW 1064   0.850   0.779   2.198  0.1935  0.4797 -0.2955
  267SOL     OW 1065   1.349   1.783   2.661 -0.2462  0.3988 -0.2213
  267SOL    HW1 1066   1.430   1.739   2.632  0.8944 -0.8027  0.9226
  267SOL    HW2 1067   1.275   1.776   2.607  1.2803  0.7798 -0.0290
  267SOL     MW 1068   1.350   1.776   2.650  0.1057  0.2905 -0.0450
  268SOL     OW 1069   0.185   0.894   1.654 -0.1293  0.2238 -0.3311
  268SOL    HW1 1070   0.155   0.987   1.637  0.6658 -0.2051  0.2348
  268SOL    HW2 1071   0.123   0.827   1.620  0.1117 -1.8930  0.2992
  268SOL     MW 1072   0.173   0.897   1.647  0.0074 -0.1121 -0.1733
  269SOL     OW 1073   1.354   1.996   2.325 -0.3890 -0.3101 -0.5006
  269SOL    HW1 1074   1.418   2.063   2.343 -1.5191 -1.2031 -1.0583
  269SOL    HW2 1075   1.279   2.017   2.369 -0.8459  1.0132 -0.0247
  269SOL     MW 1076   1.353   2.008   2.333 -0.5984 -0.2533 -0.5114
  270SOL     OW 1077   1.150   0.392   1.594 -0.1551  0.0122 -0.4021
  270SOL    HW1 1078   1.107   0.312   1.628 -0.7510  2.8713 -0.2196
  270SOL    HW2 1079   1.238   0.370   1.563  1.8791 -1.8922 -0.0472
  270SOL     MW 1080   1.156   0.379   1.594  0.0346  0.1382 -0.3312
  271SOL     OW 1081   0.754   0.005   2.549 -0.5665  0.4805 -0.6519
  271SOL    HW1 1082   0.796  -0.072   2.595  0.4910  1.0500 -1.6854
  271SOL    HW2 1083   0.834   0.067   2.528  0.4305  1.0655 -3.7169
  271SOL     MW 1084   0.771   0.003   2.552 -0.2954  0.6328 -1.1927
  272SOL     OW 1085   1.516   2.807   2.817 -0.4374 -0.1612  0.6430
  272SOL    HW1 1086   1.494   2.802   2.720  1.0513  0.8216 -1.5188
  272SOL    HW2 1087   1.520   2.900   2.822 -0.1544 -1.1083  0.7342
  272SOL     MW 1088   1.514   2.819   2.805 -0.2037 -0.1565  0.3698
  273SOL     OW 1089   1.487   0.913   2.791 -0.2690 -0.1120  0.0604
  273SOL    HW1 1090   1.575   0.931   2.824 -1.1703  0.9065 -0.5041
  273SOL    HW2 1091   1.430   0.987   2.798  1.1478  0.5654  0.6136
  273SOL     MW 1092   1.491   0.925   2.796 -0.2010  0.1117  0.0589
  274SOL     OW 1093   1.421   0.733   0.115 -0.1473  0.2473  0.0244
  274SOL    HW1 1094   1.488   0.678   0.157 -0.7050  1.3288  2.2492
  274SOL    HW2 1095   1.347   0.725   0.175  1.7092  1.7914 -0.7872
  274SOL     MW 1096   1.420   0.725   0.129  0.0241  0.5937  0.2109
  275SOL     OW 1097   1.674   0.542   1.769  0.8222 -0.0630 -0.2439
  275SOL    HW1 1098   1.752   0.575   1.816  0.3611  0.5164  1.5253
  275SOL    HW2 1099   1.659   0.456   1.803 -0.8622  0.1700 -0.6478
  275SOL     MW 1100   1.682   0.535   1.780  0.5391  0.0442 -0.0637
  276SOL     OW 1101   0.339   1.263   1.957  0.8379  0.5371  0.5884
  276SOL    HW1 1102   0.386   1.181   1.971  0.8506 -1.0132 -0.2693
  276SOL    HW2 1103   0.280   1.288   2.027 -1.5216  1.4474 -2.3624
  276SOL     MW 1104   0.338   1.256   1.968  0.5282  0.4526  0.0860
  277SOL     OW 1105   1.960   1.146   2.510 -0.0841  0.0120 -0.7320
  277SOL    HW1 1106   2.013   1.226   2.508  0.5375  1.4711 -0.8333
  277SOL    HW2 1107   1.959   1.118   2.418  3.4099  0.5477 -0.4206
  277SOL     MW 1108   1.967   1.153   2.498  0.4589  0.2752 -0.7043
  278SOL     OW 1109   1.377   0.669   1.662 -0.5289 -0.1951  0.0564
  278SOL    HW1 1110   1.344   0.599   1.728 -0.4988 -1.2199  1.1295
  278SOL    HW2 1111   1.470   0.674   1.696 -0.8136 -3.0928 -0.3384
  278SOL     MW 1112   1.385   0.661   1.675 -0.5625 -0.7126  0.1459
  279SOL     OW 1113   0.562   0.115   2.228 -0.2519  0.0100 -0.0695
  279SOL    HW1 1114   0.649   0.070   2.244  0.7761 -0.4044 -1.4719
  279SOL    HW2 1115   0.606   0.202   2.232  0.9259  2.2755 -2.4089
  279SOL     MW 1116   0.579   0.121   2.230  0.0391  0.2542 -0.5632
  280SOL     OW 1117   1.439   0.975   2.148 -0.5775  0.2482  0.1369
  280SOL    HW1 1118   1.513   0.921   2.108 -1.9016 -2.3595  2.1227
  280SOL    HW2 1119   1.449   0.945   2.237  2.0749 -1.5592 -2.6478
  280SOL     MW 1120   1.450   0.964   2.155 -0.4022 -0.3343  0.0315
  281SOL     OW 1121   1.360   1.298   2.717  0.5898 -1.0795 -0.0259
  281SOL    HW1 1122   1.458   1.296   2.711  1.1857 -1.3608 -3.0070
  281SOL    HW2 1123   1.328   1.247   2.795 -1.4004  0.1751 -1.1668
  281SOL     MW 1124   1.368   1.291   2.727  0.4058 -0.9511 -0.5697
  282SOL     OW 1125   1.103   1.286   1.633  0.6037 -1.1776 -0.1510
  282SOL    HW1 1126   1.111   1.380   1.611  1.8976 -1.5252  3.2742
  282SOL    HW2 1127   1.043   1.275   1.710  1.5215  0.5162  1.6194
  282SOL     MW 1128   1.096   1.297   1.641  0.8955 -1.0000  0.5345
  283SOL     OW 1129   0.825   1.257   3.043 -0.1068 -0.1993  0.0810
  283SOL    HW1 1130   0.903   1.310   3.037  0.7547  3.0213  3.3160
  283SOL    HW2 1131   0.756   1.319   3.069 -1.1050  0.5290  2.6259
  283SOL     MW 1132   0.826   1.272   3.045 -0.1248  0.3218  0.8436
  284SOL     OW 1133   0.430   0.731   2.366 -0.0264  0.6674 -0.1421
  284SOL    HW1 1134   0.488   0.805   2.338 -2.0391 -0.5226  0.7410
  284SOL    HW2 1135   0.422   0.661   2.294  0.7966  0.4561 -0.1490
  284SOL     MW 1136   0.437   0.731   2.353 -0.1834  0.4825 -0.0265
  285SOL     OW 1137   0.922   0.863   2.833 -0.8500  0.4123 -0.1518
  285SOL    HW1 1138   0.985   0.866   2.758 -0.8102  0.3054 -0.8110
  285SOL    HW2 1139   0.869   0.784   2.808  1.7499  1.0689  0.3732
  285SOL     MW 1140   0.923   0.853   2.820 -0.5017  0.4848 -0.1695
  286SOL     OW 1141   1.151   1.500   2.643 -0.3614  0.0541 -0.8033
  286SOL    HW1 1142   1.243   1.491   2.661 -2.1283 -0.8824 -2.1532
  286SOL    HW2 1143   1.144   1.586   2.599 -1.1540 -1.7728  1.2549
  286SOL     MW 1144   1.162   1.511   2.640 -0.6991 -0.3105 -0.7098
  287SOL     OW 1145   1.158   0.964   0.325  0.1933  1.5307 -0.4385
  287SOL    HW1 1146   1.198   1.023   0.388 -0.7944  2.2545  0.9911
  287SOL    HW2 1147   1.120   1.032   0.259  0.0597  0.7958  1.1157
  287SOL     MW 1148   1.158   0.980   0.324  0.0454  1.5292 -0.0448
  288SOL     OW 1149   1.501   0.571   2.062 -0.3622 -0.0768 -0.1437
  288SOL    HW1 1150   1.480   0.586   2.153 -1.6616  0.3594  0.2321
  288SOL    HW2 1151   1.534   0.664   2.047  1.0757  1.2475 -2.0685
  288SOL     MW 1152   1.503   0.585   2.072 -0.3440  0.1555 -0.3481
  289SOL     OW 1153   1.085   0.979   2.575 -0.0444 -0.0679 -0.3445
  289SOL    HW1 1154   1.113   0.885   2.569  0.7596 -1.2561 -1.1350
  289SOL    HW2 1155   0.998   0.982   2.538  2.8425 -1.1794 -0.6587
  289SOL     MW 1156   1.078   0.967   2.569  0.4426 -0.3713 -0.4903
  290SOL     OW 1157   0.799   0.612   1.547 -0.3023 -0.5981 -0.1934
  290SOL    HW1 1158   0.852   0.562   1.482  1.0843  1.5980 -3.3500
  290SOL    HW2 1159   0.860   0.618   1.622  1.0835  2.3547  1.6241
  290SOL     MW 1160   0.814   0.606   1.548  0.0635  0.0813 -0.3701
  291SOL     OW 1161   0.171   0.389   0.112 -0.3425  0.2696  0.3044
  291SOL    HW1 1162   0.235   0.324   0.140  0.0977 -0.3538 -0.8213
  291SOL    HW2 1163   0.152   0.347   0.027  3.4967  0.3875  0.8085
  291SOL     MW 1164   0.177   0.374   0.104  0.2222  0.2029  0.2224
  292SOL     OW 1165   0.994   0.561   0.083 -0.0333  0.4708  0.4602
  292SOL    HW1 1166   1.036   0.630   0.133 -0.3216  3.0119 -0.7040
  292SOL    HW2 1167   1.002   0.480   0.135 -2.4840  2.0910 -0.6887
  292SOL     MW 1168   1.001   0.560   0.096 -0.3947  1.0199  0.1550
  293SOL     OW 1169   0.187   0.130   2.456 -0.7028  0.3314  0.0033
  293SOL    HW1 1170   0.141   0.090   2.385 -0.5358 -0.0849 -0.7194
  293SOL    HW2 1171   0.114   0.162   2.513 -1.3484  1.9693 -0.4843
  293SOL     MW 1172   0.171   0.129   2.454 -0.7660  0.4926 -0.1564
  294SOL     OW 1173   1.428   0.590   2.334 -0.2501 -0.0498  0.5607
  294SOL    HW1 1174   1.446   0.659   2.401 -4.3641  2.1311  2.4398
  294SOL    HW2 1175   1.446   0.504   2.369 -0.9070 -1.0655 -2.4686
  294SOL     MW 1176   1.432   0.588   2.347 -0.8796  0.1039  0.4090
  295SOL     OW 1177   0.925   0.533   2.528  0.4152 -0.3731 -0.1972
  295SOL    HW1 1178   0.885   0.483   2.455  1.7011  0.7631 -3.0973
  295SOL    HW2 1179   0.854   0.571   2.577 -2.5584  0.4426 -0.7200
  295SOL     MW 1180   0.910   0.532   2.525  0.1926 -0.1156 -0.6488
  296SOL     OW 1181   1.237   0.279   2.029 -0.1946 -0.1443  0.3576
  296SOL    HW1 1182   1.318   0.233   2.002 -0.7645  0.2671 -1.2610
  296SOL    HW2 1183   1.230   0.246   2.120 -0.6153 -0.3427 -2.2348
  296SOL     MW 1184   1.247   0.269   2.037 -0.3253 -0.1162 -0.1980
  297SOL     OW 1185   1.440   0.411   1.535  0.3433 -0.0820  0.1667
  297SOL    HW1 1186   1.446   0.484   1.589  0.1199  0.0867 -1.4713
  297SOL    HW2 1187   1.467   0.342   1.594  1.0852 -2.3204 -0.6468
  297SOL     MW 1188   1.444   0.411   1.550  0.4117 -0.3551 -0.1568
  298SOL     OW 1189   1.639   0.848   2.011  0.1000  0.4592 -0.2311
  298SOL    HW1 1190   1.690   0.907   1.960 -0.3368 -0.6588 -0.7109
  298SOL    HW2 1191   1.692   0.809   2.087 -0.1565 -4.1730  3.1246
  298SOL     MW 1192   1.653   0.850   2.014  0.0085 -0.2995  0.1483
  299SOL     OW 1193   0.586   1.103   0.039  0.8019  0.3265 -0.4893
  299SOL    HW1 1194   0.564   1.129  -0.055 -1.3450  0.7781  0.8723
  299SOL    HW2 1195   0.681   1.120   0.041 -0.3838 -0.6085  3.3968
  299SOL     MW 1196   0.596   1.109   0.027  0.3622  0.2627  0.2031
  300SOL     OW 1197   1.268   1.179   2.476 -0.9068  0.2170  0.1046
  300SOL    HW1 1198   1.218   1.105   2.509 -1.7853  1.4658 -0.7360
  300SOL    HW2 1199   1.308   1.218   2.553  0.3356  1.7141 -2.0539
  300SOL     MW 1200   1.267   1.175   2.491 -0.8588  0.5793 -0.2911
  301SOL     OW 1201   1.473   0.976   0.655 -0.5031  0.4105  0.2564
  301SOL    HW1 1202   1.462   1.013   0.742 -2.1958  2.0947 -2.2649
  301SOL    HW2 1203   1.419   0.893   0.671  0.4632 -0.8025 -0.4591
  301SOL     MW 1204   1.464   0.970   0.669 -0.5990  0.4727 -0.1707
  302SOL     OW 1205   0.147   1.597   1.990  0.6648 -0.5905 -0.1559
  302SOL    HW1 1206   0.176   1.537   2.061  1.8755 -0.4104 -1.0567
  302SOL    HW2 1207   0.072   1.655   2.015  1.8856  2.6941 -1.3471
  302SOL     MW 1208   0.141   1.597   2.003  0.9856 -0.1334 -0.4319
  303SOL     OW 1209   0.390   1.782   2.672 -0.5390 -0.2213  0.5887
  303SOL    HW1 1210   0.351   1.797   2.585  3.2652 -1.7486 -0.8387
  303SOL    HW2 1211   0.333   1.824   2.740  1.8260  0.6202  1.5408
  303SOL     MW 1212   0.377   1.789   2.670  0.2750 -0.3118  0.5260
  304SOL     OW 1213   0.519   2.048   2.345 -0.0964 -0.0377 -0.4060
  304SOL    HW1 1214   0.579   2.125   2.315 -0.8153  2.4887  1.2925
  304SOL    HW2 1215   0.566   1.966   2.340 -2.3738  0.1560  2.3466
  304SOL     MW 1216   0.533   2.047   2.340 -0.4917  0.3212  0.1813
  305SOL     OW 1217   1.092   0.557   0.503 -0.1365  0.3193  0.3388
  305SOL    HW1 1218   0.998   0.558   0.524  1.3144  1.7238  0.3325
  305SOL    HW2 1219   1.130   0.482   0.548 -1.8234 -0.8736  0.3998
  305SOL     MW 1220   1.085   0.547   0.512 -0.1676  0.3472  0.3460
  306SOL     OW 1221   1.178   1.540   0.283  0.1538  0.5487 -0.0707
  306SOL    HW1 1222   1.201   1.448   0.318 -1.4297  0.9280  0.1750
  306SOL    HW2 1223   1.240   1.559   0.217 -0.6650 -0.3109 -0.7067
  306SOL     MW 1224   1.189   1.530   0.279 -0.1631  0.4853 -0.1222
  307SOL     OW 1225   1.347   0.485   1.846  0.0382 -0.0571 -0.2115
  307SOL    HW1 1226   1.286   0.420   1.878 -1.6986 -0.8089 -0.0489
  307SOL    HW2 1227   1.391   0.509   1.931  2.3579  1.5321  0.6298
  307SOL     MW 1228   1.345   0.479   1.861  0.1151  0.0534 -0.0791
  308SOL     OW 1229   2.197   0.524   2.723 -0.2584 -0.6949 -0.1170
  308SOL    HW1 1230   2.293   0.531   2.716  3.0044  0.9600  1.6126
  308SOL    HW2 1231   2.172   0.604   2.674 -0.8191  1.8451  0.8668
  308SOL     MW 1232   2.206   0.536   2.716  0.0981 -0.1414  0.2410
  309SOL     OW 1233   0.482   0.509   0.265 -0.2463 -0.1271 -0.6492
  309SOL    HW1 1234   0.537   0.562   0.213  0.2322 -0.3150 -1.1310
  309SOL    HW2 1235   0.465   0.428   0.216 -1.4753  0.4156 -1.2696
  309SOL     MW 1236   0.487   0.505   0.252 -0.3453 -0.0803 -0.7947
  310SOL     OW 1237   0.424   0.587   1.918 -0.1544 -0.3238 -0.4057
  310SOL    HW1 1238   0.453   0.492   1.899  0.5514  0.8997  3.1673
  310SOL    HW2 1239   0.488   0.644   1.876  1.6003 -0.4406 -0.0963
  310SOL     MW 1240   0.436   0.582   1.910  0.1702 -0.1778  0.1066
  311SOL     OW 1241   1.904   0.593   1.926 -0.0090  0.9206 -0.3202
  311SOL    HW1 1242   1.859   0.637   2.003  0.2124  0.8455 -1.5659
  311SOL    HW2 1243   1.962   0.519   1.958 -1.5956 -1.7686 -1.0315
  311SOL     MW 1244   1.906   0.589   1.941 -0.1892  0.5559 -0.5784
  312SOL     OW 1245   1.812   2.470   0.164  0.6099 -0.0602  0.2465
  312SOL    HW1 1246   1.880   2.431   0.217 -1.3387  2.5118  1.9237
  312SOL    HW2 1247   1.744   2.499   0.225 -0.4540 -3.1828 -1.3129
  312SOL     MW 1248   1.812   2.469   0.179  0.2124 -0.1329  0.2620
  313SOL     OW 1249   0.131   1.151   2.959  0.1676 -0.2728  0.0808
  313SOL    HW1 1250   0.110   1.158   3.059 -1.3929  0.2464  1.6051
  313SOL    HW2 1251   0.203   1.206   2.930 -0.6099 -0.3254 -0.8767
  313SOL     MW 1252   0.137   1.160   2.968 -0.1409 -0.2113  0.1556
  314SOL     OW 1253   2.175   3.009   2.946  0.1030 -0.1202  0.0958
  314SOL    HW1 1254   2.098   3.059   2.913  1.8588  0.0753 -0.7070
  314SOL    HW2 1255   2.205   3.076   3.005 -1.0736  1.2381 -0.2190
  314SOL     MW 1256   2.169   3.024   2.949  0.1794  0.0848 -0.0517
  315SOL     OW 1257   1.528   1.861   3.006  0.0592 -0.4886 -0.4795
  315SOL    HW1 1258   1.511   1.885   3.092 -2.3714 -1.4757 -0.2187
  315SOL    HW2 1259   1.548   1.952   2.965 -0.3492 -1.1204  0.8102
  315SOL     MW 1260   1.529   1.876   3.012 -0.3153 -0.7022 -0.2749
  316SOL     OW 1261   1.323   0.518   2.719 -0.1730  0.2301  0.3275
  316SOL    HW1 1262   1.408   0.516   2.752  0.2271  1.0812 -1.4684
  316SOL    HW2 1263   1.282   0.550   2.804 -0.9098 -1.8260  1.0116
  316SOL     MW 1264   1.329   0.522   2.735 -0.2174  0.0711  0.1808
  317SOL     OW 1265   0.657   1.483   2.633  0.0501  0.7435  0.4099
  317SOL    HW1 1266   0.717   1.407   2.630  1.8345 -1.8682  1.0187
  317SOL    HW2 1267   0.642   1.531   2.549  0.2628  0.9870  1.4595
  317SOL     MW 1268   0.663   1.480   2.621  0.3136  0.4310  0.6287
  318SOL     OW 1269   1.357   0.357   2.970  0.4185 -0.1687 -0.0462
  318SOL    HW1 1270   1.267   0.394   2.940 -1.9929 -2.2137 -0.7553
  318SOL    HW2 1271   1.428   0.415   2.939  2.0360 -1.8710 -0.6445
  318SOL     MW 1272   1.354   0.370   2.962  0.3137 -0.6632 -0.2187
  319SOL     OW 1273   0.852   0.415   2.883  0.3277 -0.1402  0.5556
  319SOL    HW1 1274   0.805   0.346   2.829 -0.1102  1.9814 -0.2777
  319SOL    HW2 1275   0.808   0.417   2.967 -0.1260 -2.6510  0.7794
  319SOL     MW 1276   0.840   0.406   2.887  0.2100 -0.1915  0.4752
  320SOL     OW 1277   1.076   1.355   1.992  0.3065 -0.0679 -0.2537
  320SOL    HW1 1278   1.129   1.299   2.053 -0.2001 -1.1113 -0.0950
  320SOL    HW2 1279   1.139   1.406   1.941 -0.2869  1.3959  1.1250
  320SOL     MW 1280   1.091   1.354   1.993  0.1614 -0.0124 -0.0509
  321SOL     OW 1281   1.118   0.952   3.017  0.2550 -0.4398  0.2804
  321SOL    HW1 1282   1.055   0.923   2.950 -0.1720 -0.8794 -0.1378
  321SOL    HW2 1283   1.177   0.885   3.038 -0.3328  0.5826  3.2915
  321SOL     MW 1284   1.117   0.939   3.011  0.1211 -0.3629  0.6225
  322SOL     OW 1285   1.174   0.856   1.675  0.0462  0.3040  0.0440
  322SOL    HW1 1286   1.252   0.792   1.688 -0.3364  1.0983 -0.0047
  322SOL    HW2 1287   1.147   0.904   1.757 -1.9234  1.3260 -1.8840
  322SOL     MW 1288   1.180   0.854   1.688 -0.2642  0.5436 -0.2168
  323SOL     OW 1289   1.243   1.538   1.878  0.0674 -0.2086  0.1146
  323SOL    HW1 1290   1.291   1.564   1.796  1.1035 -0.6256 -0.2631
  323SOL    HW2 1291   1.173   1.610   1.896 -1.0240 -2.1345  0.9479
  323SOL     MW 1292   1.240   1.551   1.869  0.0601 -0.5177  0.1747
  324SOL     OW 1293   1.479   0.987   2.429  0.1622  0.8163 -0.3163
  324SOL    HW1 1294   1.403   1.031   2.445 -0.1804 -1.1472  0.9771
  324SOL    HW2 1295   1.548   1.049   2.450  1.8105 -1.9673 -0.4060
  324SOL     MW 1296   1.478   1.001   2.434  0.3345  0.1900 -0.1575
  325SOL     OW 1297   1.117   0.516   2.921 -0.3596  0.0162  0.3056
  325SOL    HW1 1298   1.112   0.584   2.991 -0.3521  1.1472 -0.6601
  325SOL    HW2 1299   1.030   0.488   2.904  3.0641 -1.3356 -1.4730
  325SOL     MW 1300   1.105   0.521   2.928  0.0931 -0.0129 -0.0565
  326SOL     OW 1301   0.441   1.355   2.347 -0.8109  0.6107 -0.2182
  326SOL    HW1 1302   0.515   1.311   2.311  1.8711  1.4287  0.1621
  326SOL    HW2 1303   0.446   1.440   2.314 -1.1893 -3.2693  0.1283
  326SOL     MW 1304   0.452   1.360   2.338 -0.5069  0.2067 -0.1223
  327SOL     OW 1305   1.908   0.773   2.439 -0.2151 -0.5800  0.4733
  327SOL    HW1 1306   1.885   0.732   2.525  4.6137  1.0555  0.7086
  327SOL    HW2 1307   1.928   0.862   2.471 -0.0387  2.4324 -1.3269
  327SOL     MW 1308   1.908   0.779   2.454  0.4453  0.0332  0.2668
  328SOL     OW 1309   0.181   1.351   2.159  0.1957 -0.4933 -0.1816
  328SOL    HW1 1310   0.129   1.274   2.127  0.2362 -0.4006 -2.8729
  328SOL    HW2 1311   0.249   1.320   2.217 -1.8324 -2.1150 -1.2096
  328SOL     MW 1312   0.183   1.336   2.162 -0.0666 -0.6951 -0.6723
  329SOL     OW 1313   0.092   0.237   1.405 -0.8516 -0.6745 -0.0587
  329SOL    HW1 1314   0.082   0.208   1.501  1.2421 -1.7619  0.9310
  329SOL    HW2 1315   0.181   0.228   1.370 -2.5104 -2.8037  1.4123
  329SOL     MW 1316   0.102   0.232   1.413 -0.7942 -1.0989  0.2660
  330SOL     OW 1317   0.380   3.063   2.068 -0.2578 -0.3499 -0.4680
  330SOL    HW1 1318   0.441   3.109   2.127  0.3300 -2.4851 -1.4580
  330SOL    HW2 1319   0.336   2.999   2.126 -0.9384  1.5078  1.0795
  330SOL     MW 1320   0.382   3.060   2.084 -0.2701 -0.3865 -0.3944
  331SOL     OW 1321   0.820   1.261   2.381  0.0095 -0.1124  0.8123
  331SOL    HW1 1322   0.799   1.328   2.312 -0.0118  0.8079  1.6938
  331SOL    HW2 1323   0.842   1.306   2.463 -0.0917 -1.6220  3.1420
  331SOL     MW 1324   0.820   1.276   2.382 -0.0067 -0.1901  1.2360
  332SOL     OW 1325   1.336   1.693   2.908  0.3172 -0.3842  0.0352
  332SOL    HW1 1326   1.316   1.718   2.817 -0.9473 -0.3628  0.4530
  332SOL    HW2 1327   1.397   1.762   2.939 -0.7187 -0.6516 -1.7375
  332SOL     MW 1328   1.342   1.705   2.900  0.0137 -0.4167 -0.1436
  333SOL     OW 1329   1.736   1.363   2.950 -0.0827  0.4458 -0.5198
  333SOL    HW1 1330   1.825   1.351   2.923  1.6838 -0.9873 -3.2303
  333SOL    HW2 1331   1.722   1.295   3.015 -0.2516 -2.2331 -1.4353
  333SOL     MW 1332   1.746   1.352   2.955  0.1280 -0.0967 -0.9982
  334SOL     OW 1333   1.271   0.035   2.567 -0.5810 -1.1436 -0.0233
  334SOL    HW1 1334   1.220   0.004   2.639  0.2755 -2.0888 -1.2618
  334SOL    HW2 1335   1.325   0.111   2.601 -0.1606  1.0882 -1.8821
  334SOL     MW 1336   1.272   0.041   2.581 -0.4126 -0.9738 -0.4320
  335SOL     OW 1337   1.332   0.737   2.957 -0.1049 -0.0497  0.0413
  335SOL    HW1 1338   1.384   0.732   3.039  0.2722 -2.3542 -1.6412
  335SOL    HW2 1339   1.373   0.803   2.892 -2.0846 -0.7775 -1.1135
  335SOL     MW 1340   1.344   0.745   2.959 -0.3163 -0.4498 -0.3330
  336SOL     OW 1341   0.926   1.168   1.835 -0.0192  0.1831 -0.3042
  336SOL    HW1 1342   0.951   1.242   1.896  1.2936 -1.4730 -3.7635
  336SOL    HW2 1343   0.987   1.095   1.848 -0.1014  0.2375 -0.4634
  336SOL     MW 1344   0.937   1.168   1.845  0.1432 -0.0282 -0.7816
  337SOL     OW 1345   0.668   1.816   2.792  0.1355  0.4516 -0.6967
  337SOL    HW1 1346   0.594   1.806   2.733  1.3926 -1.5652 -0.4570
  337SOL    HW2 1347   0.723   1.746   2.765 -0.0171 -1.3730 -0.1050
  337SOL     MW 1348   0.666   1.806   2.781  0.2812 -0.0553 -0.5870
  338SOL     OW 1349   1.136   0.702   2.598  0.2433  0.4457 -0.1407
  338SOL    HW1 1350   1.048   0.665   2.579 -0.3422  1.9096 -1.1499
  338SOL    HW2 1351   1.192   0.634   2.638  0.1077  1.5354 -2.2879
  338SOL     MW 1352   1.132   0.688   2.601  0.1482  0.7826 -0.5572
  339SOL     OW 1353   1.492   1.063   1.843  0.2244 -0.1918  0.1749
  339SOL    HW1 1354   1.428   1.068   1.770  3.1289  3.1480 -1.9649
  339SOL    HW2 1355   1.464   1.003   1.910 -0.4616 -1.4727 -0.5546
  339SOL     MW 1356   1.480   1.056   1.842  0.5171  0.0798 -0.2037
  340SOL     OW 1357   1.322   1.516   0.045  0.5558  0.2573 -0.4330
  340SOL    HW1 1358   1.334   1.541  -0.042  0.5235 -3.1892  0.5363
  340SOL    HW2 1359   1.409   1.474   0.068 -0.3264  0.1351  0.2706
  340SOL     MW 1360   1.335   1.514   0.037  0.4351 -0.2135 -0.2123
  341SOL     OW 1361   0.039   1.331   2.737  0.7057  0.1609  0.0520
  341SOL    HW1 1362   0.120   1.289   2.715  0.4618 -0.2131 -0.1730
  341SOL    HW2 1363  -0.020   1.319   2.657 -2.2962  1.1331  1.1349
  341SOL     MW 1364   0.042   1.324   2.724  0.2774  0.2398  0.1652
  342SOL     OW 1365   1.318   0.349   0.138  0.1025 -0.1041  0.2971
  342SOL    HW1 1366   1.361   0.417   0.177  0.3138 -1.1250 -1.9670
  342SOL    HW2 1367   1.334   0.367   0.043  1.0984  1.6276 -1.4571
  342SOL     MW 1368   1.326   0.360   0.130  0.2618 -0.0103 -0.2331
  343SOL     OW 1369   0.271   0.307   2.136 -0.1019  0.3266  0.7055
  343SOL    HW1 1370   0.330   0.243   2.096 -0.4289 -3.9012 -0.4035
  343SOL    HW2 1371   0.183   0.269   2.126  0.8113 -2.7784  2.7077
  343SOL     MW 1372   0.267   0.293   2.129 -0.0245 -0.6409  0.8234
  344SOL     OW 1373   1.703   2.048   0.180 -0.4821  0.2582 -0.2326
  344SOL    HW1 1374   1.728   2.131   0.134 -1.3714  0.1563 -1.5160
  344SOL    HW2 1375   1.623   2.061   0.226 -1.0274  2.2170  2.9675
  344SOL     MW 1376   1.696   2.061   0.180 -0.6714  0.5032  0.0203
  345SOL     OW 1377   0.710   1.582   2.347  0.2102 -0.1708  0.5064
  345SOL    HW1 1378   0.652   1.521   2.298 -1.7743 -0.3774 -1.1261
  345SOL    HW2 1379   0.799   1.561   2.309  1.7996  1.0723  0.8092
  345SOL     MW 1380   0.714   1.571   2.335  0.1581 -0.0340  0.3310
  346SOL     OW 1381   1.759   1.156   0.042 -0.4805 -0.1915 -0.0591
  346SOL    HW1 1382   1.841   1.196   0.064  1.6185 -0.9078 -0.3193
  346SOL    HW2 1383   1.752   1.068   0.087  0.4837 -1.5657  1.0343
  346SOL     MW 1384   1.769   1.149   0.051 -0.0764 -0.4673  0.0508
  347SOL     OW 1385   1.165   0.639   2.306 -0.1424  0.5502  0.4377
  347SOL    HW1 1386   1.255   0.613   2.306  0.4008 -0.5274 -0.6430
  347SOL    HW2 1387   1.140   0.664   2.393  2.0698 -1.6787 -2.8835
  347SOL     MW 1388   1.174   0.639   2.318  0.2211  0.1140 -0.1431
  348SOL     OW 1389   1.295   2.631   1.874 -0.3855 -0.3663 -0.1812
  348SOL    HW1 1390   1.322   2.545   1.916 -0.0976 -0.1540 -0.5624
  348SOL    HW2 1391   1.351   2.685   1.933  3.7325 -0.1718  0.5028
  348SOL     MW 1392   1.306   2.627   1.887  0.1958 -0.3127 -0.1412
  349SOL     OW 1393   1.443   0.208   2.703 -0.1266  0.1340 -0.0248
  349SOL    HW1 1394   1.403   0.247   2.780  0.7278 -0.0508 -1.2320
  349SOL    HW2 1395   1.530   0.185   2.721 -1.4113  0.7287 -1.3994
  349SOL     MW 1396   1.449   0.210   2.716 -0.1834  0.1881 -0.3654
  350SOL     OW 1397   1.839   0.639   2.661 -0.3513  0.2735 -0.3394
  350SOL    HW1 1398   1.767   0.594   2.619 -0.7675  0.0850  0.4297
  350SOL    HW2 1399   1.875   0.585   2.735 -0.3044  3.2854 -2.7987
  350SOL     MW 1400   1.835   0.626   2.665 -0.4000  0.6460 -0.5624
  351SOL     OW 1401   0.093   1.138   1.588 -0.2912  0.4344  0.8374
  351SOL    HW1 1402   0.025   1.131   1.657 -0.3370 -2.3017  4.5592
  351SOL    HW2 1403   0.164   1.209   1.606  1.4064  1.2711  0.7858
  351SOL     MW 1404   0.094   1.146   1.599 -0.0732  0.1838  1.3217
  352SOL     OW 1405   0.880   1.640   2.736 -0.1430  0.0811  0.2021
  352SOL    HW1 1406   0.902   1.589   2.807  1.6882  0.3647 -1.4331
  352SOL    HW2 1407   0.836   1.579   2.674  0.2065 -0.7547  0.5484
  352SOL     MW 1408   0.877   1.625   2.737  0.1448  0.0082  0.0321
  353SOL     OW 1409   0.014   2.505   2.729  0.6078 -0.1219  0.5446
  353SOL    HW1 1410   0.103   2.502   2.756 -0.9582  0.1845 -2.1333
  353SOL    HW2 1411  -0.003   2.596   2.696  1.2910  0.1731  0.8130
  353SOL     MW 1412   0.023   2.516   2.728  0.4913 -0.0426  0.2267
  354SOL     OW 1413   0.274   2.459   0.798  0.0801  0.4353 -0.1425
  354SOL    HW1 1414   0.332   2.470   0.870 -1.1897  1.6572 -0.6557
  354SOL    HW2 1415   0.198   2.409   0.836  0.3874  2.4174 -3.3843
  354SOL     MW 1416   0.272   2.454   0.813 -0.0469  0.8581 -0.6379
  355SOL     OW 1417   3.093   2.224   0.361 -0.1888 -0.1346  0.0855
  355SOL    HW1 1418   3.009   2.180   0.362 -0.1834  0.4053  0.5324
  355SOL    HW2 1419   3.088   2.279   0.435 -4.3635 -0.5374 -1.7193
  355SOL     MW 1420   3.081   2.226   0.371 -0.7389 -0.1165 -0.0937
  356SOL     OW 1421   0.843   2.798   0.971 -0.0001 -0.0191  0.4393
  356SOL    HW1 1422   0.886   2.860   0.905 -0.6083  0.5743  0.1103
  356SOL    HW2 1423   0.748   2.819   0.972 -2.3370 -1.0341  1.6787
  356SOL     MW 1424   0.836   2.809   0.962 -0.3887 -0.0747  0.5594
  357SOL     OW 1425   1.775   2.897   0.378  0.2573 -0.0946  0.5464
  357SOL    HW1 1426   1.736   2.820   0.418  1.3547 -0.8740 -1.2479
  357SOL    HW2 1427   1.863   2.872   0.343 -1.1763 -1.1354 -0.9858
  357SOL     MW 1428   1.782   2.884   0.379  0.2130 -0.3348  0.1075
  358SOL     OW 1429   0.465   0.145   1.033  0.2609 -0.1256 -0.5679
  358SOL    HW1 1430   0.559   0.131   1.022 -0.6856  1.4587  1.4520
  358SOL    HW2 1431   0.428   0.184   0.958 -0.7237 -1.2622  2.3287
  358SOL     MW 1432   0.472   0.148   1.022  0.0061 -0.0666  0.0808
  359SOL     OW 1433   0.841   2.861   1.848 -0.5698 -0.0963  0.6471
  359SOL    HW1 1434   0.813   2.774   1.872  2.2301 -1.8841 -0.0733
  359SOL    HW2 1435   0.868   2.842   1.758  0.3245 -1.9272  0.3303
  359SOL     MW 1436   0.841   2.847   1.839 -0.0824 -0.5737  0.5103
  360SOL     OW 1437   0.580   2.808   0.920  0.0781 -0.1684 -0.3420
  360SOL    HW1 1438   0.598   2.788   0.828 -0.3043 -0.6586 -0.6764
  360SOL    HW2 1439   0.565   2.717   0.952 -0.1331  1.5642 -1.4784
  360SOL     MW 1440   0.581   2.793   0.912 -0.0002 -0.0044 -0.5361
  361SOL     OW 1441   0.219   2.631   1.343  0.4417 -0.2310 -0.1708
  361SOL    HW1 1442   0.213   2.688   1.419 -1.2294  1.8453 -0.6307
  361SOL    HW2 1443   0.314   2.614   1.326 -1.7359 -0.4431 -0.9501
  361SOL     MW 1444   0.231   2.636   1.351 -0.0661  0.0149 -0.3343
  362SOL     OW 1445   1.454   2.438   0.646 -0.1450 -0.9793  0.2645
  362SOL    HW1 1446   1.469   2.388   0.731 -0.6245  1.6727 -0.0378
  362SOL    HW2 1447   1.525   2.510   0.646 -1.5214 -0.2480 -1.3548
  362SOL     MW 1448   1.466   2.441   0.658 -0.3899 -0.5329  0.0110
  363SOL     OW 1449   0.309   3.099   0.668  0.1652  0.1258 -0.5343
  363SOL    HW1 1450   0.300   3.055   0.752  1.6220  3.2867 -2.7318
  363SOL    HW2 1451   0.221   3.099   0.630 -0.4919  0.5841 -1.2749
  363SOL     MW 1452   0.296   3.094   0.674  0.2707  0.6033 -0.9219
  364SOL     OW 1453   0.764   0.217   0.232 -0.0947 -0.0289  0.0655
  364SOL    HW1 1454   0.688   0.156   0.251 -0.9898  2.2307 -0.6621
  364SOL    HW2 1455   0.730   0.289   0.178 -1.7894  0.6389  2.7356
  364SOL     MW 1456   0.750   0.218   0.228 -0.4364  0.3574  0.3218
  365SOL     OW 1457   0.984   2.011   1.182 -0.0292 -0.9127  0.2795
  365SOL    HW1 1458   0.937   2.080   1.139  0.4225  1.4354 -0.2212
  365SOL    HW2 1459   0.958   1.931   1.130  2.3278 -1.2683  0.9512
  365SOL     MW 1460   0.975   2.010   1.170  0.3414 -0.6498  0.3021
  366SOL     OW 1461   2.893   2.674   0.992  0.5027 -0.7424  0.0025
  366SOL    HW1 1462   2.966   2.671   1.054 -3.0103 -0.1238  0.3528
  366SOL    HW2 1463   2.939   2.687   0.908 -0.5615  0.5457 -0.3139
  366SOL     MW 1464   2.908   2.675   0.989 -0.1012 -0.4909  0.0070
  367SOL     OW 1465   1.244   2.952   0.891  0.2344 -0.4556 -0.8747
  367SOL    HW1 1466   1.262   3.027   0.828  1.2170  0.2691 -0.8800
  367SOL    HW2 1467   1.206   2.885   0.832 -2.3539 -2.3472 -0.1087
  367SOL     MW 1468   1.241   2.953   0.875  0.0226 -0.6096 -0.7743
  368SOL     OW 1469   1.649   0.353   0.743  0.2289 -0.0424 -0.2949
  368SOL    HW1 1470   1.709   0.301   0.687 -2.8703 -1.5464  0.5939
  368SOL    HW2 1471   1.680   0.444   0.743  0.2323 -0.9181  1.1853
  368SOL     MW 1472   1.661   0.358   0.736 -0.1796 -0.3564  0.0177
  369SOL     OW 1473   0.132   2.412   1.801 -0.3714 -0.2480 -0.0154
  369SOL    HW1 1474   0.232   2.422   1.790  0.0460 -0.8755  0.0051
  369SOL    HW2 1475   0.093   2.502   1.804  0.2503 -3.3556  1.8760
  369SOL     MW 1476   0.140   2.425   1.800 -0.2343 -0.7408  0.2368
  370SOL     OW 1477   0.732   0.137   0.954  0.2751  0.7888 -0.5678
  370SOL    HW1 1478   0.744   0.219   0.993  3.4268 -1.6370 -1.7655
  370SOL    HW2 1479   0.823   0.096   0.969 -0.0260 -0.0116  1.6187
  370SOL     MW 1480   0.746   0.142   0.961  0.6512  0.3631 -0.4373
  371SOL     OW 1481   1.344   2.890   1.525 -0.5542 -0.9610 -0.1049
  371SOL    HW1 1482   1.276   2.825   1.497  0.2033 -0.1301  0.0374
  371SOL    HW2 1483   1.332   2.974   1.483  2.7888 -1.5105  2.4043
  371SOL     MW 1484   1.333   2.892   1.515 -0.0132 -0.9239  0.2449
  372SOL     OW 1485   0.798   2.271   0.488  0.8614 -0.2765  0.5125
  372SOL    HW1 1486   0.748   2.196   0.519 -0.8562  0.9137  1.2195
  372SOL    HW2 1487   0.815   2.273   0.393  2.4402  0.7683 -3.1046
  372SOL     MW 1488   0.793   2.261   0.480  0.8431  0.0184  0.1285
  373SOL     OW 1489   2.815   3.006   1.460 -0.4655 -0.4607 -0.0453
  373SOL    HW1 1490   2.893   2.980   1.408  0.3427 -1.3790 -1.2883
  373SOL    HW2 1491   2.779   3.088   1.419  1.5577 -1.4176  3.3393
  373SOL     MW 1492   2.821   3.013   1.448 -0.0920 -0.7081  0.2373
  374SOL     OW 1493   1.503   0.516   0.260 -0.2536  0.9092  0.6129
  374SOL    HW1 1494   1.574   0.475   0.216  1.2902 -1.2193  3.4050
  374SOL    HW2 1495   1.522   0.488   0.352 -3.2784 -1.0285  1.8350
  374SOL     MW 1496   1.515   0.507   0.266 -0.4490  0.3727  1.1425
  375SOL     OW 1497   0.964   2.101   2.240  0.4388 -0.3297 -0.4120
  375SOL    HW1 1498   1.034   2.076   2.302  1.6634  0.6368  0.7013
  375SOL    HW2 1499   0.950   2.012   2.204 -1.1524 -3.1764 -0.5535
  375SOL     MW 1500   0.972   2.086   2.243  0.3904 -0.5778 -0.2838
  376SOL     OW 1501   0.797   2.559   0.064 -0.2502  0.2609 -0.4944
  376SOL    HW1 1502   0.777   2.535   0.156  0.6800 -0.9200  2.6051
  376SOL    HW2 1503   0.768   2.495  -0.001 -0.0558 -2.1829 -4.6079
  376SOL     MW 1504   0.791   2.547   0.067 -0.1018 -0.2174 -0.6282
  377SOL     OW 1505   1.255   2.003   0.843  0.1605  0.1084 -0.3882
  377SOL    HW1 1506   1.169   2.001   0.787 -0.6015  0.4266  1.3522
  377SOL    HW2 1507   1.234   1.979   0.932  2.0950  0.4411  0.1422
  377SOL     MW 1508   1.241   2.000   0.848  0.3152  0.1943 -0.0886
  378SOL     OW 1509   0.876   2.846   1.580  0.3564  0.3032 -0.1170
  378SOL    HW1 1510   0.878   2.752   1.558 -0.4808 -0.1325 -2.3693
  378SOL    HW2 1511   0.932   2.886   1.518  3.5037 -1.3721  2.1863
  378SOL     MW 1512   0.884   2.839   1.569  0.6612  0.0247 -0.1103
  379SOL     OW 1513   1.132   1.707   2.251 -0.9606 -0.3767 -0.5276
  379SOL    HW1 1514   1.064   1.658   2.205 -1.1798 -1.8107 -0.3234
  379SOL    HW2 1515   1.218   1.659   2.243 -0.8321 -3.1310  0.6846
  379SOL     MW 1516   1.134   1.694   2.244 -0.9725 -0.9293 -0.3407
  380SOL     OW 1517   0.849   0.112   1.526  0.5658  0.0962 -0.7122
  380SOL    HW1 1518   0.863   0.048   1.448 -0.0777 -2.1696 -0.8274
  380SOL    HW2 1519   0.937   0.129   1.561  2.8231 -1.0041  0.1720
  380SOL     MW 1520   0.863   0.106   1.520  0.7788 -0.3479 -0.6107
  381SOL     OW 1521   0.764   2.021   0.825 -0.5480  0.4198  0.5607
  381SOL    HW1 1522   0.850   2.025   0.783  1.1083  2.2402 -0.1566
  381SOL    HW2 1523   0.760   2.111   0.866  0.2803 -0.7880 -0.3165
  381SOL     MW 1524   0.775   2.034   0.825 -0.2202  0.5006  0.3503
  382SOL     OW 1525   0.718   0.088   0.647 -0.1869 -0.4546 -0.4387
  382SOL    HW1 1526   0.693   0.088   0.739  1.9768  0.6979 -1.4721
  382SOL    HW2 1527   0.702  -0.005   0.627 -1.2098  3.5829  0.3183
  382SOL     MW 1528   0.712   0.076   0.657 -0.0364  0.2302 -0.4752
  383SOL     OW 1529   0.543   0.034   0.279  0.1807 -0.2951  0.4797
  383SOL    HW1 1530   0.571  -0.031   0.214 -0.8765 -0.6802 -0.0946
  383SOL    HW2 1531   0.492  -0.022   0.346 -1.1693  1.0048  0.4124
  383SOL     MW 1532   0.540   0.018   0.280 -0.1369 -0.1744  0.3950
  384SOL     OW 1533   0.716   2.925   0.600  0.1655  0.3391 -0.8903
  384SOL    HW1 1534   0.800   2.897   0.645 -0.2069  0.5386  0.4712
  384SOL    HW2 1535   0.665   2.840   0.600 -0.5657 -1.1102 -0.6667
  384SOL     MW 1536   0.720   2.910   0.606  0.0199  0.1742 -0.6811
  385SOL     OW 1537   1.407   2.080   1.492  0.1044  0.0642  0.2345
  385SOL    HW1 1538   1.481   2.097   1.553  2.7855 -0.4210 -0.4056
  385SOL    HW2 1539   1.336   2.040   1.543 -1.9941 -4.5384 -1.9426
  385SOL     MW 1540   1.408   2.077   1.506  0.1813 -0.6071 -0.1372
  386SOL     OW 1541   1.249   0.381   0.875 -0.6494  0.1958 -0.2599
  386SOL    HW1 1542   1.197   0.431   0.944  0.1371 -0.9911 -0.1585
  386SOL    HW2 1543   1.293   0.309   0.927 -0.1904  0.6361  2.7447
  386SOL     MW 1544   1.248   0.378   0.891 -0.4851  0.0973  0.1499
  387SOL     OW 1545   0.833   2.219   1.544 -0.4961 -0.2317  0.1355
  387SOL    HW1 1546   0.911   2.271   1.506 -0.5001  1.1804 -0.2198
  387SOL    HW2 1547   0.833   2.139   1.488  0.5331  0.6299 -1.3529
  387SOL     MW 1548   0.843   2.215   1.531 -0.3608  0.0683 -0.1077
  388SOL     OW 1549   1.514   2.783   1.231 -0.9156  0.5532  0.6982
  388SOL    HW1 1550   1.424   2.803   1.213  2.6490  3.2737 -1.3169
  388SOL    HW2 1551   1.528   2.710   1.169  1.1147  1.0928 -1.5013
  388SOL     MW 1552   1.504   2.776   1.221 -0.1774  0.9833  0.1421
  389SOL     OW 1553   0.451   0.139   3.024  0.2515  0.0852 -0.1448
  389SOL    HW1 1554   0.542   0.111   3.011  0.2422  0.5036  1.9071
  389SOL    HW2 1555   0.419   0.153   2.937 -0.6656  0.0918  4.9035
  389SOL     MW 1556   0.459   0.137   3.011  0.1292  0.1413  0.7920
  390SOL     OW 1557   1.334   0.060   0.726  0.3491 -0.3449 -0.0174
  390SOL    HW1 1558   1.376   0.063   0.641  1.9258 -0.7801  3.7959
  390SOL    HW2 1559   1.392   0.099   0.793  0.4947 -1.3808 -1.5122
  390SOL     MW 1560   1.347   0.066   0.724  0.5764 -0.5390  0.2885
  391SOL     OW 1561   0.358   2.221   1.424  0.4183 -0.5769  0.4230
  391SOL    HW1 1562   0.329   2.131   1.436  1.5911  1.6887  1.4149
  391SOL    HW2 1563   0.287   2.280   1.448 -2.9579 -0.5952 -1.0782
  391SOL     MW 1564   0.345   2.217   1.429  0.1275 -0.2804  0.3558
  392SOL     OW 1565   2.037   2.197   0.345  0.4637  0.4415  0.4632
  392SOL    HW1 1566   2.105   2.161   0.404 -1.1774 -2.7896  0.5134
  392SOL    HW2 1567   1.986   2.249   0.404 -0.7929  2.5722 -0.5399
  392SOL     MW 1568   2.039   2.199   0.361  0.0814  0.2963  0.3375
  393SOL     OW 1569   0.288   2.923   2.786  0.0908 -0.5089 -0.2424
  393SOL    HW1 1570   0.373   2.924   2.736 -2.8249  1.3156  0.1538
  393SOL    HW2 1571   0.271   3.013   2.814  0.5682 -0.2661 -0.3022
  393SOL     MW 1572   0.297   2.935   2.783 -0.2309 -0.2362 -0.1980
  394SOL     OW 1573   0.888   1.758   1.539  0.0762  0.0271 -0.3788
  394SOL    HW1 1574   0.834   1.740   1.622  0.5708 -1.6175  1.9435
  394SOL    HW2 1575   0.873   1.855   1.519 -0.0259 -0.2599  0.3368
  394SOL     MW 1576   0.879   1.769   1.547  0.1280 -0.2277  0.0220
  395SOL     OW 1577   0.946   2.907   2.639  0.2982  0.3142 -0.6921
  395SOL    HW1 1578   0.995   2.962   2.700 -1.0525  1.5003 -2.6285
  395SOL    HW2 1579   1.014   2.866   2.586  0.3963 -0.2156 -0.1531
  395SOL     MW 1580   0.961   2.909   2.640  0.1329  0.4008 -0.8764
  396SOL     OW 1581   0.699   1.843   2.380 -0.2254  0.1751 -0.2392
  396SOL    HW1 1582   0.773   1.886   2.431  0.3264  0.5610  1.5112
  396SOL    HW2 1583   0.708   1.748   2.379 -2.5910  3.0517  1.1942
  396SOL     MW 1584   0.710   1.836   2.386 -0.4647  0.6055  0.1808
  397SOL     OW 1585   1.039   2.367   1.405  0.4887  0.2894  0.5515
  397SOL    HW1 1586   1.069   2.362   1.313 -0.7820 -0.5106 -1.8085
  397SOL    HW2 1587   1.115   2.348   1.457 -1.5539 -0.2990  0.1532
  397SOL     MW 1588   1.053   2.364   1.399  0.0515  0.1062  0.1876
  398SOL     OW 1589   0.583   2.695   0.660  0.5177  0.4703  0.0590
  398SOL    HW1 1590   0.500   2.677   0.612  3.8114  2.0446 -1.3094
  398SOL    HW2 1591   0.640   2.618   0.659 -3.4861  0.6551  0.7726
  398SOL     MW 1592   0.580   2.682   0.653  0.4240  0.7024 -0.0274
  399SOL     OW 1593   0.229   2.088   0.291 -0.2720  0.2230 -0.1542
  399SOL    HW1 1594   0.143   2.130   0.305  0.0952  2.2811 -0.7360
  399SOL    HW2 1595   0.267   2.118   0.212  1.1275 -2.7938  0.7484
  399SOL     MW 1596   0.223   2.098   0.282 -0.0389  0.0965 -0.1119
  400SOL     OW 1597   0.547   1.928   0.073  0.2311 -0.0247 -0.5490
  400SOL    HW1 1598   0.492   2.010   0.062 -0.9486  1.9880 -1.6211
  400SOL    HW2 1599   0.506   1.882   0.146  1.1103  0.5423  1.4542
  400SOL     MW 1600   0.534   1.933   0.081  0.1914  0.3157 -0.4262
  401SOL     OW 1601   0.784   2.046   0.065  0.5336  0.0083  0.2843
  401SOL    HW1 1602   0.851   1.978   0.078 -0.1057  2.0996  1.5023
  401SOL    HW2 1603   0.701   1.994   0.074 -1.6654  1.5589 -1.0133
  401SOL     MW 1604   0.782   2.030   0.067  0.1591  0.4888  0.2738
  402SOL     OW 1605   0.596   2.955   1.751 -0.8111  0.4053  0.0764
  402SOL    HW1 1606   0.677   2.935   1.790  0.0347 -0.6798  0.9706
  402SOL    HW2 1607   0.614   3.039   1.706  0.5625  1.1653  2.0602
  402SOL     MW 1608   0.609   2.963   1.750 -0.5183  0.3624  0.4561
  403SOL     OW 1609   0.079   0.416   0.400 -0.3074  0.1901  0.1139
  403SOL    HW1 1610   0.160   0.432   0.449 -1.1477 -0.2904 -1.5654
  403SOL    HW2 1611   0.106   0.406   0.308  0.5299  2.3347 -1.3191
  403SOL     MW 1612   0.093   0.416   0.394 -0.3078  0.4096 -0.2967
  404SOL     OW 1613   0.944   2.904   0.732  0.3793  0.1912 -0.4935
  404SOL    HW1 1614   1.008   2.831   0.714  0.4209 -1.4253 -2.3166
  404SOL    HW2 1615   0.987   2.993   0.716  0.0009  1.3306 -0.7584
  404SOL     MW 1616   0.958   2.906   0.728  0.3349  0.1283 -0.7690
  405SOL     OW 1617   0.563   2.416   1.536  0.0829 -0.5803 -0.1562
  405SOL    HW1 1618   0.567   2.488   1.472 -2.1163  2.3884  1.0214
  405SOL    HW2 1619   0.502   2.362   1.494  1.1361  1.1055 -2.5847
  405SOL     MW 1620   0.556   2.419   1.522 -0.0683  0.0338 -0.3212
  406SOL     OW 1621   0.323   2.415   1.078 -0.4423 -0.0321  0.3959
  406SOL    HW1 1622   0.235   2.418   1.123 -1.3218  0.3728  1.0073
  406SOL    HW2 1623   0.351   2.322   1.088 -0.5340  0.2851  2.1471
  406SOL     MW 1624   0.315   2.403   1.085 -0.5705  0.0632  0.7076
  407SOL     OW 1625   0.019   2.716   1.141  0.0583  0.1463  0.1411
  407SOL    HW1 1626   0.086   2.683   1.209  4.2850 -0.4072 -1.0272
  407SOL    HW2 1627   0.070   2.715   1.057 -0.6073  0.3000 -0.6414
  407SOL     MW 1628   0.034   2.711   1.139  0.5282  0.0935 -0.1163
  408SOL     OW 1629   2.146   2.148   0.594 -0.4163  0.0927 -0.7743
  408SOL    HW1 1630   2.127   2.208   0.663  0.6710 -2.0802  1.1993
  408SOL    HW2 1631   2.084   2.075   0.614 -1.4099 -0.8037 -0.4980
  408SOL     MW 1632   2.135   2.146   0.606 -0.4039 -0.3123 -0.4774
  409SOL     OW 1633   1.480   0.151   0.961  0.1402  0.1537  0.2116
  409SOL    HW1 1634   1.570   0.180   0.967 -0.7105  2.2429 -1.9084
  409SOL    HW2 1635   1.485   0.056   0.983 -2.0143 -0.9414 -1.3281
  409SOL     MW 1636   1.492   0.143   0.965 -0.2563  0.2848 -0.2713
  410SOL     OW 1637   1.094   2.435   1.142  0.2596 -0.1895  0.1600
  410SOL    HW1 1638   1.004   2.442   1.099  0.8715 -0.0709 -1.9140
  410SOL    HW2 1639   1.138   2.382   1.077  0.3854 -0.2317  2.9161
  410SOL     MW 1640   1.088   2.429   1.127  0.3569 -0.1794  0.2500
  411SOL     OW 1641   1.941   0.061   2.874 -0.4511 -0.5624  0.4873
  411SOL    HW1 1642   1.893   0.007   2.813 -1.6224 -0.7213  1.8996
  411SOL    HW2 1643   1.877   0.073   2.941 -0.5255 -2.6883 -0.6991
  411SOL     MW 1644   1.926   0.056   2.875 -0.6154 -0.8639  0.5171
  412SOL     OW 1645   1.047   2.243   0.553 -0.3864 -0.8092  0.0726
  412SOL    HW1 1646   1.075   2.315   0.612 -0.2592 -0.5407 -2.0454
  412SOL    HW2 1647   0.956   2.257   0.543 -2.0535  1.8484 -0.8454
  412SOL     MW 1648   1.039   2.255   0.559 -0.5896 -0.4231 -0.3280
  413SOL     OW 1649   0.544   2.727   3.064 -0.0270  0.4227  0.1480
  413SOL    HW1 1650   0.595   2.645   3.043  0.5267  0.3253  0.2521
  413SOL    HW2 1651   0.580   2.786   2.995 -0.6094  2.1668 -4.6431
  413SOL     MW 1652   0.555   2.724   3.052 -0.0308  0.6399 -0.4704
  414SOL     OW 1653   1.972   2.985   1.134  0.7915  0.5331  0.6026
  414SOL    HW1 1654   1.892   3.042   1.127 -2.5254  1.5329 -1.3624
  414SOL    HW2 1655   2.035   3.023   1.069  0.1608 -0.2230 -1.3110
  414SOL     MW 1656   1.970   2.998   1.124  0.2707  0.5653  0.0908
  415SOL     OW 1657   1.820   2.710   1.077 -0.6105  0.4461  0.6726
  415SOL    HW1 1658   1.818   2.709   1.171  0.0401 -1.5280  0.4047
  415SOL    HW2 1659   1.863   2.792   1.059  1.0259  1.1094  1.1862
  415SOL     MW 1660   1.826   2.721   1.087 -0.3087  0.2731  0.7050
  416SOL     OW 1661   0.562   1.985   1.337 -0.5631  0.5376 -0.1490
  416SOL    HW1 1662   0.506   2.045   1.285 -2.3855  3.1491  1.6768
  416SOL    HW2 1663   0.554   1.896   1.303 -2.1038 -1.8981 -2.0806
  416SOL     MW 1664   0.554   1.982   1.326 -1.0068  0.5608 -0.1630
  417SOL     OW 1665   0.989   3.003   2.058  0.1912  0.0908  0.1376
  417SOL    HW1 1666   0.937   2.993   2.145 -1.1900 -2.0871 -0.1712
  417SOL    HW2 1667   0.949   2.960   1.984  0.5385 -0.7989 -0.3153
  417SOL     MW 1668   0.976   2.996   2.060  0.0548 -0.3139  0.0371
  418SOL     OW 1669   0.658   2.924   0.126  0.1390  0.0151  0.6598
  418SOL    HW1 1670   0.748   2.913   0.088  0.3257 -1.3967  0.1737
  418SOL    HW2 1671   0.605   2.853   0.082  2.2542 -1.7910  0.3190
  418SOL     MW 1672   0.663   2.913   0.115  0.4428 -0.4094  0.5507
  419SOL     OW 1673   0.482   2.630   1.323  0.1734  0.1707 -0.5279
  419SOL    HW1 1674   0.533   2.702   1.362 -0.8534 -0.0824  2.8314
  419SOL    HW2 1675   0.517   2.611   1.236 -2.8041 -1.0724 -1.6596
  419SOL     MW 1676   0.494   2.637   1.317 -0.3550 -0.0267 -0.2340
  420SOL     OW 1677   0.835   2.211   1.040 -0.7859 -0.0478 -0.1042
  420SOL    HW1 1678   0.771   2.238   1.106  1.1524 -0.7960  2.3684
  420SOL    HW2 1679   0.866   2.291   1.010 -1.4424 -0.0850  2.3671
  420SOL     MW 1680   0.830   2.225   1.045 -0.6168 -0.1514  0.5481
  421SOL     OW 1681   2.984   0.205   3.051  0.1624 -0.6511 -0.1142
  421SOL    HW1 1682   2.915   0.202   2.981 -1.7596  1.8551 -2.1182
  421SOL    HW2 1683   3.000   0.115   3.072  1.3946  0.9843  0.7167
  421SOL     MW 1684   2.977   0.193   3.044  0.0714 -0.1046 -0.2690
  422SOL     OW 1685   0.887   2.505   0.936 -0.3488 -0.7735  0.1939
  422SOL    HW1 1686   0.889   2.600   0.956  1.3200  1.6663  1.4795
  422SOL    HW2 1687   0.856   2.506   0.845  1.0961 -0.3347  0.9871
  422SOL     MW 1688   0.883   2.518   0.927  0.0620 -0.3937  0.4682
  423SOL     OW 1689   1.440   0.096   0.477  0.1241 -0.3042  0.5479
  423SOL    HW1 1690   1.420   0.078   0.387  1.5903 -0.7698 -0.3506
  423SOL    HW2 1691   1.482   0.176   0.482 -2.5856 -1.8087  1.4182
  423SOL     MW 1692   1.443   0.104   0.466 -0.0400 -0.5642  0.5442
  424SOL     OW 1693   0.669   2.306   1.253 -0.3904 -0.2148  0.4387
  424SOL    HW1 1694   0.575   2.292   1.240  2.9217 -2.1426 -0.8131
  424SOL    HW2 1695   0.700   2.256   1.327  1.1100  1.6360 -0.0616
  424SOL     MW 1696   0.661   2.298   1.261  0.2445 -0.2249  0.2075
  425SOL     OW 1697   1.716   2.781   2.038 -0.2500 -0.1143  0.5038
  425SOL    HW1 1698   1.742   2.807   1.941  0.8745 -4.5240 -0.1194
  425SOL    HW2 1699   1.761   2.696   2.048 -0.1032 -0.9238 -0.0721
  425SOL     MW 1700   1.725   2.773   2.027 -0.0823 -0.8029  0.3456
  426SOL     OW 1701   0.836   1.663   1.950  0.3247  0.0276  0.1602
  426SOL    HW1 1702   0.774   1.679   1.879  3.4095 -0.5754  1.0616
  426SOL    HW2 1703   0.823   1.728   2.017 -1.3239 -0.0333 -0.6975
  426SOL     MW 1704   0.826   1.674   1.950  0.5142 -0.0600  0.1660
  427SOL     OW 1705   0.393   1.669   1.868 -0.5214  0.0715 -0.4110
  427SOL    HW1 1706   0.425   1.631   1.782  1.5206 -0.2893  1.7035
  427SOL    HW2 1707   0.326   1.604   1.895 -0.4178 -2.0417  0.6850
  427SOL     MW 1708   0.388   1.655   1.860 -0.2383 -0.2549  0.0126
  428SOL     OW 1709   0.554   2.551   1.017 -0.1630  0.2704 -0.4537
  428SOL    HW1 1710   0.637   2.507   1.027 -2.2630  1.3619 -1.5673
  428SOL    HW2 1711   0.487   2.490   1.059  0.5289 -1.4193  1.8832
  428SOL     MW 1712   0.557   2.537   1.024 -0.3487  0.1914 -0.2923
  429SOL     OW 1713   1.253   2.812   1.133 -0.0225  0.1106  0.5090
  429SOL    HW1 1714   1.166   2.789   1.163 -2.3231  1.8291 -3.9506
  429SOL    HW2 1715   1.241   2.861   1.050  2.8048 -1.5864 -1.3853
  429SOL     MW 1716   1.240   2.816   1.126  0.0470  0.1134 -0.3293
  430SOL     OW 1717   1.157   2.726   0.714  0.0905  0.4836  0.0096
  430SOL    HW1 1718   1.163   2.637   0.750 -0.9917 -1.3263  0.0797
  430SOL    HW2 1719   1.132   2.724   0.627 -2.4181  3.4842  0.6536
  430SOL     MW 1720   1.155   2.714   0.708 -0.3833  0.6407  0.1039
  431SOL     OW 1721   0.329   1.960   1.016 -0.4442  0.3191  0.1421
  431SOL    HW1 1722   0.407   1.915   0.999 -0.7986  1.7269 -1.1503
  431SOL    HW2 1723   0.296   1.992   0.930 -1.7802 -1.5778  2.4862
  431SOL     MW 1724   0.335   1.958   1.003 -0.6673  0.2546  0.2809
  432SOL     OW 1725   0.077   0.049   1.191 -0.3535  0.1506  0.2520
  432SOL    HW1 1726   0.078   0.124   1.249  2.5526  0.0646 -2.6089
  432SOL    HW2 1727   0.006  -0.005   1.221  1.1300  0.2948 -0.2344
  432SOL     MW 1728   0.068   0.051   1.202  0.2257  0.1583 -0.1896
  433SOL     OW 1729   0.614   2.811   1.501 -0.0682  0.0652 -0.2430
  433SOL    HW1 1730   0.599   2.847   1.590  1.1794 -1.6563 -1.4540
  433SOL    HW2 1731   0.714   2.804   1.497  1.6553  2.4125 -1.2239
  433SOL     MW 1732   0.625   2.815   1.512  0.3238  0.1478 -0.5322
  434SOL     OW 1733   1.595   2.772   1.528 -0.4153 -0.9619 -0.1172
  434SOL    HW1 1734   1.507   2.815   1.534 -0.6321 -0.5109  1.6886
  434SOL    HW2 1735   1.598   2.750   1.434 -1.3799  0.4712 -0.3109
  434SOL     MW 1736   1.584   2.775   1.516 -0.5712 -0.7133  0.0955
  435SOL     OW 1737   2.820   1.798   0.181 -0.2334  0.2655  0.4801
  435SOL    HW1 1738   2.903   1.844   0.156 -0.6184  0.6100 -0.6994
  435SOL    HW2 1739   2.781   1.776   0.088 -0.8881  0.9017  1.6521
  435SOL     MW 1740   2.826   1.801   0.166 -0.3706  0.3949  0.4792
  436SOL     OW 1741   1.398   2.679   0.423 -0.4311  0.1343 -0.5597
  436SOL    HW1 1742   1.437   2.677   0.511  1.9078  0.6350  0.1631
  436SOL    HW2 1743   1.369   2.766   0.425 -1.5322  0.2098 -0.8820
  436SOL     MW 1744   1.399   2.690   0.435 -0.2678  0.2103 -0.5069
  437SOL     OW 1745   0.890   3.006   1.345  0.4978  0.2999 -0.2058
  437SOL    HW1 1746   0.972   3.059   1.340 -1.0560  1.5379 -1.7284
  437SOL    HW2 1747   0.893   2.926   1.290  0.9053 -0.8640  1.2000
  437SOL     MW 1748   0.902   3.002   1.337  0.3466  0.3097 -0.2212
  438SOL     OW 1749   0.807   2.595   1.868 -0.2286 -0.2176  0.8770
  438SOL    HW1 1750   0.835   2.558   1.954  0.7701 -1.5452 -0.4888
  438SOL    HW2 1751   0.770   2.516   1.830  1.8761  0.7407  3.5869
  438SOL     MW 1752   0.806   2.579   1.874  0.1808 -0.2663  1.0544
  439SOL     OW 1753   1.237   2.114   0.409  0.2522 -0.5351  0.2961
  439SOL    HW1 1754   1.179   2.157   0.471  0.0654 -3.4415 -0.5899
  439SOL    HW2 1755   1.216   2.163   0.328 -1.2157 -0.4736 -0.1539
  439SOL     MW 1756   1.227   2.126   0.407  0.0339 -0.9105  0.1198
  440SOL     OW 1757   1.744   3.006   3.066 -0.3200 -0.4135  0.1758
  440SOL    HW1 1758   1.682   2.941   3.107 -1.5961 -2.3773 -0.7179
  440SOL    HW2 1759   1.830   2.971   3.085  0.6495  1.2049 -0.1313
  440SOL     MW 1760   1.747   2.993   3.074 -0.3605 -0.4591  0.0174
  441SOL     OW 1761   0.350   2.657   0.492  0.3502  0.5535  0.7949
  441SOL    HW1 1762   0.315   2.606   0.416  1.1192 -3.0654 -0.8857
  441SOL    HW2 1763   0.377   2.745   0.463  0.3851 -1.0975  0.1126
  441SOL     MW 1764   0.349   2.662   0.478  0.4563 -0.1418  0.4832
  442SOL     OW 1765   3.079   2.384   0.621 -0.9125 -0.7291 -0.6342
  442SOL    HW1 1766   3.090   2.477   0.587  0.3721  2.4077 -1.4707
  442SOL    HW2 1767   2.994   2.364   0.660  0.2510  0.8175 -0.3652
  442SOL     MW 1768   3.069   2.393   0.622 -0.5895 -0.1112 -0.7091
  443SOL     OW 1769   1.449   1.761   1.944  0.6784 -0.4198  0.5572
  443SOL    HW1 1770   1.387   1.802   1.882  1.8786 -0.7995 -0.9190
  443SOL    HW2 1771   1.414   1.685   1.987 -2.8852 -0.9375 -2.0335
  443SOL     MW 1772   1.436   1.756   1.941  0.3666 -0.5382  0.0206
  444SOL     OW 1773   0.858   2.569   1.579  0.6143 -0.3917 -0.0122
  444SOL    HW1 1774   0.929   2.537   1.630 -1.8614  1.6293  0.9941
  444SOL    HW2 1775   0.782   2.531   1.623  0.6645  0.0744  1.0384
  444SOL     MW 1776   0.857   2.560   1.591  0.2942 -0.0635  0.2591
  445SOL     OW 1777   1.101   0.072   1.319  0.3302 -0.4793 -0.1747
  445SOL    HW1 1778   1.063   0.162   1.323 -1.8937  0.4521  2.7686
  445SOL    HW2 1779   1.120   0.076   1.227  1.9442 -0.5938  1.8427
  445SOL     MW 1780   1.098   0.084   1.307  0.2498 -0.3715  0.4799
  446SOL     OW 1781   2.761   2.882   1.098  0.1241 -0.3839 -0.1381
  446SOL    HW1 1782   2.714   2.931   1.032 -0.1710 -1.2085  2.0960
  446SOL    HW2 1783   2.800   2.804   1.059  2.8843 -0.2539 -0.9908
  446SOL     MW 1784   2.760   2.879   1.084  0.4493 -0.4755  0.0441
  447SOL     OW 1785   0.051   1.995   1.643 -0.6295  0.0614  0.2421
  447SOL    HW1 1786   0.067   1.910   1.691 -3.0763  0.2349  0.1520
  447SOL    HW2 1787  -0.025   1.963   1.586  1.1761 -0.4073 -2.2875
  447SOL     MW 1788   0.043   1.979   1.642 -0.7141  0.0225 -0.1035
  448SOL     OW 1789   1.716   2.410   1.652 -0.0638 -0.4832  0.5695
  448SOL    HW1 1790   1.675   2.319   1.649  0.6430  0.6195  1.3938
  448SOL    HW2 1791   1.642   2.462   1.682  2.4163  0.8267 -2.5739
  448SOL     MW 1792   1.701   2.405   1.656  0.3567 -0.1649  0.2635
  449SOL     OW 1793   0.832   2.894   0.362  0.2000 -0.0379  0.2509
  449SOL    HW1 1794   0.769   2.883   0.290 -1.0118  0.0011 -1.5694
  449SOL    HW2 1795   0.767   2.923   0.428  2.7739  0.6901  0.6718
  449SOL     MW 1796   0.815   2.896   0.361  0.3797  0.0633  0.0663
  450SOL     OW 1797   1.183   2.437   0.718 -0.2447 -0.2132  0.0255
  450SOL    HW1 1798   1.198   2.368   0.790  1.8459  1.1990  3.9257
  450SOL    HW2 1799   1.268   2.435   0.680  0.7093 -1.0376  0.0041
  450SOL     MW 1800   1.196   2.427   0.722  0.1570 -0.1357  0.5373
  451SOL     OW 1801   0.550   2.033   1.640  0.1916 -0.5530  0.2685
  451SOL    HW1 1802   0.555   2.127   1.626 -0.6154 -2.5698 -0.0153
  451SOL    HW2 1803   0.535   2.004   1.548  0.0653  0.3983  1.5498
  451SOL     MW 1804   0.549   2.041   1.626  0.0685 -0.6936  0.4001
  452SOL     OW 1805   0.280   2.673   0.050 -0.2308 -0.1295  0.2526
  452SOL    HW1 1806   0.364   2.667   0.012 -1.6085 -2.4322 -1.2678
  452SOL    HW2 1807   0.219   2.703  -0.011  1.9896  1.2056  0.5744
  452SOL     MW 1808   0.283   2.676   0.037 -0.1196 -0.2572  0.0945
  453SOL     OW 1809   0.334   2.981   1.605  0.2699  0.3226 -0.2717
  453SOL    HW1 1810   0.399   2.963   1.677 -0.5616 -1.0889 -0.9213
  453SOL    HW2 1811   0.383   3.012   1.524 -0.6538 -1.6562 -1.1953
  453SOL     MW 1812   0.349   2.983   1.604  0.0383 -0.1247 -0.4793
  454SOL     OW 1813   0.972   2.763   1.219  0.5124  0.7620 -0.1126
  454SOL    HW1 1814   0.923   2.696   1.273 -1.8952 -0.7443 -3.0126
  454SOL    HW2 1815   0.918   2.776   1.138 -0.2987  0.9099 -1.8762
  454SOL     MW 1816   0.958   2.756   1.215  0.0877  0.5828 -0.7279
  455SOL     OW 1817   1.607   2.871   0.155  0.0869 -0.3316 -0.1708
  455SOL    HW1 1818   1.655   2.883   0.239  0.7269 -0.8568  1.0806
  455SOL    HW2 1819   1.595   2.776   0.163 -2.9245  0.1382 -1.4064
  455SOL     MW 1820   1.612   2.860   0.167 -0.2260 -0.3389 -0.1687
  456SOL     OW 1821   2.733   0.361   1.515 -0.1494 -0.0825  0.7139
  456SOL    HW1 1822   2.709   0.289   1.453 -0.6779 -3.0170 -2.3077
  456SOL    HW2 1823   2.801   0.398   1.469 -0.4610 -4.0642  3.3603
  456SOL     MW 1824   2.739   0.356   1.501 -0.2603 -0.9950  0.6644
  457SOL     OW 1825   0.905   1.574   3.009 -0.3217  0.5811  0.6982
  457SOL    HW1 1826   0.827   1.594   3.069 -3.6444 -1.4049 -0.3143
  457SOL    HW2 1827   0.964   1.541   3.072 -3.3626  0.7582  2.1798
  457SOL     MW 1828   0.903   1.572   3.025 -1.1613  0.3424  0.7601
  458SOL     OW 1829   1.371   1.478   0.567 -0.0911  0.1474 -0.1016
  458SOL    HW1 1830   1.335   1.566   0.546 -2.3734 -1.6764  0.4572
  458SOL    HW2 1831   1.370   1.424   0.485 -0.1684 -0.4162 -0.7165
  458SOL     MW 1832   1.366   1.482   0.553 -0.4024 -0.1676 -0.1090
  459SOL     OW 1833   1.480   0.027   0.211  0.2019 -0.0173  0.3317
  459SOL    HW1 1834   1.494  -0.068   0.191 -1.1670 -1.0245  1.6034
  459SOL    HW2 1835   1.439   0.059   0.131 -2.0851 -0.6930 -0.0327
  459SOL     MW 1836   1.477   0.018   0.197 -0.2805 -0.2394  0.4514
  460SOL     OW 1837   1.763   2.126   0.614  0.3596  0.2483  0.2825
  460SOL    HW1 1838   1.683   2.087   0.656  1.3922 -1.7439  1.8570
  460SOL    HW2 1839   1.827   2.054   0.616 -0.0680  0.5825 -2.0690
  460SOL     MW 1840   1.761   2.111   0.620  0.4394  0.0296  0.1800
  461SOL     OW 1841   0.387   2.388   0.561  0.5050  0.1590 -0.5483
  461SOL    HW1 1842   0.389   2.472   0.523 -2.1201  1.9807  0.6214
  461SOL    HW2 1843   0.362   2.407   0.653  1.1258 -1.9783  2.2279
  461SOL     MW 1844   0.384   2.401   0.568  0.2405  0.1174 -0.0277
  462SOL     OW 1845   0.321   0.257   1.292 -0.4101 -0.1665 -0.4121
  462SOL    HW1 1846   0.348   0.224   1.207  1.3111  1.1851  2.4594
  462SOL    HW2 1847   0.405   0.288   1.331  0.6325 -2.0553  2.2202
  462SOL     MW 1848   0.335   0.257   1.286 -0.0455 -0.2374  0.3141
  463SOL     OW 1849   0.990   0.086   0.684 -0.5849  0.2655 -0.3124
  463SOL    HW1 1850   1.023   0.110   0.600  1.5520 -0.7783  0.8442
  463SOL    HW2 1851   0.892   0.078   0.684  1.3589  1.8399 -0.0626
  463SOL     MW 1852   0.981   0.088   0.673 -0.0465  0.3355 -0.1268
  464SOL     OW 1853   0.785   3.077   2.273 -0.5723 -0.1025 -0.2340
  464SOL    HW1 1854   0.766   2.989   2.246 -0.0306  0.9474 -0.3732
  464SOL    HW2 1855   0.766   3.084   2.366  1.6181  0.4256 -2.2464
  464SOL     MW 1856   0.780   3.066   2.282 -0.2119  0.1057 -0.5179
  465SOL     OW 1857   0.797   0.292   0.486  1.4466 -0.2663 -0.5111
  465SOL    HW1 1858   0.763   0.218   0.544  1.3121 -0.1677 -1.1422
  465SOL    HW2 1859   0.765   0.261   0.398  1.6490  0.3124  0.6825
  465SOL     MW 1860   0.789   0.278   0.482  1.4556 -0.1769 -0.4369
  466SOL     OW 1861   1.014   2.028   0.710 -0.6313  0.4783  0.1590
  466SOL    HW1 1862   1.024   1.955   0.651 -1.2550  0.4013 -0.3655
  466SOL    HW2 1863   1.018   2.111   0.658  1.8224  0.1182  0.1815
  466SOL     MW 1864   1.016   2.030   0.695 -0.3899  0.4207  0.0927
  467SOL     OW 1865   1.219   2.283   0.936  0.1611  0.5757  0.0270
  467SOL    HW1 1866   1.313   2.294   0.956  0.7146 -0.5549  1.0111
  467SOL    HW2 1867   1.217   2.190   0.911 -1.0615 -1.4832  0.0731
  467SOL     MW 1868   1.231   2.272   0.935  0.0728  0.1549  0.1629
  468SOL     OW 1869   0.400   2.636   2.005  0.4247 -0.0930 -0.5221
  468SOL    HW1 1870   0.412   2.587   1.923  1.5370  1.3669  0.4696
  468SOL    HW2 1871   0.309   2.646   2.012  2.7248  2.6520  2.0250
  468SOL     MW 1872   0.390   2.631   1.995  0.8749  0.4618 -0.0552
  469SOL     OW 1873   0.376   2.156   1.835  0.1577 -0.3588  0.4533
  469SOL    HW1 1874   0.305   2.095   1.859 -0.4599 -1.3241  0.9965
  469SOL    HW2 1875   0.437   2.099   1.784 -0.0222  1.6060  1.7832
  469SOL     MW 1876   0.375   2.141   1.832  0.0525 -0.2269  0.7004
  470SOL     OW 1877   3.026   2.625   0.129 -0.0966 -0.6154  0.2312
  470SOL    HW1 1878   2.937   2.606   0.156 -3.1457 -0.8122 -0.4505
  470SOL    HW2 1879   3.015   2.622   0.030  0.5090  1.3281  0.2290
  470SOL     MW 1880   3.013   2.622   0.119 -0.4190 -0.3849  0.1410
  471SOL     OW 1881   1.184   2.670   1.448 -0.0268 -0.5266  0.0861
  471SOL    HW1 1882   1.140   2.625   1.516 -2.8226  1.7035 -2.2490
  471SOL    HW2 1883   1.136   2.634   1.373 -0.5754 -1.6630  0.1279
  471SOL     MW 1884   1.172   2.659   1.447 -0.4681 -0.3823 -0.2165
  472SOL     OW 1885   2.845   2.117   0.326 -0.2590  0.5667  0.2096
  472SOL    HW1 1886   2.896   2.100   0.241 -1.1063  1.2728 -1.0706
  472SOL    HW2 1887   2.829   2.031   0.367 -1.3830  0.3114  1.3166
  472SOL     MW 1888   2.850   2.103   0.320 -0.5191  0.6262  0.1867
  473SOL     OW 1889   0.829   2.538   1.267 -0.8211 -0.5330  0.2986
  473SOL    HW1 1890   0.756   2.476   1.251 -0.6822  0.8509  3.2816
  473SOL    HW2 1891   0.887   2.482   1.319  1.9167  0.6203  0.6522
  473SOL     MW 1892   0.827   2.522   1.272 -0.4416 -0.1983  0.7388
  474SOL     OW 1893   0.867   2.082   1.804 -0.3213 -0.4438  0.2851
  474SOL    HW1 1894   0.947   2.124   1.822  0.1203 -0.0738 -3.1827
  474SOL    HW2 1895   0.859   2.095   1.710  0.8358  1.5717  0.9955
  474SOL     MW 1896   0.876   2.089   1.794 -0.1103 -0.1291 -0.0787
  475SOL     OW 1897   1.642   3.065   1.445  0.4322  0.3521 -0.1814
  475SOL    HW1 1898   1.554   3.057   1.399 -1.5259 -1.0899 -0.6893
  475SOL    HW2 1899   1.643   2.988   1.504  1.9131 -1.0484  0.5427
  475SOL     MW 1900   1.630   3.054   1.446  0.3693 -0.0229 -0.1528
  476SOL     OW 1901   1.432   2.606   1.028 -0.0732  0.1967  0.5555
  476SOL    HW1 1902   1.339   2.625   1.055 -0.0609  2.1041 -1.9177
  476SOL    HW2 1903   1.451   2.676   0.969 -0.9121 -1.2933  1.1746
  476SOL     MW 1904   1.422   2.618   1.024 -0.1823  0.2518  0.3109
  477SOL     OW 1905   0.808   2.507   0.680  0.1506 -0.3191 -0.4557
  477SOL    HW1 1906   0.870   2.560   0.627  2.3027 -0.0213 -0.6976
  477SOL    HW2 1907   0.785   2.440   0.612 -2.0612 -2.2063  0.6552
  477SOL     MW 1908   0.813   2.505   0.664  0.1427 -0.5288 -0.3411
  478SOL     OW 1909   0.182   2.693   0.926 -0.2789 -0.9088  0.1021
  478SOL    HW1 1910   0.223   2.769   0.900  1.3055 -2.0193 -2.4833
  478SOL    HW2 1911   0.217   2.626   0.873  2.1012 -0.8324  0.9396
  478SOL     MW 1912   0.192   2.694   0.915  0.2442 -1.0453 -0.1285
  479SOL     OW 1913   1.462   1.989   1.241  0.2001 -0.1986 -0.1749
  479SOL    HW1 1914   1.452   2.019   1.332 -0.6857 -0.7402  1.1368
  479SOL    HW2 1915   1.525   1.914   1.243 -0.7937 -2.0651 -1.5982
  479SOL     MW 1916   1.469   1.983   1.254 -0.0479 -0.5163 -0.1897
  480SOL     OW 1917   1.881   2.419   1.257  0.5701 -0.0661  0.1967
  480SOL    HW1 1918   1.827   2.366   1.316 -0.7762 -1.2859 -1.2304
  480SOL    HW2 1919   1.936   2.362   1.200  0.8728 -1.3706 -1.8128
  480SOL     MW 1920   1.881   2.405   1.257  0.4324 -0.3992 -0.2567
  481SOL     OW 1921   1.015   0.012   0.973  0.1674 -0.1476  0.8617
  481SOL    HW1 1922   1.079  -0.055   0.953  1.3229 -0.8922  0.9614
  481SOL    HW2 1923   1.061   0.095   0.983 -0.1504 -1.3931  0.4299
  481SOL     MW 1924   1.029   0.014   0.972  0.2780 -0.4102  0.8179
  482SOL     OW 1925   1.076   3.060   0.273  0.2572  0.0474  0.4821
  482SOL    HW1 1926   0.998   3.010   0.292  0.2134 -0.8950  1.0529
  482SOL    HW2 1927   1.068   3.146   0.317  2.5123  3.6413 -4.3761
  482SOL     MW 1928   1.065   3.065   0.281  0.5490  0.3972 -0.0836
  483SOL     OW 1929   0.425   2.940   0.438 -0.0442  0.7962 -0.4758
  483SOL    HW1 1930   0.345   2.962   0.384 -1.2599 -0.6547  0.7362
  483SOL    HW2 1931   0.404   2.977   0.526 -1.4527  3.3578 -1.3192
  483SOL     MW 1932   0.412   2.948   0.443 -0.3904  0.9427 -0.4272
  484SOL     OW 1933   1.759   1.890   1.433  0.7104  0.3302  1.0664
  484SOL    HW1 1934   1.791   1.980   1.426 -1.6263  1.4104 -0.5699
  484SOL    HW2 1935   1.725   1.881   1.522  0.6333 -2.4117  0.1185
  484SOL     MW 1936   1.758   1.901   1.444  0.3919  0.1110  0.7255
  485SOL     OW 1937   0.484   2.300   0.228 -0.9893 -0.6338  0.3041
  485SOL    HW1 1938   0.484   2.252   0.318 -1.1293 -3.5909  1.9883
  485SOL    HW2 1939   0.454   2.390   0.244  1.9468 -0.8604 -2.7661
  485SOL     MW 1940   0.480   2.306   0.242 -0.6203 -1.0538  0.1212
  486SOL     OW 1941   0.158   2.395   1.534  0.5209  0.7521 -0.4112
  486SOL    HW1 1942   0.135   2.474   1.490  1.9250 -1.9071 -1.8257
  486SOL    HW2 1943   0.136   2.404   1.632  1.5939 -0.2545  1.4104
  486SOL     MW 1944   0.152   2.407   1.541  0.8477  0.2684 -0.3575
  487SOL     OW 1945   1.252   1.660   1.022 -1.2325 -0.3534  0.0137
  487SOL    HW1 1946   1.235   1.752   1.050  0.2067  2.5752  0.7000
  487SOL    HW2 1947   1.344   1.670   0.983  1.6426  1.4588 -1.3525
  487SOL     MW 1948   1.262   1.674   1.020 -0.6632  0.2721 -0.0760
  488SOL     OW 1949   1.676   1.853   0.500 -0.5800 -0.0651 -0.8542
  488SOL    HW1 1950   1.741   1.883   0.429  2.0399  1.0706 -2.9454
  488SOL    HW2 1951   1.603   1.918   0.485  1.2478 -1.5886 -0.5223
  488SOL     MW 1952   1.675   1.866   0.488  0.0068 -0.1163 -1.0863
  489SOL     OW 1953   0.687   0.761   0.595  0.0782 -0.4227 -0.1247
  489SOL    HW1 1954   0.725   0.671   0.583  2.8372 -0.5002  0.9773
  489SOL    HW2 1955   0.702   0.772   0.688  1.9810 -0.8311 -1.5510
  489SOL     MW 1956   0.694   0.750   0.606  0.6933 -0.4869 -0.1675
  490SOL     OW 1957   1.495   2.044   0.466 -0.7447 -0.0427  0.2453
  490SOL    HW1 1958   1.544   2.127   0.464 -1.2781  0.9090  1.2687
  490SOL    HW2 1959   1.409   2.070   0.429  2.1314  0.4661  2.4544
  490SOL     MW 1960   1.491   2.058   0.460 -0.4356  0.1500  0.6718
  491SOL     OW 1961   1.294   2.916   0.408  0.9063 -0.4832 -0.5644
  491SOL    HW1 1962   1.310   2.997   0.450 -0.1519  1.2880 -3.2718
  491SOL    HW2 1963   1.228   2.945   0.343  1.4224  1.4553 -1.4277
  491SOL     MW 1964   1.287   2.930   0.405  0.8348  0.0062 -1.0355
  492SOL     OW 1965   1.520   2.085   0.720 -0.3802 -0.3492  0.1374
  492SOL    HW1 1966   1.486   2.069   0.627 -0.7272  2.8925 -1.8975
  492SOL    HW2 1967   1.445   2.087   0.781  1.8768  0.7757 -1.1295
  492SOL     MW 1968   1.505   2.083   0.716 -0.1282  0.2269 -0.2983
  493SOL     OW 1969   0.211   2.993   0.274  0.0463 -0.1772  0.0381
  493SOL    HW1 1970   0.178   3.059   0.335  1.9683  2.0117 -1.1465
  493SOL    HW2 1971   0.216   3.039   0.187 -0.0140  1.3006  0.9285
  493SOL     MW 1972   0.207   3.008   0.271  0.2919  0.3066 -0.0007
  494SOL     OW 1973   0.411   2.453   1.797 -0.3898  0.0658  0.0513
  494SOL    HW1 1974   0.439   2.371   1.839 -0.0012 -0.5463  0.7871
  494SOL    HW2 1975   0.475   2.454   1.718  1.4349 -0.9219 -1.3261
  494SOL     MW 1976   0.423   2.443   1.792 -0.0978 -0.1453 -0.0334
  495SOL     OW 1977   2.926   1.678   2.597 -0.1322 -0.2176 -0.2575
  495SOL    HW1 1978   2.924   1.777   2.575 -1.7132  0.4706 -0.0533
  495SOL    HW2 1979   2.902   1.667   2.694 -1.7805 -0.9693 -3.1155
  495SOL     MW 1980   2.923   1.690   2.607 -0.5582 -0.2259 -0.6076
  496SOL     OW 1981   2.912   2.293   2.672  0.0338  0.3071  0.3076
  496SOL    HW1 1982   2.956   2.224   2.720 -0.8307 -1.1935 -1.7326
  496SOL    HW2 1983   2.983   2.350   2.679 -1.1082  1.7123  0.5718
  496SOL     MW 1984   2.927   2.292   2.679 -0.2310  0.2945  0.0733
  497SOL     OW 1985   1.520   2.265   2.642 -0.6184 -0.1869  0.0943
  497SOL    HW1 1986   1.488   2.270   2.550 -2.6087 -0.8892  0.4030
  497SOL    HW2 1987   1.488   2.181   2.674  0.0480 -0.3899 -1.8990
  497SOL     MW 1988   1.512   2.255   2.634 -0.7931 -0.3064 -0.1280
  498SOL     OW 1989   1.543   2.747   2.377 -0.1344  0.0721 -0.3683
  498SOL    HW1 1990   1.538   2.659   2.348 -3.2250 -0.3098 -2.3263
  498SOL    HW2 1991   1.616   2.736   2.443  1.9358 -1.8732 -0.6865
  498SOL     MW 1992   1.552   2.734   2.382 -0.2690 -0.2349 -0.6686
  499SOL     OW 1993   0.937   0.095   0.067 -0.2776 -0.0860  0.5325
  499SOL    HW1 1994   0.870   0.129   0.134 -0.2473  1.9798 -1.0602
  499SOL    HW2 1995   0.989   0.021   0.098  2.0614 -0.6699  3.8893
  499SOL     MW 1996   0.935   0.090   0.080  0.0350  0.1095  0.7652
  500SOL     OW 1997   1.117   2.574   2.783 -0.2823  0.1698 -0.6770
  500SOL    HW1 1998   1.148   2.509   2.846 -0.5715  1.3682  0.4122
  500SOL    HW2 1999   1.036   2.624   2.808  0.5396  0.5610  0.9965
  500SOL     MW 2000   1.110   2.572   2.795 -0.2120  0.3795 -0.3125
  501SOL     OW 2001   1.756   2.256   0.023 -0.3937  0.7732  0.0188
  501SOL    HW1 2002   1.751   2.341   0.059 -0.4489 -3.6158  4.1675
  501SOL    HW2 2003   1.853   2.250   0.028  2.3329 -3.3948 -0.5654
  501SOL     MW 2004   1.768   2.266   0.028 -0.0412 -0.3558  0.4891
  502SOL     OW 2005   0.104   2.838   2.958  0.0317  0.5600  0.4106
  502SOL    HW1 2006   0.035   2.768   2.936  0.7194 -1.0543 -1.8330
  502SOL    HW2 2007   0.171   2.844   2.892 -0.7734  0.7341  2.7869
  502SOL     MW 2008   0.104   2.830   2.947  0.0162  0.3700  0.4281
  503SOL     OW 2009   1.128   2.713   2.118  0.2762  0.2458  0.2765
  503SOL    HW1 2010   1.180   2.685   2.041 -2.0585  2.1132 -0.5452
  503SOL    HW2 2011   1.054   2.759   2.087 -0.8950 -0.5646  1.0419
  503SOL     MW 2012   1.125   2.715   2.104 -0.1864  0.3853  0.2690
  504SOL     OW 2013   0.017   2.713   2.119  0.7612  0.1441  0.1266
  504SOL    HW1 2014   0.032   2.626   2.089  0.5935  0.8671  0.5342
  504SOL    HW2 2015  -0.079   2.720   2.106  0.0891 -0.2953 -0.7527
  504SOL     MW 2016   0.006   2.703   2.113  0.6504  0.1815  0.0644
  505SOL     OW 2017   1.740   2.661   2.825  0.6462  0.7714  0.6527
  505SOL    HW1 2018   1.764   2.672   2.731  2.1897 -1.0267 -0.8028
  505SOL    HW2 2019   1.662   2.723   2.833 -0.8871  2.5395  1.1611
  505SOL     MW 2020   1.733   2.671   2.813  0.6475  0.7674  0.5277
  506SOL     OW 2021   1.583   3.082   2.850  0.2749  0.0636 -0.2985
  506SOL    HW1 2022   1.643   3.050   2.920 -2.0275 -1.3545 -0.1415
  506SOL    HW2 2023   1.627   3.059   2.765  0.9035 -1.3415  0.1974
  506SOL     MW 2024   1.597   3.075   2.848  0.0541 -0.3089 -0.2123
  507SOL     OW 2025   0.905   2.724   2.827 -0.2567  0.9201  0.5241
  507SOL    HW1 2026   0.918   2.798   2.761  2.0234  2.8046 -3.0107
  507SOL    HW2 2027   0.817   2.680   2.805  2.1473 -1.2655  0.1800
  507SOL     MW 2028   0.895   2.728   2.815  0.3613  0.8804  0.0123
  508SOL     OW 2029   1.138   2.097   2.485  0.0931  0.2656  0.2346
  508SOL    HW1 2030   1.187   2.068   2.561  1.1556  0.3018  1.7236
  508SOL    HW2 2031   1.086   2.169   2.529  3.5900 -1.8602 -1.5741
  508SOL     MW 2032   1.138   2.103   2.501  0.6946 -0.0101  0.1924
  509SOL     OW 2033   0.673   2.599   2.717  0.4483 -0.2414  0.1754
  509SOL    HW1 2034   0.682   2.542   2.643  1.4595  0.2549  0.9653
  509SOL    HW2 2035   0.585   2.596   2.742  1.1517 -1.7870 -1.4047
  509SOL     MW 2036   0.662   2.591   2.711  0.6745 -0.3799  0.0711
  510SOL     OW 2037   1.499   2.562   1.676 -0.4162 -0.5248  0.2589
  510SOL    HW1 2038   1.546   2.628   1.622  3.1012 -0.1352 -2.1143
  510SOL    HW2 2039   1.437   2.602   1.731  0.1106 -0.3023  1.3697
  510SOL     MW 2040   1.497   2.576   1.676  0.1174 -0.4440  0.0924
  511SOL     OW 2041   0.422   2.643   2.463 -0.1304 -0.0233  0.1373
  511SOL    HW1 2042   0.499   2.574   2.465 -0.5404  1.7884 -0.1492
  511SOL    HW2 2043   0.436   2.687   2.375  0.9965  1.5838 -1.8797
  511SOL     MW 2044   0.434   2.640   2.451 -0.0358  0.4278 -0.1666
  512SOL     OW 2045   1.013   2.010   2.820  0.7152  0.0107  0.4291
  512SOL    HW1 2046   0.932   2.038   2.863  0.1963  0.2160 -1.5408
  512SOL    HW2 2047   1.027   1.917   2.833 -0.4128 -0.3549 -1.5699
  512SOL     MW 2048   1.005   2.002   2.828  0.4979 -0.0104 -0.0945
  513SOL     OW 2049   1.595   2.479   2.290 -0.0599  0.0584  0.0287
  513SOL    HW1 2050   1.638   2.494   2.202  2.6925  1.9512 -0.5430
  513SOL    HW2 2051   1.664   2.468   2.358 -0.3130  1.2827  0.8348
  513SOL     MW 2052   1.610   2.479   2.288  0.2699  0.4696  0.0596
  514SOL     OW 2053   0.292   2.466   2.636  0.1297 -0.4710 -0.1278
  514SOL    HW1 2054   0.323   2.538   2.579 -1.7885 -0.2303  1.6596
  514SOL    HW2 2055   0.326   2.472   2.731  0.8693  0.6209  1.1804
  514SOL     MW 2056   0.301   2.476   2.641 -0.0258 -0.2952  0.2806
  515SOL     OW 2057   1.147   2.019   1.999 -0.7829  0.6632 -0.3823
  515SOL    HW1 2058   1.118   2.095   1.948  0.7930 -0.4826 -1.8861
  515SOL    HW2 2059   1.243   2.024   2.005  0.5539  0.5278  0.6437
  515SOL     MW 2060   1.155   2.029   1.993 -0.3986  0.4941 -0.4454
  516SOL     OW 2061   1.443   2.524   3.102 -0.0680 -0.2379  0.4750
  516SOL    HW1 2062   1.496   2.500   3.026  0.6869 -0.0007  0.7941
  516SOL    HW2 2063   1.361   2.549   3.065  0.8292 -3.8210  1.3330
  516SOL     MW 2064   1.440   2.524   3.087  0.1500 -0.6794  0.6303
  517SOL     OW 2065   0.573   2.429   2.106  0.2188 -0.0165  0.3946
  517SOL    HW1 2066   0.550   2.520   2.092  0.9579  0.1903  0.1559
  517SOL    HW2 2067   0.478   2.385   2.105  0.5666 -0.6069  0.7012
  517SOL     MW 2068   0.557   2.435   2.104  0.3622 -0.0671  0.4036
  518SOL     OW 2069   1.769   0.204   3.066  0.7365  0.3681 -0.2846
  518SOL    HW1 2070   1.721   0.288   3.063 -0.1503 -3.6846 -0.7478
  518SOL    HW2 2071   1.744   0.170   3.154  0.9039  1.9428  1.0024
  518SOL     MW 2072   1.760   0.210   3.077  0.6416  0.0412 -0.1759
  519SOL     OW 2073   0.732   2.358   1.767 -0.3286  0.5218 -0.0358
  519SOL    HW1 2074   0.812   2.307   1.783 -0.0786  0.9417 -2.0564
  519SOL    HW2 2075   0.701   2.343   1.678  1.2905  0.0556 -2.6483
  519SOL     MW 2076   0.738   2.349   1.758 -0.0820  0.5157 -0.6471
  520SOL     OW 2077   1.283   2.111   2.962  0.2373  0.1719 -0.5618
  520SOL    HW1 2078   1.212   2.049   2.940 -0.9267 -1.2639  0.5778
  520SOL    HW2 2079   1.310   2.064   3.041  0.1468 -1.6328  1.0860
  520SOL     MW 2080   1.277   2.096   2.970  0.0718 -0.2556 -0.1940
  521SOL     OW 2081   1.715   2.005   2.188 -0.2430 -0.4395  0.2277
  521SOL    HW1 2082   1.778   2.036   2.121 -2.3705 -1.3793  0.7323
  521SOL    HW2 2083   1.667   1.939   2.137  0.5678  1.1609 -0.4476
  521SOL     MW 2084   1.717   2.000   2.173 -0.4167 -0.3523  0.2052
  522SOL     OW 2085   2.880   2.541   2.216 -0.6956  0.2560 -0.2702
  522SOL    HW1 2086   2.949   2.474   2.225 -1.6799 -2.2649 -1.8265
  522SOL    HW2 2087   2.922   2.620   2.258  1.7628  2.9208  1.3779
  522SOL     MW 2088   2.895   2.543   2.222 -0.5011  0.2750 -0.2581
  523SOL     OW 2089   0.926   1.532   2.192 -0.3939  0.3537 -0.3804
  523SOL    HW1 2090   0.871   1.576   2.130 -0.6991  0.7794  0.7109
  523SOL    HW2 2091   0.958   1.448   2.153  0.9510  1.2025 -0.9250
  523SOL     MW 2092   0.923   1.527   2.179 -0.2567  0.5219 -0.3082
  524SOL     OW 2093   0.678   2.413   2.965  0.0429 -0.0932  0.0136
  524SOL    HW1 2094   0.705   2.474   2.889  1.1318 -0.2588 -1.7095
  524SOL    HW2 2095   0.737   2.336   2.952 -3.1925 -3.1243  0.3101
  524SOL     MW 2096   0.689   2.411   2.953 -0.2403 -0.5149 -0.1746
  525SOL     OW 2097   0.323   2.294   2.081  0.2370  0.2674 -0.6162
  525SOL    HW1 2098   0.314   2.243   2.158 -1.2365  1.4564 -2.6376
  525SOL    HW2 2099   0.331   2.231   2.016 -0.1457  0.7559 -0.4836
  525SOL     MW 2100   0.323   2.279   2.082 -0.0079  0.4887 -0.8654
  526SOL     OW 2101   0.653   2.088   2.006  0.2118  0.8222  0.0037
  526SOL    HW1 2102   0.724   2.107   1.946 -0.3879  1.5856  2.4116
  526SOL    HW2 2103   0.681   2.133   2.084 -1.2942  1.0626 -2.6004
  526SOL     MW 2104   0.666   2.096   2.008 -0.0660  0.9547 -0.0222
  527SOL     OW 2105   1.419   2.027   2.067  0.2577  0.0787  0.5692
  527SOL    HW1 2106   1.394   2.021   2.158  1.1759  3.6798 -0.1180
  527SOL    HW2 2107   1.437   1.936   2.036  4.7948  0.2586  0.1871
  527SOL     MW 2108   1.418   2.014   2.075  0.9775  0.5776  0.4281
  528SOL     OW 2109   0.654   2.893   2.885 -0.4033 -0.3096  0.5657
  528SOL    HW1 2110   0.695   2.975   2.914  0.3345 -0.4964  1.0337
  528SOL    HW2 2111   0.591   2.920   2.820 -1.7351 -0.0178  3.9271
  528SOL     MW 2112   0.651   2.908   2.881 -0.4817 -0.2957  1.0709
  529SOL     OW 2113   1.076   2.268   1.855 -0.1470  0.3947  0.0137
  529SOL    HW1 2114   1.064   2.315   1.933 -2.2545  3.1352 -1.2977
  529SOL    HW2 2115   1.088   2.346   1.799 -1.7210  3.4294 -2.7540
  529SOL     MW 2116   1.076   2.284   1.858 -0.6328  1.1567 -0.5245
  530SOL     OW 2117   1.181   2.409   3.019  0.1368 -0.4026  0.0857
  530SOL    HW1 2118   1.117   2.435   3.090  1.4256 -0.7437  0.8257
  530SOL    HW2 2119   1.192   2.315   3.027  1.6176  0.6390  3.2872
  530SOL     MW 2120   1.174   2.400   3.030  0.5022 -0.3102  0.6058
  531SOL     OW 2121   0.902   1.876   2.562 -0.0323  0.0726  0.2628
  531SOL    HW1 2122   0.934   1.936   2.624 -1.2050 -0.6445 -2.6571
  531SOL    HW2 2123   0.875   1.798   2.615  1.1783 -1.3289  2.5522
  531SOL     MW 2124   0.903   1.873   2.577 -0.0273 -0.2070  0.1796
  532SOL     OW 2125   1.725   0.310   2.804 -0.6291  0.2088  0.2129
  532SOL    HW1 2126   1.748   0.234   2.856  0.0012 -1.0746 -0.1811
  532SOL    HW2 2127   1.802   0.365   2.795  0.6855  0.7400  0.2325
  532SOL     MW 2128   1.738   0.308   2.809 -0.3725  0.1096  0.1635
  533SOL     OW 2129   1.918   2.626   3.064 -1.1172 -0.1822  0.2149
  533SOL    HW1 2130   1.888   2.566   3.139 -3.2828  0.0931  2.4617
  533SOL    HW2 2131   1.855   2.619   2.988  1.4646 -0.9918  1.7095
  533SOL     MW 2132   1.905   2.617   3.064 -1.0623 -0.2527  0.7086
  534SOL     OW 2133   1.732   2.408   2.533 -0.2734  0.1808  0.1201
  534SOL    HW1 2134   1.661   2.356   2.575 -0.0570  0.3027  2.0719
  534SOL    HW2 2135   1.816   2.389   2.583  0.8020 -1.1366 -0.2329
  534SOL     MW 2136   1.734   2.399   2.545 -0.1030  0.0231  0.3311
  535SOL     OW 2137   1.927   2.394   1.854  0.0482  0.3416  0.2667
  535SOL    HW1 2138   1.863   2.401   1.779  0.3814 -0.7036 -1.0528
  535SOL    HW2 2139   2.015   2.417   1.818 -1.5699  2.3880  0.3994
  535SOL     MW 2140   1.930   2.398   1.839 -0.1213  0.4737  0.1101
  536SOL     OW 2141   0.455   1.848   2.081 -0.3619 -0.2453  0.6234
  536SOL    HW1 2142   0.458   1.782   2.005  1.0150  1.0634 -3.4243
  536SOL    HW2 2143   0.525   1.911   2.055  1.1006  1.9061  2.2080
  536SOL     MW 2144   0.464   1.847   2.068  0.0127  0.2113  0.2984
  537SOL     OW 2145   1.085   0.218   2.847  0.1187  0.5396 -0.1509
  537SOL    HW1 2146   1.046   0.269   2.920 -0.3489  2.0693  1.8244
  537SOL    HW2 2147   1.064   0.274   2.775 -0.5734 -2.8936 -0.5082
  537SOL     MW 2148   1.077   0.232   2.847 -0.0343  0.2884  0.0625
  538SOL     OW 2149   1.331   0.071   3.082 -0.0176  0.2898  0.4217
  538SOL    HW1 2150   1.311   0.162   3.077  2.2529 -0.6704 -0.4520
  538SOL    HW2 2151   1.369   0.053   2.999 -0.8262 -0.6539 -1.5536
  538SOL     MW 2152   1.333   0.081   3.071  0.1753  0.0386  0.0458
  539SOL     OW 2153   0.699   2.795   2.476 -0.6016 -0.1860  0.0683
  539SOL    HW1 2154   0.769   2.841   2.525  1.8184  1.6995 -2.3024
  539SOL    HW2 2155   0.685   2.709   2.516  1.0285 -0.9060  0.8092
  539SOL     MW 2156   0.707   2.790   2.487 -0.0672 -0.0322 -0.1467
  540SOL     OW 2157   0.412   2.498   2.893 -0.4041  0.2180  0.6052
  540SOL    HW1 2158   0.496   2.456   2.906 -0.3012  0.1775 -2.1295
  540SOL    HW2 2159   0.346   2.469   2.958  1.4109  0.0740  0.6146
  540SOL     MW 2160   0.414   2.489   2.904 -0.1511  0.1936  0.2456
  541SOL     OW 2161   0.186   2.907   2.195  0.5288  0.2758 -0.4425
  541SOL    HW1 2162   0.132   2.835   2.159 -0.6114 -2.7048 -1.3251
  541SOL    HW2 2163   0.204   2.876   2.282  0.7058  0.0254  1.3685
  541SOL     MW 2164   0.181   2.893   2.202  0.4017 -0.1505 -0.3200
  542SOL     OW 2165   1.033   2.295   2.656  0.2687  0.0583  0.1212
  542SOL    HW1 2166   1.009   2.231   2.725  0.9553 -0.0148 -0.1796
  542SOL    HW2 2167   1.088   2.357   2.698  0.0190  1.5737 -0.2336
  542SOL     MW 2168   1.037   2.295   2.671  0.3264  0.2486  0.0347
  543SOL     OW 2169   1.581   2.442   2.875  1.1128 -0.0317  0.2665
  543SOL    HW1 2170   1.567   2.384   2.801 -2.1956 -1.3739  3.0478
  543SOL    HW2 2171   1.659   2.498   2.852  0.9566  1.4637  0.1987
  543SOL     MW 2172   1.590   2.442   2.862  0.6556 -0.0115  0.6245
  544SOL     OW 2173   0.717   0.226   2.739  0.2181  0.0136 -0.5855
  544SOL    HW1 2174   0.623   0.244   2.756  0.0224  2.2703  2.0076
  544SOL    HW2 2175   0.712   0.140   2.698 -1.2271 -1.0714 -0.5961
  544SOL     MW 2176   0.704   0.217   2.736  0.0016  0.1682 -0.2448
  545SOL     OW 2177   1.563   2.178   2.353 -0.4077 -0.2377  0.5617
  545SOL    HW1 2178   1.543   2.262   2.306  2.2753  0.3296 -3.0584
  545SOL    HW2 2179   1.623   2.137   2.286 -1.3056 -0.3699 -0.0667
  545SOL     MW 2180   1.568   2.184   2.338 -0.1722 -0.1803  0.0012
  546SOL     OW 2181   3.011   2.000   0.135 -0.7512  0.3742 -0.3793
  546SOL    HW1 2182   2.998   2.085   0.086  0.3556  0.9461 -0.1916
  546SOL    HW2 2183   3.107   1.986   0.124 -1.1101 -0.8429 -1.1438
  546SOL     MW 2184   3.022   2.009   0.127 -0.6525  0.2891 -0.4554
  547SOL     OW 2185   0.240   0.020   0.050 -0.0762  0.7712  0.3430
  547SOL    HW1 2186   0.336   0.028   0.023  4.7081  0.6693  0.4525
  547SOL    HW2 2187   0.196   0.017  -0.034 -1.8785 -0.8522 -1.3023
  547SOL     MW 2188   0.247   0.021   0.035  0.3173  0.5436  0.1403
  548SOL     OW 2189   0.304   2.499   0.258 -0.0914 -0.1137  0.2824
  548SOL    HW1 2190   0.297   2.562   0.191 -1.0253 -0.7591  0.4420
  548SOL    HW2 2191   0.225   2.453   0.234 -0.9346 -2.2585  0.7493
  548SOL     MW 2192   0.293   2.501   0.246 -0.3259 -0.4818  0.3651
  549SOL     OW 2193   0.799   1.887   2.138 -0.2303 -0.6350  0.2048
  549SOL    HW1 2194   0.751   1.955   2.086  1.5533  3.4563 -1.8527
  549SOL    HW2 2195   0.755   1.876   2.226 -0.1841 -0.1812 -0.1379
  549SOL     MW 2196   0.787   1.894   2.143  0.0111 -0.0353 -0.1119
  550SOL     OW 2197   1.787   1.750   2.547  0.2202 -0.2387  0.0432
  550SOL    HW1 2198   1.798   1.744   2.450  1.6333  0.7149  1.1589
  550SOL    HW2 2199   1.773   1.848   2.556 -1.9741 -0.8860  0.9659
  550SOL     MW 2200   1.786   1.762   2.535  0.1171 -0.1983  0.3121
  551SOL     OW 2201   0.864   2.282   0.191  0.6068 -0.1935  0.0070
  551SOL    HW1 2202   0.956   2.268   0.176  0.0278 -1.6035  1.8623
  551SOL    HW2 2203   0.836   2.195   0.159  2.3418 -0.6699  1.2200
  551SOL     MW 2204   0.872   2.269   0.185  0.7593 -0.4424  0.4118
  552SOL     OW 2205   1.763   1.707   2.277  0.0719  0.9140 -0.5671
  552SOL    HW1 2206   1.668   1.705   2.286 -0.4282 -3.1143 -2.9720
  552SOL    HW2 2207   1.782   1.651   2.195 -2.4735  2.2942  2.5500
  552SOL     MW 2208   1.753   1.700   2.268 -0.3299  0.5646 -0.4731
  553SOL     OW 2209   1.281   2.333   1.531  0.3525 -0.0083  0.7336
  553SOL    HW1 2210   1.322   2.246   1.527 -0.3953  2.2742  0.8230
  553SOL    HW2 2211   1.330   2.380   1.458 -0.9662 -1.2652 -0.9010
  553SOL     MW 2212   1.293   2.328   1.521  0.0799  0.1270  0.5297
  554SOL     OW 2213   0.521   2.930   2.637  0.7769 -0.2285 -0.2875
  554SOL    HW1 2214   0.529   3.011   2.575  0.5471  0.5272  0.5798
  554SOL    HW2 2215   0.558   2.861   2.580 -0.7181  1.0055  1.3694
  554SOL     MW 2216   0.527   2.932   2.621  0.5493  0.0340  0.0456
  555SOL     OW 2217   0.644   2.473   2.467 -0.7394 -0.3713 -0.1603
  555SOL    HW1 2218   0.605   2.382   2.473 -1.0971 -1.9300  1.4174
  555SOL    HW2 2219   0.732   2.445   2.440 -3.1009  2.5055  1.4566
  555SOL     MW 2220   0.651   2.457   2.464 -1.0982 -0.1974  0.2612
  556SOL     OW 2221   0.982   1.858   0.089 -0.4669  0.1700 -0.4732
  556SOL    HW1 2222   1.038   1.835   0.017 -0.6165  1.7704 -2.7063
  556SOL    HW2 2223   1.042   1.865   0.165  0.2456  0.0128  1.3203
  556SOL     MW 2224   0.997   1.856   0.090 -0.3926  0.3604 -0.5312
  557SOL     OW 2225   0.951   2.640   0.503  0.2977 -0.0303 -0.3266
  557SOL    HW1 2226   1.018   2.592   0.460  1.0918  2.2365  1.1732
  557SOL    HW2 2227   0.929   2.718   0.449 -1.0524 -2.3889  2.3905
  557SOL     MW 2228   0.957   2.644   0.490  0.2244 -0.0424  0.2298
  558SOL     OW 2229   0.206   2.334   2.998 -0.0425 -0.1286  0.0974
  558SOL    HW1 2230   0.146   2.281   2.947  0.8781 -0.7205 -1.8255
  558SOL    HW2 2231   0.160   2.359   3.078  3.1706  3.0089 -0.7362
  558SOL     MW 2232   0.192   2.330   3.002  0.5029  0.2073 -0.2663
  559SOL     OW 2233   1.051   2.356   2.123  0.7166 -0.3073 -0.0103
  559SOL    HW1 2234   1.109   2.403   2.179  0.2214  1.3336 -1.0597
  559SOL    HW2 2235   1.049   2.269   2.164 -0.2728 -0.3938  1.4258
  559SOL     MW 2236   1.058   2.350   2.136  0.5207 -0.1022  0.0407
  560SOL     OW 2237   1.984   2.884   0.017 -0.1300  0.3076  0.0341
  560SOL    HW1 2238   2.047   2.906  -0.053 -3.1001  1.0160  1.1544
  560SOL    HW2 2239   1.975   2.786   0.004  0.0183 -1.7759  0.7328
  560SOL     MW 2240   1.991   2.874   0.006 -0.5023  0.1261  0.2741
  561SOL     OW 2241   0.380   2.156   0.046 -0.4295 -0.3643  0.2317
  561SOL    HW1 2242   0.334   2.197  -0.025  0.1782 -1.7016 -0.3512
  561SOL    HW2 2243   0.424   2.229   0.102  0.0489 -0.2382 -0.6919
  561SOL     MW 2244   0.379   2.171   0.044 -0.2862 -0.5241  0.0329
  562SOL     OW 2245   0.706   2.208   2.256 -0.7160  0.5519  0.5522
  562SOL    HW1 2246   0.705   2.296   2.220  1.5137 -1.8603 -0.2636
  562SOL    HW2 2247   0.805   2.180   2.266 -0.9730  0.4447  3.5013
  562SOL     MW 2248   0.719   2.216   2.253 -0.4557  0.2195  0.8336
  563SOL     OW 2249   1.238   0.317   0.565  0.3635  0.3214 -0.1396
  563SOL    HW1 2250   1.194   0.258   0.506  1.4999  0.1268  1.7920
  563SOL    HW2 2251   1.256   0.257   0.642 -0.3114 -0.8000 -0.4724
  563SOL     MW 2252   1.235   0.301   0.567  0.4244  0.1478  0.0713
  564SOL     OW 2253   1.164   2.525   2.322  0.4179  0.8491  0.6402
  564SOL    HW1 2254   1.141   2.598   2.265  0.5313  0.2816  1.0445
  564SOL    HW2 2255   1.164   2.558   2.406 -1.9123  0.9014  0.0335
  564SOL     MW 2256   1.161   2.539   2.326  0.1254  0.7811  0.6135
  565SOL     OW 2257   2.817   2.775   2.650 -0.3065  0.1939 -0.1870
  565SOL    HW1 2258   2.873   2.848   2.632  0.2327 -0.5609  0.6061
  565SOL    HW2 2259   2.779   2.749   2.571  1.6720 -1.8555 -0.6701
  565SOL     MW 2260   2.819   2.781   2.637  0.0257 -0.1760 -0.1461
  566SOL     OW 2261   2.124   1.824   2.397 -0.0908 -0.2000  0.4243
  566SOL    HW1 2262   2.114   1.779   2.313 -0.2957 -2.5324  0.6220
  566SOL    HW2 2263   2.184   1.909   2.386  0.6958  1.0153 -0.5883
  566SOL     MW 2264   2.131   1.830   2.384 -0.0140 -0.3474  0.3168
  567SOL     OW 2265   1.171   2.945   3.037 -0.6390 -0.0157  0.0260
  567SOL    HW1 2266   1.241   2.995   3.083 -0.3003  3.3013  1.3948
  567SOL    HW2 2267   1.219   2.862   3.000 -1.8829 -2.6466 -1.1568
  567SOL     MW 2268   1.186   2.941   3.038 -0.7584  0.0748  0.0506
  568SOL     OW 2269   1.614   2.081   2.889  0.2162 -0.4694 -0.7167
  568SOL    HW1 2270   1.660   2.146   2.940  1.2134 -0.5386  2.5296
  568SOL    HW2 2271   1.678   2.031   2.843  2.6864  0.6138  0.4099
  568SOL     MW 2272   1.629   2.083   2.890  0.6737 -0.3356 -0.1398
  569SOL     OW 2273   0.162   2.278   2.457  0.0392 -0.3140  0.1114
  569SOL    HW1 2274   0.085   2.307   2.402 -0.2769  0.2126  1.7591
  569SOL    HW2 2275   0.179   2.354   2.508 -0.2200 -2.1944 -1.2652
  569SOL     MW 2276   0.154   2.292   2.457 -0.0367 -0.4926  0.1472
  570SOL     OW 2277   1.515   0.356   0.509 -0.0848  0.1572 -0.0837
  570SOL    HW1 2278   1.415   0.355   0.518  0.2459 -0.8391 -2.5346
  570SOL    HW2 2279   1.548   0.369   0.599  0.0552  1.5791  0.8907
  570SOL     MW 2280   1.506   0.358   0.522 -0.0227  0.2134 -0.2785
  571SOL     OW 2281   1.421   2.433   2.012 -0.9248 -0.0518  0.2039
  571SOL    HW1 2282   1.466   2.439   2.097 -1.0577 -0.2059  1.2192
  571SOL    HW2 2283   1.465   2.358   1.965  2.1530 -2.6992 -0.3638
  571SOL     MW 2284   1.433   2.424   2.017 -0.5362 -0.4215  0.2629
  572SOL     OW 2285   1.049   2.580   0.114  0.3395  0.0358 -0.0866
  572SOL    HW1 2286   1.049   2.675   0.098 -1.3933  0.2453  1.3109
  572SOL    HW2 2287   0.949   2.563   0.094 -3.2895  0.9505 -0.3132
  572SOL     MW 2288   1.036   2.590   0.110 -0.3680  0.1841  0.0679
  573SOL     OW 2289   1.159   2.295   0.209  0.6822  0.3426 -0.3790
  573SOL    HW1 2290   1.244   2.301   0.159  2.3651  0.0655  0.9629
  573SOL    HW2 2291   1.157   2.365   0.280  1.1036  0.0591  2.3962
  573SOL     MW 2292   1.170   2.305   0.212  0.9598  0.2686  0.1642
  574SOL     OW 2293   1.148   2.511   0.362  0.6877  0.0977 -0.0356
  574SOL    HW1 2294   1.238   2.548   0.358 -0.3753  1.5156 -1.5114
  574SOL    HW2 2295   1.099   2.549   0.284 -0.9069  2.4822 -0.5396
  574SOL     MW 2296   1.154   2.521   0.351  0.3371  0.5994 -0.2968
  575SOL     OW 2297   3.076   2.197   1.803 -0.1208 -0.0376  0.0960
  575SOL    HW1 2298   3.106   2.136   1.733  0.2001  1.0845 -1.9725
  575SOL    HW2 2299   3.148   2.266   1.797  0.3812 -0.8425 -2.2189
  575SOL     MW 2300   3.090   2.198   1.793 -0.0122  0.0042 -0.4824
  576SOL     OW 2301   2.799   1.807   2.077  0.4041  0.4332 -0.6890
  576SOL    HW1 2302   2.813   1.889   2.030  2.7406 -1.6495 -2.8717
  576SOL    HW2 2303   2.704   1.782   2.061  1.4080 -0.1388  0.4114
  576SOL     MW 2304   2.789   1.815   2.068  0.8449  0.0830 -0.8318
  577SOL     OW 2305   2.031   0.199   0.062  0.2491 -0.2503 -0.3405
  577SOL    HW1 2306   1.947   0.227   0.016 -1.6081 -0.5256 -1.4055
  577SOL    HW2 2307   2.010   0.178   0.152 -1.2594  0.1378  1.7230
  577SOL     MW 2308   2.017   0.200   0.067 -0.1950 -0.2354 -0.2087
  578SOL     OW 2309   1.957   2.043   2.359 -0.1919 -0.2535 -0.5884
  578SOL    HW1 2310   1.889   1.998   2.301 -1.8376  0.4391  0.8687
  578SOL    HW2 2311   2.016   1.973   2.391  2.2089 -0.6973  1.7511
  578SOL     MW 2312   1.956   2.028   2.356 -0.0923 -0.2207 -0.0875
  579SOL     OW 2313   0.898   2.411   2.436  0.7530  0.3757 -0.1210
  579SOL    HW1 2314   0.929   2.383   2.517  0.7181  0.5872 -2.4291
  579SOL    HW2 2315   0.975   2.437   2.384  1.8455  0.9332  3.4664
  579SOL     MW 2316   0.912   2.411   2.440  0.8925  0.4771  0.0478
  580SOL     OW 2317   0.915   2.855   0.017 -0.1479 -0.6391  0.3195
  580SOL    HW1 2318   1.001   2.897  -0.005  0.4094 -0.1418 -0.0846
  580SOL    HW2 2319   0.880   2.823  -0.064 -0.6336  1.8653  1.9640
  580SOL     MW 2320   0.922   2.856   0.003 -0.1384 -0.2431  0.4832
  581SOL     OW 2321   1.128   2.520   1.678  0.1526  0.8946  0.0039
  581SOL    HW1 2322   1.173   2.566   1.748 -3.6224 -0.8035 -1.9397
  581SOL    HW2 2323   1.194   2.451   1.643  3.1051 -1.5413 -2.0567
  581SOL     MW 2324   1.143   2.517   1.683  0.0441  0.3492 -0.5244
  582SOL     OW 2325   0.041   2.792   2.626 -0.0211 -0.0885  0.6119
  582SOL    HW1 2326  -0.021   2.845   2.674 -2.2882  1.1004 -0.0168
  582SOL    HW2 2327   0.114   2.854   2.609  0.8299  0.7835  0.6830
  582SOL     MW 2328   0.043   2.807   2.630 -0.2080  0.1834  0.5383
  583SOL     OW 2329   1.983   2.405   2.650  0.3797  0.2376  0.4703
  583SOL    HW1 2330   2.053   2.445   2.596  1.3221 -2.8318 -2.4210
  583SOL    HW2 2331   1.995   2.309   2.655 -0.3864 -0.3422  1.1321
  583SOL     MW 2332   1.994   2.398   2.644  0.4030 -0.2439  0.1762
  584SOL     OW 2333   0.104   1.876   2.249 -0.1670  0.1653 -0.3395
  584SOL    HW1 2334   0.180   1.832   2.215  1.0142 -1.5365  0.0024
  584SOL    HW2 2335   0.142   1.964   2.265  2.5984 -2.4312 -0.0257
  584SOL     MW 2336   0.119   1.882   2.247  0.3537 -0.4018 -0.2530
  585SOL     OW 2337   1.579   2.611   0.249 -0.2403 -1.2577 -0.0643
  585SOL    HW1 2338   1.522   2.593   0.169 -1.2281 -1.2932 -1.7290
  585SOL    HW2 2339   1.512   2.637   0.323 -2.4828  0.2760 -1.1401
  585SOL     MW 2340   1.563   2.612   0.248 -0.6665 -1.0600 -0.4259
  586SOL     OW 2341   1.374   2.854   2.566 -0.1072 -0.0772  0.1480
  586SOL    HW1 2342   1.424   2.826   2.486  0.7569 -1.1260  2.8252
  586SOL    HW2 2343   1.364   2.952   2.559  2.9704  3.3449  0.2033
  586SOL     MW 2344   1.379   2.863   2.555  0.4129  0.2360  0.5085
  587SOL     OW 2345   1.345   1.559   2.145  0.2235 -0.8785  0.5813
  587SOL    HW1 2346   1.307   1.499   2.215 -0.5036  1.2262 -0.4690
  587SOL    HW2 2347   1.335   1.507   2.066  0.9531 -0.7618  1.4231
  587SOL     MW 2348   1.339   1.544   2.144  0.2238 -0.5854  0.5538
  588SOL     OW 2349   1.326   2.043   2.671  0.4576 -0.2366  0.1145
  588SOL    HW1 2350   1.344   1.947   2.659 -1.0092  0.6598 -2.4462
  588SOL    HW2 2351   1.315   2.054   2.768  0.6213 -3.0310 -1.0449
  588SOL     MW 2352   1.327   2.031   2.683  0.2857 -0.4870 -0.3763
  589SOL     OW 2353   1.379   2.011   0.121  0.2270  0.4879  0.4057
  589SOL    HW1 2354   1.389   2.102   0.141  0.3891  0.1650 -1.4868
  589SOL    HW2 2355   1.303   1.981   0.174  0.5003 -0.4650  1.0601
  589SOL     MW 2356   1.370   2.019   0.131  0.2844  0.3196  0.2424
  590SOL     OW 2357   0.488   2.780   2.225  0.2139  0.0962 -0.4734
  590SOL    HW1 2358   0.455   2.739   2.141  1.1023  2.6174 -1.2621
  590SOL    HW2 2359   0.580   2.803   2.196  0.3011 -1.4079 -2.3805
  590SOL     MW 2360   0.496   2.778   2.210  0.3426  0.2304 -0.8291
  591SOL     OW 2361   2.236   0.664   3.103 -0.5438  0.7110  0.0472
  591SOL    HW1 2362   2.161   0.716   3.069  1.5703 -1.9328  3.1547
  591SOL    HW2 2363   2.316   0.674   3.046  0.8721 -0.5093  2.2536
  591SOL     MW 2364   2.236   0.672   3.091 -0.0780  0.2012  0.7483
  592SOL     OW 2365   1.741   2.943   0.781 -0.3030 -0.3535  0.2343
  592SOL    HW1 2366   1.733   2.989   0.698  1.0294  1.4932 -2.0782
  592SOL    HW2 2367   1.834   2.921   0.779 -0.7768 -0.7314  0.7834
  592SOL     MW 2368   1.752   2.946   0.770 -0.1897 -0.1597  0.0016
  593SOL     OW 2369   1.963   0.626   0.870  0.2499 -0.2984  0.1706
  593SOL    HW1 2370   1.893   0.607   0.806  0.5951 -0.8500  0.5649
  593SOL    HW2 2371   2.032   0.558   0.872 -1.6889 -2.9917  0.9940
  593SOL     MW 2372   1.963   0.615   0.862  0.0397 -0.7265  0.3313
  594SOL     OW 2373   2.775   1.140   1.393  0.0967  0.1581 -0.3325
  594SOL    HW1 2374   2.875   1.162   1.396 -1.2668 -0.7724 -1.8208
  594SOL    HW2 2375   2.766   1.085   1.312 -0.4323 -0.6124  1.2464
  594SOL     MW 2376   2.787   1.136   1.383 -0.1530 -0.0664 -0.3206
  595SOL     OW 2377   0.472   0.988   0.816  0.5038 -0.0364  0.1182
  595SOL    HW1 2378   0.496   1.044   0.735  2.3153  0.8028 -2.2975
  595SOL    HW2 2379   0.469   1.053   0.886 -2.9064 -1.1874 -2.1419
  595SOL     MW 2380   0.475   1.004   0.814  0.2929 -0.0776 -0.4987
  596SOL     OW 2381   2.486   1.305   0.573  0.1631  0.2522 -0.0987
  596SOL    HW1 2382   2.535   1.369   0.523  0.4815 -1.5663  0.3454
  596SOL    HW2 2383   2.531   1.296   0.662 -1.4724  1.7372  0.6884
  596SOL     MW 2384   2.498   1.312   0.578 -0.0106  0.2082  0.0637
  597SOL     OW 2385   2.181   0.677   1.625 -0.3927  0.0987  0.0555
  597SOL    HW1 2386   2.198   0.612   1.692  3.4319  3.9725 -0.1770
  597SOL    HW2 2387   2.120   0.633   1.571 -0.3898 -0.1081 -0.0275
  597SOL     MW 2388   2.175   0.663   1.627  0.1123  0.5825  0.0139
  598SOL     OW 2389   2.550   1.038   2.764  0.1582 -0.2965  0.3606
  598SOL    HW1 2390   2.568   1.027   2.672 -2.8620 -2.0468  0.4717
  598SOL    HW2 2391   2.635   1.044   2.805  0.9262 -1.9077 -0.3102
  598SOL     MW 2392   2.563   1.038   2.758 -0.1389 -0.7400  0.2867
  599SOL     OW 2393   2.994   0.402   2.097 -0.0961  0.1209 -0.0040
  599SOL    HW1 2394   3.055   0.421   2.171 -0.5390 -2.0742  1.9650
  599SOL    HW2 2395   2.999   0.481   2.039 -2.0692  0.7990  0.5667
  599SOL     MW 2396   3.002   0.415   2.099 -0.4149 -0.0793  0.3311
  600SOL     OW 2397   1.839   1.621   0.894 -0.0286  0.4741  0.2932
  600SOL    HW1 2398   1.878   1.671   0.966  1.9636 -1.1047  1.8160
  600SOL    HW2 2399   1.766   1.676   0.854 -2.2385  0.5232 -0.6039
  600SOL     MW 2400   1.834   1.635   0.899 -0.0573  0.2723  0.3758
  601SOL     OW 2401   2.509   0.764   0.807  0.2528  0.4006  0.4268
  601SOL    HW1 2402   2.507   0.779   0.901  2.0425  1.3814  0.2193
  601SOL    HW2 2403   2.443   0.705   0.778 -0.2728  2.6863  1.5452
  601SOL     MW 2404   2.500   0.758   0.816  0.4196  0.8316  0.5470
  602SOL     OW 2405   2.265   1.974   0.766  0.4050 -0.1188 -0.1656
  602SOL    HW1 2406   2.204   1.901   0.779 -1.8485  0.5170 -0.6721
  602SOL    HW2 2407   2.239   2.015   0.682  2.0620 -1.6326  0.0500
  602SOL     MW 2408   2.253   1.970   0.756  0.3263 -0.2346 -0.2040
  603SOL     OW 2409   0.001   1.374   1.904 -0.1032  0.6479  0.9377
  603SOL    HW1 2410   0.042   1.449   1.950 -0.2947  3.4468  0.0155
  603SOL    HW2 2411   0.015   1.295   1.958 -0.3575 -2.4180  0.6500
  603SOL     MW 2412   0.008   1.374   1.917 -0.1621  0.6127  0.7780
  604SOL     OW 2413   2.084   1.533   0.462 -0.6816 -1.1149  0.2265
  604SOL    HW1 2414   2.101   1.453   0.512  0.2040 -1.1843 -0.3730
  604SOL    HW2 2415   2.013   1.581   0.514  2.7502 -1.3347 -1.8959
  604SOL     MW 2416   2.077   1.529   0.476 -0.1120 -1.1531 -0.1326
  605SOL     OW 2417   2.513   1.499   0.895 -0.0134  0.3573  0.0143
  605SOL    HW1 2418   2.513   1.560   0.826  2.7697 -1.9969 -2.2064
  605SOL    HW2 2419   2.513   1.413   0.851 -1.8661 -1.4668 -0.5476
  605SOL     MW 2420   2.513   1.496   0.880  0.1093 -0.1940 -0.3528
  606SOL     OW 2421   2.545   1.718   2.033 -0.0837  0.6842  0.1639
  606SOL    HW1 2422   2.466   1.753   1.992  1.5188 -0.9767 -0.3013
  606SOL    HW2 2423   2.593   1.667   1.965 -0.7734  0.9479  2.0832
  606SOL     MW 2424   2.541   1.716   2.018  0.0368  0.4999  0.3557
  607SOL     OW 2425   2.416   1.038   3.017 -0.8262 -0.0431 -0.0657
  607SOL    HW1 2426   2.459   1.028   2.931  1.3462  0.4511  3.3722
  607SOL    HW2 2427   2.486   1.026   3.080  1.4897 -1.2070 -0.5329
  607SOL     MW 2428   2.431   1.035   3.014 -0.2340 -0.1315  0.3263
  608SOL     OW 2429   1.848   0.292   0.566  0.1039  0.1617 -0.0780
  608SOL    HW1 2430   1.864   0.344   0.482 -1.9769  1.4405 -1.0404
  608SOL    HW2 2431   1.794   0.213   0.540 -2.1897 -2.0268 -0.0027
  608SOL     MW 2432   1.843   0.289   0.552 -0.4733  0.0416 -0.1950
  609SOL     OW 2433   2.094   1.960   3.036  0.4865  0.1550  0.4875
  609SOL    HW1 2434   2.013   1.919   3.011  1.9817  1.9707  3.1347
  609SOL    HW2 2435   2.108   1.932   3.129 -0.5090  0.1306  1.3059
  609SOL     MW 2436   2.085   1.951   3.045  0.5525  0.3913  0.9448
  610SOL     OW 2437   1.819   0.964   1.225  0.2556 -0.0956 -0.0164
  610SOL    HW1 2438   1.849   0.886   1.180 -2.1765  1.5710 -0.2709
  610SOL    HW2 2439   1.722   0.971   1.209 -0.0374 -0.8918  1.8884
  610SOL     MW 2440   1.810   0.955   1.217 -0.1039  0.0192  0.2013
  611SOL     OW 2441   2.535   1.663   0.666 -0.1061 -0.4472  0.2895
  611SOL    HW1 2442   2.576   1.744   0.644 -2.2089 -1.9490  0.0941
  611SOL    HW2 2443   2.443   1.677   0.651  1.2278 -2.5125 -0.1051
  611SOL     MW 2444   2.528   1.676   0.661 -0.2075 -0.9179  0.2117
  612SOL     OW 2445   2.849   2.896   0.380 -0.4723 -0.2173 -0.1741
  612SOL    HW1 2446   2.900   2.926   0.458 -1.9238  2.7167 -0.2560
  612SOL    HW2 2447   2.918   2.857   0.328  0.4176  0.7561 -2.0860
  612SOL     MW 2448   2.865   2.895   0.383 -0.5464  0.2983 -0.4372
  613SOL     OW 2449   1.447   1.051   0.924 -0.3006  0.2889 -0.0412
  613SOL    HW1 2450   1.447   1.145   0.914  2.4526  0.2753  0.3382
  613SOL    HW2 2451   1.497   1.040   1.009 -1.4854  0.0640  1.5072
  613SOL     MW 2452   1.454   1.062   0.934 -0.0937  0.2574  0.2131
  614SOL     OW 2453   1.982   0.534   1.500 -0.1896  0.1547  0.3979
  614SOL    HW1 2454   1.952   0.458   1.558  0.1374  0.4898 -0.7909
  614SOL    HW2 2455   1.944   0.502   1.415 -0.2946 -0.9326 -1.0922
  614SOL     MW 2456   1.973   0.520   1.496 -0.1603  0.0555  0.0445
  615SOL     OW 2457   2.306   0.769   0.278  0.6780 -0.2449  0.4016
  615SOL    HW1 2458   2.376   0.703   0.282 -0.2883 -0.2338  0.8880
  615SOL    HW2 2459   2.253   0.746   0.202 -2.4851  1.2781 -0.8820
  615SOL     MW 2460   2.308   0.757   0.269  0.1332 -0.0425  0.2964
  616SOL     OW 2461   2.513   0.434   1.678  0.1288  0.3080 -0.0509
  616SOL    HW1 2462   2.577   0.372   1.635  2.6166 -0.2089 -0.0092
  616SOL    HW2 2463   2.466   0.478   1.604  1.2131  0.7412  0.5078
  616SOL     MW 2464   2.515   0.432   1.662  0.6001  0.2969  0.0283
  617SOL     OW 2465   2.801   0.587   1.674  0.5328 -0.3677 -0.1195
  617SOL    HW1 2466   2.723   0.596   1.720  3.1315 -1.2690 -0.6887
  617SOL    HW2 2467   2.843   0.502   1.691 -0.8219  0.3109 -3.6246
  617SOL     MW 2468   2.796   0.577   1.682  0.6969 -0.3971 -0.6571
  618SOL     OW 2469   2.694   0.365   1.961 -0.0090 -0.1289  0.0400
  618SOL    HW1 2470   2.662   0.454   1.935 -0.8492 -0.2408  2.5402
  618SOL    HW2 2471   2.773   0.361   2.015  0.9885  3.2823 -2.1488
  618SOL     MW 2472   2.700   0.376   1.965  0.0118  0.3064  0.0811
  619SOL     OW 2473   2.686   0.728   0.052  0.9263 -0.2885 -0.0476
  619SOL    HW1 2474   2.711   0.818   0.040  0.4293 -1.5919  1.6067
  619SOL    HW2 2475   2.632   0.735   0.126  0.2002 -1.2486 -0.3900
  619SOL     MW 2476   2.682   0.741   0.060  0.7650 -0.5871  0.1255
  620SOL     OW 2477   2.233   1.053   0.917  0.7153  0.2122 -0.1297
  620SOL    HW1 2478   2.294   1.034   0.849 -4.1559  0.6227 -0.5063
  620SOL    HW2 2479   2.158   1.018   0.868 -0.8594  1.6163  1.4968
  620SOL     MW 2480   2.231   1.046   0.901 -0.1352  0.4516  0.0352
  621SOL     OW 2481   1.578   2.217   1.928 -0.3225  0.6106  0.0133
  621SOL    HW1 2482   1.533   2.137   1.971  2.1357 -1.7246  2.8628
  621SOL    HW2 2483   1.674   2.198   1.929  1.1593  0.3640 -1.3286
  621SOL     MW 2484   1.585   2.204   1.934  0.1973  0.2700  0.2122
  622SOL     OW 2485   2.649   0.206   0.247  0.1279  0.1933  0.0963
  622SOL    HW1 2486   2.741   0.223   0.263  2.4617  0.3003  1.2515
  622SOL    HW2 2487   2.636   0.115   0.280 -0.1277  0.7380  0.7187
  622SOL     MW 2488   2.659   0.196   0.253  0.4021  0.2793  0.3308
  623SOL     OW 2489   2.464   2.754   0.858 -0.2738 -0.0468  0.6683
  623SOL    HW1 2490   2.510   2.838   0.850 -1.1438 -2.3960  0.3536
  623SOL    HW2 2491   2.409   2.784   0.928 -1.7615  0.3676 -1.3776
  623SOL     MW 2492   2.463   2.769   0.866 -0.5848 -0.3021  0.3569
  624SOL     OW 2493   2.109   1.632   3.030 -0.1234  0.3407 -0.1297
  624SOL    HW1 2494   2.072   1.545   3.038 -2.4641 -3.2443 -0.7624
  624SOL    HW2 2495   2.048   1.689   2.979  0.6251 -1.4244  3.3844
  624SOL     MW 2496   2.096   1.628   3.025 -0.3335 -0.3652  0.2504
  625SOL     OW 2497   2.226   1.913   1.075  0.0134  0.1853  0.3698
  625SOL    HW1 2498   2.268   1.841   1.119  0.8514  0.1766 -0.8077
  625SOL    HW2 2499   2.285   1.947   1.006  0.0177 -1.4446 -1.6204
  625SOL     MW 2500   2.239   1.908   1.072  0.1245 -0.0309 -0.0481
  626SOL     OW 2501   0.257   1.769   2.441 -0.8823  0.0573  0.2060
  626SOL    HW1 2502   0.203   1.703   2.487 -2.2239  1.7647  1.5798
  626SOL    HW2 2503   0.194   1.831   2.401  0.8648 -0.8376  0.9040
  626SOL     MW 2504   0.241   1.768   2.442 -0.8288  0.1645  0.4794
  627SOL     OW 2505   2.523   0.735   2.564  0.5289  0.4093  0.1224
  627SOL    HW1 2506   2.460   0.806   2.548  0.7974  0.2596  1.5417
  627SOL    HW2 2507   2.518   0.679   2.484 -2.3209  1.1554  0.5702
  627SOL     MW 2508   2.514   0.737   2.551  0.1883  0.4880  0.3687
  628SOL     OW 2509   2.261   1.376   1.287 -0.7376  0.2554  0.4043
  628SOL    HW1 2510   2.229   1.289   1.264 -0.3372  0.6842 -0.3027
  628SOL    HW2 2511   2.340   1.395   1.223  4.1288 -0.6480  0.9554
  628SOL     MW 2512   2.268   1.367   1.276 -0.0427  0.1928  0.3838
  629SOL     OW 2513   1.866   0.512   1.241 -0.1728 -0.5902  0.1976
  629SOL    HW1 2514   1.862   0.599   1.205 -0.9364  1.9328  2.5325
  629SOL    HW2 2515   1.770   0.493   1.237 -0.1941  0.9734 -2.4312
  629SOL     MW 2516   1.853   0.521   1.236 -0.2763 -0.0510  0.1588
  630SOL     OW 2517   2.388   1.885   3.030 -0.0665  0.0987 -0.5201
  630SOL    HW1 2518   2.382   1.958   2.966  1.9576  0.4997  1.6947
  630SOL    HW2 2519   2.294   1.863   3.034  1.9286 -1.3982  0.6559
  630SOL     MW 2520   2.375   1.892   3.022  0.4638 -0.0459 -0.0727
  631SOL     OW 2521   2.035   1.691   1.563 -0.4698  0.0446 -0.1909
  631SOL    HW1 2522   2.047   1.627   1.631 -1.1752  0.3549  3.0522
  631SOL    HW2 2523   1.973   1.656   1.505 -3.0258 -1.9705 -0.4410
  631SOL     MW 2524   2.029   1.678   1.564 -0.9001 -0.1803  0.2040
  632SOL     OW 2525   0.235   1.957   1.441  0.4563 -0.3038  0.0437
  632SOL    HW1 2526   0.181   1.962   1.527  0.7227  0.4333 -0.1573
  632SOL    HW2 2527   0.260   1.861   1.424 -1.3800  0.5001 -0.9180
  632SOL     MW 2528   0.231   1.945   1.450  0.2492 -0.1005 -0.1097
  633SOL     OW 2529   2.508   0.585   0.268 -0.3316 -0.7799  0.1927
  633SOL    HW1 2530   2.551   0.554   0.350  1.1750  2.3413  2.3385
  633SOL    HW2 2531   2.527   0.515   0.207  1.4468 -1.9300 -1.2455
  633SOL     MW 2532   2.516   0.572   0.271  0.1018 -0.5198  0.2861
  634SOL     OW 2533   2.679   3.094   0.662  0.0630 -0.4296  0.0593
  634SOL    HW1 2534   2.707   3.180   0.689  0.6381  2.0121 -0.1859
  634SOL    HW2 2535   2.644   3.103   0.573  1.5972 -0.0054  0.2266
  634SOL     MW 2536   2.678   3.107   0.654  0.3413 -0.0515  0.0490
  635SOL     OW 2537   2.580   0.153   1.842  0.0418  0.4366 -0.5423
  635SOL    HW1 2538   2.652   0.097   1.807  0.9085 -0.5536  0.7606
  635SOL    HW2 2539   2.629   0.234   1.871  1.3760  4.6967 -1.2689
  635SOL     MW 2540   2.596   0.156   1.841  0.3322  0.8681 -0.4662
  636SOL     OW 2541   2.806   1.583   0.864 -0.3313 -0.1117  0.1156
  636SOL    HW1 2542   2.711   1.570   0.864 -0.6653  0.0384 -1.3021
  636SOL    HW2 2543   2.813   1.674   0.896 -0.3771  2.6106 -2.1766
  636SOL     MW 2544   2.794   1.593   0.868 -0.3814  0.2673 -0.3739
  637SOL     OW 2545   2.885   1.498   0.602  0.1726  0.2790 -0.2989
  637SOL    HW1 2546   2.945   1.570   0.591  0.3274 -0.1150  2.0988
  637SOL    HW2 2547   2.837   1.510   0.688 -0.8374  0.9574 -1.2024
  637SOL     MW 2548   2.886   1.509   0.612  0.0598  0.3165 -0.1018
  638SOL     OW 2549   2.692   0.508   0.504  0.1981  0.3090  0.1459
  638SOL    HW1 2550   2.782   0.532   0.474  1.6692 -0.1596  0.9296
  638SOL    HW2 2551   2.702   0.511   0.598  1.7195 -1.4251 -1.6944
  638SOL     MW 2552   2.705   0.512   0.513  0.5929  0.0184  0.0065
  639SOL     OW 2553   1.726   0.042   0.542 -0.0811  0.0876 -0.6657
  639SOL    HW1 2554   1.628   0.041   0.533  1.2709 -0.9665 -0.1136
  639SOL    HW2 2555   1.761  -0.024   0.485  2.6924 -0.4948  1.9365
  639SOL     MW 2556   1.718   0.033   0.533  0.4632 -0.1283 -0.2495
  640SOL     OW 2557   0.288   1.350   0.096  0.5377  0.4675  0.3940
  640SOL    HW1 2558   0.322   1.331   0.005  0.0552  0.3601  0.3528
  640SOL    HW2 2559   0.266   1.268   0.142  3.2932 -1.5106  0.1058
  640SOL     MW 2560   0.290   1.337   0.090  0.8376  0.1923  0.3506
  641SOL     OW 2561   2.234   0.447   0.420 -0.4812  0.5054  0.1925
  641SOL    HW1 2562   2.236   0.441   0.328 -0.4686  0.5412 -1.0128
  641SOL    HW2 2563   2.320   0.423   0.457  1.5179 -1.4023  0.6283
  641SOL     MW 2564   2.246   0.443   0.413 -0.2158  0.2584  0.0910
  642SOL     OW 2565   0.063   0.015   0.485  0.0646 -0.3667 -0.1168
  642SOL    HW1 2566   0.014   0.100   0.479 -2.6595  1.0559 -0.0335
  642SOL    HW2 2567   0.000  -0.052   0.485  4.6875 -0.9527 -0.9534
  642SOL     MW 2568   0.048   0.017   0.484  0.3151 -0.2563 -0.2162
  643SOL     OW 2569   1.999   0.339   1.733 -0.1563 -0.0893  0.2755
  643SOL    HW1 2570   1.911   0.319   1.777 -0.1705 -0.8516 -0.9537
  643SOL    HW2 2571   2.024   0.268   1.673  1.2203 -1.0836  1.8913
  643SOL     MW 2572   1.991   0.327   1.731  0.0234 -0.3211  0.3265
  644SOL     OW 2573   2.663   1.868   1.016  0.1995 -0.4567 -0.3881
  644SOL    HW1 2574   2.681   1.833   1.102 -3.0163  0.9847  1.7483
  644SOL    HW2 2575   2.566   1.875   1.012  0.4838 -0.5143  0.7151
  644SOL     MW 2576   2.652   1.865   1.027 -0.1873 -0.2741  0.0393
  645SOL     OW 2577   2.807   0.821   0.693  0.3005 -0.1382  0.6067
  645SOL    HW1 2578   2.881   0.767   0.710 -1.1916 -2.6734  1.7033
  645SOL    HW2 2579   2.754   0.806   0.773 -1.3894 -1.0289  1.8669
  645SOL     MW 2580   2.810   0.812   0.705 -0.1193 -0.5902  0.9176
  646SOL     OW 2581   0.084   2.277   0.860  0.1013  0.0471  0.4453
  646SOL    HW1 2582   0.103   2.190   0.826 -0.0727 -0.7248  0.3310
  646SOL    HW2 2583   0.053   2.313   0.778  2.8627  0.2597  2.7035
  646SOL     MW 2584   0.083   2.270   0.845  0.4427 -0.0267  0.7282
  647SOL     OW 2585   2.716   0.483   2.973  0.0189 -0.2370  0.7737
  647SOL    HW1 2586   2.663   0.431   3.036  0.3579 -0.9221 -1.7840
  647SOL    HW2 2587   2.720   0.575   2.999 -1.8524 -0.5471  0.7725
  647SOL     MW 2588   2.709   0.488   2.985 -0.1833 -0.3683  0.4361
  648SOL     OW 2589   2.214   0.733   1.093  0.3597 -0.0620 -0.4861
  648SOL    HW1 2590   2.227   0.644   1.121  1.2412  2.2216 -0.5050
  648SOL    HW2 2591   2.204   0.783   1.179 -1.3132 -0.1066  0.5035
  648SOL     MW 2592   2.214   0.728   1.108  0.2553  0.2334 -0.3580
  649SOL     OW 2593   2.411   2.696   1.336  0.5005 -0.0145 -0.1614
  649SOL    HW1 2594   2.504   2.720   1.345 -1.3909 -1.4157  1.7692
  649SOL    HW2 2595   2.398   2.599   1.330 -3.0229  1.5889  2.4975
  649SOL     MW 2596   2.422   2.686   1.336 -0.2139  0.0122  0.4441
  650SOL     OW 2597   2.816   0.248   0.704 -0.4924 -0.2149  0.0421
  650SOL    HW1 2598   2.866   0.322   0.734 -0.2326 -0.1288 -1.0046
  650SOL    HW2 2599   2.842   0.236   0.615 -3.1980  1.2374  1.2712
  650SOL     MW 2600   2.826   0.256   0.696 -0.8151 -0.0119  0.0662
  651SOL     OW 2601   0.020   0.436   1.024  0.5880  0.1379  0.6023
  651SOL    HW1 2602   0.081   0.455   0.946  1.1154  1.1211 -1.2209
  651SOL    HW2 2603  -0.056   0.497   1.018 -0.3269 -1.2168  0.4671
  651SOL     MW 2604   0.018   0.447   1.013  0.5369  0.0889  0.3439
  652SOL     OW 2605   2.401   1.500   3.036 -0.2354 -0.8404 -0.1147
  652SOL    HW1 2606   2.482   1.501   2.976  0.1733 -1.0956 -1.2556
  652SOL    HW2 2607   2.345   1.573   3.017  0.5275 -4.2279 -0.7522
  652SOL     MW 2608   2.404   1.510   3.026 -0.0809 -1.3210 -0.3494
  653SOL     OW 2609   1.823   0.469   0.332  0.5226 -0.1991  0.0719
  653SOL    HW1 2610   1.760   0.397   0.315 -0.5527  4.6679  1.9104
  653SOL    HW2 2611   1.897   0.461   0.272  0.0960 -0.1993 -0.9641
  653SOL     MW 2612   1.825   0.458   0.322  0.3244  0.4430  0.1778
  654SOL     OW 2613   2.427   1.014   0.703 -0.6042 -0.5176 -0.0726
  654SOL    HW1 2614   2.371   1.007   0.628  1.3584  0.5191  0.9369
  654SOL    HW2 2615   2.447   0.923   0.731 -0.6166  3.4697 -1.0935
  654SOL     MW 2616   2.422   1.001   0.697 -0.3469  0.1453 -0.0741
  655SOL     OW 2617   2.904   0.829   0.386 -0.1781  0.2557 -0.5121
  655SOL    HW1 2618   2.850   0.842   0.466 -0.9143  0.3172 -0.9250
  655SOL    HW2 2619   2.932   0.735   0.402  0.9247  2.6397  1.9723
  655SOL     MW 2620   2.901   0.818   0.398 -0.1297  0.5783 -0.2388
  656SOL     OW 2621   1.771   2.642   1.347  0.5053  0.0462 -0.1521
  656SOL    HW1 2622   1.813   2.725   1.377 -2.4903 -0.7952  0.7871
  656SOL    HW2 2623   1.833   2.574   1.316  2.0958 -0.1697  0.1220
  656SOL     MW 2624   1.784   2.644   1.347  0.3199 -0.0933  0.0080
  657SOL     OW 2625   0.148   1.783   1.162 -0.1983  0.4013 -0.2688
  657SOL    HW1 2626   0.201   1.821   1.095 -1.5121  0.5535 -1.5178
  657SOL    HW2 2627   0.168   1.687   1.176 -1.0066 -0.6892  0.7640
  657SOL     MW 2628   0.158   1.776   1.155 -0.4783  0.2775 -0.2974
  658SOL     OW 2629   2.639   1.298   0.237  0.0423  0.2628 -0.1718
  658SOL    HW1 2630   2.595   1.225   0.282 -2.8911 -2.2040  1.3767
  658SOL    HW2 2631   2.657   1.371   0.298 -0.2494  1.1889 -0.1814
  658SOL     MW 2632   2.636   1.298   0.251 -0.3832  0.0595  0.0312
  659SOL     OW 2633   2.226   1.538   0.960 -0.3985 -0.1201  0.2139
  659SOL    HW1 2634   2.296   1.485   0.991 -1.1515 -0.7512 -0.5819
  659SOL    HW2 2635   2.160   1.545   1.030  0.4869  1.3602 -4.0167
  659SOL     MW 2636   2.226   1.532   0.973 -0.3811 -0.0081 -0.4493
  660SOL     OW 2637   2.087   1.486   1.721 -0.0397 -0.5163  0.4502
  660SOL    HW1 2638   2.107   1.516   1.811  1.8656 -0.7068 -0.9547
  660SOL    HW2 2639   1.998   1.448   1.718 -0.7209 -1.7926 -1.5115
  660SOL     MW 2640   2.078   1.485   1.733  0.1218 -0.7099  0.0060
  661SOL     OW 2641   2.497   0.941   0.213 -0.3319 -0.4460 -0.0102
  661SOL    HW1 2642   2.524   0.984   0.292  1.2043  0.9525  0.1332
  661SOL    HW2 2643   2.415   0.899   0.241  0.1339  1.5404 -3.8754
  661SOL     MW 2644   2.490   0.941   0.227 -0.0678  0.0006 -0.5012
  662SOL     OW 2645   2.591   2.988   0.894 -0.0326 -0.0870 -0.3025
  662SOL    HW1 2646   2.530   3.054   0.915 -0.6113 -0.2131  1.2032
  662SOL    HW2 2647   2.632   3.008   0.808  0.4457 -2.3515 -1.0411
  662SOL     MW 2648   2.588   2.999   0.885 -0.0458 -0.4024 -0.2013
  663SOL     OW 2649   2.651   1.494   0.447 -0.3906  0.3992  0.3594
  663SOL    HW1 2650   2.608   1.581   0.438 -1.9294 -1.1031 -0.1994
  663SOL    HW2 2651   2.733   1.512   0.488  0.9602 -2.5725 -1.2336
  663SOL     MW 2652   2.656   1.508   0.452 -0.4154 -0.1911  0.0755
  664SOL     OW 2653   2.569   1.543   1.608  0.3201  0.2617  0.2037
  664SOL    HW1 2654   2.555   1.636   1.580  0.5633  1.4002 -0.1479
  664SOL    HW2 2655   2.477   1.500   1.598  3.0656 -0.2318  0.0609
  664SOL     MW 2656   2.555   1.549   1.603  0.7144  0.3468  0.1385
  665SOL     OW 2657   2.780   0.799   2.064  0.1204 -0.6321  0.6900
  665SOL    HW1 2658   2.764   0.847   1.981 -1.3367  1.5114  1.0254
  665SOL    HW2 2659   2.862   0.759   2.040  0.2067  3.1166 -1.4160
  665SOL     MW 2660   2.789   0.800   2.050 -0.0604  0.1453  0.4564
  666SOL     OW 2661   2.766   3.060   1.715 -0.0287 -0.5881  0.2533
  666SOL    HW1 2662   2.778   3.062   1.616  0.0960  2.7848 -0.1313
  666SOL    HW2 2663   2.728   2.974   1.739 -0.0629 -1.1887  0.0229
  666SOL     MW 2664   2.762   3.049   1.705 -0.0167 -0.2223  0.1722
  667SOL     OW 2665   1.978   2.698   1.739  0.2810 -0.1299 -0.4661
  667SOL    HW1 2666   1.992   2.664   1.828  0.5199 -0.9545 -0.5972
  667SOL    HW2 2667   2.039   2.771   1.734 -0.2416  0.3496  1.8192
  667SOL     MW 2668   1.988   2.703   1.750  0.2436 -0.1754 -0.1819
  668SOL     OW 2669   2.679   0.537   0.808  0.0154 -0.9749  0.1406
  668SOL    HW1 2670   2.767   0.569   0.833  1.5951 -0.3216  2.8942
  668SOL    HW2 2671   2.616   0.616   0.820 -1.7164  3.0686 -0.8693
  668SOL     MW 2672   2.683   0.552   0.813 -0.0046 -0.3552  0.3706
  669SOL     OW 2673   0.131   0.870   0.743 -0.3557  0.5077 -0.1668
  669SOL    HW1 2674   0.094   0.947   0.790 -1.4807  1.3532 -2.4212
  669SOL    HW2 2675   0.192   0.848   0.814  0.5324  0.0112 -1.1737
  669SOL     MW 2676   0.134   0.877   0.759 -0.3869  0.5537 -0.5971
  670SOL     OW 2677   2.917   0.332   0.203  0.1789  0.7578  0.2950
  670SOL    HW1 2678   2.945   0.299   0.113  1.9039  1.3577 -0.5593
  670SOL    HW2 2679   2.914   0.431   0.188  0.1664 -0.3627  0.8976
  670SOL     MW 2680   2.921   0.340   0.189  0.4048  0.6891  0.2618
  671SOL     OW 2681   1.996   3.059   1.586  0.0878 -0.1682  0.2475
  671SOL    HW1 2682   1.942   3.012   1.522  0.4035  0.1821 -0.8690
  671SOL    HW2 2683   1.939   3.062   1.665 -1.1881 -2.9201 -0.7384
  671SOL     MW 2684   1.981   3.053   1.588 -0.0389 -0.4851 -0.0299
  672SOL     OW 2685   1.883   1.683   1.309 -0.7141 -0.3551 -0.4037
  672SOL    HW1 2686   1.840   1.756   1.356  0.9122  1.5576 -0.2779
  672SOL    HW2 2687   1.916   1.717   1.222  3.9029  1.5956 -0.9342
  672SOL     MW 2688   1.882   1.697   1.304  0.1096  0.1547 -0.4571
  673SOL     OW 2689   2.794   1.109   0.626 -0.5830 -0.0778 -0.1084
  673SOL    HW1 2690   2.828   1.029   0.659  1.8833  1.4038 -0.9414
  673SOL    HW2 2691   2.873   1.167   0.616  0.5210  0.5554  0.6658
  673SOL     MW 2692   2.809   1.106   0.629 -0.1120  0.2013 -0.1162
  674SOL     OW 2693   2.445   0.009   1.247  0.1388  0.1307 -0.0004
  674SOL    HW1 2694   2.417   0.018   1.153 -0.5916 -0.9391  3.6841
  674SOL    HW2 2695   2.466  -0.081   1.274 -0.3980 -1.0992  0.2158
  674SOL     MW 2696   2.444  -0.002   1.238 -0.0284 -0.1727  0.5143
  675SOL     OW 2697   3.018   0.881   1.104 -0.7494  0.1575 -0.2940
  675SOL    HW1 2698   3.082   0.878   1.176 -1.5728 -0.0065 -1.5208
  675SOL    HW2 2699   3.042   0.957   1.060  0.4625  0.6868  0.1622
  675SOL     MW 2700   3.030   0.890   1.107 -0.6981  0.2057 -0.3956
  676SOL     OW 2701   2.974   1.465   1.686  0.6381 -0.6672  0.7982
  676SOL    HW1 2702   2.906   1.406   1.667  0.1313 -0.2088  2.2339
  676SOL    HW2 2703   3.019   1.448   1.767 -3.4760  2.3824  1.6372
  676SOL     MW 2704   2.971   1.455   1.694  0.0284 -0.2043  1.0983
  677SOL     OW 2705   2.365   0.599   2.006 -0.4849 -0.5087  0.1330
  677SOL    HW1 2706   2.324   0.543   1.941 -4.7076  0.0797 -0.2306
  677SOL    HW2 2707   2.326   0.689   1.987  0.5787  0.8492 -0.6104
  677SOL     MW 2708   2.355   0.603   1.995 -0.9017 -0.2519 -0.0131
  678SOL     OW 2709   2.483   1.708   0.340 -0.1407 -0.2897  0.3497
  678SOL    HW1 2710   2.399   1.746   0.362  0.3716  1.4084 -1.0281
  678SOL    HW2 2711   2.459   1.628   0.299  2.9361  0.5417  2.5093
  678SOL     MW 2712   2.469   1.703   0.337  0.3329  0.0441  0.4529
  679SOL     OW 2713   2.204   0.471   1.339 -0.0630  0.2048  0.3547
  679SOL    HW1 2714   2.177   0.385   1.305 -0.0520  0.2737 -0.4239
  679SOL    HW2 2715   2.120   0.507   1.376 -0.7340 -1.4962  0.5729
  679SOL     MW 2716   2.189   0.465   1.339 -0.1501 -0.0105  0.2808
  680SOL     OW 2717   2.380   0.179   1.462 -0.3725  0.3393  0.6288
  680SOL    HW1 2718   2.290   0.207   1.457  2.6149  0.0965 -0.9136
  680SOL    HW2 2719   2.378   0.116   1.392  1.1951 -4.2064 -0.6004
  680SOL     MW 2720   2.368   0.174   1.452  0.2285 -0.2925  0.2631
  681SOL     OW 2721   0.288   0.599   1.576  0.1283  0.8073 -0.1104
  681SOL    HW1 2722   0.261   0.538   1.647 -1.7079 -0.9425  2.2524
  681SOL    HW2 2723   0.334   0.541   1.515 -1.0988  0.6524 -0.0862
  681SOL     MW 2724   0.291   0.583   1.578 -0.2759  0.5560  0.2046
  682SOL     OW 2725   0.151   2.802   1.549  0.3081 -0.0595 -0.5269
  682SOL    HW1 2726   0.227   2.855   1.586 -1.3030  1.7721  0.1127
  682SOL    HW2 2727   0.089   2.865   1.520 -0.5322  0.1294 -0.7193
  682SOL     MW 2728   0.153   2.818   1.550 -0.0153  0.2071 -0.4679
  683SOL     OW 2729   2.072   0.812   2.961  0.0939  0.3399  0.4333
  683SOL    HW1 2730   1.982   0.774   2.960 -1.8983  0.4907 -0.0121
  683SOL    HW2 2731   2.066   0.893   3.022  0.3701 -0.8672  0.5182
  683SOL     MW 2732   2.059   0.818   2.968 -0.1325  0.2005  0.3857
  684SOL     OW 2733   2.242   1.665   0.698 -0.3217  0.1440 -0.0856
  684SOL    HW1 2734   2.210   1.605   0.629  2.1948 -1.5543 -2.4425
  684SOL    HW2 2735   2.221   1.615   0.778  0.1564 -2.2423 -3.2252
  684SOL     MW 2736   2.235   1.651   0.699  0.0734 -0.3949 -0.8108
  685SOL     OW 2737   2.675   1.704   1.273  1.1161 -0.0734  0.3760
  685SOL    HW1 2738   2.737   1.696   1.344  1.1042 -1.0823  0.7596
  685SOL    HW2 2739   2.645   1.612   1.267 -0.7393 -2.5353  0.0993
  685SOL     MW 2740   2.679   1.691   1.282  0.8697 -0.5313  0.3901
  686SOL     OW 2741   2.890   0.735   1.450 -0.2631 -0.2935 -0.3470
  686SOL    HW1 2742   2.855   0.665   1.511 -0.3623 -2.9773  0.3053
  686SOL    HW2 2743   2.987   0.740   1.461 -2.8527  2.1710 -3.0640
  686SOL     MW 2744   2.898   0.726   1.459 -0.6179 -0.3224 -0.6194
  687SOL     OW 2745   2.148   0.211   1.208 -0.0732 -0.0852 -0.3152
  687SOL    HW1 2746   2.193   0.164   1.141 -0.3766  0.9399  0.0514
  687SOL    HW2 2747   2.071   0.246   1.163  1.6458 -0.3825  2.3313
  687SOL     MW 2748   2.144   0.210   1.194  0.1135  0.0109  0.0824
  688SOL     OW 2749   2.410   0.572   1.462 -0.6438  0.0503 -0.2071
  688SOL    HW1 2750   2.330   0.524   1.431 -1.2988  0.4051  1.2448
  688SOL    HW2 2751   2.357   0.650   1.490 -1.4899 -0.4013 -1.1068
  688SOL     MW 2752   2.392   0.576   1.462 -0.8419  0.0375 -0.1343
  689SOL     OW 2753   2.444   0.707   2.913 -0.3476  0.0816 -0.5691
  689SOL    HW1 2754   2.447   0.781   2.854 -0.1361  1.9159 -0.3120
  689SOL    HW2 2755   2.516   0.711   2.974 -3.3038 -0.7243 -1.7338
  689SOL     MW 2756   2.454   0.717   2.913 -0.7097  0.2173 -0.6888
  690SOL     OW 2757   1.995   0.855   1.900  0.0349  0.3495 -0.4000
  690SOL    HW1 2758   1.964   0.765   1.922 -2.2587  2.0068  3.1847
  690SOL    HW2 2759   2.002   0.856   1.807 -1.4428 -0.2006  1.2050
  690SOL     MW 2760   1.992   0.843   1.890 -0.4627  0.4956  0.2847
  691SOL     OW 2761   2.372   0.223   0.851  0.2058  0.1882 -0.3568
  691SOL    HW1 2762   2.448   0.268   0.885 -0.7423  0.4942 -3.4968
  691SOL    HW2 2763   2.308   0.290   0.833 -0.5293  0.8424  4.5553
  691SOL     MW 2764   2.373   0.238   0.853 -0.0163  0.3149 -0.1230
  692SOL     OW 2765   2.869   1.648   1.456 -0.6366 -0.2971 -0.2536
  692SOL    HW1 2766   2.895   1.618   1.542 -0.4573 -1.3243  2.6818
  692SOL    HW2 2767   2.888   1.742   1.457 -1.5355  0.0863  1.3276
  692SOL     MW 2768   2.875   1.656   1.468 -0.7316 -0.3820  0.3423
  693SOL     OW 2769   2.252   0.409   0.104  0.2880  0.1324 -0.6272
  693SOL    HW1 2770   2.176   0.370   0.058 -0.0701  0.5834 -2.5301
  693SOL    HW2 2771   2.254   0.495   0.064  2.8727 -2.8454  0.4858
  693SOL     MW 2772   2.242   0.415   0.093  0.5818 -0.2010 -0.7314
  694SOL     OW 2773   1.896   1.208   1.163  0.1054 -0.7201 -0.7271
  694SOL    HW1 2774   1.988   1.186   1.190  2.3568  2.9777 -0.3912
  694SOL    HW2 2775   1.848   1.125   1.182 -0.7735 -1.9048 -2.7706
  694SOL     MW 2776   1.902   1.194   1.169  0.2865 -0.3885 -0.9524
  695SOL     OW 2777   3.032   1.477   1.293  0.2308 -1.0753  0.5000
  695SOL    HW1 2778   2.989   1.455   1.206 -0.1037  2.5742  0.6558
  695SOL    HW2 2779   2.959   1.531   1.337 -0.9795  1.2457  0.2877
  695SOL     MW 2780   3.016   1.482   1.287  0.0269 -0.2875  0.4925
  696SOL     OW 2781   2.078   1.365   0.812  0.4601  0.0072 -0.3485
  696SOL    HW1 2782   2.123   1.428   0.878 -1.3671  3.9204  0.6461
  696SOL    HW2 2783   2.016   1.310   0.859 -1.9496 -2.6523  1.9467
  696SOL     MW 2784   2.075   1.366   0.827 -0.0989  0.1726  0.0856
  697SOL     OW 2785   2.879   1.018   2.201 -0.1349 -0.0242  0.5916
  697SOL    HW1 2786   2.828   1.085   2.169  0.4402 -0.9028  3.2985
  697SOL    HW2 2787   2.842   0.935   2.168  1.6056 -0.7675  2.6970
  697SOL     MW 2788   2.868   1.016   2.192  0.1707 -0.2382  1.2266
  698SOL     OW 2789   2.544   0.345   0.038  0.2866  0.4668 -0.1639
  698SOL    HW1 2790   2.447   0.363   0.049 -2.4957  0.6776 -1.8535
  698SOL    HW2 2791   2.587   0.292   0.107  0.2195 -3.0376  0.6755
  698SOL     MW 2792   2.537   0.341   0.049 -0.0893  0.0323 -0.2760
  699SOL     OW 2793   1.855   1.590   2.061  0.1446  0.0826 -0.2230
  699SOL    HW1 2794   1.808   1.505   2.052 -1.4514  1.5032 -0.0432
  699SOL    HW2 2795   1.950   1.596   2.029  3.7832 -2.1197  0.0911
  699SOL     MW 2796   1.861   1.580   2.055  0.4141 -0.0206 -0.1579
  700SOL     OW 2797   2.740   0.934   1.534  0.5133 -0.1052  0.0417
  700SOL    HW1 2798   2.759   1.010   1.478 -1.0357  1.4912 -1.8728
  700SOL    HW2 2799   2.807   0.869   1.514 -2.3910 -3.8229  1.1901
  700SOL     MW 2800   2.751   0.936   1.524 -0.0743 -0.3851 -0.0594
  701SOL     OW 2801   1.674   1.201   2.459  0.4475 -0.1528  0.2387
  701SOL    HW1 2802   1.764   1.181   2.476  1.2121 -0.7985 -0.0057
  701SOL    HW2 2803   1.641   1.268   2.527  0.3681 -0.2881  0.9450
  701SOL     MW 2804   1.681   1.207   2.470  0.5379 -0.2559  0.2996
  702SOL     OW 2805   2.135   0.415   0.849 -0.3443  0.1574 -0.1705
  702SOL    HW1 2806   2.100   0.350   0.788 -0.8135 -1.0909  1.4648
  702SOL    HW2 2807   2.195   0.478   0.798  0.5120 -0.6017 -1.3018
  702SOL     MW 2808   2.138   0.415   0.835 -0.2932 -0.1075 -0.1040
  703SOL     OW 2809   2.707   1.234   1.057 -0.1844  0.6321 -0.5195
  703SOL    HW1 2810   2.656   1.227   0.976 -1.7152  1.5895 -1.5423
  703SOL    HW2 2811   2.743   1.145   1.075 -1.7011  2.6162 -0.8677
  703SOL     MW 2812   2.705   1.222   1.049 -0.5865  1.0202 -0.7004
  704SOL     OW 2813   0.014   1.175   0.109 -0.0288  0.6647  0.5273
  704SOL    HW1 2814  -0.078   1.166   0.083  0.9046  2.5414  0.5538
  704SOL    HW2 2815   0.004   1.200   0.198 -1.3955 -1.2937 -1.9453
  704SOL     MW 2816   0.001   1.177   0.117 -0.0859  0.6540  0.2046
  705SOL     OW 2817   2.179   1.640   1.260  0.4297 -0.4535  0.1292
  705SOL    HW1 2818   2.112   1.656   1.324 -0.8875  2.2623  0.4953
  705SOL    HW2 2819   2.200   1.543   1.264 -1.5525 -1.8752 -0.4933
  705SOL     MW 2820   2.173   1.629   1.269 -0.0056 -0.2828  0.0954
  706SOL     OW 2821   3.026   1.247   0.655 -0.4289 -0.5275  0.2616
  706SOL    HW1 2822   3.087   1.235   0.573  0.5892  2.7919 -1.3005
  706SOL    HW2 2823   2.998   1.337   0.644  0.0247  0.5716 -0.4866
  706SOL     MW 2824   3.030   1.257   0.642 -0.2347  0.0555 -0.0432
  707SOL     OW 2825   2.281   0.052   1.028 -0.1691  0.0108  0.2070
  707SOL    HW1 2826   2.323   0.111   0.962 -0.0656 -0.8773  1.5939
  707SOL    HW2 2827   2.227  -0.005   0.972  2.1834  0.3700 -0.6193
  707SOL     MW 2828   2.280   0.052   1.012  0.1549 -0.0590  0.2809
  708SOL     OW 2829   2.401   1.451   0.208 -0.4172  0.1629 -0.5592
  708SOL    HW1 2830   2.486   1.404   0.191 -1.3058 -2.5304  1.3981
  708SOL    HW2 2831   2.369   1.482   0.125 -0.8068  2.3761  0.4780
  708SOL     MW 2832   2.408   1.449   0.195 -0.5858  0.0996 -0.1641
  709SOL     OW 2833   1.764   1.649   0.239  0.3126  0.5440  0.8244
  709SOL    HW1 2834   1.756   1.655   0.144  2.3370 -0.8622 -0.0172
  709SOL    HW2 2835   1.671   1.648   0.265  0.5260  0.3739  1.3057
  709SOL     MW 2836   1.750   1.650   0.230  0.6079  0.3360  0.7768
  710SOL     OW 2837   2.163   1.116   1.169 -0.1532 -1.1175  0.2175
  710SOL    HW1 2838   2.199   1.112   1.076 -0.9189 -1.4475  0.6320
  710SOL    HW2 2839   2.202   1.042   1.212 -0.3672  1.5732 -1.4656
  710SOL     MW 2840   2.173   1.106   1.162 -0.2825 -0.8061  0.0501
  711SOL     OW 2841   2.314   0.141   1.761 -0.4195 -0.5596  0.0510
  711SOL    HW1 2842   2.404   0.149   1.798  0.1242 -2.1156  1.0952
  711SOL    HW2 2843   2.338   0.137   1.665  1.5931 -1.2588 -0.3813
  711SOL     MW 2844   2.329   0.141   1.753 -0.0822 -0.8571  0.1318
  712SOL     OW 2845   1.898   0.629   0.048 -0.4812  0.4190 -1.1876
  712SOL    HW1 2846   1.824   0.678   0.015 -1.9787  2.1935 -3.0590
  712SOL    HW2 2847   1.940   0.682   0.115  1.6718 -1.1725  0.1550
  712SOL     MW 2848   1.894   0.643   0.053 -0.3947  0.4431 -1.2573
  713SOL     OW 2849   2.564   0.810   1.089 -0.4812 -0.6012  0.0572
  713SOL    HW1 2850   2.556   0.723   1.122 -0.2099 -3.8157 -0.4924
  713SOL    HW2 2851   2.483   0.842   1.107  0.3162 -1.7423 -0.9819
  713SOL     MW 2852   2.552   0.803   1.095 -0.3402 -1.1759 -0.1524
  714SOL     OW 2853   2.181   0.177   1.984 -0.5364 -0.4716 -0.3096
  714SOL    HW1 2854   2.252   0.138   2.039 -0.0768  1.0858  2.1103
  714SOL    HW2 2855   2.224   0.161   1.898 -1.4516 -1.7652  3.2760
  714SOL     MW 2856   2.196   0.170   1.980 -0.5965 -0.4368  0.4827
  715SOL     OW 2857   1.778   1.945   1.725  0.7702  0.6169 -0.3714
  715SOL    HW1 2858   1.864   1.928   1.689  2.4868 -0.6287 -3.0623
  715SOL    HW2 2859   1.756   1.877   1.790 -0.2789  2.0747  1.0856
  715SOL     MW 2860   1.786   1.934   1.729  0.8583  0.6449 -0.5342
  716SOL     OW 2861   2.320   0.593   0.723 -0.2134 -0.4184  0.1603
  716SOL    HW1 2862   2.364   0.534   0.665 -1.2457  1.4033 -0.5039
  716SOL    HW2 2863   2.263   0.645   0.665  1.4259 -0.3957 -1.3402
  716SOL     MW 2864   2.318   0.592   0.708 -0.1333 -0.1751 -0.1253
  717SOL     OW 2865   2.850   1.587   2.857 -0.4122 -0.1115  0.4745
  717SOL    HW1 2866   2.932   1.547   2.898 -0.1474 -4.4395  0.9624
  717SOL    HW2 2867   2.826   1.665   2.907 -0.5874 -0.3150 -0.5176
  717SOL     MW 2868   2.858   1.592   2.869 -0.4004 -0.7094  0.4079
  718SOL     OW 2869   2.709   1.404   1.355  0.0360 -0.3147  0.7658
  718SOL    HW1 2870   2.675   1.450   1.432  0.7879  0.4191 -1.0087
  718SOL    HW2 2871   2.739   1.315   1.380 -0.5501 -1.2263  0.5317
  718SOL     MW 2872   2.708   1.398   1.368  0.0579 -0.3381  0.5008
  719SOL     OW 2873   2.210   1.255   0.592 -0.3965  0.2321 -0.4838
  719SOL    HW1 2874   2.298   1.290   0.582 -3.3408 -0.5252  0.1516
  719SOL    HW2 2875   2.186   1.291   0.677  0.4169 -0.7337 -0.8150
  719SOL     MW 2876   2.219   1.265   0.602 -0.6776  0.0048 -0.4436
  720SOL     OW 2877   2.843   1.213   0.048  0.9046  0.2735 -0.2971
  720SOL    HW1 2878   2.827   1.118   0.078 -1.2498 -0.6630  0.4768
  720SOL    HW2 2879   2.791   1.267   0.110 -2.1195 -2.1962 -1.9050
  720SOL     MW 2880   2.834   1.208   0.060  0.2214 -0.1759 -0.4071
  721SOL     OW 2881   2.493   0.883   1.399 -0.2244  0.1053 -0.0744
  721SOL    HW1 2882   2.484   0.804   1.445 -0.5208  3.1243  0.9215
  721SOL    HW2 2883   2.579   0.918   1.431 -0.3118  1.7581 -2.5652
  721SOL     MW 2884   2.503   0.877   1.409 -0.2751  0.7217 -0.2716
  722SOL     OW 2885   2.560   1.086   0.435  0.3165  0.0945  0.5957
  722SOL    HW1 2886   2.524   1.156   0.483 -1.4771 -2.1016  3.2772
  722SOL    HW2 2887   2.619   1.041   0.498  0.5102 -0.5506  4.6622
  722SOL     MW 2888   2.563   1.089   0.450  0.1054 -0.2804  1.4861
  723SOL     OW 2889   2.331   1.399   1.583 -0.2339 -0.6553  0.0954
  723SOL    HW1 2890   2.320   1.391   1.489  1.7447  0.3389 -1.1363
  723SOL    HW2 2891   2.252   1.450   1.607 -1.6419  1.1638 -2.0639
  723SOL     MW 2892   2.319   1.405   1.574 -0.1586 -0.2841 -0.3520
  724SOL     OW 2893   2.453   0.380   0.584  0.6926 -0.2052 -0.4203
  724SOL    HW1 2894   2.447   0.335   0.669  0.5833 -1.7123 -1.0507
  724SOL    HW2 2895   2.542   0.378   0.555 -0.7413 -1.8795  0.2164
  724SOL     MW 2896   2.464   0.374   0.592  0.4890 -0.6249 -0.4195
  725SOL     OW 2897   2.594   0.531   1.189  0.9637 -0.1694  0.0364
  725SOL    HW1 2898   2.688   0.529   1.205 -0.4256 -1.2162 -2.6584
  725SOL    HW2 2899   2.554   0.544   1.278 -0.4559 -0.6024 -0.1328
  725SOL     MW 2900   2.601   0.533   1.203  0.5931 -0.3646 -0.3415
  726SOL     OW 2901   2.579   2.478   0.558  0.3436  0.3267 -0.0729
  726SOL    HW1 2902   2.503   2.520   0.516 -1.9975 -1.6488 -0.9915
  726SOL    HW2 2903   2.551   2.459   0.648 -1.0146  3.4746 -3.5727
  726SOL     MW 2904   2.565   2.481   0.565 -0.1445  0.4813 -0.6559
  727SOL     OW 2905   2.869   0.325   1.759 -0.3209  0.3012  0.0616
  727SOL    HW1 2906   2.822   0.325   1.678  1.4207  2.5726  2.5316
  727SOL    HW2 2907   2.813   0.349   1.829  0.4256 -2.8844  0.9307
  727SOL     MW 2908   2.856   0.328   1.758  0.0074  0.1806  0.5021
  728SOL     OW 2909   2.782   1.128   2.899  0.4199 -0.2704 -0.1611
  728SOL    HW1 2910   2.785   1.202   2.839  1.0629  1.0193  0.4764
  728SOL    HW2 2911   2.805   1.166   2.983  0.3662  1.4836 -0.8673
  728SOL     MW 2912   2.785   1.143   2.902  0.4976  0.1312 -0.1702
  729SOL     OW 2913   2.488   1.448   1.182 -0.0716 -0.2370  0.0385
  729SOL    HW1 2914   2.562   1.417   1.243  0.5260  0.5008  0.6392
  729SOL    HW2 2915   2.528   1.474   1.097 -0.5622 -0.3227 -0.4955
  729SOL     MW 2916   2.504   1.447   1.179 -0.0575 -0.1510  0.0473
  730SOL     OW 2917   2.290   1.179   0.196 -0.3593 -0.2065  0.6253
  730SOL    HW1 2918   2.364   1.111   0.197 -0.1380 -2.1878 -0.3451
  730SOL    HW2 2919   2.331   1.269   0.213  5.0511 -2.0071  0.0203
  730SOL     MW 2920   2.305   1.182   0.198  0.3837 -0.7055  0.4174
  731SOL     OW 2921   2.781   2.004   2.906 -0.0582  0.5997 -0.0910
  731SOL    HW1 2922   2.721   2.000   2.836  1.8515  3.0529 -0.3101
  731SOL    HW2 2923   2.864   2.042   2.873  1.4783  0.7798  1.5590
  731SOL     MW 2924   2.784   2.009   2.893  0.3965  0.9471  0.0978
  732SOL     OW 2925   2.230   0.879   1.355  0.2290  0.0480 -0.1427
  732SOL    HW1 2926   2.197   0.906   1.441  1.1657  0.0590 -0.6335
  732SOL    HW2 2927   2.325   0.882   1.371 -2.4820 -1.0775  3.0945
  732SOL     MW 2928   2.238   0.883   1.369 -0.0051 -0.0990  0.2196
  733SOL     OW 2929   2.357   2.816   2.987 -0.0966  0.0674 -0.4781
  733SOL    HW1 2930   2.292   2.885   2.963  0.8963 -0.4219 -0.2769
  733SOL    HW2 2931   2.323   2.725   2.982 -1.0496 -0.7905  0.9320
  733SOL     MW 2932   2.344   2.813   2.983 -0.0913 -0.1103 -0.2655
  734SOL     OW 2933   1.444   0.316   2.436 -0.5174  0.0697  0.3727
  734SOL    HW1 2934   1.447   0.284   2.528  1.0983  0.8394  1.5891
  734SOL    HW2 2935   1.478   0.242   2.382  0.5686  0.6388 -1.7736
  734SOL     MW 2936   1.449   0.302   2.441 -0.1609  0.2464  0.2500
  735SOL     OW 2937   2.919   0.890   2.614  0.3452 -0.4309 -0.3728
  735SOL    HW1 2938   2.918   0.791   2.615 -2.8065 -1.7814 -0.2538
  735SOL    HW2 2939   2.962   0.904   2.696  2.0591 -3.1130 -3.3721
  735SOL     MW 2940   2.925   0.879   2.625  0.1555 -0.9630 -0.7528
  736SOL     OW 2941   0.085   0.606   2.513 -0.3168 -0.1341  0.2869
  736SOL    HW1 2942   0.126   0.680   2.470 -1.4496 -1.5914  1.0712
  736SOL    HW2 2943   0.074   0.543   2.440  0.1904  1.3922  0.5553
  736SOL     MW 2944   0.089   0.607   2.498 -0.3993 -0.1250  0.4258
  737SOL     OW 2945   2.932   0.615   2.593  0.0178 -0.0608 -0.0819
  737SOL    HW1 2946   2.867   0.597   2.521 -1.6949  0.0032 -0.8517
  737SOL    HW2 2947   3.023   0.596   2.566 -0.4477 -1.8301 -0.6926
  737SOL     MW 2948   2.935   0.610   2.580 -0.2696 -0.2858 -0.2641
  738SOL     OW 2949   0.128   0.609   1.959  0.8957  0.5582  0.2445
  738SOL    HW1 2950   0.221   0.630   1.957  0.8706 -3.2173  2.4761
  738SOL    HW2 2951   0.126   0.515   1.950 -0.9137  0.8865 -0.4532
  738SOL     MW 2952   0.140   0.600   1.958  0.6537  0.1034  0.4469
  739SOL     OW 2953   2.484   0.977   2.044 -0.3061 -0.1331  0.2811
  739SOL    HW1 2954   2.394   0.948   2.028 -0.8179  0.3420  2.3585
  739SOL    HW2 2955   2.519   1.032   1.974 -1.2828  1.7802 -0.4474
  739SOL     MW 2956   2.477   0.980   2.033 -0.5025  0.1820  0.4590
  740SOL     OW 2957   0.219   1.742   2.953 -0.5603  0.0423 -0.4963
  740SOL    HW1 2958   0.169   1.660   2.941 -1.3350  2.1936 -1.7615
  740SOL    HW2 2959   0.312   1.719   2.952  0.5142 -2.0484 -1.3045
  740SOL     MW 2960   0.224   1.728   2.952 -0.5208  0.0503 -0.7699
  741SOL     OW 2961   2.206   1.125   2.770  0.1884  0.3833 -0.2077
  741SOL    HW1 2962   2.124   1.078   2.780 -0.2518  3.8342  0.5857
  741SOL    HW2 2963   2.222   1.162   2.855 -1.5611  1.9455 -1.2822
  741SOL     MW 2964   2.197   1.124   2.783 -0.1005  1.0447 -0.2448
  742SOL     OW 2965   1.577   1.221   2.203  0.6924  0.6406 -0.3080
  742SOL    HW1 2966   1.525   1.140   2.189 -0.6686  0.0945  0.5907
  742SOL    HW2 2967   1.618   1.218   2.291 -1.1383 -2.2724 -0.7504
  742SOL     MW 2968   1.575   1.210   2.213  0.2713  0.1842 -0.2478
  743SOL     OW 2969   2.492   1.314   2.714  0.0533  0.2975 -0.1891
  743SOL    HW1 2970   2.394   1.317   2.737 -2.6968  0.1438  0.6244
  743SOL    HW2 2971   2.525   1.235   2.750  0.1480 -2.0960  0.7841
  743SOL     MW 2972   2.483   1.304   2.722 -0.2970 -0.0386  0.0466
  744SOL     OW 2973   2.771   0.921   1.828  0.1225  0.0019  1.0348
  744SOL    HW1 2974   2.734   1.005   1.803  2.0602 -2.9498 -0.6644
  744SOL    HW2 2975   2.745   0.863   1.757 -0.3688  2.3205 -0.4139
  744SOL     MW 2976   2.763   0.925   1.816  0.3133 -0.0817  0.6195
  745SOL     OW 2977   1.691   0.430   2.503  0.3608 -0.4194  0.1771
  745SOL    HW1 2978   1.701   0.463   2.412 -1.2790  2.6426 -0.1342
  745SOL    HW2 2979   1.609   0.379   2.495 -0.1977 -0.1988 -0.7124
  745SOL     MW 2980   1.681   0.427   2.490  0.0707  0.0137  0.0187
  746SOL     OW 2981   1.584   1.476   1.619  0.9045  0.1154  0.7469
  746SOL    HW1 2982   1.681   1.467   1.623  0.8071 -2.5918  0.8461
  746SOL    HW2 2983   1.566   1.437   1.708 -0.1608  3.0871  1.9297
  746SOL     MW 2984   1.594   1.470   1.632  0.7511  0.1503  0.9160
  747SOL     OW 2985   2.565   1.150   1.820  0.4258 -0.1364 -0.0473
  747SOL    HW1 2986   2.482   1.155   1.769 -0.9466  0.5756  1.6437
  747SOL    HW2 2987   2.555   1.234   1.872  0.7233 -0.7555  1.2787
  747SOL     MW 2988   2.553   1.162   1.820  0.2840 -0.1241  0.3508
  748SOL     OW 2989   0.104   3.086   1.830 -0.0130  0.8018 -0.0159
  748SOL    HW1 2990   0.182   3.148   1.815  1.2424  1.3957  1.4287
  748SOL    HW2 2991   0.060   3.126   1.910 -0.0786 -0.0871  3.1512
  748SOL     MW 2992   0.108   3.100   1.839  0.1440  0.7629  0.5925
  749SOL     OW 2993   2.482   0.509   2.700  1.0499 -0.5418 -0.3676
  749SOL    HW1 2994   2.491   0.579   2.636  1.8818 -0.9816 -0.1106
  749SOL    HW2 2995   2.470   0.547   2.785 -0.3670  1.7708 -2.1956
  749SOL     MW 2996   2.481   0.523   2.703  0.9727 -0.2947 -0.5749
  750SOL     OW 2997   2.020   3.054   1.997 -0.0510  0.1370 -0.2001
  750SOL    HW1 2998   2.052   3.141   1.985  0.0114 -0.6695  1.7875
  750SOL    HW2 2999   2.101   3.011   1.996 -1.0769  0.3606  2.0981
  750SOL     MW 3000   2.035   3.060   1.995 -0.1781  0.0601  0.3654
  751SOL     OW 3001   0.047   0.419   2.315  0.6161  0.4448  0.5424
  751SOL    HW1 3002  -0.038   0.381   2.350  2.4230  1.0869 -1.9273
  751SOL    HW2 3003   0.103   0.347   2.293 -1.6318  1.1537  1.3568
  751SOL     MW 3004   0.043   0.404   2.317  0.5579  0.6231  0.3240
  752SOL     OW 3005   2.144   0.826   2.687 -0.0677 -0.3728 -0.1942
  752SOL    HW1 3006   2.229   0.847   2.646  0.0424  0.8990  0.0431
  752SOL    HW2 3007   2.160   0.789   2.775  0.2271  0.1399 -0.5088
  752SOL     MW 3008   2.157   0.824   2.693 -0.0143 -0.1374 -0.2044
  753SOL     OW 3009   2.929   0.314   2.402  0.4510 -0.2746  0.0078
  753SOL    HW1 3010   2.886   0.256   2.345 -1.6850 -0.8666 -0.3313
  753SOL    HW2 3011   2.855   0.377   2.407 -0.7979 -0.5466  4.2943
  753SOL     MW 3012   2.914   0.315   2.395  0.0044 -0.3886  0.5286
  754SOL     OW 3013   2.244   2.991   2.617 -0.0804 -0.5537 -0.1175
  754SOL    HW1 3014   2.264   2.985   2.519 -2.9382  2.2881 -0.6800
  754SOL    HW2 3015   2.318   2.954   2.662 -1.8660  0.9714  1.5878
  754SOL     MW 3016   2.256   2.985   2.610 -0.6931  0.0225  0.0332
  755SOL     OW 3017   2.732   1.520   2.495  0.4928  0.1875 -0.4160
  755SOL    HW1 3018   2.750   1.428   2.528  1.9585 -1.2360  1.3226
  755SOL    HW2 3019   2.797   1.571   2.547 -0.8813  0.0975  0.8428
  755SOL     MW 3020   2.743   1.514   2.507  0.5049 -0.0122 -0.0205
  756SOL     OW 3021   2.252   1.277   2.990 -0.1153  0.0204  0.3634
  756SOL    HW1 3022   2.308   1.356   2.994  0.3147  0.6153 -0.2485
  756SOL    HW2 3023   2.313   1.208   3.030 -0.1173 -1.7560 -0.5879
  756SOL     MW 3024   2.267   1.278   2.996 -0.0589 -0.1355  0.1572
  757SOL     OW 3025   2.096   0.949   1.613  0.3705 -0.3554  0.2154
  757SOL    HW1 3026   2.129   0.858   1.627  2.2560 -0.7544 -1.8466
  757SOL    HW2 3027   2.005   0.939   1.579 -0.9636 -0.3834  2.7791
  757SOL     MW 3028   2.088   0.936   1.610  0.4432 -0.4117  0.2816
  758SOL     OW 3029   2.196   1.757   2.654  0.0208 -0.1026  0.8567
  758SOL    HW1 3030   2.165   1.777   2.560 -1.2524 -0.7614 -1.4244
  758SOL    HW2 3031   2.293   1.755   2.641 -0.5859 -0.2377 -2.1696
  758SOL     MW 3032   2.205   1.759   2.640 -0.2272 -0.2074  0.1564
  759SOL     OW 3033   1.617   1.346   2.704 -0.0103  0.0083 -0.2733
  759SOL    HW1 3034   1.609   1.442   2.682  0.1356 -1.9428 -0.6634
  759SOL    HW2 3035   1.652   1.338   2.794 -0.0709  1.1887 -1.2656
  759SOL     MW 3036   1.620   1.358   2.713  0.0010 -0.0934 -0.4557
  760SOL     OW 3037   2.597   2.001   2.690  0.7649 -0.6897  0.1583
  760SOL    HW1 3038   2.563   1.913   2.663  1.4090 -0.2276  1.7320
  760SOL    HW2 3039   2.578   2.057   2.615  2.5475  4.1277 -0.7756
  760SOL     MW 3040   2.590   1.997   2.677  1.0851  0.0069  0.2427
  761SOL     OW 3041   2.173   0.417   2.459  0.0771 -0.0123 -0.5346
  761SOL    HW1 3042   2.086   0.373   2.461 -1.5679 -0.2160  0.3515
  761SOL    HW2 3043   2.200   0.419   2.550  0.1025 -1.9665  1.4962
  761SOL     MW 3044   2.165   0.411   2.471 -0.1366 -0.2970 -0.1498
  762SOL     OW 3045   0.049   0.155   2.047  0.1133  0.0603 -0.0362
  762SOL    HW1 3046   0.039   0.102   2.126  1.3897 -0.6224  0.2638
  762SOL    HW2 3047  -0.021   0.217   2.061 -0.5271 -2.9765 -0.4385
  762SOL     MW 3048   0.038   0.157   2.059  0.1972 -0.4304 -0.0497
  763SOL     OW 3049   2.408   1.071   2.284  0.3780 -0.1612  0.0076
  763SOL    HW1 3050   2.439   1.036   2.197  0.8348 -0.9203 -1.2118
  763SOL    HW2 3051   2.474   1.142   2.308 -2.3497 -0.9781  0.3856
  763SOL     MW 3052   2.421   1.076   2.276  0.0783 -0.3691 -0.1034
  764SOL     OW 3053   0.448   0.310   2.796 -0.3313  0.3701 -0.0733
  764SOL    HW1 3054   0.379   0.259   2.752 -4.6312 -0.5606 -0.3661
  764SOL    HW2 3055   0.414   0.366   2.867  2.6265  0.7256  1.4498
  764SOL     MW 3056   0.434   0.311   2.800 -0.5084  0.2942  0.0890
  765SOL     OW 3057   2.770   0.084   2.312 -0.5385  0.0275  0.3143
  765SOL    HW1 3058   2.727   0.066   2.229  0.6429  0.1870 -0.6205
  765SOL    HW2 3059   2.816   0.000   2.335 -1.7456  0.4469  0.0383
  765SOL     MW 3060   2.771   0.071   2.304 -0.5419  0.1039  0.1546
  766SOL     OW 3061   1.874   2.991   2.225 -0.0021 -0.1680 -0.5197
  766SOL    HW1 3062   1.926   3.027   2.153 -1.1783  0.5644 -0.3100
  766SOL    HW2 3063   1.802   2.943   2.174 -1.5697 -0.8123 -2.5256
  766SOL     MW 3064   1.871   2.989   2.209 -0.3641 -0.1564 -0.7567
  767SOL     OW 3065   2.618   0.622   1.900  0.4082  0.4065 -0.4414
  767SOL    HW1 3066   2.660   0.665   1.977  0.4426 -1.6989  0.0135
  767SOL    HW2 3067   2.526   0.607   1.927  0.1750  0.1733 -1.5843
  767SOL     MW 3068   2.611   0.626   1.914  0.3819  0.0980 -0.5322
  768SOL     OW 3069   0.047   1.534   2.954 -0.0556  0.0602 -0.5021
  768SOL    HW1 3070   0.041   1.510   3.052  0.4261  1.2832  1.0971
  768SOL    HW2 3071   0.040   1.451   2.892 -1.8853  1.0055 -1.2913
  768SOL     MW 3072   0.045   1.520   2.958 -0.2334  0.3463 -0.3952
  769SOL     OW 3073   2.374   0.685   2.312  0.2546 -0.0574  0.5821
  769SOL    HW1 3074   2.289   0.648   2.303 -0.6454 -1.7884 -0.2327
  769SOL    HW2 3075   2.422   0.641   2.246  3.3442 -0.8651  0.7326
  769SOL     MW 3076   2.369   0.674   2.302  0.5435 -0.3923  0.4945
  770SOL     OW 3077   0.097   1.614   2.606  0.7651  0.2600  0.0509
  770SOL    HW1 3078  -0.001   1.621   2.580 -0.0816 -2.2700 -0.9744
  770SOL    HW2 3079   0.112   1.521   2.630  1.9236 -2.0344  0.0799
  770SOL     MW 3080   0.086   1.602   2.606  0.8063 -0.3766 -0.0806
  771SOL     OW 3081   2.959   0.637   1.923  0.0066 -0.3556 -0.1002
  771SOL    HW1 3082   2.910   0.635   1.841  0.5400 -0.9885 -2.1431
  771SOL    HW2 3083   3.054   0.649   1.913 -1.5735  2.6863  1.6591
  771SOL     MW 3084   2.965   0.639   1.911 -0.1315 -0.0378 -0.1376
  772SOL     OW 3085   3.095   3.088   2.279 -0.2130  0.3529  0.5472
  772SOL    HW1 3086   3.022   3.054   2.334  0.0495  0.4726  1.3798
  772SOL    HW2 3087   3.164   3.014   2.266  1.1839 -2.8155  0.7988
  772SOL     MW 3088   3.094   3.074   2.284  0.0060 -0.0494  0.6903
  773SOL     OW 3089   2.474   2.848   2.762  0.2693  0.0297  0.0128
  773SOL    HW1 3090   2.457   2.764   2.716 -0.5862 -0.4186 -0.2490
  773SOL    HW2 3091   2.426   2.844   2.848  1.4044 -0.2158  0.5849
  773SOL     MW 3092   2.465   2.836   2.767  0.3062 -0.0618  0.0537
  774SOL     OW 3093   2.267   1.180   1.727 -0.1811  0.0939 -0.6703
  774SOL    HW1 3094   2.284   1.257   1.664 -1.3284 -1.6805 -2.2822
  774SOL    HW2 3095   2.214   1.121   1.682 -0.3606  0.8603 -1.1970
  774SOL     MW 3096   2.262   1.183   1.713 -0.3562 -0.0391 -0.9524
  775SOL     OW 3097   2.295   2.899   2.306 -0.2280 -0.1272  0.1757
  775SOL    HW1 3098   2.328   2.985   2.272  3.4756 -2.8010 -1.6048
  775SOL    HW2 3099   2.369   2.838   2.296  1.2413  2.4370 -1.0238
  775SOL     MW 3100   2.309   2.902   2.300  0.4545 -0.1417 -0.2175
  776SOL     OW 3101   0.040   1.452   0.108  0.3040  0.1016 -0.1063
  776SOL    HW1 3102   0.140   1.440   0.097 -1.5115 -0.9597  0.5624
  776SOL    HW2 3103   0.000   1.361   0.117  1.4238 -2.9041  1.2603
  776SOL     MW 3104   0.048   1.438   0.108  0.2122 -0.4350  0.1622
  777SOL     OW 3105   2.997   1.070   1.762 -0.1196  0.2660 -0.3149
  777SOL    HW1 3106   2.928   1.129   1.735  1.2624 -0.0921 -1.5510
  777SOL    HW2 3107   2.949   0.988   1.788 -1.5420 -0.5997  2.5650
  777SOL     MW 3108   2.982   1.067   1.762 -0.1250  0.1045 -0.0980
  778SOL     OW 3109   2.889   0.407   2.767  0.2339  0.0525  0.4305
  778SOL    HW1 3110   2.824   0.439   2.837  1.6814  1.3097 -0.8324
  778SOL    HW2 3111   2.894   0.477   2.702 -1.0174 -0.0761  2.5668
  778SOL     MW 3112   2.881   0.421   2.767  0.2598  0.2014  0.5457
  779SOL     OW 3113   2.103   0.623   2.307  0.2797 -0.2317  0.2124
  779SOL    HW1 3114   2.019   0.670   2.343  3.0328  2.2108 -0.7724
  779SOL    HW2 3115   2.099   0.536   2.329 -0.9597  2.3311 -0.0059
  779SOL     MW 3116   2.091   0.617   2.314  0.4794  0.4287  0.0536
  780SOL     OW 3117   0.213   0.116   2.810  0.1540 -0.6089  0.2284
  780SOL    HW1 3118   0.168   0.176   2.867 -0.0549 -0.4878 -2.0097
  780SOL    HW2 3119   0.150   0.113   2.739  1.3686  2.3087  0.5228
  780SOL     MW 3120   0.199   0.123   2.808  0.2867 -0.2080 -0.0281
  781SOL     OW 3121   3.019   1.299   2.513 -0.1017 -0.5575 -0.2843
  781SOL    HW1 3122   2.997   1.360   2.444 -0.6495 -1.5996  2.7497
  781SOL    HW2 3123   3.029   1.218   2.465  0.3155  0.8948 -0.6733
  781SOL     MW 3124   3.017   1.296   2.497 -0.1190 -0.5034  0.0647
  782SOL     OW 3125   0.661   1.547   0.013 -0.4236 -0.1716 -0.2397
  782SOL    HW1 3126   0.607   1.607  -0.037 -0.4415 -0.0169 -1.5227
  782SOL    HW2 3127   0.598   1.523   0.084 -1.7335 -0.1534  3.1076
  782SOL     MW 3128   0.645   1.552   0.015 -0.5988 -0.1488  0.0327
  783SOL     OW 3129   2.720   0.486   2.445 -0.0690  0.7691  0.4402
  783SOL    HW1 3130   2.669   0.455   2.366  0.0013 -0.2782  1.1281
  783SOL    HW2 3131   2.673   0.435   2.513 -2.4374  0.8546 -0.5840
  783SOL     MW 3132   2.707   0.475   2.443 -0.3722  0.6422  0.3959
  784SOL     OW 3133   0.279   0.910   2.871 -0.3088 -0.0591  0.0077
  784SOL    HW1 3134   0.221   0.988   2.880  0.9519  0.0881  0.8604
  784SOL    HW2 3135   0.335   0.929   2.788 -4.1697 -0.4634  1.3090
  784SOL     MW 3136   0.279   0.923   2.861 -0.6519 -0.0930  0.2919
  785SOL     OW 3137   0.436   0.538   2.187  0.4196  0.7156 -0.0241
  785SOL    HW1 3138   0.443   0.579   2.102 -2.5381  1.1288 -1.7971
  785SOL    HW2 3139   0.364   0.483   2.159  2.0162  1.6614  0.4016
  785SOL     MW 3140   0.428   0.536   2.172  0.2400  0.8949 -0.2018
  786SOL     OW 3141   1.950   0.493   2.885  0.0506 -0.0071  0.2018
  786SOL    HW1 3142   1.932   0.526   2.966  4.8727 -0.4942 -2.2584
  786SOL    HW2 3143   2.041   0.470   2.872 -4.4294  1.5070 -1.0841
  786SOL     MW 3144   1.960   0.494   2.894  0.0957  0.1284 -0.2925
  787SOL     OW 3145   2.428   0.129   2.961  0.4206 -0.0476 -0.0718
  787SOL    HW1 3146   2.478   0.087   2.891 -1.9838 -0.3132  0.5537
  787SOL    HW2 3147   2.494   0.186   3.007 -1.0572 -0.1619  0.1033
  787SOL     MW 3148   2.443   0.131   2.958 -0.0917 -0.0977  0.0338
  788SOL     OW 3149   2.866   2.939   2.378 -0.1335 -0.0110  0.3197
  788SOL    HW1 3150   2.776   2.897   2.391 -4.1426  0.3629 -1.6985
  788SOL    HW2 3151   2.920   2.861   2.368  2.5283  1.1353 -0.9199
  788SOL     MW 3152   2.861   2.923   2.378 -0.3113  0.1896 -0.1101
  789SOL     OW 3153   0.114   0.310   2.968  0.1004  0.2218  0.1932
  789SOL    HW1 3154   0.037   0.262   3.006  2.5577 -0.8245  1.4972
  789SOL    HW2 3155   0.085   0.401   2.962 -0.2073  1.3951 -4.6959
  789SOL     MW 3156   0.100   0.316   2.972  0.3840  0.2386 -0.2798
  790SOL     OW 3157   3.027   1.056   2.426  0.0407 -0.6909 -0.4318
  790SOL    HW1 3158   2.991   1.013   2.501 -1.0610  0.0824  0.6956
  790SOL    HW2 3159   2.968   1.041   2.350 -0.1087  0.1907  1.5596
  790SOL     MW 3160   3.015   1.048   2.426 -0.1243 -0.4726 -0.0203
  791SOL     OW 3161   2.666   0.306   2.656  0.1361 -0.1179 -0.0860
  791SOL    HW1 3162   2.595   0.341   2.706  1.6721 -1.5989 -2.3890
  791SOL    HW2 3163   2.744   0.325   2.704 -1.3527  1.0105 -0.4057
  791SOL     MW 3164   2.667   0.313   2.669  0.1423 -0.1644 -0.4321
  792SOL     OW 3165   2.371   0.239   2.351  0.3429 -0.8812 -0.1436
  792SOL    HW1 3166   2.309   0.311   2.376  0.9416  0.2413 -1.4182
  792SOL    HW2 3167   2.400   0.200   2.431  0.0575  0.2671 -0.1933
  792SOL     MW 3168   2.366   0.243   2.365  0.3842 -0.5816 -0.3183
  793SOL     OW 3169   1.861   1.078   1.945  0.0630  0.1538 -0.1281
  793SOL    HW1 3170   1.844   1.086   1.856  1.2333 -1.3146  1.7147
  793SOL    HW2 3171   1.907   0.993   1.945 -2.6850  0.9138 -0.4562
  793SOL     MW 3172   1.865   1.068   1.933 -0.1451  0.0603  0.0717
  794SOL     OW 3173   1.442   2.276   0.156 -0.4871  0.2064 -0.3387
  794SOL    HW1 3174   1.457   2.350   0.095  2.9880  2.8783 -1.2715
  794SOL    HW2 3175   1.486   2.308   0.235 -0.3669  1.4784 -1.1479
  794SOL     MW 3176   1.450   2.290   0.158 -0.0127  0.7268 -0.5685
  795SOL     OW 3177   2.354   0.968   2.558 -0.1518 -0.1791 -0.0566
  795SOL    HW1 3178   2.318   1.031   2.618 -0.6203 -1.0934 -2.0936
  795SOL    HW2 3179   2.395   1.025   2.492  1.0655  1.2276 -1.4689
  795SOL     MW 3180   2.355   0.984   2.557 -0.0530 -0.1142 -0.5117
  796SOL     OW 3181   0.227   0.616   2.796 -0.2236  0.8890  0.3619
  796SOL    HW1 3182   0.189   0.695   2.827  1.3204 -1.5282  2.0412
  796SOL    HW2 3183   0.182   0.604   2.712  1.3226 -1.7737  0.8149
  796SOL     MW 3184   0.216   0.625   2.789  0.1841  0.2188  0.6432
  797SOL     OW 3185   2.572   0.094   2.518  0.5447  0.8130 -0.0565
  797SOL    HW1 3186   2.603   0.167   2.566 -0.9978 -3.5196 -3.8754
  797SOL    HW2 3187   2.631   0.103   2.440  0.5417  0.1879  0.9592
  797SOL     MW 3188   2.584   0.105   2.514  0.3408  0.1589 -0.4263
  798SOL     OW 3189   2.351   0.051   2.165  0.5315  0.0488  0.3309
  798SOL    HW1 3190   2.348   0.114   2.243 -1.9555  0.5507 -1.7704
  798SOL    HW2 3191   2.436   0.050   2.130 -2.6926  0.1094 -0.7771
  798SOL     MW 3192   2.362   0.059   2.171 -0.2220  0.1230 -0.0925
  799SOL     OW 3193   2.456   2.914   0.133  0.1075  0.0021  0.1910
  799SOL    HW1 3194   2.415   2.865   0.060 -0.7974  0.4254  2.3615
  799SOL    HW2 3195   2.389   2.979   0.152 -0.2569  0.5878  3.2476
  799SOL     MW 3196   2.442   2.916   0.126 -0.0600  0.1353  0.8807
  800SOL     OW 3197   1.832   0.019   1.810  0.0119  0.4581  0.2776
  800SOL    HW1 3198   1.788  -0.067   1.800 -0.4028  1.1682  1.1492
  800SOL    HW2 3199   1.894   0.000   1.878  0.4399 -1.0497 -0.9289
  800SOL     MW 3200   1.834   0.005   1.817  0.0137  0.3529  0.2334
  801SOL     OW 3201   2.792   1.263   2.642 -0.3270 -0.1712  0.0987
  801SOL    HW1 3202   2.757   1.176   2.609 -2.2600 -1.8426 -2.0099
  801SOL    HW2 3203   2.878   1.262   2.603 -3.2346  2.4611  3.4992
  801SOL     MW 3204   2.799   1.252   2.633 -0.9656 -0.0444  0.2692
  802SOL     OW 3205   2.562   1.562   2.814 -0.0209  0.5149  0.1697
  802SOL    HW1 3206   2.541   1.471   2.773 -0.2633  1.1164  0.5451
  802SOL    HW2 3207   2.662   1.561   2.828  1.7832  2.1438  0.5023
  802SOL     MW 3208   2.573   1.550   2.811  0.1851  0.8092  0.2631
  803SOL     OW 3209   2.291   1.341   1.939  0.1315 -0.4069 -0.0611
  803SOL    HW1 3210   2.261   1.322   2.025  0.6754  4.2278  3.4646
  803SOL    HW2 3211   2.280   1.265   1.879  1.5442 -2.8010  2.9886
  803SOL     MW 3212   2.286   1.328   1.943  0.3897 -0.1113  0.8064
  804SOL     OW 3213   2.281   0.032   0.076 -0.4417  0.1057 -0.0079
  804SOL    HW1 3214   2.193   0.074   0.068  0.4696 -0.9328  2.4477
  804SOL    HW2 3215   2.330   0.070   0.005 -0.7595  0.8865  1.4302
  804SOL     MW 3216   2.276   0.043   0.066 -0.3634  0.0717  0.5058
  805SOL     OW 3217   2.719   1.048   2.516  0.2626  0.5835  0.1522
  805SOL    HW1 3218   2.714   1.004   2.434 -1.1724 -1.4313  1.2056
  805SOL    HW2 3219   2.756   0.981   2.570 -1.0711  0.1601  0.6331
  805SOL     MW 3220   2.723   1.034   2.513 -0.1027  0.2618  0.3546
  806SOL     OW 3221   2.569   0.398   2.231  0.3056  0.2732  0.4559
  806SOL    HW1 3222   2.496   0.338   2.260 -0.5755 -3.1918  1.6665
  806SOL    HW2 3223   2.589   0.371   2.139  2.7615 -0.0082 -0.1345
  806SOL     MW 3224   2.562   0.386   2.223  0.5134 -0.2211  0.5377
  807SOL     OW 3225   0.053   1.141   2.043 -0.5278 -0.7413 -0.8437
  807SOL    HW1 3226   0.099   1.061   1.997 -0.9703 -0.3857  0.9045
  807SOL    HW2 3227  -0.032   1.111   2.061  2.3599  1.7688 -0.2051
  807SOL     MW 3228   0.048   1.127   2.040 -0.2052 -0.3632 -0.5288
  808SOL     OW 3229   2.568   3.100   2.773 -0.3575 -0.2691  0.2209
  808SOL    HW1 3230   2.538   3.010   2.786 -0.1573  0.3838 -0.1180
  808SOL    HW2 3231   2.577   3.113   2.677 -0.8025  0.6469 -2.7854
  808SOL     MW 3232   2.565   3.090   2.762 -0.3898 -0.0621 -0.2205
  809SOL     OW 3233   2.553   1.252   2.409 -0.2594 -0.1252 -0.2460
  809SOL    HW1 3234   2.599   1.224   2.483  0.7912  0.5613  0.0876
  809SOL    HW2 3235   2.605   1.321   2.368  2.5580 -0.1086  0.1259
  809SOL     MW 3236   2.566   1.257   2.414  0.2509 -0.0324 -0.1529
  810SOL     OW 3237   2.247   1.306   2.227 -0.2259  0.4103 -0.0816
  810SOL    HW1 3238   2.301   1.225   2.252  1.7380 -0.1506 -2.8883
  810SOL    HW2 3239   2.152   1.278   2.219 -1.9146 -0.7668  0.8930
  810SOL     MW 3240   2.241   1.292   2.229 -0.1896  0.1810 -0.3233
  811SOL     OW 3241   1.538   0.115   2.277  0.4712 -1.0368 -0.4209
  811SOL    HW1 3242   1.614   0.067   2.311 -2.4869  2.3229 -0.5140
  811SOL    HW2 3243   1.548   0.093   2.181  2.4107 -1.8899  0.4635
  811SOL     MW 3244   1.549   0.106   2.269  0.3368 -0.7061 -0.3165
  812SOL     OW 3245   1.433   2.774   2.091  0.0779 -0.3041 -0.6645
  812SOL    HW1 3246   1.531   2.767   2.091 -1.1739 -0.9393 -0.0660
  812SOL    HW2 3247   1.408   2.770   2.181 -0.5741  1.0417 -1.7636
  812SOL     MW 3248   1.442   2.772   2.103 -0.1733 -0.2103 -0.7306
  813SOL     OW 3249   1.776   0.722   2.209 -0.0234 -0.0866  0.3311
  813SOL    HW1 3250   1.743   0.635   2.235  1.3213 -0.4101 -0.2035
  813SOL    HW2 3251   1.822   0.755   2.289  1.5261 -1.1309  0.0748
  813SOL     MW 3252   1.777   0.715   2.223  0.3585 -0.2670  0.2267
  814SOL     OW 3253   2.787   1.230   1.660 -0.4463 -0.6464 -0.2424
  814SOL    HW1 3254   2.710   1.248   1.712  1.0845  2.3911  1.6199
  814SOL    HW2 3255   2.767   1.227   1.569  3.0075  0.6777 -0.2283
  814SOL     MW 3256   2.774   1.232   1.655  0.2113 -0.0709  0.0052
  815SOL     OW 3257   2.505   1.664   2.420  0.0784  0.2777 -0.1973
  815SOL    HW1 3258   2.453   1.587   2.396  2.6502 -3.9033  0.4559
  815SOL    HW2 3259   2.584   1.619   2.437  2.0373 -0.1174  0.1213
  815SOL     MW 3260   2.508   1.648   2.419  0.6762 -0.3261 -0.0691
  816SOL     OW 3261   0.767   0.632   2.742 -0.4722 -0.8920  0.8319
  816SOL    HW1 3262   0.787   0.573   2.812  0.6058  1.6018  0.0820
  816SOL    HW2 3263   0.672   0.640   2.724  0.5367 -0.7154  0.5023
  816SOL     MW 3264   0.757   0.625   2.749 -0.1969 -0.5397  0.6894
  817SOL     OW 3265   3.028   1.212   1.382  0.0420 -0.4746 -0.6052
  817SOL    HW1 3266   3.095   1.206   1.449 -1.7403 -0.6375 -0.8575
  817SOL    HW2 3267   3.025   1.308   1.368  0.0599 -2.0713  0.9126
  817SOL     MW 3268   3.037   1.224   1.389 -0.1908 -0.7067 -0.4383
  818SOL     OW 3269   1.930   0.996   2.747 -0.3905 -0.5512  0.7985
  818SOL    HW1 3270   1.954   1.043   2.669  0.8504 -0.4405  1.6256
  818SOL    HW2 3271   1.992   0.918   2.748  1.9540  1.7547  2.6913
  818SOL     MW 3272   1.941   0.992   2.737  0.0826 -0.2324  1.1573
  819SOL     OW 3273   1.930   0.294   2.484  0.7045 -0.1691  0.3193
  819SOL    HW1 3274   1.844   0.336   2.491  4.1139  0.9660 -0.9586
  819SOL    HW2 3275   1.963   0.293   2.578  1.4264  0.6878  2.5898
  819SOL     MW 3276   1.923   0.299   2.497  1.2496  0.0937  0.4503
  820SOL     OW 3277   2.466   1.763   2.660  0.5212 -0.2386 -0.5212
  820SOL    HW1 3278   2.498   1.688   2.719 -0.0525  2.4274  1.9025
  820SOL    HW2 3279   2.494   1.732   2.575 -0.0377  0.3373  2.4149
  820SOL     MW 3280   2.474   1.749   2.657  0.3718  0.1891  0.1860
  821SOL     OW 3281   2.575   1.345   2.004  0.0206  0.3903  0.1421
  821SOL    HW1 3282   2.628   1.419   1.967  1.1812 -0.5077  0.6366
  821SOL    HW2 3283   2.484   1.370   2.007  1.9451 -1.6787 -1.5944
  821SOL     MW 3284   2.570   1.358   1.999  0.4276 -0.0012 -0.0218
  822SOL     OW 3285   2.810   2.648   1.473  0.2695  0.0216 -0.2019
  822SOL    HW1 3286   2.870   2.687   1.536  0.7001  0.8230 -1.9693
  822SOL    HW2 3287   2.766   2.718   1.428 -2.1429  1.6389  1.1511
  822SOL     MW 3288   2.812   2.662   1.475  0.0080  0.3407 -0.2566
  823SOL     OW 3289   2.258   0.467   1.816  0.2239  0.3576  0.0303
  823SOL    HW1 3290   2.334   0.413   1.790 -1.0680 -1.8932  0.3978
  823SOL    HW2 3291   2.184   0.408   1.807 -0.9859 -1.3061 -0.3288
  823SOL     MW 3292   2.258   0.452   1.811 -0.1062 -0.1589  0.0314
  824SOL     OW 3293   2.064   1.398   2.508  0.0063  0.9160  0.1890
  824SOL    HW1 3294   2.158   1.405   2.530 -2.0494  1.1466 -1.6108
  824SOL    HW2 3295   2.021   1.433   2.583  1.9364 -1.4702 -2.1867
  824SOL     MW 3296   2.071   1.404   2.521 -0.0103  0.6316 -0.3619
  825SOL     OW 3297   2.089   2.555   0.280 -0.1197 -1.2530 -0.2971
  825SOL    HW1 3298   2.124   2.543   0.367  1.1171  2.5350 -0.7281
  825SOL    HW2 3299   2.142   2.514   0.208 -2.6154  1.4992 -0.5670
  825SOL     MW 3300   2.100   2.548   0.282 -0.2858 -0.3901 -0.3895
  826SOL     OW 3301   1.933   2.370   0.550 -0.1815 -0.3699 -0.4106
  826SOL    HW1 3302   1.845   2.342   0.582 -0.1559  2.0373 -0.4035
  826SOL    HW2 3303   1.935   2.462   0.596 -0.2467  0.7035 -1.2148
  826SOL     MW 3304   1.921   2.379   0.560 -0.1867  0.0893 -0.5158
  827SOL     OW 3305   1.963   2.175   0.818 -0.0393  0.3455 -0.2236
  827SOL    HW1 3306   1.898   2.214   0.759 -2.9495 -0.8538  1.3596
  827SOL    HW2 3307   1.904   2.113   0.865  0.4767 -3.4209 -0.1039
  827SOL     MW 3308   1.947   2.172   0.816 -0.3552 -0.3097  0.0011
  828SOL     OW 3309   0.073   2.641   0.509  0.1566 -0.7468 -0.3520
  828SOL    HW1 3310   0.165   2.648   0.536  2.7751 -0.8327 -1.0003
  828SOL    HW2 3311   0.061   2.694   0.427  0.9140  2.5569  0.4957
  828SOL     MW 3312   0.084   2.649   0.502  0.6020 -0.3222 -0.3257
  829SOL     OW 3313   3.002   2.945   1.231  0.3650  0.4054 -0.5222
  829SOL    HW1 3314   2.923   2.936   1.175 -0.5414  0.4335 -1.0469
  829SOL    HW2 3315   3.054   2.870   1.215  0.0393 -0.0401  0.4959
  829SOL     MW 3316   2.998   2.934   1.222  0.2024  0.3504 -0.4571
  830SOL     OW 3317   2.509   2.877   2.035  1.0643  0.0262 -0.3197
  830SOL    HW1 3318   2.414   2.900   2.021 -1.3617  0.1258  2.1822
  830SOL    HW2 3319   2.542   2.859   1.949 -1.4841  0.9921 -0.3882
  830SOL     MW 3320   2.501   2.878   2.022  0.4080  0.1668  0.0014
  831SOL     OW 3321   2.389   2.443   1.224 -0.2758  0.2062 -0.1028
  831SOL    HW1 3322   2.354   2.398   1.305  0.2619  1.3061  1.8272
  831SOL    HW2 3323   2.484   2.420   1.220 -1.0542  1.1436 -2.7652
  831SOL     MW 3324   2.397   2.434   1.235 -0.3076  0.4750 -0.1995
  832SOL     OW 3325   2.403   2.187   1.848 -0.4394 -0.3531 -0.7100
  832SOL    HW1 3326   2.442   2.277   1.852 -1.2178 -0.9989 -2.1133
  832SOL    HW2 3327   2.482   2.125   1.848 -0.8254 -4.7700 -0.9033
  832SOL     MW 3328   2.419   2.190   1.848 -0.5930 -1.0211 -0.9206
  833SOL     OW 3329   1.805   2.499   0.922  0.1393 -0.0338 -0.1626
  833SOL    HW1 3330   1.723   2.474   0.952  3.6467 -0.4896 -0.5220
  833SOL    HW2 3331   1.805   2.563   0.995 -3.7711 -0.6990  2.8301
  833SOL     MW 3332   1.794   2.504   0.936  0.0861 -0.1817  0.1848
  834SOL     OW 3333   2.228   2.432   0.507  0.6895 -0.2672  0.1446
  834SOL    HW1 3334   2.167   2.356   0.504 -1.7894  0.1217 -2.1486
  834SOL    HW2 3335   2.285   2.419   0.423 -0.6631 -0.9709 -2.8418
  834SOL     MW 3336   2.228   2.421   0.496  0.1840 -0.3087 -0.5520
  835SOL     OW 3337   1.880   2.588   0.672  0.0376  0.0501 -0.2036
  835SOL    HW1 3338   1.859   2.561   0.765 -2.4190 -3.1399 -3.8091
  835SOL    HW2 3339   1.930   2.660   0.701 -0.0694 -0.2321  1.7163
  835SOL     MW 3340   1.884   2.594   0.688 -0.3006 -0.4080 -0.4260
  836SOL     OW 3341   1.991   2.163   1.653  0.1541 -0.1210 -0.3473
  836SOL    HW1 3342   2.086   2.147   1.658  0.4584  2.4047  0.3543
  836SOL    HW2 3343   1.988   2.247   1.698  0.1082  0.5697  0.4502
  836SOL     MW 3344   2.003   2.172   1.659  0.1882  0.3034 -0.1495
  837SOL     OW 3345   2.068   0.178   0.691 -0.2391 -0.3259  0.0515
  837SOL    HW1 3346   1.993   0.225   0.638  0.4497  0.9454 -2.3643
  837SOL    HW2 3347   2.100   0.102   0.636  0.3343  1.2070 -0.3993
  837SOL     MW 3348   2.062   0.174   0.677 -0.0725  0.0441 -0.3267
  838SOL     OW 3349   2.892   2.036   0.919 -0.5843  0.3440  0.0482
  838SOL    HW1 3350   2.823   1.979   0.948 -1.2342 -1.0727 -0.4942
  838SOL    HW2 3351   2.960   1.975   0.883  0.8184  0.5092  0.3551
  838SOL     MW 3352   2.892   2.021   0.918 -0.4849  0.1789  0.0171
  839SOL     OW 3353   1.493   2.345   0.922  0.1702 -0.2956 -0.2971
  839SOL    HW1 3354   1.469   2.428   0.963  1.7841 -0.7769 -0.0989
  839SOL    HW2 3355   1.552   2.298   0.983 -0.9140  0.0091  0.1889
  839SOL     MW 3356   1.497   2.350   0.936  0.2401 -0.3189 -0.2068
  840SOL     OW 3357   2.289   2.057   2.391  0.2418 -0.1604 -0.4337
  840SOL    HW1 3358   2.232   2.110   2.345  2.5579 -0.4672  3.2216
  840SOL    HW2 3359   2.341   2.107   2.454  0.2455  0.0913  2.5922
  840SOL     MW 3360   2.288   2.070   2.393  0.5479 -0.1677  0.4479
  841SOL     OW 3361   2.210   2.451   0.071  0.0960 -0.1420  1.2912
  841SOL    HW1 3362   2.265   2.482  -0.002  3.9307  0.2931  0.9452
  841SOL    HW2 3363   2.157   2.383   0.027  0.4201  1.9470 -0.0530
  841SOL     MW 3364   2.210   2.446   0.055  0.6447  0.1910  1.0682
  842SOL     OW 3365   2.676   1.982   1.572 -0.3833 -0.1815 -0.4076
  842SOL    HW1 3366   2.604   1.924   1.577 -1.2416 -1.3400 -2.7798
  842SOL    HW2 3367   2.666   2.025   1.479 -0.4121 -0.4552 -2.7501
  842SOL     MW 3368   2.665   1.980   1.560 -0.5004 -0.3705 -1.0297
  843SOL     OW 3369   2.635   2.817   1.797 -0.6036 -0.5889 -0.2965
  843SOL    HW1 3370   2.727   2.801   1.805 -0.4212  3.1206  1.2311
  843SOL    HW2 3371   2.605   2.736   1.753  1.5562  0.0126  0.2732
  843SOL     MW 3372   2.643   2.804   1.792 -0.2946 -0.0201 -0.0198
  844SOL     OW 3373   2.631   2.352   1.203  0.0187 -0.0999 -0.1738
  844SOL    HW1 3374   2.644   2.394   1.119  1.0101  1.6372  2.0444
  844SOL    HW2 3375   2.715   2.377   1.248  0.7169  1.2994 -2.9908
  844SOL     MW 3376   2.644   2.361   1.198  0.2417  0.3139 -0.2528
  845SOL     OW 3377   2.830   2.536   0.352  0.1290  0.3337 -0.1603
  845SOL    HW1 3378   2.759   2.473   0.338 -0.7397 -0.0756 -0.2723
  845SOL    HW2 3379   2.821   2.578   0.444  0.7771  1.2754  2.8318
  845SOL     MW 3380   2.820   2.533   0.363  0.0999  0.4039  0.2197
  846SOL     OW 3381   1.495   2.818   0.847  0.0096 -0.1416  0.0048
  846SOL    HW1 3382   1.579   2.866   0.846 -2.4590  2.7513 -1.5955
  846SOL    HW2 3383   1.425   2.885   0.856  1.3119  2.5634  1.6080
  846SOL     MW 3384   1.497   2.833   0.848 -0.1443  0.5970  0.0052
  847SOL     OW 3385   2.482   1.923   0.189 -0.6294  0.3887  0.2262
  847SOL    HW1 3386   2.494   1.838   0.241 -1.3087 -2.9210  1.0818
  847SOL    HW2 3387   2.455   1.895   0.100  0.8795 -1.9995 -0.4967
  847SOL     MW 3388   2.480   1.908   0.184 -0.5200 -0.3631  0.2437
  848SOL     OW 3389   2.592   2.102   1.291  0.2080 -0.0356 -0.5166
  848SOL    HW1 3390   2.613   2.181   1.250 -0.1632 -2.5718 -3.2869
  848SOL    HW2 3391   2.588   2.035   1.225 -0.0705  0.8010 -0.2720
  848SOL     MW 3392   2.594   2.103   1.277  0.1223 -0.2598 -0.8499
  849SOL     OW 3393   2.027   2.797   0.773  0.4344  0.4318  0.1208
  849SOL    HW1 3394   2.054   2.738   0.843  0.0905  1.1359 -2.2869
  849SOL    HW2 3395   2.090   2.762   0.705  1.6668 -1.7674  0.8368
  849SOL     MW 3396   2.039   2.784   0.773  0.5516  0.2345 -0.1024
  850SOL     OW 3397   2.247   1.825   1.641  0.2879 -0.7369 -0.4268
  850SOL    HW1 3398   2.165   1.785   1.604  0.8739  2.0748  2.2104
  850SOL    HW2 3399   2.229   1.922   1.634 -2.8342 -0.1374 -2.0450
  850SOL     MW 3400   2.234   1.832   1.635 -0.0467 -0.2868 -0.2923
  851SOL     OW 3401   2.368   2.378   0.276 -0.2832  0.6542  0.3582
  851SOL    HW1 3402   2.342   2.392   0.180 -1.1680 -0.9199 -0.3779
  851SOL    HW2 3403   2.462   2.351   0.267  1.3865  2.1516 -1.2654
  851SOL     MW 3404   2.377   2.376   0.262 -0.1796  0.6441  0.0469
  852SOL     OW 3405   2.337   2.094   0.326  0.5746 -0.2341  0.0412
  852SOL    HW1 3406   2.367   2.183   0.322 -0.9692  0.7293  0.1588
  852SOL    HW2 3407   2.392   2.029   0.275 -0.0811  0.3606 -1.2842
  852SOL     MW 3408   2.348   2.098   0.319  0.2844 -0.0286 -0.1181
  853SOL     OW 3409   2.468   2.447   1.921 -0.3133 -0.6902 -0.1474
  853SOL    HW1 3410   2.487   2.498   1.839 -1.9737 -2.1343 -2.7303
  853SOL    HW2 3411   2.548   2.438   1.976  1.0694 -0.9779  0.2888
  853SOL     MW 3412   2.481   2.453   1.917 -0.3500 -0.9187 -0.4307
  854SOL     OW 3413   2.859   2.294   0.763 -0.1751 -0.1945 -0.2925
  854SOL    HW1 3414   2.774   2.251   0.734 -0.6506 -1.4707 -1.2991
  854SOL    HW2 3415   2.893   2.225   0.828  1.2886  0.0366 -2.0942
  854SOL     MW 3416   2.852   2.280   0.768 -0.0447 -0.3324 -0.6630
  855SOL     OW 3417   2.637   2.320   0.339  0.3505 -0.3854 -0.2585
  855SOL    HW1 3418   2.618   2.368   0.420  1.0337  0.3174  2.2585
  855SOL    HW2 3419   2.689   2.235   0.355  0.3755 -0.2215 -3.3836
  855SOL     MW 3420   2.641   2.315   0.352  0.4439 -0.2711 -0.3387
  856SOL     OW 3421   2.117   1.934   0.228  0.0829 -0.8163  0.0564
  856SOL    HW1 3422   2.030   1.952   0.260 -0.4662  0.1093  0.1002
  856SOL    HW2 3423   2.164   2.016   0.260 -1.0625  0.1912  1.3601
  856SOL     MW 3424   2.112   1.947   0.237 -0.1407 -0.5612  0.2342
  857SOL     OW 3425   2.464   1.963   0.549 -0.1311  0.0681 -0.3042
  857SOL    HW1 3426   2.411   2.027   0.491  0.5551 -0.7054  1.0101
  857SOL    HW2 3427   2.399   1.944   0.623 -2.4372  1.3045  1.0721
  857SOL     MW 3428   2.449   1.969   0.551 -0.3449  0.1292  0.0508
  858SOL     OW 3429   2.900   2.706   1.755  0.0841  0.1345  0.2778
  858SOL    HW1 3430   2.993   2.728   1.750 -2.1464 -2.1368  1.2938
  858SOL    HW2 3431   2.898   2.611   1.765  2.0404 -1.5683 -0.9117
  858SOL     MW 3432   2.912   2.697   1.756  0.0479 -0.3898  0.2549
  859SOL     OW 3433   2.148   2.573   0.937 -0.1823 -0.0749  0.6412
  859SOL    HW1 3434   2.092   2.515   0.993 -0.0295 -1.0882  0.7142
  859SOL    HW2 3435   2.237   2.585   0.971 -0.4733  2.2740  1.0015
  859SOL     MW 3436   2.153   2.567   0.949 -0.2005  0.1013  0.6984
  860SOL     OW 3437   2.698   2.615   0.122 -0.0055  0.0996  0.0998
  860SOL    HW1 3438   2.739   2.623   0.212  2.1215  3.1383  1.7565
  860SOL    HW2 3439   2.703   2.707   0.083  0.2467  4.2742  1.6138
  860SOL     MW 3440   2.704   2.628   0.129  0.3084  1.0513  0.5181
  861SOL     OW 3441   1.604   2.181   1.124 -0.0199  0.3665 -0.1002
  861SOL    HW1 3442   1.603   2.267   1.171 -2.7484  1.7167 -0.8172
  861SOL    HW2 3443   1.552   2.125   1.179  0.9437  0.6409  0.5087
  861SOL     MW 3444   1.597   2.185   1.137 -0.2528  0.5808 -0.1144
  862SOL     OW 3445   2.484   1.793   1.513  0.5160 -0.5374 -0.1163
  862SOL    HW1 3446   2.406   1.800   1.572  0.9581 -0.2413  2.8088
  862SOL    HW2 3447   2.448   1.813   1.425  0.3316  1.6547 -0.5011
  862SOL     MW 3448   2.469   1.796   1.509  0.5500 -0.2091  0.2188
  863SOL     OW 3449   2.989   1.761   1.041 -0.0945  0.1408  0.2626
  863SOL    HW1 3450   3.078   1.765   1.074 -1.7019  1.0548 -0.9800
  863SOL    HW2 3451   2.953   1.814   1.112 -1.2080 -0.1257  1.7334
  863SOL     MW 3452   2.996   1.768   1.055 -0.4535  0.2262  0.2927
  864SOL     OW 3453   3.103   1.825   0.802  0.7545  0.2316  0.3190
  864SOL    HW1 3454   3.044   1.780   0.864 -0.7034 -1.6626 -0.2873
  864SOL    HW2 3455   3.061   1.792   0.720  0.2156  0.5728 -0.5432
  864SOL     MW 3456   3.090   1.815   0.800  0.4911  0.0267  0.1252
  865SOL     OW 3457   2.479   2.198   0.071  0.7866 -0.3493 -0.0032
  865SOL    HW1 3458   2.507   2.158   0.151 -2.8382 -0.8720  2.3908
  865SOL    HW2 3459   2.486   2.124   0.008  1.7651  1.0809 -3.1500
  865SOL     MW 3460   2.483   2.183   0.074  0.4374 -0.2295 -0.1025
  866SOL     OW 3461   2.670   2.342   1.630 -0.3360  0.2937 -0.0018
  866SOL    HW1 3462   2.669   2.254   1.665 -0.3614 -1.3486 -4.2635
  866SOL    HW2 3463   2.716   2.342   1.541 -1.7940 -0.2890 -1.8677
  866SOL     MW 3464   2.676   2.331   1.623 -0.5317  0.0001 -0.8103
  867SOL     OW 3465   0.064   2.684   1.770  0.4645 -0.4441  0.5387
  867SOL    HW1 3466   0.117   2.766   1.800  0.5967  1.9212 -0.8219
  867SOL    HW2 3467   0.074   2.694   1.676  0.5756  1.4823  1.7657
  867SOL     MW 3468   0.072   2.696   1.762  0.4966  0.1222  0.5211
  868SOL     OW 3469   2.755   2.709   0.567 -0.1585  0.3421  0.3981
  868SOL    HW1 3470   2.674   2.659   0.544 -1.4538 -0.3346 -3.7555
  868SOL    HW2 3471   2.767   2.780   0.503 -0.1506  2.3837  0.0930
  868SOL     MW 3472   2.746   2.712   0.556 -0.3284  0.5222 -0.1902
  869SOL     OW 3473   2.081   2.328   1.054 -0.0535  0.2387 -0.4178
  869SOL    HW1 3474   2.176   2.346   1.041  2.1943 -0.1271  0.3445
  869SOL    HW2 3475   2.044   2.285   0.973 -1.7833 -0.2196 -0.0759
  869SOL     MW 3476   2.089   2.325   1.041  0.0148  0.1300 -0.2721
  870SOL     OW 3477   2.152   3.094   0.497  0.3051 -0.0765 -0.0496
  870SOL    HW1 3478   2.207   3.146   0.431  1.4386 -1.2202 -2.7566
  870SOL    HW2 3479   2.192   3.009   0.488 -1.2969 -1.5111  1.6951
  870SOL     MW 3480   2.164   3.090   0.487  0.2433 -0.4167 -0.1765
  871SOL     OW 3481   2.443   2.067   0.939  0.2459  0.5819 -0.6224
  871SOL    HW1 3482   2.376   2.027   0.884 -0.6519 -0.1350  3.1146
  871SOL    HW2 3483   2.415   2.162   0.948  0.7629  1.5217  1.4132
  871SOL     MW 3484   2.430   2.074   0.933  0.1957  0.6113  0.1392
  872SOL     OW 3485   2.045   2.481   1.525  0.0205  0.0569 -0.4125
  872SOL    HW1 3486   2.000   2.543   1.584 -1.3678  1.4380 -0.9726
  872SOL    HW2 3487   1.978   2.479   1.454 -2.3167 -1.4069 -0.8618
  872SOL     MW 3488   2.030   2.489   1.523 -0.4710  0.0460 -0.5456
  873SOL     OW 3489   2.881   2.043   1.981 -0.3888  0.0363 -0.0500
  873SOL    HW1 3490   2.881   2.111   2.050  2.6233  3.0710 -0.0084
  873SOL    HW2 3491   2.966   2.047   1.931  1.9330  0.5074  1.6475
  873SOL     MW 3492   2.892   2.052   1.984  0.3150  0.4988  0.1795
  874SOL     OW 3493   2.340   1.419   2.460  0.0946 -0.1429 -0.3998
  874SOL    HW1 3494   2.292   1.396   2.384  1.2289 -1.0756 -1.7189
  874SOL    HW2 3495   2.413   1.359   2.471 -1.6734  1.0892  0.7424
  874SOL     MW 3496   2.344   1.408   2.452  0.0110 -0.1034 -0.4231
  875SOL     OW 3497   2.344   2.324   0.981  0.1729  0.5132 -0.2831
  875SOL    HW1 3498   2.402   2.370   0.922  0.8085  1.8486  0.8253
  875SOL    HW2 3499   2.376   2.339   1.070  1.3295  2.5546  0.0994
  875SOL     MW 3500   2.356   2.332   0.985  0.4093  0.9587 -0.0864
  876SOL     OW 3501   3.088   2.247   1.383 -0.1383  0.0279 -0.1057
  876SOL    HW1 3502   3.101   2.296   1.297 -2.8326 -0.6572 -0.2211
  876SOL    HW2 3503   3.148   2.292   1.450  0.8470 -2.9860  2.2547
  876SOL     MW 3504   3.098   2.260   1.380 -0.3638 -0.4601  0.1905
  877SOL     OW 3505   0.002   2.833   0.291 -0.0148  0.9525  0.4025
  877SOL    HW1 3506   0.085   2.876   0.263 -1.1966  0.8531 -1.3036
  877SOL    HW2 3507  -0.017   2.761   0.230 -0.7524  2.3157  1.9840
  877SOL     MW 3508   0.010   2.829   0.279 -0.2680  1.1192  0.3860
  878SOL     OW 3509   2.412   1.800   1.257  0.0840 -0.1773 -0.5830
  878SOL    HW1 3510   2.352   1.725   1.259 -1.0686  2.7828  2.9008
  878SOL    HW2 3511   2.496   1.752   1.255  1.5881  0.0347  0.9193
  878SOL     MW 3512   2.415   1.784   1.257  0.1303  0.2412  0.0748
  879SOL     OW 3513   2.735   2.446   0.961  0.2852  0.4787  0.2188
  879SOL    HW1 3514   2.778   2.529   0.955 -0.2294  0.1615 -0.4855
  879SOL    HW2 3515   2.752   2.398   0.878 -0.2340 -3.4079  0.2569
  879SOL     MW 3516   2.743   2.450   0.950  0.1488 -0.0759  0.1309
  880SOL     OW 3517   2.608   2.158   0.732 -0.1163 -0.0381 -0.2184
  880SOL    HW1 3518   2.599   2.130   0.821 -1.1131 -0.7743  1.5196
  880SOL    HW2 3519   2.584   2.084   0.675  4.0991  2.1781  1.1756
  880SOL     MW 3520   2.604   2.145   0.736  0.3083  0.1572  0.1948
  881SOL     OW 3521   2.981   2.707   0.729  0.1737  0.2628 -0.6561
  881SOL    HW1 3522   2.912   2.688   0.672  0.5663  1.7629  1.0458
  881SOL    HW2 3523   3.057   2.704   0.676  1.2991  0.8450 -1.1137
  881SOL     MW 3524   2.982   2.704   0.714  0.3740  0.5376 -0.4919
  882SOL     OW 3525   2.241   2.894   1.974  0.1035  0.3136 -0.5601
  882SOL    HW1 3526   2.248   2.917   1.881 -0.6630 -1.4617  2.0721
  882SOL    HW2 3527   2.196   2.812   1.970  0.3548 -2.5792 -0.5120
  882SOL     MW 3528   2.236   2.886   1.961  0.0355 -0.3023 -0.2064
  883SOL     OW 3529   2.331   2.203   1.387  0.1090 -0.1004 -0.4749
  883SOL    HW1 3530   2.406   2.159   1.342 -0.0312  1.6172 -1.8559
  883SOL    HW2 3531   2.256   2.162   1.345 -2.7277 -1.6330 -1.2987
  883SOL     MW 3532   2.331   2.192   1.376 -0.2838 -0.0760 -0.7658
  884SOL     OW 3533   1.954   1.816   1.078  0.0789 -0.1124  0.2966
  884SOL    HW1 3534   1.898   1.890   1.042 -2.6273  1.7199 -1.2024
  884SOL    HW2 3535   2.050   1.849   1.066  0.8395  1.3179 -1.5445
  884SOL     MW 3536   1.959   1.830   1.072 -0.1778  0.3181 -0.1441
  885SOL     OW 3537   2.864   2.425   1.818 -0.1310  0.5226 -0.5043
  885SOL    HW1 3538   2.912   2.345   1.813 -1.7250  0.5334  1.0068
  885SOL    HW2 3539   2.791   2.406   1.761  1.3965  1.4168  0.5995
  885SOL     MW 3540   2.861   2.412   1.810 -0.1398  0.6420 -0.1593
  886SOL     OW 3541   2.813   2.388   1.402  0.1544  0.6760 -0.4013
  886SOL    HW1 3542   2.897   2.355   1.418  1.9518  0.4717  0.1960
  886SOL    HW2 3543   2.813   2.481   1.427 -0.5123 -0.2994  2.7219
  886SOL     MW 3544   2.824   2.396   1.407  0.3036  0.5203  0.0896
  887SOL     OW 3545   2.281   2.637   1.572  0.1007  0.3700 -0.5251
  887SOL    HW1 3546   2.335   2.675   1.498  1.2818  2.6988 -0.5818
  887SOL    HW2 3547   2.204   2.595   1.535  1.3787 -1.7673 -0.0326
  887SOL     MW 3548   2.278   2.636   1.557  0.4252  0.3953 -0.4676
  888SOL     OW 3549   1.847   2.150   1.412  0.1757  0.3647 -0.4976
  888SOL    HW1 3550   1.928   2.148   1.357  2.0226  0.2891  2.6779
  888SOL    HW2 3551   1.889   2.173   1.496  0.3756  2.1605 -0.1394
  888SOL     MW 3552   1.863   2.153   1.416  0.4458  0.5916 -0.0313
  889SOL     OW 3553   2.349   2.027   2.085  0.3005 -0.3974 -0.1112
  889SOL    HW1 3554   2.426   2.014   2.137 -1.2454  1.5455  2.5040
  889SOL    HW2 3555   2.367   2.102   2.027 -1.3801  0.7097  1.9201
  889SOL     MW 3556   2.362   2.035   2.084 -0.1252  0.0050  0.5019
  890SOL     OW 3557   0.078   2.390   0.159  0.4439 -0.3084 -0.3596
  890SOL    HW1 3558   0.036   2.477   0.163  0.1397  2.5473  0.2123
  890SOL    HW2 3559   0.046   2.341   0.239 -0.8729  1.7789 -0.5997
  890SOL     MW 3560   0.068   2.395   0.170  0.2300  0.3437 -0.3158
  891SOL     OW 3561   3.091   2.007   1.285  0.2407 -0.8963 -0.4613
  891SOL    HW1 3562   3.169   1.962   1.303  0.8603  2.8873 -0.3566
  891SOL    HW2 3563   3.112   2.087   1.330 -0.3464 -0.6483  0.9444
  891SOL     MW 3564   3.104   2.012   1.293  0.2450 -0.3644 -0.2620
  892SOL     OW 3565   2.453   2.340   2.763  0.3206  0.0980 -0.0629
  892SOL    HW1 3566   2.408   2.261   2.795  0.9901  3.3968 -0.1422
  892SOL    HW2 3567   2.549   2.340   2.790 -2.3341  0.0635  0.0573
  892SOL     MW 3568   2.459   2.330   2.771  0.0586  0.5287 -0.0575
  893SOL     OW 3569   1.594   2.442   1.208 -0.2702  0.4328 -0.1081
  893SOL    HW1 3570   1.528   2.482   1.262 -0.9983 -0.7619  1.3031
  893SOL    HW2 3571   1.672   2.494   1.218 -0.2954  1.2985  1.2960
  893SOL     MW 3572   1.595   2.454   1.216 -0.3696  0.3894  0.2634
  894SOL     OW 3573   2.726   1.872   0.438 -0.2324  0.0159 -0.5561
  894SOL    HW1 3574   2.629   1.893   0.447  1.2012 -1.3202  0.9715
  894SOL    HW2 3575   2.747   1.814   0.362 -0.8974 -1.6474  1.3692
  894SOL     MW 3576   2.716   1.867   0.429 -0.1310 -0.3798 -0.1005
  895SOL     OW 3577   2.118   2.117   1.230 -0.4695  0.8359  0.8032
  895SOL    HW1 3578   2.098   2.178   1.155 -0.3393  1.8609  0.5253
  895SOL    HW2 3579   2.158   2.041   1.184  0.8931 -0.8798 -0.6272
  895SOL     MW 3580   2.121   2.115   1.214 -0.2725  0.7448  0.5778
  896SOL     OW 3581   2.319   2.811   1.104  0.1208  0.1115 -0.2222
  896SOL    HW1 3582   2.339   2.769   1.184 -0.6053  0.4871 -2.1094
  896SOL    HW2 3583   2.272   2.885   1.134  4.2515 -3.4693 -1.1351
  896SOL     MW 3584   2.315   2.815   1.118  0.5700 -0.3114 -0.5917
  897SOL     OW 3585   3.050   3.046   3.057 -0.0467  0.0657 -0.4079
  897SOL    HW1 3586   3.095   2.964   3.037  0.9325 -0.7799  0.3558
  897SOL    HW2 3587   2.971   2.996   3.069  1.4399  0.0133 -2.4223
  897SOL     MW 3588   3.046   3.029   3.056  0.2786 -0.0528 -0.5729
  898SOL     OW 3589   2.101   0.191   1.474 -0.4655 -0.3934 -0.0219
  898SOL    HW1 3590   2.072   0.110   1.514 -1.3536  0.9772 -0.6673
  898SOL    HW2 3591   2.086   0.179   1.381 -1.0289  0.5249  2.0785
  898SOL     MW 3592   2.095   0.179   1.467 -0.6570 -0.0914  0.1701
  899SOL     OW 3593   2.928   2.967   0.618  0.8351  0.0553  0.1749
  899SOL    HW1 3594   2.950   2.890   0.677  1.6349  0.5215 -1.0368
  899SOL    HW2 3595   2.844   3.007   0.639  0.5082 -0.4705 -0.9938
  899SOL     MW 3596   2.920   2.962   0.629  0.8975  0.0474 -0.1392
  900SOL     OW 3597   0.072   2.403   1.132 -0.0470 -0.1071  0.1140
  900SOL    HW1 3598   0.054   2.497   1.106  0.1856  1.8935  0.4129
  900SOL    HW2 3599   0.059   2.346   1.056 -1.3753 -0.2134  0.1302
  900SOL     MW 3600   0.068   2.408   1.119 -0.1916  0.1428  0.1556
  901SOL     OW 3601   1.732   2.842   1.769  0.0478  0.1569  0.5872
  901SOL    HW1 3602   1.811   2.784   1.745  2.7029 -1.1115 -1.7267
  901SOL    HW2 3603   1.670   2.815   1.699  0.5089  0.0633  1.2906
  901SOL     MW 3604   1.734   2.831   1.756  0.4590 -0.0228  0.3747
  902SOL     OW 3605   2.664   2.082   1.824 -0.0954 -0.3608 -0.1602
  902SOL    HW1 3606   2.656   2.040   1.740 -0.6271  3.2858  1.6569
  902SOL    HW2 3607   2.750   2.071   1.861 -0.7949 -2.1573 -1.1765
  902SOL     MW 3608   2.674   2.075   1.818 -0.2579 -0.1167 -0.0545
  903SOL     OW 3609   1.625   2.645   0.644  0.1831  0.0219  0.4486
  903SOL    HW1 3610   1.716   2.613   0.653 -2.4016 -0.6123 -1.3598
  903SOL    HW2 3611   1.606   2.715   0.710 -0.9887  1.0858  0.6250
  903SOL     MW 3612   1.634   2.650   0.654 -0.3125  0.0786  0.2333
  904SOL     OW 3613   2.528   2.607   1.669 -0.1378  0.0869 -0.2836
  904SOL    HW1 3614   2.436   2.611   1.646  1.5826 -1.0261 -2.1200
  904SOL    HW2 3615   2.577   2.538   1.619  3.5934  0.1457 -1.2144
  904SOL     MW 3616   2.522   2.598   1.659  0.5815 -0.0522 -0.6487
  905SOL     OW 3617   2.261   2.513   2.131  0.3115 -0.2730 -0.3013
  905SOL    HW1 3618   2.332   2.464   2.091 -1.9956  1.5002  1.3491
  905SOL    HW2 3619   2.225   2.445   2.188  0.1602 -0.9130  0.7855
  905SOL     MW 3620   2.266   2.497   2.133 -0.0129 -0.1235  0.0598
  906SOL     OW 3621   2.514   2.478   0.846  0.1188  0.0206  0.3553
  906SOL    HW1 3622   2.605   2.467   0.885  1.8150  1.1177 -0.9123
  906SOL    HW2 3623   2.501   2.570   0.851  0.9813 -2.4877 -1.9478
  906SOL     MW 3624   2.524   2.489   0.851  0.4564 -0.1656 -0.1158
  907SOL     OW 3625   2.659   2.833   1.350  0.2943  0.8269 -0.3733
  907SOL    HW1 3626   2.703   2.911   1.383  0.7749  0.3635 -1.1832
  907SOL    HW2 3627   2.684   2.836   1.258  0.2365  1.1715  1.9785
  907SOL     MW 3628   2.668   2.844   1.343  0.3501  0.8113 -0.1698
  908SOL     OW 3629   2.722   2.344   0.017 -0.5720 -0.0187  0.2703
  908SOL    HW1 3630   2.662   2.282   0.052  0.7814 -0.2994 -0.0077
  908SOL    HW2 3631   2.698   2.430   0.061  0.4149  2.6084  0.3555
  908SOL     MW 3632   2.711   2.347   0.027 -0.2632  0.2909  0.2449
  909SOL     OW 3633   1.718   0.061   1.197  0.3013 -0.4995 -0.1454
  909SOL    HW1 3634   1.722   0.145   1.150  3.0721  1.1474  1.0592
  909SOL    HW2 3635   1.702   0.073   1.296 -0.6681  1.6649  0.6843
  909SOL     MW 3636   1.716   0.074   1.204  0.5390  0.0034  0.1230
  910SOL     OW 3637   2.229   1.758   0.408 -0.0846  0.2624 -0.2627
  910SOL    HW1 3638   2.178   1.673   0.419  1.2870 -0.5293  0.1513
  910SOL    HW2 3639   2.196   1.803   0.329 -0.2717 -1.8445 -0.9858
  910SOL     MW 3640   2.218   1.753   0.399  0.0717 -0.1200 -0.3035
  911SOL     OW 3641   2.267   2.098   1.633  0.2537 -0.3522 -0.3105
  911SOL    HW1 3642   2.300   2.141   1.718 -0.0700  1.1864  1.6691
  911SOL    HW2 3643   2.300   2.149   1.557 -0.9072  0.0161 -0.3476
  911SOL     MW 3644   2.276   2.111   1.634  0.0578 -0.1006 -0.0542
  912SOL     OW 3645   2.932   1.916   1.489  0.7507  0.6446 -0.3599
  912SOL    HW1 3646   2.963   1.953   1.414 -1.4606 -1.1218  0.5628
  912SOL    HW2 3647   2.845   1.954   1.500 -1.5566  0.8588  2.6649
  912SOL     MW 3648   2.924   1.926   1.481  0.1545  0.4398  0.1609
  913SOL     OW 3649   2.623   3.054   0.346 -0.2648 -0.0633  0.1454
  913SOL    HW1 3650   2.711   3.003   0.345  0.3237 -2.6172 -0.6181
  913SOL    HW2 3651   2.562   2.979   0.326  1.6694  2.4209 -1.4523
  913SOL     MW 3652   2.627   3.037   0.344  0.0680 -0.0725 -0.1661
  914SOL     OW 3653   2.723   1.762   3.031 -0.3942  0.1726 -0.1785
  914SOL    HW1 3654   2.741   1.853   3.016 -1.0772  0.3312  0.2633
  914SOL    HW2 3655   2.633   1.751   3.016  3.2301  0.5392 -2.5965
  914SOL     MW 3656   2.714   1.773   3.027 -0.0062  0.2419 -0.4392
  915SOL     OW 3657   1.695   0.230   0.251  0.1690 -0.1129 -0.1546
  915SOL    HW1 3658   1.762   0.160   0.284  0.8032 -2.0152  0.6343
  915SOL    HW2 3659   1.616   0.176   0.258  0.8294  0.6264  0.9117
  915SOL     MW 3660   1.694   0.213   0.256  0.3398 -0.2664  0.0902
  916SOL     OW 3661   1.834   2.134   1.953  0.0078 -0.0556  0.5185
  916SOL    HW1 3662   1.897   2.204   1.941  0.9425  0.2083 -0.8214
  916SOL    HW2 3663   1.841   2.072   1.880 -1.8642 -1.3409  1.4704
  916SOL     MW 3664   1.843   2.135   1.942 -0.1159 -0.1904  0.4673
  917SOL     OW 3665   2.497   2.203   2.523 -0.2441 -0.1614  0.4422
  917SOL    HW1 3666   2.465   2.259   2.595 -0.6678 -1.1474 -1.3130
  917SOL    HW2 3667   2.575   2.245   2.485 -1.4689 -0.1537  0.4627
  917SOL     MW 3668   2.503   2.216   2.527 -0.4616 -0.2905  0.2133
  918SOL     OW 3669   1.967   1.596   2.692 -0.7817  0.1162 -0.6230
  918SOL    HW1 3670   1.909   1.611   2.617  0.3509 -2.2332  0.8123
  918SOL    HW2 3671   2.052   1.645   2.672 -1.0442 -1.3971  2.2366
  918SOL     MW 3672   1.970   1.604   2.679 -0.6669 -0.3934 -0.0563
  919SOL     OW 3673   3.071   2.351   2.279 -0.2110 -0.2240  0.6921
  919SOL    HW1 3674   2.998   2.296   2.252  0.3396 -1.3445 -0.5444
  919SOL    HW2 3675   3.124   2.375   2.191 -0.9386 -0.5292 -3.7055
  919SOL     MW 3676   3.069   2.347   2.264 -0.2344 -0.4121 -0.0513
  920SOL     OW 3677   2.701   2.859   3.102  0.3352 -0.1081 -0.1506
  920SOL    HW1 3678   2.613   2.894   3.126 -1.8415 -0.9028  0.0757
  920SOL    HW2 3679   2.690   2.798   3.023  2.4655  1.5996 -2.0133
  920SOL     MW 3680   2.688   2.855   3.095  0.3291  0.0124 -0.3665
  921SOL     OW 3681   2.420   2.618   2.612  0.0831  0.5223 -0.1160
  921SOL    HW1 3682   2.503   2.614   2.566 -3.0077 -0.6476  0.3171
  921SOL    HW2 3683   2.434   2.551   2.684  0.8202 -0.5943  0.3056
  921SOL     MW 3684   2.432   2.609   2.615 -0.2275  0.2206 -0.0032
  922SOL     OW 3685   2.036   2.813   0.276  0.0020  0.3831  0.0039
  922SOL    HW1 3686   2.057   2.836   0.183  2.0299  0.4468 -0.2933
  922SOL    HW2 3687   2.052   2.714   0.279 -0.1529 -0.5924 -0.4710
  922SOL     MW 3688   2.041   2.803   0.264  0.2491  0.2628 -0.0980
  923SOL     OW 3689   2.184   2.874   1.691  0.1827  0.7890 -0.1890
  923SOL    HW1 3690   2.233   2.814   1.634 -1.2077 -0.9643 -1.0254
  923SOL    HW2 3691   2.156   2.951   1.639  1.3315  1.1600 -0.3790
  923SOL     MW 3692   2.187   2.876   1.676  0.1508  0.6066 -0.3244
  924SOL     OW 3693   1.140   2.724   2.542  0.2622  0.1561  0.8843
  924SOL    HW1 3694   1.234   2.771   2.556  0.9142  2.7681 -1.6535
  924SOL    HW2 3695   1.114   2.670   2.620 -1.4958  0.3954  2.3042
  924SOL     MW 3696   1.149   2.723   2.554  0.1163  0.5323  0.7369
  925SOL     OW 3697   3.056   0.185   2.629 -0.5413  0.2120  0.5882
  925SOL    HW1 3698   3.003   0.226   2.561  0.4716  1.3249 -0.9016
  925SOL    HW2 3699   3.048   0.248   2.699  3.7820 -2.0663 -0.6201
  925SOL     MW 3700   3.048   0.199   2.629  0.1628  0.0583  0.2322
  926SOL     OW 3701   2.705   2.436   2.054  0.0527  0.2474  0.1552
  926SOL    HW1 3702   2.750   2.481   2.125  0.1578 -0.0027  2.3630
  926SOL    HW2 3703   2.763   2.448   1.971  0.5095 -2.2123 -1.8842
  926SOL     MW 3704   2.719   2.443   2.052  0.1269 -0.1101  0.1774
  927SOL     OW 3705   2.320   0.128   0.333  0.2736  0.2453  0.3495
  927SOL    HW1 3706   2.413   0.148   0.331 -2.6365  0.2809 -0.1713
  927SOL    HW2 3707   2.304   0.099   0.246 -0.8100  1.4800  1.3979
  927SOL     MW 3708   2.330   0.127   0.321 -0.2534  0.4129  0.4191
  928SOL     OW 3709   2.183   2.375   1.757  0.0922  0.0241  0.0759
  928SOL    HW1 3710   2.172   2.409   1.664  0.4914 -1.0816 -2.5313
  928SOL    HW2 3711   2.238   2.432   1.814 -1.6229  2.8063 -0.4179
  928SOL     MW 3712   2.189   2.387   1.752 -0.0815  0.2453 -0.3332
  929SOL     OW 3713   2.731   2.298   2.452 -0.1303 -0.3646 -0.0705
  929SOL    HW1 3714   2.793   2.278   2.383 -0.2565 -0.4367 -3.2402
  929SOL    HW2 3715   2.773   2.273   2.536 -0.5210  1.1028  0.4115
  929SOL     MW 3716   2.745   2.292   2.454 -0.1985 -0.1805 -0.4251
  930SOL     OW 3717   2.018   2.849   2.741 -0.0579  0.3073 -0.3767
  930SOL    HW1 3718   2.052   2.764   2.780  0.0857 -2.6426  0.1968
  930SOL    HW2 3719   2.098   2.900   2.719  0.3079 -2.6240 -0.9099
  930SOL     MW 3720   2.033   2.845   2.743  0.0093 -0.4686 -0.3714
  931SOL     OW 3721   3.027   2.729   2.393  0.0617  0.0819  0.7641
  931SOL    HW1 3722   3.061   2.757   2.481 -1.4692 -0.6500  1.5317
  931SOL    HW2 3723   3.073   2.650   2.374  0.8316 -3.1784 -1.6683
  931SOL     MW 3724   3.038   2.722   2.402 -0.0387 -0.4448  0.5445
  932SOL     OW 3725   2.930   1.920   2.485  0.3725 -0.2848 -0.3472
  932SOL    HW1 3726   3.016   1.962   2.491 -0.5372  0.7808  0.6784
  932SOL    HW2 3727   2.886   1.954   2.408  0.4466  0.5421  1.1127
  932SOL     MW 3728   2.936   1.930   2.476  0.2622 -0.0351 -0.0193
  933SOL     OW 3729   2.061   2.812   2.211 -0.2947  0.0039 -0.3726
  933SOL    HW1 3730   2.138   2.863   2.224 -2.9346  3.3073  2.5634
  933SOL    HW2 3731   1.988   2.868   2.207 -0.2378 -0.0999  0.0669
  933SOL     MW 3732   2.062   2.826   2.212 -0.6355  0.4261  0.0727
  934SOL     OW 3733   2.005   2.733   2.472 -0.0007 -0.9577 -0.2306
  934SOL    HW1 3734   2.016   2.808   2.535  2.0061  1.7729 -1.2732
  934SOL    HW2 3735   2.028   2.771   2.388  1.8165  0.6063  2.6663
  934SOL     MW 3736   2.010   2.748   2.469  0.5038 -0.3911  0.0140
  935SOL     OW 3737   2.692   1.566   1.863 -0.4917  0.1361 -0.2027
  935SOL    HW1 3738   2.782   1.583   1.836 -1.6487 -1.3781  1.5866
  935SOL    HW2 3739   2.648   1.559   1.776  5.6935  2.4980 -4.3612
  935SOL     MW 3740   2.698   1.567   1.848  0.1717  0.2480 -0.5153
  936SOL     OW 3741   2.969   2.229  -0.001  0.5217 -0.1382  0.3252
  936SOL    HW1 3742   3.035   2.282   0.042  0.2531  1.0600  2.5167
  936SOL    HW2 3743   2.878   2.270   0.010 -0.1852 -2.8951 -1.0907
  936SOL     MW 3744   2.966   2.241   0.006  0.3930 -0.3438  0.4275
  937SOL     OW 3745   1.981   2.129   2.630 -0.4260  0.5025  0.9213
  937SOL    HW1 3746   2.050   2.071   2.666  2.3691  1.1254 -2.0317
  937SOL    HW2 3747   1.965   2.112   2.541 -0.1759 -0.3808 -0.9265
  937SOL     MW 3748   1.988   2.119   2.623 -0.0242  0.4681  0.2879
  938SOL     OW 3749   2.288   1.814   1.941 -0.1084  0.1199 -0.2677
  938SOL    HW1 3750   2.265   1.836   1.849  0.5873  0.7983  1.4789
  938SOL    HW2 3751   2.297   1.890   1.998 -0.5670 -0.0856  1.2651
  938SOL     MW 3752   2.286   1.827   1.936 -0.0771  0.1823  0.1650
  939SOL     OW 3753   2.769   1.974   2.277  0.2636  0.0159 -0.2336
  939SOL    HW1 3754   2.791   1.900   2.221  0.0548  0.4057  0.0815
  939SOL    HW2 3755   2.676   1.960   2.315 -3.3047  0.3866  2.3298
  939SOL     MW 3756   2.760   1.963   2.274 -0.2348  0.1162  0.1462
  940SOL     OW 3757   2.288   0.152   2.674  0.3743  0.0959  0.0637
  940SOL    HW1 3758   2.279   0.067   2.635  0.0535  1.7192  0.4903
  940SOL    HW2 3759   2.322   0.154   2.758  0.2518  0.1552 -0.8583
  940SOL     MW 3760   2.292   0.141   2.680  0.3158  0.3179 -0.0017
  941SOL     OW 3761   0.100   2.447   2.059  0.3968 -0.2243  0.5076
  941SOL    HW1 3762   0.182   2.409   2.081 -0.6757  1.1347 -0.0381
  941SOL    HW2 3763   0.098   2.419   1.964  0.3665 -1.0910  0.2451
  941SOL     MW 3764   0.111   2.439   2.049  0.2513 -0.1594  0.4010
  942SOL     OW 3765   2.854   2.218   2.205  0.2691  0.2273  0.8348
  942SOL    HW1 3766   2.794   2.257   2.143  1.3832 -2.8866  0.0111
  942SOL    HW2 3767   2.814   2.134   2.242  0.8755  2.3193  0.0213
  942SOL     MW 3768   2.840   2.212   2.202  0.4961  0.0925  0.6188
  943SOL     OW 3769   0.263   2.110   2.274 -0.1530  0.3054  0.5027
  943SOL    HW1 3770   0.248   2.172   2.351 -0.2742  3.5342  1.2301
  943SOL    HW2 3771   0.348   2.062   2.294 -1.1445  0.9181 -0.1498
  943SOL     MW 3772   0.272   2.112   2.287 -0.2998  0.8123  0.5126
  944SOL     OW 3773   2.081   2.658   1.980 -0.4808 -0.6653 -0.4273
  944SOL    HW1 3774   2.148   2.607   2.021  0.5985  2.8093  1.1922
  944SOL    HW2 3775   2.043   2.695   2.059  1.3982 -1.7847 -1.5451
  944SOL     MW 3776   2.085   2.656   1.996 -0.0905 -0.3546 -0.3611
  945SOL     OW 3777   2.724   2.674   2.900 -0.0239 -0.4803  0.4843
  945SOL    HW1 3778   2.713   2.574   2.880  2.4173 -1.5513  0.5238
  945SOL    HW2 3779   2.728   2.709   2.810  1.3914 -2.7096 -1.1846
  945SOL     MW 3780   2.723   2.665   2.885  0.4849 -0.9157  0.2693
  946SOL     OW 3781   2.478   2.691   2.238  0.0415  0.1170  0.2586
  946SOL    HW1 3782   2.503   2.737   2.159 -1.7753  2.1894  2.8690
  946SOL    HW2 3783   2.399   2.627   2.212 -2.0067 -0.8000  0.3223
  946SOL     MW 3784   2.471   2.688   2.224 -0.4684  0.2694  0.6114
  947SOL     OW 3785   1.924   0.060   0.301  0.1413 -0.5926  0.0887
  947SOL    HW1 3786   1.943  -0.024   0.265  0.8189  2.9388  0.1488
  947SOL    HW2 3787   1.961   0.057   0.394  0.7311 -0.5753  1.7516
  947SOL     MW 3788   1.931   0.048   0.309  0.3085 -0.1244  0.3161
  948SOL     OW 3789   1.781   3.028   2.668  0.1045 -0.1260 -0.0717
  948SOL    HW1 3790   1.846   2.955   2.670 -1.8923 -0.6819  1.1952
  948SOL    HW2 3791   1.775   3.047   2.566 -0.7004  0.9486 -0.3840
  948SOL     MW 3792   1.789   3.021   2.655 -0.2652 -0.0575  0.0543
  949SOL     OW 3793   2.509   1.907   2.302 -0.1175  0.2874  0.6357
  949SOL    HW1 3794   2.494   1.810   2.309  1.9354 -0.0771 -1.0962
  949SOL    HW2 3795   2.429   1.944   2.345 -3.2964 -0.1133 -1.4109
  949SOL     MW 3796   2.496   1.899   2.308 -0.2661  0.1865  0.1372
  950SOL     OW 3797   2.324   2.537   2.926  0.4535  1.3414 -0.3333
  950SOL    HW1 3798   2.383   2.478   2.878 -1.1199 -0.3717 -0.4501
  950SOL    HW2 3799   2.239   2.531   2.882 -1.0018 -1.9238  0.4010
  950SOL     MW 3800   2.320   2.528   2.914  0.0539  0.6845 -0.2518
  951SOL     OW 3801   3.053   2.109   2.846  0.2356  0.4340  0.5399
  951SOL    HW1 3802   3.033   2.148   2.929  0.6680 -1.2147 -0.6761
  951SOL    HW2 3803   3.116   2.036   2.858  1.0162  0.9753 -0.1059
  951SOL     MW 3804   3.059   2.105   2.859  0.3956  0.2879  0.2942
  952SOL     OW 3805   3.030   1.696   2.160 -0.3042  0.4546 -0.5209
  952SOL    HW1 3806   2.955   1.748   2.139  0.6153 -1.2814 -0.0457
  952SOL    HW2 3807   3.092   1.758   2.203  0.6061 -1.8390 -1.1134
  952SOL     MW 3808   3.028   1.711   2.163 -0.0627 -0.0771 -0.5363
  953SOL     OW 3809   1.923   1.773   2.903  0.0951 -0.5475 -0.6507
  953SOL    HW1 3810   1.856   1.734   2.964 -1.2212  1.5557 -1.7351
  953SOL    HW2 3811   1.918   1.713   2.829  0.2306  1.9184 -0.2512
  953SOL     MW 3812   1.914   1.760   2.901 -0.0607  0.0553 -0.7411
  954SOL     OW 3813   2.388   2.079   2.845 -0.3085  0.2884  0.1355
  954SOL    HW1 3814   2.315   2.031   2.813  2.6812  2.1376 -0.7110
  954SOL    HW2 3815   2.465   2.043   2.812 -0.0401  0.1953  1.7094
  954SOL     MW 3816   2.389   2.068   2.836  0.1214  0.5201  0.2314
  955SOL     OW 3817   1.535   1.617   2.569  0.0227  0.5319  0.0015
  955SOL    HW1 3818   1.513   1.631   2.473 -1.7953 -0.3689 -1.6270
  955SOL    HW2 3819   1.615   1.672   2.588  1.0204 -0.3467  2.2722
  955SOL     MW 3820   1.543   1.626   2.559 -0.0855  0.2971  0.0863
  956SOL     OW 3821   2.715   2.394   2.843  0.3633  0.0716 -0.2910
  956SOL    HW1 3822   2.737   2.370   2.937 -1.6830  0.0339 -0.6432
  956SOL    HW2 3823   2.800   2.354   2.802  2.2036 -1.9066 -0.3173
  956SOL     MW 3824   2.729   2.386   2.850  0.3361 -0.1944 -0.3409
  957SOL     OW 3825   2.250   2.862   0.443 -0.4118  0.4237  0.3429
  957SOL    HW1 3826   2.185   2.847   0.377 -1.3888 -0.0357  1.9128
  957SOL    HW2 3827   2.256   2.793   0.514 -2.8227 -2.6703  1.0291
  957SOL     MW 3828   2.242   2.851   0.443 -0.8588 -0.0451  0.6406
  958SOL     OW 3829   2.080   2.583   2.835  0.3283  0.0156  0.0137
  958SOL    HW1 3830   2.030   2.529   2.774 -3.4578  0.7789 -3.8107
  958SOL    HW2 3831   2.042   2.570   2.925 -0.8785  0.6521  1.1678
  958SOL     MW 3832   2.068   2.574   2.839 -0.3304  0.2003 -0.3386
  959SOL     OW 3833   2.480   2.699   0.385 -0.3714  0.6672  0.0586
  959SOL    HW1 3834   2.480   2.700   0.294 -2.6348  1.0709  2.3117
  959SOL    HW2 3835   2.414   2.767   0.403  0.0023  2.6203  1.4424
  959SOL     MW 3836   2.471   2.708   0.376 -0.6208  0.9782  0.5384
  960SOL     OW 3837   1.886   2.331   2.318 -0.3452  0.2574  0.0020
  960SOL    HW1 3838   1.884   2.237   2.324 -1.7667  0.9580 -0.2670
  960SOL    HW2 3839   1.833   2.341   2.397  0.6065 -0.4594  0.2148
  960SOL     MW 3840   1.879   2.320   2.329 -0.4072  0.2553 -0.0054
  961SOL     OW 3841   2.175   2.310   2.317 -0.1984  0.5120  0.2792
  961SOL    HW1 3842   2.087   2.320   2.289  0.8170  0.7948 -0.7293
  961SOL    HW2 3843   2.191   2.385   2.378 -0.1841 -0.3476 -1.2480
  961SOL     MW 3844   2.165   2.321   2.322 -0.0626  0.4359 -0.0553
  962SOL     OW 3845   2.145   1.980   2.778  0.8902 -0.1642 -0.3560
  962SOL    HW1 3846   2.127   1.969   2.875  0.3330  0.8167  1.4172
  962SOL    HW2 3847   2.163   1.887   2.739 -1.1296 -2.7422 -1.4375
  962SOL     MW 3848   2.145   1.966   2.786  0.5502 -0.3749 -0.2648
  963SOL     OW 3849   1.769   2.488   2.102 -0.4394 -0.3231  0.1125
  963SOL    HW1 3850   1.788   2.435   2.185  1.2400  1.0124  1.1059
  963SOL    HW2 3851   1.834   2.454   2.043  1.0024  0.9490  1.1566
  963SOL     MW 3852   1.780   2.477   2.105 -0.0276  0.0210  0.3813
  964SOL     OW 3853   1.799   1.944   2.738  0.7748 -0.3150  0.1640
  964SOL    HW1 3854   1.848   2.019   2.700 -1.5658  0.9641  0.8765
  964SOL    HW2 3855   1.856   1.882   2.784 -0.7539 -3.7139  0.7723
  964SOL     MW 3856   1.813   1.946   2.739  0.2643 -0.5947  0.3383
  965SOL     OW 3857   2.266   2.689   0.645  0.3472  0.2011  0.0107
  965SOL    HW1 3858   2.277   2.600   0.609  0.7825 -1.2734  0.6365
  965SOL    HW2 3859   2.346   2.694   0.696  0.8860 -1.5479 -1.3675
  965SOL     MW 3860   2.278   2.678   0.647  0.4758 -0.2242 -0.0886
  966SOL     OW 3861   2.650   2.606   2.459  0.1221 -0.0399 -0.9043
  966SOL    HW1 3862   2.623   2.636   2.365  0.2024 -2.2397  1.3059
  966SOL    HW2 3863   2.702   2.528   2.448  1.3006 -0.4275  1.0891
  966SOL     MW 3864   2.653   2.600   2.445  0.2882 -0.3813 -0.3497
  967SOL     OW 3865   2.786   3.101   2.957  0.0419 -0.0930 -0.0280
  967SOL    HW1 3866   2.734   3.035   3.004 -0.0882  1.7483  0.1279
  967SOL    HW2 3867   2.740   3.122   2.879  3.8767  1.1976  2.8019
  967SOL     MW 3868   2.773   3.095   2.953  0.5307  0.3202  0.3660
  968SOL     OW 3869   2.975   2.627   2.952  0.4711  0.0280  0.2407
  968SOL    HW1 3870   2.883   2.654   2.922  1.9788  2.3891 -0.7569
  968SOL    HW2 3871   3.006   2.574   2.876  1.2496 -0.6298 -2.5641
  968SOL     MW 3872   2.967   2.624   2.938  0.7727  0.2527 -0.2610
  969SOL     OW 3873   1.607   2.169   1.658  0.2074  0.3894 -0.1509
  969SOL    HW1 3874   1.676   2.099   1.667 -0.1586  1.2499 -0.0307
  969SOL    HW2 3875   1.574   2.184   1.749 -0.2436  0.4817  1.6774
  969SOL     MW 3876   1.612   2.162   1.671  0.0996  0.5151  0.1062
  970SOL     OW 3877   1.734   1.788   1.935  0.2956  0.3369 -0.2245
  970SOL    HW1 3878   1.784   1.716   1.966 -0.7067  3.9334 -3.7397
  970SOL    HW2 3879   1.644   1.758   1.925  4.5072 -1.5638  1.4763
  970SOL     MW 3880   1.729   1.775   1.938  0.7190  0.5607 -0.4639
  971SOL     OW 3881   1.779   0.036   2.433  0.0543 -0.1198 -0.3355
  971SOL    HW1 3882   1.826  -0.014   2.366 -0.2462 -0.8694  0.0574
  971SOL    HW2 3883   1.836   0.110   2.456  1.8998  0.3447 -1.9177
  971SOL     MW 3884   1.792   0.039   2.427  0.2581 -0.1574 -0.4924
  972SOL     OW 3885   0.279   2.869   2.451 -0.4018  0.3199  0.5147
  972SOL    HW1 3886   0.327   2.795   2.487  1.0079 -0.4086  1.3618
  972SOL    HW2 3887   0.325   2.947   2.490 -1.0366  1.3874 -1.2472
  972SOL     MW 3888   0.291   2.870   2.461 -0.2996  0.3646  0.3940
  973SOL     OW 3889   2.614   0.029   2.072  0.3327 -0.4596  0.3429
  973SOL    HW1 3890   2.577  -0.059   2.071  2.0256  0.5080  0.4310
  973SOL    HW2 3891   2.603   0.073   1.985  0.2410 -0.5214  1.7401
  973SOL     MW 3892   2.608   0.023   2.060  0.5439 -0.3401  0.5389
  974SOL     OW 3893   2.051   0.268   2.736  0.2327 -0.2465  0.0198
  974SOL    HW1 3894   2.143   0.244   2.727 -0.2490 -3.5680  1.0012
  974SOL    HW2 3895   2.017   0.192   2.780  0.2174  1.7863 -1.2252
  974SOL     MW 3896   2.058   0.255   2.741  0.1671 -0.4165 -0.0150
  975SOL     OW 3897   2.186   2.518   2.501 -0.2408  0.0492 -0.3285
  975SOL    HW1 3898   2.261   2.557   2.538 -0.5812  0.1215 -2.0286
  975SOL    HW2 3899   2.137   2.595   2.475  0.2993  1.4074 -0.9966
  975SOL     MW 3900   2.189   2.533   2.503 -0.2144  0.2379 -0.6410
  976SOL     OW 3901   0.238   0.377   1.781  0.1622  0.1827  0.5016
  976SOL    HW1 3902   0.296   0.303   1.816  1.2617 -2.2067  0.9367
  976SOL    HW2 3903   0.164   0.329   1.748 -0.9039  1.0790 -1.8459
  976SOL     MW 3904   0.236   0.361   1.781  0.1666 -0.0143  0.2493
  977SOL     OW 3905   1.753   2.677   2.554 -0.1190 -0.2842 -0.7383
  977SOL    HW1 3906   1.736   2.589   2.575 -2.9946  0.9409 -1.4488
  977SOL    HW2 3907   1.842   2.689   2.518  1.1942  2.3583  0.5547
  977SOL     MW 3908   1.763   2.667   2.552 -0.3251  0.2261 -0.6615
   3.10000   3.10000   3.10000
